1000 SPC/Fw water molecules t= 271.00000 step= 271000
 3000
    1SOL     OW    1   2.769   2.445   1.032  0.7699 -0.5460  0.1527
    1SOL    HW1    2   2.871   2.444   1.033 -0.0733  1.2101 -0.7903
    1SOL    HW2    3   2.729   2.543   1.042 -0.7194  2.3884 -0.4194
    2SOL     OW    4   2.009   1.878   0.986  0.1357  0.3211 -0.2955
    2SOL    HW1    5   2.093   1.919   0.943 -0.1297 -1.3551 -0.2891
    2SOL    HW2    6   2.005   1.893   1.084  1.7205  0.1981 -4.4573
    3SOL     OW    7   1.095   2.755   0.024 -0.0960  0.1889 -0.5482
    3SOL    HW1    8   1.089   2.855   3.109  0.6848 -1.1549  1.7641
    3SOL    HW2    9   1.172   2.712   3.085  0.0909 -0.8370 -1.0536
    4SOL     OW   10   2.045   1.909   1.269  0.1072  0.5047 -0.2821
    4SOL    HW1   11   1.995   1.844   1.328  1.3301  0.8911 -1.1711
    4SOL    HW2   12   2.081   1.990   1.323 -0.2170  3.9583  0.1800
    5SOL     OW   13   1.285   1.105   1.630 -0.9068  0.4377  0.7129
    5SOL    HW1   14   1.374   1.064   1.594 -0.8398 -1.7299 -1.1941
    5SOL    HW2   15   1.284   1.205   1.648 -1.3177 -0.8165 -1.1626
    6SOL     OW   16   2.650   0.158   3.093 -0.1113 -0.5849 -0.2041
    6SOL    HW1   17   2.595   0.151   3.009  1.1119 -0.2513 -0.5867
    6SOL    HW2   18   2.717   0.239   3.088 -0.2932  2.0116 -0.6049
    7SOL     OW   19   2.774   1.255   1.159  0.0560  0.0716 -0.0966
    7SOL    HW1   20   2.672   1.274   1.168 -1.1192 -1.1225  2.7531
    7SOL    HW2   21   2.815   1.301   1.076  0.2102 -1.4843  0.1939
    8SOL     OW   22   1.280   2.828   1.144  0.0745  0.8202 -0.1628
    8SOL    HW1   23   1.344   2.890   1.095  1.3106  0.3486  0.3915
    8SOL    HW2   24   1.274   2.843   1.247 -0.9906 -0.6593  1.2431
    9SOL     OW   25   1.740   3.106   2.085  0.1072  0.0165  0.0785
    9SOL    HW1   26   1.691   3.039   2.025 -1.1181 -1.7874  0.4656
    9SOL    HW2   27   1.727   0.093   2.047 -1.0139  1.9527 -3.1704
   10SOL     OW   28   0.833   2.401   0.857 -0.1514 -0.2424  0.1989
   10SOL    HW1   29   0.743   2.433   0.828 -0.6010 -0.9875 -0.1034
   10SOL    HW2   30   0.882   2.471   0.914 -3.0552 -0.2465  0.5918
   11SOL     OW   31   1.442   1.497   0.564 -0.1308 -0.7433  0.2495
   11SOL    HW1   32   1.359   1.560   0.540 -2.8716  0.7427 -0.1659
   11SOL    HW2   33   1.492   1.536   0.644  1.3707  2.8916  0.0250
   12SOL     OW   34   2.796   2.731   1.903 -0.2660 -0.4554 -0.5674
   12SOL    HW1   35   2.786   2.660   1.835  0.8869  1.4712  1.5883
   12SOL    HW2   36   2.885   2.783   1.898  0.7919  0.6602 -1.5508
   13SOL     OW   37   1.983   0.113   0.493  0.3053  0.6363  0.0552
   13SOL    HW1   38   1.901   0.136   0.548  0.4039  0.0276 -2.0257
   13SOL    HW2   39   2.048   0.060   0.543  1.4411  0.6570 -2.7571
   14SOL     OW   40   1.280   2.562   1.064 -0.1026 -0.2256 -0.1532
   14SOL    HW1   41   1.303   2.540   0.968  3.4314  0.1294  3.1110
   14SOL    HW2   42   1.287   2.662   1.085 -0.8647  0.6758 -1.2214
   15SOL     OW   43   0.020   1.713   1.485  0.1338 -0.2144 -0.4943
   15SOL    HW1   44   0.063   1.792   1.533  0.8432  0.1549  1.5080
   15SOL    HW2   45   0.008   1.728   1.388  0.6114 -1.2564 -0.8608
   16SOL     OW   46   1.972   2.071   0.443 -0.0087 -0.2152 -0.2560
   16SOL    HW1   47   1.994   2.044   0.539 -1.1674  0.5138 -2.4867
   16SOL    HW2   48   2.049   2.037   0.383 -0.2944  1.9676 -1.5255
   17SOL     OW   49   0.914   2.974   1.679 -0.0092 -0.0914 -0.0796
   17SOL    HW1   50   0.944   3.000   1.773  0.2323  2.9806  0.2947
   17SOL    HW2   51   0.964   3.039   1.615  0.0089  0.1126  1.6997
   18SOL     OW   52   1.288   0.815   0.276 -0.0468 -0.1246 -0.3115
   18SOL    HW1   53   1.366   0.840   0.216 -3.9001 -1.6182  0.3382
   18SOL    HW2   54   1.301   0.868   0.364  0.1706 -1.6785  0.2703
   19SOL     OW   55   1.772   1.909   2.857 -0.1324 -0.2284  0.6166
   19SOL    HW1   56   1.838   1.835   2.841 -3.1553  1.0747  0.8702
   19SOL    HW2   57   1.797   1.974   2.937  2.0383  1.1245  2.4936
   20SOL     OW   58   2.192   1.765   1.883  0.5338 -0.1494  0.1852
   20SOL    HW1   59   2.217   1.855   1.832  1.4666  4.2335 -0.0867
   20SOL    HW2   60   2.162   1.693   1.815  1.1976 -1.2474 -1.4329
   21SOL     OW   61   0.758   1.548   0.547 -0.0758  0.1515  0.3327
   21SOL    HW1   62   0.772   1.514   0.453 -2.8025 -0.3437 -2.2328
   21SOL    HW2   63   0.695   1.626   0.547  3.7317 -0.8347  0.0104
   22SOL     OW   64   2.174   0.073   1.309 -0.2852 -0.1378  0.8237
   22SOL    HW1   65   2.214   0.135   1.238 -2.4931 -1.5532  3.8835
   22SOL    HW2   66   2.165   3.092   1.257  0.3516  0.2145 -2.5225
   23SOL     OW   67   2.924   0.834   1.856 -0.1943  0.0726 -0.9811
   23SOL    HW1   68   2.896   0.856   1.758 -0.5545 -0.3820 -2.7013
   23SOL    HW2   69   2.878   0.889   1.926  1.4117  0.6867 -1.1498
   24SOL     OW   70   2.174   2.660   0.208 -0.0106  0.4058 -0.2709
   24SOL    HW1   71   2.208   2.616   0.123  0.0084 -1.1972  1.3400
   24SOL    HW2   72   2.104   2.604   0.256 -0.5078 -0.6037  1.1212
   25SOL     OW   73   1.531   3.095   2.549  0.1740  0.0079  0.6621
   25SOL    HW1   74   1.454   3.097   2.480  1.7237 -1.5496  0.8650
   25SOL    HW2   75   1.599   0.052   2.511  2.5292 -0.4963  0.4575
   26SOL     OW   76   1.740   2.460   0.237  0.0772  0.0359 -0.0602
   26SOL    HW1   77   1.697   2.500   0.152 -0.1302 -1.0969 -1.0324
   26SOL    HW2   78   1.736   2.520   0.322  0.2312 -0.6178  0.8619
   27SOL     OW   79   2.711   1.961   3.059 -0.3388  0.1167  0.1117
   27SOL    HW1   80   2.679   1.889   2.988  0.8118 -3.8003  1.4151
   27SOL    HW2   81   2.743   2.047   3.013 -0.4276  2.7012 -0.4867
   28SOL     OW   82   0.250   1.068   1.852 -0.3058  0.2790 -0.2866
   28SOL    HW1   83   0.179   1.008   1.815  1.3939  1.0437 -0.0484
   28SOL    HW2   84   0.292   1.034   1.935 -2.0082  1.8270 -0.0438
   29SOL     OW   85   2.379   2.267   1.351  1.1546 -0.5099 -0.2998
   29SOL    HW1   86   2.362   2.330   1.428  0.6599  0.6839 -0.5964
   29SOL    HW2   87   2.479   2.260   1.326 -1.0151  1.4762 -0.5378
   30SOL     OW   88   1.741   0.409   0.461  0.1587 -0.2447  0.3492
   30SOL    HW1   89   1.728   0.417   0.361 -0.9375  1.1992 -0.5512
   30SOL    HW2   90   1.801   0.480   0.498  1.8922 -0.8466  1.2286
   31SOL     OW   91   2.392   2.451   1.884 -0.0855  0.0078  0.1241
   31SOL    HW1   92   2.320   2.404   1.928  3.0062  0.6254 -2.0670
   31SOL    HW2   93   2.374   2.546   1.858 -0.6293  0.7918 -0.3276
   32SOL     OW   94   0.796   1.917   1.135 -0.0984  0.3789  0.1351
   32SOL    HW1   95   0.851   1.964   1.061  0.2336  3.0058  0.1694
   32SOL    HW2   96   0.713   1.973   1.148  2.4885 -2.7955  0.1864
   33SOL     OW   97   0.696   3.005   2.686 -0.0860 -0.3155  0.0107
   33SOL    HW1   98   0.650   2.944   2.619 -1.3535 -1.8601 -0.2814
   33SOL    HW2   99   0.699   2.962   2.777 -0.9346 -1.9928 -0.0694
   34SOL     OW  100   1.321   2.992   0.661 -0.5319 -0.2914  0.1334
   34SOL    HW1  101   1.324   3.043   0.751  0.0196 -3.1245 -2.6718
   34SOL    HW2  102   1.408   2.937   0.653 -1.0093  1.3714 -0.5581
   35SOL     OW  103   1.999   2.857   1.005  0.4064  0.1372  0.2282
   35SOL    HW1  104   2.071   2.886   1.068 -0.8777 -0.6528  2.8398
   35SOL    HW2  105   1.917   2.920   1.017 -0.6621 -0.9442  1.9309
   36SOL     OW  106   1.945   2.481   2.485 -0.3536 -0.5023 -0.1680
   36SOL    HW1  107   1.900   2.425   2.556 -0.1142 -1.0563  1.8894
   36SOL    HW2  108   1.893   2.493   2.397  4.2254 -0.7056  1.6655
   37SOL     OW  109   0.995   0.115   2.344  0.5259  0.3692 -0.0991
   37SOL    HW1  110   0.917   0.087   2.280  0.4375 -0.0811 -0.6316
   37SOL    HW2  111   1.017   0.216   2.335  0.3414  3.5332  0.2561
   38SOL     OW  112   0.171   2.566   2.662  0.1074 -0.1974 -0.3204
   38SOL    HW1  113   0.190   2.647   2.596 -0.8932 -0.1706 -0.7937
   38SOL    HW2  114   0.235   2.493   2.644  0.5806  1.9800 -1.7410
   39SOL     OW  115   2.104   1.120   1.747 -0.6523  0.1923  0.4387
   39SOL    HW1  116   2.045   1.115   1.664  2.4084 -0.4322  0.9801
   39SOL    HW2  117   2.078   1.201   1.799 -1.1970 -1.3552 -1.1731
   40SOL     OW  118   0.928   3.008   0.311 -0.4565  0.2518 -0.2013
   40SOL    HW1  119   0.831   2.981   0.292 -2.7466 -2.0751  0.9962
   40SOL    HW2  120   0.937   3.106   0.348 -0.6671 -1.1821 -3.0248
   41SOL     OW  121   2.164   1.252   1.234  0.4364 -0.5362  0.1889
   41SOL    HW1  122   2.224   1.185   1.192 -2.0965 -2.6112 -1.1388
   41SOL    HW2  123   2.210   1.335   1.264 -0.7595 -1.6929 -2.2596
   42SOL     OW  124   0.497   0.561   1.023  0.1818  0.4651  0.2750
   42SOL    HW1  125   0.501   0.659   1.048 -1.1251 -1.2340  2.3569
   42SOL    HW2  126   0.412   0.522   1.066 -0.2903 -0.1756  0.9654
   43SOL     OW  127   2.315   1.635   2.565 -0.5989 -0.4015  0.0159
   43SOL    HW1  128   2.312   1.597   2.661 -1.0558  0.3378  0.6265
   43SOL    HW2  129   2.306   1.554   2.500 -0.8440 -1.8759 -2.9101
   44SOL     OW  130   2.704   3.059   1.362 -0.1457 -0.7943  0.0321
   44SOL    HW1  131   2.720   3.063   1.461 -1.5674  0.5335  0.3932
   44SOL    HW2  132   2.756   0.020   1.316 -0.3688  2.0127 -0.9225
   45SOL     OW  133   0.501   2.853   1.648  0.1840 -0.0968  0.1652
   45SOL    HW1  134   0.430   2.924   1.652  1.9742  1.8896 -0.1295
   45SOL    HW2  135   0.580   2.887   1.590  2.0250 -0.5754  1.4558
   46SOL     OW  136   2.101   0.235   2.426  0.0597  0.5542  0.0448
   46SOL    HW1  137   2.170   0.192   2.363  0.2052 -1.0170 -1.9526
   46SOL    HW2  138   2.134   0.221   2.521 -1.8165 -0.1458 -1.3682
   47SOL     OW  139   2.056   1.741   0.719 -0.5176  0.0535  0.6676
   47SOL    HW1  140   2.110   1.729   0.805 -0.7274  4.7100  0.1747
   47SOL    HW2  141   2.058   1.667   0.654 -0.4127  1.5909  1.0315
   48SOL     OW  142   0.773   2.198   0.427  0.1858  0.4793 -0.1306
   48SOL    HW1  143   0.706   2.249   0.374 -0.3269 -0.1264  0.0184
   48SOL    HW2  144   0.795   2.113   0.375 -1.1856 -2.3541 -0.0189
   49SOL     OW  145   2.555   0.307   2.522  0.0307  0.2848  0.1258
   49SOL    HW1  146   2.564   0.350   2.611 -2.2146 -0.4706  0.0437
   49SOL    HW2  147   2.480   0.236   2.530 -1.4891 -1.0601 -1.2657
   50SOL     OW  148   1.987   0.794   0.239 -0.1102  0.0975  0.2921
   50SOL    HW1  149   2.018   0.818   0.334 -0.3871  0.5450 -0.9220
   50SOL    HW2  150   1.887   0.805   0.226 -1.7726  1.1797 -2.4195
   51SOL     OW  151   1.972   0.870   1.010  0.1499  0.2051  0.1474
   51SOL    HW1  152   1.948   0.789   1.064 -1.1454  1.1902 -0.4246
   51SOL    HW2  153   1.912   0.885   0.932  0.4062 -2.0231  0.5684
   52SOL     OW  154   1.358   1.668   1.661 -0.4977 -0.4243 -0.3951
   52SOL    HW1  155   1.365   1.668   1.558 -0.3032  0.9202  2.4363
   52SOL    HW2  156   1.451   1.652   1.699  0.7575  2.0510 -0.1275
   53SOL     OW  157   0.774   1.770   2.155  0.6334 -0.0172 -0.0830
   53SOL    HW1  158   0.784   1.699   2.082 -0.3373 -0.4840 -1.6137
   53SOL    HW2  159   0.740   1.856   2.107 -2.6587  2.2384  1.2602
   54SOL     OW  160   2.170   0.280   1.128 -0.6988 -0.1885  0.7464
   54SOL    HW1  161   2.200   0.378   1.132 -0.8052 -1.0127  2.4563
   54SOL    HW2  162   2.219   0.232   1.053  0.0148 -0.7440 -0.7869
   55SOL     OW  163   2.490   1.926   0.821 -0.1841  0.6536  0.5532
   55SOL    HW1  164   2.565   1.985   0.802 -2.0686 -2.6010  0.0601
   55SOL    HW2  165   2.446   1.886   0.738 -2.7436 -3.0965 -2.2782
   56SOL     OW  166   1.153   0.026   1.946 -0.4338  0.5282  0.2547
   56SOL    HW1  167   1.216   3.088   2.013 -1.3401  0.6327 -1.5304
   56SOL    HW2  168   1.193   0.114   1.912 -0.3070 -0.4479  0.3000
   57SOL     OW  169   1.247   1.551   0.090  0.7292  0.0928 -0.4869
   57SOL    HW1  170   1.240   1.537   0.190  1.1094  2.5970  0.9584
   57SOL    HW2  171   1.243   1.462   0.045 -0.0991 -1.1576 -0.3792
   58SOL     OW  172   0.343   0.618   2.134  0.3506 -0.3788 -0.9989
   58SOL    HW1  173   0.413   0.691   2.154 -1.5573  1.0260 -2.4381
   58SOL    HW2  174   0.337   0.557   2.214  0.1138  0.1776 -2.2387
   59SOL     OW  175   1.268   0.231   2.802 -0.1249  0.1543 -0.1245
   59SOL    HW1  176   1.195   0.288   2.842 -0.9569 -0.4275  2.4409
   59SOL    HW2  177   1.329   0.201   2.878 -0.2716 -0.1409  2.0878
   60SOL     OW  178   3.051   2.031   0.127 -0.3972 -0.4363  0.0028
   60SOL    HW1  179   3.007   1.947   0.163  0.6832 -1.3992 -1.2485
   60SOL    HW2  180   3.040   2.106   0.190  0.8141 -0.3829 -1.6220
   61SOL     OW  181   1.125   2.430   0.497  0.0107  0.2618 -0.1992
   61SOL    HW1  182   1.083   2.341   0.485  3.8440  1.4813  1.5430
   61SOL    HW2  183   1.058   2.504   0.482  3.2676 -1.4544 -1.7872
   62SOL     OW  184   2.087   2.143   2.612  0.4866  0.2170 -0.0793
   62SOL    HW1  185   2.084   2.066   2.677  0.1591 -0.2464 -0.4296
   62SOL    HW2  186   1.989   2.184   2.603 -1.5070  0.5218  0.1310
   63SOL     OW  187   2.245   2.038   0.372 -0.1056 -0.0592 -0.2897
   63SOL    HW1  188   2.305   1.983   0.311 -0.9419 -0.6241  1.5837
   63SOL    HW2  189   2.264   2.137   0.356 -0.8658 -1.8876  0.1147
   64SOL     OW  190   1.472   1.139   2.634  0.8285 -0.1036 -0.1113
   64SOL    HW1  191   1.523   1.053   2.654  0.1156 -3.8048 -2.1318
   64SOL    HW2  192   1.375   1.115   2.613 -2.7343 -1.4986  1.9996
   65SOL     OW  193   1.356   2.102   2.896 -0.3850  0.1498 -0.1795
   65SOL    HW1  194   1.414   2.020   2.915  2.9503  0.8650  0.5957
   65SOL    HW2  195   1.258   2.078   2.918 -0.9797 -1.9373  1.3990
   66SOL     OW  196   0.413   1.577   2.041 -0.0095 -0.0625 -0.3470
   66SOL    HW1  197   0.465   1.615   2.121  1.6067 -0.3939  1.2171
   66SOL    HW2  198   0.362   1.495   2.074 -2.5141 -2.3388 -0.5335
   67SOL     OW  199   2.906   2.783   2.876  0.5316 -0.0683 -0.4674
   67SOL    HW1  200   2.921   2.865   2.934 -1.2613  0.5771 -1.1075
   67SOL    HW2  201   2.831   2.809   2.812 -1.2916 -0.0996  0.0675
   68SOL     OW  202   0.741   2.355   1.265 -0.3036 -0.4419  0.1062
   68SOL    HW1  203   0.710   2.414   1.189 -1.1115 -4.0017 -2.2999
   68SOL    HW2  204   0.846   2.363   1.262  1.2350  2.0316 -1.5159
   69SOL     OW  205   0.695   2.669   0.718 -0.3916  0.4635 -0.6482
   69SOL    HW1  206   0.653   2.579   0.742  0.2090  2.5997  0.5313
   69SOL    HW2  207   0.793   2.653   0.711 -2.2682 -0.0906  1.3103
   70SOL     OW  208   2.629   0.829   2.817  0.0187 -0.4063  0.2367
   70SOL    HW1  209   2.623   0.818   2.714 -0.7125 -0.6472  1.0878
   70SOL    HW2  210   2.661   0.740   2.856  0.1182 -0.3373 -0.6443
   71SOL     OW  211   0.473   1.242   2.580 -0.0404 -0.0533  0.1028
   71SOL    HW1  212   0.494   1.322   2.518 -1.2246  1.6660 -0.5985
   71SOL    HW2  213   0.464   1.272   2.675 -0.6799 -0.9026 -1.1297
   72SOL     OW  214   0.199   1.648   0.385  0.0984 -0.1111 -0.4289
   72SOL    HW1  215   0.242   1.699   0.310 -1.0259 -0.7094 -0.3381
   72SOL    HW2  216   0.255   1.649   0.471  0.6578 -0.5630  0.5727
   73SOL     OW  217   0.731   1.381   0.775  0.2110  0.1299  0.1895
   73SOL    HW1  218   0.731   1.432   0.683 -0.6971  0.3087  0.4252
   73SOL    HW2  219   0.637   1.332   0.779  0.3465  1.8703 -0.7138
   74SOL     OW  220   2.584   2.769   0.087 -0.0448  0.1587  0.2621
   74SOL    HW1  221   2.648   2.848   0.085 -0.6793 -0.4135  2.1802
   74SOL    HW2  222   2.489   2.796   0.066  0.6738 -0.7953  1.6498
   75SOL     OW  223   2.076   1.591   1.701 -0.3251 -0.0480  0.0063
   75SOL    HW1  224   2.061   1.506   1.755 -0.8212 -1.6162  1.1658
   75SOL    HW2  225   2.150   1.579   1.625  1.8453  0.3828 -2.3687
   76SOL     OW  226   2.054   2.391   1.799 -0.3729 -0.1591  0.4820
   76SOL    HW1  227   2.098   2.482   1.808 -0.9276 -2.3390 -0.6155
   76SOL    HW2  228   1.970   2.393   1.853  0.1833  0.9783  0.3001
   77SOL     OW  229   2.272   0.509   2.100  0.5642 -0.2799  0.1654
   77SOL    HW1  230   2.198   0.480   2.161  3.0699 -1.3672 -2.1184
   77SOL    HW2  231   2.355   0.456   2.116 -2.1046  1.0244 -0.3968
   78SOL     OW  232   1.488   1.032   2.932 -0.1017 -0.0598  0.3743
   78SOL    HW1  233   1.497   0.984   3.021 -1.0579  0.8050  1.0633
   78SOL    HW2  234   1.523   0.969   2.856 -1.1694 -0.8453 -1.4877
   79SOL     OW  235   2.612   1.559   1.953 -0.3650 -0.3232 -0.9820
   79SOL    HW1  236   2.610   1.662   1.965 -3.1186 -0.0087  0.5306
   79SOL    HW2  237   2.681   1.539   1.882  2.2182  2.2601 -0.4375
   80SOL     OW  238   1.951   1.425   1.406  0.1130 -0.3781  0.9241
   80SOL    HW1  239   1.921   1.376   1.493 -1.0782  1.4571 -0.0211
   80SOL    HW2  240   1.995   1.365   1.338  0.6179  2.9913  0.1932
   81SOL     OW  241   1.467   0.539   1.830 -0.2666  0.3471 -0.6749
   81SOL    HW1  242   1.458   0.512   1.930  1.6552 -1.2040  2.4063
   81SOL    HW2  243   1.475   0.641   1.824 -1.9842 -2.4996 -0.5305
   82SOL     OW  244   1.301   2.493   1.327  0.0602 -0.2834 -0.3940
   82SOL    HW1  245   1.275   2.532   1.238 -0.6314  0.6439  3.0867
   82SOL    HW2  246   1.271   2.557   1.399 -0.3398  1.7642  1.7824
   83SOL     OW  247   0.009   0.259   0.435  0.0392  0.1065 -0.0131
   83SOL    HW1  248   3.039   0.216   0.392 -0.5270  0.2116 -0.9714
   83SOL    HW2  249   0.015   0.359   0.410  3.1715  0.3709 -1.0858
   84SOL     OW  250   0.483   1.153   3.010  0.3449  0.7263 -0.3862
   84SOL    HW1  251   0.436   1.067   2.977  1.2544  1.7514  0.4267
   84SOL    HW2  252   0.432   1.203   3.083 -2.3391 -3.1244  2.8139
   85SOL     OW  253   2.653   1.849   1.906  0.1408  0.0169 -0.3508
   85SOL    HW1  254   2.673   1.815   1.812 -0.2272  4.8387 -1.0616
   85SOL    HW2  255   2.619   1.946   1.893  0.0180  2.7293  2.1479
   86SOL     OW  256   2.953   2.093   1.738 -0.2179  0.9059 -0.4076
   86SOL    HW1  257   2.918   1.997   1.759 -1.4218 -0.0307  0.1171
   86SOL    HW2  258   2.977   2.140   1.824 -0.1999 -0.2409 -0.8029
   87SOL     OW  259   0.731   0.184   2.732 -0.7846 -0.1186  0.1464
   87SOL    HW1  260   0.734   0.084   2.729 -0.1982  2.8343  3.0291
   87SOL    HW2  261   0.691   0.229   2.817  1.5217  0.8047 -0.6610
   88SOL     OW  262   0.163   2.187   1.110  0.0528  0.0085 -0.0804
   88SOL    HW1  263   0.221   2.175   1.025  2.5530 -3.4043 -0.9674
   88SOL    HW2  264   0.165   2.103   1.172 -1.3988  1.7260  0.9931
   89SOL     OW  265   1.073   0.716   1.661 -0.1815  0.1375 -0.1860
   89SOL    HW1  266   1.161   0.677   1.628 -1.3025 -1.0715  2.1635
   89SOL    HW2  267   1.041   0.673   1.748 -1.2038  0.6952  1.0017
   90SOL     OW  268   2.757   1.442   1.655  0.2064  0.4901  0.6009
   90SOL    HW1  269   2.792   1.369   1.591  1.7384 -2.1413 -0.0812
   90SOL    HW2  270   2.808   1.433   1.742 -1.0509 -3.1197  2.0039
   91SOL     OW  271   1.139   1.408   0.668  0.5186  0.2164  0.3407
   91SOL    HW1  272   1.090   1.495   0.654 -0.2639 -2.1871  0.0670
   91SOL    HW2  273   1.091   1.345   0.731  2.6426 -1.9513 -0.7606
   92SOL     OW  274   2.163   0.524   0.873 -0.3923 -0.2746  0.8600
   92SOL    HW1  275   2.142   0.594   0.805  0.2929 -1.6526  0.7851
   92SOL    HW2  276   2.194   0.559   0.963  3.5402  1.9655  0.6428
   93SOL     OW  277   1.807   0.988   2.954 -0.1265 -0.3779 -0.5354
   93SOL    HW1  278   1.751   1.050   3.018 -1.0329  0.8020  0.1975
   93SOL    HW2  279   1.788   1.010   2.856 -0.4250  0.8924 -1.3068
   94SOL     OW  280   2.574   1.946   2.308  0.3293  0.3496 -0.1590
   94SOL    HW1  281   2.638   1.978   2.380 -0.0325  0.1030  0.5133
   94SOL    HW2  282   2.524   2.030   2.284  1.6085 -0.7767 -0.4333
   95SOL     OW  283   1.993   0.289   0.795 -0.1169  0.8037  0.5187
   95SOL    HW1  284   2.058   0.366   0.808 -1.1056 -0.1190 -2.8712
   95SOL    HW2  285   2.037   0.210   0.738 -1.2519  1.2115  0.9501
   96SOL     OW  286   2.549   0.156   2.211  0.5323 -0.0982  0.4952
   96SOL    HW1  287   2.570   0.138   2.111  0.8115  0.7741 -1.8240
   96SOL    HW2  288   2.541   0.255   2.221 -1.1638 -1.7026  0.2702
   97SOL     OW  289   2.428   0.195   1.090  0.2921 -0.0192 -0.2511
   97SOL    HW1  290   2.403   0.237   0.999  2.3162  1.7626 -0.3581
   97SOL    HW2  291   2.442   0.096   1.074 -2.0224  1.7392 -0.6226
   98SOL     OW  292   1.735   2.419   1.525 -0.0332  0.1964  0.3275
   98SOL    HW1  293   1.688   2.401   1.439  1.9167 -1.3107 -0.0020
   98SOL    HW2  294   1.730   2.336   1.580 -1.4610 -0.4820  0.6295
   99SOL     OW  295   2.330   2.186   1.754 -0.5697 -0.1529  0.1374
   99SOL    HW1  296   2.243   2.227   1.795 -0.0286  2.1845  0.8123
   99SOL    HW2  297   2.396   2.262   1.720  0.9871  1.8665 -1.4780
  100SOL     OW  298   0.444   0.748   2.816  0.4530  0.7138 -0.3708
  100SOL    HW1  299   0.525   0.789   2.770 -0.5118 -0.9329  0.4549
  100SOL    HW2  300   0.408   0.816   2.885  1.0483  2.2621 -1.5114
  101SOL     OW  301   2.084   0.439   2.983  0.1985  0.6132  0.0226
  101SOL    HW1  302   2.097   0.340   2.985  0.1798  1.9455 -0.5892
  101SOL    HW2  303   2.168   0.496   2.991 -0.3460 -1.1024  1.1688
  102SOL     OW  304   0.175   0.810   1.683  0.0626  0.0484  0.0170
  102SOL    HW1  305   0.138   0.877   1.612 -0.4358  0.4074 -1.5639
  102SOL    HW2  306   0.269   0.787   1.654  2.3752 -0.3975  0.7632
  103SOL     OW  307   2.965   1.033   2.674 -0.2637  0.1338  0.1906
  103SOL    HW1  308   2.989   1.114   2.615  0.7230  2.8237  1.4583
  103SOL    HW2  309   2.990   0.948   2.623 -1.8586  0.5870 -0.6761
  104SOL     OW  310   0.675   0.306   2.457  0.6251 -0.4679 -0.0096
  104SOL    HW1  311   0.738   0.259   2.531 -0.5793 -1.1339  1.4787
  104SOL    HW2  312   0.722   0.376   2.399  0.2867  0.4286  1.3813
  105SOL     OW  313   2.441   1.755   1.591 -0.3871  0.2213 -0.3622
  105SOL    HW1  314   2.362   1.815   1.621 -1.6731  1.6470 -0.9066
  105SOL    HW2  315   2.408   1.667   1.552  0.4558  0.9488 -0.6219
  106SOL     OW  316   2.170   0.362   0.561 -0.3738  0.4176  0.6677
  106SOL    HW1  317   2.121   0.295   0.504 -3.0856  0.5597  2.8230
  106SOL    HW2  318   2.270   0.333   0.567 -0.0455 -0.3954 -0.6508
  107SOL     OW  319   0.189   1.529   0.923  0.2545 -0.2523 -0.0577
  107SOL    HW1  320   0.132   1.497   1.001  1.0661  1.0129  0.9138
  107SOL    HW2  321   0.225   1.623   0.957  1.7449  3.0413 -0.4137
  108SOL     OW  322   2.811   2.477   1.733  0.4441  0.4112  0.2000
  108SOL    HW1  323   2.905   2.496   1.776  0.1578  0.4962 -0.2822
  108SOL    HW2  324   2.749   2.422   1.799  0.0802 -1.4174  0.8020
  109SOL     OW  325   2.150   0.031   0.708  0.1512 -0.0772  0.4743
  109SOL    HW1  326   2.248   0.056   0.691  0.4295 -1.0617  1.3362
  109SOL    HW2  327   2.133   3.043   0.719  0.3607 -1.1411 -1.0434
  110SOL     OW  328   0.530   2.113   2.625  0.2374  0.0902 -0.4762
  110SOL    HW1  329   0.591   2.133   2.546 -0.7770 -3.3652  3.2737
  110SOL    HW2  330   0.538   2.015   2.641  1.2849 -1.0409  0.2648
  111SOL     OW  331   1.729   2.677   1.590 -0.4742  0.7541 -0.4734
  111SOL    HW1  332   1.756   2.580   1.576  0.9467 -0.9003  1.4827
  111SOL    HW2  333   1.676   2.707   1.508  0.7041 -2.3653 -0.8916
  112SOL     OW  334   1.898   2.650   0.004 -0.2979  0.1466  0.2395
  112SOL    HW1  335   1.827   2.684   3.045 -1.0876  0.0727 -0.2117
  112SOL    HW2  336   1.851   2.624   0.087  0.5060 -0.2010 -1.0072
  113SOL     OW  337   2.028   2.439   1.368  0.6644 -0.2895  0.0098
  113SOL    HW1  338   2.003   2.387   1.453 -2.5361  0.3345 -1.7190
  113SOL    HW2  339   2.026   2.372   1.292 -0.5342 -2.1100 -0.3740
  114SOL     OW  340   2.780   0.829   0.754 -0.1703 -0.0913 -0.1241
  114SOL    HW1  341   2.676   0.814   0.748 -0.8617 -3.0879 -0.8998
  114SOL    HW2  342   2.830   0.836   0.666  0.7871  2.1656  1.0035
  115SOL     OW  343   0.721   1.095   0.001  0.4371  0.1900  0.7526
  115SOL    HW1  344   0.625   1.127   3.084  0.3276  1.2652 -2.4011
  115SOL    HW2  345   0.736   0.994   3.086  2.1440 -1.5896 -1.3774
  116SOL     OW  346   2.768   1.848   2.140  0.2267 -0.1972 -0.9170
  116SOL    HW1  347   2.705   1.905   2.196  0.5046 -1.1278  1.1308
  116SOL    HW2  348   2.722   1.851   2.049  1.3470 -1.7061 -0.3180
  117SOL     OW  349   2.933   2.340   0.548 -0.5677  0.0013 -0.0473
  117SOL    HW1  350   2.958   2.309   0.643  1.1167  0.3447  2.3112
  117SOL    HW2  351   2.835   2.336   0.533  2.6430  2.4369 -2.2123
  118SOL     OW  352   1.228   2.059   1.883 -0.1737 -0.1302  0.0378
  118SOL    HW1  353   1.145   2.114   1.903 -0.6010  1.7250 -2.4521
  118SOL    HW2  354   1.262   2.070   1.789  0.1766 -0.0063  2.8905
  119SOL     OW  355   0.166   2.002   2.736 -0.4685  0.2595 -0.0700
  119SOL    HW1  356   0.098   2.022   2.809  1.4501 -1.2602 -2.5913
  119SOL    HW2  357   0.198   1.908   2.747  0.1921  0.2310  1.2673
  120SOL     OW  358   1.037   0.870   3.058  0.8952  0.0666  0.1619
  120SOL    HW1  359   1.037   0.909   0.042 -0.7181 -2.9255 -0.1997
  120SOL    HW2  360   1.084   0.928   2.990 -2.1160  0.9472  0.7474
  121SOL     OW  361   1.640   2.631   0.899 -0.4506  0.4050  0.1289
  121SOL    HW1  362   1.614   2.654   0.994 -2.5650 -0.9391 -1.7355
  121SOL    HW2  363   1.690   2.707   0.855  1.3444  0.2967  0.3383
  122SOL     OW  364   2.398   2.424   1.617 -0.1654 -0.1860  0.0053
  122SOL    HW1  365   2.408   2.446   1.714 -0.4751 -0.1484 -0.5974
  122SOL    HW2  366   2.344   2.491   1.570  2.9407  0.4547 -1.1554
  123SOL     OW  367   0.314   2.714   0.831 -0.3208  0.3023  0.0892
  123SOL    HW1  368   0.352   2.724   0.737 -1.6424 -1.7177 -0.6300
  123SOL    HW2  369   0.392   2.725   0.898 -2.2085 -1.6530 -0.5912
  124SOL     OW  370   2.195   1.107   2.700 -0.1728 -0.0285 -0.0127
  124SOL    HW1  371   2.255   1.188   2.679  1.5462 -0.3234 -0.3428
  124SOL    HW2  372   2.244   1.017   2.684  0.8549 -1.7710  2.6708
  125SOL     OW  373   0.651   0.813   0.302  0.1115  0.2964 -0.0802
  125SOL    HW1  374   0.633   0.741   0.373 -0.5991  0.3919 -2.5327
  125SOL    HW2  375   0.725   0.875   0.330 -0.7324 -0.7389 -0.8544
  126SOL     OW  376   0.031   1.256   0.653  0.0046 -1.0494 -0.1710
  126SOL    HW1  377   3.053   1.232   0.613  0.7608  2.3557  1.2621
  126SOL    HW2  378   0.034   1.356   0.673  0.7790 -1.0334 -0.3540
  127SOL     OW  379   0.378   1.933   1.897  0.2065  0.0936 -0.5921
  127SOL    HW1  380   0.439   1.863   1.947  0.2402 -1.5175  2.1292
  127SOL    HW2  381   0.433   2.021   1.894  1.7904 -1.5968  1.1064
  128SOL     OW  382   0.879   1.299   0.094 -0.2380 -0.2212 -0.5824
  128SOL    HW1  383   0.954   1.259   0.039 -2.1138 -1.9500  3.7721
  128SOL    HW2  384   0.805   1.230   0.091  1.5335 -0.7991 -3.7098
  129SOL     OW  385   2.677   1.243   0.780  0.4682 -0.2783  0.7486
  129SOL    HW1  386   2.578   1.233   0.787  1.0259  0.3846  1.7126
  129SOL    HW2  387   2.727   1.185   0.847 -1.1789  0.2631 -0.2806
  130SOL     OW  388   2.330   0.869   1.318 -0.0454 -0.4172  0.9339
  130SOL    HW1  389   2.414   0.879   1.376  0.0754 -0.0220 -0.2552
  130SOL    HW2  390   2.333   0.954   1.259  0.1749  1.6421  3.0213
  131SOL     OW  391   2.995   0.082   2.759 -0.2248 -0.0395 -0.0666
  131SOL    HW1  392   3.011   3.103   2.709 -0.6971  0.3803 -1.0370
  131SOL    HW2  393   3.049   0.077   2.843 -0.9539  3.1889 -4.6186
  132SOL     OW  394   0.083   1.481   1.183 -0.1152 -0.5662  0.0270
  132SOL    HW1  395   0.075   1.576   1.218  1.3028 -0.4529  1.5851
  132SOL    HW2  396   0.157   1.432   1.232 -2.0054  0.3136  4.4025
  133SOL     OW  397   1.087   0.478   1.452  0.0166 -0.3708 -0.1948
  133SOL    HW1  398   1.108   0.487   1.554  0.3638 -0.0418 -2.3871
  133SOL    HW2  399   1.006   0.532   1.419 -0.3306 -3.3886 -1.4846
  134SOL     OW  400   2.903   1.486   0.162 -0.5287 -0.1568 -0.7167
  134SOL    HW1  401   2.974   1.420   0.123  3.4487 -0.1894 -2.0925
  134SOL    HW2  402   2.846   1.524   0.089  0.4465 -1.7414  1.4662
  135SOL     OW  403   1.935   1.047   1.517 -0.8525 -0.3021  0.5180
  135SOL    HW1  404   1.939   0.944   1.538 -0.3992 -1.6021 -0.0825
  135SOL    HW2  405   1.987   1.065   1.427  0.8261  1.2843 -1.0417
  136SOL     OW  406   0.183   0.973   0.273 -0.2188  0.0797  0.7852
  136SOL    HW1  407   0.119   0.972   0.194 -0.1506 -0.0404 -0.8188
  136SOL    HW2  408   0.163   1.053   0.332 -1.2743  0.4972 -3.2837
  137SOL     OW  409   2.826   1.037   0.900  0.0556  0.2393 -0.2062
  137SOL    HW1  410   2.801   0.940   0.871 -2.7481 -2.2419 -1.4116
  137SOL    HW2  411   2.925   1.045   0.910 -0.8935  1.4969  2.3316
  138SOL     OW  412   1.472   0.925   1.101  0.6422 -0.8533 -0.1477
  138SOL    HW1  413   1.378   0.957   1.117  0.3853 -0.3680 -1.4718
  138SOL    HW2  414   1.538   0.980   1.156 -0.6909  2.1011 -2.4171
  139SOL     OW  415   1.959   3.036   2.952 -0.1418 -0.5107  0.3760
  139SOL    HW1  416   1.985   2.938   2.928  2.1374 -2.2204  1.1204
  139SOL    HW2  417   1.929   3.092   2.867  1.6637  0.6963 -2.6000
  140SOL     OW  418   1.367   1.715   1.404 -0.3735 -0.3741  0.2470
  140SOL    HW1  419   1.425   1.676   1.328 -1.2844 -2.0568  0.3400
  140SOL    HW2  420   1.412   1.807   1.426  0.1385  2.1979 -0.1288
  141SOL     OW  421   1.743   1.918   0.440 -0.3197 -0.0057 -0.0250
  141SOL    HW1  422   1.823   1.976   0.413 -1.3468 -0.4355  0.5000
  141SOL    HW2  423   1.680   1.957   0.513 -0.3391  1.3125 -1.4889
  142SOL     OW  424   0.785   0.820   3.003 -0.3941  0.3131  0.3211
  142SOL    HW1  425   0.759   0.725   3.022  1.6364 -0.0824 -0.1580
  142SOL    HW2  426   0.882   0.839   3.025 -0.5064  0.4876  0.5040
  143SOL     OW  427   0.391   2.298   0.129 -0.1702  0.2742 -0.2817
  143SOL    HW1  428   0.369   2.337   0.039 -0.1626 -1.1574  2.1408
  143SOL    HW2  429   0.312   2.286   0.195  0.5169  0.6244  1.3709
  144SOL     OW  430   1.556   2.908   1.093  0.4646 -0.1760 -0.5699
  144SOL    HW1  431   1.546   2.988   1.154 -1.1013  0.5101 -0.8253
  144SOL    HW2  432   1.542   2.817   1.143 -1.7732 -4.3100  0.0967
  145SOL     OW  433   2.074   1.359   0.142 -0.0869 -0.3307  0.4752
  145SOL    HW1  434   2.124   1.276   0.114 -0.3227 -0.8260 -1.1441
  145SOL    HW2  435   1.979   1.329   0.162 -1.0467 -0.3777 -0.8437
  146SOL     OW  436   3.029   1.925   0.431 -0.3016 -0.2566 -0.1467
  146SOL    HW1  437   2.954   1.976   0.389 -0.8698  0.3388  2.9952
  146SOL    HW2  438   3.032   1.830   0.397  0.4706  1.3076 -0.1287
  147SOL     OW  439   2.456   2.995   1.631 -0.0984 -0.6112  0.2289
  147SOL    HW1  440   2.460   2.903   1.587  0.2699 -1.6477  0.7093
  147SOL    HW2  441   2.549   3.037   1.626 -1.6219  1.4663  0.3267
  148SOL     OW  442   1.575   2.945   1.927  0.0491  0.8843  0.4058
  148SOL    HW1  443   1.644   2.879   1.882  0.0431 -2.2923  2.3381
  148SOL    HW2  444   1.508   2.892   1.981 -2.1622 -0.6743 -0.0304
  149SOL     OW  445   1.815   0.666   2.204 -0.4436  0.4666  0.3593
  149SOL    HW1  446   1.872   0.685   2.282  0.4858  1.0017 -0.2364
  149SOL    HW2  447   1.867   0.696   2.124  0.3238 -0.2002  1.2400
  150SOL     OW  448   0.257   3.081   0.403  0.0165  0.2630  0.1619
  150SOL    HW1  449   0.243   3.048   0.499 -0.0077  1.7611  0.1506
  150SOL    HW2  450   0.243   0.073   0.406 -2.5059  0.7488  0.2840
  151SOL     OW  451   0.190   2.032   0.464 -0.0003  0.1880  0.0064
  151SOL    HW1  452   0.119   1.978   0.420 -1.6317 -0.1190  0.4266
  151SOL    HW2  453   0.193   2.122   0.410  0.2298  0.6063 -2.0178
  152SOL     OW  454   2.940   3.041   0.667 -0.8914 -0.1317 -0.2414
  152SOL    HW1  455   3.007   2.996   0.729 -0.1379  1.0772 -0.1766
  152SOL    HW2  456   2.844   3.008   0.691  1.1977 -0.0063  0.3559
  153SOL     OW  457   2.495   3.036   1.028  0.3331 -0.3143 -0.7142
  153SOL    HW1  458   2.460   3.027   1.123 -1.8833 -2.0010  0.8295
  153SOL    HW2  459   2.454   2.970   0.967  0.0506  2.7082 -0.6631
  154SOL     OW  460   1.073   0.417   1.730 -0.1753 -0.0638 -0.5286
  154SOL    HW1  461   1.156   0.381   1.769 -0.5904  0.7780 -1.3356
  154SOL    HW2  462   1.040   0.498   1.780 -0.3728 -1.1410 -2.7851
  155SOL     OW  463   2.994   1.070   1.209  0.2187 -0.2049 -0.0936
  155SOL    HW1  464   3.079   1.122   1.199 -1.1933 -0.1485 -0.7526
  155SOL    HW2  465   2.912   1.125   1.186  0.4245 -2.5275  1.9462
  156SOL     OW  466   3.071   2.020   2.967  0.0549 -0.3430  0.3173
  156SOL    HW1  467   3.054   2.032   3.068 -0.0222 -0.2042 -0.5595
  156SOL    HW2  468   3.022   2.089   2.910 -0.5833  0.3989 -1.3606
  157SOL     OW  469   1.023   0.524   0.211  0.2089  0.4240  0.1553
  157SOL    HW1  470   1.057   0.502   0.304 -3.3045 -1.8476 -1.6405
  157SOL    HW2  471   1.098   0.559   0.151  4.5016  0.5192 -0.4149
  158SOL     OW  472   2.604   3.092   2.634 -0.5127  0.0449 -0.8056
  158SOL    HW1  473   2.663   0.043   2.696  1.3772 -0.4495  2.2513
  158SOL    HW2  474   2.526   0.032   2.595 -0.3514 -2.5433 -0.1091
  159SOL     OW  475   0.802   0.258   0.448  0.2999 -0.4551  0.0117
  159SOL    HW1  476   0.896   0.229   0.437 -2.6525  0.5454 -0.1462
  159SOL    HW2  477   0.776   0.329   0.377 -1.2359  1.1049 -0.5257
  160SOL     OW  478   1.062   2.160   2.914 -0.0387  0.9202 -0.2352
  160SOL    HW1  479   0.999   2.100   2.863  0.4437  2.1648  0.6085
  160SOL    HW2  480   1.023   2.250   2.944 -1.3024  0.6212  0.9711
  161SOL     OW  481   3.091   1.643   2.309 -0.5358  0.0190 -0.1943
  161SOL    HW1  482   0.028   1.687   2.230  1.4293 -2.9852  0.0657
  161SOL    HW2  483   2.995   1.666   2.313  3.4938 -2.2096  0.3103
  162SOL     OW  484   0.354   2.549   1.537 -0.5324 -0.1255  0.2525
  162SOL    HW1  485   0.367   2.604   1.623 -0.9485  0.6179 -2.4030
  162SOL    HW2  486   0.380   2.605   1.456  3.6219 -0.3500 -2.8294
  163SOL     OW  487   2.377   0.584   2.411  0.3144  0.6035 -0.0121
  163SOL    HW1  488   2.438   0.644   2.463 -0.6058 -0.9963  0.4681
  163SOL    HW2  489   2.324   0.519   2.471 -1.3528 -1.6051 -1.8548
  164SOL     OW  490   2.875   1.202   0.588 -0.4264  0.1199 -0.4850
  164SOL    HW1  491   2.868   1.287   0.532 -0.5170 -0.4634  1.4925
  164SOL    HW2  492   2.805   1.200   0.666  0.5663  0.8789 -2.8362
  165SOL     OW  493   0.243   0.265   1.517 -0.8555  0.8423  0.3169
  165SOL    HW1  494   0.264   0.196   1.447  0.6362 -0.3097 -0.3177
  165SOL    HW2  495   0.325   0.327   1.522  1.7405  3.1837 -4.2373
  166SOL     OW  496   2.139   0.823   0.740  0.5006  0.6058 -0.2909
  166SOL    HW1  497   2.106   0.868   0.826  2.0691  0.6592 -1.4500
  166SOL    HW2  498   2.067   0.830   0.664  0.8179  0.9956 -1.8043
  167SOL     OW  499   0.307   0.503   0.235  0.4562  0.3457  0.1658
  167SOL    HW1  500   0.313   0.446   0.149 -0.5423 -2.4328 -1.8487
  167SOL    HW2  501   0.328   0.605   0.220 -1.4009  0.0434 -0.0279
  168SOL     OW  502   2.040   2.880   1.785  0.6469  0.1152  0.5483
  168SOL    HW1  503   2.101   2.948   1.832 -0.7539  0.5729 -1.5647
  168SOL    HW2  504   2.031   2.899   1.684 -2.7290  1.1243 -1.1120
  169SOL     OW  505   0.795   1.033   0.892  0.4369 -0.5268  0.5911
  169SOL    HW1  506   0.829   0.936   0.909  1.7111 -0.4764  1.9926
  169SOL    HW2  507   0.778   1.080   0.983 -1.5591  1.2280  0.8411
  170SOL     OW  508   3.100   0.274   1.417  0.1940  0.8249  0.4345
  170SOL    HW1  509   0.010   0.251   1.320  0.5124 -0.2531  2.5222
  170SOL    HW2  510   0.075   0.274   1.471  1.8202  0.3062  0.3068
  171SOL     OW  511   1.267   2.811   2.638  0.3527  0.6631 -0.0722
  171SOL    HW1  512   1.241   2.736   2.703  0.7586 -0.2072  3.2315
  171SOL    HW2  513   1.230   2.900   2.672 -3.9268  0.8739  3.3123
  172SOL     OW  514   0.348   2.675   1.297  0.1327  0.0611 -0.4937
  172SOL    HW1  515   0.430   2.642   1.245  0.5738 -2.4044  0.8278
  172SOL    HW2  516   0.304   2.754   1.245 -0.2963  0.4920  0.0578
  173SOL     OW  517   1.584   0.878   2.723 -0.3529  0.2119  0.1463
  173SOL    HW1  518   1.531   0.810   2.777  0.6855  0.1403  0.7495
  173SOL    HW2  519   1.650   0.830   2.666 -1.4930 -2.0621  0.1988
  174SOL     OW  520   1.902   0.050   2.514  0.3557 -0.0971 -0.5358
  174SOL    HW1  521   1.867   0.064   2.611 -0.5796 -1.4470 -0.5616
  174SOL    HW2  522   1.979   0.118   2.487  2.1127 -0.0982 -1.5381
  175SOL     OW  523   2.008   2.455   0.294  0.4553  0.0014 -0.4638
  175SOL    HW1  524   1.906   2.433   0.282 -2.6774 -1.5128  2.6873
  175SOL    HW2  525   2.054   2.397   0.226 -2.2986 -0.7246 -1.1184
  176SOL     OW  526   2.113   0.179   3.021  0.2644 -0.0908  0.3848
  176SOL    HW1  527   2.159   0.189   0.000 -0.5705  2.4737 -0.9422
  176SOL    HW2  528   2.083   0.086   3.001 -1.0323  1.7043  1.6025
  177SOL     OW  529   1.011   1.640   0.640 -0.2760 -0.8623 -0.2888
  177SOL    HW1  530   1.039   1.730   0.595 -2.6642  2.8123  0.1429
  177SOL    HW2  531   0.925   1.607   0.606  2.9293  2.0816 -1.5901
  178SOL     OW  532   2.809   2.185   2.911  0.6704 -1.0613  0.5283
  178SOL    HW1  533   2.800   2.281   2.948  0.0112  0.0662 -0.7740
  178SOL    HW2  534   2.868   2.178   2.826 -1.0798 -1.3201  1.8250
  179SOL     OW  535   0.664   2.959   2.975 -0.1384  0.3922 -0.0782
  179SOL    HW1  536   0.718   2.873   2.983 -1.9931  0.7336  0.3977
  179SOL    HW2  537   0.565   2.942   2.981 -1.1770  0.0571 -0.3901
  180SOL     OW  538   1.357   1.391   0.853 -0.2298 -0.2452  0.7914
  180SOL    HW1  539   1.291   1.434   0.917  3.0403 -2.7671 -3.9272
  180SOL    HW2  540   1.329   1.403   0.755 -0.6846 -1.7775  2.8029
  181SOL     OW  541   2.258   0.941   2.098  0.3778  0.1937 -0.1520
  181SOL    HW1  542   2.189   1.013   2.082  0.3511  3.8757 -0.2257
  181SOL    HW2  543   2.228   0.886   2.178 -0.5531  2.4683  2.6715
  182SOL     OW  544   0.282   2.950   2.305 -0.3781  0.0696 -0.0091
  182SOL    HW1  545   0.206   3.008   2.349 -2.2963 -0.1871 -1.8036
  182SOL    HW2  546   0.312   2.995   2.214  2.7527 -0.1918  1.1725
  183SOL     OW  547   1.318   0.765   2.353 -0.0787  0.2148  0.0843
  183SOL    HW1  548   1.423   0.764   2.339  0.0662 -0.7819 -0.5577
  183SOL    HW2  549   1.277   0.733   2.264  0.8406  1.4646 -1.1619
  184SOL     OW  550   0.557   0.806   1.765 -0.2324 -0.0298 -0.2254
  184SOL    HW1  551   0.655   0.784   1.749  3.8027 -0.4243  0.4408
  184SOL    HW2  552   0.550   0.897   1.813  0.6432  1.1004 -1.7521
  185SOL     OW  553   1.913   1.073   0.372 -0.0628  0.4742  0.1266
  185SOL    HW1  554   1.877   1.143   0.307  0.4474 -2.0968  1.0981
  185SOL    HW2  555   2.005   1.051   0.333 -1.0035 -1.0265  0.6089
  186SOL     OW  556   0.276   2.395   2.995  0.2123  1.0382  0.0938
  186SOL    HW1  557   0.319   2.322   2.937  2.3504  0.7761  0.0628
  186SOL    HW2  558   0.185   2.359   3.026 -2.6668 -0.2250  0.0463
  187SOL     OW  559   2.476   1.242   0.100  0.0540  0.2461 -0.6335
  187SOL    HW1  560   2.393   1.215   0.055  3.9234  0.8175  1.4958
  187SOL    HW2  561   2.463   1.214   0.200 -0.6325 -3.3916  1.2623
  188SOL     OW  562   0.103   1.518   0.688  0.7083 -1.0001 -0.1183
  188SOL    HW1  563   0.129   1.522   0.786 -3.9273  1.7937  0.6574
  188SOL    HW2  564   0.081   1.606   0.649 -0.3965  0.9753  0.7167
  189SOL     OW  565   2.462   0.226   0.186 -0.1453  0.0740 -0.0277
  189SOL    HW1  566   2.520   0.194   0.110  1.2812 -0.6161 -1.0479
  189SOL    HW2  567   2.490   0.177   0.266  1.1593  2.0442 -1.5631
  190SOL     OW  568   1.221   1.625   2.085  0.0665 -0.3966 -0.1470
  190SOL    HW1  569   1.157   1.622   2.173 -2.6115  2.4838  0.3695
  190SOL    HW2  570   1.249   1.530   2.061  1.4882  1.0914 -1.2473
  191SOL     OW  571   2.799   0.483   1.726 -0.1830 -0.5661  0.1337
  191SOL    HW1  572   2.843   0.494   1.637 -0.0737  1.2631  1.4988
  191SOL    HW2  573   2.705   0.441   1.724 -0.1108  0.7167 -0.4999
  192SOL     OW  574   1.706   1.483   1.123  0.2818 -0.5867 -0.2270
  192SOL    HW1  575   1.741   1.464   1.215 -2.8505 -0.1879  0.2047
  192SOL    HW2  576   1.772   1.542   1.069  0.3093  0.3455 -1.2109
  193SOL     OW  577   0.902   0.798   0.909 -0.0956 -0.2585 -0.3820
  193SOL    HW1  578   0.923   0.805   0.812  1.4548  2.3180  0.6856
  193SOL    HW2  579   0.922   0.702   0.942  1.3016 -0.3433 -0.4613
  194SOL     OW  580   1.153   2.343   1.511 -0.4189 -0.3282 -0.5920
  194SOL    HW1  581   1.217   2.393   1.449 -2.9111  0.3659 -0.6370
  194SOL    HW2  582   1.105   2.414   1.570  2.1342  0.0022  2.0605
  195SOL     OW  583   2.452   0.405   2.831  0.0559 -0.7335 -0.2113
  195SOL    HW1  584   2.447   0.304   2.829 -2.1369 -1.3366  0.6033
  195SOL    HW2  585   2.376   0.449   2.877  2.0616  2.4791  2.9195
  196SOL     OW  586   1.054   2.521   1.689 -0.3258 -0.0402 -0.5725
  196SOL    HW1  587   1.085   2.494   1.784 -1.0758  2.9656  2.2999
  196SOL    HW2  588   0.984   2.591   1.694 -1.1878 -0.2863  2.2642
  197SOL     OW  589   0.884   2.754   1.192  0.0416  0.1021 -0.1425
  197SOL    HW1  590   0.863   2.790   1.287 -2.6628  0.9718  0.8374
  197SOL    HW2  591   0.916   2.828   1.130  1.0201 -1.2686 -1.3766
  198SOL     OW  592   0.929   0.845   0.638  0.0457 -0.1358  0.4406
  198SOL    HW1  593   0.891   0.749   0.626 -1.7326 -0.3850 -0.4618
  198SOL    HW2  594   0.855   0.911   0.615 -0.9416  0.9019 -0.6112
  199SOL     OW  595   0.266   2.905   1.934 -0.6322 -0.3642  0.0671
  199SOL    HW1  596   0.264   2.805   1.921 -0.6647  0.9356  1.2850
  199SOL    HW2  597   0.265   2.960   1.851 -0.0645 -0.9742 -0.5205
  200SOL     OW  598   2.034   1.960   2.356 -0.3216 -0.2212 -0.0452
  200SOL    HW1  599   2.132   1.925   2.351  0.3348 -1.6202 -0.9849
  200SOL    HW2  600   2.027   2.034   2.424  0.7061  1.4244  2.4745
  201SOL     OW  601   3.007   2.163   1.486 -0.1170  0.2070  0.3143
  201SOL    HW1  602   2.936   2.124   1.423 -1.9003 -0.2861  0.2806
  201SOL    HW2  603   2.984   2.146   1.583  1.5932 -0.7145 -0.6656
  202SOL     OW  604   2.649   3.013   0.287 -0.1120 -0.0298  0.0561
  202SOL    HW1  605   2.738   3.021   0.333 -1.4272  1.3883 -1.7994
  202SOL    HW2  606   2.662   3.012   0.187  1.0864  4.0384  0.5691
  203SOL     OW  607   1.310   2.009   2.144 -0.4132 -0.2290 -0.1037
  203SOL    HW1  608   1.268   2.007   2.049  0.3742  0.8350  0.4843
  203SOL    HW2  609   1.370   1.930   2.157 -1.2996 -0.4484 -0.0387
  204SOL     OW  610   1.441   2.114   1.284 -0.1807  0.0197  0.1696
  204SOL    HW1  611   1.473   2.207   1.310 -3.2543 -0.5370  0.8214
  204SOL    HW2  612   1.467   2.049   1.359 -0.0917 -1.0681  0.3756
  205SOL     OW  613   1.057   1.760   1.918 -0.7258  0.0455  0.2430
  205SOL    HW1  614   1.140   1.729   1.975  0.0291 -1.7085  4.7576
  205SOL    HW2  615   0.981   1.695   1.923  3.0277  0.4539 -0.1884
  206SOL     OW  616   0.272   0.565   2.707 -0.0275  0.2124 -1.0221
  206SOL    HW1  617   0.330   0.640   2.750  2.9252  6.1203 -1.1359
  206SOL    HW2  618   0.328   0.512   2.639 -1.1828  3.2434 -1.4742
  207SOL     OW  619   0.878   0.074   1.919  0.6633 -0.1126 -0.2215
  207SOL    HW1  620   0.838   0.133   1.842  0.6749  0.0669  2.5526
  207SOL    HW2  621   0.973   0.050   1.900 -3.2670  0.6364  1.8411
  208SOL     OW  622   0.739   2.442   1.922 -0.1602 -0.3954 -0.0620
  208SOL    HW1  623   0.819   2.506   1.935 -1.1223 -0.7248 -0.3475
  208SOL    HW2  624   0.758   2.374   1.848 -0.3375 -1.5277  0.9431
  209SOL     OW  625   1.537   0.843   0.044 -0.1271 -0.5806  0.5537
  209SOL    HW1  626   1.542   0.757   3.098 -0.4492  0.4892  1.0276
  209SOL    HW2  627   1.627   0.859   0.097 -0.1141 -1.7783  0.9234
  210SOL     OW  628   3.055   0.447   0.783 -0.0561 -0.2629 -0.1637
  210SOL    HW1  629   2.984   0.492   0.842 -0.7839  1.7450  0.5358
  210SOL    HW2  630   3.102   0.363   0.824  1.4562 -2.2835 -2.1229
  211SOL     OW  631   0.629   0.694   1.335  0.3278  0.0051 -0.2524
  211SOL    HW1  632   0.692   0.616   1.331 -2.7792  1.4198  1.6748
  211SOL    HW2  633   0.551   0.677   1.398 -0.3309 -1.0500  0.3300
  212SOL     OW  634   1.355   1.700   0.998 -0.2633 -0.3379 -0.1986
  212SOL    HW1  635   1.304   1.781   1.034 -0.1396 -0.3604  1.5040
  212SOL    HW2  636   1.413   1.662   1.073 -1.3736  0.5022  0.1127
  213SOL     OW  637   1.894   0.067   1.641  0.0749 -0.6023  0.2665
  213SOL    HW1  638   1.954   3.097   1.627 -0.2387  1.0240  1.1593
  213SOL    HW2  639   1.899   0.130   1.561  2.8283 -1.3808  0.6894
  214SOL     OW  640   1.171   2.608   2.781 -0.2192  0.1646 -0.2082
  214SOL    HW1  641   1.196   2.574   2.874  0.2437 -1.3739 -1.6706
  214SOL    HW2  642   1.177   2.530   2.715  0.2340  2.2287  0.1075
  215SOL     OW  643   2.828   1.724   1.156  0.2591  0.2179  0.0979
  215SOL    HW1  644   2.733   1.752   1.130 -1.2310  0.3220  2.1855
  215SOL    HW2  645   2.836   1.631   1.114  0.1850 -2.1721  0.8259
  216SOL     OW  646   0.247   0.504   1.914 -0.3658  0.1310  0.2304
  216SOL    HW1  647   0.152   0.527   1.895  1.2675  2.2491  1.8594
  216SOL    HW2  648   0.272   0.525   2.011  0.6678  0.3608  1.4577
  217SOL     OW  649   2.923   0.138   0.282 -0.1833 -0.2766 -0.0347
  217SOL    HW1  650   2.862   0.157   0.202 -0.5226  1.2048 -0.8322
  217SOL    HW2  651   2.903   0.046   0.322 -1.1103  3.2755  0.5020
  218SOL     OW  652   1.745   1.903   1.564 -0.0883  0.2693 -0.6793
  218SOL    HW1  653   1.773   1.862   1.654  0.6349  1.2754  1.8661
  218SOL    HW2  654   1.808   1.865   1.492  1.3517  1.4830  0.2595
  219SOL     OW  655   1.700   0.890   0.258 -0.4375  0.1788 -0.3142
  219SOL    HW1  656   1.652   0.810   0.303  3.6651 -0.3127 -0.3307
  219SOL    HW2  657   1.662   0.983   0.293 -0.8370  0.6139  0.5261
  220SOL     OW  658   1.588   1.962   0.657  0.2616  0.4224  0.1996
  220SOL    HW1  659   1.519   2.029   0.696 -0.3088 -1.4904  0.1535
  220SOL    HW2  660   1.549   1.871   0.658 -0.2077  0.9403  1.1142
  221SOL     OW  661   3.042   0.485   0.030  0.4825  0.2526 -0.0534
  221SOL    HW1  662   3.089   0.533   3.062 -0.9827  1.1186  0.8005
  221SOL    HW2  663   3.016   0.550   0.109 -2.6055 -0.6547  2.3403
  222SOL     OW  664   0.878   2.711   1.715  0.2641  0.0504 -0.2418
  222SOL    HW1  665   0.896   2.812   1.688  0.1109  0.6099  0.5469
  222SOL    HW2  666   0.845   2.659   1.633 -0.1117  2.5483 -0.2691
  223SOL     OW  667   1.531   0.686   2.921  0.0460  0.2306 -0.0467
  223SOL    HW1  668   1.569   0.595   2.899  1.9746  0.7536 -0.9086
  223SOL    HW2  669   1.432   0.696   2.894 -0.8850  0.2649 -0.5205
  224SOL     OW  670   2.794   0.610   1.188  0.3818  0.0638 -0.3085
  224SOL    HW1  671   2.839   0.547   1.258  0.1211 -1.0557  1.8856
  224SOL    HW2  672   2.693   0.604   1.190  3.1444  2.5520 -2.9208
  225SOL     OW  673   0.718   1.371   1.665 -0.9401  0.4952  0.2620
  225SOL    HW1  674   0.747   1.451   1.613  1.6428 -1.8048  0.4309
  225SOL    HW2  675   0.637   1.315   1.635  3.0118 -1.5702  2.0493
  226SOL     OW  676   1.067   0.163   0.794  0.0396 -0.1123 -0.2993
  226SOL    HW1  677   1.065   0.062   0.781 -0.5783 -0.1871 -3.5148
  226SOL    HW2  678   1.057   0.188   0.891 -0.7038 -0.1383 -2.6589
  227SOL     OW  679   0.963   2.097   1.622  0.7804  0.4071  0.0973
  227SOL    HW1  680   0.910   2.074   1.540  1.2652  2.3385  0.4842
  227SOL    HW2  681   1.013   2.017   1.662  0.7540 -1.1821  0.5741
  228SOL     OW  682   0.603   3.102   1.828  0.2763  0.4172  0.3136
  228SOL    HW1  683   0.670   0.024   1.903 -1.2276 -0.1284  0.2023
  228SOL    HW2  684   0.599   3.000   1.818 -1.0156 -1.3816  0.7404
  229SOL     OW  685   2.549   0.781   0.595 -0.1750 -0.1844 -0.7615
  229SOL    HW1  686   2.575   0.683   0.590 -0.1592  3.0036  1.7391
  229SOL    HW2  687   2.574   0.823   0.510 -2.9703  1.9443 -1.0653
  230SOL     OW  688   0.359   1.128   2.136 -0.1193 -0.0977 -0.0642
  230SOL    HW1  689   0.311   1.093   2.218  1.7631  0.0059 -1.8132
  230SOL    HW2  690   0.459   1.143   2.152  0.4705 -1.5594  4.3663
  231SOL     OW  691   1.285   2.822   1.404  0.0334 -0.1888 -0.3573
  231SOL    HW1  692   1.256   2.759   1.482  1.3077 -0.7872  3.1713
  231SOL    HW2  693   1.334   2.904   1.441  4.0638  0.3964 -2.4378
  232SOL     OW  694   2.482   2.517   0.173  0.4775  0.7179  0.2439
  232SOL    HW1  695   2.533   2.606   0.158 -1.1911  3.5230  0.0961
  232SOL    HW2  696   2.444   2.465   0.091 -0.2417 -2.6390 -0.7524
  233SOL     OW  697   1.098   2.800   0.308  0.7427  0.3397 -0.3016
  233SOL    HW1  698   1.030   2.878   0.324 -0.7940  0.7392  1.8610
  233SOL    HW2  699   1.092   2.766   0.208  1.1428 -1.4851 -0.4466
  234SOL     OW  700   0.973   0.829   2.048  0.0738  0.2546 -0.6819
  234SOL    HW1  701   0.919   0.910   2.008 -1.1974 -0.1478 -0.6539
  234SOL    HW2  702   1.042   0.867   2.110  1.3334 -1.5244 -0.7369
  235SOL     OW  703   0.166   2.263   0.333 -0.0171  0.3627  0.1772
  235SOL    HW1  704   0.204   2.347   0.380 -1.7530 -0.5165 -0.8499
  235SOL    HW2  705   0.070   2.279   0.306 -2.1990  1.9114  3.7487
  236SOL     OW  706   2.119   2.734   2.538  0.0192 -0.5084  0.0761
  236SOL    HW1  707   2.172   2.741   2.452  2.9661 -0.2386 -0.8961
  236SOL    HW2  708   2.067   2.645   2.537  1.6428  1.7246 -1.2838
  237SOL     OW  709   1.806   1.269   1.600  0.0764 -0.1417  0.6257
  237SOL    HW1  710   1.863   1.185   1.588  0.3978  0.6470  3.2068
  237SOL    HW2  711   1.709   1.242   1.633 -2.9612 -0.4197 -0.0155
  238SOL     OW  712   1.705   0.088   2.357  0.4941  0.0175  0.2662
  238SOL    HW1  713   1.794   0.073   2.408  0.3794  1.6883  0.1063
  238SOL    HW2  714   1.702   0.031   2.276 -0.6318  0.4191  0.1233
  239SOL     OW  715   0.767   2.237   1.740  0.1810 -1.0011  0.2315
  239SOL    HW1  716   0.704   2.283   1.671 -0.7876  2.1650 -1.6628
  239SOL    HW2  717   0.846   2.196   1.688  1.9631 -0.8565  0.2886
  240SOL     OW  718   2.838   2.614   0.696  0.6613  0.3768  0.1265
  240SOL    HW1  719   2.933   2.605   0.664 -1.7512  1.2488  0.5988
  240SOL    HW2  720   2.823   2.560   0.784 -0.3094  1.1995 -0.2376
  241SOL     OW  721   1.491   1.835   0.330  0.0247 -0.4557  0.0237
  241SOL    HW1  722   1.428   1.798   0.403  0.4781 -1.8509 -0.3565
  241SOL    HW2  723   1.588   1.842   0.367  0.5093  0.8475  1.4252
  242SOL     OW  724   2.230   1.136   0.059 -0.7299  0.3498  0.0864
  242SOL    HW1  725   2.245   1.047   0.109  1.1527 -1.4155  0.1458
  242SOL    HW2  726   2.203   1.119   3.070 -0.8780  1.9647 -1.7741
  243SOL     OW  727   0.702   0.454   1.825  0.2747 -0.4468 -0.2277
  243SOL    HW1  728   0.735   0.372   1.774 -1.1382 -0.6909  1.4259
  243SOL    HW2  729   0.602   0.473   1.806 -1.8041 -1.4942  2.4060
  244SOL     OW  730   1.652   2.734   2.926  0.1837  0.0250  0.7084
  244SOL    HW1  731   1.605   2.820   2.956  0.1848 -0.2606  0.0043
  244SOL    HW2  732   1.695   2.755   2.836 -1.3561  0.2566  0.4782
  245SOL     OW  733   1.832   0.093   2.781 -0.0321  0.5874 -0.1851
  245SOL    HW1  734   1.832   0.187   2.826 -0.9446  2.9545  1.0483
  245SOL    HW2  735   1.751   0.037   2.814 -0.8704 -0.2627  0.2297
  246SOL     OW  736   1.222   1.201   2.379 -0.0686 -0.4347  0.1166
  246SOL    HW1  737   1.301   1.264   2.392 -1.3600 -0.2333 -3.0442
  246SOL    HW2  738   1.135   1.247   2.386 -0.0260 -1.3371 -0.1458
  247SOL     OW  739   2.739   0.628   2.147 -0.5564  0.2385 -0.2716
  247SOL    HW1  740   2.810   0.586   2.091  0.2264  2.3016 -0.2836
  247SOL    HW2  741   2.706   0.714   2.107  0.0327  1.1340 -0.1071
  248SOL     OW  742   0.582   1.048   1.885  0.2358  0.1777  0.5181
  248SOL    HW1  743   0.541   1.105   1.814  0.5958  0.8849  0.3760
  248SOL    HW2  744   0.579   1.102   1.971  2.7367 -0.0142 -1.3008
  249SOL     OW  745   2.504   0.500   0.232 -0.0844  0.8523  0.0912
  249SOL    HW1  746   2.440   0.538   0.295 -0.6193 -2.1241 -1.0319
  249SOL    HW2  747   2.488   0.402   0.224 -0.8949 -0.5579  2.1123
  250SOL     OW  748   2.837   0.212   0.712 -0.1331 -0.0811  0.0305
  250SOL    HW1  749   2.741   0.169   0.712 -0.0696 -1.9256  1.7329
  250SOL    HW2  750   2.908   0.148   0.673  1.4326 -1.5514 -0.0558
  251SOL     OW  751   0.841   1.142   2.279 -0.3956  0.0286  0.0102
  251SOL    HW1  752   0.848   1.085   2.366 -0.8017 -2.7299 -0.4286
  251SOL    HW2  753   0.933   1.175   2.240 -0.0357  3.1746  0.7076
  252SOL     OW  754   1.451   1.908   1.849  0.8410 -0.5679  0.1882
  252SOL    HW1  755   1.362   1.956   1.861  0.9248 -0.1763  2.2451
  252SOL    HW2  756   1.435   1.816   1.805  0.0917  1.0876 -1.8860
  253SOL     OW  757   1.582   2.529   1.917 -0.2921 -0.3245 -0.1334
  253SOL    HW1  758   1.683   2.524   1.915 -1.3970 -3.2073 -0.7746
  253SOL    HW2  759   1.546   2.467   1.848  0.5429 -2.1325 -0.1150
  254SOL     OW  760   0.904   2.109   2.237  0.2947 -0.4021  0.2603
  254SOL    HW1  761   0.948   2.020   2.224  2.4864 -2.5594 -0.0646
  254SOL    HW2  762   0.909   2.167   2.153 -1.2645  0.0722 -2.6403
  255SOL     OW  763   1.372   0.587   0.566 -0.1525  0.1346 -0.2960
  255SOL    HW1  764   1.404   0.578   0.657 -1.1779  0.7334 -1.1564
  255SOL    HW2  765   1.282   0.634   0.569 -2.1735  0.5298  0.5196
  256SOL     OW  766   1.813   2.141   1.074 -0.3491  0.1271  0.6032
  256SOL    HW1  767   1.899   2.176   1.120 -0.1594  0.3781  2.2353
  256SOL    HW2  768   1.838   2.111   0.976 -3.4584 -1.4182 -4.0242
  257SOL     OW  769   0.281   2.099   2.452  0.4633 -0.2158  0.3746
  257SOL    HW1  770   0.369   2.140   2.428 -1.1009  0.2574 -1.7062
  257SOL    HW2  771   0.283   2.087   2.553 -2.6867 -2.6026 -0.0602
  258SOL     OW  772   0.344   1.053   2.409  0.0332  0.1219 -0.4110
  258SOL    HW1  773   0.380   1.142   2.442 -1.1349 -0.3097 -0.2886
  258SOL    HW2  774   0.297   0.989   2.480 -3.0874 -3.4654  2.7353
  259SOL     OW  775   1.261   0.971   2.558  0.3178  0.3360  0.6586
  259SOL    HW1  776   1.225   1.056   2.511 -3.7353 -1.2463 -0.8982
  259SOL    HW2  777   1.293   0.901   2.489 -1.1328 -1.5926 -1.0113
  260SOL     OW  778   1.938   0.573   0.582  0.4479  0.0916  0.2240
  260SOL    HW1  779   1.952   0.676   0.581  1.4630  0.5041  1.1423
  260SOL    HW2  780   2.017   0.515   0.598 -1.3365  0.3526  1.3051
  261SOL     OW  781   1.039   0.638   2.900 -0.0337  0.3452 -0.7512
  261SOL    HW1  782   1.050   0.722   2.952 -1.3725  0.4194 -0.6167
  261SOL    HW2  783   0.954   0.595   2.931 -3.0469 -0.0287  0.2827
  262SOL     OW  784   2.270   2.693   2.748 -0.5290 -0.4363  0.2573
  262SOL    HW1  785   2.319   2.602   2.728  4.1571 -2.6258  2.1632
  262SOL    HW2  786   2.235   2.726   2.658  1.1165  1.6753 -0.8203
  263SOL     OW  787   0.840   2.014   0.218  0.4448 -0.0673 -0.3800
  263SOL    HW1  788   0.934   2.000   0.249 -0.5550  2.8995 -0.6859
  263SOL    HW2  789   0.837   2.051   0.126 -0.1831 -1.3258  0.9375
  264SOL     OW  790   0.338   1.656   1.543  0.3752  0.0508 -0.1641
  264SOL    HW1  791   0.378   1.611   1.629  1.5354 -1.4594 -1.4779
  264SOL    HW2  792   0.292   1.745   1.557  0.6056 -0.8408  0.2723
  265SOL     OW  793   0.721   1.009   0.512 -0.2949  0.1346  0.4595
  265SOL    HW1  794   0.659   0.998   0.592  2.6173  0.9441  0.6468
  265SOL    HW2  795   0.773   1.100   0.513  0.9716 -1.9316 -2.3351
  266SOL     OW  796   1.679   1.550   0.077 -0.0492 -0.3318 -0.4955
  266SOL    HW1  797   1.765   1.596   0.099 -2.0178 -1.4652 -1.1687
  266SOL    HW2  798   1.607   1.617   0.049  0.5093 -0.2447 -1.7350
  267SOL     OW  799   2.816   0.356   3.044 -0.2153 -0.0041 -0.1925
  267SOL    HW1  800   2.900   0.405   3.067 -0.0792 -0.7755 -0.7496
  267SOL    HW2  801   2.774   0.407   2.973  1.2325 -1.6224  0.1907
  268SOL     OW  802   0.364   0.378   2.881  0.1024 -0.3327  0.3076
  268SOL    HW1  803   0.460   0.350   2.860  1.3408  1.8592 -1.3371
  268SOL    HW2  804   0.340   0.460   2.819 -0.3996  2.5313 -3.1870
  269SOL     OW  805   1.736   0.438   2.649 -0.1870 -0.0637  0.3126
  269SOL    HW1  806   1.707   0.383   2.567 -0.3341 -2.3055  2.3163
  269SOL    HW2  807   1.693   0.421   2.736 -0.7451 -0.2030  2.0341
  270SOL     OW  808   1.018   0.786   2.665  0.1848 -0.2731  0.3237
  270SOL    HW1  809   1.090   0.857   2.674  3.5733  2.0490 -0.7771
  270SOL    HW2  810   1.035   0.706   2.722 -3.7870  0.8433 -0.2453
  271SOL     OW  811   2.548   0.899   0.089 -0.2617  0.1887 -0.1221
  271SOL    HW1  812   2.605   0.967   0.032  0.3788  1.0056 -2.4044
  271SOL    HW2  813   2.570   0.802   0.059  0.3550 -0.5681  1.8721
  272SOL     OW  814   2.522   1.922   2.665 -0.2412 -0.0109  0.1638
  272SOL    HW1  815   2.538   2.018   2.693 -1.9661 -1.0019 -1.0847
  272SOL    HW2  816   2.435   1.917   2.612 -0.1164 -1.5829  0.3583
  273SOL     OW  817   2.685   0.524   2.867  0.3027  0.1784 -0.2804
  273SOL    HW1  818   2.591   0.489   2.858  2.0807  0.2481  2.4003
  273SOL    HW2  819   2.735   0.511   2.780  0.5988 -1.0935 -0.0068
  274SOL     OW  820   3.048   3.094   1.497 -0.2018 -0.2669 -0.5977
  274SOL    HW1  821   3.015   3.049   1.581 -2.2004  0.7198  0.3690
  274SOL    HW2  822   3.025   0.086   1.502  2.9717 -0.2228  0.2611
  275SOL     OW  823   2.108   1.349   0.745 -0.2458 -0.1006 -0.2174
  275SOL    HW1  824   2.190   1.313   0.694 -1.3903  0.0023  0.6190
  275SOL    HW2  825   2.023   1.313   0.705  0.4705  1.4149  0.7350
  276SOL     OW  826   0.217   1.458   2.699 -0.0538 -0.7417  0.3546
  276SOL    HW1  827   0.318   1.453   2.712  1.3357  3.7285 -2.7216
  276SOL    HW2  828   0.204   1.519   2.617 -1.9932 -0.6962 -4.0012
  277SOL     OW  829   1.854   2.463   1.967 -0.5374  0.4052 -0.0509
  277SOL    HW1  830   1.878   2.544   2.014 -0.6551 -1.5404 -0.2707
  277SOL    HW2  831   1.827   2.395   2.033  1.4971  0.9763 -0.7357
  278SOL     OW  832   2.060   0.279   1.454  0.3108  0.6585  0.0360
  278SOL    HW1  833   2.094   0.205   1.393 -0.6066  1.4386  1.0587
  278SOL    HW2  834   2.005   0.346   1.397  1.3998 -0.7121 -1.1387
  279SOL     OW  835   1.456   1.303   2.913 -0.4178 -0.0601 -0.0674
  279SOL    HW1  836   1.498   1.213   2.891 -3.2461 -0.9174  1.0558
  279SOL    HW2  837   1.523   1.381   2.921 -2.7057  1.5945  0.6001
  280SOL     OW  838   0.765   1.654   1.162 -0.2555 -0.8697 -0.2163
  280SOL    HW1  839   0.706   1.613   1.088  0.8289  2.3068  1.7960
  280SOL    HW2  840   0.769   1.758   1.144  0.4472  1.3428  0.8836
  281SOL     OW  841   0.114   3.095   2.447 -0.2674 -0.3011  0.3568
  281SOL    HW1  842   0.056   0.050   2.392  1.4239  3.2802 -1.9682
  281SOL    HW2  843   0.056   3.046   2.517  0.6931 -1.5158 -1.2439
  282SOL     OW  844   0.098   0.954   1.462 -0.1750 -0.4518  0.6171
  282SOL    HW1  845   0.033   1.028   1.493 -0.4453  0.9015  0.9985
  282SOL    HW2  846   0.061   0.909   1.379  1.2849 -0.4454 -0.5457
  283SOL     OW  847   1.616   2.431   2.617  0.1329  0.6522 -0.3797
  283SOL    HW1  848   1.614   2.389   2.524 -2.7085  0.0586 -2.5318
  283SOL    HW2  849   1.527   2.421   2.669  3.0643  2.1424  1.7052
  284SOL     OW  850   1.823   1.281   0.213 -0.2202  0.2229  0.0737
  284SOL    HW1  851   1.763   1.358   0.244  1.4682  2.3111 -0.0127
  284SOL    HW2  852   1.787   1.240   0.129 -1.1756  4.6619  0.3430
  285SOL     OW  853   0.078   0.056   2.981  0.4040 -0.3423  0.6216
  285SOL    HW1  854   0.092   0.133   3.044 -1.0741  1.8262  0.6341
  285SOL    HW2  855   0.163   0.021   2.938  1.0761 -2.6956 -0.8435
  286SOL     OW  856   2.032   2.949   1.503  0.1684 -0.1695 -0.3999
  286SOL    HW1  857   1.948   2.923   1.451 -0.2017 -0.9658  0.7588
  286SOL    HW2  858   2.105   2.983   1.443 -1.7297 -1.3352  3.7512
  287SOL     OW  859   0.786   0.933   1.344 -0.4321 -0.4664  0.2587
  287SOL    HW1  860   0.741   0.841   1.347  1.0974 -1.5059 -0.6783
  287SOL    HW2  861   0.765   0.990   1.425  0.2252  0.2814 -1.3133
  288SOL     OW  862   1.502   2.804   0.107  0.4291  0.0882 -0.8964
  288SOL    HW1  863   1.556   2.729   0.068 -0.3628  1.5168  2.0864
  288SOL    HW2  864   1.465   2.777   0.198 -0.2270 -0.1127 -0.6861
  289SOL     OW  865   0.015   1.749   2.994 -0.1729 -0.0380 -0.0815
  289SOL    HW1  866   3.109   1.849   2.976 -1.5350  1.5960  2.2333
  289SOL    HW2  867   3.041   1.706   3.024  2.5607 -2.4508 -0.1864
  290SOL     OW  868   0.959   2.610   0.731 -0.1261 -0.3407 -0.6152
  290SOL    HW1  869   0.992   2.618   0.826  2.3941  3.1982 -0.1522
  290SOL    HW2  870   1.009   2.540   0.681 -0.2869 -0.6404 -0.4674
  291SOL     OW  871   2.021   2.210   0.161 -0.5862 -1.0862  0.3566
  291SOL    HW1  872   2.098   2.152   0.123 -0.3866 -0.0042 -2.0369
  291SOL    HW2  873   1.967   2.160   0.228  1.4244 -1.2846  0.1850
  292SOL     OW  874   0.772   1.300   1.918  0.0465 -0.2985  0.6276
  292SOL    HW1  875   0.804   1.203   1.923  0.0167  0.4439 -0.6855
  292SOL    HW2  876   0.746   1.313   1.817 -0.1962  0.8622  1.6753
  293SOL     OW  877   2.418   2.571   1.066 -0.0800 -0.3944  0.4561
  293SOL    HW1  878   2.405   2.494   0.999  1.3087 -1.0364  0.7101
  293SOL    HW2  879   2.512   2.603   1.063 -0.5537  2.8784  0.7891
  294SOL     OW  880   0.071   0.438   2.406  0.3390  0.3779  0.2586
  294SOL    HW1  881   0.003   0.508   2.442  1.3433 -3.8594  4.6048
  294SOL    HW2  882   0.163   0.478   2.379 -1.9621  2.4976 -0.9920
  295SOL     OW  883   1.075   1.893   0.238  0.0387 -0.8030 -1.1233
  295SOL    HW1  884   1.057   1.840   0.155 -0.4585  2.2365  1.6301
  295SOL    HW2  885   1.167   1.932   0.229  0.1275  0.3523 -1.1086
  296SOL     OW  886   2.186   1.913   2.723  0.0714 -0.0719 -0.0746
  296SOL    HW1  887   2.146   1.828   2.764 -0.7373 -0.0469  1.3953
  296SOL    HW2  888   2.226   1.904   2.631  0.9628  1.2732 -0.3396
  297SOL     OW  889   2.645   0.659   0.022 -0.0207  0.1394 -0.1064
  297SOL    HW1  890   2.665   0.593   3.061 -1.6140 -0.0798 -0.3923
  297SOL    HW2  891   2.626   0.609   0.107  1.0940  0.4839 -1.9214
  298SOL     OW  892   0.752   2.146   3.088  0.7909  0.0859  0.6390
  298SOL    HW1  893   0.788   2.114   2.993  0.4650  0.1442 -1.9194
  298SOL    HW2  894   0.705   2.237   3.083  0.0106  2.6225 -1.4221
  299SOL     OW  895   1.466   2.850   2.428  0.3253 -0.2954 -0.6944
  299SOL    HW1  896   1.512   2.937   2.465  1.3407  1.2563  0.2537
  299SOL    HW2  897   1.377   2.831   2.483 -3.9888 -2.4642  1.3392
  300SOL     OW  898   2.774   0.480   0.327  0.2694 -0.3764 -0.1739
  300SOL    HW1  899   2.792   0.478   0.426 -0.1263  1.9361  1.1273
  300SOL    HW2  900   2.678   0.498   0.314  2.7293 -0.5720  0.5838
  301SOL     OW  901   0.868   1.035   1.899 -0.0716 -0.1774 -0.9935
  301SOL    HW1  902   0.938   1.019   1.826  1.4589  1.8722 -0.6421
  301SOL    HW2  903   0.774   1.008   1.875  0.3631  0.5719  0.7279
  302SOL     OW  904   0.056   2.346   0.019 -0.0750  0.1363 -0.1710
  302SOL    HW1  905   0.015   2.275   0.082 -2.2479 -1.6156  0.6319
  302SOL    HW2  906   3.096   2.418   3.103 -0.1896 -0.6049  0.7106
  303SOL     OW  907   3.049   2.959   2.665 -0.6074  0.6296  0.9344
  303SOL    HW1  908   3.109   2.912   2.737  0.7995  0.1282  3.3957
  303SOL    HW2  909   2.993   2.889   2.612 -0.9888  0.4758  1.2913
  304SOL     OW  910   2.635   0.861   2.063  0.0097  0.1591 -0.3432
  304SOL    HW1  911   2.688   0.947   2.070 -1.4280  0.7822 -0.9506
  304SOL    HW2  912   2.556   0.875   1.999 -0.7218 -3.6001  1.9113
  305SOL     OW  913   0.763   2.525   2.292  0.0296  0.4303 -0.4274
  305SOL    HW1  914   0.790   2.615   2.253  0.4918 -2.6640  0.3776
  305SOL    HW2  915   0.796   2.525   2.387  1.8697 -0.1999 -0.2148
  306SOL     OW  916   2.561   1.118   1.574 -0.1262  0.3905 -0.0124
  306SOL    HW1  917   2.568   1.030   1.530 -1.0822  1.8267 -1.8351
  306SOL    HW2  918   2.501   1.103   1.657 -0.8262  1.9184 -0.0766
  307SOL     OW  919   1.491   0.578   1.421 -0.0449 -0.3096 -0.1668
  307SOL    HW1  920   1.548   0.512   1.476 -1.2733  1.7480  0.3441
  307SOL    HW2  921   1.485   0.554   1.322  0.5943  0.1088 -2.6186
  308SOL     OW  922   2.592   1.825   1.074 -0.1008 -1.3569  0.1784
  308SOL    HW1  923   2.584   1.890   1.154 -1.3363  2.1620  2.2859
  308SOL    HW2  924   2.581   1.873   0.985 -1.7810 -1.2165  1.9074
  309SOL     OW  925   2.286   1.518   1.532 -0.6724 -0.1687 -0.1707
  309SOL    HW1  926   2.265   1.525   1.436 -0.2640  0.4977  0.4701
  309SOL    HW2  927   2.354   1.442   1.551  2.1027  1.4397  1.0394
  310SOL     OW  928   2.863   1.657   3.056 -0.4956  0.3224 -0.2169
  310SOL    HW1  929   2.880   1.568   3.009  1.6581  0.2286 -1.5963
  310SOL    HW2  930   2.805   1.713   3.000  3.9209 -0.0794  4.1571
  311SOL     OW  931   2.325   2.125   2.873 -0.0522 -0.2996  0.3363
  311SOL    HW1  932   2.274   2.040   2.845 -3.0358 -0.3044  1.3231
  311SOL    HW2  933   2.413   2.142   2.818  0.8479  0.3052 -0.7325
  312SOL     OW  934   2.281   1.776   1.225  0.3552 -0.2539  0.4871
  312SOL    HW1  935   2.191   1.824   1.238 -0.5359  1.8784  0.3798
  312SOL    HW2  936   2.355   1.835   1.267  2.2973  0.0154  2.9658
  313SOL     OW  937   2.295   2.219   1.066  0.3155 -0.0676  0.0126
  313SOL    HW1  938   2.325   2.277   0.987  0.8065  0.8217 -0.5237
  313SOL    HW2  939   2.357   2.227   1.152 -2.4779  3.0545  0.6388
  314SOL     OW  940   0.937   2.284   0.639 -0.0699 -0.5169 -0.4954
  314SOL    HW1  941   0.882   2.329   0.717 -3.0110  2.5818  2.4701
  314SOL    HW2  942   0.878   2.262   0.558 -0.1454  1.5389  2.4077
  315SOL     OW  943   0.769   2.719   2.917  0.4864 -0.2524 -0.2293
  315SOL    HW1  944   0.758   2.636   2.862 -1.1369 -1.2544 -1.0233
  315SOL    HW2  945   0.849   2.774   2.884  0.6019 -0.7881 -2.5156
  316SOL     OW  946   0.084   0.527   0.386 -0.3751  0.4518  0.2581
  316SOL    HW1  947   0.015   0.579   0.334  0.7622 -0.0676  2.2505
  316SOL    HW2  948   0.171   0.531   0.331  1.7963  1.1785  1.3761
  317SOL     OW  949   1.479   0.604   0.857  0.2006 -0.4992  0.3613
  317SOL    HW1  950   1.492   0.510   0.886 -1.4266  0.9567 -0.6631
  317SOL    HW2  951   1.398   0.642   0.907  3.0648 -0.6274  0.4994
  318SOL     OW  952   3.082   2.560   0.526 -0.0430 -0.1131  0.0477
  318SOL    HW1  953   3.040   2.625   0.458  0.4860  1.0060  0.0936
  318SOL    HW2  954   3.021   2.480   0.532  2.6702  3.5548  1.6029
  319SOL     OW  955   0.599   1.742   2.859  0.2364  0.6006  0.0741
  319SOL    HW1  956   0.628   1.771   2.955  0.3332 -2.1293  0.6073
  319SOL    HW2  957   0.498   1.731   2.848  2.2505 -1.6186  1.6140
  320SOL     OW  958   0.902   2.621   2.529 -0.4552  0.3015  0.0092
  320SOL    HW1  959   0.952   2.696   2.478 -0.1610  1.1576 -0.3055
  320SOL    HW2  960   0.958   2.551   2.578 -0.4309  0.5590  0.4811
  321SOL     OW  961   1.371   3.050   0.144 -0.6123 -0.0959 -0.4958
  321SOL    HW1  962   1.417   2.958   0.132 -0.5622 -2.6529 -2.1466
  321SOL    HW2  963   1.281   3.041   0.095  1.5044  0.9931  2.7590
  322SOL     OW  964   2.495   1.309   1.980  0.2993  0.2523 -0.2522
  322SOL    HW1  965   2.527   1.408   1.968 -1.7063 -0.0472  1.9409
  322SOL    HW2  966   2.556   1.261   2.044 -2.7890  0.6161 -2.5990
  323SOL     OW  967   2.271   0.571   0.397 -0.1241 -0.6812  0.1185
  323SOL    HW1  968   2.208   0.594   0.318  0.1383  0.2641 -1.9812
  323SOL    HW2  969   2.245   0.494   0.455 -0.9433  0.7822 -0.7103
  324SOL     OW  970   0.403   2.874   2.981 -0.2496 -0.4167  0.0853
  324SOL    HW1  971   0.370   2.972   2.994 -1.6167  1.7137  0.1627
  324SOL    HW2  972   0.337   2.812   2.932  0.7017  2.7200  1.3196
  325SOL     OW  973   1.626   0.332   2.421 -0.1310  0.4930  0.0510
  325SOL    HW1  974   1.654   0.236   2.394 -1.3714 -2.2368 -1.8151
  325SOL    HW2  975   1.527   0.325   2.443  0.6546  2.5352  0.8884
  326SOL     OW  976   2.303   2.606   1.325 -0.2376  0.2817 -0.1886
  326SOL    HW1  977   2.215   2.550   1.326  0.4710  0.5011 -1.1705
  326SOL    HW2  978   2.346   2.615   1.234  0.6418 -2.7015 -0.7512
  327SOL     OW  979   1.633   0.416   2.931  0.0687 -0.2121  0.0177
  327SOL    HW1  980   1.611   0.336   2.990  0.7816 -0.0986  1.8728
  327SOL    HW2  981   1.714   0.462   2.969 -1.7048 -2.3048  0.5845
  328SOL     OW  982   2.581   1.365   2.509 -0.8812  0.5173 -0.2092
  328SOL    HW1  983   2.491   1.360   2.468  1.0406 -1.8734  2.6295
  328SOL    HW2  984   2.610   1.462   2.515  2.2249  3.6639  0.3887
  329SOL     OW  985   1.781   2.801   1.822 -0.0409 -0.4589  0.6966
  329SOL    HW1  986   1.865   2.849   1.837 -3.2533  1.0332  0.4171
  329SOL    HW2  987   1.789   2.753   1.730 -0.0104 -3.8420 -0.6433
  330SOL     OW  988   2.515   1.365   1.520 -0.5122  0.0136  0.1961
  330SOL    HW1  989   2.509   1.265   1.529 -0.4058  0.7690  0.3740
  330SOL    HW2  990   2.598   1.400   1.569 -2.3083  2.3810  1.8388
  331SOL     OW  991   0.267   1.334   1.319  0.3117 -0.5351  0.1342
  331SOL    HW1  992   0.367   1.362   1.318  0.4025  0.6187 -0.7867
  331SOL    HW2  993   0.222   1.357   1.406 -0.0101 -0.9327 -0.7562
  332SOL     OW  994   0.800   0.165   1.416 -0.3987  0.3438 -0.2666
  332SOL    HW1  995   0.816   0.159   1.313  1.9309 -0.6202 -1.0826
  332SOL    HW2  996   0.705   0.133   1.443  1.0118  0.4575 -0.6338
  333SOL     OW  997   2.152   2.637   1.818 -0.2731  0.4653  0.3071
  333SOL    HW1  998   2.249   2.668   1.810 -1.4465  2.1839 -1.1041
  333SOL    HW2  999   2.089   2.713   1.798  1.5440  0.2921 -1.3863
  334SOL     OW 1000   1.002   1.162   1.414 -0.2330  0.2052 -0.5612
  334SOL    HW1 1001   0.962   1.167   1.320  0.3718 -0.4780  0.1132
  334SOL    HW2 1002   1.047   1.075   1.422  0.1572  3.3380  0.0343
  335SOL     OW 1003   1.099   3.017   3.089  0.2309  0.0704 -0.1058
  335SOL    HW1 1004   1.040   3.089   0.017  1.2442 -2.7337 -1.9953
  335SOL    HW2 1005   1.099   3.024   2.986  1.5463 -2.1688 -0.8453
  336SOL     OW 1006   0.063   2.540   2.265 -0.3913 -0.2028 -0.3967
  336SOL    HW1 1007   0.154   2.580   2.248 -0.2606  0.5925  0.4152
  336SOL    HW2 1008   0.001   2.534   2.181 -0.2939 -0.2902  1.1281
  337SOL     OW 1009   2.645   1.416   0.423  1.1663 -0.2017 -0.2041
  337SOL    HW1 1010   2.551   1.442   0.459 -0.5926  0.1786  1.6634
  337SOL    HW2 1011   2.679   1.479   0.350  1.6887 -0.1520 -0.1324
  338SOL     OW 1012   0.911   1.984   1.372  0.1118  0.0007 -0.2258
  338SOL    HW1 1013   1.006   2.005   1.337  0.5207  2.3226 -0.4227
  338SOL    HW2 1014   0.860   1.943   1.296  1.8046  0.1027  2.3956
  339SOL     OW 1015   3.072   0.853   2.481  0.4348 -0.4284  0.1706
  339SOL    HW1 1016   0.048   0.856   2.534  1.0600  0.3010  1.7928
  339SOL    HW2 1017   3.082   0.896   2.387 -2.1837  1.3327  0.1472
  340SOL     OW 1018   1.538   2.628   1.165  0.4475 -0.1710  0.1335
  340SOL    HW1 1019   1.617   2.626   1.232  1.6294  0.8582  0.7432
  340SOL    HW2 1020   1.477   2.546   1.174 -2.0073  0.2537 -0.4842
  341SOL     OW 1021   1.722   1.629   0.738 -0.5341 -0.5055 -0.3053
  341SOL    HW1 1022   1.764   1.580   0.657  1.1336 -1.1014  0.1771
  341SOL    HW2 1023   1.797   1.655   0.805 -0.9081  1.7685  3.1916
  342SOL     OW 1024   0.409   1.312   0.957 -0.5099 -0.0270 -0.6344
  342SOL    HW1 1025   0.430   1.289   0.860 -1.1474  1.4131 -2.0160
  342SOL    HW2 1026   0.340   1.388   0.965  2.2867 -0.4324  0.9645
  343SOL     OW 1027   2.488   0.478   1.463 -0.0128 -0.2946 -0.5033
  343SOL    HW1 1028   2.519   0.557   1.527  1.3142 -3.5329  0.5491
  343SOL    HW2 1029   2.429   0.413   1.514 -1.2295 -0.4773 -1.2119
  344SOL     OW 1030   2.104   2.501   0.548  1.0265  0.5303  0.1466
  344SOL    HW1 1031   2.060   2.507   0.455  0.2884 -2.5535  1.0960
  344SOL    HW2 1032   2.141   2.409   0.561  2.0463  1.5623  1.9131
  345SOL     OW 1033   3.060   2.431   2.645 -0.2037  0.2007  0.2078
  345SOL    HW1 1034   3.017   2.453   2.558  1.8036 -0.2869 -1.1745
  345SOL    HW2 1035   0.044   2.470   2.651 -0.2872 -0.9082 -2.5728
  346SOL     OW 1036   2.960   0.807   0.525  0.9000  0.1851  0.4716
  346SOL    HW1 1037   3.059   0.812   0.538 -1.0243  2.0742 -0.1374
  346SOL    HW2 1038   2.927   0.882   0.466 -0.5354 -2.2030 -0.7263
  347SOL     OW 1039   1.785   2.560   1.262 -0.0098 -0.5762 -0.2178
  347SOL    HW1 1040   1.828   2.526   1.348  2.7233  0.3968 -0.3864
  347SOL    HW2 1041   1.844   2.549   1.178  0.9132  1.6754 -1.3778
  348SOL     OW 1042   1.381   1.613   2.357  0.3870  0.0426 -0.6058
  348SOL    HW1 1043   1.378   1.516   2.331  3.2008  1.0537  0.0286
  348SOL    HW2 1044   1.406   1.668   2.273  0.0619  0.9560 -0.0719
  349SOL     OW 1045   2.233   1.310   2.052 -0.0974  0.7846 -0.1191
  349SOL    HW1 1046   2.325   1.297   2.012  2.4794  1.0535  2.8766
  349SOL    HW2 1047   2.233   1.399   2.104 -0.4928  1.0326 -2.0083
  350SOL     OW 1048   0.266   1.796   1.007  0.0544  0.0676 -0.2498
  350SOL    HW1 1049   0.334   1.830   1.076  2.4197  0.4785 -0.6845
  350SOL    HW2 1050   0.212   1.878   0.972  0.4717  1.7859  1.7325
  351SOL     OW 1051   1.056   0.375   2.299  0.4308 -0.2753 -0.8010
  351SOL    HW1 1052   1.059   0.413   2.399 -0.1199 -0.5088  2.1084
  351SOL    HW2 1053   0.974   0.407   2.251 -1.2406  2.2185 -0.6755
  352SOL     OW 1054   0.920   2.629   1.993  0.1313 -0.4982 -0.2341
  352SOL    HW1 1055   0.903   2.699   2.070 -1.7872  0.2266  0.3644
  352SOL    HW2 1056   0.885   2.661   1.900 -2.8139 -1.3083  0.0156
  353SOL     OW 1057   0.544   1.382   2.367 -0.4340  0.1509 -0.5838
  353SOL    HW1 1058   0.571   1.341   2.276 -1.7688 -0.1864 -0.6991
  353SOL    HW2 1059   0.515   1.477   2.350 -0.7432 -1.6609  0.7595
  354SOL     OW 1060   1.901   1.213   0.608 -0.7103  0.2827  0.3577
  354SOL    HW1 1061   1.824   1.175   0.662 -1.2392  1.2597 -2.2116
  354SOL    HW2 1062   1.915   1.157   0.524  0.6355  0.3770  1.1882
  355SOL     OW 1063   2.407   0.010   0.661  0.1019  0.7712 -0.2090
  355SOL    HW1 1064   2.423   3.017   0.657 -1.7171 -0.9901 -1.2942
  355SOL    HW2 1065   2.477   0.060   0.715 -1.2771  1.1080  2.7586
  356SOL     OW 1066   3.014   1.247   2.501  0.0133 -0.2837  0.2311
  356SOL    HW1 1067   3.069   1.275   2.419 -3.7335 -3.0299 -2.5300
  356SOL    HW2 1068   2.978   1.328   2.554 -2.1292  0.8307 -1.0247
  357SOL     OW 1069   2.964   2.919   1.692 -0.1365  0.3497 -0.0362
  357SOL    HW1 1070   3.000   2.937   1.786  1.5617  0.1795  0.0369
  357SOL    HW2 1071   2.972   2.818   1.668 -1.5300 -1.0369  0.7365
  358SOL     OW 1072   2.909   1.435   2.654  0.1123 -0.2205 -0.0305
  358SOL    HW1 1073   2.989   1.480   2.708  1.6563  1.9797  0.9665
  358SOL    HW2 1074   2.839   1.503   2.616 -2.2867  2.5663 -1.6167
  359SOL     OW 1075   2.590   2.421   2.840 -0.0463 -0.0282 -0.0440
  359SOL    HW1 1076   2.641   2.510   2.838 -0.5269  0.5967 -2.9828
  359SOL    HW2 1077   2.535   2.413   2.927 -0.2126  2.8102 -0.6351
  360SOL     OW 1078   1.358   1.268   1.166 -0.4909 -0.1166  0.2932
  360SOL    HW1 1079   1.299   1.179   1.174 -1.3503 -2.1460  0.6468
  360SOL    HW2 1080   1.402   1.280   1.074 -0.4067 -0.1768 -2.3113
  361SOL     OW 1081   2.045   2.340   1.122  0.6868 -0.5506  0.3413
  361SOL    HW1 1082   2.103   2.290   1.062 -2.0770  5.3147  5.4812
  361SOL    HW2 1083   2.007   2.418   1.070  1.1573  1.7094  0.9290
  362SOL     OW 1084   1.597   1.303   0.937  0.3510 -0.1887 -1.2207
  362SOL    HW1 1085   1.637   1.373   1.011  1.0381  1.1786  2.8345
  362SOL    HW2 1086   1.513   1.343   0.894 -0.9211  0.1170 -0.4606
  363SOL     OW 1087   2.507   2.078   0.113  0.2762 -0.0759  0.5137
  363SOL    HW1 1088   2.546   2.044   0.020 -0.3618 -2.0662 -1.5340
  363SOL    HW2 1089   2.530   2.010   0.188 -0.1916 -2.2736 -0.7562
  364SOL     OW 1090   2.191   0.174   1.693  0.1583  0.3613  0.0684
  364SOL    HW1 1091   2.292   0.183   1.665  1.5670  0.2277 -1.2333
  364SOL    HW2 1092   2.125   0.199   1.626 -0.8734 -2.5444 -0.3478
  365SOL     OW 1093   2.792   2.454   1.470  0.6126  0.3348  0.1409
  365SOL    HW1 1094   2.773   2.446   1.569  0.1359  2.4344 -1.4915
  365SOL    HW2 1095   2.891   2.443   1.448 -0.0109 -0.9019 -0.0686
  366SOL     OW 1096   3.054   1.295   0.030 -0.1191  0.2725 -0.3150
  366SOL    HW1 1097   0.037   1.280   3.097  0.4187 -0.2406  0.0260
  366SOL    HW2 1098   3.014   1.211   0.074 -0.6005  1.2827  2.1471
  367SOL     OW 1099   2.494   2.689   2.887  0.3994  0.4085  0.5820
  367SOL    HW1 1100   2.403   2.684   2.837  1.4312  0.0656 -2.3020
  367SOL    HW2 1101   2.480   2.694   2.986 -2.4635  2.4481 -2.0693
  368SOL     OW 1102   3.102   1.742   1.218  0.1157  0.4883  0.1480
  368SOL    HW1 1103   0.023   1.837   1.218 -1.0512  0.6185 -0.5480
  368SOL    HW2 1104   3.003   1.730   1.200  0.0750  1.0188  2.7334
  369SOL     OW 1105   0.667   0.325   0.709  0.2348  0.3422  0.0673
  369SOL    HW1 1106   0.592   0.390   0.692  0.0470  1.0533 -0.1306
  369SOL    HW2 1107   0.715   0.287   0.623  1.6318 -1.2950 -2.7839
  370SOL     OW 1108   0.707   0.359   0.972  0.7016  0.5882  0.5047
  370SOL    HW1 1109   0.623   0.417   0.994  1.0346 -2.2784 -1.1783
  370SOL    HW2 1110   0.715   0.331   0.869 -0.7236 -1.6690 -1.2696
  371SOL     OW 1111   2.282   1.686   0.161 -0.4730  0.4861 -0.1036
  371SOL    HW1 1112   2.244   1.660   0.254  1.1946  2.2008  0.3150
  371SOL    HW2 1113   2.369   1.637   0.146 -2.2786 -1.8584  0.5700
  372SOL     OW 1114   0.224   0.873   2.572 -0.4399 -0.7546 -0.1398
  372SOL    HW1 1115   0.214   0.918   2.664  0.4315  2.3094 -1.6287
  372SOL    HW2 1116   0.257   0.777   2.584  1.3207 -2.2805 -0.6544
  373SOL     OW 1117   2.936   1.070   0.120 -0.0490 -0.3659  0.0581
  373SOL    HW1 1118   2.912   1.062   0.221 -1.2633  0.1531 -2.9997
  373SOL    HW2 1119   2.859   1.049   0.057 -0.8415  2.1250  3.3529
  374SOL     OW 1120   0.620   2.385   3.006 -0.4950 -0.1541 -0.4819
  374SOL    HW1 1121   0.569   2.463   3.047  0.0616  1.4571 -0.6367
  374SOL    HW2 1122   0.662   2.415   2.921  0.1035 -1.9939  2.4384
  375SOL     OW 1123   1.432   0.349   0.190  0.3329 -0.5300 -0.0433
  375SOL    HW1 1124   1.371   0.428   0.166 -0.0428 -1.0703  2.1514
  375SOL    HW2 1125   1.398   0.311   0.281 -1.8239  0.4895  2.6405
  376SOL     OW 1126   3.088   2.957   1.919  0.6118  0.1323 -0.8881
  376SOL    HW1 1127   3.056   2.990   2.010  3.2360 -2.1236  1.3525
  376SOL    HW2 1128   0.073   2.925   1.931 -0.4160  2.2149  1.6651
  377SOL     OW 1129   2.970   2.139   2.687  0.2638  0.4583  0.8502
  377SOL    HW1 1130   3.011   2.236   2.670 -0.4315  0.5707 -0.9173
  377SOL    HW2 1131   3.014   2.067   2.632 -1.2516  0.6135  0.9953
  378SOL     OW 1132   1.687   0.808   0.629 -0.4580  0.0780 -0.1589
  378SOL    HW1 1133   1.638   0.769   0.551 -1.6134  2.5118 -0.7404
  378SOL    HW2 1134   1.634   0.848   0.700  1.1118  1.1299  0.1008
  379SOL     OW 1135   1.227   1.437   0.370  0.3692  0.4140  0.1852
  379SOL    HW1 1136   1.147   1.451   0.428  2.2280 -1.8499  0.5918
  379SOL    HW2 1137   1.319   1.424   0.419  3.4627 -0.4168  1.9701
  380SOL     OW 1138   2.012   2.187   2.070 -0.0865  0.0918 -0.0560
  380SOL    HW1 1139   2.076   2.262   2.044 -1.0292  0.7089 -0.2436
  380SOL    HW2 1140   1.929   2.225   2.123 -0.1559 -1.2624  0.5939
  381SOL     OW 1141   2.868   1.026   2.062  0.4851 -0.2271 -0.0564
  381SOL    HW1 1142   2.948   1.002   2.121 -0.0825 -1.9944  0.2157
  381SOL    HW2 1143   2.895   1.083   1.979  2.0571 -1.5999 -1.3847
  382SOL     OW 1144   2.972   2.542   0.008 -0.2632 -0.2630 -0.1717
  382SOL    HW1 1145   2.919   2.526   3.037  0.8080 -3.1923  2.6848
  382SOL    HW2 1146   3.033   2.622   0.003 -1.3531 -1.2495  4.0321
  383SOL     OW 1147   1.538   1.193   2.140 -0.1674  0.2767 -0.0219
  383SOL    HW1 1148   1.497   1.128   2.069 -1.6248 -2.1876 -1.2631
  383SOL    HW2 1149   1.605   1.252   2.092 -0.3375 -1.0247 -0.1851
  384SOL     OW 1150   0.829   2.117   2.522  0.3165 -0.3686  0.5911
  384SOL    HW1 1151   0.836   2.130   2.420  0.5579  4.2809  1.5261
  384SOL    HW2 1152   0.871   2.029   2.555  1.4324 -1.5300  0.3942
  385SOL     OW 1153   2.522   1.907   0.364  0.1717 -0.3049 -0.2656
  385SOL    HW1 1154   2.583   1.955   0.428  0.7783  1.0003 -0.1925
  385SOL    HW2 1155   2.534   1.804   0.374 -0.9280 -0.4722  1.9050
  386SOL     OW 1156   1.261   1.212   0.230 -0.2252  0.2217 -0.7009
  386SOL    HW1 1157   1.252   1.249   0.138  2.2600 -1.6650  0.6977
  386SOL    HW2 1158   1.244   1.280   0.302  2.8198  2.7941 -2.3533
  387SOL     OW 1159   2.904   0.447   1.420  0.5378 -0.2451  0.3299
  387SOL    HW1 1160   2.934   0.539   1.455  1.8663  1.8403  0.7063
  387SOL    HW2 1161   2.979   0.383   1.431 -2.8457  3.0414 -0.9979
  388SOL     OW 1162   2.818   0.850   1.325 -0.1169  0.3189  0.0710
  388SOL    HW1 1163   2.846   0.928   1.264  0.7610 -2.1694  0.4156
  388SOL    HW2 1164   2.816   0.763   1.275 -2.2657  0.3055  1.1667
  389SOL     OW 1165   1.639   1.340   2.557  0.1817  0.2261  0.7349
  389SOL    HW1 1166   1.571   1.273   2.596  0.6773  0.1346  2.2229
  389SOL    HW2 1167   1.642   1.429   2.606  1.5425 -1.2796 -1.4698
  390SOL     OW 1168   1.746   2.242   0.431 -0.7624  0.4280  0.0736
  390SOL    HW1 1169   1.827   2.177   0.415  3.1003  1.1821 -0.6691
  390SOL    HW2 1170   1.755   2.320   0.375  1.9845 -2.9813 -0.8764
  391SOL     OW 1171   1.160   2.267   1.025  0.5646 -0.4082 -0.2915
  391SOL    HW1 1172   1.258   2.246   1.031  0.4169 -0.2938 -0.2777
  391SOL    HW2 1173   1.145   2.339   0.952 -0.5495  1.6328 -0.9663
  392SOL     OW 1174   2.499   2.755   1.510  0.1964  0.5581  0.1664
  392SOL    HW1 1175   2.431   2.701   1.456 -0.9660  1.7068 -0.3757
  392SOL    HW2 1176   2.595   2.741   1.468  0.6187  0.4159  1.0452
  393SOL     OW 1177   1.762   2.563   2.303 -0.4510  0.2216 -0.3176
  393SOL    HW1 1178   1.792   2.630   2.235  0.5162 -1.5439  2.8150
  393SOL    HW2 1179   1.704   2.614   2.371  1.0103  2.4508  2.6228
  394SOL     OW 1180   0.537   2.895   2.452  0.1072 -0.7241  0.6208
  394SOL    HW1 1181   0.592   2.923   2.369 -0.4939 -0.4500  0.9223
  394SOL    HW2 1182   0.443   2.933   2.442 -1.6643  1.1875  1.6335
  395SOL     OW 1183   0.344   1.048   1.414 -0.0495 -0.1517 -0.3196
  395SOL    HW1 1184   0.254   0.996   1.428 -1.0593  0.7082 -0.8041
  395SOL    HW2 1185   0.372   1.058   1.319  1.2386  0.6046  1.5864
  396SOL     OW 1186   2.154   1.116   2.412  0.2289 -0.5685  0.5853
  396SOL    HW1 1187   2.097   1.061   2.353  2.4565  3.5638 -2.8453
  396SOL    HW2 1188   2.143   1.099   2.510  0.4215 -2.3701 -1.0829
  397SOL     OW 1189   2.812   0.449   2.640 -0.1501  0.0598 -0.0040
  397SOL    HW1 1190   2.905   0.416   2.664  1.7157 -4.5480  1.0616
  397SOL    HW2 1191   2.801   0.491   2.544 -0.1837 -1.2098 -0.0075
  398SOL     OW 1192   1.877   2.847   0.311  0.1262 -0.4812 -0.0176
  398SOL    HW1 1193   1.972   2.852   0.351  1.6768 -0.8280  1.5016
  398SOL    HW2 1194   1.871   2.903   0.223 -0.8212 -1.7278 -0.7507
  399SOL     OW 1195   2.223   2.445   2.098  0.1837 -0.4531  0.1930
  399SOL    HW1 1196   2.198   2.443   2.200  0.6262 -0.9149  3.1712
  399SOL    HW2 1197   2.238   2.535   2.063 -1.1842 -1.6541  0.2802
  400SOL     OW 1198   0.300   2.315   2.173  0.3638  0.6926 -0.1126
  400SOL    HW1 1199   0.294   2.233   2.107  0.9889 -2.6868 -1.9236
  400SOL    HW2 1200   0.309   2.402   2.115 -1.0954  1.3030 -0.5780
  401SOL     OW 1201   0.609   0.583   0.528 -0.4096  0.4989 -0.0830
  401SOL    HW1 1202   0.588   0.511   0.459  0.1266  1.1406 -1.1170
  401SOL    HW2 1203   0.547   0.581   0.609  0.7269 -1.0892  1.4880
  402SOL     OW 1204   0.835   2.775   2.211  0.0701 -0.2908 -0.0233
  402SOL    HW1 1205   0.908   2.792   2.279  0.9229  0.1079 -1.1005
  402SOL    HW2 1206   0.764   2.847   2.222 -0.3557  1.5477  0.1321
  403SOL     OW 1207   0.214   1.367   2.088 -1.0989 -0.4373 -0.5097
  403SOL    HW1 1208   0.277   1.287   2.113  2.4873 -1.4024  0.9071
  403SOL    HW2 1209   0.129   1.354   2.146  0.6627  0.1012 -2.6083
  404SOL     OW 1210   2.870   2.271   2.368  0.0737 -0.3083  0.1185
  404SOL    HW1 1211   2.963   2.272   2.324 -2.8137 -0.0850  2.1593
  404SOL    HW2 1212   2.834   2.176   2.389  0.0198 -2.6239  1.0455
  405SOL     OW 1213   2.369   0.099   2.525  0.4733  0.5884  0.3369
  405SOL    HW1 1214   2.297   0.118   2.597  1.6295 -0.8125 -1.5405
  405SOL    HW2 1215   2.334   0.050   2.442 -1.6798 -0.6295  1.6695
  406SOL     OW 1216   1.511   2.288   0.561 -0.0074  0.3726 -0.2219
  406SOL    HW1 1217   1.466   2.354   0.495  0.9541  1.8749 -0.7532
  406SOL    HW2 1218   1.596   2.255   0.512 -1.1495  2.5905  0.8409
  407SOL     OW 1219   1.638   1.467   0.332 -0.0219 -0.3901 -0.0228
  407SOL    HW1 1220   1.638   1.517   0.240 -1.4763  1.3412 -3.5185
  407SOL    HW2 1221   1.556   1.494   0.394 -2.5996 -2.1676  1.8211
  408SOL     OW 1222   0.174   0.838   2.029 -0.0976 -0.4441 -0.0613
  408SOL    HW1 1223   0.124   0.786   1.961  0.8589  1.6960  1.2741
  408SOL    HW2 1224   0.234   0.781   2.088  0.8042  1.6914 -0.2668
  409SOL     OW 1225   2.877   1.423   2.957 -0.7389  0.0226  0.7399
  409SOL    HW1 1226   2.930   1.351   3.010  2.7346  2.6305 -2.2344
  409SOL    HW2 1227   2.904   1.404   2.856  2.5259  1.9085 -1.7679
  410SOL     OW 1228   2.915   1.489   1.040 -0.2781 -0.1432  0.2537
  410SOL    HW1 1229   2.936   1.539   0.952  0.0465 -2.1191 -1.9711
  410SOL    HW2 1230   2.994   1.483   1.101 -1.9139  0.7623  0.3973
  411SOL     OW 1231   2.984   0.647   0.256 -0.2860  0.1479  0.2310
  411SOL    HW1 1232   2.920   0.579   0.286  1.8923 -0.6319  0.2562
  411SOL    HW2 1233   2.982   0.725   0.320  1.8374 -0.5895 -3.0341
  412SOL     OW 1234   1.825   0.086   0.236  0.5335  0.0400 -0.7095
  412SOL    HW1 1235   1.896   0.089   0.307 -0.7658 -0.1471 -3.0045
  412SOL    HW2 1236   1.732   0.081   0.282  0.1061 -2.7862  0.9911
  413SOL     OW 1237   1.264   0.260   1.866  0.2674  0.1200 -0.2124
  413SOL    HW1 1238   1.254   0.276   1.966  0.8206 -1.5137 -1.4012
  413SOL    HW2 1239   1.357   0.250   1.838 -2.7510 -0.8506  0.7420
  414SOL     OW 1240   0.382   0.787   0.203 -0.0037 -0.2434 -0.3074
  414SOL    HW1 1241   0.309   0.853   0.233 -0.8968  0.3371  0.5456
  414SOL    HW2 1242   0.474   0.798   0.249  0.3446  1.1615  0.6246
  415SOL     OW 1243   2.854   1.028   0.371 -0.2556 -0.0396  0.1641
  415SOL    HW1 1244   2.755   1.003   0.375  1.1048  3.0419  2.0208
  415SOL    HW2 1245   2.881   1.085   0.451 -0.0337  1.7340 -0.4566
  416SOL     OW 1246   2.277   0.848   0.161  0.1206  0.2406 -0.1631
  416SOL    HW1 1247   2.244   0.750   0.158 -1.0384  2.2290  1.0997
  416SOL    HW2 1248   2.371   0.857   0.121  1.2837 -0.7680  1.8541
  417SOL     OW 1249   2.812   2.639   0.190  0.3807  0.0392  0.3279
  417SOL    HW1 1250   2.730   2.679   0.147 -0.0278 -0.0687  0.0098
  417SOL    HW2 1251   2.873   2.600   0.118  0.5443  1.8627 -0.9233
  418SOL     OW 1252   2.908   0.769   0.014 -0.0305  0.1901  0.2401
  418SOL    HW1 1253   2.949   0.739   0.102  0.6026  0.8321 -0.3303
  418SOL    HW2 1254   2.808   0.752   0.006  0.4366 -0.1596 -0.0255
  419SOL     OW 1255   0.834   0.601   0.635 -0.2918  0.4596  0.4366
  419SOL    HW1 1256   0.752   0.591   0.571  0.7182 -1.5718 -2.3516
  419SOL    HW2 1257   0.816   0.536   0.707 -1.3843  1.6899 -3.2577
  420SOL     OW 1258   0.395   0.808   0.863 -0.1261  0.3739 -0.2569
  420SOL    HW1 1259   0.296   0.810   0.844  1.3632 -3.4569  0.1624
  420SOL    HW2 1260   0.415   0.806   0.957  0.4884 -2.6574 -3.2753
  421SOL     OW 1261   0.393   1.911   0.613 -0.0233  0.1126 -0.0282
  421SOL    HW1 1262   0.467   1.977   0.592 -0.2441  0.4060  0.6277
  421SOL    HW2 1263   0.316   1.934   0.548 -1.3234  0.2248 -1.1066
  422SOL     OW 1264   2.611   0.304   1.764  0.1496  0.3491  0.4048
  422SOL    HW1 1265   2.601   0.276   1.865  0.6563  0.5312  2.4714
  422SOL    HW2 1266   2.542   0.264   1.704 -0.6329  2.7337  1.2207
  423SOL     OW 1267   1.875   1.717   0.138 -0.4151 -0.5656  0.1933
  423SOL    HW1 1268   1.913   1.697   0.231  2.2578 -0.0403  1.1801
  423SOL    HW2 1269   1.937   1.773   0.086  0.4839 -3.2472  0.5934
  424SOL     OW 1270   1.645   1.580   2.677  0.1710 -0.0599 -0.4170
  424SOL    HW1 1271   1.736   1.614   2.651 -1.3524 -0.9099 -2.0842
  424SOL    HW2 1272   1.659   1.544   2.775  1.9336  1.6755 -2.1736
  425SOL     OW 1273   0.435   3.061   2.085 -0.2847 -0.2471  0.1361
  425SOL    HW1 1274   0.368   2.990   2.049  0.4246 -3.2333 -2.0756
  425SOL    HW2 1275   0.470   3.105   2.000 -0.1707  1.8834 -2.9772
  426SOL     OW 1276   2.322   2.828   0.009  0.3225 -0.0322 -0.1925
  426SOL    HW1 1277   2.280   2.892   0.075  0.3364  2.4082 -0.0995
  426SOL    HW2 1278   2.252   2.787   3.062  0.4531  0.9999  1.7558
  427SOL     OW 1279   0.539   1.630   2.274  0.8059  0.3265 -0.4819
  427SOL    HW1 1280   0.614   1.673   2.223 -2.7945 -2.6789 -1.0856
  427SOL    HW2 1281   0.486   1.697   2.334  0.3669  0.3461 -0.4556
  428SOL     OW 1282   2.043   1.442   2.651 -1.1628  0.3427  0.0625
  428SOL    HW1 1283   2.002   1.424   2.560 -0.5410 -2.7234 -1.4148
  428SOL    HW2 1284   2.140   1.475   2.643  0.7511 -2.9528 -1.7785
  429SOL     OW 1285   2.489   2.903   0.528  0.1777  0.2938  0.0785
  429SOL    HW1 1286   2.547   2.961   0.466  1.4387  0.7426 -2.2198
  429SOL    HW2 1287   2.458   2.819   0.475  0.9596 -1.3616  0.8070
  430SOL     OW 1288   1.717   1.726   2.041 -0.0431 -0.1894 -0.1277
  430SOL    HW1 1289   1.741   1.697   1.950 -1.1525 -1.7956  1.3416
  430SOL    HW2 1290   1.771   1.808   2.074  0.3231  2.3198  1.7024
  431SOL     OW 1291   0.023   1.850   1.913 -0.5903  0.0687 -0.5422
  431SOL    HW1 1292   3.083   1.914   1.976 -2.0512 -0.0058 -3.4008
  431SOL    HW2 1293   3.077   1.830   1.833  1.8522 -2.1027  0.8744
  432SOL     OW 1294   1.154   2.167   2.322  0.0845  0.2791 -0.3954
  432SOL    HW1 1295   1.060   2.148   2.288  1.4776 -2.1148 -0.5668
  432SOL    HW2 1296   1.218   2.103   2.271  0.9779  0.0748  3.0240
  433SOL     OW 1297   1.033   2.917   1.036  0.3010  0.2256  0.1938
  433SOL    HW1 1298   1.034   2.964   0.946  3.1013  0.3226 -0.9786
  433SOL    HW2 1299   1.121   2.867   1.058  1.6136 -4.5075 -1.0792
  434SOL     OW 1300   0.509   2.209   2.346  0.1681 -0.5753  0.2834
  434SOL    HW1 1301   0.442   2.265   2.291 -1.7104 -1.7052 -1.6125
  434SOL    HW2 1302   0.605   2.218   2.312  1.1407  0.6176  0.3955
  435SOL     OW 1303   0.411   1.340   0.422 -0.0325 -0.0587  0.1953
  435SOL    HW1 1304   0.406   1.414   0.490  0.0599  1.1853 -3.5157
  435SOL    HW2 1305   0.456   1.378   0.342 -0.6075  3.5454 -0.1910
  436SOL     OW 1306   0.535   2.144   1.836 -0.4117 -0.1672  0.4282
  436SOL    HW1 1307   0.468   2.212   1.809  1.6127 -2.9397  2.2789
  436SOL    HW2 1308   0.625   2.164   1.784  0.8548 -1.0205 -3.0569
  437SOL     OW 1309   1.174   0.419   0.407 -0.2211  0.3120  0.0347
  437SOL    HW1 1310   1.263   0.451   0.450  3.5376  2.9381 -0.0629
  437SOL    HW2 1311   1.146   0.329   0.452 -2.0623  0.1626  0.2541
  438SOL     OW 1312   0.802   1.968   0.806  0.0499 -0.6842 -0.1075
  438SOL    HW1 1313   0.855   1.880   0.813 -2.6457 -2.0919  1.1972
  438SOL    HW2 1314   0.841   2.043   0.861 -0.5024 -0.0838  1.0728
  439SOL     OW 1315   1.429   2.374   1.732 -0.0122  0.1761  0.2013
  439SOL    HW1 1316   1.449   2.374   1.633  1.5366 -1.6761  0.1976
  439SOL    HW2 1317   1.334   2.346   1.756  1.0155 -1.2187  2.7373
  440SOL     OW 1318   1.493   0.188   1.375 -0.1043 -0.4015 -0.6125
  440SOL    HW1 1319   1.566   0.147   1.433  0.7628  0.4818 -1.8534
  440SOL    HW2 1320   1.541   0.240   1.301 -0.2407 -1.3384  1.2085
  441SOL     OW 1321   0.531   3.045   1.370  0.0972 -0.3954 -0.3177
  441SOL    HW1 1322   0.554   0.004   1.444  2.7303  2.5162  0.6405
  441SOL    HW2 1323   0.575   2.954   1.394 -0.0261 -1.0833  1.2161
  442SOL     OW 1324   2.304   1.885   0.612  0.4089 -0.4778  0.7801
  442SOL    HW1 1325   2.212   1.850   0.635 -0.6063 -1.1598  0.4656
  442SOL    HW2 1326   2.304   1.912   0.510 -1.2441  0.1431 -5.4835
  443SOL     OW 1327   2.717   0.548   2.400 -0.4811 -0.3246  0.5156
  443SOL    HW1 1328   2.638   0.493   2.419  0.0473  2.7123 -2.2436
  443SOL    HW2 1329   2.709   0.584   2.301  0.2390 -0.5619 -0.4976
  444SOL     OW 1330   1.885   1.398   2.431 -0.9492 -0.4449 -0.3142
  444SOL    HW1 1331   1.796   1.353   2.457 -3.6273  0.6271  0.1887
  444SOL    HW2 1332   1.913   1.362   2.341  2.3884 -0.4761 -0.3735
  445SOL     OW 1333   2.668   1.996   1.537  0.8025  0.3480  0.0886
  445SOL    HW1 1334   2.649   2.031   1.631  1.6963 -0.3625  0.5122
  445SOL    HW2 1335   2.655   1.894   1.540  1.0146  1.2494  0.3600
  446SOL     OW 1336   0.120   0.835   0.542  0.6594 -0.0056 -0.0750
  446SOL    HW1 1337   0.188   0.779   0.489  0.9319  0.6643 -1.8525
  446SOL    HW2 1338   0.138   0.932   0.557 -2.8281  1.1511 -1.4386
  447SOL     OW 1339   0.625   1.564   0.958  0.9212 -0.2156 -0.0597
  447SOL    HW1 1340   0.630   1.470   0.922 -1.1622 -1.8561 -1.9374
  447SOL    HW2 1341   0.572   1.626   0.898 -0.6797  1.4034  0.2165
  448SOL     OW 1342   1.262   1.375   1.999  0.4080  0.2800 -0.6671
  448SOL    HW1 1343   1.287   1.373   1.901 -2.4816 -0.9968 -2.0265
  448SOL    HW2 1344   1.322   1.309   2.049  1.8226  0.5982 -0.8985
  449SOL     OW 1345   0.230   1.648   0.058 -0.2853  0.5214  0.3110
  449SOL    HW1 1346   0.218   1.550   0.077  2.1513  0.2860 -0.8198
  449SOL    HW2 1347   0.155   1.682   0.003  2.0685 -2.2614  1.5245
  450SOL     OW 1348   2.640   2.355   1.933  0.2792 -0.5387  0.3710
  450SOL    HW1 1349   2.548   2.390   1.910 -0.3790 -0.3878  0.8099
  450SOL    HW2 1350   2.665   2.382   2.029 -0.9018  1.8161 -0.8895
  451SOL     OW 1351   2.043   0.389   2.221  0.0171 -0.5087  0.2134
  451SOL    HW1 1352   2.059   0.327   2.297  3.2499  2.4533 -1.3781
  451SOL    HW2 1353   1.970   0.349   2.158 -2.7711 -0.6245 -1.7299
  452SOL     OW 1354   1.110   3.087   1.234 -0.3655 -0.0655 -0.1005
  452SOL    HW1 1355   1.050   3.044   1.166  0.3976  1.3203 -1.1186
  452SOL    HW2 1356   1.087   3.059   1.331 -1.1670 -2.8475  1.2793
  453SOL     OW 1357   0.912   1.315   1.175 -0.1235  0.7880 -0.5712
  453SOL    HW1 1358   0.981   1.362   1.115 -1.1286 -0.2415  0.4799
  453SOL    HW2 1359   0.871   1.383   1.239  1.0040  0.3215  0.4253
  454SOL     OW 1360   0.013   1.100   0.899 -0.0579  0.1147 -0.6430
  454SOL    HW1 1361   0.067   1.134   0.980  2.0004 -0.2049  0.5973
  454SOL    HW2 1362   0.028   1.162   0.815 -0.3420  2.5745 -1.0988
  455SOL     OW 1363   3.004   2.760   0.328  0.6010  0.6582  0.3757
  455SOL    HW1 1364   2.926   2.713   0.271 -0.2688 -0.7062 -2.3918
  455SOL    HW2 1365   3.086   2.765   0.264 -0.2409 -2.0576 -1.0436
  456SOL     OW 1366   2.224   2.242   0.605 -0.1247  0.0453 -0.1484
  456SOL    HW1 1367   2.165   2.158   0.601 -1.8051 -1.6935  0.4575
  456SOL    HW2 1368   2.288   2.262   0.524  3.2985  1.5345 -0.1964
  457SOL     OW 1369   1.641   0.218   0.055 -0.0336 -0.2738  0.2496
  457SOL    HW1 1370   1.714   0.170   0.106  1.0668 -0.8295  0.3416
  457SOL    HW2 1371   1.578   0.274   0.111  0.7325 -1.9020  1.3155
  458SOL     OW 1372   2.713   2.540   0.457 -0.3141 -0.3838 -0.1855
  458SOL    HW1 1373   2.771   2.553   0.541  0.1683  0.9149  0.5438
  458SOL    HW2 1374   2.770   2.535   0.371 -0.2182 -0.1427  1.9441
  459SOL     OW 1375   2.170   0.159   2.699 -0.0475  0.2218 -0.0348
  459SOL    HW1 1376   2.110   0.243   2.709  0.3516 -0.8037  3.1887
  459SOL    HW2 1377   2.160   0.089   2.772  0.0853 -2.8744  1.4201
  460SOL     OW 1378   0.064   0.253   0.114 -0.3978 -0.0220  0.2024
  460SOL    HW1 1379   0.013   0.336   0.089  1.9732 -0.6872 -0.2551
  460SOL    HW2 1380   0.003   0.195   0.171  0.4734 -0.5297  1.4527
  461SOL     OW 1381   0.491   1.655   1.313  0.4646 -0.2259 -0.3469
  461SOL    HW1 1382   0.438   1.644   1.403  1.4167 -1.2894  1.4763
  461SOL    HW2 1383   0.519   1.562   1.275  0.2156  0.7833 -1.4275
  462SOL     OW 1384   2.720   3.063   1.630 -0.4500  0.1479  0.3822
  462SOL    HW1 1385   2.794   2.994   1.648  1.7438 -2.2596  1.7351
  462SOL    HW2 1386   2.757   0.049   1.640  0.7171  2.7461  0.7276
  463SOL     OW 1387   2.702   1.101   3.102  0.6262  0.3795  0.5986
  463SOL    HW1 1388   2.637   1.164   0.037  0.4540  0.9937  0.7103
  463SOL    HW2 1389   2.714   1.110   3.003 -1.4871  0.8164  2.0346
  464SOL     OW 1390   0.097   2.404   1.238  0.0242  0.1064  0.2603
  464SOL    HW1 1391   0.119   2.312   1.191  2.3119  0.3598 -2.1489
  464SOL    HW2 1392   0.176   2.435   1.295  1.5867 -3.1783  2.8460
  465SOL     OW 1393   0.400   0.802   0.531 -0.6639 -0.3086  0.1701
  465SOL    HW1 1394   0.454   0.878   0.489  1.7427  0.1181 -0.6103
  465SOL    HW2 1395   0.424   0.776   0.625 -0.7900 -1.0144 -1.9416
  466SOL     OW 1396   1.336   3.067   2.144 -0.2551 -0.2758  0.1023
  466SOL    HW1 1397   1.368   2.972   2.153  1.3061 -0.8483  1.5602
  466SOL    HW2 1398   1.321   0.000   2.236 -1.2216  0.5219  0.7298
  467SOL     OW 1399   0.771   0.479   2.261  0.5097 -0.2842 -0.3772
  467SOL    HW1 1400   0.711   0.440   2.191 -0.7067  3.3309 -0.1565
  467SOL    HW2 1401   0.747   0.576   2.288 -2.9411 -0.5421  0.7544
  468SOL     OW 1402   0.014   0.977   2.223 -0.7051  0.4506 -0.2004
  468SOL    HW1 1403   0.048   1.062   2.260  2.9473 -1.1036  1.1672
  468SOL    HW2 1404   0.082   0.934   2.164 -0.2228  2.2889  0.1875
  469SOL     OW 1405   0.447   1.724   0.814  0.1399 -0.0951 -0.3581
  469SOL    HW1 1406   0.448   1.793   0.739  1.3069 -0.2159  0.6980
  469SOL    HW2 1407   0.377   1.745   0.886  0.7736 -0.5412 -0.1681
  470SOL     OW 1408   2.807   1.643   2.302  0.0009 -0.4042  0.2594
  470SOL    HW1 1409   2.739   1.650   2.378  0.0132 -1.1205 -0.0013
  470SOL    HW2 1410   2.806   1.724   2.239  0.7834 -0.2383  3.2449
  471SOL     OW 1411   1.610   0.782   2.349 -0.2281 -0.0930  0.4225
  471SOL    HW1 1412   1.672   0.739   2.279  0.3802  0.6010 -0.3492
  471SOL    HW2 1413   1.656   0.782   2.443  1.8050  1.1832  2.9044
  472SOL     OW 1414   0.752   2.588   1.491  0.0579  0.4104 -0.6869
  472SOL    HW1 1415   0.679   2.518   1.521  0.7054 -1.4312  0.4537
  472SOL    HW2 1416   0.785   2.570   1.395  0.0009  0.4037 -0.6820
  473SOL     OW 1417   0.514   0.070   2.507  0.2251  0.9945  0.2549
  473SOL    HW1 1418   0.562   0.139   2.449 -0.9606  1.1600 -1.3815
  473SOL    HW2 1419   0.583   0.015   2.554 -1.3473  2.6894 -2.5027
  474SOL     OW 1420   1.818   3.064   1.044 -0.1354 -0.0214  0.6847
  474SOL    HW1 1421   1.835   0.054   1.059 -0.6156  0.9200 -0.1535
  474SOL    HW2 1422   1.757   3.058   0.962 -0.4884 -0.5163  0.1042
  475SOL     OW 1423   1.843   0.519   1.079 -0.4317 -0.8008 -0.0518
  475SOL    HW1 1424   1.822   0.592   1.012  0.9190 -2.7285  1.8138
  475SOL    HW2 1425   1.848   0.433   1.040  4.7614  1.2522  1.6807
  476SOL     OW 1426   0.516   0.831   1.114 -0.5351 -0.7836  0.2162
  476SOL    HW1 1427   0.500   0.931   1.139  0.5264  1.5601  0.9389
  476SOL    HW2 1428   0.561   0.789   1.194  0.3809  2.0644  0.1446
  477SOL     OW 1429   1.371   2.742   0.336 -0.2907 -0.3323  0.6201
  477SOL    HW1 1430   1.271   2.764   0.328  1.3196  2.5902 -0.1592
  477SOL    HW2 1431   1.420   2.789   0.410  1.3100 -0.0072 -1.6260
  478SOL     OW 1432   0.423   2.497   2.550  0.3495 -0.0606  0.2800
  478SOL    HW1 1433   0.490   2.575   2.576  1.1732  2.8524  1.2367
  478SOL    HW2 1434   0.470   2.406   2.552  1.3555  0.5021 -0.2143
  479SOL     OW 1435   2.559   0.251   1.322  0.0564 -0.4957 -0.3323
  479SOL    HW1 1436   2.534   0.346   1.351  1.5205  1.2515 -0.6082
  479SOL    HW2 1437   2.514   0.233   1.232 -0.0406  1.6510 -1.4784
  480SOL     OW 1438   0.446   2.355   0.555  0.2342  0.5156  0.2015
  480SOL    HW1 1439   0.514   2.368   0.481  1.9236  1.0495  1.1808
  480SOL    HW2 1440   0.357   2.402   0.532 -2.2135 -1.1190  1.6031
  481SOL     OW 1441   2.153   2.109   1.423 -0.2071  0.0071 -0.6225
  481SOL    HW1 1442   2.080   2.163   1.472  0.9836  0.4508  0.3017
  481SOL    HW2 1443   2.232   2.166   1.402 -0.3751 -1.5635 -1.9227
  482SOL     OW 1444   1.242   2.499   3.033 -0.0290 -0.2993  0.3370
  482SOL    HW1 1445   1.322   2.435   3.051  2.0825 -1.7840  1.7012
  482SOL    HW2 1446   1.151   2.454   3.050  2.2621 -0.7809  2.5722
  483SOL     OW 1447   1.000   2.195   1.943 -0.0985  0.1486 -0.3024
  483SOL    HW1 1448   1.025   2.297   1.941 -0.7706 -2.0636  2.1390
  483SOL    HW2 1449   0.957   2.167   1.857  0.1457  1.2836  2.3583
  484SOL     OW 1450   1.300   0.606   1.617 -0.3198 -0.0069 -0.7483
  484SOL    HW1 1451   1.361   0.595   1.535 -1.6753 -0.7429  1.5245
  484SOL    HW2 1452   1.348   0.584   1.706  1.3877 -1.9128  0.7679
  485SOL     OW 1453   1.744   0.707   2.582 -0.1929 -0.3672 -0.6534
  485SOL    HW1 1454   1.834   0.752   2.588  0.9477  1.0028 -1.4145
  485SOL    HW2 1455   1.744   0.609   2.604 -0.5167  3.1446 -0.5977
  486SOL     OW 1456   2.169   2.933   1.196  0.2172 -0.0290  0.0556
  486SOL    HW1 1457   2.142   2.842   1.230 -0.5058 -1.2058  0.9915
  486SOL    HW2 1458   2.275   2.937   1.201  4.4767  0.8296 -1.2408
  487SOL     OW 1459   0.614   2.103   1.213 -0.1534  0.4990  0.3028
  487SOL    HW1 1460   0.670   2.185   1.223 -0.9877 -4.2735  2.3734
  487SOL    HW2 1461   0.545   2.101   1.290  0.5866 -0.2298 -2.0209
  488SOL     OW 1462   2.243   2.080   0.029  0.1759  0.5027  0.1431
  488SOL    HW1 1463   2.325   2.081   0.087 -0.6812  0.0626  1.3293
  488SOL    HW2 1464   2.262   2.116   3.049 -0.9742  0.3506  1.7411
  489SOL     OW 1465   2.107   2.879   0.743 -0.7631  0.3831  0.5951
  489SOL    HW1 1466   2.180   2.810   0.714 -1.4194  0.5157  1.0958
  489SOL    HW2 1467   2.080   2.878   0.846  1.6512 -0.3172  1.8088
  490SOL     OW 1468   0.804   1.723   0.201 -0.7616  0.3055 -0.1103
  490SOL    HW1 1469   0.849   1.807   0.159  0.8779  1.0872  1.1649
  490SOL    HW2 1470   0.741   1.752   0.278  1.5453  3.7093 -1.3782
  491SOL     OW 1471   0.180   2.117   1.530 -0.0968 -0.0998 -0.1145
  491SOL    HW1 1472   0.092   2.156   1.501  0.2005 -1.6918  0.7727
  491SOL    HW2 1473   0.240   2.182   1.577 -0.7257 -1.8792  0.7303
  492SOL     OW 1474   0.676   1.694   1.733 -0.0436  0.1223 -0.2798
  492SOL    HW1 1475   0.701   1.756   1.658 -1.9647 -2.4066  0.7444
  492SOL    HW2 1476   0.585   1.648   1.713  1.5003 -1.1612  2.8507
  493SOL     OW 1477   2.746   2.032   0.849 -0.1404 -0.1143  0.1354
  493SOL    HW1 1478   2.768   1.955   0.785  1.1323  0.5360  2.3192
  493SOL    HW2 1479   2.800   2.018   0.934  4.0476 -0.0577  1.4647
  494SOL     OW 1480   2.734   1.849   0.625  0.0803 -0.3745 -0.3830
  494SOL    HW1 1481   2.656   1.788   0.636  0.5614 -0.2646 -1.4217
  494SOL    HW2 1482   2.817   1.809   0.581  1.4928 -2.7238  0.8812
  495SOL     OW 1483   2.731   3.015   0.040 -0.3397  0.3578  0.7858
  495SOL    HW1 1484   2.818   2.981   0.004 -0.2186 -0.0627 -1.4566
  495SOL    HW2 1485   2.710   3.107   0.002  0.3686 -1.5309 -1.2527
  496SOL     OW 1486   2.433   3.027   1.286 -0.3647  0.2546  0.1652
  496SOL    HW1 1487   2.368   3.075   1.348  0.0266  2.6671 -0.4599
  496SOL    HW2 1488   2.523   3.004   1.332  2.6136  2.3283  3.1653
  497SOL     OW 1489   2.441   1.266   2.791 -0.1375  0.5267  0.0016
  497SOL    HW1 1490   2.421   1.177   2.837 -2.2345 -0.7169 -2.4164
  497SOL    HW2 1491   2.511   1.243   2.723 -0.7231  1.9037  0.0887
  498SOL     OW 1492   2.903   1.986   1.106 -0.4769 -0.1170  0.0963
  498SOL    HW1 1493   2.866   2.041   1.178  0.0885 -2.0042 -2.6549
  498SOL    HW2 1494   2.879   1.886   1.115  1.6802  1.0048 -1.3210
  499SOL     OW 1495   0.958   2.343   2.635 -0.3383  0.2863 -0.3943
  499SOL    HW1 1496   0.895   2.270   2.600 -0.9288  2.2571 -2.3543
  499SOL    HW2 1497   1.046   2.324   2.582  1.9894 -0.5458 -1.5318
  500SOL     OW 1498   1.507   1.218   0.503 -0.0518 -0.2000  0.0474
  500SOL    HW1 1499   1.514   1.319   0.505  0.1151 -0.3804  0.1715
  500SOL    HW2 1500   1.554   1.174   0.579 -0.7992  0.9859 -1.3749
  501SOL     OW 1501   1.635   0.092   1.581  0.3401  0.2187 -0.1288
  501SOL    HW1 1502   1.586   0.092   1.670 -0.3128 -0.0537 -0.4742
  501SOL    HW2 1503   1.737   0.090   1.599  1.4976  0.4147  0.7539
  502SOL     OW 1504   2.593   0.665   1.633  0.1431 -0.3649  0.7410
  502SOL    HW1 1505   2.670   0.610   1.662 -0.6133  0.1391  0.3368
  502SOL    HW2 1506   2.552   0.736   1.702  1.2356  3.9527  4.0825
  503SOL     OW 1507   2.347   1.525   2.189  0.0589  0.1597 -0.3108
  503SOL    HW1 1508   2.309   1.618   2.181  1.6265  0.0825  0.7853
  503SOL    HW2 1509   2.434   1.526   2.135  1.2790 -0.5043 -0.8797
  504SOL     OW 1510   1.321   1.394   1.719  0.5907  0.4045  0.0511
  504SOL    HW1 1511   1.241   1.385   1.652 -0.4291 -0.3224 -0.2533
  504SOL    HW2 1512   1.341   1.494   1.734 -2.5535  1.4636  3.7669
  505SOL     OW 1513   0.493   0.368   1.568  0.3182 -0.2805  0.0590
  505SOL    HW1 1514   0.481   0.457   1.520 -0.0288 -3.6922 -1.1162
  505SOL    HW2 1515   0.461   0.394   1.660 -2.4163  1.6203 -1.8588
  506SOL     OW 1516   0.321   0.343   0.042 -0.2392  0.5897 -0.3268
  506SOL    HW1 1517   0.228   0.303   0.057  1.0228  1.0959 -0.0547
  506SOL    HW2 1518   0.343   0.366   3.053  2.7546  1.6140 -0.7901
  507SOL     OW 1519   0.658   2.982   0.321 -0.2849  0.6198 -0.3977
  507SOL    HW1 1520   0.600   2.927   0.257  2.1980 -0.0303 -1.1148
  507SOL    HW2 1521   0.615   3.066   0.358  2.3116  1.8809 -0.3258
  508SOL     OW 1522   0.943   0.614   1.881 -0.2341  0.1765 -0.2246
  508SOL    HW1 1523   0.849   0.581   1.874  3.5786 -1.1482  1.8374
  508SOL    HW2 1524   0.948   0.687   1.956 -0.1709  3.0853 -0.4172
  509SOL     OW 1525   1.423   2.209   0.998  0.3441 -0.3324  0.1237
  509SOL    HW1 1526   1.425   2.154   1.084  1.5239 -0.2884 -1.1364
  509SOL    HW2 1527   1.484   2.288   1.010 -2.7024 -0.9389  0.1895
  510SOL     OW 1528   2.800   1.233   1.450  0.3781 -0.2757  0.3414
  510SOL    HW1 1529   2.707   1.204   1.485 -3.3887 -1.9856 -2.9105
  510SOL    HW2 1530   2.802   1.245   1.347 -0.9515  2.0838 -0.4012
  511SOL     OW 1531   1.168   2.001   1.255 -0.0002 -0.2372  0.0036
  511SOL    HW1 1532   1.252   2.044   1.295 -1.7529 -0.1124  2.9616
  511SOL    HW2 1533   1.168   1.989   1.152 -1.4114 -1.4042  0.3110
  512SOL     OW 1534   2.913   1.461   0.505 -0.3267  0.1049 -0.0905
  512SOL    HW1 1535   2.819   1.444   0.471 -0.8896 -0.7161 -0.0224
  512SOL    HW2 1536   2.962   1.536   0.454 -0.5319 -0.3352  1.1150
  513SOL     OW 1537   3.108   1.555   2.791  0.3804 -0.3742  0.0720
  513SOL    HW1 1538   0.071   1.490   2.757  0.5028 -1.7335  0.7773
  513SOL    HW2 1539   0.039   1.614   2.862 -0.6974  1.7313  0.7834
  514SOL     OW 1540   2.330   2.226   2.537 -0.3538 -0.3916 -0.4510
  514SOL    HW1 1541   2.237   2.196   2.552  3.3437 -1.1645 -1.9367
  514SOL    HW2 1542   2.370   2.167   2.468  0.0064  2.2370 -0.9981
  515SOL     OW 1543   2.349   0.937   0.628 -0.6767 -0.2326  0.3246
  515SOL    HW1 1544   2.278   0.889   0.682  1.5553  0.4451 -1.9753
  515SOL    HW2 1545   2.433   0.879   0.621  0.3880  0.0198  0.9839
  516SOL     OW 1546   2.753   2.215   0.136 -0.3356 -0.5871 -0.1426
  516SOL    HW1 1547   2.653   2.215   0.152  2.3669  2.0598  0.2891
  516SOL    HW2 1548   2.785   2.158   0.058 -3.1871  2.7841 -1.3445
  517SOL     OW 1549   0.434   1.559   3.017  0.2488 -0.3229 -0.4099
  517SOL    HW1 1550   0.532   1.575   3.042 -3.3370 -0.9414  0.5615
  517SOL    HW2 1551   0.373   1.607   3.082  1.4115 -2.1795 -2.9264
  518SOL     OW 1552   2.848   0.268   2.385 -0.0291 -0.1433  0.0559
  518SOL    HW1 1553   2.855   0.368   2.368  0.0116  0.3580  0.3359
  518SOL    HW2 1554   2.772   0.247   2.448  1.7782  0.5075  0.1779
  519SOL     OW 1555   1.663   1.158   0.011 -0.2176 -0.3030 -0.0494
  519SOL    HW1 1556   1.619   1.122   0.097  0.4654 -0.7957  1.5303
  519SOL    HW2 1557   1.590   1.211   3.073 -0.3550  0.1116  2.8531
  520SOL     OW 1558   2.865   2.895   2.280 -0.1643  0.3794 -0.1343
  520SOL    HW1 1559   2.774   2.935   2.296  1.2567 -1.1833  0.7916
  520SOL    HW2 1560   2.903   2.845   2.361  1.0234  0.2562 -0.8327
  521SOL     OW 1561   0.483   1.969   2.195 -0.2231 -0.1947 -0.1687
  521SOL    HW1 1562   0.556   1.981   2.127 -0.9368  0.3940 -0.0419
  521SOL    HW2 1563   0.482   2.055   2.252  0.3596 -0.5247 -0.0245
  522SOL     OW 1564   1.266   2.973   1.761  0.4583  0.2439  0.0430
  522SOL    HW1 1565   1.220   3.045   1.811  0.0494 -1.2112 -0.1244
  522SOL    HW2 1566   1.348   2.943   1.809 -0.6081  0.4580 -1.0184
  523SOL     OW 1567   2.212   2.024   0.889 -0.3119 -1.1108  0.1074
  523SOL    HW1 1568   2.304   2.003   0.853  1.0277 -1.6428 -0.6500
  523SOL    HW2 1569   2.223   2.091   0.964  1.1821  0.0867  0.3321
  524SOL     OW 1570   1.087   2.073   0.740 -0.0001  0.8193  0.0438
  524SOL    HW1 1571   1.178   2.105   0.764 -1.4552  0.5222 -2.1942
  524SOL    HW2 1572   1.029   2.151   0.699 -1.8868 -1.1357  2.4402
  525SOL     OW 1573   2.620   0.531   0.629  0.1617  0.1548  0.4523
  525SOL    HW1 1574   2.604   0.513   0.727 -0.9965 -3.1325  0.1994
  525SOL    HW2 1575   2.717   0.508   0.600  0.6785 -0.3468  3.1696
  526SOL     OW 1576   1.569   2.857   0.533 -0.2185 -0.4518  0.3764
  526SOL    HW1 1577   1.630   2.798   0.478  1.4238  2.6298  0.0569
  526SOL    HW2 1578   1.617   2.922   0.594 -0.0958  2.8035  1.1587
  527SOL     OW 1579   1.888   1.639   0.989 -0.2893 -0.1719  0.2852
  527SOL    HW1 1580   1.910   1.742   0.996 -0.4712 -1.6810  2.3497
  527SOL    HW2 1581   1.974   1.589   0.980 -1.9936  3.3804 -0.0095
  528SOL     OW 1582   2.893   2.785   2.521 -0.0733  0.2481 -0.6590
  528SOL    HW1 1583   2.909   2.689   2.487  0.3840 -1.9746 -1.6240
  528SOL    HW2 1584   2.812   2.785   2.582  1.2651 -2.5675 -1.6641
  529SOL     OW 1585   1.019   1.379   2.489  0.1524  0.0204  0.2771
  529SOL    HW1 1586   1.064   1.405   2.578 -0.8202  2.4873  1.4246
  529SOL    HW2 1587   0.922   1.412   2.481  2.1121  2.5871 -0.4180
  530SOL     OW 1588   1.933   0.955   2.337  0.0480 -0.6405  0.2012
  530SOL    HW1 1589   1.833   0.976   2.357 -1.0385  2.3923  1.1953
  530SOL    HW2 1590   1.973   0.904   2.418  0.6748 -0.5162 -1.5160
  531SOL     OW 1591   0.348   0.897   3.018  0.0251  0.5409 -0.3229
  531SOL    HW1 1592   0.386   0.840   3.096  0.2337  0.2303  1.3411
  531SOL    HW2 1593   0.251   0.925   3.041 -0.6380 -1.9723  1.9420
  532SOL     OW 1594   1.666   1.153   0.742 -0.4057  0.0173  0.0647
  532SOL    HW1 1595   1.637   1.062   0.766  3.0896  2.1033  0.2519
  532SOL    HW2 1596   1.646   1.220   0.818 -2.6424 -0.4425  0.6372
  533SOL     OW 1597   0.351   0.468   2.340 -0.6087  0.0610 -0.1684
  533SOL    HW1 1598   0.352   0.373   2.299  2.2242 -2.3182 -1.8604
  533SOL    HW2 1599   0.401   0.472   2.431 -1.3281  0.5307  0.0026
  534SOL     OW 1600   1.026   0.520   2.524  0.6300 -0.2569 -0.6496
  534SOL    HW1 1601   0.960   0.473   2.585 -1.9549 -0.0018  0.5310
  534SOL    HW2 1602   0.992   0.614   2.504  0.7443  2.6889 -1.4767
  535SOL     OW 1603   0.683   0.566   3.002  0.2164 -0.8239 -0.0755
  535SOL    HW1 1604   0.693   0.560   3.105  0.9472  0.1508  0.7585
  535SOL    HW2 1605   0.590   0.601   2.978 -0.7130 -2.9477 -0.8885
  536SOL     OW 1606   0.683   0.840   2.747  0.3843 -0.0052  0.3454
  536SOL    HW1 1607   0.661   0.940   2.718  0.8134  3.4796 -0.4138
  536SOL    HW2 1608   0.736   0.828   2.835 -0.5916  2.1406 -0.4351
  537SOL     OW 1609   1.423   3.017   1.538 -0.1871  0.4360 -0.0522
  537SOL    HW1 1610   1.373   3.004   1.626 -0.8209  0.4275  0.7805
  537SOL    HW2 1611   1.475   3.105   1.549  0.1579  1.3065  0.2763
  538SOL     OW 1612   0.495   2.629   3.061 -0.5489  0.2650  0.7484
  538SOL    HW1 1613   0.438   2.601   2.980 -0.8275 -2.6928  0.0514
  538SOL    HW2 1614   0.456   2.712   3.099  1.6154 -0.7047 -2.5073
  539SOL     OW 1615   2.876   1.429   1.899  0.5693  0.3034 -0.2268
  539SOL    HW1 1616   2.846   1.411   1.997  0.3057 -1.1736  1.5149
  539SOL    HW2 1617   2.973   1.460   1.901  1.6779  0.7327 -0.7368
  540SOL     OW 1618   1.880   1.697   1.423 -0.4802 -0.0260  0.0728
  540SOL    HW1 1619   1.812   1.628   1.401  1.1291 -1.5221 -0.9116
  540SOL    HW2 1620   1.960   1.644   1.458  1.1686  1.9879  0.6874
  541SOL     OW 1621   0.495   2.013   1.470 -0.8903  0.3549  0.4306
  541SOL    HW1 1622   0.416   1.989   1.527  1.4410  0.4881 -0.1815
  541SOL    HW2 1623   0.572   1.949   1.483 -2.1811 -2.0231 -0.5369
  542SOL     OW 1624   1.787   1.267   1.891  0.0138 -0.1679 -0.0051
  542SOL    HW1 1625   1.714   1.310   1.829  0.5484 -0.3580  0.4946
  542SOL    HW2 1626   1.791   1.168   1.901  0.9956  2.8234 -0.8742
  543SOL     OW 1627   1.119   0.533   0.712 -0.1811  0.8178  0.2128
  543SOL    HW1 1628   1.057   0.571   0.640 -3.2891 -0.2101  2.0955
  543SOL    HW2 1629   1.073   0.520   0.800 -1.3738  1.5604 -1.0620
  544SOL     OW 1630   1.854   1.775   1.769 -0.6374  0.4960  0.0658
  544SOL    HW1 1631   1.896   1.851   1.821 -1.7990 -1.6656 -2.6178
  544SOL    HW2 1632   1.927   1.705   1.755  0.7977  0.0492  0.5828
  545SOL     OW 1633   1.525   1.679   1.208  0.4899 -0.7506  0.2346
  545SOL    HW1 1634   1.557   1.775   1.195  0.9331 -1.5075  0.0992
  545SOL    HW2 1635   1.590   1.615   1.163  1.9278  1.0107 -3.6945
  546SOL     OW 1636   0.337   0.023   2.914  0.1111 -0.3036  0.0217
  546SOL    HW1 1637   0.325   0.007   2.812  2.3336 -0.2029  0.5726
  546SOL    HW2 1638   0.423   0.069   2.933  2.2559  1.3655  0.6431
  547SOL     OW 1639   2.210   0.789   2.967 -0.0222  0.0321 -0.5761
  547SOL    HW1 1640   2.114   0.791   3.009 -1.8834 -1.0143 -2.9442
  547SOL    HW2 1641   2.268   0.720   3.014  1.9503 -0.8987  0.0910
  548SOL     OW 1642   2.213   2.018   2.105 -0.2331  0.2773 -0.6345
  548SOL    HW1 1643   2.206   1.920   2.122  0.6998  0.2305  0.2937
  548SOL    HW2 1644   2.124   2.066   2.120 -1.3432 -0.0922 -1.1526
  549SOL     OW 1645   2.394   2.808   0.911 -0.6145  0.2671  0.4090
  549SOL    HW1 1646   2.370   2.728   0.963  3.4928  1.0405 -0.6167
  549SOL    HW2 1647   2.357   2.805   0.816  0.8542 -0.8391  0.5664
  550SOL     OW 1648   2.209   1.508   3.073 -0.4547 -0.4018  0.1540
  550SOL    HW1 1649   2.163   1.445   0.027 -0.5885 -1.0906  0.8735
  550SOL    HW2 1650   2.218   1.593   0.016  0.7014 -0.7593  0.0547
  551SOL     OW 1651   1.540   0.111   1.845  0.0598 -0.0570  0.4925
  551SOL    HW1 1652   1.605   0.160   1.906  0.2673  0.6205  0.4770
  551SOL    HW2 1653   1.540   0.011   1.863  1.0789 -0.6098  1.6275
  552SOL     OW 1654   2.881   2.516   2.845 -0.4510 -0.4790 -0.1194
  552SOL    HW1 1655   2.956   2.478   2.790  0.1636 -0.5377  1.2309
  552SOL    HW2 1656   2.903   2.615   2.846  1.6177 -1.7914 -2.0273
  553SOL     OW 1657   0.545   0.109   0.854 -0.3071  0.3433  0.4412
  553SOL    HW1 1658   0.580   0.114   0.949  1.1906  0.3875 -1.9844
  553SOL    HW2 1659   0.592   0.179   0.801  2.0355 -2.6130  1.1737
  554SOL     OW 1660   1.982   2.229   1.589 -0.3178  0.0513 -0.5954
  554SOL    HW1 1661   1.889   2.200   1.610  0.5106  0.2884 -1.3364
  554SOL    HW2 1662   2.021   2.286   1.665  1.7846  2.7010 -1.8906
  555SOL     OW 1663   1.488   1.946   1.495  0.1309  0.1507  0.1069
  555SOL    HW1 1664   1.578   1.928   1.529 -1.7230 -1.8006 -0.3033
  555SOL    HW2 1665   1.426   1.996   1.560 -0.5936 -2.6846 -4.0145
  556SOL     OW 1666   1.846   1.479   0.498  0.7971 -0.3510 -0.4786
  556SOL    HW1 1667   1.886   1.396   0.544  1.4901 -2.4608  2.1512
  556SOL    HW2 1668   1.763   1.458   0.449  0.0653 -0.5804 -1.0943
  557SOL     OW 1669   1.433   2.264   2.071 -0.3102 -0.9722  0.2861
  557SOL    HW1 1670   1.494   2.251   1.992  1.2863 -1.1623 -1.2750
  557SOL    HW2 1671   1.421   2.182   2.129  1.5347  0.4680  1.9961
  558SOL     OW 1672   2.926   0.541   1.971 -0.1550  0.4649  0.4538
  558SOL    HW1 1673   2.987   0.608   1.924 -2.8991 -1.0797 -0.7928
  558SOL    HW2 1674   2.855   0.514   1.901  0.0362  1.4614 -1.1686
  559SOL     OW 1675   2.414   2.749   1.806 -0.1035  0.1015 -0.3328
  559SOL    HW1 1676   2.474   2.743   1.726 -0.3885 -3.9921  0.4339
  559SOL    HW2 1677   2.441   2.812   1.882  0.3931 -0.4987  0.7739
  560SOL     OW 1678   0.649   0.057   0.018 -0.1481 -0.1324 -0.5202
  560SOL    HW1 1679   0.662   3.078   3.074  3.7086 -0.4552 -1.5328
  560SOL    HW2 1680   0.571   0.042   0.080  0.2725  0.3598  1.2501
  561SOL     OW 1681   1.334   0.971   0.476 -0.4672 -0.6629  0.0379
  561SOL    HW1 1682   1.238   0.997   0.505  0.7126  0.6758  1.1267
  561SOL    HW2 1683   1.390   1.058   0.474  2.1679  2.0841 -1.1200
  562SOL     OW 1684   0.827   0.918   2.508  0.6832 -0.5764  0.4061
  562SOL    HW1 1685   0.765   0.989   2.549 -1.1128  1.4290  0.4897
  562SOL    HW2 1686   0.909   0.894   2.564  0.4530  0.4733 -0.3221
  563SOL     OW 1687   1.816   2.477   2.783  0.0454  0.0038 -0.2458
  563SOL    HW1 1688   1.722   2.450   2.744 -1.5478  0.5542 -1.3602
  563SOL    HW2 1689   1.832   2.578   2.762 -1.4808  0.9215 -2.2437
  564SOL     OW 1690   3.051   1.670   0.337 -0.5867  0.7268  0.1753
  564SOL    HW1 1691   0.046   1.660   0.339  0.8086 -1.1273 -1.6130
  564SOL    HW2 1692   3.005   1.605   0.271 -1.2246 -4.2829  0.9151
  565SOL     OW 1693   1.602   3.061   2.808 -0.4484  0.2365  0.1381
  565SOL    HW1 1694   1.553   3.053   2.720  0.6696 -0.0723  2.0571
  565SOL    HW2 1695   1.552   0.009   2.879 -0.3253  0.4518  0.0271
  566SOL     OW 1696   1.943   2.915   2.412  0.1407 -0.5071 -0.0495
  566SOL    HW1 1697   2.012   2.857   2.461 -0.5509  1.1170  1.0422
  566SOL    HW2 1698   1.932   3.009   2.452  0.1491 -0.5552 -1.5466
  567SOL     OW 1699   2.409   1.250   0.888  0.0594 -0.1682  0.0871
  567SOL    HW1 1700   2.365   1.179   0.951 -4.1378 -0.5280  0.0360
  567SOL    HW2 1701   2.427   1.334   0.942  0.3146 -2.0244 -3.0808
  568SOL     OW 1702   1.910   1.302   2.844  0.4970 -0.3690 -0.3189
  568SOL    HW1 1703   1.973   1.366   2.799 -1.4153 -0.6816 -0.6180
  568SOL    HW2 1704   1.960   1.239   2.905 -1.2949  2.6894  0.4567
  569SOL     OW 1705   2.331   1.890   2.470  0.5058 -0.1994 -0.1153
  569SOL    HW1 1706   2.404   1.898   2.400 -0.9029 -4.0614  1.2802
  569SOL    HW2 1707   2.325   1.794   2.505 -1.3785 -1.8022 -1.4968
  570SOL     OW 1708   3.020   2.459   2.073  0.1044 -0.1551 -0.1177
  570SOL    HW1 1709   3.003   2.361   2.056  1.2015  0.1401  4.7628
  570SOL    HW2 1710   3.025   2.521   1.994 -1.5513  0.7249  1.0073
  571SOL     OW 1711   0.355   0.195   2.265 -0.1801 -0.8301  0.3770
  571SOL    HW1 1712   0.383   0.120   2.323  1.0710  2.2085 -1.1527
  571SOL    HW2 1713   0.337   0.166   2.168  0.5159  0.4005 -4.4874
  572SOL     OW 1714   0.926   1.734   0.894 -0.0535 -0.1385 -0.0179
  572SOL    HW1 1715   0.880   1.673   0.959 -1.4392  0.6203 -0.5036
  572SOL    HW2 1716   0.967   1.678   0.821  0.7582 -1.0820  1.7317
  573SOL     OW 1717   1.065   0.267   0.135  0.1433 -0.2007 -0.8871
  573SOL    HW1 1718   1.034   0.365   0.154  0.6038  0.3621 -0.9382
  573SOL    HW2 1719   1.141   0.230   0.187  1.8933  1.7062 -2.0759
  574SOL     OW 1720   0.476   3.056   0.652 -0.3174 -0.1908 -0.1917
  574SOL    HW1 1721   0.503   0.011   0.575 -1.6864  2.6431 -0.8070
  574SOL    HW2 1722   0.496   3.096   0.743  0.0664  0.5557 -0.2575
  575SOL     OW 1723   0.057   1.457   1.614  0.7530  0.3789 -0.3257
  575SOL    HW1 1724   0.017   1.455   1.708  0.8763  1.0677 -0.0602
  575SOL    HW2 1725   0.048   1.549   1.573  1.4442  0.0250  1.9334
  576SOL     OW 1726   2.125   0.498   1.795 -0.1922  0.0594  0.6016
  576SOL    HW1 1727   2.181   0.503   1.704  1.5497  0.0653 -1.4813
  576SOL    HW2 1728   2.176   0.544   1.868 -2.2466  1.2482 -0.0598
  577SOL     OW 1729   2.859   1.364   2.174  0.0964  0.3872  0.1628
  577SOL    HW1 1730   2.789   1.286   2.175 -1.5120  0.9286 -0.5315
  577SOL    HW2 1731   2.840   1.426   2.252 -1.2856  1.5569  1.1898
  578SOL     OW 1732   1.453   2.820   2.151 -0.0501 -0.2496 -0.1066
  578SOL    HW1 1733   1.413   2.731   2.122  0.3356  0.3628 -2.1973
  578SOL    HW2 1734   1.475   2.815   2.250  1.0680 -0.5472  3.3592
  579SOL     OW 1735   1.892   1.897   2.124 -0.2109  0.1140  0.1488
  579SOL    HW1 1736   1.938   1.936   2.045  2.1367  0.4331  3.9224
  579SOL    HW2 1737   1.938   1.918   2.212 -1.0054 -0.1517  0.0416
  580SOL     OW 1738   1.908   1.295   2.137  0.1080  0.3613 -0.2372
  580SOL    HW1 1739   1.837   1.305   2.061 -2.1117  2.7862  1.6153
  580SOL    HW2 1740   1.946   1.206   2.155  0.0415  0.3504 -1.1942
  581SOL     OW 1741   1.457   1.333   2.359 -0.3475  0.0750 -0.3517
  581SOL    HW1 1742   1.486   1.269   2.288  0.2829  1.9116  2.8337
  581SOL    HW2 1743   1.522   1.347   2.435 -0.6825  1.4095  0.0898
  582SOL     OW 1744   0.200   2.124   2.000  0.0372  0.0951 -0.0617
  582SOL    HW1 1745   0.245   2.040   1.954  0.7312 -3.7749 -2.2821
  582SOL    HW2 1746   0.120   2.101   2.057  0.5263 -0.8785  0.4877
  583SOL     OW 1747   1.515   0.937   0.825 -0.0316  0.0237 -0.2150
  583SOL    HW1 1748   1.427   0.973   0.791  3.3676  1.4671  1.9351
  583SOL    HW2 1749   1.519   0.938   0.930  1.0160  0.9184  4.6349
  584SOL     OW 1750   0.959   2.641   0.474  0.4608  0.2237 -0.2873
  584SOL    HW1 1751   1.023   2.703   0.425 -1.8522 -0.8789  2.8349
  584SOL    HW2 1752   0.937   2.678   0.566 -0.2334 -2.4543 -1.4755
  585SOL     OW 1753   0.051   2.780   0.016  0.2181  0.5145 -0.7165
  585SOL    HW1 1754   0.112   2.817   0.091 -1.0622  0.0351  0.2114
  585SOL    HW2 1755   0.097   2.744   3.048 -0.8581 -0.2253  0.5678
  586SOL     OW 1756   2.355   1.209   0.639  0.0183 -0.1231 -0.7537
  586SOL    HW1 1757   2.339   1.105   0.630 -4.1908  0.8142 -1.4216
  586SOL    HW2 1758   2.383   1.230   0.736 -1.6777 -2.2157 -0.0752
  587SOL     OW 1759   0.695   1.576   0.001 -0.3614  0.2224  0.5316
  587SOL    HW1 1760   0.765   1.525   3.055  1.8282  1.8033 -3.7922
  587SOL    HW2 1761   0.736   1.643   0.063 -1.7991 -0.4649  0.7786
  588SOL     OW 1762   0.136   0.171   0.696 -0.0050 -0.3403  0.0571
  588SOL    HW1 1763   0.071   0.196   0.623  0.7653  0.8561  0.5251
  588SOL    HW2 1764   0.208   0.240   0.711 -1.9546 -0.9243 -1.7195
  589SOL     OW 1765   1.342   0.034   0.872  0.6858  0.5320  0.1455
  589SOL    HW1 1766   1.397   0.121   0.857  0.6346 -0.1239 -0.0973
  589SOL    HW2 1767   1.336   0.014   0.971 -1.0193  2.4032  0.1502
  590SOL     OW 1768   2.391   2.286   0.365  0.1556  0.0403 -0.5288
  590SOL    HW1 1769   2.465   2.249   0.420 -2.1491  1.6242 -3.3848
  590SOL    HW2 1770   2.431   2.353   0.301  0.6796 -0.1346  1.1260
  591SOL     OW 1771   0.286   2.589   1.991  0.4307 -0.0802  0.3825
  591SOL    HW1 1772   0.307   2.622   2.086  1.0300 -1.9135  0.3099
  591SOL    HW2 1773   0.372   2.574   1.935 -0.4679  2.2223 -1.8319
  592SOL     OW 1774   0.119   1.960   2.291 -0.2084 -0.0681 -0.0721
  592SOL    HW1 1775   0.158   1.906   2.216  0.4182  2.7331 -0.9942
  592SOL    HW2 1776   0.194   1.998   2.352 -2.3018  3.4113  2.8847
  593SOL     OW 1777   1.420   1.350   1.417 -0.2237  0.2332 -0.5889
  593SOL    HW1 1778   1.343   1.402   1.458 -2.5306 -2.5108  0.0843
  593SOL    HW2 1779   1.395   1.316   1.326  2.4425 -0.1999 -0.3109
  594SOL     OW 1780   0.448   1.365   2.830 -0.1467  0.2521 -0.1421
  594SOL    HW1 1781   0.473   1.286   2.887 -1.0131  1.8359  1.6092
  594SOL    HW2 1782   0.452   1.440   2.896  1.7020  0.2186  1.1619
  595SOL     OW 1783   1.294   0.732   1.035  0.0476 -0.0001 -0.2713
  595SOL    HW1 1784   1.377   0.763   1.088 -0.1592  1.0963  3.3593
  595SOL    HW2 1785   1.256   0.813   0.988  1.7933 -2.5922  3.6712
  596SOL     OW 1786   0.472   1.096   1.179 -0.9636  0.2501 -0.1388
  596SOL    HW1 1787   0.574   1.098   1.180 -1.6511  1.0032  1.4485
  596SOL    HW2 1788   0.440   1.143   1.091  0.5165  0.8055  1.0417
  597SOL     OW 1789   0.697   2.289   2.148 -0.2510  0.1428 -0.2186
  597SOL    HW1 1790   0.717   2.359   2.217  0.9770 -1.4583 -0.0074
  597SOL    HW2 1791   0.687   2.321   2.052  0.7093 -3.4939  3.4920
  598SOL     OW 1792   2.159   2.401   2.346  0.7295 -0.8040  0.1926
  598SOL    HW1 1793   2.079   2.424   2.405  0.8299  1.4640 -0.2715
  598SOL    HW2 1794   2.232   2.357   2.401 -0.2158  0.2532 -0.5559
  599SOL     OW 1795   0.876   1.245   0.477 -0.2858  0.2292  0.2162
  599SOL    HW1 1796   0.870   1.278   0.571 -1.7511 -1.0894  0.6567
  599SOL    HW2 1797   0.856   1.320   0.409 -0.9376 -0.9491 -0.5146
  600SOL     OW 1798   1.672   0.472   0.204 -0.1439 -0.7341  0.3484
  600SOL    HW1 1799   1.583   0.419   0.191  0.4891 -1.7890 -0.8267
  600SOL    HW2 1800   1.729   0.471   0.115  1.9751 -2.5969 -0.2904
  601SOL     OW 1801   0.578   0.107   1.574  0.0961  0.1683 -0.1182
  601SOL    HW1 1802   0.595   0.067   1.668 -3.5956 -0.4247  1.0582
  601SOL    HW2 1803   0.513   0.183   1.570  3.3876  0.4425  0.0791
  602SOL     OW 1804   0.362   2.252   0.821  0.0131 -0.0023 -0.2500
  602SOL    HW1 1805   0.431   2.188   0.857 -1.1169  0.8891 -0.2675
  602SOL    HW2 1806   0.384   2.264   0.722  1.4349  0.4932  1.3909
  603SOL     OW 1807   1.009   2.821   2.857 -0.4259 -0.1678 -0.0807
  603SOL    HW1 1808   1.069   2.744   2.825  0.6984 -0.2638  0.3826
  603SOL    HW2 1809   1.033   2.918   2.830  1.1233 -0.4974 -1.3137
  604SOL     OW 1810   0.596   2.333   0.294  1.1600  0.4779 -0.2718
  604SOL    HW1 1811   0.521   2.337   0.225 -0.7357  0.3949 -3.4924
  604SOL    HW2 1812   0.634   2.427   0.302  2.6781 -0.0836 -1.3231
  605SOL     OW 1813   1.661   1.484   1.491 -0.6482  0.9217  0.0587
  605SOL    HW1 1814   1.730   1.414   1.519  0.4332 -2.5377  1.0795
  605SOL    HW2 1815   1.583   1.439   1.442  0.7115  1.3740  2.2974
  606SOL     OW 1816   0.769   1.255   2.859  0.2296  0.0689 -0.1696
  606SOL    HW1 1817   0.719   1.223   2.942 -0.6080 -0.3698 -0.8191
  606SOL    HW2 1818   0.754   1.352   2.836 -1.6684 -0.3572  0.4734
  607SOL     OW 1819   1.075   0.883   1.393  0.8385  0.1300 -0.2160
  607SOL    HW1 1820   0.977   0.870   1.376 -0.0682 -0.2798 -0.8360
  607SOL    HW2 1821   1.119   0.811   1.448 -1.5294  0.0697 -0.0676
  608SOL     OW 1822   2.946   2.214   1.984  0.4759  0.1462  0.0835
  608SOL    HW1 1823   2.962   2.132   2.044 -2.4662 -0.7827  0.2425
  608SOL    HW2 1824   2.863   2.258   2.020  0.7664 -3.3053  0.5094
  609SOL     OW 1825   2.187   0.183   0.176  0.4608 -0.3796  0.6625
  609SOL    HW1 1826   2.285   0.181   0.199 -1.2763 -1.4599 -1.4803
  609SOL    HW2 1827   2.140   0.092   0.163 -1.8991  1.1787 -0.2409
  610SOL     OW 1828   3.055   2.689   1.576  0.3017 -0.0510  0.0351
  610SOL    HW1 1829   0.013   2.758   1.547 -2.8914 -2.1372  1.7689
  610SOL    HW2 1830   3.063   2.601   1.518 -0.5332 -0.4563  0.1261
  611SOL     OW 1831   1.477   1.718   0.770  0.9987  0.2383  0.2398
  611SOL    HW1 1832   1.439   1.711   0.868 -0.0181 -1.5389  2.5725
  611SOL    HW2 1833   1.567   1.681   0.768 -0.9304  1.7336  2.3503
  612SOL     OW 1834   0.631   0.333   2.068  0.4788 -0.2739 -0.0185
  612SOL    HW1 1835   0.672   0.398   2.000 -1.2620  1.6635 -1.0942
  612SOL    HW2 1836   0.533   0.313   2.039  0.4620 -2.0373 -0.7241
  613SOL     OW 1837   2.495   1.185   0.363 -0.4461 -0.5267  0.8971
  613SOL    HW1 1838   2.411   1.195   0.418  1.0655  0.7792 -2.0961
  613SOL    HW2 1839   2.571   1.241   0.405 -1.1477  0.0714  2.0846
  614SOL     OW 1840   1.913   0.314   1.766  0.3261  0.0330  0.0622
  614SOL    HW1 1841   1.991   0.382   1.774 -0.4358  1.5938  0.1481
  614SOL    HW2 1842   1.948   0.227   1.741 -0.0657  2.1207  3.3105
  615SOL     OW 1843   0.758   1.536   1.391 -0.9300 -0.0964  0.6826
  615SOL    HW1 1844   0.851   1.542   1.431  1.0359 -0.2198 -0.4300
  615SOL    HW2 1845   0.753   1.600   1.310  1.1072  0.6750 -0.3997
  616SOL     OW 1846   1.503   1.879   2.936 -0.1989  0.5220  0.5918
  616SOL    HW1 1847   1.489   1.838   3.027  2.0540 -1.1371  1.8971
  616SOL    HW2 1848   1.599   1.885   2.913 -1.6086  2.1228 -3.3464
  617SOL     OW 1849   2.124   3.004   0.151  0.1949  0.2416 -0.3216
  617SOL    HW1 1850   2.022   2.998   0.159 -2.5830 -0.1928 -1.9570
  617SOL    HW2 1851   2.158   2.981   0.247 -1.1554  0.3005  1.3938
  618SOL     OW 1852   0.683   0.624   2.589  0.6447  0.0893 -0.1648
  618SOL    HW1 1853   0.701   0.634   2.488 -1.7199  0.6057  1.9774
  618SOL    HW2 1854   0.716   0.710   2.647 -1.8864  2.3416  1.2909
  619SOL     OW 1855   2.673   1.501   0.845  0.6087  0.4272 -0.8874
  619SOL    HW1 1856   2.688   1.403   0.813 -1.3374 -0.9649 -0.5612
  619SOL    HW2 1857   2.759   1.553   0.862  1.0354  3.4116  1.3408
  620SOL     OW 1858   2.328   3.021   2.869  0.1151  0.1983 -0.4262
  620SOL    HW1 1859   2.300   3.016   2.970 -0.8148  0.7424  4.4504
  620SOL    HW2 1860   2.325   2.928   2.826 -0.6687 -1.3744 -0.3620
  621SOL     OW 1861   2.298   1.497   2.802  0.0581  0.3202 -0.4696
  621SOL    HW1 1862   2.256   1.518   2.892  0.3119 -1.9551 -1.8378
  621SOL    HW2 1863   2.370   1.429   2.805 -0.4301 -0.2828  1.8228
  622SOL     OW 1864   1.841   2.709   2.104  0.0927 -0.0513  0.4572
  622SOL    HW1 1865   1.802   2.775   2.041  1.1384  0.1514 -2.4996
  622SOL    HW2 1866   1.909   2.756   2.168 -1.4856 -2.0426  0.3602
  623SOL     OW 1867   1.081   1.878   0.534  0.3518  0.0953 -0.1962
  623SOL    HW1 1868   1.099   1.951   0.598  0.6736  1.5082  0.9419
  623SOL    HW2 1869   1.053   1.911   0.441  1.5476 -0.6333  2.2236
  624SOL     OW 1870   0.412   0.097   0.151  0.3477  0.0646  0.2203
  624SOL    HW1 1871   0.354   0.048   0.217  2.4666  0.5893  0.1944
  624SOL    HW2 1872   0.384   0.191   0.137 -1.4049 -1.6317  0.2203
  625SOL     OW 1873   0.614   1.777   0.395 -0.3535 -0.1867  0.1866
  625SOL    HW1 1874   0.627   1.866   0.442 -2.8980  0.2055 -1.2979
  625SOL    HW2 1875   0.521   1.783   0.352  0.9419  3.6801 -0.6422
  626SOL     OW 1876   3.003   2.971   3.070 -0.2579 -0.3129  0.2383
  626SOL    HW1 1877   3.059   2.890   3.099  1.8226 -1.1579  0.4636
  626SOL    HW2 1878   3.067   3.049   3.055  0.2662 -0.8138  1.2917
  627SOL     OW 1879   0.968   1.888   2.581 -0.0860  0.0651 -0.2368
  627SOL    HW1 1880   0.906   1.820   2.537  0.4088  0.3512  2.2751
  627SOL    HW2 1881   1.057   1.904   2.536 -2.2271 -0.6872 -0.0539
  628SOL     OW 1882   0.299   3.087   2.645 -0.3650 -0.2827 -0.3730
  628SOL    HW1 1883   0.389   0.004   2.611 -1.9649 -0.9811 -0.6570
  628SOL    HW2 1884   0.228   0.010   2.582  1.1930 -0.1321 -2.1367
  629SOL     OW 1885   0.657   2.990   2.221  0.1067  0.6509 -0.3166
  629SOL    HW1 1886   0.702   3.084   2.222 -2.5068 -0.5966 -0.3068
  629SOL    HW2 1887   0.585   2.985   2.153 -1.9293 -0.2696  0.6024
  630SOL     OW 1888   1.482   1.033   1.876  0.0260  0.1099  0.6155
  630SOL    HW1 1889   1.505   0.936   1.860 -0.3845 -0.3333  4.3115
  630SOL    HW2 1890   1.385   1.037   1.900  1.7475 -0.5503 -0.2063
  631SOL     OW 1891   2.160   0.996   0.364 -0.3488 -0.1392 -0.5519
  631SOL    HW1 1892   2.226   0.966   0.296 -1.6940 -0.4851 -0.7616
  631SOL    HW2 1893   2.194   0.982   0.457 -0.3546  0.1185 -3.7857
  632SOL     OW 1894   2.262   0.739   1.941  0.2062 -0.3665 -0.3441
  632SOL    HW1 1895   2.265   0.829   1.992  1.1717 -0.5758 -0.0315
  632SOL    HW2 1896   2.261   0.662   2.006  0.9684  3.5899 -0.7416
  633SOL     OW 1897   0.733   2.555   0.308  0.0189  0.3999  0.2724
  633SOL    HW1 1898   0.758   2.574   0.213  0.2045  1.7269  4.1363
  633SOL    HW2 1899   0.804   2.605   0.367  1.0619  2.7822 -0.8103
  634SOL     OW 1900   1.641   2.675   2.507  0.3635 -0.6480 -0.1085
  634SOL    HW1 1901   1.624   2.591   2.558  0.8027  0.3404 -3.0103
  634SOL    HW2 1902   1.558   2.734   2.475 -5.7509  3.2057 -0.1909
  635SOL     OW 1903   2.331   0.565   3.066 -0.3347 -0.4451 -0.6402
  635SOL    HW1 1904   2.421   0.519   3.066  0.1947  0.0485  1.0013
  635SOL    HW2 1905   2.283   0.563   0.048  0.7460  1.7095 -0.6620
  636SOL     OW 1906   0.549   1.001   0.746  0.5870 -0.4202 -0.6165
  636SOL    HW1 1907   0.499   0.916   0.783 -0.2968 -2.0019  0.1216
  636SOL    HW2 1908   0.639   1.010   0.797 -1.6137  1.8673 -1.1018
  637SOL     OW 1909   3.060   1.809   0.680 -0.3896  0.5458 -0.0610
  637SOL    HW1 1910   3.098   1.849   0.763 -2.4815  0.0237 -0.3091
  637SOL    HW2 1911   3.067   1.872   0.595 -1.0617 -0.8427  0.1472
  638SOL     OW 1912   0.921   0.120   3.077  0.3704  0.0704  0.0832
  638SOL    HW1 1913   0.826   0.112   3.101 -0.4390  1.3416 -0.0505
  638SOL    HW2 1914   0.971   0.184   0.031  0.4021 -0.0469  1.4960
  639SOL     OW 1915   1.477   1.729   0.060  0.2708  0.1643  0.3218
  639SOL    HW1 1916   1.388   1.674   0.056 -0.8820  1.6773 -1.1575
  639SOL    HW2 1917   1.474   1.779   0.147  0.6987 -3.8224  0.0798
  640SOL     OW 1918   1.837   2.822   0.744  0.3249  0.3913 -0.0071
  640SOL    HW1 1919   1.839   2.725   0.730 -2.2189  2.2403  2.3334
  640SOL    HW2 1920   1.932   2.863   0.741  2.6023  0.3641  0.0018
  641SOL     OW 1921   0.071   2.609   0.784  0.5096  0.0488 -0.2139
  641SOL    HW1 1922   0.073   2.610   0.683  0.4516 -0.3001  2.6057
  641SOL    HW2 1923   0.156   2.653   0.821 -1.2581 -1.1306 -0.4987
  642SOL     OW 1924   0.838   0.250   1.707 -0.4323  0.0868 -0.5383
  642SOL    HW1 1925   0.830   0.241   1.607 -0.5124 -0.8106 -0.0828
  642SOL    HW2 1926   0.916   0.307   1.728 -1.9315 -0.9926  1.6171
  643SOL     OW 1927   0.693   2.029   2.022 -0.8746  0.0757 -0.0564
  643SOL    HW1 1928   0.729   2.103   2.086 -2.3838  1.8874  0.4059
  643SOL    HW2 1929   0.635   2.062   1.950  2.0419 -0.0971 -0.0049
  644SOL     OW 1930   0.479   2.791   0.603 -0.0418  0.7878  0.3696
  644SOL    HW1 1931   0.486   2.894   0.604 -0.9024 -0.7012 -3.1855
  644SOL    HW2 1932   0.555   2.745   0.650  1.2037 -0.0702  2.2600
  645SOL     OW 1933   1.322   2.025   0.251  0.0923  0.0925  0.5359
  645SOL    HW1 1934   1.362   2.116   0.228 -0.6116 -0.8513 -0.7429
  645SOL    HW2 1935   1.400   1.960   0.274 -1.0358  0.5611 -1.5490
  646SOL     OW 1936   0.411   1.148   0.166 -0.8569  0.0100  0.1825
  646SOL    HW1 1937   0.473   1.199   0.225 -1.5707 -1.8341  1.0655
  646SOL    HW2 1938   0.368   1.081   0.224  2.2905 -2.0033 -0.4838
  647SOL     OW 1939   1.049   0.192   1.068 -0.3012  0.0339  0.6491
  647SOL    HW1 1940   1.075   0.285   1.104 -1.1658  1.0953  2.6207
  647SOL    HW2 1941   1.097   0.124   1.130  1.5283 -1.0781  1.7424
  648SOL     OW 1942   2.444   0.178   1.568  0.1830  0.1580 -0.3227
  648SOL    HW1 1943   2.508   0.192   1.495 -0.8426  1.6380  1.7459
  648SOL    HW2 1944   2.438   0.077   1.583  3.1677 -1.1570 -2.8835
  649SOL     OW 1945   0.847   2.003   2.804  0.0934  0.3033 -0.0808
  649SOL    HW1 1946   0.886   1.936   2.736  0.4027  1.6887 -2.5372
  649SOL    HW2 1947   0.756   2.029   2.779  2.4378 -0.9631  1.5102
  650SOL     OW 1948   2.967   1.787   1.687 -0.0493  0.1784 -0.2380
  650SOL    HW1 1949   2.870   1.757   1.675  0.2767  0.1597 -1.2777
  650SOL    HW2 1950   3.028   1.751   1.612  1.8372 -0.4327 -1.1467
  651SOL     OW 1951   1.265   0.004   0.410  0.4827  0.6385 -0.4581
  651SOL    HW1 1952   1.311   3.084   0.325  0.4390 -0.5795  0.0129
  651SOL    HW2 1953   1.299   3.073   0.498  0.1579 -2.3438  0.5017
  652SOL     OW 1954   2.817   1.862   0.166  0.1287 -1.0424  0.0674
  652SOL    HW1 1955   2.860   1.778   0.128  1.4518 -1.3948  1.6655
  652SOL    HW2 1956   2.766   1.916   0.092 -1.1243  1.1940 -0.8083
  653SOL     OW 1957   0.009   0.145   0.977  0.7460  0.5597  0.3211
  653SOL    HW1 1958   3.056   0.075   1.013  0.7395 -3.2960 -1.4675
  653SOL    HW2 1959   0.051   0.122   0.886 -1.0861 -1.2119 -0.7428
  654SOL     OW 1960   1.991   0.354   2.739  0.1158  0.2455 -0.3160
  654SOL    HW1 1961   2.006   0.391   2.832 -0.1489  1.4670  0.2506
  654SOL    HW2 1962   1.901   0.383   2.708  3.1084 -0.7321  0.1728
  655SOL     OW 1963   0.358   2.456   0.999 -0.3632  0.0524 -0.3085
  655SOL    HW1 1964   0.265   2.467   1.037  1.8362 -1.3760  0.6408
  655SOL    HW2 1965   0.371   2.366   0.952  0.5624  1.7873 -1.4496
  656SOL     OW 1966   0.172   0.120   1.731  0.1482  0.4470 -0.2615
  656SOL    HW1 1967   0.086   0.141   1.783 -0.6092  0.1457  0.3951
  656SOL    HW2 1968   0.191   0.180   1.653  0.1944 -1.8584  1.2166
  657SOL     OW 1969   2.221   0.781   2.321  0.8044 -0.5360 -0.1883
  657SOL    HW1 1970   2.290   0.713   2.351  2.7048  1.0234  0.6676
  657SOL    HW2 1971   2.136   0.733   2.331  2.6283  1.0765 -1.0625
  658SOL     OW 1972   2.324   1.719   0.958  0.0436  0.1532 -0.3556
  658SOL    HW1 1973   2.325   1.753   1.055  0.6666 -2.1965  1.8217
  658SOL    HW2 1974   2.376   1.778   0.896 -0.3578 -0.1704  0.5477
  659SOL     OW 1975   2.476   0.134   2.881  0.0048  0.1242 -1.0257
  659SOL    HW1 1976   2.562   0.151   2.825  0.7737 -0.7163 -0.6759
  659SOL    HW2 1977   2.431   0.044   2.859 -0.7955 -2.7907 -0.2627
  660SOL     OW 1978   1.188   1.435   2.699 -0.5348 -0.2430 -0.4900
  660SOL    HW1 1979   1.246   1.499   2.643  2.3741 -1.6708  2.0389
  660SOL    HW2 1980   1.248   1.367   2.741 -0.4866  0.8039  0.7111
  661SOL     OW 1981   2.630   2.286   0.823  0.0544 -0.1877 -0.3199
  661SOL    HW1 1982   2.654   2.191   0.846  1.2575 -0.3736  1.4086
  661SOL    HW2 1983   2.688   2.355   0.879 -0.8726  0.7610  1.1226
  662SOL     OW 1984   0.758   0.587   0.162  0.4774  1.0571 -0.0165
  662SOL    HW1 1985   0.861   0.592   0.170  1.3498  2.4405  0.4821
  662SOL    HW2 1986   0.718   0.682   0.186 -0.1695  3.5883 -2.3320
  663SOL     OW 1987   1.785   2.020   0.179 -0.1852  0.1816  0.0225
  663SOL    HW1 1988   1.707   2.005   0.242  0.9975 -1.2897  0.4147
  663SOL    HW2 1989   1.800   1.940   0.112  1.6845 -1.3990 -1.4547
  664SOL     OW 1990   0.625   2.314   1.532  0.1390 -0.5415  0.1380
  664SOL    HW1 1991   0.640   2.334   1.432  1.7559  2.6566 -0.7569
  664SOL    HW2 1992   0.529   2.289   1.552 -1.0244 -1.7586  0.0640
  665SOL     OW 1993   1.936   2.014   1.869  0.5177 -0.0879  0.1560
  665SOL    HW1 1994   1.972   2.093   1.923  0.3512  1.4854 -0.6861
  665SOL    HW2 1995   1.961   2.029   1.770  1.8872  1.8434  0.0706
  666SOL     OW 1996   0.446   2.713   0.347  0.2786 -0.3750  0.4410
  666SOL    HW1 1997   0.458   2.758   0.440 -0.5687 -0.9304 -0.3757
  666SOL    HW2 1998   0.529   2.667   0.310  0.1519 -0.1629 -0.0296
  667SOL     OW 1999   2.068   1.373   1.844 -0.1282  0.0225 -0.0974
  667SOL    HW1 2000   1.971   1.343   1.860 -1.4825 -1.2376  1.0084
  667SOL    HW2 2001   2.128   1.346   1.921 -3.0550 -0.2364  1.4843
  668SOL     OW 2002   0.468   0.455   2.579  0.5049  0.1050  0.3024
  668SOL    HW1 2003   0.529   0.540   2.583  0.5694  0.7708 -1.0443
  668SOL    HW2 2004   0.526   0.389   2.530 -1.8725 -1.5144 -2.3105
  669SOL     OW 2005   1.829   2.217   2.592 -0.3844  0.0045  1.0145
  669SOL    HW1 2006   1.756   2.282   2.622 -0.6067 -3.8873  0.5124
  669SOL    HW2 2007   1.793   2.136   2.549 -0.0557  0.5268 -0.4359
  670SOL     OW 2008   2.351   2.369   3.034 -0.7898  0.2162  0.5289
  670SOL    HW1 2009   2.260   2.409   3.050  1.5698 -2.6076 -1.9258
  670SOL    HW2 2010   2.337   2.291   2.972  0.8359  2.5976 -1.5135
  671SOL     OW 2011   0.749   1.102   1.156  0.5615  0.1188  0.3412
  671SOL    HW1 2012   0.816   1.177   1.166  0.7283  1.3855 -1.6935
  671SOL    HW2 2013   0.757   1.021   1.221 -0.7552 -1.6446  2.8452
  672SOL     OW 2014   2.625   0.933   2.425  0.4641  0.4547 -0.3983
  672SOL    HW1 2015   2.540   0.969   2.378 -1.6433 -1.9347  4.3849
  672SOL    HW2 2016   2.675   1.013   2.460 -1.8454 -1.0803 -1.1806
  673SOL     OW 2017   2.692   2.403   2.188  0.1800  0.0747  0.3679
  673SOL    HW1 2018   2.735   2.334   2.246  0.0942  2.8442  0.5654
  673SOL    HW2 2019   2.706   2.501   2.221 -0.1437 -0.2388 -0.8637
  674SOL     OW 2020   1.214   2.573   2.347  0.5964 -0.3619 -0.4733
  674SOL    HW1 2021   1.199   2.496   2.411 -2.0531  0.9260 -0.9515
  674SOL    HW2 2022   1.298   2.561   2.291 -0.0191 -0.9572 -1.5905
  675SOL     OW 2023   0.806   0.772   1.652  0.3369 -0.0749 -0.0051
  675SOL    HW1 2024   0.906   0.751   1.650 -0.7926 -1.0123 -2.3339
  675SOL    HW2 2025   0.785   0.865   1.608  1.2694  3.3771  0.1416
  676SOL     OW 2026   1.936   0.857   0.521  0.0664 -0.1017  0.0837
  676SOL    HW1 2027   1.851   0.823   0.567  2.0590  0.0855  1.7156
  676SOL    HW2 2028   1.910   0.941   0.468 -1.9054 -0.8395  0.1729
  677SOL     OW 2029   2.907   1.749   2.606  0.3404  0.3479 -0.0599
  677SOL    HW1 2030   2.971   1.693   2.663  1.9613  0.5999  0.3781
  677SOL    HW2 2031   2.957   1.830   2.568  2.5534  0.1336 -1.1592
  678SOL     OW 2032   2.767   2.097   1.312  0.4752  0.3589  0.0115
  678SOL    HW1 2033   2.701   2.172   1.309  0.0921  1.1149  1.1588
  678SOL    HW2 2034   2.757   2.056   1.408 -0.5678 -0.1928  3.6834
  679SOL     OW 2035   1.859   2.555   0.683 -0.2005  0.0621  0.2590
  679SOL    HW1 2036   1.951   2.535   0.635  1.3393  1.2621 -3.1010
  679SOL    HW2 2037   1.819   2.467   0.722 -0.5768 -0.3544 -0.1652
  680SOL     OW 2038   0.627   2.682   2.581 -0.4287  0.0044  0.1503
  680SOL    HW1 2039   0.590   2.768   2.538  2.0632  0.2009  0.4167
  680SOL    HW2 2040   0.724   2.667   2.548  1.5538 -2.6293 -0.1185
  681SOL     OW 2041   3.060   1.184   1.575 -0.5085  0.4928 -0.3253
  681SOL    HW1 2042   0.018   1.247   1.538  0.6250 -1.1601  1.1114
  681SOL    HW2 2043   2.971   1.207   1.543  4.9756 -0.1156  4.1692
  682SOL     OW 2044   0.190   1.993   1.283  0.6145 -0.6264 -0.1848
  682SOL    HW1 2045   0.201   2.038   1.373 -0.5337  1.3789  0.8845
  682SOL    HW2 2046   0.279   1.950   1.246  1.8740 -1.0951  0.2934
  683SOL     OW 2047   2.508   1.337   1.220  0.0912 -0.0234 -0.6605
  683SOL    HW1 2048   2.467   1.404   1.158 -0.7031  2.2264  4.2849
  683SOL    HW2 2049   2.519   1.371   1.314 -1.3149 -4.2821 -1.0077
  684SOL     OW 2050   2.617   1.471   2.935 -0.5419 -0.2408 -0.7165
  684SOL    HW1 2051   2.711   1.445   2.960 -0.1781 -0.9066  0.4548
  684SOL    HW2 2052   2.573   1.394   2.885  2.6541 -0.8336 -0.4579
  685SOL     OW 2053   1.250   1.306   3.078  0.0347  0.5881 -0.1641
  685SOL    HW1 2054   1.173   1.258   3.031 -3.5877 -0.7717  1.1424
  685SOL    HW2 2055   1.329   1.307   3.015  0.5896 -1.6477 -0.4738
  686SOL     OW 2056   0.163   0.261   1.176 -0.3315  0.5629 -0.4297
  686SOL    HW1 2057   0.247   0.209   1.200 -0.0651  3.2078 -2.6770
  686SOL    HW2 2058   0.106   0.215   1.102 -1.2956 -2.4401 -1.5221
  687SOL     OW 2059   0.809   1.750   2.424  0.1473 -0.3222 -0.3331
  687SOL    HW1 2060   0.817   1.650   2.441 -0.8189  1.0570  0.6430
  687SOL    HW2 2061   0.819   1.770   2.324  0.3641 -2.2161  2.3834
  688SOL     OW 2062   0.428   1.899   1.192  0.0791  0.3569  0.1665
  688SOL    HW1 2063   0.454   1.806   1.233  0.4302 -3.3936  1.2957
  688SOL    HW2 2064   0.502   1.967   1.196  0.4084  0.5756 -0.0951
  689SOL     OW 2065   1.471   0.842   1.528  0.1925 -0.0750  0.8719
  689SOL    HW1 2066   1.448   0.924   1.468 -2.7708 -0.9257  0.3548
  689SOL    HW2 2067   1.484   0.755   1.475  1.8363 -1.6071  1.4317
  690SOL     OW 2068   2.583   0.980   1.024 -0.0419  0.2165  0.4541
  690SOL    HW1 2069   2.551   0.898   0.967 -1.3041 -2.8834  1.4819
  690SOL    HW2 2070   2.669   1.019   0.985  0.6477 -0.2053 -0.4870
  691SOL     OW 2071   0.169   2.380   1.852 -0.3866 -0.2071 -0.3879
  691SOL    HW1 2072   0.207   2.456   1.906  2.1171  0.6557 -1.5688
  691SOL    HW2 2073   0.132   2.308   1.916 -0.4649 -0.3430  0.9351
  692SOL     OW 2074   1.614   2.956   0.830  0.2968  0.6261  0.1093
  692SOL    HW1 2075   1.686   2.894   0.786  0.4794 -2.4813  0.8356
  692SOL    HW2 2076   1.582   2.928   0.922 -0.2546 -1.6835 -0.1124
  693SOL     OW 2077   0.215   1.621   2.456  0.6885 -0.5668  0.4658
  693SOL    HW1 2078   0.278   1.699   2.451 -0.9121 -0.4353 -1.9707
  693SOL    HW2 2079   0.121   1.639   2.411 -0.0937 -2.1211  1.7214
  694SOL     OW 2080   2.268   0.520   1.155  0.4988  0.1643  0.0969
  694SOL    HW1 2081   2.348   0.532   1.213 -0.3249  0.4342  0.2539
  694SOL    HW2 2082   2.182   0.547   1.202 -1.3738 -1.0646  3.2927
  695SOL     OW 2083   0.741   1.054   1.572  0.2936  0.0172 -0.1224
  695SOL    HW1 2084   0.653   1.101   1.596  1.2019 -0.8364 -3.2756
  695SOL    HW2 2085   0.817   1.112   1.595 -3.2720 -0.4211 -1.7255
  696SOL     OW 2086   1.561   0.075   0.337 -0.3986  0.5755 -0.0300
  696SOL    HW1 2087   1.483   0.047   0.276  1.2272 -2.0137 -2.6197
  696SOL    HW2 2088   1.525   0.116   0.422 -0.7669 -2.5770 -1.9912
  697SOL     OW 2089   0.789   0.145   1.112  0.1834 -0.3542 -0.1000
  697SOL    HW1 2090   0.750   0.226   1.061 -0.0605  0.5376  1.8585
  697SOL    HW2 2091   0.892   0.164   1.115  0.4069  0.3101  0.5649
  698SOL     OW 2092   1.381   1.604   2.611 -0.2603  0.4524 -0.4084
  698SOL    HW1 2093   1.381   1.590   2.507  1.9588 -1.7333  0.8805
  698SOL    HW2 2094   1.475   1.608   2.646  1.1940 -0.5828 -0.9802
  699SOL     OW 2095   1.239   1.002   1.199 -0.0374  0.2090 -0.0416
  699SOL    HW1 2096   1.193   0.957   1.281  0.2349 -0.6864  2.5349
  699SOL    HW2 2097   1.192   0.983   1.109  1.6488 -2.5961  1.7800
  700SOL     OW 2098   1.049   2.999   0.771 -0.4485 -0.2037  0.3251
  700SOL    HW1 2099   0.966   2.977   0.716  1.1352  0.4267  0.2797
  700SOL    HW2 2100   1.140   2.997   0.727 -0.9008  1.0631  0.4587
  701SOL     OW 2101   2.689   2.806   2.700  0.3122  0.0835 -0.5277
  701SOL    HW1 2102   2.631   2.747   2.757  0.0814 -1.3825  1.5743
  701SOL    HW2 2103   2.648   2.899   2.684 -1.3331  3.0500 -1.3651
  702SOL     OW 2104   1.059   0.189   0.518  0.3982 -0.4523 -0.2205
  702SOL    HW1 2105   1.142   0.125   0.499  0.1704 -0.7362 -1.0150
  702SOL    HW2 2106   1.041   0.182   0.620  2.0664  2.6933 -0.2272
  703SOL     OW 2107   2.512   0.426   2.193  0.7085  0.0138 -0.6150
  703SOL    HW1 2108   2.474   0.473   2.280 -1.4790  0.4711  2.1159
  703SOL    HW2 2109   2.580   0.488   2.146 -3.1236 -1.6231  0.9805
  704SOL     OW 2110   2.935   1.586   0.790  0.1240  0.1107  0.0157
  704SOL    HW1 2111   2.928   1.519   0.711 -2.6079  3.3974 -1.1131
  704SOL    HW2 2112   2.987   1.664   0.758 -2.5233 -1.0703  2.6729
  705SOL     OW 2113   3.042   3.061   2.166  0.1194  0.1508 -0.0271
  705SOL    HW1 2114   3.055   0.043   2.215 -2.9635 -0.5133  2.1978
  705SOL    HW2 2115   2.973   3.004   2.220  0.8642 -1.5357 -0.9211
  706SOL     OW 2116   2.376   2.369   0.851 -0.4708  0.3539 -0.0795
  706SOL    HW1 2117   2.473   2.342   0.851  0.3029  0.5680 -1.4455
  706SOL    HW2 2118   2.333   2.332   0.764  2.2743 -1.1617 -1.3642
  707SOL     OW 2119   1.289   2.084   1.621  0.0901 -0.0080 -0.4428
  707SOL    HW1 2120   1.261   2.170   1.577  1.4339 -0.8772  0.5243
  707SOL    HW2 2121   1.215   2.013   1.618 -1.9463 -1.4701 -2.5374
  708SOL     OW 2122   3.057   2.562   1.820 -0.4293 -0.6921 -0.1663
  708SOL    HW1 2123   3.054   2.612   1.730 -2.0588  1.4440  0.9002
  708SOL    HW2 2124   0.027   2.498   1.826 -2.6335 -0.3635  0.0795
  709SOL     OW 2125   2.207   2.979   2.110 -0.1401  0.0203  0.3244
  709SOL    HW1 2126   2.105   2.974   2.122 -0.8084  1.2309  0.9323
  709SOL    HW2 2127   2.225   3.001   2.012 -0.6421  1.3844 -0.7387
  710SOL     OW 2128   1.975   0.847   2.596  0.3033  0.0245 -0.2585
  710SOL    HW1 2129   2.061   0.804   2.639  1.6358 -0.9375  2.0291
  710SOL    HW2 2130   1.949   0.924   2.656  0.2224  0.9351  1.0268
  711SOL     OW 2131   0.980   2.380   3.101 -0.4413 -0.3273  0.0970
  711SOL    HW1 2132   0.961   2.472   0.026  0.1179  1.1138  1.0652
  711SOL    HW2 2133   0.909   2.319   0.028  1.7916 -0.3475 -1.5325
  712SOL     OW 2134   0.743   2.468   2.766 -0.0822  0.3397 -0.0726
  712SOL    HW1 2135   0.829   2.429   2.721  1.0306 -1.0641  2.3334
  712SOL    HW2 2136   0.686   2.527   2.703 -2.2279 -0.7188  1.5170
  713SOL     OW 2137   1.686   1.469   2.924 -0.1099  0.1418  0.4035
  713SOL    HW1 2138   1.770   1.416   2.895  0.6174 -0.5925  0.4959
  713SOL    HW2 2139   1.687   1.480   3.023 -0.3091  1.3506  1.3286
  714SOL     OW 2140   0.997   1.628   1.493 -0.2648  0.5073 -0.5864
  714SOL    HW1 2141   1.019   1.684   1.412  0.9977 -2.9056  0.6869
  714SOL    HW2 2142   0.987   1.692   1.570  0.8415  1.0704 -0.3615
  715SOL     OW 2143   1.843   0.544   3.049  0.5582 -0.2373 -0.7168
  715SOL    HW1 2144   1.855   0.643   3.067 -2.1145  1.0668  0.6272
  715SOL    HW2 2145   1.929   0.498   3.031  0.8751 -1.4387 -2.3004
  716SOL     OW 2146   0.315   2.653   2.254 -0.0094  0.9210  0.3514
  716SOL    HW1 2147   0.379   2.618   2.323  0.8406  0.4614 -0.7442
  716SOL    HW2 2148   0.292   2.751   2.274  1.5603 -0.6411  0.7957
  717SOL     OW 2149   2.898   0.626   0.938  0.1560  0.1400 -0.2280
  717SOL    HW1 2150   2.865   0.691   0.871  1.3035 -1.4277  0.0588
  717SOL    HW2 2151   2.833   0.625   1.014 -0.2857  0.1799 -0.9007
  718SOL     OW 2152   0.757   1.486   2.485 -0.2225 -0.3289  0.2855
  718SOL    HW1 2153   0.747   1.490   2.586  1.7262  0.9207  1.4166
  718SOL    HW2 2154   0.683   1.430   2.440  0.1916  0.3331 -0.2268
  719SOL     OW 2155   2.079   1.101   2.947 -0.0349  0.2508  0.0596
  719SOL    HW1 2156   2.011   1.025   2.942 -1.8397  0.6622 -0.8358
  719SOL    HW2 2157   2.122   1.115   2.852 -0.1055 -2.4386 -1.7659
  720SOL     OW 2158   0.957   0.517   0.965  0.4156  0.2451  0.3134
  720SOL    HW1 2159   1.021   0.508   1.045  2.6948  1.8763  1.1427
  720SOL    HW2 2160   0.865   0.468   0.982 -1.4292 -3.6106  2.6234
  721SOL     OW 2161   2.483   0.084   0.405  0.8180  0.1873 -0.1192
  721SOL    HW1 2162   2.453   0.040   0.493  0.0081  0.5614  2.5934
  721SOL    HW2 2163   2.541   0.020   0.352 -1.5621  1.0700 -1.1249
  722SOL     OW 2164   2.188   0.753   2.702  0.1835 -0.0167 -0.1588
  722SOL    HW1 2165   2.260   0.812   2.660  0.6056  0.5386  0.7801
  722SOL    HW2 2166   2.197   0.759   2.807  1.6239 -0.1373  1.9639
  723SOL     OW 2167   2.436   0.309   0.546 -0.4959  0.0985 -0.4016
  723SOL    HW1 2168   2.498   0.391   0.548 -1.8430 -1.4686  0.6329
  723SOL    HW2 2169   2.479   0.245   0.475 -0.2315 -1.2545  0.3545
  724SOL     OW 2170   0.832   1.596   1.924  0.3846 -0.1216 -0.0521
  724SOL    HW1 2171   0.827   1.496   1.908  0.3402  3.3767  1.1751
  724SOL    HW2 2172   0.768   1.649   1.863  0.5232  0.6842 -1.1585
  725SOL     OW 2173   1.680   0.290   1.221 -0.4663  0.1412  0.2128
  725SOL    HW1 2174   1.727   0.376   1.251  0.2975  1.1316 -0.5505
  725SOL    HW2 2175   1.749   0.229   1.182  0.5877  2.2751  0.6140
  726SOL     OW 2176   2.153   2.852   0.392  0.1848  0.3378 -0.6163
  726SOL    HW1 2177   2.203   2.825   0.476 -0.4649  1.4037 -0.4996
  726SOL    HW2 2178   2.171   2.784   0.317  2.3422  0.8083 -1.3621
  727SOL     OW 2179   1.618   1.617   1.706 -0.0142  0.3204  0.7902
  727SOL    HW1 2180   1.699   1.673   1.720 -2.9748 -0.2689 -1.3823
  727SOL    HW2 2181   1.635   1.547   1.631 -1.1971  0.0454  0.7815
  728SOL     OW 2182   2.037   2.708   1.280  0.2758 -0.1680 -0.0808
  728SOL    HW1 2183   2.012   2.609   1.305 -0.3666 -2.1782  0.4200
  728SOL    HW2 2184   1.959   2.774   1.300 -2.6414 -0.5637  0.7372
  729SOL     OW 2185   2.561   1.643   0.644  0.0120 -0.2500 -0.0431
  729SOL    HW1 2186   2.509   1.578   0.587 -0.5328  0.9412  0.4029
  729SOL    HW2 2187   2.598   1.594   0.724 -0.7580 -0.2991 -2.6384
  730SOL     OW 2188   0.671   1.093   2.671  0.0660 -0.0407 -0.4049
  730SOL    HW1 2189   0.599   1.141   2.614 -0.1887  0.4830 -1.4654
  730SOL    HW2 2190   0.717   1.153   2.742  1.5867 -0.9503  1.9792
  731SOL     OW 2191   0.203   3.021   0.673  0.4650 -0.0146  0.1315
  731SOL    HW1 2192   0.169   0.010   0.677 -0.8853  1.3707  1.5918
  731SOL    HW2 2193   0.307   3.021   0.678  2.3898 -0.2243  0.5496
  732SOL     OW 2194   1.590   0.690   0.410  0.1651 -0.0019 -0.0116
  732SOL    HW1 2195   1.616   0.617   0.340 -0.6274  0.8212  1.3824
  732SOL    HW2 2196   1.498   0.668   0.448  0.0913 -0.2555 -1.9730
  733SOL     OW 2197   0.556   2.078   0.894  0.0863 -0.2250  0.6361
  733SOL    HW1 2198   0.539   2.056   0.989 -1.9108 -0.2770  2.0280
  733SOL    HW2 2199   0.621   2.010   0.856 -1.7573  1.9991  2.4018
  734SOL     OW 2200   0.231   2.507   0.449 -0.0638  0.3048 -0.0651
  734SOL    HW1 2201   0.271   2.594   0.412  0.6470  0.4339  1.1022
  734SOL    HW2 2202   0.140   2.534   0.484 -0.5739  3.2121  0.1626
  735SOL     OW 2203   1.375   0.018   1.200 -0.7233 -0.1858  0.3366
  735SOL    HW1 2204   1.269   0.012   1.214 -0.8105  0.2179 -0.0174
  735SOL    HW2 2205   1.417   0.051   1.291  0.7025 -0.8981 -0.3399
  736SOL     OW 2206   2.116   2.508   3.085  0.5515  0.7351  0.1840
  736SOL    HW1 2207   2.033   2.556   0.010  1.8706 -1.1845 -0.2803
  736SOL    HW2 2208   2.097   2.425   3.029  1.3905 -1.0269 -0.8306
  737SOL     OW 2209   0.118   0.836   0.821  0.1637 -0.1215  0.3272
  737SOL    HW1 2210   0.090   0.934   0.820 -2.3536  0.6452 -2.8460
  737SOL    HW2 2211   0.103   0.804   0.724  1.0155  0.6523  1.0406
  738SOL     OW 2212   2.586   2.890   1.999 -0.2408  0.5356  0.0659
  738SOL    HW1 2213   2.673   2.852   1.957 -2.1980 -2.0846  0.5205
  738SOL    HW2 2214   2.550   2.826   2.075 -2.5998 -5.1416  0.8992
  739SOL     OW 2215   1.443   2.313   3.069 -0.1220  0.3196  0.2821
  739SOL    HW1 2216   1.432   2.232   3.007  0.0185 -0.7154 -1.8118
  739SOL    HW2 2217   1.464   2.293   0.058 -0.7979 -0.9314 -2.1330
  740SOL     OW 2218   1.524   0.362   0.980 -0.0121 -0.1242 -0.1232
  740SOL    HW1 2219   1.589   0.350   1.056 -1.8185  0.1891 -2.6569
  740SOL    HW2 2220   1.549   0.304   0.908 -1.3733 -0.3039  4.1483
  741SOL     OW 2221   2.883   0.541   0.575  0.1285 -0.0206 -0.1588
  741SOL    HW1 2222   2.914   0.636   0.571 -3.0768 -1.9185 -1.1575
  741SOL    HW2 2223   2.922   0.488   0.650 -0.3978 -2.9646 -0.1792
  742SOL     OW 2224   0.734   1.495   2.761 -0.4949 -0.4646  0.2167
  742SOL    HW1 2225   0.831   1.511   2.786  0.1742 -2.4110  1.0456
  742SOL    HW2 2226   0.675   1.580   2.762 -1.9922  1.8253 -0.0701
  743SOL     OW 2227   1.228   0.696   2.126 -0.3110 -0.4102 -0.0218
  743SOL    HW1 2228   1.303   0.629   2.112 -0.4351 -0.4387  0.3350
  743SOL    HW2 2229   1.163   0.689   2.052  3.3033 -0.3535  3.8253
  744SOL     OW 2230   2.105   0.681   1.367 -0.2121 -0.5639 -0.4726
  744SOL    HW1 2231   2.180   0.748   1.349  1.2026  1.9722 -3.5741
  744SOL    HW2 2232   2.033   0.731   1.423 -1.9481  0.2800 -1.5309
  745SOL     OW 2233   1.133   1.377   1.539 -0.1041 -0.6462  0.0697
  745SOL    HW1 2234   1.085   1.465   1.518 -0.2787 -0.7669 -2.3274
  745SOL    HW2 2235   1.081   1.297   1.513  1.3456  0.1292  1.0327
  746SOL     OW 2236   2.143   1.508   0.963  0.1015 -0.0689  0.6094
  746SOL    HW1 2237   2.233   1.553   0.950 -1.7252 -0.9256  0.4406
  746SOL    HW2 2238   2.133   1.435   0.886  1.9884 -1.4831 -2.1964
  747SOL     OW 2239   2.451   1.483   0.997  0.2178  0.0401 -0.0929
  747SOL    HW1 2240   2.542   1.491   0.958 -0.8958 -0.9006  0.4924
  747SOL    HW2 2241   2.403   1.575   0.995 -0.0424  2.9215  2.3437
  748SOL     OW 2242   0.911   2.156   0.969 -0.5352 -0.4051 -0.1457
  748SOL    HW1 2243   0.873   2.249   0.946 -0.7382 -1.2323 -2.1709
  748SOL    HW2 2244   1.012   2.167   0.978 -0.8672  0.4728  1.5048
  749SOL     OW 2245   2.519   2.791   2.260 -0.5708  0.3117  0.2015
  749SOL    HW1 2246   2.589   2.718   2.241  0.9372 -2.1039 -0.0823
  749SOL    HW2 2247   2.560   2.878   2.295  0.0103 -2.1201 -2.2421
  750SOL     OW 2248   2.345   0.320   0.857 -0.9481 -0.1349 -0.2169
  750SOL    HW1 2249   2.380   0.299   0.763 -1.3507 -0.1673  1.0868
  750SOL    HW2 2250   2.276   0.393   0.855  1.1263 -3.1658 -2.6403
  751SOL     OW 2251   2.438   2.650   0.444 -0.2170 -0.4138  0.5043
  751SOL    HW1 2252   2.529   2.613   0.463 -0.8328 -0.9070 -0.9204
  751SOL    HW2 2253   2.392   2.598   0.370  0.8818  0.0879  0.5480
  752SOL     OW 2254   0.015   2.883   0.828 -0.2002 -0.0404 -0.2452
  752SOL    HW1 2255   0.029   2.786   0.799 -3.0259 -0.9324 -0.5049
  752SOL    HW2 2256   0.093   2.932   0.781  0.8947 -0.3926  1.0191
  753SOL     OW 2257   1.663   1.049   2.325  0.0505  0.2512 -0.8123
  753SOL    HW1 2258   1.627   1.114   2.255 -2.6816  0.8553  2.2978
  753SOL    HW2 2259   1.632   0.949   2.314  0.8900 -0.7136  0.3077
  754SOL     OW 2260   1.697   2.162   1.654 -0.0075 -0.1112 -0.7006
  754SOL    HW1 2261   1.670   2.158   1.754  0.2380 -0.9613  2.1223
  754SOL    HW2 2262   1.691   2.073   1.607  1.8798 -0.3695  0.1444
  755SOL     OW 2263   2.473   0.755   0.877 -0.4311 -0.4974  0.2694
  755SOL    HW1 2264   2.509   0.664   0.905  0.7294  1.2466 -2.5700
  755SOL    HW2 2265   2.456   0.755   0.776 -1.6223  0.8385 -2.3472
  756SOL     OW 2266   0.932   1.503   2.985 -0.0228 -0.0689 -0.7235
  756SOL    HW1 2267   0.962   1.408   3.003  1.3643 -0.5279  1.8731
  756SOL    HW2 2268   1.011   1.568   3.000  1.0338  1.7118 -2.7486
  757SOL     OW 2269   1.448   2.477   0.801 -0.6722  0.0203  0.1269
  757SOL    HW1 2270   1.521   2.539   0.840  1.0973  1.4322  0.4974
  757SOL    HW2 2271   1.477   2.437   0.714  0.8699  1.5903  3.2741
  758SOL     OW 2272   1.320   2.611   1.580 -0.2621 -0.8698  0.0468
  758SOL    HW1 2273   1.392   2.660   1.639  0.5329  1.1340 -0.2425
  758SOL    HW2 2274   1.239   2.593   1.638 -1.0151  1.1131  1.6930
  759SOL     OW 2275   0.171   0.535   0.672 -0.0866 -0.4978 -0.0041
  759SOL    HW1 2276   0.082   0.523   0.723  2.0800 -2.2351  0.0567
  759SOL    HW2 2277   0.151   0.548   0.572 -1.3202 -0.2042  2.9319
  760SOL     OW 2278   2.382   1.118   1.149  0.3971 -0.3316 -0.1679
  760SOL    HW1 2279   2.441   1.052   1.104 -1.0886  3.3282  1.3369
  760SOL    HW2 2280   2.430   1.206   1.163 -1.5584 -1.6655 -0.4836
  761SOL     OW 2281   1.782   0.204   0.636  0.2954 -0.1403 -0.6721
  761SOL    HW1 2282   1.741   0.262   0.562  0.6666  2.2098  0.0408
  761SOL    HW2 2283   1.826   0.263   0.703  0.0081 -0.9779 -1.7249
  762SOL     OW 2284   2.117   1.846   3.108  0.2969 -0.2207  0.0157
  762SOL    HW1 2285   2.170   1.793   0.070  1.2435 -1.4378 -2.4892
  762SOL    HW2 2286   2.153   1.942   3.093  0.0099  0.4278 -0.2666
  763SOL     OW 2287   0.704   1.829   1.472 -0.1993  0.7247  0.3443
  763SOL    HW1 2288   0.801   1.852   1.474 -3.8138 -1.3100  0.9475
  763SOL    HW2 2289   0.697   1.742   1.414  1.4864  1.3777  0.5341
  764SOL     OW 2290   2.755   2.055   2.501 -0.2365  0.1257  0.2556
  764SOL    HW1 2291   2.766   1.966   2.547  1.7285  4.1072 -1.2103
  764SOL    HW2 2292   2.746   2.127   2.568  0.4100  0.1540 -2.3591
  765SOL     OW 2293   0.552   2.562   1.138  0.7120 -0.0510  0.6375
  765SOL    HW1 2294   0.586   2.639   1.081 -2.3457 -1.1969  2.5578
  765SOL    HW2 2295   0.487   2.511   1.078  0.8525 -0.7440 -2.4985
  766SOL     OW 2296   0.022   2.254   2.267  0.0533  0.2279  0.4048
  766SOL    HW1 2297   0.080   2.175   2.287  2.1548 -0.1096  0.4153
  766SOL    HW2 2298   0.079   2.343   2.270 -0.1239  0.7450  1.1106
  767SOL     OW 2299   2.357   0.923   2.589 -0.3197 -0.1844  0.5214
  767SOL    HW1 2300   2.360   0.947   2.491 -0.3754 -0.2427 -1.9160
  767SOL    HW2 2301   2.451   0.915   2.628  0.0729 -3.2212  1.4948
  768SOL     OW 2302   1.361   0.291   2.558  0.3989 -0.0294  0.2293
  768SOL    HW1 2303   1.342   0.387   2.547 -0.8051 -2.8661 -1.1766
  768SOL    HW2 2304   1.349   0.262   2.660  2.6935 -0.3083  0.0076
  769SOL     OW 2305   3.043   2.457   0.996 -0.0039  0.1608 -0.2647
  769SOL    HW1 2306   3.091   2.509   0.928 -0.3792  0.4520 -0.2319
  769SOL    HW2 2307   3.106   2.439   1.075  2.6759 -0.8692  1.4224
  770SOL     OW 2308   0.635   0.295   2.952 -0.3390 -0.1559  0.0498
  770SOL    HW1 2309   0.654   0.395   2.956  0.7374  0.6787 -0.6784
  770SOL    HW2 2310   0.661   0.249   3.040 -2.7587 -0.1792 -1.4667
  771SOL     OW 2311   1.268   1.873   2.398 -0.2500  0.3971 -0.1136
  771SOL    HW1 2312   1.291   1.779   2.427 -1.3852 -1.0814 -0.0347
  771SOL    HW2 2313   1.211   1.874   2.313 -3.0664  0.3565  0.3124
  772SOL     OW 2314   1.960   2.960   2.159 -0.0189 -0.5906 -0.3094
  772SOL    HW1 2315   1.959   2.945   2.261  2.8469  0.4644  1.2195
  772SOL    HW2 2316   1.880   3.016   2.128 -0.9699  1.1136  1.4700
  773SOL     OW 2317   1.625   0.786   1.781  0.1828  0.0558 -0.4459
  773SOL    HW1 2318   1.604   0.822   1.688  0.2126  0.0045  0.7698
  773SOL    HW2 2319   1.683   0.704   1.768  0.7163 -0.7117  2.0801
  774SOL     OW 2320   1.117   0.442   1.191  0.0258  0.3577 -0.1964
  774SOL    HW1 2321   1.216   0.442   1.172 -1.2017 -1.6535 -1.2674
  774SOL    HW2 2322   1.102   0.451   1.291 -2.8725 -0.6276  0.8494
  775SOL     OW 2323   2.111   2.798   2.943  0.1853 -0.2148 -0.2574
  775SOL    HW1 2324   2.092   2.711   2.992 -2.2088 -1.6290  0.8028
  775SOL    HW2 2325   2.148   2.772   2.852 -0.6556 -2.4622  0.8329
  776SOL     OW 2326   1.947   0.777   1.591  0.0052  0.1197 -0.1549
  776SOL    HW1 2327   1.878   0.704   1.610  1.0171  0.1988  0.6451
  776SOL    HW2 2328   1.992   0.797   1.677  1.7884  0.1582 -1.6225
  777SOL     OW 2329   0.008   1.370   2.252  0.2150  0.2020 -0.1836
  777SOL    HW1 2330   0.008   1.466   2.282 -0.5075  0.9036  1.3149
  777SOL    HW2 2331   3.026   1.340   2.231  1.7379  2.9302  1.9100
  778SOL     OW 2332   2.752   1.169   2.456 -0.3124 -0.4088  0.5469
  778SOL    HW1 2333   2.848   1.194   2.478  0.9072  2.1011 -1.1236
  778SOL    HW2 2334   2.680   1.238   2.482  0.5388 -1.8302 -2.5725
  779SOL     OW 2335   3.099   0.768   2.936  0.7605  0.0452  0.2448
  779SOL    HW1 2336   3.106   0.674   2.896 -2.9659 -1.2455 -1.2180
  779SOL    HW2 2337   3.021   0.772   3.005 -2.2279 -0.9043  0.9202
  780SOL     OW 2338   2.419   2.165   2.240 -0.0896 -0.1325 -0.5730
  780SOL    HW1 2339   2.431   2.260   2.208 -0.7811  0.3054  0.8031
  780SOL    HW2 2340   2.355   2.120   2.178  1.1370  2.6073 -2.5412
  781SOL     OW 2341   2.924   1.179   1.833  0.2193  0.3508 -0.3541
  781SOL    HW1 2342   2.910   1.278   1.854 -1.2644 -0.2282  1.2472
  781SOL    HW2 2343   2.993   1.164   1.761  0.9584 -1.1327  1.8534
  782SOL     OW 2344   1.396   2.247   2.678  0.8403  0.5491 -0.0623
  782SOL    HW1 2345   1.447   2.179   2.626 -2.9381  0.6530 -1.8742
  782SOL    HW2 2346   1.355   2.199   2.759  1.6488 -1.6144  0.6871
  783SOL     OW 2347   1.011   2.579   1.008  0.3556 -0.0978  0.2578
  783SOL    HW1 2348   1.104   2.552   1.036  2.0011 -0.7635 -1.5492
  783SOL    HW2 2349   0.956   2.617   1.084  2.1877  0.0779 -2.0144
  784SOL     OW 2350   2.025   0.602   2.390  0.4794  1.0451 -0.2623
  784SOL    HW1 2351   2.046   0.571   2.487 -0.2556  0.3105 -0.6135
  784SOL    HW2 2352   2.030   0.518   2.327  0.0718 -1.2700 -0.8281
  785SOL     OW 2353   2.866   0.188   1.644 -0.3307  0.4284 -0.0151
  785SOL    HW1 2354   2.805   0.265   1.665 -0.0389 -0.5458 -1.9886
  785SOL    HW2 2355   2.939   0.180   1.716 -2.9460 -2.8746  1.4641
  786SOL     OW 2356   1.497   2.263   0.221  0.6330 -0.0457  0.1133
  786SOL    HW1 2357   1.595   2.258   0.222 -2.7892 -1.0074 -2.4782
  786SOL    HW2 2358   1.458   2.332   0.287 -0.4259 -0.1322  0.8970
  787SOL     OW 2359   1.303   0.318   0.719  0.0163  0.5206 -0.1670
  787SOL    HW1 2360   1.221   0.255   0.731 -1.8882 -1.4563 -0.6785
  787SOL    HW2 2361   1.272   0.414   0.710  1.5196  0.9750  2.7263
  788SOL     OW 2362   0.114   1.206   1.122 -0.4307  0.0750  0.0266
  788SOL    HW1 2363   0.077   1.300   1.132 -0.0012  1.0442 -0.6767
  788SOL    HW2 2364   0.209   1.206   1.161  0.9936 -0.4927 -1.7309
  789SOL     OW 2365   2.400   1.042   2.317 -0.2879  0.1644 -0.2787
  789SOL    HW1 2366   2.380   0.985   2.237  0.3595 -1.6714  1.4588
  789SOL    HW2 2367   2.314   1.082   2.357 -1.2112  1.2714  1.0671
  790SOL     OW 2368   1.295   0.659   2.804 -0.3407 -0.2023 -0.3401
  790SOL    HW1 2369   1.294   0.651   2.701 -1.8690 -2.0394 -1.2710
  790SOL    HW2 2370   1.214   0.613   2.848 -0.9012 -2.1128 -1.0456
  791SOL     OW 2371   0.200   2.866   0.230  0.0955 -0.0843 -0.0550
  791SOL    HW1 2372   0.211   2.952   0.280  0.1374  0.5191  2.5652
  791SOL    HW2 2373   0.274   2.799   0.253  1.1018 -0.1862  1.9680
  792SOL     OW 2374   1.220   1.077   1.956  0.0364 -0.2628  0.1473
  792SOL    HW1 2375   1.181   1.062   2.050  2.3479 -1.2441 -0.3730
  792SOL    HW2 2376   1.152   1.056   1.881  0.8351  1.4112  0.0457
  793SOL     OW 2377   2.743   0.279   0.962 -0.2197 -0.2144  0.2994
  793SOL    HW1 2378   2.809   0.263   0.885  2.2539 -2.0563 -0.3374
  793SOL    HW2 2379   2.780   0.256   1.050 -1.4106  1.0531 -2.2885
  794SOL     OW 2380   3.092   0.181   2.309  0.0602  0.0302  0.3711
  794SOL    HW1 2381   0.038   0.267   2.325 -0.8995 -1.2769 -1.1882
  794SOL    HW2 2382   2.994   0.194   2.342 -0.7774  2.8159  1.1892
  795SOL     OW 2383   0.516   1.499   0.210 -0.0288  0.1456 -0.3185
  795SOL    HW1 2384   0.595   1.528   0.149  2.2687  1.7116 -0.7941
  795SOL    HW2 2385   0.477   1.583   0.259 -2.4394  1.4999  1.4132
  796SOL     OW 2386   0.110   0.996   2.805  0.6050  0.1082 -0.1681
  796SOL    HW1 2387   0.080   0.901   2.828  3.8162  0.9504  1.3846
  796SOL    HW2 2388   0.026   1.052   2.774 -1.8121 -1.2561 -2.3767
  797SOL     OW 2389   2.292   0.086   2.273  0.5670  0.7625 -0.3807
  797SOL    HW1 2390   2.269   0.011   2.206 -1.0439 -2.5818 -1.1786
  797SOL    HW2 2391   2.384   0.127   2.252 -0.8258 -1.2926  0.9824
  798SOL     OW 2392   0.055   3.010   1.260 -0.5733  0.2864  0.0526
  798SOL    HW1 2393   3.107   2.991   1.180  0.0453  1.1616  0.7955
  798SOL    HW2 2394   0.001   3.046   1.338 -0.9324  0.8957 -0.8658
  799SOL     OW 2395   2.899   0.908   1.593 -0.3499  0.2182  0.9078
  799SOL    HW1 2396   2.853   0.900   1.500 -0.3674 -0.6993 -3.8077
  799SOL    HW2 2397   2.962   0.987   1.597 -0.1690 -3.6276 -1.1251
  800SOL     OW 2398   0.494   1.257   0.721  1.0231  0.2896 -0.1528
  800SOL    HW1 2399   0.437   1.283   0.643  1.1751  0.1538 -3.3602
  800SOL    HW2 2400   0.496   1.153   0.720 -0.8275 -1.9748 -0.3402
  801SOL     OW 2401   1.918   1.712   0.396 -0.0466  0.4899  0.4211
  801SOL    HW1 2402   1.863   1.791   0.423  0.2672 -0.8354  1.7726
  801SOL    HW2 2403   1.884   1.629   0.449 -1.6203 -3.7057  3.5864
  802SOL     OW 2404   1.230   1.009   2.875 -0.0047 -0.3377  0.0967
  802SOL    HW1 2405   1.237   0.948   2.796 -0.9705  2.3155  1.0706
  802SOL    HW2 2406   1.324   1.040   2.899 -0.0297  0.7067 -4.4301
  803SOL     OW 2407   1.112   1.843   1.673  0.4811  0.2919  0.2935
  803SOL    HW1 2408   1.081   1.818   1.768 -1.3712 -0.7281  1.0406
  803SOL    HW2 2409   1.194   1.787   1.639 -0.8806  0.1442  2.2461
  804SOL     OW 2410   1.743   2.322   0.725  0.2409 -0.5104  0.4412
  804SOL    HW1 2411   1.773   2.238   0.769  0.3240  0.5045  0.2973
  804SOL    HW2 2412   1.663   2.307   0.661 -2.7727  0.3801 -1.5400
  805SOL     OW 2413   2.943   2.529   2.416  0.1737 -0.4334  0.0680
  805SOL    HW1 2414   2.909   2.430   2.404  1.0222 -4.3994  0.4176
  805SOL    HW2 2415   3.024   2.553   2.363 -0.2614 -3.2639 -1.4010
  806SOL     OW 2416   2.903   3.004   0.403  0.2213 -0.3916  0.2228
  806SOL    HW1 2417   2.917   3.026   0.503 -0.7806 -0.0937  0.2239
  806SOL    HW2 2418   2.936   2.908   0.383  2.1653 -2.6614  0.2917
  807SOL     OW 2419   2.413   0.977   2.884  0.3909 -0.1260  0.1408
  807SOL    HW1 2420   2.500   0.921   2.876 -0.9131  0.4778 -1.7735
  807SOL    HW2 2421   2.342   0.919   2.925  3.1524  0.1964 -1.3572
  808SOL     OW 2422   1.190   2.425   0.786  0.8294  1.0447  0.4840
  808SOL    HW1 2423   1.287   2.437   0.778 -3.7130 -0.4476 -2.4258
  808SOL    HW2 2424   1.144   2.396   0.698  2.6672  0.4697 -1.2872
  809SOL     OW 2425   2.734   0.186   2.763 -0.1253 -0.2867 -0.2352
  809SOL    HW1 2426   2.819   0.130   2.762 -1.7475 -2.7479  1.8260
  809SOL    HW2 2427   2.765   0.280   2.733  2.3358 -0.7122  0.5651
  810SOL     OW 2428   1.259   1.122   0.737  0.1423  0.0970  0.3401
  810SOL    HW1 2429   1.297   1.208   0.779 -2.4349 -0.8426 -1.4403
  810SOL    HW2 2430   1.203   1.145   0.655 -0.9078 -0.0623 -0.9953
  811SOL     OW 2431   1.817   2.902   1.317  0.3770  0.6264 -0.3211
  811SOL    HW1 2432   1.815   2.950   1.236  1.3262  0.6301  2.1378
  811SOL    HW2 2433   1.719   2.894   1.354  0.9759 -0.4726  0.0563
  812SOL     OW 2434   1.825   2.977   0.075 -0.5411  0.1257  0.4292
  812SOL    HW1 2435   1.792   3.067   0.116  0.6800  0.3626  0.6979
  812SOL    HW2 2436   1.866   2.991   3.092  2.2176  0.9674  0.0604
  813SOL     OW 2437   1.261   0.287   2.124  0.3668  0.0083  0.6204
  813SOL    HW1 2438   1.184   0.326   2.180  1.2924  0.8038  1.4771
  813SOL    HW2 2439   1.319   0.231   2.184 -1.6989  0.6478 -3.1989
  814SOL     OW 2440   0.306   0.083   1.310  0.0282 -0.6759 -0.1949
  814SOL    HW1 2441   0.228   0.022   1.301  2.1223  0.7323  2.4334
  814SOL    HW2 2442   0.394   0.034   1.308 -0.9219 -0.3369 -0.4967
  815SOL     OW 2443   0.260   2.879   1.132 -0.0531  0.5342 -0.1343
  815SOL    HW1 2444   0.204   2.950   1.178  0.2334  0.5315  0.0808
  815SOL    HW2 2445   0.269   2.899   1.031  0.2966 -4.2897  0.1963
  816SOL     OW 2446   2.674   1.642   2.551 -0.4734 -0.1353  0.4961
  816SOL    HW1 2447   2.580   1.669   2.570 -0.4270 -0.3984  1.2922
  816SOL    HW2 2448   2.752   1.693   2.598  2.3629 -0.7034  0.5519
  817SOL     OW 2449   1.454   0.095   3.016 -0.1929 -1.1079  0.5206
  817SOL    HW1 2450   1.530   0.152   3.053 -2.4134 -1.7298 -0.2897
  817SOL    HW2 2451   1.395   0.064   3.088 -1.1486  0.5143 -1.9106
  818SOL     OW 2452   1.525   1.115   0.240 -0.1566 -0.3591 -0.1460
  818SOL    HW1 2453   1.543   1.162   0.327 -2.1544  3.4051  1.8962
  818SOL    HW2 2454   1.425   1.134   0.223 -2.1724  2.4346 -0.7630
  819SOL     OW 2455   1.817   2.769   2.697  1.1141 -0.4434 -0.3377
  819SOL    HW1 2456   1.765   2.752   2.612  0.8588  1.8599 -1.1968
  819SOL    HW2 2457   1.892   2.826   2.675 -1.9776 -2.2760  0.3696
  820SOL     OW 2458   1.050   0.923   0.218 -0.0116  0.3940 -0.6284
  820SOL    HW1 2459   1.141   0.877   0.249  0.7941 -0.0466 -2.2998
  820SOL    HW2 2460   1.025   0.997   0.285  0.8633  1.5059 -0.8437
  821SOL     OW 2461   0.368   0.583   1.407 -0.0714  0.2147  0.4938
  821SOL    HW1 2462   0.358   0.675   1.447  0.6937 -1.8022  0.1802
  821SOL    HW2 2463   0.312   0.584   1.318  0.7221  0.0688 -1.4971
  822SOL     OW 2464   1.418   2.533   2.120 -0.1789  0.4251  0.0176
  822SOL    HW1 2465   1.486   2.540   2.042 -1.0236 -1.2040  0.8382
  822SOL    HW2 2466   1.411   2.432   2.133  1.3695 -1.9615 -0.8381
  823SOL     OW 2467   0.627   1.217   2.145 -0.2904 -0.0993  0.4187
  823SOL    HW1 2468   0.667   1.279   2.066 -1.2352 -0.0903 -2.5887
  823SOL    HW2 2469   0.705   1.167   2.197 -0.5420  1.4289 -0.6813
  824SOL     OW 2470   2.248   3.063   1.840  0.2719 -0.1162  0.1458
  824SOL    HW1 2471   2.308   3.038   1.766 -1.0000 -3.6196  0.6921
  824SOL    HW2 2472   2.192   0.033   1.823  0.0727  1.3349  0.6780
  825SOL     OW 2473   0.824   1.462   0.299 -0.4312 -0.1909 -0.1287
  825SOL    HW1 2474   0.828   1.560   0.273  0.6016 -1.2234  3.1642
  825SOL    HW2 2475   0.845   1.406   0.221 -0.8081  0.2941  0.3240
  826SOL     OW 2476   2.208   0.487   2.615  0.1382  0.0658 -0.4066
  826SOL    HW1 2477   2.199   0.586   2.632  0.1256  0.3043  0.0875
  826SOL    HW2 2478   2.151   0.429   2.674  1.2498  1.6470  3.3058
  827SOL     OW 2479   0.424   2.193   2.870 -0.1500 -0.5520  0.1337
  827SOL    HW1 2480   0.493   2.260   2.906 -1.0363  3.0003 -0.4522
  827SOL    HW2 2481   0.453   2.169   2.776  2.4531 -0.5266 -1.0831
  828SOL     OW 2482   2.809   0.206   1.235 -0.2543 -0.2538  0.2614
  828SOL    HW1 2483   2.715   0.210   1.270 -1.7788 -1.4090 -0.9297
  828SOL    HW2 2484   2.875   0.254   1.293  0.5035 -0.4865  0.3996
  829SOL     OW 2485   1.151   1.459   1.099 -0.4959  0.1163  0.6829
  829SOL    HW1 2486   1.149   1.557   1.133 -0.4273  2.0068  2.8982
  829SOL    HW2 2487   1.219   1.409   1.153  0.6302  1.3110  1.5058
  830SOL     OW 2488   0.267   1.303   1.710 -0.1114 -0.6682  0.5357
  830SOL    HW1 2489   0.186   1.365   1.693 -1.3484 -2.0633 -0.1159
  830SOL    HW2 2490   0.249   1.218   1.756  1.8390  0.6213 -0.1313
  831SOL     OW 2491   0.399   1.772   0.224  0.2923 -0.3088 -0.0090
  831SOL    HW1 2492   0.317   1.757   0.168 -1.5106 -1.0007  0.7585
  831SOL    HW2 2493   0.438   1.870   0.217  1.5737  0.5115 -2.4277
  832SOL     OW 2494   1.025   0.338   2.892 -0.5654 -0.1652  0.2226
  832SOL    HW1 2495   0.985   0.276   2.959  2.0130 -2.4571 -1.8668
  832SOL    HW2 2496   0.960   0.373   2.821  0.5063 -0.0289 -0.0436
  833SOL     OW 2497   0.018   0.662   1.835 -0.3266 -0.0483  0.0512
  833SOL    HW1 2498   0.088   0.707   1.775  2.6317  0.3574  0.2795
  833SOL    HW2 2499   3.043   0.710   1.830  3.0486 -2.8890  2.8713
  834SOL     OW 2500   0.043   0.695   1.032 -0.8668 -0.2959 -0.0940
  834SOL    HW1 2501   0.091   0.748   0.956 -0.4159 -0.4369  0.2146
  834SOL    HW2 2502   3.066   0.652   1.014  1.2661 -1.8748 -0.2854
  835SOL     OW 2503   2.670   2.690   1.106  0.1876 -0.1333 -0.0310
  835SOL    HW1 2504   2.680   2.775   1.053  1.1269  0.1942 -0.7135
  835SOL    HW2 2505   2.677   2.708   1.204  2.3468  1.9635 -1.0169
  836SOL     OW 2506   0.404   1.970   3.016  0.0586  0.0101  0.3459
  836SOL    HW1 2507   0.462   1.973   3.099 -2.5684 -0.4545 -0.2997
  836SOL    HW2 2508   0.394   2.056   2.959 -1.3478  0.7489  2.2432
  837SOL     OW 2509   1.905   2.101   3.020  0.0005  0.1217  0.4611
  837SOL    HW1 2510   1.960   2.173   2.972  0.1141 -1.9940 -2.1142
  837SOL    HW2 2511   1.903   2.124   0.011  0.3498  3.7603  0.0131
  838SOL     OW 2512   2.661   1.185   2.153  0.0012 -0.1527 -0.3641
  838SOL    HW1 2513   2.617   1.151   2.236  2.3077  1.9486 -1.4210
  838SOL    HW2 2514   2.739   1.123   2.124 -1.3561  0.6718 -1.8315
  839SOL     OW 2515   1.091   1.072   0.531  0.8043 -0.3111  0.7949
  839SOL    HW1 2516   1.038   0.994   0.568  2.2271 -0.7116 -1.6128
  839SOL    HW2 2517   1.031   1.150   0.500 -0.6518 -1.5892 -1.9578
  840SOL     OW 2518   1.782   0.663   0.866  0.4590  0.0395  0.3918
  840SOL    HW1 2519   1.818   0.614   0.784 -0.8949 -0.7527 -0.8200
  840SOL    HW2 2520   1.682   0.669   0.851  1.0969  2.4367  2.6572
  841SOL     OW 2521   0.577   2.783   0.964 -0.5081 -0.0650 -0.2498
  841SOL    HW1 2522   0.582   2.863   1.025  1.1413 -1.9390  0.1805
  841SOL    HW2 2523   0.644   2.784   0.888 -1.0042  0.6560  2.8150
  842SOL     OW 2524   0.572   0.421   0.298 -0.3655 -0.0578  0.2160
  842SOL    HW1 2525   0.635   0.482   0.245 -1.2708  1.7104 -0.5945
  842SOL    HW2 2526   0.477   0.428   0.263  0.1604  0.3267  1.6152
  843SOL     OW 2527   0.469   0.561   1.763  0.2541  0.6818  0.1504
  843SOL    HW1 2528   0.511   0.656   1.767  2.2030  2.5192  1.6476
  843SOL    HW2 2529   0.378   0.562   1.809  1.9521 -2.4113  1.3015
  844SOL     OW 2530   1.626   2.565   0.024  0.3779 -0.0935 -0.0402
  844SOL    HW1 2531   1.630   2.633   3.055 -2.6567  1.7758 -1.7574
  844SOL    HW2 2532   1.579   2.478   0.000 -2.9842 -0.8670  0.1127
  845SOL     OW 2533   2.747   2.676   2.155 -0.3583 -0.0086  0.0213
  845SOL    HW1 2534   2.755   2.660   2.051 -0.1613 -0.8710 -3.0809
  845SOL    HW2 2535   2.808   2.753   2.184 -2.1861 -2.2320  0.4178
  846SOL     OW 2536   1.677   1.975   2.544  0.1738 -0.8233  0.1111
  846SOL    HW1 2537   1.712   1.954   2.640 -2.0940  0.3045  0.2323
  846SOL    HW2 2538   1.688   1.895   2.485 -1.1328  0.3674  0.9930
  847SOL     OW 2539   2.271   2.806   2.305 -0.1307  0.1669  0.2438
  847SOL    HW1 2540   2.373   2.790   2.314 -1.2743 -0.9096  1.5851
  847SOL    HW2 2541   2.255   2.884   2.243 -1.2784 -2.4146 -1.4112
  848SOL     OW 2542   0.547   0.123   0.466  0.0940  0.1041  0.4766
  848SOL    HW1 2543   0.459   0.156   0.429 -0.4871 -1.8718 -1.2536
  848SOL    HW2 2544   0.626   0.186   0.441  3.0610  2.7367  1.0406
  849SOL     OW 2545   0.727   2.874   1.471  0.2538  0.1465 -0.4990
  849SOL    HW1 2546   0.736   2.771   1.485  1.4470  0.2519 -0.7733
  849SOL    HW2 2547   0.802   2.927   1.516 -0.6140  1.3195 -2.1842
  850SOL     OW 2548   0.211   1.130   0.511 -1.2013 -0.2512  0.0973
  850SOL    HW1 2549   0.144   1.187   0.565  1.8007  5.2676 -0.5259
  850SOL    HW2 2550   0.278   1.198   0.469  4.5151  3.5809 -1.6614
  851SOL     OW 2551   0.015   0.503   2.863  1.2041  0.5000  0.9006
  851SOL    HW1 2552   0.114   0.517   2.850 -1.1267  1.7183 -1.0063
  851SOL    HW2 2553   3.090   0.427   2.801 -0.5534 -2.0588  2.1756
  852SOL     OW 2554   1.645   2.112   1.927 -0.2188  0.3457 -0.0304
  852SOL    HW1 2555   1.578   2.038   1.909 -0.9180 -0.4822 -0.3877
  852SOL    HW2 2556   1.687   2.092   2.017  0.8708 -3.2456  1.9047
  853SOL     OW 2557   0.658   2.014   0.577 -0.4863 -0.1553 -0.3194
  853SOL    HW1 2558   0.703   1.986   0.663  4.2031 -1.5180  3.7925
  853SOL    HW2 2559   0.710   2.082   0.520 -0.4226  1.4467 -1.5233
  854SOL     OW 2560   1.542   1.084   1.376 -0.6102 -0.5738 -0.2810
  854SOL    HW1 2561   1.495   1.165   1.411  1.9386  1.0145  0.7081
  854SOL    HW2 2562   1.618   1.108   1.311  0.3089  0.4050 -1.5113
  855SOL     OW 2563   0.514   2.006   0.170 -0.8550  0.2890 -0.2957
  855SOL    HW1 2564   0.615   2.005   0.155 -1.1978  0.5858  1.0179
  855SOL    HW2 2565   0.479   2.099   0.174 -0.1372 -2.1197  2.6434
  856SOL     OW 2566   3.025   0.149   1.867  0.0322  0.0876  0.3684
  856SOL    HW1 2567   3.028   0.051   1.901  0.0787 -0.5033  2.2994
  856SOL    HW2 2568   3.043   0.216   1.943  1.1886 -1.6538  2.1355
  857SOL     OW 2569   0.384   0.252   1.927 -0.0607 -0.0125 -0.3659
  857SOL    HW1 2570   0.328   0.191   1.866 -2.3493  0.3143  2.7169
  857SOL    HW2 2571   0.331   0.339   1.938  0.7094  0.2870 -1.9872
  858SOL     OW 2572   2.997   1.992   2.122 -0.1383 -0.2309 -0.3055
  858SOL    HW1 2573   2.912   1.938   2.141  3.1303 -0.5332 -2.5331
  858SOL    HW2 2574   3.066   1.959   2.191  2.8680  0.2658 -1.2729
  859SOL     OW 2575   2.247   2.695   0.642  0.4492 -0.2835 -0.0605
  859SOL    HW1 2576   2.343   2.680   0.613  1.0888 -1.2051 -0.0203
  859SOL    HW2 2577   2.192   2.612   0.624 -0.9669 -0.2898 -0.2902
  860SOL     OW 2578   1.973   0.359   0.173 -0.4509 -0.4201 -0.1474
  860SOL    HW1 2579   2.051   0.296   0.164 -2.0402  2.7530 -0.7692
  860SOL    HW2 2580   1.891   0.316   0.133  2.7768  2.0920 -0.2339
  861SOL     OW 2581   0.457   0.503   0.737 -0.4790  0.3765 -0.0587
  861SOL    HW1 2582   0.362   0.523   0.714  0.9516 -0.3735  3.0926
  861SOL    HW2 2583   0.469   0.539   0.833 -0.5817  0.4323 -1.0870
  862SOL     OW 2584   2.215   0.491   1.555 -0.7763  0.6626  0.3442
  862SOL    HW1 2585   2.176   0.401   1.526  0.2262  0.8497 -1.9271
  862SOL    HW2 2586   2.204   0.564   1.485  1.6451 -1.2771  0.0176
  863SOL     OW 2587   0.533   1.378   1.274  0.1390  0.1385 -0.1423
  863SOL    HW1 2588   0.559   1.340   1.182  1.6090  0.4671 -0.7242
  863SOL    HW2 2589   0.603   1.377   1.347  0.3735  0.5130  2.8351
  864SOL     OW 2590   2.512   0.075   1.961  0.1248 -0.2281  0.5963
  864SOL    HW1 2591   2.423   0.085   1.913 -1.3956  1.8137 -1.5213
  864SOL    HW2 2592   2.540   3.087   1.967 -0.5870 -1.5648 -1.4497
  865SOL     OW 2593   1.582   0.424   1.619 -0.4109  0.2299  0.1036
  865SOL    HW1 2594   1.588   0.322   1.593 -0.0271 -0.1525 -2.2374
  865SOL    HW2 2595   1.532   0.451   1.704  1.9033 -0.6136 -1.3386
  866SOL     OW 2596   2.725   2.881   0.711 -0.0668 -0.1727 -0.2048
  866SOL    HW1 2597   2.755   2.784   0.696  2.6114  0.5463 -1.9758
  866SOL    HW2 2598   2.649   2.910   0.649  1.3047 -1.2792 -1.3208
  867SOL     OW 2599   2.602   2.297   0.558  0.4892 -0.3542 -0.2838
  867SOL    HW1 2600   2.619   2.302   0.659  1.6064  0.7761 -1.5499
  867SOL    HW2 2601   2.632   2.374   0.498 -0.2928  0.6717 -0.7725
  868SOL     OW 2602   1.467   2.076   2.407 -0.1099 -0.2640 -0.0707
  868SOL    HW1 2603   1.379   2.023   2.411 -0.5853  2.8059 -2.8033
  868SOL    HW2 2604   1.543   2.031   2.458 -1.5823 -2.0801  0.2393
  869SOL     OW 2605   2.378   1.454   0.475  0.1676 -0.3112  0.2174
  869SOL    HW1 2606   2.291   1.487   0.439  4.1478  0.2379  2.1925
  869SOL    HW2 2607   2.358   1.372   0.531  2.4347 -1.2102 -1.0954
  870SOL     OW 2608   2.634   1.653   0.274  0.1952 -0.3627 -0.6662
  870SOL    HW1 2609   2.596   1.601   0.200  0.5615  1.5588  2.4094
  870SOL    HW2 2610   2.685   1.735   0.246  2.1771  0.4885  0.0118
  871SOL     OW 2611   3.010   0.683   1.485  0.1339 -0.0829 -0.0162
  871SOL    HW1 2612   3.040   0.745   1.407  0.2334 -1.7515 -1.2584
  871SOL    HW2 2613   2.955   0.734   1.558 -2.2180 -0.3594 -1.8109
  872SOL     OW 2614   0.614   1.861   2.618  0.1059 -0.0197  0.7492
  872SOL    HW1 2615   0.617   1.805   2.702  0.7334 -0.8034 -0.6333
  872SOL    HW2 2616   0.667   1.816   2.548 -1.3675 -1.0305  1.6849
  873SOL     OW 2617   0.507   2.643   1.824 -0.1641  0.4870  0.0512
  873SOL    HW1 2618   0.602   2.626   1.858  1.2566  0.1006 -0.2606
  873SOL    HW2 2619   0.504   2.723   1.762 -0.7518 -1.9513  2.0096
  874SOL     OW 2620   1.162   0.972   2.217  0.1866 -0.4368 -0.1693
  874SOL    HW1 2621   1.181   1.036   2.299 -0.6892  0.9948  1.4527
  874SOL    HW2 2622   1.194   0.878   2.239 -2.0511  0.5336 -0.2145
  875SOL     OW 2623   2.756   2.709   1.436 -0.0549 -0.0690  0.3686
  875SOL    HW1 2624   2.773   2.609   1.452 -0.5120 -0.7517  0.6136
  875SOL    HW2 2625   2.823   2.766   1.485 -1.9700  1.2736 -0.1987
  876SOL     OW 2626   0.975   1.233   0.822  0.0334  0.1480  0.5166
  876SOL    HW1 2627   0.937   1.141   0.834 -1.8169  2.8530 -1.1278
  876SOL    HW2 2628   0.899   1.299   0.828  1.5960 -1.2634 -0.2287
  877SOL     OW 2629   0.739   0.448   1.432 -0.5456 -0.2903  0.3883
  877SOL    HW1 2630   0.662   0.478   1.493  0.9312  1.5502  0.8077
  877SOL    HW2 2631   0.770   0.355   1.451 -0.3373  1.0758 -1.7297
  878SOL     OW 2632   2.638   1.760   2.904 -0.5405  0.1816  0.0199
  878SOL    HW1 2633   2.630   1.668   2.946  0.2189 -2.5257 -1.3718
  878SOL    HW2 2634   2.605   1.765   2.809  1.4099  0.5479  1.2533
  879SOL     OW 2635   2.249   1.954   1.666 -0.2015  0.1351 -0.0048
  879SOL    HW1 2636   2.281   2.043   1.706 -0.0854  0.9575  0.3794
  879SOL    HW2 2637   2.209   1.976   1.574  0.3789  0.2315 -0.7636
  880SOL     OW 2638   1.002   2.343   1.237  0.6346 -0.2023  0.1104
  880SOL    HW1 2639   1.060   2.311   1.315 -0.8590  0.5244 -1.0984
  880SOL    HW2 2640   1.053   2.328   1.150 -1.2479  0.0853 -2.6535
  881SOL     OW 2641   1.148   1.903   0.988  0.1201 -0.0328 -0.2733
  881SOL    HW1 2642   1.161   1.966   0.907 -0.9879  0.3354 -0.1194
  881SOL    HW2 2643   1.084   1.825   0.961  0.6993 -1.3283 -0.1686
  882SOL     OW 2644   1.885   1.692   2.601 -0.0908 -0.2280 -0.7915
  882SOL    HW1 2645   1.974   1.711   2.642 -3.8908  0.8818 -1.1309
  882SOL    HW2 2646   1.894   1.680   2.500 -3.4522 -1.3565  1.1498
  883SOL     OW 2647   1.377   0.516   1.168 -0.2582  0.2524 -0.2474
  883SOL    HW1 2648   1.332   0.589   1.112 -1.7269 -3.1577 -0.8518
  883SOL    HW2 2649   1.442   0.465   1.110 -0.9857  0.3279  0.0475
  884SOL     OW 2650   2.988   3.011   1.038  0.4991  0.7316 -0.2516
  884SOL    HW1 2651   3.047   2.971   0.965  1.5302 -0.0971  0.1462
  884SOL    HW2 2652   2.893   2.993   1.014  0.9148 -1.3145 -2.2942
  885SOL     OW 2653   1.021   1.341   2.130 -0.6061 -0.4262 -0.0833
  885SOL    HW1 2654   0.958   1.334   2.050  0.2429  2.2783  1.4625
  885SOL    HW2 2655   1.118   1.352   2.091  1.3805 -1.4894 -2.7436
  886SOL     OW 2656   1.023   1.189   2.928  0.3631 -0.2273 -0.2378
  886SOL    HW1 2657   0.926   1.188   2.896  1.2564  0.0028  0.7516
  886SOL    HW2 2658   1.082   1.118   2.890  0.2077  1.2783  1.9570
  887SOL     OW 2659   1.588   0.126   0.819  0.4237 -0.4073  0.0345
  887SOL    HW1 2660   1.635   0.145   0.729  3.2804 -3.0306  3.8840
  887SOL    HW2 2661   1.568   0.027   0.830  0.5603  2.1189  4.3918
  888SOL     OW 2662   1.979   1.041   2.089  0.1712  0.2374  0.2162
  888SOL    HW1 2663   1.942   1.008   2.178  0.8088  1.1548 -0.1368
  888SOL    HW2 2664   1.906   1.040   2.020  1.0204  0.1931  1.5865
  889SOL     OW 2665   0.013   1.944   0.917  0.5664 -0.2400  0.2942
  889SOL    HW1 2666   0.029   2.035   0.882 -0.2532 -1.6793 -0.2464
  889SOL    HW2 2667   3.042   1.948   0.978  1.0304  1.9499  1.7257
  890SOL     OW 2668   1.380   2.446   0.405 -0.0885  0.3597  0.4499
  890SOL    HW1 2669   1.292   2.450   0.454  0.3850  1.2232  0.0947
  890SOL    HW2 2670   1.403   2.534   0.360 -1.8915  0.0850  0.3354
  891SOL     OW 2671   2.974   0.609   2.457  0.1478 -0.0903 -0.2325
  891SOL    HW1 2672   2.889   0.603   2.408  1.0538  2.0600 -0.4296
  891SOL    HW2 2673   2.999   0.708   2.483  1.4694 -1.1576  0.2702
  892SOL     OW 2674   3.068   2.428   1.452 -0.3383  0.1692  0.6309
  892SOL    HW1 2675   0.010   2.422   1.367 -1.2556 -0.4018 -0.8818
  892SOL    HW2 2676   3.047   2.331   1.478 -0.1163 -1.2263  0.6765
  893SOL     OW 2677   1.245   0.212   1.496 -0.3262 -0.1174 -0.0743
  893SOL    HW1 2678   1.331   0.199   1.442  0.8973  1.3264 -0.5442
  893SOL    HW2 2679   1.192   0.292   1.466 -1.4412 -0.4216 -1.2837
  894SOL     OW 2680   2.725   2.918   0.974 -0.6027 -0.3801 -0.4212
  894SOL    HW1 2681   2.729   2.907   0.874 -1.7031  0.0205 -0.7214
  894SOL    HW2 2682   2.648   2.981   0.995 -3.4258 -0.9734 -1.8091
  895SOL     OW 2683   1.668   2.066   2.210 -0.0495 -0.1334  0.1656
  895SOL    HW1 2684   1.734   1.990   2.221  0.1001  0.6246 -2.2378
  895SOL    HW2 2685   1.594   2.068   2.281  0.6271 -0.3172  0.8540
  896SOL     OW 2686   1.926   0.468   1.331 -0.0954 -0.1943 -0.0014
  896SOL    HW1 2687   1.979   0.552   1.352  1.3197 -1.7504 -1.5285
  896SOL    HW2 2688   1.895   0.484   1.233 -1.0900  1.4132 -0.2204
  897SOL     OW 2689   0.446   1.532   1.759 -0.3477  0.5600 -0.0509
  897SOL    HW1 2690   0.379   1.450   1.745 -2.9454  2.5648 -0.0932
  897SOL    HW2 2691   0.456   1.554   1.862  0.3438 -0.7502  1.3937
  898SOL     OW 2692   1.778   2.310   2.165 -0.4644 -0.2891  0.3015
  898SOL    HW1 2693   1.726   2.225   2.192 -0.2195  0.1152  2.5317
  898SOL    HW2 2694   1.749   2.390   2.214 -0.6233 -1.9189 -0.3551
  899SOL     OW 2695   1.371   2.141   0.744 -0.5569  0.1607  0.2776
  899SOL    HW1 2696   1.399   2.213   0.679 -1.1931  0.6113  1.2874
  899SOL    HW2 2697   1.399   2.160   0.841  2.3483 -1.5962  0.9194
  900SOL     OW 2698   0.976   3.047   2.571  0.1661 -0.3441 -0.4436
  900SOL    HW1 2699   0.882   3.037   2.612  0.2475  1.0595  0.6324
  900SOL    HW2 2700   0.973   0.006   2.493 -1.7584 -2.3171 -2.7804
  901SOL     OW 2701   1.061   1.572   2.270 -0.2511 -0.0969 -0.2370
  901SOL    HW1 2702   1.011   1.492   2.218 -0.8420 -2.3514 -2.3022
  901SOL    HW2 2703   1.089   1.536   2.362  1.0911 -0.2039  0.1243
  902SOL     OW 2704   1.956   0.801   3.074 -0.1663 -0.2442  0.4362
  902SOL    HW1 2705   1.881   0.861   3.036  0.5335 -0.1975 -0.0492
  902SOL    HW2 2706   1.968   0.831   0.058  0.8461 -0.4280 -1.7913
  903SOL     OW 2707   1.822   1.096   2.713 -0.1146 -0.3112 -0.1741
  903SOL    HW1 2708   1.838   1.182   2.766  0.1985 -2.0037 -1.3016
  903SOL    HW2 2709   1.795   1.119   2.617  0.1827  0.5441 -2.0972
  904SOL     OW 2710   1.548   1.228   1.710 -0.2506 -0.3798 -0.0485
  904SOL    HW1 2711   1.519   1.148   1.771  1.5307 -2.0664 -1.0757
  904SOL    HW2 2712   1.473   1.295   1.691 -1.1225 -0.8110 -1.7519
  905SOL     OW 2713   2.558   0.497   0.935 -0.1515 -0.1371 -0.1205
  905SOL    HW1 2714   2.473   0.442   0.926 -1.1435  2.3686 -2.7951
  905SOL    HW2 2715   2.627   0.453   0.996 -0.1566  0.8904 -0.2983
  906SOL     OW 2716   0.387   1.541   0.617  0.0761  0.3098 -0.2748
  906SOL    HW1 2717   0.292   1.531   0.641  4.6391  0.3347  2.8712
  906SOL    HW2 2718   0.430   1.606   0.683 -0.3708  1.4358  0.8130
  907SOL     OW 2719   1.503   0.258   0.509  0.2722 -0.1155 -0.0573
  907SOL    HW1 2720   1.431   0.272   0.581  3.2086  0.4416 -0.9760
  907SOL    HW2 2721   1.567   0.333   0.490  0.4582  1.0484  0.0971
  908SOL     OW 2722   1.488   2.743   1.743 -0.4052  0.2805 -0.1728
  908SOL    HW1 2723   1.569   2.750   1.680  2.2627  0.4325 -2.0702
  908SOL    HW2 2724   1.516   2.687   1.827  0.6937  0.2183 -1.6671
  909SOL     OW 2725   2.447   0.829   1.785  0.1972 -0.3472  0.4432
  909SOL    HW1 2726   2.384   0.780   1.851  1.3182 -0.2649 -0.9732
  909SOL    HW2 2727   2.435   0.932   1.785  0.0532  0.6225 -1.0680
  910SOL     OW 2728   1.301   0.087   2.385 -0.2593  0.2993 -0.4389
  910SOL    HW1 2729   1.340   0.151   2.458 -0.0845  1.3226  0.5313
  910SOL    HW2 2730   1.196   0.073   2.400  1.3112 -3.4551  0.7826
  911SOL     OW 2731   2.319   1.392   2.407  0.0684 -0.2358  0.1666
  911SOL    HW1 2732   2.322   1.457   2.327 -1.4320  1.4930  0.0824
  911SOL    HW2 2733   2.259   1.310   2.387  2.0951  2.2941  1.2350
  912SOL     OW 2734   2.455   1.991   1.307 -0.2054  0.1067 -0.0497
  912SOL    HW1 2735   2.525   1.993   1.380 -0.0371  0.3287  2.2423
  912SOL    HW2 2736   2.412   2.085   1.300  1.6839  1.3256 -1.0927
  913SOL     OW 2737   2.578   2.101   1.822  0.0061  0.2002 -0.0885
  913SOL    HW1 2738   2.623   2.180   1.868  1.2337  1.8866 -0.9626
  913SOL    HW2 2739   2.481   2.128   1.802  0.8051  0.4276 -3.9458
  914SOL     OW 2740   2.027   2.007   0.698 -0.5139 -0.2962 -0.0448
  914SOL    HW1 2741   2.092   2.028   0.770 -0.9806 -0.3973 -2.2389
  914SOL    HW2 2742   2.034   1.904   0.688  0.9931 -1.3646  0.8363
  915SOL     OW 2743   1.127   2.468   1.943 -0.1639 -0.2994 -0.2003
  915SOL    HW1 2744   1.058   2.540   1.962 -2.5312 -0.6175 -1.4717
  915SOL    HW2 2745   1.202   2.483   2.013 -0.1975  0.5945  1.6556
  916SOL     OW 2746   0.118   2.142   0.758 -0.1518 -0.1382 -0.3679
  916SOL    HW1 2747   0.192   2.206   0.777  0.7956  0.3430 -0.6133
  916SOL    HW2 2748   0.132   2.107   0.664 -0.3745  0.7723  2.8276
  917SOL     OW 2749   2.756   1.077   2.836  0.4913 -0.2361  0.5720
  917SOL    HW1 2750   2.706   0.992   2.838  1.0253  3.5797  0.5955
  917SOL    HW2 2751   2.829   1.080   2.767 -2.2834 -0.7963 -2.8626
  918SOL     OW 2752   1.548   2.332   2.382  0.5522  0.2524 -0.5825
  918SOL    HW1 2753   1.545   2.380   2.296 -0.9766  2.2221 -0.0868
  918SOL    HW2 2754   1.503   2.240   2.390  0.0395  1.2606  0.3908
  919SOL     OW 2755   1.807   2.072   0.812 -0.0067 -0.0821  0.3523
  919SOL    HW1 2756   1.729   2.024   0.774  1.4414 -2.5202 -0.8398
  919SOL    HW2 2757   1.891   2.036   0.767 -0.4505 -0.9551  3.2382
  920SOL     OW 2758   1.286   0.579   2.549 -0.6881 -0.6021  0.5015
  920SOL    HW1 2759   1.310   0.641   2.473  0.9439 -0.5011  2.1952
  920SOL    HW2 2760   1.195   0.534   2.536  0.8026 -1.1624 -0.5593
  921SOL     OW 2761   3.061   0.338   2.658 -0.6541  0.5815 -0.0160
  921SOL    HW1 2762   0.000   0.378   2.574  0.1217  2.1960 -2.5474
  921SOL    HW2 2763   3.050   0.236   2.657 -3.3735 -0.4809 -0.0496
  922SOL     OW 2764   2.692   1.707   1.668 -0.1503  0.0939  0.0288
  922SOL    HW1 2765   2.596   1.718   1.638  1.0042  0.4423 -2.2363
  922SOL    HW2 2766   2.723   1.613   1.647  0.4296  3.5905  1.1419
  923SOL     OW 2767   0.420   1.821   2.414  0.0396  0.0154  0.4136
  923SOL    HW1 2768   0.445   1.881   2.333 -1.5392 -1.4463  1.2889
  923SOL    HW2 2769   0.469   1.854   2.498 -2.2721 -1.8195 -0.3522
  924SOL     OW 2770   1.680   0.439   2.180  0.3752  0.1154 -0.4548
  924SOL    HW1 2771   1.650   0.422   2.275  2.5182 -0.7672  0.7626
  924SOL    HW2 2772   1.738   0.517   2.167 -0.7054 -1.7910  0.0506
  925SOL     OW 2773   0.053   0.968   0.029  0.2295  0.0524 -0.1417
  925SOL    HW1 2774   0.021   0.916   3.057 -2.1825 -0.1651  1.2560
  925SOL    HW2 2775   3.078   1.008   0.063  0.5819  0.9229  0.7085
  926SOL     OW 2776   2.598   0.097   0.812 -0.4401  0.9485 -0.5887
  926SOL    HW1 2777   2.636   0.166   0.873 -3.0161 -0.2178 -1.1941
  926SOL    HW2 2778   2.567   0.017   0.864  1.5383 -0.6494 -0.5358
  927SOL     OW 2779   1.133   0.941   0.942 -0.0883 -0.4172  0.5066
  927SOL    HW1 2780   1.151   0.983   0.852  1.1601 -0.4510  2.6207
  927SOL    HW2 2781   1.054   0.882   0.945  4.3308  1.1924 -1.9067
  928SOL     OW 2782   3.098   0.335   2.049  0.1702  0.3194  0.8247
  928SOL    HW1 2783   3.077   0.286   2.139 -2.4573 -1.2785  1.9988
  928SOL    HW2 2784   3.030   0.409   2.032  2.0249  0.9090 -0.5171
  929SOL     OW 2785   2.568   0.873   1.448 -0.1000 -0.2561  0.4211
  929SOL    HW1 2786   2.650   0.888   1.390 -0.4398  0.5347 -1.1782
  929SOL    HW2 2787   2.589   0.802   1.517 -1.6264 -0.4009  0.7448
  930SOL     OW 2788   1.944   2.553   1.010 -0.4129 -0.1286  0.2779
  930SOL    HW1 2789   1.899   2.557   0.919 -0.5847  2.1022 -1.0714
  930SOL    HW2 2790   2.015   2.627   1.021  4.3823 -0.4374 -0.2806
  931SOL     OW 2791   1.983   1.063   1.224  0.7453  0.1305  0.9690
  931SOL    HW1 2792   1.999   0.996   1.145  0.3328  1.4430  2.2802
  931SOL    HW2 2793   2.053   1.137   1.215  0.4549  0.7621 -1.8573
  932SOL     OW 2794   3.102   0.828   1.258  0.0691 -0.1217 -0.1229
  932SOL    HW1 2795   3.051   0.912   1.219 -1.4297 -2.6630 -3.8043
  932SOL    HW2 2796   0.016   0.764   1.178 -0.0252 -1.5414 -1.6584
  933SOL     OW 2797   2.187   1.741   2.159  0.3955 -0.1661  0.2308
  933SOL    HW1 2798   2.096   1.715   2.193 -0.2809  0.8533 -0.1135
  933SOL    HW2 2799   2.185   1.750   2.055 -1.1278  0.6503 -1.9520
  934SOL     OW 2800   1.562   2.822   1.433 -0.0016  0.3819 -0.4548
  934SOL    HW1 2801   1.488   2.753   1.420  0.7039 -1.7891  2.0219
  934SOL    HW2 2802   1.525   2.914   1.469 -2.7039  0.4753  1.5709
  935SOL     OW 2803   0.445   0.822   1.530  0.5581  0.8333 -0.3990
  935SOL    HW1 2804   0.445   0.919   1.495 -1.2144  0.6261  0.2666
  935SOL    HW2 2805   0.492   0.817   1.618 -4.4718  0.3526  0.8681
  936SOL     OW 2806   2.523   0.618   1.250 -0.2000  0.3936  0.0345
  936SOL    HW1 2807   2.517   0.570   1.338 -0.5146 -0.1786  0.6101
  936SOL    HW2 2808   2.483   0.707   1.257 -1.6339 -2.9084  1.3830
  937SOL     OW 2809   1.022   0.027   1.510  0.0560  0.0501  0.4549
  937SOL    HW1 2810   0.944   0.082   1.464 -0.1338 -0.5941 -2.8869
  937SOL    HW2 2811   1.097   0.093   1.536  0.6352 -0.6807  1.2031
  938SOL     OW 2812   2.979   2.277   0.807  0.5325  0.2465 -0.4283
  938SOL    HW1 2813   2.989   2.326   0.897 -0.8331 -1.5585 -0.2358
  938SOL    HW2 2814   3.063   2.222   0.792  1.4376 -0.3668  0.7055
  939SOL     OW 2815   3.093   1.934   2.537  0.6215 -0.1880  0.2969
  939SOL    HW1 2816   0.026   1.935   2.442 -0.8576 -1.1445 -1.3060
  939SOL    HW2 2817   0.046   1.985   2.597  1.6785  0.1366  0.8118
  940SOL     OW 2818   2.034   2.322   2.887  0.5941 -0.0351  0.7062
  940SOL    HW1 2819   1.962   2.394   2.878  0.8533  4.4562  1.2404
  940SOL    HW2 2820   2.081   2.311   2.800 -0.1717  1.2821  2.4281
  941SOL     OW 2821   1.740   2.638   0.437  0.0631 -0.0654 -0.4543
  941SOL    HW1 2822   1.784   2.619   0.529  2.2317 -0.1151  0.3630
  941SOL    HW2 2823   1.793   2.704   0.383 -0.7961 -2.0458  3.6343
  942SOL     OW 2824   1.628   1.920   1.151 -0.4448  0.4486  0.1274
  942SOL    HW1 2825   1.680   1.990   1.099 -1.1683 -1.3470  1.2390
  942SOL    HW2 2826   1.570   1.969   1.216 -1.0126  1.0428  0.2885
  943SOL     OW 2827   1.801   0.977   1.901  0.4792 -0.0190 -0.2704
  943SOL    HW1 2828   1.720   0.937   1.863  0.3243  2.8248  0.1782
  943SOL    HW2 2829   1.881   0.938   1.851 -0.8886 -0.6263 -1.7389
  944SOL     OW 2830   1.795   0.571   1.702 -0.0846 -0.2382 -0.3784
  944SOL    HW1 2831   1.737   0.518   1.633 -2.1423  1.5078  3.6400
  944SOL    HW2 2832   1.845   0.497   1.757  1.6014 -1.2107 -1.2464
  945SOL     OW 2833   2.636   2.318   1.299 -0.1351 -0.0231  0.0171
  945SOL    HW1 2834   2.648   2.381   1.219 -0.5346 -0.7289 -0.4713
  945SOL    HW2 2835   2.672   2.363   1.386  2.4447 -0.8790 -0.9692
  946SOL     OW 2836   0.505   1.194   1.625 -0.2290 -0.3427  0.0553
  946SOL    HW1 2837   0.466   1.139   1.553  0.1942  1.2490  0.9216
  946SOL    HW2 2838   0.433   1.254   1.663 -3.1116 -0.1104 -0.8351
  947SOL     OW 2839   0.577   2.447   0.781  0.1261  0.0143  0.4478
  947SOL    HW1 2840   0.526   2.412   0.861 -3.2775  0.4305 -0.7240
  947SOL    HW2 2841   0.543   2.399   0.700  2.1276  0.4258  1.4250
  948SOL     OW 2842   0.023   1.528   1.933  0.2429  0.4929  0.6082
  948SOL    HW1 2843   0.103   1.490   1.986 -0.7450  0.4903  1.0939
  948SOL    HW2 2844   0.012   1.632   1.942 -0.5032 -0.1736  0.8390
  949SOL     OW 2845   0.721   0.728   2.325  0.3428  0.2938 -0.2959
  949SOL    HW1 2846   0.767   0.797   2.384 -1.8192 -3.9300  1.2149
  949SOL    HW2 2847   0.664   0.776   2.255  1.8434  0.6550 -1.4293
  950SOL     OW 2848   0.252   0.542   1.154  0.3726  0.0907  0.4298
  950SOL    HW1 2849   0.185   0.610   1.128  1.6717  0.1630  2.1565
  950SOL    HW2 2850   0.215   0.451   1.170 -0.8520  3.3282 -0.2605
  951SOL     OW 2851   1.052   1.874   2.202 -0.2568  0.0139  0.3450
  951SOL    HW1 2852   1.000   1.787   2.224 -0.0281 -0.9124 -2.0305
  951SOL    HW2 2853   1.073   1.878   2.101 -0.6754 -3.1235 -0.2489
  952SOL     OW 2854   1.123   1.683   2.987  0.3106  0.1587 -0.2557
  952SOL    HW1 2855   1.186   1.695   2.907 -0.2393 -1.1857 -2.2917
  952SOL    HW2 2856   1.170   1.637   3.069 -0.7368  2.1275 -0.7557
  953SOL     OW 2857   1.172   3.057   2.755 -0.1886  0.1501 -0.2407
  953SOL    HW1 2858   1.089   3.069   2.695  1.6107 -0.1105  1.3248
  953SOL    HW2 2859   1.212   0.038   2.767 -0.0003  1.1927  2.9171
  954SOL     OW 2860   2.127   1.511   0.389  0.7062  0.7734  0.3816
  954SOL    HW1 2861   2.056   1.586   0.392 -1.4562 -1.7113  2.8316
  954SOL    HW2 2862   2.093   1.436   0.329  2.2652  1.3170 -0.2000
  955SOL     OW 2863   0.236   2.661   2.914  0.3905 -0.0546 -0.0056
  955SOL    HW1 2864   0.230   2.631   2.817 -1.5659 -0.1217 -2.2286
  955SOL    HW2 2865   0.230   2.584   2.981 -0.4093 -1.5861  0.5254
  956SOL     OW 2866   1.074   0.982   1.729 -0.0581  0.7854  0.9265
  956SOL    HW1 2867   1.074   0.881   1.715 -0.2569 -0.5655  0.7900
  956SOL    HW2 2868   1.156   1.013   1.683 -0.8433 -0.4668  1.0421
  957SOL     OW 2869   1.942   1.664   2.308 -0.8632  0.1972 -0.2818
  957SOL    HW1 2870   1.936   1.568   2.341 -1.2218 -2.1948 -0.3581
  957SOL    HW2 2871   1.847   1.705   2.295 -0.8028  0.3695 -1.2981
  958SOL     OW 2872   1.553   2.378   1.316  0.6632 -0.2690  0.1381
  958SOL    HW1 2873   1.471   2.435   1.321  0.1252 -0.7536  1.2434
  958SOL    HW2 2874   1.575   2.353   1.218 -0.5938 -1.9414  1.8741
  959SOL     OW 2875   1.125   1.727   1.261  0.1432  0.0431  0.0953
  959SOL    HW1 2876   1.123   1.826   1.246 -1.2317  2.2878  1.7017
  959SOL    HW2 2877   1.208   1.700   1.312  0.2956 -1.5093 -1.3637
  960SOL     OW 2878   0.142   1.251   2.950  0.2903 -0.0807  0.2466
  960SOL    HW1 2879   0.162   1.153   2.934 -1.1243  1.4299 -0.6115
  960SOL    HW2 2880   0.187   1.314   2.881 -0.2163 -3.3141 -0.4959
  961SOL     OW 2881   0.468   0.863   2.188 -0.2375  0.7381 -0.0853
  961SOL    HW1 2882   0.459   0.893   2.286 -0.9502  2.3986  2.3654
  961SOL    HW2 2883   0.429   0.935   2.123 -0.4894 -0.9631  0.5193
  962SOL     OW 2884   1.334   1.764   0.544  0.1268  0.0116 -0.1389
  962SOL    HW1 2885   1.240   1.803   0.529  1.0440 -1.6527  1.5718
  962SOL    HW2 2886   1.351   1.757   0.645 -0.6241  1.6290 -1.8954
  963SOL     OW 2887   1.208   2.340   2.520 -0.1080  0.2725 -0.8859
  963SOL    HW1 2888   1.203   2.277   2.442 -0.3345 -0.7890 -1.2245
  963SOL    HW2 2889   1.280   2.316   2.587  0.8758 -2.3458 -0.7966
  964SOL     OW 2890   0.863   2.986   0.583 -0.6274 -0.3161 -0.2076
  964SOL    HW1 2891   0.775   3.038   0.591 -1.3210 -0.2992 -0.7275
  964SOL    HW2 2892   0.882   2.972   0.482  2.5690 -0.9195 -1.6544
  965SOL     OW 2893   0.624   3.029   1.109  0.0304  0.0842 -0.3253
  965SOL    HW1 2894   0.703   3.094   1.118 -0.7704  1.8620 -0.9858
  965SOL    HW2 2895   0.576   3.030   1.201 -1.2534 -1.3638  4.6497
  966SOL     OW 2896   0.182   1.379   0.188  0.4845  0.6304  0.1595
  966SOL    HW1 2897   0.129   1.383   0.273  3.7178  1.1789 -1.7081
  966SOL    HW2 2898   0.249   1.302   0.189 -1.9790  3.0440  1.9953
  967SOL     OW 2899   1.056   2.805   2.380  0.2155  0.4361 -0.4702
  967SOL    HW1 2900   1.078   2.838   2.475  1.1515  0.1254  3.2326
  967SOL    HW2 2901   1.119   2.724   2.353  1.2114 -2.6831 -0.7992
  968SOL     OW 2902   2.154   0.586   0.155  0.3889 -0.1525  0.6186
  968SOL    HW1 2903   2.096   0.508   0.191 -0.3647 -1.0215  1.9489
  968SOL    HW2 2904   2.089   0.669   0.152 -2.7160  1.6204 -0.6220
  969SOL     OW 2905   0.155   1.755   2.122 -0.1951  0.0053 -0.6711
  969SOL    HW1 2906   0.137   1.802   2.039  0.9778 -0.9788  2.7156
  969SOL    HW2 2907   0.250   1.718   2.124  0.0951 -0.2126 -1.1411
  970SOL     OW 2908   2.228   1.511   1.242  0.4348 -0.1628  0.0597
  970SOL    HW1 2909   2.165   1.503   1.162 -2.9352  1.0969 -3.1287
  970SOL    HW2 2910   2.257   1.610   1.246 -1.6192  2.1687  1.6142
  971SOL     OW 2911   1.906   0.227   1.050  0.2076 -0.3279  0.0861
  971SOL    HW1 2912   1.987   0.239   1.112  0.2644  0.6890  2.8950
  971SOL    HW2 2913   1.934   0.255   0.949  1.5790 -0.0047 -4.2002
  972SOL     OW 2914   0.275   2.967   1.655  0.4432 -0.3237  0.0642
  972SOL    HW1 2915   0.214   3.048   1.651 -0.0310  0.7533  1.1740
  972SOL    HW2 2916   0.232   2.886   1.605  0.6171  0.7944 -0.9354
  973SOL     OW 2917   2.595   0.946   0.359 -0.5233 -0.4849 -0.4389
  973SOL    HW1 2918   2.574   0.912   0.265 -2.6515  1.4735 -0.7091
  973SOL    HW2 2919   2.563   1.046   0.362 -1.1156  1.7124  0.7378
  974SOL     OW 2920   1.674   1.751   2.372 -0.1175  0.0463  0.2447
  974SOL    HW1 2921   1.599   1.752   2.301  0.0087 -2.3341 -3.6924
  974SOL    HW2 2922   1.655   1.688   2.446 -1.7911 -0.9581 -2.9451
  975SOL     OW 2923   0.154   2.819   1.474  0.0839  0.0764  0.3354
  975SOL    HW1 2924   0.210   2.743   1.432 -0.7197 -0.8015 -0.7193
  975SOL    HW2 2925   0.129   2.897   1.410  0.9150  1.0306  1.6228
  976SOL     OW 2926   0.217   1.883   1.638  0.1091 -0.4251  0.1249
  976SOL    HW1 2927   0.190   1.977   1.609 -3.4077 -2.3200 -1.0067
  976SOL    HW2 2928   0.228   1.890   1.740  2.7806 -0.4347 -1.1497
  977SOL     OW 2929   0.851   2.605   0.057 -0.1929 -0.6573 -0.3371
  977SOL    HW1 2930   0.927   2.670   0.067  0.5138 -1.0992 -1.7188
  977SOL    HW2 2931   0.792   2.635   3.090  0.1122 -1.0735  0.6813
  978SOL     OW 2932   0.327   1.786   2.834  0.0260  0.1457  0.4680
  978SOL    HW1 2933   0.340   1.867   2.893 -1.1353  2.9210 -1.4821
  978SOL    HW2 2934   0.305   1.710   2.893 -1.3934  0.7904 -2.3904
  979SOL     OW 2935   1.652   2.358   1.062 -0.0520 -0.3598  0.2309
  979SOL    HW1 2936   1.725   2.284   1.079  0.3640 -3.1199 -0.2520
  979SOL    HW2 2937   1.660   2.409   0.972 -1.9772  1.0828 -0.9309
  980SOL     OW 2938   0.971   1.877   3.102 -0.6776  0.4564  0.0463
  980SOL    HW1 2939   1.016   1.797   3.053 -3.1265 -2.2957 -0.7857
  980SOL    HW2 2940   0.971   1.967   3.050  1.4320  3.7168 -0.4206
  981SOL     OW 2941   2.641   3.028   2.333 -0.5008 -0.0841 -0.5129
  981SOL    HW1 2942   2.598   3.107   2.282 -1.3852 -2.0109 -2.8612
  981SOL    HW2 2943   2.624   3.041   2.430 -0.7029  2.4071 -1.0647
  982SOL     OW 2944   0.239   2.826   2.551  0.6500 -0.0305  0.2733
  982SOL    HW1 2945   0.296   2.895   2.601  0.7923  0.8512 -1.8028
  982SOL    HW2 2946   0.234   2.845   2.454 -0.4776 -0.9611  2.0926
  983SOL     OW 2947   2.393   1.114   1.786  0.2063 -0.3050 -0.1064
  983SOL    HW1 2948   2.419   1.164   1.869  0.6364  0.1567  1.2501
  983SOL    HW2 2949   2.297   1.132   1.772  0.7918  0.8818  0.3654
  984SOL     OW 2950   1.434   0.499   2.093  0.2154 -0.3390 -0.2117
  984SOL    HW1 2951   1.382   0.412   2.102  2.3394  4.4657 -0.1471
  984SOL    HW2 2952   1.527   0.480   2.131 -2.0161 -0.0168 -2.8265
  985SOL     OW 2953   1.465   1.771   2.159 -0.0110  0.1294  1.0667
  985SOL    HW1 2954   1.387   1.733   2.103 -0.0615 -0.1643 -0.0994
  985SOL    HW2 2955   1.547   1.764   2.101 -2.1238 -2.1226  0.9966
  986SOL     OW 2956   1.755   0.245   2.000 -0.3305  0.2041 -0.7700
  986SOL    HW1 2957   1.819   0.275   1.928  0.7540  0.9455  2.2671
  986SOL    HW2 2958   1.724   0.317   2.067 -1.1050 -0.2229 -1.7303
  987SOL     OW 2959   2.047   0.881   1.824 -0.0400  0.0853 -0.2513
  987SOL    HW1 2960   2.126   0.822   1.860  2.7218  3.6976  1.8373
  987SOL    HW2 2961   2.078   0.979   1.812 -0.2214 -0.9759  3.7307
  988SOL     OW 2962   2.603   0.712   2.571  0.1856 -0.2769 -0.2199
  988SOL    HW1 2963   2.659   0.645   2.526 -1.7046  2.0677 -1.0050
  988SOL    HW2 2964   2.623   0.808   2.531 -0.5822  1.3177 -1.7817
  989SOL     OW 2965   2.378   2.455   2.685 -0.2131 -0.0084  0.1400
  989SOL    HW1 2966   2.351   2.375   2.628  0.4687  5.4565 -0.5723
  989SOL    HW2 2967   2.469   2.441   2.727 -0.5715  2.7983 -2.6711
  990SOL     OW 2968   0.835   0.434   2.695  0.1965  0.4613 -0.6369
  990SOL    HW1 2969   0.798   0.337   2.707 -0.6905  0.9617  0.2586
  990SOL    HW2 2970   0.759   0.505   2.683  2.5044  1.3406  0.8408
  991SOL     OW 2971   1.291   0.572   0.143 -0.0328  0.1450  0.2859
  991SOL    HW1 2972   1.299   0.568   0.044  1.0632 -0.6876  2.9514
  991SOL    HW2 2973   1.294   0.663   0.187 -1.2076  1.2806 -0.5198
  992SOL     OW 2974   2.558   2.205   2.694  0.6137  0.1738 -0.1047
  992SOL    HW1 2975   2.494   2.239   2.628  1.9597 -3.4938  2.8403
  992SOL    HW2 2976   2.590   2.286   2.754 -0.2335 -0.4285  1.6226
  993SOL     OW 2977   0.295   0.253   0.423 -0.3489 -0.8685  0.0831
  993SOL    HW1 2978   0.323   0.348   0.412  1.1178 -2.3571  1.5209
  993SOL    HW2 2979   0.196   0.250   0.440  0.4965  0.4633 -1.3059
  994SOL     OW 2980   0.327   2.316   1.652 -0.1737  0.2947  0.1023
  994SOL    HW1 2981   0.255   2.335   1.721 -0.1218  0.4645 -1.3207
  994SOL    HW2 2982   0.346   2.394   1.588 -0.1524 -1.8641 -0.3497
  995SOL     OW 2983   2.064   1.718   2.886 -0.3248  0.1335  0.5812
  995SOL    HW1 2984   2.080   1.778   2.969  1.0692 -0.1355  0.3433
  995SOL    HW2 2985   2.062   1.619   2.922  3.1519  0.7852  0.1235
  996SOL     OW 2986   1.298   1.759   2.809 -0.0130 -0.5136  0.0664
  996SOL    HW1 2987   1.325   1.718   2.717  0.2718 -2.4338  0.5777
  996SOL    HW2 2988   1.383   1.805   2.852  0.6279 -1.5258  2.7047
  997SOL     OW 2989   1.692   1.111   1.154  0.3603  0.6479  0.1590
  997SOL    HW1 2990   1.670   1.169   1.069  0.4159 -1.3672 -0.7899
  997SOL    HW2 2991   1.790   1.109   1.159 -2.2030 -1.3616  3.0808
  998SOL     OW 2992   2.526   1.510   0.072  0.4378  0.4091 -0.4362
  998SOL    HW1 2993   2.509   1.406   0.081  0.4881 -1.8548 -0.1780
  998SOL    HW2 2994   2.551   1.524   3.086  1.1914 -0.4235  0.4770
  999SOL     OW 2995   2.998   2.263   0.298 -0.0275  0.0406  0.2329
  999SOL    HW1 2996   2.984   2.286   0.396  0.5721 -0.0777  2.0493
  999SOL    HW2 2997   2.911   2.272   0.246 -0.3538  0.1449  1.2242
 1000SOL     OW 2998   0.785   0.131   2.154 -0.1808  1.0251 -0.0823
 1000SOL    HW1 2999   0.717   0.209   2.147  0.4608  0.7341 -0.1989
 1000SOL    HW2 3000   0.839   0.113   2.067  1.6857 -1.2588 -2.0636
   3.11004   3.11004   3.11004
