1000 SPC/Fw water molecules t= 350.00000 step= 350000
 3000
    1SOL     OW    1   2.333   3.007   1.230 -0.6104  0.6094 -0.5208
    1SOL    HW1    2   2.304   0.023   1.267  0.1441  1.7667  1.5607
    1SOL    HW2    3   2.337   2.935   1.304  0.0860 -1.3872  1.4991
    2SOL     OW    4   2.775   2.374   0.996 -0.2265 -0.6121 -0.4995
    2SOL    HW1    5   2.719   2.456   0.965 -2.1283  0.5089  2.2981
    2SOL    HW2    6   2.775   2.301   0.927  1.3168  1.1530 -1.7513
    3SOL     OW    7   1.301   2.869   2.802  0.0296  0.6556 -0.5948
    3SOL    HW1    8   1.323   2.968   2.812 -0.6630 -0.5620  0.9348
    3SOL    HW2    9   1.356   2.809   2.868  3.3060 -1.4393 -0.9498
    4SOL     OW   10   1.741   2.562   2.407 -0.4099  0.0977  0.7265
    4SOL    HW1   11   1.690   2.631   2.346  0.2113  0.2328  0.1322
    4SOL    HW2   12   1.842   2.574   2.406 -2.0823  1.9754 -0.8843
    5SOL     OW   13   1.721   0.495   1.798  0.3456 -0.0425  0.6012
    5SOL    HW1   14   1.786   0.535   1.871  2.4016 -0.1119  0.9415
    5SOL    HW2   15   1.722   0.545   1.709 -0.5263 -0.6583 -1.0541
    6SOL     OW   16   2.231   2.679   0.554  0.0636  0.1324  0.2556
    6SOL    HW1   17   2.191   2.729   0.478 -0.9155 -1.4418  3.1327
    6SOL    HW2   18   2.266   2.745   0.624 -0.3761  1.4013 -0.0166
    7SOL     OW   19   1.619   1.104   1.052  0.0257 -0.5590  0.4546
    7SOL    HW1   20   1.666   1.173   1.113  1.0625  2.1591 -2.8816
    7SOL    HW2   21   1.545   1.158   1.005 -1.6547 -1.9267 -0.7597
    8SOL     OW   22   0.707   1.893   1.260 -0.2793  0.0801  0.4241
    8SOL    HW1   23   0.681   1.794   1.279 -1.5012 -1.8886  0.8679
    8SOL    HW2   24   0.811   1.907   1.273  2.8501 -0.2315 -2.3642
    9SOL     OW   25   1.123   2.246   1.892  0.1280  0.1314 -0.1789
    9SOL    HW1   26   1.051   2.287   1.956 -1.5225  1.8476 -4.4200
    9SOL    HW2   27   1.078   2.202   1.814  0.5468  1.0670  1.6198
   10SOL     OW   28   0.634   2.038   0.656  0.2714  0.3742 -0.7369
   10SOL    HW1   29   0.682   2.078   0.738 -0.0014  0.7761  3.0338
   10SOL    HW2   30   0.618   2.110   0.586 -0.8448  0.1676 -0.8261
   11SOL     OW   31   1.470   2.162   1.647  0.1323 -0.3551 -0.4927
   11SOL    HW1   32   1.547   2.199   1.593 -0.1816  1.5033 -1.5497
   11SOL    HW2   33   1.410   2.098   1.598  0.3673 -2.5866  1.6359
   12SOL     OW   34   2.436   0.492   2.279 -0.1120  0.0213 -0.3116
   12SOL    HW1   35   2.419   0.436   2.358  0.5270  1.7989 -2.3783
   12SOL    HW2   36   2.445   0.445   2.186 -3.7304 -2.0883  3.1659
   13SOL     OW   37   2.795   2.900   0.610 -0.4914 -0.1152 -0.4052
   13SOL    HW1   38   2.848   2.830   0.658  1.7806  0.2245 -0.8862
   13SOL    HW2   39   2.852   2.983   0.599  2.6655 -0.6618  0.2819
   14SOL     OW   40   1.580   1.478   2.801  1.0456  0.3101 -0.0048
   14SOL    HW1   41   1.670   1.478   2.762 -1.5733  0.5065  2.3372
   14SOL    HW2   42   1.512   1.480   2.718 -0.5295 -0.1108 -2.3311
   15SOL     OW   43   2.562   2.631   1.185  0.0407 -0.4063  0.0344
   15SOL    HW1   44   2.631   2.680   1.244 -1.9282  0.5400  0.3111
   15SOL    HW2   45   2.531   2.543   1.227  1.4398  1.0095  0.4404
   16SOL     OW   46   2.737   2.841   0.344 -0.1363  0.1530  0.1940
   16SOL    HW1   47   2.732   2.871   0.441  0.5423 -0.4011 -1.7644
   16SOL    HW2   48   2.830   2.858   0.309 -1.2658 -0.5268  3.2035
   17SOL     OW   49   0.244   0.620   1.097 -0.8044  0.0498 -0.4435
   17SOL    HW1   50   0.327   0.659   1.048 -0.4981  2.7089  0.3622
   17SOL    HW2   51   0.270   0.554   1.172  0.1887 -2.9112  1.5605
   18SOL     OW   52   2.053   0.427   0.407 -0.0226 -0.2600 -0.1105
   18SOL    HW1   53   1.962   0.397   0.442  1.4367  1.2616 -1.0919
   18SOL    HW2   54   2.124   0.408   0.479  3.1414  0.3513  0.7847
   19SOL     OW   55   1.862   1.611   0.084  0.1200 -0.3232 -0.6107
   19SOL    HW1   56   1.776   1.662   0.068  0.0117  0.0454  1.0297
   19SOL    HW2   57   1.830   1.524   0.121 -0.5579  0.7356  0.9836
   20SOL     OW   58   2.309   1.803   2.496  0.8205  0.7441 -0.8259
   20SOL    HW1   59   2.318   1.700   2.487  1.1955 -1.1921  0.9615
   20SOL    HW2   60   2.403   1.842   2.474 -0.5261  1.2846  0.2687
   21SOL     OW   61   1.712   2.994   0.672  0.0348  0.1094 -0.1147
   21SOL    HW1   62   1.776   2.957   0.743 -0.0186  1.4939 -0.2186
   21SOL    HW2   63   1.747   2.971   0.580 -1.0405 -1.9292  0.8473
   22SOL     OW   64   2.607   0.456   1.651  0.2212 -0.1682  0.4082
   22SOL    HW1   65   2.680   0.455   1.579 -0.1722 -2.2088  0.2891
   22SOL    HW2   66   2.555   0.540   1.647  0.1590 -2.3599 -0.6020
   23SOL     OW   67   0.370   0.633   2.011 -0.0024  0.3909 -0.0927
   23SOL    HW1   68   0.345   0.644   2.110  1.1442 -2.0598 -1.7065
   23SOL    HW2   69   0.315   0.554   1.967 -0.0253 -0.7412  1.0306
   24SOL     OW   70   2.942   2.604   0.401  0.3072  0.2109 -0.1111
   24SOL    HW1   71   3.041   2.609   0.435  0.8064 -0.6035 -2.1363
   24SOL    HW2   72   2.928   2.676   0.332 -1.4885 -1.0882 -0.0171
   25SOL     OW   73   0.816   2.680   2.702  0.0541 -0.3795  0.5304
   25SOL    HW1   74   0.750   2.678   2.781 -1.5632 -0.8980 -1.9322
   25SOL    HW2   75   0.896   2.738   2.714 -3.9302 -1.9365  1.9608
   26SOL     OW   76   1.214   2.598   0.397 -0.0855 -0.0687  0.2808
   26SOL    HW1   77   1.223   2.514   0.448  0.6114  1.7957 -0.5452
   26SOL    HW2   78   1.282   2.663   0.425 -0.7849 -2.4085  2.4235
   27SOL     OW   79   2.292   0.714   0.479 -0.4430 -0.0451 -0.5151
   27SOL    HW1   80   2.259   0.784   0.416  0.1528  0.0999 -1.0658
   27SOL    HW2   81   2.370   0.748   0.533  1.5076 -0.8497 -0.7504
   28SOL     OW   82   1.103   1.481   0.823 -0.1315 -0.0508 -0.1304
   28SOL    HW1   83   1.072   1.450   0.731 -0.3999  2.4034  0.7193
   28SOL    HW2   84   1.178   1.549   0.808  0.3280 -2.0121  2.4507
   29SOL     OW   85   2.943   2.980   1.671  0.5163 -0.4845 -0.3413
   29SOL    HW1   86   2.946   3.073   1.630 -2.3966  0.1368  0.1103
   29SOL    HW2   87   2.865   2.929   1.626 -1.3968 -0.1228 -0.7354
   30SOL     OW   88   1.358   0.095   1.384  0.1926 -0.1147 -0.1030
   30SOL    HW1   89   1.338   0.005   1.422  0.5117 -0.7012  1.1378
   30SOL    HW2   90   1.346   0.098   1.283 -2.2832  0.6335 -1.0893
   31SOL     OW   91   2.124   3.056   2.290 -0.0209 -0.2164 -0.1038
   31SOL    HW1   92   2.029   0.009   2.321 -3.1883  0.6063  1.7279
   31SOL    HW2   93   2.121   3.000   2.203 -0.4109  0.2041 -0.5920
   32SOL     OW   94   0.905   1.327   0.198 -0.0372  0.1825  0.0770
   32SOL    HW1   95   0.918   1.304   0.101  2.8228  3.5412  1.0169
   32SOL    HW2   96   0.861   1.416   0.199 -1.2018 -1.1330 -1.0075
   33SOL     OW   97   0.065   0.957   2.518  1.0029 -0.0695 -0.0192
   33SOL    HW1   98   0.001   0.884   2.481 -0.0299 -1.8505  0.4545
   33SOL    HW2   99   0.137   0.968   2.448 -0.5903  0.1729  0.2460
   34SOL     OW  100   2.603   0.146   0.561 -0.1484 -0.4343  0.0175
   34SOL    HW1  101   2.557   0.057   0.576  2.2106 -0.5848 -2.0588
   34SOL    HW2  102   2.576   0.208   0.635  2.1778 -1.4573  0.3760
   35SOL     OW  103   2.265   2.653   1.991  0.2927  0.0729 -0.6722
   35SOL    HW1  104   2.362   2.629   1.971 -2.4667  0.7703 -1.3420
   35SOL    HW2  105   2.198   2.626   1.920  1.1658 -3.1627  0.4718
   36SOL     OW  106   2.211   2.031   0.080  0.0927  0.2536 -0.5068
   36SOL    HW1  107   2.221   2.116   0.024  1.0491  2.0001  2.2717
   36SOL    HW2  108   2.148   1.968   0.039  2.0249 -1.0623  1.1889
   37SOL     OW  109   1.784   0.085   2.053  0.0693  0.4483 -0.1573
   37SOL    HW1  110   1.854   0.145   2.014 -1.8159 -3.3135  1.4252
   37SOL    HW2  111   1.722   0.045   1.983 -0.2870  1.8272  3.2473
   38SOL     OW  112   0.295   0.658   2.911 -0.4835 -0.8127 -0.1451
   38SOL    HW1  113   0.228   0.612   2.849  0.2453 -0.7894  1.4687
   38SOL    HW2  114   0.245   0.715   2.976  0.5919 -1.7633  0.4360
   39SOL     OW  115   1.798   1.197   1.449  0.1227 -0.6680  0.2402
   39SOL    HW1  116   1.889   1.202   1.404  2.4811 -0.3904  1.6488
   39SOL    HW2  117   1.797   1.227   1.545  1.2296  0.8429  0.9364
   40SOL     OW  118   1.272   2.368   0.525 -0.3923  0.2565  0.0513
   40SOL    HW1  119   1.198   2.333   0.587 -1.5778  2.8024  3.1411
   40SOL    HW2  120   1.335   2.292   0.507  0.1340 -0.3758  0.8265
   41SOL     OW  121   2.044   1.250   0.899 -0.5508  0.6241  0.5502
   41SOL    HW1  122   1.960   1.300   0.925  0.6216  0.4658  0.9586
   41SOL    HW2  123   2.107   1.310   0.847  0.0975 -2.6871  0.0203
   42SOL     OW  124   0.751   0.211   1.332  0.5217  0.2561 -0.0397
   42SOL    HW1  125   0.753   0.231   1.231 -0.1411  0.0079 -1.5422
   42SOL    HW2  126   0.843   0.187   1.368 -0.2794  1.1001 -0.7756
   43SOL     OW  127   0.134   1.640   2.434 -0.2273 -0.6080 -0.6937
   43SOL    HW1  128   0.116   1.559   2.492  0.5230 -2.2558 -0.5285
   43SOL    HW2  129   0.233   1.664   2.442 -2.1268 -1.8036  0.8225
   44SOL     OW  130   2.064   2.915   1.452  0.8473  0.2677 -0.2882
   44SOL    HW1  131   2.006   2.929   1.370 -0.3711 -0.8192 -2.4354
   44SOL    HW2  132   2.162   2.891   1.436  2.0480 -3.6617  0.4056
   45SOL     OW  133   1.185   3.014   2.332  0.0631 -0.2664 -0.3492
   45SOL    HW1  134   1.279   2.998   2.359 -0.8249  0.1847 -1.0897
   45SOL    HW2  135   1.119   2.944   2.361 -1.9996  0.5749  0.0500
   46SOL     OW  136   1.005   2.315   2.307  0.2409 -0.6258 -0.2527
   46SOL    HW1  137   1.063   2.230   2.314  0.7282 -0.6154  3.3543
   46SOL    HW2  138   0.980   2.360   2.395  1.2314 -0.0406 -2.1224
   47SOL     OW  139   1.160   1.753   0.581 -0.9318  0.1692  0.0835
   47SOL    HW1  140   1.219   1.732   0.498  0.1706  0.6036 -0.2175
   47SOL    HW2  141   1.207   1.738   0.667 -1.3232 -0.9964  1.0351
   48SOL     OW  142   1.217   2.467   1.037 -0.2118 -0.0270  0.3044
   48SOL    HW1  143   1.220   2.489   0.937  0.4593  1.4064  1.5614
   48SOL    HW2  144   1.304   2.426   1.055 -1.1730 -1.0581  1.2775
   49SOL     OW  145   2.275   0.277   2.830  0.3139 -0.0848  0.3097
   49SOL    HW1  146   2.182   0.307   2.861 -1.3232 -1.9867  0.3204
   49SOL    HW2  147   2.327   0.356   2.792  1.0296 -1.1536  0.7790
   50SOL     OW  148   1.501   0.198   0.195 -0.5112  0.1042 -0.3380
   50SOL    HW1  149   1.545   0.269   0.134  0.7170 -1.1711 -1.0282
   50SOL    HW2  150   1.442   0.136   0.144  2.8028  2.1655 -1.5402
   51SOL     OW  151   2.275   0.588   1.346  0.5382 -0.1667  0.0629
   51SOL    HW1  152   2.277   0.663   1.414  4.6972 -0.3970  1.4326
   51SOL    HW2  153   2.370   0.543   1.340  1.4404 -2.2526 -1.4454
   52SOL     OW  154   0.692   1.630   0.030  0.1028 -0.0667 -0.3163
   52SOL    HW1  155   0.720   1.636   0.130  2.9823  2.2913  0.9265
   52SOL    HW2  156   0.751   1.562   3.056 -1.2537  0.9891  0.5495
   53SOL     OW  157   0.125   1.450   2.613  0.3898  0.2916 -0.4120
   53SOL    HW1  158   0.094   1.360   2.657  1.2104 -2.4239  3.1662
   53SOL    HW2  159   0.221   1.475   2.642 -1.8690 -2.6025 -0.3081
   54SOL     OW  160   2.680   1.164   1.647 -0.0903  0.2600  0.2527
   54SOL    HW1  161   2.739   1.083   1.672 -0.6330 -0.1005 -0.2994
   54SOL    HW2  162   2.718   1.248   1.683 -0.6218 -0.5884 -1.0863
   55SOL     OW  163   2.231   1.979   0.489  0.4533 -0.3272  0.3951
   55SOL    HW1  164   2.274   1.901   0.539 -0.3982  0.0384 -1.3181
   55SOL    HW2  165   2.236   2.068   0.545 -2.4222  0.3161  0.8139
   56SOL     OW  166   1.654   0.254   1.715  0.3075 -0.3895 -0.2601
   56SOL    HW1  167   1.680   0.350   1.734  1.2618  0.3216 -1.2882
   56SOL    HW2  168   1.554   0.249   1.692 -2.4992  0.2833  0.6060
   57SOL     OW  169   1.319   1.240   2.455 -0.8185 -0.0547  0.2366
   57SOL    HW1  170   1.362   1.281   2.373 -2.9565 -2.9018  0.2750
   57SOL    HW2  171   1.369   1.158   2.489  2.9588 -1.2391  2.0148
   58SOL     OW  172   0.103   0.822   1.244 -0.1200 -0.3556 -0.2918
   58SOL    HW1  173   0.039   0.758   1.300 -2.1169 -2.8012  3.7217
   58SOL    HW2  174   0.161   0.760   1.184  1.0073 -0.8699 -0.9079
   59SOL     OW  175   1.547   2.899   0.109  0.0694 -0.3937  0.3976
   59SOL    HW1  176   1.447   2.885   0.111 -0.0609 -2.8689  0.1506
   59SOL    HW2  177   1.579   2.898   0.206 -2.8067  1.5202  2.4952
   60SOL     OW  178   2.848   1.940   2.609 -0.3399 -0.1219  0.4989
   60SOL    HW1  179   2.892   1.998   2.684  2.8243  0.4366  1.2735
   60SOL    HW2  180   2.771   1.884   2.646 -0.6661 -1.9069  2.3083
   61SOL     OW  181   0.847   2.582   0.900 -0.5856 -0.0793  0.9552
   61SOL    HW1  182   0.867   2.668   0.846  2.1569 -0.7235 -0.9684
   61SOL    HW2  183   0.848   2.592   1.003  0.4509 -0.0227  1.9697
   62SOL     OW  184   1.886   1.466   2.732 -0.0144  0.0063  0.2095
   62SOL    HW1  185   1.887   1.377   2.683  0.4260 -0.8019  0.0215
   62SOL    HW2  186   1.944   1.462   2.816  0.1010 -0.6276  2.9326
   63SOL     OW  187   2.321   1.882   0.266  0.5409  0.3640 -0.0924
   63SOL    HW1  188   2.274   1.944   0.197 -0.5131 -0.1583 -2.3020
   63SOL    HW2  189   2.292   1.919   0.358  1.3212 -0.1078 -0.3862
   64SOL     OW  190   1.772   0.870   2.983 -0.2164 -0.4197 -0.6443
   64SOL    HW1  191   1.701   0.827   2.926 -0.5728  3.6208  2.3153
   64SOL    HW2  192   1.775   0.971   2.965 -0.9808  1.6859  0.8522
   65SOL     OW  193   2.097   1.890   2.347 -0.2152  0.0642 -0.1415
   65SOL    HW1  194   2.165   1.850   2.410  2.5977  0.9836 -0.9815
   65SOL    HW2  195   2.066   1.817   2.287 -1.4438  1.9530  1.5675
   66SOL     OW  196   0.282   1.212   1.274  0.4509  0.5683 -0.2796
   66SOL    HW1  197   0.244   1.198   1.371  0.7525  0.3326 -0.4219
   66SOL    HW2  198   0.287   1.125   1.222 -0.0043  0.0610 -1.2722
   67SOL     OW  199   2.080   0.064   2.618  0.0056 -0.2183 -0.0856
   67SOL    HW1  200   2.128   0.134   2.565 -3.4070 -1.9768  1.9912
   67SOL    HW2  201   2.019   0.009   2.559 -1.1774  1.2861 -1.0188
   68SOL     OW  202   1.065   2.415   1.512  0.5499  0.3104 -0.3045
   68SOL    HW1  203   1.148   2.456   1.468 -1.2646 -0.4870  2.3726
   68SOL    HW2  204   1.087   2.318   1.541  2.8062 -2.7677  1.4804
   69SOL     OW  205   0.889   2.464   0.132  0.3877  0.2517 -0.0710
   69SOL    HW1  206   0.784   2.461   0.134  0.2626  2.0688  0.7116
   69SOL    HW2  207   0.931   2.393   0.192 -0.6266  0.1031 -0.1952
   70SOL     OW  208   0.208   0.667   2.246  0.4006 -0.0810  0.5501
   70SOL    HW1  209   0.142   0.719   2.189 -1.2086  0.4920 -1.5548
   70SOL    HW2  210   0.258   0.722   2.318  1.7112  0.2812  3.1714
   71SOL     OW  211   0.620   1.310   2.562 -0.2154 -0.7587  0.2414
   71SOL    HW1  212   0.718   1.338   2.555 -1.8130  0.1629  1.1705
   71SOL    HW2  213   0.562   1.350   2.491  0.5613 -1.3362 -1.9631
   72SOL     OW  214   3.011   1.426   2.302  0.2335 -0.2491  0.4982
   72SOL    HW1  215   0.015   1.487   2.311  0.4557  1.3644 -1.4843
   72SOL    HW2  216   2.928   1.477   2.262 -0.4011 -0.5978 -0.5171
   73SOL     OW  217   1.664   1.510   0.464 -0.4515  0.0117  0.4134
   73SOL    HW1  218   1.747   1.507   0.525  0.0447 -0.6695 -2.0230
   73SOL    HW2  219   1.589   1.451   0.500  0.6910  0.3383 -1.8918
   74SOL     OW  220   2.515   2.797   2.611  0.0182 -0.4068  0.5840
   74SOL    HW1  221   2.529   2.895   2.625  0.5713  1.0226 -1.6328
   74SOL    HW2  222   2.426   2.784   2.561  1.0961 -2.0200  1.1802
   75SOL     OW  223   1.948   2.196   0.986 -0.0799 -0.4548  0.1532
   75SOL    HW1  224   1.932   2.175   1.081  0.0889  0.6297  0.6800
   75SOL    HW2  225   2.046   2.171   0.967 -1.0103 -1.3923  0.0117
   76SOL     OW  226   2.772   2.155   1.968 -0.4579  0.3764 -0.5537
   76SOL    HW1  227   2.774   2.053   1.969 -2.4587 -0.4721 -1.5994
   76SOL    HW2  228   2.783   2.193   1.878  0.1632 -0.9939 -1.3274
   77SOL     OW  229   3.056   0.112   1.945 -0.1288 -0.1196 -0.6102
   77SOL    HW1  230   3.029   0.050   1.868 -0.5717 -1.8846 -3.6085
   77SOL    HW2  231   2.977   0.168   1.974  0.2732 -1.8194 -0.8745
   78SOL     OW  232   2.362   1.114   2.947  0.3973 -0.4380  0.2600
   78SOL    HW1  233   2.404   1.187   3.006  1.9393  1.3142  1.7752
   78SOL    HW2  234   2.287   1.149   2.888  0.6237  0.0694  4.7492
   79SOL     OW  235   2.874   1.334   2.526 -0.2769  0.6719  0.4680
   79SOL    HW1  236   2.881   1.384   2.618  1.7118  1.5913  1.5594
   79SOL    HW2  237   2.918   1.379   2.447  0.1867 -1.1569 -0.4343
   80SOL     OW  238   1.366   1.334   1.376 -0.4003 -0.4101 -0.2538
   80SOL    HW1  239   1.373   1.423   1.425 -0.1175 -0.8376  1.3116
   80SOL    HW2  240   1.283   1.282   1.402 -0.9757 -1.5434  2.6327
   81SOL     OW  241   1.916   0.797   1.746 -0.4800  0.4814 -0.4109
   81SOL    HW1  242   1.912   0.718   1.814 -1.3485 -1.6600  2.1177
   81SOL    HW2  243   1.985   0.866   1.774 -0.9371 -1.3332  1.6181
   82SOL     OW  244   1.724   1.549   1.593 -0.3647 -0.3606 -0.3988
   82SOL    HW1  245   1.771   1.460   1.605  1.4296 -2.0344  1.5872
   82SOL    HW2  246   1.744   1.617   1.664 -1.2050  2.9657 -0.1226
   83SOL     OW  247   0.294   0.170   0.238  0.4316  0.0416  0.1522
   83SOL    HW1  248   0.221   0.132   0.172 -0.2790 -2.0207 -2.0893
   83SOL    HW2  249   0.336   0.253   0.201  2.6442 -2.1474  1.8273
   84SOL     OW  250   0.564   1.166   3.036 -0.1937 -0.8435  0.0920
   84SOL    HW1  251   0.522   1.072   3.054 -1.5540 -1.1789  1.9722
   84SOL    HW2  252   0.491   1.238   3.019  0.6816 -1.9324  2.0640
   85SOL     OW  253   2.444   1.941   1.176  0.0057  0.1046  0.1429
   85SOL    HW1  254   2.448   1.871   1.099  0.7148  1.3970  1.7678
   85SOL    HW2  255   2.534   1.950   1.221 -1.9610 -1.0146 -0.5967
   86SOL     OW  256   0.541   2.561   1.232 -0.1010 -0.3349  0.3887
   86SOL    HW1  257   0.570   2.472   1.271  0.2469  2.4382  1.6687
   86SOL    HW2  258   0.526   2.553   1.130 -0.6202  0.9567 -2.2151
   87SOL     OW  259   0.616   2.319   2.540  0.2355  0.1020  0.2032
   87SOL    HW1  260   0.607   2.319   2.440  1.8348  1.1650  0.3886
   87SOL    HW2  261   0.698   2.264   2.565 -1.1908  0.9273 -1.6960
   88SOL     OW  262   3.032   1.856   0.224  0.3160  0.0301  0.1733
   88SOL    HW1  263   3.037   1.926   0.300  0.2282  0.3719 -0.1983
   88SOL    HW2  264   2.951   1.872   0.164  2.5759  0.3434 -3.8933
   89SOL     OW  265   1.007   0.910   1.072  0.4621  0.3351 -0.2526
   89SOL    HW1  266   1.087   0.926   1.016 -1.2340 -1.4160 -0.1238
   89SOL    HW2  267   0.979   0.814   1.075 -1.2544 -0.2214 -1.0940
   90SOL     OW  268   0.225   1.300   1.904 -1.1499  0.2742  0.0484
   90SOL    HW1  269   0.225   1.220   1.972 -1.4146  0.7395  2.2610
   90SOL    HW2  270   0.136   1.336   1.880  3.2290 -0.1583 -0.9551
   91SOL     OW  271   1.258   0.943   0.960  0.0971 -0.2834  0.1501
   91SOL    HW1  272   1.314   0.861   0.966 -1.3670  1.4231 -3.3249
   91SOL    HW2  273   1.310   1.022   0.915 -0.0632  2.5753 -1.3764
   92SOL     OW  274   1.849   0.921   1.043 -0.2711 -0.0097  0.4120
   92SOL    HW1  275   1.761   0.961   1.014  1.6942 -0.4418 -0.1245
   92SOL    HW2  276   1.921   0.994   1.056  0.3826 -0.8601 -3.1173
   93SOL     OW  277   2.751   0.896   2.454  0.1358 -0.3900 -0.2360
   93SOL    HW1  278   2.673   0.830   2.450 -2.1261 -1.2885  1.3273
   93SOL    HW2  279   2.834   0.847   2.418  1.8467 -1.9231  0.9315
   94SOL     OW  280   2.121   1.671   2.834  0.3193 -0.4705 -0.0818
   94SOL    HW1  281   2.215   1.710   2.831 -1.7899 -0.8291 -0.5058
   94SOL    HW2  282   2.053   1.746   2.847  1.3625 -0.7550 -0.6103
   95SOL     OW  283   2.756   0.731   1.278  0.2818 -0.1722 -0.9145
   95SOL    HW1  284   2.815   0.670   1.225 -1.8261  0.2929  3.7570
   95SOL    HW2  285   2.672   0.756   1.225 -1.1856 -1.2836  1.3548
   96SOL     OW  286   2.364   2.805   1.424  0.7765 -0.3113 -0.7727
   96SOL    HW1  287   2.346   2.857   1.513 -0.8293  1.8973  3.2391
   96SOL    HW2  288   2.462   2.771   1.420  1.9898  0.3713 -1.9035
   97SOL     OW  289   2.499   1.195   1.419 -0.9322  0.4717  0.4354
   97SOL    HW1  290   2.510   1.121   1.354 -0.2203  0.7227 -0.3627
   97SOL    HW2  291   2.540   1.173   1.511 -3.1370 -0.5825  1.1469
   98SOL     OW  292   1.325   2.494   2.004  0.0114 -0.0781 -0.3861
   98SOL    HW1  293   1.408   2.550   2.004 -3.4324  0.6833 -0.3856
   98SOL    HW2  294   1.329   2.429   1.925  1.1772 -0.0983  0.3805
   99SOL     OW  295   0.292   2.570   1.370 -0.4049  0.0652 -0.4160
   99SOL    HW1  296   0.382   2.566   1.321 -1.8419 -0.3305  3.1009
   99SOL    HW2  297   0.306   2.607   1.467  0.7921 -1.7254 -0.2361
  100SOL     OW  298   1.496   0.389   2.679  0.5512 -0.2831  0.3751
  100SOL    HW1  299   1.433   0.325   2.740 -1.4741  0.4576  1.4335
  100SOL    HW2  300   1.534   0.469   2.730  1.4449 -0.0210 -0.0272
  101SOL     OW  301   2.397   0.280   2.435  0.5990  0.4961 -0.2871
  101SOL    HW1  302   2.300   0.279   2.470 -1.4340 -0.4412  1.3374
  101SOL    HW2  303   2.402   0.227   2.352 -1.1069  2.2455  2.1145
  102SOL     OW  304   0.236   0.753   1.572  0.1704 -0.0604  0.1655
  102SOL    HW1  305   0.230   0.755   1.671  1.1000  1.1308  0.3006
  102SOL    HW2  306   0.298   0.825   1.537 -0.1565 -0.5218 -0.5022
  103SOL     OW  307   0.722   0.909   2.438 -0.1421  0.3694  0.5650
  103SOL    HW1  308   0.673   0.870   2.360  0.8235  0.4413 -2.0970
  103SOL    HW2  309   0.667   0.908   2.525 -0.0235 -1.6319 -1.2726
  104SOL     OW  310   0.367   0.925   2.635  0.2091 -0.3561  1.2706
  104SOL    HW1  311   0.289   0.907   2.695  2.6282  1.1463 -1.5393
  104SOL    HW2  312   0.427   1.000   2.668 -0.6912 -0.2550 -0.1983
  105SOL     OW  313   2.018   2.048   1.685 -0.2354  0.1603 -0.4287
  105SOL    HW1  314   2.071   1.963   1.702  0.9742  2.6048  0.2131
  105SOL    HW2  315   1.985   2.045   1.589  0.5446  1.3759  4.3830
  106SOL     OW  316   1.827   2.956   0.405  0.5300 -0.6760 -0.4867
  106SOL    HW1  317   1.853   2.859   0.431 -0.1139 -1.1578  2.1884
  106SOL    HW2  318   1.895   2.999   0.343 -0.4936  0.0160 -0.0661
  107SOL     OW  319   2.197   2.113   0.942 -0.2964  0.2300  0.3873
  107SOL    HW1  320   2.253   2.188   0.987  0.1289  4.3128  1.0124
  107SOL    HW2  321   2.220   2.014   0.961 -1.1466 -1.7534 -0.4407
  108SOL     OW  322   2.727   2.902   1.550 -0.6537 -0.6384  0.3407
  108SOL    HW1  323   2.658   2.829   1.519 -0.4846 -1.0398  1.7806
  108SOL    HW2  324   2.683   2.996   1.541 -0.4380  4.5780 -2.1301
  109SOL     OW  325   2.012   2.480   0.873 -0.2670 -0.5956 -0.4740
  109SOL    HW1  326   1.979   2.388   0.891  1.2277  1.1650  0.7283
  109SOL    HW2  327   2.091   2.472   0.804  1.6667 -2.4837 -1.8267
  110SOL     OW  328   1.032   1.779   2.025  0.0107  0.4138  0.0820
  110SOL    HW1  329   1.033   1.680   2.001  3.2052  0.2154 -1.6021
  110SOL    HW2  330   0.953   1.832   1.988 -2.0769  2.4992 -1.6496
  111SOL     OW  331   1.818   2.089   2.064 -0.2235  0.1597 -0.1872
  111SOL    HW1  332   1.845   2.138   1.979 -2.1192  0.2350  0.9378
  111SOL    HW2  333   1.723   2.121   2.092 -0.6425  0.0588 -0.7425
  112SOL     OW  334   1.755   1.678   2.637 -0.1267 -0.3301  0.0745
  112SOL    HW1  335   1.734   1.743   2.712 -0.2353 -2.5710  0.4263
  112SOL    HW2  336   1.819   1.599   2.666 -0.5896 -1.6111  2.3329
  113SOL     OW  337   1.686   1.706   1.801  0.2886 -0.5798 -0.5315
  113SOL    HW1  338   1.694   1.778   1.876  1.4756  1.8651 -0.1950
  113SOL    HW2  339   1.587   1.675   1.802  2.2697  1.9655  1.2636
  114SOL     OW  340   0.001   1.233   1.080 -0.3348 -0.1863  0.5093
  114SOL    HW1  341   2.984   1.222   1.031 -0.6684  2.1480 -1.8402
  114SOL    HW2  342   0.007   1.178   1.161 -1.7333 -0.9467 -2.1626
  115SOL     OW  343   0.707   0.497   0.359 -0.1155  0.0968 -0.0128
  115SOL    HW1  344   0.657   0.545   0.431 -0.2298 -0.9116  1.5595
  115SOL    HW2  345   0.689   0.396   0.357 -0.8020 -2.8370  0.5716
  116SOL     OW  346   2.762   1.851   2.251 -0.3777 -0.3853 -0.5385
  116SOL    HW1  347   2.685   1.874   2.317 -3.5550  0.0460  2.1753
  116SOL    HW2  348   2.844   1.904   2.271  1.9145 -2.7239  1.6074
  117SOL     OW  349   0.042   2.630   0.740 -0.4360 -0.0160  0.1468
  117SOL    HW1  350   0.072   2.631   0.640  1.4561  2.0866  0.2311
  117SOL    HW2  351   0.097   2.559   0.790 -0.0235 -1.8883 -2.0304
  118SOL     OW  352   0.482   1.685   2.673  0.3156 -0.1464 -0.2398
  118SOL    HW1  353   0.515   1.725   2.764 -0.8878  2.1902 -1.4298
  118SOL    HW2  354   0.453   1.588   2.695  0.5582  0.2158 -0.3459
  119SOL     OW  355   0.433   1.905   0.518  0.6467 -0.1426  0.4959
  119SOL    HW1  356   0.478   1.952   0.594 -1.8988  0.0068 -4.0634
  119SOL    HW2  357   0.386   1.976   0.455 -0.2587  2.0503 -0.8003
  120SOL     OW  358   1.496   0.518   0.260 -0.4082 -0.0201  0.0308
  120SOL    HW1  359   1.595   0.496   0.261  1.2554  0.9671 -0.0997
  120SOL    HW2  360   1.474   0.612   0.283 -0.0386 -1.3837 -2.1929
  121SOL     OW  361   1.551   2.457   0.727  0.4126 -0.0403 -0.1922
  121SOL    HW1  362   1.619   2.390   0.769  1.5600  1.6517 -0.4068
  121SOL    HW2  363   1.580   2.474   0.634 -1.4549 -2.4353  3.7280
  122SOL     OW  364   2.401   2.505   1.603  0.0282  0.0747  0.0714
  122SOL    HW1  365   2.319   2.473   1.551 -0.3836 -0.8865  2.8103
  122SOL    HW2  366   2.450   2.419   1.633 -0.6963  1.0032  2.2097
  123SOL     OW  367   0.645   1.532   0.737 -0.3566 -0.1856 -0.3400
  123SOL    HW1  368   0.709   1.473   0.676 -0.1622  0.9169 -1.9913
  123SOL    HW2  369   0.672   1.634   0.737  1.8308 -0.3234 -1.0742
  124SOL     OW  370   2.937   0.823   0.345 -0.7333  0.2762 -0.3307
  124SOL    HW1  371   2.901   0.745   0.291 -2.4783 -1.8918  0.2767
  124SOL    HW2  372   2.870   0.899   0.354 -0.8255 -0.3629 -0.3416
  125SOL     OW  373   0.557   0.658   0.519 -0.4765 -0.0885 -0.3027
  125SOL    HW1  374   0.475   0.627   0.572  2.3091  0.2194  0.3271
  125SOL    HW2  375   0.600   0.741   0.559 -0.9227  0.2339 -1.5706
  126SOL     OW  376   2.870   1.913   0.570 -0.0781 -0.0301  0.3062
  126SOL    HW1  377   2.836   1.867   0.652 -0.2681 -0.0775 -0.4403
  126SOL    HW2  378   2.843   2.013   0.555  1.1976 -0.9596 -2.3373
  127SOL     OW  379   1.332   2.356   1.758  0.8498  0.6133  0.4790
  127SOL    HW1  380   1.246   2.330   1.809  0.6971 -1.4245 -2.3425
  127SOL    HW2  381   1.377   2.279   1.710  2.2085  2.4841  2.3997
  128SOL     OW  382   0.935   1.052   0.201 -0.0574 -0.4567  0.0953
  128SOL    HW1  383   0.905   1.016   0.290 -0.1918 -0.6134 -0.6920
  128SOL    HW2  384   0.950   1.153   0.210 -0.6017 -0.6296  0.2661
  129SOL     OW  385   1.648   1.887   1.540  0.4327 -0.4775 -0.2414
  129SOL    HW1  386   1.564   1.950   1.536  1.9355 -0.8530 -0.4715
  129SOL    HW2  387   1.655   1.823   1.617  2.7183 -0.0053 -0.5358
  130SOL     OW  388   2.168   1.522   1.546  0.1058  0.2841  0.0896
  130SOL    HW1  389   2.116   1.538   1.631 -0.2485  0.9940  0.5101
  130SOL    HW2  390   2.210   1.430   1.550 -2.3579  0.3474  2.0693
  131SOL     OW  391   2.977   2.862   2.815  0.5739  0.1545  0.1425
  131SOL    HW1  392   2.930   2.930   2.754  1.8044  2.5133  1.9492
  131SOL    HW2  393   3.012   2.785   2.756  1.7927 -0.4244  1.2466
  132SOL     OW  394   2.541   1.784   0.620 -0.1857 -0.0959  0.0587
  132SOL    HW1  395   2.549   1.863   0.559 -2.8660 -2.4011 -0.1059
  132SOL    HW2  396   2.632   1.754   0.651 -0.4853 -2.8330 -1.4872
  133SOL     OW  397   0.551   3.059   1.892 -0.3343 -0.2236 -0.6534
  133SOL    HW1  398   0.486   3.032   1.967 -3.0644 -0.3781 -3.6267
  133SOL    HW2  399   0.563   0.091   1.897  2.6248  2.7163  0.4625
  134SOL     OW  400   2.807   2.090   3.026 -0.1408 -0.1573 -0.7922
  134SOL    HW1  401   2.827   1.990   3.030 -1.0080 -0.3192  0.7217
  134SOL    HW2  402   2.710   2.110   3.020  4.9823  0.7780 -0.1802
  135SOL     OW  403   1.541   0.451   2.024  0.3389 -0.2375 -0.2732
  135SOL    HW1  404   1.593   0.470   1.942  1.7003 -0.4176 -0.2570
  135SOL    HW2  405   1.497   0.534   2.065  0.2083 -0.4973  0.6255
  136SOL     OW  406   2.522   1.483   0.511  0.3299  0.4224  0.2627
  136SOL    HW1  407   2.443   1.421   0.524  2.5768 -1.2654  0.4551
  136SOL    HW2  408   2.523   1.542   0.591 -1.2112 -1.5002 -0.2298
  137SOL     OW  409   2.797   1.745   0.777  0.4597  0.1700 -0.0835
  137SOL    HW1  410   2.855   1.674   0.732 -0.6278  3.5586 -0.6720
  137SOL    HW2  411   2.783   1.730   0.874  0.3990  0.3984 -1.2206
  138SOL     OW  412   2.550   0.784   1.108 -0.1626 -0.5095 -0.8269
  138SOL    HW1  413   2.455   0.823   1.087 -0.5232  0.4202 -0.9258
  138SOL    HW2  414   2.613   0.768   1.029  1.1618  0.1235  0.2514
  139SOL     OW  415   0.656   2.640   2.958  0.3141 -0.4400 -0.2427
  139SOL    HW1  416   0.662   2.618   3.058  1.1131  1.6054  0.7544
  139SOL    HW2  417   0.628   2.741   2.954 -0.9655  2.0166  1.0954
  140SOL     OW  418   1.045   1.982   0.962 -0.1210  0.0295  0.3834
  140SOL    HW1  419   1.085   2.049   0.897 -4.2676  0.4907  3.6435
  140SOL    HW2  420   1.030   1.888   0.922 -2.5801  0.3472 -0.3157
  141SOL     OW  421   1.296   2.086   0.462  0.3135  0.5232 -0.3315
  141SOL    HW1  422   1.208   2.128   0.498 -2.9570  0.0366 -0.7090
  141SOL    HW2  423   1.292   2.077   0.361  0.8714  0.5661  2.2004
  142SOL     OW  424   0.904   0.666   1.042 -0.2396  0.0508 -0.0239
  142SOL    HW1  425   0.918   0.670   0.941 -2.2565 -1.7954 -0.9856
  142SOL    HW2  426   0.832   0.594   1.055 -0.6081  0.1418  2.3767
  143SOL     OW  427   0.901   1.286   2.832 -0.0823 -0.4501  0.3762
  143SOL    HW1  428   0.888   1.343   2.746 -1.2691  0.5238  1.7219
  143SOL    HW2  429   0.913   1.188   2.807  1.6451  0.3307 -0.4006
  144SOL     OW  430   1.828   2.657   0.781 -0.0639  0.1703  0.0926
  144SOL    HW1  431   1.736   2.662   0.834 -2.5765 -1.4209  2.4480
  144SOL    HW2  432   1.884   2.593   0.837  0.8252  2.0855  1.8220
  145SOL     OW  433   1.918   0.803   2.710  0.6350 -0.5172 -0.2329
  145SOL    HW1  434   1.941   0.709   2.729 -1.0935  3.0470  0.2177
  145SOL    HW2  435   1.966   0.864   2.773 -1.0128  0.3022 -1.7556
  146SOL     OW  436   0.089   3.021   0.451  0.1000 -0.1161 -0.1429
  146SOL    HW1  437   0.170   3.058   0.499 -3.6124  1.9105 -0.6039
  146SOL    HW2  438   0.012   0.010   0.483 -0.7636  2.2590  2.6745
  147SOL     OW  439   1.776   0.389   2.156  0.2226  0.6782  0.6722
  147SOL    HW1  440   1.682   0.395   2.117  0.8853 -0.9136  1.5397
  147SOL    HW2  441   1.801   0.474   2.205 -0.3814 -0.8910 -0.3002
  148SOL     OW  442   1.345   0.260   1.975  0.4576 -0.1815 -0.1159
  148SOL    HW1  443   1.412   0.333   2.007 -0.3696 -0.1174  0.0571
  148SOL    HW2  444   1.381   0.172   2.014  0.5151 -0.6291 -0.4603
  149SOL     OW  445   1.424   0.141   2.316  0.0836  0.2891 -0.1015
  149SOL    HW1  446   1.438   0.098   2.224  1.5134  0.4179  1.6948
  149SOL    HW2  447   1.440   0.061   2.383 -0.5873  1.4244  1.7210
  150SOL     OW  448   2.897   2.958   3.044  0.3647  0.3542 -0.2420
  150SOL    HW1  449   2.918   2.909   2.960 -1.0624  0.9174  1.9591
  150SOL    HW2  450   2.801   2.968   3.051  1.3627 -1.3357 -0.2189
  151SOL     OW  451   0.651   1.214   0.235  0.1432 -0.2631 -0.5960
  151SOL    HW1  452   0.630   1.189   0.137 -1.0807  0.2266 -3.3785
  151SOL    HW2  453   0.732   1.276   0.243  0.1250  1.8033 -0.1232
  152SOL     OW  454   0.005   0.301   0.555 -0.0061 -0.6378  0.7669
  152SOL    HW1  455   0.063   0.255   0.625  2.0921  1.7499 -1.9394
  152SOL    HW2  456   3.053   0.396   0.583  0.9164  1.5951 -1.1615
  153SOL     OW  457   2.521   0.487   1.323  0.3507 -0.7243  0.6737
  153SOL    HW1  458   2.592   0.533   1.374 -1.8267 -1.0429 -1.1853
  153SOL    HW2  459   2.542   0.386   1.317 -0.6447  0.6149 -0.0087
  154SOL     OW  460   1.467   0.027   2.067  0.5516 -0.1303  0.2491
  154SOL    HW1  461   1.523   0.014   1.982  1.4983 -2.2886 -2.9676
  154SOL    HW2  462   1.420   3.013   2.085  2.1700  0.0869  0.3888
  155SOL     OW  463   2.882   1.695   0.425  0.1806  0.0029  0.1760
  155SOL    HW1  464   2.890   1.783   0.479  1.2619 -0.0488  0.8025
  155SOL    HW2  465   2.935   1.704   0.339 -0.3739 -1.1907 -0.4767
  156SOL     OW  466   2.570   1.921   2.943 -0.0531  0.3700  0.4111
  156SOL    HW1  467   2.557   1.850   3.014 -0.7020 -0.4753 -1.5800
  156SOL    HW2  468   2.507   1.998   2.947 -1.2613 -2.0206 -1.6470
  157SOL     OW  469   0.831   0.113   0.798  0.2488 -0.1874 -0.2021
  157SOL    HW1  470   0.845   0.203   0.756 -0.4478  0.4200  0.7020
  157SOL    HW2  471   0.912   0.052   0.778  1.2335  0.2270 -1.0228
  158SOL     OW  472   2.491   0.371   2.037  0.2593 -0.0389  0.2347
  158SOL    HW1  473   2.438   0.413   1.959 -0.4081  0.9102 -3.9916
  158SOL    HW2  474   2.592   0.370   2.016  0.9428 -2.9475 -1.1221
  159SOL     OW  475   0.309   0.120   0.514  0.6584 -0.1966  0.1620
  159SOL    HW1  476   0.308   0.147   0.418 -0.7722 -0.7410  0.2228
  159SOL    HW2  477   0.379   0.046   0.527 -0.8108 -4.1681 -0.1732
  160SOL     OW  478   1.778   1.822   2.055  0.2717 -0.4644 -1.2708
  160SOL    HW1  479   1.807   1.921   2.042 -0.6527  2.0019  0.1751
  160SOL    HW2  480   1.751   1.808   2.153  0.4273  0.2933  1.5438
  161SOL     OW  481   2.741   0.351   2.525 -0.3890  0.1558  0.0786
  161SOL    HW1  482   2.751   0.319   2.619 -1.0363  0.3283 -0.7372
  161SOL    HW2  483   2.767   0.274   2.465  1.6066  0.8777  0.0925
  162SOL     OW  484   1.115   2.801   1.609  0.4697  0.0240 -0.0919
  162SOL    HW1  485   1.186   2.731   1.642  0.4018 -0.5701  0.6034
  162SOL    HW2  486   1.084   2.856   1.686  2.4743 -2.6231 -1.4763
  163SOL     OW  487   2.717   0.137   2.317 -0.7282  0.4350 -0.4897
  163SOL    HW1  488   2.703   0.042   2.343 -0.7821  3.4700 -0.9832
  163SOL    HW2  489   2.627   0.182   2.290 -0.2842 -1.3554 -1.2263
  164SOL     OW  490   2.292   1.620   0.343  0.1008  0.2099  0.3897
  164SOL    HW1  491   2.298   1.710   0.298  2.4825 -1.1725 -1.0299
  164SOL    HW2  492   2.375   1.593   0.395 -0.1779  0.6755  0.5087
  165SOL     OW  493   2.819   0.539   1.469  0.3900 -0.0296 -0.5983
  165SOL    HW1  494   2.916   0.512   1.459 -0.7388 -2.8689  3.9145
  165SOL    HW2  495   2.792   0.616   1.412  0.0443 -0.9145  2.8172
  166SOL     OW  496   2.284   0.632   3.008  0.1625 -0.1612  0.1569
  166SOL    HW1  497   2.342   0.576   2.947 -2.0709  2.0639  0.0428
  166SOL    HW2  498   2.340   0.696   3.063  0.8381  0.1950 -1.2285
  167SOL     OW  499   2.771   0.919   0.097  0.0992  0.0367  0.1838
  167SOL    HW1  500   2.834   0.951   0.021  1.1727  1.0676 -0.1054
  167SOL    HW2  501   2.767   0.981   0.176 -0.2209 -1.7896 -1.1553
  168SOL     OW  502   1.701   2.876   2.799  0.2523  0.5524 -0.0338
  168SOL    HW1  503   1.627   2.827   2.852  0.5142 -3.4911 -1.5060
  168SOL    HW2  504   1.670   2.976   2.787 -1.2388  0.0765 -2.7361
  169SOL     OW  505   0.053   1.549   0.846 -0.0708  0.6516  0.3545
  169SOL    HW1  506   3.064   1.526   0.765  2.9108 -1.2082 -0.3884
  169SOL    HW2  507   0.124   1.479   0.854  0.1783  2.1456 -0.9020
  170SOL     OW  508   3.058   1.071   1.297  0.1762  0.2916  0.2217
  170SOL    HW1  509   0.041   1.130   1.356 -2.2539  0.0973  2.2102
  170SOL    HW2  510   0.016   0.976   1.282  0.1995  2.2013  1.0415
  171SOL     OW  511   2.361   2.231   1.911  0.2232  0.0817 -0.3788
  171SOL    HW1  512   2.430   2.248   1.843  0.2849  2.6839  0.6852
  171SOL    HW2  513   2.345   2.134   1.927 -1.0158  1.5494 -1.4115
  172SOL     OW  514   0.220   2.362   1.517 -0.0827  0.0328 -0.1324
  172SOL    HW1  515   0.198   2.283   1.456 -0.9689 -2.2980  1.0868
  172SOL    HW2  516   0.248   2.436   1.457  0.4471 -0.2573  1.9794
  173SOL     OW  517   1.161   1.221   2.981  0.0543 -0.0095 -0.4505
  173SOL    HW1  518   1.241   1.223   2.920 -1.0605  1.0540  2.2317
  173SOL    HW2  519   1.075   1.213   2.925 -1.1568 -0.7723 -4.1102
  174SOL     OW  520   1.217   0.569   2.857  0.4097  0.4411  0.4199
  174SOL    HW1  521   1.186   0.591   2.952  0.8262  4.2130  0.2832
  174SOL    HW2  522   1.294   0.632   2.829 -1.0171  0.5058 -0.9048
  175SOL     OW  523   1.541   1.827   0.989 -0.2273  0.7043  0.1291
  175SOL    HW1  524   1.632   1.829   1.038  1.6225 -0.1955  0.7811
  175SOL    HW2  525   1.485   1.743   1.018 -1.7333  0.2943 -2.0537
  176SOL     OW  526   1.562   3.045   0.359 -0.5406 -0.1929 -0.1396
  176SOL    HW1  527   1.663   3.025   0.364 -0.7495  1.9508 -1.2979
  176SOL    HW2  528   1.555   0.065   0.313  0.8214 -1.1426 -0.3659
  177SOL     OW  529   0.733   0.927   2.728 -0.2848  0.5153 -0.1972
  177SOL    HW1  530   0.752   0.863   2.809  0.1046 -2.5764  1.1445
  177SOL    HW2  531   0.652   0.986   2.748 -2.8991 -0.4706  2.3877
  178SOL     OW  532   2.176   2.283   2.432 -0.0278 -0.1758  0.3425
  178SOL    HW1  533   2.260   2.287   2.371  1.5282  2.1249 -1.0922
  178SOL    HW2  534   2.107   2.233   2.378  0.4687  1.6918 -2.9038
  179SOL     OW  535   3.021   0.211   2.693  0.0587  0.8170  0.4400
  179SOL    HW1  536   2.942   0.191   2.751  1.9131 -0.1465 -2.5167
  179SOL    HW2  537   2.999   0.186   2.593  1.0925 -0.8796 -0.7644
  180SOL     OW  538   1.950   1.028   0.747  0.1547 -0.2518 -0.0775
  180SOL    HW1  539   1.950   0.932   0.779 -0.5653  1.4500 -0.1046
  180SOL    HW2  540   2.011   1.088   0.800 -1.2401 -3.3651 -1.5427
  181SOL     OW  541   1.917   1.242   2.400 -0.2751 -0.0288  0.2544
  181SOL    HW1  542   1.923   1.342   2.399  0.5311 -0.9849  0.1549
  181SOL    HW2  543   1.828   1.214   2.445  0.3731 -0.6995 -0.4314
  182SOL     OW  544   2.578   2.513   2.175  0.1753  0.3357  0.1701
  182SOL    HW1  545   2.617   2.510   2.083 -0.5605 -0.9569  1.6413
  182SOL    HW2  546   2.622   2.437   2.220  1.9184  1.3627 -2.5110
  183SOL     OW  547   1.906   0.611   1.957  0.6172  0.3512  0.0196
  183SOL    HW1  548   1.896   0.691   2.020  1.7709  2.4436  3.6547
  183SOL    HW2  549   2.003   0.584   1.961  1.2482  3.1257  1.0536
  184SOL     OW  550   0.077   1.800   1.340 -0.4785  0.1580  0.2976
  184SOL    HW1  551   0.105   1.790   1.244  0.3425 -2.1778  3.8577
  184SOL    HW2  552   0.145   1.856   1.395 -0.5531  0.6926  0.4458
  185SOL     OW  553   1.935   0.134   0.642 -0.1864  0.1156 -0.3541
  185SOL    HW1  554   1.854   0.087   0.681  2.5297  1.1086  3.6599
  185SOL    HW2  555   2.005   0.060   0.627  0.1587 -0.6526 -0.3712
  186SOL     OW  556   2.995   2.624   2.690 -0.1035 -0.1076 -0.0025
  186SOL    HW1  557   2.900   2.621   2.649 -1.1484 -0.9081  0.4115
  186SOL    HW2  558   3.069   2.613   2.624  0.7361 -0.5242 -1.0157
  187SOL     OW  559   2.666   1.230   0.540 -0.0989 -0.1489  0.3108
  187SOL    HW1  560   2.725   1.311   0.523 -0.0541 -2.0191 -0.0445
  187SOL    HW2  561   2.599   1.230   0.466  1.6620 -0.4447  3.6586
  188SOL     OW  562   2.360   1.328   0.968 -0.1404  0.0026 -0.3628
  188SOL    HW1  563   2.316   1.315   1.060 -0.8985 -1.0793  1.4173
  188SOL    HW2  564   2.301   1.387   0.906 -0.0440  1.1141 -1.1992
  189SOL     OW  565   2.993   0.153   2.431  0.3621 -0.3407  0.4025
  189SOL    HW1  566   2.928   0.163   2.357 -1.1756 -1.9283  1.0930
  189SOL    HW2  567   0.013   0.169   2.403  2.1405 -2.0924  0.8756
  190SOL     OW  568   1.420   1.047   1.680  0.2346  0.2628  0.4723
  190SOL    HW1  569   1.377   1.050   1.769 -0.8405 -1.0643 -2.5084
  190SOL    HW2  570   1.451   1.142   1.657 -0.5320  1.2800 -0.5184
  191SOL     OW  571   0.877   0.371   1.899  0.2304  0.1261 -0.5833
  191SOL    HW1  572   0.934   0.335   1.979  0.8310 -1.4769  1.0728
  191SOL    HW2  573   0.887   0.472   1.876  0.1600  0.6320 -0.9964
  192SOL     OW  574   1.577   2.038   1.869  0.0479  0.2778 -0.1343
  192SOL    HW1  575   1.510   2.013   1.943 -0.2863 -1.4958  0.0966
  192SOL    HW2  576   1.531   2.088   1.799  0.0594 -3.8930  0.5248
  193SOL     OW  577   1.739   0.551   1.190 -0.2006  0.1512  0.3815
  193SOL    HW1  578   1.778   0.475   1.247  0.8008 -3.5041 -0.2565
  193SOL    HW2  579   1.642   0.568   1.210  2.0552  0.0817 -1.6946
  194SOL     OW  580   0.530   2.069   1.339 -0.1243  0.2298  0.1315
  194SOL    HW1  581   0.442   2.024   1.314 -2.0311 -2.8004 -0.3147
  194SOL    HW2  582   0.608   2.004   1.313 -1.7836 -0.1530 -2.0528
  195SOL     OW  583   1.759   0.403   0.252  0.2651  0.1413  0.2998
  195SOL    HW1  584   1.799   0.338   0.185 -0.0221 -1.5172  0.4167
  195SOL    HW2  585   1.776   0.385   0.347 -0.4264  1.5495 -5.3045
  196SOL     OW  586   0.205   1.501   1.375 -0.4873  0.4365  0.1184
  196SOL    HW1  587   0.269   1.579   1.393 -2.2638 -1.8896  0.1245
  196SOL    HW2  588   0.150   1.477   1.460 -3.0352  1.2464 -0.7553
  197SOL     OW  589   0.969   0.160   1.748 -0.2296 -0.2361 -0.1887
  197SOL    HW1  590   1.031   0.195   1.669  1.3845  4.1359 -2.4645
  197SOL    HW2  591   0.945   0.245   1.799 -1.0111 -1.0237 -2.6198
  198SOL     OW  592   0.692   1.249   1.136  0.0412 -0.7988  0.8226
  198SOL    HW1  593   0.653   1.329   1.085  1.5561 -0.8464  1.9103
  198SOL    HW2  594   0.695   1.280   1.234  0.9487  1.2551  0.8452
  199SOL     OW  595   0.010   2.547   1.595 -0.2414 -0.2563  0.0176
  199SOL    HW1  596   0.030   2.637   1.635 -0.7241  1.9902  1.3082
  199SOL    HW2  597   0.087   2.478   1.595  0.4616 -0.4708 -0.1510
  200SOL     OW  598   1.812   1.300   1.715  0.3690  0.2520 -0.0943
  200SOL    HW1  599   1.889   1.282   1.784 -0.3387 -0.9993  1.8473
  200SOL    HW2  600   1.724   1.308   1.767  0.7784  0.1150 -0.9950
  201SOL     OW  601   0.752   1.830   2.038  0.5628 -0.2597 -0.6340
  201SOL    HW1  602   0.782   1.757   2.104  2.0527  1.1497 -0.4736
  201SOL    HW2  603   0.657   1.820   2.009 -2.5994 -0.0356 -0.1241
  202SOL     OW  604   1.510   0.400   0.024 -0.4769  0.5896 -0.1222
  202SOL    HW1  605   1.592   0.440   3.056 -2.6161 -3.1793 -0.1890
  202SOL    HW2  606   1.478   0.446   0.107 -1.6729 -1.6807  1.0980
  203SOL     OW  607   1.332   2.704   2.340 -0.3437  0.2246 -0.2236
  203SOL    HW1  608   1.284   2.617   2.346 -1.7968 -0.5316  2.6842
  203SOL    HW2  609   1.368   2.725   2.435 -0.4626  0.0115  3.0679
  204SOL     OW  610   0.656   1.809   1.670 -0.4986 -0.7961 -0.6832
  204SOL    HW1  611   0.751   1.823   1.638 -1.4203 -0.6103 -0.5949
  204SOL    HW2  612   0.616   1.721   1.647  1.9678  0.0308  2.7794
  205SOL     OW  613   1.833   1.532   1.962 -0.4519  0.4098 -0.3766
  205SOL    HW1  614   1.780   1.614   1.932 -3.6007  2.7566 -0.4301
  205SOL    HW2  615   1.839   1.522   2.064  4.0450 -1.2032  2.3318
  206SOL     OW  616   0.129   1.584   2.156  0.5882  0.1890 -0.2007
  206SOL    HW1  617   0.222   1.555   2.132  0.2268 -0.6278  0.4701
  206SOL    HW2  618   0.129   1.651   2.235 -1.7005  0.3452 -0.4674
  207SOL     OW  619   0.827   2.838   2.068 -0.1627  0.3727 -0.5710
  207SOL    HW1  620   0.798   2.808   1.974 -1.0854 -1.1639 -0.5104
  207SOL    HW2  621   0.746   2.860   2.122 -2.3002  1.9246  0.2954
  208SOL     OW  622   0.500   2.599   1.783 -0.1056 -0.3551 -0.1352
  208SOL    HW1  623   0.541   2.612   1.877  0.0303 -1.0181  2.0468
  208SOL    HW2  624   0.556   2.633   1.705  0.6609 -0.7229 -0.3076
  209SOL     OW  625   1.435   2.762   0.501 -0.1336  0.1425 -0.0057
  209SOL    HW1  626   1.383   2.816   0.569 -0.4814  2.0160  0.6740
  209SOL    HW2  627   1.471   2.822   0.426  2.6332  1.9321  0.8617
  210SOL     OW  628   2.642   0.732   0.858  0.0799  0.3934  0.6048
  210SOL    HW1  629   2.643   0.646   0.802  0.4946  2.7890 -1.0117
  210SOL    HW2  630   2.618   0.807   0.794  0.5033  1.2629  1.0088
  211SOL     OW  631   0.625   0.247   1.877 -0.2356  0.1852  0.4153
  211SOL    HW1  632   0.728   0.254   1.900  1.7269 -0.1081 -0.9887
  211SOL    HW2  633   0.595   0.326   1.826  0.5285 -0.2836  1.4682
  212SOL     OW  634   1.308   2.613   1.647  0.3975 -0.0642  0.6471
  212SOL    HW1  635   1.317   2.588   1.548 -0.6083  0.5562  1.8706
  212SOL    HW2  636   1.284   2.531   1.702 -1.7970 -0.8397  0.5355
  213SOL     OW  637   3.048   0.390   1.603 -0.1629  0.5127  0.2092
  213SOL    HW1  638   0.008   0.468   1.547 -0.4225  3.8202  2.8042
  213SOL    HW2  639   2.981   0.335   1.549  0.2006 -1.4263 -1.8371
  214SOL     OW  640   0.582   2.658   2.050  0.1510 -0.0016  0.5613
  214SOL    HW1  641   0.674   2.624   2.021 -1.6992 -0.2522  0.2183
  214SOL    HW2  642   0.585   2.714   2.135 -0.3976  0.6683 -0.4076
  215SOL     OW  643   2.595   1.668   1.789  0.0948 -0.1229 -0.8039
  215SOL    HW1  644   2.593   1.601   1.714 -1.7801  4.3050  0.7365
  215SOL    HW2  645   2.549   1.755   1.759  0.7005 -0.9219 -0.6228
  216SOL     OW  646   0.516   1.074   2.142  1.0574  0.3541 -0.4632
  216SOL    HW1  647   0.531   1.096   2.041  2.7389  1.0099 -3.3943
  216SOL    HW2  648   0.604   1.090   2.188 -0.5045  1.0485  1.1454
  217SOL     OW  649   2.553   0.233   1.328 -0.0560 -0.5216  0.3378
  217SOL    HW1  650   2.548   0.157   1.394 -0.1240  1.6029 -1.8953
  217SOL    HW2  651   2.539   0.192   1.232 -3.2808  0.5368 -0.9708
  218SOL     OW  652   1.404   2.044   1.095 -0.1529  0.0246  0.2055
  218SOL    HW1  653   1.461   1.959   1.087 -0.0714 -0.3220  1.3200
  218SOL    HW2  654   1.367   2.078   1.001  0.4804  3.8467  0.1010
  219SOL     OW  655   1.826   2.682   0.491  0.3221  0.0189 -0.3466
  219SOL    HW1  656   1.878   2.668   0.575 -0.3528 -1.0355 -4.0167
  219SOL    HW2  657   1.730   2.642   0.501 -0.1704  0.4647  0.6055
  220SOL     OW  658   1.573   2.474   0.205 -0.0808 -0.5278 -0.0753
  220SOL    HW1  659   1.492   2.497   0.144 -1.0805 -0.8097 -2.5836
  220SOL    HW2  660   1.658   2.483   0.153 -4.5966 -1.6564  2.5237
  221SOL     OW  661   2.653   1.548   0.265  0.5674  0.0468 -0.1358
  221SOL    HW1  662   2.703   1.619   0.316  0.3179  3.2009  1.6095
  221SOL    HW2  663   2.607   1.494   0.335  2.6641 -0.3058 -2.2801
  222SOL     OW  664   0.871   2.309   0.904  0.1771  0.2661  0.3541
  222SOL    HW1  665   0.841   2.409   0.891 -2.0704  0.6591  0.5975
  222SOL    HW2  666   0.909   2.297   0.995 -1.1794 -0.1742 -0.9264
  223SOL     OW  667   1.052   2.806   0.193 -0.1045 -0.0209  0.0242
  223SOL    HW1  668   0.954   2.808   0.164  0.1967  1.6779  1.4605
  223SOL    HW2  669   1.092   2.722   0.149 -1.6513 -2.7916 -2.2561
  224SOL     OW  670   2.818   1.019   1.084  0.6526  0.6115  0.0840
  224SOL    HW1  671   2.745   1.060   1.026 -1.3635  0.9406  0.6401
  224SOL    HW2  672   2.815   1.070   1.173 -0.5318  1.9839 -3.3598
  225SOL     OW  673   2.822   1.792   1.096  0.0613  0.5331 -0.3154
  225SOL    HW1  674   2.774   1.864   1.047 -2.0198  0.1905  0.4414
  225SOL    HW2  675   2.872   1.825   1.180 -0.6839  1.6991  2.6815
  226SOL     OW  676   0.810   2.912   1.025  0.1465 -0.0996 -0.3263
  226SOL    HW1  677   0.845   2.831   1.074 -0.6606 -0.8736  0.5678
  226SOL    HW2  678   0.725   2.945   1.069  0.6140 -1.5508 -1.0700
  227SOL     OW  679   1.075   1.593   1.277  0.6099  0.0664  0.4486
  227SOL    HW1  680   1.087   1.525   1.200  1.9369 -3.5403  0.1759
  227SOL    HW2  681   0.992   1.568   1.327  1.1881 -0.5129  0.3064
  228SOL     OW  682   1.027   0.237   2.080 -0.1641  0.1974  0.5077
  228SOL    HW1  683   1.017   0.138   2.050  1.1777 -0.4345 -0.2670
  228SOL    HW2  684   1.067   0.242   2.173  1.8427  1.5997  0.7707
  229SOL     OW  685   2.985   0.766   2.378 -0.1026  0.1398  0.4376
  229SOL    HW1  686   3.000   0.677   2.429 -1.5957  1.7312 -0.1285
  229SOL    HW2  687   3.000   0.743   2.282  2.5206 -1.2975  1.2402
  230SOL     OW  688   3.037   0.898   1.000  0.4496  0.0610 -0.3185
  230SOL    HW1  689   0.015   0.887   1.087 -2.4790  1.2107 -2.0629
  230SOL    HW2  690   2.944   0.937   1.032  0.1440 -0.2823  0.9655
  231SOL     OW  691   1.408   3.001   2.501 -0.0765 -0.0074 -0.3791
  231SOL    HW1  692   1.445   2.910   2.527 -1.6139 -1.1903  2.7002
  231SOL    HW2  693   1.373   3.051   2.582  3.4420  2.0836  1.3144
  232SOL     OW  694   0.137   1.514   0.063 -1.1288  0.1249  0.1153
  232SOL    HW1  695   0.168   1.583   0.129 -1.9719  3.0904 -2.3348
  232SOL    HW2  696   0.170   1.426   0.098 -3.3394  0.9586 -1.1995
  233SOL     OW  697   1.225   2.403   2.856  0.4525  0.3387  0.7554
  233SOL    HW1  698   1.255   2.394   2.761  0.0853 -1.9216  0.7023
  233SOL    HW2  699   1.124   2.430   2.862 -1.6182  1.4464 -0.9178
  234SOL     OW  700   0.804   1.371   1.768  0.4742 -0.1487  0.1720
  234SOL    HW1  701   0.853   1.279   1.768  2.2188 -0.9500  0.9708
  234SOL    HW2  702   0.851   1.436   1.827  1.6627 -0.2373  0.6263
  235SOL     OW  703   0.376   2.349   2.063 -0.0447  0.6055 -0.1169
  235SOL    HW1  704   0.377   2.248   2.038 -0.5704 -1.4114  0.9892
  235SOL    HW2  705   0.390   2.417   1.987 -0.5429  0.8154  1.0970
  236SOL     OW  706   1.690   1.834   2.853  0.1273 -0.0016  0.4396
  236SOL    HW1  707   1.666   1.806   2.947 -0.1777 -1.9307 -0.6604
  236SOL    HW2  708   1.658   1.930   2.835 -1.5745  0.8942 -0.9429
  237SOL     OW  709   1.530   0.792   0.313  0.0009 -0.5183  0.0527
  237SOL    HW1  710   1.618   0.761   0.276 -1.9574  3.7188  0.7156
  237SOL    HW2  711   1.504   0.878   0.272  0.7428 -1.0839  0.2959
  238SOL     OW  712   0.953   2.658   2.255  0.7121 -0.4589 -0.4128
  238SOL    HW1  713   0.901   2.707   2.184  0.3610 -0.8130 -0.7230
  238SOL    HW2  714   0.979   2.565   2.218  0.7400 -1.3025  0.7670
  239SOL     OW  715   1.133   2.689   1.993 -0.2299 -0.2115 -0.1472
  239SOL    HW1  716   1.033   2.671   2.004  0.6741 -1.5190  0.2587
  239SOL    HW2  717   1.187   2.605   1.974 -1.9495  0.5128  0.3298
  240SOL     OW  718   1.929   2.902   0.823 -0.2796 -0.6272 -0.3240
  240SOL    HW1  719   1.904   2.807   0.789 -1.6393  1.4419 -0.2275
  240SOL    HW2  720   2.000   2.883   0.901  4.3120  0.5626  0.9614
  241SOL     OW  721   1.319   1.448   1.942 -0.2836 -0.4072 -0.3892
  241SOL    HW1  722   1.245   1.379   1.923  1.8180 -0.2144  1.6639
  241SOL    HW2  723   1.297   1.502   2.030 -0.4382 -0.9574  1.6737
  242SOL     OW  724   2.618   0.775   3.012 -0.0789  0.4208 -0.1267
  242SOL    HW1  725   2.663   0.823   0.017 -0.7015 -2.4179 -2.1434
  242SOL    HW2  726   2.547   0.833   2.959 -2.7974  1.6051 -1.9997
  243SOL     OW  727   0.752   0.810   1.228  0.0433  0.4950 -0.1981
  243SOL    HW1  728   0.808   0.759   1.159  2.1099 -0.6094 -1.3170
  243SOL    HW2  729   0.784   0.785   1.322  2.6557 -3.4499 -3.7705
  244SOL     OW  730   1.389   0.075   2.723 -0.0482  0.3622  0.0764
  244SOL    HW1  731   1.355   0.135   2.800  0.9797 -1.6995  2.0768
  244SOL    HW2  732   1.491   0.080   2.731  1.8545 -0.7164  0.0770
  245SOL     OW  733   1.977   0.104   2.861 -0.2705  0.1582 -0.6437
  245SOL    HW1  734   1.999   0.019   2.908 -0.1278 -1.1565  1.0595
  245SOL    HW2  735   2.004   0.093   2.763 -0.5326  4.1645 -0.1002
  246SOL     OW  736   0.816   0.776   1.480  0.3800 -0.3214  0.5234
  246SOL    HW1  737   0.910   0.760   1.447 -2.8749  0.9089 -0.0744
  246SOL    HW2  738   0.780   0.694   1.535 -2.6016 -2.2342 -0.4532
  247SOL     OW  739   0.247   0.451   1.822  0.6734  0.1538  0.0454
  247SOL    HW1  740   0.238   0.358   1.863  0.6551  1.0383  1.3637
  247SOL    HW2  741   0.342   0.460   1.794 -1.1533 -0.4166 -0.2855
  248SOL     OW  742   2.840   1.889   1.987  0.4718 -0.9603  0.0005
  248SOL    HW1  743   2.913   1.824   1.973 -0.9436  2.4634  0.3617
  248SOL    HW2  744   2.791   1.883   2.079  1.3725  0.7797  3.4405
  249SOL     OW  745   2.941   0.183   3.065  1.1292 -0.0663 -0.5086
  249SOL    HW1  746   3.032   0.227   3.053  2.2324  0.1317  3.9385
  249SOL    HW2  747   2.953   0.082   3.053 -0.2508 -1.2808 -0.9454
  250SOL     OW  748   2.821   0.124   0.262  0.9687 -0.1282 -0.0664
  250SOL    HW1  749   2.846   0.154   0.169  1.8057  0.4225  1.5686
  250SOL    HW2  750   2.793   0.028   0.263  1.3549 -1.4550  1.1007
  251SOL     OW  751   0.853   1.505   1.385 -0.5293  0.2172 -0.1395
  251SOL    HW1  752   0.772   1.556   1.341 -2.0815 -0.2549 -2.7311
  251SOL    HW2  753   0.828   1.411   1.408 -0.0030 -3.0447 -5.0808
  252SOL     OW  754   1.813   2.705   1.396 -0.5456 -0.0265 -0.2959
  252SOL    HW1  755   1.887   2.657   1.442 -2.6596  0.6878  0.8362
  252SOL    HW2  756   1.856   2.752   1.317  0.3161  2.1307 -1.5678
  253SOL     OW  757   2.254   1.910   2.725 -0.8756 -0.4793  0.6754
  253SOL    HW1  758   2.172   1.969   2.701  1.3006 -1.1547  0.9760
  253SOL    HW2  759   2.282   1.856   2.639 -0.3180  0.1331 -2.4941
  254SOL     OW  760   0.761   2.084   1.988 -0.4795  0.4689 -0.6619
  254SOL    HW1  761   0.762   1.981   2.006 -0.2627  0.1888  1.9852
  254SOL    HW2  762   0.694   2.104   1.910 -3.4008  2.6755 -1.4269
  255SOL     OW  763   1.114   0.227   1.497 -0.6309 -0.0216  0.1232
  255SOL    HW1  764   1.215   0.214   1.498  1.8247  0.9659 -0.3342
  255SOL    HW2  765   1.065   0.160   1.431  1.5023 -2.5700  0.4864
  256SOL     OW  766   2.271   2.048   1.339  0.6703  0.1561 -0.3942
  256SOL    HW1  767   2.169   2.042   1.335 -0.4086 -0.7361 -0.3401
  256SOL    HW2  768   2.317   2.004   1.259 -0.0156 -0.6276  1.8932
  257SOL     OW  769   0.579   2.097   2.916 -0.0975  0.4200  0.0795
  257SOL    HW1  770   0.678   2.111   2.931 -1.5519  1.6580 -0.6503
  257SOL    HW2  771   0.533   2.182   2.942  3.6376  0.7583 -1.0847
  258SOL     OW  772   0.410   1.433   2.719 -0.1486 -0.1209  0.2918
  258SOL    HW1  773   0.503   1.417   2.686  0.8536 -0.5896 -1.3643
  258SOL    HW2  774   0.398   1.404   2.819 -3.2410 -0.0845 -0.5404
  259SOL     OW  775   0.883   1.409   2.579  0.1198 -0.7143 -0.0317
  259SOL    HW1  776   0.933   1.336   2.533 -0.2889  1.7787 -0.0845
  259SOL    HW2  777   0.888   1.494   2.523  0.4328 -0.5344  1.6721
  260SOL     OW  778   1.869   0.869   1.320 -0.1025 -0.5810  0.2217
  260SOL    HW1  779   1.798   0.884   1.389  2.3244  0.3937 -0.6127
  260SOL    HW2  780   1.838   0.868   1.223 -1.0796  1.3077  1.2098
  261SOL     OW  781   1.189   0.214   1.019 -0.1437  0.5040 -0.4323
  261SOL    HW1  782   1.128   0.140   1.041 -0.2156  1.2586 -3.0027
  261SOL    HW2  783   1.196   0.277   1.101 -1.7523 -1.5477  1.1414
  262SOL     OW  784   2.022   2.025   2.602  1.0129 -0.5855 -0.1494
  262SOL    HW1  785   1.950   2.097   2.577 -2.2188  1.3623 -1.5470
  262SOL    HW2  786   2.037   1.970   2.516 -0.2581 -2.0020  0.7873
  263SOL     OW  787   2.994   1.619   3.042 -0.2775 -0.4831  0.7885
  263SOL    HW1  788   3.022   1.685   2.973 -3.8101 -0.3881 -0.5499
  263SOL    HW2  789   0.003   1.566   3.068 -0.5948 -2.9229 -1.1854
  264SOL     OW  790   0.363   1.878   0.935  0.3012 -0.2360  0.0641
  264SOL    HW1  791   0.464   1.874   0.951 -0.9870 -1.2024  1.6589
  264SOL    HW2  792   0.324   1.818   0.855  0.5530  0.2500 -0.0515
  265SOL     OW  793   0.633   0.919   0.824 -0.3781  0.2358  0.3541
  265SOL    HW1  794   0.581   0.994   0.767 -1.0936  1.8165 -2.9109
  265SOL    HW2  795   0.650   0.952   0.920 -1.8222 -0.0390 -0.1806
  266SOL     OW  796   1.429   1.621   2.969  0.7478  0.2904 -0.2991
  266SOL    HW1  797   1.495   1.556   2.920  2.1104 -0.4689  0.7200
  266SOL    HW2  798   1.448   1.722   2.964  1.3735  3.1751 -1.0196
  267SOL     OW  799   0.754   1.110   2.268 -0.2775 -0.4057 -0.5826
  267SOL    HW1  800   0.828   1.062   2.221 -1.1133 -1.3531  1.5395
  267SOL    HW2  801   0.738   1.067   2.355 -2.4836  0.2579  0.1609
  268SOL     OW  802   0.620   0.772   0.027 -0.3483 -0.3153  0.2736
  268SOL    HW1  803   0.706   0.826   0.020  0.8258  1.6106  1.1786
  268SOL    HW2  804   0.539   0.831   0.032 -0.0338 -1.6428  2.6742
  269SOL     OW  805   1.893   2.961   2.526  0.5077  0.3707  0.4288
  269SOL    HW1  806   1.840   2.957   2.440 -1.8545 -1.5744 -1.3437
  269SOL    HW2  807   1.835   2.939   2.605 -0.0159  1.8724  1.5626
  270SOL     OW  808   1.026   1.227   2.481  0.6285 -0.2213 -0.8961
  270SOL    HW1  809   1.127   1.220   2.487  0.6913 -3.1710 -1.7574
  270SOL    HW2  810   0.990   1.148   2.538  3.4331 -0.5507 -2.9977
  271SOL     OW  811   0.099   0.302   3.006  0.2899  0.1093 -0.3633
  271SOL    HW1  812   0.097   0.368   0.009  0.3360  0.5441 -1.0401
  271SOL    HW2  813   0.176   0.319   2.941 -1.0989  1.1999  1.7068
  272SOL     OW  814   2.500   0.926   2.814 -0.1744 -0.3548  0.1034
  272SOL    HW1  815   2.468   1.017   2.840  1.0811 -0.7945  0.5234
  272SOL    HW2  816   2.594   0.928   2.778  0.3837 -0.5511  0.1950
  273SOL     OW  817   0.234   0.238   1.977  0.0778 -0.5357  0.4381
  273SOL    HW1  818   0.149   0.182   1.968 -2.4961  2.8660  3.0705
  273SOL    HW2  819   0.225   0.299   2.061 -0.3779  0.1658  3.3053
  274SOL     OW  820   3.040   0.509   1.839 -0.1458 -0.0870  0.1548
  274SOL    HW1  821   0.062   0.502   1.872  0.3134  0.2576  1.0569
  274SOL    HW2  822   3.036   0.453   1.750  3.6271 -0.4002 -0.1213
  275SOL     OW  823   1.695   1.763   0.633 -0.5490 -0.1719 -0.0711
  275SOL    HW1  824   1.759   1.784   0.557 -1.8875  1.3842 -0.1264
  275SOL    HW2  825   1.622   1.836   0.643  2.2491  1.8135  0.1183
  276SOL     OW  826   0.682   1.375   2.210  0.2763  0.4394 -0.3674
  276SOL    HW1  827   0.709   1.281   2.226 -0.4725 -2.9238 -0.3047
  276SOL    HW2  828   0.599   1.393   2.266  0.3266  0.6976  0.4395
  277SOL     OW  829   2.021   2.719   2.460 -0.4249  0.0441  0.3787
  277SOL    HW1  830   1.993   2.716   2.361 -1.0215 -0.4226 -0.3745
  277SOL    HW2  831   1.996   2.811   2.499 -1.2370  0.0348 -1.7747
  278SOL     OW  832   2.200   3.055   1.814  0.3441  0.1213  0.3938
  278SOL    HW1  833   2.110   3.014   1.838 -1.9305 -0.6343  0.4866
  278SOL    HW2  834   2.221   0.046   1.885 -0.5133 -0.1889  0.7883
  279SOL     OW  835   1.659   1.322   3.019  0.1031 -0.2803 -0.0334
  279SOL    HW1  836   1.624   1.385   2.942 -1.3328  2.5039 -3.4294
  279SOL    HW2  837   1.640   1.368   0.033 -1.6426  0.4807  1.3696
  280SOL     OW  838   0.860   0.895   0.008 -0.4260 -0.2626 -0.4754
  280SOL    HW1  839   0.860   0.951   0.094  0.7710  0.4184 -1.1942
  280SOL    HW2  840   0.948   0.852   3.056 -0.7681 -0.9676 -3.7815
  281SOL     OW  841   3.017   2.957   1.142 -0.3630 -0.7489  0.9021
  281SOL    HW1  842   0.042   2.930   1.163  4.1885 -1.2773 -0.2435
  281SOL    HW2  843   2.999   3.055   1.172 -1.3611  0.5400  2.8932
  282SOL     OW  844   2.882   2.176   0.810 -0.7248  0.3677  0.2795
  282SOL    HW1  845   2.981   2.172   0.838  1.6817  0.2592  0.7414
  282SOL    HW2  846   2.865   2.191   0.707  0.1386 -1.2819 -1.5109
  283SOL     OW  847   1.263   1.844   1.896  0.3174  0.0230  0.3790
  283SOL    HW1  848   1.289   1.924   1.955 -2.7052  0.9946 -0.7556
  283SOL    HW2  849   1.171   1.816   1.928  2.8019  0.2122  1.3189
  284SOL     OW  850   2.017   0.035   0.205  0.6628  0.0452 -0.3443
  284SOL    HW1  851   2.094   0.026   0.276  0.5105  0.3242  0.8884
  284SOL    HW2  852   2.047   3.066   0.118  0.8232 -0.0947  1.9183
  285SOL     OW  853   2.905   2.582   2.342 -0.1273  0.0653  0.6990
  285SOL    HW1  854   2.924   2.680   2.360  1.5457  1.4877  0.6031
  285SOL    HW2  855   2.842   2.540   2.411  0.6189 -1.0455 -0.4119
  286SOL     OW  856   2.081   2.455   1.352 -0.2405 -0.3638 -0.1616
  286SOL    HW1  857   2.083   2.533   1.415 -0.6589  0.0067 -0.0370
  286SOL    HW2  858   2.152   2.384   1.383 -0.8501 -1.9099  2.3880
  287SOL     OW  859   0.393   1.509   0.665 -0.5605  0.1444 -0.2309
  287SOL    HW1  860   0.348   1.440   0.723 -0.7981 -2.3068 -1.2300
  287SOL    HW2  861   0.491   1.520   0.689 -0.4327  0.4666 -0.1199
  288SOL     OW  862   1.955   1.875   2.843  0.9326  0.2872 -0.3800
  288SOL    HW1  863   1.854   1.849   2.829 -3.3316 -0.7051  0.7654
  288SOL    HW2  864   1.982   1.941   2.774 -1.8454 -1.2718 -0.7280
  289SOL     OW  865   0.404   1.688   2.408 -0.0865 -0.3426  0.8520
  289SOL    HW1  866   0.462   1.769   2.373  2.4342 -2.6876 -2.2680
  289SOL    HW2  867   0.416   1.694   2.510  0.0779 -0.1816  1.5887
  290SOL     OW  868   1.167   1.978   1.200 -0.3815  0.1254 -0.0046
  290SOL    HW1  869   1.262   2.005   1.169  1.1002 -2.7358 -2.9895
  290SOL    HW2  870   1.116   1.962   1.116  1.0606  2.2413  3.0141
  291SOL     OW  871   1.825   1.127   2.889 -0.1950  0.3085 -0.4529
  291SOL    HW1  872   1.917   1.159   2.855  0.0971 -0.6842 -0.0236
  291SOL    HW2  873   1.795   1.180   2.971 -0.4497  1.6941 -0.4360
  292SOL     OW  874   0.987   1.335   0.617  0.0308 -0.0759  0.0596
  292SOL    HW1  875   0.887   1.323   0.595  3.0753 -0.8836  0.2212
  292SOL    HW2  876   1.026   1.261   0.678 -0.1368  0.3188 -1.6748
  293SOL     OW  877   1.454   2.758   1.309  0.1471  0.2020  0.2412
  293SOL    HW1  878   1.497   2.667   1.328 -0.8221  3.3420 -1.9068
  293SOL    HW2  879   1.412   2.760   1.219  1.2352 -0.3437  1.6820
  294SOL     OW  880   2.907   0.977   2.936 -0.1129  0.8852 -0.1918
  294SOL    HW1  881   2.843   0.963   2.859  0.3912 -1.6756 -0.6139
  294SOL    HW2  882   2.954   0.888   2.949 -1.8298  0.8585  2.2977
  295SOL     OW  883   1.600   2.038   2.625 -0.2333  0.2908  0.0041
  295SOL    HW1  884   1.642   2.087   2.703 -0.6923 -0.6403 -1.1035
  295SOL    HW2  885   1.667   2.004   2.554  1.6277 -0.4109 -1.3810
  296SOL     OW  886   1.863   0.840   2.129  0.5764  0.1831 -0.0251
  296SOL    HW1  887   1.809   0.893   2.058  0.9928  0.6856 -0.2812
  296SOL    HW2  888   1.949   0.887   2.153 -1.7510 -3.8364 -2.3069
  297SOL     OW  889   0.032   0.818   2.103 -0.0416  0.5307  0.0497
  297SOL    HW1  890   3.054   0.806   2.017  0.8621  0.4222 -0.0230
  297SOL    HW2  891   0.073   0.912   2.102  1.4391  0.6101  1.6466
  298SOL     OW  892   1.313   2.066   2.027 -0.5158  0.2645 -0.3961
  298SOL    HW1  893   1.279   2.124   1.949  1.2539  0.8535 -2.0518
  298SOL    HW2  894   1.276   2.088   2.120 -3.0744  0.6159  0.1767
  299SOL     OW  895   0.631   2.770   2.511  0.2413 -0.7244  0.2903
  299SOL    HW1  896   0.711   2.758   2.577  0.2809 -1.2820  0.4927
  299SOL    HW2  897   0.574   2.685   2.515  0.3228 -0.6442  0.5470
  300SOL     OW  898   0.149   0.868   2.789 -0.1125  0.0649 -0.3688
  300SOL    HW1  899   0.081   0.815   2.838  1.5358  1.2601 -0.5303
  300SOL    HW2  900   0.115   0.902   2.697 -0.1046 -2.2902 -0.4784
  301SOL     OW  901   1.636   0.979   1.464 -0.0277 -0.7162 -0.0685
  301SOL    HW1  902   1.593   1.003   1.555  0.4107  0.7551  0.0939
  301SOL    HW2  903   1.693   1.061   1.441 -2.2940  1.9535 -0.6170
  302SOL     OW  904   2.588   1.887   2.438  0.3039 -0.4580 -0.4901
  302SOL    HW1  905   2.616   1.849   2.529 -1.5627  0.6483 -2.1696
  302SOL    HW2  906   2.543   1.982   2.448 -1.3439  0.6563 -0.2872
  303SOL     OW  907   0.221   3.023   2.327 -0.6836  0.9711 -0.0822
  303SOL    HW1  908   0.236   2.938   2.381 -1.7715 -1.6022  0.5014
  303SOL    HW2  909   0.226   0.035   2.386  0.3798 -0.1328  0.3902
  304SOL     OW  910   0.134   1.183   1.492 -0.0390 -0.0815  0.4663
  304SOL    HW1  911   0.083   1.273   1.514 -1.5919  0.7647 -0.3372
  304SOL    HW2  912   0.133   1.119   1.573 -1.7650  0.2669  0.7025
  305SOL     OW  913   2.949   0.104   1.259  0.4451  0.9501  0.1912
  305SOL    HW1  914   2.963   0.190   1.206  0.8517 -1.0031 -2.1016
  305SOL    HW2  915   2.865   0.102   1.320  0.2289 -2.3749 -0.0637
  306SOL     OW  916   2.312   1.302   1.237 -0.2468  0.4719 -0.3379
  306SOL    HW1  917   2.383   1.253   1.288 -0.3642 -0.8837  0.0549
  306SOL    HW2  918   2.309   1.400   1.255  0.2532  3.2519  2.5114
  307SOL     OW  919   2.129   2.867   0.991  0.2270  0.2244 -0.4561
  307SOL    HW1  920   2.199   2.796   1.000  1.6270  0.9409 -0.5064
  307SOL    HW2  921   2.162   2.952   1.036  3.7168  1.8765 -1.1775
  308SOL     OW  922   2.672   2.079   1.281 -0.7086  0.2879 -0.0231
  308SOL    HW1  923   2.662   2.153   1.215 -1.5933  1.4513  2.1033
  308SOL    HW2  924   2.754   2.018   1.269  2.5259 -2.0262  0.8714
  309SOL     OW  925   2.149   1.828   1.751  0.2941 -0.2404  0.0682
  309SOL    HW1  926   2.223   1.800   1.684 -2.7332 -0.1478  0.0409
  309SOL    HW2  927   2.081   1.754   1.756  2.0364  1.3707 -1.6667
  310SOL     OW  928   2.442   1.395   2.829 -0.2281 -0.3159  0.2741
  310SOL    HW1  929   2.477   1.380   2.922  3.0111 -2.5854 -1.8947
  310SOL    HW2  930   2.339   1.369   2.829 -0.1307 -1.9577 -1.5357
  311SOL     OW  931   2.019   1.146   2.654 -0.8212 -0.0399  0.4737
  311SOL    HW1  932   2.013   1.157   2.554 -0.2299  2.1881  0.9681
  311SOL    HW2  933   2.002   1.051   2.679  1.5635  1.3224 -1.4190
  312SOL     OW  934   1.564   2.183   2.136  0.3241 -0.0315 -0.3203
  312SOL    HW1  935   1.554   2.217   2.233 -1.6541  2.6580  3.1724
  312SOL    HW2  936   1.479   2.154   2.095  2.6720 -2.5843  1.7378
  313SOL     OW  937   0.384   2.798   1.007 -0.2273 -0.1605 -0.5919
  313SOL    HW1  938   0.306   2.806   0.937  1.1632 -1.4017 -0.4389
  313SOL    HW2  939   0.445   2.717   1.001 -3.2771  2.9314  1.7617
  314SOL     OW  940   0.602   1.620   1.299  0.3474 -0.1285  0.1498
  314SOL    HW1  941   0.520   1.593   1.347  1.7284  0.1666  0.4250
  314SOL    HW2  942   0.598   1.596   1.201 -0.2011 -0.6864 -0.9122
  315SOL     OW  943   0.627   2.877   2.261  0.2384  0.4666 -0.0260
  315SOL    HW1  944   0.637   2.842   2.356 -0.7606 -0.6499 -2.3643
  315SOL    HW2  945   0.604   2.975   2.263  1.7121 -1.6265  1.1937
  316SOL     OW  946   0.081   2.205   0.939 -0.1284  0.0204  0.0559
  316SOL    HW1  947   0.006   2.238   1.005 -0.8408 -0.1407  1.2455
  316SOL    HW2  948   0.162   2.164   0.988 -0.7966 -1.5059 -0.1597
  317SOL     OW  949   1.911   0.692   0.372 -0.8226  0.9317 -0.2598
  317SOL    HW1  950   1.836   0.681   0.304 -0.4701  0.6621 -0.8166
  317SOL    HW2  951   1.963   0.606   0.383  1.7476 -1.4250  3.0639
  318SOL     OW  952   2.752   2.713   3.057  0.2219 -0.3561 -0.0587
  318SOL    HW1  953   2.710   2.701   0.072  0.0852 -3.0519 -3.8765
  318SOL    HW2  954   2.836   2.655   3.051 -1.1614  0.0385 -3.3464
  319SOL     OW  955   1.558   1.712   0.267 -0.1235 -0.1530  0.3249
  319SOL    HW1  956   1.571   1.801   0.314  1.3634  0.5687  0.7571
  319SOL    HW2  957   1.584   1.731   0.171  0.6251 -0.9953  0.2447
  320SOL     OW  958   0.833   2.212   2.654 -0.1599  0.2004 -0.1895
  320SOL    HW1  959   0.828   2.109   2.631  0.2506 -0.7410  1.0757
  320SOL    HW2  960   0.830   2.226   2.759  1.9302  0.9258  1.5183
  321SOL     OW  961   1.158   2.565   0.141  0.1955 -0.3036  0.2566
  321SOL    HW1  962   1.076   2.518   0.110  1.5824  0.3431  4.0020
  321SOL    HW2  963   1.163   2.584   0.243  0.1187 -0.1582  3.0124
  322SOL     OW  964   2.155   0.505   2.039 -0.2654 -0.4565 -0.0047
  322SOL    HW1  965   2.119   0.423   2.087  1.1273  1.3226 -1.5126
  322SOL    HW2  966   2.214   0.479   1.960 -2.2049 -2.8865  2.7655
  323SOL     OW  967   2.708   0.979   0.679  0.2378  0.1705  0.6232
  323SOL    HW1  968   2.811   0.968   0.693 -0.1388 -0.3723 -0.5526
  323SOL    HW2  969   2.687   1.061   0.624  1.5576 -0.6396 -1.2992
  324SOL     OW  970   0.280   0.402   2.178 -0.0126  0.2865  1.3192
  324SOL    HW1  971   0.248   0.486   2.221  0.8026 -0.2824 -3.8096
  324SOL    HW2  972   0.378   0.400   2.164 -3.2619 -1.1223  2.1664
  325SOL     OW  973   0.822   3.019   2.471  0.3958  0.2154  0.3134
  325SOL    HW1  974   0.786   0.006   2.400  0.9574 -0.3092 -1.8721
  325SOL    HW2  975   0.783   3.042   2.565  0.9541  1.2124  2.5480
  326SOL     OW  976   2.491   2.441   0.711 -0.0484 -0.2842  0.0066
  326SOL    HW1  977   2.505   2.355   0.766 -1.8908  0.2948 -0.1636
  326SOL    HW2  978   2.524   2.520   0.768  0.8743  0.0533  0.9412
  327SOL     OW  979   1.747   0.998   0.152 -0.0326 -0.7304 -0.0659
  327SOL    HW1  980   1.650   1.016   0.186 -2.5921 -0.6188  0.9793
  327SOL    HW2  981   1.748   0.934   0.072  1.0925  2.0256  1.6066
  328SOL     OW  982   0.347   1.953   2.141  0.2662 -0.3156 -0.0142
  328SOL    HW1  983   0.408   1.932   2.219 -2.3276  1.3930 -2.3405
  328SOL    HW2  984   0.254   1.968   2.177  1.3679  0.4850  0.6269
  329SOL     OW  985   2.597   2.663   1.491  0.4056 -0.1733 -0.1102
  329SOL    HW1  986   2.661   2.593   1.461 -0.5300  0.8070  0.6500
  329SOL    HW2  987   2.515   2.625   1.538  1.8597  0.1488  2.6019
  330SOL     OW  988   2.409   1.235   1.811 -0.0861 -0.1570 -0.4362
  330SOL    HW1  989   2.352   1.273   1.884 -0.1561 -0.2570 -2.5325
  330SOL    HW2  990   2.506   1.266   1.822 -0.4521  0.3712 -0.4042
  331SOL     OW  991   2.732   2.019   0.974 -0.6792 -0.6053 -0.0373
  331SOL    HW1  992   2.797   2.077   0.923  1.8884  0.1472  0.2594
  331SOL    HW2  993   2.637   2.002   0.933  0.3401 -1.9939  0.9618
  332SOL     OW  994   0.635   2.552   0.175 -0.6121 -0.0184  0.0432
  332SOL    HW1  995   0.558   2.620   0.173  0.8852  2.0874  1.2355
  332SOL    HW2  996   0.699   2.585   0.244 -0.2779 -1.8705  1.2680
  333SOL     OW  997   2.062   0.303   2.237  0.3992  0.2505  0.0750
  333SOL    HW1  998   2.093   0.310   2.335  1.6901 -0.7842  1.5023
  333SOL    HW2  999   1.960   0.314   2.228 -2.1113 -1.2030  0.1619
  334SOL     OW 1000   0.856   0.941   0.428 -0.0253 -0.0770  0.2592
  334SOL    HW1 1001   0.875   0.938   0.529 -0.2905 -1.7056  3.3693
  334SOL    HW2 1002   0.757   0.970   0.416 -1.6034  0.9020 -3.4841
  335SOL     OW 1003   0.338   2.604   2.331 -0.0213 -0.1549  0.7947
  335SOL    HW1 1004   0.330   2.679   2.265 -0.2205 -0.7085  0.3675
  335SOL    HW2 1005   0.272   2.530   2.304  0.1426  0.1424 -0.1718
  336SOL     OW 1006   2.657   2.950   2.329 -0.5969  0.1699 -0.1561
  336SOL    HW1 1007   2.641   2.892   2.246  0.9938 -1.3844  1.1005
  336SOL    HW2 1008   2.582   2.929   2.392 -0.9482 -0.8775  0.9349
  337SOL     OW 1009   1.304   1.683   0.802  0.0741  0.2971  0.0658
  337SOL    HW1 1010   1.296   1.713   0.899  0.5849  0.4749 -0.2247
  337SOL    HW2 1011   1.402   1.647   0.782  0.8260 -2.1294  1.5005
  338SOL     OW 1012   0.947   1.738   0.880  0.1153 -0.0473 -0.0758
  338SOL    HW1 1013   0.972   1.644   0.862  1.4899 -0.3793 -1.2133
  338SOL    HW2 1014   0.850   1.754   0.866 -0.5390  0.3269  1.6623
  339SOL     OW 1015   3.058   1.362   1.589 -0.0076 -0.3784  0.4317
  339SOL    HW1 1016   3.028   1.451   1.558 -0.4728  0.0357  2.3034
  339SOL    HW2 1017   3.017   1.333   1.679 -0.9099 -5.1577  0.9714
  340SOL     OW 1018   1.606   2.725   2.225  0.0200  0.5264  0.1078
  340SOL    HW1 1019   1.625   2.680   2.132 -0.9192 -0.5388 -0.6751
  340SOL    HW2 1020   1.505   2.724   2.236  3.8643  0.2045  0.5815
  341SOL     OW 1021   1.789   1.377   0.924 -0.5388 -0.2127  0.2353
  341SOL    HW1 1022   1.790   1.415   1.017 -0.1241  1.0821 -3.2848
  341SOL    HW2 1023   1.702   1.335   0.909 -0.0879 -0.7196 -0.6368
  342SOL     OW 1024   2.928   1.465   0.703  0.2461  0.2412 -0.0542
  342SOL    HW1 1025   2.916   1.454   0.599 -1.9595  0.5940  1.3695
  342SOL    HW2 1026   2.845   1.424   0.747 -1.4725 -2.1442  1.2003
  343SOL     OW 1027   2.785   1.136   1.350 -0.0784 -0.0612  0.2508
  343SOL    HW1 1028   2.759   1.143   1.452  0.0204  0.7565  3.2407
  343SOL    HW2 1029   2.885   1.114   1.341  1.1331 -1.7178 -1.1763
  344SOL     OW 1030   1.950   0.551   1.018 -0.1707 -0.0026  0.3725
  344SOL    HW1 1031   1.866   0.550   1.076  0.6727  2.6737 -3.9072
  344SOL    HW2 1032   2.012   0.622   1.062  0.0442 -0.1719 -0.7761
  345SOL     OW 1033   0.445   2.958   2.613 -0.1345 -0.1478  0.4488
  345SOL    HW1 1034   0.500   2.886   2.568  0.2591  1.5601 -0.6299
  345SOL    HW2 1035   0.504   3.034   2.643 -0.1228 -0.5948  1.8265
  346SOL     OW 1036   2.319   1.353   0.217 -0.5663 -0.5558  0.5789
  346SOL    HW1 1037   2.299   1.447   0.258 -2.4119  0.0139  0.3245
  346SOL    HW2 1038   2.243   1.286   0.224  0.8851 -1.7310 -1.6348
  347SOL     OW 1039   1.829   2.820   1.986 -0.0137  0.0850  0.3330
  347SOL    HW1 1040   1.737   2.774   1.980  0.7994  0.3191  0.9487
  347SOL    HW2 1041   1.839   2.887   1.908 -1.1022  1.0559  1.4460
  348SOL     OW 1042   0.812   1.244   1.387  0.5067  0.7699 -0.0388
  348SOL    HW1 1043   0.906   1.218   1.364 -1.6181 -1.0884 -1.8306
  348SOL    HW2 1044   0.772   1.183   1.462 -0.2087 -3.3345  1.3602
  349SOL     OW 1045   2.382   0.977   1.835 -0.3884  0.5658  0.1482
  349SOL    HW1 1046   2.443   0.918   1.776 -1.5176  0.7726 -1.7408
  349SOL    HW2 1047   2.414   1.076   1.827  2.9148  1.1114  1.3702
  350SOL     OW 1048   2.391   2.220   0.201  0.1730 -0.2053  0.0552
  350SOL    HW1 1049   2.334   2.137   0.184  3.4837  1.7687 -0.7516
  350SOL    HW2 1050   2.327   2.301   0.200 -0.6283  3.0061 -0.6227
  351SOL     OW 1051   0.459   0.235   1.547 -0.1748 -0.1358  0.1646
  351SOL    HW1 1052   0.493   0.146   1.587  1.1763 -0.8402 -2.6715
  351SOL    HW2 1053   0.354   0.243   1.537  0.7083 -0.7288 -1.4109
  352SOL     OW 1054   1.834   2.435   1.936 -0.2277  0.0374  0.2601
  352SOL    HW1 1055   1.873   2.427   2.030 -0.1142  0.6179  1.0299
  352SOL    HW2 1056   1.811   2.346   1.896  0.2079  0.8227  0.8451
  353SOL     OW 1057   0.841   1.582   2.159 -0.5175 -0.0103 -0.1085
  353SOL    HW1 1058   0.760   1.518   2.169  0.2303  2.2376 -3.6521
  353SOL    HW2 1059   0.895   1.555   2.078  0.8169  2.2844  0.8645
  354SOL     OW 1060   1.211   1.885   0.204 -0.6914 -0.0423  0.2441
  354SOL    HW1 1061   1.259   1.798   0.222 -0.6921  0.5927  1.5449
  354SOL    HW2 1062   1.111   1.878   0.210  2.1641  0.5701 -0.7931
  355SOL     OW 1063   1.639   0.109   0.931 -0.2349 -0.1026 -0.6595
  355SOL    HW1 1064   1.627   0.073   0.839  1.2521 -0.4505  1.8595
  355SOL    HW2 1065   1.685   0.204   0.926  0.6762  2.1182 -0.5598
  356SOL     OW 1066   2.835   1.244   2.958  0.5296 -0.5649 -0.6018
  356SOL    HW1 1067   2.893   1.163   2.944 -1.2314  3.3634 -0.4041
  356SOL    HW2 1068   2.841   1.286   3.052  4.1815 -0.4811  0.5413
  357SOL     OW 1069   3.041   3.008   2.197  0.6711 -0.2883  0.1791
  357SOL    HW1 1070   0.070   3.017   2.218  2.5044 -0.0169 -1.6509
  357SOL    HW2 1071   3.022   3.069   2.119  3.2320  0.4397  0.3734
  358SOL     OW 1072   0.219   1.245   0.458 -0.0088 -0.0431  0.2617
  358SOL    HW1 1073   0.255   1.153   0.439  1.1722  0.6450 -1.8190
  358SOL    HW2 1074   0.149   1.239   0.530  0.7808  0.1505 -1.1406
  359SOL     OW 1075   2.576   0.039   2.594 -0.2117  0.4772  0.1284
  359SOL    HW1 1076   2.577   0.129   2.556 -0.6921  0.7390 -2.3338
  359SOL    HW2 1077   2.497   0.034   2.656  0.6394 -1.6401  0.2931
  360SOL     OW 1078   1.224   0.998   1.252 -0.3997  0.0297 -0.4208
  360SOL    HW1 1079   1.327   0.999   1.247  0.1027  0.1293  1.1482
  360SOL    HW2 1080   1.182   0.983   1.163  1.6589  0.1905  3.8900
  361SOL     OW 1081   2.388   2.294   1.094 -0.0264  0.3472 -0.1518
  361SOL    HW1 1082   2.441   2.308   1.177  1.0596  2.7656  0.6548
  361SOL    HW2 1083   2.300   2.346   1.097  2.5147 -0.2018 -1.0341
  362SOL     OW 1084   1.297   0.396   1.242 -0.1761 -0.2841  0.6446
  362SOL    HW1 1085   1.315   0.428   1.339  0.0834 -1.6429  2.1119
  362SOL    HW2 1086   1.389   0.384   1.196 -0.5190 -0.6276  2.1630
  363SOL     OW 1087   2.022   2.237   0.399  0.1660  0.2408 -0.5277
  363SOL    HW1 1088   2.081   2.199   0.476  1.7534 -1.7391  0.9769
  363SOL    HW2 1089   1.926   2.242   0.432 -0.5717  0.0451  0.1616
  364SOL     OW 1090   0.145   0.503   0.882 -0.1111 -0.3676 -0.2617
  364SOL    HW1 1091   0.166   0.407   0.891 -0.2951  3.6019  1.4838
  364SOL    HW2 1092   0.179   0.552   0.966  0.3850  2.3629  0.7385
  365SOL     OW 1093   0.448   2.855   0.677  0.3911 -0.0613  0.3012
  365SOL    HW1 1094   0.357   2.836   0.729 -1.2380 -2.3330  3.3260
  365SOL    HW2 1095   0.487   2.936   0.723 -2.5544 -0.1316  1.9379
  366SOL     OW 1096   2.931   1.314   0.198  0.6109 -0.2559 -0.0668
  366SOL    HW1 1097   3.010   1.293   0.139 -1.3139 -0.8461 -1.8009
  366SOL    HW2 1098   2.866   1.378   0.158 -1.6604 -3.4869  0.9806
  367SOL     OW 1099   2.513   2.506   2.442 -0.0798 -0.4148  0.0506
  367SOL    HW1 1100   2.445   2.578   2.467 -0.3280  2.9369 -0.1715
  367SOL    HW2 1101   2.508   2.484   2.345 -1.0490  2.1458 -0.7830
  368SOL     OW 1102   2.257   1.778   0.692 -0.4526  0.0469  0.3071
  368SOL    HW1 1103   2.182   1.721   0.653  1.9167  2.7119 -0.1118
  368SOL    HW2 1104   2.350   1.735   0.691  0.3594  1.0238 -0.1057
  369SOL     OW 1105   1.489   0.712   0.000  0.2907 -0.3447  0.4703
  369SOL    HW1 1106   1.395   0.696   0.027 -3.3594  3.3183  1.8200
  369SOL    HW2 1107   1.557   0.687   0.075  0.6181 -2.3689  1.2231
  370SOL     OW 1108   0.552   3.000   1.084 -0.0318 -0.3479 -0.3131
  370SOL    HW1 1109   0.520   3.049   1.164  1.9926 -0.5496 -1.2705
  370SOL    HW2 1110   0.493   2.916   1.057 -3.2622 -2.0087  0.3413
  371SOL     OW 1111   2.890   1.437   2.776 -0.2597 -0.0555  0.0259
  371SOL    HW1 1112   2.967   1.498   2.812  3.0950  0.0500 -1.4738
  371SOL    HW2 1113   2.862   1.367   2.846 -0.8561  0.0506  0.5918
  372SOL     OW 1114   0.562   0.586   2.456 -0.6918  0.2252  0.0300
  372SOL    HW1 1115   0.600   0.578   2.545  1.6567 -0.4227 -1.7729
  372SOL    HW2 1116   0.534   0.493   2.420 -0.5901  0.7455  0.1062
  373SOL     OW 1117   0.456   0.364   3.070 -0.2822 -0.0911 -0.5921
  373SOL    HW1 1118   0.484   0.425   2.992 -0.2242 -0.8757 -0.5638
  373SOL    HW2 1119   0.538   0.319   0.034 -0.8007 -0.6600  1.4913
  374SOL     OW 1120   1.417   1.927   3.057  1.1346 -0.1130  0.1025
  374SOL    HW1 1121   1.319   1.915   3.028  1.2477 -0.2437  1.0803
  374SOL    HW2 1122   1.424   2.005   0.048 -0.1405  1.0966  1.3760
  375SOL     OW 1123   0.783   0.017   1.613 -0.2863 -0.4466 -0.1045
  375SOL    HW1 1124   0.826   3.028   1.544  1.2321  1.9872 -0.6038
  375SOL    HW2 1125   0.846   0.081   1.654 -3.0068  1.9094 -1.1230
  376SOL     OW 1126   0.135   2.713   1.963 -0.5791 -0.1522  0.1903
  376SOL    HW1 1127   0.103   2.617   1.943  0.4003  0.8938 -2.0785
  376SOL    HW2 1128   0.203   2.722   2.038 -1.5185 -0.3774  0.0640
  377SOL     OW 1129   2.692   2.399   2.804 -0.4859 -0.2825 -0.1254
  377SOL    HW1 1130   2.662   2.495   2.796 -1.0351 -0.4959  1.4226
  377SOL    HW2 1131   2.696   2.380   2.901  3.3349  1.2530 -2.5312
  378SOL     OW 1132   2.334   0.289   0.504  0.0986 -0.2954  0.1164
  378SOL    HW1 1133   2.398   0.325   0.579  0.2348  1.2888  0.5225
  378SOL    HW2 1134   2.376   0.220   0.437  0.1376  0.6598 -1.1955
  379SOL     OW 1135   1.395   0.765   0.571  0.0627  0.4040  0.2507
  379SOL    HW1 1136   1.456   0.754   0.487  1.2422 -2.4213  1.9411
  379SOL    HW2 1137   1.333   0.848   0.551 -1.4025  1.6869 -0.7685
  380SOL     OW 1138   2.534   2.269   1.707  0.5674 -0.1312 -0.1286
  380SOL    HW1 1139   2.635   2.256   1.713  0.5537  0.7007 -0.5010
  380SOL    HW2 1140   2.493   2.205   1.643  1.9477  0.7199  1.5473
  381SOL     OW 1141   2.652   1.289   1.939  0.3286  0.7972 -0.0423
  381SOL    HW1 1142   2.609   1.358   1.998 -0.1288 -0.3319 -2.7317
  381SOL    HW2 1143   2.682   1.210   1.998  0.7749 -4.1771 -0.7484
  382SOL     OW 1144   2.901   2.341   2.631  0.2846  0.6612 -0.4600
  382SOL    HW1 1145   2.843   2.393   2.694  0.7405 -1.6013 -3.4738
  382SOL    HW2 1146   2.852   2.288   2.557  0.6914 -0.4783  0.0097
  383SOL     OW 1147   1.360   0.819   2.511  0.0719 -0.5756  0.0844
  383SOL    HW1 1148   1.389   0.730   2.464 -1.1040 -3.0723  0.1776
  383SOL    HW2 1149   1.395   0.904   2.468  1.6770  1.3389 -1.2571
  384SOL     OW 1150   1.772   1.911   2.436  0.1802 -0.0852 -0.3783
  384SOL    HW1 1151   1.809   1.862   2.515 -2.1967  0.1803 -4.1744
  384SOL    HW2 1152   1.826   1.995   2.424  0.7278 -3.0993  0.0971
  385SOL     OW 1153   2.578   2.649   0.221 -0.4431 -0.0146  0.1747
  385SOL    HW1 1154   2.595   2.554   0.246  1.0378  3.9041  0.8060
  385SOL    HW2 1155   2.638   2.715   0.271 -3.1166  0.5424 -0.5303
  386SOL     OW 1156   1.840   1.211   0.573  0.8299  0.1443 -0.6076
  386SOL    HW1 1157   1.858   1.150   0.651 -0.4413 -0.9575  0.4622
  386SOL    HW2 1158   1.830   1.307   0.600  2.4053 -1.0557  0.1101
  387SOL     OW 1159   2.568   1.632   1.267 -0.0192 -0.1966 -0.2800
  387SOL    HW1 1160   2.616   1.697   1.327  1.4472 -0.7748 -0.0436
  387SOL    HW2 1161   2.624   1.558   1.228  0.1503 -0.8863  0.5812
  388SOL     OW 1162   0.422   0.954   1.567 -0.2263 -0.2762  0.0859
  388SOL    HW1 1163   0.392   1.043   1.612 -1.1634 -0.1208  0.4306
  388SOL    HW2 1164   0.524   0.943   1.562 -2.1985  2.3856 -0.5002
  389SOL     OW 1165   2.279   0.879   2.561  0.1321  0.6973  0.6804
  389SOL    HW1 1166   2.309   0.922   2.644 -1.3337 -1.0819 -0.3468
  389SOL    HW2 1167   2.217   0.937   2.503  1.4055 -1.0183  0.6482
  390SOL     OW 1168   0.927   1.489   3.002 -0.1194  0.2742 -0.5504
  390SOL    HW1 1169   1.019   1.514   2.970  1.9486  0.2280 -1.4979
  390SOL    HW2 1170   0.900   1.408   2.944  0.8048  4.4338  2.6269
  391SOL     OW 1171   0.940   1.847   0.220 -0.4532 -0.4234 -0.6031
  391SOL    HW1 1172   0.843   1.859   0.194 -3.1222 -0.7039  1.4124
  391SOL    HW2 1173   0.954   1.755   0.264  2.3469  0.7132  1.9914
  392SOL     OW 1174   2.615   2.770   2.134 -0.3460 -0.1173 -0.8423
  392SOL    HW1 1175   2.699   2.773   2.080  0.7871  0.9410 -0.0491
  392SOL    HW2 1176   2.587   2.678   2.168 -2.6945  0.3750  0.8518
  393SOL     OW 1177   1.573   2.210   0.255  0.0561  0.3489 -0.0250
  393SOL    HW1 1178   1.589   2.311   0.262  0.4177 -0.6378 -0.4558
  393SOL    HW2 1179   1.476   2.192   0.225 -1.7158 -0.2308 -1.8591
  394SOL     OW 1180   0.820   0.180   2.325  0.5336 -0.1493  0.2426
  394SOL    HW1 1181   0.915   0.187   2.349  1.0078 -0.6251 -2.2125
  394SOL    HW2 1182   0.784   0.272   2.292  1.5845 -0.4177  0.2731
  395SOL     OW 1183   0.246   1.956   1.470 -0.0332  0.7617  0.1641
  395SOL    HW1 1184   0.213   1.979   1.564  0.3654  0.0034  1.9667
  395SOL    HW2 1185   0.244   2.038   1.412  0.5263 -1.3264 -0.0256
  396SOL     OW 1186   2.176   1.279   2.831  0.1885  0.2999 -0.3413
  396SOL    HW1 1187   2.130   1.240   2.749  0.8217 -1.2553 -0.5944
  396SOL    HW2 1188   2.114   1.348   2.882  1.8606 -0.3234 -0.2187
  397SOL     OW 1189   0.124   0.479   0.127 -0.1351  0.6449  0.2945
  397SOL    HW1 1190   0.205   0.513   0.176 -2.9030 -1.1463 -1.5056
  397SOL    HW2 1191   0.084   0.406   0.182  2.6738 -2.1304  1.8133
  398SOL     OW 1192   0.927   2.497   0.455 -0.4347  0.0330 -0.0610
  398SOL    HW1 1193   0.977   2.432   0.393 -1.2844 -0.3039 -0.8608
  398SOL    HW2 1194   0.873   2.569   0.416  0.3410 -1.6135 -0.8798
  399SOL     OW 1195   1.808   2.362   2.721 -0.0736  0.1615  0.3234
  399SOL    HW1 1196   1.791   2.447   2.778 -0.6419 -1.7483 -0.8823
  399SOL    HW2 1197   1.879   2.378   2.651  1.5957 -0.6108  1.6045
  400SOL     OW 1198   3.012   1.626   1.519 -0.1026 -0.1941 -0.2983
  400SOL    HW1 1199   2.909   1.639   1.523 -1.2539  0.7226 -0.1607
  400SOL    HW2 1200   3.055   1.687   1.451 -3.6879  0.4417 -0.2594
  401SOL     OW 1201   0.934   0.651   0.767 -0.0124  0.0102 -0.1969
  401SOL    HW1 1202   0.924   0.572   0.699  1.0249 -0.2897 -1.8702
  401SOL    HW2 1203   0.912   0.737   0.716  1.6285  0.5491  1.9327
  402SOL     OW 1204   0.715   3.056   2.705 -0.1783  0.0503  0.1246
  402SOL    HW1 1205   0.788   3.030   2.772  2.0906 -1.5525  2.6767
  402SOL    HW2 1206   0.675   0.070   2.737 -0.3647  0.6154  2.5143
  403SOL     OW 1207   2.816   1.567   1.913  0.0265  0.3749 -0.7000
  403SOL    HW1 1208   2.735   1.614   1.874 -0.6258  1.4438  3.8441
  403SOL    HW2 1209   2.896   1.630   1.907 -2.5484  0.6082 -0.8470
  404SOL     OW 1210   2.486   2.088   1.492  0.0690 -0.2834  0.3957
  404SOL    HW1 1211   2.399   2.067   1.440  1.4975 -1.1502  1.2466
  404SOL    HW2 1212   2.561   2.105   1.424 -2.3043 -1.3491  0.6898
  405SOL     OW 1213   2.129   0.326   2.515  0.1948 -0.5252 -0.3924
  405SOL    HW1 1214   2.032   0.311   2.547 -1.2541 -1.1348  1.0978
  405SOL    HW2 1215   2.160   0.420   2.552 -0.2214 -0.1778  0.3614
  406SOL     OW 1216   1.177   1.630   2.905 -0.5141 -0.0858  0.0642
  406SOL    HW1 1217   1.278   1.616   2.928 -0.1802 -0.9367  0.4655
  406SOL    HW2 1218   1.166   1.632   2.802 -1.2545 -0.3478 -1.9193
  407SOL     OW 1219   1.875   1.865   0.848 -0.6185  0.1894  0.2655
  407SOL    HW1 1220   1.804   1.795   0.824  2.5302  0.1087 -1.5920
  407SOL    HW2 1221   1.862   1.950   0.794 -0.2676  0.7314  1.0815
  408SOL     OW 1222   3.006   0.306   1.101 -0.4623  0.0241 -0.8258
  408SOL    HW1 1223   3.022   0.403   1.122 -1.2458 -2.7375 -1.9446
  408SOL    HW2 1224   3.045   0.278   1.010  2.1538  0.4251 -3.1455
  409SOL     OW 1225   1.826   1.447   0.670  0.2483 -0.0880  0.4210
  409SOL    HW1 1226   1.814   1.425   0.772 -2.1151 -0.3720  2.2850
  409SOL    HW2 1227   1.901   1.517   0.653 -0.9305  1.9604 -2.3659
  410SOL     OW 1228   2.216   2.445   0.258 -0.2467  0.0221 -0.2842
  410SOL    HW1 1229   2.141   2.387   0.295 -1.4420 -2.0861  1.8863
  410SOL    HW2 1230   2.289   2.473   0.326  4.0432  2.0068 -0.1823
  411SOL     OW 1231   0.345   2.941   0.346 -0.0276  0.0876 -0.6133
  411SOL    HW1 1232   0.315   3.021   0.287 -0.4044  0.0308  0.6691
  411SOL    HW2 1233   0.268   2.878   0.368  1.3426  0.6749  0.3939
  412SOL     OW 1234   1.442   2.982   0.711  0.2559 -0.1011 -0.5885
  412SOL    HW1 1235   1.408   0.002   0.701 -0.5580  1.0250 -0.4227
  412SOL    HW2 1236   1.537   2.975   0.684 -0.3600  1.0652  1.6155
  413SOL     OW 1237   1.666   0.116   2.450 -0.1424  0.0719 -0.1185
  413SOL    HW1 1238   1.579   0.154   2.412 -0.6299  1.0437 -0.6424
  413SOL    HW2 1239   1.693   0.043   2.386  0.3201 -1.1379 -2.2068
  414SOL     OW 1240   3.052   0.781   0.572 -0.4163  0.1366 -0.2984
  414SOL    HW1 1241   3.006   0.794   0.479  0.9503  2.8701  0.6147
  414SOL    HW2 1242   0.070   0.823   0.570 -1.0340  0.9016  0.9846
  415SOL     OW 1243   3.003   1.445   1.245 -0.3458  0.1680 -0.2449
  415SOL    HW1 1244   3.057   1.375   1.193 -0.9578 -2.6643  0.4073
  415SOL    HW2 1245   3.068   1.522   1.271  1.8976  2.3581  1.1498
  416SOL     OW 1246   0.413   0.934   3.045 -0.0258 -0.4482 -0.3460
  416SOL    HW1 1247   0.314   0.938   3.070 -0.4021 -0.1012 -0.0706
  416SOL    HW2 1248   0.433   0.862   2.976 -1.1833  0.0400  1.9732
  417SOL     OW 1249   2.489   0.373   0.693  0.2404  0.2444 -0.3812
  417SOL    HW1 1250   2.584   0.404   0.687 -2.5438  0.3362 -0.5761
  417SOL    HW2 1251   2.440   0.429   0.762  2.0503  0.2744 -0.5200
  418SOL     OW 1252   0.598   0.289   2.498  0.4686  0.6206 -0.3087
  418SOL    HW1 1253   0.700   0.280   2.494  0.2105 -2.0906  0.6830
  418SOL    HW2 1254   0.543   0.246   2.427 -1.4488 -2.2307  0.7699
  419SOL     OW 1255   0.254   1.138   0.766  0.1633  0.3540 -1.0062
  419SOL    HW1 1256   0.157   1.136   0.727 -3.7696 -0.0692 -4.6349
  419SOL    HW2 1257   0.257   1.057   0.828  0.0229  0.1551 -1.1472
  420SOL     OW 1258   2.304   1.582   1.252 -0.0381  0.2194  0.0162
  420SOL    HW1 1259   2.245   1.665   1.233  0.0760 -0.7340  1.9592
  420SOL    HW2 1260   2.395   1.611   1.288 -0.9366  2.0875  2.3107
  421SOL     OW 1261   1.159   1.899   2.904  0.1303  0.0539  0.1782
  421SOL    HW1 1262   1.198   1.913   2.812 -1.7912  2.6352  3.3709
  421SOL    HW2 1263   1.139   1.801   2.927 -1.3022 -0.4767 -1.0664
  422SOL     OW 1264   2.409   0.502   2.739 -0.6290 -0.4103  0.4131
  422SOL    HW1 1265   2.504   0.537   2.732 -0.0241 -3.1573  0.5160
  422SOL    HW2 1266   2.350   0.539   2.662 -0.3865  0.5537 -0.6471
  423SOL     OW 1267   1.661   1.442   0.195 -0.2657  0.0120 -0.1619
  423SOL    HW1 1268   1.723   1.363   0.200 -1.7763  1.9170 -0.8095
  423SOL    HW2 1269   1.667   1.499   0.282 -0.1024 -1.7493  1.6511
  424SOL     OW 1270   0.941   0.910   1.960 -0.1699  0.0584 -0.2219
  424SOL    HW1 1271   0.847   0.875   1.954  0.8077  0.9397  0.2362
  424SOL    HW2 1272   0.961   0.948   2.049 -3.5120 -2.3969  0.7127
  425SOL     OW 1273   2.903   2.651   2.075 -0.0526 -0.2697  0.5092
  425SOL    HW1 1274   2.998   2.679   2.055  0.3331 -0.1016  1.4668
  425SOL    HW2 1275   2.897   2.619   2.170 -0.8426  1.0660 -0.9928
  426SOL     OW 1276   1.976   2.646   0.249  0.5693  0.7080 -0.4530
  426SOL    HW1 1277   2.056   2.707   0.243  0.3413 -0.0696  0.7126
  426SOL    HW2 1278   1.924   2.665   0.332  0.2908  0.5188  2.5662
  427SOL     OW 1279   0.694   0.522   0.081 -0.3701 -0.3995  0.2799
  427SOL    HW1 1280   0.699   0.503   0.181 -4.5483  0.5613  1.5987
  427SOL    HW2 1281   0.674   0.619   0.065  1.9739 -4.4411  2.2461
  428SOL     OW 1282   2.654   1.181   2.763 -0.6002  0.9424  0.5209
  428SOL    HW1 1283   2.708   1.203   2.850 -0.2896 -1.0739  2.3918
  428SOL    HW2 1284   2.586   1.252   2.739  1.3123 -0.2524  1.8389
  429SOL     OW 1285   2.498   0.328   0.131  0.1138  0.0703  0.0133
  429SOL    HW1 1286   2.453   0.402   0.184 -0.1297  0.4387  0.2617
  429SOL    HW2 1287   2.597   0.335   0.132 -1.5813 -1.8179 -0.9015
  430SOL     OW 1288   1.312   2.430   2.281 -0.2096  0.0648  0.2112
  430SOL    HW1 1289   1.225   2.379   2.272  0.4495 -0.2315  0.3442
  430SOL    HW2 1290   1.330   2.472   2.193 -1.2024  3.7927  1.1198
  431SOL     OW 1291   2.889   1.897   1.328  0.1892 -0.1181 -0.1981
  431SOL    HW1 1292   2.850   1.846   1.409  2.1296 -0.9746  0.0714
  431SOL    HW2 1293   2.986   1.884   1.327 -1.9596 -0.2192 -0.4460
  432SOL     OW 1294   2.224   2.551   2.227 -0.0157  0.3840 -0.1383
  432SOL    HW1 1295   2.259   2.603   2.306  0.6224  0.1508 -1.0057
  432SOL    HW2 1296   2.235   2.602   2.142 -2.1432 -1.6258  2.0131
  433SOL     OW 1297   1.340   2.128   0.170 -0.1257 -0.4951  0.0747
  433SOL    HW1 1298   1.283   2.046   0.165  1.1207  3.2697  1.2692
  433SOL    HW2 1299   1.289   2.209   0.129 -1.0340  0.5288  0.2653
  434SOL     OW 1300   0.139   2.073   2.702 -0.2089  0.3654  0.0366
  434SOL    HW1 1301   0.209   2.039   2.770 -0.3644 -1.7468  0.7919
  434SOL    HW2 1302   0.043   2.073   2.736 -0.8540 -0.3154  0.5710
  435SOL     OW 1303   0.015   1.189   0.651  0.5349  0.1215  0.1464
  435SOL    HW1 1304   3.020   1.268   0.646 -0.2082  5.4735  1.4491
  435SOL    HW2 1305   3.037   1.104   0.669  2.0470  0.9944 -0.1136
  436SOL     OW 1306   0.683   2.713   1.592  0.1809 -0.2559  0.6063
  436SOL    HW1 1307   0.623   2.754   1.520  1.2736 -2.4551 -2.4505
  436SOL    HW2 1308   0.702   2.780   1.668  2.3367 -2.2052  0.7003
  437SOL     OW 1309   0.905   2.822   0.794  0.5181  0.3539  0.5066
  437SOL    HW1 1310   0.848   2.858   0.869 -0.5687 -1.8393  0.2127
  437SOL    HW2 1311   0.978   2.886   0.761 -0.7248  1.5208 -0.2168
  438SOL     OW 1312   0.125   2.141   0.636 -0.7274  0.1452 -0.0889
  438SOL    HW1 1313   0.129   2.039   0.630  0.6755 -3.0676 -0.9394
  438SOL    HW2 1314   0.101   2.180   0.727 -1.8370  3.0476  0.3114
  439SOL     OW 1315   0.837   2.556   1.949  0.5562 -0.0508 -0.3979
  439SOL    HW1 1316   0.859   2.564   1.849 -1.5722  0.1400  0.2711
  439SOL    HW2 1317   0.856   2.465   1.987 -1.6130  4.4313 -0.2924
  440SOL     OW 1318   2.136   2.888   2.073 -0.0461 -0.0807  0.0923
  440SOL    HW1 1319   2.185   2.811   2.032 -2.1103  1.2526 -0.7617
  440SOL    HW2 1320   2.043   2.858   2.093  3.0967 -0.6801 -1.9303
  441SOL     OW 1321   0.050   0.598   1.441 -0.0416 -0.1149  1.3542
  441SOL    HW1 1322   0.116   0.664   1.493  0.2552 -0.0576  1.8666
  441SOL    HW2 1323   0.107   0.545   1.373  0.1695 -1.4185 -1.7833
  442SOL     OW 1324   1.770   2.277   0.500 -0.1409  0.4430  0.3101
  442SOL    HW1 1325   1.695   2.220   0.459 -1.1913 -0.0506 -4.0494
  442SOL    HW2 1326   1.743   2.373   0.490 -0.7933 -0.4997 -0.9212
  443SOL     OW 1327   2.976   0.532   2.487  0.0272 -0.1031 -0.3524
  443SOL    HW1 1328   3.051   0.517   2.551 -1.2358  0.8772  0.5835
  443SOL    HW2 1329   2.909   0.452   2.481 -3.0861  1.3133 -2.2541
  444SOL     OW 1330   1.654   0.950   2.006  0.1467  0.2900 -0.4037
  444SOL    HW1 1331   1.606   0.859   1.998  0.9758 -0.4547 -0.1116
  444SOL    HW2 1332   1.611   1.016   1.949  1.0711 -1.8538 -1.3107
  445SOL     OW 1333   2.954   2.583   1.336  0.1302 -0.8102 -0.0052
  445SOL    HW1 1334   3.041   2.583   1.390 -1.0232  0.1303 -0.3066
  445SOL    HW2 1335   2.914   2.672   1.318 -0.3198 -0.0311 -0.6735
  446SOL     OW 1336   2.821   1.525   1.040  0.2965  0.0707  0.0337
  446SOL    HW1 1337   2.899   1.488   1.092 -0.7783  0.1970 -0.8443
  446SOL    HW2 1338   2.825   1.624   1.046 -0.9281 -0.5492 -0.4402
  447SOL     OW 1339   0.519   1.131   0.702  0.7641  0.3815  0.0247
  447SOL    HW1 1340   0.427   1.170   0.724  2.1562  3.7203 -0.9092
  447SOL    HW2 1341   0.529   1.138   0.598  0.5207  0.8329 -1.5927
  448SOL     OW 1342   1.370   1.647   1.745  0.6191  0.0382 -0.3634
  448SOL    HW1 1343   1.351   1.730   1.805 -1.2000  0.6453  1.7727
  448SOL    HW2 1344   1.356   1.561   1.794 -1.6123 -1.7877  1.2189
  449SOL     OW 1345   1.316   1.626   0.373  0.1304  0.2629  0.0434
  449SOL    HW1 1346   1.411   1.664   0.377 -0.2985  0.7220 -3.0030
  449SOL    HW2 1347   1.308   1.568   0.290 -4.2078  0.8390 -0.4868
  450SOL     OW 1348   2.636   2.903   1.831 -0.1125 -0.2626 -0.0785
  450SOL    HW1 1349   2.594   2.853   1.911  1.2087  0.5589  3.1935
  450SOL    HW2 1350   2.733   2.882   1.814  0.1316 -0.7942  2.1549
  451SOL     OW 1351   2.202   0.594   2.568  0.4786  0.5455 -0.1096
  451SOL    HW1 1352   2.204   0.689   2.532 -1.4985  1.6751 -0.4955
  451SOL    HW2 1353   2.188   0.597   2.669 -3.1892  0.2767  2.3097
  452SOL     OW 1354   1.754   0.347   0.872 -0.0635 -0.1258  0.8186
  452SOL    HW1 1355   1.693   0.401   0.813  0.7194 -0.1282 -0.5028
  452SOL    HW2 1356   1.837   0.398   0.909  3.2354  1.0481  1.9311
  453SOL     OW 1357   1.797   0.644   1.558 -0.6603  0.4081  0.0456
  453SOL    HW1 1358   1.843   0.720   1.609  0.3547  1.7143 -0.3390
  453SOL    HW2 1359   1.869   0.588   1.511 -0.1867 -2.3606  0.5901
  454SOL     OW 1360   2.877   1.416   0.452  0.3195 -0.2374  0.0940
  454SOL    HW1 1361   2.880   1.376   0.357 -2.5038  0.7423 -1.6512
  454SOL    HW2 1362   2.878   1.514   0.435  1.8970 -2.6072  0.4247
  455SOL     OW 1363   2.887   0.104   0.580  0.1173 -0.1889 -0.7418
  455SOL    HW1 1364   2.950   0.182   0.573  0.6699 -1.8168  0.5338
  455SOL    HW2 1365   2.796   0.138   0.554  3.9165  2.6406 -1.2523
  456SOL     OW 1366   0.190   2.908   1.211 -0.6890  0.5024 -0.0247
  456SOL    HW1 1367   0.266   2.880   1.149  2.3772 -0.3344  0.2512
  456SOL    HW2 1368   0.228   2.916   1.306  0.5656  1.5120  0.4458
  457SOL     OW 1369   1.286   0.086   0.381 -0.2461 -0.1160  0.2478
  457SOL    HW1 1370   1.239   0.034   0.310 -2.5281 -0.6871 -0.7592
  457SOL    HW2 1371   1.359   0.023   0.419  0.0353 -0.8463 -2.2133
  458SOL     OW 1372   2.377   2.810   0.757  0.2556 -0.2939 -0.2584
  458SOL    HW1 1373   2.357   2.750   0.834 -3.7319  0.7871 -0.8065
  458SOL    HW2 1374   2.469   2.850   0.761 -1.4171  0.0152 -2.9554
  459SOL     OW 1375   2.101   0.586   2.819  0.3412 -0.4857 -0.3855
  459SOL    HW1 1376   2.071   0.494   2.851  0.2286 -2.7161 -0.5445
  459SOL    HW2 1377   2.167   0.630   2.886 -1.7155 -1.4093  2.5390
  460SOL     OW 1378   2.366   2.886   2.923 -0.1956 -0.0678 -0.7674
  460SOL    HW1 1379   2.357   2.969   2.867  0.0427 -0.9903 -1.8325
  460SOL    HW2 1380   2.330   2.804   2.875 -0.9375  1.4709  1.1297
  461SOL     OW 1381   0.802   1.596   0.301  0.6410 -0.4840  0.1510
  461SOL    HW1 1382   0.880   1.578   0.359 -2.0485  1.3869 -0.3440
  461SOL    HW2 1383   0.719   1.632   0.352 -1.3944 -0.7809  0.1047
  462SOL     OW 1384   2.162   2.186   0.646  0.0904 -0.1733  0.4424
  462SOL    HW1 1385   2.198   2.133   0.728  0.1766 -0.5302  3.6074
  462SOL    HW2 1386   2.176   2.286   0.658 -0.0130 -1.5714 -0.5805
  463SOL     OW 1387   2.356   1.030   0.620 -0.9536  0.6655  0.2699
  463SOL    HW1 1388   2.367   1.031   0.720 -1.5501 -2.4877  0.5364
  463SOL    HW2 1389   2.433   0.976   0.579 -0.4278  0.7220  0.4525
  464SOL     OW 1390   0.496   0.090   1.301  0.0020  0.0083  0.3947
  464SOL    HW1 1391   0.449   0.115   1.385 -0.0378  2.7960 -1.1956
  464SOL    HW2 1392   0.593   0.125   1.297  2.5747  0.6570 -1.1245
  465SOL     OW 1393   2.493   1.324   0.003 -0.0885  0.1678 -0.5174
  465SOL    HW1 1394   2.428   1.358   0.081 -2.3723 -1.4112  2.4525
  465SOL    HW2 1395   2.596   1.342   0.008 -0.1084  0.9993 -1.8854
  466SOL     OW 1396   1.770   0.308   2.840  0.4786 -0.1219 -0.5145
  466SOL    HW1 1397   1.841   0.246   2.876 -1.0269  1.4844 -0.3546
  466SOL    HW2 1398   1.758   0.380   2.908 -1.7538 -3.5316 -2.1702
  467SOL     OW 1399   1.035   0.481   1.505 -0.1415  0.8928  0.1882
  467SOL    HW1 1400   1.086   0.392   1.511 -0.9990  0.1492 -0.4198
  467SOL    HW2 1401   1.065   0.523   1.418  0.6716  0.7356 -2.0709
  468SOL     OW 1402   0.543   1.118   2.737  0.2073 -0.4828  0.1123
  468SOL    HW1 1403   0.537   1.174   2.823 -0.5722  0.5080  1.2649
  468SOL    HW2 1404   0.578   1.180   2.660  1.2487 -1.2850 -1.1007
  469SOL     OW 1405   0.367   2.054   0.264  0.3506  0.0826 -0.1947
  469SOL    HW1 1406   0.267   2.068   0.264  0.6485  2.8865 -0.6104
  469SOL    HW2 1407   0.415   2.144   0.248  0.3640 -0.3909  1.2844
  470SOL     OW 1408   2.399   1.543   2.523 -0.0297 -0.3232 -0.5731
  470SOL    HW1 1409   2.469   1.578   2.591 -0.2791 -1.0822  1.6319
  470SOL    HW2 1410   2.425   1.469   2.459  0.5620 -0.4360 -1.1943
  471SOL     OW 1411   2.734   1.131   2.147  0.6681  0.2508  0.2055
  471SOL    HW1 1412   2.666   1.064   2.117  0.0767 -0.0148 -1.0738
  471SOL    HW2 1413   2.747   1.130   2.250  0.4528 -2.1086 -1.4846
  472SOL     OW 1414   0.447   2.651   0.475 -0.9314  0.6987  0.0386
  472SOL    HW1 1415   0.389   2.674   0.397  0.8196  0.4311  2.9142
  472SOL    HW2 1416   0.457   2.725   0.542  2.0718 -4.3361 -0.7286
  473SOL     OW 1417   0.656   0.202   0.083  0.0322  0.5308  0.3725
  473SOL    HW1 1418   0.661   0.213   0.180  1.1114 -2.1678 -2.7483
  473SOL    HW2 1419   0.713   0.123   0.047  0.0082  0.9177 -0.5445
  474SOL     OW 1420   1.747   2.996   2.265 -0.2470  0.3766 -0.2329
  474SOL    HW1 1421   1.703   2.903   2.251 -1.1165 -1.2341  2.8835
  474SOL    HW2 1422   1.758   3.044   2.178  3.3352 -2.2388  1.6820
  475SOL     OW 1423   1.595   2.533   0.475 -0.8317 -0.2105 -0.1982
  475SOL    HW1 1424   1.520   2.592   0.501  1.6792 -3.5842  1.8863
  475SOL    HW2 1425   1.587   2.509   0.376  2.0404  1.8619  0.1331
  476SOL     OW 1426   0.232   0.909   0.915 -0.1498  0.4429 -0.0313
  476SOL    HW1 1427   0.130   0.899   0.936 -0.9111 -0.0304  0.2119
  476SOL    HW2 1428   0.279   0.951   0.997 -1.3484  1.7675  1.1476
  477SOL     OW 1429   1.452   2.319   1.041  0.4038 -0.1653  0.0105
  477SOL    HW1 1430   1.438   2.231   1.089  0.2862 -2.9113  0.9074
  477SOL    HW2 1431   1.535   2.306   0.990 -2.6781  1.6432 -0.9029
  478SOL     OW 1432   0.511   1.917   2.368  0.1174 -1.0213  0.2126
  478SOL    HW1 1433   0.583   1.967   2.318 -0.9345 -2.2464  1.3535
  478SOL    HW2 1434   0.494   1.970   2.456 -1.0331  0.5854  0.0966
  479SOL     OW 1435   2.457   0.384   1.028  0.1049  0.1887  0.4707
  479SOL    HW1 1436   2.374   0.410   0.972 -1.7638  2.0747  0.2126
  479SOL    HW2 1437   2.445   0.428   1.118  1.1848 -2.0446 -1.7570
  480SOL     OW 1438   2.995   2.878   0.283  0.1124  0.6165 -0.2474
  480SOL    HW1 1439   3.052   2.933   0.343 -0.4044 -0.8999 -1.7575
  480SOL    HW2 1440   3.048   2.828   0.204  0.2132 -2.5405 -3.8079
  481SOL     OW 1441   2.604   2.578   0.914  0.0342  0.4183  0.0341
  481SOL    HW1 1442   2.567   2.578   1.011 -2.5205 -2.1910  3.6137
  481SOL    HW2 1443   2.673   2.650   0.900  0.6440 -1.2883 -0.7719
  482SOL     OW 1444   1.345   2.147   2.534 -0.4824  0.3688 -0.0906
  482SOL    HW1 1445   1.436   2.109   2.570  1.0778 -0.2105  0.4973
  482SOL    HW2 1446   1.348   2.250   2.538 -1.1724  2.7675 -3.1973
  483SOL     OW 1447   0.494   2.008   2.625 -0.3110 -0.0423  0.4983
  483SOL    HW1 1448   0.510   2.010   2.728 -0.7263 -0.8361  1.4153
  483SOL    HW2 1449   0.483   2.107   2.596 -0.0369  0.7900  0.5279
  484SOL     OW 1450   0.879   1.082   1.759 -0.0684  0.5784 -0.2740
  484SOL    HW1 1451   0.911   1.061   1.851  0.0066  3.3312 -2.6261
  484SOL    HW2 1452   0.945   1.050   1.685  1.6855 -1.9464 -1.2669
  485SOL     OW 1453   2.335   0.496   0.325  0.6088  0.0722 -0.2615
  485SOL    HW1 1454   2.337   0.413   0.388  1.6819 -3.0131 -0.1985
  485SOL    HW2 1455   2.309   0.578   0.379  1.1652 -1.3731 -0.1974
  486SOL     OW 1456   1.746   2.922   1.060  0.4068  0.1449 -0.0630
  486SOL    HW1 1457   1.702   2.962   1.146 -2.2066 -1.9097 -1.0136
  486SOL    HW2 1458   1.742   2.993   0.987 -0.9141  2.7330 -0.6862
  487SOL     OW 1459   0.523   2.252   1.047  0.0583 -0.8633 -0.0496
  487SOL    HW1 1460   0.509   2.291   0.956  1.0392  0.1048  1.2418
  487SOL    HW2 1461   0.624   2.247   1.059 -0.0520 -0.2923 -0.5630
  488SOL     OW 1462   2.278   1.293   0.555 -0.0832 -0.0523 -0.3997
  488SOL    HW1 1463   2.235   1.293   0.462  0.8988 -0.4223  1.6159
  488SOL    HW2 1464   2.321   1.200   0.575 -2.9192 -1.1632 -1.3753
  489SOL     OW 1465   1.525   0.330   1.130 -0.1025  0.1703 -0.2624
  489SOL    HW1 1466   1.619   0.363   1.105  0.7331 -1.6006 -0.7620
  489SOL    HW2 1467   1.528   0.250   1.196  1.4156 -0.2360  0.9423
  490SOL     OW 1468   1.165   0.384   0.633 -0.7059 -0.4566 -0.2225
  490SOL    HW1 1469   1.077   0.432   0.613 -1.2250  0.2735 -2.6009
  490SOL    HW2 1470   1.217   0.373   0.544  1.8161 -1.0134 -1.6713
  491SOL     OW 1471   0.490   2.367   0.555 -0.1985 -0.5784 -0.1263
  491SOL    HW1 1472   0.570   2.318   0.518 -0.6802  2.2587  0.2004
  491SOL    HW2 1473   0.492   2.463   0.523  1.9848 -1.6401  0.0911
  492SOL     OW 1474   1.098   1.402   2.281 -0.1950  0.2084  0.3008
  492SOL    HW1 1475   1.059   1.345   2.355  0.3732  0.8729  0.9762
  492SOL    HW2 1476   1.032   1.479   2.263 -0.5560  0.7077 -0.9247
  493SOL     OW 1477   0.180   2.450   0.905  0.3204 -0.2579  0.2905
  493SOL    HW1 1478   0.131   2.358   0.913 -0.4599 -3.5231  0.4774
  493SOL    HW2 1479   0.180   2.493   0.999 -0.8642 -2.8609  2.6174
  494SOL     OW 1480   2.577   2.234   3.014 -0.5237 -0.2627  0.4493
  494SOL    HW1 1481   2.524   2.201   2.936 -0.1059  2.6015  2.2920
  494SOL    HW2 1482   2.563   2.331   3.028  0.2580 -2.4551  0.7051
  495SOL     OW 1483   2.648   1.801   2.709  0.0005 -0.3096 -0.0888
  495SOL    HW1 1484   2.627   1.849   2.793  3.9339  0.3844 -1.4706
  495SOL    HW2 1485   2.628   1.698   2.714 -0.2606 -2.3130 -1.2394
  496SOL     OW 1486   2.830   0.220   1.521  0.0627  0.2367 -0.2969
  496SOL    HW1 1487   2.746   0.254   1.477 -0.5977  0.7629 -0.1053
  496SOL    HW2 1488   2.812   0.171   1.610 -0.2576 -2.9841 -0.4844
  497SOL     OW 1489   2.474   0.925   0.250 -0.1724  0.0819  0.2496
  497SOL    HW1 1490   2.408   0.915   0.168  0.9303 -0.8201 -3.2852
  497SOL    HW2 1491   2.533   0.844   0.265  2.2043 -0.9730 -2.1643
  498SOL     OW 1492   0.479   2.248   2.301  0.1878 -0.3158 -0.1681
  498SOL    HW1 1493   0.452   2.297   2.215 -2.6031 -2.3054 -2.7731
  498SOL    HW2 1494   0.393   2.209   2.346 -0.8689 -3.0820  1.9217
  499SOL     OW 1495   1.029   2.298   0.293  0.4112 -1.0833 -0.1226
  499SOL    HW1 1496   0.991   2.225   0.349 -0.4697 -0.4235 -0.4106
  499SOL    HW2 1497   1.060   2.269   0.201  1.4368  0.0520 -0.3961
  500SOL     OW 1498   1.281   2.937   0.167 -0.3955  0.1114  0.2671
  500SOL    HW1 1499   1.266   3.018   0.109  0.7881 -0.4225 -0.4970
  500SOL    HW2 1500   1.196   2.882   0.182 -0.9882  0.8475  0.6891
  501SOL     OW 1501   1.623   0.021   1.839  0.0435  0.5602 -0.2223
  501SOL    HW1 1502   1.549   3.037   1.798 -2.0775 -0.1934 -0.5153
  501SOL    HW2 1503   1.631   0.103   1.786  1.9003 -1.8525 -0.1870
  502SOL     OW 1504   2.912   0.574   2.148  0.2549  0.0096 -0.2583
  502SOL    HW1 1505   2.956   0.505   2.210  2.6121 -0.0642  2.0554
  502SOL    HW2 1506   2.965   0.588   2.064  1.2769 -0.3082 -1.0759
  503SOL     OW 1507   2.463   2.123   2.470 -0.1369 -0.5090 -0.1587
  503SOL    HW1 1508   2.419   2.152   2.383  3.8717 -2.2978 -3.8784
  503SOL    HW2 1509   2.434   2.176   2.552 -0.1794  0.6083 -0.6721
  504SOL     OW 1510   1.353   0.438   1.515 -0.0148  0.5939  0.0246
  504SOL    HW1 1511   1.413   0.512   1.527 -2.5930 -5.6333 -0.7983
  504SOL    HW2 1512   1.358   0.373   1.595  1.5737 -1.3742  0.7961
  505SOL     OW 1513   0.894   0.629   1.827  0.0096 -0.6178 -0.0416
  505SOL    HW1 1514   0.995   0.633   1.819  1.8772 -1.3192 -0.1217
  505SOL    HW2 1515   0.861   0.680   1.911  0.2709  2.3923  1.2857
  506SOL     OW 1516   0.372   0.803   2.414 -0.1316  0.2573  0.2821
  506SOL    HW1 1517   0.379   0.855   2.505 -0.1099  1.4930 -0.0564
  506SOL    HW2 1518   0.454   0.746   2.410 -1.2127 -1.4412  1.5285
  507SOL     OW 1519   0.306   2.864   3.048  0.3778  0.7687 -0.1874
  507SOL    HW1 1520   0.265   2.946   0.011  4.0111 -2.7899  0.7073
  507SOL    HW2 1521   0.251   2.818   2.979 -0.7585  0.8824 -0.1590
  508SOL     OW 1522   1.374   0.760   1.675 -0.1847  0.3235  0.1657
  508SOL    HW1 1523   1.417   0.720   1.594  1.1859  3.0817  1.0941
  508SOL    HW2 1524   1.398   0.859   1.673  0.7207 -1.1855  1.1153
  509SOL     OW 1525   0.905   1.883   1.587  0.5557  0.3867 -0.0299
  509SOL    HW1 1526   0.908   1.973   1.631  2.0001  1.1656 -2.3172
  509SOL    HW2 1527   0.924   1.888   1.485  2.5860 -0.3259 -1.8210
  510SOL     OW 1528   2.342   1.109   2.236  0.4649 -0.1946  0.1920
  510SOL    HW1 1529   2.372   1.196   2.284  1.6385  0.6288  0.9759
  510SOL    HW2 1530   2.422   1.079   2.179  2.5412  1.0433  0.1247
  511SOL     OW 1531   0.622   1.879   0.998 -0.4917  0.2158  0.2246
  511SOL    HW1 1532   0.672   1.962   0.961 -0.6024 -1.8164 -0.0361
  511SOL    HW2 1533   0.636   1.872   1.100  1.3024 -1.7142 -0.2271
  512SOL     OW 1534   2.602   2.396   0.287  0.1653  0.4342 -0.1491
  512SOL    HW1 1535   2.555   2.331   0.223 -1.1259 -0.9634 -0.7528
  512SOL    HW2 1536   2.537   2.420   0.366 -2.0808 -0.6728  0.2724
  513SOL     OW 1537   3.043   1.869   2.422 -0.0857  0.3485 -0.3878
  513SOL    HW1 1538   0.012   1.778   2.438  0.8564  0.8257 -0.4549
  513SOL    HW2 1539   2.979   1.889   2.501 -0.8407  0.8541 -1.8872
  514SOL     OW 1540   0.218   2.596   2.637 -0.2874 -0.4133  0.0989
  514SOL    HW1 1541   0.173   2.512   2.612  0.8195  1.3230  1.5652
  514SOL    HW2 1542   0.304   2.607   2.581  2.3643  0.6135  0.9571
  515SOL     OW 1543   2.044   1.241   1.330  0.6544 -0.2785 -0.1085
  515SOL    HW1 1544   2.015   1.338   1.322  1.5550  2.3340  0.4829
  515SOL    HW2 1545   2.141   1.241   1.364 -1.7446  0.9089  0.7798
  516SOL     OW 1546   2.469   2.370   2.676 -0.0251 -0.5644  0.1638
  516SOL    HW1 1547   2.484   2.424   2.590 -0.6724 -0.5623 -0.6223
  516SOL    HW2 1548   2.550   2.346   2.730  1.6769 -1.3186 -0.2386
  517SOL     OW 1549   1.437   0.953   2.972  0.2842  0.3682 -0.0124
  517SOL    HW1 1550   1.439   1.015   3.052  1.3484 -1.6959  0.4911
  517SOL    HW2 1551   1.460   0.854   3.003  3.1334 -1.5245  1.0542
  518SOL     OW 1552   2.906   2.862   2.374 -0.1253  0.6389 -0.3307
  518SOL    HW1 1553   2.955   2.897   2.295 -1.8802 -0.5148  1.3059
  518SOL    HW2 1554   2.809   2.880   2.365 -0.3317 -0.8839  0.6559
  519SOL     OW 1555   1.648   1.727   2.275 -0.3006  0.1190  0.2321
  519SOL    HW1 1556   1.546   1.706   2.289 -0.6064  1.5863 -1.5014
  519SOL    HW2 1557   1.682   1.797   2.343  0.4463  0.3676 -0.5304
  520SOL     OW 1558   2.827   3.010   2.655 -0.0180  0.4964 -0.3775
  520SOL    HW1 1559   2.744   3.066   2.652  1.0974 -0.2274 -1.5218
  520SOL    HW2 1560   2.853   2.987   2.557  0.9354 -3.3009 -0.9273
  521SOL     OW 1561   0.417   1.642   1.717 -0.2030  0.4833 -0.7779
  521SOL    HW1 1562   0.468   1.678   1.795 -0.0314  1.0567 -1.2249
  521SOL    HW2 1563   0.443   1.545   1.695 -1.8929  0.5708 -1.9068
  522SOL     OW 1564   1.064   2.985   1.792  0.0004 -0.4838 -0.0969
  522SOL    HW1 1565   1.020   0.003   1.775 -0.8978  1.4803 -0.6758
  522SOL    HW2 1566   1.065   2.962   1.891  1.0340  0.5535  0.5058
  523SOL     OW 1567   0.178   2.586   1.137 -0.7087  0.1666 -0.8970
  523SOL    HW1 1568   0.110   2.666   1.131  0.6370  2.9424 -0.4070
  523SOL    HW2 1569   0.212   2.576   1.233  3.6637  3.3170 -0.2788
  524SOL     OW 1570   1.589   2.635   0.941  0.3115  0.2478  0.4863
  524SOL    HW1 1571   1.565   2.553   0.882 -0.8795 -1.9637  2.0274
  524SOL    HW2 1572   1.513   2.704   0.929 -2.0741  0.3018 -1.7982
  525SOL     OW 1573   2.382   1.041   0.889 -0.2121  0.4106  0.2350
  525SOL    HW1 1574   2.374   1.142   0.892  0.5260 -1.4430 -2.1428
  525SOL    HW2 1575   2.318   0.985   0.943 -0.7142 -2.0329 -0.5895
  526SOL     OW 1576   1.091   2.183   0.692  0.7223  0.5798  0.1591
  526SOL    HW1 1577   1.042   2.268   0.707  0.2446 -2.0464  0.7194
  526SOL    HW2 1578   1.027   2.101   0.682 -2.9777 -0.5410  1.1170
  527SOL     OW 1579   2.484   1.920   0.863 -0.2199  0.0297  0.2132
  527SOL    HW1 1580   2.492   1.898   0.763  1.4261 -0.0925 -0.9323
  527SOL    HW2 1581   2.492   1.837   0.920  1.7228 -0.1030  3.7749
  528SOL     OW 1582   2.101   0.440   0.117  0.2228  0.1469 -0.4080
  528SOL    HW1 1583   2.195   0.470   0.095  0.4160  0.6573  0.9187
  528SOL    HW2 1584   2.095   0.417   0.213 -1.2802 -0.8025 -1.5185
  529SOL     OW 1585   1.224   0.957   1.892  0.6086 -0.0450  0.4672
  529SOL    HW1 1586   1.159   0.891   1.850  2.3667  2.3506  0.9310
  529SOL    HW2 1587   1.220   0.962   1.992  0.0180  2.3543 -1.9012
  530SOL     OW 1588   2.748   0.947   2.709  0.3122 -0.5092 -0.6065
  530SOL    HW1 1589   2.734   1.049   2.710  1.5106  3.2889  3.0614
  530SOL    HW2 1590   2.739   0.910   2.615  0.0680  0.8469  1.0511
  531SOL     OW 1591   1.147   0.924   0.033 -0.0091 -0.3815 -0.0715
  531SOL    HW1 1592   1.184   0.953   3.021  0.9589  0.2637  0.5853
  531SOL    HW2 1593   1.093   0.997   0.078  1.1371  1.4306  1.5396
  532SOL     OW 1594   2.136   0.353   0.660  0.2799 -0.6581 -0.5004
  532SOL    HW1 1595   2.220   0.327   0.608 -1.1506  1.5743  1.2000
  532SOL    HW2 1596   2.057   0.287   0.661 -0.7643 -1.2024 -0.9178
  533SOL     OW 1597   0.701   0.804   1.970  0.3458 -0.2056 -0.3595
  533SOL    HW1 1598   0.619   0.812   1.909 -1.8488  0.3189 -1.4954
  533SOL    HW2 1599   0.675   0.769   2.061  0.1282 -0.2738 -2.0231
  534SOL     OW 1600   1.691   0.082   2.727  0.1178  0.0676  0.6245
  534SOL    HW1 1601   1.694   0.090   2.623 -0.5652 -2.0690  0.6639
  534SOL    HW2 1602   1.700   0.174   2.766 -0.1138 -0.3821  1.3980
  535SOL     OW 1603   0.586   3.059   0.486 -0.3163 -0.2164 -0.1055
  535SOL    HW1 1604   0.512   3.014   0.440  0.6375 -1.3270  0.8030
  535SOL    HW2 1605   0.644   2.989   0.535 -0.2613 -0.8498  3.2932
  536SOL     OW 1606   0.983   2.699   1.386 -0.1443 -0.4364  0.0307
  536SOL    HW1 1607   1.072   2.703   1.334  0.4880 -2.3215 -0.9920
  536SOL    HW2 1608   0.997   2.696   1.486 -1.8170 -0.4739 -0.7803
  537SOL     OW 1609   1.929   2.705   2.184 -0.2881  0.5168 -0.1793
  537SOL    HW1 1610   1.882   2.757   2.113 -0.9788  2.2720 -0.6642
  537SOL    HW2 1611   1.959   2.613   2.153  0.2408  0.2030  1.2618
  538SOL     OW 1612   0.173   2.598   2.981  0.2269  0.0344  0.2388
  538SOL    HW1 1613   0.268   2.573   2.952  1.9039  1.0586 -1.2608
  538SOL    HW2 1614   0.102   2.558   2.921  1.1533  0.1623  0.4517
  539SOL     OW 1615   2.837   1.939   1.678  0.0560  0.2104 -0.1451
  539SOL    HW1 1616   2.858   2.031   1.650  0.7088 -1.0395  1.1366
  539SOL    HW2 1617   2.823   1.934   1.779 -0.5637 -0.3252 -0.2980
  540SOL     OW 1618   2.548   2.622   1.849 -0.3795 -0.1686 -0.0754
  540SOL    HW1 1619   2.639   2.595   1.819  0.7047  1.1989  1.6057
  540SOL    HW2 1620   2.467   2.600   1.785 -2.7961 -2.0611  1.2487
  541SOL     OW 1621   0.075   0.023   1.449  0.1090 -0.0454 -0.1874
  541SOL    HW1 1622   0.003   0.060   1.384 -1.8368  2.0613  0.1201
  541SOL    HW2 1623   0.083   2.996   1.444  0.3720  0.6066 -0.9857
  542SOL     OW 1624   2.902   0.735   1.887  0.2599 -0.4104 -0.3196
  542SOL    HW1 1625   2.806   0.733   1.908  1.9617  3.4322 -0.4986
  542SOL    HW2 1626   2.935   0.644   1.857  0.0163  1.9055 -0.0267
  543SOL     OW 1627   0.484   0.770   1.226  0.5648  0.1929  0.0897
  543SOL    HW1 1628   0.580   0.810   1.244 -1.3832  2.0477  2.9596
  543SOL    HW2 1629   0.457   0.727   1.312  0.7211  3.4273  0.5921
  544SOL     OW 1630   2.112   1.771   1.243  0.0777 -0.1421 -0.4061
  544SOL    HW1 1631   2.028   1.802   1.294  0.4200  0.9786  1.4899
  544SOL    HW2 1632   2.127   1.815   1.153  1.1713 -0.8194 -0.3209
  545SOL     OW 1633   1.011   1.565   0.445 -0.2093 -0.0019 -0.0720
  545SOL    HW1 1634   1.078   1.624   0.496  1.0331  0.5440  0.6733
  545SOL    HW2 1635   1.014   1.474   0.485 -1.3577 -0.2757 -2.9272
  546SOL     OW 1636   2.868   0.244   2.074 -0.8851 -0.1105  0.6803
  546SOL    HW1 1637   2.813   0.294   2.005  3.2381 -3.0077 -0.0726
  546SOL    HW2 1638   2.812   0.219   2.155  0.6362 -0.7181  0.2057
  547SOL     OW 1639   0.206   0.213   2.402  0.2766  0.0093 -0.3284
  547SOL    HW1 1640   0.255   0.256   2.475 -3.4101 -1.3788 -2.7200
  547SOL    HW2 1641   0.235   0.241   2.310  0.1071  0.2886  1.7690
  548SOL     OW 1642   2.220   2.310   2.759 -0.2835 -0.0218 -0.3552
  548SOL    HW1 1643   2.311   2.336   2.720 -0.1294 -3.2389  0.6106
  548SOL    HW2 1644   2.149   2.361   2.707  0.2404  2.1337  1.3749
  549SOL     OW 1645   2.348   0.575   0.819  0.0700  0.3316  0.6035
  549SOL    HW1 1646   2.252   0.605   0.795  1.8314  0.8804  1.7540
  549SOL    HW2 1647   2.409   0.657   0.826  0.4147  0.5480 -1.7037
  550SOL     OW 1648   2.210   1.449   0.784 -0.1466 -0.5632  0.1474
  550SOL    HW1 1649   2.165   1.539   0.775 -1.2412 -0.5005  2.9835
  550SOL    HW2 1650   2.231   1.405   0.695  0.5580 -0.9041 -1.1765
  551SOL     OW 1651   1.335   2.920   1.511  0.6272 -0.1496 -0.2323
  551SOL    HW1 1652   1.231   2.926   1.492  2.0084  0.5481  1.4096
  551SOL    HW2 1653   1.381   2.859   1.440 -0.8497  0.5685 -1.8265
  552SOL     OW 1654   2.020   2.468   2.578 -0.3351  0.2579  0.3673
  552SOL    HW1 1655   1.988   2.551   2.529 -1.9780  0.1142  2.3471
  552SOL    HW2 1656   2.087   2.416   2.521  2.6913 -1.9592  1.6211
  553SOL     OW 1657   0.726   2.871   0.597  0.2613  0.3525  0.3699
  553SOL    HW1 1658   0.796   2.859   0.672  0.3725 -1.3350 -0.4562
  553SOL    HW2 1659   0.640   2.825   0.620  2.1023 -0.1444 -0.5702
  554SOL     OW 1660   1.584   2.599   1.954 -0.0516  0.2992  0.3023
  554SOL    HW1 1661   1.649   2.527   1.926 -0.9774  2.3101 -0.1363
  554SOL    HW2 1662   1.566   2.660   1.871 -1.7992  0.9157  0.0110
  555SOL     OW 1663   2.015   2.398   2.153 -0.1389 -0.4159  0.2848
  555SOL    HW1 1664   2.081   2.451   2.204  3.4129 -0.9914 -0.1417
  555SOL    HW2 1665   2.020   2.299   2.163  0.1834 -1.2770 -2.2273
  556SOL     OW 1666   1.088   3.009   0.715  0.5546 -0.3938 -0.2617
  556SOL    HW1 1667   1.141   0.010   0.755 -2.3087  0.0370 -1.6023
  556SOL    HW2 1668   1.131   2.980   0.629  1.8241  1.4335  2.2125
  557SOL     OW 1669   0.740   2.284   1.736  0.1628 -0.4261 -0.2965
  557SOL    HW1 1670   0.758   2.385   1.737  0.3303  0.4149 -1.6594
  557SOL    HW2 1671   0.662   2.262   1.674 -0.3353  2.6130 -1.7286
  558SOL     OW 1672   2.686   1.165   2.413 -0.6314 -0.2319 -0.4790
  558SOL    HW1 1673   2.723   1.069   2.416 -0.8691  0.7441  0.1222
  558SOL    HW2 1674   2.748   1.233   2.465  1.4375  0.7787 -1.9969
  559SOL     OW 1675   2.376   2.256   2.230 -0.0227  0.5328 -0.5252
  559SOL    HW1 1676   2.352   2.349   2.202 -2.0363 -1.6646 -2.7162
  559SOL    HW2 1677   2.477   2.236   2.239 -2.2643 -2.6185  1.5103
  560SOL     OW 1678   0.547   0.338   2.124  0.4722  0.6013  0.0327
  560SOL    HW1 1679   0.573   0.303   2.026 -0.9401 -0.4323 -1.5905
  560SOL    HW2 1680   0.628   0.387   2.161  0.7709 -1.3780 -0.3133
  561SOL     OW 1681   1.293   0.362   0.391  0.2269  0.4058 -0.1664
  561SOL    HW1 1682   1.379   0.394   0.348 -1.1510 -1.5672 -2.9350
  561SOL    HW2 1683   1.291   0.261   0.390 -1.0714  0.4503  1.5038
  562SOL     OW 1684   1.058   1.387   1.607 -0.5800 -0.4137 -0.4862
  562SOL    HW1 1685   0.992   1.467   1.621  1.5096 -1.4238  1.6563
  562SOL    HW2 1686   1.060   1.341   1.517  0.1925  1.7799  2.3030
  563SOL     OW 1687   1.813   2.474   0.096 -0.4654 -0.3298 -0.2976
  563SOL    HW1 1688   1.853   2.378   0.100  0.7471  0.1384  1.1875
  563SOL    HW2 1689   1.871   2.539   0.148  0.2232  1.2892  1.9644
  564SOL     OW 1690   2.822   2.171   0.511 -0.2902  0.2287 -0.3590
  564SOL    HW1 1691   2.850   2.266   0.536  0.3000  0.0268  0.6365
  564SOL    HW2 1692   2.784   2.177   0.416  0.2371 -2.0757  0.7821
  565SOL     OW 1693   0.589   0.057   2.246 -0.0613 -1.2422 -0.0543
  565SOL    HW1 1694   0.672   0.114   2.257 -1.7000  2.8085  1.0112
  565SOL    HW2 1695   0.539   0.085   2.157 -1.9566 -2.9907 -0.5893
  566SOL     OW 1696   1.601   2.476   2.605 -0.5388 -0.3390  0.5239
  566SOL    HW1 1697   1.670   2.427   2.658  1.2155  0.4603  0.1479
  566SOL    HW2 1698   1.650   2.522   2.526 -0.5789 -1.2212  1.3378
  567SOL     OW 1699   1.844   1.870   1.361 -0.0697  0.2057  0.0359
  567SOL    HW1 1700   1.833   1.824   1.272  1.6716  2.5094 -0.2856
  567SOL    HW2 1701   1.756   1.861   1.413 -0.7135  2.9693  0.2680
  568SOL     OW 1702   2.114   0.956   2.857  0.0705 -0.2890  0.0037
  568SOL    HW1 1703   2.078   0.938   2.949  1.1396 -2.6133 -1.9021
  568SOL    HW2 1704   2.215   0.947   2.868 -1.5202  1.4426 -1.3197
  569SOL     OW 1705   2.562   1.517   2.193 -0.4790  0.1703  0.6738
  569SOL    HW1 1706   2.664   1.523   2.203  1.4180 -3.2532 -0.8004
  569SOL    HW2 1707   2.518   1.602   2.159 -3.9759  0.0279  0.7994
  570SOL     OW 1708   2.557   0.027   1.530 -0.6631 -0.1979 -0.0279
  570SOL    HW1 1709   2.489   3.033   1.566 -0.0184 -1.3701  2.7337
  570SOL    HW2 1710   2.550   0.117   1.573 -1.6959 -1.1135  0.7555
  571SOL     OW 1711   0.231   0.430   1.286  0.0653 -0.0756  0.0217
  571SOL    HW1 1712   0.243   0.384   1.378  1.5572  0.4458  1.9220
  571SOL    HW2 1713   0.242   0.354   1.220 -1.1848  1.8078  2.3520
  572SOL     OW 1714   0.123   1.888   0.625  0.2060  0.3163  0.3808
  572SOL    HW1 1715   0.030   1.847   0.628  2.8700  0.9307 -2.5418
  572SOL    HW2 1716   0.196   1.821   0.660  0.5630 -1.8339  1.9408
  573SOL     OW 1717   1.082   0.489   0.245 -0.2078  1.0304 -0.5140
  573SOL    HW1 1718   1.044   0.566   0.291  1.0429 -3.2574  2.2362
  573SOL    HW2 1719   1.161   0.452   0.297  0.8725  0.6526 -0.5337
  574SOL     OW 1720   0.144   0.006   0.054 -0.3843  0.5879 -0.0625
  574SOL    HW1 1721   0.137   0.055   3.039  0.0697 -0.1963  0.1101
  574SOL    HW2 1722   0.056   3.051   0.098 -0.0794 -0.5945 -0.2248
  575SOL     OW 1723   1.055   2.261   1.111 -0.6973 -0.1569 -0.2186
  575SOL    HW1 1724   1.109   2.178   1.135 -1.2537  0.1339  1.0613
  575SOL    HW2 1725   1.112   2.338   1.066  1.1223 -0.6026 -2.3701
  576SOL     OW 1726   2.843   2.805   1.298  0.0877  0.0776 -0.0117
  576SOL    HW1 1727   2.815   2.841   1.393 -0.1315 -0.7790  3.5996
  576SOL    HW2 1728   2.902   2.875   1.252 -0.8376  0.1840  0.3902
  577SOL     OW 1729   2.760   1.737   1.534  0.1646 -0.0129 -0.7137
  577SOL    HW1 1730   2.674   1.686   1.557  1.4481 -0.2908 -2.0697
  577SOL    HW2 1731   2.782   1.810   1.607 -0.9448  1.8983 -0.0552
  578SOL     OW 1732   1.033   2.848   2.745  0.0343 -0.3002  0.0334
  578SOL    HW1 1733   1.028   2.852   2.641 -3.1859 -1.8262 -2.2773
  578SOL    HW2 1734   1.131   2.836   2.774  0.0965  1.5473 -0.1171
  579SOL     OW 1735   1.995   1.685   2.154 -0.6888  0.0484 -0.6994
  579SOL    HW1 1736   1.922   1.735   2.104  0.4266 -1.1972 -0.6266
  579SOL    HW2 1737   2.068   1.668   2.089 -3.6405 -0.1193  1.7719
  580SOL     OW 1738   1.943   0.290   1.943 -0.5472 -0.1487  0.7552
  580SOL    HW1 1739   1.950   0.339   1.859  1.9488 -1.5604  3.1395
  580SOL    HW2 1740   1.894   0.344   2.020 -0.7222  1.7299  0.2945
  581SOL     OW 1741   0.965   1.523   1.923 -0.1203 -0.2914 -0.4520
  581SOL    HW1 1742   0.996   1.586   1.851  0.1123 -0.0677  0.5222
  581SOL    HW2 1743   1.031   1.450   1.948 -1.0695  0.0652  1.8840
  582SOL     OW 1744   0.063   2.788   1.728 -0.3088 -0.1786 -0.3521
  582SOL    HW1 1745   0.070   2.777   1.827  2.1352  0.9880 -0.9067
  582SOL    HW2 1746   0.011   2.870   1.702 -0.2052 -0.5971  1.3410
  583SOL     OW 1747   1.317   1.391   1.112  0.4031 -0.2866 -0.2598
  583SOL    HW1 1748   1.332   1.350   1.204  2.4180 -0.3261 -0.2338
  583SOL    HW2 1749   1.217   1.402   1.093  1.7777 -1.2809 -0.6398
  584SOL     OW 1750   1.247   1.915   2.656 -0.3178  0.5154  0.3255
  584SOL    HW1 1751   1.334   1.863   2.645  0.7472  2.0139  2.4315
  584SOL    HW2 1752   1.251   2.005   2.607  0.0403  1.2702 -4.3062
  585SOL     OW 1753   0.284   2.359   0.216 -0.2103  0.3082  0.0538
  585SOL    HW1 1754   0.269   2.368   0.315  1.5158  1.5536 -2.6053
  585SOL    HW2 1755   0.216   2.295   0.164 -1.6781  0.5757 -2.3016
  586SOL     OW 1756   1.954   2.244   0.142 -0.0281  0.0020  0.3488
  586SOL    HW1 1757   1.977   2.233   0.240 -2.6453  0.5389 -1.1089
  586SOL    HW2 1758   2.043   2.232   0.093 -1.4200 -0.4527  0.0604
  587SOL     OW 1759   2.575   2.029   0.468  0.1904  0.1635 -0.3262
  587SOL    HW1 1760   2.628   2.100   0.513 -0.1007  0.4394 -1.3923
  587SOL    HW2 1761   2.571   2.048   0.366  0.5116 -2.3970 -1.9762
  588SOL     OW 1762   2.149   0.343   0.935  0.2789 -0.4914  0.7013
  588SOL    HW1 1763   2.080   0.421   0.957  1.1259  0.4070  0.2670
  588SOL    HW2 1764   2.173   0.345   0.836 -1.5806  0.2591  1.8244
  589SOL     OW 1765   0.493   0.693   0.977  0.4105  0.0751 -0.0060
  589SOL    HW1 1766   0.476   0.755   1.054  1.0190  1.4878  0.9318
  589SOL    HW2 1767   0.548   0.745   0.908 -0.6710 -0.1462  0.7059
  590SOL     OW 1768   2.873   2.372   0.306 -0.3562 -0.0869  0.0424
  590SOL    HW1 1769   2.771   2.380   0.284 -0.8162 -0.8296  0.2966
  590SOL    HW2 1770   2.903   2.463   0.351  1.6958  0.7696  0.4293
  591SOL     OW 1771   0.292   2.669   1.619  0.2968  0.3323 -0.5759
  591SOL    HW1 1772   0.360   2.625   1.680  1.7110 -0.4810  2.2833
  591SOL    HW2 1773   0.222   2.715   1.671  2.6985 -1.3004 -2.3941
  592SOL     OW 1774   0.520   1.319   1.372 -0.1011  0.2483 -0.0970
  592SOL    HW1 1775   0.440   1.290   1.316  0.3210 -0.5623  0.3321
  592SOL    HW2 1776   0.535   1.258   1.453  0.9608  0.8815  0.6288
  593SOL     OW 1777   0.953   1.858   1.309 -0.2678  0.3656  0.6586
  593SOL    HW1 1778   0.984   1.763   1.301 -0.6929  2.3054 -1.9261
  593SOL    HW2 1779   1.029   1.922   1.274 -0.9584  2.1297  0.0848
  594SOL     OW 1780   0.247   1.791   2.814 -0.1225 -0.5208 -0.1798
  594SOL    HW1 1781   0.274   1.842   2.895 -1.1533  0.7324  0.9658
  594SOL    HW2 1782   0.320   1.786   2.746 -2.4024  3.1776  2.4163
  595SOL     OW 1783   1.345   0.598   1.015 -0.2676  1.0737 -0.0919
  595SOL    HW1 1784   1.337   0.605   0.912 -0.4123 -0.6255  0.9692
  595SOL    HW2 1785   1.341   0.497   1.038 -1.4493 -2.2303  1.5304
  596SOL     OW 1786   0.224   1.522   0.462  0.0827 -0.2115 -0.1043
  596SOL    HW1 1787   0.302   1.511   0.522 -2.7381  0.8496 -0.7866
  596SOL    HW2 1788   0.177   1.432   0.443  0.8886 -1.9147 -3.1469
  597SOL     OW 1789   2.954   2.122   2.773 -0.0959  0.1850  0.1277
  597SOL    HW1 1790   2.949   2.213   2.730  0.7012 -0.5524 -0.2989
  597SOL    HW2 1791   2.894   2.117   2.856  1.3765  0.9689  3.0097
  598SOL     OW 1792   2.029   2.135   2.245  0.2079 -0.0043 -0.0444
  598SOL    HW1 1793   1.967   2.120   2.164 -0.5881 -0.5966 -0.0747
  598SOL    HW2 1794   2.079   2.048   2.256 -0.4091  2.0654  0.0091
  599SOL     OW 1795   1.638   0.526   0.695  0.1047 -0.0592 -0.6843
  599SOL    HW1 1796   1.666   0.611   0.641  1.1819 -0.1677 -0.0274
  599SOL    HW2 1797   1.550   0.547   0.728  3.2360 -0.2230 -0.5860
  600SOL     OW 1798   0.772   2.700   0.365 -0.0155  0.1069 -0.3614
  600SOL    HW1 1799   0.747   2.751   0.452  1.0497 -0.7066 -0.8646
  600SOL    HW2 1800   0.804   2.766   0.299  1.4824 -0.3813  3.3517
  601SOL     OW 1801   0.480   0.644   1.489 -0.1698  0.1958  0.4250
  601SOL    HW1 1802   0.400   0.678   1.541 -1.0734 -0.3428  1.7262
  601SOL    HW2 1803   0.549   0.599   1.548  1.0832  1.6360  2.3810
  602SOL     OW 1804   0.205   2.822   0.802 -0.1068  0.3100  0.3733
  602SOL    HW1 1805   0.137   2.749   0.780 -0.6737  0.1215  0.7179
  602SOL    HW2 1806   0.152   2.903   0.824 -0.5089  0.4064  1.3119
  603SOL     OW 1807   1.120   2.612   2.582 -0.5288  0.4513  0.6869
  603SOL    HW1 1808   1.052   2.534   2.568  1.4294 -0.9214 -0.5721
  603SOL    HW2 1809   1.081   2.699   2.535  1.8046  4.1862  0.5426
  604SOL     OW 1810   0.565   2.873   2.879  0.4626  0.3263 -0.0538
  604SOL    HW1 1811   0.603   2.947   2.822 -0.9358  1.3058  1.3093
  604SOL    HW2 1812   0.463   2.875   2.888 -0.3385 -1.0874  1.0428
  605SOL     OW 1813   0.954   0.648   2.139 -0.3178  0.1592  0.2544
  605SOL    HW1 1814   1.041   0.592   2.120  0.9372 -1.4127 -0.4914
  605SOL    HW2 1815   0.973   0.747   2.119 -0.1397  0.8128  1.2380
  606SOL     OW 1816   1.876   0.332   2.585  0.2593 -0.8995  0.6168
  606SOL    HW1 1817   1.865   0.340   2.688  0.7316 -1.8479  0.4964
  606SOL    HW2 1818   1.788   0.296   2.543  0.6858  0.1941 -0.1416
  607SOL     OW 1819   0.295   1.439   1.132  0.2060 -0.1245  0.2746
  607SOL    HW1 1820   0.259   1.485   1.215 -1.7945  0.2881  0.3432
  607SOL    HW2 1821   0.282   1.340   1.146  0.2043  0.8028 -1.2274
  608SOL     OW 1822   0.046   2.419   2.264  0.2374 -0.2245  0.1927
  608SOL    HW1 1823   3.063   2.495   2.297  0.5985 -4.9196 -3.3347
  608SOL    HW2 1824   0.087   2.365   2.340 -1.9405 -0.3437  0.3332
  609SOL     OW 1825   1.741   0.655   0.171  0.3345 -0.5185 -0.3363
  609SOL    HW1 1826   1.819   0.689   0.119  0.1976 -0.1432  3.3413
  609SOL    HW2 1827   1.736   0.550   0.179  0.8249 -1.9779  0.6717
  610SOL     OW 1828   0.813   2.627   1.153 -0.5448 -0.4453 -0.2236
  610SOL    HW1 1829   0.875   2.607   1.227 -2.9021 -1.0531  0.3985
  610SOL    HW2 1830   0.715   2.599   1.179 -2.4275 -0.6082  1.7635
  611SOL     OW 1831   1.039   0.751   0.376  0.0247 -0.1860 -0.6529
  611SOL    HW1 1832   0.963   0.818   0.385  2.7762 -3.7313 -0.4299
  611SOL    HW2 1833   1.113   0.778   0.438 -0.9018 -0.2932  0.8695
  612SOL     OW 1834   1.377   0.760   2.762  0.1404  0.4482  0.0919
  612SOL    HW1 1835   1.366   0.768   2.663  1.0643 -1.2240  1.2958
  612SOL    HW2 1836   1.376   0.854   2.801 -1.0945  0.1583 -0.2701
  613SOL     OW 1837   2.119   0.855   0.293 -0.0887  0.0511  0.5719
  613SOL    HW1 1838   2.125   0.930   0.365 -1.7773  0.1217  0.1414
  613SOL    HW2 1839   2.046   0.787   0.323  0.9845 -0.9417  0.7001
  614SOL     OW 1840   2.071   0.366   1.662 -0.2073  0.6263  0.6886
  614SOL    HW1 1841   2.088   0.278   1.614  0.2195  1.6105  1.9642
  614SOL    HW2 1842   2.050   0.439   1.590  1.0612  0.3690 -2.5065
  615SOL     OW 1843   0.782   2.068   0.897 -0.1257 -0.0816 -0.1532
  615SOL    HW1 1844   0.861   2.011   0.921 -1.8698  1.4153 -1.4924
  615SOL    HW2 1845   0.812   2.168   0.896 -2.4545  0.8217  2.7066
  616SOL     OW 1846   1.515   1.072   2.233  0.1918 -0.4120  0.3388
  616SOL    HW1 1847   1.486   1.173   2.221  0.2687  0.3675 -2.3822
  616SOL    HW2 1848   1.579   1.052   2.155 -0.8357 -2.6124 -2.3261
  617SOL     OW 1849   1.673   0.044   3.061  0.2939 -0.4442  0.0432
  617SOL    HW1 1850   1.632   3.037   0.035 -2.8687 -0.8302  1.8226
  617SOL    HW2 1851   1.670   0.030   2.958 -0.8918 -0.3395 -0.3421
  618SOL     OW 1852   0.960   1.055   2.672 -0.1701 -0.0253 -0.0360
  618SOL    HW1 1853   1.023   0.978   2.647 -1.4148 -0.5727 -1.0243
  618SOL    HW2 1854   0.864   1.026   2.660 -1.0949  0.4472  0.3103
  619SOL     OW 1855   2.489   1.507   0.780  0.1600  0.2052  0.3494
  619SOL    HW1 1856   2.422   1.437   0.803  0.5028  0.3719  0.3248
  619SOL    HW2 1857   2.583   1.463   0.774  0.3835 -1.1036  1.6107
  620SOL     OW 1858   2.524   2.501   3.049  0.1985 -0.0214  0.2241
  620SOL    HW1 1859   2.554   2.566   2.974  1.6926 -0.6006 -0.7158
  620SOL    HW2 1860   2.497   2.555   0.058  1.3800  0.4891  0.0709
  621SOL     OW 1861   2.117   1.212   0.319  0.4417  0.0496  0.3704
  621SOL    HW1 1862   2.033   1.231   0.269  0.5663  0.9846 -2.0546
  621SOL    HW2 1863   2.103   1.157   0.402 -1.1427 -0.9934  0.3640
  622SOL     OW 1864   1.331   2.420   2.608 -0.1835  0.0785  0.6143
  622SOL    HW1 1865   1.281   2.504   2.571 -1.9928 -0.3841  1.5891
  622SOL    HW2 1866   1.432   2.432   2.613 -1.4565  0.3520 -0.5764
  623SOL     OW 1867   0.241   2.020   2.981  0.2026  0.6511 -0.0817
  623SOL    HW1 1868   0.311   2.090   2.960 -0.7103 -1.3291  1.8506
  623SOL    HW2 1869   0.224   2.020   0.006  0.6396 -0.3382  1.3813
  624SOL     OW 1870   0.334   0.233   2.858 -0.1174  0.0861  0.2465
  624SOL    HW1 1871   0.370   0.244   2.955  2.7996  1.2984  0.4314
  624SOL    HW2 1872   0.271   0.153   2.854  0.2846 -0.2607 -1.7297
  625SOL     OW 1873   0.692   1.897   0.130 -0.7420  0.3682 -0.1431
  625SOL    HW1 1874   0.703   1.830   0.054  0.9381  0.0994 -0.3482
  625SOL    HW2 1875   0.613   1.881   0.187  0.1020  0.9723 -0.8287
  626SOL     OW 1876   2.816   0.555   0.277  0.0340  0.3851  0.7150
  626SOL    HW1 1877   2.816   0.506   0.186 -0.4851  0.4254  1.2707
  626SOL    HW2 1878   2.830   0.492   0.354 -1.3404  0.5806 -2.3550
  627SOL     OW 1879   1.396   1.258   2.840  0.4917 -0.2899  0.4274
  627SOL    HW1 1880   1.454   1.190   2.888  1.0987 -1.7082 -2.4003
  627SOL    HW2 1881   1.462   1.323   2.800  3.4405  0.6805  1.7120
  628SOL     OW 1882   1.122   0.830   2.622 -0.2753 -0.0621  0.6778
  628SOL    HW1 1883   1.218   0.831   2.583 -0.0378  0.1734  1.4885
  628SOL    HW2 1884   1.053   0.787   2.550 -0.9001 -1.7941 -1.2322
  629SOL     OW 1885   0.204   0.269   1.515  0.2126 -0.0595  0.0575
  629SOL    HW1 1886   0.186   0.173   1.486 -0.7970  0.8795  2.1535
  629SOL    HW2 1887   0.136   0.300   1.589  1.6874  2.3588 -2.5160
  630SOL     OW 1888   2.443   0.742   2.116  0.4389  0.0063 -0.3548
  630SOL    HW1 1889   2.353   0.773   2.081 -1.7875 -1.0983 -0.8295
  630SOL    HW2 1890   2.434   0.659   2.182 -1.1185 -2.1177 -1.0008
  631SOL     OW 1891   1.926   0.765   0.798  0.1213  0.2410  0.1675
  631SOL    HW1 1892   1.904   0.728   0.895 -2.2001 -1.9486  0.4433
  631SOL    HW2 1893   2.006   0.713   0.762  3.4123 -1.8165  1.5568
  632SOL     OW 1894   2.732   0.856   1.516  0.2592  0.1416  0.5716
  632SOL    HW1 1895   2.808   0.886   1.577  1.2242  0.9069 -1.7464
  632SOL    HW2 1896   2.757   0.833   1.421 -0.7868 -0.9777 -0.9867
  633SOL     OW 1897   0.986   0.171   0.100 -0.5452 -0.2228 -0.1384
  633SOL    HW1 1898   0.972   0.269   0.068 -0.2008 -1.5914  0.5736
  633SOL    HW2 1899   0.914   0.108   0.060 -1.2481 -1.6427  0.3962
  634SOL     OW 1900   0.962   2.494   2.896  0.5770 -0.1999 -0.3540
  634SOL    HW1 1901   0.949   2.562   2.970  1.7235 -2.5593 -2.7755
  634SOL    HW2 1902   0.919   2.523   2.809  0.5865 -0.5227  0.7962
  635SOL     OW 1903   3.070   0.310   0.282 -0.1192  0.1429 -0.1154
  635SOL    HW1 1904   0.016   0.333   0.381  3.1546 -0.0736  0.1661
  635SOL    HW2 1905   2.978   0.266   0.269 -1.8292  1.1445  0.3868
  636SOL     OW 1906   0.587   1.045   0.447  0.4193  0.3380 -0.2426
  636SOL    HW1 1907   0.617   1.073   0.355  0.3378 -0.9052  1.9411
  636SOL    HW2 1908   0.489   1.016   0.447 -0.7605 -2.9811  0.0084
  637SOL     OW 1909   0.238   2.669   0.243  0.0580 -0.1909 -0.2794
  637SOL    HW1 1910   0.286   2.581   0.215  0.3953  0.9572 -1.9458
  637SOL    HW2 1911   0.203   2.716   0.164  2.1064 -0.4474  0.3886
  638SOL     OW 1912   0.128   2.575   0.464  0.1167 -0.2986 -0.4080
  638SOL    HW1 1913   0.169   2.615   0.380  3.1457 -0.1409  1.7313
  638SOL    HW2 1914   0.130   2.473   0.459  0.0710  1.2499  0.5793
  639SOL     OW 1915   1.302   1.244   0.136 -0.3455 -0.0671 -0.6949
  639SOL    HW1 1916   1.234   1.232   0.064  1.3676  1.5626 -0.0945
  639SOL    HW2 1917   1.337   1.338   0.126 -0.6049 -1.0145  0.9532
  640SOL     OW 1918   1.670   2.308   1.490  0.5798 -0.6885  0.1714
  640SOL    HW1 1919   1.606   2.378   1.444 -1.5368  0.2234 -1.8204
  640SOL    HW2 1920   1.743   2.290   1.424 -0.6568 -0.2592  0.2697
  641SOL     OW 1921   2.993   2.353   1.132 -0.4526 -0.1421 -0.0569
  641SOL    HW1 1922   3.013   2.435   1.183 -0.6527 -0.7849 -1.6414
  641SOL    HW2 1923   2.914   2.366   1.070 -1.4033  1.6509  1.4302
  642SOL     OW 1924   0.750   2.887   1.795 -0.1145 -0.4753  0.0954
  642SOL    HW1 1925   0.813   2.948   1.740 -1.2200  1.7029  0.0864
  642SOL    HW2 1926   0.677   2.939   1.838 -1.0522  0.5858 -0.4676
  643SOL     OW 1927   0.811   2.257   2.906  0.5100 -0.1887 -0.0165
  643SOL    HW1 1928   0.844   2.352   2.905 -0.3656  1.6593 -1.4032
  643SOL    HW2 1929   0.867   2.198   2.967 -0.1070 -1.7401 -0.5425
  644SOL     OW 1930   1.283   2.565   0.775  0.0910 -0.3460 -0.7642
  644SOL    HW1 1931   1.353   2.523   0.713 -0.5176  3.2436 -1.4376
  644SOL    HW2 1932   1.191   2.547   0.742  5.4388 -0.6222  1.7267
  645SOL     OW 1933   1.120   1.269   1.856  0.0192 -0.3613 -0.0438
  645SOL    HW1 1934   1.092   1.323   1.772  0.8641  1.9899 -2.2683
  645SOL    HW2 1935   1.143   1.173   1.838 -0.7637 -1.5771  1.6291
  646SOL     OW 1936   0.316   0.983   0.420  0.3286  0.5191 -0.3149
  646SOL    HW1 1937   0.304   0.939   0.514  1.4683 -1.6058  1.9895
  646SOL    HW2 1938   0.254   0.945   0.346 -0.3158 -0.5453 -2.0347
  647SOL     OW 1939   1.271   0.604   0.754 -0.1749 -0.4308 -0.1361
  647SOL    HW1 1940   1.310   0.653   0.673 -3.2159 -2.3502  1.5112
  647SOL    HW2 1941   1.194   0.544   0.728 -1.9922 -5.6317  1.5436
  648SOL     OW 1942   2.154   2.440   1.096 -0.3105  0.5411  0.0925
  648SOL    HW1 1943   2.107   2.458   1.185 -0.5315 -0.3707  0.2321
  648SOL    HW2 1944   2.095   2.461   1.020 -0.9629  1.3304  0.8119
  649SOL     OW 1945   0.497   1.836   2.944  0.0103  0.0906 -0.0965
  649SOL    HW1 1946   0.509   1.939   2.942 -0.1027 -0.6720  1.1104
  649SOL    HW2 1947   0.479   1.808   3.042 -2.2195  0.2098  0.2882
  650SOL     OW 1948   2.348   1.950   1.902 -0.5552  0.2710 -0.4284
  650SOL    HW1 1949   2.255   1.942   1.864  1.2080 -1.2346 -1.6225
  650SOL    HW2 1950   2.414   1.927   1.828 -0.9209 -0.8644  0.0774
  651SOL     OW 1951   0.165   0.021   2.798  0.1110  0.8352  0.2515
  651SOL    HW1 1952   0.177   2.991   2.776  2.8558 -5.3092 -1.0462
  651SOL    HW2 1953   0.086   0.064   2.747 -0.2182  0.3948 -0.4153
  652SOL     OW 1954   2.537   1.748   0.108  0.4479 -0.0076  0.3002
  652SOL    HW1 1955   2.554   1.663   0.168  3.5668 -1.3744  4.5621
  652SOL    HW2 1956   2.466   1.809   0.146  1.8958 -0.3471 -0.6941
  653SOL     OW 1957   3.040   0.186   0.867 -0.0645 -0.3233 -0.2831
  653SOL    HW1 1958   0.045   0.184   0.803 -1.8930  1.9398  1.8710
  653SOL    HW2 1959   3.012   0.088   0.889  2.3458 -0.0871  0.9960
  654SOL     OW 1960   1.078   2.914   0.449  0.3165 -0.8776  0.1073
  654SOL    HW1 1961   1.089   2.862   0.359 -1.4450  0.5050  0.0093
  654SOL    HW2 1962   1.026   3.002   0.431 -0.0678  0.1313 -0.6467
  655SOL     OW 1963   0.570   2.815   1.315  0.0797 -0.3176  0.6303
  655SOL    HW1 1964   0.481   2.849   1.349 -0.3505  1.0778  1.3430
  655SOL    HW2 1965   0.561   2.716   1.286 -1.0059 -2.9840  0.0586
  656SOL     OW 1966   0.348   3.062   2.090 -0.0604 -0.3679  0.2944
  656SOL    HW1 1967   0.310   3.041   2.180 -1.5034  0.3456 -3.0979
  656SOL    HW2 1968   0.317   0.076   2.051  1.1932 -3.1770 -0.7228
  657SOL     OW 1969   1.911   0.565   2.403 -0.6724 -0.3476 -0.1354
  657SOL    HW1 1970   1.926   0.512   2.489  0.3498 -1.1291 -3.6760
  657SOL    HW2 1971   2.003   0.593   2.368  3.4958  2.5834 -0.7369
  658SOL     OW 1972   1.760   1.522   1.167  0.0711  0.4458 -0.2074
  658SOL    HW1 1973   1.707   1.436   1.198 -2.4672 -2.4235 -0.5257
  658SOL    HW2 1974   1.855   1.513   1.201 -0.4552 -0.6775  0.7223
  659SOL     OW 1975   2.588   2.670   2.851  0.3054 -0.0955 -0.2550
  659SOL    HW1 1976   2.558   2.729   2.775  0.6779 -1.5913 -0.9431
  659SOL    HW2 1977   2.659   2.721   2.914  0.5705 -1.7833  3.7520
  660SOL     OW 1978   1.197   0.670   0.041 -0.3178 -0.6874  0.5764
  660SOL    HW1 1979   1.155   0.617   0.116  3.3493  0.3170  0.2303
  660SOL    HW2 1980   1.182   0.774   0.042  0.0689 -1.2073 -0.5751
  661SOL     OW 1981   2.577   2.989   0.715  0.0536 -0.2489  0.2044
  661SOL    HW1 1982   2.639   2.941   0.647  0.8746  0.0490 -2.6202
  661SOL    HW2 1983   2.606   2.985   0.813 -0.0872  0.0222 -0.2632
  662SOL     OW 1984   0.654   0.478   1.010 -0.1087  0.1281 -0.3752
  662SOL    HW1 1985   0.628   0.456   1.104  2.1369  2.1704 -2.6071
  662SOL    HW2 1986   0.600   0.561   0.990 -0.7720 -1.6611  0.4609
  663SOL     OW 1987   1.551   2.316   2.368 -0.0567  0.1704  0.4478
  663SOL    HW1 1988   1.590   2.385   2.435 -0.8523  1.1749  2.1232
  663SOL    HW2 1989   1.473   2.349   2.317 -0.4811 -1.5180  1.2735
  664SOL     OW 1990   0.637   2.347   1.335 -0.2955  0.2274  0.0867
  664SOL    HW1 1991   0.735   2.339   1.331 -0.2714  0.5389 -0.7770
  664SOL    HW2 1992   0.593   2.257   1.329 -2.5210  0.1647 -0.6739
  665SOL     OW 1993   1.110   2.156   1.571 -0.6104  0.2071 -0.1557
  665SOL    HW1 1994   1.037   2.117   1.627 -0.0426 -1.2992 -0.1307
  665SOL    HW2 1995   1.175   2.078   1.553 -0.6046  1.6312  2.4762
  666SOL     OW 1996   0.245   2.845   2.750 -0.6103 -0.2584  0.2299
  666SOL    HW1 1997   0.318   2.888   2.691  0.3037  0.2165 -3.9760
  666SOL    HW2 1998   0.213   2.757   2.708 -1.2036 -1.0105  0.9068
  667SOL     OW 1999   1.393   1.640   1.079  0.2545  0.2561  0.2119
  667SOL    HW1 2000   1.371   1.540   1.093 -0.5371  0.1733 -0.9368
  667SOL    HW2 2001   1.347   1.695   1.153 -0.5305 -0.8939  1.8888
  668SOL     OW 2002   1.107   0.213   2.354  0.1194  0.3356  0.2458
  668SOL    HW1 2003   1.151   0.247   2.437  0.2960  1.8689 -2.1697
  668SOL    HW2 2004   1.150   0.127   2.325 -0.0791 -0.2515  0.3904
  669SOL     OW 2005   2.158   2.265   1.741 -0.1972 -0.1199  0.2445
  669SOL    HW1 2006   2.204   2.254   1.833  0.1841  2.2898  1.0790
  669SOL    HW2 2007   2.087   2.192   1.726 -1.3114 -0.1779 -1.1306
  670SOL     OW 2008   1.947   1.917   0.300 -0.6411  0.6462  0.3001
  670SOL    HW1 2009   2.021   1.966   0.350 -0.5845  0.6647  3.2889
  670SOL    HW2 2010   1.969   1.915   0.199 -0.0101 -2.1242 -3.3092
  671SOL     OW 2011   1.335   1.169   0.785  0.1876  0.6373  0.2054
  671SOL    HW1 2012   1.370   1.079   0.750 -2.2500  1.9439  1.0100
  671SOL    HW2 2013   1.411   1.224   0.821 -1.9783  0.9861 -0.5141
  672SOL     OW 2014   2.477   1.318   2.369 -0.1049 -0.1921  0.1651
  672SOL    HW1 2015   2.507   1.386   2.305 -0.3865 -3.3886 -0.7306
  672SOL    HW2 2016   2.549   1.248   2.389 -0.7349 -1.4447 -2.4125
  673SOL     OW 2017   2.839   1.580   2.178 -0.0822  0.6402  0.4324
  673SOL    HW1 2018   2.818   1.574   2.081  1.1191  0.6967  0.3449
  673SOL    HW2 2019   2.814   1.674   2.211 -5.9233  2.0117  1.3981
  674SOL     OW 2020   0.909   2.443   2.560 -0.1732 -0.4234  0.2953
  674SOL    HW1 2021   0.852   2.521   2.596 -1.5158 -0.1017 -4.3438
  674SOL    HW2 2022   0.881   2.356   2.606 -1.2060 -1.2386 -0.6725
  675SOL     OW 2023   0.699   1.021   1.560  0.1610  0.0314 -0.6309
  675SOL    HW1 2024   0.725   0.939   1.506  0.8737 -1.7214 -0.7646
  675SOL    HW2 2025   0.756   1.033   1.645 -0.7690  0.1968  1.2562
  676SOL     OW 2026   2.116   0.618   0.683  0.0877  0.8411 -0.8255
  676SOL    HW1 2027   2.177   0.636   0.606 -0.7510  0.3858  1.0373
  676SOL    HW2 2028   2.095   0.519   0.685  1.7398 -0.1407  2.2653
  677SOL     OW 2029   2.645   1.534   2.728  0.6857 -0.0290  0.3042
  677SOL    HW1 2030   2.736   1.489   2.726 -3.0115 -0.2172  2.2238
  677SOL    HW2 2031   2.577   1.463   2.763  1.2034 -0.6738  1.2620
  678SOL     OW 2032   3.056   2.967   0.860 -0.0327 -0.2792 -0.0269
  678SOL    HW1 2033   3.002   2.911   0.797 -0.5044 -2.5158 -0.2194
  678SOL    HW2 2034   3.027   2.962   0.957  0.1340  0.9644 -0.5821
  679SOL     OW 2035   2.449   0.135   0.316  0.0842  0.5864 -0.4369
  679SOL    HW1 2036   2.448   0.210   0.245 -0.0983 -1.9543  0.1358
  679SOL    HW2 2037   2.505   0.060   0.277  1.8903  1.0118 -1.8831
  680SOL     OW 2038   0.077   2.445   1.980 -0.0798  0.2864  0.3694
  680SOL    HW1 2039   0.106   2.401   1.892  0.0278 -0.9978  0.6616
  680SOL    HW2 2040   0.127   2.409   2.062  1.7141  1.9001  3.2276
  681SOL     OW 2041   2.321   1.758   1.519 -0.7066  0.2188  0.6224
  681SOL    HW1 2042   2.274   1.799   1.437 -2.0061  1.6981 -2.8968
  681SOL    HW2 2043   2.284   1.668   1.549  0.9523  0.5552  1.6723
  682SOL     OW 2044   2.943   2.219   2.178 -0.3481  0.4378  0.2481
  682SOL    HW1 2045   2.899   2.228   2.086  2.9752 -0.7289 -0.3124
  682SOL    HW2 2046   3.011   2.299   2.196 -0.0703 -0.7526 -2.4680
  683SOL     OW 2047   3.018   2.184   1.340  0.3544 -0.3500 -0.0246
  683SOL    HW1 2048   2.934   2.128   1.342  0.6442 -0.6879  0.2323
  683SOL    HW2 2049   3.006   2.248   1.255 -1.9521  2.3416 -2.0920
  684SOL     OW 2050   2.129   1.054   2.380 -0.3134  0.6648 -0.3630
  684SOL    HW1 2051   2.065   1.130   2.367 -0.3837 -1.5341 -1.5142
  684SOL    HW2 2052   2.221   1.071   2.335 -0.8857 -1.6947  1.3947
  685SOL     OW 2053   1.599   1.078   0.508 -0.8227 -0.5602  0.5264
  685SOL    HW1 2054   1.612   0.980   0.534 -0.8947 -2.8791  2.5256
  685SOL    HW2 2055   1.682   1.130   0.540 -1.1138  0.2216 -0.1283
  686SOL     OW 2056   0.584   3.053   0.824  0.2353 -0.0542  0.1103
  686SOL    HW1 2057   0.583   3.062   0.923  0.2937  0.3811 -0.3274
  686SOL    HW2 2058   0.680   3.068   0.795  0.8488  0.2949 -0.2656
  687SOL     OW 2059   1.445   1.321   2.228  0.3245 -0.3252  0.7347
  687SOL    HW1 2060   1.535   1.364   2.234 -0.3601  0.3576  1.3322
  687SOL    HW2 2061   1.380   1.391   2.187  0.6372 -0.0136 -1.2895
  688SOL     OW 2062   1.319   1.737   1.319 -0.0361 -0.0351 -0.0571
  688SOL    HW1 2063   1.221   1.709   1.319  2.5655 -3.2315  0.0524
  688SOL    HW2 2064   1.378   1.675   1.371  1.1513  0.9575 -0.2018
  689SOL     OW 2065   2.043   0.156   1.150  0.1672 -0.1958  0.1924
  689SOL    HW1 2066   2.058   0.205   1.061 -1.7204 -1.2785 -1.3136
  689SOL    HW2 2067   2.112   0.179   1.222 -0.4529  2.6989  0.2439
  690SOL     OW 2068   0.200   1.733   1.108  0.3922  0.1945 -0.1683
  690SOL    HW1 2069   0.253   1.797   1.051 -0.0157 -0.9996  1.6189
  690SOL    HW2 2070   0.162   1.652   1.056 -1.8741 -0.9670 -3.8575
  691SOL     OW 2071   0.565   2.595   0.962  0.1121  0.1026  0.3636
  691SOL    HW1 2072   0.652   2.622   0.914  1.0983 -2.2558 -3.2154
  691SOL    HW2 2073   0.529   2.519   0.903 -2.0841  0.5219 -1.1191
  692SOL     OW 2074   2.272   0.346   1.836  0.0215 -0.1246  0.5495
  692SOL    HW1 2075   2.231   0.272   1.897 -0.7200 -1.6579  1.1253
  692SOL    HW2 2076   2.203   0.366   1.762  2.0064 -0.9862  0.3721
  693SOL     OW 2077   0.333   2.106   1.921 -0.4290  0.2439  0.6938
  693SOL    HW1 2078   0.423   2.085   1.875 -2.1247 -0.3853  2.4810
  693SOL    HW2 2079   0.327   2.053   2.008 -0.6489 -1.8014  1.2668
  694SOL     OW 2080   1.533   1.321   1.674 -0.3848  0.1593 -0.1593
  694SOL    HW1 2081   1.512   1.397   1.609 -1.1264  1.1730 -1.4915
  694SOL    HW2 2082   1.546   1.352   1.770 -3.0891  0.2839  0.1980
  695SOL     OW 2083   0.633   0.996   1.102  0.0177 -0.1090 -0.0728
  695SOL    HW1 2084   0.662   1.094   1.119 -1.0416  0.6521 -2.6798
  695SOL    HW2 2085   0.686   0.925   1.153 -0.8472  0.0542 -0.2835
  696SOL     OW 2086   1.242   0.166   0.764  0.1469 -0.2758  0.1634
  696SOL    HW1 2087   1.221   0.254   0.708  1.1636  0.2603 -1.9652
  696SOL    HW2 2088   1.220   0.183   0.865 -0.8385  0.8892  0.1164
  697SOL     OW 2089   1.384   0.217   1.689 -0.3505 -0.2539  0.2000
  697SOL    HW1 2090   1.365   0.242   1.789  1.0079 -2.0410  1.1612
  697SOL    HW2 2091   1.350   0.121   1.674 -2.0037 -0.5829 -0.5295
  698SOL     OW 2092   1.891   1.236   2.133 -0.1590 -0.5503 -0.1071
  698SOL    HW1 2093   1.890   1.234   2.233 -0.9077  0.4629  0.5223
  698SOL    HW2 2094   1.794   1.232   2.104  1.7931  1.6484 -1.2612
  699SOL     OW 2095   2.256   0.184   1.336 -0.4154 -0.6788 -0.1476
  699SOL    HW1 2096   2.320   0.259   1.353 -0.4244 -1.6365  3.5500
  699SOL    HW2 2097   2.214   0.158   1.423  1.1493  2.2921 -1.3461
  700SOL     OW 2098   0.941   2.072   0.422 -0.8690  0.4993 -0.2668
  700SOL    HW1 2099   0.941   2.011   0.339  0.1549  0.0289 -1.2698
  700SOL    HW2 2100   0.932   2.023   0.512 -0.8652  1.7500 -0.1342
  701SOL     OW 2101   2.259   2.687   2.741  0.0135  0.1573  0.0699
  701SOL    HW1 2102   2.326   2.615   2.753 -0.1497 -1.5979  1.2482
  701SOL    HW2 2103   2.187   2.693   2.813  2.4067  2.0373  1.5306
  702SOL     OW 2104   1.053   3.035   1.077 -0.0847 -0.2694  0.6658
  702SOL    HW1 2105   0.969   2.993   1.042  2.6808  2.7881 -0.4063
  702SOL    HW2 2106   1.131   2.977   1.046  0.3090 -0.4662  2.1921
  703SOL     OW 2107   2.437   0.152   2.204  0.3721 -0.3469  0.0310
  703SOL    HW1 2108   2.453   0.220   2.130 -0.6932 -0.1642 -0.1938
  703SOL    HW2 2109   2.422   0.061   2.162 -0.0212 -0.4440  2.7804
  704SOL     OW 2110   0.100   2.154   0.153 -0.6276  0.3799  0.7800
  704SOL    HW1 2111   0.060   2.124   0.242 -0.4440  0.3454  3.6905
  704SOL    HW2 2112   0.034   2.178   0.079 -0.6697 -0.0007  1.2937
  705SOL     OW 2113   2.402   2.976   2.105 -0.5256  0.0862  0.2687
  705SOL    HW1 2114   2.309   2.965   2.064  1.3353  0.0249  0.1374
  705SOL    HW2 2115   2.450   2.891   2.124  1.2699  3.5361 -3.7176
  706SOL     OW 2116   2.305   2.658   1.032  0.3243 -0.0354 -0.2528
  706SOL    HW1 2117   2.265   2.569   1.058 -0.2040 -0.2140  0.0951
  706SOL    HW2 2118   2.399   2.667   1.081 -0.1479  1.5146  1.9013
  707SOL     OW 2119   1.024   2.830   2.451 -0.2719 -0.1491 -0.3568
  707SOL    HW1 2120   0.982   2.769   2.384  1.3496  2.9094  0.6578
  707SOL    HW2 2121   0.960   2.907   2.474  0.2121  0.7270  0.1850
  708SOL     OW 2122   2.794   2.295   1.712  0.2045  0.0714 -0.1564
  708SOL    HW1 2123   2.809   2.390   1.737 -1.5735 -2.2168 -3.1854
  708SOL    HW2 2124   2.883   2.245   1.696 -0.7500 -0.0604 -0.9540
  709SOL     OW 2125   1.531   0.634   1.490 -0.1353  0.1820 -0.1449
  709SOL    HW1 2126   1.528   0.660   1.391 -1.6215 -0.3682 -1.2178
  709SOL    HW2 2127   1.629   0.633   1.522  3.6944  0.6073 -1.0393
  710SOL     OW 2128   0.955   0.023   2.844 -0.1591  0.4931  0.0569
  710SOL    HW1 2129   0.993   3.021   2.793  0.2006 -1.7352  3.4421
  710SOL    HW2 2130   0.986   0.117   2.826 -1.6361 -1.4212 -0.1032
  711SOL     OW 2131   0.773   1.832   2.614 -0.0736 -0.1711  0.4585
  711SOL    HW1 2132   0.671   1.832   2.607 -0.5998  0.8344 -1.9951
  711SOL    HW2 2133   0.799   1.808   2.709  1.4277  2.9544  0.5062
  712SOL     OW 2134   0.958   2.076   3.040  0.5031  0.0585  0.1801
  712SOL    HW1 2135   0.902   2.015   0.021 -0.8438  2.7403  1.2357
  712SOL    HW2 2136   1.006   2.028   2.962  0.9135 -0.0141  0.1238
  713SOL     OW 2137   2.127   0.902   2.156  0.0523  0.0529  0.0232
  713SOL    HW1 2138   2.147   0.971   2.228  0.0266  0.6714  0.2600
  713SOL    HW2 2139   2.142   0.809   2.194  2.3922  1.1553 -2.7515
  714SOL     OW 2140   1.042   1.704   1.740  0.7746 -0.3049  0.0092
  714SOL    HW1 2141   1.137   1.728   1.716 -3.0266  0.4355  0.0037
  714SOL    HW2 2142   0.977   1.760   1.680  0.1582  0.0211 -5.5452
  715SOL     OW 2143   2.025   0.348   2.945  0.1910 -0.6366  0.6100
  715SOL    HW1 2144   2.030   0.383   3.041  1.1955 -2.7662  2.0635
  715SOL    HW2 2145   2.007   0.251   2.942 -0.5732  4.6037  0.7744
  716SOL     OW 2146   2.754   2.447   1.452  0.5208 -0.4192 -0.6689
  716SOL    HW1 2147   2.772   2.421   1.554 -3.1564 -2.8401  0.9647
  716SOL    HW2 2148   2.830   2.500   1.405 -1.4750  0.0238  0.2503
  717SOL     OW 2149   2.638   1.119   0.911 -0.2721 -0.2375 -0.1609
  717SOL    HW1 2150   2.543   1.089   0.937 -0.7476  0.7575 -1.1099
  717SOL    HW2 2151   2.677   1.061   0.842 -2.2734  0.0275  1.1198
  718SOL     OW 2152   1.463   1.557   1.507  0.4372 -0.5139 -0.3511
  718SOL    HW1 2153   1.564   1.571   1.517  1.4148 -2.5160 -2.1108
  718SOL    HW2 2154   1.417   1.596   1.589 -0.5709 -0.2291  0.7339
  719SOL     OW 2155   2.774   0.378   0.052 -0.3318 -0.1206 -0.1051
  719SOL    HW1 2156   2.784   0.445   3.053  2.2439  1.1611  1.4502
  719SOL    HW2 2157   2.834   0.299   0.024 -0.5985  1.6645  0.4279
  720SOL     OW 2158   0.772   0.208   1.069  0.5570 -0.0744  0.0041
  720SOL    HW1 2159   0.738   0.306   1.063 -0.7509  0.0652 -1.1427
  720SOL    HW2 2160   0.792   0.175   0.975 -1.5312  0.3720  1.3139
  721SOL     OW 2161   2.520   0.812   0.580 -0.1598 -0.1260  0.4407
  721SOL    HW1 2162   2.536   0.746   0.503 -1.8993  1.7977 -1.8000
  721SOL    HW2 2163   2.601   0.869   0.604  0.1552  0.2356  1.7130
  722SOL     OW 2164   0.475   2.553   2.543  0.3396  0.0306 -0.3035
  722SOL    HW1 2165   0.515   2.462   2.557  1.5238 -0.3852  0.8136
  722SOL    HW2 2166   0.442   2.561   2.451 -0.8016 -1.4754  2.9163
  723SOL     OW 2167   1.810   0.342   0.521 -0.1165 -0.5764 -0.5738
  723SOL    HW1 2168   1.837   0.254   0.566 -1.8199 -2.2627 -1.6508
  723SOL    HW2 2169   1.740   0.389   0.579 -0.6105  0.6671 -0.2943
  724SOL     OW 2170   1.118   1.872   2.265  0.2956  0.2156  0.2166
  724SOL    HW1 2171   1.053   1.869   2.347  0.3733  0.5121 -0.0706
  724SOL    HW2 2172   1.077   1.819   2.186 -0.6371  0.2031  1.0214
  725SOL     OW 2173   1.642   2.955   1.329 -0.1917  0.2839 -0.9260
  725SOL    HW1 2174   1.557   2.895   1.343 -0.7365  0.8887 -0.1579
  725SOL    HW2 2175   1.714   2.921   1.395  0.8926 -0.8904  3.2413
  726SOL     OW 2176   2.379   2.769   0.091  0.0919  0.3851  0.4803
  726SOL    HW1 2177   2.402   2.829   0.008  0.2237  2.8951 -1.6020
  726SOL    HW2 2178   2.462   2.753   0.153  2.9343 -0.0995  0.7921
  727SOL     OW 2179   1.310   2.107   0.858 -0.8905 -0.6601  0.5412
  727SOL    HW1 2180   1.395   2.104   0.795 -0.5726 -1.6477 -2.4636
  727SOL    HW2 2181   1.240   2.163   0.806  2.1877  2.4146  0.3321
  728SOL     OW 2182   2.318   2.707   2.453 -0.0204 -0.2810 -0.2836
  728SOL    HW1 2183   2.305   2.800   2.406 -1.1542  2.9528  0.4404
  728SOL    HW2 2184   2.230   2.679   2.500 -3.3086  0.2171  0.7103
  729SOL     OW 2185   1.991   2.092   1.395  0.2939 -0.1179  0.1824
  729SOL    HW1 2186   1.936   2.173   1.363 -0.6989 -2.9447 -1.2007
  729SOL    HW2 2187   1.940   2.003   1.372 -2.4493  0.0471  1.6504
  730SOL     OW 2188   1.630   0.741   2.802  0.2320  0.0443 -0.8567
  730SOL    HW1 2189   1.527   0.742   2.799  4.3339 -0.5031  0.4878
  730SOL    HW2 2190   1.669   0.793   2.720 -0.4231  2.6299  1.5252
  731SOL     OW 2191   1.008   0.057   1.328 -0.0840 -0.1435  0.4068
  731SOL    HW1 2192   1.037   0.051   1.230  1.5504  1.7204 -0.8722
  731SOL    HW2 2193   0.935   3.063   1.345 -1.9755 -1.5601 -2.1260
  732SOL     OW 2194   1.411   0.064   1.132 -0.3751  0.2140  0.0297
  732SOL    HW1 2195   1.351   0.132   1.080  0.3392 -1.4944 -1.4236
  732SOL    HW2 2196   1.507   0.077   1.106 -0.9492  0.7396 -2.2974
  733SOL     OW 2197   0.933   1.155   1.021  0.3228 -0.2715  0.4384
  733SOL    HW1 2198   0.943   1.052   1.036  1.4704 -0.8464  1.9342
  733SOL    HW2 2199   0.843   1.172   1.068 -0.1857 -1.8235  4.3255
  734SOL     OW 2200   2.745   2.596   2.574  0.1096  0.5111 -0.6655
  734SOL    HW1 2201   2.686   2.527   2.534  1.5289  1.2365  1.0790
  734SOL    HW2 2202   2.699   2.684   2.588  0.1985 -0.9336 -1.4358
  735SOL     OW 2203   0.823   2.935   1.384 -0.2630  0.2742 -0.9496
  735SOL    HW1 2204   0.893   2.865   1.397  0.3330 -0.1940 -0.3537
  735SOL    HW2 2205   0.739   2.889   1.347 -0.8623  1.6470  0.7811
  736SOL     OW 2206   1.645   1.823   0.048 -0.3736 -0.2810 -0.1394
  736SOL    HW1 2207   1.552   1.859   0.019 -0.9873  0.6095 -2.8936
  736SOL    HW2 2208   1.713   1.898   0.054 -2.6907  2.6649 -0.6672
  737SOL     OW 2209   0.209   2.176   1.315  0.3255 -0.5924  0.4578
  737SOL    HW1 2210   0.236   2.155   1.221 -2.4815  1.2634 -3.2527
  737SOL    HW2 2211   0.106   2.164   1.320 -3.4307  0.5679  1.1055
  738SOL     OW 2212   1.741   2.564   2.900 -0.5417  0.4252 -0.1540
  738SOL    HW1 2213   1.660   2.620   2.896  1.2585  0.6955 -1.4084
  738SOL    HW2 2214   1.762   2.536   2.996  1.3388  5.1244 -0.3305
  739SOL     OW 2215   1.206   2.126   2.284 -0.2649  0.3813 -0.2976
  739SOL    HW1 2216   1.258   2.136   2.371 -2.6108 -0.7929 -0.5192
  739SOL    HW2 2217   1.167   2.033   2.283 -0.8855 -0.4590  1.8100
  740SOL     OW 2218   1.172   2.673   1.206 -0.7436  0.0233 -0.3271
  740SOL    HW1 2219   1.176   2.595   1.137  0.5738 -0.7736  1.7864
  740SOL    HW2 2220   1.239   2.752   1.183  2.3492  0.7764 -2.6342
  741SOL     OW 2221   2.816   1.090   0.344 -0.2077 -0.8845 -0.0769
  741SOL    HW1 2222   2.725   1.126   0.376 -1.3701 -0.5597  1.6557
  741SOL    HW2 2223   2.874   1.162   0.299  1.5512  0.1242 -1.9581
  742SOL     OW 2224   0.901   1.632   2.407  0.0478  0.0282 -0.3718
  742SOL    HW1 2225   0.859   1.615   2.319 -2.7514 -0.2068  2.2912
  742SOL    HW2 2226   0.855   1.708   2.456  1.1798  1.6516 -0.0164
  743SOL     OW 2227   0.983   0.746   2.437  0.1857 -0.2381  0.3262
  743SOL    HW1 2228   0.889   0.788   2.428  1.0913 -1.1252  0.8013
  743SOL    HW2 2229   0.980   0.650   2.405 -2.0734  0.8766  1.4029
  744SOL     OW 2230   2.063   2.649   1.559  0.0925 -0.5455  0.4826
  744SOL    HW1 2231   2.037   2.637   1.656  3.2478  1.3714 -1.0835
  744SOL    HW2 2232   2.071   2.749   1.540  1.1795  1.3286 -0.9791
  745SOL     OW 2233   1.631   1.302   1.271  0.0382 -0.1578  0.6585
  745SOL    HW1 2234   1.534   1.313   1.302  0.2959  0.0850 -0.3025
  745SOL    HW2 2235   1.685   1.287   1.354 -1.2682  1.2988 -0.6578
  746SOL     OW 2236   1.602   0.750   0.944 -0.3022  0.1282  0.7326
  746SOL    HW1 2237   1.686   0.726   0.991  3.5364  0.3049 -0.1010
  746SOL    HW2 2238   1.515   0.721   0.978 -2.0516  2.5731  1.3303
  747SOL     OW 2239   2.144   1.829   0.948  0.0514 -0.0897  0.0025
  747SOL    HW1 2240   2.216   1.796   0.886 -3.2130  2.0250  1.3924
  747SOL    HW2 2241   2.072   1.875   0.893  0.5893  0.8922 -1.2186
  748SOL     OW 2242   0.470   1.474   0.131  0.2829 -0.1455 -0.2007
  748SOL    HW1 2243   0.415   1.545   0.175 -1.4173  1.3149 -5.0024
  748SOL    HW2 2244   0.543   1.523   0.076  0.9013  1.8680 -1.6639
  749SOL     OW 2245   0.095   2.374   2.566 -0.3099  0.1722 -0.1028
  749SOL    HW1 2246   0.132   2.278   2.569  1.1886 -1.8329  2.3340
  749SOL    HW2 2247   3.071   2.374   2.593 -0.3594 -1.9161 -4.2166
  750SOL     OW 2248   2.104   0.686   1.173 -0.3611  0.0495  0.4046
  750SOL    HW1 2249   2.180   0.644   1.227  0.7190 -0.0276  0.8174
  750SOL    HW2 2250   2.039   0.740   1.227 -0.3720  0.2611 -1.1796
  751SOL     OW 2251   2.576   2.992   0.192 -0.0544 -0.9195 -0.1844
  751SOL    HW1 2252   2.583   2.998   0.087  0.7369  1.1323 -2.4313
  751SOL    HW2 2253   2.622   2.915   0.237 -1.1407  2.3005 -1.8772
  752SOL     OW 2254   2.420   2.514   0.461  0.0973  0.2637 -0.5853
  752SOL    HW1 2255   2.371   2.594   0.486  1.8549 -1.3055 -2.0653
  752SOL    HW2 2256   2.452   2.470   0.547 -2.1211 -2.6345  0.0777
  753SOL     OW 2257   1.941   1.514   2.366 -0.2433 -0.1143 -0.0049
  753SOL    HW1 2258   2.007   1.537   2.444  0.7091  2.4589  2.4148
  753SOL    HW2 2259   1.942   1.584   2.292 -1.3478  0.5962  0.4710
  754SOL     OW 2260   2.254   2.286   1.469 -0.1204 -0.1491  0.3419
  754SOL    HW1 2261   2.243   2.191   1.426 -0.3242 -2.1027 -0.8054
  754SOL    HW2 2262   2.237   2.274   1.568 -0.3556  2.1225 -2.1287
  755SOL     OW 2263   2.270   0.889   1.077  0.1698  0.4089 -0.1161
  755SOL    HW1 2264   2.210   0.961   1.111  2.3077 -1.1248  0.6070
  755SOL    HW2 2265   2.227   0.800   1.095 -1.4331 -1.3937  2.1688
  756SOL     OW 2266   1.373   1.475   2.619  0.5210 -0.1172  0.0384
  756SOL    HW1 2267   1.346   1.395   2.562  0.2977  2.1922  1.1425
  756SOL    HW2 2268   1.294   1.538   2.629 -1.1731 -2.8312 -0.7559
  757SOL     OW 2269   1.742   2.449   1.110 -0.1168 -0.2581  0.5050
  757SOL    HW1 2270   1.791   2.540   1.119 -1.9061  2.3502 -0.7407
  757SOL    HW2 2271   1.693   2.438   1.025  2.0771  2.1291  1.9169
  758SOL     OW 2272   0.905   2.327   1.322  0.2066  0.0200  0.2405
  758SOL    HW1 2273   0.963   2.351   1.400  0.4103  2.7079  0.3756
  758SOL    HW2 2274   0.962   2.296   1.242  1.6858  1.1895 -0.6616
  759SOL     OW 2275   2.064   1.093   1.113 -0.9020  0.3049  0.0885
  759SOL    HW1 2276   2.059   1.151   1.196 -2.8564  1.3708 -0.6400
  759SOL    HW2 2277   2.043   1.145   1.029 -1.6341 -1.8350 -1.9778
  760SOL     OW 2278   2.068   0.983   1.455  0.1843  0.2898  0.2757
  760SOL    HW1 2279   1.990   0.963   1.391  0.4517  3.7802 -3.6874
  760SOL    HW2 2280   2.075   1.080   1.474  0.0480 -0.9796 -1.9081
  761SOL     OW 2281   2.181   2.831   0.300 -0.2917 -0.9253  0.0138
  761SOL    HW1 2282   2.203   2.926   0.336 -1.1807 -2.5965  3.6211
  761SOL    HW2 2283   2.250   2.809   0.231  0.5635 -0.1195  0.9985
  762SOL     OW 2284   2.007   1.474   2.971  0.2537 -0.3964  0.0906
  762SOL    HW1 2285   2.074   1.544   2.938 -0.4646  1.7552  0.9168
  762SOL    HW2 2286   1.953   1.515   3.044  0.3883  1.0744 -3.2741
  763SOL     OW 2287   0.377   1.691   1.458 -0.5469 -0.7583 -0.3830
  763SOL    HW1 2288   0.332   1.784   1.450 -1.1971  5.6516  0.4666
  763SOL    HW2 2289   0.394   1.664   1.555  2.5272 -1.4762  3.5655
  764SOL     OW 2290   2.945   2.551   2.985  0.0652  0.4210 -0.6793
  764SOL    HW1 2291   2.955   2.446   2.992  0.3406 -2.0090 -0.5747
  764SOL    HW2 2292   2.963   2.585   2.893  3.8808 -1.4659  0.3856
  765SOL     OW 2293   0.501   3.048   1.626 -0.0500  0.2981  0.0630
  765SOL    HW1 2294   0.587   3.017   1.586 -0.1626  0.2186  1.6276
  765SOL    HW2 2295   0.507   3.057   1.726 -0.7079  0.3818 -3.1292
  766SOL     OW 2296   0.112   2.009   2.237  1.0924 -0.3691 -0.0809
  766SOL    HW1 2297   0.048   2.069   2.192 -0.1333 -0.4160  1.4543
  766SOL    HW2 2298   0.064   1.941   2.298  0.0872 -0.5593  2.1762
  767SOL     OW 2299   3.012   1.357   1.867 -0.7263  0.4006  0.2136
  767SOL    HW1 2300   3.002   1.295   1.950  1.1616 -0.3771  1.0539
  767SOL    HW2 2301   2.949   1.439   1.875  0.2330  1.2629  0.4760
  768SOL     OW 2302   0.959   0.434   0.015  0.2217 -0.1838  0.2058
  768SOL    HW1 2303   0.861   0.458   0.028  0.8895  0.2144 -0.4170
  768SOL    HW2 2304   1.017   0.459   0.097 -1.8489  1.1045 -0.3765
  769SOL     OW 2305   2.210   2.433   0.684 -0.1524 -0.4189  0.4251
  769SOL    HW1 2306   2.309   2.436   0.712 -1.0278 -0.1147 -0.7289
  769SOL    HW2 2307   2.196   2.496   0.604  0.8822 -2.4512  0.4099
  770SOL     OW 2308   2.738   0.286   2.784  0.2253  0.1144 -0.0628
  770SOL    HW1 2309   2.781   0.355   2.846  1.5197 -1.3359  0.7251
  770SOL    HW2 2310   2.654   0.260   2.825  1.8197 -1.3450 -0.8694
  771SOL     OW 2311   1.807   2.177   1.823  0.2383 -0.0783 -0.2921
  771SOL    HW1 2312   1.860   2.136   1.748 -0.6090  0.5846 -0.2611
  771SOL    HW2 2313   1.717   2.126   1.832 -0.5570 -3.1160 -1.2289
  772SOL     OW 2314   1.027   0.316   2.839 -0.1097  0.1238 -0.1825
  772SOL    HW1 2315   1.016   0.378   2.921 -1.9575  4.8504  2.1218
  772SOL    HW2 2316   1.048   0.372   2.757  3.0096 -2.3824  0.8085
  773SOL     OW 2317   2.931   0.943   1.705 -0.1793 -0.3932 -0.1744
  773SOL    HW1 2318   2.906   0.861   1.764 -1.1562 -0.8309 -0.4966
  773SOL    HW2 2319   3.028   0.971   1.717  1.1323 -3.1861  1.0827
  774SOL     OW 2320   1.199   0.957   0.578 -0.6243  0.0465  0.6729
  774SOL    HW1 2321   1.192   1.040   0.521 -3.0329 -2.4224  0.3242
  774SOL    HW2 2322   1.181   0.981   0.671 -1.5028 -2.3087 -2.2563
  775SOL     OW 2323   2.612   3.019   2.998  0.2240 -0.4592 -0.4515
  775SOL    HW1 2324   2.608   0.046   2.979  1.3587  2.3865  0.3707
  775SOL    HW2 2325   2.524   2.971   2.971  1.4868 -1.1402 -1.5490
  776SOL     OW 2326   2.506   0.998   2.077  0.3803  0.4979 -0.2479
  776SOL    HW1 2327   2.455   1.009   1.991 -0.5276 -1.3358 -0.8785
  776SOL    HW2 2328   2.503   0.902   2.104 -0.4049  1.3205  2.0087
  777SOL     OW 2329   3.038   1.177   2.684 -0.1598  0.3032  0.2958
  777SOL    HW1 2330   0.001   1.091   2.640  2.2873 -0.1572 -1.2150
  777SOL    HW2 2331   2.943   1.205   2.668  0.2531 -0.1209 -0.0203
  778SOL     OW 2332   0.705   0.216   0.369  0.1315  0.2413  0.3516
  778SOL    HW1 2333   0.804   0.190   0.368 -0.6409  0.3440 -1.2175
  778SOL    HW2 2334   0.651   0.128   0.386  0.8666 -1.1694 -0.1712
  779SOL     OW 2335   0.537   0.536   2.897  0.1467 -0.2537  0.1797
  779SOL    HW1 2336   0.600   0.559   2.970 -0.7050 -0.8430 -2.1255
  779SOL    HW2 2337   0.445   0.580   2.913 -1.9126  1.5941 -0.4354
  780SOL     OW 2338   1.709   0.842   2.551 -0.3972  0.4587 -0.1666
  780SOL    HW1 2339   1.728   0.790   2.459  2.8092 -0.5962 -0.8866
  780SOL    HW2 2340   1.782   0.824   2.617 -2.1371 -2.1112 -1.0206
  781SOL     OW 2341   0.100   1.050   1.746 -0.3269  0.0083 -0.4754
  781SOL    HW1 2342   0.155   0.978   1.797  0.8103  1.1591  1.3714
  781SOL    HW2 2343   0.092   1.128   1.813 -0.3106  0.5745 -0.4847
  782SOL     OW 2344   0.841   1.741   2.862 -0.2723  0.3292 -0.7160
  782SOL    HW1 2345   0.780   1.726   2.941  0.2052  1.5954 -0.5531
  782SOL    HW2 2346   0.922   1.682   2.872 -1.3043 -0.8199 -3.0842
  783SOL     OW 2347   0.869   2.527   1.687 -0.0859  0.2955  0.0138
  783SOL    HW1 2348   0.818   2.576   1.611 -1.2686 -0.2889  1.0443
  783SOL    HW2 2349   0.951   2.476   1.651 -0.4506 -0.6198  0.4260
  784SOL     OW 2350   1.355   0.263   2.909  0.4646  0.4100  0.0157
  784SOL    HW1 2351   1.287   0.324   2.862  2.1772  1.5650 -0.3819
  784SOL    HW2 2352   1.414   0.311   2.980  1.2017  0.5640  2.4591
  785SOL     OW 2353   1.155   0.447   2.619  0.3085  0.3871  0.7333
  785SOL    HW1 2354   1.180   0.503   2.700 -1.2411  1.2835  1.0177
  785SOL    HW2 2355   1.222   0.469   2.546  1.2349 -2.1961  2.2442
  786SOL     OW 2356   0.588   1.681   0.443 -0.2528  0.2876  0.2898
  786SOL    HW1 2357   0.571   1.609   0.506 -2.1687  4.2143  1.2226
  786SOL    HW2 2358   0.543   1.768   0.477 -1.5468  0.9824 -1.3567
  787SOL     OW 2359   1.474   1.037   0.244 -0.9500  0.0873  0.5155
  787SOL    HW1 2360   1.408   1.113   0.215  0.4706  1.0556  0.9875
  787SOL    HW2 2361   1.486   1.038   0.345  1.0267 -1.0435 -0.3662
  788SOL     OW 2362   2.010   1.531   1.302  0.7918  0.7405 -0.2429
  788SOL    HW1 2363   2.064   1.603   1.259  0.1408  0.4284  0.1867
  788SOL    HW2 2364   2.044   1.528   1.395 -1.2032  1.4950 -2.8373
  789SOL     OW 2365   3.032   1.706   1.955  0.1900  0.3729 -0.0855
  789SOL    HW1 2366   0.033   1.723   1.884  0.3963 -0.0379  2.5931
  789SOL    HW2 2367   3.071   1.667   2.039 -0.7545 -1.2743 -0.1446
  790SOL     OW 2368   0.782   2.861   0.152  0.0149 -0.1781  0.2017
  790SOL    HW1 2369   0.816   2.947   0.098  1.5679  4.4085  2.0179
  790SOL    HW2 2370   0.684   2.836   0.141  0.2711  0.3761  1.0507
  791SOL     OW 2371   0.378   0.556   0.181 -0.1876  0.2584  0.5281
  791SOL    HW1 2372   0.442   0.605   0.242  2.0569 -2.1040  1.7598
  791SOL    HW2 2373   0.435   0.492   0.125 -1.8998 -0.8080  1.9765
  792SOL     OW 2374   1.719   0.719   2.310 -0.0622  0.6787  0.0326
  792SOL    HW1 2375   1.795   0.661   2.351  0.2885  1.0160  2.8616
  792SOL    HW2 2376   1.763   0.772   2.233  1.1683 -1.1197 -1.6992
  793SOL     OW 2377   3.004   0.546   0.678  0.1347 -0.3417 -0.0841
  793SOL    HW1 2378   3.021   0.639   0.640  0.0222 -0.3467  0.4507
  793SOL    HW2 2379   3.047   0.545   0.772 -0.9711 -1.3858  1.9160
  794SOL     OW 2380   0.535   0.433   1.699 -0.4767 -0.5375 -0.0879
  794SOL    HW1 2381   0.633   0.459   1.676  0.0163 -0.9985 -1.6146
  794SOL    HW2 2382   0.509   0.357   1.640  1.0644 -0.0274  0.0915
  795SOL     OW 2383   0.071   1.146   0.094 -0.6752  0.1548  0.1859
  795SOL    HW1 2384   0.139   1.201   0.144 -0.5347 -0.7649 -1.4749
  795SOL    HW2 2385   0.086   1.136   3.065 -0.2770  1.0694 -4.8868
  796SOL     OW 2386   0.144   0.756   0.054 -0.0181 -0.1116  0.0850
  796SOL    HW1 2387   0.141   0.657   0.082 -0.7219  0.2601 -1.4279
  796SOL    HW2 2388   0.148   0.820   0.135 -1.9753 -1.9724 -1.7439
  797SOL     OW 2389   1.383   2.520   3.033  0.1831  0.3604 -0.2996
  797SOL    HW1 2390   1.310   2.550   0.021  0.7162 -1.5649 -0.9626
  797SOL    HW2 2391   1.337   2.459   2.965 -0.2828  4.4996 -0.0203
  798SOL     OW 2392   2.910   0.603   1.072  0.7251  0.3377  0.0936
  798SOL    HW1 2393   2.833   0.553   1.027  0.0269 -0.5701 -0.3130
  798SOL    HW2 2394   2.923   0.692   1.022 -1.0822  1.2569 -3.1993
  799SOL     OW 2395   2.678   0.607   2.022 -0.2929 -0.4088 -0.2352
  799SOL    HW1 2396   2.586   0.643   2.048  0.9015  1.7055 -0.2923
  799SOL    HW2 2397   2.748   0.610   2.098 -0.1077 -1.1359  2.0650
  800SOL     OW 2398   0.015   2.083   0.385  0.5730 -0.0739 -0.4307
  800SOL    HW1 2399   0.061   2.082   0.472 -2.7905 -0.6113 -0.9755
  800SOL    HW2 2400   2.998   2.132   0.395 -0.9196  1.1347 -0.5377
  801SOL     OW 2401   1.574   2.027   0.800  0.1708 -0.0181  0.0536
  801SOL    HW1 2402   1.574   1.991   0.703  0.6445 -2.2171  0.0244
  801SOL    HW2 2403   1.536   1.959   0.867 -2.5366 -0.7066  3.4530
  802SOL     OW 2404   1.104   1.641   2.628  0.1475 -0.3410 -0.3411
  802SOL    HW1 2405   1.018   1.615   2.576  0.3544  0.6198 -0.8446
  802SOL    HW2 2406   1.136   1.733   2.600 -1.6190  1.8310 -0.2817
  803SOL     OW 2407   3.027   2.173   1.624 -0.1286  0.1231 -0.3269
  803SOL    HW1 2408   3.063   2.211   1.535 -2.5414 -1.3161 -1.2759
  803SOL    HW2 2409   0.020   2.114   1.662  0.4882  1.1777  0.2295
  804SOL     OW 2410   1.280   2.504   1.406  0.0433  0.0196 -0.6073
  804SOL    HW1 2411   1.362   2.466   1.354  2.0139 -0.7210 -0.7926
  804SOL    HW2 2412   1.225   2.569   1.349 -0.1879 -2.0466  0.4682
  805SOL     OW 2413   2.371   2.115   2.874  0.1206  0.1883 -0.1126
  805SOL    HW1 2414   2.323   2.189   2.826  0.1443 -0.7713  1.0721
  805SOL    HW2 2415   2.342   2.027   2.826  0.4050  0.9449 -1.1522
  806SOL     OW 2416   2.163   2.992   0.664 -0.2274 -0.3274 -0.0712
  806SOL    HW1 2417   2.246   2.941   0.697  0.0044  0.9339  0.0017
  806SOL    HW2 2418   2.081   2.954   0.708  0.4594  0.6272 -1.9174
  807SOL     OW 2419   2.775   0.562   2.896 -0.4647 -0.0343  0.1629
  807SOL    HW1 2420   2.722   0.565   2.807 -2.5253 -0.4933  0.2929
  807SOL    HW2 2421   2.740   0.638   2.956  1.3762  1.6956  0.7869
  808SOL     OW 2422   0.729   1.309   0.602  0.3403 -0.2612  0.3864
  808SOL    HW1 2423   0.668   1.317   0.517 -0.1321  0.6585 -1.7047
  808SOL    HW2 2424   0.683   1.248   0.666  0.4175  3.2795 -2.6099
  809SOL     OW 2425   2.725   0.387   1.889  0.1457 -0.1306  0.2225
  809SOL    HW1 2426   2.729   0.475   1.946  1.5632  2.9188  3.6628
  809SOL    HW2 2427   2.686   0.404   1.798  0.4040 -1.7691  2.4669
  810SOL     OW 2428   1.085   0.558   1.252  0.0223 -0.0257 -0.2675
  810SOL    HW1 2429   1.019   0.589   1.182  0.0117 -0.0439  0.4183
  810SOL    HW2 2430   1.178   0.522   1.227  2.1775 -0.7753  1.3723
  811SOL     OW 2431   2.390   2.917   1.665  0.6302  0.4778  0.7631
  811SOL    HW1 2432   2.315   2.970   1.716 -1.4714 -0.5214  1.1110
  811SOL    HW2 2433   2.463   2.888   1.731 -0.7128  1.2677  0.9589
  812SOL     OW 2434   1.731   2.101   0.070 -0.3803 -0.2207 -0.4466
  812SOL    HW1 2435   1.655   2.134   0.124  2.6284  0.1224 -3.3166
  812SOL    HW2 2436   1.825   2.136   0.099 -2.1879  0.0534 -1.2998
  813SOL     OW 2437   1.151   0.623   1.723  0.1144  0.2511 -0.1366
  813SOL    HW1 2438   1.106   0.580   1.636 -1.3556 -2.1851 -1.4629
  813SOL    HW2 2439   1.243   0.658   1.695 -1.2246  1.5366 -0.6395
  814SOL     OW 2440   0.585   0.433   1.280  0.1498 -0.2578 -0.1570
  814SOL    HW1 2441   0.555   0.511   1.341 -0.5610  0.3323 -2.1540
  814SOL    HW2 2442   0.613   0.353   1.337 -1.5662 -1.1208 -0.5925
  815SOL     OW 2443   0.692   0.308   0.638  0.8096  0.5552 -0.3306
  815SOL    HW1 2444   0.699   0.252   0.552  0.7009  3.1079  1.2338
  815SOL    HW2 2445   0.611   0.294   0.694 -0.2166 -1.3998  1.3786
  816SOL     OW 2446   2.123   1.559   2.573  0.2169  0.4918 -0.5400
  816SOL    HW1 2447   2.091   1.602   2.660 -1.6322  0.1012  0.6846
  816SOL    HW2 2448   2.223   1.535   2.575  3.2236 -0.6527 -1.3844
  817SOL     OW 2449   1.359   2.796   0.881 -0.3148  0.1144 -0.5419
  817SOL    HW1 2450   1.315   2.709   0.846  0.9157  0.4099  0.8174
  817SOL    HW2 2451   1.399   2.850   0.805  1.6985 -1.4853  2.1062
  818SOL     OW 2452   1.720   0.543   2.992 -0.1283  0.6743  0.1994
  818SOL    HW1 2453   1.805   0.565   3.053 -1.2077 -0.0049  2.4498
  818SOL    HW2 2454   1.687   0.619   2.935 -0.3572  0.0405 -1.8509
  819SOL     OW 2455   1.834   0.224   0.079 -0.0214  0.2322  0.2872
  819SOL    HW1 2456   1.765   0.165   0.032  0.4653 -0.4537  2.2664
  819SOL    HW2 2457   1.917   0.169   0.108  3.1916  1.0607 -0.8284
  820SOL     OW 2458   1.962   0.641   0.026 -0.5772 -0.1020  0.6295
  820SOL    HW1 2459   2.034   0.691   3.041  2.1329  1.1326 -1.3528
  820SOL    HW2 2460   2.000   0.564   0.079  2.5493 -0.8885 -0.7479
  821SOL     OW 2461   2.718   0.521   0.679 -0.1403  0.0332 -0.1801
  821SOL    HW1 2462   2.822   0.526   0.686  0.0223 -1.2880 -0.1233
  821SOL    HW2 2463   2.690   0.524   0.581 -5.0280  0.6020  0.6826
  822SOL     OW 2464   0.917   2.314   2.055 -0.1870  0.0500  0.1296
  822SOL    HW1 2465   0.955   2.313   2.151 -3.6643 -0.8076  1.8723
  822SOL    HW2 2466   0.848   2.244   2.041  1.8763  0.1657  1.2170
  823SOL     OW 2467   0.128   1.730   1.731  0.5556  0.0443  0.1308
  823SOL    HW1 2468   0.225   1.705   1.721  1.7551  0.7284  2.0057
  823SOL    HW2 2469   0.073   1.693   1.653 -0.3249  2.1758 -1.4899
  824SOL     OW 2470   1.442   2.740   2.589 -0.3878  0.1633  0.5869
  824SOL    HW1 2471   1.494   2.660   2.623  2.0612 -0.8565  1.1991
  824SOL    HW2 2472   1.371   2.757   2.654  0.8430 -0.5116 -2.3023
  825SOL     OW 2473   1.765   0.785   0.586  0.3992  0.4471 -0.0803
  825SOL    HW1 2474   1.827   0.745   0.513  1.6342 -1.5520 -2.2823
  825SOL    HW2 2475   1.814   0.785   0.678  0.5122  2.4613  0.8900
  826SOL     OW 2476   2.048   0.945   0.055 -0.2240 -0.0786  0.5027
  826SOL    HW1 2477   2.079   0.913   0.149  0.4165  2.3203 -0.5278
  826SOL    HW2 2478   1.948   0.946   0.048 -0.9769 -0.0038 -0.9527
  827SOL     OW 2479   0.474   1.737   1.988 -0.6769  0.2414  0.3829
  827SOL    HW1 2480   0.417   1.822   2.005  0.4033  1.8259 -2.0154
  827SOL    HW2 2481   0.440   1.650   2.030  2.9478 -0.6724 -0.2338
  828SOL     OW 2482   2.266   1.275   1.564  0.7244 -0.2453  0.2877
  828SOL    HW1 2483   2.301   1.276   1.659  0.0872  3.5977 -0.8128
  828SOL    HW2 2484   2.323   1.230   1.494 -1.8887 -1.7107  1.5990
  829SOL     OW 2485   0.194   1.712   0.237  0.7041 -0.2393 -0.4129
  829SOL    HW1 2486   0.197   1.663   0.327  1.8675  1.1004 -0.1901
  829SOL    HW2 2487   0.105   1.761   0.222  1.3742  0.2165  0.2898
  830SOL     OW 2488   1.475   0.919   0.771 -0.2120 -0.1459  0.4735
  830SOL    HW1 2489   1.554   0.875   0.820 -0.3831 -0.0581  1.1614
  830SOL    HW2 2490   1.437   0.853   0.701 -1.5259 -2.0446  0.4342
  831SOL     OW 2491   2.799   1.830   0.078 -0.1059  0.2555  0.1559
  831SOL    HW1 2492   2.831   1.753   0.020 -0.7837 -1.9977 -2.3481
  831SOL    HW2 2493   2.698   1.824   0.089 -3.2672  0.8713 -0.1047
  832SOL     OW 2494   0.967   0.118   0.394 -0.0975  0.2580  0.1137
  832SOL    HW1 2495   1.018   0.169   0.470  1.7015  0.6644 -0.8501
  832SOL    HW2 2496   1.014   0.122   0.304 -0.0545 -0.2120  0.7283
  833SOL     OW 2497   0.667   0.726   2.233  0.5591  0.2465 -0.2321
  833SOL    HW1 2498   0.748   0.682   2.193  0.9084  2.1674  0.3631
  833SOL    HW2 2499   0.639   0.674   2.318  0.4721  0.0895 -0.7648
  834SOL     OW 2500   0.195   0.208   0.726 -0.2137 -0.3946  0.7178
  834SOL    HW1 2501   0.267   0.262   0.777  1.0337 -0.3995 -1.0809
  834SOL    HW2 2502   0.242   0.160   0.649  1.2992 -0.4190  0.1508
  835SOL     OW 2503   2.792   2.784   1.018  0.2603 -0.0135 -0.0528
  835SOL    HW1 2504   2.799   2.780   1.120 -0.8521  1.4195 -0.7594
  835SOL    HW2 2505   2.763   2.878   0.995  3.2416 -1.0638 -0.4911
  836SOL     OW 2506   0.408   1.812   0.125  0.3083  0.5116 -0.3356
  836SOL    HW1 2507   0.414   1.904   0.169  2.3468 -3.4247 -1.0799
  836SOL    HW2 2508   0.320   1.772   0.156 -2.1653  2.0238 -0.0155
  837SOL     OW 2509   1.695   1.461   2.243  0.2835  0.2182 -0.0536
  837SOL    HW1 2510   1.667   1.559   2.263 -1.1735 -1.5091 -2.2143
  837SOL    HW2 2511   1.784   1.446   2.293  0.9827  1.7198  0.1947
  838SOL     OW 2512   0.570   1.075   1.875 -0.0466 -0.3919  0.3373
  838SOL    HW1 2513   0.672   1.073   1.862  0.1989  0.8107 -2.1447
  838SOL    HW2 2514   0.524   1.134   1.801 -2.5594  3.9185 -0.0560
  839SOL     OW 2515   0.261   1.381   0.871  0.0494 -0.2450 -0.3706
  839SOL    HW1 2516   0.252   1.399   0.972 -0.8470 -1.6140  2.2274
  839SOL    HW2 2517   0.248   1.286   0.852 -3.4039  2.5981  1.5546
  840SOL     OW 2518   2.141   0.114   1.572  0.0333 -0.8638 -0.4258
  840SOL    HW1 2519   2.041   0.096   1.545  0.4524 -1.5448  1.2619
  840SOL    HW2 2520   2.177   0.043   1.634 -1.7971 -2.4251  0.0433
  841SOL     OW 2521   0.690   2.208   0.433  0.4177  0.4135  0.0203
  841SOL    HW1 2522   0.781   2.160   0.442  1.5102 -0.0278 -1.2776
  841SOL    HW2 2523   0.666   2.214   0.335  3.9173 -0.2218 -0.7181
  842SOL     OW 2524   0.492   0.313   0.829  0.5132  0.0096  0.4056
  842SOL    HW1 2525   0.569   0.355   0.881  1.8817 -0.5152 -0.4839
  842SOL    HW2 2526   0.456   0.230   0.879 -2.5847  0.2596  1.3680
  843SOL     OW 2527   0.334   1.309   2.977  0.1277  0.8698  0.6691
  843SOL    HW1 2528   0.288   1.394   3.006  0.7254  0.1438 -0.2136
  843SOL    HW2 2529   0.264   1.247   2.943  0.9660 -0.5247 -1.4755
  844SOL     OW 2530   1.144   2.260   0.030 -0.3780 -0.1735 -0.1170
  844SOL    HW1 2531   1.082   2.193   3.067  2.1212  1.6331 -1.7067
  844SOL    HW2 2532   1.169   2.327   3.030  0.4664 -0.6698  0.4469
  845SOL     OW 2533   2.357   2.959   2.403  0.2053  0.1052  0.3234
  845SOL    HW1 2534   2.402   3.002   2.324 -3.8671 -1.3849  2.5763
  845SOL    HW2 2535   2.257   2.967   2.396 -0.1493 -4.0141 -0.6477
  846SOL     OW 2536   2.015   1.862   0.029  0.2052  0.1131 -0.2520
  846SOL    HW1 2537   1.994   1.880   3.006  0.7848 -1.7316 -1.5362
  846SOL    HW2 2538   1.984   1.771   0.058  2.0220 -2.4224  1.7284
  847SOL     OW 2539   2.527   0.195   2.958  0.1227  0.5878 -0.4167
  847SOL    HW1 2540   2.433   0.203   2.910 -0.2668 -0.8503 -0.3672
  847SOL    HW2 2541   2.511   0.240   3.047 -0.5295  1.9464 -0.5758
  848SOL     OW 2542   0.370   0.596   0.726  0.2498  0.0582 -0.3548
  848SOL    HW1 2543   0.444   0.546   0.770 -0.6274  0.0300  1.6950
  848SOL    HW2 2544   0.280   0.562   0.754 -1.6928  0.5583 -2.2791
  849SOL     OW 2545   1.320   2.845   2.109  0.6597  0.0243 -0.0857
  849SOL    HW1 2546   1.338   2.813   2.203  0.9152 -2.1922 -1.2018
  849SOL    HW2 2547   1.250   2.790   2.060  2.7992  2.0675  1.8644
  850SOL     OW 2548   0.551   1.372   0.422 -0.2833 -0.0286  0.1131
  850SOL    HW1 2549   0.555   1.286   0.364 -0.2809  0.1495  0.2117
  850SOL    HW2 2550   0.498   1.445   0.382  0.7894 -0.4764  5.1552
  851SOL     OW 2551   0.271   1.322   0.211  0.4000 -0.0301 -0.0714
  851SOL    HW1 2552   0.361   1.356   0.176 -0.2306 -0.7809  1.3665
  851SOL    HW2 2553   0.269   1.309   0.313  0.6964  1.0373 -2.6256
  852SOL     OW 2554   1.512   2.770   1.747 -0.1537 -0.2810 -0.1176
  852SOL    HW1 2555   1.449   2.707   1.690  1.2683  0.3887 -1.2168
  852SOL    HW2 2556   1.460   2.857   1.765 -0.2484 -0.1058  0.7943
  853SOL     OW 2557   2.789   1.467   0.048  0.2956 -0.3905  0.6917
  853SOL    HW1 2558   2.847   1.539   0.001 -0.4441 -1.6721 -0.5259
  853SOL    HW2 2559   2.726   1.499   0.120  1.4167 -1.5672 -3.3218
  854SOL     OW 2560   1.564   1.380   1.945 -0.0487 -0.9880 -0.7927
  854SOL    HW1 2561   1.626   1.451   1.985 -1.4172  0.1540  0.3135
  854SOL    HW2 2562   1.467   1.406   1.945  1.8255 -0.3251 -0.6601
  855SOL     OW 2563   0.413   2.316   3.021  0.5556  0.1446 -0.4549
  855SOL    HW1 2564   0.367   2.348   0.033  2.6262  0.0341 -2.8835
  855SOL    HW2 2565   0.432   2.388   2.954  2.0783 -1.7494  1.7782
  856SOL     OW 2566   0.324   0.880   1.876  0.4327  0.0046  0.0079
  856SOL    HW1 2567   0.329   0.791   1.932  0.7530 -1.6025  0.4178
  856SOL    HW2 2568   0.413   0.929   1.881 -0.8374  1.1427  2.4861
  857SOL     OW 2569   1.277   0.960   2.161  0.0404  0.0413 -0.5211
  857SOL    HW1 2570   1.272   0.859   2.162  0.8822 -1.0123  0.0995
  857SOL    HW2 2571   1.368   1.001   2.194  2.1942  1.9421 -0.7878
  858SOL     OW 2572   0.246   1.282   2.323 -0.2036  0.3021 -0.2647
  858SOL    HW1 2573   0.154   1.322   2.343 -1.3371  1.4017  1.5366
  858SOL    HW2 2574   0.238   1.182   2.297 -0.4844  1.9390 -2.4888
  859SOL     OW 2575   2.713   3.038   0.967 -0.2776  0.3028  0.1758
  859SOL    HW1 2576   2.643   0.002   1.029  2.2411 -2.2121 -1.4244
  859SOL    HW2 2577   2.755   0.041   0.915  0.0530 -2.9158  1.0134
  860SOL     OW 2578   2.065   2.968   3.000 -0.4236 -0.5450  0.3924
  860SOL    HW1 2579   2.165   2.969   2.979  1.1081  2.3820 -0.6635
  860SOL    HW2 2580   2.032   2.871   2.984  0.4215 -0.7490  2.5187
  861SOL     OW 2581   0.907   0.471   0.556  0.4190  0.0168  0.2077
  861SOL    HW1 2582   0.856   0.393   0.593 -1.0051 -1.3451 -1.9490
  861SOL    HW2 2583   0.863   0.517   0.475  0.7312  1.0037  1.6231
  862SOL     OW 2584   1.373   0.385   2.442 -0.1796 -0.0814 -0.0183
  862SOL    HW1 2585   1.417   0.379   2.537 -0.2368  1.4585 -0.2675
  862SOL    HW2 2586   1.392   0.305   2.384 -0.7581  1.7346 -0.5535
  863SOL     OW 2587   2.507   2.225   0.864 -0.0843  0.3423  0.1415
  863SOL    HW1 2588   2.486   2.256   0.960 -0.3870 -1.1893 -1.2559
  863SOL    HW2 2589   2.473   2.135   0.853  2.7598  2.2714 -0.8416
  864SOL     OW 2590   2.744   0.117   1.757  0.2429  0.0246 -0.2214
  864SOL    HW1 2591   2.688   0.034   1.772  0.0527  0.8184 -0.7259
  864SOL    HW2 2592   2.714   0.193   1.817 -0.9890  1.1232 -1.6103
  865SOL     OW 2593   1.160   0.475   2.001 -0.0960 -0.4688 -0.3867
  865SOL    HW1 2594   1.160   0.372   2.016 -1.5328 -1.6535 -1.2864
  865SOL    HW2 2595   1.171   0.501   1.903 -0.9077  1.0615  3.3736
  866SOL     OW 2596   1.895   2.686   1.087 -0.1458 -0.0623  0.5852
  866SOL    HW1 2597   1.992   2.718   1.086  1.8994  4.0692 -1.2346
  866SOL    HW2 2598   1.834   2.760   1.059  1.5477  1.6106 -2.9243
  867SOL     OW 2599   2.904   2.411   0.591 -0.4691  0.2150  0.1365
  867SOL    HW1 2600   2.919   2.470   0.508 -0.4402  0.1461  1.9079
  867SOL    HW2 2601   2.870   2.461   0.668 -1.1199  0.1445 -0.7462
  868SOL     OW 2602   0.536   2.201   1.565  0.3712  0.2051 -0.1991
  868SOL    HW1 2603   0.477   2.279   1.533 -2.2742  1.3593 -1.2291
  868SOL    HW2 2604   0.545   2.139   1.486 -1.1535 -0.9633  3.6683
  869SOL     OW 2605   2.186   2.280   3.040  0.5678 -0.1607  0.3750
  869SOL    HW1 2606   2.212   2.267   2.938  2.5323 -1.4621 -1.8832
  869SOL    HW2 2607   2.194   2.379   3.063 -0.7283 -1.8019  0.4978
  870SOL     OW 2608   1.805   1.774   1.096 -0.2424  0.4084  0.2458
  870SOL    HW1 2609   1.866   1.796   1.019  0.2614 -0.4322  0.9407
  870SOL    HW2 2610   1.796   1.670   1.112 -0.7363 -3.1824 -0.1958
  871SOL     OW 2611   0.158   1.992   1.714  0.2255  0.7151  0.4314
  871SOL    HW1 2612   0.136   1.891   1.731 -1.7318 -1.9534 -2.8550
  871SOL    HW2 2613   0.198   2.033   1.796  2.5601  1.3342 -1.5404
  872SOL     OW 2614   0.462   1.427   2.377  0.3001 -0.2087 -0.1301
  872SOL    HW1 2615   0.442   1.525   2.372  0.4469 -0.6813  0.6023
  872SOL    HW2 2616   0.375   1.370   2.364 -0.6170 -0.6941 -1.5722
  873SOL     OW 2617   0.912   2.096   1.769  0.3615  0.0146  0.1358
  873SOL    HW1 2618   0.889   2.067   1.864  2.6873  1.0078  1.5043
  873SOL    HW2 2619   0.849   2.168   1.735  1.8162  0.7988 -2.2202
  874SOL     OW 2620   1.508   0.735   1.965  0.5344 -0.0119  0.0727
  874SOL    HW1 2621   1.425   0.737   2.018 -0.3194  0.7082 -1.0528
  874SOL    HW2 2622   1.480   0.725   1.869  0.9540 -1.4150  2.9143
  875SOL     OW 2623   2.881   2.722   0.780  0.6042  0.2984  0.5401
  875SOL    HW1 2624   2.848   2.739   0.875 -0.1548  1.5071 -1.9563
  875SOL    HW2 2625   2.974   2.682   0.772 -0.5528 -1.5898  0.5054
  876SOL     OW 2626   1.167   1.175   0.423 -0.1025 -0.3918 -0.0520
  876SOL    HW1 2627   1.192   1.192   0.327 -3.0194 -0.5810 -0.9594
  876SOL    HW2 2628   1.117   1.261   0.453 -0.3720  0.5248  0.3149
  877SOL     OW 2629   2.718   0.437   0.975 -0.6194  0.0758 -1.0431
  877SOL    HW1 2630   2.744   0.352   0.925 -1.4236  0.1829 -3.0611
  877SOL    HW2 2631   2.624   0.431   1.016  1.1787  1.0206 -0.8508
  878SOL     OW 2632   2.097   1.614   0.555 -0.0395  0.5630 -0.1772
  878SOL    HW1 2633   2.006   1.652   0.523 -1.2234  0.6635  0.5801
  878SOL    HW2 2634   2.157   1.607   0.474 -0.3392 -0.1793  0.1749
  879SOL     OW 2635   2.450   1.693   0.992  0.4040  0.4500  0.0417
  879SOL    HW1 2636   2.459   1.638   1.078 -0.4738  2.0771  2.1096
  879SOL    HW2 2637   2.460   1.630   0.912  0.6817  0.1124 -1.5687
  880SOL     OW 2638   0.428   2.383   0.818  0.3714  0.4645  0.2245
  880SOL    HW1 2639   0.327   2.400   0.833 -0.4185  1.0449 -0.6272
  880SOL    HW2 2640   0.452   2.377   0.719  1.2105  2.5129  0.1885
  881SOL     OW 2641   1.061   1.148   0.787  0.3299  0.6822 -0.1739
  881SOL    HW1 2642   1.021   1.167   0.878  0.2244 -2.4276  1.2872
  881SOL    HW2 2643   1.162   1.168   0.789  0.9734 -1.4426  0.4930
  882SOL     OW 2644   2.322   0.891   0.039  0.3936  0.2196  0.1820
  882SOL    HW1 2645   2.356   0.961   3.044  2.4986  4.3390 -1.0003
  882SOL    HW2 2646   2.217   0.905   0.052 -1.9555 -1.0103  0.3639
  883SOL     OW 2647   1.358   2.990   1.763  0.3021 -0.1688 -0.1767
  883SOL    HW1 2648   1.267   3.007   1.810  0.6105  1.0496 -1.1540
  883SOL    HW2 2649   1.346   2.968   1.665 -1.8216 -1.4278  0.4475
  884SOL     OW 2650   2.768   0.195   0.826  0.2578 -0.3703 -0.7873
  884SOL    HW1 2651   2.865   0.215   0.858  0.3269  0.4245  0.2960
  884SOL    HW2 2652   2.768   0.176   0.725  0.8732  1.7471  0.0082
  885SOL     OW 2653   1.091   0.999   1.595 -0.4853  0.3538  0.0073
  885SOL    HW1 2654   1.179   0.982   1.642  0.9647  0.9804  0.0454
  885SOL    HW2 2655   1.073   0.922   1.530 -0.1126 -2.0229 -2.4552
  886SOL     OW 2656   1.538   1.042   2.486  0.5812  0.0156 -0.0759
  886SOL    HW1 2657   1.544   1.047   2.388 -0.0677  2.2192  1.3350
  886SOL    HW2 2658   1.610   0.980   2.529 -0.0351 -1.7535 -0.3134
  887SOL     OW 2659   1.498   0.680   1.231  0.3771  0.5921 -0.1204
  887SOL    HW1 2660   1.454   0.627   1.157  2.2194  1.2205  0.3283
  887SOL    HW2 2661   1.474   0.778   1.234 -1.0984 -3.9967  2.6667
  888SOL     OW 2662   2.258   1.563   1.983  0.0009 -0.3138 -0.6362
  888SOL    HW1 2663   2.249   1.466   2.012 -2.8543  1.5832 -0.2002
  888SOL    HW2 2664   2.337   1.613   2.021 -0.7857  2.5519 -1.5820
  889SOL     OW 2665   1.882   2.085   0.683 -0.1076 -0.7363  0.2752
  889SOL    HW1 2666   1.981   2.109   0.685 -1.3117 -2.7729  0.6983
  889SOL    HW2 2667   1.824   2.160   0.638  0.9015 -0.9475 -1.0699
  890SOL     OW 2668   0.948   1.915   0.630 -0.2050  0.2433 -0.1776
  890SOL    HW1 2669   1.042   1.874   0.625  3.0962 -0.8681  0.7505
  890SOL    HW2 2670   0.871   1.851   0.635 -0.2295  2.6150 -1.0896
  891SOL     OW 2671   2.654   0.586   2.679 -0.1237 -0.0487 -0.4570
  891SOL    HW1 2672   2.693   0.505   2.631  0.6659  0.5549 -0.7920
  891SOL    HW2 2673   2.629   0.653   2.607  1.5131 -2.3805 -1.8249
  892SOL     OW 2674   0.899   0.475   2.495  0.1080 -0.0620  0.5025
  892SOL    HW1 2675   0.845   0.514   2.570 -0.9936 -2.6562  0.2749
  892SOL    HW2 2676   0.994   0.447   2.519  1.3354  1.2519 -1.1955
  893SOL     OW 2677   1.652   0.159   1.326  0.0899  0.3558  0.0725
  893SOL    HW1 2678   1.643   0.059   1.311  1.4882  0.8751  1.5554
  893SOL    HW2 2679   1.581   0.179   1.395 -0.6791  0.0215  0.0714
  894SOL     OW 2680   2.704   0.319   0.395 -0.2004 -0.0062  0.5927
  894SOL    HW1 2681   2.640   0.260   0.452  1.4405  1.0621 -0.7207
  894SOL    HW2 2682   2.749   0.260   0.323  1.0038 -2.1933 -1.7096
  895SOL     OW 2683   2.017   2.715   2.925  0.5075  0.0941  0.1402
  895SOL    HW1 2684   1.926   2.685   2.893  0.1995  2.6026  1.9596
  895SOL    HW2 2685   2.046   2.651   3.001 -0.6327 -0.6244  1.3894
  896SOL     OW 2686   1.866   0.114   1.565  0.7105 -0.0942 -0.7622
  896SOL    HW1 2687   1.803   0.173   1.617 -0.1359 -0.5218 -3.2027
  896SOL    HW2 2688   1.835   0.085   1.475 -2.3618 -0.7229  3.4052
  897SOL     OW 2689   0.195   2.316   1.773  0.4806 -0.1763  0.2926
  897SOL    HW1 2690   0.216   2.332   1.670 -0.1499  1.1021 -1.5722
  897SOL    HW2 2691   0.254   2.240   1.810 -1.3298 -0.8965  0.1432
  898SOL     OW 2692   2.458   1.727   2.041 -0.1247  0.3829  0.4868
  898SOL    HW1 2693   2.492   1.707   1.945 -0.5739 -0.2133 -1.5947
  898SOL    HW2 2694   2.442   1.827   2.044  0.1618 -0.5018  0.3856
  899SOL     OW 2695   1.692   2.265   0.881  0.3922 -0.0931 -0.0118
  899SOL    HW1 2696   1.791   2.241   0.903  0.6750  0.5310  0.8376
  899SOL    HW2 2697   1.640   2.186   0.849  2.5866  5.6074  0.1139
  900SOL     OW 2698   0.788   3.065   3.056  0.5778  0.2247 -0.6451
  900SOL    HW1 2699   0.699   3.029   3.019  0.1226  1.4116  0.2007
  900SOL    HW2 2700   0.848   0.016   2.979 -1.7144 -0.9397  1.0795
  901SOL     OW 2701   1.383   1.759   2.345  0.0702 -0.3013 -0.5728
  901SOL    HW1 2702   1.407   1.754   2.442 -1.3592 -0.4928 -0.5613
  901SOL    HW2 2703   1.299   1.810   2.335  1.9159  0.2893 -0.7427
  902SOL     OW 2704   0.105   0.477   2.719 -0.4784 -0.7459  0.0266
  902SOL    HW1 2705   0.035   0.410   2.735  1.7426  1.9416  0.0715
  902SOL    HW2 2706   0.185   0.439   2.666  3.3621  0.0043 -0.6620
  903SOL     OW 2707   2.178   0.650   2.269  0.0384 -0.0745  0.0315
  903SOL    HW1 2708   2.251   0.605   2.316 -1.9114  0.2911 -0.0275
  903SOL    HW2 2709   2.162   0.603   2.180 -2.8485 -0.2752  0.3773
  904SOL     OW 2710   1.436   0.614   2.344 -0.6542  0.5652  0.9186
  904SOL    HW1 2711   1.540   0.624   2.332  3.4249  0.2523  0.1900
  904SOL    HW2 2712   1.416   0.524   2.389  1.4912  0.1432  0.5406
  905SOL     OW 2713   2.068   2.544   1.829  0.6196 -0.6830  0.2211
  905SOL    HW1 2714   1.978   2.527   1.873  0.4572  1.0018  0.9290
  905SOL    HW2 2715   2.118   2.461   1.805 -2.9057 -0.3616 -1.3248
  906SOL     OW 2716   1.685   1.942   0.338  0.0193 -0.3191  0.5186
  906SOL    HW1 2717   1.784   1.934   0.322 -1.2536 -0.5303 -2.0000
  906SOL    HW2 2718   1.660   2.015   0.272  1.7507  0.7603  0.0197
  907SOL     OW 2719   1.299   2.909   1.101  0.1711  0.5269 -0.6298
  907SOL    HW1 2720   1.348   3.002   1.094  0.2879  1.1164 -2.9434
  907SOL    HW2 2721   1.318   2.860   1.009  1.3018  1.6739  0.7014
  908SOL     OW 2722   1.816   2.171   2.418  0.8205  0.2964 -0.2020
  908SOL    HW1 2723   1.726   2.210   2.396  2.0922 -0.0280  0.6945
  908SOL    HW2 2724   1.882   2.198   2.346 -0.9383  4.3492  0.6736
  909SOL     OW 2725   2.194   0.181   2.036  0.0091 -0.2072 -0.0179
  909SOL    HW1 2726   2.180   0.182   2.137  1.1816 -0.6886 -2.3295
  909SOL    HW2 2727   2.105   0.204   1.987  1.8229 -0.3573 -2.8032
  910SOL     OW 2728   0.939   0.701   2.804 -0.6816 -0.3023 -0.6473
  910SOL    HW1 2729   0.994   0.693   2.889 -1.2839  0.5178  1.3209
  910SOL    HW2 2730   1.000   0.712   2.721  1.1453  2.1058 -1.2014
  911SOL     OW 2731   0.098   0.925   0.259  0.5444 -0.2233  0.0507
  911SOL    HW1 2732   0.080   1.000   0.187  0.7522 -2.0567 -1.1687
  911SOL    HW2 2733   0.002   0.898   0.299 -1.9909 -2.0249  2.3394
  912SOL     OW 2734   0.232   2.334   0.481 -0.2799  0.1765 -0.2596
  912SOL    HW1 2735   0.188   2.260   0.532 -1.4533 -1.5474  0.8773
  912SOL    HW2 2736   0.332   2.340   0.502  0.3241  1.5963 -1.7893
  913SOL     OW 2737   2.642   2.252   2.222  0.2709 -0.3127 -0.5129
  913SOL    HW1 2738   2.700   2.238   2.307  0.2282  1.0165  1.5385
  913SOL    HW2 2739   2.705   2.241   2.141  2.8700  1.1012  2.0147
  914SOL     OW 2740   1.303   1.979   1.513 -0.0251  0.2134  0.1928
  914SOL    HW1 2741   1.280   1.990   1.412  0.1551  0.6209 -0.0123
  914SOL    HW2 2742   1.325   1.876   1.520  1.3266 -0.6668  0.7443
  915SOL     OW 2743   0.336   2.775   2.135 -0.1606  0.3152  0.0075
  915SOL    HW1 2744   0.416   2.731   2.091  1.0569  0.1136  0.0067
  915SOL    HW2 2745   0.330   2.875   2.134  0.0706  0.9799  3.3465
  916SOL     OW 2746   0.766   0.540   1.609 -0.4240 -0.1509  0.8200
  916SOL    HW1 2747   0.850   0.507   1.560  1.0661  0.1973  0.5263
  916SOL    HW2 2748   0.796   0.578   1.698  0.0376  0.2863 -0.3519
  917SOL     OW 2749   2.585   0.655   0.350 -0.0344 -0.2090  0.1260
  917SOL    HW1 2750   2.671   0.621   0.300  3.7663  0.0094 -1.1335
  917SOL    HW2 2751   2.505   0.608   0.314  0.8798  2.4825 -1.6153
  918SOL     OW 2752   1.715   2.137   2.849 -0.7222  0.1165  0.4248
  918SOL    HW1 2753   1.776   2.214   2.810  3.2692  5.7168  0.9447
  918SOL    HW2 2754   1.703   2.151   2.949 -0.5561 -1.7602  0.4804
  919SOL     OW 2755   1.568   2.528   1.349 -0.0908 -0.4710  0.5481
  919SOL    HW1 2756   1.588   2.503   1.253  0.2564 -0.9101 -0.9823
  919SOL    HW2 2757   1.651   2.572   1.388  1.5139  2.1756 -0.6644
  920SOL     OW 2758   0.728   0.565   2.688 -0.4376  0.2025 -0.2387
  920SOL    HW1 2759   0.647   0.545   2.754 -1.7776  1.7004  1.1242
  920SOL    HW2 2760   0.802   0.618   2.734 -1.2795 -0.8864 -0.0337
  921SOL     OW 2761   3.042   0.715   2.917 -0.8785  0.2078 -0.2064
  921SOL    HW1 2762   2.994   0.626   2.896 -1.0865 -0.5822 -1.0063
  921SOL    HW2 2763   0.018   0.711   3.007 -0.2242 -2.9227 -1.0868
  922SOL     OW 2764   0.300   2.109   1.066 -0.1812 -0.0840  0.2465
  922SOL    HW1 2765   0.323   2.020   1.022 -1.4340  1.4671 -0.6068
  922SOL    HW2 2766   0.386   2.166   1.068  1.3305 -0.2882 -2.0983
  923SOL     OW 2767   0.583   1.436   1.615  0.0144  0.0379 -0.1956
  923SOL    HW1 2768   0.595   1.434   1.514 -1.4737 -0.9399  3.3735
  923SOL    HW2 2769   0.669   1.420   1.670 -0.9597 -3.6334  1.5489
  924SOL     OW 2770   1.519   2.753   2.961 -0.7051  0.0195  0.1189
  924SOL    HW1 2771   1.477   2.665   2.984  1.6797 -0.4837 -1.8250
  924SOL    HW2 2772   1.550   2.805   3.046  2.6623 -2.1667  1.8017
  925SOL     OW 2773   2.713   1.375   0.834 -0.1371  0.2977  0.4152
  925SOL    HW1 2774   2.668   1.289   0.860 -0.2117 -0.6497 -0.9785
  925SOL    HW2 2775   2.742   1.430   0.911 -1.3007 -2.0186 -2.3526
  926SOL     OW 2776   2.028   0.492   1.434  0.3843  0.2507  0.1288
  926SOL    HW1 2777   2.113   0.529   1.389 -0.4796 -1.2621 -1.7080
  926SOL    HW2 2778   1.978   0.426   1.367 -1.3328 -0.1902 -3.8935
  927SOL     OW 2779   1.952   2.979   1.214  0.0793 -0.1652 -0.0708
  927SOL    HW1 2780   2.010   3.054   1.178 -2.0121 -0.2045  1.3956
  927SOL    HW2 2781   1.881   2.954   1.149  0.3646 -0.9646  2.1180
  928SOL     OW 2782   0.284   1.026   2.259  0.4200  0.1748 -0.5145
  928SOL    HW1 2783   0.373   1.048   2.216 -1.6961  1.4081 -0.2933
  928SOL    HW2 2784   0.286   0.940   2.316  1.9337 -0.2216  0.7549
  929SOL     OW 2785   2.301   0.832   1.455  0.5408  0.1703 -0.3041
  929SOL    HW1 2786   2.221   0.894   1.459  0.7447  0.2695 -2.1056
  929SOL    HW2 2787   2.382   0.880   1.422  0.0775 -1.2885  0.0835
  930SOL     OW 2788   2.852   2.562   1.790 -0.1398  0.2694  0.2940
  930SOL    HW1 2789   2.851   2.599   1.884 -1.2487 -3.7177 -0.3468
  930SOL    HW2 2790   2.937   2.578   1.739 -2.1415 -1.8227  2.3227
  931SOL     OW 2791   1.489   0.963   1.229  0.0810  0.0194 -0.1998
  931SOL    HW1 2792   1.542   0.958   1.316 -0.8530  3.0499  0.5946
  931SOL    HW2 2793   1.542   1.014   1.160 -1.2822  2.2811  2.4762
  932SOL     OW 2794   0.429   1.239   1.723 -0.4280  0.0188 -0.2980
  932SOL    HW1 2795   0.353   1.260   1.789  2.5536  2.1584 -1.7748
  932SOL    HW2 2796   0.460   1.326   1.673 -1.6757  2.6116  1.9256
  933SOL     OW 2797   2.491   1.889   1.679  0.5011  0.1081  0.2068
  933SOL    HW1 2798   2.512   1.976   1.631 -0.9164 -0.2223  2.5027
  933SOL    HW2 2799   2.437   1.831   1.614 -0.1376 -0.2683  1.2313
  934SOL     OW 2800   0.561   2.059   1.780 -0.4202  0.0002 -0.1446
  934SOL    HW1 2801   0.573   1.963   1.751  3.6135  3.4631  0.8018
  934SOL    HW2 2802   0.559   2.118   1.690  0.2547  2.3819 -3.4539
  935SOL     OW 2803   2.594   1.484   1.581 -0.3195  0.0244  0.3678
  935SOL    HW1 2804   2.509   1.432   1.558 -2.3370  1.7405 -1.9880
  935SOL    HW2 2805   2.667   1.465   1.506  1.9450 -2.5383 -1.5349
  936SOL     OW 2806   2.781   1.415   1.402 -0.0476  0.2243  0.1969
  936SOL    HW1 2807   2.753   1.322   1.368  1.6497 -2.4618  1.3344
  936SOL    HW2 2808   2.867   1.445   1.359 -0.9412 -1.3644 -0.1559
  937SOL     OW 2809   1.878   0.316   1.284 -0.3668 -0.1167  0.0003
  937SOL    HW1 2810   1.930   0.257   1.218 -0.6181  0.4454  2.0358
  937SOL    HW2 2811   1.798   0.263   1.317 -0.7658 -1.0255 -0.8816
  938SOL     OW 2812   0.505   2.799   0.150 -0.0751 -0.0811  0.1837
  938SOL    HW1 2813   0.478   2.867   0.225  0.3896 -1.9665  1.1773
  938SOL    HW2 2814   0.438   2.802   0.077  2.2040  2.8100  1.5765
  939SOL     OW 2815   2.791   2.186   2.439  0.3784  0.3424 -0.5170
  939SOL    HW1 2816   2.865   2.161   2.373 -0.1787 -1.2627  0.2140
  939SOL    HW2 2817   2.765   2.103   2.495 -0.8626 -2.4169 -0.2165
  940SOL     OW 2818   1.518   1.955   0.553  0.2786 -0.5188 -0.8646
  940SOL    HW1 2819   1.441   2.013   0.523  0.0164 -2.4919  0.3928
  940SOL    HW2 2820   1.585   1.963   0.480 -1.4815 -0.9984  0.0979
  941SOL     OW 2821   2.181   2.570   0.032 -0.7134  0.3673  0.0242
  941SOL    HW1 2822   2.166   2.522   0.116 -1.7676  0.8435  1.5044
  941SOL    HW2 2823   2.249   2.646   0.048  0.1188 -0.8809 -0.0767
  942SOL     OW 2824   1.864   2.295   1.291 -0.2277 -0.3273  0.0417
  942SOL    HW1 2825   1.822   2.338   1.209  1.3702 -0.1446  2.1982
  942SOL    HW2 2826   1.937   2.353   1.328  0.3811 -0.1947 -0.7004
  943SOL     OW 2827   2.110   0.981   1.762 -0.2731 -0.0212  0.8824
  943SOL    HW1 2828   2.123   0.974   1.663 -0.0737  4.9319  1.6461
  943SOL    HW2 2829   2.200   0.981   1.809 -3.5387 -2.7056  1.0574
  944SOL     OW 2830   1.296   0.687   2.114 -0.2634 -0.2022  0.7654
  944SOL    HW1 2831   1.330   0.677   2.206 -3.2926  3.9802 -1.8043
  944SOL    HW2 2832   1.244   0.608   2.091  1.1543  1.0013  0.3162
  945SOL     OW 2833   2.496   2.375   1.330 -0.1596  0.8769 -0.3935
  945SOL    HW1 2834   2.575   2.397   1.387  0.3623  1.6490  0.1681
  945SOL    HW2 2835   2.414   2.335   1.381  0.5934 -0.3338  0.4039
  946SOL     OW 2836   0.242   0.829   0.661 -0.6078  0.4941  0.1071
  946SOL    HW1 2837   0.244   0.866   0.757  1.8624 -1.7713 -0.1528
  946SOL    HW2 2838   0.271   0.732   0.650 -1.0036 -2.2092 -0.5268
  947SOL     OW 2839   1.895   2.998   1.766 -0.2481 -0.3178 -0.0867
  947SOL    HW1 2840   1.833   2.934   1.714  0.8815  0.8131  0.2466
  947SOL    HW2 2841   1.901   0.014   1.714 -0.0952 -0.5324 -0.5699
  948SOL     OW 2842   0.266   1.713   0.771  0.1171  0.2721  0.8012
  948SOL    HW1 2843   0.307   1.670   0.689 -0.8133 -1.8026  0.9689
  948SOL    HW2 2844   0.191   1.660   0.823 -0.3648 -3.7128  1.0307
  949SOL     OW 2845   1.105   1.201   1.413  0.3538  0.1154 -0.6269
  949SOL    HW1 2846   1.153   1.154   1.333  1.6062  0.3933  1.0863
  949SOL    HW2 2847   1.109   1.133   1.489  0.2079 -0.5180  0.3235
  950SOL     OW 2848   0.351   0.988   1.127 -0.3328 -0.4622 -0.3027
  950SOL    HW1 2849   0.330   0.922   1.204  0.4386 -1.2281  3.0348
  950SOL    HW2 2850   0.455   0.984   1.118 -1.3281 -1.0445  4.1492
  951SOL     OW 2851   0.698   2.090   2.253  0.2869 -0.1266  0.1330
  951SOL    HW1 2852   0.621   2.151   2.263  1.6308  0.4862 -2.4109
  951SOL    HW2 2853   0.726   2.093   2.153 -3.1549  1.5627 -0.2269
  952SOL     OW 2854   1.385   1.510   0.140  0.1762  0.3845 -0.4962
  952SOL    HW1 2855   1.472   1.494   0.189 -1.8638  0.4685  0.7475
  952SOL    HW2 2856   1.393   1.567   0.054 -0.0326 -3.2254 -0.5509
  953SOL     OW 2857   1.242   0.097   0.052 -0.2622 -0.3159  0.2730
  953SOL    HW1 2858   1.284   0.161   3.061 -0.7385 -1.9716 -0.0405
  953SOL    HW2 2859   1.146   0.121   0.068  3.6754 -0.0189  0.7781
  954SOL     OW 2860   1.818   1.236   0.268 -0.4863 -0.2456 -0.8676
  954SOL    HW1 2861   1.802   1.153   0.210 -2.8055  0.0547 -0.5761
  954SOL    HW2 2862   1.820   1.202   0.367  0.4335 -2.8364 -0.7759
  955SOL     OW 2863   0.038   2.786   0.054 -0.2121  0.5422 -0.5059
  955SOL    HW1 2864   3.047   2.835   3.064  0.8114 -0.3630  0.4234
  955SOL    HW2 2865   0.087   2.715   0.004 -0.4932 -1.8765 -0.9031
  956SOL     OW 2866   1.072   0.798   1.382 -0.0018 -0.4376 -0.2957
  956SOL    HW1 2867   1.128   0.877   1.345  0.2842 -3.1543  0.0364
  956SOL    HW2 2868   1.089   0.712   1.325 -1.6650 -1.0654 -0.9699
  957SOL     OW 2869   1.062   1.414   1.066  0.7443 -0.0191  0.0893
  957SOL    HW1 2870   0.992   1.340   1.065  0.2038  2.2366  1.1433
  957SOL    HW2 2871   1.090   1.440   0.968  2.2064 -0.7162  0.2179
  958SOL     OW 2872   0.692   1.792   0.777 -0.0006 -0.4107 -0.1947
  958SOL    HW1 2873   0.656   1.806   0.875 -0.0361 -1.2507  2.8626
  958SOL    HW2 2874   0.665   1.873   0.722 -2.1198 -2.1037 -1.3651
  959SOL     OW 2875   1.514   1.320   0.927 -0.1387  0.9522  0.5324
  959SOL    HW1 2876   1.529   1.402   0.871 -1.0406 -2.3527  2.8905
  959SOL    HW2 2877   1.438   1.337   0.998 -0.5459  0.6946  2.2520
  960SOL     OW 2878   0.103   1.121   2.898  0.0819  0.2522 -0.1850
  960SOL    HW1 2879   0.039   1.165   2.834 -0.2933  0.3548  0.6333
  960SOL    HW2 2880   0.124   1.024   2.875 -1.4394 -1.0749 -4.0487
  961SOL     OW 2881   0.563   1.488   1.022  0.1000  0.0945  0.0861
  961SOL    HW1 2882   0.464   1.464   1.029 -0.7921 -1.1899 -0.2286
  961SOL    HW2 2883   0.589   1.497   0.925  0.3991 -0.5187 -0.1426
  962SOL     OW 2884   0.900   0.933   0.690  0.5801  0.2618 -0.0036
  962SOL    HW1 2885   0.973   1.005   0.701  0.9529  0.6302  1.1518
  962SOL    HW2 2886   0.806   0.964   0.722 -1.1997  2.4116 -0.2351
  963SOL     OW 2887   1.483   1.780   2.613  0.6574  0.1592 -0.0844
  963SOL    HW1 2888   1.522   1.868   2.641 -1.1765 -2.1156 -1.6185
  963SOL    HW2 2889   1.553   1.710   2.609 -1.6172  0.3654  0.5186
  964SOL     OW 2890   0.426   2.530   2.845 -0.1450 -0.4658 -0.5303
  964SOL    HW1 2891   0.510   2.585   2.838 -1.1064 -2.0113 -1.3994
  964SOL    HW2 2892   0.358   2.544   2.770 -1.4091 -0.6155  0.5365
  965SOL     OW 2893   0.617   2.274   0.188 -0.1630 -0.1308  0.3025
  965SOL    HW1 2894   0.626   2.374   0.176 -1.0546  0.8614  1.4781
  965SOL    HW2 2895   0.569   2.241   0.101  1.5370 -1.4185  0.2186
  966SOL     OW 2896   3.063   1.810   2.858  0.1869  0.2103  0.1250
  966SOL    HW1 2897   0.089   1.818   2.837 -1.6277  0.4746 -1.2738
  966SOL    HW2 2898   3.010   1.830   2.774  0.3912  1.1878  1.4587
  967SOL     OW 2899   2.326   0.018   2.754 -0.2523 -0.1341 -0.0519
  967SOL    HW1 2900   2.256   3.059   2.688 -0.4822 -0.1814  0.3039
  967SOL    HW2 2901   2.310   0.115   2.784  0.1947 -1.6805 -2.5379
  968SOL     OW 2902   2.216   0.022   0.389  0.3227 -0.0843 -0.1385
  968SOL    HW1 2903   2.204   0.000   0.486 -0.7399 -0.7544 -1.3921
  968SOL    HW2 2904   2.304   0.067   0.362  0.8928  1.8837 -1.9471
  969SOL     OW 2905   0.370   1.486   2.083 -0.5146  0.5414 -0.2230
  969SOL    HW1 2906   0.323   1.417   2.027 -1.6567  0.1636  3.8321
  969SOL    HW2 2907   0.419   1.440   2.163 -0.7037  1.1715  1.1821
  970SOL     OW 2908   1.521   1.541   0.756  0.5973 -0.6654 -0.5483
  970SOL    HW1 2909   1.599   1.599   0.732 -1.4976 -0.8954 -0.9233
  970SOL    HW2 2910   1.508   1.469   0.683 -1.4950  1.6688  2.9409
  971SOL     OW 2911   2.498   0.105   1.086 -0.0210 -0.4496  0.0510
  971SOL    HW1 2912   2.423   0.052   1.132  0.7725 -0.3253  1.2557
  971SOL    HW2 2913   2.473   0.195   1.038  1.0538  1.5553 -0.6724
  972SOL     OW 2914   0.334   2.876   1.447  0.4535 -0.0861 -0.5037
  972SOL    HW1 2915   0.296   2.793   1.497  0.8737 -1.5140  2.5634
  972SOL    HW2 2916   0.387   2.932   1.518  0.1353  0.3286  1.5789
  973SOL     OW 2917   0.604   0.204   2.796 -0.2081 -0.0027  0.3102
  973SOL    HW1 2918   0.641   0.291   2.839  1.2852  4.2696  2.1859
  973SOL    HW2 2919   0.501   0.208   2.790  0.6987  1.2379  0.2542
  974SOL     OW 2920   2.225   1.291   2.040 -0.4769  0.9874  0.5391
  974SOL    HW1 2921   2.131   1.268   2.007 -2.1594 -0.3506 -0.7460
  974SOL    HW2 2922   2.249   1.230   2.116 -1.8975  0.0216 -1.0351
  975SOL     OW 2923   0.279   0.204   1.119  0.2448  0.1077 -0.3590
  975SOL    HW1 2924   0.366   0.196   1.175  1.3182 -1.7591 -0.5982
  975SOL    HW2 2925   0.232   0.118   1.108  0.8583  0.8438  0.7825
  976SOL     OW 2926   0.909   1.940   2.410  0.3116 -0.2886 -0.0435
  976SOL    HW1 2927   0.845   1.907   2.485 -3.0763 -1.4248  0.5677
  976SOL    HW2 2928   0.848   1.985   2.344 -1.0046 -1.0471 -1.7308
  977SOL     OW 2929   1.043   2.478   0.698 -0.1797 -0.0285 -0.1813
  977SOL    HW1 2930   0.984   2.502   0.780  0.7911  1.2245  1.0077
  977SOL    HW2 2931   0.989   2.498   0.612 -0.1937 -2.0660  2.1795
  978SOL     OW 2932   2.980   1.248   2.102 -0.2494  0.1646 -0.2765
  978SOL    HW1 2933   2.895   1.195   2.097  0.4124  0.4283  0.0881
  978SOL    HW2 2934   2.984   1.300   2.186 -2.2107  1.0510 -3.5744
  979SOL     OW 2935   1.751   2.841   1.621  0.4808  0.2672 -0.2451
  979SOL    HW1 2936   1.758   2.779   1.543 -2.6436  0.7297  3.0307
  979SOL    HW2 2937   1.675   2.803   1.677  2.5282  0.2548  1.2189
  980SOL     OW 2938   1.279   1.558   2.190 -0.0566  0.1778 -0.5812
  980SOL    HW1 2939   1.209   1.496   2.235  1.5424  1.2018  1.8332
  980SOL    HW2 2940   1.315   1.623   2.258 -1.0652  0.7765  1.1805
  981SOL     OW 2941   2.470   0.247   1.633  0.1483  0.1236 -0.0535
  981SOL    HW1 2942   2.393   0.254   1.702 -0.6441  0.4066  0.8594
  981SOL    HW2 2943   2.528   0.333   1.627 -1.8710  2.1472 -2.2742
  982SOL     OW 2944   0.347   0.332   2.612 -0.0364  0.4049 -0.1875
  982SOL    HW1 2945   0.344   0.304   2.710 -2.0777 -1.9136  3.4625
  982SOL    HW2 2946   0.441   0.319   2.573  2.5876  0.0631  1.2343
  983SOL     OW 2947   2.531   0.749   2.474  0.5603 -0.2475  0.4864
  983SOL    HW1 2948   2.461   0.826   2.473  0.7645  1.8394 -1.6585
  983SOL    HW2 2949   2.518   0.678   2.401 -0.1273 -0.9281 -1.6407
  984SOL     OW 2950   1.029   3.033   2.084 -0.0030  0.2702  0.4110
  984SOL    HW1 2951   1.101   3.032   2.158  2.4967 -0.0463  0.5386
  984SOL    HW2 2952   0.977   2.947   2.073  1.2180  1.2808  0.6526
  985SOL     OW 2953   2.051   1.568   1.790 -0.5952 -0.2622  0.1023
  985SOL    HW1 2954   1.961   1.552   1.837  2.0287 -1.0099  0.4557
  985SOL    HW2 2955   2.132   1.574   1.856 -1.9870  2.3322  3.5540
  986SOL     OW 2956   2.504   0.726   1.613 -0.2093  0.0301  0.2983
  986SOL    HW1 2957   2.598   0.761   1.597  3.9369  0.6868  1.2613
  986SOL    HW2 2958   2.445   0.729   1.529 -2.0487  0.7833 -2.4663
  987SOL     OW 2959   2.536   0.946   1.324 -0.3521  0.0216 -0.3828
  987SOL    HW1 2960   2.621   0.928   1.385  4.5839  1.3097  3.8889
  987SOL    HW2 2961   2.543   0.902   1.232 -2.4720  1.1387  1.5759
  988SOL     OW 2962   0.138   1.092   2.044 -0.5205 -0.4277  0.3376
  988SOL    HW1 2963   0.067   1.152   2.080 -1.7128 -1.8299  1.6032
  988SOL    HW2 2964   0.194   1.053   2.116  0.1327  3.6203  1.7184
  989SOL     OW 2965   1.881   1.690   0.427 -0.1976  0.0405 -0.1908
  989SOL    HW1 2966   1.900   1.773   0.372  0.7489 -0.4614  3.5566
  989SOL    HW2 2967   1.785   1.656   0.404 -0.6427  1.3287 -1.7362
  990SOL     OW 2968   0.793   0.430   2.238 -0.2940 -0.2112 -0.1324
  990SOL    HW1 2969   0.839   0.468   2.326 -0.7053  0.4829  3.2079
  990SOL    HW2 2970   0.859   0.408   2.161  1.5106 -1.0317  0.4091
  991SOL     OW 2971   1.470   1.344   0.569  0.5239 -0.1982 -0.4716
  991SOL    HW1 2972   1.526   1.262   0.570 -1.6920  1.8972 -1.8264
  991SOL    HW2 2973   1.390   1.331   0.510  0.7630 -0.8347 -2.4067
  992SOL     OW 2974   2.105   1.003   0.533 -0.2036  0.0680  0.3108
  992SOL    HW1 2975   2.192   1.036   0.577 -2.0287 -2.7044  0.6651
  992SOL    HW2 2976   2.033   0.988   0.603 -0.1369  0.6055  0.1701
  993SOL     OW 2977   2.955   0.961   0.748  0.0968 -0.1303 -0.0281
  993SOL    HW1 2978   2.980   0.960   0.848 -2.5899  1.4634 -2.0207
  993SOL    HW2 2979   2.992   0.884   0.690 -1.2385 -2.2165 -1.9733
  994SOL     OW 2980   0.238   2.162   2.435 -0.0929 -0.4771 -0.2524
  994SOL    HW1 2981   0.198   2.114   2.352 -1.6118 -0.2078 -1.4776
  994SOL    HW2 2982   0.240   2.104   2.520 -2.4654 -2.5613  0.1210
  995SOL     OW 2983   1.744   1.194   2.612  0.2060 -0.0470 -0.5133
  995SOL    HW1 2984   1.651   1.168   2.582  1.3670 -2.2225 -0.9238
  995SOL    HW2 2985   1.757   1.154   2.702 -2.1457 -0.1176 -0.5973
  996SOL     OW 2986   2.518   1.189   0.315  0.2226  0.2058  0.8615
  996SOL    HW1 2987   2.460   1.247   0.259 -1.1294 -1.3776 -1.1900
  996SOL    HW2 2988   2.507   1.091   0.278  0.6370 -2.5563  0.7529
  997SOL     OW 2989   2.003   1.200   1.889 -0.1784 -0.1185  0.4224
  997SOL    HW1 2990   2.021   1.104   1.854 -3.8745  0.2518  0.7132
  997SOL    HW2 2991   1.977   1.195   1.987  1.2406 -1.9376  1.0811
  998SOL     OW 2992   2.642   2.095   0.204 -0.0217 -0.3945 -0.7970
  998SOL    HW1 2993   2.559   2.147   0.168 -0.2124  1.9122  1.3006
  998SOL    HW2 2994   2.703   2.063   0.129 -1.9846  0.2406  0.2987
  999SOL     OW 2995   2.947   2.292   0.035 -0.6288  0.1314 -0.1130
  999SOL    HW1 2996   2.895   2.213   0.004  0.2485 -0.2125  2.5231
  999SOL    HW2 2997   2.925   2.307   0.131  0.5985  0.4884 -1.5701
 1000SOL     OW 2998   0.990   0.978   2.219  0.3231 -0.2968  0.2353
 1000SOL    HW1 2999   1.003   0.943   2.315  0.4043  0.8264  3.5610
 1000SOL    HW2 3000   1.078   0.984   2.175  2.5805  0.6848 -0.5185
   3.07409   3.07409   3.07409
