1000 SPC/Fw water molecules t=  49.00000 step= 49000
 3000
    1SOL     OW    1   2.168   2.947   0.744 -0.0501  0.0843  0.3950
    1SOL    HW1    2   2.078   2.981   0.717 -0.4137  0.3237  0.4055
    1SOL    HW2    3   2.202   2.988   0.825  1.6665  0.7730 -0.7850
    2SOL     OW    4   1.315   0.801   2.276  0.4152 -0.4418  0.6218
    2SOL    HW1    5   1.405   0.754   2.288 -2.5152  1.1132 -0.7208
    2SOL    HW2    6   1.300   0.885   2.340 -0.1018  1.1681  1.0132
    3SOL     OW    7   0.984   2.731   2.717  0.0351  0.0166  0.3145
    3SOL    HW1    8   1.080   2.734   2.755 -2.4502  1.0718  1.7411
    3SOL    HW2    9   0.940   2.652   2.757 -1.8428 -0.9593  0.1618
    4SOL     OW   10   1.248   1.506   2.863 -0.1505 -0.2211 -0.1306
    4SOL    HW1   11   1.295   1.417   2.888  0.3431  3.1033  1.4594
    4SOL    HW2   12   1.275   1.577   2.926  1.2411 -1.4142 -0.6239
    5SOL     OW   13   0.851   0.847   2.136 -0.2135 -0.0090  0.7906
    5SOL    HW1   14   0.885   0.749   2.126 -0.1197  2.1028  0.3059
    5SOL    HW2   15   0.913   0.893   2.201  0.4751  0.1505 -2.0296
    6SOL     OW   16   2.114   0.729   2.478  0.1014  0.1759 -0.3800
    6SOL    HW1   17   2.190   0.727   2.413 -3.5015 -0.5997 -1.3947
    6SOL    HW2   18   2.137   0.690   2.568 -2.0321  2.0810 -0.1069
    7SOL     OW   19   0.469   0.872   1.750 -0.2170 -0.2949 -0.3202
    7SOL    HW1   20   0.519   0.853   1.664 -1.2351  1.3295  3.3282
    7SOL    HW2   21   0.450   0.780   1.792  1.3266  0.7323  1.8379
    8SOL     OW   22   1.876   2.896   1.860  0.0666 -0.5780  0.0688
    8SOL    HW1   23   1.799   2.833   1.825 -4.4299 -0.8464 -0.5365
    8SOL    HW2   24   1.830   2.988   1.871 -2.0371 -2.2693 -0.4187
    9SOL     OW   25   0.317   2.902   0.634 -0.0421 -0.2765  0.8483
    9SOL    HW1   26   0.400   2.950   0.609  1.3714  0.1152  1.3047
    9SOL    HW2   27   0.230   2.959   0.627  0.5966 -0.1226  0.1706
   10SOL     OW   28   0.157   2.307   2.512  0.3075 -0.1108  0.2170
   10SOL    HW1   29   0.098   2.225   2.489  1.0087 -3.7186 -0.8059
   10SOL    HW2   30   0.214   2.301   2.596  0.1818  1.5227 -0.5101
   11SOL     OW   31   0.739   1.558   2.856 -0.2293 -0.1286 -0.1568
   11SOL    HW1   32   0.683   1.481   2.823  1.2789 -1.2818 -0.2307
   11SOL    HW2   33   0.824   1.512   2.904  3.7065 -1.1452  2.5511
   12SOL     OW   34   2.427   2.482   1.329 -0.3066  0.4170  0.0321
   12SOL    HW1   35   2.395   2.403   1.271  0.0694 -2.9476 -0.7700
   12SOL    HW2   36   2.350   2.527   1.380  0.2530 -0.1666 -1.2308
   13SOL     OW   37   0.520   2.825   2.952 -0.4656 -0.1347 -0.4072
   13SOL    HW1   38   0.543   2.911   3.008  1.8982  3.0343  2.8125
   13SOL    HW2   39   0.535   2.743   3.007  1.6176 -0.2020 -2.0887
   14SOL     OW   40   1.250   1.679   1.472  0.5337  0.5518  0.0856
   14SOL    HW1   41   1.181   1.734   1.524  0.8185  0.3432  2.0716
   14SOL    HW2   42   1.318   1.640   1.536 -1.5422 -1.2038  1.8622
   15SOL     OW   43   0.252   1.640   2.306  0.0328  0.1506  0.6736
   15SOL    HW1   44   0.303   1.694   2.231  0.0220  1.4567 -0.2142
   15SOL    HW2   45   0.221   1.551   2.272  1.3733  0.6716  2.1020
   16SOL     OW   46   1.658   0.607   2.749  0.6575 -0.1336  0.1989
   16SOL    HW1   47   1.578   0.550   2.785 -1.5229  0.1946  2.6776
   16SOL    HW2   48   1.635   0.703   2.723 -0.1239  2.4001  0.0186
   17SOL     OW   49   3.032   2.881   2.392 -0.5111  0.6115 -0.4133
   17SOL    HW1   50   2.978   2.794   2.366 -2.0076 -0.6422 -0.4488
   17SOL    HW2   51   0.035   2.854   2.433  0.3659 -2.3255  2.1155
   18SOL     OW   52   1.155   1.070   0.566 -0.4807  0.7175  0.2920
   18SOL    HW1   53   1.211   1.144   0.521 -1.1559  1.1036  0.4351
   18SOL    HW2   54   1.084   1.106   0.625  1.6759 -0.2489 -0.4771
   19SOL     OW   55   2.976   1.763   2.357  0.2423  0.5759 -0.0552
   19SOL    HW1   56   3.030   1.821   2.293 -2.1557 -1.6681 -0.2981
   19SOL    HW2   57   3.034   1.740   2.436  1.9099  0.6783 -1.5262
   20SOL     OW   58   2.364   2.320   2.530  0.1926 -0.5744  0.2050
   20SOL    HW1   59   2.386   2.396   2.465 -1.7938 -1.1498 -0.7794
   20SOL    HW2   60   2.303   2.253   2.485  3.0316  2.6229 -0.1866
   21SOL     OW   61   1.829   1.984   0.511  1.1081 -0.0750 -0.0396
   21SOL    HW1   62   1.744   2.034   0.547 -0.4094  2.0168  2.1360
   21SOL    HW2   63   1.907   1.996   0.572  0.5890 -2.3686 -0.9423
   22SOL     OW   64   2.309   2.015   1.162  0.1590 -0.2523  0.0815
   22SOL    HW1   65   2.403   1.974   1.131  5.9698  0.3518  0.3392
   22SOL    HW2   66   2.242   1.994   1.087 -0.3147 -2.1138 -3.3976
   23SOL     OW   67   0.008   1.144   1.365 -0.0732 -0.6893  0.0573
   23SOL    HW1   68   0.079   1.221   1.385  0.7778  0.6759  0.9063
   23SOL    HW2   69   0.002   1.133   1.262  3.0059  0.6601 -1.2564
   24SOL     OW   70   2.123   1.366   1.973  0.4235  0.1553 -0.0857
   24SOL    HW1   71   2.164   1.457   1.954 -0.4045 -0.2781 -1.4203
   24SOL    HW2   72   2.162   1.336   2.062 -0.3463  0.5652  0.8945
   25SOL     OW   73   1.881   3.049   2.371 -0.2204  0.3821 -0.0303
   25SOL    HW1   74   1.910   3.008   2.460 -1.7324  2.6405  1.0790
   25SOL    HW2   75   1.928   3.013   2.287  2.1083  0.5649  0.5240
   26SOL     OW   76   0.741   0.244   0.319  0.5481 -0.2244 -0.2770
   26SOL    HW1   77   0.657   0.198   0.287 -0.2300  0.1842 -0.5986
   26SOL    HW2   78   0.772   0.312   0.249  1.7003  1.1586  1.8336
   27SOL     OW   79   0.648   1.463   0.794 -0.2613 -1.0494 -0.4674
   27SOL    HW1   80   0.665   1.467   0.690 -1.6283 -0.5098 -1.2207
   27SOL    HW2   81   0.621   1.556   0.832 -0.8454  2.0370  1.0299
   28SOL     OW   82   2.246   2.261   0.920 -0.2395  0.6154  0.2255
   28SOL    HW1   83   2.252   2.306   1.010  0.9448 -0.7046 -0.4011
   28SOL    HW2   84   2.313   2.304   0.857  3.1258  0.1859 -0.7932
   29SOL     OW   85   2.261   0.044   2.050 -0.0477  0.3165 -0.0757
   29SOL    HW1   86   2.263   0.102   1.966  1.9999 -5.3748  2.0833
   29SOL    HW2   87   2.349   0.002   2.062  1.3229  0.4550 -0.1552
   30SOL     OW   88   0.433   2.889   1.444  0.6543  0.2690 -0.4674
   30SOL    HW1   89   0.389   2.821   1.508 -2.1120  0.0002 -0.0323
   30SOL    HW2   90   0.364   2.913   1.368  0.1626  1.3365 -1.5090
   31SOL     OW   91   0.014   1.932   2.191  0.5632  0.1912  0.1408
   31SOL    HW1   92   3.049   2.021   2.170 -0.3670  1.8799  0.6271
   31SOL    HW2   93   0.002   1.872   2.110 -1.2312  4.4600 -0.5712
   32SOL     OW   94   1.444   2.333   2.252  0.0022  0.2321  0.2265
   32SOL    HW1   95   1.404   2.424   2.265  1.1645  1.0342  0.8498
   32SOL    HW2   96   1.503   2.303   2.329  4.9649 -0.8219  0.3876
   33SOL     OW   97   0.318   0.123   2.791  0.1563 -0.1192  0.3868
   33SOL    HW1   98   0.399   0.085   2.742 -1.5759  0.3195  2.1592
   33SOL    HW2   99   0.227   0.085   2.760 -0.5512 -2.9492 -3.4305
   34SOL     OW  100   2.532   0.026   0.208 -0.0675 -0.3365 -0.2812
   34SOL    HW1  101   2.576   0.026   0.301  0.5980  0.8077 -0.6736
   34SOL    HW2  102   2.528   0.114   0.166  1.6490 -4.7543  2.5215
   35SOL     OW  103   2.923   0.175   1.638  0.0408  0.5522 -0.2121
   35SOL    HW1  104   3.006   0.231   1.636  0.2739 -0.7163  3.6418
   35SOL    HW2  105   2.949   0.077   1.636 -1.9134  1.2151 -0.6178
   36SOL     OW  106   2.557   3.075   2.359 -0.1489 -0.3229  0.0119
   36SOL    HW1  107   2.611   0.008   2.449  1.9723  1.4491  2.4095
   36SOL    HW2  108   2.480   0.060   2.359 -2.3171  2.0153 -1.7079
   37SOL     OW  109   1.324   2.952   0.006  0.1441  0.1426 -0.8392
   37SOL    HW1  110   1.400   2.990   0.067  0.1174  0.9121 -0.5174
   37SOL    HW2  111   1.232   2.969   0.051  0.1138 -0.9493  2.7238
   38SOL     OW  112   0.012   0.740   0.047  0.1381  0.0513  0.2801
   38SOL    HW1  113   0.035   0.639   0.032  1.3586  1.4389  2.0982
   38SOL    HW2  114   0.094   0.792   0.071  0.7930 -1.0665  0.2577
   39SOL     OW  115   1.294   1.734   2.003  0.5314 -0.2776  0.4618
   39SOL    HW1  116   1.335   1.826   1.986 -0.4699 -0.6360  0.3573
   39SOL    HW2  117   1.262   1.740   2.101 -0.3802  0.0850  0.6118
   40SOL     OW  118   0.236   0.509   2.451  0.2291  0.3212 -0.5173
   40SOL    HW1  119   0.322   0.556   2.432 -1.2255 -1.6111 -3.5709
   40SOL    HW2  120   0.244   0.408   2.457 -0.7554  2.3486 -0.9416
   41SOL     OW  121   1.582   1.116   2.130 -0.3018 -0.1492 -0.0509
   41SOL    HW1  122   1.669   1.080   2.088  2.6738 -0.7475 -0.9015
   41SOL    HW2  123   1.597   1.120   2.228  2.6978  0.4270 -2.1663
   42SOL     OW  124   0.107   0.242   1.515 -0.5510  0.5522 -0.0673
   42SOL    HW1  125   0.101   0.341   1.522  0.5365 -4.0566 -2.0892
   42SOL    HW2  126   0.196   0.201   1.543  0.3873  0.5533 -0.4049
   43SOL     OW  127   1.317   1.352   1.745  0.1798 -0.7485  0.1909
   43SOL    HW1  128   1.420   1.352   1.742 -1.1786 -1.9853 -2.0310
   43SOL    HW2  129   1.276   1.260   1.768 -0.1435 -0.4737  0.6486
   44SOL     OW  130   3.008   0.160   2.920  0.1139 -0.1887 -1.0186
   44SOL    HW1  131   3.069   0.170   3.005  1.1870  1.6290  0.0746
   44SOL    HW2  132   2.999   0.061   2.896  3.0778 -0.7326 -1.2389
   45SOL     OW  133   0.295   2.107   1.554 -0.0130  0.2588  0.3872
   45SOL    HW1  134   0.272   2.163   1.470 -1.2247 -0.5063 -1.1258
   45SOL    HW2  135   0.371   2.042   1.531  2.6058 -0.3583  1.0290
   46SOL     OW  136   2.427   2.974   1.817 -0.1573 -0.1503  0.0537
   46SOL    HW1  137   2.481   3.046   1.867  2.6029 -2.2933 -2.5032
   46SOL    HW2  138   2.475   2.954   1.729  0.5551 -2.1968 -1.4841
   47SOL     OW  139   0.422   2.016   1.202 -0.5800 -0.6548  0.5233
   47SOL    HW1  140   0.511   1.976   1.229 -0.2071  1.8974 -0.4141
   47SOL    HW2  141   0.354   1.946   1.180  0.3358  2.4043  1.5580
   48SOL     OW  142   0.580   2.523   3.024 -0.7388  0.2741  0.5548
   48SOL    HW1  143   0.489   2.473   3.012 -0.3323 -1.2080  1.4363
   48SOL    HW2  144   0.640   2.472   0.008  0.6371 -0.6585  1.6897
   49SOL     OW  145   2.835   1.666   1.825 -0.1108 -0.1321 -0.2812
   49SOL    HW1  146   2.907   1.685   1.894  2.8097  2.7149  0.6453
   49SOL    HW2  147   2.801   1.572   1.832  0.4383  4.9066  3.1302
   50SOL     OW  148   1.479   3.022   0.713  0.3410 -0.0284  0.2246
   50SOL    HW1  149   1.548   0.015   0.701 -0.5151  0.0845  0.1262
   50SOL    HW2  150   1.474   2.988   0.806 -0.8666  0.2749 -2.0548
   51SOL     OW  151   1.044   0.080   1.260 -0.4748  0.6987  0.5248
   51SOL    HW1  152   0.972   0.106   1.324  0.5806  0.8420 -1.8355
   51SOL    HW2  153   1.023   0.110   1.160  0.2933  2.6873 -2.7571
   52SOL     OW  154   0.619   1.201   0.455  0.0222  0.5518 -0.4155
   52SOL    HW1  155   0.606   1.194   0.351  0.8160 -1.0499 -0.8726
   52SOL    HW2  156   0.647   1.106   0.487 -1.0124 -3.1915  0.8800
   53SOL     OW  157   1.510   3.072   2.506 -0.2047  0.3045  0.3722
   53SOL    HW1  158   1.532   3.076   2.404 -0.8928 -0.4394 -0.7846
   53SOL    HW2  159   1.511   2.977   2.547  1.0399 -2.0813  2.0091
   54SOL     OW  160   1.691   0.555   1.805 -0.0670 -0.1749  0.5791
   54SOL    HW1  161   1.690   0.605   1.711  1.7303  2.3843  0.4989
   54SOL    HW2  162   1.769   0.493   1.810  0.1061  5.0308 -0.7822
   55SOL     OW  163   2.979   2.503   0.631 -0.1857  0.0018  0.2123
   55SOL    HW1  164   3.032   2.591   0.650  0.8785  1.4283  0.3092
   55SOL    HW2  165   3.045   2.428   0.602  2.7595  0.7896 -0.5560
   56SOL     OW  166   0.963   2.860   1.719  0.3681  0.4308  0.1598
   56SOL    HW1  167   0.948   2.956   1.757 -1.0628  5.4005  0.2284
   56SOL    HW2  168   0.872   2.818   1.705 -0.4733  1.3106 -1.5802
   57SOL     OW  169   1.879   0.898   2.415  0.1266 -0.0487  0.0710
   57SOL    HW1  170   1.936   0.816   2.437 -2.2918 -0.7655 -0.3022
   57SOL    HW2  171   1.913   0.937   2.327  1.1832  0.3351  3.5356
   58SOL     OW  172   0.391   0.828   2.091  0.3397  0.4607 -1.2970
   58SOL    HW1  173   0.330   0.792   2.168 -0.1822  0.4249  1.6222
   58SOL    HW2  174   0.344   0.901   2.039 -2.7643 -3.6346 -0.3417
   59SOL     OW  175   0.860   2.514   1.930 -0.2856  0.1123 -0.3237
   59SOL    HW1  176   0.803   2.585   1.885  3.7097  1.3204  3.1515
   59SOL    HW2  177   0.947   2.497   1.875 -2.6383  0.7380 -1.0201
   60SOL     OW  178   2.400   2.469   0.338  0.9021  0.1179 -0.5305
   60SOL    HW1  179   2.489   2.514   0.347 -1.7848  0.5275 -0.6019
   60SOL    HW2  180   2.367   2.458   0.239  0.0868 -1.1269 -3.4680
   61SOL     OW  181   1.209   2.466   0.697  0.4778  0.2483 -0.3322
   61SOL    HW1  182   1.166   2.476   0.793 -2.4900  1.3707 -0.4628
   61SOL    HW2  183   1.251   2.555   0.668 -3.8270 -0.7215  1.2786
   62SOL     OW  184   1.455   2.772   2.922  0.2432 -0.4582 -0.1015
   62SOL    HW1  185   1.538   2.725   2.968  1.2965 -0.3103  0.0889
   62SOL    HW2  186   1.402   2.840   2.977  0.3955  1.3909 -1.3844
   63SOL     OW  187   2.243   0.621   0.068  0.1522  0.3451 -0.8333
   63SOL    HW1  188   2.247   0.681   0.152 -1.6996  2.2431  0.3682
   63SOL    HW2  189   2.328   0.630   0.015 -2.2279  0.7860  0.1590
   64SOL     OW  190   1.278   1.037   2.986 -0.6535 -0.7050 -0.2734
   64SOL    HW1  191   1.202   0.970   2.979 -2.8136 -1.1340  1.4349
   64SOL    HW2  192   1.297   1.067   3.081  1.5550 -3.0560  0.4837
   65SOL     OW  193   0.692   2.923   1.500 -0.3689  0.0165 -0.3711
   65SOL    HW1  194   0.736   2.834   1.500 -1.3524  4.1917  0.1993
   65SOL    HW2  195   0.598   2.913   1.460  0.4039 -0.1400  0.9823
   66SOL     OW  196   0.944   1.104   1.377 -0.3204 -0.6298  0.2205
   66SOL    HW1  197   0.998   1.128   1.292 -1.5508 -1.2680 -1.3312
   66SOL    HW2  198   0.939   1.003   1.402  1.1487  1.1136  0.6219
   67SOL     OW  199   2.157   2.222   1.822  0.4540  0.6559 -0.0528
   67SOL    HW1  200   2.219   2.261   1.892  3.2839 -0.2803 -2.6026
   67SOL    HW2  201   2.200   2.196   1.731  1.5446 -0.8519 -0.6048
   68SOL     OW  202   0.920   1.223   2.020  0.1128 -0.1221 -0.3309
   68SOL    HW1  203   0.821   1.190   2.020 -0.6269 -1.5418 -0.3683
   68SOL    HW2  204   0.940   1.275   1.932  0.0710  0.8765  0.7982
   69SOL     OW  205   2.699   2.652   0.296 -0.5789  0.7941 -0.3321
   69SOL    HW1  206   2.780   2.707   0.266  0.4686  1.2137  1.7699
   69SOL    HW2  207   2.667   2.682   0.386  0.0846 -2.5310  0.0729
   70SOL     OW  208   2.374   0.729   2.341  0.3322 -0.2001 -0.5673
   70SOL    HW1  209   2.432   0.801   2.387  0.9943  1.9401  0.3369
   70SOL    HW2  210   2.406   0.637   2.371  0.3664 -4.2406 -0.0797
   71SOL     OW  211   0.310   1.853   0.782 -0.0158  0.1052  0.2782
   71SOL    HW1  212   0.273   1.849   0.689  0.0658  0.4478  2.4155
   71SOL    HW2  213   0.240   1.876   0.852 -0.3666 -0.1146  0.4983
   72SOL     OW  214   2.524   1.941   0.613  0.8336  0.3760  0.2920
   72SOL    HW1  215   2.487   1.909   0.527 -0.5881  2.9670  3.3774
   72SOL    HW2  216   2.620   1.976   0.609 -0.9123 -0.3780 -2.6682
   73SOL     OW  217   1.090   0.432   0.500  0.1809  0.0687  0.0675
   73SOL    HW1  218   1.029   0.505   0.453 -0.1454 -1.0187  0.2216
   73SOL    HW2  219   1.155   0.481   0.555 -0.2653 -1.1566  2.6726
   74SOL     OW  220   2.521   2.285   1.905 -0.0992  0.3083 -0.4580
   74SOL    HW1  221   2.468   2.251   1.985  0.4218  1.3254  0.4799
   74SOL    HW2  222   2.529   2.385   1.901 -1.4987 -0.2234 -0.3747
   75SOL     OW  223   1.506   1.611   1.887  0.4840 -0.4578  0.1393
   75SOL    HW1  224   1.432   1.655   1.941  0.7647  1.3241  0.3626
   75SOL    HW2  225   1.553   1.541   1.945 -0.2065  0.3511 -0.3421
   76SOL     OW  226   1.104   1.810   1.071 -0.2995 -0.3434 -0.4758
   76SOL    HW1  227   1.188   1.792   1.124 -0.9156  3.6964  0.0651
   76SOL    HW2  228   1.024   1.754   1.109 -1.4497 -0.6204 -0.0977
   77SOL     OW  229   2.735   1.420   1.906 -0.3391 -0.1859 -0.2631
   77SOL    HW1  230   2.718   1.415   2.011 -1.5268 -0.3617  3.6000
   77SOL    HW2  231   2.769   1.334   1.867 -2.6464  1.3417 -1.1782
   78SOL     OW  232   1.697   0.720   0.338 -0.0821 -0.2863  0.2114
   78SOL    HW1  233   1.696   0.618   0.340  0.1653  1.5220 -1.9264
   78SOL    HW2  234   1.627   0.763   0.395 -0.0439 -2.0722 -0.0767
   79SOL     OW  235   1.617   1.363   2.003 -0.1859 -0.6530 -0.1231
   79SOL    HW1  236   1.717   1.360   2.011 -1.3959  2.9645  1.1395
   79SOL    HW2  237   1.577   1.286   2.052 -1.1930 -1.5606  0.5126
   80SOL     OW  238   0.997   0.426   1.646 -0.6742  0.3204  0.5723
   80SOL    HW1  239   1.050   0.348   1.597 -0.8435  2.3619 -3.3427
   80SOL    HW2  240   1.056   0.468   1.718  1.4445  0.2974  0.2522
   81SOL     OW  241   0.809   2.380   0.614  0.1115  0.5251 -0.0687
   81SOL    HW1  242   0.774   2.476   0.605 -2.9985  0.5030  0.5694
   81SOL    HW2  243   0.912   2.373   0.601  0.4476 -1.8110 -1.0426
   82SOL     OW  244   1.386   0.283   1.873 -0.6009  0.0700  0.0058
   82SOL    HW1  245   1.402   0.363   1.812  1.0948 -2.3807 -0.1328
   82SOL    HW2  246   1.423   0.303   1.965  0.4913 -0.9934 -0.8492
   83SOL     OW  247   0.362   2.234   0.613  0.0221  0.3162 -0.6060
   83SOL    HW1  248   0.435   2.295   0.643 -0.8724  2.7034 -1.7362
   83SOL    HW2  249   0.281   2.250   0.677 -0.8708  2.4175  0.9750
   84SOL     OW  250   2.622   1.409   0.183  0.0059 -0.0266 -0.2911
   84SOL    HW1  251   2.642   1.372   0.276 -1.3658  1.3035  0.2972
   84SOL    HW2  252   2.562   1.491   0.195 -0.7265 -1.2615  0.5595
   85SOL     OW  253   2.350   1.916   1.430 -0.1622 -0.1308  0.1873
   85SOL    HW1  254   2.338   1.961   1.343  0.2165 -2.5443  3.1732
   85SOL    HW2  255   2.438   1.958   1.468  1.3715  0.6606  1.7782
   86SOL     OW  256   1.359   2.388   1.179  0.2030 -0.1318  0.1966
   86SOL    HW1  257   1.435   2.402   1.113 -1.2855 -0.4971  1.7274
   86SOL    HW2  258   1.354   2.467   1.242  1.2068 -0.1105  2.0861
   87SOL     OW  259   2.398   1.527   0.492 -0.2327 -0.4427  0.4804
   87SOL    HW1  260   2.313   1.541   0.541  1.7533  0.5498 -2.3120
   87SOL    HW2  261   2.381   1.477   0.408  2.9568  1.9124 -1.8641
   88SOL     OW  262   0.884   0.047   1.027 -0.2913 -0.6567  0.2942
   88SOL    HW1  263   0.948   3.064   0.990  0.0001 -0.2186 -0.8840
   88SOL    HW2  264   0.855   0.106   0.951  0.1466 -0.5828  1.5089
   89SOL     OW  265   0.680   0.113   1.889 -0.3991 -0.2738  0.1615
   89SOL    HW1  266   0.682   0.211   1.866 -0.3084 -1.4494  0.3012
   89SOL    HW2  267   0.600   0.088   1.947 -0.8292 -0.8425 -1.0811
   90SOL     OW  268   0.009   1.962   0.921  0.0782  0.0344  0.5242
   90SOL    HW1  269   3.039   2.013   0.850  0.0549  0.3447 -2.2847
   90SOL    HW2  270   3.081   1.865   0.889  1.4453 -0.3193 -1.2273
   91SOL     OW  271   0.855   1.714   1.178  0.5878 -0.3111 -0.4455
   91SOL    HW1  272   0.753   1.721   1.156 -0.8061 -0.6887  0.1865
   91SOL    HW2  273   0.890   1.624   1.162  0.1573  3.9512 -0.9552
   92SOL     OW  274   2.595   2.950   1.604 -0.7212  0.0566  0.0782
   92SOL    HW1  275   2.630   3.043   1.638 -2.1646  3.3620 -0.0244
   92SOL    HW2  276   2.667   2.888   1.564 -0.1726 -0.5471  0.2867
   93SOL     OW  277   0.303   1.135   2.785  0.2269 -0.0665 -0.0967
   93SOL    HW1  278   0.400   1.166   2.791  0.8450  0.1635  0.5644
   93SOL    HW2  279   0.276   1.128   2.687 -1.7949 -0.5105 -0.3367
   94SOL     OW  280   2.595   0.054   1.974  0.5087  0.0019 -1.0017
   94SOL    HW1  281   2.561   0.104   2.057  1.1174  0.3247 -0.1951
   94SOL    HW2  282   2.681   0.095   1.939 -1.9720 -0.1379 -1.2337
   95SOL     OW  283   1.953   0.903   2.104 -0.6967 -0.1052 -0.0026
   95SOL    HW1  284   1.916   0.812   2.075 -2.4265  1.0199 -0.3224
   95SOL    HW2  285   1.928   0.979   2.043  1.3201 -2.6692  0.4893
   96SOL     OW  286   3.034   0.460   1.883 -0.3945  0.0169  0.2816
   96SOL    HW1  287   2.939   0.444   1.910  1.6340  0.7557  0.9580
   96SOL    HW2  288   3.073   0.549   1.912  0.9740 -2.7486  0.0897
   97SOL     OW  289   2.200   2.885   1.514 -0.5712 -0.2818 -0.2119
   97SOL    HW1  290   2.240   2.797   1.549 -1.0447  1.7130  2.7777
   97SOL    HW2  291   2.136   2.872   1.436  0.0078  4.5240  0.3016
   98SOL     OW  292   2.061   2.550   1.604  0.0033 -0.4080  0.0101
   98SOL    HW1  293   2.037   2.453   1.609  0.1175  3.7967  0.5880
   98SOL    HW2  294   2.064   2.595   1.696  2.0743 -0.0242 -1.7050
   99SOL     OW  295   2.878   0.630   1.230 -0.6608 -0.5110 -0.6628
   99SOL    HW1  296   2.914   0.548   1.280  0.3456 -1.5725  0.2393
   99SOL    HW2  297   2.950   0.695   1.220 -0.1138 -1.8617 -0.8650
  100SOL     OW  298   2.562   1.840   1.748 -0.2987 -0.4246  0.2170
  100SOL    HW1  299   2.478   1.882   1.785  1.2304 -3.3613 -0.0826
  100SOL    HW2  300   2.636   1.880   1.810  0.0158 -2.0208  0.7509
  101SOL     OW  301   2.068   0.082   0.136  0.1731  0.0628 -0.0604
  101SOL    HW1  302   1.966   0.062   0.137 -0.2875  1.9458  2.7444
  101SOL    HW2  303   2.109   0.063   0.043 -3.0850  1.1254  0.1250
  102SOL     OW  304   0.709   0.371   1.246 -0.6637  0.3087 -0.4021
  102SOL    HW1  305   0.735   0.271   1.268  0.0568 -2.2326  0.2749
  102SOL    HW2  306   0.615   0.376   1.205  1.4570  0.3318  2.0498
  103SOL     OW  307   2.980   0.057   2.466 -0.4070 -0.6894 -0.3644
  103SOL    HW1  308   3.012   3.045   2.440 -1.3109  0.4781  0.9021
  103SOL    HW2  309   3.021   0.137   2.415  0.7021  1.8269  1.1158
  104SOL     OW  310   0.319   2.251   1.298 -0.3444 -0.4612  0.4769
  104SOL    HW1  311   0.367   2.169   1.256 -1.1032  1.3961 -0.2389
  104SOL    HW2  312   0.378   2.330   1.293 -3.6312 -3.0884 -0.2125
  105SOL     OW  313   0.810   1.557   1.907  0.5487 -0.1272 -0.2895
  105SOL    HW1  314   0.857   1.472   1.874 -1.0638  1.1122 -0.8632
  105SOL    HW2  315   0.745   1.588   1.837  0.7350 -0.2752 -0.0027
  106SOL     OW  316   1.862   0.569   0.611 -0.0745 -0.4355 -0.0501
  106SOL    HW1  317   1.864   0.674   0.615 -1.3415  0.5955 -1.3792
  106SOL    HW2  318   1.765   0.532   0.615  0.2574  0.0712  1.3927
  107SOL     OW  319   0.676   1.150   1.337  0.2912  0.1349  0.2752
  107SOL    HW1  320   0.770   1.141   1.367  0.3330 -0.9032  1.2147
  107SOL    HW2  321   0.669   1.222   1.261  1.5924  1.4181 -2.4252
  108SOL     OW  322   2.963   0.746   2.241  0.6579 -0.1735 -0.2949
  108SOL    HW1  323   2.995   0.718   2.146 -0.5797 -0.5431 -0.5928
  108SOL    HW2  324   2.869   0.704   2.248 -2.6129  0.2697  1.4823
  109SOL     OW  325   1.777   2.940   2.800  0.1810  0.3740 -0.4706
  109SOL    HW1  326   1.801   2.901   2.893 -1.3476  1.0023  0.5680
  109SOL    HW2  327   1.695   2.890   2.757 -1.8209 -0.2354  2.7615
  110SOL     OW  328   0.248   1.812   2.912 -0.3045  0.2081 -0.1049
  110SOL    HW1  329   0.155   1.843   2.940 -0.9867 -1.3164  0.1746
  110SOL    HW2  330   0.305   1.799   2.992  0.4911  1.0545 -3.2021
  111SOL     OW  331   2.709   0.599   2.190  0.1853 -0.0287  0.4544
  111SOL    HW1  332   2.622   0.581   2.241  2.7880 -2.7509 -1.9204
  111SOL    HW2  333   2.744   0.516   2.139 -0.8628  2.7224  2.2731
  112SOL     OW  334   2.706   2.581   1.349 -0.3321 -0.6264  0.1988
  112SOL    HW1  335   2.617   2.540   1.371  3.6078 -0.1715 -0.2557
  112SOL    HW2  336   2.757   2.517   1.282  4.1888 -4.5861 -2.9570
  113SOL     OW  337   1.958   2.042   1.859 -1.0346 -0.3845  0.1273
  113SOL    HW1  338   1.890   2.084   1.923  2.2119  0.2490  2.4571
  113SOL    HW2  339   2.035   2.112   1.838  2.2576  0.3758 -1.0586
  114SOL     OW  340   0.112   0.312   0.288  0.6166 -0.3069 -0.1296
  114SOL    HW1  341   0.040   0.334   0.359  0.0994  1.1988 -0.8428
  114SOL    HW2  342   0.180   0.389   0.281  3.4147  1.0160  0.7094
  115SOL     OW  343   2.718   1.625   2.973 -0.0048 -0.3796  0.0264
  115SOL    HW1  344   2.821   1.615   2.985  1.2360 -2.4493  1.8576
  115SOL    HW2  345   2.676   1.536   2.976  0.4027 -0.4352  2.5633
  116SOL     OW  346   0.117   1.173   1.723  0.0668  0.3868  0.0286
  116SOL    HW1  347   0.120   1.227   1.808  0.0608 -0.4191  0.6151
  116SOL    HW2  348   0.019   1.173   1.686 -1.4311 -0.1474 -1.7670
  117SOL     OW  349   2.410   3.040   1.392  0.2300  0.3255 -0.7137
  117SOL    HW1  350   2.328   3.016   1.441  1.6552  2.8696 -3.1523
  117SOL    HW2  351   2.492   3.021   1.452 -0.2987  1.9047  1.0057
  118SOL     OW  352   2.798   2.312   2.077  0.0589  0.1953 -0.0794
  118SOL    HW1  353   2.813   2.411   2.079 -0.3409 -1.7870  1.2405
  118SOL    HW2  354   2.780   2.285   1.980  1.0060  1.1131  1.3042
  119SOL     OW  355   0.590   1.738   1.165 -0.0525 -0.3279  0.3090
  119SOL    HW1  356   0.542   1.704   1.080  2.5175 -1.8477  2.6541
  119SOL    HW2  357   0.552   1.689   1.246 -2.6620 -0.7817  1.9835
  120SOL     OW  358   0.235   1.648   1.412  0.1167  0.1521 -0.2608
  120SOL    HW1  359   0.199   1.681   1.501  0.6279 -0.0189  1.4486
  120SOL    HW2  360   0.230   1.717   1.341 -1.5826 -3.5943 -2.1090
  121SOL     OW  361   1.690   1.445   0.964 -0.2723  0.7125 -0.5395
  121SOL    HW1  362   1.766   1.390   0.933 -2.5269 -0.2972 -0.8727
  121SOL    HW2  363   1.637   1.378   1.016  0.6800 -1.2180 -0.1434
  122SOL     OW  364   1.880   2.445   2.429  0.2482  0.3429  0.1913
  122SOL    HW1  365   1.928   2.365   2.470 -1.2654 -1.3276 -0.7959
  122SOL    HW2  366   1.862   2.521   2.490 -1.3339 -0.9067 -0.5018
  123SOL     OW  367   2.967   3.026   0.263  0.6998  0.3589  0.7019
  123SOL    HW1  368   3.056   3.046   0.305 -0.1698 -0.1411  0.0738
  123SOL    HW2  369   2.894   3.015   0.331  0.5180  0.0993  0.0290
  124SOL     OW  370   0.947   1.253   0.398  0.1550  0.1692 -0.1089
  124SOL    HW1  371   0.923   1.219   0.493 -1.7791 -2.4744 -0.6952
  124SOL    HW2  372   0.927   1.177   0.333 -0.4159  0.7773  2.6125
  125SOL     OW  373   0.386   1.161   2.266  0.7755  0.1939 -0.2015
  125SOL    HW1  374   0.352   1.255   2.288 -0.7987  1.9566 -0.8209
  125SOL    HW2  375   0.457   1.158   2.196 -0.7787 -1.8909  3.2952
  126SOL     OW  376   2.996   2.463   0.318 -0.4110  0.4423 -0.5270
  126SOL    HW1  377   3.033   2.457   0.411 -0.1511 -0.9464 -2.8681
  126SOL    HW2  378   2.971   2.556   0.290  0.4051  1.1719  1.3716
  127SOL     OW  379   2.877   1.902   0.229  0.1126  0.0674 -0.0132
  127SOL    HW1  380   2.812   1.843   0.175 -1.6920  3.3569 -1.3248
  127SOL    HW2  381   2.927   1.975   0.171  1.2906  1.0477 -2.0850
  128SOL     OW  382   1.324   0.876   0.688 -0.4955  0.4076 -0.2885
  128SOL    HW1  383   1.248   0.930   0.646 -2.1900 -0.7035 -0.5507
  128SOL    HW2  384   1.329   0.892   0.792 -3.1001 -1.4089  1.3761
  129SOL     OW  385   2.566   1.899   1.213 -0.4245  0.3181 -0.1037
  129SOL    HW1  386   2.585   1.933   1.305 -0.1378 -1.1945 -1.8312
  129SOL    HW2  387   2.561   1.795   1.223 -2.7212  0.4931 -0.3967
  130SOL     OW  388   2.258   1.118   0.676  0.0093 -0.1627 -0.2013
  130SOL    HW1  389   2.251   1.081   0.773  0.8497 -0.2676 -2.0792
  130SOL    HW2  390   2.323   1.202   0.679  4.0741  0.9669  0.3992
  131SOL     OW  391   3.047   1.309   2.359  0.1627 -0.1048  0.1689
  131SOL    HW1  392   3.004   1.223   2.330  0.7327  2.1727  0.3627
  131SOL    HW2  393   3.002   1.347   2.440 -0.7770 -1.8849 -1.8598
  132SOL     OW  394   1.355   1.408   2.223 -0.5405  0.6597 -0.0140
  132SOL    HW1  395   1.292   1.390   2.145  0.7362 -1.3827  1.5674
  132SOL    HW2  396   1.422   1.329   2.237  0.3017 -0.8269 -2.3693
  133SOL     OW  397   0.204   1.294   0.296  0.0068  0.3515 -0.3619
  133SOL    HW1  398   0.238   1.389   0.277 -0.4007  0.6517  1.4161
  133SOL    HW2  399   0.235   1.226   0.223 -0.6549 -0.2963  0.6812
  134SOL     OW  400   2.673   0.840   0.242 -0.1414  0.2180  0.0173
  134SOL    HW1  401   2.728   0.783   0.175  1.1289  0.2679  2.2849
  134SOL    HW2  402   2.640   0.921   0.196  0.0314  0.0219  0.4465
  135SOL     OW  403   1.450   0.741   3.022  0.2822 -0.1351  0.3931
  135SOL    HW1  404   1.398   0.713   2.943  1.9711 -1.2833  1.1520
  135SOL    HW2  405   1.418   0.832   3.049  0.7356 -1.9092  2.8457
  136SOL     OW  406   1.804   1.597   1.742  0.1815 -0.4864  0.1996
  136SOL    HW1  407   1.735   1.621   1.812 -0.8935 -2.1555  1.2383
  136SOL    HW2  408   1.853   1.679   1.706 -1.9635  1.7971  0.9912
  137SOL     OW  409   2.418   2.354   0.733 -0.4029  0.0866  0.1077
  137SOL    HW1  410   2.508   2.360   0.681  1.4118  0.1463  2.7260
  137SOL    HW2  411   2.339   2.389   0.679 -1.0278 -0.6093 -1.8998
  138SOL     OW  412   2.397   0.469   1.506 -0.5407 -0.0765 -0.2491
  138SOL    HW1  413   2.331   0.518   1.566  1.0041 -2.5008  1.0696
  138SOL    HW2  414   2.355   0.403   1.442 -1.4294 -4.1922  1.4457
  139SOL     OW  415   2.623   0.007   2.834  0.4878  0.3643  0.1347
  139SOL    HW1  416   2.664   0.094   2.866  2.4014 -1.4299  1.2481
  139SOL    HW2  417   2.597   3.036   2.917  0.1149  2.6101 -0.2672
  140SOL     OW  418   1.411   1.856   2.286  0.4072 -0.0630 -0.4362
  140SOL    HW1  419   1.370   1.771   2.327 -0.7698  2.0816 -0.3147
  140SOL    HW2  420   1.344   1.932   2.265 -2.6369 -1.0902 -2.2771
  141SOL     OW  421   0.997   1.001   2.299 -0.4009  0.1052 -0.1265
  141SOL    HW1  422   1.051   0.985   2.389  0.0638 -0.5923  1.9276
  141SOL    HW2  423   1.041   1.066   2.239  2.1803  1.3662 -0.3832
  142SOL     OW  424   2.632   2.629   2.622 -0.0190  0.3340  0.4250
  142SOL    HW1  425   2.598   2.547   2.674 -0.6734 -1.6309  0.1750
  142SOL    HW2  426   2.716   2.601   2.570 -0.4058 -0.0303 -2.8349
  143SOL     OW  427   1.020   2.030   0.378  0.1279  0.1385 -0.2350
  143SOL    HW1  428   1.119   2.037   0.400  2.8564 -0.9458  1.8294
  143SOL    HW2  429   0.962   2.014   0.456 -0.5492  0.9656 -1.6129
  144SOL     OW  430   1.139   2.521   0.190 -0.3942  0.2454  0.2410
  144SOL    HW1  431   1.136   2.421   0.167 -0.8603  1.4237 -0.1340
  144SOL    HW2  432   1.129   2.572   0.108  1.9700 -5.0137  4.3551
  145SOL     OW  433   1.417   2.409   2.546 -0.0847 -0.1276  0.2534
  145SOL    HW1  434   1.331   2.410   2.494  0.2072 -0.9766  2.7759
  145SOL    HW2  435   1.481   2.335   2.514 -0.5265 -2.7206 -0.4307
  146SOL     OW  436   2.277   2.881   2.997  0.6720  0.3047  0.4820
  146SOL    HW1  437   2.260   2.977   2.981 -0.6130 -0.7747 -1.0573
  146SOL    HW2  438   2.190   2.831   3.022 -2.6648  1.3039 -1.4784
  147SOL     OW  439   3.009   1.217   1.090  0.3644 -0.4348 -0.4899
  147SOL    HW1  440   2.917   1.240   1.055  0.4001  1.2403 -3.5020
  147SOL    HW2  441   3.029   1.293   1.158 -0.9099 -2.0823  2.9315
  148SOL     OW  442   2.079   2.715   0.140 -0.0664  0.1909  0.2221
  148SOL    HW1  443   2.010   2.749   0.203  1.5952 -2.2745 -2.6464
  148SOL    HW2  444   2.176   2.727   0.176  2.1453 -1.2767  0.5114
  149SOL     OW  445   0.641   1.794   2.899  0.3823 -0.2316 -0.1721
  149SOL    HW1  446   0.675   1.698   2.879  0.6149 -1.8830 -1.7935
  149SOL    HW2  447   0.606   1.829   2.811 -1.5893 -2.9147  0.9629
  150SOL     OW  448   0.523   2.446   0.717  0.1923 -0.2828 -0.0636
  150SOL    HW1  449   0.609   2.409   0.760  0.2709  0.3178  0.7714
  150SOL    HW2  450   0.465   2.481   0.795  0.3932 -0.9997  1.2970
  151SOL     OW  451   0.221   1.072   0.141 -0.3353  0.6393  0.0497
  151SOL    HW1  452   0.283   1.002   0.181  0.4721 -0.3608  0.4616
  151SOL    HW2  453   0.215   1.052   0.038 -0.3506 -3.0971 -0.5027
  152SOL     OW  454   2.752   2.188   0.885 -0.1427  0.1825  0.1432
  152SOL    HW1  455   2.814   2.263   0.916  0.5412  1.8047 -1.0064
  152SOL    HW2  456   2.747   2.186   0.783 -0.5674 -1.6869  0.4823
  153SOL     OW  457   1.557   2.399   0.988  0.5844  0.3898 -0.0195
  153SOL    HW1  458   1.639   2.361   1.037  2.3838  0.5885 -0.5545
  153SOL    HW2  459   1.512   2.336   0.915  0.4347 -0.7359  1.0082
  154SOL     OW  460   0.649   2.841   1.178  0.6009  0.0200 -0.0886
  154SOL    HW1  461   0.615   2.926   1.140  1.5584 -2.3837  0.0022
  154SOL    HW2  462   0.741   2.855   1.215 -0.1033  0.7585  2.6038
  155SOL     OW  463   2.996   2.042   0.652  0.4569 -0.3823  0.4530
  155SOL    HW1  464   2.900   2.059   0.624  1.2518 -2.1325 -0.8504
  155SOL    HW2  465   3.067   2.054   0.579 -0.2070 -1.8845 -3.2575
  156SOL     OW  466   2.706   2.117   0.285 -0.2418 -0.2280  0.3221
  156SOL    HW1  467   2.757   2.190   0.235 -0.0463  0.0349 -0.6886
  156SOL    HW2  468   2.749   2.030   0.256  1.0937  0.7211 -1.4583
  157SOL     OW  469   0.432   2.340   1.653  0.9406  0.1518 -0.3096
  157SOL    HW1  470   0.390   2.389   1.732  0.8580 -1.4895  0.4345
  157SOL    HW2  471   0.372   2.263   1.617 -1.3459 -0.4646 -0.0213
  158SOL     OW  472   1.419   0.481   0.903  0.2394 -0.6205 -0.5390
  158SOL    HW1  473   1.380   0.389   0.898  2.1662  0.4562  2.0504
  158SOL    HW2  474   1.514   0.475   0.941 -1.9028 -0.9307 -0.3948
  159SOL     OW  475   1.695   0.732   0.052  0.5459  0.6356  0.0023
  159SOL    HW1  476   1.684   0.728   0.153  2.1223  1.6338  0.3714
  159SOL    HW2  477   1.609   0.736   0.002  2.2093  3.1306  2.6863
  160SOL     OW  478   0.902   1.527   0.364 -0.0865 -0.8798  0.1628
  160SOL    HW1  479   0.944   1.435   0.383 -3.0400 -1.2699  2.4411
  160SOL    HW2  480   0.839   1.526   0.280 -0.0082  0.9138  0.1408
  161SOL     OW  481   2.809   2.308   2.651  0.0417  0.4142 -0.2025
  161SOL    HW1  482   2.720   2.324   2.697 -0.3100 -0.6390 -1.3612
  161SOL    HW2  483   2.850   2.221   2.686  0.8527  1.4944  1.8260
  162SOL     OW  484   0.030   2.246   1.254 -0.2825 -0.2185  0.0179
  162SOL    HW1  485   3.069   2.258   1.345 -0.0631 -1.6851 -0.1356
  162SOL    HW2  486   0.128   2.235   1.257 -2.4172 -1.4663 -2.6355
  163SOL     OW  487   0.259   0.381   2.898  0.7671 -0.5285  0.7205
  163SOL    HW1  488   0.269   0.286   2.861 -0.4582 -0.1768 -0.1594
  163SOL    HW2  489   0.329   0.442   2.855  0.2507  0.8083  0.1067
  164SOL     OW  490   0.178   2.720   2.412  0.0009 -0.3189  0.6281
  164SOL    HW1  491   0.272   2.766   2.412  1.0476  0.4153 -0.5283
  164SOL    HW2  492   0.160   2.682   2.508  0.3894 -2.6049 -0.9369
  165SOL     OW  493   2.430   0.890   1.675  0.0097 -0.7112 -0.0189
  165SOL    HW1  494   2.442   0.905   1.576 -0.6387 -0.6470 -0.6177
  165SOL    HW2  495   2.395   0.967   1.732  1.4262 -2.6685  1.4096
  166SOL     OW  496   1.915   1.899   1.411 -0.1129  0.2119  0.1007
  166SOL    HW1  497   2.000   1.846   1.385 -1.3445 -0.4381  1.2882
  166SOL    HW2  498   1.841   1.879   1.346  2.7829 -3.1643  2.1060
  167SOL     OW  499   0.472   0.653   2.370 -0.2537 -0.1007  0.3875
  167SOL    HW1  500   0.496   0.628   2.275  0.8729 -0.5514  0.9369
  167SOL    HW2  501   0.491   0.751   2.383 -2.2596 -1.3202 -0.5996
  168SOL     OW  502   2.174   0.206   2.237  0.4498  0.2149  0.1222
  168SOL    HW1  503   2.202   0.169   2.324 -0.7429  0.9341 -2.3531
  168SOL    HW2  504   2.206   0.136   2.165  0.1713  0.2800 -0.0140
  169SOL     OW  505   0.402   0.884   0.201  0.0871  0.2600  0.1180
  169SOL    HW1  506   0.422   0.844   0.294  2.1325  2.4066  0.0776
  169SOL    HW2  507   0.370   0.809   0.137  0.0770 -0.1748 -3.1640
  170SOL     OW  508   0.846   1.359   1.539  0.4218  0.4885 -0.6879
  170SOL    HW1  509   0.873   1.336   1.634 -0.3514 -2.7962 -1.4138
  170SOL    HW2  510   0.926   1.349   1.475 -1.5855 -1.7486  2.2335
  171SOL     OW  511   1.106   2.542   1.789 -0.0229 -0.3816  0.4166
  171SOL    HW1  512   1.184   2.536   1.719  0.2769 -3.2517 -0.8613
  171SOL    HW2  513   1.107   2.637   1.832 -0.2502  0.9531  2.3784
  172SOL     OW  514   1.300   3.025   1.930 -0.0789 -0.0668  0.1023
  172SOL    HW1  515   1.273   0.032   1.972 -1.1340 -1.1985  0.4600
  172SOL    HW2  516   1.367   2.975   1.991  0.8685  0.9586 -0.3540
  173SOL     OW  517   1.387   2.278   0.812  0.6156  0.1416 -0.3241
  173SOL    HW1  518   1.361   2.360   0.760 -0.5993  0.5256  1.5564
  173SOL    HW2  519   1.305   2.216   0.802 -2.0388 -1.1471  1.2815
  174SOL     OW  520   2.132   3.066   0.397  0.6356  0.2815  0.3256
  174SOL    HW1  521   2.213   3.007   0.403 -1.8349 -2.5830 -0.5998
  174SOL    HW2  522   2.108   0.010   0.301 -1.8105  1.4768 -0.7959
  175SOL     OW  523   1.204   1.304   0.424  0.4337  0.2973  0.2802
  175SOL    HW1  524   1.208   1.398   0.468 -0.2389  1.0557 -2.1182
  175SOL    HW2  525   1.111   1.268   0.398  0.3056  1.2307 -0.5987
  176SOL     OW  526   0.678   1.468   0.523 -0.1709 -0.6750 -0.3472
  176SOL    HW1  527   0.758   1.502   0.471 -1.5112  0.0129  0.3169
  176SOL    HW2  528   0.661   1.371   0.493  1.3534 -1.2033  1.0268
  177SOL     OW  529   1.086   1.059   0.875 -0.2389 -0.0407  0.5216
  177SOL    HW1  530   1.104   1.155   0.839 -0.9957  1.3256  0.0795
  177SOL    HW2  531   1.169   1.007   0.901  0.3482 -2.0933  0.9671
  178SOL     OW  532   2.503   1.675   0.281 -0.1012  0.1312 -0.1299
  178SOL    HW1  533   2.485   1.776   0.303 -0.4888  4.5706  0.1810
  178SOL    HW2  534   2.460   1.620   0.356 -0.8296  0.7904 -1.5079
  179SOL     OW  535   1.020   2.661   3.061 -0.4726  0.3791 -0.1771
  179SOL    HW1  536   0.970   2.599   2.990  0.3779  0.3250 -1.2728
  179SOL    HW2  537   0.965   2.689   0.056 -1.1477 -0.7273 -1.4063
  180SOL     OW  538   1.923   1.359   1.791 -0.2046  0.3357 -0.4121
  180SOL    HW1  539   1.992   1.378   1.864  1.0564  0.2375  1.2124
  180SOL    HW2  540   1.883   1.448   1.759  3.0058  0.5899 -0.6838
  181SOL     OW  541   1.118   0.624   2.305 -0.1459 -0.4866 -0.1741
  181SOL    HW1  542   1.197   0.695   2.305  1.6177  0.6090 -1.3675
  181SOL    HW2  543   1.115   0.570   2.386 -0.2022  0.1350  1.0092
  182SOL     OW  544   0.205   1.379   2.237 -0.0601  0.5202 -0.4378
  182SOL    HW1  545   0.126   1.329   2.282 -0.0541 -0.0481 -1.4394
  182SOL    HW2  546   0.199   1.378   2.135 -0.9694  0.3805  0.5714
  183SOL     OW  547   1.531   0.642   2.321 -0.1395 -0.0808 -0.1880
  183SOL    HW1  548   1.512   0.594   2.406  2.0390  0.8113 -2.5073
  183SOL    HW2  549   1.547   0.582   2.243 -0.7467  0.0928  0.9459
  184SOL     OW  550   0.678   0.597   1.382  0.4577  0.1178 -0.1051
  184SOL    HW1  551   0.740   0.625   1.456 -1.8351 -2.1832  2.5320
  184SOL    HW2  552   0.696   0.504   1.350  0.0684 -2.2378  0.3028
  185SOL     OW  553   2.166   1.601   0.631  0.8667  0.0487 -0.5776
  185SOL    HW1  554   2.167   1.695   0.593  0.4269  1.0055  4.7179
  185SOL    HW2  555   2.071   1.563   0.624 -1.6147  2.8515 -0.6420
  186SOL     OW  556   0.239   2.045   0.208  0.3026 -0.0003 -0.6750
  186SOL    HW1  557   0.318   1.983   0.235  3.4852  0.4144 -2.5360
  186SOL    HW2  558   0.269   2.141   0.209 -0.5901  1.0832  1.2866
  187SOL     OW  559   2.059   2.247   3.050 -0.3037 -0.1887 -0.2256
  187SOL    HW1  560   2.008   2.289   0.043 -1.2889 -0.3382 -0.0804
  187SOL    HW2  561   2.149   2.208   3.080  0.1766  0.1327  0.5726
  188SOL     OW  562   1.062   2.078   1.017  0.0381 -0.4315 -0.6528
  188SOL    HW1  563   0.970   2.083   1.062  1.6199 -0.1774 -0.8129
  188SOL    HW2  564   1.099   1.980   1.020  0.1978 -4.0134  0.0550
  189SOL     OW  565   2.258   1.581   2.349  0.4454 -0.3511  0.7096
  189SOL    HW1  566   2.164   1.609   2.322  2.4587 -0.5370  1.0894
  189SOL    HW2  567   2.316   1.665   2.339  0.4222  1.3971 -1.0237
  190SOL     OW  568   0.894   2.557   2.188 -0.5168  0.2405  0.3420
  190SOL    HW1  569   0.870   2.551   2.089 -1.9705 -1.3957  0.7768
  190SOL    HW2  570   0.815   2.574   2.247  1.9910 -2.2362 -0.1492
  191SOL     OW  571   2.680   0.821   1.351 -0.2386 -0.3296 -0.7801
  191SOL    HW1  572   2.749   0.854   1.422  2.9510 -0.3749  1.0282
  191SOL    HW2  573   2.729   0.748   1.297 -0.3988 -0.0836 -0.4338
  192SOL     OW  574   2.648   0.599   1.512 -0.3155  0.4720  0.3074
  192SOL    HW1  575   2.558   0.549   1.509  0.3913  1.1219  1.0347
  192SOL    HW2  576   2.652   0.682   1.451 -1.8203 -0.1588  0.8410
  193SOL     OW  577   0.367   0.319   0.499  0.2608 -0.1334  0.3843
  193SOL    HW1  578   0.291   0.278   0.548  2.3011 -1.4996 -1.5456
  193SOL    HW2  579   0.449   0.344   0.565  3.1445  2.2438  1.4697
  194SOL     OW  580   1.130   2.379   1.428 -0.1435  0.6109 -0.1254
  194SOL    HW1  581   1.149   2.282   1.402  2.2145 -3.2170 -0.4354
  194SOL    HW2  582   1.174   2.397   1.517  1.8521  0.7342  1.6013
  195SOL     OW  583   2.377   1.132   0.290 -0.2672 -0.1762  0.2541
  195SOL    HW1  584   2.380   1.061   0.366  0.9446 -0.5015 -2.8480
  195SOL    HW2  585   2.351   1.084   0.204  0.1291  0.9755 -1.3100
  196SOL     OW  586   0.650   2.425   1.520 -0.0599  0.0615 -0.0872
  196SOL    HW1  587   0.620   2.427   1.419  2.0752 -0.2694  4.2222
  196SOL    HW2  588   0.571   2.403   1.578  0.5815 -2.0645 -2.1201
  197SOL     OW  589   0.173   0.729   2.285  0.7227  0.3660 -0.0244
  197SOL    HW1  590   0.211   0.642   2.324  0.7404 -0.8582  2.2171
  197SOL    HW2  591   0.066   0.724   2.273 -3.9766  0.3221 -0.3406
  198SOL     OW  592   1.654   1.077   0.572  0.5830  0.1222  0.3970
  198SOL    HW1  593   1.556   1.084   0.548 -1.6020  2.1969  1.5460
  198SOL    HW2  594   1.706   1.146   0.521 -0.2104 -0.1316 -1.5298
  199SOL     OW  595   2.896   0.618   1.666  0.0802  0.1420 -0.0020
  199SOL    HW1  596   2.912   0.569   1.753 -2.0810 -1.7448  0.8960
  199SOL    HW2  597   2.800   0.610   1.633 -2.4307  0.0994 -2.0274
  200SOL     OW  598   2.191   0.064   2.964 -0.1692  1.2425  0.0992
  200SOL    HW1  599   2.267   0.122   2.993 -1.1011  0.1298 -0.2802
  200SOL    HW2  600   2.140   0.114   2.887 -1.6251 -1.9146  1.2794
  201SOL     OW  601   2.503   0.128   1.177 -0.8455 -0.6854  0.4308
  201SOL    HW1  602   2.465   0.069   1.247  0.3048  0.1028 -1.7196
  201SOL    HW2  603   2.438   0.197   1.133 -0.2899  1.2805  2.3447
  202SOL     OW  604   2.966   2.749   0.274  0.3785 -0.2333  0.2760
  202SOL    HW1  605   3.043   2.720   0.333  2.1078 -1.4608  2.4168
  202SOL    HW2  606   2.978   2.840   0.242  1.2260 -0.5615  0.2723
  203SOL     OW  607   1.358   1.669   3.043  0.2112  0.3667  0.4107
  203SOL    HW1  608   1.383   1.681   0.060 -0.2970 -0.2167  0.9921
  203SOL    HW2  609   1.445   1.655   2.994 -2.1619 -1.4135 -0.4148
  204SOL     OW  610   0.494   2.097   2.195  0.3909  0.1733 -0.0925
  204SOL    HW1  611   0.537   2.039   2.123 -0.2520 -1.9247  0.2833
  204SOL    HW2  612   0.399   2.060   2.216 -0.7716 -0.2744 -2.3875
  205SOL     OW  613   1.004   0.642   1.069  0.1192  0.8669 -0.0019
  205SOL    HW1  614   0.981   0.547   1.105 -2.5182 -1.4116  1.6743
  205SOL    HW2  615   1.102   0.661   1.090 -1.0458 -2.4329  0.1843
  206SOL     OW  616   0.275   0.772   2.819  0.1633  0.3513 -0.3865
  206SOL    HW1  617   0.262   0.871   2.844 -0.1570 -0.0761  0.3316
  206SOL    HW2  618   0.212   0.743   2.746 -0.5622 -0.3221 -0.1913
  207SOL     OW  619   1.517   2.347   1.713  0.2419 -0.4511  0.0967
  207SOL    HW1  620   1.596   2.408   1.741 -1.5940 -0.0760  0.5340
  207SOL    HW2  621   1.490   2.289   1.792 -0.7070 -1.2486 -0.4044
  208SOL     OW  622   0.408   2.997   0.979 -0.7676  0.1493 -0.0043
  208SOL    HW1  623   0.467   2.928   0.940 -2.8028 -1.5277  0.2611
  208SOL    HW2  624   0.403   3.079   0.913 -0.6436  4.5232 -2.0963
  209SOL     OW  625   1.588   1.136   0.827 -0.0778  0.4929  0.2073
  209SOL    HW1  626   1.585   1.055   0.886  2.5976  2.7107 -3.8793
  209SOL    HW2  627   1.604   1.105   0.730  0.1039 -0.6790  0.5107
  210SOL     OW  628   2.479   0.615   0.678 -0.0639  0.0164  0.2889
  210SOL    HW1  629   2.544   0.693   0.665 -0.2530  0.3316 -0.7111
  210SOL    HW2  630   2.511   0.535   0.621  2.5504  0.1675 -0.0697
  211SOL     OW  631   1.242   0.161   0.167 -0.1232  0.4196  0.4134
  211SOL    HW1  632   1.176   0.092   0.128  0.6327 -4.6424 -1.5079
  211SOL    HW2  633   1.339   0.124   0.162  0.1656  1.9672 -3.3423
  212SOL     OW  634   1.631   2.137   0.601  0.1793 -0.3253  0.5532
  212SOL    HW1  635   1.677   2.224   0.624 -1.7989  0.3761 -1.8627
  212SOL    HW2  636   1.549   2.156   0.543 -3.4487 -2.7970 -0.2532
  213SOL     OW  637   2.247   0.374   2.582 -0.3264 -0.2866 -1.1159
  213SOL    HW1  638   2.278   0.467   2.598 -0.7996  1.2504 -0.1101
  213SOL    HW2  639   2.145   0.373   2.574  0.1399  0.9581  0.2563
  214SOL     OW  640   1.052   1.900   1.996  0.7380 -0.0096 -0.5057
  214SOL    HW1  641   1.110   1.819   1.996  0.1273  1.6873  0.6777
  214SOL    HW2  642   1.060   1.937   2.094  1.2035 -3.1399  3.6083
  215SOL     OW  643   0.215   1.195   1.026  0.1893 -0.0936  0.0513
  215SOL    HW1  644   0.122   1.216   1.047  2.3850  1.5182 -0.8265
  215SOL    HW2  645   0.260   1.137   1.095 -0.0513 -0.5910 -0.0116
  216SOL     OW  646   0.237   2.276   2.783 -0.1214 -0.0805  0.3298
  216SOL    HW1  647   0.141   2.256   2.821 -0.4433 -0.3468  1.0531
  216SOL    HW2  648   0.291   2.313   2.861 -0.0152  2.0943  0.9383
  217SOL     OW  649   2.685   1.156   1.543 -0.5394 -0.3134 -0.0956
  217SOL    HW1  650   2.665   1.059   1.516 -1.3567 -1.8207  0.1087
  217SOL    HW2  651   2.600   1.184   1.591  0.5313 -1.7057  0.7951
  218SOL     OW  652   0.771   2.267   1.950  0.4552  0.6298 -0.1752
  218SOL    HW1  653   0.801   2.364   1.948 -1.0485 -0.9663 -1.8620
  218SOL    HW2  654   0.829   2.218   2.012 -1.6939  0.9618 -0.2182
  219SOL     OW  655   2.078   1.562   0.319  0.1573 -0.0677  0.1081
  219SOL    HW1  656   2.169   1.526   0.309 -4.0528  1.2203  2.0331
  219SOL    HW2  657   2.083   1.652   0.363 -0.0502 -1.7985 -1.1827
  220SOL     OW  658   2.131   0.775   0.595 -0.4453  0.0678 -0.0661
  220SOL    HW1  659   2.103   0.743   0.502 -0.4765  0.3940 -1.2903
  220SOL    HW2  660   2.065   0.836   0.641 -3.0903  0.6746 -1.5764
  221SOL     OW  661   2.702   0.441   0.056  0.0172 -0.3641  0.0262
  221SOL    HW1  662   2.766   0.520   0.058 -1.5171  1.4172 -0.2674
  221SOL    HW2  663   2.758   0.361   0.093  1.2322  0.9020  1.6177
  222SOL     OW  664   1.472   1.342   0.700  0.3838  0.4246 -0.0383
  222SOL    HW1  665   1.521   1.277   0.761 -0.8407  0.2951 -1.4095
  222SOL    HW2  666   1.370   1.343   0.728 -2.0143 -0.6092 -0.0240
  223SOL     OW  667   0.970   0.022   2.933  0.4511 -0.0707 -1.0791
  223SOL    HW1  668   1.060   0.011   2.897 -2.5190  0.0538 -0.3434
  223SOL    HW2  669   0.895   3.081   2.869 -0.4132 -2.0870 -0.2827
  224SOL     OW  670   1.191   2.947   1.299 -0.2548 -0.1345  0.4592
  224SOL    HW1  671   1.149   3.044   1.294 -4.5134  1.9060  1.4553
  224SOL    HW2  672   1.205   2.915   1.396  0.1324 -0.1786 -2.5845
  225SOL     OW  673   0.335   2.505   1.848 -0.1369  0.2185 -0.4554
  225SOL    HW1  674   0.235   2.501   1.859 -0.4816  1.9692  0.4878
  225SOL    HW2  675   0.381   2.470   1.935  0.9863 -0.7388  1.7298
  226SOL     OW  676   1.466   1.270   0.326 -0.4137  0.1707  0.0870
  226SOL    HW1  677   1.528   1.329   0.380 -1.2580 -0.0192 -2.0512
  226SOL    HW2  678   1.371   1.276   0.359  2.2674 -0.5608 -0.5180
  227SOL     OW  679   0.425   1.274   0.669 -0.0079 -0.0230 -0.0343
  227SOL    HW1  680   0.470   1.236   0.584 -1.7287 -0.3300  0.6777
  227SOL    HW2  681   0.328   1.296   0.645  3.0209 -2.6249 -0.5083
  228SOL     OW  682   0.007   1.693   0.785  0.3132  0.3183 -0.5355
  228SOL    HW1  683   3.004   1.643   0.751  0.9944 -2.6798 -0.2809
  228SOL    HW2  684   0.068   1.720   0.710 -2.2251 -2.1201 -1.0901
  229SOL     OW  685   2.727   0.247   2.913  0.0117 -0.0882 -0.1465
  229SOL    HW1  686   2.701   0.323   2.968  3.1071 -0.6884 -3.3907
  229SOL    HW2  687   2.831   0.251   2.902  4.2370  3.8344  3.0470
  230SOL     OW  688   2.277   1.072   1.004 -0.0230  0.0929  0.4216
  230SOL    HW1  689   2.351   1.136   1.040 -0.0175  0.5800 -1.8727
  230SOL    HW2  690   2.185   1.111   1.019  1.5009 -0.7849 -2.4906
  231SOL     OW  691   1.647   1.357   2.952 -0.6495  0.5276  0.8739
  231SOL    HW1  692   1.622   1.448   2.914 -3.8081  2.4568 -1.0585
  231SOL    HW2  693   1.657   1.358   3.055 -0.4831  0.9625 -0.3050
  232SOL     OW  694   2.291   2.009   0.796  0.0869 -0.3947 -0.1074
  232SOL    HW1  695   2.375   1.998   0.730  2.1402  0.5065 -0.3393
  232SOL    HW2  696   2.299   2.106   0.832 -0.6672  3.2201  1.1408
  233SOL     OW  697   0.718   2.697   0.959 -0.6274  0.2084 -0.2121
  233SOL    HW1  698   0.701   2.760   1.036 -1.5647  0.3530 -1.2108
  233SOL    HW2  699   0.670   2.724   0.877 -0.2586 -4.9186 -0.5437
  234SOL     OW  700   0.671   0.427   2.767 -0.2290  0.4521 -0.0779
  234SOL    HW1  701   0.746   0.498   2.786  0.9111  1.9749 -0.8278
  234SOL    HW2  702   0.579   0.466   2.779  1.6799 -0.2758  0.2237
  235SOL     OW  703   2.945   1.078   2.251 -0.1681  0.2602  0.7349
  235SOL    HW1  704   2.957   0.978   2.269  1.9482 -0.1923  2.3357
  235SOL    HW2  705   2.982   1.101   2.155  1.4599  0.9251 -4.5763
  236SOL     OW  706   1.481   2.814   1.623 -0.2883 -0.8720  0.0527
  236SOL    HW1  707   1.387   2.799   1.581 -1.3777  2.6101 -1.6230
  236SOL    HW2  708   1.546   2.741   1.593 -0.1451 -1.4832  0.1824
  237SOL     OW  709   0.757   1.319   2.486  0.1956  0.3409  0.0788
  237SOL    HW1  710   0.782   1.410   2.447  0.8036 -0.2500  1.4185
  237SOL    HW2  711   0.745   1.249   2.414  1.2935 -2.7377 -0.7111
  238SOL     OW  712   1.027   0.327   2.356  0.5964 -0.2384 -0.1108
  238SOL    HW1  713   0.960   0.398   2.322 -0.3527  1.0021 -0.0066
  238SOL    HW2  714   0.978   0.280   2.432 -1.1791  1.7263 -1.5488
  239SOL     OW  715   0.180   2.303   2.086  0.1023 -0.0484 -0.2087
  239SOL    HW1  716   0.214   2.215   2.043  1.2310 -0.4063  2.9111
  239SOL    HW2  717   0.233   2.319   2.172  2.0586  0.6503  1.7703
  240SOL     OW  718   2.367   2.937   0.553  0.5859 -0.4608  0.0769
  240SOL    HW1  719   2.283   2.943   0.613 -1.3267  1.0529  1.7119
  240SOL    HW2  720   2.350   2.914   0.453  2.0885  1.3634 -1.9042
  241SOL     OW  721   2.873   1.103   0.314 -0.0577  0.3472 -0.2363
  241SOL    HW1  722   2.922   1.168   0.247 -2.6246  3.1398 -2.7873
  241SOL    HW2  723   2.827   1.023   0.263 -1.9431 -0.6951  0.6049
  242SOL     OW  724   1.717   2.490   1.808 -0.3275  0.0620 -0.0226
  242SOL    HW1  725   1.798   2.432   1.793 -0.8136 -1.5740  0.1783
  242SOL    HW2  726   1.722   2.530   1.904 -1.2044 -2.6796  0.4116
  243SOL     OW  727   0.503   2.431   2.114 -0.1485  0.7572 -0.2486
  243SOL    HW1  728   0.580   2.371   2.087  0.1293 -0.8027 -0.4650
  243SOL    HW2  729   0.450   2.392   2.190  0.7678  0.7365  2.0878
  244SOL     OW  730   2.514   0.499   2.363  0.0758  0.1994 -0.5057
  244SOL    HW1  731   2.569   0.439   2.428 -0.6000  0.2369  3.5960
  244SOL    HW2  732   2.438   0.448   2.328  1.7641  0.4872  0.0425
  245SOL     OW  733   1.456   0.172   1.139 -0.3346 -0.2729  0.2462
  245SOL    HW1  734   1.486   0.260   1.184 -1.1306  0.7575 -0.5490
  245SOL    HW2  735   1.390   0.185   1.062  1.5984 -2.3955  0.0113
  246SOL     OW  736   1.620   2.860   0.550 -0.4114  0.0470  0.0714
  246SOL    HW1  737   1.578   2.768   0.541  0.2053 -0.8692 -1.6947
  246SOL    HW2  738   1.562   2.924   0.606 -0.7873  1.1243  2.9943
  247SOL     OW  739   1.328   0.574   2.050  0.9986 -0.4553  0.5233
  247SOL    HW1  740   1.376   0.491   2.088  0.7588 -2.0310 -1.4571
  247SOL    HW2  741   1.267   0.620   2.113  1.3755  1.1344 -3.0574
  248SOL     OW  742   3.030   2.205   1.742 -0.3563  0.2422  0.3588
  248SOL    HW1  743   0.013   2.127   1.732 -1.1904 -0.4161 -1.3543
  248SOL    HW2  744   2.937   2.175   1.762 -0.2435  0.0426 -1.3437
  249SOL     OW  745   2.851   0.247   0.161 -0.4702 -0.3272 -0.0335
  249SOL    HW1  746   2.902   0.266   0.247  0.9015 -0.1703 -2.4820
  249SOL    HW2  747   2.902   0.190   0.099  0.7568  2.5230 -0.0526
  250SOL     OW  748   2.713   0.054   2.572  0.0408  0.3369 -0.3417
  250SOL    HW1  749   2.803   0.072   2.529 -1.5447  3.0036 -1.1608
  250SOL    HW2  750   2.711   3.083   2.659  0.3394 -1.9120 -2.4914
  251SOL     OW  751   1.423   0.508   0.082  0.4113 -0.3643  0.0735
  251SOL    HW1  752   1.485   0.487   0.161 -0.4627  2.4956 -1.2034
  251SOL    HW2  753   1.429   0.605   0.053 -1.1970 -1.2477 -0.3874
  252SOL     OW  754   1.476   2.240   1.985  0.1623 -0.1688 -0.0194
  252SOL    HW1  755   1.377   2.256   1.963 -1.2618  0.2494 -1.5347
  252SOL    HW2  756   1.491   2.272   2.081 -0.8893 -0.9421 -1.1966
  253SOL     OW  757   2.304   2.655   1.113  0.1422 -0.0746 -0.3312
  253SOL    HW1  758   2.353   2.685   1.193  0.1780  1.9327  0.4553
  253SOL    HW2  759   2.365   2.647   1.032 -1.8096 -1.3854  1.9642
  254SOL     OW  760   2.400   1.334   0.698 -0.2363  0.6041 -0.0846
  254SOL    HW1  761   2.424   1.416   0.645  1.4786 -0.7285  3.1961
  254SOL    HW2  762   2.363   1.347   0.793 -0.0944 -0.2178 -0.7741
  255SOL     OW  763   0.911   2.835   1.245  0.6083 -0.1128 -0.3023
  255SOL    HW1  764   0.985   2.900   1.232  2.0130 -0.3824 -0.8545
  255SOL    HW2  765   0.945   2.752   1.293 -0.1201 -0.2992  0.4223
  256SOL     OW  766   1.864   2.145   1.529 -0.1317  0.1492 -0.0020
  256SOL    HW1  767   1.880   2.049   1.506 -0.0459  2.7514  1.7432
  256SOL    HW2  768   1.770   2.176   1.520 -0.6929 -1.5858 -1.2647
  257SOL     OW  769   0.616   2.397   2.452  0.2419  0.4614 -0.4365
  257SOL    HW1  770   0.543   2.415   2.521  0.2047  0.2758 -0.8353
  257SOL    HW2  771   0.628   2.491   2.404 -0.9972  2.7106 -0.5903
  258SOL     OW  772   0.759   2.662   0.626  0.0284  0.2943  0.4362
  258SOL    HW1  773   0.843   2.684   0.681 -2.1259  0.8878  0.6903
  258SOL    HW2  774   0.672   2.670   0.686  0.4280 -1.6779 -0.0730
  259SOL     OW  775   1.452   0.477   2.865 -0.6703  0.0985 -0.1677
  259SOL    HW1  776   1.475   0.389   2.910  0.5485 -1.9773 -1.1311
  259SOL    HW2  777   1.359   0.471   2.820  3.0462 -2.0132  0.1745
  260SOL     OW  778   2.931   0.947   1.028 -0.4306  0.0686 -0.5415
  260SOL    HW1  779   2.942   1.043   1.057 -3.8559  0.4310  0.2192
  260SOL    HW2  780   2.988   0.883   1.085 -0.3676  0.1056 -1.6780
  261SOL     OW  781   0.769   0.315   2.534  0.2538 -0.1389 -0.2671
  261SOL    HW1  782   0.744   0.351   2.627  2.2885  2.3273  3.6815
  261SOL    HW2  783   0.728   0.224   2.520  0.3145  1.5766  0.6532
  262SOL     OW  784   1.097   2.354   2.202  0.0487  0.4114  0.0438
  262SOL    HW1  785   1.011   2.412   2.215 -1.2631 -0.1871 -1.4270
  262SOL    HW2  786   1.137   2.365   2.108  1.1462 -1.7610 -0.2674
  263SOL     OW  787   0.409   2.121   3.048  0.0237  0.1849  0.2808
  263SOL    HW1  788   0.497   2.122   0.015 -0.3660 -0.3825  1.0672
  263SOL    HW2  789   0.379   2.025   3.040 -0.1439 -1.8418  1.2295
  264SOL     OW  790   0.942   1.474   1.080  0.2680 -0.5184 -0.1385
  264SOL    HW1  791   0.952   1.459   0.979  0.7464  0.5830  2.4256
  264SOL    HW2  792   0.975   1.399   1.139 -0.2974  2.6399  0.3948
  265SOL     OW  793   1.063   2.340   0.511 -1.2073  0.0796  0.0050
  265SOL    HW1  794   1.070   2.242   0.480  0.9326 -1.0821  0.7362
  265SOL    HW2  795   1.138   2.358   0.580  1.1442  1.3809  0.2490
  266SOL     OW  796   2.347   0.622   1.111 -0.4497  0.2665  0.3504
  266SOL    HW1  797   2.445   0.596   1.118 -0.5984  1.6903 -2.2485
  266SOL    HW2  798   2.348   0.701   1.048 -1.4467 -2.6386  2.1548
  267SOL     OW  799   2.876   1.236   2.719 -0.5971  0.2709 -0.2294
  267SOL    HW1  800   2.909   1.233   2.817 -0.1767 -0.3528  1.1352
  267SOL    HW2  801   2.937   1.169   2.669  0.9268 -2.9336  1.4175
  268SOL     OW  802   1.489   0.034   0.147 -0.2025  0.0698  0.2183
  268SOL    HW1  803   1.536   3.082   0.231 -1.1185  2.6648  2.0514
  268SOL    HW2  804   1.548   0.075   0.078 -1.3008 -1.9526  4.4372
  269SOL     OW  805   2.982   0.834   2.499 -0.3475  0.3105  0.3187
  269SOL    HW1  806   2.978   0.821   2.398 -0.3907 -2.5042 -0.0548
  269SOL    HW2  807   3.052   0.770   2.538  0.9302  2.3102  1.0034
  270SOL     OW  808   2.942   1.170   2.975  0.1733  0.5068  0.8497
  270SOL    HW1  809   2.985   1.214   3.056  0.0630  0.8334 -1.5000
  270SOL    HW2  810   2.984   1.081   2.954 -3.2801  1.2451  0.4963
  271SOL     OW  811   2.639   1.594   2.465 -0.1692  0.0493  0.3615
  271SOL    HW1  812   2.609   1.628   2.550  0.0145 -1.0139 -1.3146
  271SOL    HW2  813   2.582   1.512   2.437 -1.1265 -2.0238  1.0656
  272SOL     OW  814   2.545   2.577   1.929 -0.5983 -0.0338  0.0735
  272SOL    HW1  815   2.457   2.628   1.945  1.8621 -2.1594  0.8651
  272SOL    HW2  816   2.615   2.605   1.998  2.5873 -2.9532 -1.1373
  273SOL     OW  817   0.235   2.503   0.118 -0.3123  0.1388 -0.0244
  273SOL    HW1  818   0.236   2.576   0.190 -0.1947 -0.6131  0.1901
  273SOL    HW2  819   0.150   2.507   0.062  1.8555  1.4915  1.2822
  274SOL     OW  820   0.730   2.317   0.867  0.3232 -0.5264 -0.0797
  274SOL    HW1  821   0.771   2.319   0.771 -0.7052 -0.0895 -1.0354
  274SOL    HW2  822   0.776   2.387   0.923 -0.8500  0.3340 -0.5612
  275SOL     OW  823   2.314   1.500   0.024  0.2279  0.5534  0.3328
  275SOL    HW1  824   2.330   1.594   3.066  0.5074 -0.3623  3.2534
  275SOL    HW2  825   2.293   1.423   3.045  0.2040  0.5521 -0.1261
  276SOL     OW  826   2.569   1.629   1.291 -0.0158  0.0702  0.1888
  276SOL    HW1  827   2.530   1.653   1.382  1.7538 -0.0676  0.0709
  276SOL    HW2  828   2.651   1.570   1.301  2.3101 -1.4714  0.3805
  277SOL     OW  829   2.259   0.279   0.839  0.3931 -0.2226 -0.3462
  277SOL    HW1  830   2.178   0.340   0.821 -0.7380 -0.5361  2.0942
  277SOL    HW2  831   2.243   0.184   0.798 -0.6497 -2.1332  0.0625
  278SOL     OW  832   1.733   0.464   2.507 -0.5545 -0.0033 -0.6506
  278SOL    HW1  833   1.727   0.520   2.591 -2.8763  1.3529 -2.2513
  278SOL    HW2  834   1.661   0.394   2.504  1.5781  0.2620  2.0550
  279SOL     OW  835   1.417   2.600   1.365  0.3019  0.4643 -0.2444
  279SOL    HW1  836   1.511   2.563   1.346  0.7489  0.1174 -0.7909
  279SOL    HW2  837   1.398   2.669   1.291 -1.7660  2.7852  1.4078
  280SOL     OW  838   1.043   0.879   0.394  0.4156  0.5289  0.0454
  280SOL    HW1  839   1.001   0.795   0.426 -1.7437  1.1583 -2.4751
  280SOL    HW2  840   1.074   0.947   0.464  0.7106 -1.5238 -1.4501
  281SOL     OW  841   2.524   1.657   2.717 -0.2349 -0.1363 -0.2686
  281SOL    HW1  842   2.609   1.713   2.740  0.4121 -0.7556 -0.1383
  281SOL    HW2  843   2.439   1.717   2.734  0.1803 -0.7586 -5.1022
  282SOL     OW  844   2.677   1.361   3.016  0.3549  0.4000 -0.1708
  282SOL    HW1  845   2.629   1.368   0.024 -3.9347  0.8264  2.9567
  282SOL    HW2  846   2.759   1.300   3.013 -0.2567 -1.9309 -0.3596
  283SOL     OW  847   1.565   2.815   2.668  0.6646  0.3427  0.3861
  283SOL    HW1  848   1.554   2.750   2.594 -2.4412  3.3460  1.5105
  283SOL    HW2  849   1.519   2.795   2.754 -1.4601 -0.8626  1.3365
  284SOL     OW  850   0.717   0.158   2.848  0.1271  0.3259 -0.3394
  284SOL    HW1  851   0.692   0.252   2.820  1.1520 -2.1389  1.4626
  284SOL    HW2  852   0.802   0.167   2.902  0.5987 -0.1360  2.5392
  285SOL     OW  853   1.805   2.074   2.506 -0.3184 -0.3849 -0.3924
  285SOL    HW1  854   1.850   2.026   2.434 -0.1863  1.2594  1.4535
  285SOL    HW2  855   1.873   2.136   2.549 -0.2096 -2.2356  1.5848
  286SOL     OW  856   1.158   1.698   0.810  0.2810  0.2855 -0.4523
  286SOL    HW1  857   1.083   1.703   0.744 -0.0411  1.5698  0.3562
  286SOL    HW2  858   1.134   1.743   0.902 -2.1486  1.0884  0.7904
  287SOL     OW  859   1.719   0.462   1.425  0.3019 -0.1542  0.3222
  287SOL    HW1  860   1.667   0.410   1.493  1.4227  0.5139 -1.2424
  287SOL    HW2  861   1.725   0.560   1.454  1.6491  1.5093 -0.4145
  288SOL     OW  862   0.665   2.656   2.346 -0.1608 -0.2647  0.0635
  288SOL    HW1  863   0.741   2.704   2.397 -1.3351 -1.1338 -3.9310
  288SOL    HW2  864   0.613   2.727   2.294 -2.5180 -0.0285  1.5283
  289SOL     OW  865   0.150   0.978   0.766 -0.5038  0.0442 -0.1472
  289SOL    HW1  866   0.149   1.069   0.807  1.2947 -0.0342  2.0162
  289SOL    HW2  867   0.054   0.938   0.760 -1.4686 -2.0043  0.4346
  290SOL     OW  868   1.127   2.116   1.360 -0.5900 -0.5076  0.2649
  290SOL    HW1  869   1.165   2.102   1.265  1.7638 -0.5973 -2.3366
  290SOL    HW2  870   1.066   2.034   1.379 -0.4165 -0.1163 -3.4677
  291SOL     OW  871   1.867   2.892   0.716 -0.1206 -0.3808 -0.1326
  291SOL    HW1  872   1.833   2.971   0.770 -0.7913  3.6651  2.6652
  291SOL    HW2  873   1.796   2.854   0.655  0.6394 -2.3648 -0.3485
  292SOL     OW  874   0.471   0.360   1.617  0.0224  0.2229 -0.1414
  292SOL    HW1  875   0.413   0.403   1.547  0.0936 -1.3317 -1.5855
  292SOL    HW2  876   0.422   0.361   1.705  1.7614 -3.2687  2.7132
  293SOL     OW  877   2.319   1.671   0.887  0.1742  0.5295  0.2254
  293SOL    HW1  878   2.393   1.735   0.874  0.8158  1.4649 -0.3463
  293SOL    HW2  879   2.269   1.653   0.798  1.2922  0.9360  0.5715
  294SOL     OW  880   0.846   0.201   2.133  0.5099  0.5693 -0.4139
  294SOL    HW1  881   0.934   0.169   2.169 -3.5322  3.1423  0.7431
  294SOL    HW2  882   0.774   0.134   2.161 -3.1099 -0.0020 -1.5246
  295SOL     OW  883   0.866   1.152   0.617 -0.0865 -0.4050  0.2774
  295SOL    HW1  884   0.819   1.210   0.691 -0.4408  1.7997  0.5681
  295SOL    HW2  885   0.808   1.070   0.595  1.8819  1.2518 -0.3034
  296SOL     OW  886   2.120   1.916   0.981 -0.1244  0.5557 -0.0536
  296SOL    HW1  887   2.115   1.816   1.000  1.6582 -4.6978  1.9540
  296SOL    HW2  888   2.180   1.925   0.897  0.5333  1.8451 -1.3489
  297SOL     OW  889   1.969   0.222   2.783 -0.0954 -0.0530 -0.2306
  297SOL    HW1  890   1.972   0.251   2.682 -0.5357  0.1672 -1.8466
  297SOL    HW2  891   1.997   0.301   2.841 -0.9412 -0.4751 -1.8834
  298SOL     OW  892   1.269   3.075   2.643 -0.1206 -0.0139  0.3345
  298SOL    HW1  893   1.343   3.070   2.575 -1.6609 -2.2494 -2.0525
  298SOL    HW2  894   1.302   0.014   2.739  0.4465  0.3282  2.2845
  299SOL     OW  895   1.229   0.071   2.168 -0.4926 -0.1946 -0.3064
  299SOL    HW1  896   1.266   0.136   2.239  1.9447  0.4797 -1.8505
  299SOL    HW2  897   1.227   3.055   2.201  2.1570 -3.0028 -1.9172
  300SOL     OW  898   2.638   0.133   1.635  1.2866  0.4567  0.0023
  300SOL    HW1  899   2.726   0.180   1.627 -0.5954  0.8732 -0.1455
  300SOL    HW2  900   2.569   0.202   1.665 -0.9418  0.3823 -2.1489
  301SOL     OW  901   2.491   0.378   1.734  0.0544 -0.0767 -0.0082
  301SOL    HW1  902   2.503   0.466   1.778  0.4134 -3.2337  1.3280
  301SOL    HW2  903   2.468   0.401   1.636  0.8585 -1.2882 -0.3974
  302SOL     OW  904   0.803   2.655   0.216 -0.2845  0.3328  0.2766
  302SOL    HW1  905   0.845   2.654   0.308  0.0024 -1.8621 -1.2590
  302SOL    HW2  906   0.776   2.748   0.187  1.9604  0.3151 -2.3895
  303SOL     OW  907   1.606   1.893   1.537 -0.5450  0.1005 -0.4611
  303SOL    HW1  908   1.529   1.958   1.529  1.1594  0.1333  1.1235
  303SOL    HW2  909   1.645   1.878   1.447 -1.4697 -0.4831  0.8228
  304SOL     OW  910   0.495   0.354   0.939 -0.2822  0.2523  0.3093
  304SOL    HW1  911   0.449   0.342   1.028  0.2883 -2.2531  0.2191
  304SOL    HW2  912   0.550   0.441   0.935  0.8804  1.1075  1.2572
  305SOL     OW  913   1.050   0.669   0.793  0.3083 -0.2238  0.8135
  305SOL    HW1  914   1.042   0.666   0.894 -0.5998 -0.7506  1.0872
  305SOL    HW2  915   1.140   0.640   0.758  0.0481  0.9251 -0.0248
  306SOL     OW  916   0.557   1.207   2.792  0.0040 -0.1662 -0.3900
  306SOL    HW1  917   0.641   1.198   2.737 -0.1797 -1.2531 -0.5272
  306SOL    HW2  918   0.573   1.185   2.891 -3.9738 -2.3455 -2.0082
  307SOL     OW  919   1.140   0.187   1.943  0.3160 -0.1031  0.2703
  307SOL    HW1  920   1.229   0.221   1.906 -2.0582 -1.8561 -0.6917
  307SOL    HW2  921   1.149   0.154   2.038 -0.4052  2.1752  0.3177
  308SOL     OW  922   0.784   0.264   0.831 -0.3928 -0.3530  0.0411
  308SOL    HW1  923   0.708   0.335   0.843  0.5829 -0.8732  1.0168
  308SOL    HW2  924   0.806   0.252   0.734  1.7453  0.2588 -2.3041
  309SOL     OW  925   2.366   0.956   0.490  0.0899 -0.2729  0.3107
  309SOL    HW1  926   2.293   0.994   0.551 -1.6932  1.3226 -0.6283
  309SOL    HW2  927   2.448   0.939   0.548 -0.4390 -0.0168 -0.0234
  310SOL     OW  928   0.975   1.445   2.926 -0.7394 -0.0055  0.2693
  310SOL    HW1  929   1.076   1.467   2.917  4.3646  0.7302 -0.1535
  310SOL    HW2  930   0.959   1.386   3.008  0.3022  2.7675  0.1105
  311SOL     OW  931   2.090   2.521   2.004 -0.1788  0.0044  0.1251
  311SOL    HW1  932   2.085   2.569   1.910 -0.4649  0.2343 -0.9919
  311SOL    HW2  933   2.062   2.588   2.080 -1.9415  0.5648  1.3905
  312SOL     OW  934   2.123   2.499   2.984 -0.3723  0.6239 -0.1947
  312SOL    HW1  935   2.073   2.410   2.986 -1.1038 -5.6973  1.9345
  312SOL    HW2  936   2.063   2.572   2.939  0.4737 -0.9633 -1.0664
  313SOL     OW  937   0.408   0.174   3.059  0.1197 -0.1305 -0.6342
  313SOL    HW1  938   0.415   0.275   3.073 -1.1077 -0.4696 -0.8586
  313SOL    HW2  939   0.382   0.156   2.960 -1.4232 -0.9469  0.2835
  314SOL     OW  940   2.412   1.411   2.702  0.4731 -0.5643  0.1310
  314SOL    HW1  941   2.475   1.340   2.744  1.7532 -1.4826 -0.0558
  314SOL    HW2  942   2.453   1.504   2.717 -0.3343 -0.6862  0.9702
  315SOL     OW  943   1.913   0.575   2.352 -0.1822  0.1615 -0.4335
  315SOL    HW1  944   1.842   0.531   2.409  1.9387 -0.0674  2.9206
  315SOL    HW2  945   1.986   0.614   2.406 -2.2978 -0.0468 -0.3284
  316SOL     OW  946   2.926   1.122   0.606  0.4371 -0.0049  0.0560
  316SOL    HW1  947   2.909   1.029   0.645 -2.3479  0.0912 -2.4947
  316SOL    HW2  948   2.888   1.133   0.513 -1.2067  3.0008 -0.9157
  317SOL     OW  949   0.728   2.925   0.201  0.0530  0.5811 -0.7284
  317SOL    HW1  950   0.667   2.887   0.274  2.2510  0.2725  0.6291
  317SOL    HW2  951   0.673   2.975   0.129  1.3642 -2.1560  1.8742
  318SOL     OW  952   2.008   2.530   1.333 -0.2233 -0.4324  0.0374
  318SOL    HW1  953   2.035   2.548   1.431 -0.8978  1.6387  0.1403
  318SOL    HW2  954   2.013   2.608   1.266  0.5979  1.3456 -0.3090
  319SOL     OW  955   1.384   1.738   0.218  0.2098  0.1544  0.1269
  319SOL    HW1  956   1.420   1.730   0.310 -4.1111  2.1238 -1.2626
  319SOL    HW2  957   1.283   1.750   0.227 -1.2344  0.1691  2.5408
  320SOL     OW  958   0.478   1.677   0.925 -0.2779 -0.3715  0.4620
  320SOL    HW1  959   0.427   1.759   0.883 -2.0644 -0.0049 -0.6006
  320SOL    HW2  960   0.429   1.587   0.925  5.6091  0.3991  1.5440
  321SOL     OW  961   2.088   2.721   1.806 -0.1011  0.1923 -0.2650
  321SOL    HW1  962   2.170   2.749   1.861  1.1454 -0.4550 -2.9164
  321SOL    HW2  963   2.021   2.794   1.805  1.5219  0.2599  1.2016
  322SOL     OW  964   1.996   2.068   2.262 -0.4554 -0.2687 -0.1090
  322SOL    HW1  965   1.955   2.145   2.210 -0.0365  3.7982  0.9533
  322SOL    HW2  966   2.029   1.995   2.204 -2.5183  1.3089 -0.3247
  323SOL     OW  967   2.541   0.272   0.789  0.0323 -0.2020  0.2396
  323SOL    HW1  968   2.441   0.276   0.794 -0.3039 -0.4082  1.4863
  323SOL    HW2  969   2.573   0.309   0.700 -0.4387  2.2323  1.9339
  324SOL     OW  970   2.708   2.354   2.414 -0.2640 -0.4372 -0.0020
  324SOL    HW1  971   2.705   2.269   2.359 -1.6968 -0.8190  2.8988
  324SOL    HW2  972   2.756   2.334   2.505  0.0308 -0.3931  1.0976
  325SOL     OW  973   1.222   0.481   2.649 -0.2462 -0.2014 -0.3050
  325SOL    HW1  974   1.177   0.574   2.652  0.4330  2.4387 -2.5956
  325SOL    HW2  975   1.162   0.408   2.669  1.4062  3.3720 -0.5804
  326SOL     OW  976   2.577   2.323   1.044 -0.3764  0.2689 -0.2698
  326SOL    HW1  977   2.611   2.251   0.977 -1.6978 -2.2938 -2.0435
  326SOL    HW2  978   2.518   2.394   1.003 -0.9497  1.6445  1.5915
  327SOL     OW  979   2.346   2.910   0.274  0.5292  0.0464  0.3675
  327SOL    HW1  980   2.402   2.994   0.255 -0.9180 -1.9155 -3.0152
  327SOL    HW2  981   2.385   2.839   0.215 -0.1719  2.4618  1.1836
  328SOL     OW  982   0.605   0.731   1.144  0.4859  0.6189 -0.0124
  328SOL    HW1  983   0.628   0.675   1.227  0.0240 -0.7499  0.0086
  328SOL    HW2  984   0.660   0.817   1.144 -1.9139  0.9969 -1.9368
  329SOL     OW  985   2.056   0.503   1.482 -0.5311 -0.1711  0.5181
  329SOL    HW1  986   2.082   0.504   1.580 -2.8086  1.3337 -0.0742
  329SOL    HW2  987   2.119   0.449   1.425 -2.6624 -0.0855 -2.3862
  330SOL     OW  988   0.622   0.447   0.477 -0.2666 -0.3496  0.2008
  330SOL    HW1  989   0.640   0.542   0.439  1.6912  0.1766 -4.3116
  330SOL    HW2  990   0.669   0.379   0.418  1.5972  0.1966 -0.5965
  331SOL     OW  991   0.838   2.027   1.685 -0.4003  0.4103  0.1036
  331SOL    HW1  992   0.754   2.028   1.743 -0.6833 -0.7166  3.2029
  331SOL    HW2  993   0.827   2.090   1.602  2.0060  0.2475 -0.5773
  332SOL     OW  994   2.507   2.550   1.670  0.2313  0.0840  0.3384
  332SOL    HW1  995   2.575   2.474   1.646  2.1829 -1.2735 -0.4798
  332SOL    HW2  996   2.515   2.574   1.771  0.7824  2.9654  0.4693
  333SOL     OW  997   0.066   3.066   0.907  0.1040  0.0315 -0.2575
  333SOL    HW1  998   0.123   0.038   0.967 -1.7983 -1.5761 -3.1224
  333SOL    HW2  999   3.050   3.074   0.940 -2.0727 -0.6977  0.5501
  334SOL     OW 1000   2.935   1.434   0.347 -0.1147  0.1575  0.6222
  334SOL    HW1 1001   2.838   1.416   0.371  0.6068  1.8481  0.0627
  334SOL    HW2 1002   2.986   1.439   0.432 -2.7531  0.4786 -2.0099
  335SOL     OW 1003   0.445   2.463   2.672 -0.5360 -0.1130  0.4308
  335SOL    HW1 1004   0.509   2.542   2.688  2.2868  2.9332  0.1394
  335SOL    HW2 1005   0.345   2.485   2.678  0.0473 -0.0721 -1.5176
  336SOL     OW 1006   0.016   2.796   1.951 -0.2235 -0.0123 -0.3739
  336SOL    HW1 1007   0.021   2.697   1.967 -0.9274 -0.1429  1.1512
  336SOL    HW2 1008   0.029   2.847   2.035  1.7190 -1.0110 -1.7832
  337SOL     OW 1009   1.299   2.010   1.697  0.1458 -0.3243  0.4850
  337SOL    HW1 1010   1.209   2.055   1.714  1.3312  1.5180 -1.4660
  337SOL    HW2 1011   1.335   1.976   1.787 -0.8092  1.6076 -0.0434
  338SOL     OW 1012   0.991   0.013   2.578  0.3802 -0.1461 -0.0721
  338SOL    HW1 1013   0.969   0.022   2.475  1.1412  3.8019 -3.0511
  338SOL    HW2 1014   1.090   3.069   2.589  0.0831  0.8169 -0.8478
  339SOL     OW 1015   0.335   0.936   2.378  0.1461  0.3474 -0.0041
  339SOL    HW1 1016   0.358   1.005   2.307 -1.5746 -0.0036 -0.3643
  339SOL    HW2 1017   0.260   0.875   2.347 -2.7227  0.0578  0.2438
  340SOL     OW 1018   2.219   0.334   1.342  0.4180 -0.1411 -0.4054
  340SOL    HW1 1019   2.262   0.343   1.252 -0.0266 -0.1954 -0.3846
  340SOL    HW2 1020   2.191   0.239   1.355 -0.0421  0.5857 -0.5850
  341SOL     OW 1021   2.347   1.366   0.964  0.4236 -0.1986 -0.3732
  341SOL    HW1 1022   2.254   1.401   0.986 -0.7189 -0.3545  2.7919
  341SOL    HW2 1023   2.388   1.333   1.051  1.6344  1.6092 -0.3039
  342SOL     OW 1024   1.912   2.629   2.879 -0.1635 -0.1102 -0.1268
  342SOL    HW1 1025   1.901   2.631   2.780  0.1121  0.5347  2.1088
  342SOL    HW2 1026   1.827   2.636   2.931  1.7684  1.2447 -2.0750
  343SOL     OW 1027   0.128   2.520   1.235  0.4046 -0.7180 -0.1143
  343SOL    HW1 1028   0.111   2.421   1.249 -2.0757 -0.3854 -0.4147
  343SOL    HW2 1029   0.220   2.531   1.190  1.0335  1.6879  0.9107
  344SOL     OW 1030   2.495   2.763   1.299 -0.0329 -0.2902 -0.4904
  344SOL    HW1 1031   2.539   2.674   1.308  1.4323  1.0306  0.4778
  344SOL    HW2 1032   2.486   2.821   1.379 -0.2889 -1.9824 -2.4568
  345SOL     OW 1033   2.455   2.176   0.261  0.2639 -0.6767  0.7186
  345SOL    HW1 1034   2.554   2.161   0.286 -0.6529  1.5958 -0.3433
  345SOL    HW2 1035   2.420   2.268   0.293 -1.1351  4.0099  4.9245
  346SOL     OW 1036   1.612   2.247   1.487  0.3734  0.6683  0.9487
  346SOL    HW1 1037   1.544   2.188   1.440  2.4916  0.3148 -0.3685
  346SOL    HW2 1038   1.570   2.282   1.568  2.7120 -1.8554 -2.5745
  347SOL     OW 1039   0.961   1.887   1.368  0.3612  0.2131 -0.5893
  347SOL    HW1 1040   0.979   1.842   1.458  2.7491 -0.4626  1.4485
  347SOL    HW2 1041   0.936   1.815   1.295  0.9261 -0.9918  1.7185
  348SOL     OW 1042   0.251   2.069   1.960  0.1518  0.1464 -0.2934
  348SOL    HW1 1043   0.341   2.027   1.974 -1.1395  0.9044  0.1808
  348SOL    HW2 1044   0.193   2.025   1.886 -0.5325  0.2362 -0.9380
  349SOL     OW 1045   1.467   1.647   1.616  0.4261  0.0525 -0.1069
  349SOL    HW1 1046   1.464   1.613   1.715 -1.6771 -0.7540  1.3301
  349SOL    HW2 1047   1.517   1.734   1.609  0.4572 -0.0479 -1.6501
  350SOL     OW 1048   2.054   2.289   0.500  0.4780 -0.1339  0.4713
  350SOL    HW1 1049   2.059   2.266   0.400  0.4870 -0.1129 -2.2491
  350SOL    HW2 1050   2.120   2.365   0.523  1.5817 -0.8566 -0.1675
  351SOL     OW 1051   0.634   2.963   1.790  1.2335  0.1681  0.1301
  351SOL    HW1 1052   0.643   3.054   1.834 -0.3783  0.4958 -0.9449
  351SOL    HW2 1053   0.588   2.973   1.700  0.7479 -0.6019 -1.0180
  352SOL     OW 1054   0.808   0.765   0.781 -0.2765 -0.4336  0.1992
  352SOL    HW1 1055   0.793   0.854   0.831 -0.7674  2.0465 -0.3269
  352SOL    HW2 1056   0.902   0.727   0.805  0.0054 -1.0792 -0.1780
  353SOL     OW 1057   1.199   1.873   2.545 -0.2649  0.1429  0.3785
  353SOL    HW1 1058   1.176   1.902   2.449  0.2701  1.4336  0.0255
  353SOL    HW2 1059   1.112   1.848   2.593  1.8079 -1.4008 -0.5714
  354SOL     OW 1060   1.768   2.617   2.039 -0.0790 -0.2298 -0.3685
  354SOL    HW1 1061   1.846   2.653   2.099 -1.3919  0.4232 -1.9127
  354SOL    HW2 1062   1.732   2.691   1.974 -1.3946  2.4863 -3.5121
  355SOL     OW 1063   2.020   1.295   0.289 -0.1115  0.0720 -0.3493
  355SOL    HW1 1064   2.074   1.379   0.266 -0.2057  3.2614  2.2095
  355SOL    HW2 1065   1.976   1.258   0.208  2.2855  2.0375  0.6692
  356SOL     OW 1066   0.227   1.825   1.176 -0.0569 -0.0579 -0.3207
  356SOL    HW1 1067   0.207   1.744   1.118  0.8575  0.6847  1.0673
  356SOL    HW2 1068   0.145   1.889   1.181  1.4032  1.8933  0.1089
  357SOL     OW 1069   0.269   2.936   1.217  0.3014  0.2721  0.1169
  357SOL    HW1 1070   0.182   2.984   1.233 -1.5111 -1.5301  0.2053
  357SOL    HW2 1071   0.311   2.952   1.129  0.6238  1.7877 -1.1998
  358SOL     OW 1072   2.157   1.763   1.353  0.1247 -0.0366  0.5457
  358SOL    HW1 1073   2.224   1.828   1.390 -0.3411 -0.3959  0.9077
  358SOL    HW2 1074   2.194   1.722   1.268  0.6452  1.3020 -0.1082
  359SOL     OW 1075   2.287   3.027   2.666  0.2635 -0.0515 -0.2282
  359SOL    HW1 1076   2.376   2.984   2.691  1.6919  0.1242  0.7935
  359SOL    HW2 1077   2.214   2.960   2.675  1.9115 -1.5615  0.2649
  360SOL     OW 1078   0.950   2.710   0.843  0.1981  0.0120  0.5096
  360SOL    HW1 1079   0.864   2.705   0.896  0.3172  0.8546 -0.5478
  360SOL    HW2 1080   1.030   2.670   0.888 -1.1614 -1.3830 -0.1356
  361SOL     OW 1081   1.851   0.450   0.384 -0.5279  0.1626 -0.2001
  361SOL    HW1 1082   1.929   0.459   0.322 -2.4798  1.5298 -1.0898
  361SOL    HW2 1083   1.872   0.505   0.468 -2.2049  0.7472  1.0972
  362SOL     OW 1084   1.309   0.940   0.968  0.0646  0.2510  0.9313
  362SOL    HW1 1085   1.306   0.843   0.991 -0.4928 -0.2346  0.2116
  362SOL    HW2 1086   1.373   1.000   1.021  0.5605 -1.2940 -0.8806
  363SOL     OW 1087   2.345   1.415   2.155 -0.0813 -0.3406 -0.0050
  363SOL    HW1 1088   2.320   1.458   2.243 -1.5148  1.2300 -3.5237
  363SOL    HW2 1089   2.324   1.469   2.077  0.0042  0.5963  5.5125
  364SOL     OW 1090   0.439   0.711   1.436 -0.2331  0.1395  0.0995
  364SOL    HW1 1091   0.376   0.714   1.355 -0.8561  1.5011  1.8190
  364SOL    HW2 1092   0.527   0.658   1.419  2.1518  0.8872 -1.6651
  365SOL     OW 1093   0.597   0.098   2.460 -0.2846  0.1015 -0.1605
  365SOL    HW1 1094   0.579   0.058   2.554 -0.1904 -0.3204  0.2455
  365SOL    HW2 1095   0.592   0.023   2.393 -1.5412  0.3785  0.2904
  366SOL     OW 1096   2.227   2.127   2.408  0.3721 -0.3111 -0.4514
  366SOL    HW1 1097   2.140   2.094   2.358 -2.2162  0.2702 -1.6953
  366SOL    HW2 1098   2.294   2.054   2.415 -2.1353  1.6833 -1.7298
  367SOL     OW 1099   2.678   2.484   0.102  0.4326 -0.2091 -0.2183
  367SOL    HW1 1100   2.684   2.547   0.186 -2.2521  2.5916  1.1781
  367SOL    HW2 1101   2.679   2.544   0.020  0.5394 -1.8745  1.3394
  368SOL     OW 1102   2.757   1.293   1.014  0.0312  0.7190  0.0651
  368SOL    HW1 1103   2.713   1.312   1.103  0.8801  0.0962 -2.1288
  368SOL    HW2 1104   2.710   1.344   0.940  2.1242 -1.1008  0.7596
  369SOL     OW 1105   0.884   2.754   2.467 -0.0152  0.0605  0.3132
  369SOL    HW1 1106   0.956   2.802   2.418  0.9888 -2.2358 -1.6663
  369SOL    HW2 1107   0.911   2.755   2.569  2.5496  0.3108  1.3972
  370SOL     OW 1108   2.682   0.146   0.407 -0.1145 -0.1409 -0.3579
  370SOL    HW1 1109   2.728   0.176   0.326  1.2799 -0.4213  2.1634
  370SOL    HW2 1110   2.653   0.228   0.460  0.1001  0.1212  0.5561
  371SOL     OW 1111   1.328   2.126   1.124 -0.3937 -0.3325  0.0586
  371SOL    HW1 1112   1.323   2.232   1.143 -0.6718  0.5143 -2.3387
  371SOL    HW2 1113   1.265   2.104   1.043 -2.0104 -1.8549  0.8064
  372SOL     OW 1114   0.091   0.672   2.633  0.4261  0.5842 -0.1459
  372SOL    HW1 1115   0.025   0.619   2.691 -0.7023 -1.7429  2.8009
  372SOL    HW2 1116   0.132   0.612   2.557  1.3668 -3.1831  1.2370
  373SOL     OW 1117   2.728   1.906   0.971 -0.1798  0.5526 -0.2922
  373SOL    HW1 1118   2.749   2.005   0.971  1.4830  1.0892  2.2308
  373SOL    HW2 1119   2.698   1.877   1.062 -0.4040  0.2778 -0.2640
  374SOL     OW 1120   0.399   2.855   2.447 -0.1211  0.4835 -0.5518
  374SOL    HW1 1121   0.427   2.810   2.538  0.7255 -1.4916  0.6376
  374SOL    HW2 1122   0.470   2.919   2.412 -0.9876  0.6456  1.8877
  375SOL     OW 1123   0.568   3.069   2.701  0.3102 -0.6937  0.2971
  375SOL    HW1 1124   0.562   2.971   2.709 -2.9986  5.6569 -1.1506
  375SOL    HW2 1125   0.637   0.015   2.767  0.9650 -2.6547 -0.8078
  376SOL     OW 1126   2.753   2.191   1.812  0.3486  0.7827 -0.3548
  376SOL    HW1 1127   2.764   2.093   1.844  0.3339 -1.8565 -0.1444
  376SOL    HW2 1128   2.652   2.216   1.823 -2.2970  2.1391 -0.4759
  377SOL     OW 1129   1.633   2.345   2.905  0.0379 -0.4801  0.0934
  377SOL    HW1 1130   1.653   2.441   2.935 -1.7262  1.0529  0.1614
  377SOL    HW2 1131   1.546   2.309   2.949 -0.7125 -0.7433 -0.9734
  378SOL     OW 1132   3.081   0.307   2.311 -0.3690 -0.1856 -0.0122
  378SOL    HW1 1133   0.090   0.274   2.346 -0.1535  0.2672 -2.2046
  378SOL    HW2 1134   3.046   0.374   2.379  0.5367  2.7863 -0.6570
  379SOL     OW 1135   0.438   0.772   0.467 -0.2678  0.2417  0.7083
  379SOL    HW1 1136   0.427   0.685   0.524  1.3562 -2.4242  1.9305
  379SOL    HW2 1137   0.360   0.828   0.500  1.3570 -2.6921  2.5006
  380SOL     OW 1138   0.243   1.595   1.900  0.0306  0.0229  0.4867
  380SOL    HW1 1139   0.308   1.548   1.838 -3.0984  1.6575 -2.6945
  380SOL    HW2 1140   0.298   1.647   1.964 -1.0499 -0.5710 -1.9784
  381SOL     OW 1141   0.658   1.161   1.959  0.3182 -0.2888 -0.2121
  381SOL    HW1 1142   0.646   1.090   2.035 -1.8706  0.0630  0.1251
  381SOL    HW2 1143   0.672   1.111   1.865  1.3668 -0.9028 -0.3491
  382SOL     OW 1144   2.414   1.922   0.362  0.3718  0.1472  0.2407
  382SOL    HW1 1145   2.404   2.005   0.305  0.3267  0.0093  1.4002
  382SOL    HW2 1146   2.331   1.900   0.415  0.9677  1.5092 -1.6042
  383SOL     OW 1147   0.442   1.814   0.019  0.3929  0.2269  0.4155
  383SOL    HW1 1148   0.502   1.842   0.098  2.0579 -1.4279  0.7593
  383SOL    HW2 1149   0.494   1.750   3.043 -1.1202 -0.2317  2.0148
  384SOL     OW 1150   0.831   2.122   2.711  0.1118 -0.5808  0.1831
  384SOL    HW1 1151   0.811   2.061   2.628 -1.2662 -1.9800 -4.1975
  384SOL    HW2 1152   0.742   2.155   2.748 -1.1679 -1.3428  1.1702
  385SOL     OW 1153   2.104   2.029   0.603 -0.2274  0.0917  0.2373
  385SOL    HW1 1154   2.173   2.013   0.675  0.7333 -0.4970  2.3927
  385SOL    HW2 1155   2.100   2.128   0.572 -1.1871  3.0765 -2.6706
  386SOL     OW 1156   2.121   0.974   1.549 -0.2302  0.1043 -0.0149
  386SOL    HW1 1157   2.199   0.913   1.532 -3.9032 -2.3192 -0.3816
  386SOL    HW2 1158   2.128   1.021   1.640  1.5159  0.5200 -0.2596
  387SOL     OW 1159   2.716   1.456   2.178  0.1199  0.3806 -0.2479
  387SOL    HW1 1160   2.643   1.422   2.247 -0.3269 -1.7924  2.0885
  387SOL    HW2 1161   2.811   1.460   2.216  0.7222  0.5257  2.8705
  388SOL     OW 1162   0.392   1.731   2.113 -0.2178 -0.4040 -0.3094
  388SOL    HW1 1163   0.470   1.666   2.120 -1.2601 -0.2959  0.0244
  388SOL    HW2 1164   0.424   1.819   2.069 -1.4049  1.3150 -1.0787
  389SOL     OW 1165   1.259   1.096   1.831  0.3198 -0.2057  0.4435
  389SOL    HW1 1166   1.195   1.022   1.806  0.6451 -0.9046  2.4605
  389SOL    HW2 1167   1.335   1.061   1.891  0.4463 -1.3568  0.1503
  390SOL     OW 1168   2.016   0.149   1.054  0.1515  0.5900 -0.0423
  390SOL    HW1 1169   1.960   0.188   1.129 -0.5779 -1.6089 -0.2539
  390SOL    HW2 1170   2.050   0.222   0.990  3.0099 -2.2426  0.6021
  391SOL     OW 1171   1.782   1.604   1.219 -0.4394 -0.1793  0.2701
  391SOL    HW1 1172   1.826   1.528   1.269 -0.0913 -3.3056 -1.5876
  391SOL    HW2 1173   1.729   1.565   1.142  0.2809  0.4365  1.4320
  392SOL     OW 1174   2.616   2.770   0.537  0.2058 -0.2131 -0.0106
  392SOL    HW1 1175   2.541   2.832   0.564  1.1937 -0.0813  1.1217
  392SOL    HW2 1176   2.685   2.832   0.502 -3.1103 -1.9232  1.7076
  393SOL     OW 1177   1.999   2.241   2.648 -0.0013 -0.5497 -0.2021
  393SOL    HW1 1178   1.954   2.193   2.722  1.4218  0.0909 -1.3859
  393SOL    HW2 1179   2.092   2.275   2.672 -0.6230 -2.4913  1.7600
  394SOL     OW 1180   0.175   2.582   2.637  0.3470 -0.0759  0.0779
  394SOL    HW1 1181   0.115   2.590   2.725 -0.6018  2.4442  3.3584
  394SOL    HW2 1182   0.156   2.502   2.582  0.8151  1.8014  0.1877
  395SOL     OW 1183   0.420   0.125   0.795  0.0448  0.1813 -0.3212
  395SOL    HW1 1184   0.325   0.164   0.766 -0.0186  3.5193  0.3357
  395SOL    HW2 1185   0.476   0.200   0.837 -0.6956 -0.0971  1.5083
  396SOL     OW 1186   1.825   0.854   0.682  0.1800 -0.1958  0.1218
  396SOL    HW1 1187   1.842   0.917   0.757 -0.7402 -0.3663 -3.6433
  396SOL    HW2 1188   1.763   0.898   0.616  0.1868 -1.4806  2.0944
  397SOL     OW 1189   0.483   0.480   2.109  0.3793  0.1579 -0.0422
  397SOL    HW1 1190   0.510   0.540   2.029  1.0888  0.7250 -2.7031
  397SOL    HW2 1191   0.379   0.459   2.107 -1.5633  0.4602 -1.7204
  398SOL     OW 1192   0.834   3.071   0.650 -0.5044 -0.8865 -0.4419
  398SOL    HW1 1193   0.849   0.075   0.602 -1.4256 -1.5141  0.9996
  398SOL    HW2 1194   0.896   3.049   0.728  2.1102  1.7156  1.0315
  399SOL     OW 1195   2.177   3.052   1.715 -0.1058 -0.0983 -0.1330
  399SOL    HW1 1196   2.186   2.992   1.634  1.8537  1.3614  1.0551
  399SOL    HW2 1197   2.249   3.036   1.782  0.4311  1.5014 -3.2460
  400SOL     OW 1198   0.976   1.935   2.319 -0.3969  0.3069 -0.3043
  400SOL    HW1 1199   0.954   2.014   2.258  0.3057 -1.4799 -1.5265
  400SOL    HW2 1200   0.895   1.922   2.381  1.4136 -1.1311 -0.0700
  401SOL     OW 1201   0.578   0.959   2.511  0.1535 -0.4897 -0.4711
  401SOL    HW1 1202   0.633   1.027   2.455 -1.8691  1.4905 -1.4512
  401SOL    HW2 1203   0.484   0.953   2.476  2.6890 -1.3047  0.6749
  402SOL     OW 1204   0.117   2.283   0.794 -0.1743 -0.3127 -0.5412
  402SOL    HW1 1205   0.040   2.310   0.854  2.9584  0.9589 -1.2931
  402SOL    HW2 1206   0.188   2.225   0.834  0.2231  0.6469  0.6670
  403SOL     OW 1207   3.055   1.146   2.004 -0.4766 -0.6422 -0.1987
  403SOL    HW1 1208   0.051   1.210   1.984  1.4804  1.1777  0.9173
  403SOL    HW2 1209   2.973   1.168   1.949 -2.3170  0.0510 -0.5919
  404SOL     OW 1210   2.911   2.549   2.567 -0.3308  0.4315  0.2088
  404SOL    HW1 1211   2.895   2.452   2.600  4.0622 -0.8639  2.5115
  404SOL    HW2 1212   2.950   2.544   2.475 -0.2291 -0.7831  1.3846
  405SOL     OW 1213   0.407   0.301   1.880  0.3044 -0.3481 -0.0387
  405SOL    HW1 1214   0.450   0.239   1.950  1.4834 -0.8035  2.4117
  405SOL    HW2 1215   0.307   0.277   1.874  1.1119 -1.4181 -0.5109
  406SOL     OW 1216   1.656   1.617   2.474  0.2412 -0.3034 -0.0210
  406SOL    HW1 1217   1.588   1.675   2.517  0.3917  0.8973  2.2630
  406SOL    HW2 1218   1.669   1.641   2.378 -1.1671  1.6107  0.0461
  407SOL     OW 1219   1.609   0.875   2.707  0.3194 -0.5421  0.0294
  407SOL    HW1 1220   1.656   0.941   2.764  1.7604  1.2022  1.7384
  407SOL    HW2 1221   1.633   0.886   2.605 -0.8687 -0.3314 -0.9645
  408SOL     OW 1222   0.622   2.976   2.298  0.7322 -0.4686 -0.4535
  408SOL    HW1 1223   0.710   2.968   2.346 -1.9640  0.6948  1.4071
  408SOL    HW2 1224   0.641   2.993   2.199 -0.3574  1.1626 -2.3201
  409SOL     OW 1225   0.024   1.987   1.188 -0.3987  0.9923 -0.4369
  409SOL    HW1 1226   3.078   1.972   1.086 -0.3406 -1.6036 -1.5293
  409SOL    HW2 1227   0.028   2.088   1.211  1.2695 -2.3342  1.1966
  410SOL     OW 1228   2.302   1.411   0.268 -0.2459 -0.2152 -0.3024
  410SOL    HW1 1229   2.322   1.428   0.167 -0.2505  1.6986  1.9594
  410SOL    HW2 1230   2.314   1.312   0.286 -1.6992 -0.5847 -2.2511
  411SOL     OW 1231   0.202   0.137   1.074  0.4246 -0.6559  0.2758
  411SOL    HW1 1232   0.302   0.122   1.091  0.5499 -1.0310 -0.5799
  411SOL    HW2 1233   0.169   0.232   1.093 -0.1191 -1.1601  3.3654
  412SOL     OW 1234   1.702   0.748   1.571 -0.6430 -0.1487  0.1183
  412SOL    HW1 1235   1.757   0.827   1.526  2.4406 -0.3199  1.8289
  412SOL    HW2 1236   1.610   0.784   1.595  0.3042 -0.4162  1.1629
  413SOL     OW 1237   0.841   0.387   1.947 -0.4680 -0.2437 -0.1339
  413SOL    HW1 1238   0.833   0.312   2.012  1.6370  2.7882 -3.8752
  413SOL    HW2 1239   0.858   0.357   1.855 -0.2055  0.3521  1.8200
  414SOL     OW 1240   2.900   1.447   2.542 -0.3681  0.4561  0.8143
  414SOL    HW1 1241   2.878   1.387   2.622  1.1414 -0.4622  1.0613
  414SOL    HW2 1242   2.816   1.467   2.488  0.8661 -1.5160  1.2255
  415SOL     OW 1243   0.776   2.403   0.123  0.4639  0.5424  0.2888
  415SOL    HW1 1244   0.864   2.364   0.089 -0.8499  1.1606 -2.9294
  415SOL    HW2 1245   0.784   2.500   0.158  0.4463  1.5263  0.3081
  416SOL     OW 1246   1.729   0.113   2.801  0.1773 -0.3580  0.3505
  416SOL    HW1 1247   1.737   0.012   2.806 -1.4135  3.6485 -0.9779
  416SOL    HW2 1248   1.825   0.157   2.801  0.9834  0.0382 -1.8994
  417SOL     OW 1249   0.197   0.253   0.682 -0.2954 -0.7945  0.5702
  417SOL    HW1 1250   0.202   0.355   0.698  1.9439  2.5836  0.5336
  417SOL    HW2 1251   0.104   0.223   0.667  1.9530  1.0395 -0.3126
  418SOL     OW 1252   2.546   2.946   0.808 -0.3330 -0.1735  0.9652
  418SOL    HW1 1253   2.464   2.973   0.747 -1.4765 -1.7802  1.1219
  418SOL    HW2 1254   2.527   2.961   0.907 -1.1141 -1.3443  0.4080
  419SOL     OW 1255   0.053   2.701   0.467 -0.7230  0.0032  0.0674
  419SOL    HW1 1256   3.074   2.727   0.544 -1.6191  3.5115 -1.6160
  419SOL    HW2 1257   0.132   2.660   0.508 -2.3178  2.1988 -0.3793
  420SOL     OW 1258   0.162   1.345   1.957 -0.3279 -0.5840 -0.0067
  420SOL    HW1 1259   0.178   1.447   1.935 -2.0756  2.4595 -1.5112
  420SOL    HW2 1260   0.252   1.301   1.957 -0.6340  0.1922  1.1991
  421SOL     OW 1261   1.580   2.654   0.827  0.4555  0.3926 -0.1537
  421SOL    HW1 1262   1.618   2.728   0.877 -1.5920 -0.3640 -2.5277
  421SOL    HW2 1263   1.558   2.573   0.886 -0.6974  0.4040  2.1304
  422SOL     OW 1264   0.748   0.300   1.643 -0.2252 -0.5518 -0.6570
  422SOL    HW1 1265   0.837   0.358   1.632  1.3286  1.5296  0.5941
  422SOL    HW2 1266   0.661   0.347   1.613  0.1897 -2.1074 -0.2957
  423SOL     OW 1267   0.972   1.361   1.801  0.1473  0.6701  0.1774
  423SOL    HW1 1268   1.048   1.427   1.802 -0.3973 -3.5155  0.3941
  423SOL    HW2 1269   1.009   1.280   1.747  0.5723 -1.6178  0.8760
  424SOL     OW 1270   1.964   2.058   0.288  0.5616 -0.1012 -0.3824
  424SOL    HW1 1271   1.917   2.034   0.382 -1.4753  2.5882  1.6757
  424SOL    HW2 1272   1.906   2.123   0.229  0.0177 -0.2807 -2.9872
  425SOL     OW 1273   2.820   0.189   1.894  0.1391  0.2865 -0.1552
  425SOL    HW1 1274   2.893   0.149   1.951  0.2197  1.3719  0.2675
  425SOL    HW2 1275   2.850   0.191   1.798 -0.8915 -2.1725  2.0813
  426SOL     OW 1276   0.067   2.619   2.879  0.2737 -0.2986  0.5226
  426SOL    HW1 1277   0.150   2.666   2.903  0.2771 -0.3238 -1.3529
  426SOL    HW2 1278   0.029   2.557   2.949  0.0611  0.8132  1.4906
  427SOL     OW 1279   1.180   0.423   0.146  0.1912  0.0850  0.7192
  427SOL    HW1 1280   1.274   0.460   0.120  0.1033  0.8334 -1.0887
  427SOL    HW2 1281   1.183   0.320   0.147 -0.7370 -0.8250 -0.5988
  428SOL     OW 1282   2.898   0.869   1.754  0.0709 -0.3503  0.0995
  428SOL    HW1 1283   2.811   0.889   1.807 -0.3266  0.5067 -0.2529
  428SOL    HW2 1284   2.897   0.774   1.713 -3.0852 -2.7670  0.2029
  429SOL     OW 1285   2.031   2.881   1.290  0.1342  0.4239  0.2300
  429SOL    HW1 1286   1.937   2.915   1.280 -0.8408  1.4757  1.3299
  429SOL    HW2 1287   2.044   2.818   1.214 -1.1343  1.5177 -2.2971
  430SOL     OW 1288   1.287   1.620   2.367 -0.2636  0.1986 -0.0922
  430SOL    HW1 1289   1.331   1.612   2.460  0.8544 -1.3586  1.2672
  430SOL    HW2 1290   1.306   1.536   2.303  1.5787 -1.8709  0.2409
  431SOL     OW 1291   2.863   1.507   1.397  0.2354 -0.4987  0.1428
  431SOL    HW1 1292   2.892   1.599   1.367  1.0103 -3.6727  0.4945
  431SOL    HW2 1293   2.936   1.469   1.456  0.1382  1.0278 -0.3643
  432SOL     OW 1294   1.156   2.674   2.336 -0.1737 -0.0015 -0.0285
  432SOL    HW1 1295   1.206   2.600   2.387  1.4060 -2.5010  2.1579
  432SOL    HW2 1296   1.069   2.633   2.305 -0.0041 -0.1530 -0.2092
  433SOL     OW 1297   1.931   0.346   2.144  0.6518 -0.2383  0.2409
  433SOL    HW1 1298   2.017   0.297   2.162  0.4884  0.2665 -0.7046
  433SOL    HW2 1299   1.951   0.439   2.159  1.2700 -5.4137 -1.9929
  434SOL     OW 1300   0.347   2.305   2.298 -0.1949  0.3917 -0.1321
  434SOL    HW1 1301   0.300   2.298   2.388 -1.8120  1.4707  1.8455
  434SOL    HW2 1302   0.404   2.224   2.280 -1.7460  3.5905  3.0451
  435SOL     OW 1303   0.135   0.036   0.313 -0.1587  0.1219 -0.0317
  435SOL    HW1 1304   0.152   0.135   0.312 -0.9477 -2.9690  0.5508
  435SOL    HW2 1305   0.216   3.067   0.351  2.2010 -1.5819  2.0229
  436SOL     OW 1306   0.614   0.972   2.146 -0.2175 -0.4264  0.5836
  436SOL    HW1 1307   0.533   0.910   2.120  1.1325 -1.1938  0.7745
  436SOL    HW2 1308   0.703   0.920   2.145 -3.5966  2.1282  0.0539
  437SOL     OW 1309   0.572   2.226   2.789  0.3548  0.1670 -0.0283
  437SOL    HW1 1310   0.512   2.284   2.733 -0.7111 -0.9701  0.3546
  437SOL    HW2 1311   0.530   2.197   2.875  1.1266 -2.6712 -0.0812
  438SOL     OW 1312   0.809   1.007   0.920  0.6930  0.2224  0.1517
  438SOL    HW1 1313   0.743   1.070   0.875 -1.9853 -0.6871  0.0393
  438SOL    HW2 1314   0.902   1.031   0.894 -0.3464  1.5529 -1.2592
  439SOL     OW 1315   2.572   1.323   2.401 -0.4584  0.3436 -0.4755
  439SOL    HW1 1316   2.599   1.245   2.344  1.1162 -0.9637  1.6984
  439SOL    HW2 1317   2.488   1.297   2.450 -3.3088  0.5070 -0.8097
  440SOL     OW 1318   0.059   0.479   3.045 -0.3047 -1.2224 -0.0876
  440SOL    HW1 1319   0.040   0.388   0.005  0.9775  1.6569  0.7275
  440SOL    HW2 1320   0.142   0.473   2.987 -1.8422 -0.5356  1.1603
  441SOL     OW 1321   0.767   2.067   1.352  0.1483 -0.3911  0.0608
  441SOL    HW1 1322   0.779   2.155   1.404 -0.5806  0.9985  2.1423
  441SOL    HW2 1323   0.839   1.997   1.368 -0.0056  2.6872  0.8044
  442SOL     OW 1324   1.673   1.645   0.778  0.0058  0.3240  0.0196
  442SOL    HW1 1325   1.658   1.578   0.852 -1.4422 -1.0506 -0.2390
  442SOL    HW2 1326   1.656   1.739   0.810  2.5535  2.0235 -0.4922
  443SOL     OW 1327   2.456   1.992   2.514  0.1699  0.0460 -0.2652
  443SOL    HW1 1328   2.552   2.009   2.533  1.1237  0.2419 -2.2252
  443SOL    HW2 1329   2.400   2.023   2.596  2.1020  1.5081  2.7004
  444SOL     OW 1330   2.047   1.674   2.718  0.2503 -0.4275 -0.3581
  444SOL    HW1 1331   1.985   1.735   2.770 -2.0273  1.1853  1.6223
  444SOL    HW2 1332   2.139   1.711   2.721 -0.3779  1.1039 -0.5782
  445SOL     OW 1333   2.732   2.666   2.117  0.0570  0.6612 -0.2104
  445SOL    HW1 1334   2.822   2.615   2.113  0.2757 -0.0123 -0.6075
  445SOL    HW2 1335   2.740   2.768   2.145  0.8849  1.0264  0.1779
  446SOL     OW 1336   1.074   0.898   1.761  0.2452  0.1141  0.3186
  446SOL    HW1 1337   1.132   0.853   1.691  0.3204 -1.5529 -1.5910
  446SOL    HW2 1338   1.021   0.829   1.811  0.6713  0.2718 -0.3835
  447SOL     OW 1339   0.862   0.872   1.149  0.1068 -0.4369  0.3385
  447SOL    HW1 1340   0.934   0.803   1.128  1.7104  0.7565  0.1206
  447SOL    HW2 1341   0.846   0.925   1.060  0.9214  0.6411  1.5758
  448SOL     OW 1342   1.163   1.247   2.420  0.1736 -0.5006  0.2532
  448SOL    HW1 1343   1.217   1.271   2.341 -0.7340 -0.5187 -0.2697
  448SOL    HW2 1344   1.136   1.330   2.474 -1.1806  3.3760  0.0742
  449SOL     OW 1345   3.065   2.076   2.453  0.1528 -0.3065 -0.2873
  449SOL    HW1 1346   0.059   2.009   2.445 -1.0097 -1.2022 -0.9579
  449SOL    HW2 1347   3.031   2.101   2.359  1.6070  2.4986 -0.9765
  450SOL     OW 1348   2.173   1.747   1.747  0.1914 -0.1294  0.3124
  450SOL    HW1 1349   2.229   1.836   1.750  2.9159  3.4561 -0.5549
  450SOL    HW2 1350   2.078   1.768   1.715  0.2372  1.0150 -0.7936
  451SOL     OW 1351   2.712   1.295   1.319 -0.3813 -0.4754 -0.0506
  451SOL    HW1 1352   2.779   1.368   1.335  0.3959 -0.8335  0.3116
  451SOL    HW2 1353   2.708   1.243   1.404 -0.9566  1.7955 -1.5588
  452SOL     OW 1354   0.605   0.960   1.508 -0.1476 -0.8061  0.1311
  452SOL    HW1 1355   0.575   0.879   1.452 -2.2102  1.7479  0.4304
  452SOL    HW2 1356   0.646   1.023   1.435 -1.7687  1.9848 -1.9923
  453SOL     OW 1357   0.262   0.964   0.526  0.2773  0.0495 -0.4721
  453SOL    HW1 1358   0.196   1.016   0.468  2.0444  0.6910  1.6566
  453SOL    HW2 1359   0.237   0.978   0.629 -2.1823  0.9827  0.8417
  454SOL     OW 1360   0.742   1.565   0.167 -0.3902  0.2927 -0.0012
  454SOL    HW1 1361   0.770   1.647   0.109 -0.1356 -0.3172 -1.7003
  454SOL    HW2 1362   0.647   1.540   0.141  0.6618 -1.8952 -1.2903
  455SOL     OW 1363   1.688   0.719   1.171 -0.2868  0.9160  0.3753
  455SOL    HW1 1364   1.615   0.766   1.228  1.0087 -2.5579  2.8117
  455SOL    HW2 1365   1.782   0.724   1.220  1.3628  0.8176  0.4689
  456SOL     OW 1366   1.735   2.827   1.010 -0.8057  0.1829  0.4962
  456SOL    HW1 1367   1.824   2.778   0.983  3.1105 -2.4457  1.1514
  456SOL    HW2 1368   1.732   2.839   1.113 -0.3606  0.8336  1.4732
  457SOL     OW 1369   1.969   0.293   2.536  0.2247 -0.0347 -0.0984
  457SOL    HW1 1370   1.874   0.326   2.517  0.0173  1.2859  0.3439
  457SOL    HW2 1371   1.999   0.227   2.465  0.0549 -3.2103 -2.0995
  458SOL     OW 1372   2.517   0.740   2.635 -0.2561 -0.4290  0.0145
  458SOL    HW1 1373   2.506   0.825   2.582  1.5187 -1.5252  1.8517
  458SOL    HW2 1374   2.617   0.724   2.663  2.3887  1.4163  3.4347
  459SOL     OW 1375   3.052   1.716   1.992 -0.6587 -0.4896  0.5491
  459SOL    HW1 1376   0.054   1.685   1.949 -0.0008  1.8296  3.0576
  459SOL    HW2 1377   3.021   1.640   2.064 -0.8145 -2.9984  1.1722
  460SOL     OW 1378   0.334   0.704   0.017 -0.3611  0.3373 -0.1136
  460SOL    HW1 1379   0.433   0.699   3.070  0.7224 -2.7443 -1.4589
  460SOL    HW2 1380   0.269   0.715   3.022 -4.1660  0.1949 -1.1776
  461SOL     OW 1381   0.056   2.313   0.550  0.1838  0.7605  0.0497
  461SOL    HW1 1382   0.033   2.234   0.484 -2.2151  0.0602 -3.7878
  461SOL    HW2 1383   0.070   2.272   0.639 -2.9369  0.0990 -1.2469
  462SOL     OW 1384   0.027   2.662   1.464  0.0188  1.0414  0.3580
  462SOL    HW1 1385   3.067   2.745   1.422  2.7000 -2.6479 -1.6183
  462SOL    HW2 1386   0.083   2.614   1.392 -3.2778  0.3793 -0.0104
  463SOL     OW 1387   1.662   1.958   1.810 -0.1044 -0.9054 -0.1760
  463SOL    HW1 1388   1.651   1.926   1.716  1.7212  0.3847  1.0023
  463SOL    HW2 1389   1.707   2.054   1.804 -0.7318  1.0444 -1.5432
  464SOL     OW 1390   3.023   2.763   0.712 -0.4746 -0.1252 -0.2502
  464SOL    HW1 1391   2.948   2.817   0.745  0.5294 -1.0045 -3.3858
  464SOL    HW2 1392   0.004   2.755   0.798  1.1179  1.7410 -1.0494
  465SOL     OW 1393   0.352   0.123   1.533  0.4095 -0.1748 -0.1180
  465SOL    HW1 1394   0.354   0.066   1.623 -0.9578 -1.5664  0.2860
  465SOL    HW2 1395   0.419   0.197   1.543 -0.2955 -2.8051 -4.4516
  466SOL     OW 1396   1.160   2.402   2.458  0.0977 -0.3895  0.3405
  466SOL    HW1 1397   1.131   2.356   2.371  2.0550  0.6405  3.6300
  466SOL    HW2 1398   1.082   2.428   2.515 -1.0324  2.0298  0.7984
  467SOL     OW 1399   2.857   1.537   0.798 -0.1656 -0.2207 -0.1523
  467SOL    HW1 1400   2.884   1.582   0.887 -0.8210 -0.4815 -1.2666
  467SOL    HW2 1401   2.766   1.500   0.800  1.1264  0.3320  0.6784
  468SOL     OW 1402   2.296   2.073   2.714 -0.0666 -0.0347 -0.2995
  468SOL    HW1 1403   2.213   2.090   2.662 -0.6728  0.3867 -1.9892
  468SOL    HW2 1404   2.326   2.153   2.758 -2.4492 -2.8949  1.3553
  469SOL     OW 1405   1.276   2.024   0.461 -0.4592 -0.3474  0.0414
  469SOL    HW1 1406   1.327   2.111   0.453  1.3357  0.8755 -3.2143
  469SOL    HW2 1407   1.302   1.967   0.541 -2.6899 -0.0332 -2.2216
  470SOL     OW 1408   1.842   1.367   1.345 -0.5361 -0.0146 -0.5291
  470SOL    HW1 1409   1.819   1.271   1.322 -0.8467  0.6457 -0.3027
  470SOL    HW2 1410   1.943   1.372   1.348  0.0652 -3.0461 -0.3746
  471SOL     OW 1411   0.355   2.288   0.244 -0.1669 -0.1888 -0.1084
  471SOL    HW1 1412   0.292   2.359   0.206  2.1741  2.0425 -0.1356
  471SOL    HW2 1413   0.439   2.330   0.280  0.3175  1.5776  0.8990
  472SOL     OW 1414   2.345   1.893   2.096 -0.6966 -0.2362 -0.5942
  472SOL    HW1 1415   2.374   1.982   2.131  1.2764 -0.0914  0.2539
  472SOL    HW2 1416   2.397   1.816   2.142 -0.5180 -1.7423 -0.8854
  473SOL     OW 1417   1.161   2.128   0.768  0.4527  0.2226  0.5256
  473SOL    HW1 1418   1.082   2.142   0.709  0.8566 -2.1353  0.5326
  473SOL    HW2 1419   1.133   2.114   0.865 -0.1785  0.4696  0.1742
  474SOL     OW 1420   2.974   0.379   1.312 -0.2676 -0.1252 -0.4073
  474SOL    HW1 1421   3.000   0.346   1.404  0.1275 -1.1022 -1.0623
  474SOL    HW2 1422   2.906   0.319   1.264  2.7261 -2.6427 -0.9102
  475SOL     OW 1423   2.336   2.756   1.973  0.1305  0.1021 -0.1350
  475SOL    HW1 1424   2.319   2.789   2.073 -0.5600 -2.4064  0.6602
  475SOL    HW2 1425   2.369   2.836   1.918  0.6509 -0.2967  1.4481
  476SOL     OW 1426   0.470   0.574   0.664  0.2096 -0.4051 -0.2037
  476SOL    HW1 1427   0.506   0.527   0.582  3.8795 -0.4185 -0.2974
  476SOL    HW2 1428   0.548   0.580   0.734  0.4696 -1.1728 -0.0326
  477SOL     OW 1429   0.749   1.745   0.907  0.5382  0.0087 -0.2036
  477SOL    HW1 1430   0.821   1.777   0.975  0.1974  0.3060 -0.0560
  477SOL    HW2 1431   0.650   1.754   0.946 -5.2017  1.9030  1.6207
  478SOL     OW 1432   1.021   2.261   2.887  0.1925  0.1208  0.8765
  478SOL    HW1 1433   0.979   2.212   2.804 -0.8304  1.1903  1.8888
  478SOL    HW2 1434   1.091   2.323   2.853 -1.4832 -3.7371 -1.9178
  479SOL     OW 1435   2.822   1.168   1.848 -0.2550  0.2949 -0.0116
  479SOL    HW1 1436   2.761   1.092   1.864  1.4759 -0.1407  0.0671
  479SOL    HW2 1437   2.851   1.176   1.750 -0.6546 -1.7211 -3.1483
  480SOL     OW 1438   3.069   2.443   3.071  0.1021  0.4858  0.2091
  480SOL    HW1 1439   3.035   2.414   0.080 -2.4873 -1.1005 -1.7614
  480SOL    HW2 1440   3.057   2.364   3.005  1.5887 -0.3376 -1.0870
  481SOL     OW 1441   1.637   0.021   2.260  0.2079 -0.1667 -0.2676
  481SOL    HW1 1442   1.729   3.077   2.287 -2.2612 -3.2698  1.5221
  481SOL    HW2 1443   1.647   0.104   2.200 -2.0643  2.4028  0.6280
  482SOL     OW 1444   1.690   1.985   2.807  0.0586  0.0649  0.7149
  482SOL    HW1 1445   1.751   2.064   2.817  1.0362 -0.8323 -0.5361
  482SOL    HW2 1446   1.615   1.999   2.733  0.3784  2.4874  0.0454
  483SOL     OW 1447   0.838   2.533   2.850  0.1334  0.1923  0.1115
  483SOL    HW1 1448   0.757   2.556   2.905 -1.5978  1.3190  0.1994
  483SOL    HW2 1449   0.839   2.435   2.827 -1.4559  1.9150 -1.0008
  484SOL     OW 1450   0.409   2.695   1.206 -0.0995  0.1994 -0.3551
  484SOL    HW1 1451   0.334   2.760   1.213  1.8468 -1.1170  0.5109
  484SOL    HW2 1452   0.493   2.751   1.205 -1.4528  0.2230 -2.4267
  485SOL     OW 1453   2.210   0.571   0.748 -0.2951 -0.1771  0.3997
  485SOL    HW1 1454   2.172   0.653   0.703  0.8117 -3.9278  0.2843
  485SOL    HW2 1455   2.312   0.576   0.745 -0.3854  1.5131  2.5831
  486SOL     OW 1456   2.080   2.751   2.438 -0.0221  0.4519 -0.4129
  486SOL    HW1 1457   2.064   2.840   2.479  1.1819 -0.7458  0.6576
  486SOL    HW2 1458   2.158   2.701   2.480 -1.3496 -1.3646 -1.0802
  487SOL     OW 1459   0.944   1.454   0.795  0.2433 -0.3413 -0.1475
  487SOL    HW1 1460   0.844   1.457   0.788 -0.8957 -0.3876  2.7566
  487SOL    HW2 1461   0.984   1.529   0.736 -0.3155 -1.3181 -1.1104
  488SOL     OW 1462   2.348   0.285   2.909  0.0139 -0.1849  0.0654
  488SOL    HW1 1463   2.271   0.341   2.878  0.1391 -0.0841  0.8853
  488SOL    HW2 1464   2.405   0.266   2.825  0.0639  1.4929 -2.5579
  489SOL     OW 1465   1.868   0.159   0.476  0.2649 -0.5437  0.4350
  489SOL    HW1 1466   1.960   0.142   0.521 -1.0430  3.1489  0.7060
  489SOL    HW2 1467   1.852   0.258   0.459  0.1089 -1.1138  4.2258
  490SOL     OW 1468   1.522   0.218   2.955 -1.0078 -0.6079 -0.2056
  490SOL    HW1 1469   1.584   0.268   3.022 -0.8387 -0.5395  0.1594
  490SOL    HW2 1470   1.585   0.167   2.888  2.0399  0.5543 -0.1527
  491SOL     OW 1471   0.707   0.051   1.220 -0.1201  0.2620  0.0349
  491SOL    HW1 1472   0.767   0.066   1.303 -0.3772 -0.3365 -0.0653
  491SOL    HW2 1473   0.763   0.022   1.141 -2.3461  0.9326  2.9533
  492SOL     OW 1474   1.683   3.051   0.359 -0.4967 -0.4299  0.1480
  492SOL    HW1 1475   1.754   0.038   0.390 -1.6943  2.3948 -1.4099
  492SOL    HW2 1476   1.637   2.998   0.434 -2.5084  0.3430 -0.6590
  493SOL     OW 1477   1.230   2.081   2.901  0.2193  0.4327  0.2011
  493SOL    HW1 1478   1.146   2.142   2.898 -1.7099  2.5143  1.9792
  493SOL    HW2 1479   1.289   2.076   2.822 -1.1090 -2.5381  2.8365
  494SOL     OW 1480   0.331   0.744   1.196  0.0991  0.2771  0.0941
  494SOL    HW1 1481   0.419   0.751   1.145  2.1069 -1.2587  0.6862
  494SOL    HW2 1482   0.252   0.719   1.139  0.5726 -2.9367  4.5540
  495SOL     OW 1483   0.042   0.510   1.559 -0.3738 -0.3998  0.4716
  495SOL    HW1 1484   0.111   0.567   1.608  1.9071  2.4278 -2.1857
  495SOL    HW2 1485   3.030   0.555   1.556  0.7709 -0.9851 -0.4013
  496SOL     OW 1486   2.325   2.400   2.081 -0.2162  0.1521  0.1412
  496SOL    HW1 1487   2.390   2.472   2.117  0.3123  3.6819  1.0650
  496SOL    HW2 1488   2.232   2.437   2.064 -1.0598  2.1356 -0.3912
  497SOL     OW 1489   1.770   1.139   2.858 -0.3283  0.2048  0.0799
  497SOL    HW1 1490   1.870   1.148   2.868  0.6139 -0.8937  3.5363
  497SOL    HW2 1491   1.724   1.219   2.902  2.2894  2.0108  0.3466
  498SOL     OW 1492   0.902   2.106   0.613  0.0206  0.2427 -0.0536
  498SOL    HW1 1493   0.833   2.183   0.609 -0.3279  0.7586  0.0718
  498SOL    HW2 1494   0.856   2.018   0.644 -0.7288 -0.3824  0.0150
  499SOL     OW 1495   0.161   1.598   1.010 -0.7038  0.2486  0.0313
  499SOL    HW1 1496   0.076   1.617   0.954  1.5543 -0.6685  1.0315
  499SOL    HW2 1497   0.226   1.538   0.964 -2.4436  1.2893  1.6707
  500SOL     OW 1498   1.326   2.702   0.613 -0.0826  0.0077 -0.2059
  500SOL    HW1 1499   1.273   2.785   0.577  1.0445  2.1505 -0.6332
  500SOL    HW2 1500   1.382   2.718   0.694  0.2779  1.0364 -0.7171
  501SOL     OW 1501   1.941   2.652   0.863  0.3580 -0.0818  0.8243
  501SOL    HW1 1502   1.888   2.683   0.779  0.1708 -0.5544 -2.3301
  501SOL    HW2 1503   1.953   2.555   0.865 -0.8097  2.9806 -0.3081
  502SOL     OW 1504   0.301   0.469   1.444 -0.1683 -0.4044  0.3767
  502SOL    HW1 1505   0.205   0.500   1.455  1.1603 -0.5693 -1.5559
  502SOL    HW2 1506   0.357   0.556   1.464 -0.1360 -0.0931  1.8847
  503SOL     OW 1507   1.977   0.175   1.695 -0.0355  0.0733  0.3534
  503SOL    HW1 1508   1.934   0.185   1.602 -0.5515 -1.9768  0.9689
  503SOL    HW2 1509   2.038   0.097   1.697 -1.7511 -0.7691  1.1790
  504SOL     OW 1510   2.060   0.771   1.804  0.2521 -0.3848 -0.0670
  504SOL    HW1 1511   1.969   0.770   1.848  1.9661  3.0221  0.1550
  504SOL    HW2 1512   2.104   0.866   1.802 -1.3453  1.0388 -1.0789
  505SOL     OW 1513   1.233   2.913   2.301  0.1351  0.0695 -0.0474
  505SOL    HW1 1514   1.319   2.943   2.344  2.7165 -0.4674 -1.9842
  505SOL    HW2 1515   1.208   2.819   2.326  0.7759  0.2172  0.7290
  506SOL     OW 1516   0.663   0.610   1.910 -0.9889 -0.0503  0.3997
  506SOL    HW1 1517   0.714   0.524   1.920 -0.1614  2.1928 -3.0515
  506SOL    HW2 1518   0.730   0.687   1.899 -0.3671 -0.9618  0.9989
  507SOL     OW 1519   1.692   0.266   0.073 -0.7428  0.0762  0.1888
  507SOL    HW1 1520   1.631   0.315   0.138  1.4261  1.1267  0.1259
  507SOL    HW2 1521   1.793   0.288   0.081  2.8386 -1.4480 -1.9894
  508SOL     OW 1522   2.115   0.545   2.015 -0.0404  0.3120 -0.4465
  508SOL    HW1 1523   2.037   0.598   2.059 -3.0128  3.0763  1.0947
  508SOL    HW2 1524   2.132   0.573   1.918  0.4179  0.6345 -0.0473
  509SOL     OW 1525   0.777   1.578   2.433 -0.2869 -0.6764 -0.1946
  509SOL    HW1 1526   0.688   1.630   2.439  0.9315 -3.8894  0.0282
  509SOL    HW2 1527   0.812   1.583   2.339 -0.2618 -0.2026 -2.3090
  510SOL     OW 1528   2.829   0.573   0.559 -0.4607 -0.5937  0.3172
  510SOL    HW1 1529   2.819   0.665   0.522  0.3667  1.9422 -0.9123
  510SOL    HW2 1530   2.908   0.565   0.624 -0.8170  0.3865  2.4733
  511SOL     OW 1531   1.544   1.464   1.413 -0.0813  0.2271 -0.3597
  511SOL    HW1 1532   1.524   1.543   1.472  0.4389  0.2904 -0.9511
  511SOL    HW2 1533   1.640   1.435   1.420  1.2722 -3.5592  1.4817
  512SOL     OW 1534   0.387   1.533   0.495  0.0252  0.2707 -0.3536
  512SOL    HW1 1535   0.482   1.508   0.524 -2.6836  0.2891 -0.1604
  512SOL    HW2 1536   0.317   1.460   0.508  1.1144  3.5053  0.4698
  513SOL     OW 1537   0.315   2.179   0.974  0.0586  0.0352 -0.0174
  513SOL    HW1 1538   0.293   2.118   1.049  0.0618  3.1707  0.5829
  513SOL    HW2 1539   0.415   2.161   0.949  1.6039  2.6867  3.4007
  514SOL     OW 1540   0.431   2.081   0.422  0.1758  0.2193  0.2102
  514SOL    HW1 1541   0.414   2.127   0.512 -0.0672  0.2216  3.4475
  514SOL    HW2 1542   0.406   2.143   0.350  0.5274 -1.8194  0.4072
  515SOL     OW 1543   0.167   2.925   0.044 -0.0514 -0.1634 -0.2308
  515SOL    HW1 1544   0.128   3.010   0.083 -1.0940  1.8557  0.0493
  515SOL    HW2 1545   0.168   2.849   0.115  1.8348  0.2725 -1.2366
  516SOL     OW 1546   2.125   0.068   1.362  0.0626 -0.0296 -0.0508
  516SOL    HW1 1547   2.038   0.102   1.403 -2.9832  1.8962  1.0394
  516SOL    HW2 1548   2.117   3.057   1.325  1.2687  1.2130 -0.4073
  517SOL     OW 1549   1.599   1.461   0.499 -0.1407 -0.4892 -0.3086
  517SOL    HW1 1550   1.595   1.562   0.499 -1.7813  1.2460 -2.2735
  517SOL    HW2 1551   1.556   1.417   0.583  2.8002 -0.4757  0.4774
  518SOL     OW 1552   1.300   0.223   0.899  0.0568 -0.3817 -0.3626
  518SOL    HW1 1553   1.201   0.240   0.911 -2.3304  1.1899  2.6796
  518SOL    HW2 1554   1.316   0.197   0.799  1.2338 -0.0142 -1.6273
  519SOL     OW 1555   2.654   2.376   0.557 -0.0442  0.3271  0.3504
  519SOL    HW1 1556   2.702   2.448   0.606 -2.3949 -1.6421 -2.2739
  519SOL    HW2 1557   2.644   2.403   0.461  3.7126  0.6703 -1.3495
  520SOL     OW 1558   1.766   2.183   1.985  0.1889  0.1803 -0.2959
  520SOL    HW1 1559   1.821   2.242   2.041  0.4133  0.0442  1.5588
  520SOL    HW2 1560   1.673   2.190   2.007  0.7536 -1.8035 -1.4888
  521SOL     OW 1561   1.479   2.900   2.120 -0.1774 -0.2183 -0.4762
  521SOL    HW1 1562   1.504   2.807   2.152 -0.1887 -2.1491  0.2454
  521SOL    HW2 1563   1.520   2.974   2.176  1.1516  0.6420 -4.4635
  522SOL     OW 1564   2.994   2.997   1.633 -0.1765  0.2534  0.4597
  522SOL    HW1 1565   3.026   2.958   1.544 -1.4329 -2.3048  0.4982
  522SOL    HW2 1566   2.971   2.924   1.701 -1.4268 -3.2676  2.9787
  523SOL     OW 1567   0.852   2.255   1.527  0.0002 -0.1021 -0.0324
  523SOL    HW1 1568   0.771   2.318   1.529 -0.3109 -1.7584 -0.5853
  523SOL    HW2 1569   0.937   2.306   1.522 -0.2055 -0.0742  2.5827
  524SOL     OW 1570   2.317   2.130   0.015 -0.5146 -0.0261  0.2116
  524SOL    HW1 1571   2.311   2.033   0.000  1.6523 -0.7649  1.7840
  524SOL    HW2 1572   2.367   2.162   0.098  1.8369  2.8877 -1.3804
  525SOL     OW 1573   2.842   0.703   0.062  0.2239 -0.5387  0.1990
  525SOL    HW1 1574   2.949   0.719   0.070  0.8462  0.8212 -0.6171
  525SOL    HW2 1575   2.807   0.778   0.001 -0.3352 -1.0448 -0.1166
  526SOL     OW 1576   0.632   2.851   0.465 -0.3260  0.0404 -0.4008
  526SOL    HW1 1577   0.709   2.804   0.516 -1.0812  0.7482  0.4890
  526SOL    HW2 1578   0.611   2.939   0.501 -0.4109  1.9412 -1.1011
  527SOL     OW 1579   2.695   1.286   0.415 -0.2429  0.2327 -0.2731
  527SOL    HW1 1580   2.728   1.206   0.363  0.4213  0.7228  2.4936
  527SOL    HW2 1581   2.666   1.258   0.509  0.2338  0.5263  0.3973
  528SOL     OW 1582   0.887   0.782   2.551 -0.2087 -0.0637 -0.1315
  528SOL    HW1 1583   0.826   0.703   2.525  1.7085 -0.4902 -0.3790
  528SOL    HW2 1584   0.904   0.845   2.471  1.0026  0.1049  0.3610
  529SOL     OW 1585   0.496   1.531   0.060 -0.5438  0.1856  0.5081
  529SOL    HW1 1586   0.459   1.597   0.132 -1.4016  1.7967  2.1569
  529SOL    HW2 1587   0.446   1.544   3.054 -0.4145  0.4380 -1.5211
  530SOL     OW 1588   1.365   0.993   2.054 -0.3485 -0.1435  0.7554
  530SOL    HW1 1589   1.455   1.039   2.084  2.8156  1.9734 -0.0844
  530SOL    HW2 1590   1.335   0.944   2.138  2.3976  2.8758  1.0287
  531SOL     OW 1591   1.318   2.066   0.103  0.4154 -0.7021 -0.0061
  531SOL    HW1 1592   1.260   2.022   0.035 -1.7286  2.6449  0.3123
  531SOL    HW2 1593   1.294   2.031   0.193 -3.1702  1.9012  2.8482
  532SOL     OW 1594   2.241   1.113   2.477 -0.1834  0.1946  0.6093
  532SOL    HW1 1595   2.179   1.070   2.541 -0.2091  0.6059  0.3921
  532SOL    HW2 1596   2.226   1.210   2.491  0.2711 -1.6659  1.3432
  533SOL     OW 1597   0.146   0.255   1.899  0.3213 -0.1285 -0.0499
  533SOL    HW1 1598   0.119   0.158   1.877  0.5517  0.2471  2.2852
  533SOL    HW2 1599   0.074   0.315   1.865 -0.0554 -1.3464 -0.9404
  534SOL     OW 1600   1.802   0.028   0.138  0.4097 -0.4376  0.3786
  534SOL    HW1 1601   1.760   0.115   0.105 -0.9869 -0.6394 -2.1277
  534SOL    HW2 1602   1.759   3.078   0.223 -1.8605  2.0159  2.1621
  535SOL     OW 1603   0.600   3.056   0.002 -0.0802 -0.0253  0.1913
  535SOL    HW1 1604   0.669   0.017   3.024  1.4073  3.2967  0.6098
  535SOL    HW2 1605   0.524   0.035   0.013  4.2640 -1.0783 -3.4877
  536SOL     OW 1606   0.544   1.977   1.497  0.3096  0.1085  0.1721
  536SOL    HW1 1607   0.531   1.880   1.477  0.4109  0.2964 -1.6011
  536SOL    HW2 1608   0.623   2.016   1.443  0.6702  0.9947 -0.5501
  537SOL     OW 1609   2.947   2.570   1.659 -0.0508 -0.0034 -0.3179
  537SOL    HW1 1610   3.014   2.595   1.586  0.4930  1.1572 -0.0284
  537SOL    HW2 1611   2.926   2.654   1.710 -0.1216  1.1703  0.3175
  538SOL     OW 1612   0.053   2.067   0.405 -0.1738  0.4442  0.5956
  538SOL    HW1 1613   0.150   2.060   0.374  0.4398 -0.2342 -0.2790
  538SOL    HW2 1614   3.078   1.981   0.393  1.3980  1.1109  1.5429
  539SOL     OW 1615   2.490   0.959   2.466  0.1304 -0.0335  0.2294
  539SOL    HW1 1616   2.404   1.017   2.479  1.7189  1.2276  2.5012
  539SOL    HW2 1617   2.544   0.999   2.391 -1.4532  1.1600  0.5775
  540SOL     OW 1618   1.901   0.907   3.061  0.2127 -0.2585  0.2861
  540SOL    HW1 1619   1.868   0.998   3.026  1.1768 -0.1512 -2.0294
  540SOL    HW2 1620   1.825   0.843   3.079  1.9704 -0.5249  0.3061
  541SOL     OW 1621   0.731   0.591   2.455  0.2888  0.5615 -0.8212
  541SOL    HW1 1622   0.747   0.504   2.511  3.2748 -0.4692  1.9533
  541SOL    HW2 1623   0.643   0.580   2.404 -1.9904 -2.3534 -0.7389
  542SOL     OW 1624   1.525   2.627   2.186  0.1041  0.0555  0.0136
  542SOL    HW1 1625   1.448   2.608   2.115  1.2254 -1.0075 -1.0541
  542SOL    HW2 1626   1.618   2.589   2.157  2.1148  0.0158 -1.0486
  543SOL     OW 1627   1.050   2.617   0.437 -0.3530 -0.0372 -0.6104
  543SOL    HW1 1628   1.085   2.581   0.354 -0.0748 -0.3456  0.8674
  543SOL    HW2 1629   1.060   2.550   0.512 -0.5949 -1.1119 -1.9197
  544SOL     OW 1630   2.753   1.871   2.197 -0.0905  0.5205  0.1598
  544SOL    HW1 1631   2.816   1.821   2.262  2.9415 -1.4272  0.9383
  544SOL    HW2 1632   2.684   1.804   2.154  0.2690 -0.5850 -1.6526
  545SOL     OW 1633   1.396   2.078   1.466 -0.0195 -0.0733  0.0883
  545SOL    HW1 1634   1.362   2.054   1.561  2.0488  0.7396 -1.0797
  545SOL    HW2 1635   1.312   2.100   1.406 -1.6956 -0.1399 -0.5689
  546SOL     OW 1636   0.230   0.233   2.418 -0.1715  0.1419 -0.4021
  546SOL    HW1 1637   0.308   0.232   2.355  1.0931  1.9325  2.5611
  546SOL    HW2 1638   0.229   0.137   2.454 -0.8691  0.2946 -2.1787
  547SOL     OW 1639   0.871   0.257   0.553 -0.6985 -0.0758  0.1345
  547SOL    HW1 1640   0.813   0.270   0.467 -1.7484  0.0804 -3.6158
  547SOL    HW2 1641   0.957   0.314   0.553  1.2196  1.4954  2.3126
  548SOL     OW 1642   1.578   2.099   0.053  0.1175 -0.6584  0.7139
  548SOL    HW1 1643   1.478   2.077   0.072 -1.5252  2.0248 -1.0050
  548SOL    HW2 1644   1.588   2.098   3.033  0.9474  1.8598 -1.9156
  549SOL     OW 1645   2.062   1.033   0.392 -0.1172  0.1027  0.5062
  549SOL    HW1 1646   2.040   1.127   0.358 -0.2717 -0.0807 -1.8298
  549SOL    HW2 1647   2.147   1.021   0.444 -1.5805 -2.7926 -0.5413
  550SOL     OW 1648   2.743   2.123   0.576  0.4310 -0.1589  0.0314
  550SOL    HW1 1649   2.728   2.095   0.477 -1.0526  1.1546 -1.4982
  550SOL    HW2 1650   2.717   2.223   0.586  3.1226  1.2326  1.2306
  551SOL     OW 1651   1.211   0.362   1.348 -0.3411  0.0494  0.3628
  551SOL    HW1 1652   1.309   0.362   1.332  1.1328  1.7571 -1.3263
  551SOL    HW2 1653   1.185   0.276   1.397  0.8388  0.5772 -0.4221
  552SOL     OW 1654   2.972   1.817   2.781 -0.3643 -0.3791 -0.0263
  552SOL    HW1 1655   3.023   1.780   2.700 -0.1529 -2.5633 -2.6683
  552SOL    HW2 1656   2.996   1.763   2.864  1.0122  4.7621  1.6129
  553SOL     OW 1657   2.726   2.594   0.692 -0.2208  0.4213 -0.5932
  553SOL    HW1 1658   2.669   2.666   0.649  1.7484 -0.0561  1.0655
  553SOL    HW2 1659   2.826   2.600   0.665  1.1809 -1.5769 -1.2198
  554SOL     OW 1660   1.847   1.183   1.577 -0.1444  0.0426 -0.1917
  554SOL    HW1 1661   1.836   1.254   1.506 -1.5882 -1.6880  1.7639
  554SOL    HW2 1662   1.880   1.227   1.660 -0.2547  0.6913 -1.1924
  555SOL     OW 1663   1.200   2.321   1.956 -0.4744  0.2116  0.5333
  555SOL    HW1 1664   1.194   2.415   1.911 -2.0133  3.3575  0.5047
  555SOL    HW2 1665   1.158   2.247   1.899 -0.3321 -1.4329 -1.3757
  556SOL     OW 1666   1.164   1.581   1.823 -0.2291  0.3242  0.2864
  556SOL    HW1 1667   1.221   1.637   1.887  1.3455  2.3001  1.9444
  556SOL    HW2 1668   1.229   1.519   1.774 -0.1228 -1.9957 -0.0632
  557SOL     OW 1669   1.594   3.057   1.629 -0.2946  0.5830  0.0621
  557SOL    HW1 1670   1.554   2.962   1.632  1.7853 -0.3807 -0.1261
  557SOL    HW2 1671   1.665   3.067   1.560  1.2702  2.9772  0.9662
  558SOL     OW 1672   0.841   2.968   2.068 -0.1990 -0.0305 -0.2060
  558SOL    HW1 1673   0.806   2.883   2.026 -0.4517  2.2728 -0.4340
  558SOL    HW2 1674   0.878   3.030   1.995 -0.0864  0.6769 -2.2558
  559SOL     OW 1675   1.713   2.465   0.323  0.5451 -0.4654 -0.2357
  559SOL    HW1 1676   1.668   2.499   0.234 -1.6480 -0.3471 -1.6770
  559SOL    HW2 1677   1.708   2.536   0.402 -0.4516  0.8718  4.6382
  560SOL     OW 1678   1.453   2.226   0.389 -0.6387 -0.2497 -0.2538
  560SOL    HW1 1679   1.529   2.230   0.321  1.8524 -0.5539 -2.6087
  560SOL    HW2 1680   1.407   2.315   0.374  0.8744  0.1339 -1.0373
  561SOL     OW 1681   1.510   0.289   0.504 -0.0209  0.6442 -0.3835
  561SOL    HW1 1682   1.549   0.227   0.576 -0.0379 -0.0077  1.6175
  561SOL    HW2 1683   1.412   0.263   0.489  0.1546 -2.4148  0.4994
  562SOL     OW 1684   0.417   1.260   1.923 -0.0212  0.3675  0.3232
  562SOL    HW1 1685   0.423   1.332   1.848  0.2634  0.7859 -1.2088
  562SOL    HW2 1686   0.514   1.220   1.935  0.0604  0.9116  1.4251
  563SOL     OW 1687   1.340   2.091   2.640  0.3492 -0.4681  0.3134
  563SOL    HW1 1688   1.273   2.020   2.608  1.2527 -1.3836 -0.4578
  563SOL    HW2 1689   1.434   2.078   2.606 -3.6091 -2.1541  0.4619
  564SOL     OW 1690   2.954   0.865   0.772 -0.1079 -0.3756  0.1334
  564SOL    HW1 1691   2.962   0.896   0.870  2.3174  1.5948  0.3484
  564SOL    HW2 1692   2.966   0.765   0.769  3.2450  1.8834  0.1039
  565SOL     OW 1693   0.620   1.277   0.010 -0.3708  0.1808 -0.2346
  565SOL    HW1 1694   0.554   1.356   3.080  0.2473 -0.7861 -0.5618
  565SOL    HW2 1695   0.719   1.307   0.028  0.8769  1.0654 -2.4852
  566SOL     OW 1696   2.363   2.640   2.785  0.1245  0.4580  0.5369
  566SOL    HW1 1697   2.437   2.712   2.786 -0.7656 -3.3509 -0.1242
  566SOL    HW2 1698   2.293   2.670   2.846  1.5079  0.1111 -0.2869
  567SOL     OW 1699   1.304   1.329   1.462 -0.3682 -0.0669  0.3513
  567SOL    HW1 1700   1.395   1.370   1.440  0.1981  0.7465 -1.2293
  567SOL    HW2 1701   1.296   1.321   1.565  0.8245  0.0203  0.3203
  568SOL     OW 1702   1.376   1.269   2.882 -0.1721 -0.6878  0.2946
  568SOL    HW1 1703   1.341   1.177   2.917  1.1232  0.9811  2.2379
  568SOL    HW2 1704   1.462   1.302   2.919 -3.6822  0.6018 -0.1282
  569SOL     OW 1705   2.153   1.817   0.461 -0.3795 -0.0007 -0.2538
  569SOL    HW1 1706   2.136   1.837   0.359 -0.8753  0.3834 -1.7778
  569SOL    HW2 1707   2.130   1.901   0.518 -1.0907 -0.7432  2.7952
  570SOL     OW 1708   2.695   2.129   2.236 -0.0337  0.2906 -0.1813
  570SOL    HW1 1709   2.742   2.194   2.174 -1.5265  0.9216  2.4300
  570SOL    HW2 1710   2.713   2.029   2.217 -3.0973 -0.5873 -2.7168
  571SOL     OW 1711   2.762   1.933   1.926 -0.3891 -0.0222  0.1603
  571SOL    HW1 1712   2.806   1.850   1.891  0.4980 -0.2898  1.9903
  571SOL    HW2 1713   2.744   1.929   2.029 -0.1565 -2.4743 -1.0037
  572SOL     OW 1714   1.523   2.485   0.115 -0.5527  0.0728  0.1746
  572SOL    HW1 1715   1.460   2.509   0.191  0.0824 -2.6244  1.1709
  572SOL    HW2 1716   1.477   2.435   0.042  2.3824  0.5861  2.8945
  573SOL     OW 1717   1.357   1.857   0.665 -0.8851 -0.1327 -0.1092
  573SOL    HW1 1718   1.425   1.901   0.730 -1.6791  0.4624  0.7544
  573SOL    HW2 1719   1.292   1.796   0.718 -0.6709 -0.2977 -3.2890
  574SOL     OW 1720   1.187   2.843   1.567  0.1800  0.4192  0.4574
  574SOL    HW1 1721   1.239   2.927   1.600  1.4735 -0.2137 -0.3214
  574SOL    HW2 1722   1.095   2.829   1.612  3.2924  0.0883 -2.4758
  575SOL     OW 1723   0.939   0.841   1.416  0.0817 -0.0168  0.2448
  575SOL    HW1 1724   0.906   0.835   1.320  1.6588  2.7150 -0.8302
  575SOL    HW2 1725   0.906   0.758   1.472  0.5932  1.2849  1.1416
  576SOL     OW 1726   2.796   0.225   1.186 -0.4675 -0.5911 -0.1406
  576SOL    HW1 1727   2.773   0.291   1.116 -1.2880 -1.9873 -0.3807
  576SOL    HW2 1728   2.712   0.182   1.222  1.6566  1.2889  0.2217
  577SOL     OW 1729   2.250   0.644   2.690 -0.8720 -0.1857  0.1390
  577SOL    HW1 1730   2.210   0.702   2.765  0.4384  0.7202 -1.8258
  577SOL    HW2 1731   2.346   0.677   2.663  2.9936  3.4522 -0.4231
  578SOL     OW 1732   1.971   1.625   2.280  0.3315  0.0015  0.2647
  578SOL    HW1 1733   1.882   1.646   2.236  0.5513  0.4167 -1.3408
  578SOL    HW2 1734   1.951   1.594   2.376 -1.2082  0.6120  0.9596
  579SOL     OW 1735   0.358   1.415   0.913 -0.4247 -0.0026 -0.2769
  579SOL    HW1 1736   0.319   1.359   0.989 -2.8478  0.1508  0.9722
  579SOL    HW2 1737   0.390   1.352   0.842 -0.3683  1.3822  2.1084
  580SOL     OW 1738   1.380   2.318   3.022  0.0982  0.0841 -0.2841
  580SOL    HW1 1739   1.360   2.234   3.074  1.4731 -0.7828 -0.7776
  580SOL    HW2 1740   1.329   2.338   2.938  3.9100 -0.8049  5.0800
  581SOL     OW 1741   0.957   0.602   2.088  0.2884 -0.1067 -0.0001
  581SOL    HW1 1742   0.925   0.505   2.066  1.5128 -1.6882 -0.5840
  581SOL    HW2 1743   1.018   0.601   2.170 -0.3943 -0.3783 -1.2418
  582SOL     OW 1744   0.346   0.742   0.858 -0.1711 -0.1032  0.2595
  582SOL    HW1 1745   0.412   0.718   0.788 -1.7005 -0.7991  1.5154
  582SOL    HW2 1746   0.293   0.827   0.842  1.7573 -2.3724  4.9696
  583SOL     OW 1747   0.851   1.626   2.160  0.2411  0.4042 -0.3078
  583SOL    HW1 1748   0.842   1.596   2.061  0.6672 -1.4123  0.9637
  583SOL    HW2 1749   0.948   1.646   2.178  0.9514 -2.2376  1.1556
  584SOL     OW 1750   1.916   2.858   0.326 -0.0098  0.3658  0.0007
  584SOL    HW1 1751   1.834   2.823   0.373 -1.5116  2.4311  0.6328
  584SOL    HW2 1752   1.968   2.925   0.378 -2.5399 -1.4885  0.6123
  585SOL     OW 1753   1.884   0.603   2.875  0.0875 -0.5720  0.2861
  585SOL    HW1 1754   1.849   0.639   2.962  1.3089 -1.6293 -0.5408
  585SOL    HW2 1755   1.806   0.609   2.810 -0.9839 -1.0634 -0.2095
  586SOL     OW 1756   0.187   1.731   0.567  0.0255  0.0662 -0.8740
  586SOL    HW1 1757   0.138   1.762   0.484  1.8597 -0.0242  1.0647
  586SOL    HW2 1758   0.271   1.671   0.554 -0.4384 -0.3824  1.3166
  587SOL     OW 1759   1.571   1.951   0.845 -0.2582  0.1038 -0.3915
  587SOL    HW1 1760   1.582   2.041   0.800  2.1224 -0.6308 -0.8783
  587SOL    HW2 1761   1.662   1.922   0.882 -0.5828  0.5971  0.5655
  588SOL     OW 1762   0.611   0.607   0.872  0.1961  0.2670 -0.0417
  588SOL    HW1 1763   0.580   0.643   0.964  0.2742 -0.5792  1.0528
  588SOL    HW2 1764   0.700   0.640   0.842 -1.6125 -0.2093 -1.6091
  589SOL     OW 1765   1.041   0.295   0.920 -0.1821  0.2319 -0.1559
  589SOL    HW1 1766   0.960   0.288   0.861  2.3484 -1.6494 -1.5171
  589SOL    HW2 1767   1.016   0.333   1.009 -0.3991  1.2922 -3.1538
  590SOL     OW 1768   1.316   0.856   0.270  0.0111 -0.1392 -0.0959
  590SOL    HW1 1769   1.233   0.864   0.326  1.0398  1.7791 -0.4387
  590SOL    HW2 1770   1.397   0.827   0.324 -0.7459  1.5248  0.5875
  591SOL     OW 1771   2.530   2.511   2.247  0.0721  0.0573 -0.0922
  591SOL    HW1 1772   2.590   2.580   2.203 -2.8523  1.4496 -1.1967
  591SOL    HW2 1773   2.573   2.444   2.301 -3.9587  3.2181 -0.4130
  592SOL     OW 1774   1.506   1.900   1.093  0.5695  0.1163  0.2368
  592SOL    HW1 1775   1.526   1.890   0.994  3.3617 -1.3417 -0.3522
  592SOL    HW2 1776   1.467   1.992   1.112  0.8637  0.5284 -0.8532
  593SOL     OW 1777   1.014   2.971   0.836  0.0527  0.2156 -0.4391
  593SOL    HW1 1778   1.001   2.876   0.836 -1.8212  1.7749  3.5644
  593SOL    HW2 1779   1.109   3.005   0.812  4.6361  1.6902 -0.3319
  594SOL     OW 1780   0.306   1.011   1.915  0.1264  0.2850 -0.5820
  594SOL    HW1 1781   0.364   0.952   1.855  0.1894  0.3757 -1.8009
  594SOL    HW2 1782   0.321   1.109   1.909 -1.4828 -2.5386 -0.6921
  595SOL     OW 1783   0.107   2.778   0.932  0.0041  0.4371  0.6006
  595SOL    HW1 1784   0.175   2.748   0.860 -0.5643  0.6453 -3.9970
  595SOL    HW2 1785   0.108   2.877   0.943  0.8053 -0.7904  0.1760
  596SOL     OW 1786   0.216   0.686   1.649 -0.7062  0.0808  0.1791
  596SOL    HW1 1787   0.292   0.675   1.709  1.1305  1.8499 -1.7048
  596SOL    HW2 1788   0.155   0.756   1.687  1.7858 -0.4786 -0.1106
  597SOL     OW 1789   1.888   1.553   0.619  1.2576 -0.8844  0.4068
  597SOL    HW1 1790   1.877   1.451   0.610  0.6892  2.4308 -0.0752
  597SOL    HW2 1791   1.814   1.593   0.679 -1.7630  1.6587  4.5510
  598SOL     OW 1792   0.575   2.739   2.091  0.0891 -0.0362 -0.3940
  598SOL    HW1 1793   0.626   2.742   2.002 -0.7280  1.0136 -2.2665
  598SOL    HW2 1794   0.529   2.652   2.093  1.7735  1.5964  1.2360
  599SOL     OW 1795   2.695   1.990   2.983  0.3871 -0.0879 -0.0482
  599SOL    HW1 1796   2.706   1.948   2.891 -2.1234 -2.4001 -0.9253
  599SOL    HW2 1797   2.687   1.909   3.047  1.9481 -2.3483 -0.4756
  600SOL     OW 1798   0.761   0.948   0.062 -0.3881  0.1071 -0.7643
  600SOL    HW1 1799   0.779   0.996   3.057 -1.4266 -0.7489  0.7942
  600SOL    HW2 1800   0.691   0.998   0.118 -2.4953 -0.1981  4.2692
  601SOL     OW 1801   1.014   1.064   0.189 -0.3792 -0.5617 -0.8741
  601SOL    HW1 1802   1.040   0.969   0.224 -1.7167 -1.2389 -0.5544
  601SOL    HW2 1803   1.103   1.112   0.165 -1.3662  1.3379 -2.3298
  602SOL     OW 1804   1.359   2.758   1.146  0.4208 -0.8648  0.1384
  602SOL    HW1 1805   1.420   2.807   1.076 -0.1495  0.3861 -1.1886
  602SOL    HW2 1806   1.297   2.829   1.186 -1.0520  4.1600 -0.7105
  603SOL     OW 1807   0.970   3.021   2.306  0.2786  0.3113 -0.4531
  603SOL    HW1 1808   0.919   3.002   2.216  0.3092 -2.3497 -3.6358
  603SOL    HW2 1809   1.062   2.974   2.307 -0.0111  2.1868 -0.8891
  604SOL     OW 1810   3.013   0.132   2.090  0.8334  0.3109 -0.1711
  604SOL    HW1 1811   3.040   0.042   2.135  3.5486  0.6400  1.6619
  604SOL    HW2 1812   3.063   0.213   2.131 -0.4508 -1.9419 -0.2784
  605SOL     OW 1813   2.617   2.278   1.396 -0.0969 -0.6520 -0.2285
  605SOL    HW1 1814   2.556   2.357   1.363 -0.2391  1.4908 -2.1528
  605SOL    HW2 1815   2.667   2.312   1.481  2.1573 -0.1634  2.5833
  606SOL     OW 1816   0.345   1.559   2.920 -0.2034 -0.2089  0.0531
  606SOL    HW1 1817   0.257   1.512   2.945 -0.0342  1.4285 -1.5287
  606SOL    HW2 1818   0.327   1.659   2.898  0.0053  0.4579  0.4914
  607SOL     OW 1819   0.781   0.421   0.130  0.6854  0.0588 -0.0080
  607SOL    HW1 1820   0.773   0.522   0.123  1.2985 -0.9792 -0.5354
  607SOL    HW2 1821   0.834   0.379   0.054  2.1297 -2.8538  1.8748
  608SOL     OW 1822   1.885   1.283   2.363  0.1521  0.4982 -0.3998
  608SOL    HW1 1823   1.791   1.250   2.387  2.3540 -0.1717 -0.4710
  608SOL    HW2 1824   1.910   1.366   2.419  1.4601 -1.9672  2.9098
  609SOL     OW 1825   2.971   0.351   0.866 -0.5325 -0.0172  0.5987
  609SOL    HW1 1826   3.032   0.338   0.948  0.1111  2.2079 -1.2746
  609SOL    HW2 1827   2.872   0.362   0.899 -0.8257  0.2140  1.6976
  610SOL     OW 1828   0.364   2.371   3.009 -0.0180  0.6385  0.0259
  610SOL    HW1 1829   0.379   2.269   3.029  0.8236 -1.3967  0.5137
  610SOL    HW2 1830   0.303   2.410   3.079  1.4230  2.3033 -1.4206
  611SOL     OW 1831   1.810   1.295   0.485 -0.0670 -0.3629 -0.1951
  611SOL    HW1 1832   1.882   1.310   0.416  0.9455 -1.9825  0.1291
  611SOL    HW2 1833   1.731   1.361   0.474 -0.5046 -0.9599 -2.6755
  612SOL     OW 1834   0.916   2.397   2.582  0.0224  0.0805 -0.6284
  612SOL    HW1 1835   0.907   2.297   2.614  0.6376 -0.8220  1.3882
  612SOL    HW2 1836   0.830   2.445   2.581  1.0622 -0.1133 -1.9486
  613SOL     OW 1837   1.125   1.800   3.039 -0.3768  0.4311  0.3816
  613SOL    HW1 1838   1.218   1.752   3.031  5.3252  1.4729 -0.6246
  613SOL    HW2 1839   1.111   1.863   2.961  1.0995 -0.4478  1.0151
  614SOL     OW 1840   2.771   2.797   1.481 -0.0578 -0.0527 -0.2993
  614SOL    HW1 1841   2.852   2.856   1.449 -0.5044  0.7424 -0.3803
  614SOL    HW2 1842   2.759   2.707   1.432 -1.8103  0.5966  0.0302
  615SOL     OW 1843   2.260   1.303   2.934 -0.2045  0.2107 -0.0226
  615SOL    HW1 1844   2.160   1.326   2.937  0.6379  0.6366  1.1653
  615SOL    HW2 1845   2.305   1.315   2.840 -1.6915  0.1887 -3.1247
  616SOL     OW 1846   1.688   0.109   0.694 -0.5480 -0.5124  0.0116
  616SOL    HW1 1847   1.768   0.125   0.630  0.6356 -0.0765 -1.3077
  616SOL    HW2 1848   1.716   0.079   0.786 -1.1788 -0.7791  0.5712
  617SOL     OW 1849   0.846   1.053   2.911  0.0344  0.0017 -0.0649
  617SOL    HW1 1850   0.799   0.971   2.873  0.8064 -0.6281  4.2229
  617SOL    HW2 1851   0.857   1.137   2.847  0.5294  0.8030 -2.1753
  618SOL     OW 1852   0.837   0.801   1.869 -0.1185  0.0567  0.6707
  618SOL    HW1 1853   0.802   0.883   1.824  3.7933 -2.4435 -1.0210
  618SOL    HW2 1854   0.864   0.817   1.964  0.3346  0.5885  0.5615
  619SOL     OW 1855   0.275   1.020   1.505  0.7834 -0.2856  0.2758
  619SOL    HW1 1856   0.233   1.097   1.564 -2.4644  2.1989 -1.0361
  619SOL    HW2 1857   0.353   0.966   1.552  1.8477 -1.6452 -0.8311
  620SOL     OW 1858   1.903   1.232   0.034 -0.3998  0.1982  0.4181
  620SOL    HW1 1859   1.817   1.270   0.062  7.9007 -0.9952 -1.1192
  620SOL    HW2 1860   1.953   1.302   3.068 -0.2186 -2.3320  1.6996
  621SOL     OW 1861   2.585   2.904   1.095  0.0048  0.0869 -0.2262
  621SOL    HW1 1862   2.557   2.997   1.124  0.1006  0.0571 -1.1017
  621SOL    HW2 1863   2.552   2.835   1.168 -1.2459  0.3147 -0.1083
  622SOL     OW 1864   1.619   0.909   2.430  0.0585 -0.1957  0.0955
  622SOL    HW1 1865   1.724   0.933   2.432  0.5882 -0.6965 -0.1704
  622SOL    HW2 1866   1.587   0.821   2.389 -1.4516  1.6382 -0.0247
  623SOL     OW 1867   0.970   0.334   2.965  0.2786  0.1437 -0.3200
  623SOL    HW1 1868   1.015   0.290   2.884  3.1744  0.8586 -0.1985
  623SOL    HW2 1869   1.004   0.429   2.970  0.7418  0.0408  0.1177
  624SOL     OW 1870   1.601   0.420   0.289  0.4730  0.9847  0.0495
  624SOL    HW1 1871   1.548   0.379   0.365  0.3858  1.9084 -0.3039
  624SOL    HW2 1872   1.700   0.421   0.312 -0.4634  0.1309  1.7888
  625SOL     OW 1873   0.647   1.176   0.819 -1.4349 -0.5169 -0.4960
  625SOL    HW1 1874   0.636   1.276   0.804 -1.4343 -0.2515  0.0042
  625SOL    HW2 1875   0.565   1.125   0.787  2.2522  0.9481  2.0807
  626SOL     OW 1876   1.308   1.090   0.152  0.2678  0.2834  0.0704
  626SOL    HW1 1877   1.360   1.153   0.213 -1.6521 -0.3024 -2.0213
  626SOL    HW2 1878   1.297   0.996   0.193 -0.0392 -0.4776 -2.0707
  627SOL     OW 1879   0.945   0.005   1.842  0.1438 -0.6378  0.0886
  627SOL    HW1 1880   1.020   0.064   1.875  1.3069  1.0892 -1.6382
  627SOL    HW2 1881   0.860   0.062   1.834  0.6321 -2.5856  0.8407
  628SOL     OW 1882   2.514   0.251   2.143 -0.0456 -0.0601 -0.0505
  628SOL    HW1 1883   2.604   0.285   2.179  2.3641  2.2540  0.2830
  628SOL    HW2 1884   2.449   0.328   2.131 -3.1476 -0.0052 -0.4838
  629SOL     OW 1885   0.838   1.248   2.723  0.3086 -0.4863  0.1003
  629SOL    HW1 1886   0.922   1.298   2.739 -1.0540 -1.7219 -0.0269
  629SOL    HW2 1887   0.811   1.251   2.625  0.0159  0.0118 -0.5438
  630SOL     OW 1888   1.302   0.302   2.340 -0.0141 -0.1979 -0.5862
  630SOL    HW1 1889   1.203   0.306   2.342  1.0349  0.3746  1.8245
  630SOL    HW2 1890   1.339   0.355   2.417  0.6618  0.0272 -0.0964
  631SOL     OW 1891   2.598   0.901   0.688  0.5629  0.2217 -0.4865
  631SOL    HW1 1892   2.630   0.944   0.774  0.9347  0.1269 -1.6867
  631SOL    HW2 1893   2.678   0.882   0.626  0.5902  0.2354 -0.5750
  632SOL     OW 1894   2.476   0.968   1.421  0.0492 -0.5950  0.0288
  632SOL    HW1 1895   2.547   0.908   1.378 -1.0472  0.4107 -1.2555
  632SOL    HW2 1896   2.448   1.043   1.357  3.6204  0.7925  1.4195
  633SOL     OW 1897   1.653   0.954   1.020  0.0936  0.0776 -0.1811
  633SOL    HW1 1898   1.742   0.981   0.981  1.9758 -0.7462 -2.3180
  633SOL    HW2 1899   1.654   0.851   1.041 -1.1201 -2.9816  0.7412
  634SOL     OW 1900   1.757   0.003   0.941  0.5647 -0.4236  0.1716
  634SOL    HW1 1901   1.742   2.988   0.967  1.2742  0.8254 -3.1528
  634SOL    HW2 1902   1.819   0.050   1.008 -2.3546 -0.6853 -0.0859
  635SOL     OW 1903   1.487   0.852   1.279 -0.7124 -0.5808  0.2385
  635SOL    HW1 1904   1.402   0.810   1.301  3.4875 -0.5309  0.4815
  635SOL    HW2 1905   1.472   0.947   1.243 -0.6049  0.0760 -0.9029
  636SOL     OW 1906   0.932   0.650   0.505 -0.0880 -0.4035 -0.9463
  636SOL    HW1 1907   0.853   0.645   0.445  2.3645 -1.3098  1.4896
  636SOL    HW2 1908   0.921   0.598   0.593  0.9162  0.8362  1.4648
  637SOL     OW 1909   1.797   2.221   0.157  0.8529  0.3062 -0.0455
  637SOL    HW1 1910   1.781   2.309   0.209  2.2426 -1.4923  1.6243
  637SOL    HW2 1911   1.712   2.188   0.109 -0.4454  0.9870  1.6219
  638SOL     OW 1912   1.203   2.675   2.864  0.0627 -0.3549  0.2891
  638SOL    HW1 1913   1.142   2.694   2.943  1.0026 -0.5984 -1.7050
  638SOL    HW2 1914   1.297   2.691   2.898 -0.9044  0.7377  0.7774
  639SOL     OW 1915   0.804   2.062   1.094 -0.2209  0.3527 -0.3019
  639SOL    HW1 1916   0.722   2.071   1.033  0.1621 -1.4150  0.4572
  639SOL    HW2 1917   0.778   2.046   1.194 -0.3331 -1.0675  1.2045
  640SOL     OW 1918   0.211   2.764   0.245  0.0018  0.1455 -0.1236
  640SOL    HW1 1919   0.139   2.743   0.324 -1.8954  0.7044 -1.1766
  640SOL    HW2 1920   0.267   2.843   0.264  0.6279 -2.2458 -0.1343
  641SOL     OW 1921   0.114   0.181   0.036  0.4844  0.4056  0.1649
  641SOL    HW1 1922   0.133   0.182   0.140 -1.7790 -1.2243  2.1739
  641SOL    HW2 1923   0.203   0.178   3.071 -2.0232 -0.9156  0.3147
  642SOL     OW 1924   0.046   1.446   1.218  0.3689 -0.5418 -0.2784
  642SOL    HW1 1925   0.108   1.500   1.161 -1.0773 -0.6037  0.1996
  642SOL    HW2 1926   3.053   1.505   1.245  1.2764  1.5932  2.2498
  643SOL     OW 1927   0.720   1.860   2.068  0.1967  0.3205 -0.4538
  643SOL    HW1 1928   0.751   1.777   2.119 -0.5547  0.7577  1.9035
  643SOL    HW2 1929   0.796   1.915   2.032 -2.9231 -2.0747  0.2841
  644SOL     OW 1930   1.677   2.566   0.573  0.4670  0.7632  0.1690
  644SOL    HW1 1931   1.739   2.490   0.595  0.4732  0.3301 -0.5484
  644SOL    HW2 1932   1.618   2.588   0.654  0.9114 -1.6779  2.8487
  645SOL     OW 1933   1.698   2.489   1.342  0.1630 -0.0125  0.2269
  645SOL    HW1 1934   1.782   2.492   1.283  3.4144  1.0973  1.5682
  645SOL    HW2 1935   1.673   2.390   1.365 -1.9414 -0.8254  2.0701
  646SOL     OW 1936   1.156   2.876   0.508  0.4422 -0.3458  0.0050
  646SOL    HW1 1937   1.124   2.951   0.451  2.4801 -2.0157  0.5330
  646SOL    HW2 1938   1.108   2.792   0.477 -2.1158  0.7380  2.8455
  647SOL     OW 1939   0.326   2.927   2.095 -0.6012 -0.2426  0.0626
  647SOL    HW1 1940   0.321   2.914   1.992  1.3477  1.2567  1.2104
  647SOL    HW2 1941   0.384   2.850   2.131 -0.4278  1.0743  2.4350
  648SOL     OW 1942   2.413   0.834   0.969  0.4375  0.2055 -0.3756
  648SOL    HW1 1943   2.359   0.921   0.994  1.4831 -1.5674  1.4722
  648SOL    HW2 1944   2.456   0.839   0.879 -0.7702  2.6495  0.1959
  649SOL     OW 1945   1.848   2.187   2.863 -0.5469  0.4419 -0.0834
  649SOL    HW1 1946   1.918   2.196   2.937  0.1534 -1.5085  0.2132
  649SOL    HW2 1947   1.789   2.265   2.863  0.9709 -1.6465 -2.1432
  650SOL     OW 1948   2.496   1.660   1.553  0.0298  0.9117 -0.2779
  650SOL    HW1 1949   2.526   1.737   1.609  0.0030 -1.5904 -1.7763
  650SOL    HW2 1950   2.398   1.635   1.569 -0.7515 -0.9944 -1.3993
  651SOL     OW 1951   1.596   1.643   2.858 -0.6162  0.8413 -0.2394
  651SOL    HW1 1952   1.697   1.670   2.865  2.9678  0.0599 -2.0311
  651SOL    HW2 1953   1.566   1.691   2.778  2.7760  1.1544  0.6508
  652SOL     OW 1954   0.843   2.954   2.732 -0.4194 -0.5962  0.0076
  652SOL    HW1 1955   0.904   2.873   2.740  0.2689  1.4320  1.6024
  652SOL    HW2 1956   0.880   3.017   2.660 -0.8763 -0.9762 -2.5062
  653SOL     OW 1957   1.952   2.372   0.885  0.5031  0.3917  0.1332
  653SOL    HW1 1958   1.901   2.383   0.975 -1.0495 -0.2472 -0.2585
  653SOL    HW2 1959   2.040   2.326   0.897  0.8873 -0.8317 -0.0425
  654SOL     OW 1960   2.684   2.934   2.166  0.2545 -0.1166  0.1079
  654SOL    HW1 1961   2.643   2.986   2.241 -1.9735  2.4072  0.6372
  654SOL    HW2 1962   2.643   2.968   2.083 -1.2528  0.0777  0.1006
  655SOL     OW 1963   2.845   2.119   1.282  0.7211 -0.4582  0.1264
  655SOL    HW1 1964   2.914   2.183   1.234  0.5437  1.4443  2.4047
  655SOL    HW2 1965   2.754   2.164   1.260  0.6849  1.9579 -0.8325
  656SOL     OW 1966   2.949   2.079   2.688  0.0216 -0.2594 -0.4448
  656SOL    HW1 1967   3.001   2.084   2.599 -2.6945  1.1955  1.6036
  656SOL    HW2 1968   2.959   1.987   2.725  0.4236  2.0414  2.4127
  657SOL     OW 1969   2.789   0.824   0.478  0.5384 -0.7726 -0.5434
  657SOL    HW1 1970   2.733   0.840   0.397  1.0775  0.8768  0.9795
  657SOL    HW2 1971   2.879   0.874   0.475  1.3516 -0.4102 -0.4948
  658SOL     OW 1972   1.320   1.715   1.208 -0.0890 -0.0383 -0.0731
  658SOL    HW1 1973   1.305   1.721   1.310 -0.8390  2.3566 -1.0444
  658SOL    HW2 1974   1.399   1.770   1.173  1.4957 -0.0236  0.8494
  659SOL     OW 1975   1.480   0.373   1.300  0.3098  0.0042 -0.4802
  659SOL    HW1 1976   1.557   0.436   1.281 -1.6877  1.4410 -0.6430
  659SOL    HW2 1977   1.501   0.332   1.387 -0.6360  1.1351  0.9142
  660SOL     OW 1978   2.078   1.444   0.884  0.1503 -0.3204  0.4103
  660SOL    HW1 1979   2.052   1.378   0.816  1.2758  0.7265  1.1452
  660SOL    HW2 1980   2.097   1.537   0.843 -0.8511  0.7774 -0.2991
  661SOL     OW 1981   0.154   1.548   0.196  0.4482 -0.4569  0.5125
  661SOL    HW1 1982   0.078   1.594   0.242  2.8080 -0.5461 -2.6596
  661SOL    HW2 1983   0.245   1.591   0.225  2.0963 -2.3215 -0.5266
  662SOL     OW 1984   2.663   0.944   1.889  0.4148  0.0316 -0.0173
  662SOL    HW1 1985   2.665   0.902   1.982  0.3233 -2.1885  0.6505
  662SOL    HW2 1986   2.565   0.961   1.867 -0.9364  0.6542  0.3386
  663SOL     OW 1987   2.166   1.416   1.177  0.5786 -0.2369  0.0707
  663SOL    HW1 1988   2.218   1.499   1.209  1.0525 -0.7711  2.3211
  663SOL    HW2 1989   2.174   1.347   1.247  0.8641  0.9215 -0.9571
  664SOL     OW 1990   0.453   0.120   1.272 -0.7908 -0.3893 -0.2248
  664SOL    HW1 1991   0.435   0.084   1.368  1.0414 -0.8223  2.4670
  664SOL    HW2 1992   0.542   0.085   1.236  0.3467  1.3103 -3.8110
  665SOL     OW 1993   1.284   0.089   2.900 -0.0587 -0.2172 -0.2176
  665SOL    HW1 1994   1.362   0.146   2.933  0.2397  1.0834 -0.1094
  665SOL    HW2 1995   1.265   0.026   2.975  0.5875  0.2809 -0.9174
  666SOL     OW 1996   0.453   0.256   2.275 -0.4012  0.4220 -0.0909
  666SOL    HW1 1997   0.491   0.338   2.227 -0.0964  2.8220  1.0792
  666SOL    HW2 1998   0.510   0.227   2.359  0.9967 -3.2196  1.8020
  667SOL     OW 1999   1.868   1.348   2.103  0.2280 -0.0631  0.3539
  667SOL    HW1 2000   1.967   1.357   2.069 -1.6014 -1.6861 -1.0622
  667SOL    HW2 2001   1.869   1.312   2.202  2.1854 -0.3653 -0.9363
  668SOL     OW 2002   0.009   1.639   2.548 -0.3007 -0.4930 -0.6907
  668SOL    HW1 2003   3.004   1.593   2.554 -1.8786  0.6746 -1.6682
  668SOL    HW2 2004   0.087   1.572   2.542  2.4563  1.9884 -0.1074
  669SOL     OW 2005   2.264   0.113   2.472  0.4208 -0.6803 -0.1629
  669SOL    HW1 2006   2.285   0.047   2.549  3.3440 -0.8717 -0.4797
  669SOL    HW2 2007   2.276   0.210   2.507  1.6234  1.4409 -1.6024
  670SOL     OW 2008   2.659   1.079   2.263  0.3452 -0.0776 -0.6578
  670SOL    HW1 2009   2.754   1.099   2.289  0.3242  0.9044 -2.3712
  670SOL    HW2 2010   2.653   0.986   2.216 -2.8438  1.7449 -1.1336
  671SOL     OW 2011   2.660   1.768   0.104 -0.2558 -0.2363 -0.1985
  671SOL    HW1 2012   2.669   1.711   0.022 -0.2603  2.0426  1.5271
  671SOL    HW2 2013   2.599   1.721   0.173 -1.1402 -2.8668 -2.3139
  672SOL     OW 2014   2.059   1.855   2.120  0.0449 -0.1169 -0.1093
  672SOL    HW1 2015   2.157   1.871   2.111 -0.2715 -2.7526 -2.0041
  672SOL    HW2 2016   2.041   1.763   2.158  0.4841  1.4404  1.4663
  673SOL     OW 2017   2.903   1.701   1.017  0.2041  0.0044 -0.3391
  673SOL    HW1 2018   2.838   1.776   0.995  1.5550  0.3329  1.4131
  673SOL    HW2 2019   2.930   1.707   1.112 -1.4566 -2.0327 -1.3399
  674SOL     OW 2020   1.064   2.110   1.810 -0.1153 -0.0806  0.0696
  674SOL    HW1 2021   1.059   2.041   1.885  1.5635 -2.0675  4.5887
  674SOL    HW2 2022   0.979   2.095   1.757  0.8903 -0.6595 -0.2741
  675SOL     OW 2023   3.046   0.588   0.770  0.3831  0.6789 -0.0764
  675SOL    HW1 2024   0.051   0.556   0.731 -1.6589  1.3176 -0.7205
  675SOL    HW2 2025   3.010   0.516   0.835 -0.5401  1.6925 -0.8699
  676SOL     OW 2026   2.990   1.385   0.616  0.6812  0.0559  1.2621
  676SOL    HW1 2027   2.969   1.285   0.627 -1.3073 -3.4936  2.3190
  676SOL    HW2 2028   2.932   1.443   0.676 -0.3866 -0.5697 -0.3512
  677SOL     OW 2029   1.705   1.647   2.197 -0.0769 -0.2982 -0.7234
  677SOL    HW1 2030   1.696   1.564   2.139 -2.0967  0.0032 -1.6114
  677SOL    HW2 2031   1.724   1.731   2.145  1.7634 -0.6296  2.1137
  678SOL     OW 2032   2.616   1.507   0.908  0.5158 -0.0517 -0.5594
  678SOL    HW1 2033   2.594   1.604   0.887 -0.1316  2.5963 -1.5569
  678SOL    HW2 2034   2.539   1.455   0.929  1.1481  1.7591 -1.2147
  679SOL     OW 2035   0.573   2.113   0.900  0.6517  0.3726 -0.2119
  679SOL    HW1 2036   0.595   2.051   0.824 -0.1402 -2.4183  2.3458
  679SOL    HW2 2037   0.633   2.193   0.893 -2.0712 -1.9710 -0.9135
  680SOL     OW 2038   3.002   1.728   1.327 -0.0274  0.5659  0.0515
  680SOL    HW1 2039   3.021   1.818   1.283 -2.2794  0.0782 -1.1425
  680SOL    HW2 2040   2.989   1.739   1.428  0.5587 -0.6050 -2.9690
  681SOL     OW 2041   1.004   0.391   1.174  0.2256  0.5240 -0.5730
  681SOL    HW1 2042   0.923   0.380   1.232  1.8451  1.5491  1.6192
  681SOL    HW2 2043   1.085   0.400   1.238 -1.0588 -0.4291 -0.0068
  682SOL     OW 2044   1.773   2.959   1.276 -0.2817 -0.1766  0.1849
  682SOL    HW1 2045   1.776   2.943   1.377 -1.5446 -1.1565 -1.9598
  682SOL    HW2 2046   1.741   3.056   1.254 -0.3061  0.8012 -1.2517
  683SOL     OW 2047   2.353   1.361   1.432  0.2215  0.3205  0.0913
  683SOL    HW1 2048   2.305   1.444   1.469  0.1535 -0.9515 -0.7252
  683SOL    HW2 2049   2.418   1.335   1.501 -0.7566  1.0729 -2.4010
  684SOL     OW 2050   0.100   1.712   1.653  0.1203 -0.2436  0.3616
  684SOL    HW1 2051   0.007   1.686   1.618 -0.0208  1.6417  1.9934
  684SOL    HW2 2052   0.126   1.649   1.724  0.9168 -1.7667  2.6123
  685SOL     OW 2053   2.070   1.838   0.200 -0.5633  0.6107  0.0601
  685SOL    HW1 2054   2.027   1.927   0.218  1.4956 -0.7714 -0.6644
  685SOL    HW2 2055   2.014   1.780   0.139 -0.5696  0.3438  1.6709
  686SOL     OW 2056   2.718   0.377   0.980  0.3235 -0.4113  0.2210
  686SOL    HW1 2057   2.653   0.444   1.027 -0.2564 -0.0526  0.7251
  686SOL    HW2 2058   2.659   0.324   0.917 -0.7107  0.8390  2.4679
  687SOL     OW 2059   1.575   0.237   2.576  0.7174  0.6223 -0.1087
  687SOL    HW1 2060   1.548   0.142   2.548  0.1974 -0.9618 -0.1739
  687SOL    HW2 2061   1.651   0.223   2.646 -2.3256  2.5268 -1.2584
  688SOL     OW 2062   1.266   2.096   2.259  0.1983  0.2464 -0.3016
  688SOL    HW1 2063   1.284   2.192   2.231 -0.5104  2.7375  1.1689
  688SOL    HW2 2064   1.204   2.103   2.337  1.1330  4.1279 -0.9901
  689SOL     OW 2065   2.506   1.510   1.772  0.4464  0.0145 -0.7503
  689SOL    HW1 2066   2.527   1.554   1.679 -0.6396  2.5588  2.6048
  689SOL    HW2 2067   2.585   1.499   1.833 -0.3312 -2.7488 -0.1816
  690SOL     OW 2068   1.695   1.849   1.286 -0.7997 -0.6298  0.5955
  690SOL    HW1 2069   1.628   1.871   1.210 -1.1644 -1.5309 -0.6060
  690SOL    HW2 2070   1.720   1.750   1.278  3.1929  0.6361 -0.2939
  691SOL     OW 2071   0.175   1.354   0.551 -0.0605 -0.0124  0.0726
  691SOL    HW1 2072   0.149   1.317   0.457 -0.7856 -0.0637 -0.0887
  691SOL    HW2 2073   0.095   1.383   0.607  0.5473  0.3923 -1.3832
  692SOL     OW 2074   2.268   2.825   2.236 -0.0190  0.6099  0.9695
  692SOL    HW1 2075   2.362   2.821   2.277  0.5555 -1.1890  1.6055
  692SOL    HW2 2076   2.196   2.808   2.308 -1.6227  1.5320  1.2037
  693SOL     OW 2077   2.994   1.541   2.206 -0.1228 -0.2535 -0.4997
  693SOL    HW1 2078   3.045   1.456   2.244  1.2505 -0.2597 -0.8693
  693SOL    HW2 2079   2.977   1.615   2.274  2.1821  3.3300  1.0297
  694SOL     OW 2080   2.298   0.221   1.860 -0.3854  0.2078 -0.1875
  694SOL    HW1 2081   2.266   0.169   1.781 -0.1871  2.6444  0.0147
  694SOL    HW2 2082   2.361   0.296   1.834 -2.9585 -1.4454 -1.7268
  695SOL     OW 2083   1.116   0.736   2.722  0.3250  0.2499 -0.4917
  695SOL    HW1 2084   1.049   0.776   2.659 -0.3351 -1.3467  1.2253
  695SOL    HW2 2085   1.191   0.799   2.743 -0.2601 -0.3948 -1.0698
  696SOL     OW 2086   1.745   0.068   1.847  0.2982 -0.2035 -0.0285
  696SOL    HW1 2087   1.809   0.131   1.800 -4.1590  0.1557 -0.2564
  696SOL    HW2 2088   1.691   0.022   1.773 -0.2760  1.3206 -0.9540
  697SOL     OW 2089   1.712   0.202   2.095  0.3694  0.1818  0.1449
  697SOL    HW1 2090   1.794   0.249   2.123 -2.6637  1.2680 -1.0478
  697SOL    HW2 2091   1.732   0.145   2.015  0.3827 -2.6080 -0.3358
  698SOL     OW 2092   1.794   1.857   2.040  0.3347  0.3196  0.1768
  698SOL    HW1 2093   1.895   1.854   2.064 -1.7330 -4.0670  0.7864
  698SOL    HW2 2094   1.781   1.900   1.946 -0.6034 -1.6780 -0.1909
  699SOL     OW 2095   1.958   0.773   0.337  0.3144  0.4147  0.2954
  699SOL    HW1 2096   1.853   0.764   0.338 -0.7482  1.4326  1.2717
  699SOL    HW2 2097   1.991   0.868   0.354  0.4317  0.2594  0.1390
  700SOL     OW 2098   1.224   0.192   0.459 -0.3940 -0.7682 -0.2689
  700SOL    HW1 2099   1.174   0.277   0.470  1.6092  0.1434  2.5022
  700SOL    HW2 2100   1.228   0.164   0.362  1.0931 -1.0526  1.2126
  701SOL     OW 2101   0.138   0.652   0.995 -0.4272  0.1543  0.3408
  701SOL    HW1 2102   0.220   0.679   0.942 -3.9273 -2.9803 -0.0396
  701SOL    HW2 2103   0.059   0.644   0.931 -1.6068 -0.4716  1.5500
  702SOL     OW 2104   1.852   0.190   1.460  0.1263 -0.0826 -0.6749
  702SOL    HW1 2105   1.825   0.156   1.372 -0.5012  1.1254  1.9072
  702SOL    HW2 2106   1.834   0.292   1.463  0.6406  3.8731 -0.7967
  703SOL     OW 2107   2.890   0.936   1.483  0.3161  0.0370 -0.2260
  703SOL    HW1 2108   2.977   0.943   1.431 -1.4334 -1.0563  3.0745
  703SOL    HW2 2109   2.908   0.939   1.585 -0.4041 -0.1376  1.5225
  704SOL     OW 2110   1.035   2.647   1.450  0.3982  0.0681 -0.1580
  704SOL    HW1 2111   1.121   2.700   1.470  1.7011  0.7156  1.1148
  704SOL    HW2 2112   1.055   2.550   1.436  0.8476  0.3648  0.9763
  705SOL     OW 2113   0.213   1.472   2.527 -0.5163  0.4027  0.0598
  705SOL    HW1 2114   0.237   1.527   2.443  1.2334  2.6221 -0.2864
  705SOL    HW2 2115   0.289   1.471   2.599  1.8111 -0.4940  1.7894
  706SOL     OW 2116   2.866   3.055   0.001  0.1806 -0.0713 -0.1931
  706SOL    HW1 2117   2.768   3.060   3.057 -0.9483  0.5790  1.1545
  706SOL    HW2 2118   2.870   3.036   0.103  1.6205 -0.5505  3.5339
  707SOL     OW 2119   1.571   2.646   2.466  0.2245 -0.4191 -0.0547
  707SOL    HW1 2120   1.572   2.645   2.365 -4.4690 -0.0027  0.5234
  707SOL    HW2 2121   1.528   2.563   2.501  3.1707  0.8400 -0.5362
  708SOL     OW 2122   0.287   2.695   1.586  0.1203  0.3347  0.3234
  708SOL    HW1 2123   0.325   2.598   1.604 -1.3880 -2.8763  0.3195
  708SOL    HW2 2124   0.204   2.696   1.536  1.2894  2.3971 -0.3234
  709SOL     OW 2125   0.075   0.688   2.003 -0.1193 -0.0904 -0.0260
  709SOL    HW1 2126   0.096   0.768   1.937  1.3842 -4.1355 -1.9107
  709SOL    HW2 2127   0.162   0.660   2.047  1.3668 -1.6477 -1.7291
  710SOL     OW 2128   0.005   0.795   1.193  0.1184 -0.0189  0.2796
  710SOL    HW1 2129   0.064   0.738   1.129  0.7868  1.0899 -3.6124
  710SOL    HW2 2130   0.050   0.803   1.282 -2.2773 -1.3785 -0.4091
  711SOL     OW 2131   2.846   2.830   1.140  0.0384 -0.1203  0.4388
  711SOL    HW1 2132   2.887   2.739   1.120  4.9571  2.8180  1.3088
  711SOL    HW2 2133   2.750   2.831   1.115 -1.2209 -3.5952  0.8481
  712SOL     OW 2134   0.205   3.054   2.488  0.3842  0.0246  0.3587
  712SOL    HW1 2135   0.160   3.032   2.574 -0.2109  2.5543 -1.0972
  712SOL    HW2 2136   0.268   2.979   2.456  1.8553  3.6608 -1.2972
  713SOL     OW 2137   2.133   0.124   0.627  0.2589 -0.2127 -0.3590
  713SOL    HW1 2138   2.143   0.220   0.598  1.9434  1.4927 -0.7455
  713SOL    HW2 2139   2.145   0.065   0.550 -0.7309  1.7922  3.0344
  714SOL     OW 2140   1.849   1.722   0.041 -0.5036  0.6589 -0.3578
  714SOL    HW1 2141   1.763   1.764   0.069 -1.2080  0.3650 -1.7473
  714SOL    HW2 2142   1.859   1.635   0.096 -1.9709  2.0312 -3.4411
  715SOL     OW 2143   3.022   0.204   0.646  0.3111  0.3552 -0.3390
  715SOL    HW1 2144   3.055   0.110   0.662 -2.2810  0.1487  1.1864
  715SOL    HW2 2145   2.972   0.252   0.727  1.1072  0.1121 -0.3097
  716SOL     OW 2146   1.104   0.588   1.852  0.8754 -0.7573 -0.1848
  716SOL    HW1 2147   1.190   0.566   1.899 -0.1564  0.4111 -1.1021
  716SOL    HW2 2148   1.035   0.596   1.921  2.3053 -1.3310 -1.0282
  717SOL     OW 2149   0.459   0.577   2.836 -0.7188  0.1098  0.1875
  717SOL    HW1 2150   0.380   0.634   2.816  1.7627 -1.2433 -1.0181
  717SOL    HW2 2151   0.528   0.630   2.888  1.4756  2.1407  0.5436
  718SOL     OW 2152   1.103   0.653   0.199  0.1986 -0.1613  0.7181
  718SOL    HW1 2153   1.186   0.713   0.209  1.8861  0.1673 -1.4964
  718SOL    HW2 2154   1.129   0.555   0.190 -1.9769 -0.5821  1.1438
  719SOL     OW 2155   2.566   2.378   2.728  0.2995  0.2414 -0.7659
  719SOL    HW1 2156   2.542   2.326   2.816 -1.8703 -1.9707 -0.1856
  719SOL    HW2 2157   2.500   2.350   2.652 -2.6609 -0.4409 -0.7697
  720SOL     OW 2158   1.254   0.640   1.314  0.0366 -0.4578  0.1532
  720SOL    HW1 2159   1.251   0.702   1.397 -0.9176  0.5597  1.3288
  720SOL    HW2 2160   1.245   0.544   1.346 -2.2312 -1.5007  1.5012
  721SOL     OW 2161   2.894   3.074   0.995  0.1866 -0.6980 -0.0844
  721SOL    HW1 2162   2.869   0.087   1.026  0.8398  0.5866  0.7715
  721SOL    HW2 2163   2.873   3.007   1.069  2.7704  2.9548  0.1700
  722SOL     OW 2164   1.122   1.457   2.608  0.0517 -0.6011  0.9078
  722SOL    HW1 2165   1.027   1.498   2.616 -3.2473  1.8580  1.5750
  722SOL    HW2 2166   1.178   1.474   2.690 -1.8933  0.5804 -2.0257
  723SOL     OW 2167   2.341   0.336   1.076 -0.3926  0.2902  0.2154
  723SOL    HW1 2168   2.322   0.285   0.988 -0.7565 -0.3449  0.0570
  723SOL    HW2 2169   2.340   0.435   1.065 -1.7035 -1.0489  2.4151
  724SOL     OW 2170   0.645   2.161   0.102  0.1198 -0.3130  0.2488
  724SOL    HW1 2171   0.710   2.093   0.143 -1.2272  3.2715 -0.8377
  724SOL    HW2 2172   0.676   2.257   0.113 -0.3900  0.0405 -0.9309
  725SOL     OW 2173   0.280   1.004   1.229  0.1431  0.1119 -0.1455
  725SOL    HW1 2174   0.264   1.019   1.331 -0.0299 -0.3016  0.2060
  725SOL    HW2 2175   0.316   0.910   1.213  1.7483  1.0662  0.4149
  726SOL     OW 2176   2.392   0.773   0.257  0.5021 -0.4458  0.0462
  726SOL    HW1 2177   2.361   0.818   0.344 -0.1176  1.4554 -0.4333
  726SOL    HW2 2178   2.485   0.802   0.235 -0.6228  0.8013 -0.5149
  727SOL     OW 2179   1.999   1.266   2.690 -0.0430 -0.2286  0.3785
  727SOL    HW1 2180   2.057   1.315   2.623 -3.2514 -1.8175 -0.0682
  727SOL    HW2 2181   1.962   1.180   2.658  1.5328  1.1308  1.8527
  728SOL     OW 2182   1.821   2.877   1.525  0.0309 -0.0842 -0.0922
  728SOL    HW1 2183   1.920   2.870   1.518  0.7601 -0.2616 -0.1218
  728SOL    HW2 2184   1.782   2.785   1.540  0.5576  0.9122 -1.1714
  729SOL     OW 2185   2.369   0.775   2.068 -0.2439  0.2567 -0.4464
  729SOL    HW1 2186   2.349   0.730   2.155 -1.0307  0.3369  0.1322
  729SOL    HW2 2187   2.293   0.845   2.056 -2.5267 -0.1254  0.4552
  730SOL     OW 2188   1.210   0.901   1.454 -0.5854  0.3693 -0.1428
  730SOL    HW1 2189   1.117   0.880   1.424  0.8631 -1.8925  0.5337
  730SOL    HW2 2190   1.252   0.978   1.404  0.2188 -0.7526 -0.1990
  731SOL     OW 2191   0.495   0.462   0.078 -0.0477  0.3489 -0.1157
  731SOL    HW1 2192   0.579   0.422   0.114  2.2235  0.9784 -1.7946
  731SOL    HW2 2193   0.500   0.497   3.066 -3.6881  1.5752  1.6438
  732SOL     OW 2194   0.329   0.469   0.278 -0.0112 -0.2423 -0.2430
  732SOL    HW1 2195   0.407   0.482   0.210  2.2558  0.2606 -0.1909
  732SOL    HW2 2196   0.362   0.414   0.358  0.6251 -1.5344 -2.4564
  733SOL     OW 2197   1.903   1.519   2.543 -0.3567 -0.3915  0.6819
  733SOL    HW1 2198   1.808   1.552   2.551 -0.3278 -0.1687 -1.6450
  733SOL    HW2 2199   1.962   1.562   2.617  2.2772  1.4641 -1.6722
  734SOL     OW 2200   0.334   1.974   2.724 -0.2489 -0.0815 -0.0697
  734SOL    HW1 2201   0.306   1.923   2.807 -0.3369 -1.1348 -1.4719
  734SOL    HW2 2202   0.300   2.073   2.731  0.7526  2.6776  2.1739
  735SOL     OW 2203   2.087   0.560   1.085  0.0213 -1.0098  0.3989
  735SOL    HW1 2204   2.075   0.533   0.988 -1.5029 -3.1170 -0.2478
  735SOL    HW2 2205   2.185   0.580   1.104  0.8661  0.5360  0.2866
  736SOL     OW 2206   1.837   1.774   2.868 -0.2525  0.6869  0.1489
  736SOL    HW1 2207   1.862   1.768   2.969 -0.0589  2.3781  3.4635
  736SOL    HW2 2208   1.780   1.855   2.852  0.9934 -0.4262  0.3351
  737SOL     OW 2209   2.936   0.337   0.418 -0.2787 -0.1795 -0.1810
  737SOL    HW1 2210   2.884   0.422   0.439  2.5293 -0.0471  1.4011
  737SOL    HW2 2211   2.952   0.280   0.504 -0.5530 -1.1730  0.4914
  738SOL     OW 2212   0.604   2.120   1.805  0.9204  0.5417  0.3823
  738SOL    HW1 2213   0.673   2.168   1.865 -0.8911 -0.6016 -0.2340
  738SOL    HW2 2214   0.549   2.191   1.754  1.9763  0.6074 -1.5038
  739SOL     OW 2215   1.274   2.611   2.051  0.2980  0.8207  0.5439
  739SOL    HW1 2216   1.230   2.693   2.010 -2.4464  2.0071 -1.7216
  739SOL    HW2 2217   1.237   2.585   2.140 -1.3126 -2.3523 -1.9797
  740SOL     OW 2218   2.073   2.273   1.393  0.1520 -0.8909  0.2650
  740SOL    HW1 2219   2.006   2.241   1.466 -1.2325 -0.8592 -0.1188
  740SOL    HW2 2220   2.055   2.368   1.360  1.8136  1.5368  1.6762
  741SOL     OW 2221   2.103   0.532   0.316  0.3496  0.1777 -0.3496
  741SOL    HW1 2222   2.150   0.495   0.234  1.5570 -1.0727  1.1187
  741SOL    HW2 2223   2.049   0.616   0.295 -0.0740 -3.7069 -1.8825
  742SOL     OW 2224   1.026   2.276   0.099 -0.1870 -0.6058  0.4033
  742SOL    HW1 2225   1.026   2.189   0.155  0.7222  0.5166  0.3231
  742SOL    HW2 2226   1.038   2.256   3.082 -0.7078 -2.5903 -0.2700
  743SOL     OW 2227   2.367   1.087   1.859  0.4390  0.0139  0.1309
  743SOL    HW1 2228   2.427   1.124   1.933  0.3549  0.0113  0.2176
  743SOL    HW2 2229   2.279   1.047   1.899 -2.3911 -0.2718 -1.6188
  744SOL     OW 2230   2.592   0.402   0.530 -0.3710  0.1519  0.1890
  744SOL    HW1 2231   2.534   0.423   0.446  0.3933  1.7990  2.1176
  744SOL    HW2 2232   2.663   0.474   0.541 -0.3658  0.4698  1.4892
  745SOL     OW 2233   2.463   1.249   1.674  0.1294  0.5555 -0.5256
  745SOL    HW1 2234   2.405   1.193   1.736  0.0130  0.5017 -1.9400
  745SOL    HW2 2235   2.479   1.347   1.704 -1.2652  3.1181  0.1432
  746SOL     OW 2236   1.179   1.309   0.794 -0.0081  0.7985 -0.4476
  746SOL    HW1 2237   1.239   1.358   0.855 -0.7468  0.1243 -0.5919
  746SOL    HW2 2238   1.090   1.351   0.771 -0.0245 -3.0323  1.5686
  747SOL     OW 2239   0.997   1.805   1.643 -0.4916 -0.4682  0.4421
  747SOL    HW1 2240   0.977   1.889   1.696 -1.0462 -0.2346  0.8552
  747SOL    HW2 2241   1.007   1.724   1.706  0.0154 -1.0975  2.1024
  748SOL     OW 2242   0.249   2.816   2.906 -0.7746  0.2938 -0.2676
  748SOL    HW1 2243   0.349   2.800   2.908 -3.4982  2.6307 -0.3561
  748SOL    HW2 2244   0.226   2.869   2.991  1.0838  0.0575 -0.5551
  749SOL     OW 2245   0.216   1.177   2.522  0.5208  0.0312  0.8206
  749SOL    HW1 2246   0.259   1.143   2.435 -0.4765  2.1042 -0.4166
  749SOL    HW2 2247   0.207   1.280   2.522 -1.5125 -0.9183 -0.2824
  750SOL     OW 2248   1.853   1.087   1.946 -0.3667 -0.3933 -0.3131
  750SOL    HW1 2249   1.776   1.046   1.893  1.2446  0.5742  1.1225
  750SOL    HW2 2250   1.845   1.188   1.961  1.4309  1.2101 -2.0745
  751SOL     OW 2251   2.477   0.512   0.321  0.7748 -0.4599 -0.2609
  751SOL    HW1 2252   2.442   0.441   0.254  0.8013 -1.4520 -2.0355
  751SOL    HW2 2253   2.450   0.606   0.286  0.6632 -2.1323 -1.7483
  752SOL     OW 2254   0.360   2.471   0.985 -0.1194  0.3530 -0.3228
  752SOL    HW1 2255   0.420   2.506   1.053 -2.3718  1.3368 -0.0084
  752SOL    HW2 2256   0.344   2.368   0.994  0.9929  0.1939 -1.0217
  753SOL     OW 2257   0.808   2.466   1.128 -0.1180 -0.1938  0.2715
  753SOL    HW1 2258   0.809   2.566   1.097  2.8705  0.6700 -2.3307
  753SOL    HW2 2259   0.906   2.439   1.143 -0.4684 -0.7875 -0.8216
  754SOL     OW 2260   0.274   2.824   1.828  0.6612  0.2999 -0.1746
  754SOL    HW1 2261   0.169   2.806   1.839  0.1811 -2.9181  1.7983
  754SOL    HW2 2262   0.318   2.761   1.759 -1.1639  2.5965  1.9214
  755SOL     OW 2263   2.154   0.385   0.554 -0.4149 -0.2844 -0.2514
  755SOL    HW1 2264   2.141   0.440   0.469 -0.2406 -1.0828  1.5855
  755SOL    HW2 2265   2.201   0.448   0.618  0.4627  1.8185  0.1309
  756SOL     OW 2266   2.225   2.354   2.773  0.1683  0.2913 -0.0458
  756SOL    HW1 2267   2.216   2.430   2.835 -0.6661  1.4408  1.3581
  756SOL    HW2 2268   2.280   2.377   2.690 -1.3733  0.3141 -1.8780
  757SOL     OW 2269   1.994   0.454   0.829 -0.7046 -0.6148  0.3902
  757SOL    HW1 2270   2.074   0.489   0.774  1.8910  1.7632 -2.0630
  757SOL    HW2 2271   1.906   0.498   0.807 -0.4874 -0.8389  1.8460
  758SOL     OW 2272   2.248   0.631   1.673 -0.7309  0.0588  0.0926
  758SOL    HW1 2273   2.335   0.685   1.683  0.2642  2.6266 -2.3750
  758SOL    HW2 2274   2.167   0.675   1.717 -0.7316 -2.0722 -1.0790
  759SOL     OW 2275   2.638   0.614   1.088 -0.2804 -0.4102  0.5098
  759SOL    HW1 2276   2.732   0.628   1.134  1.2965 -0.0346 -0.8205
  759SOL    HW2 2277   2.606   0.703   1.053  3.3376 -1.0211 -0.0660
  760SOL     OW 2278   2.474   1.259   1.175  0.4300  0.4128 -1.1490
  760SOL    HW1 2279   2.409   1.295   1.243 -0.7071 -0.6762 -1.3209
  760SOL    HW2 2280   2.568   1.257   1.217  1.5569  0.0288 -1.2916
  761SOL     OW 2281   0.672   0.674   0.358  0.0584 -0.8509  0.1852
  761SOL    HW1 2282   0.716   0.691   0.267 -1.6779  2.2679  0.8283
  761SOL    HW2 2283   0.586   0.722   0.364  1.7081 -0.4721  0.5892
  762SOL     OW 2284   0.997   1.655   0.584 -0.5515  0.2546  0.0193
  762SOL    HW1 2285   0.983   1.600   0.497 -1.3819  1.2027 -1.7754
  762SOL    HW2 2286   0.928   1.729   0.589  0.8271 -2.3550 -0.1404
  763SOL     OW 2287   1.273   1.115   1.303 -0.5513 -0.7111  0.1091
  763SOL    HW1 2288   1.365   1.116   1.250  2.5391 -0.5036 -2.9840
  763SOL    HW2 2289   1.267   1.204   1.356  1.2651  2.4847  0.0568
  764SOL     OW 2290   0.579   1.867   2.655 -0.0166 -0.0361 -0.2081
  764SOL    HW1 2291   0.556   1.802   2.582  0.3114 -1.5775  2.5287
  764SOL    HW2 2292   0.500   1.931   2.672  1.5319 -1.8979  0.9225
  765SOL     OW 2293   0.709   2.718   1.842  0.0296 -0.5024  0.0232
  765SOL    HW1 2294   0.705   2.678   1.750 -0.6043  0.4894  0.5396
  765SOL    HW2 2295   0.685   2.817   1.834 -1.4644  1.1540 -2.8864
  766SOL     OW 2296   2.423   2.150   2.164 -0.0726  0.0380  0.1303
  766SOL    HW1 2297   2.523   2.157   2.188 -0.0578 -2.2324 -0.8544
  766SOL    HW2 2298   2.374   2.237   2.170 -0.9522 -1.3610 -1.5971
  767SOL     OW 2299   1.643   1.172   2.391 -0.0480  0.1667 -0.0506
  767SOL    HW1 2300   1.618   1.084   2.441 -0.4681  0.2902 -0.7642
  767SOL    HW2 2301   1.615   1.260   2.440 -0.2079 -1.6278  2.7295
  768SOL     OW 2302   1.608   1.829   0.065  0.1510  0.2960  0.5704
  768SOL    HW1 2303   1.544   1.802   0.141 -0.8197  1.9430  1.8948
  768SOL    HW2 2304   1.604   1.930   0.044  3.3329 -0.1992  1.1069
  769SOL     OW 2305   0.427   1.301   1.535  0.0356 -0.1978  0.1930
  769SOL    HW1 2306   0.485   1.338   1.461  1.2097 -1.0798  0.7063
  769SOL    HW2 2307   0.459   1.205   1.540 -0.0142  0.8114  0.8290
  770SOL     OW 2308   1.347   0.920   2.722 -0.4469  0.3791  0.2778
  770SOL    HW1 2309   1.342   0.979   2.803 -0.5168  1.0913 -2.2697
  770SOL    HW2 2310   1.439   0.875   2.711  1.7099  0.3339  2.0774
  771SOL     OW 2311   0.061   2.979   2.162 -0.0691  0.1929 -0.0926
  771SOL    HW1 2312   0.011   2.961   2.246  1.3014 -2.2102  2.1512
  771SOL    HW2 2313   0.157   2.969   2.165 -1.9287 -2.2283  0.7035
  772SOL     OW 2314   1.920   1.835   1.676 -0.5089  0.0850 -0.3507
  772SOL    HW1 2315   1.925   1.924   1.724 -0.0673  0.6690 -1.9698
  772SOL    HW2 2316   1.914   1.851   1.576 -0.0871 -0.1215 -1.5093
  773SOL     OW 2317   0.437   1.466   1.749  0.2212 -0.1178  0.1775
  773SOL    HW1 2318   0.502   1.536   1.729 -0.8120 -0.4365 -2.5756
  773SOL    HW2 2319   0.427   1.406   1.665 -0.8438 -0.4191  0.3943
  774SOL     OW 2320   1.107   0.572   3.017  0.3857  0.3923 -0.4881
  774SOL    HW1 2321   1.093   0.665   3.048  1.4435 -2.3112 -3.5614
  774SOL    HW2 2322   1.115   0.507   0.011 -2.5613 -0.4850 -3.5702
  775SOL     OW 2323   1.841   2.853   3.078  0.3817  0.4199 -0.4464
  775SOL    HW1 2324   1.828   2.933   0.055  1.3379 -0.6424 -1.5231
  775SOL    HW2 2325   1.931   2.809   0.012 -1.6738  0.2884  0.2328
  776SOL     OW 2326   0.417   0.593   1.814  0.0537 -0.6380 -0.0431
  776SOL    HW1 2327   0.388   0.504   1.842  1.7401  2.3048 -1.9430
  776SOL    HW2 2328   0.518   0.598   1.827  0.0401 -0.4964 -0.1536
  777SOL     OW 2329   2.333   1.967   1.841  0.1968 -0.1849 -0.5218
  777SOL    HW1 2330   2.333   1.948   1.942  0.6340  1.1925  0.3150
  777SOL    HW2 2331   2.294   2.060   1.831 -0.5681 -0.5326 -0.9391
  778SOL     OW 2332   2.191   1.009   2.076  0.4754 -0.3812  0.3338
  778SOL    HW1 2333   2.094   0.984   2.067  0.4955 -1.1040  0.6275
  778SOL    HW2 2334   2.205   1.079   2.146  0.2660 -1.7688 -2.1243
  779SOL     OW 2335   2.643   1.075   0.105  0.7686  0.5220  0.0136
  779SOL    HW1 2336   2.579   1.154   0.123  0.6958  1.1014  0.1202
  779SOL    HW2 2337   2.647   1.059   0.004 -1.8658  2.7306 -0.8178
  780SOL     OW 2338   2.682   0.349   2.535 -0.0636 -0.1676 -0.3453
  780SOL    HW1 2339   2.647   0.423   2.599 -0.2642  1.0998  0.3857
  780SOL    HW2 2340   2.675   0.257   2.575  0.6822 -0.5842 -0.1878
  781SOL     OW 2341   0.105   1.987   1.719 -0.5370  0.3798 -0.0445
  781SOL    HW1 2342   0.177   2.027   1.661 -3.7206 -1.9033  1.8494
  781SOL    HW2 2343   0.088   1.887   1.701  1.4272 -0.9364 -0.8694
  782SOL     OW 2344   2.521   2.225   2.946  0.2849 -0.6808  0.0604
  782SOL    HW1 2345   2.433   2.193   2.986 -1.8723 -1.7256  1.4937
  782SOL    HW2 2346   2.594   2.159   2.959  1.5498  1.2805  1.1813
  783SOL     OW 2347   0.628   1.446   1.400  0.2764  0.4674  0.2303
  783SOL    HW1 2348   0.713   1.426   1.456  0.1462 -2.2986 -3.2971
  783SOL    HW2 2349   0.657   1.431   1.302 -0.3919  1.8385  0.5925
  784SOL     OW 2350   2.134   0.751   2.915 -0.5679  0.1354 -0.2460
  784SOL    HW1 2351   2.175   0.752   3.009  1.1530 -0.5942 -3.1482
  784SOL    HW2 2352   2.039   0.726   2.918  0.4001  3.7387  0.2364
  785SOL     OW 2353   2.259   2.689   0.762  0.1356 -0.1265 -0.1350
  785SOL    HW1 2354   2.355   2.693   0.792  1.8039  0.3417 -1.2902
  785SOL    HW2 2355   2.212   2.780   0.773  0.4309  4.1650  1.4408
  786SOL     OW 2356   0.704   2.184   2.328 -0.4816  0.1238 -0.1527
  786SOL    HW1 2357   0.632   2.159   2.262  3.4348 -0.1757  0.0931
  786SOL    HW2 2358   0.672   2.269   2.379 -3.3496 -0.7435 -0.9971
  787SOL     OW 2359   1.292   0.669   1.045  0.0724  0.5437  0.2190
  787SOL    HW1 2360   1.301   0.646   1.144 -3.3358  2.1901  0.1374
  787SOL    HW2 2361   1.331   0.593   0.985 -1.4967  0.8739  2.2190
  788SOL     OW 2362   0.152   0.642   0.433 -0.1144  0.3073 -0.7003
  788SOL    HW1 2363   0.199   0.595   0.354 -1.4877  0.3775  1.8232
  788SOL    HW2 2364   0.089   0.716   0.404  0.8533 -1.8286  1.5070
  789SOL     OW 2365   2.902   2.020   1.513 -0.1926 -0.0566  0.2854
  789SOL    HW1 2366   2.985   2.071   1.556  2.4427 -0.1791 -2.4665
  789SOL    HW2 2367   2.875   2.066   1.424 -1.5074  2.1067 -1.1571
  790SOL     OW 2368   1.400   0.772   1.893 -0.1389 -0.2154 -0.1425
  790SOL    HW1 2369   1.372   0.689   1.942 -2.8566  0.6613  2.7048
  790SOL    HW2 2370   1.372   0.847   1.950  1.4519 -0.5238  0.5908
  791SOL     OW 2371   1.590   0.514   0.620  0.0751  0.4801  0.2680
  791SOL    HW1 2372   1.567   0.426   0.573 -0.7343  1.0834 -0.3387
  791SOL    HW2 2373   1.564   0.511   0.719  0.2460 -0.0106 -1.2865
  792SOL     OW 2374   1.619   2.806   1.872  0.5507 -0.5767  0.0620
  792SOL    HW1 2375   1.571   2.855   1.949  0.7285 -0.4888 -0.2791
  792SOL    HW2 2376   1.561   2.803   1.790 -0.7394  0.0707 -1.7494
  793SOL     OW 2377   0.564   3.056   0.600  0.4311  0.2198  0.3481
  793SOL    HW1 2378   0.663   0.004   0.599 -0.0553  1.0804 -0.4878
  793SOL    HW2 2379   0.505   0.033   0.654  0.8363 -0.8607 -0.4217
  794SOL     OW 2380   0.762   1.124   2.318  0.0667  0.0172  0.0915
  794SOL    HW1 2381   0.852   1.075   2.324  0.5260  0.2437  0.5676
  794SOL    HW2 2382   0.691   1.073   2.264 -0.5185  3.9648  0.9949
  795SOL     OW 2383   0.283   1.995   2.290 -0.3226 -0.2693 -0.2869
  795SOL    HW1 2384   0.226   1.961   2.211  2.6467 -0.0842 -0.2101
  795SOL    HW2 2385   0.255   1.952   2.378 -0.4686  0.3372  3.8783
  796SOL     OW 2386   2.460   1.167   2.099 -0.0459 -0.3907  0.1397
  796SOL    HW1 2387   2.533   1.137   2.165  2.4538 -1.2547 -0.5674
  796SOL    HW2 2388   2.418   1.257   2.123 -2.6103 -1.0761  1.0025
  797SOL     OW 2389   2.912   2.710   2.776 -0.5177  0.2269 -0.0424
  797SOL    HW1 2390   3.011   2.687   2.798 -1.1800 -1.4020  1.8020
  797SOL    HW2 2391   2.887   2.654   2.694  1.5373 -1.0631 -1.7023
  798SOL     OW 2392   3.028   2.226   2.185  0.0186  0.1562  0.1772
  798SOL    HW1 2393   2.944   2.269   2.152 -0.6802  1.4863  1.2562
  798SOL    HW2 2394   0.030   2.265   2.143 -0.3554 -0.5044 -0.8917
  799SOL     OW 2395   0.002   2.199   2.888 -0.1533 -0.1829 -0.2711
  799SOL    HW1 2396   3.036   2.159   2.970  2.1126 -0.3256 -3.6459
  799SOL    HW2 2397   3.035   2.166   2.802 -0.5409 -1.4304  0.9453
  800SOL     OW 2398   1.500   1.722   0.487  0.1799 -0.4828 -0.3554
  800SOL    HW1 2399   1.450   1.786   0.552 -1.5740  0.2555  0.1829
  800SOL    HW2 2400   1.596   1.746   0.484 -0.1512  0.3359 -1.2578
  801SOL     OW 2401   2.040   1.185   1.091  0.0269  0.3619  0.0428
  801SOL    HW1 2402   2.056   1.282   1.108  0.4110 -0.7544 -1.0387
  801SOL    HW2 2403   1.984   1.143   1.169 -1.9240 -2.6658  0.8663
  802SOL     OW 2404   3.048   1.284   0.116  0.0103 -0.2210 -0.6190
  802SOL    HW1 2405   2.998   1.359   0.165 -0.2426  2.6039  1.9365
  802SOL    HW2 2406   0.056   1.274   0.165  2.0561  2.7976  1.0169
  803SOL     OW 2407   1.462   1.759   2.598 -0.2375 -0.3221 -0.5927
  803SOL    HW1 2408   1.514   1.846   2.591  2.2092  4.1634  0.7092
  803SOL    HW2 2409   1.367   1.790   2.619  0.8408 -1.1340  2.0584
  804SOL     OW 2410   1.811   1.537   0.253  0.8208 -0.4486  0.0396
  804SOL    HW1 2411   1.782   1.629   0.294  1.6280  0.6294 -1.4719
  804SOL    HW2 2412   1.909   1.515   0.282 -2.7602 -0.6890  2.1260
  805SOL     OW 2413   2.455   1.786   2.357  0.2213  0.4286 -0.0905
  805SOL    HW1 2414   2.539   1.726   2.371  1.1421  0.1730  0.3571
  805SOL    HW2 2415   2.461   1.867   2.422 -0.6395  0.9168 -0.3445
  806SOL     OW 2416   0.371   2.962   0.353  0.1613  0.0217 -0.6780
  806SOL    HW1 2417   0.431   3.043   0.353  1.7025 -0.3269 -1.4538
  806SOL    HW2 2418   0.406   2.898   0.423 -2.3193  1.7105 -1.7011
  807SOL     OW 2419   2.013   1.410   2.919  0.4022  0.3547 -0.0420
  807SOL    HW1 2420   2.011   1.513   2.915  1.0416 -0.3200  0.2539
  807SOL    HW2 2421   1.988   1.371   2.829  1.5635 -1.2204  0.2503
  808SOL     OW 2422   3.050   1.705   0.347  0.1871  0.2352 -0.3312
  808SOL    HW1 2423   3.006   1.615   0.330 -0.0095 -2.3179  1.4564
  808SOL    HW2 2424   3.008   1.784   0.302 -0.8552  1.9477  1.3268
  809SOL     OW 2425   2.359   1.091   3.065  0.1467 -0.6393  0.9566
  809SOL    HW1 2426   2.289   1.015   3.075  0.7918  0.3101 -0.4896
  809SOL    HW2 2427   2.308   1.170   3.022  0.4528  0.4382  0.9092
  810SOL     OW 2428   0.552   1.106   0.205 -0.6067  0.0565 -0.1912
  810SOL    HW1 2429   0.581   1.165   0.126 -0.5357 -0.3233  1.0418
  810SOL    HW2 2430   0.488   1.039   0.173  1.8806  0.9583 -1.3035
  811SOL     OW 2431   1.317   2.489   1.624 -0.7211  0.0352  0.1309
  811SOL    HW1 2432   1.336   2.537   1.532  1.0734 -1.6082  0.2385
  811SOL    HW2 2433   1.391   2.425   1.651  1.9297 -3.8178  2.8035
  812SOL     OW 2434   0.784   2.659   1.566 -0.4635  0.3832  0.6632
  812SOL    HW1 2435   0.879   2.664   1.529 -0.3477  0.8876  0.7026
  812SOL    HW2 2436   0.735   2.567   1.544 -0.0828 -0.1932 -0.0061
  813SOL     OW 2437   1.461   0.354   2.140 -1.0271 -0.0159 -0.2248
  813SOL    HW1 2438   1.555   0.312   2.134  1.0882 -0.7195 -0.6744
  813SOL    HW2 2439   1.404   0.330   2.222  2.0570 -0.0077 -1.8577
  814SOL     OW 2440   1.217   2.390   2.770 -0.0038  0.4154 -0.1922
  814SOL    HW1 2441   1.245   2.486   2.798  0.8357  1.2609 -0.7703
  814SOL    HW2 2442   1.276   2.355   2.696  1.4352  1.8314  1.8130
  815SOL     OW 2443   0.480   0.078   2.084 -0.3786  0.2796 -0.4602
  815SOL    HW1 2444   0.477   0.150   2.152 -1.6335  1.5420 -1.0163
  815SOL    HW2 2445   0.426   3.076   2.107 -2.3476 -0.5030  1.7535
  816SOL     OW 2446   2.090   0.437   2.951  0.2451 -0.5090 -0.3382
  816SOL    HW1 2447   2.160   0.488   3.006  0.9235  0.8132  0.0133
  816SOL    HW2 2448   2.021   0.505   2.907 -3.0790  2.4774  0.3146
  817SOL     OW 2449   2.315   0.421   2.165 -0.6546  0.7494 -0.1544
  817SOL    HW1 2450   2.259   0.475   2.100 -0.3503  0.2291  0.3778
  817SOL    HW2 2451   2.260   0.341   2.199 -0.6116  1.0165 -2.0903
  818SOL     OW 2452   1.943   0.323   0.098  0.0909  0.4422  0.5542
  818SOL    HW1 2453   1.999   0.239   0.123  2.9280 -1.8824  1.3802
  818SOL    HW2 2454   1.984   0.365   0.016 -2.2338  0.9215 -0.4613
  819SOL     OW 2455   2.325   1.811   2.823  0.2285 -0.0706  0.0215
  819SOL    HW1 2456   2.315   1.913   2.799 -1.1063  1.4035 -0.8231
  819SOL    HW2 2457   2.291   1.800   2.924 -4.8921 -2.7536  1.3167
  820SOL     OW 2458   0.029   1.899   0.008 -0.1958 -0.0079  0.0373
  820SOL    HW1 2459   3.057   1.982   3.067 -2.7256  0.5882  1.9997
  820SOL    HW2 2460   0.091   1.922   0.082 -2.7449  0.5975 -0.4833
  821SOL     OW 2461   0.306   2.657   0.802  0.0302 -0.3350 -0.1609
  821SOL    HW1 2462   0.325   2.577   0.866  0.9017 -3.9250  0.8046
  821SOL    HW2 2463   0.279   2.617   0.715  1.5657  1.4623 -0.6231
  822SOL     OW 2464   2.707   2.655   2.956 -0.2630  0.1340  0.2985
  822SOL    HW1 2465   2.640   2.727   2.927 -3.5363 -0.3304 -2.4713
  822SOL    HW2 2466   2.793   2.662   2.906 -0.1128  1.1960  2.3382
  823SOL     OW 2467   1.442   0.457   2.515 -0.1387 -0.5413  0.6575
  823SOL    HW1 2468   1.488   0.372   2.552  3.0106 -0.1968  2.8242
  823SOL    HW2 2469   1.357   0.475   2.567 -0.1630 -1.8265 -2.6410
  824SOL     OW 2470   2.578   2.025   1.481  0.3012 -0.0808 -0.2689
  824SOL    HW1 2471   2.659   2.002   1.539  0.4180  0.7667  0.5727
  824SOL    HW2 2472   2.597   2.116   1.431  0.5387  0.8473 -1.0773
  825SOL     OW 2473   2.731   2.030   2.512 -0.0385 -0.3021 -0.5487
  825SOL    HW1 2474   2.821   2.062   2.544  0.1356  1.0007 -1.3923
  825SOL    HW2 2475   2.714   2.046   2.413  1.1541 -1.9475  1.0344
  826SOL     OW 2476   2.656   1.675   2.048  0.5105  0.4229 -0.0965
  826SOL    HW1 2477   2.669   1.599   2.116  2.2215  1.9712  0.0279
  826SOL    HW2 2478   2.705   1.654   1.962  0.8247 -2.2413  0.5126
  827SOL     OW 2479   2.279   2.290   1.209 -0.1392  0.3669  0.5118
  827SOL    HW1 2480   2.206   2.294   1.285 -1.3473  2.1021 -1.0881
  827SOL    HW2 2481   2.298   2.191   1.200  0.2312  1.7023  0.3979
  828SOL     OW 2482   0.067   0.060   1.298 -0.1613  0.4838 -0.4030
  828SOL    HW1 2483   0.124   0.100   1.225  1.0867  2.0093  0.5733
  828SOL    HW2 2484   0.075   0.121   1.378 -1.0281 -0.4582 -2.5445
  829SOL     OW 2485   1.638   2.281   2.456 -0.1052 -0.6636 -0.2650
  829SOL    HW1 2486   1.700   2.201   2.492  3.0011 -0.4208 -0.5642
  829SOL    HW2 2487   1.691   2.368   2.470 -1.1057 -0.6717 -0.7254
  830SOL     OW 2488   1.291   0.586   0.669  0.0348  0.0597 -0.2712
  830SOL    HW1 2489   1.312   0.686   0.665 -0.9753 -0.9140  2.8255
  830SOL    HW2 2490   1.341   0.542   0.747 -0.6965 -2.8241 -0.3546
  831SOL     OW 2491   2.614   1.244   2.776  0.3240 -0.0020 -0.0678
  831SOL    HW1 2492   2.634   1.280   2.870  3.7127 -0.2087 -1.5542
  831SOL    HW2 2493   2.700   1.246   2.725 -0.6033 -1.1452  0.6055
  832SOL     OW 2494   1.411   1.963   1.954 -0.8850  0.2646 -0.0037
  832SOL    HW1 2495   1.399   2.053   1.997 -1.2791 -2.0444 -1.7473
  832SOL    HW2 2496   1.503   1.960   1.914 -0.1321  0.8791  2.2831
  833SOL     OW 2497   0.073   0.013   1.837  0.4710  0.1441  0.3841
  833SOL    HW1 2498   0.017   3.065   1.759  1.5138  1.4354 -2.9177
  833SOL    HW2 2499   0.033   3.069   1.929 -1.6111  2.7365  0.5531
  834SOL     OW 2500   0.983   1.125   1.649  0.6376  0.5709 -0.6789
  834SOL    HW1 2501   0.959   1.130   1.551 -0.7123  0.6379 -1.4128
  834SOL    HW2 2502   1.016   1.034   1.676 -0.1325 -0.3147 -0.4559
  835SOL     OW 2503   2.767   0.856   2.924  0.1255 -0.3193 -0.1384
  835SOL    HW1 2504   2.681   0.914   2.920 -0.3840 -0.4858 -3.8009
  835SOL    HW2 2505   2.784   0.794   2.845 -1.0091  5.1361  1.6592
  836SOL     OW 2506   1.276   1.543   0.527 -0.2965  0.2376  0.0526
  836SOL    HW1 2507   1.205   1.607   0.549  0.8584 -1.8150 -0.7708
  836SOL    HW2 2508   1.358   1.592   0.494 -0.0330 -0.1942  1.1522
  837SOL     OW 2509   1.449   1.363   1.140 -0.6370 -0.0483  0.2377
  837SOL    HW1 2510   1.455   1.426   1.220  0.9880 -1.4342 -0.0327
  837SOL    HW2 2511   1.402   1.410   1.060  0.8107 -1.0665 -2.2207
  838SOL     OW 2512   1.102   1.731   2.219  0.8810  0.2264 -0.2288
  838SOL    HW1 2513   1.153   1.674   2.284  0.2878 -0.8686 -0.0668
  838SOL    HW2 2514   1.065   1.820   2.255  3.9769  0.0749 -1.5579
  839SOL     OW 2515   0.781   1.971   2.499 -0.4493 -0.1126  0.2403
  839SOL    HW1 2516   0.697   1.923   2.535 -1.3354  0.5638 -0.9363
  839SOL    HW2 2517   0.755   2.050   2.441 -0.6725 -0.8692  2.8251
  840SOL     OW 2518   0.623   2.386   0.364  0.0880 -0.0245  0.4985
  840SOL    HW1 2519   0.664   2.359   0.450 -3.2439  2.2183 -2.0900
  840SOL    HW2 2520   0.689   2.383   0.284  0.0616 -0.1764  0.6569
  841SOL     OW 2521   2.018   2.445   0.183 -0.3026  0.1454 -0.1337
  841SOL    HW1 2522   1.948   2.470   0.244  3.5186 -1.5434 -0.8677
  841SOL    HW2 2523   2.049   2.530   0.130  0.4224  0.7239 -1.8406
  842SOL     OW 2524   0.598   0.750   3.006 -0.5393  0.3540 -0.0409
  842SOL    HW1 2525   0.616   0.787   2.914  0.7529  3.1280  0.8723
  842SOL    HW2 2526   0.663   0.796   3.070  1.3279 -0.2414  0.6497
  843SOL     OW 2527   1.196   0.031   0.689  0.3195  0.7283 -0.3002
  843SOL    HW1 2528   1.259   3.038   0.671  2.4535 -0.1384 -0.1895
  843SOL    HW2 2529   1.181   0.089   0.606 -0.0952 -1.0914  1.6388
  844SOL     OW 2530   2.496   2.802   2.381 -0.0878 -0.2730 -0.5603
  844SOL    HW1 2531   2.499   2.905   2.369 -0.0286  0.1790  2.7631
  844SOL    HW2 2532   2.572   2.774   2.447 -0.9899 -2.2680  1.3772
  845SOL     OW 2533   2.826   2.384   1.151  0.5889  0.0232 -0.0869
  845SOL    HW1 2534   2.887   2.435   1.087 -0.7647 -0.1324  1.0278
  845SOL    HW2 2535   2.732   2.371   1.121 -0.6395  0.8694 -1.1811
  846SOL     OW 2536   0.164   1.894   2.508 -0.2653 -0.0137 -0.6104
  846SOL    HW1 2537   0.136   1.794   2.509  1.0667 -1.4593  0.4812
  846SOL    HW2 2538   0.231   1.911   2.583  0.4617  0.9499  0.7277
  847SOL     OW 2539   1.423   0.777   1.617 -0.2876 -0.5065  0.0915
  847SOL    HW1 2540   1.359   0.840   1.568  0.4571  1.7506 -0.5580
  847SOL    HW2 2541   1.404   0.780   1.718  0.3961 -1.6892 -1.8554
  848SOL     OW 2542   2.589   2.963   0.005 -0.0399 -0.0809 -0.2013
  848SOL    HW1 2543   2.579   3.027   0.085 -0.7717 -0.4738  0.4650
  848SOL    HW2 2544   2.555   2.866   0.017 -0.3836 -2.1074 -0.0443
  849SOL     OW 2545   0.554   2.790   2.685  0.0174 -0.8582  0.0806
  849SOL    HW1 2546   0.527   2.807   2.781 -1.3205  1.0740  0.8956
  849SOL    HW2 2547   0.650   2.782   2.669  1.3462 -4.0114  2.9286
  850SOL     OW 2548   1.156   2.598   0.988  0.2615 -0.8655  0.8893
  850SOL    HW1 2549   1.115   2.522   1.041  2.3919  3.8363  0.2829
  850SOL    HW2 2550   1.235   2.639   1.036 -0.0710 -1.6139  0.3180
  851SOL     OW 2551   2.806   0.345   2.169  0.4108  0.0926 -0.1406
  851SOL    HW1 2552   2.892   0.314   2.213 -1.9404 -1.7153  1.7136
  851SOL    HW2 2553   2.807   0.309   2.076 -2.1359 -1.0065  0.8629
  852SOL     OW 2554   2.145   1.212   2.253  0.2730 -0.0864 -0.4133
  852SOL    HW1 2555   2.047   1.236   2.267 -0.5521  0.1419 -1.0278
  852SOL    HW2 2556   2.180   1.171   2.336 -2.7556  3.2860  1.8082
  853SOL     OW 2557   2.790   2.996   0.481 -0.1999  0.5992  0.7069
  853SOL    HW1 2558   2.726   3.077   0.469  1.2542 -0.7969 -2.5831
  853SOL    HW2 2559   2.823   2.985   0.576 -2.1765  1.3143 -2.5701
  854SOL     OW 2560   2.086   1.070   1.816 -0.4001  0.7693  0.1431
  854SOL    HW1 2561   2.116   1.167   1.813 -4.2368 -1.4882  2.4005
  854SOL    HW2 2562   1.996   1.069   1.870  0.0093 -1.0989  1.3237
  855SOL     OW 2563   1.349   2.481   0.360 -0.1192 -0.2877 -0.2951
  855SOL    HW1 2564   1.264   2.504   0.308  0.9612  0.1006 -0.7187
  855SOL    HW2 2565   1.360   2.553   0.436  1.0084  1.2367  1.6297
  856SOL     OW 2566   3.011   0.228   2.667  0.2622 -0.4165 -0.3563
  856SOL    HW1 2567   3.009   0.153   2.600 -0.9692 -2.0642  0.6915
  856SOL    HW2 2568   3.039   0.193   2.762 -1.4846 -1.1259 -0.5647
  857SOL     OW 2569   1.307   0.007   1.655  0.4006 -0.1809  0.4841
  857SOL    HW1 2570   1.402   0.007   1.625 -2.7943  1.7837 -2.6178
  857SOL    HW2 2571   1.308   0.015   1.758  0.9524 -0.1537 -1.4054
  858SOL     OW 2572   2.236   2.137   1.583  1.1390  0.2419 -0.1996
  858SOL    HW1 2573   2.313   2.078   1.550 -1.9763  2.9333 -1.8676
  858SOL    HW2 2574   2.184   2.162   1.501  0.2014  1.1167  1.4130
  859SOL     OW 2575   1.070   2.386   1.140  0.9919 -0.4729  0.2997
  859SOL    HW1 2576   1.048   2.288   1.106 -0.0714 -2.2992 -1.0874
  859SOL    HW2 2577   1.136   2.373   1.217 -3.6029  0.2540 -1.2045
  860SOL     OW 2578   2.346   2.406   0.059 -0.5635 -0.2645 -0.3108
  860SOL    HW1 2579   2.411   2.366   3.074  3.3249 -1.6507 -1.8364
  860SOL    HW2 2580   2.259   2.429   0.010  0.5782  0.3901 -1.4320
  861SOL     OW 2581   2.257   3.027   0.998 -0.4195  0.0495  0.3050
  861SOL    HW1 2582   2.184   0.011   1.031 -0.1082 -0.0284  2.5563
  861SOL    HW2 2583   2.287   2.976   1.082 -2.1726  0.9679  1.7000
  862SOL     OW 2584   1.970   2.725   2.171  0.0510 -0.2822  0.3074
  862SOL    HW1 2585   2.010   2.716   2.261 -0.3796  1.3425 -1.9445
  862SOL    HW2 2586   1.977   2.822   2.130 -0.8834  2.1491 -2.7777
  863SOL     OW 2587   0.197   0.520   0.677  0.1480  0.1827 -0.0379
  863SOL    HW1 2588   0.286   0.567   0.699 -0.4290 -0.7843  0.0688
  863SOL    HW2 2589   0.156   0.556   0.593  0.6075 -1.7762 -0.5636
  864SOL     OW 2590   2.978   2.550   2.071 -0.3911  0.1978 -0.2552
  864SOL    HW1 2591   3.005   2.544   2.168  0.8658 -0.4644 -0.5300
  864SOL    HW2 2592   3.047   2.502   2.014 -2.6704  1.7566  1.4270
  865SOL     OW 2593   0.432   1.462   2.668 -0.1724  0.0321  0.2956
  865SOL    HW1 2594   0.411   1.500   2.759  0.7561  0.2043  1.4357
  865SOL    HW2 2595   0.509   1.396   2.677  2.5807  1.9156 -0.4519
  866SOL     OW 2596   2.793   0.699   2.725  0.2622 -0.2265  0.1950
  866SOL    HW1 2597   2.823   0.761   2.649  0.8165  0.0770 -0.4990
  866SOL    HW2 2598   2.861   0.623   2.740 -2.4249 -0.0760  0.3689
  867SOL     OW 2599   0.123   2.985   2.728  0.2918  0.6669  0.2541
  867SOL    HW1 2600   0.182   2.910   2.764 -0.5136 -0.6686 -1.4090
  867SOL    HW2 2601   0.029   2.986   2.771 -0.6551 -0.6878  1.7940
  868SOL     OW 2602   1.492   2.944   0.999 -0.1282  0.6347  0.4288
  868SOL    HW1 2603   1.459   3.029   1.037  4.0182 -1.0326 -1.8709
  868SOL    HW2 2604   1.589   2.938   1.012  0.2594  0.4190  0.4651
  869SOL     OW 2605   1.347   1.490   0.912  0.2917 -0.2883 -0.0477
  869SOL    HW1 2606   1.420   1.515   0.850 -2.6636 -0.3409 -0.4042
  869SOL    HW2 2607   1.276   1.555   0.911  1.8551 -1.3650 -3.5454
  870SOL     OW 2608   1.950   2.110   1.110  0.3548 -0.2093  0.5192
  870SOL    HW1 2609   2.027   2.086   1.050 -2.3489 -2.9442 -0.5160
  870SOL    HW2 2610   1.942   2.030   1.174  0.0121 -1.1690 -0.8429
  871SOL     OW 2611   0.660   1.614   1.687  0.0101  0.9401  0.1631
  871SOL    HW1 2612   0.631   1.698   1.643  0.1343 -1.6113 -0.8385
  871SOL    HW2 2613   0.741   1.580   1.631 -2.0557  2.1827 -3.4461
  872SOL     OW 2614   1.065   1.432   1.379 -0.1340  0.2974 -0.0288
  872SOL    HW1 2615   1.091   1.526   1.363 -0.7360 -0.9875  0.2482
  872SOL    HW2 2616   1.142   1.374   1.415  1.4665 -2.2788  2.3885
  873SOL     OW 2617   1.227   0.990   2.463  0.2767  0.2604 -0.1691
  873SOL    HW1 2618   1.221   1.092   2.447  0.8554 -1.7876  0.4703
  873SOL    HW2 2619   1.293   0.967   2.535 -0.9492  1.7913 -1.8991
  874SOL     OW 2620   0.188   1.342   1.406 -0.2142  0.1916  0.0615
  874SOL    HW1 2621   0.171   1.417   1.339  1.5188 -0.2812 -1.1819
  874SOL    HW2 2622   0.280   1.342   1.458 -0.8860  2.0759  1.2452
  875SOL     OW 2623   2.809   2.938   0.750  0.1546 -0.4085  0.1725
  875SOL    HW1 2624   2.849   2.975   0.839 -0.3111 -4.2114  0.5117
  875SOL    HW2 2625   2.705   2.950   0.752  0.5586  0.9489 -0.5533
  876SOL     OW 2626   0.906   0.593   2.826 -0.0420 -0.2575  0.3620
  876SOL    HW1 2627   0.916   0.585   2.925  0.0410 -0.3543  0.3874
  876SOL    HW2 2628   0.997   0.596   2.780  2.7354  1.9995 -0.2868
  877SOL     OW 2629   0.091   0.381   1.101  0.3599  0.7523  0.5292
  877SOL    HW1 2630   0.025   0.404   1.170 -0.1356  0.8036 -0.3315
  877SOL    HW2 2631   0.144   0.462   1.080 -1.4230 -2.1770  1.6106
  878SOL     OW 2632   1.660   2.628   3.039 -0.4566 -0.1938  0.0511
  878SOL    HW1 2633   1.721   2.698   0.008  1.5607  1.2978  0.5192
  878SOL    HW2 2634   1.610   2.566   0.021  0.0690  2.5017  0.8399
  879SOL     OW 2635   2.221   1.582   1.538  0.7784  0.4015  0.0543
  879SOL    HW1 2636   2.203   1.649   1.465  1.3229 -1.6193  1.8126
  879SOL    HW2 2637   2.211   1.633   1.624 -0.7712  3.2848 -3.7116
  880SOL     OW 2638   0.841   0.648   1.593 -0.0186 -0.4242  0.1405
  880SOL    HW1 2639   0.908   0.576   1.599 -3.5019  3.0680  0.3254
  880SOL    HW2 2640   0.841   0.697   1.683 -1.9232  1.4046 -1.7173
  881SOL     OW 2641   0.844   1.791   0.008 -0.1505  0.2338  0.3171
  881SOL    HW1 2642   0.792   1.786   3.001  1.1685  0.2185  0.8071
  881SOL    HW2 2643   0.941   1.806   3.063  0.2533  0.1025  2.9973
  882SOL     OW 2644   1.900   0.881   1.433  0.2526 -0.2402 -0.2406
  882SOL    HW1 2645   1.987   0.907   1.476 -1.8532 -0.3315  0.2156
  882SOL    HW2 2646   1.912   0.792   1.381  0.9405  0.2375  3.5845
  883SOL     OW 2647   1.862   0.640   2.077  0.7430  0.0092  0.3534
  883SOL    HW1 2648   1.851   0.618   2.176 -0.9138 -2.8030  0.8996
  883SOL    HW2 2649   1.798   0.587   2.023 -0.1762 -4.2072  3.2825
  884SOL     OW 2650   2.502   0.270   0.083 -0.4765  0.2194 -0.2847
  884SOL    HW1 2651   2.560   0.354   0.102  1.4829  6.1940  0.0026
  884SOL    HW2 2652   2.444   0.281   3.081  0.7370  0.3207  0.0099
  885SOL     OW 2653   0.552   1.971   0.673 -0.3539  0.4181  0.1083
  885SOL    HW1 2654   0.513   2.019   0.593  1.4730  4.8468 -0.6595
  885SOL    HW2 2655   0.474   1.920   0.711 -0.0733 -0.9915 -1.2199
  886SOL     OW 2656   1.662   1.347   0.143  0.0494  0.1159  0.0732
  886SOL    HW1 2657   1.590   1.327   0.217  0.5824 -0.5025  3.2560
  886SOL    HW2 2658   1.724   1.424   0.168 -1.0839  1.0171  0.7084
  887SOL     OW 2659   1.461   0.489   1.722 -0.0732  0.2952  0.0770
  887SOL    HW1 2660   1.543   0.523   1.771  1.8510  0.7605  0.6178
  887SOL    HW2 2661   1.422   0.568   1.665  0.6128  3.4981 -2.7223
  888SOL     OW 2662   2.947   1.203   1.600  0.2825 -0.3469 -0.1026
  888SOL    HW1 2663   3.001   1.164   1.518  1.8448  0.8023 -1.2104
  888SOL    HW2 2664   2.850   1.197   1.574  1.4147 -0.8761 -0.9019
  889SOL     OW 2665   3.015   2.617   1.063  0.4361  0.7325  0.3676
  889SOL    HW1 2666   3.064   2.677   0.995 -0.6330  0.0006 -0.5174
  889SOL    HW2 2667   3.072   2.617   1.148 -0.2450  0.5006  0.6527
  890SOL     OW 2668   0.001   2.511   2.328  0.8254  0.5067  0.1128
  890SOL    HW1 2669   0.014   2.422   2.383  0.0193 -0.7220  0.3895
  890SOL    HW2 2670   0.090   2.562   2.329  0.8035 -0.3601  0.0628
  891SOL     OW 2671   0.392   1.685   0.277  0.0788  0.2129 -0.2971
  891SOL    HW1 2672   0.446   1.772   0.288  1.5954 -1.0636  1.1601
  891SOL    HW2 2673   0.385   1.633   0.366 -2.2526  1.2373  0.6625
  892SOL     OW 2674   3.028   2.339   1.498 -0.7602  0.1236  0.3273
  892SOL    HW1 2675   3.004   2.314   1.593 -1.5474 -2.5904 -2.7115
  892SOL    HW2 2676   3.002   2.438   1.486 -0.0488  0.6533 -0.1086
  893SOL     OW 2677   0.331   3.067   1.758  0.2720  0.1231  0.0605
  893SOL    HW1 2678   0.237   0.010   1.781  1.9486 -0.0137 -1.0519
  893SOL    HW2 2679   0.342   2.968   1.780 -1.8992  1.8564 -0.9650
  894SOL     OW 2680   2.574   1.758   0.810  0.3210  0.0412  0.0398
  894SOL    HW1 2681   2.625   1.819   0.874  1.2432  1.3752 -3.6596
  894SOL    HW2 2682   2.565   1.806   0.723 -0.0260 -0.0522  0.1779
  895SOL     OW 2683   2.304   2.640   1.541  0.3122 -0.2582  0.3739
  895SOL    HW1 2684   2.214   2.607   1.575  0.8685 -0.0580  0.1568
  895SOL    HW2 2685   2.382   2.603   1.589 -2.2192  2.8492  0.2856
  896SOL     OW 2686   0.819   0.091   1.474 -0.3989 -0.0092 -0.4881
  896SOL    HW1 2687   0.784   0.164   1.539 -0.1609 -2.2498 -1.9175
  896SOL    HW2 2688   0.776   3.081   1.492  3.5301 -2.6697  0.4431
  897SOL     OW 2689   0.680   1.410   1.144  0.9635  0.6654  0.0060
  897SOL    HW1 2690   0.769   1.455   1.137  0.0032  0.4031  0.1951
  897SOL    HW2 2691   0.630   1.394   1.054  1.8702 -1.2722  2.1030
  898SOL     OW 2692   1.690   2.637   1.576  0.0914 -0.4887  0.1058
  898SOL    HW1 2693   1.701   2.583   1.662 -4.6247  0.2788 -0.8630
  898SOL    HW2 2694   1.703   2.582   1.493 -0.8465  0.1658  0.2498
  899SOL     OW 2695   1.124   0.231   2.730 -0.6788 -0.2763 -0.6215
  899SOL    HW1 2696   1.193   0.184   2.792 -4.0955  1.4774  2.0830
  899SOL    HW2 2697   1.076   0.167   2.667 -0.7580 -3.3113 -0.1065
  900SOL     OW 2698   1.141   2.805   1.918  0.4272 -0.2713  0.8566
  900SOL    HW1 2699   1.215   2.879   1.916 -0.0051 -0.3415 -0.4905
  900SOL    HW2 2700   1.056   2.817   1.862  1.5196  0.9776 -0.2315
  901SOL     OW 2701   0.800   1.959   0.218 -0.6761  0.5926 -0.1357
  901SOL    HW1 2702   0.889   1.977   0.270  0.5092  0.0956 -0.6927
  901SOL    HW2 2703   0.818   1.899   0.136  2.2689  0.6333 -2.3198
  902SOL     OW 2704   1.474   1.100   1.153  0.0912  0.0598  0.3896
  902SOL    HW1 2705   1.546   1.046   1.098 -0.6935  0.9783 -0.2800
  902SOL    HW2 2706   1.487   1.203   1.152  3.1369 -2.0995 -0.0360
  903SOL     OW 2707   2.573   1.043   2.933  0.8463 -0.3400  0.1931
  903SOL    HW1 2708   2.580   1.115   2.858  2.7981  1.0825  1.6144
  903SOL    HW2 2709   2.473   1.044   2.975 -2.0981  3.8832  2.3921
  904SOL     OW 2710   0.898   1.279   0.061 -0.4550  0.2383 -0.3114
  904SOL    HW1 2711   0.928   1.317   0.146 -2.1368 -2.1746 -3.1352
  904SOL    HW2 2712   0.905   1.177   0.067 -0.5245  2.5939  1.8766
  905SOL     OW 2713   1.739   0.142   1.195 -0.4543  0.2025 -0.2757
  905SOL    HW1 2714   1.783   0.236   1.168 -0.3653  2.0747  0.4659
  905SOL    HW2 2715   1.639   0.137   1.171  0.7385 -3.3498  0.2981
  906SOL     OW 2716   2.527   2.666   0.921 -0.2372 -0.2853 -0.3158
  906SOL    HW1 2717   2.595   2.643   0.848  0.5552 -0.9561 -1.2922
  906SOL    HW2 2718   2.539   2.765   0.951  0.1647  4.0638 -0.2216
  907SOL     OW 2719   1.486   0.759   0.502 -0.8471  0.5443 -0.6327
  907SOL    HW1 2720   1.500   0.659   0.525  0.5085 -1.2375  0.6287
  907SOL    HW2 2721   1.441   0.805   0.582 -0.5492 -0.2179 -1.2381
  908SOL     OW 2722   1.861   0.380   1.183  0.3298  0.7135 -0.9824
  908SOL    HW1 2723   1.961   0.398   1.167  0.0574  0.6213  0.7140
  908SOL    HW2 2724   1.818   0.457   1.237 -0.1358  2.0909  3.3579
  909SOL     OW 2725   1.932   0.660   1.289 -0.3204  0.1076 -0.8837
  909SOL    HW1 2726   1.984   0.639   1.204 -1.9139  1.4801 -0.6374
  909SOL    HW2 2727   1.982   0.610   1.371 -0.5666 -1.2419  2.1828
  910SOL     OW 2728   2.514   0.633   1.870 -0.0188 -0.0075 -0.1590
  910SOL    HW1 2729   2.532   0.714   1.808  2.4440  0.7219  3.9024
  910SOL    HW2 2730   2.450   0.659   1.944 -1.3581 -0.8309  1.0722
  911SOL     OW 2731   2.525   0.493   2.713  0.2882  0.1403 -0.2175
  911SOL    HW1 2732   2.511   0.581   2.667 -1.6602 -1.8106  0.4234
  911SOL    HW2 2733   2.493   0.497   2.810  0.8637  0.0745  4.1975
  912SOL     OW 2734   0.749   1.022   1.739 -1.1012 -0.4745 -0.1165
  912SOL    HW1 2735   0.837   1.068   1.712  1.4337 -0.4889 -0.1851
  912SOL    HW2 2736   0.694   1.004   1.657  4.6406 -0.0643  1.5812
  913SOL     OW 2737   2.719   2.405   1.629  0.4210 -0.0668 -0.2177
  913SOL    HW1 2738   2.735   2.320   1.687  0.0604  1.8121  0.2190
  913SOL    HW2 2739   2.790   2.478   1.644 -0.8294 -1.5024 -2.0865
  914SOL     OW 2740   1.642   0.936   1.867 -0.3783  0.2985 -0.0785
  914SOL    HW1 2741   1.582   0.853   1.878 -0.1497 -3.3655  0.2036
  914SOL    HW2 2742   1.615   0.984   1.783  1.1483 -0.7832  2.0842
  915SOL     OW 2743   2.706   1.033   0.903  0.4571 -0.1478  0.1479
  915SOL    HW1 2744   2.789   0.989   0.936  1.7620 -0.4234  0.8853
  915SOL    HW2 2745   2.705   1.131   0.936 -0.2157  2.1726  2.1720
  916SOL     OW 2746   1.864   2.369   1.149 -0.2946 -0.0010  0.4254
  916SOL    HW1 2747   1.927   2.434   1.196  0.3197 -0.0834 -1.1631
  916SOL    HW2 2748   1.894   2.271   1.146 -1.2654  0.6826  0.4879
  917SOL     OW 2749   1.919   2.331   2.169  0.5796  0.3520 -0.2561
  917SOL    HW1 2750   1.893   2.375   2.258 -0.4672 -1.3138 -0.1862
  917SOL    HW2 2751   1.974   2.392   2.116 -1.2939 -3.0488  1.0973
  918SOL     OW 2752   1.821   2.663   2.621 -0.0209  0.0057  0.2782
  918SOL    HW1 2753   1.733   2.701   2.590 -2.1069 -1.6390  1.4897
  918SOL    HW2 2754   1.889   2.735   2.603 -1.8773 -1.0279  0.3861
  919SOL     OW 2755   1.131   0.184   1.539  0.1143  0.9245  0.4298
  919SOL    HW1 2756   1.046   0.133   1.547  0.9465 -0.5427 -1.5766
  919SOL    HW2 2757   1.211   0.124   1.578  0.2896  0.7020  1.0090
  920SOL     OW 2758   2.956   0.437   2.490  0.2111 -0.6045 -0.4670
  920SOL    HW1 2759   2.979   0.354   2.548 -0.5609 -2.5387 -1.1757
  920SOL    HW2 2760   2.853   0.443   2.482 -2.4748  0.3090  3.2826
  921SOL     OW 2761   0.077   0.875   1.771  0.5453 -0.3831 -0.0735
  921SOL    HW1 2762   0.132   0.951   1.799 -2.7826 -2.7984 -1.9093
  921SOL    HW2 2763   3.060   0.900   1.786 -1.8039  2.1190  0.3581
  922SOL     OW 2764   2.214   2.488   0.579  0.0378  0.4613 -0.1332
  922SOL    HW1 2765   2.222   2.576   0.637  0.4947  2.6908 -1.0939
  922SOL    HW2 2766   2.248   2.510   0.485  0.1325  0.0599  2.6788
  923SOL     OW 2767   0.801   1.866   0.676 -0.0688 -0.4896 -0.5985
  923SOL    HW1 2768   0.799   1.819   0.768  1.1236 -2.4763 -2.7126
  923SOL    HW2 2769   0.702   1.891   0.647 -2.7628  0.9309  0.0464
  924SOL     OW 2770   1.050   0.857   2.966 -0.1743 -0.2486  0.2563
  924SOL    HW1 2771   1.049   0.799   2.882  0.2718  0.1370  1.0226
  924SOL    HW2 2772   0.976   0.930   2.965  1.8132  0.8014  0.4179
  925SOL     OW 2773   2.643   1.214   0.673 -0.7614  0.1755 -0.4942
  925SOL    HW1 2774   2.668   1.141   0.739 -1.4747  0.2072 -0.5047
  925SOL    HW2 2775   2.544   1.237   0.688 -1.7012  0.2688 -0.8191
  926SOL     OW 2776   0.439   0.377   1.223  0.0632  0.0311  0.6774
  926SOL    HW1 2777   0.441   0.273   1.234 -1.6605 -1.8427  1.2968
  926SOL    HW2 2778   0.365   0.419   1.277 -0.8628 -1.2907  2.1251
  927SOL     OW 2779   0.508   1.686   2.465  0.0375 -0.1116  0.1679
  927SOL    HW1 2780   0.493   1.612   2.532  1.3732 -1.0404  2.3900
  927SOL    HW2 2781   0.446   1.676   2.384  2.1439  0.7272  2.0950
  928SOL     OW 2782   0.220   0.463   2.089  0.3870 -0.0608  0.1812
  928SOL    HW1 2783   0.141   0.478   2.154 -1.9766 -1.3814 -0.7264
  928SOL    HW2 2784   0.190   0.399   2.015 -0.1957  0.2948  2.2233
  929SOL     OW 2785   3.002   2.913   1.366 -0.0326  0.2425  0.0182
  929SOL    HW1 2786   2.933   2.889   1.290 -1.0935 -1.0637 -1.4443
  929SOL    HW2 2787   3.052   2.999   1.342 -1.6437 -2.0533  0.6906
  930SOL     OW 2788   1.926   0.393   1.845  0.1500  0.0942  0.2488
  930SOL    HW1 2789   1.962   0.321   1.782 -1.5654 -1.8501 -2.3982
  930SOL    HW2 2790   1.977   0.381   1.934 -2.2852 -1.5566 -4.4119
  931SOL     OW 2791   2.172   0.910   0.080  0.1856 -0.1285  0.6286
  931SOL    HW1 2792   2.073   0.928   0.057 -1.9312 -0.5783  1.2047
  931SOL    HW2 2793   2.188   0.872   0.174  0.0580 -0.7770 -1.5034
  932SOL     OW 2794   1.985   1.235   0.673  0.1241 -0.4227 -0.0273
  932SOL    HW1 2795   2.076   1.204   0.635 -0.1615 -1.3871 -1.8066
  932SOL    HW2 2796   1.918   1.252   0.597 -1.7691 -1.5440 -3.2956
  933SOL     OW 2797   2.002   1.670   1.064  0.2349 -0.4317 -0.3480
  933SOL    HW1 2798   2.033   1.579   1.023 -1.7271  0.0859 -0.2879
  933SOL    HW2 2799   1.929   1.653   1.136  0.5427 -0.3683  1.4648
  934SOL     OW 2800   2.030   1.013   2.621  0.3080 -0.0218  0.3898
  934SOL    HW1 2801   2.011   0.947   2.699  1.4574 -3.6954  1.3515
  934SOL    HW2 2802   1.987   0.981   2.529 -0.1388  1.1967 -1.9517
  935SOL     OW 2803   0.069   1.081   0.392 -0.3305 -0.1027  0.5715
  935SOL    HW1 2804   0.116   1.147   0.332  0.7611 -1.6438 -0.4576
  935SOL    HW2 2805   3.054   1.104   0.395 -2.4015 -1.6610  0.8520
  936SOL     OW 2806   0.555   2.806   0.758  0.0388  0.2661  0.2694
  936SOL    HW1 2807   0.576   2.894   0.714  2.0115 -1.8657  2.3618
  936SOL    HW2 2808   0.453   2.785   0.762 -2.1417 -0.7242 -1.9522
  937SOL     OW 2809   2.877   2.800   1.802 -0.1613 -0.8358 -0.2729
  937SOL    HW1 2810   2.788   2.782   1.853 -1.6625 -1.0358  1.6475
  937SOL    HW2 2811   2.957   2.811   1.865 -0.5979  2.9673 -1.0826
  938SOL     OW 2812   2.848   2.302   0.170 -0.5393 -0.0084 -0.2230
  938SOL    HW1 2813   2.766   2.360   0.143  1.6714  0.8941  0.7965
  938SOL    HW2 2814   2.908   2.357   0.234  1.1536  1.1069  1.0473
  939SOL     OW 2815   1.067   1.156   1.135 -0.0515 -0.4979  0.1828
  939SOL    HW1 2816   1.057   1.113   1.046  1.6425 -0.5237  0.9238
  939SOL    HW2 2817   1.155   1.119   1.178  3.3223 -1.5461 -0.7596
  940SOL     OW 2818   2.989   0.502   2.798 -0.1597  0.0225 -0.2413
  940SOL    HW1 2819   3.012   0.423   2.744  0.5106  1.3498  2.3728
  940SOL    HW2 2820   3.036   0.501   2.890 -1.4122  0.5854  0.6683
  941SOL     OW 2821   2.518   2.857   2.751 -0.0339 -0.0223 -0.5364
  941SOL    HW1 2822   2.559   2.949   2.749 -0.8210 -2.3296  0.3290
  941SOL    HW2 2823   2.570   2.788   2.708  0.0173  3.2780  1.0344
  942SOL     OW 2824   1.661   0.490   1.002  0.0992 -0.0005  0.5631
  942SOL    HW1 2825   1.732   0.424   1.024 -0.7824  4.0208 -0.2039
  942SOL    HW2 2826   1.668   0.569   1.064 -1.7203 -1.9322  0.9469
  943SOL     OW 2827   1.160   1.190   2.125  0.1219 -0.1683  0.5847
  943SOL    HW1 2828   1.201   1.129   2.054 -0.7778 -3.5591 -1.1216
  943SOL    HW2 2829   1.069   1.218   2.093  1.7531 -1.5668  0.4051
  944SOL     OW 2830   2.125   1.245   1.376  0.2718 -0.1850 -0.2904
  944SOL    HW1 2831   2.099   1.148   1.404 -2.2043 -1.6742 -0.9556
  944SOL    HW2 2832   2.209   1.287   1.420 -1.1667  2.8645  3.0975
  945SOL     OW 2833   2.968   2.973   2.849 -0.4926  0.3522  0.2898
  945SOL    HW1 2834   2.952   2.875   2.819 -1.0546  0.0545 -0.0977
  945SOL    HW2 2835   2.920   3.000   2.935  0.0515  0.3931  1.3436
  946SOL     OW 2836   3.061   1.449   1.560 -0.6526 -0.3148 -0.1414
  946SOL    HW1 2837   0.075   1.426   1.527  1.9276 -0.1511  2.2953
  946SOL    HW2 2838   3.015   1.366   1.592  2.9036 -2.7337  1.5994
  947SOL     OW 2839   0.956   3.055   0.333  0.2663 -0.0439  0.1085
  947SOL    HW1 2840   0.912   0.048   0.380  1.0648 -0.8916 -0.1367
  947SOL    HW2 2841   0.881   2.996   0.298 -0.6156  1.5868  1.5652
  948SOL     OW 2842   2.328   1.663   1.157  0.5102  0.4371 -0.0981
  948SOL    HW1 2843   2.417   1.650   1.204 -3.3372  2.2675  0.2033
  948SOL    HW2 2844   2.342   1.676   1.056 -1.1449  0.5967  2.0021
  949SOL     OW 2845   0.176   0.986   2.969  0.2625  0.2095  0.0424
  949SOL    HW1 2846   0.077   0.975   2.940 -1.4826  0.6735  2.0611
  949SOL    HW2 2847   0.233   1.043   2.902  0.5296 -1.7101  0.6842
  950SOL     OW 2848   0.534   2.462   1.254 -0.5768  0.1847 -0.5163
  950SOL    HW1 2849   0.507   2.562   1.252 -0.2279  1.4150  1.9980
  950SOL    HW2 2850   0.616   2.444   1.194  1.0120  0.4306  2.1930
  951SOL     OW 2851   0.945   1.692   2.674  0.0819  0.4854  0.4314
  951SOL    HW1 2852   0.884   1.659   2.745  2.6286  2.7299  0.4843
  951SOL    HW2 2853   0.893   1.682   2.585  1.8110 -1.0062  0.0444
  952SOL     OW 2854   0.684   0.960   0.545  0.5120 -0.0655 -0.7927
  952SOL    HW1 2855   0.746   0.882   0.548 -0.0030  5.0338 -1.7118
  952SOL    HW2 2856   0.586   0.933   0.526 -0.8392  0.2322 -0.3780
  953SOL     OW 2857   2.324   2.682   2.529 -0.0795 -0.5955 -0.0320
  953SOL    HW1 2858   2.410   2.701   2.472  1.4936 -0.3949  0.1303
  953SOL    HW2 2859   2.349   2.653   2.625 -4.6519  2.1134 -1.2408
  954SOL     OW 2860   1.887   1.034   0.890 -0.4140 -0.5798 -0.2891
  954SOL    HW1 2861   1.955   1.061   0.962  1.6855  0.7611 -1.2976
  954SOL    HW2 2862   1.865   1.113   0.832 -2.3234 -0.9745 -0.1554
  955SOL     OW 2863   0.550   1.895   0.263 -0.4881 -0.2313 -0.0952
  955SOL    HW1 2864   0.655   1.902   0.267  1.7234 -0.5069  0.3126
  955SOL    HW2 2865   0.502   1.967   0.318  0.9000 -1.4749  0.1975
  956SOL     OW 2866   2.755   0.482   1.923  0.2190 -0.6155  0.2004
  956SOL    HW1 2867   2.677   0.547   1.908 -1.4079  2.3690 -0.6710
  956SOL    HW2 2868   2.730   0.389   1.886  0.8470 -0.8807  0.3737
  957SOL     OW 2869   1.944   2.348   1.731  0.0915  0.4214 -0.4093
  957SOL    HW1 2870   1.897   2.279   1.675  1.8707  1.8944 -0.4657
  957SOL    HW2 2871   2.035   2.310   1.773  2.3304 -2.3256  2.1874
  958SOL     OW 2872   1.601   1.119   1.659 -0.0492  0.1305  0.1553
  958SOL    HW1 2873   1.593   1.218   1.680 -0.8758 -3.2187  0.4972
  958SOL    HW2 2874   1.686   1.110   1.608 -1.0485  0.4381  0.6804
  959SOL     OW 2875   1.616   2.018   2.244  0.1142 -0.0251  0.4476
  959SOL    HW1 2876   1.688   1.984   2.182 -0.9167 -1.3852  0.4568
  959SOL    HW2 2877   1.543   1.948   2.251 -1.9038 -0.0393 -3.2799
  960SOL     OW 2878   0.693   0.862   2.757 -0.5722 -0.2462  0.6474
  960SOL    HW1 2879   0.646   0.915   2.686  1.0450 -1.8327  0.6650
  960SOL    HW2 2880   0.753   0.792   2.709  2.9803  1.1755 -0.6900
  961SOL     OW 2881   3.011   0.938   2.847 -0.6361 -0.5776 -0.1279
  961SOL    HW1 2882   2.922   0.901   2.865  2.2680 -0.6947  2.1197
  961SOL    HW2 2883   3.011   0.965   2.751 -2.4186 -0.0910  1.8196
  962SOL     OW 2884   1.000   1.919   2.825 -0.6466  0.1935 -0.2187
  962SOL    HW1 2885   0.978   1.833   2.779  2.0271  1.9271  1.7563
  962SOL    HW2 2886   0.946   1.999   2.792  1.5674  0.7653  1.1435
  963SOL     OW 2887   2.929   2.100   3.077  0.0558 -0.6154 -0.0638
  963SOL    HW1 2888   2.852   2.060   3.027  1.9865  1.2127  0.5154
  963SOL    HW2 2889   2.891   2.186   0.038  1.3962  0.6952 -2.9874
  964SOL     OW 2890   0.912   2.143   2.168 -0.4705 -0.5035 -0.1395
  964SOL    HW1 2891   0.833   2.155   2.231 -1.6853  0.5342 -3.1848
  964SOL    HW2 2892   0.983   2.217   2.185  0.9454  0.9002  0.0650
  965SOL     OW 2893   1.838   1.884   0.923 -0.2093 -0.2219  0.0061
  965SOL    HW1 2894   1.899   1.966   0.920 -1.0313 -1.4715 -1.2575
  965SOL    HW2 2895   1.879   1.814   0.987  0.9387  2.6713  1.5352
  966SOL     OW 2896   2.984   1.653   3.015  0.3949 -0.1473 -0.5066
  966SOL    HW1 2897   3.026   1.729   3.071  0.8377  0.7518 -3.3207
  966SOL    HW2 2898   3.059   1.594   2.979  0.7332  0.9758 -1.7199
  967SOL     OW 2899   2.016   2.988   2.128  0.1908 -0.0121  0.3363
  967SOL    HW1 2900   2.116   2.998   2.142  0.7020  0.4339  2.9137
  967SOL    HW2 2901   1.997   3.004   2.030  0.4767  0.6050  1.0761
  968SOL     OW 2902   0.823   0.700   0.134 -0.0749 -0.8037  0.1342
  968SOL    HW1 2903   0.801   0.797   0.107 -0.3964  0.5777 -0.9097
  968SOL    HW2 2904   0.921   0.694   0.147 -1.3827 -1.4756 -1.7123
  969SOL     OW 2905   0.562   1.484   2.114 -0.3978  0.1293 -0.0868
  969SOL    HW1 2906   0.659   1.499   2.086  0.6433  2.0364  0.3841
  969SOL    HW2 2907   0.533   1.389   2.089 -1.2866 -1.3386  0.8751
  970SOL     OW 2908   2.046   2.700   1.115 -0.3221 -0.2477  0.6795
  970SOL    HW1 2909   2.017   2.686   1.017  1.3540  0.7199 -1.6457
  970SOL    HW2 2910   2.149   2.695   1.117 -0.5141 -0.7741  2.2882
  971SOL     OW 2911   1.835   2.363   0.649  0.2163  0.0048 -0.0343
  971SOL    HW1 2912   1.891   2.372   0.733 -1.5086  1.1364 -0.2801
  971SOL    HW2 2913   1.892   2.339   0.573  1.5931  2.0111  1.8476
  972SOL     OW 2914   3.050   1.086   2.605  0.4658  0.1743 -0.2400
  972SOL    HW1 2915   3.037   0.993   2.563 -2.5190 -0.5087  0.1530
  972SOL    HW2 2916   0.048   1.128   2.559  0.3240  0.1692  3.1642
  973SOL     OW 2917   0.464   0.174   0.280 -0.0092  0.1752  0.5518
  973SOL    HW1 2918   0.419   0.214   0.365  0.3121 -1.1387  0.0103
  973SOL    HW2 2919   0.406   0.185   0.194 -2.7028  3.0395 -2.2176
  974SOL     OW 2920   2.609   0.836   2.161 -0.2929  0.1496 -0.0474
  974SOL    HW1 2921   2.643   0.741   2.177  0.0041 -1.6621 -0.1171
  974SOL    HW2 2922   2.512   0.841   2.128  2.0186 -1.4313 -0.0686
  975SOL     OW 2923   0.100   3.042   0.658 -0.9058 -0.3633  0.4794
  975SOL    HW1 2924   0.110   3.063   0.759 -0.8029  1.7830  2.1037
  975SOL    HW2 2925   0.032   2.974   0.655  3.3710  0.9787 -0.4854
  976SOL     OW 2926   0.511   1.679   1.443 -0.3467  0.0543 -0.9217
  976SOL    HW1 2927   0.409   1.674   1.443 -1.5898 -1.2376 -0.8134
  976SOL    HW2 2928   0.549   1.585   1.434 -0.4005  0.9280  1.4435
  977SOL     OW 2929   1.120   1.801   0.218  0.1563  0.1837 -0.0373
  977SOL    HW1 2930   1.097   1.803   0.115  1.2084  0.6340 -0.9531
  977SOL    HW2 2931   1.045   1.829   0.281  0.9581  0.9014 -0.1744
  978SOL     OW 2932   3.048   0.832   0.340 -0.6062 -0.5382  0.2297
  978SOL    HW1 2933   3.048   0.807   0.242  1.0734  0.8874 -0.7337
  978SOL    HW2 2934   0.025   0.917   0.361  1.7004  0.2938 -0.6142
  979SOL     OW 2935   1.764   1.727   0.441  0.2700  0.2365 -0.1620
  979SOL    HW1 2936   1.821   1.654   0.478  1.4819  0.0879 -0.6413
  979SOL    HW2 2937   1.796   1.826   0.456  1.4077  3.2731  0.8347
  980SOL     OW 2938   0.490   1.925   1.961  0.2700 -0.6490 -0.4198
  980SOL    HW1 2939   0.571   1.879   2.003 -1.1895 -0.8888  0.7676
  980SOL    HW2 2940   0.516   1.983   1.876  2.8368  1.7275  0.2724
  981SOL     OW 2941   2.204   1.377   2.527 -0.4895  0.2887 -0.0273
  981SOL    HW1 2942   2.284   1.391   2.586 -2.0826 -0.5529  0.5581
  981SOL    HW2 2943   2.198   1.457   2.464  0.6430  1.5369 -0.9343
  982SOL     OW 2944   0.076   2.438   1.875  0.0475 -0.5543  0.1895
  982SOL    HW1 2945   0.006   2.386   1.826  0.7725  4.2093  0.2814
  982SOL    HW2 2946   0.111   2.374   1.950 -0.4688  1.5280  0.2525
  983SOL     OW 2947   1.557   0.264   1.572  0.0687 -0.1459 -0.2273
  983SOL    HW1 2948   1.532   0.324   1.648  1.2450 -0.8581 -1.8666
  983SOL    HW2 2949   1.582   0.172   1.608 -1.9992 -0.8426 -0.5040
  984SOL     OW 2950   2.435   2.722   0.086  0.0883 -0.1585 -0.2704
  984SOL    HW1 2951   2.468   2.631   0.079 -1.0234  3.0585  0.3177
  984SOL    HW2 2952   2.383   2.754   0.006 -0.2315  0.4135 -0.7696
  985SOL     OW 2953   1.612   1.384   1.725  0.3629  0.2485  0.3333
  985SOL    HW1 2954   1.666   1.466   1.709 -1.0642  1.9314  0.9867
  985SOL    HW2 2955   1.611   1.354   1.821  1.7101 -0.1800 -1.0503
  986SOL     OW 2956   1.984   2.974   2.623  0.6524 -0.2161  0.1069
  986SOL    HW1 2957   2.040   3.060   2.625  1.5915 -0.6552  2.2251
  986SOL    HW2 2958   1.905   2.975   2.693 -1.5466 -0.7153 -0.0757
  987SOL     OW 2959   2.721   1.879   2.735 -0.7989  0.0525 -0.2456
  987SOL    HW1 2960   2.815   1.829   2.737  4.2135 -1.3301 -1.3334
  987SOL    HW2 2961   2.734   1.951   2.661  1.5057  1.4724 -1.3625
  988SOL     OW 2962   0.121   0.822   1.434 -0.5075 -0.1753  0.1774
  988SOL    HW1 2963   0.183   0.769   1.494 -0.2442  0.2463  1.0864
  988SOL    HW2 2964   0.148   0.921   1.447 -1.2095  0.4787 -0.7893
  989SOL     OW 2965   1.824   1.093   1.247  0.3253  0.3144 -0.0827
  989SOL    HW1 2966   1.866   1.040   1.331 -0.3452 -1.7545  2.0876
  989SOL    HW2 2967   1.746   1.037   1.217  0.2969  0.6237 -1.8218
  990SOL     OW 2968   2.491   0.614   2.980 -0.0223  0.0988  0.0726
  990SOL    HW1 2969   2.506   0.690   2.915 -1.0298 -0.3430 -1.0772
  990SOL    HW2 2970   2.577   0.581   3.021  1.0903  2.5905 -2.3553
  991SOL     OW 2971   0.114   1.473   3.024 -0.2435 -0.3826  0.1092
  991SOL    HW1 2972   0.079   1.379   3.016 -1.6116 -0.7403 -1.4551
  991SOL    HW2 2973   0.113   1.499   0.037  0.6341  1.9772  0.3327
  992SOL     OW 2974   2.290   1.565   1.931 -0.2480 -0.2490  0.2076
  992SOL    HW1 2975   2.248   1.640   1.878  0.9627  0.3547 -0.7582
  992SOL    HW2 2976   2.368   1.527   1.879  0.8577  2.8577 -1.4144
  993SOL     OW 2977   0.449   2.620   0.430 -0.0262  0.1582  0.1508
  993SOL    HW1 2978   0.525   2.568   0.403 -1.6769  2.7644  1.4097
  993SOL    HW2 2979   0.468   2.719   0.438 -2.0461  2.0005  1.4523
  994SOL     OW 2980   2.924   1.744   1.579 -0.0250  0.2889  0.6929
  994SOL    HW1 2981   2.901   1.692   1.667 -0.8652 -0.0381 -4.1788
  994SOL    HW2 2982   2.885   1.836   1.573  1.0387 -2.8929  1.9463
  995SOL     OW 2983   1.557   1.992   2.545  0.2722 -0.5536 -0.1782
  995SOL    HW1 2984   1.658   2.021   2.545 -1.4522 -0.4211  0.7401
  995SOL    HW2 2985   1.517   1.998   2.447 -0.2355  3.5136 -4.1531
  996SOL     OW 2986   2.304   1.843   0.022 -0.4282 -0.1229  0.4168
  996SOL    HW1 2987   2.226   1.844   0.084  0.2677 -2.4954 -1.7077
  996SOL    HW2 2988   2.391   1.823   0.073 -0.8649 -0.0996 -0.7891
  997SOL     OW 2989   1.541   1.366   2.524  0.2482  0.3050  0.1151
  997SOL    HW1 2990   1.501   1.363   2.620 -0.8237 -1.1428  1.2228
  997SOL    HW2 2991   1.585   1.455   2.498 -0.1113 -0.2324  0.6092
  998SOL     OW 2992   2.965   2.415   0.895 -0.0146 -0.2957 -0.1783
  998SOL    HW1 2993   2.968   2.444   0.795  0.8573 -0.6043  1.4342
  998SOL    HW2 2994   2.984   2.494   0.960 -2.4004 -0.8021 -0.6049
  999SOL     OW 2995   0.246   2.533   0.574 -0.1434 -0.1514  0.3794
  999SOL    HW1 2996   0.236   2.436   0.558  1.5786  0.7088 -0.4114
  999SOL    HW2 2997   0.335   2.560   0.533 -0.1719  1.1214  0.9729
 1000SOL     OW 2998   1.083   3.037   0.088  0.0171 -0.1357  0.0454
 1000SOL    HW1 2999   1.041   3.024   0.181 -1.1811  2.9735  0.0846
 1000SOL    HW2 3000   1.010   3.056   0.022 -2.2209  1.7054  2.5701
   3.08255   3.08255   3.08255
