1000 SPC/Fw water molecules t=  28.00000 step= 28000
 3000
    1SOL     OW    1   1.851   2.621   0.373  0.1942  0.5766  0.1254
    1SOL    HW1    2   1.918   2.588   0.299 -1.8968 -0.2174 -2.1553
    1SOL    HW2    3   1.759   2.581   0.369  1.0157  3.0380  1.8555
    2SOL     OW    4   1.206   0.566   2.079  0.4753  0.7331  0.0866
    2SOL    HW1    5   1.290   0.584   2.126 -1.2580 -0.2277  0.8025
    2SOL    HW2    6   1.130   0.585   2.144  1.3859  1.5976  0.7311
    3SOL     OW    7   0.911   2.966   2.825  0.2392  0.3074  0.4829
    3SOL    HW1    8   0.894   2.873   2.788  0.4297  0.3878  0.9230
    3SOL    HW2    9   0.825   3.006   2.864 -1.7760  2.8260  0.1218
    4SOL     OW   10   1.484   1.666   0.057  0.0297  0.0205  0.2416
    4SOL    HW1   11   1.455   1.674   0.157 -3.6659 -0.9626 -2.6830
    4SOL    HW2   12   1.515   1.757   0.020 -0.1841  1.2753  2.4113
    5SOL     OW   13   0.732   1.141   2.019 -0.3054 -0.2914  0.1075
    5SOL    HW1   14   0.743   1.056   1.966  1.5342 -0.9350 -0.3417
    5SOL    HW2   15   0.819   1.197   2.019  1.6625  0.6865  1.2094
    6SOL     OW   16   2.020   0.797   2.480  0.7894  0.0100  0.5766
    6SOL    HW1   17   2.028   0.725   2.550 -2.3408  1.7608 -0.2216
    6SOL    HW2   18   2.105   0.802   2.423  0.3410 -0.6283 -0.2116
    7SOL     OW   19   0.400   0.846   1.132 -0.2054  0.4239 -0.3809
    7SOL    HW1   20   0.426   0.816   1.039 -0.3543  0.1479  0.2936
    7SOL    HW2   21   0.352   0.934   1.119 -0.9382 -0.3538  0.5329
    8SOL     OW   22   1.942   2.833   1.850 -0.0449  0.2550 -0.1772
    8SOL    HW1   23   1.839   2.831   1.856  3.3209  0.5755  3.5054
    8SOL    HW2   24   1.979   2.918   1.810  0.6586 -0.0936 -0.1953
    9SOL     OW   25   0.057   2.794   0.649  0.0086  0.0132 -0.5686
    9SOL    HW1   26   0.001   2.833   0.572  1.2298 -3.3242 -1.5026
    9SOL    HW2   27   0.155   2.812   0.643  2.0630  0.8315  1.6744
   10SOL     OW   28   3.058   2.384   2.443  0.1539 -0.0867  0.9119
   10SOL    HW1   29   0.029   2.354   2.391  0.4875  0.1866 -1.6244
   10SOL    HW2   30   3.076   2.384   2.543  2.5104  0.3951 -2.4776
   11SOL     OW   31   0.878   1.686   3.086 -0.2956 -0.1183 -0.6215
   11SOL    HW1   32   0.824   1.671   0.060 -0.3857  0.1986 -0.9057
   11SOL    HW2   33   0.879   1.786   3.072  1.6421  1.9104  0.4779
   12SOL     OW   34   2.271   2.713   1.235 -0.3418 -0.3804 -0.4201
   12SOL    HW1   35   2.281   2.810   1.202  0.6647 -2.6801 -1.9308
   12SOL    HW2   36   2.267   2.647   1.156  0.8886 -2.6646  0.4485
   13SOL     OW   37   0.280   3.066   2.762  0.0410 -0.1868  0.5331
   13SOL    HW1   38   0.255   0.006   2.848  1.1838  0.1281 -3.5454
   13SOL    HW2   39   0.309   0.036   2.702  0.6143  0.1981 -1.5916
   14SOL     OW   40   1.434   1.243   1.524  0.3656 -0.4315  0.4626
   14SOL    HW1   41   1.395   1.262   1.614 -1.4083 -0.6250  0.1778
   14SOL    HW2   42   1.388   1.310   1.456 -0.2252  2.0975  0.1507
   15SOL     OW   43   0.552   1.458   2.101  0.0142 -0.6547 -0.0446
   15SOL    HW1   44   0.470   1.447   2.047  1.6481  2.6630  0.4051
   15SOL    HW2   45   0.580   1.375   2.158 -0.0920 -0.7981  1.0781
   16SOL     OW   46   1.565   0.753   2.731 -0.1542  0.0983  0.4191
   16SOL    HW1   47   1.474   0.759   2.774  1.0551 -0.0194  1.0732
   16SOL    HW2   48   1.608   0.843   2.727 -2.4685 -1.0215 -1.4638
   17SOL     OW   49   0.063   2.390   2.110 -0.1727 -0.3270 -0.2974
   17SOL    HW1   50   0.015   2.480   2.116  3.2754  2.3140  1.1167
   17SOL    HW2   51   0.048   2.350   2.016  1.7174 -0.1661 -0.2447
   18SOL     OW   52   1.755   1.224   0.453  0.1835  0.5271  0.6503
   18SOL    HW1   53   1.750   1.242   0.552  0.6483  1.9253 -0.5492
   18SOL    HW2   54   1.664   1.223   0.413  4.2397 -0.5477  1.2845
   19SOL     OW   55   0.261   1.422   1.949 -0.0342 -0.0741  0.7143
   19SOL    HW1   56   0.309   1.331   1.936  1.8235 -2.6782 -0.4214
   19SOL    HW2   57   0.256   1.474   1.860  2.0114  2.4149  0.6074
   20SOL     OW   58   2.205   2.248   2.793  0.0711  0.2750  0.4585
   20SOL    HW1   59   2.215   2.337   2.740 -0.0900 -0.0812  1.5725
   20SOL    HW2   60   2.267   2.256   2.873 -0.0630  0.1664 -0.1230
   21SOL     OW   61   1.859   1.977   0.787 -0.8904  0.2446 -0.5007
   21SOL    HW1   62   1.890   2.046   0.719 -0.9331  0.0780 -2.4935
   21SOL    HW2   63   1.849   2.020   0.877  1.2665  0.1168  0.5585
   22SOL     OW   64   2.066   2.130   1.258 -0.6643 -0.2829 -0.5709
   22SOL    HW1   65   2.097   2.181   1.342  1.2825  0.6009 -2.0400
   22SOL    HW2   66   2.055   2.197   1.182  4.7146  1.2528  0.3887
   23SOL     OW   67   0.094   1.106   1.265 -0.0118  0.4901 -0.4810
   23SOL    HW1   68   0.090   1.160   1.354  2.1672 -0.0990  0.6958
   23SOL    HW2   69   0.007   1.109   1.212  2.0396 -0.4959 -0.4765
   24SOL     OW   70   1.537   1.200   1.909 -0.1383  0.0324 -0.3729
   24SOL    HW1   71   1.524   1.101   1.930  0.2881  1.2241  0.7747
   24SOL    HW2   72   1.623   1.216   1.852  0.6024  0.7469  1.0108
   25SOL     OW   73   1.849   0.075   2.146  0.0448 -0.0186 -0.1457
   25SOL    HW1   74   1.923   0.006   2.176  4.3695 -3.6915  0.6646
   25SOL    HW2   75   1.838   0.149   2.218 -1.4237  3.7933 -2.7161
   26SOL     OW   76   0.870   3.052   0.895 -0.4071  0.2538 -0.3023
   26SOL    HW1   77   0.867   0.033   0.941  0.3446  1.5148 -0.0602
   26SOL    HW2   78   0.802   3.051   0.818  1.5478 -0.8731  3.7034
   27SOL     OW   79   1.317   1.202   0.900  0.3301 -0.3962  0.1721
   27SOL    HW1   80   1.367   1.279   0.852 -0.2661  1.8724  0.3897
   27SOL    HW2   81   1.326   1.228   1.000  0.1244  1.3566  2.8647
   28SOL     OW   82   2.366   2.309   1.079 -0.0545 -0.0615  0.1926
   28SOL    HW1   83   2.372   2.291   1.180 -0.8230  0.7125  0.2754
   28SOL    HW2   84   2.309   2.391   1.067 -2.5235  0.9167  0.0626
   29SOL     OW   85   2.011   2.979   2.202  0.1269  0.1379  0.0866
   29SOL    HW1   86   1.988   2.882   2.157 -1.7605 -0.9015  0.1140
   29SOL    HW2   87   2.111   2.980   2.217 -2.8811 -3.7344  0.0668
   30SOL     OW   88   0.014   2.905   1.943  0.3094  0.5992  0.7814
   30SOL    HW1   89   3.025   2.903   1.912  0.0769  0.3913  1.8693
   30SOL    HW2   90   0.052   2.999   1.939 -1.6719 -0.6730 -1.1993
   31SOL     OW   91   2.957   1.835   2.215  0.1776 -0.2131  0.6499
   31SOL    HW1   92   2.986   1.930   2.235  0.1526 -0.6283  0.3773
   31SOL    HW2   93   2.968   1.816   2.115 -2.0231  1.2219  1.4907
   32SOL     OW   94   1.398   2.395   2.411 -0.4739  0.3058 -0.0260
   32SOL    HW1   95   1.429   2.334   2.338 -0.8278  0.7165  0.0961
   32SOL    HW2   96   1.444   2.373   2.499  2.0880 -2.4070  0.0126
   33SOL     OW   97   0.236   0.122   2.979  0.3509 -0.1484 -0.3894
   33SOL    HW1   98   0.195   0.085   3.062  3.2192  0.5682 -0.7511
   33SOL    HW2   99   0.201   0.218   2.972  1.3489  0.9282 -2.9624
   34SOL     OW  100   2.744   0.196   0.324 -0.1801 -0.3152 -0.3063
   34SOL    HW1  101   2.720   0.255   0.403  1.3017  1.2618  1.1275
   34SOL    HW2  102   2.823   0.220   0.269 -2.6001 -1.2025  2.7610
   35SOL     OW  103   2.867   2.593   1.775  0.1662 -0.4529  0.0800
   35SOL    HW1  104   2.843   2.505   1.823  1.1811  1.2955  1.7734
   35SOL    HW2  105   2.783   2.635   1.738  2.3636 -2.0935 -0.6540
   36SOL     OW  106   2.303   3.009   2.262  0.7589  0.1861  0.3318
   36SOL    HW1  107   2.275   3.014   2.360 -0.1337 -0.6168  1.0543
   36SOL    HW2  108   2.378   3.074   2.243 -2.0914 -0.2142 -2.1437
   37SOL     OW  109   1.555   3.081   0.150  0.2821  0.4981 -0.0466
   37SOL    HW1  110   1.546   3.100   0.250  0.3754  3.3338  2.0692
   37SOL    HW2  111   1.475   3.022   0.117  0.9363 -2.6163 -0.4610
   38SOL     OW  112   0.309   0.409   0.264 -0.3158 -0.6717  0.1677
   38SOL    HW1  113   0.272   0.422   0.359  1.0906 -0.6713  0.2019
   38SOL    HW2  114   0.395   0.464   0.245  2.1331 -0.3312 -0.0768
   39SOL     OW  115   0.893   1.745   2.169  0.3531 -0.4038 -0.2317
   39SOL    HW1  116   0.948   1.710   2.245 -0.8854  0.5995  0.3494
   39SOL    HW2  117   0.826   1.819   2.200  0.6007  0.0370  0.8577
   40SOL     OW  118   0.176   0.613   2.640 -0.6924 -0.8428  0.1552
   40SOL    HW1  119   0.261   0.569   2.670  0.0150  1.5108 -0.0482
   40SOL    HW2  120   0.211   0.687   2.581  0.3321 -0.3934 -0.5117
   41SOL     OW  121   1.207   0.780   1.887  0.2980  0.0207  0.3568
   41SOL    HW1  122   1.294   0.790   1.828 -1.0321 -1.7494 -0.8064
   41SOL    HW2  123   1.207   0.688   1.938 -0.9879  0.3192  2.5764
   42SOL     OW  124   2.783   0.191   1.359  0.2846  0.4266 -1.0561
   42SOL    HW1  125   2.834   0.247   1.427  2.7598  0.7091 -2.2035
   42SOL    HW2  126   2.741   0.112   1.405  1.0624  1.5935 -0.3677
   43SOL     OW  127   1.452   0.808   1.741  0.0292  0.3880 -0.2606
   43SOL    HW1  128   1.539   0.859   1.711  2.1535  0.6404  0.1750
   43SOL    HW2  129   1.451   0.709   1.708  0.7606  1.6222  0.6935
   44SOL     OW  130   0.091   0.351   3.087  0.5141  0.4971 -0.2689
   44SOL    HW1  131   0.068   0.329   0.075 -0.8238  1.0758  1.1155
   44SOL    HW2  132   0.004   0.369   3.036 -0.4172  1.4931 -0.3492
   45SOL     OW  133   0.338   1.818   1.745  0.0825  0.2814  0.0781
   45SOL    HW1  134   0.406   1.872   1.788 -2.5168 -1.6697  0.2096
   45SOL    HW2  135   0.351   1.822   1.645  0.1321  1.4860  1.4859
   46SOL     OW  136   2.180   2.732   1.665 -0.4491 -0.5726 -0.2850
   46SOL    HW1  137   2.115   2.772   1.737 -1.0530 -0.9109  2.2544
   46SOL    HW2  138   2.238   2.652   1.699  1.8260  1.1766  2.5872
   47SOL     OW  139   0.122   1.964   1.252 -0.1233 -0.4168 -0.7353
   47SOL    HW1  140   0.176   1.884   1.286 -1.5768 -0.1433 -1.0544
   47SOL    HW2  141   0.071   1.933   1.169 -2.5127 -0.6711  0.2340
   48SOL     OW  142   0.728   2.751   2.776 -0.8552 -0.4171  0.0036
   48SOL    HW1  143   0.704   2.675   2.710 -2.0216  3.0356  1.5204
   48SOL    HW2  144   0.730   2.720   2.870  0.1707  1.6609 -4.6481
   49SOL     OW  145   2.690   1.448   1.824 -0.3528 -0.6765 -0.5460
   49SOL    HW1  146   2.767   1.441   1.752  2.5487  0.8775 -3.2385
   49SOL    HW2  147   2.710   1.527   1.888  1.8288  2.1400  0.0992
   50SOL     OW  148   1.373   2.784   0.551 -0.3157  0.0114  0.2281
   50SOL    HW1  149   1.284   2.806   0.592  2.2071 -3.1853  0.4194
   50SOL    HW2  150   1.435   2.752   0.624 -2.3328  0.9366 -0.8951
   51SOL     OW  151   1.086   0.437   1.031 -0.1624  0.1405  0.0943
   51SOL    HW1  152   1.032   0.451   1.118 -1.7761 -0.1906  0.0622
   51SOL    HW2  153   1.169   0.384   1.048 -2.2992  1.2853  0.2431
   52SOL     OW  154   0.724   1.416   0.316 -0.0582  0.2306  0.0028
   52SOL    HW1  155   0.731   1.312   0.301  2.3396 -1.3157 -0.3967
   52SOL    HW2  156   0.695   1.435   0.410  0.4296 -4.7596  1.4715
   53SOL     OW  157   1.193   2.825   2.543 -0.1645 -0.3723 -0.3317
   53SOL    HW1  158   1.215   2.925   2.562 -2.5138 -0.3017  3.2266
   53SOL    HW2  159   1.270   2.774   2.496 -1.4067  1.7187  0.9027
   54SOL     OW  160   2.010   0.161   1.942  0.4053 -0.0942 -0.7098
   54SOL    HW1  161   1.969   0.141   2.036 -0.0918 -0.3540 -0.0545
   54SOL    HW2  162   2.088   0.226   1.950 -1.5757  0.7628  0.9840
   55SOL     OW  163   2.736   2.423   0.153 -0.1885 -0.6046 -0.0900
   55SOL    HW1  164   2.810   2.410   0.088 -3.9047  1.3064  2.2994
   55SOL    HW2  165   2.750   2.497   0.222  0.0164  0.7682 -1.1888
   56SOL     OW  166   0.813   2.893   1.653 -0.2248  0.1102  0.4052
   56SOL    HW1  167   0.753   2.933   1.723 -1.6420 -0.4472 -1.9502
   56SOL    HW2  168   0.815   2.790   1.658  0.1049  1.2493 -1.8205
   57SOL     OW  169   1.912   1.041   2.516 -0.1887  0.2065 -0.5373
   57SOL    HW1  170   1.971   0.959   2.496 -1.3971  1.6059 -0.3759
   57SOL    HW2  171   1.832   1.038   2.457  0.3986 -1.2169  1.0153
   58SOL     OW  172   0.060   1.131   2.071  1.1534 -0.2362 -0.2471
   58SOL    HW1  173   0.158   1.129   2.046 -1.5311 -0.4653 -0.6989
   58SOL    HW2  174   0.018   1.216   2.030 -2.8109 -1.8937 -1.1311
   59SOL     OW  175   0.810   2.616   1.585  0.1223 -0.3090 -0.2390
   59SOL    HW1  176   0.707   2.627   1.569 -1.0311  1.3832  2.0144
   59SOL    HW2  177   0.860   2.576   1.510  0.0216 -0.6615  2.2523
   60SOL     OW  178   2.012   2.476   0.178  0.8491 -0.3924 -0.1397
   60SOL    HW1  179   2.051   2.404   0.238  0.6645  0.1486 -1.9476
   60SOL    HW2  180   2.002   2.455   0.079 -1.1052  3.2938 -0.7306
   61SOL     OW  181   1.570   2.533   0.643 -0.2073  0.0453  0.6301
   61SOL    HW1  182   1.649   2.473   0.669  0.3773 -0.6726 -0.5948
   61SOL    HW2  183   1.486   2.478   0.660  0.4006  1.2351 -1.8189
   62SOL     OW  184   1.778   2.827   3.076 -0.7535  0.2216  0.1011
   62SOL    HW1  185   1.815   2.921   3.095  1.5945 -0.6039 -1.0187
   62SOL    HW2  186   1.754   2.781   0.053  2.1815  2.1206 -1.1440
   63SOL     OW  187   2.374   0.446   3.103 -0.0840  0.5210  0.2284
   63SOL    HW1  188   2.325   0.497   3.033  1.7343 -2.2818  2.6470
   63SOL    HW2  189   2.465   0.490   0.005  0.5737  0.9105 -0.7857
   64SOL     OW  190   1.366   1.028   2.905  0.2855  0.2285 -0.1132
   64SOL    HW1  191   1.339   0.929   2.901 -0.1570 -0.7325  1.9942
   64SOL    HW2  192   1.285   1.081   2.889  4.4487 -3.6867  0.6872
   65SOL     OW  193   0.475   2.331   1.332  0.2342 -0.2384 -0.6184
   65SOL    HW1  194   0.400   2.287   1.278 -0.8920  1.3052  0.1706
   65SOL    HW2  195   0.528   2.391   1.269 -0.7103  0.5391  1.3151
   66SOL     OW  196   1.031   1.310   1.288 -0.0286 -0.0573  0.0373
   66SOL    HW1  197   1.101   1.238   1.279  0.9654 -1.2553  0.4681
   66SOL    HW2  198   0.985   1.306   1.380  0.6402 -0.2829  2.5170
   67SOL     OW  199   2.306   2.056   1.898  0.1985 -0.0438 -0.4289
   67SOL    HW1  200   2.409   2.051   1.917 -1.2256  1.4049  0.2746
   67SOL    HW2  201   2.279   2.017   1.809 -0.0147 -1.8103  0.9143
   68SOL     OW  202   0.666   1.321   1.736  0.0040 -0.1086  0.3879
   68SOL    HW1  203   0.602   1.284   1.807 -2.3979  1.7362 -0.2775
   68SOL    HW2  204   0.762   1.339   1.770 -0.6507 -1.3470  0.4487
   69SOL     OW  205   0.088   2.884   3.051 -0.0452  0.1712  0.2210
   69SOL    HW1  206   0.190   2.870   3.053  2.1523  2.1159  0.7260
   69SOL    HW2  207   0.064   2.914   0.035  1.8639  1.2897  0.7970
   70SOL     OW  208   2.274   0.834   2.339  0.6550  0.6201 -0.3069
   70SOL    HW1  209   2.362   0.791   2.320 -0.6639  1.7821  0.8017
   70SOL    HW2  210   2.231   0.855   2.248 -0.7682  0.4029  0.6886
   71SOL     OW  211   0.842   1.915   0.905  0.4816  0.1879 -0.3229
   71SOL    HW1  212   0.807   1.975   0.980  0.4414 -0.1903 -0.6320
   71SOL    HW2  213   0.773   1.844   0.885  2.0502  0.5240  1.2108
   72SOL     OW  214   2.469   2.172   0.457 -0.2819 -0.6057  0.1205
   72SOL    HW1  215   2.471   2.263   0.411 -0.7875  1.9847  0.9019
   72SOL    HW2  216   2.474   2.178   0.556  0.2718 -0.8175  1.7241
   73SOL     OW  217   1.522   0.512   0.968  0.2479  0.1127  0.1590
   73SOL    HW1  218   1.472   0.479   0.887 -0.4525  0.8303  0.2690
   73SOL    HW2  219   1.491   0.605   0.998 -2.2681  0.3870  0.1780
   74SOL     OW  220   2.564   2.093   1.946 -0.5471 -0.4273 -0.1650
   74SOL    HW1  221   2.601   2.169   1.884  0.9697  0.2253 -2.0397
   74SOL    HW2  222   2.596   2.105   2.044 -3.1989 -0.6806  4.7002
   75SOL     OW  223   1.618   1.644   1.856 -0.6018  0.4916  1.1567
   75SOL    HW1  224   1.547   1.574   1.833  1.3987  0.2211 -2.1244
   75SOL    HW2  225   1.711   1.602   1.882 -1.2171 -0.9057  2.0803
   76SOL     OW  226   1.447   1.851   1.064  0.0393 -0.1000 -0.6222
   76SOL    HW1  227   1.464   1.947   1.033 -0.0745 -0.9700 -2.7956
   76SOL    HW2  228   1.527   1.811   1.112  0.7969 -3.7476  0.4119
   77SOL     OW  229   2.860   1.189   1.854  1.1539  0.5730 -0.3560
   77SOL    HW1  230   2.925   1.234   1.918 -1.2333  0.4223 -1.8213
   77SOL    HW2  231   2.778   1.240   1.841  0.3373 -2.2566  0.2507
   78SOL     OW  232   1.676   0.768   0.291 -0.1782  0.2250 -0.9205
   78SOL    HW1  233   1.661   0.745   0.191 -0.2981  0.1629 -0.3595
   78SOL    HW2  234   1.644   0.693   0.351  1.8438  0.2496 -0.2582
   79SOL     OW  235   1.133   1.366   2.202 -0.3780  0.5496 -0.1831
   79SOL    HW1  236   1.219   1.310   2.214 -0.6428  2.8422  1.3219
   79SOL    HW2  237   1.072   1.331   2.129 -3.6570  0.5495 -0.4815
   80SOL     OW  238   1.197   0.359   1.580  0.2293 -0.0123 -0.0264
   80SOL    HW1  239   1.133   0.429   1.550  0.2716  0.2004 -4.3700
   80SOL    HW2  240   1.153   0.290   1.643 -0.6827 -2.6939  1.9699
   81SOL     OW  241   0.518   2.555   0.304 -0.4434  0.0008  0.3105
   81SOL    HW1  242   0.458   2.517   0.228 -1.0389 -1.0293 -0.3720
   81SOL    HW2  243   0.557   2.470   0.351 -1.9284  1.0731  0.2989
   82SOL     OW  244   1.116   0.212   1.822 -0.6961 -0.2597  0.6001
   82SOL    HW1  245   1.058   0.156   1.764  1.3656  0.8970 -0.6126
   82SOL    HW2  246   1.103   0.183   1.921 -1.7681  0.8427 -0.5319
   83SOL     OW  247   0.503   2.160   1.065  0.4537  0.0759 -0.0072
   83SOL    HW1  248   0.490   2.216   0.978 -1.1358  0.2473 -0.7220
   83SOL    HW2  249   0.422   2.099   1.078 -0.3055  1.3543  0.4361
   84SOL     OW  250   2.892   1.744   0.758 -0.0391  0.4656  0.4672
   84SOL    HW1  251   2.892   1.662   0.697  2.9018 -0.5839  1.5614
   84SOL    HW2  252   2.985   1.795   0.751  1.5918  1.6802 -1.1496
   85SOL     OW  253   2.158   1.862   1.249 -0.1373 -0.1534 -0.4396
   85SOL    HW1  254   2.135   1.960   1.224 -0.9907  2.1564 -3.7486
   85SOL    HW2  255   2.106   1.799   1.187  0.2684  1.2050 -1.3408
   86SOL     OW  256   1.486   2.264   1.784  0.0966 -0.4800  0.4260
   86SOL    HW1  257   1.467   2.332   1.859  0.9297 -0.1073  3.2552
   86SOL    HW2  258   1.419   2.188   1.787 -1.2354  2.2731 -0.0393
   87SOL     OW  259   2.201   1.483   0.506  0.7751  0.1811  0.2945
   87SOL    HW1  260   2.117   1.533   0.531  1.5576 -1.8074  0.2787
   87SOL    HW2  261   2.258   1.528   0.436 -1.7454 -1.6732  0.9575
   88SOL     OW  262   0.512   3.057   0.919 -0.2110  0.2884 -0.4344
   88SOL    HW1  263   0.569   2.980   0.949  1.6332  0.1360 -0.9339
   88SOL    HW2  264   0.513   0.028   0.979 -1.9502 -0.4874  0.5301
   89SOL     OW  265   0.658   0.463   1.623 -0.3401  0.2775 -0.4052
   89SOL    HW1  266   0.716   0.547   1.616  1.5476 -0.4603  1.4449
   89SOL    HW2  267   0.716   0.392   1.674 -1.0939  2.1310  2.3609
   90SOL     OW  268   2.927   1.960   0.379  0.1329  0.2082 -0.0206
   90SOL    HW1  269   3.010   1.958   0.436 -0.8105  0.4274 -2.7029
   90SOL    HW2  270   2.897   2.053   0.366  1.4891 -4.8102  0.7815
   91SOL     OW  271   1.118   1.634   0.989 -0.2237  0.5295 -0.0986
   91SOL    HW1  272   1.102   1.713   1.054 -0.7056  2.2751  1.5774
   91SOL    HW2  273   1.208   1.630   0.948 -1.1060  2.4808 -0.5943
   92SOL     OW  274   2.298   3.098   1.641 -0.1475  0.0904  0.7589
   92SOL    HW1  275   2.372   0.023   1.707 -0.2976  1.0436 -0.3364
   92SOL    HW2  276   2.329   3.024   1.573  0.4270 -1.2362  1.0806
   93SOL     OW  277   0.584   1.365   2.945  0.3009  0.3011 -0.2119
   93SOL    HW1  278   0.517   1.346   3.015  2.7199  1.4205  0.3337
   93SOL    HW2  279   0.606   1.465   2.945 -1.4538 -0.8645  1.9972
   94SOL     OW  280   2.518   0.040   1.807  0.3530 -0.5437  0.5239
   94SOL    HW1  281   2.504   0.135   1.839  0.7177  0.7985 -0.1317
   94SOL    HW2  282   2.558   3.091   1.879  3.1928  0.6743 -1.7387
   95SOL     OW  283   1.892   0.590   1.749 -0.1578  0.0096  0.5138
   95SOL    HW1  284   1.817   0.577   1.688  1.5684 -0.4842  2.8634
   95SOL    HW2  285   1.972   0.537   1.718 -3.1587  0.7482  0.1767
   96SOL     OW  286   0.100   0.441   1.796 -0.7178 -0.1574  0.4279
   96SOL    HW1  287   0.081   0.397   1.706 -0.4781 -0.0436  3.6467
   96SOL    HW2  288   0.062   0.536   1.793  1.2432 -1.0339  1.7122
   97SOL     OW  289   2.145   0.200   1.533  0.3115  0.5133  0.2349
   97SOL    HW1  290   2.065   0.159   1.484  0.3498 -0.8622 -1.5134
   97SOL    HW2  291   2.196   0.126   1.580  0.0091  0.0623 -1.1220
   98SOL     OW  292   2.091   2.402   1.736  0.3883 -0.1517 -0.1746
   98SOL    HW1  293   2.089   2.327   1.807  0.8623 -1.8352  2.9386
   98SOL    HW2  294   2.181   2.445   1.734 -1.1249 -0.0809  2.2106
   99SOL     OW  295   0.746   0.867   0.827  0.0197 -1.1472  0.1043
   99SOL    HW1  296   0.785   0.913   0.747 -0.5076 -0.3180  0.5111
   99SOL    HW2  297   0.644   0.858   0.818 -1.8072  1.5534 -0.4184
  100SOL     OW  298   2.710   1.726   1.943  0.8291 -0.3895  0.2178
  100SOL    HW1  299   2.654   1.754   2.024 -3.0435  1.3272 -0.6035
  100SOL    HW2  300   2.651   1.748   1.862 -3.8450  1.9487 -2.3022
  101SOL     OW  301   1.837   3.090   0.050  0.7361  0.0215  0.8337
  101SOL    HW1  302   1.838   0.072   0.004  2.8510 -0.3949  1.0328
  101SOL    HW2  303   1.742   3.075   0.089 -3.2998  0.6983 -1.4377
  102SOL     OW  304   0.145   2.963   1.180  0.2486 -0.0557 -0.2406
  102SOL    HW1  305   0.055   3.008   1.164  1.0167  0.0622 -0.5535
  102SOL    HW2  306   0.160   2.895   1.106  1.0697  2.6566  1.0306
  103SOL     OW  307   0.104   3.065   2.281  0.3453 -0.1600  0.0162
  103SOL    HW1  308   0.005   3.066   2.273  0.8887 -1.1081 -0.1215
  103SOL    HW2  309   0.135   2.980   2.327 -0.3926  2.8960 -0.4599
  104SOL     OW  310   0.252   2.078   1.565 -0.3452 -0.0274 -0.4693
  104SOL    HW1  311   0.192   1.998   1.586 -1.4381 -1.3867  0.9351
  104SOL    HW2  312   0.193   2.154   1.563 -0.8150 -1.4111  1.0367
  105SOL     OW  313   0.680   1.910   2.128  0.1612  0.3947  0.4586
  105SOL    HW1  314   0.645   1.990   2.180  0.7560 -1.0818  3.6932
  105SOL    HW2  315   0.672   1.928   2.028 -0.8068  1.0062  2.5976
  106SOL     OW  316   1.877   3.049   0.631  0.0715 -0.4048  0.3596
  106SOL    HW1  317   1.819   0.026   0.633  0.6516  0.2923  0.8448
  106SOL    HW2  318   1.886   3.016   0.724 -0.7384  0.4246 -1.2331
  107SOL     OW  319   0.585   1.136   1.255 -0.1127 -0.1080 -0.1054
  107SOL    HW1  320   0.506   1.132   1.193  0.7032 -1.7991  1.4750
  107SOL    HW2  321   0.654   1.065   1.232  1.3891 -1.5868  3.7371
  108SOL     OW  322   2.976   1.108   2.518  0.1402 -0.0869 -0.0107
  108SOL    HW1  323   3.001   1.198   2.562 -2.9538  0.3796  1.3555
  108SOL    HW2  324   2.970   1.107   2.416  1.2393  0.1043 -0.0820
  109SOL     OW  325   2.075   2.830   2.938 -0.0530  0.3012  0.0768
  109SOL    HW1  326   2.088   2.930   2.964  0.4118 -1.1815  0.7750
  109SOL    HW2  327   1.990   2.804   2.992  0.5169 -0.1318 -0.3549
  110SOL     OW  328   0.105   1.974   3.043 -0.1825 -0.3591  0.0181
  110SOL    HW1  329   0.043   1.953   0.007  3.6428  1.2889 -1.6587
  110SOL    HW2  330   0.146   1.890   3.000 -1.5745  1.1181  0.1570
  111SOL     OW  331   2.866   0.843   2.188  0.1596 -0.7377  0.3101
  111SOL    HW1  332   2.945   0.791   2.156 -1.7221 -2.1773  1.5854
  111SOL    HW2  333   2.827   0.799   2.271  0.5016 -1.1736 -0.0732
  112SOL     OW  334   2.082   2.590   1.381 -0.5797  0.0287  0.4276
  112SOL    HW1  335   2.023   2.640   1.441 -2.4460 -1.8577 -0.9666
  112SOL    HW2  336   2.156   2.644   1.343 -1.7740 -3.3299 -0.8447
  113SOL     OW  337   2.141   2.102   2.559  0.1113  0.5145  0.2390
  113SOL    HW1  338   2.217   2.088   2.498  0.2663  0.6750  3.2145
  113SOL    HW2  339   2.168   2.151   2.643 -1.5653  0.1407 -1.9389
  114SOL     OW  340   0.451   0.220   0.612  0.6288  0.2937 -0.4375
  114SOL    HW1  341   0.412   0.125   0.634 -1.6286 -1.7906  1.4159
  114SOL    HW2  342   0.529   0.210   0.548 -0.3634 -0.9031 -0.6948
  115SOL     OW  343   0.041   1.345   0.121 -0.0625 -0.5268 -0.1302
  115SOL    HW1  344   0.011   1.430   0.169 -0.4879  3.1457 -0.8533
  115SOL    HW2  345   0.005   1.260   0.166  2.7826 -1.4244 -0.7462
  116SOL     OW  346   0.071   0.917   1.880 -0.1835  0.1989  0.1578
  116SOL    HW1  347   0.146   0.949   1.817  1.7351  0.1977  0.1329
  116SOL    HW2  348   0.043   0.999   1.928 -0.0144 -0.0506  2.3785
  117SOL     OW  349   2.311   0.295   1.335 -0.1446  0.0506 -0.4840
  117SOL    HW1  350   2.375   0.362   1.378  1.2218  0.7745 -1.6440
  117SOL    HW2  351   2.236   0.274   1.400 -0.5584 -4.3598 -0.9535
  118SOL     OW  352   2.891   2.220   2.041 -0.2686  0.1992  0.2924
  118SOL    HW1  353   2.862   2.309   1.996 -3.3237  2.9862  0.0125
  118SOL    HW2  354   2.921   2.158   1.970  0.6388  3.0950  0.5781
  119SOL     OW  355   0.478   1.822   1.486  0.1393  0.5206 -0.4259
  119SOL    HW1  356   0.519   1.906   1.506 -2.9567 -1.6403 -1.5356
  119SOL    HW2  357   0.543   1.751   1.459 -3.4981 -2.3003  0.5821
  120SOL     OW  358   0.341   1.382   1.589  0.2859  0.2146 -0.1262
  120SOL    HW1  359   0.411   1.407   1.518  0.1902  1.5160  0.3940
  120SOL    HW2  360   0.366   1.292   1.625 -1.0415  0.2276 -3.1830
  121SOL     OW  361   1.744   0.942   0.912  0.0569  0.3651 -0.6185
  121SOL    HW1  362   1.789   1.014   0.857 -0.2398 -2.7260 -0.0628
  121SOL    HW2  363   1.641   0.960   0.922 -2.9368 -0.0548  0.5356
  122SOL     OW  364   2.223   2.479   2.668  0.0425  0.0406 -0.6344
  122SOL    HW1  365   2.220   2.581   2.678 -0.4238  1.0890 -0.1122
  122SOL    HW2  366   2.203   2.464   2.569 -0.6612 -0.4509  1.2070
  123SOL     OW  367   3.009   2.888   0.432  0.0598 -0.2591 -0.0496
  123SOL    HW1  368   2.929   2.836   0.396  1.3818  0.6444 -1.5027
  123SOL    HW2  369   2.980   2.959   0.501  2.4197  3.2420  1.5197
  124SOL     OW  370   1.754   1.459   0.344  0.5599 -0.2204  0.2924
  124SOL    HW1  371   1.676   1.447   0.271 -0.3743 -0.5827 -2.2828
  124SOL    HW2  372   1.784   1.368   0.386  2.1032  0.0801  0.4653
  125SOL     OW  373   0.327   1.048   2.051 -0.1087  0.1085  0.1212
  125SOL    HW1  374   0.384   1.078   2.132 -1.2585 -2.0672  1.0996
  125SOL    HW2  375   0.310   0.948   2.047 -1.7747 -2.6248 -1.1323
  126SOL     OW  376   3.018   2.646   0.060 -0.1051 -0.0617  0.0215
  126SOL    HW1  377   3.048   2.623   0.152 -1.3389 -1.6158 -2.1549
  126SOL    HW2  378   3.083   2.717   0.021  3.1126  0.8229 -0.0466
  127SOL     OW  379   3.023   1.948   0.129 -0.2860  0.0217  0.6439
  127SOL    HW1  380   2.995   1.935   0.227 -2.9717  1.5954  0.9417
  127SOL    HW2  381   2.959   2.014   0.087 -0.0608  2.0338 -0.4314
  128SOL     OW  382   1.153   0.856   0.867 -0.9858  0.2597 -0.3616
  128SOL    HW1  383   1.088   0.928   0.843 -1.2491  0.5320 -1.8124
  128SOL    HW2  384   1.237   0.858   0.811 -1.4761  0.8718  1.1734
  129SOL     OW  385   2.591   2.101   1.152 -0.3051 -1.0613 -0.0558
  129SOL    HW1  386   2.553   2.007   1.137  0.7412  2.1386  0.1316
  129SOL    HW2  387   2.534   2.152   1.220 -2.4505 -1.5893  2.5299
  130SOL     OW  388   2.114   1.001   0.344 -0.4335  0.3558  0.2363
  130SOL    HW1  389   2.155   1.077   0.392 -1.1299 -0.8032  0.1629
  130SOL    HW2  390   2.013   1.013   0.340 -1.5404 -1.2373  2.6509
  131SOL     OW  391   3.036   1.321   2.667 -0.3370  0.1442 -0.7792
  131SOL    HW1  392   2.988   1.409   2.662  4.0450 -0.1067 -2.5529
  131SOL    HW2  393   3.090   1.314   2.751  0.9125 -1.1225 -0.5746
  132SOL     OW  394   0.976   1.245   1.996 -0.0095 -0.3164  1.0248
  132SOL    HW1  395   0.944   1.333   1.950 -0.0675  0.0019 -1.3189
  132SOL    HW2  396   1.034   1.193   1.926  1.9282 -2.5637 -2.2073
  133SOL     OW  397   0.385   1.466   0.539  0.6358 -0.7163 -0.0328
  133SOL    HW1  398   0.348   1.434   0.450 -0.9192 -0.1636 -1.1083
  133SOL    HW2  399   0.488   1.452   0.546 -2.4190 -2.3772 -1.0919
  134SOL     OW  400   2.708   1.038   0.042 -0.0333  0.0658 -0.2598
  134SOL    HW1  401   2.783   1.025   3.086  1.6301 -1.5608  1.0210
  134SOL    HW2  402   2.636   1.089   3.101 -0.6533  0.3799 -0.6025
  135SOL     OW  403   1.661   0.681   0.021  1.0797 -0.0879 -0.7220
  135SOL    HW1  404   1.708   0.740   3.066 -0.9719  0.4847  1.4333
  135SOL    HW2  405   1.715   0.595   0.052  1.8870 -3.0119 -0.1749
  136SOL     OW  406   1.839   1.583   1.530 -0.4251  0.0196  0.0663
  136SOL    HW1  407   1.920   1.582   1.462  1.9536 -1.5063 -2.5898
  136SOL    HW2  408   1.789   1.494   1.526 -0.3629  0.1428  1.4164
  137SOL     OW  409   2.249   2.551   1.009  0.0551 -0.1131  0.1967
  137SOL    HW1  410   2.335   2.599   0.981  3.7825 -0.4094 -0.8086
  137SOL    HW2  411   2.184   2.561   0.928  0.3623  2.5577 -2.3710
  138SOL     OW  412   2.259   0.635   1.795 -0.4173 -0.3442 -0.1200
  138SOL    HW1  413   2.214   0.629   1.883 -1.5962 -1.2275 -0.7466
  138SOL    HW2  414   2.201   0.578   1.734 -1.9082 -1.1320 -2.3836
  139SOL     OW  415   2.464   2.841   2.817  0.3450 -0.5616  0.1249
  139SOL    HW1  416   2.374   2.792   2.806  0.6524 -4.7753  2.5935
  139SOL    HW2  417   2.501   2.810   2.903 -1.6923 -1.2732  1.1354
  140SOL     OW  418   1.518   1.852   2.390  0.2531 -0.0356 -0.3567
  140SOL    HW1  419   1.495   1.866   2.293  2.1398 -1.8088  2.4729
  140SOL    HW2  420   1.435   1.825   2.440  0.0376  1.4615  0.4237
  141SOL     OW  421   0.900   1.031   2.529 -0.6134 -0.6866  0.1508
  141SOL    HW1  422   0.890   1.127   2.570  2.3282  1.3684 -0.2128
  141SOL    HW2  423   0.969   0.979   2.584  1.3867  1.7931 -0.8842
  142SOL     OW  424   2.571   2.585   2.072  0.4391 -0.7150 -0.1181
  142SOL    HW1  425   2.571   2.684   2.101  0.6735 -0.1348 -0.5245
  142SOL    HW2  426   2.479   2.558   2.041  3.0577 -0.7896 -1.4042
  143SOL     OW  427   1.017   2.386   0.303  0.4711  0.2543  0.1230
  143SOL    HW1  428   1.070   2.472   0.286  1.9098  1.7509 -1.0156
  143SOL    HW2  429   0.951   2.397   0.382  1.3028  1.9461 -0.8811
  144SOL     OW  430   0.883   2.681   0.659 -0.1074 -0.3885 -0.1708
  144SOL    HW1  431   0.956   2.755   0.638 -0.0091  0.6077 -0.8666
  144SOL    HW2  432   0.792   2.717   0.662  2.3707  0.7687  0.6799
  145SOL     OW  433   1.614   2.638   2.415 -0.5096  0.1869 -0.0616
  145SOL    HW1  434   1.541   2.623   2.487  0.5700 -1.7852  0.3963
  145SOL    HW2  435   1.629   2.744   2.402 -1.1937  3.1361 -1.7447
  146SOL     OW  436   2.121   2.770   0.157 -0.5735  0.0863 -0.3281
  146SOL    HW1  437   2.077   2.680   0.145 -0.1088  3.9775  0.0688
  146SOL    HW2  438   2.100   2.839   0.088  0.9953  2.0284 -0.2308
  147SOL     OW  439   0.239   1.754   1.419 -0.1108  0.1631  0.1734
  147SOL    HW1  440   0.339   1.768   1.429 -0.5268 -1.5028  2.1495
  147SOL    HW2  441   0.219   1.658   1.397 -1.1965  0.9941  0.4365
  148SOL     OW  442   1.766   2.878   0.459 -0.3479 -0.7776 -0.1313
  148SOL    HW1  443   1.824   2.943   0.516  2.1257  1.1082  5.2519
  148SOL    HW2  444   1.830   2.813   0.413 -0.0893  1.9585  0.5641
  149SOL     OW  445   0.576   1.861   3.040 -0.0298 -0.1619 -0.2352
  149SOL    HW1  446   0.671   1.823   3.045 -1.6372 -1.8681 -0.5627
  149SOL    HW2  447   0.542   1.879   2.943  0.5210 -0.9842 -0.0468
  150SOL     OW  448   0.292   2.562   1.050 -0.0003 -0.0122 -0.6116
  150SOL    HW1  449   0.303   2.594   1.149 -0.3834  1.7651  2.5761
  150SOL    HW2  450   0.263   2.639   0.985 -0.9723  2.6595 -3.7549
  151SOL     OW  451   0.494   1.039   2.965 -0.8280  0.2129 -0.1477
  151SOL    HW1  452   0.547   1.119   2.933  1.1036  1.7914  1.2267
  151SOL    HW2  453   0.399   1.064   2.993 -0.1616  1.0314  1.2768
  152SOL     OW  454   2.850   2.204   0.831 -0.3319  0.5645 -0.0637
  152SOL    HW1  455   2.749   2.178   0.816  1.3076 -0.0569  0.0860
  152SOL    HW2  456   2.861   2.302   0.845 -1.1979 -1.3540 -1.0141
  153SOL     OW  457   1.725   2.290   0.644  0.0057 -0.0633  0.7012
  153SOL    HW1  458   1.796   2.226   0.613 -0.1043  0.1743 -0.6826
  153SOL    HW2  459   1.633   2.243   0.638 -2.9898 -0.1983 -0.8898
  154SOL     OW  460   0.534   2.950   1.484 -0.2384 -0.3413  0.1512
  154SOL    HW1  461   0.501   3.043   1.504 -0.7415 -2.1876  0.6749
  154SOL    HW2  462   0.610   2.958   1.418 -1.6397  3.4256  0.0265
  155SOL     OW  463   2.842   2.236   0.327 -0.3557 -0.1193  0.3603
  155SOL    HW1  464   2.821   2.271   0.421  4.7065 -0.5703  0.0855
  155SOL    HW2  465   2.784   2.298   0.265 -0.8996 -0.4017 -1.4715
  156SOL     OW  466   2.386   1.927   0.052  0.3157 -0.9640  0.4633
  156SOL    HW1  467   2.478   1.929   0.009  2.6596  2.2605  0.9279
  156SOL    HW2  468   2.395   1.904   0.151 -2.8225  0.0987  0.1820
  157SOL     OW  469   0.392   2.663   1.714  0.1282 -0.8335  0.1347
  157SOL    HW1  470   0.313   2.688   1.773  0.6318  1.1060 -0.7461
  157SOL    HW2  471   0.482   2.686   1.765  0.5716 -1.9247  0.6384
  158SOL     OW  472   1.474   0.754   1.062  0.0498 -0.4471  0.5522
  158SOL    HW1  473   1.436   0.827   1.006 -0.1536 -2.0048  0.2402
  158SOL    HW2  474   1.504   0.793   1.152  1.2159 -0.3169  1.6706
  159SOL     OW  475   1.814   1.076   0.051  0.0960 -0.3682 -0.0239
  159SOL    HW1  476   1.848   1.042   0.139  0.4913  1.4937  0.0907
  159SOL    HW2  477   1.890   1.106   3.100 -3.4211 -1.3778  2.8255
  160SOL     OW  478   1.239   1.917   0.432 -0.0663  0.0763 -0.4588
  160SOL    HW1  479   1.253   2.022   0.444 -0.2814  3.2570 -0.9922
  160SOL    HW2  480   1.221   1.870   0.522 -4.6019 -1.0968  2.1448
  161SOL     OW  481   2.409   2.151   2.405  0.0286 -0.0350 -0.5670
  161SOL    HW1  482   2.470   2.204   2.465 -5.4690 -3.3573 -1.4985
  161SOL    HW2  483   2.467   2.083   2.360 -0.7307  0.7641  0.0609
  162SOL     OW  484   0.103   2.303   1.581 -0.2508  0.4144  0.1107
  162SOL    HW1  485   0.048   2.364   1.518  1.5456 -0.6998  0.0934
  162SOL    HW2  486   0.187   2.351   1.604 -3.1109 -2.4891  1.6152
  163SOL     OW  487   0.389   0.429   2.724  0.0868  0.1329  0.0359
  163SOL    HW1  488   0.359   0.427   2.824 -0.8241  0.8083 -1.2319
  163SOL    HW2  489   0.482   0.474   2.705  0.3102 -1.6731 -2.4108
  164SOL     OW  490   0.069   2.777   2.790  0.6966 -0.4329 -0.0140
  164SOL    HW1  491   0.094   2.847   2.717  1.5818 -2.2673 -1.1385
  164SOL    HW2  492   0.086   2.814   2.883 -0.1518  1.3877 -5.5000
  165SOL     OW  493   2.742   0.758   1.497 -0.0817 -0.1923  0.0330
  165SOL    HW1  494   2.675   0.803   1.436 -0.7390 -1.1478  1.3695
  165SOL    HW2  495   2.837   0.769   1.459 -1.1689  0.1920 -0.8071
  166SOL     OW  496   2.015   1.579   1.331 -0.1782  0.0833 -0.0167
  166SOL    HW1  497   2.047   1.484   1.349  2.4096 -0.0321 -0.2422
  166SOL    HW2  498   1.994   1.597   1.236 -2.2189 -1.4374  2.8528
  167SOL     OW  499   0.350   0.751   2.464  0.5400  0.2088 -0.6136
  167SOL    HW1  500   0.349   0.695   2.378  0.0535 -5.6220 -1.8805
  167SOL    HW2  501   0.295   0.833   2.457  1.8543 -2.1482 -0.2666
  168SOL     OW  502   2.230   0.252   2.321 -0.0239 -0.0850 -0.0493
  168SOL    HW1  503   2.159   0.253   2.395  0.7254  0.9987  2.1386
  168SOL    HW2  504   2.286   0.338   2.322  1.3764 -0.8714  3.8301
  169SOL     OW  505   0.648   0.904   0.054  0.0349  0.1189 -0.1850
  169SOL    HW1  506   0.598   0.862   0.135 -2.0587  1.9194 -0.2026
  169SOL    HW2  507   0.574   0.919   3.096 -1.2945 -0.7815  2.3586
  170SOL     OW  508   0.916   1.251   1.558  0.1065 -0.0506 -0.1970
  170SOL    HW1  509   0.834   1.311   1.577 -0.3598 -0.9999 -0.3340
  170SOL    HW2  510   0.983   1.255   1.634 -2.2771 -1.3736 -0.6973
  171SOL     OW  511   1.279   2.773   1.494 -0.3810 -0.3668  0.2616
  171SOL    HW1  512   1.270   2.826   1.577  0.7252  0.4676 -2.1180
  171SOL    HW2  513   1.374   2.756   1.464 -0.8605 -1.1210  1.4891
  172SOL     OW  514   1.054   2.982   2.082  0.0527 -0.1269  0.4944
  172SOL    HW1  515   0.973   2.926   2.115 -2.6751  0.9730  0.3014
  172SOL    HW2  516   1.085   2.946   1.988  1.4703 -2.4548 -3.6086
  173SOL     OW  517   1.067   2.567   0.837 -0.0299  0.5710 -0.0322
  173SOL    HW1  518   1.004   2.611   0.773  1.7320  1.5105 -1.9555
  173SOL    HW2  519   1.023   2.497   0.894  0.7832 -1.4248  1.4514
  174SOL     OW  520   2.302   3.088   0.354 -0.4128  0.5812  0.8277
  174SOL    HW1  521   2.271   0.032   0.437  2.9747 -0.1532  1.5921
  174SOL    HW2  522   2.392   0.017   0.318  0.5552  1.3110 -0.6873
  175SOL     OW  523   1.468   0.977   0.883  0.2413 -0.0095 -0.4774
  175SOL    HW1  524   1.432   1.070   0.904  1.1474  0.0392  1.1026
  175SOL    HW2  525   1.449   0.941   0.794  0.4992  3.0794 -0.2826
  176SOL     OW  526   1.206   1.735   0.656 -0.1200 -0.4461  0.6258
  176SOL    HW1  527   1.145   1.789   0.714  0.3118  2.2685  0.5154
  176SOL    HW2  528   1.169   1.646   0.624  1.5113 -0.5683 -1.3065
  177SOL     OW  529   1.814   1.535   1.087 -0.2378 -0.3725 -0.0276
  177SOL    HW1  530   1.766   1.495   1.006 -0.9835 -0.0069  1.2043
  177SOL    HW2  531   1.896   1.593   1.062 -0.0031  0.7570  0.8974
  178SOL     OW  532   2.081   1.628   0.114  0.3213 -0.0727 -0.0028
  178SOL    HW1  533   2.113   1.686   0.033  1.4553 -0.5645 -0.6527
  178SOL    HW2  534   2.133   1.542   0.122 -1.9568 -2.4622  0.6133
  179SOL     OW  535   1.301   2.961   0.083 -0.1912  0.1818 -0.5434
  179SOL    HW1  536   1.295   2.887   0.149  0.0393  0.5609 -1.6644
  179SOL    HW2  537   1.247   2.936   0.002  1.3343 -0.0033  2.2131
  180SOL     OW  538   1.982   1.230   1.498 -0.3412  0.6003 -0.0525
  180SOL    HW1  539   2.005   1.283   1.586  0.3705  3.0655  0.8336
  180SOL    HW2  540   2.059   1.246   1.430  1.4171  0.7414 -0.1361
  181SOL     OW  541   0.963   0.792   1.817  0.1001 -0.2474  0.1283
  181SOL    HW1  542   1.056   0.793   1.856  1.0265  1.6536  2.8718
  181SOL    HW2  543   0.912   0.722   1.868  2.6388  0.4774 -2.4591
  182SOL     OW  544   0.146   0.940   2.508 -0.0729 -0.0646  0.3598
  182SOL    HW1  545   0.104   0.913   2.418  2.1074  2.1041 -2.6174
  182SOL    HW2  546   0.147   1.043   2.518 -0.7043 -0.0768  2.0229
  183SOL     OW  547   1.456   0.669   2.497 -0.2360 -0.0564  0.1336
  183SOL    HW1  548   1.518   0.701   2.574  2.0043 -2.6780  0.6100
  183SOL    HW2  549   1.393   0.593   2.526 -0.4744 -5.8732  0.3183
  184SOL     OW  550   0.780   0.558   1.168  0.2488 -0.4312 -0.5380
  184SOL    HW1  551   0.806   0.587   1.069 -2.3196  0.5437  0.0068
  184SOL    HW2  552   0.859   0.517   1.219 -0.2487  0.4072  1.3651
  185SOL     OW  553   2.344   1.426   0.752  0.0634 -0.0197  0.7135
  185SOL    HW1  554   2.403   1.511   0.761  1.3416  1.7286 -0.7208
  185SOL    HW2  555   2.296   1.426   0.664  3.4456  2.1732  0.0332
  186SOL     OW  556   0.212   1.876   0.308  0.3521  0.3291 -0.1221
  186SOL    HW1  557   0.280   1.798   0.312 -0.9565 -1.6101 -1.4251
  186SOL    HW2  558   0.150   1.866   0.229 -0.6311  0.0542  0.6178
  187SOL     OW  559   1.971   2.132   2.872  0.0635 -0.3908 -0.4581
  187SOL    HW1  560   1.984   2.044   2.913  1.6249 -0.4980 -1.3964
  187SOL    HW2  561   2.051   2.171   2.825 -1.8708 -0.7964  0.2499
  188SOL     OW  562   1.524   2.241   1.506  0.1126 -0.5100  0.2050
  188SOL    HW1  563   1.537   2.143   1.476 -1.0669  0.1527 -2.4888
  188SOL    HW2  564   1.502   2.246   1.606 -0.2582  1.5584 -3.8365
  189SOL     OW  565   2.318   1.365   2.488  0.5656  0.0013 -0.2363
  189SOL    HW1  566   2.278   1.303   2.560 -1.3660  3.2254 -0.7286
  189SOL    HW2  567   2.250   1.432   2.466  0.3234 -2.3721  0.3050
  190SOL     OW  568   0.762   2.571   2.036 -0.4838  0.0893 -0.1733
  190SOL    HW1  569   0.789   2.473   2.048  2.0003 -2.2531 -1.4949
  190SOL    HW2  570   0.723   2.611   2.116  1.6568  1.3355 -1.0948
  191SOL     OW  571   2.709   1.037   1.166  0.1680 -0.0213 -0.0252
  191SOL    HW1  572   2.663   0.973   1.233 -0.0537 -1.9063 -0.9513
  191SOL    HW2  573   2.663   1.125   1.169  0.3628 -2.7442  1.0589
  192SOL     OW  574   2.377   0.695   1.234  0.0046  0.0010  0.5953
  192SOL    HW1  575   2.406   0.608   1.279 -1.7632 -0.5805  1.7442
  192SOL    HW2  576   2.282   0.681   1.198 -2.0690 -2.9769 -0.0655
  193SOL     OW  577   0.954   0.303   0.081  0.0624 -0.0240  0.5765
  193SOL    HW1  578   0.976   0.204   0.080 -1.8669  0.7842  1.3098
  193SOL    HW2  579   0.930   0.335   3.097 -0.9627 -0.2709 -1.6083
  194SOL     OW  580   1.164   2.597   1.337  0.0949  0.0727  0.9749
  194SOL    HW1  581   1.190   2.673   1.399 -2.1884 -2.4877 -2.7001
  194SOL    HW2  582   1.199   2.616   1.240 -0.1395  1.0686 -1.4817
  195SOL     OW  583   2.833   1.101   0.426  0.1677 -0.4627 -0.2755
  195SOL    HW1  584   2.809   1.095   0.527 -1.0461 -2.1316  0.3074
  195SOL    HW2  585   2.774   1.035   0.372  0.5876 -2.8652 -0.9403
  196SOL     OW  586   0.510   2.092   1.480 -0.7039 -0.0117  0.2215
  196SOL    HW1  587   0.412   2.067   1.510 -1.2506  2.0061  0.7792
  196SOL    HW2  588   0.516   2.155   1.394  1.2253  2.2602 -0.8289
  197SOL     OW  589   3.075   0.670   2.112 -0.2708 -0.2302  0.3877
  197SOL    HW1  590   0.001   0.585   2.159 -1.7880  0.4892  0.0078
  197SOL    HW2  591   3.015   0.649   2.031 -1.0394  1.1489 -1.2474
  198SOL     OW  592   2.147   1.359   0.132 -0.2390 -0.5760 -0.1048
  198SOL    HW1  593   2.171   1.277   0.075  1.8590  0.2121  1.1644
  198SOL    HW2  594   2.043   1.367   0.137  1.9766 -0.0987 -0.2804
  199SOL     OW  595   2.515   0.546   1.878  0.0566  0.0199 -0.3461
  199SOL    HW1  596   2.419   0.550   1.839 -2.0154  0.1413  1.2117
  199SOL    HW2  597   2.587   0.539   1.809  1.2868 -1.7785 -1.3738
  200SOL     OW  598   2.135   3.072   3.033  0.2454 -0.2416 -0.4981
  200SOL    HW1  599   2.110   3.098   0.019  1.7620 -1.2957 -2.1078
  200SOL    HW2  600   2.187   0.040   2.999 -2.1254 -1.4777  3.3964
  201SOL     OW  601   2.483   0.252   1.016  0.3046 -0.2671  0.2021
  201SOL    HW1  602   2.573   0.272   0.982 -3.7160 -2.3506  5.2224
  201SOL    HW2  603   2.428   0.336   1.020  0.7977 -0.5891 -0.7971
  202SOL     OW  604   2.865   2.581   0.371 -0.0821  0.3447 -0.2304
  202SOL    HW1  605   2.970   2.578   0.359 -1.0543 -1.8598  1.1406
  202SOL    HW2  606   2.827   2.667   0.344 -1.0712 -3.3862 -1.3524
  203SOL     OW  607   1.687   1.916   0.527 -0.3921 -0.8732 -0.0068
  203SOL    HW1  608   1.632   1.952   0.605 -2.7832  0.1086 -0.6553
  203SOL    HW2  609   1.770   1.973   0.512 -0.6510 -0.0561  0.7689
  204SOL     OW  610   0.294   1.805   2.365 -1.1243  0.1775  0.2063
  204SOL    HW1  611   0.369   1.788   2.299 -0.3328  0.3556 -1.6066
  204SOL    HW2  612   0.239   1.723   2.383  0.7334  1.3228  1.7385
  205SOL     OW  613   0.794   0.361   0.732 -0.1115 -0.1417 -0.2327
  205SOL    HW1  614   0.757   0.411   0.655 -0.9027  3.0830 -1.4972
  205SOL    HW2  615   0.888   0.399   0.747  2.7072  2.4950  0.8195
  206SOL     OW  616   0.317   0.480   3.002  0.3064 -0.6806 -0.2910
  206SOL    HW1  617   0.242   0.426   3.038  0.7376  0.4431  0.9928
  206SOL    HW2  618   0.285   0.580   2.980 -0.0194  3.8598 -1.4567
  207SOL     OW  619   1.181   2.524   2.046 -0.7344  0.2785 -0.3241
  207SOL    HW1  620   1.138   2.472   1.973  3.6844 -0.4755 -0.3433
  207SOL    HW2  621   1.112   2.536   2.121  1.7527 -0.4216 -3.0486
  208SOL     OW  622   2.738   3.042   1.624 -0.1031  0.6581  0.5402
  208SOL    HW1  623   2.695   3.105   1.690  1.0200  0.3892 -1.7547
  208SOL    HW2  624   2.682   3.022   1.541  2.5813 -0.0094 -0.9194
  209SOL     OW  625   1.802   0.839   0.612  0.3875  0.2480  0.1817
  209SOL    HW1  626   1.781   0.794   0.702  1.2133 -0.9050 -3.2048
  209SOL    HW2  627   1.759   0.791   0.533  0.8639  0.0825 -2.8265
  210SOL     OW  628   2.688   0.916   0.291  0.4325 -0.4574 -0.1714
  210SOL    HW1  629   2.602   0.953   0.332  1.5116 -0.3597 -0.6907
  210SOL    HW2  630   2.686   0.941   0.192  0.4665 -1.0909  1.9304
  211SOL     OW  631   1.209   0.028   0.257 -0.2702 -0.1883 -0.1711
  211SOL    HW1  632   1.271   0.110   0.264  1.0511  1.3683 -0.4532
  211SOL    HW2  633   1.251   3.062   0.197 -0.6431  1.1724 -2.0336
  212SOL     OW  634   1.912   2.118   0.564  0.2288  0.8088 -0.3904
  212SOL    HW1  635   1.997   2.156   0.606 -2.6878  1.5546 -0.7013
  212SOL    HW2  636   1.915   2.129   0.463 -1.1121  2.7214 -2.9690
  213SOL     OW  637   2.460   0.194   0.007 -0.8029 -0.1944 -0.4695
  213SOL    HW1  638   2.535   0.169   3.052 -0.9689 -0.0638 -3.2481
  213SOL    HW2  639   2.446   0.299   0.008 -0.4337  1.4348  0.2174
  214SOL     OW  640   0.811   2.297   2.105  0.3142  0.5580  0.0555
  214SOL    HW1  641   0.874   2.209   2.111 -1.3501 -1.0378  2.4957
  214SOL    HW2  642   0.763   2.312   2.194 -2.4170 -0.5849 -0.5938
  215SOL     OW  643   0.415   1.317   0.892 -0.2621  0.1146  0.0071
  215SOL    HW1  644   0.338   1.381   0.913  0.7794 -0.6157  0.0326
  215SOL    HW2  645   0.505   1.362   0.898  0.0697 -0.8443 -0.7524
  216SOL     OW  646   0.210   2.561   2.841  0.2532 -0.5545  0.5079
  216SOL    HW1  647   0.310   2.578   2.852 -0.2786 -2.8859 -0.5921
  216SOL    HW2  648   0.158   2.645   2.814  0.7600 -4.4328  3.5470
  217SOL     OW  649   2.925   1.337   1.364  0.1357  1.1792  0.8446
  217SOL    HW1  650   2.978   1.391   1.300 -1.7294 -1.4907  0.7903
  217SOL    HW2  651   2.955   1.241   1.363  2.6964 -1.9381 -1.0027
  218SOL     OW  652   0.764   2.382   1.701  0.3970 -0.1908  0.0490
  218SOL    HW1  653   0.801   2.467   1.656  0.4599  1.0159 -1.0443
  218SOL    HW2  654   0.819   2.359   1.781  0.8399 -1.7149 -1.2391
  219SOL     OW  655   1.958   1.582   0.551  0.7551  0.1327  0.5307
  219SOL    HW1  656   1.915   1.590   0.457 -1.8373  1.4800 -0.2754
  219SOL    HW2  657   1.993   1.674   0.588  1.7104  1.4036  1.7790
  220SOL     OW  658   2.010   0.531   0.228 -0.2773 -0.2711  0.0489
  220SOL    HW1  659   2.086   0.464   0.245 -0.8557 -0.5955  2.0824
  220SOL    HW2  660   1.988   0.579   0.317  0.6728  1.8755 -0.2768
  221SOL     OW  661   3.040   0.858   0.154  0.2688  0.4575  0.1120
  221SOL    HW1  662   2.970   0.808   0.208  0.2795 -0.1729 -0.5469
  221SOL    HW2  663   3.029   0.830   0.060  3.1896  0.1890  1.1446
  222SOL     OW  664   1.654   1.485   0.862  0.0132 -0.1579  0.0475
  222SOL    HW1  665   1.577   1.426   0.839  1.3072 -1.3544 -0.4503
  222SOL    HW2  666   1.627   1.584   0.871  2.5241  3.5594  1.4309
  223SOL     OW  667   1.002   0.130   2.924  0.1536  0.0624  0.2237
  223SOL    HW1  668   0.961   0.076   2.853  0.9262 -1.0481 -0.2887
  223SOL    HW2  669   0.986   0.088   3.017  1.6405 -3.0139  1.8102
  224SOL     OW  670   0.739   2.950   1.293 -0.1718 -0.2442 -0.1908
  224SOL    HW1  671   0.757   3.040   1.249 -0.7059 -1.5887  1.0532
  224SOL    HW2  672   0.829   2.917   1.338  0.2107 -2.4052  0.0980
  225SOL     OW  673   0.594   2.749   1.852  0.1833  0.4702 -0.0349
  225SOL    HW1  674   0.649   2.679   1.907  0.3001 -2.7358  2.8508
  225SOL    HW2  675   0.640   2.842   1.852 -0.8728  3.0554  0.4855
  226SOL     OW  676   1.588   1.660   0.484 -0.0254 -0.3795 -0.0507
  226SOL    HW1  677   1.600   1.761   0.506  0.3690  1.6894 -0.4296
  226SOL    HW2  678   1.677   1.615   0.457 -0.4127  0.3263  0.5237
  227SOL     OW  679   0.517   1.796   1.162  0.2393  0.5883 -0.0093
  227SOL    HW1  680   0.514   1.864   1.240 -2.0067  0.8741  1.0840
  227SOL    HW2  681   0.607   1.754   1.148 -3.5239 -2.6863 -2.3049
  228SOL     OW  682   0.041   1.983   0.505  0.1097 -0.5577 -0.4450
  228SOL    HW1  683   0.111   1.935   0.447 -0.3632 -1.7772  0.8244
  228SOL    HW2  684   0.070   2.080   0.540  1.3208  2.7262  0.7255
  229SOL     OW  685   2.866   0.238   3.049 -0.3238 -0.1891 -0.0466
  229SOL    HW1  686   2.775   0.227   3.002 -0.5776 -0.9695  1.6777
  229SOL    HW2  687   2.934   0.165   3.020  2.0299 -2.4379 -2.3811
  230SOL     OW  688   2.452   1.027   0.359  0.0867  0.2121  0.1603
  230SOL    HW1  689   2.428   1.125   0.349  2.1680 -2.6359  1.4960
  230SOL    HW2  690   2.386   0.974   0.412 -0.7094  1.0833 -1.5583
  231SOL     OW  691   1.841   1.416   2.925 -0.5235 -0.2241 -0.1481
  231SOL    HW1  692   1.852   1.458   3.016 -3.0931 -0.2126 -1.6680
  231SOL    HW2  693   1.903   1.457   2.860  0.2239 -0.1399 -0.9470
  232SOL     OW  694   2.425   1.877   1.147  0.3579 -0.0278 -0.0640
  232SOL    HW1  695   2.461   1.791   1.187 -0.3702  2.3561  0.0180
  232SOL    HW2  696   2.331   1.898   1.180  0.7340 -1.5238  0.8494
  233SOL     OW  697   0.147   2.663   1.460 -0.2251  0.3003 -0.3728
  233SOL    HW1  698   0.131   2.632   1.560  2.0221 -2.0259 -2.0272
  233SOL    HW2  699   0.110   2.757   1.448 -1.0706  0.0915  1.6550
  234SOL     OW  700   0.789   0.265   2.511  0.6101 -0.1118  0.2001
  234SOL    HW1  701   0.870   0.203   2.490  0.1775  0.1743 -0.1203
  234SOL    HW2  702   0.741   0.231   2.599 -0.0193  0.5923 -1.1396
  235SOL     OW  703   2.939   1.104   2.239  0.3789  0.2368 -0.4210
  235SOL    HW1  704   3.020   1.115   2.181 -1.4439 -0.3403  0.0527
  235SOL    HW2  705   2.902   1.011   2.229  0.5331 -1.4327 -1.7633
  236SOL     OW  706   1.152   2.846   1.868  0.4515 -0.7998  0.3203
  236SOL    HW1  707   1.073   2.782   1.847  0.8919  0.1096 -0.4269
  236SOL    HW2  708   1.225   2.808   1.925 -3.6205  0.0440 -1.8624
  237SOL     OW  709   0.528   1.620   2.732  0.3246  0.5378  0.6688
  237SOL    HW1  710   0.562   1.613   2.634  1.7784  1.4619  0.6537
  237SOL    HW2  711   0.498   1.713   2.756 -0.5288 -3.2292  0.1502
  238SOL     OW  712   1.072   0.577   2.478  0.4059 -0.3537 -0.3192
  238SOL    HW1  713   1.082   0.614   2.382 -0.8521  1.0236 -0.3879
  238SOL    HW2  714   0.974   0.558   2.503  1.7466  0.8928 -1.2605
  239SOL     OW  715   0.368   2.137   2.039 -0.3013 -0.4225 -0.3838
  239SOL    HW1  716   0.417   2.101   1.957  0.5230 -0.4062 -0.2466
  239SOL    HW2  717   0.409   2.225   2.064  2.7830 -0.8882 -2.4125
  240SOL     OW  718   2.586   2.884   0.503 -0.0154 -0.7125  0.2437
  240SOL    HW1  719   2.649   2.908   0.581  0.6215  1.3289  0.0777
  240SOL    HW2  720   2.495   2.911   0.533  1.3528  0.0659 -0.5007
  241SOL     OW  721   0.225   0.892   0.075 -0.8243 -0.2409 -0.1274
  241SOL    HW1  722   0.137   0.858   0.109  1.1749 -2.3245  0.3466
  241SOL    HW2  723   0.225   0.980   0.022 -1.4851 -0.4466 -0.4747
  242SOL     OW  724   1.546   2.581   1.754  0.3544  0.9662 -0.4672
  242SOL    HW1  725   1.627   2.544   1.705 -1.8566 -1.3534 -2.4487
  242SOL    HW2  726   1.464   2.541   1.706 -0.8460 -1.3590 -1.9431
  243SOL     OW  727   0.516   2.307   1.792  0.3849  0.1056  0.5342
  243SOL    HW1  728   0.605   2.329   1.752  0.1061  0.4760  0.2270
  243SOL    HW2  729   0.441   2.332   1.732 -1.1191 -1.5921  1.4040
  244SOL     OW  730   2.306   0.627   2.571 -0.3646 -0.3774 -0.4337
  244SOL    HW1  731   2.211   0.623   2.605  0.3270 -0.1585 -1.5806
  244SOL    HW2  732   2.357   0.709   2.602 -0.8088  0.8204 -0.7643
  245SOL     OW  733   1.531   2.753   1.380  0.5120  0.4388  0.9099
  245SOL    HW1  734   1.590   2.818   1.427 -2.7964 -3.7125 -3.6317
  245SOL    HW2  735   1.529   2.792   1.287  1.8341 -0.1464  2.1503
  246SOL     OW  736   1.303   0.017   0.566 -0.3124 -1.2418  0.9231
  246SOL    HW1  737   1.249   0.061   0.638  0.4245 -0.9603 -0.5109
  246SOL    HW2  738   1.240   3.074   0.501  1.3055 -0.8476 -1.4999
  247SOL     OW  739   1.740   0.480   1.967 -0.3844 -0.2623  0.0906
  247SOL    HW1  740   1.704   0.393   1.936 -0.2627  3.8013  1.3388
  247SOL    HW2  741   1.788   0.526   1.890  2.9389  1.3660 -1.2933
  248SOL     OW  742   3.002   2.028   1.860  0.5129  0.1596  0.0862
  248SOL    HW1  743   3.099   2.010   1.865 -2.2543 -1.9405 -0.2580
  248SOL    HW2  744   2.954   1.942   1.890 -0.1544  3.0953 -2.9881
  249SOL     OW  745   0.044   0.148   0.455  0.4034  0.3305 -0.1332
  249SOL    HW1  746   3.078   0.082   0.458  1.3115  0.0869 -1.0009
  249SOL    HW2  747   0.035   0.215   0.533  0.7436  0.4545  0.1386
  250SOL     OW  748   2.693   0.015   2.306 -0.7182 -0.0167  0.3503
  250SOL    HW1  749   2.661   3.028   2.319  1.5947 -0.9533  1.1818
  250SOL    HW2  750   2.622   0.077   2.270  1.3864 -0.1785  1.5023
  251SOL     OW  751   1.401   0.632   0.079  0.0953 -0.3001  0.5088
  251SOL    HW1  752   1.387   0.537   0.043  1.4068 -1.1870  0.4802
  251SOL    HW2  753   1.486   0.672   0.047  0.4911 -1.7053 -0.0429
  252SOL     OW  754   1.010   2.620   2.237 -0.7976  0.0513 -0.2040
  252SOL    HW1  755   1.103   2.642   2.282  1.1352  1.8137  1.1973
  252SOL    HW2  756   0.951   2.698   2.218 -1.8082 -3.2229 -0.2199
  253SOL     OW  757   2.483   2.701   0.899 -0.3633  0.8782 -0.4388
  253SOL    HW1  758   2.440   2.786   0.875  1.5934 -1.2366  0.9539
  253SOL    HW2  759   2.520   2.663   0.811  0.2685  0.4355 -1.1503
  254SOL     OW  760   2.546   1.242   1.211 -0.6339 -0.0227 -0.0801
  254SOL    HW1  761   2.575   1.271   1.307 -0.3123  0.2321  0.3150
  254SOL    HW2  762   2.511   1.317   1.153  0.9439 -1.3242 -2.4922
  255SOL     OW  763   0.685   2.509   1.172 -0.4756  0.2992  0.2674
  255SOL    HW1  764   0.648   2.601   1.181 -1.5238 -0.6967  0.2464
  255SOL    HW2  765   0.678   2.486   1.074 -1.8723 -0.1696  3.0085
  256SOL     OW  766   2.018   1.731   1.708  0.6179  0.1382 -0.0492
  256SOL    HW1  767   1.969   1.660   1.652 -2.9344 -1.3557 -1.0351
  256SOL    HW2  768   2.068   1.682   1.783  1.8025 -1.1171 -1.8994
  257SOL     OW  769   0.222   2.479   2.573 -0.1363 -0.3017 -0.8392
  257SOL    HW1  770   0.306   2.426   2.561 -1.1243  2.6577 -3.4947
  257SOL    HW2  771   0.206   2.515   2.667  0.5474  1.4386  1.0522
  258SOL     OW  772   0.740   2.771   0.918  0.5228  0.7152  0.0819
  258SOL    HW1  773   0.804   2.847   0.940  0.6786  1.0457 -0.2168
  258SOL    HW2  774   0.683   2.757   0.999  0.0019 -1.3311 -1.3854
  259SOL     OW  775   1.457   0.277   2.794  0.6156  0.6824 -0.3359
  259SOL    HW1  776   1.460   0.183   2.830  0.8762  1.4722  1.4560
  259SOL    HW2  777   1.365   0.308   2.810  2.6778 -0.5246 -0.0104
  260SOL     OW  778   0.278   0.567   1.196  0.3773 -0.0803 -0.0902
  260SOL    HW1  779   0.260   0.469   1.163 -0.5604  0.2400  0.2963
  260SOL    HW2  780   0.334   0.617   1.123 -0.4784 -1.8288 -0.5935
  261SOL     OW  781   0.560   0.109   2.298  0.6701  0.4183 -0.0681
  261SOL    HW1  782   0.484   0.149   2.238 -3.1955 -0.7516  1.0501
  261SOL    HW2  783   0.591   0.176   2.368 -0.7913 -1.2672  0.7201
  262SOL     OW  784   0.942   2.674   1.845  0.1533 -0.1593  0.2457
  262SOL    HW1  785   0.918   2.620   1.761 -1.9004  1.2154 -0.6802
  262SOL    HW2  786   0.880   2.639   1.920  0.0895 -4.3163  2.7147
  263SOL     OW  787   0.706   2.228   0.000  0.2568  0.0710  0.1318
  263SOL    HW1  788   0.806   2.218   0.041  0.6870 -1.0836  0.8234
  263SOL    HW2  789   0.653   2.165   0.059  1.4919  3.9337  1.2003
  264SOL     OW  790   1.692   1.776   1.193 -0.2121 -0.2858 -0.3019
  264SOL    HW1  791   1.733   1.868   1.190 -2.5645 -0.1874  0.1574
  264SOL    HW2  792   1.761   1.699   1.174 -1.5899 -0.0531 -0.6828
  265SOL     OW  793   0.873   2.439   0.514  0.0858  0.2072 -0.6149
  265SOL    HW1  794   0.862   2.380   0.599 -2.3436  0.2184  1.5688
  265SOL    HW2  795   0.867   2.541   0.540 -1.5804 -0.6769  1.7030
  266SOL     OW  796   2.756   1.041   0.703 -0.0491  0.7708  0.3945
  266SOL    HW1  797   2.673   0.980   0.710  0.3729 -0.3692  0.9222
  266SOL    HW2  798   2.841   0.989   0.706  0.0523 -1.1620 -0.9542
  267SOL     OW  799   0.317   1.386   0.010  0.1333  0.2155 -0.4948
  267SOL    HW1  800   0.352   1.479   3.100 -0.6809 -2.5074  1.8060
  267SOL    HW2  801   0.220   1.386   0.046 -2.5934  0.1977  3.2936
  268SOL     OW  802   1.696   0.359   0.358 -0.9056 -0.6072 -0.3860
  268SOL    HW1  803   1.693   0.267   0.401 -1.1035 -0.5329 -1.2949
  268SOL    HW2  804   1.713   0.429   0.430 -0.9724 -1.8247  0.4849
  269SOL     OW  805   0.082   0.862   2.244 -0.6904 -0.5608  0.2112
  269SOL    HW1  806   0.079   0.945   2.185  1.3244  0.7130 -1.7761
  269SOL    HW2  807   0.045   0.781   2.193 -0.1442  0.3786  0.1034
  270SOL     OW  808   0.125   1.152   0.393 -0.0725 -0.3775 -0.4436
  270SOL    HW1  809   0.085   1.145   0.480  1.1217  0.3337 -2.3354
  270SOL    HW2  810   0.058   1.136   0.319  2.0273 -0.6429 -0.2810
  271SOL     OW  811   2.976   1.558   2.205  0.4829 -0.1084  0.0696
  271SOL    HW1  812   2.952   1.657   2.211  1.2602 -1.5454  0.4685
  271SOL    HW2  813   3.070   1.550   2.163  0.4974  0.5880  0.9778
  272SOL     OW  814   2.368   2.529   1.736  0.1458  0.0786  0.2083
  272SOL    HW1  815   2.454   2.474   1.723 -1.0303  1.3549  0.2970
  272SOL    HW2  816   2.367   2.568   1.830  1.2615  0.9804 -0.8138
  273SOL     OW  817   0.021   2.559   0.307  0.2596 -0.0453 -0.1714
  273SOL    HW1  818   0.109   2.596   0.333 -2.1072  1.2823  0.4809
  273SOL    HW2  819   0.023   2.466   0.267 -1.7193  2.1425  0.1042
  274SOL     OW  820   0.825   2.276   0.757  0.0941 -0.0746 -0.3233
  274SOL    HW1  821   0.789   2.184   0.737 -1.2692  2.8249 -2.7970
  274SOL    HW2  822   0.912   2.267   0.809  0.9559 -0.4136  3.0195
  275SOL     OW  823   1.702   2.067   2.844  0.0584 -0.2035 -0.1016
  275SOL    HW1  824   1.797   2.074   2.870 -2.2556 -0.3960 -1.5210
  275SOL    HW2  825   1.691   2.015   2.750 -0.4603 -2.1338 -3.6110
  276SOL     OW  826   2.177   1.541   1.847  0.2921  0.5995  0.2166
  276SOL    HW1  827   2.270   1.500   1.836 -1.3493  1.1533 -1.8474
  276SOL    HW2  828   2.152   1.559   1.944  0.1453 -1.0783 -0.1626
  277SOL     OW  829   2.248   0.281   0.730  0.1570  0.2107 -0.2864
  277SOL    HW1  830   2.241   0.360   0.661  0.5323  1.2127  0.2570
  277SOL    HW2  831   2.222   0.314   0.825  0.9799 -1.6218 -1.2066
  278SOL     OW  832   1.667   0.483   2.741 -0.0702  0.6280 -0.1440
  278SOL    HW1  833   1.600   0.411   2.774 -0.1290  0.7172  1.8194
  278SOL    HW2  834   1.632   0.576   2.760 -0.0606  0.0794 -0.9570
  279SOL     OW  835   1.121   2.891   1.190 -0.7501 -0.0489 -0.5010
  279SOL    HW1  836   1.136   2.798   1.152  0.9977  1.1627  0.4785
  279SOL    HW2  837   1.072   2.885   1.277  2.3440  0.2946 -0.6294
  280SOL     OW  838   1.516   1.259   0.336 -0.5719 -0.9471 -0.4525
  280SOL    HW1  839   1.498   1.162   0.327  1.7568 -0.8347 -1.3232
  280SOL    HW2  840   1.514   1.300   0.241  0.2957  1.4971  1.7228
  281SOL     OW  841   2.391   1.607   0.347 -0.1091 -0.4173 -0.2881
  281SOL    HW1  842   2.365   1.695   0.306 -0.7175  0.0234  0.1041
  281SOL    HW2  843   2.477   1.618   0.408  2.4804 -0.4591 -0.0934
  282SOL     OW  844   2.768   1.326   0.291 -0.4824  0.9775  0.5614
  282SOL    HW1  845   2.791   1.249   0.352  1.7103 -0.3295 -0.0935
  282SOL    HW2  846   2.845   1.399   0.307  0.2902  0.6183 -0.6200
  283SOL     OW  847   1.719   2.892   2.814 -0.5511  0.1432 -0.1009
  283SOL    HW1  848   1.792   2.943   2.772  0.0621 -0.8043 -0.3944
  283SOL    HW2  849   1.738   2.886   2.920  0.5862 -0.9619  5.2136
  284SOL     OW  850   0.697   3.060   2.981  0.5590  0.4459  0.4608
  284SOL    HW1  851   0.666   0.048   2.999 -2.1352 -0.3822  0.1887
  284SOL    HW2  852   0.691   3.007   3.071 -1.5787  0.7844  1.8377
  285SOL     OW  853   2.036   1.573   2.753  0.2101  0.5395 -0.7131
  285SOL    HW1  854   2.119   1.547   2.802 -2.9908 -0.3965 -2.6436
  285SOL    HW2  855   2.036   1.672   2.733 -2.1288 -0.3042 -1.3748
  286SOL     OW  856   1.801   2.017   1.568  0.0387 -0.3240 -0.0641
  286SOL    HW1  857   1.740   1.943   1.589  2.7265 -0.0686 -0.2240
  286SOL    HW2  858   1.788   2.100   1.627 -2.4644  0.0931  1.0246
  287SOL     OW  859   1.679   0.190   1.472 -0.3274  0.5467 -0.1502
  287SOL    HW1  860   1.730   0.103   1.493 -2.0018 -1.2491 -0.8182
  287SOL    HW2  861   1.588   0.195   1.517 -1.9082 -2.7112 -4.2539
  288SOL     OW  862   0.592   2.682   2.231 -0.1212 -0.2600 -0.8823
  288SOL    HW1  863   0.581   2.716   2.330 -0.4191 -0.5689  0.7816
  288SOL    HW2  864   0.510   2.697   2.177 -0.8096 -0.1572  2.1416
  289SOL     OW  865   0.397   1.830   0.913 -0.3795 -0.7389 -0.0956
  289SOL    HW1  866   0.424   1.834   1.009 -2.1567  1.0585 -3.1535
  289SOL    HW2  867   0.341   1.915   0.887 -0.9967  0.2897 -1.9595
  290SOL     OW  868   0.971   1.845   1.914 -0.4502  0.1755 -0.1158
  290SOL    HW1  869   0.954   1.821   2.012 -1.4190 -1.5796 -0.8767
  290SOL    HW2  870   1.033   1.924   1.907  1.4885 -1.4970  2.1594
  291SOL     OW  871   1.698   0.154   0.583 -0.6084 -0.0696  0.2077
  291SOL    HW1  872   1.642   0.176   0.668 -2.0241  0.1412  1.7144
  291SOL    HW2  873   1.647   0.095   0.516  0.9127  1.5475 -1.5243
  292SOL     OW  874   0.600   0.312   1.411  0.4591 -0.0093  0.0776
  292SOL    HW1  875   0.601   0.390   1.483  2.6337  0.1650  0.5034
  292SOL    HW2  876   0.577   0.354   1.319 -2.1482 -0.1028  2.8496
  293SOL     OW  877   2.391   1.901   0.882  0.1082  0.1340  0.1672
  293SOL    HW1  878   2.474   1.925   0.825 -1.6911  2.0473 -0.0990
  293SOL    HW2  879   2.419   1.904   0.981  1.7087  0.8884  0.4229
  294SOL     OW  880   0.217   0.184   2.360  0.1429 -0.3010  0.1080
  294SOL    HW1  881   0.188   0.086   2.338 -1.5958 -0.5484  1.9748
  294SOL    HW2  882   0.301   0.213   2.303  2.1295  1.5772 -1.6139
  295SOL     OW  883   1.131   1.503   0.537 -0.3802 -0.2183 -0.0401
  295SOL    HW1  884   1.231   1.480   0.546  1.8407  1.2343  0.2239
  295SOL    HW2  885   1.098   1.478   0.445 -0.5990  0.0390  0.8668
  296SOL     OW  886   2.011   1.719   1.065  0.5780 -0.3664  0.5410
  296SOL    HW1  887   2.080   1.686   0.996 -0.6800 -0.6858 -1.4427
  296SOL    HW2  888   1.953   1.791   1.025  2.4323 -4.0568  0.7870
  297SOL     OW  889   1.907   0.502   2.865 -0.3902  0.4357 -0.1637
  297SOL    HW1  890   1.883   0.589   2.914  1.5811 -0.6626 -0.1024
  297SOL    HW2  891   1.829   0.471   2.804 -2.4629 -1.0201  0.3945
  298SOL     OW  892   1.267   0.031   2.591  0.4749 -0.8977 -0.4873
  298SOL    HW1  893   1.287   0.029   2.693 -0.5745 -1.6238  1.6617
  298SOL    HW2  894   1.353   0.044   2.539 -1.8915 -0.8688  0.3546
  299SOL     OW  895   0.875   0.332   2.031 -0.1092  0.1385 -0.0211
  299SOL    HW1  896   0.958   0.283   2.074  0.9894 -1.6956  0.4613
  299SOL    HW2  897   0.853   0.304   1.938 -0.5526  1.5739  3.8049
  300SOL     OW  898   2.887   0.343   1.582  0.1413  0.2379 -0.6761
  300SOL    HW1  899   2.974   0.383   1.543  0.5477  2.7220  1.6259
  300SOL    HW2  900   2.912   0.286   1.663  0.4199 -0.2650  1.8716
  301SOL     OW  901   1.984   0.838   1.803 -0.5450 -0.3408  0.0417
  301SOL    HW1  902   1.988   0.886   1.712 -1.0369  1.0043  0.0384
  301SOL    HW2  903   1.957   0.745   1.790 -1.6685  0.6836  1.2245
  302SOL     OW  904   0.714   2.897   0.098  0.2092  0.7424 -0.1632
  302SOL    HW1  905   0.693   2.992   0.134 -0.9621  0.1886 -1.8776
  302SOL    HW2  906   0.713   2.831   0.173 -0.9985  0.4543 -2.6060
  303SOL     OW  907   1.852   1.925   1.842  0.2541 -0.0908  0.6105
  303SOL    HW1  908   1.852   2.028   1.820 -1.3247  0.1287 -0.3988
  303SOL    HW2  909   1.924   1.877   1.786  0.2649  3.4209 -1.0540
  304SOL     OW  910   0.267   3.025   0.825 -0.0180  0.3170  0.7066
  304SOL    HW1  911   0.267   3.054   0.730  1.1888 -0.9633  1.3531
  304SOL    HW2  912   0.360   3.051   0.860 -0.8299 -0.1471 -1.1189
  305SOL     OW  913   1.237   0.928   0.397 -0.0369 -0.0308  0.4325
  305SOL    HW1  914   1.321   0.970   0.354  1.1849 -0.2672 -2.2478
  305SOL    HW2  915   1.205   0.837   0.359 -0.8214 -1.5690  2.5257
  306SOL     OW  916   0.682   1.659   0.172 -0.0077  0.6148  0.2894
  306SOL    HW1  917   0.687   1.569   0.222  1.6458  0.2565  2.4043
  306SOL    HW2  918   0.692   1.737   0.240  1.0892  1.3133 -0.1318
  307SOL     OW  919   0.825   0.611   1.966  0.2405 -0.1918  0.6656
  307SOL    HW1  920   0.806   0.661   2.052  0.1020  2.3912  1.2872
  307SOL    HW2  921   0.886   0.535   1.981 -3.2301  1.7111 -1.5568
  308SOL     OW  922   0.530   0.112   1.149  0.1184 -0.3836  0.4440
  308SOL    HW1  923   0.512   0.212   1.158 -1.7267  2.4855 -2.9994
  308SOL    HW2  924   0.624   0.093   1.177 -0.0296 -1.5423  0.5150
  309SOL     OW  925   2.303   1.268   0.348  0.7127 -0.2386  0.3333
  309SOL    HW1  926   2.257   1.336   0.408  0.7900  2.8063 -0.2144
  309SOL    HW2  927   2.269   1.287   0.253 -0.9149  0.9567  0.5288
  310SOL     OW  928   1.268   1.444   3.075  0.1821  0.0181 -0.1102
  310SOL    HW1  929   1.293   1.480   2.984  2.5712 -0.1555  1.4617
  310SOL    HW2  930   1.304   1.496   0.047 -0.5912 -2.2402  0.9384
  311SOL     OW  931   1.855   2.560   2.099  0.2254 -0.1092  0.1807
  311SOL    HW1  932   1.853   2.461   2.092  2.1227  1.5127  0.0351
  311SOL    HW2  933   1.765   2.599   2.130 -1.7956  2.4998  0.0058
  312SOL     OW  934   2.433   2.899   0.125  0.5714  0.2404 -0.1277
  312SOL    HW1  935   2.415   2.999   0.111 -1.8133 -0.4606  0.3020
  312SOL    HW2  936   2.406   2.867   0.213  1.1960  0.0767 -3.4438
  313SOL     OW  937   0.515   0.513   0.131 -0.1375  0.3435 -0.8881
  313SOL    HW1  938   0.460   0.482   0.049 -0.3299 -2.1958 -0.7945
  313SOL    HW2  939   0.605   0.465   0.139 -3.1244 -0.7070  0.5651
  314SOL     OW  940   2.697   1.333   2.837 -0.2668  0.6662  0.4928
  314SOL    HW1  941   2.636   1.402   2.798  5.6036 -2.8333 -0.2395
  314SOL    HW2  942   2.738   1.364   2.923 -1.6282  1.1890 -0.9750
  315SOL     OW  943   1.663   0.705   2.091 -0.0598  0.1570  0.1814
  315SOL    HW1  944   1.692   0.619   2.037  0.7852 -0.1686 -1.6255
  315SOL    HW2  945   1.732   0.726   2.166  2.2699  1.9854  1.5089
  316SOL     OW  946   0.065   1.144   0.676  0.0742 -0.6048  0.4215
  316SOL    HW1  947   3.097   1.088   0.713 -0.5416 -0.3029  2.8589
  316SOL    HW2  948   0.148   1.124   0.730 -2.6514 -1.6096  0.4297
  317SOL     OW  949   0.593   0.018   0.218 -0.5193 -0.2140  0.2884
  317SOL    HW1  950   0.533   0.083   0.167 -2.1228 -0.0410 -0.9973
  317SOL    HW2  951   0.641   0.074   0.287  1.6317  1.1327 -3.6986
  318SOL     OW  952   1.777   2.591   1.023  0.1632 -0.0213 -0.1551
  318SOL    HW1  953   1.801   2.567   1.118  2.3315  0.7408 -1.8660
  318SOL    HW2  954   1.802   2.514   0.961  1.6949 -1.2806 -2.2410
  319SOL     OW  955   1.398   1.450   0.496 -0.1968  0.3720 -0.2376
  319SOL    HW1  956   1.441   1.378   0.440 -0.3199 -1.0901  0.2903
  319SOL    HW2  957   1.460   1.526   0.510  0.5419 -6.3311 -0.4208
  320SOL     OW  958   0.743   2.059   1.128  0.4576 -0.0005  0.0019
  320SOL    HW1  959   0.643   2.090   1.116 -1.8895 -0.6884  3.7724
  320SOL    HW2  960   0.790   2.137   1.177 -1.8250 -0.0857 -2.2284
  321SOL     OW  961   2.286   2.569   2.004  0.0573 -0.5682 -0.0438
  321SOL    HW1  962   2.258   2.473   2.020  0.0677 -0.2102 -0.0202
  321SOL    HW2  963   2.223   2.632   2.051  0.4690 -0.1629 -2.1362
  322SOL     OW  964   2.613   2.281   2.537 -0.3658 -0.0017 -0.4550
  322SOL    HW1  965   2.685   2.301   2.471 -1.0608  0.5094 -1.3466
  322SOL    HW2  966   2.612   2.348   2.615  1.1521 -1.4078 -2.5759
  323SOL     OW  967   2.567   0.855   0.696  0.5359  0.1188  0.5790
  323SOL    HW1  968   2.467   0.878   0.683 -1.7126 -1.0756 -0.6250
  323SOL    HW2  969   2.589   0.777   0.633 -3.4508  0.1563  1.6300
  324SOL     OW  970   2.240   2.320   2.219  0.5637 -0.1191  0.0048
  324SOL    HW1  971   2.184   2.383   2.282 -0.9360  1.6917  1.5819
  324SOL    HW2  972   2.307   2.261   2.269 -1.5309 -0.5847  1.1305
  325SOL     OW  973   1.294   0.480   2.601 -0.1565  0.3774  0.8140
  325SOL    HW1  974   1.212   0.515   2.551 -2.2588 -0.2516 -2.1583
  325SOL    HW2  975   1.272   0.472   2.699  0.1581 -1.3879  1.0399
  326SOL     OW  976   2.556   2.411   0.910  0.5103 -0.1131 -0.1880
  326SOL    HW1  977   2.594   2.503   0.904  1.3110 -2.7123 -2.5718
  326SOL    HW2  978   2.520   2.385   1.005 -0.3522  0.1889  0.4735
  327SOL     OW  979   2.814   3.058   0.116 -0.3444  0.0835  0.1620
  327SOL    HW1  980   2.726   3.088   0.153 -1.6403 -0.1571 -0.1221
  327SOL    HW2  981   2.802   3.027   0.018 -1.5939  0.7695  1.9265
  328SOL     OW  982   1.019   0.683   0.547 -0.4608  0.5023 -0.3350
  328SOL    HW1  983   1.053   0.659   0.637  0.0175  0.1368 -1.5416
  328SOL    HW2  984   1.051   0.775   0.525 -1.0366 -1.7208  0.6008
  329SOL     OW  985   2.125   0.891   1.360  0.5261 -0.3705 -0.9678
  329SOL    HW1  986   2.092   0.914   1.266  1.8875  0.7826 -2.0609
  329SOL    HW2  987   2.199   0.952   1.385 -3.1062  0.0176 -0.3350
  330SOL     OW  988   0.895   0.620   0.307  0.2136 -0.3179 -0.1421
  330SOL    HW1  989   0.920   0.707   0.265  1.2147  1.0105  1.6145
  330SOL    HW2  990   0.913   0.630   0.407  1.4763 -1.1612 -0.6338
  331SOL     OW  991   0.683   1.836   1.780  0.6862  0.1669 -0.0145
  331SOL    HW1  992   0.677   1.754   1.836 -0.0227  1.5180  2.9710
  331SOL    HW2  993   0.768   1.838   1.724 -2.1748  0.0446 -0.5085
  332SOL     OW  994   1.890   2.275   2.059 -0.3639 -0.2207 -0.1985
  332SOL    HW1  995   1.981   2.269   2.022 -0.4144 -1.7648 -0.6655
  332SOL    HW2  996   1.819   2.241   1.999  2.0859  0.2305  1.2910
  333SOL     OW  997   3.002   3.050   1.080  0.2383 -0.2653  0.4274
  333SOL    HW1  998   2.936   0.021   1.093 -0.2645 -0.6854  1.0525
  333SOL    HW2  999   2.956   2.976   1.033  1.6121  1.4203 -0.9927
  334SOL     OW 1000   0.058   1.800   0.759 -0.1961  0.3817  0.0244
  334SOL    HW1 1001   0.101   1.708   0.748  0.7244  0.2694  1.6855
  334SOL    HW2 1002   0.066   1.859   0.677  1.2017 -0.4346  1.6717
  335SOL     OW 1003   0.466   2.588   2.853 -0.2533 -0.6227 -0.4107
  335SOL    HW1 1004   0.537   2.541   2.910  0.9297 -0.2378  0.5338
  335SOL    HW2 1005   0.498   2.680   2.834 -2.4449 -0.3576  2.0015
  336SOL     OW 1006   0.188   2.718   1.880 -0.3912  0.4044  0.4338
  336SOL    HW1 1007   0.111   2.663   1.841 -2.0589 -1.7022 -2.6899
  336SOL    HW2 1008   0.152   2.807   1.898  1.3793 -1.1024  0.0978
  337SOL     OW 1009   1.233   2.053   2.148 -0.0734  0.2626  0.0205
  337SOL    HW1 1010   1.277   2.136   2.183 -2.5603 -0.1654 -0.8091
  337SOL    HW2 1011   1.297   1.973   2.140 -1.4237 -0.0352  0.6695
  338SOL     OW 1012   1.024   0.093   2.498  0.2806  0.0769  0.0598
  338SOL    HW1 1013   0.986   0.000   2.470  0.3028 -3.4986 -0.8793
  338SOL    HW2 1014   1.119   0.074   2.533 -0.6692  0.9933  4.3101
  339SOL     OW 1015   0.335   1.126   2.703  0.3584  0.2064 -0.4424
  339SOL    HW1 1016   0.297   1.037   2.744  0.0605 -1.1501  1.9287
  339SOL    HW2 1017   0.271   1.168   2.634 -3.3631  1.4743  1.6039
  340SOL     OW 1018   2.038   0.625   1.349  0.2029  0.0876 -0.3740
  340SOL    HW1 1019   2.067   0.723   1.364 -0.8754  0.9630  3.2014
  340SOL    HW2 1020   2.095   0.578   1.276  0.6627  0.4050  1.6352
  341SOL     OW 1021   2.138   1.098   0.994  0.1201 -0.0402  0.2293
  341SOL    HW1 1022   2.218   1.094   1.061 -0.5995  0.4651  1.4858
  341SOL    HW2 1023   2.167   1.112   0.894 -1.8499 -2.3854 -0.4753
  342SOL     OW 1024   2.186   2.749   2.719 -0.0624  0.8266  0.2765
  342SOL    HW1 1025   2.160   2.773   2.818  1.2440 -1.8933  1.3795
  342SOL    HW2 1026   2.107   2.747   2.659 -0.1419 -0.1104  0.9140
  343SOL     OW 1027   2.981   2.613   1.054 -0.1203  0.1737  0.4068
  343SOL    HW1 1028   3.039   2.537   1.013  0.1857 -3.5678 -0.5951
  343SOL    HW2 1029   2.960   2.595   1.153  2.1899 -0.3273  0.0791
  344SOL     OW 1030   2.349   2.929   0.827  0.0333 -0.4676  0.1651
  344SOL    HW1 1031   2.396   3.020   0.807  0.7559  1.0942 -0.3158
  344SOL    HW2 1032   2.258   2.915   0.776  0.5629 -1.7038  0.0250
  345SOL     OW 1033   2.478   2.386   0.254  0.8441  0.0795  0.1114
  345SOL    HW1 1034   2.549   2.400   0.187 -1.9598  1.0530  0.2288
  345SOL    HW2 1035   2.462   2.467   0.316 -1.9691  1.3764  2.1722
  346SOL     OW 1036   1.399   2.009   1.740 -0.1733 -0.3552 -0.1471
  346SOL    HW1 1037   1.474   1.970   1.795 -0.2113  1.1425 -1.5326
  346SOL    HW2 1038   1.389   1.955   1.655  1.1715 -1.5247 -0.1973
  347SOL     OW 1039   1.124   2.060   1.882 -0.4532  0.3608 -0.2461
  347SOL    HW1 1040   1.153   2.057   1.980  0.0882  0.8875  1.0890
  347SOL    HW2 1041   1.207   2.045   1.819 -0.9141  0.1822  2.7638
  348SOL     OW 1042   0.911   1.694   1.500  0.0332 -0.0429 -0.1514
  348SOL    HW1 1043   0.817   1.683   1.458 -1.8814 -0.3627 -0.5027
  348SOL    HW2 1044   0.920   1.788   1.542  0.1416  3.6364 -1.4541
  349SOL     OW 1045   1.678   1.380   1.540 -1.0856 -0.4067  0.2270
  349SOL    HW1 1046   1.716   1.337   1.623 -1.0959 -0.0172 -2.9425
  349SOL    HW2 1047   1.597   1.330   1.512  3.4759 -0.1135 -0.1966
  350SOL     OW 1048   2.263   2.422   0.549  0.0249 -0.5007 -0.1650
  350SOL    HW1 1049   2.330   2.487   0.505 -0.4783 -4.2153 -0.6486
  350SOL    HW2 1050   2.202   2.371   0.487  1.1771  1.2915  0.5560
  351SOL     OW 1051   0.396   3.069   1.833 -0.3806  0.2267 -0.1562
  351SOL    HW1 1052   0.347   3.032   1.747  2.4791 -4.1803  0.5576
  351SOL    HW2 1053   0.329   3.103   1.906 -1.8617  0.5064  1.5127
  352SOL     OW 1054   0.656   1.169   0.423 -0.1521 -0.7589 -0.1483
  352SOL    HW1 1055   0.646   1.191   0.525  0.9553 -0.1549  1.4267
  352SOL    HW2 1056   0.565   1.131   0.396  0.8796  1.4727 -0.6754
  353SOL     OW 1057   1.165   1.793   2.787  0.2347 -0.0429 -0.1562
  353SOL    HW1 1058   1.187   1.777   2.886  0.3846 -0.0011  2.6452
  353SOL    HW2 1059   1.061   1.794   2.772 -2.2391  2.7019 -0.0556
  354SOL     OW 1060   1.675   2.762   1.900  0.1246 -0.0156  0.1767
  354SOL    HW1 1061   1.685   2.742   2.002  0.5877  1.6598  0.7637
  354SOL    HW2 1062   1.625   2.690   1.848 -0.0448  1.0867 -0.0820
  355SOL     OW 1063   2.187   1.121   3.085  0.2418  0.1979 -0.7585
  355SOL    HW1 1064   2.272   1.168   3.055  1.4250  1.5404  0.0244
  355SOL    HW2 1065   2.116   1.133   3.010 -0.6632  2.9850 -0.1879
  356SOL     OW 1066   0.257   2.207   1.241  0.2031 -0.6559  0.1242
  356SOL    HW1 1067   0.213   2.120   1.222  0.0206  1.4481 -2.1395
  356SOL    HW2 1068   0.198   2.267   1.299 -0.1454  4.1936 -2.0683
  357SOL     OW 1069   2.862   2.884   1.835 -0.5432 -0.1215  0.1113
  357SOL    HW1 1070   2.872   2.785   1.817  0.3260 -0.8057 -2.2688
  357SOL    HW2 1071   2.819   2.922   1.751  0.1780  0.1554  1.4602
  358SOL     OW 1072   2.383   1.832   1.459 -0.1270  0.0509  0.0482
  358SOL    HW1 1073   2.304   1.820   1.395  0.1347  1.2760 -0.6663
  358SOL    HW2 1074   2.458   1.765   1.439  0.4545  0.1758 -0.0551
  359SOL     OW 1075   1.838   2.488   2.436  0.1466  0.1468 -0.0362
  359SOL    HW1 1076   1.743   2.529   2.441 -1.5664 -1.3434 -0.7651
  359SOL    HW2 1077   1.831   2.390   2.409  0.9157 -0.9550 -0.6900
  360SOL     OW 1078   1.137   2.991   0.928 -0.2693 -0.1936  0.0025
  360SOL    HW1 1079   1.038   3.010   0.901 -2.9070 -0.9737 -0.9776
  360SOL    HW2 1080   1.143   2.959   1.023 -0.7372  2.1164  0.2231
  361SOL     OW 1081   1.940   0.337   0.591 -0.1194  0.1061  0.1276
  361SOL    HW1 1082   1.865   0.280   0.552  1.0244 -1.2057 -2.7240
  361SOL    HW2 1083   1.937   0.337   0.694  2.1749 -3.1800 -0.4351
  362SOL     OW 1084   1.538   0.865   1.305  0.7881  1.2013  0.0872
  362SOL    HW1 1085   1.636   0.887   1.309 -0.1964  0.1293  2.1814
  362SOL    HW2 1086   1.477   0.914   1.372  1.0047 -0.6229  1.1502
  363SOL     OW 1087   1.871   1.546   1.968  0.2006  0.0092 -0.3189
  363SOL    HW1 1088   1.822   1.467   2.016 -2.2095 -1.0887 -2.4339
  363SOL    HW2 1089   1.958   1.565   2.010  1.2636 -0.3016 -1.3551
  364SOL     OW 1090   0.625   0.748   1.264  0.0218 -0.3984 -0.5175
  364SOL    HW1 1091   0.679   0.669   1.224  0.1773  1.6688  0.3193
  364SOL    HW2 1092   0.553   0.779   1.199 -0.7371  2.3947 -1.0443
  365SOL     OW 1093   0.347   0.170   2.617  0.1070 -0.4778  0.3408
  365SOL    HW1 1094   0.350   0.273   2.641  2.1741  1.9304  1.1520
  365SOL    HW2 1095   0.293   0.153   2.527 -2.1098  0.5176 -2.2066
  366SOL     OW 1096   2.263   1.502   2.875 -0.3680  0.3106  0.1876
  366SOL    HW1 1097   2.352   1.520   2.831  2.2755 -0.2523  1.1723
  366SOL    HW2 1098   2.271   1.533   2.972  2.3574  2.5052  1.6759
  367SOL     OW 1099   2.767   2.565   2.822  0.3341 -0.4002 -0.7166
  367SOL    HW1 1100   2.759   2.619   2.905  1.2399  0.7427 -2.1361
  367SOL    HW2 1101   2.676   2.528   2.788  0.0605 -2.2920  2.2881
  368SOL     OW 1102   0.172   1.455   0.984 -0.3242  0.8430 -0.9630
  368SOL    HW1 1103   0.091   1.394   0.983  1.3783 -3.4076 -2.7115
  368SOL    HW2 1104   0.174   1.519   0.905  1.1593  1.4452 -3.3966
  369SOL     OW 1105   0.474   2.955   2.369 -0.7330  0.6203  0.2497
  369SOL    HW1 1106   0.549   2.957   2.446  3.2595 -0.0245  4.0531
  369SOL    HW2 1107   0.471   3.043   2.318 -1.7471  2.4433 -2.3762
  370SOL     OW 1108   2.998   0.542   0.745  0.5668  0.0162 -0.0345
  370SOL    HW1 1109   3.001   0.604   0.663  0.3042  2.2174  0.6326
  370SOL    HW2 1110   2.900   0.536   0.784 -0.4125 -0.3953 -1.2252
  371SOL     OW 1111   1.343   2.487   1.578 -0.5409 -0.1439  0.0701
  371SOL    HW1 1112   1.298   2.548   1.512 -2.2454 -2.8269 -0.2683
  371SOL    HW2 1113   1.283   2.409   1.611  1.0948  1.8932 -1.0166
  372SOL     OW 1114   2.854   0.293   2.353 -0.3153  0.5977 -0.0205
  372SOL    HW1 1115   2.798   0.208   2.362 -0.8732 -1.6117 -1.2170
  372SOL    HW2 1116   2.954   0.282   2.386 -0.5387 -0.2653 -2.2285
  373SOL     OW 1117   0.055   2.262   0.557 -0.3894 -0.2900  0.3586
  373SOL    HW1 1118   0.131   2.285   0.620 -0.7953 -2.5201  3.2066
  373SOL    HW2 1119   3.078   2.317   0.579  0.7653  1.2778  0.4334
  374SOL     OW 1120   0.117   2.953   2.572 -0.4157 -0.4889  0.0737
  374SOL    HW1 1121   0.194   2.995   2.619 -0.6919 -2.6095 -1.1428
  374SOL    HW2 1122   0.142   2.888   2.499  1.5835  0.0212  1.6418
  375SOL     OW 1123   0.619   0.147   2.683 -0.2637 -0.3283  0.2598
  375SOL    HW1 1124   0.629   0.164   2.781  1.5440  0.8533  0.3194
  375SOL    HW2 1125   0.528   0.140   2.648 -1.0149  0.8607 -3.6018
  376SOL     OW 1126   2.775   2.015   1.714  0.9732 -0.2507 -0.3593
  376SOL    HW1 1127   2.857   2.048   1.762  1.2148 -0.9630 -0.3481
  376SOL    HW2 1128   2.746   2.092   1.649 -2.5213  1.2347  1.4731
  377SOL     OW 1129   1.335   3.080   2.839 -0.3174 -0.4647  0.0733
  377SOL    HW1 1130   1.302   3.047   2.929 -2.0469  1.3480  1.8172
  377SOL    HW2 1131   1.416   3.020   2.807 -0.1922 -2.8579  0.7756
  378SOL     OW 1132   3.046   0.489   2.679  0.7496  0.0457 -0.3770
  378SOL    HW1 1133   0.022   0.540   2.664 -0.3320 -1.5664  1.7045
  378SOL    HW2 1134   3.047   0.403   2.619  1.3185  0.5508 -1.3377
  379SOL     OW 1135   0.810   1.078   0.194 -0.0200  0.3686 -0.7424
  379SOL    HW1 1136   0.735   1.052   0.132  0.3024  0.9719  0.2862
  379SOL    HW2 1137   0.767   1.091   0.285 -3.1841 -0.7237 -1.1031
  380SOL     OW 1138   0.218   1.577   1.723 -0.2442 -0.1370  0.6038
  380SOL    HW1 1139   0.266   1.670   1.729  1.1682  1.8703  0.7219
  380SOL    HW2 1140   0.266   1.516   1.661 -0.8523  0.8489 -0.9773
  381SOL     OW 1141   0.165   1.227   2.540  0.3362 -0.6037 -0.1483
  381SOL    HW1 1142   0.243   1.282   2.505 -0.4103  0.5241  0.3729
  381SOL    HW2 1143   0.076   1.267   2.512 -0.4717 -0.0858  2.3763
  382SOL     OW 1144   2.158   1.886   0.413  0.2390 -0.3446 -0.3199
  382SOL    HW1 1145   2.257   1.882   0.373  0.6467 -0.7929  0.4195
  382SOL    HW2 1146   2.159   1.926   0.504 -0.6076 -1.6758 -2.8017
  383SOL     OW 1147   0.602   2.040   0.155 -0.1860  0.3663  0.1020
  383SOL    HW1 1148   0.653   1.990   0.225  2.1285 -1.0601 -3.6849
  383SOL    HW2 1149   0.591   1.977   0.075  0.0661  0.0943  0.1687
  384SOL     OW 1150   0.636   2.122   2.385 -0.3188 -0.4741 -0.4618
  384SOL    HW1 1151   0.735   2.110   2.409  1.4156  1.4589  1.1362
  384SOL    HW2 1152   0.616   2.210   2.338 -1.8402  2.4981 -1.3877
  385SOL     OW 1153   2.233   2.015   0.645 -0.6499  0.2614 -0.4736
  385SOL    HW1 1154   2.319   1.984   0.692  2.8660  1.1512  2.2322
  385SOL    HW2 1155   2.220   2.116   0.659  2.4501  0.4788  0.9148
  386SOL     OW 1156   2.354   1.078   1.146  0.5151  0.0456  0.0111
  386SOL    HW1 1157   2.382   1.009   1.084 -0.5553  2.2441  5.1453
  386SOL    HW2 1158   2.429   1.141   1.173 -1.3976  0.9872 -0.3341
  387SOL     OW 1159   2.996   1.351   1.995 -0.0340  0.0851  0.5452
  387SOL    HW1 1160   2.989   1.368   2.095 -0.0698 -0.2635 -2.0178
  387SOL    HW2 1161   3.005   1.444   1.948 -1.3651 -0.8371  1.5276
  388SOL     OW 1162   0.493   1.709   2.199  0.0534 -0.1085  0.0582
  388SOL    HW1 1163   0.561   1.780   2.165  2.5477  0.2997 -0.2487
  388SOL    HW2 1164   0.506   1.622   2.149 -0.2020  1.2418 -0.2995
  389SOL     OW 1165   0.739   1.007   1.756  0.2298  0.3369  0.2953
  389SOL    HW1 1166   0.688   1.061   1.684 -0.9052  2.1258 -0.4365
  389SOL    HW2 1167   0.837   0.992   1.726 -1.0415 -0.6250  0.4986
  390SOL     OW 1168   2.455   0.071   0.779  0.5166 -0.5513  0.3220
  390SOL    HW1 1169   2.409   0.116   0.704 -0.4109 -0.8227 -0.9023
  390SOL    HW2 1170   2.441   0.124   0.867  0.5169  0.9985  1.7759
  391SOL     OW 1171   1.541   1.613   1.382 -0.1767 -0.1399  0.0502
  391SOL    HW1 1172   1.591   1.577   1.458  0.6146  3.0097 -0.6476
  391SOL    HW2 1173   1.595   1.682   1.329 -0.9556 -1.6767  0.4031
  392SOL     OW 1174   2.778   2.711   3.045  0.1313  0.5454  0.5711
  392SOL    HW1 1175   2.793   2.799   2.999 -0.7396 -1.2931  2.0319
  392SOL    HW2 1176   2.864   2.675   3.080  0.2564 -1.6576 -0.1285
  393SOL     OW 1177   1.636   2.606   2.874  0.2321 -0.1696  0.1629
  393SOL    HW1 1178   1.725   2.614   2.923  1.9111 -0.0655  0.4801
  393SOL    HW2 1179   1.641   2.665   2.791  0.4816 -0.3251 -0.0516
  394SOL     OW 1180   2.887   2.575   2.427  0.4504 -0.3949 -0.4176
  394SOL    HW1 1181   2.904   2.624   2.515 -0.4181 -0.2395  4.4799
  394SOL    HW2 1182   2.957   2.505   2.415  1.3284  2.3890  0.0289
  395SOL     OW 1183   0.022   0.307   0.688  0.0880 -0.0878  0.1958
  395SOL    HW1 1184   3.086   0.396   0.715 -1.3481  0.4779  0.0126
  395SOL    HW2 1185   0.003   0.233   0.755  0.3857  0.0612  0.1216
  396SOL     OW 1186   1.981   0.673   0.457 -0.4541  0.5281  0.5546
  396SOL    HW1 1187   2.050   0.689   0.530 -5.3155 -2.0071 -0.0298
  396SOL    HW2 1188   1.896   0.622   0.487  0.0922 -1.2747 -1.9949
  397SOL     OW 1189   0.329   0.649   2.231  0.1230  0.3850 -0.1904
  397SOL    HW1 1190   0.397   0.603   2.180 -4.1790 -1.5064  1.4170
  397SOL    HW2 1191   0.291   0.722   2.170  0.9152 -2.0348  1.5054
  398SOL     OW 1192   1.049   3.051   0.474  0.0674 -0.4553  0.0560
  398SOL    HW1 1193   1.098   3.086   0.392 -0.4854 -1.0990 -1.0431
  398SOL    HW2 1194   0.966   0.003   0.490 -1.7868  3.2370  1.3727
  399SOL     OW 1195   2.218   0.335   2.046 -0.3839  0.5888  0.1460
  399SOL    HW1 1196   2.201   0.285   2.135  0.7545  0.3969 -2.4479
  399SOL    HW2 1197   2.179   0.432   2.041  0.8645 -1.1177  0.7246
  400SOL     OW 1198   0.911   2.099   2.440 -0.6858  0.2676 -0.1682
  400SOL    HW1 1199   0.978   2.179   2.451  3.0984 -1.2513 -1.0192
  400SOL    HW2 1200   0.902   2.061   2.537  0.6526 -2.2788  3.8837
  401SOL     OW 1201   0.509   1.312   2.676  0.2323 -0.2988 -0.4542
  401SOL    HW1 1202   0.548   1.357   2.765 -0.7781 -1.0171  2.3386
  401SOL    HW2 1203   0.452   1.230   2.705 -0.7165 -0.7034  1.8978
  402SOL     OW 1204   0.292   2.644   0.433  0.0459  0.0914 -1.0842
  402SOL    HW1 1205   0.369   2.616   0.371  0.4194  1.4502  1.7022
  402SOL    HW2 1206   0.307   2.592   0.519 -1.2089 -2.6136 -0.6156
  403SOL     OW 1207   0.468   1.231   1.907  0.2472 -0.3380 -0.3059
  403SOL    HW1 1208   0.542   1.204   1.970 -2.8181  0.3247 -0.2015
  403SOL    HW2 1209   0.402   1.154   1.918 -0.4307  1.4278  1.3370
  404SOL     OW 1210   2.673   2.456   2.305  0.1695 -0.0636 -0.2455
  404SOL    HW1 1211   2.763   2.490   2.341 -0.1268  0.5945  1.0039
  404SOL    HW2 1212   2.648   2.499   2.214  2.4216  1.4933 -0.3503
  405SOL     OW 1213   0.081   0.285   2.007 -0.1538  0.3557  0.2444
  405SOL    HW1 1214   0.056   0.335   2.090  0.6333 -2.4474 -0.3353
  405SOL    HW2 1215   0.092   0.350   1.927  0.5623  1.7178 -1.7462
  406SOL     OW 1216   1.306   1.463   2.644 -0.1087 -0.2871 -0.5288
  406SOL    HW1 1217   1.334   1.540   2.714  2.0007  2.6315  3.6216
  406SOL    HW2 1218   1.207   1.445   2.643  0.3027  0.6734 -2.7217
  407SOL     OW 1219   1.860   0.992   2.776  0.7444  0.0623  0.0895
  407SOL    HW1 1220   1.760   0.995   2.777 -0.2610 -2.0723 -1.4136
  407SOL    HW2 1221   1.895   1.012   2.682 -1.3778  0.5529  0.2937
  408SOL     OW 1222   0.231   2.832   2.348 -0.5616 -0.7969 -0.1593
  408SOL    HW1 1223   0.326   2.862   2.360 -1.2123  0.6361  0.2135
  408SOL    HW2 1224   0.224   2.751   2.288 -1.4395 -1.0136  0.8779
  409SOL     OW 1225   0.025   2.164   0.933 -0.4444  0.4290 -0.1284
  409SOL    HW1 1226   3.042   2.147   0.887 -1.9835 -3.1387 -1.0636
  409SOL    HW2 1227   0.041   2.261   0.969  1.9029 -0.9675 -0.5557
  410SOL     OW 1228   2.669   1.790   0.288  0.3886  0.7070  0.3842
  410SOL    HW1 1229   2.749   1.846   0.308 -1.3745 -0.1812  0.4793
  410SOL    HW2 1230   2.690   1.733   0.206 -0.8462  0.3016 -1.0966
  411SOL     OW 1231   2.831   0.146   1.066  0.0398  1.0165 -0.3242
  411SOL    HW1 1232   2.810   0.175   1.162 -1.6917  1.7071  1.3021
  411SOL    HW2 1233   2.804   0.218   0.997 -1.3838  2.2498 -0.2866
  412SOL     OW 1234   2.111   0.478   1.578  0.2168 -0.2096 -0.0301
  412SOL    HW1 1235   2.119   0.380   1.560 -0.1434  0.6779  0.6234
  412SOL    HW2 1236   2.105   0.533   1.496 -1.2930 -1.3409 -0.6763
  413SOL     OW 1237   0.537   0.515   2.111  0.3183 -0.2098 -0.0183
  413SOL    HW1 1238   0.547   0.516   2.006  1.3225  2.7683 -0.7423
  413SOL    HW2 1239   0.608   0.460   2.165  2.5056 -0.9519  1.5921
  414SOL     OW 1240   0.024   1.082   2.870  0.2667  0.3399  0.5267
  414SOL    HW1 1241   0.006   1.179   2.886 -1.0375 -0.2124 -3.1077
  414SOL    HW2 1242   3.060   1.019   2.907  1.6863  0.4638 -1.1445
  415SOL     OW 1243   0.778   2.686   3.036 -0.2119 -0.2936 -0.0874
  415SOL    HW1 1244   0.877   2.661   3.033  1.1587  0.9457  0.8303
  415SOL    HW2 1245   0.751   2.760   3.104 -0.6208  2.0767 -0.5801
  416SOL     OW 1246   1.502   0.109   2.400  0.0115  0.2422  0.2945
  416SOL    HW1 1247   1.508   0.056   2.313  1.1899 -1.8224 -2.2638
  416SOL    HW2 1248   1.483   0.209   2.384  2.1555 -0.4613 -1.2856
  417SOL     OW 1249   0.374   0.620   0.879  0.3528 -0.1058  0.4579
  417SOL    HW1 1250   0.441   0.545   0.869  1.2187  2.6821 -1.3875
  417SOL    HW2 1251   0.275   0.589   0.877 -0.0318 -0.2506 -3.0651
  418SOL     OW 1252   2.710   0.137   0.667  0.0693 -0.0735 -0.3273
  418SOL    HW1 1253   2.650   0.086   0.733 -0.4678 -0.1680  1.9970
  418SOL    HW2 1254   2.660   0.204   0.609 -0.4035 -1.8666 -0.4328
  419SOL     OW 1255   0.320   2.914   0.418  0.3071 -0.1427  0.2853
  419SOL    HW1 1256   0.332   2.937   0.317 -1.0937  1.9847 -0.0259
  419SOL    HW2 1257   0.296   2.818   0.436  1.4878  1.3823  0.2584
  420SOL     OW 1258   0.170   1.172   1.757  0.2170  0.4439 -0.5296
  420SOL    HW1 1259   0.073   1.169   1.721 -3.2856  1.7078 -0.5894
  420SOL    HW2 1260   0.235   1.107   1.712  1.1524  0.5692  0.7004
  421SOL     OW 1261   1.911   2.446   0.809  0.8696  0.1535  0.3604
  421SOL    HW1 1262   1.977   2.520   0.770  3.9066  0.9218 -0.2817
  421SOL    HW2 1263   1.859   2.400   0.740  3.2657  0.6574 -0.2598
  422SOL     OW 1264   0.139   0.676   1.412 -0.1334  0.0958  0.3384
  422SOL    HW1 1265   0.181   0.628   1.326 -0.0763  2.3445 -2.3918
  422SOL    HW2 1266   0.187   0.763   1.435  0.2219  1.5717 -1.8837
  423SOL     OW 1267   0.887   1.451   1.829 -0.0754 -0.5874  0.5310
  423SOL    HW1 1268   0.953   1.526   1.794  2.8067 -0.6710  2.4980
  423SOL    HW2 1269   0.807   1.497   1.873 -0.0225 -1.1563 -1.7387
  424SOL     OW 1270   1.884   2.167   0.268 -0.0565 -0.1312  0.1998
  424SOL    HW1 1271   1.837   2.236   0.209 -1.4693  3.5302 -0.9183
  424SOL    HW2 1272   1.876   2.081   0.227  1.1623  0.0005  2.5565
  425SOL     OW 1273   2.659   3.014   2.007  0.4703 -0.1614 -0.2197
  425SOL    HW1 1274   2.712   3.100   2.036 -0.6205  2.0545 -2.4126
  425SOL    HW2 1275   2.721   2.952   1.957 -0.3871 -0.4208  1.4753
  426SOL     OW 1276   2.930   2.687   2.662 -0.0924  0.3056 -0.1156
  426SOL    HW1 1277   3.013   2.716   2.717  0.5120  2.8778 -0.3727
  426SOL    HW2 1278   2.862   2.653   2.728  0.1948  0.4820  0.7214
  427SOL     OW 1279   1.107   0.428   0.305 -0.1326 -0.4016  0.2937
  427SOL    HW1 1280   1.106   0.373   0.221 -1.3457  2.3825  1.2561
  427SOL    HW2 1281   1.024   0.490   0.306  2.6813  1.0448  1.8250
  428SOL     OW 1282   2.892   0.505   1.200 -0.5721 -0.0557 -0.0913
  428SOL    HW1 1283   2.928   0.460   1.117 -1.0835 -3.4206  0.6533
  428SOL    HW2 1284   2.793   0.503   1.203 -1.7574  0.1786  2.6073
  429SOL     OW 1285   2.095   0.044   1.090 -0.1229 -0.2397  0.1079
  429SOL    HW1 1286   2.020   0.018   1.023  0.2249 -0.5862  1.7889
  429SOL    HW2 1287   2.165   3.085   1.094 -0.3644  1.2757 -0.8890
  430SOL     OW 1288   0.829   1.524   2.599  0.2581  0.1727 -0.0154
  430SOL    HW1 1289   0.858   1.594   2.667  1.4802 -1.1219 -0.2578
  430SOL    HW2 1290   0.756   1.565   2.540  0.0681  0.9599 -1.3242
  431SOL     OW 1291   2.805   1.889   1.233 -0.4603 -0.0715 -0.0853
  431SOL    HW1 1292   2.855   1.859   1.317 -1.2648 -0.6166 -0.9399
  431SOL    HW2 1293   2.843   1.978   1.198 -0.2960 -0.5172  1.0440
  432SOL     OW 1294   1.315   2.655   2.321 -0.1992 -0.2201 -0.5056
  432SOL    HW1 1295   1.381   2.702   2.258 -0.6817 -1.0172  0.5130
  432SOL    HW2 1296   1.367   2.580   2.374  0.5764  0.3366  2.2426
  433SOL     OW 1297   1.700   0.419   2.488 -0.1090  0.0344 -0.2297
  433SOL    HW1 1298   1.625   0.412   2.427  0.7410 -0.4483  0.6293
  433SOL    HW2 1299   1.676   0.458   2.580  0.8964 -0.7321 -0.7953
  434SOL     OW 1300   0.497   2.382   2.079 -0.0643  0.0366 -0.0989
  434SOL    HW1 1301   0.539   2.351   1.990  0.1871  0.5652  0.2332
  434SOL    HW2 1302   0.437   2.461   2.067  0.1272 -0.6813 -0.8681
  435SOL     OW 1303   0.277   0.023   0.571 -0.0012  0.2083 -0.4519
  435SOL    HW1 1304   0.220   0.081   0.516  1.8765 -2.2723  1.7503
  435SOL    HW2 1305   0.306   3.047   0.521  1.6585 -1.1521 -0.1918
  436SOL     OW 1306   0.516   1.026   2.401 -0.1279  0.3026  0.1031
  436SOL    HW1 1307   0.598   0.976   2.435  0.1657  0.2784 -0.4929
  436SOL    HW2 1308   0.440   1.008   2.469 -2.4873 -1.6467  4.6740
  437SOL     OW 1309   0.676   2.532   2.602  0.0512  0.1836 -0.2341
  437SOL    HW1 1310   0.757   2.500   2.546  1.0665 -0.8149 -1.3607
  437SOL    HW2 1311   0.589   2.478   2.581 -2.2264 -1.1104  0.2221
  438SOL     OW 1312   0.857   1.068   0.673  0.4214 -0.3615 -0.8769
  438SOL    HW1 1313   0.930   1.085   0.745 -0.3666 -1.1830  0.8564
  438SOL    HW2 1314   0.901   1.091   0.583  1.3591  0.0057 -1.9337
  439SOL     OW 1315   2.697   1.544   2.278  0.1870 -0.0665  0.2652
  439SOL    HW1 1316   2.799   1.535   2.285 -0.8780  2.2914 -0.7192
  439SOL    HW2 1317   2.666   1.455   2.312  0.0443 -1.4385 -0.5001
  440SOL     OW 1318   2.871   0.717   2.803 -0.9075 -0.1083 -0.2427
  440SOL    HW1 1319   2.922   0.759   2.721  0.5617 -1.0650  0.7123
  440SOL    HW2 1320   2.918   0.627   2.822 -1.0123  1.2350 -3.3931
  441SOL     OW 1321   1.185   2.283   1.650  0.0276 -0.6344  0.1849
  441SOL    HW1 1322   1.163   2.210   1.582  0.9463  1.0180  0.0339
  441SOL    HW2 1323   1.105   2.333   1.690  1.0663  2.3246  1.7165
  442SOL     OW 1324   2.184   1.392   1.071 -0.5377  0.6666  0.2887
  442SOL    HW1 1325   2.152   1.291   1.058 -1.0103 -0.4995  0.2139
  442SOL    HW2 1326   2.132   1.446   1.003  1.4751  1.9605 -0.0653
  443SOL     OW 1327   2.458   2.023   2.840  0.5425  0.6571  0.0104
  443SOL    HW1 1328   2.534   2.000   2.903 -1.4288  0.8470 -1.2243
  443SOL    HW2 1329   2.404   2.102   2.875 -2.3960  2.8905 -1.5509
  444SOL     OW 1330   1.920   1.528   2.488 -0.1674  0.3085  0.4607
  444SOL    HW1 1331   1.862   1.596   2.455 -1.3863 -1.7973 -1.4606
  444SOL    HW2 1332   1.950   1.543   2.584 -2.1773 -1.0897  1.0912
  445SOL     OW 1333   0.196   2.234   2.264 -0.4310 -0.0845 -0.1556
  445SOL    HW1 1334   0.284   2.199   2.226 -0.5051 -1.9681 -0.6837
  445SOL    HW2 1335   0.149   2.290   2.194 -0.2503  0.7670 -0.3898
  446SOL     OW 1336   1.130   0.879   1.586  0.0987  0.1573 -0.0436
  446SOL    HW1 1337   1.116   0.826   1.671  1.2599  1.7330  0.3111
  446SOL    HW2 1338   1.047   0.936   1.557 -0.6788  0.4024 -3.7260
  447SOL     OW 1339   1.047   1.095   0.473  0.2600  0.0815 -0.2875
  447SOL    HW1 1340   1.014   1.151   0.395  0.8997  0.6478  3.3190
  447SOL    HW2 1341   1.125   1.045   0.437 -0.4648  0.5211  0.0534
  448SOL     OW 1342   0.794   1.264   2.644 -0.6405 -0.0230  0.9223
  448SOL    HW1 1343   0.821   1.363   2.637  0.5211  2.3979 -0.4506
  448SOL    HW2 1344   0.694   1.253   2.628  1.8029 -2.5971  1.8169
  449SOL     OW 1345   0.001   1.943   2.637 -0.2247  0.1977  0.0487
  449SOL    HW1 1346   0.054   1.989   2.564 -2.9182  0.0267  0.6498
  449SOL    HW2 1347   0.015   1.842   2.619  1.4395 -1.0459 -1.6375
  450SOL     OW 1348   2.109   1.610   2.104 -0.0508 -0.7338  0.1221
  450SOL    HW1 1349   2.079   1.561   2.191  0.4124 -1.6127  2.6482
  450SOL    HW2 1350   2.182   1.682   2.121  0.9735 -0.3290  0.6534
  451SOL     OW 1351   2.665   1.426   1.426  0.0790  0.7405 -0.2418
  451SOL    HW1 1352   2.687   1.516   1.473 -1.1696 -0.4519  0.5848
  451SOL    HW2 1353   2.754   1.378   1.403  2.6563  1.5630  0.7165
  452SOL     OW 1354   0.883   1.252   1.047  0.0778  0.3148  0.0769
  452SOL    HW1 1355   0.838   1.161   1.056 -0.4603 -1.5595 -1.3036
  452SOL    HW2 1356   0.935   1.272   1.136  0.9632  0.1291  1.2956
  453SOL     OW 1357   0.645   1.755   0.824 -0.2643  0.2125  0.0470
  453SOL    HW1 1358   0.555   1.797   0.853  0.4295  1.3898 -0.4112
  453SOL    HW2 1359   0.636   1.655   0.817 -3.3115 -1.1492  1.8095
  454SOL     OW 1360   1.125   1.707   0.199 -0.1531 -0.5508  0.1411
  454SOL    HW1 1361   1.214   1.700   0.255  2.9349  0.4305  2.2524
  454SOL    HW2 1362   1.073   1.624   0.216  1.2881  2.0598 -0.6502
  455SOL     OW 1363   1.786   0.512   1.065  0.2374 -0.5463 -0.4202
  455SOL    HW1 1364   1.775   0.552   1.164 -2.1653 -0.8495  1.6534
  455SOL    HW2 1365   1.697   0.505   1.013  0.1367 -0.7122  0.4739
  456SOL     OW 1366   1.703   2.853   0.939 -0.5343 -0.1235  0.0429
  456SOL    HW1 1367   1.668   2.832   0.842 -1.6976  0.1082 -2.4425
  456SOL    HW2 1368   1.757   2.771   0.970  0.9375 -0.2788  1.1324
  457SOL     OW 1369   2.084   0.643   2.724 -0.1694 -0.1411 -0.6011
  457SOL    HW1 1370   2.002   0.591   2.765 -4.7084 -0.7193 -0.4080
  457SOL    HW2 1371   2.157   0.651   2.795  1.2413 -0.1737 -0.0887
  458SOL     OW 1372   2.800   0.510   2.528  0.1428 -0.5992 -0.5175
  458SOL    HW1 1373   2.812   0.439   2.457  0.1692  0.0609  1.4061
  458SOL    HW2 1374   2.891   0.518   2.579 -1.1101 -0.5144  0.9152
  459SOL     OW 1375   2.337   1.414   2.119 -0.4204  0.1951 -0.1862
  459SOL    HW1 1376   2.405   1.488   2.131  0.2971 -0.7896 -0.6457
  459SOL    HW2 1377   2.251   1.445   2.160  1.1738  0.6502 -1.4246
  460SOL     OW 1378   0.772   0.734   2.989  0.2681  0.0489 -0.0436
  460SOL    HW1 1379   0.728   0.804   3.046  1.5603 -0.9724  1.5551
  460SOL    HW2 1380   0.870   0.749   2.998  2.7715 -0.1899 -0.9770
  461SOL     OW 1381   0.161   2.238   0.083 -0.3453 -0.2849  0.3093
  461SOL    HW1 1382   0.088   2.261   0.152  0.9806 -0.5769  1.7148
  461SOL    HW2 1383   0.138   2.154   0.027 -2.0296 -0.6829  0.9925
  462SOL     OW 1384   0.665   3.012   1.845  0.4591  0.1673  0.3057
  462SOL    HW1 1385   0.563   3.023   1.824 -2.7901  1.4815 -1.1343
  462SOL    HW2 1386   0.691   3.071   1.921  0.8229  0.8220  1.8891
  463SOL     OW 1387   1.382   2.258   2.163 -0.1036 -0.0988 -0.8740
  463SOL    HW1 1388   1.474   2.233   2.141 -0.0740 -3.3571  0.0675
  463SOL    HW2 1389   1.359   2.346   2.126  1.7845 -1.6456  3.9763
  464SOL     OW 1390   2.617   2.652   1.155  0.0940 -0.2875  0.7656
  464SOL    HW1 1391   2.655   2.733   1.202  1.2212  0.3275 -0.3244
  464SOL    HW2 1392   2.561   2.682   1.074 -1.7786 -2.6993 -1.2855
  465SOL     OW 1393   0.087   0.198   1.383 -0.1139  0.1709  0.6640
  465SOL    HW1 1394   0.105   0.155   1.476 -0.1578 -0.8841  1.2492
  465SOL    HW2 1395   0.162   0.173   1.317  1.6877  1.1008 -0.1877
  466SOL     OW 1396   1.134   2.319   2.460  0.4538 -0.2233  0.6502
  466SOL    HW1 1397   1.211   2.383   2.441 -1.7626  2.3934  2.8143
  466SOL    HW2 1398   1.178   2.227   2.471  1.2583  0.5366 -0.1929
  467SOL     OW 1399   3.087   2.287   0.289  0.0284 -0.7303 -0.4300
  467SOL    HW1 1400   2.981   2.269   0.304 -3.1025 -1.6724 -1.5867
  467SOL    HW2 1401   0.025   2.252   0.377 -0.6803 -1.9727 -0.0040
  468SOL     OW 1402   1.980   1.876   2.958  0.0504 -0.2404  0.0422
  468SOL    HW1 1403   1.959   1.847   2.861  0.4398  1.1222  0.4176
  468SOL    HW2 1404   2.080   1.862   2.984 -3.6617  0.4946 -1.6006
  469SOL     OW 1405   1.185   2.149   0.934 -0.3464 -0.0397 -0.4530
  469SOL    HW1 1406   1.206   2.160   1.037  2.3020  1.0497  3.1283
  469SOL    HW2 1407   1.252   2.186   0.868 -2.3308 -2.0229  1.3598
  470SOL     OW 1408   1.996   0.700   0.993  0.0387 -0.2140 -0.3563
  470SOL    HW1 1409   1.914   0.642   1.013  2.6350 -1.2921 -1.1092
  470SOL    HW2 1410   1.994   0.795   1.033  0.2074  0.2635 -0.2851
  471SOL     OW 1411   0.437   2.096   0.361 -0.4680 -0.4159 -0.5056
  471SOL    HW1 1412   0.492   2.087   0.275 -0.0332 -0.8596  2.1379
  471SOL    HW2 1413   0.339   2.059   0.345  0.0704 -0.7406  0.5821
  472SOL     OW 1414   2.496   1.470   2.714 -0.2554 -0.0231 -0.1898
  472SOL    HW1 1415   2.534   1.548   2.660  0.1120 -3.1437 -0.7634
  472SOL    HW2 1416   2.413   1.434   2.668 -1.7007  0.6908  1.6011
  473SOL     OW 1417   1.523   2.053   0.706 -0.0718 -0.4344 -0.6622
  473SOL    HW1 1418   1.437   2.103   0.687 -1.5424 -0.5826 -0.9432
  473SOL    HW2 1419   1.533   2.029   0.806  1.7676  0.0044  3.7560
  474SOL     OW 1420   2.738   0.320   0.899  0.1661  0.3973 -0.2361
  474SOL    HW1 1421   2.742   0.275   0.810  0.4045  2.1117  1.8248
  474SOL    HW2 1422   2.743   0.418   0.884 -1.7916 -0.4955 -1.2852
  475SOL     OW 1423   2.390   2.805   1.470 -0.6369 -0.2174  0.4173
  475SOL    HW1 1424   2.313   2.784   1.540 -1.4749 -0.6521 -0.6674
  475SOL    HW2 1425   2.376   2.755   1.384  1.8435 -0.5289  2.7672
  476SOL     OW 1426   0.547   0.373   0.828 -0.7890 -0.4028  0.0745
  476SOL    HW1 1427   0.513   0.315   0.756  1.5160  0.4724  4.0774
  476SOL    HW2 1428   0.647   0.380   0.802 -1.5012  0.7925 -2.5143
  477SOL     OW 1429   1.335   2.391   1.286  0.4295  0.2209  0.3832
  477SOL    HW1 1430   1.273   2.470   1.303  0.7030 -3.4625 -1.1438
  477SOL    HW2 1431   1.385   2.363   1.369 -0.8285 -0.4227 -0.5791
  478SOL     OW 1432   1.219   2.496   2.883  0.3524 -0.3037 -0.5626
  478SOL    HW1 1433   1.150   2.543   2.821 -0.8422  1.6768 -2.9147
  478SOL    HW2 1434   1.243   2.402   2.846  0.1095 -0.1880  0.3389
  479SOL     OW 1435   2.734   0.929   1.738 -0.4144 -0.1788 -0.0259
  479SOL    HW1 1436   2.768   1.020   1.765  1.2170  0.3906  1.7851
  479SOL    HW2 1437   2.786   0.889   1.663  1.4670 -0.7238  2.1966
  480SOL     OW 1438   2.907   2.326   2.797  0.3594 -0.3176 -0.0966
  480SOL    HW1 1439   2.989   2.297   2.746  2.0913 -0.1956  0.4930
  480SOL    HW2 1440   2.875   2.419   2.770  2.5073 -0.2279  1.9094
  481SOL     OW 1441   1.675   0.061   1.973  0.0625 -0.3095  0.4743
  481SOL    HW1 1442   1.754   0.059   2.040  1.5842  0.3313 -0.8419
  481SOL    HW2 1443   1.649   0.154   1.938  0.7088 -0.6727 -0.1915
  482SOL     OW 1444   1.570   2.343   2.818 -0.2417 -0.1865 -0.2536
  482SOL    HW1 1445   1.579   2.439   2.844  2.5825 -3.6549 -1.7084
  482SOL    HW2 1446   1.647   2.286   2.848  1.0443 -1.3087  0.7674
  483SOL     OW 1447   1.071   2.625   2.688  0.6230 -0.3399 -0.2196
  483SOL    HW1 1448   1.024   2.579   2.613  2.6919  1.6693 -0.9654
  483SOL    HW2 1449   1.092   2.724   2.670 -1.9241 -2.0057  1.0251
  484SOL     OW 1450   2.917   2.866   1.446  0.6457  0.7619  0.2701
  484SOL    HW1 1451   2.869   2.910   1.521  0.8672 -2.0582 -0.3897
  484SOL    HW2 1452   3.019   2.882   1.441 -1.4360 -0.9828  0.5283
  485SOL     OW 1453   2.272   0.760   0.385 -0.0924 -0.3488 -0.5344
  485SOL    HW1 1454   2.275   0.779   0.487 -1.4053  0.2799 -2.2256
  485SOL    HW2 1455   2.203   0.818   0.337  1.5666  0.1969 -3.3096
  486SOL     OW 1456   2.237   2.718   2.291  0.1348 -0.8528 -0.3362
  486SOL    HW1 1457   2.307   2.791   2.300  0.8159  0.1917 -1.3822
  486SOL    HW2 1458   2.172   2.744   2.220 -0.3685 -0.0450  0.6255
  487SOL     OW 1459   1.463   0.666   0.520 -0.2732  0.5071 -0.2800
  487SOL    HW1 1460   1.388   0.668   0.448 -0.4751 -0.8501  1.0400
  487SOL    HW2 1461   1.456   0.580   0.571  0.0111  0.4270  0.9810
  488SOL     OW 1462   2.516   2.894   2.423 -0.2264 -0.2368  0.1623
  488SOL    HW1 1463   2.528   2.796   2.451  0.7883 -1.2248  1.0628
  488SOL    HW2 1464   2.455   2.948   2.485  0.1005  0.2086  0.4083
  489SOL     OW 1465   1.545   3.106   0.410  0.7121 -0.1434 -0.2234
  489SOL    HW1 1466   1.456   0.003   0.462 -0.4466  0.9580  1.6122
  489SOL    HW2 1467   1.601   3.026   0.424 -0.0289  1.1292  3.8279
  490SOL     OW 1468   1.829   0.233   3.041 -0.2503  0.3173 -0.1783
  490SOL    HW1 1469   1.816   0.315   3.106  0.1873 -1.2925 -0.3352
  490SOL    HW2 1470   1.912   0.237   2.982  2.9371 -1.3519  0.0121
  491SOL     OW 1471   0.585   2.776   1.136 -0.6673 -0.1218 -0.3201
  491SOL    HW1 1472   0.499   2.753   1.187  0.8646 -0.1693 -1.8799
  491SOL    HW2 1473   0.638   2.848   1.188 -2.7026 -1.6088 -0.3302
  492SOL     OW 1474   1.644   2.793   0.673  0.2036 -0.2335 -0.0605
  492SOL    HW1 1475   1.614   2.694   0.672 -0.1873 -0.5815  2.1783
  492SOL    HW2 1476   1.683   2.822   0.583  1.9796 -1.2535 -0.2247
  493SOL     OW 1477   1.033   2.166   2.912 -0.3331 -0.7543 -0.1578
  493SOL    HW1 1478   1.128   2.187   2.876  0.7135 -0.4891  1.2540
  493SOL    HW2 1479   1.008   2.241   2.974  0.8777  0.5426 -4.1089
  494SOL     OW 1480   0.635   1.198   0.696 -0.2469 -0.1527 -0.3708
  494SOL    HW1 1481   0.582   1.186   0.778  0.1102  1.7669  0.4686
  494SOL    HW2 1482   0.723   1.148   0.698  0.9713  1.2503 -0.6194
  495SOL     OW 1483   2.670   0.514   1.652 -0.1962  0.0620 -0.1463
  495SOL    HW1 1484   2.732   0.441   1.616  1.8975  1.2515  0.4966
  495SOL    HW2 1485   2.689   0.598   1.599 -1.7729 -0.6381  1.2905
  496SOL     OW 1486   2.112   2.493   2.395  0.6296  0.1964  0.7326
  496SOL    HW1 1487   2.145   2.582   2.354  1.4844 -0.9158  1.0410
  496SOL    HW2 1488   2.009   2.490   2.408  0.4439  0.6199 -1.4822
  497SOL     OW 1489   1.701   1.317   2.692 -0.3791  0.2334 -0.2972
  497SOL    HW1 1490   1.786   1.345   2.643  2.3643 -1.2927 -1.3369
  497SOL    HW2 1491   1.695   1.361   2.785  0.0350  0.0628  1.1572
  498SOL     OW 1492   0.992   2.313   1.001 -0.2489  0.2211 -0.4673
  498SOL    HW1 1493   1.056   2.265   0.937  0.8883 -0.3643  0.9801
  498SOL    HW2 1494   1.021   2.274   1.093  2.4109  0.4085 -1.6437
  499SOL     OW 1495   0.278   2.065   0.859  0.4349 -0.1985 -0.0332
  499SOL    HW1 1496   0.289   2.047   0.760 -0.3982  0.1452  1.6760
  499SOL    HW2 1497   0.180   2.065   0.894 -0.5206 -0.5827  0.3476
  500SOL     OW 1498   1.133   2.616   0.237  0.2942 -0.1204 -0.4539
  500SOL    HW1 1499   1.052   2.662   0.277 -1.1689 -1.0301 -2.3726
  500SOL    HW2 1500   1.221   2.668   0.236  1.1212  0.8879 -3.5938
  501SOL     OW 1501   1.908   2.727   0.660 -0.6429  0.7383 -0.3705
  501SOL    HW1 1502   1.820   2.758   0.701 -1.9627 -2.1753 -1.0950
  501SOL    HW2 1503   1.897   2.669   0.577 -1.4087 -0.8841 -1.9129
  502SOL     OW 1504   0.211   0.317   1.118  0.2727 -0.0647  0.7084
  502SOL    HW1 1505   0.113   0.305   1.130  2.5259 -4.1944 -0.4894
  502SOL    HW2 1506   0.257   0.232   1.156  0.6353 -2.6730 -0.1090
  503SOL     OW 1507   2.022   3.076   1.739  0.2829 -0.4106  0.4956
  503SOL    HW1 1508   1.988   0.014   1.823 -0.9265  1.6891 -0.6869
  503SOL    HW2 1509   2.124   3.087   1.728  0.3867  1.0427  1.2764
  504SOL     OW 1510   1.839   0.986   1.947  0.2446  0.5713 -0.2426
  504SOL    HW1 1511   1.890   0.914   1.894 -1.3488 -0.3801  1.0874
  504SOL    HW2 1512   1.738   0.970   1.929 -0.7516  0.0383 -0.8406
  505SOL     OW 1513   1.612   2.912   2.401 -0.0983  0.7320  0.3534
  505SOL    HW1 1514   1.714   2.928   2.406  1.8852  2.5183  0.8734
  505SOL    HW2 1515   1.570   2.951   2.313 -1.2237  1.0038 -2.5186
  506SOL     OW 1516   0.401   0.690   1.702  0.5560  0.1250 -0.0139
  506SOL    HW1 1517   0.494   0.709   1.737 -1.0822  0.5558  1.0641
  506SOL    HW2 1518   0.406   0.646   1.610 -0.1043  1.7687 -1.8931
  507SOL     OW 1519   1.790   0.435   0.102  0.1173 -0.1361 -0.7285
  507SOL    HW1 1520   1.749   0.400   0.190  0.0579 -2.6615  1.2609
  507SOL    HW2 1521   1.877   0.478   0.124 -1.3380 -1.4928 -1.2802
  508SOL     OW 1522   2.124   0.592   2.043  0.1756 -0.0795 -0.0918
  508SOL    HW1 1523   2.046   0.557   2.100 -1.4138 -0.0089 -1.8160
  508SOL    HW2 1524   2.152   0.684   2.071  1.8820 -0.1317  0.2561
  509SOL     OW 1525   0.449   1.895   2.799 -0.6136  0.1133 -0.8128
  509SOL    HW1 1526   0.352   1.921   2.808  0.0744 -2.2182  0.8872
  509SOL    HW2 1527   0.481   1.927   2.708 -0.3155  0.0065 -0.0191
  510SOL     OW 1528   2.999   0.930   0.759  0.2188 -0.2931 -0.0690
  510SOL    HW1 1529   3.036   0.881   0.676  2.0279 -1.1988 -1.1634
  510SOL    HW2 1530   3.014   0.881   0.847 -1.3880 -1.1563  3.6899
  511SOL     OW 1531   1.762   1.285   1.250  0.6719 -0.0092  1.2053
  511SOL    HW1 1532   1.747   1.319   1.343  1.4137  0.2372  0.0351
  511SOL    HW2 1533   1.797   1.361   1.187 -0.4659 -0.2414 -2.0493
  512SOL     OW 1534   0.417   2.024   0.617  0.2517  0.0765  0.3338
  512SOL    HW1 1535   0.516   2.028   0.650  1.0611  1.2604  1.1932
  512SOL    HW2 1536   0.417   2.066   0.521 -0.8818 -0.1959 -2.1966
  513SOL     OW 1537   0.460   2.423   0.905  0.3146 -0.4593 -0.4396
  513SOL    HW1 1538   0.397   2.451   0.980 -1.4043  0.1620  2.8151
  513SOL    HW2 1539   0.558   2.455   0.915  0.5067 -0.2762 -0.4353
  514SOL     OW 1540   0.704   2.039   0.671  0.3187  0.4245  0.0199
  514SOL    HW1 1541   0.694   1.950   0.719  0.8691 -0.0640  0.0885
  514SOL    HW2 1542   0.742   2.030   0.575  3.9651  3.6751 -0.7876
  515SOL     OW 1543   0.162   0.038   0.106 -0.6951 -0.3655 -0.2776
  515SOL    HW1 1544   0.227   3.074   0.126  0.1668  3.0539  0.5863
  515SOL    HW2 1545   0.078   0.029   0.164 -0.2570 -3.3618  0.1305
  516SOL     OW 1546   1.972   0.093   1.338  0.5864 -0.5194 -0.5036
  516SOL    HW1 1547   1.904   0.166   1.301 -5.4099  4.5355 -2.2200
  516SOL    HW2 1548   2.042   0.066   1.271 -0.8063 -1.7849  0.3899
  517SOL     OW 1549   1.691   1.761   0.790 -0.4050 -0.7939  0.0846
  517SOL    HW1 1550   1.674   1.754   0.692 -2.8083  1.0722  1.3647
  517SOL    HW2 1551   1.757   1.840   0.817  3.7788  0.6813  0.0470
  518SOL     OW 1552   1.506   2.877   1.120  0.2168 -0.3329 -0.0492
  518SOL    HW1 1553   1.409   2.867   1.097  0.9889  0.3253  0.5878
  518SOL    HW2 1554   1.576   2.876   1.046  0.4116  1.0597 -0.2673
  519SOL     OW 1555   2.904   2.391   3.063  0.1628  0.1133  0.6060
  519SOL    HW1 1556   2.978   2.460   3.070  0.1408  0.3711  0.1099
  519SOL    HW2 1557   2.884   2.362   2.967 -0.4342  0.3229 -0.8652
  520SOL     OW 1558   1.918   1.995   2.471  0.6206  0.5484 -0.1472
  520SOL    HW1 1559   1.989   2.049   2.525 -1.2027 -0.5133  0.2859
  520SOL    HW2 1560   1.959   1.949   2.389  0.2170 -0.4014 -2.3183
  521SOL     OW 1561   0.875   2.844   2.208  0.2182  0.5380  0.8097
  521SOL    HW1 1562   0.784   2.810   2.171 -1.4421  0.0633 -0.2014
  521SOL    HW2 1563   0.873   2.901   2.296  0.6007 -0.3907 -0.3258
  522SOL     OW 1564   0.342   2.623   2.085 -0.2214  0.0959 -0.0378
  522SOL    HW1 1565   0.282   2.662   2.009 -0.4262  1.7853 -1.3868
  522SOL    HW2 1566   0.278   2.582   2.156 -2.4379 -0.5689  0.1611
  523SOL     OW 1567   0.987   2.316   1.886 -0.1723  0.1041  0.3912
  523SOL    HW1 1568   0.920   2.322   1.961 -2.6075  0.9590  0.0094
  523SOL    HW2 1569   1.027   2.223   1.886  1.6674 -0.1084 -1.2331
  524SOL     OW 1570   2.320   2.169   0.165 -0.5544 -0.0892  0.7365
  524SOL    HW1 1571   2.366   2.084   0.131  2.7870  0.2558 -0.3891
  524SOL    HW2 1572   2.389   2.239   0.194  0.2299  1.4065  0.2452
  525SOL     OW 1573   2.878   0.968   2.960 -0.2906 -0.0326 -0.0947
  525SOL    HW1 1574   2.804   1.005   2.898 -1.5942 -1.8582 -0.0207
  525SOL    HW2 1575   2.885   0.866   2.937 -1.9051  1.5411  0.0308
  526SOL     OW 1576   0.190   2.792   0.927 -0.5179 -0.0289 -0.0607
  526SOL    HW1 1577   0.102   2.785   0.877  2.0388  1.7253  0.2588
  526SOL    HW2 1578   0.239   2.881   0.899  0.6456 -0.5344 -0.7140
  527SOL     OW 1579   3.103   1.413   0.640 -0.1213  0.3483 -0.0348
  527SOL    HW1 1580   0.005   1.309   0.656 -2.4985  1.4759  2.0293
  527SOL    HW2 1581   3.006   1.442   0.634 -0.8474 -0.9063 -1.3947
  528SOL     OW 1582   0.715   0.846   2.452  0.2641  0.0282 -0.1131
  528SOL    HW1 1583   0.703   0.765   2.513 -0.4059  0.8962  2.0346
  528SOL    HW2 1584   0.790   0.906   2.487  1.3564  3.5397  1.2403
  529SOL     OW 1585   0.980   1.493   0.279  0.4655  0.1146  0.1562
  529SOL    HW1 1586   1.010   1.400   0.264 -3.1494  1.3488  0.2421
  529SOL    HW2 1587   0.882   1.491   0.304  1.2310 -0.2482  0.7942
  530SOL     OW 1588   1.223   0.970   2.109 -0.1697 -0.0952 -0.1670
  530SOL    HW1 1589   1.214   0.918   2.026 -2.4849 -0.5991  2.1172
  530SOL    HW2 1590   1.150   0.947   2.173  1.6374  0.8432  0.6484
  531SOL     OW 1591   0.969   2.244   0.069 -0.0234  0.2587  0.1153
  531SOL    HW1 1592   0.998   2.148   0.093 -1.6369 -2.4385 -0.3535
  531SOL    HW2 1593   0.990   2.312   0.147  1.5047  1.5370 -0.7706
  532SOL     OW 1594   2.546   0.780   2.282  0.0613  0.0800  0.3516
  532SOL    HW1 1595   2.554   0.867   2.227 -1.3572 -0.9701  0.1343
  532SOL    HW2 1596   2.614   0.778   2.358  1.2592 -0.8163  2.9753
  533SOL     OW 1597   3.002   0.207   1.790 -0.1169  0.7483 -0.3483
  533SOL    HW1 1598   2.929   0.162   1.851 -2.4948  0.5243  1.8590
  533SOL    HW2 1599   3.069   0.247   1.851 -0.5868 -2.2166 -3.0088
  534SOL     OW 1600   2.552   0.049   0.209 -0.3395 -0.2767  0.3893
  534SOL    HW1 1601   2.626   0.100   0.255 -5.6108  0.3002 -1.3943
  534SOL    HW2 1602   2.509   0.109   0.140  0.2386 -1.1274  0.9261
  535SOL     OW 1603   0.407   0.202   0.104 -0.3724  0.2057 -0.7029
  535SOL    HW1 1604   0.373   0.275   0.171  0.0780  0.8050 -1.1169
  535SOL    HW2 1605   0.331   0.165   0.048  0.4691  0.7494 -1.1869
  536SOL     OW 1606   0.917   1.931   1.621  0.5008 -0.1872  0.0148
  536SOL    HW1 1607   0.949   1.945   1.716  1.6615 -0.0822  2.1918
  536SOL    HW2 1608   0.845   1.998   1.601 -0.0073 -0.7201 -0.8451
  537SOL     OW 1609   0.010   2.558   1.702  0.5964  0.9068  0.4027
  537SOL    HW1 1610   3.025   2.602   1.710 -0.7411 -0.4768 -3.3566
  537SOL    HW2 1611   3.106   2.468   1.732  0.1030 -1.3157 -0.0611
  538SOL     OW 1612   0.604   2.344   0.434 -0.2743  0.1496  0.3643
  538SOL    HW1 1613   0.699   2.317   0.457  0.4695 -0.7132 -0.0957
  538SOL    HW2 1614   0.564   2.262   0.387 -1.2186 -1.8954 -1.7244
  539SOL     OW 1615   2.070   1.194   2.299 -0.7757 -0.0349 -0.4325
  539SOL    HW1 1616   2.068   1.146   2.387 -2.7040  3.1631 -0.7344
  539SOL    HW2 1617   2.147   1.165   2.235  1.3413 -0.1161 -2.2363
  540SOL     OW 1618   1.878   0.761   2.970 -0.5644 -0.1555 -0.5303
  540SOL    HW1 1619   1.953   0.762   3.041 -0.8251  2.1479  1.3730
  540SOL    HW2 1620   1.898   0.843   2.902 -0.1191  0.5863 -0.7675
  541SOL     OW 1621   0.576   0.650   2.613 -0.1396 -0.5046  0.1016
  541SOL    HW1 1622   0.497   0.680   2.557 -0.8655 -2.7823  1.8873
  541SOL    HW2 1623   0.579   0.689   2.705  0.6952 -2.8898  1.6297
  542SOL     OW 1624   1.409   2.463   1.951  0.1979 -0.5041  0.1591
  542SOL    HW1 1625   1.317   2.502   1.965  1.8875 -0.1173  0.9092
  542SOL    HW2 1626   1.471   2.529   1.909  0.4726  1.1590  1.0099
  543SOL     OW 1627   0.714   2.747   0.357 -0.2591  0.5288  0.4056
  543SOL    HW1 1628   0.648   2.671   0.347  4.0390  0.4694 -2.6431
  543SOL    HW2 1629   0.683   2.813   0.424 -0.3353 -1.5234 -1.0210
  544SOL     OW 1630   2.609   1.981   2.347  0.4552  0.0623  0.6123
  544SOL    HW1 1631   2.640   2.055   2.286  1.7261  3.7620 -2.2202
  544SOL    HW2 1632   2.645   1.988   2.440  1.1874 -0.4881  0.4106
  545SOL     OW 1633   1.296   1.585   1.848  0.0831 -0.1581  0.2623
  545SOL    HW1 1634   1.292   1.592   1.949 -0.0332  0.5015  0.3083
  545SOL    HW2 1635   1.210   1.620   1.800 -0.4774 -0.9854 -0.1566
  546SOL     OW 1636   3.067   0.273   2.523  0.1060  0.2929  0.2737
  546SOL    HW1 1637   3.045   0.186   2.576 -1.0825 -2.4434 -1.2282
  546SOL    HW2 1638   0.028   0.252   2.456 -4.4829  0.9212  1.1389
  547SOL     OW 1639   1.284   0.263   1.056  0.1807 -0.3463 -0.0259
  547SOL    HW1 1640   1.336   0.331   1.113 -1.9896 -0.4147 -3.0849
  547SOL    HW2 1641   1.320   0.170   1.069  2.9806  3.1291 -2.4236
  548SOL     OW 1642   1.336   2.091   3.088 -0.5295  0.3143  0.1153
  548SOL    HW1 1643   1.360   2.126   0.075  2.9917 -0.2489  2.2705
  548SOL    HW2 1644   1.277   2.155   3.039 -1.2922 -1.7545  1.5150
  549SOL     OW 1645   2.301   0.901   0.093  0.4680 -0.9421  0.1016
  549SOL    HW1 1646   2.250   0.982   0.055  0.9597 -0.5819  2.6874
  549SOL    HW2 1647   2.312   0.915   0.191 -0.7971  2.0079  0.6596
  550SOL     OW 1648   2.600   2.120   0.855  0.2127 -0.3367  0.3214
  550SOL    HW1 1649   2.524   2.174   0.816  0.5439 -1.9912  0.4414
  550SOL    HW2 1650   2.605   2.139   0.951  1.1233 -1.8816 -2.0553
  551SOL     OW 1651   0.994   0.449   1.281 -0.3494  0.0440 -0.3558
  551SOL    HW1 1652   0.965   0.368   1.335 -0.8900 -1.1869  2.1409
  551SOL    HW2 1653   1.046   0.510   1.346 -1.6954  0.1461  0.6444
  552SOL     OW 1654   0.053   1.347   2.908 -0.6307  0.4265 -0.0469
  552SOL    HW1 1655   0.122   1.405   2.854 -2.9526  1.8588 -1.8875
  552SOL    HW2 1656   0.052   1.371   3.008  2.0949 -1.2722 -1.5393
  553SOL     OW 1657   2.440   2.613   0.443  0.9199  0.7111  0.4222
  553SOL    HW1 1658   2.534   2.623   0.451 -4.5655  2.3152  2.4801
  553SOL    HW2 1659   2.392   2.698   0.409 -2.4283  1.5089  0.8948
  554SOL     OW 1660   2.342   1.124   1.814 -0.8761 -0.0332 -0.1143
  554SOL    HW1 1661   2.250   1.129   1.859  0.7264  1.2261  2.4061
  554SOL    HW2 1662   2.370   1.031   1.781 -1.7819  0.8654 -1.9161
  555SOL     OW 1663   0.940   2.078   2.175  0.6758  0.2418  0.2464
  555SOL    HW1 1664   1.034   2.041   2.173 -0.4385 -0.1968  2.7196
  555SOL    HW2 1665   0.917   2.092   2.272 -1.6294 -1.3565 -5.0728
  556SOL     OW 1666   1.098   1.166   1.727  0.4007 -0.2263 -0.2658
  556SOL    HW1 1667   1.188   1.219   1.732  5.0535 -0.8356  0.7506
  556SOL    HW2 1668   1.119   1.076   1.687 -0.4313  1.2820  2.4653
  557SOL     OW 1669   1.292   0.170   1.384  0.1427  0.6978 -0.0057
  557SOL    HW1 1670   1.362   0.212   1.327  2.0997 -1.2780 -1.4413
  557SOL    HW2 1671   1.237   0.240   1.435  1.3071  0.4525  0.4280
  558SOL     OW 1672   0.717   0.357   2.262  0.3544 -0.5423  0.0755
  558SOL    HW1 1673   0.765   0.339   2.353 -2.2332 -1.5258 -0.8662
  558SOL    HW2 1674   0.776   0.349   2.180 -0.1160  0.9834 -2.0441
  559SOL     OW 1675   1.378   2.742   0.270  0.8382  0.4187 -0.0423
  559SOL    HW1 1676   1.388   2.723   0.371  0.5850  1.0675  0.2402
  559SOL    HW2 1677   1.465   2.720   0.221  4.9242  2.7049 -1.0326
  560SOL     OW 1678   1.439   2.181   0.215 -0.2969  0.0157  0.4421
  560SOL    HW1 1679   1.505   2.106   0.238 -0.8472  0.1308  0.8014
  560SOL    HW2 1680   1.493   2.259   0.162  2.7703  1.8178 -0.1458
  561SOL     OW 1681   1.511   0.155   0.794  0.0917  0.0897  0.1335
  561SOL    HW1 1682   1.543   0.135   0.889  1.3360 -1.1920  0.5619
  561SOL    HW2 1683   1.439   0.090   0.764  2.8727 -0.8557 -0.5878
  562SOL     OW 1684   0.595   0.750   1.867 -0.5997 -0.0993 -0.1128
  562SOL    HW1 1685   0.655   0.684   1.916  0.7320  0.0783  2.0454
  562SOL    HW2 1686   0.643   0.829   1.827 -0.2633  0.3247  0.5754
  563SOL     OW 1687   1.293   2.237   2.815 -0.0060 -0.3077 -0.8202
  563SOL    HW1 1688   1.297   2.160   2.745  0.0065 -2.7407  0.9700
  563SOL    HW2 1689   1.389   2.258   2.851  3.5655 -0.4388  1.3345
  564SOL     OW 1690   2.764   0.810   1.007 -0.0397 -0.3547 -0.0216
  564SOL    HW1 1691   2.869   0.816   1.013  2.9038  0.0523 -0.7424
  564SOL    HW2 1692   2.717   0.892   1.043  2.2599  0.2903 -0.8073
  565SOL     OW 1693   1.262   1.181   0.071 -0.0851  0.3822  0.1151
  565SOL    HW1 1694   1.268   1.284   0.050 -3.9359  3.0017 -0.1687
  565SOL    HW2 1695   1.346   1.127   0.055 -1.5603 -2.0253 -2.0140
  566SOL     OW 1696   2.174   2.507   3.030 -0.2032 -0.0728 -0.2437
  566SOL    HW1 1697   2.250   2.576   3.036 -1.9517 -1.3706  0.5971
  566SOL    HW2 1698   2.219   2.412   3.031  0.2456  0.0620  0.8229
  567SOL     OW 1699   1.756   1.014   1.293  0.4482 -0.1332  0.1460
  567SOL    HW1 1700   1.742   1.111   1.265  0.2392 -0.8456 -0.2489
  567SOL    HW2 1701   1.811   0.999   1.377 -2.1598  1.0088 -2.5720
  568SOL     OW 1702   1.514   1.360   2.515  0.0691 -0.0867 -0.2625
  568SOL    HW1 1703   1.429   1.404   2.554 -0.8786  0.8361 -2.1182
  568SOL    HW2 1704   1.577   1.352   2.592  0.5483  0.0204  0.5379
  569SOL     OW 1705   2.069   1.803   0.710  0.1001  0.1157  0.5055
  569SOL    HW1 1706   2.129   1.886   0.686  1.3928  0.7699 -0.9918
  569SOL    HW2 1707   1.978   1.838   0.750 -5.1293  1.2659  0.3149
  570SOL     OW 1708   2.646   2.191   2.193  0.3182  0.0389  0.5111
  570SOL    HW1 1709   2.742   2.194   2.160 -0.3381 -0.9163 -0.9586
  570SOL    HW2 1710   2.628   2.281   2.244  0.5347  3.5776  2.1762
  571SOL     OW 1711   2.585   1.820   1.707  0.0020 -0.1073 -0.1322
  571SOL    HW1 1712   2.647   1.895   1.739 -0.6005 -1.6909 -1.0096
  571SOL    HW2 1713   2.489   1.852   1.719 -1.4406  0.4160  2.9865
  572SOL     OW 1714   1.454   2.540   3.071 -0.4597  0.3182  0.0317
  572SOL    HW1 1715   1.361   2.531   3.033  2.5518 -0.8136  1.0535
  572SOL    HW2 1716   1.523   2.566   2.996  1.4144 -0.8640  4.0838
  573SOL     OW 1717   1.816   2.012   1.272 -0.3260  0.2380 -0.2762
  573SOL    HW1 1718   1.909   2.055   1.264 -2.1135  1.1615 -1.2447
  573SOL    HW2 1719   1.803   1.992   1.373  2.1086 -1.0402  1.5082
  574SOL     OW 1720   0.984   2.909   1.447 -0.3017  0.5655 -0.4198
  574SOL    HW1 1721   0.927   2.904   1.531  1.8651 -0.0710  3.0324
  574SOL    HW2 1722   1.064   2.966   1.468  2.5250 -1.1407  0.1990
  575SOL     OW 1723   0.817   0.618   0.918 -0.4279 -0.5185 -0.2782
  575SOL    HW1 1724   0.915   0.597   0.900 -0.7430 -0.8000  0.1162
  575SOL    HW2 1725   0.789   0.707   0.876  0.2576 -0.0106  1.3742
  576SOL     OW 1726   2.503   0.460   1.424  0.1799 -0.5267  0.2275
  576SOL    HW1 1727   2.590   0.435   1.372 -1.6977 -0.6071  1.7354
  576SOL    HW2 1728   2.521   0.475   1.521 -1.1124 -0.0638  2.5845
  577SOL     OW 1729   2.381   0.371   2.724 -0.0249  0.1121  0.0350
  577SOL    HW1 1730   2.479   0.389   2.727  1.1398  1.1476 -0.3698
  577SOL    HW2 1731   2.331   0.442   2.669 -1.6978 -1.2181  0.3377
  578SOL     OW 1732   1.844   1.806   2.091 -0.0390  0.3587  0.8350
  578SOL    HW1 1733   1.843   1.714   2.046  1.3487 -2.2203 -1.8449
  578SOL    HW2 1734   1.824   1.874   2.021  0.6886  0.0747  0.6659
  579SOL     OW 1735   0.799   1.695   1.175 -0.3195 -0.1150 -0.7761
  579SOL    HW1 1736   0.866   1.768   1.204 -2.5973  0.3678 -1.0152
  579SOL    HW2 1737   0.820   1.661   1.081 -1.6399  1.4963 -0.9262
  580SOL     OW 1738   1.412   2.646   2.652  0.4499 -0.2019  0.2457
  580SOL    HW1 1739   1.341   2.602   2.708 -0.0190 -0.3472  2.1571
  580SOL    HW2 1740   1.426   2.741   2.688  2.2285 -0.1707 -0.1034
  581SOL     OW 1741   0.750   0.729   2.214 -0.0835  0.0962  0.4086
  581SOL    HW1 1742   0.735   0.782   2.300  0.3364 -0.2256 -2.0780
  581SOL    HW2 1743   0.667   0.675   2.197  1.0283  0.9170  0.0473
  582SOL     OW 1744   0.479   0.863   0.811  0.1686  0.4938  0.3880
  582SOL    HW1 1745   0.434   0.774   0.832 -2.1046  1.4988 -1.6177
  582SOL    HW2 1746   0.403   0.934   0.791 -1.0789  2.0005 -0.2861
  583SOL     OW 1747   0.733   1.633   1.971  0.9000  0.3770 -0.1215
  583SOL    HW1 1748   0.792   1.689   2.038  0.9112  2.2969  0.8072
  583SOL    HW2 1749   0.683   1.558   2.022 -0.4287  0.5089  1.8534
  584SOL     OW 1750   2.267   2.810   0.377  0.2013 -0.4358 -0.3350
  584SOL    HW1 1751   2.219   2.787   0.290 -0.7116  1.3442 -1.4397
  584SOL    HW2 1752   2.264   2.912   0.387 -0.1034 -1.2413 -2.5121
  585SOL     OW 1753   2.273   0.618   2.932  0.4509 -0.0260  0.4306
  585SOL    HW1 1754   2.339   0.702   2.935  0.4563  2.6237  0.5775
  585SOL    HW2 1755   2.201   0.632   3.002 -0.0182  0.4772  1.5670
  586SOL     OW 1756   0.688   1.856   0.365 -0.2916  0.4357 -0.3004
  586SOL    HW1 1757   0.603   1.813   0.409 -1.7963 -0.8801 -0.2757
  586SOL    HW2 1758   0.773   1.849   0.420 -0.5948  1.0680 -2.1648
  587SOL     OW 1759   1.547   2.081   0.983  0.6703 -0.1918  0.4091
  587SOL    HW1 1760   1.647   2.080   0.960 -2.0901 -2.3950  0.5276
  587SOL    HW2 1761   1.520   2.169   1.030  1.2796 -1.4378 -2.4394
  588SOL     OW 1762   0.590   0.369   1.131  0.3587 -0.3230 -0.0299
  588SOL    HW1 1763   0.664   0.436   1.144 -2.3079 -1.2837 -1.4736
  588SOL    HW2 1764   0.584   0.350   1.032  1.4048 -0.0530 -0.2562
  589SOL     OW 1765   1.408   0.032   1.157 -0.0310 -0.0671 -0.0127
  589SOL    HW1 1766   1.478   3.063   1.164  2.2443 -1.0849 -2.5750
  589SOL    HW2 1767   1.350   0.034   1.238  1.0934  0.1924 -4.6047
  590SOL     OW 1768   1.493   0.977   0.295 -0.0688 -0.0630  0.3452
  590SOL    HW1 1769   1.549   0.894   0.312 -0.0763  1.8420 -0.7998
  590SOL    HW2 1770   1.516   1.021   0.207  1.4417  0.0926 -0.8187
  591SOL     OW 1771   2.143   2.254   1.979  0.5211  0.0993 -0.5993
  591SOL    HW1 1772   2.163   2.277   2.076 -2.2070 -0.5795 -0.3392
  591SOL    HW2 1773   2.197   2.180   1.946 -1.2856  1.3459  1.3809
  592SOL     OW 1774   1.505   1.972   1.441 -0.1982  0.2593 -0.1475
  592SOL    HW1 1775   1.565   1.896   1.474  1.0850  0.9552  0.6624
  592SOL    HW2 1776   1.429   1.928   1.384  0.2594 -0.4162 -0.5057
  593SOL     OW 1777   0.876   0.150   0.559 -0.2720 -0.1308 -0.0452
  593SOL    HW1 1778   0.814   0.138   0.640 -0.2778 -0.5199 -2.1399
  593SOL    HW2 1779   0.931   0.231   0.579 -0.7239 -0.9102 -1.1213
  594SOL     OW 1780   0.258   0.794   2.005  0.1893  0.1039 -0.6691
  594SOL    HW1 1781   0.170   0.831   1.966 -1.5503  1.5767 -1.1473
  594SOL    HW2 1782   0.309   0.748   1.932 -0.3998  0.9655  0.2551
  595SOL     OW 1783   2.747   2.907   0.711  0.1288  0.1609  0.3386
  595SOL    HW1 1784   2.814   2.977   0.676 -2.7076  1.3734  0.6319
  595SOL    HW2 1785   2.780   2.884   0.807  0.1654 -1.6684 -0.4047
  596SOL     OW 1786   0.004   0.437   1.509 -0.1642  0.2593  0.0956
  596SOL    HW1 1787   0.062   0.518   1.511 -3.0287 -2.8296  3.0761
  596SOL    HW2 1788   0.040   0.378   1.435  0.2082 -0.0264  0.0567
  597SOL     OW 1789   2.223   1.154   0.729  0.4892  0.8971  0.0615
  597SOL    HW1 1790   2.257   1.246   0.748  1.1240 -1.8808 -0.2056
  597SOL    HW2 1791   2.139   1.157   0.674 -1.2671 -1.1525  2.6943
  598SOL     OW 1792   0.544   0.183   1.784  0.2843 -0.3610 -0.4094
  598SOL    HW1 1793   0.492   0.108   1.832  1.7183 -0.5726 -2.5611
  598SOL    HW2 1794   0.488   0.272   1.792  1.4745  2.6524 -1.1973
  599SOL     OW 1795   2.825   1.373   3.084  0.0484 -0.0152  0.4273
  599SOL    HW1 1796   2.903   1.313   3.068 -0.1164 -1.6069 -0.0710
  599SOL    HW2 1797   2.796   1.380   0.073 -0.3998  4.0269 -0.2985
  600SOL     OW 1798   1.087   0.994   3.055  0.0073 -0.0701  0.1480
  600SOL    HW1 1799   1.023   1.073   3.026 -2.9514  3.9560 -1.8345
  600SOL    HW2 1800   1.160   1.025   0.004  0.6598  0.7203 -1.1930
  601SOL     OW 1801   1.147   1.181   2.784  0.6198  0.1509  0.8536
  601SOL    HW1 1802   1.156   1.275   2.743  0.8253  2.2385 -0.3810
  601SOL    HW2 1803   1.058   1.176   2.839 -0.6969 -1.1310 -0.7512
  602SOL     OW 1804   1.180   3.109   1.528 -0.5783  0.4232 -0.6055
  602SOL    HW1 1805   1.236   3.068   1.606 -0.3693 -3.8784  1.4733
  602SOL    HW2 1806   1.230   0.058   1.461  0.2222  0.4869  0.7043
  603SOL     OW 1807   0.929   2.951   2.464  0.6092 -0.1451 -0.1011
  603SOL    HW1 1808   0.846   2.950   2.515  2.8349  1.1802  2.0126
  603SOL    HW2 1809   0.987   2.865   2.470 -1.0344 -1.7607 -0.1298
  604SOL     OW 1810   2.825   0.123   2.007 -0.6999 -0.2384 -0.0606
  604SOL    HW1 1811   2.789   0.213   2.044  0.5832  0.6176  1.1108
  604SOL    HW2 1812   2.919   0.111   2.038 -0.6787 -1.1906  2.2391
  605SOL     OW 1813   2.397   2.292   1.343 -0.2437  0.5663  0.0014
  605SOL    HW1 1814   2.435   2.223   1.408  1.7564  2.1198 -0.2451
  605SOL    HW2 1815   2.309   2.318   1.381  2.8799 -0.8039  0.5197
  606SOL     OW 1816   2.916   1.779   2.931  0.0415  0.2094 -0.0905
  606SOL    HW1 1817   2.894   1.870   2.887 -0.2771  0.6594  0.4046
  606SOL    HW2 1818   3.015   1.759   2.940  1.7525  1.7685 -0.5937
  607SOL     OW 1819   1.057   0.347   0.700  0.1400 -0.3439  0.0767
  607SOL    HW1 1820   1.117   0.426   0.684 -0.0043 -0.1803  1.3695
  607SOL    HW2 1821   1.110   0.263   0.717 -2.0690  3.7802 -1.7273
  608SOL     OW 1822   1.592   1.482   2.290 -0.4691 -0.5408 -0.5689
  608SOL    HW1 1823   1.588   1.430   2.381 -0.8168  1.0522 -0.8160
  608SOL    HW2 1824   1.634   1.576   2.310 -0.8825  2.4584 -3.4142
  609SOL     OW 1825   2.754   0.590   0.833 -0.0296 -0.0641 -0.1686
  609SOL    HW1 1826   2.748   0.674   0.894 -1.1792 -0.5880  2.4651
  609SOL    HW2 1827   2.670   0.584   0.776  2.9605  0.4522  0.3980
  610SOL     OW 1828   0.624   2.476   3.046  0.0740  0.2753  0.3872
  610SOL    HW1 1829   0.686   2.551   3.053 -2.4767 -4.0785  0.7045
  610SOL    HW2 1830   0.657   2.392   3.089  0.0220  3.9279 -1.0533
  611SOL     OW 1831   1.847   1.366   0.710 -0.5837 -0.2140  0.6707
  611SOL    HW1 1832   1.905   1.424   0.644  3.0322  1.8451 -0.2613
  611SOL    HW2 1833   1.791   1.430   0.767  0.1646  1.3501 -0.6210
  612SOL     OW 1834   0.892   2.479   2.449  0.4292 -0.0468 -0.2253
  612SOL    HW1 1835   0.967   2.418   2.480 -2.2235 -1.6850 -0.7608
  612SOL    HW2 1836   0.913   2.516   2.359  0.1807  1.4355 -0.9685
  613SOL     OW 1837   1.376   1.701   0.324 -0.0324 -0.0874  0.0606
  613SOL    HW1 1838   1.448   1.668   0.381 -0.4852  2.2368  0.2404
  613SOL    HW2 1839   1.338   1.790   0.361  2.4648  2.4665 -0.2679
  614SOL     OW 1840   2.560   2.349   1.699  0.5671  0.4913 -0.4844
  614SOL    HW1 1841   2.617   2.380   1.620 -1.7498  1.3742 -1.1535
  614SOL    HW2 1842   2.490   2.284   1.667 -1.9538  2.4499  2.3750
  615SOL     OW 1843   2.413   1.256   3.072 -0.5721 -0.0653 -0.7138
  615SOL    HW1 1844   2.471   1.272   2.994 -0.4869 -0.5715  0.3253
  615SOL    HW2 1845   2.456   1.282   0.054  2.5856 -0.3227  1.2471
  616SOL     OW 1846   1.663   0.146   1.048  0.1809  0.8478 -0.2748
  616SOL    HW1 1847   1.719   0.203   1.107 -2.6452 -0.0777 -0.2980
  616SOL    HW2 1848   1.589   0.103   1.106 -1.2011  2.4322  0.7824
  617SOL     OW 1849   0.909   1.193   2.905  0.3697 -0.1146  0.3271
  617SOL    HW1 1850   0.859   1.205   2.818 -0.2371 -0.6424  0.2910
  617SOL    HW2 1851   0.904   1.270   2.971  0.0755  1.6566  1.5604
  618SOL     OW 1852   0.449   0.624   1.434  0.1356  0.3999 -0.3860
  618SOL    HW1 1853   0.426   0.556   1.363 -2.3524 -1.0040 -0.9171
  618SOL    HW2 1854   0.511   0.695   1.394  0.0610 -2.1935  1.9347
  619SOL     OW 1855   3.029   0.899   1.576  0.4181  0.1640 -0.1603
  619SOL    HW1 1856   3.022   0.832   1.501  2.5155 -0.7535  0.5297
  619SOL    HW2 1857   3.082   0.856   1.654 -0.2034  1.0935 -0.1409
  620SOL     OW 1858   1.964   1.179   2.926  0.0832 -0.0848  0.1151
  620SOL    HW1 1859   1.918   1.122   2.854  2.2517  1.6136 -2.7132
  620SOL    HW2 1860   1.920   1.268   2.930  2.0044 -3.1915  0.7493
  621SOL     OW 1861   2.418   0.044   1.217 -0.0884 -0.1376 -0.3303
  621SOL    HW1 1862   2.492   0.096   1.164  2.2988  1.4607  0.4748
  621SOL    HW2 1863   2.354   0.113   1.251 -0.2116 -0.0251 -0.2237
  622SOL     OW 1864   1.419   0.619   2.238  0.3442 -0.3125  0.5603
  622SOL    HW1 1865   1.492   0.650   2.174  0.3678  0.7182 -0.1571
  622SOL    HW2 1866   1.443   0.638   2.334  0.2963 -0.9557 -0.2872
  623SOL     OW 1867   1.005   0.533   2.805  0.0685 -0.0922 -0.2918
  623SOL    HW1 1868   0.944   0.552   2.726  1.2595  0.4393  0.6212
  623SOL    HW2 1869   1.043   0.624   2.842 -0.3718 -1.0234 -1.2429
  624SOL     OW 1870   1.764   0.548   0.562 -0.4481  0.1269 -0.4839
  624SOL    HW1 1871   1.735   0.593   0.647  2.5007 -1.2675  0.0229
  624SOL    HW2 1872   1.834   0.476   0.583 -0.4322 -0.8532  1.8368
  625SOL     OW 1873   0.895   1.588   0.658 -0.0730  0.2868 -0.0313
  625SOL    HW1 1874   0.901   1.565   0.759 -0.5760  0.7360  1.2113
  625SOL    HW2 1875   0.964   1.539   0.606  0.8106  0.7786  1.1020
  626SOL     OW 1876   1.610   1.046   2.726  0.4964 -0.1914  0.5653
  626SOL    HW1 1877   1.614   1.139   2.680 -2.0977  1.6228  3.3711
  626SOL    HW2 1878   1.516   1.035   2.770  1.6765 -0.8647  0.5496
  627SOL     OW 1879   0.798   0.264   1.795 -0.5659  0.2071 -0.1759
  627SOL    HW1 1880   0.854   0.202   1.735  3.1708  0.1436 -1.9335
  627SOL    HW2 1881   0.705   0.223   1.805  0.9000  2.2465 -0.6133
  628SOL     OW 1882   2.378   0.473   2.343 -0.3099 -0.1468  0.1658
  628SOL    HW1 1883   2.456   0.491   2.278  2.1064  0.8837 -0.7413
  628SOL    HW2 1884   2.358   0.549   2.407 -1.9860 -0.2833  3.9010
  629SOL     OW 1885   0.971   1.440   3.035  0.0006 -0.8560  0.0581
  629SOL    HW1 1886   1.071   1.442   3.060 -1.2265 -0.2016  1.6813
  629SOL    HW2 1887   0.925   1.525   3.078 -1.0379 -0.7139  1.9605
  630SOL     OW 1888   1.164   0.257   2.313  0.4427 -0.4943  0.5724
  630SOL    HW1 1889   1.235   0.319   2.350 -0.1326 -0.6814  1.7984
  630SOL    HW2 1890   1.115   0.203   2.385  1.7562 -1.5469 -1.3776
  631SOL     OW 1891   2.730   1.407   1.019 -0.4597  0.3132  0.6000
  631SOL    HW1 1892   2.759   1.506   1.013 -1.0714 -0.2688  0.9184
  631SOL    HW2 1893   2.629   1.394   1.035 -1.4570 -0.4471 -0.5777
  632SOL     OW 1894   2.496   1.656   0.786  0.0768 -0.3400  0.3352
  632SOL    HW1 1895   2.416   1.705   0.822  1.1651 -2.6792  0.7268
  632SOL    HW2 1896   2.573   1.720   0.783  0.7511  0.5897 -2.6211
  633SOL     OW 1897   1.047   1.139   0.846  0.1493  0.7251 -0.1035
  633SOL    HW1 1898   1.146   1.155   0.863  0.7213  1.4226 -1.2586
  633SOL    HW2 1899   0.984   1.191   0.904 -1.5618  0.8562  0.4016
  634SOL     OW 1900   1.842   3.090   0.925  0.0592 -0.2130  0.1302
  634SOL    HW1 1901   1.795   0.059   0.974 -1.0395  0.6106 -0.6087
  634SOL    HW2 1902   1.796   2.999   0.942  1.4288 -1.1667 -1.2445
  635SOL     OW 1903   1.777   0.559   1.337 -0.4723 -0.2650 -0.0870
  635SOL    HW1 1904   1.864   0.608   1.358  1.1369  0.8720 -0.8065
  635SOL    HW2 1905   1.733   0.524   1.423 -0.5872  0.4244 -0.9079
  636SOL     OW 1906   1.361   0.871   0.669 -0.1956  1.1042 -0.2208
  636SOL    HW1 1907   1.332   0.943   0.604 -2.8100 -1.2510  1.2170
  636SOL    HW2 1908   1.407   0.793   0.615  2.3280 -0.5288  1.3499
  637SOL     OW 1909   1.586   2.334   0.063 -0.2007  0.4668 -0.2946
  637SOL    HW1 1910   1.523   2.407   0.020 -1.3254  1.0104 -1.7375
  637SOL    HW2 1911   1.677   2.337   0.014  2.5331 -3.2208 -1.5406
  638SOL     OW 1912   1.124   2.907   2.995 -0.2612 -0.0738  0.3450
  638SOL    HW1 1913   1.087   2.819   3.032  2.1971  3.8586  0.3553
  638SOL    HW2 1914   1.060   2.944   2.926  1.5416  0.7828 -1.8226
  639SOL     OW 1915   1.145   2.059   1.470  0.4837  0.4949  0.5395
  639SOL    HW1 1916   1.205   1.998   1.421  0.7856  0.4040  2.9145
  639SOL    HW2 1917   1.068   2.005   1.507  2.5460  3.4700 -2.9177
  640SOL     OW 1918   0.379   2.992   0.174  0.2170  0.3903 -0.3012
  640SOL    HW1 1919   0.390   2.914   0.111  0.4947  2.6579  0.2027
  640SOL    HW2 1920   0.470   3.034   0.194 -1.0439 -1.1339  0.2564
  641SOL     OW 1921   0.015   0.341   0.235 -0.4046  0.2174 -0.2280
  641SOL    HW1 1922   0.010   0.264   0.303  0.3461  1.5988 -1.9748
  641SOL    HW2 1923   0.109   0.382   0.242 -2.6920  2.4952 -1.2681
  642SOL     OW 1924   0.423   1.541   1.155  0.5009 -0.3886  0.2243
  642SOL    HW1 1925   0.439   1.642   1.153  0.5026  0.5352  0.6587
  642SOL    HW2 1926   0.327   1.521   1.128  0.7178  1.9255 -1.3933
  643SOL     OW 1927   0.593   1.930   2.567  0.1564  0.4988 -0.0224
  643SOL    HW1 1928   0.666   1.979   2.618  1.2919  1.6520 -0.7649
  643SOL    HW2 1929   0.583   1.981   2.480  2.3451  1.0789 -0.9426
  644SOL     OW 1930   1.626   2.502   0.387  0.2681 -0.5701 -0.2296
  644SOL    HW1 1931   1.587   2.415   0.361  1.8126 -2.8110  1.2059
  644SOL    HW2 1932   1.603   2.521   0.484  1.2999  1.1782  0.4820
  645SOL     OW 1933   1.742   2.183   1.796  0.4918 -0.3704 -0.1596
  645SOL    HW1 1934   1.645   2.196   1.786  2.4588 -1.9494 -1.9968
  645SOL    HW2 1935   1.789   2.262   1.767 -2.8450 -3.9907  0.9022
  646SOL     OW 1936   0.970   2.829   0.316  0.5085  0.0884 -0.3845
  646SOL    HW1 1937   0.982   2.904   0.384 -0.5967 -0.9759  0.8143
  646SOL    HW2 1938   0.871   2.796   0.316 -0.2302  0.2334 -1.8232
  647SOL     OW 1939   0.178   0.011   2.020 -0.0216 -0.4965 -0.4256
  647SOL    HW1 1940   0.135   0.102   1.997  1.4413  0.0820  0.9576
  647SOL    HW2 1941   0.157   3.093   2.115 -2.3739  1.6712 -0.9030
  648SOL     OW 1942   2.800   1.310   0.772  0.2955 -0.2297 -0.2357
  648SOL    HW1 1943   2.769   1.214   0.742 -0.0039 -3.1707 -0.1620
  648SOL    HW2 1944   2.757   1.335   0.864  1.4191  2.7461  3.4814
  649SOL     OW 1945   1.940   2.681   2.573  0.0657  0.1599  0.5069
  649SOL    HW1 1946   1.901   2.610   2.512  1.0367  1.1037  0.0807
  649SOL    HW2 1947   1.928   2.773   2.528 -0.4518  4.6393 -1.1217
  650SOL     OW 1948   2.422   1.397   1.808 -0.3511  0.4926  0.4495
  650SOL    HW1 1949   2.402   1.301   1.827 -2.3216  1.3344  1.0026
  650SOL    HW2 1950   2.517   1.423   1.833 -0.3940  2.0099  0.5760
  651SOL     OW 1951   1.395   1.627   2.859  0.3771  0.1980  0.2056
  651SOL    HW1 1952   1.330   1.705   2.833 -0.5389 -2.2856  0.7807
  651SOL    HW2 1953   1.451   1.655   2.942 -1.1370 -0.6428  1.9026
  652SOL     OW 1954   0.650   2.969   2.592  0.1239  0.0344  0.7187
  652SOL    HW1 1955   0.667   2.891   2.657 -2.5811 -3.0945  0.0447
  652SOL    HW2 1956   0.639   3.060   2.637 -0.5345  1.7077  0.5643
  653SOL     OW 1957   2.167   2.075   0.962  0.3041  0.1126 -0.3373
  653SOL    HW1 1958   2.245   2.021   0.921  0.5170  0.6400 -0.6783
  653SOL    HW2 1959   2.194   2.153   1.021 -1.7500  0.8935 -0.6665
  654SOL     OW 1960   2.584   2.825   2.171 -0.2372  0.0026  0.0006
  654SOL    HW1 1961   2.549   2.861   2.262  0.6047  3.0556  1.7024
  654SOL    HW2 1962   2.607   2.904   2.107 -0.1729 -1.3624  1.1307
  655SOL     OW 1963   2.780   2.200   1.451  0.0843  0.0711  0.0105
  655SOL    HW1 1964   2.874   2.169   1.425 -0.2969  0.9304  0.9126
  655SOL    HW2 1965   2.754   2.282   1.396  2.3599 -3.5012  1.3688
  656SOL     OW 1966   2.748   1.671   3.108  0.5492 -0.0372 -0.4637
  656SOL    HW1 1967   2.798   1.714   3.031 -4.4753 -1.6022 -3.9051
  656SOL    HW2 1968   2.743   1.569   3.100  1.1568  2.0081 -0.3355
  657SOL     OW 1969   0.395   1.084   0.437 -0.1027 -0.1648  0.2131
  657SOL    HW1 1970   0.300   1.111   0.422 -0.2232 -0.8073 -0.1208
  657SOL    HW2 1971   0.406   0.980   0.442  2.1887 -0.6009 -1.3495
  658SOL     OW 1972   1.363   1.435   1.315 -0.8627 -0.4038  0.2620
  658SOL    HW1 1973   1.433   1.511   1.333  0.8245 -1.0558  1.8692
  658SOL    HW2 1974   1.271   1.479   1.305  3.5437 -1.3593  0.7272
  659SOL     OW 1975   0.812   0.087   1.206 -0.3016 -0.9255  0.2429
  659SOL    HW1 1976   0.851   0.139   1.126  1.0839  0.6487 -0.9611
  659SOL    HW2 1977   0.850   0.127   1.298  0.0259 -0.1215  2.2518
  660SOL     OW 1978   2.440   0.890   0.954 -0.1639 -0.8815 -0.5137
  660SOL    HW1 1979   2.487   0.878   0.863 -0.5388  1.0470  0.8114
  660SOL    HW2 1980   2.453   0.814   1.019  0.3767  3.1332  2.7565
  661SOL     OW 1981   0.421   1.660   0.025 -0.0307  0.1739 -0.2585
  661SOL    HW1 1982   0.488   1.731   3.109  0.4663 -3.8342 -3.0119
  661SOL    HW2 1983   0.407   1.646   0.127 -3.0093  0.2959 -0.7771
  662SOL     OW 1984   2.682   0.776   1.982  0.1679  0.1159 -0.0391
  662SOL    HW1 1985   2.743   0.814   2.053 -0.5865 -2.5700 -0.4397
  662SOL    HW2 1986   2.699   0.804   1.888  2.1712 -1.6773  1.9862
  663SOL     OW 1987   2.210   1.346   1.376 -0.8424  0.0326 -0.0862
  663SOL    HW1 1988   2.203   1.333   1.276  2.0005  0.6750 -1.0257
  663SOL    HW2 1989   2.305   1.335   1.409 -0.3340 -0.0847  0.1125
  664SOL     OW 1990   0.282   0.088   1.225 -0.0845  0.2416 -0.1180
  664SOL    HW1 1991   0.383   0.078   1.214  0.8600 -1.9428 -1.1750
  664SOL    HW2 1992   0.229   0.002   1.222  0.3588  0.6302 -1.7792
  665SOL     OW 1993   1.546   0.193   3.077 -0.7880 -0.0436 -0.5329
  665SOL    HW1 1994   1.645   0.207   3.048  3.2892  0.7575  0.7850
  665SOL    HW2 1995   1.538   0.123   0.035 -2.8965  1.3864 -2.3106
  666SOL     OW 1996   0.365   0.296   2.168 -0.0457  0.2434 -0.4280
  666SOL    HW1 1997   0.429   0.376   2.152 -1.5881  0.3056 -1.8193
  666SOL    HW2 1998   0.289   0.298   2.103 -0.9766  0.9616  0.8544
  667SOL     OW 1999   1.759   1.345   1.793  0.3062  0.1692 -0.7306
  667SOL    HW1 2000   1.858   1.339   1.784  1.3721  1.4821 -1.1249
  667SOL    HW2 2001   1.739   1.357   1.889 -0.7074 -0.3215 -0.3144
  668SOL     OW 2002   0.160   1.547   2.391 -0.3608  0.2880 -0.0069
  668SOL    HW1 2003   0.218   1.472   2.422  0.7976  0.1765 -1.9402
  668SOL    HW2 2004   0.173   1.552   2.285  1.4237 -1.3551 -1.3822
  669SOL     OW 2005   2.503   2.721   3.049  0.2558 -0.1903  0.0310
  669SOL    HW1 2006   2.605   2.731   3.054  2.4190  0.0896  1.0667
  669SOL    HW2 2007   2.461   2.781   0.012 -0.3524  1.5958  1.1962
  670SOL     OW 2008   2.650   1.078   2.208  0.3486  0.2482 -0.5963
  670SOL    HW1 2009   2.740   1.102   2.180 -1.6573 -1.4481  0.9773
  670SOL    HW2 2010   2.605   1.155   2.264 -1.6116  0.3094  1.3433
  671SOL     OW 2011   2.424   1.933   0.316 -0.2157 -0.4359 -0.0935
  671SOL    HW1 2012   2.522   1.899   0.312  3.7175 -1.7679 -2.2495
  671SOL    HW2 2013   2.424   2.018   0.371 -0.4369  1.1682  1.5419
  672SOL     OW 2014   1.367   1.242   2.128 -0.1282 -0.4275  0.0708
  672SOL    HW1 2015   1.431   1.264   2.047  0.8173  1.7716 -1.3423
  672SOL    HW2 2016   1.307   1.163   2.102  1.4973  0.6618 -1.4867
  673SOL     OW 2017   2.922   1.870   1.495  0.0898 -0.4606  0.3905
  673SOL    HW1 2018   2.872   1.941   1.548 -1.3151  0.8336  2.0332
  673SOL    HW2 2019   3.022   1.865   1.523  2.1963 -1.8250  0.1247
  674SOL     OW 2020   1.040   1.658   1.750  0.3966 -0.2941 -0.4706
  674SOL    HW1 2021   0.991   1.652   1.662 -1.1874 -0.3250  0.3752
  674SOL    HW2 2022   1.011   1.732   1.813 -2.3637  1.3159  0.4757
  675SOL     OW 2023   3.028   0.817   1.096 -0.1032  0.3577  0.0404
  675SOL    HW1 2024   2.989   0.773   1.179  1.6792  1.2940 -1.1515
  675SOL    HW2 2025   0.010   0.778   1.071 -0.8654 -2.8217  1.1654
  676SOL     OW 2026   3.057   1.303   0.966  0.1029 -0.0834 -0.0846
  676SOL    HW1 2027   2.991   1.322   0.893  3.6956  1.4863  2.3842
  676SOL    HW2 2028   3.038   1.214   1.010  0.3037 -0.1595 -0.6905
  677SOL     OW 2029   1.755   1.720   2.359 -0.2192  0.5566  0.3188
  677SOL    HW1 2030   1.808   1.755   2.276  1.5857  1.9131 -1.6996
  677SOL    HW2 2031   1.678   1.779   2.372  2.1911 -0.8758 -0.6223
  678SOL     OW 2032   2.836   1.668   1.041  0.4801  0.0517 -0.0353
  678SOL    HW1 2033   2.849   1.711   0.948  0.3344 -1.1511  0.9395
  678SOL    HW2 2034   2.835   1.741   1.111  3.1107 -0.9074  1.5404
  679SOL     OW 2035   0.558   2.766   0.699 -0.1115 -0.0002 -0.0250
  679SOL    HW1 2036   0.537   2.666   0.683  0.6524  0.7271  1.4054
  679SOL    HW2 2037   0.612   2.777   0.787 -0.4011 -1.8629 -2.4290
  680SOL     OW 2038   0.040   1.903   1.024  0.2729 -0.9898 -0.5101
  680SOL    HW1 2039   0.024   2.000   0.994  1.4693 -1.6960  0.5309
  680SOL    HW2 2040   0.042   1.833   0.953 -2.8533 -0.1435  4.1125
  681SOL     OW 2041   0.888   0.231   0.983  0.2453 -0.3589  0.0350
  681SOL    HW1 2042   0.970   0.289   0.973  1.8998 -1.2423 -0.9742
  681SOL    HW2 2043   0.814   0.257   0.912 -2.3698  0.1682 -3.5957
  682SOL     OW 2044   1.684   2.870   1.564  0.2272  0.4269  0.6199
  682SOL    HW1 2045   1.654   2.890   1.657  1.9494 -3.7640 -1.3024
  682SOL    HW2 2046   1.752   2.941   1.530  1.4838  0.9944 -0.9039
  683SOL     OW 2047   2.425   1.304   1.528  0.1272  0.4150  0.0849
  683SOL    HW1 2048   2.408   1.322   1.625 -1.1319  0.6345  1.3070
  683SOL    HW2 2049   2.517   1.340   1.498  2.7774 -0.0540  2.9887
  684SOL     OW 2050   3.072   1.558   1.801 -0.1419  0.2812 -0.1713
  684SOL    HW1 2051   3.012   1.509   1.737  1.4761  1.2994  2.2743
  684SOL    HW2 2052   0.060   1.567   1.770  0.5188 -0.6751  1.6060
  685SOL     OW 2053   1.942   1.758   0.318 -0.6756  0.0089  0.4619
  685SOL    HW1 2054   2.008   1.789   0.392  0.3015 -0.9496  0.8090
  685SOL    HW2 2055   2.000   1.719   0.242  2.9461 -1.1941 -5.4035
  686SOL     OW 2056   2.991   0.714   1.358  0.0768 -0.0019 -0.4410
  686SOL    HW1 2057   3.089   0.700   1.398  2.3892 -1.5706  2.4171
  686SOL    HW2 2058   2.958   0.624   1.319  1.0504 -0.9894  1.7296
  687SOL     OW 2059   1.856   3.065   2.645  0.8950 -0.2047 -0.4729
  687SOL    HW1 2060   1.930   0.025   2.646 -2.6781 -1.4631 -0.0345
  687SOL    HW2 2061   1.762   3.106   2.659 -0.9929  0.7917 -2.6097
  688SOL     OW 2062   1.296   2.115   2.515  0.6525  0.2489  0.1071
  688SOL    HW1 2063   1.376   2.176   2.521 -1.0626  2.6768  1.3738
  688SOL    HW2 2064   1.325   2.017   2.507  0.1359  0.8514 -0.2263
  689SOL     OW 2065   2.091   1.149   1.925  0.1549  0.1464 -0.7761
  689SOL    HW1 2066   2.139   1.150   2.015  2.3907  0.7054  1.2377
  689SOL    HW2 2067   1.999   1.110   1.945 -0.2629 -0.5371  2.1554
  690SOL     OW 2068   2.103   2.086   1.628 -0.0625  0.0512 -0.0543
  690SOL    HW1 2069   2.013   2.062   1.585  0.1799 -0.7955 -1.5002
  690SOL    HW2 2070   2.173   2.011   1.640 -0.3479 -1.8888  0.8940
  691SOL     OW 2071   0.484   1.770   0.521  0.1811  0.3863  0.1521
  691SOL    HW1 2072   0.465   1.860   0.569 -3.2544 -1.1599  1.9946
  691SOL    HW2 2073   0.485   1.689   0.586  1.3700 -1.2998  0.7933
  692SOL     OW 2074   2.825   3.015   2.646 -0.2701 -0.3866 -0.0145
  692SOL    HW1 2075   2.731   3.045   2.667 -3.2089 -2.4388 -1.1970
  692SOL    HW2 2076   2.832   2.929   2.592  0.3980  0.7517  0.3837
  693SOL     OW 2077   0.124   1.574   2.114 -0.6081  0.3399 -0.2698
  693SOL    HW1 2078   0.151   1.661   2.072  2.5715 -1.0310 -1.0233
  693SOL    HW2 2079   0.165   1.494   2.065 -0.8776 -0.9691  1.5830
  694SOL     OW 2080   2.458   0.265   1.959  0.2378 -0.0661 -0.5721
  694SOL    HW1 2081   2.510   0.355   1.975 -0.7346  1.1332  1.1841
  694SOL    HW2 2082   2.357   0.275   1.966  3.6266  0.3517 -0.5257
  695SOL     OW 2083   1.041   0.696   2.241 -0.1950  0.1830 -0.2204
  695SOL    HW1 2084   0.942   0.672   2.230 -0.7231 -0.8856  0.3218
  695SOL    HW2 2085   1.059   0.795   2.267 -0.3927 -0.9027  1.7209
  696SOL     OW 2086   1.861   2.663   1.585  0.2743  0.3980  0.1537
  696SOL    HW1 2087   1.907   2.683   1.673 -2.1384  0.3771  1.7464
  696SOL    HW2 2088   1.788   2.727   1.572  0.0654 -1.2975 -0.5592
  697SOL     OW 2089   1.422   0.373   2.379 -0.7458 -0.0820  0.2008
  697SOL    HW1 2090   1.399   0.395   2.476 -2.0237 -0.7566 -1.2845
  697SOL    HW2 2091   1.407   0.457   2.324  1.4370 -1.9298 -2.4368
  698SOL     OW 2092   2.242   1.784   2.487  0.0393 -0.6769 -0.0589
  698SOL    HW1 2093   2.316   1.726   2.451 -0.6381  0.2122  1.0566
  698SOL    HW2 2094   2.189   1.829   2.416  0.7599 -3.3498 -1.7674
  699SOL     OW 2095   2.088   0.717   0.044  0.2887 -0.4498 -0.4065
  699SOL    HW1 2096   2.044   0.661   0.119 -0.9355 -1.7815  0.0489
  699SOL    HW2 2097   2.162   0.770   0.088 -0.2617 -1.1809  0.1203
  700SOL     OW 2098   1.210   0.143   0.817  0.3838  0.3608 -0.0011
  700SOL    HW1 2099   1.258   0.217   0.869 -1.4525  0.5693  0.6569
  700SOL    HW2 2100   1.202   0.054   0.868 -0.4897  1.6307  0.9665
  701SOL     OW 2101   0.184   0.673   0.552  0.0654 -0.0283 -0.0445
  701SOL    HW1 2102   0.216   0.576   0.554 -0.5312 -4.0919  2.2270
  701SOL    HW2 2103   0.261   0.740   0.541  2.6697 -0.6095  2.6885
  702SOL     OW 2104   1.468   0.209   1.627 -0.5412 -0.1079  0.0537
  702SOL    HW1 2105   1.396   0.279   1.644  1.7754  0.7767 -0.4450
  702SOL    HW2 2106   1.443   0.111   1.645 -0.2635  4.3867  0.6503
  703SOL     OW 2107   2.983   1.087   1.116  0.1256  0.2728 -0.1462
  703SOL    HW1 2108   2.886   1.112   1.120  0.5451 -0.1282 -3.3712
  703SOL    HW2 2109   2.998   0.985   1.127 -0.3134 -2.4531 -0.0874
  704SOL     OW 2110   0.875   2.463   1.361  0.1657  0.4535 -0.2001
  704SOL    HW1 2111   0.950   2.514   1.316 -0.7898 -1.3275  2.3191
  704SOL    HW2 2112   0.790   2.475   1.306  0.4334 -0.4584 -0.2859
  705SOL     OW 2113   0.207   1.727   2.959  0.2330 -0.4653 -0.3939
  705SOL    HW1 2114   0.212   1.642   2.898  1.3187 -1.0699  0.9326
  705SOL    HW2 2115   0.282   1.719   3.031 -0.5936  1.7895 -0.7222
  706SOL     OW 2116   3.063   2.959   0.169 -0.1193 -0.5879 -0.4893
  706SOL    HW1 2117   2.968   3.001   0.147  2.4713 -1.6315 -3.8968
  706SOL    HW2 2118   3.073   2.926   0.263 -0.7505 -0.1335  2.3346
  707SOL     OW 2119   1.516   3.028   2.175 -0.4791 -0.8238 -0.0811
  707SOL    HW1 2120   1.559   3.076   2.093  1.1157  0.4930 -1.1530
  707SOL    HW2 2121   1.447   2.960   2.148 -1.0840  1.0282  1.8129
  708SOL     OW 2122   0.274   2.983   1.614 -0.2855 -0.5231  0.0232
  708SOL    HW1 2123   0.336   3.057   1.577 -0.6905  3.6927 -0.5856
  708SOL    HW2 2124   0.304   2.893   1.583  0.7298 -0.4486 -0.8436
  709SOL     OW 2125   3.071   0.671   1.821 -0.1668  0.0058 -0.4770
  709SOL    HW1 2126   3.101   0.763   1.864  1.0959  2.5465  1.0929
  709SOL    HW2 2127   2.973   0.651   1.850 -1.0988  0.9544 -1.1898
  710SOL     OW 2128   0.325   1.087   0.746 -0.5960 -0.4168 -0.2517
  710SOL    HW1 2129   0.337   1.182   0.783 -0.3412  0.6319 -0.6991
  710SOL    HW2 2130   0.334   1.083   0.647 -0.0950  0.4312  0.4655
  711SOL     OW 2131   2.543   3.018   1.438 -0.1837  0.4164 -0.4146
  711SOL    HW1 2132   2.491   2.929   1.447 -0.8305  0.4509 -0.5587
  711SOL    HW2 2133   2.502   3.076   1.369  0.3108 -2.6109  0.0040
  712SOL     OW 2134   0.185   2.552   2.312 -0.4585  0.2887 -0.5757
  712SOL    HW1 2135   0.154   2.471   2.264 -0.8509  3.1709 -2.3873
  712SOL    HW2 2136   0.211   2.534   2.412 -1.6288 -0.2096  0.2101
  713SOL     OW 2137   2.603   0.340   0.535 -0.2389 -0.1984 -0.1422
  713SOL    HW1 2138   2.501   0.323   0.533 -0.8031  1.6311  1.3169
  713SOL    HW2 2139   2.623   0.430   0.583  0.5745  1.1288  1.2609
  714SOL     OW 2140   1.671   2.000   2.561 -0.2090 -0.3818  0.2890
  714SOL    HW1 2141   1.610   1.945   2.496 -2.3900 -0.5250 -2.5398
  714SOL    HW2 2142   1.769   2.007   2.526  0.4066  0.5701  0.8653
  715SOL     OW 2143   0.122   0.536   0.921 -0.3200 -0.3467 -0.1294
  715SOL    HW1 2144   0.130   0.443   0.970  1.0055 -0.8750  2.0210
  715SOL    HW2 2145   0.036   0.549   0.874  3.0214  1.7532 -1.8727
  716SOL     OW 2146   0.794   0.713   1.600  0.5534  0.0653 -0.1526
  716SOL    HW1 2147   0.855   0.743   1.679  0.6255 -0.1116  0.1918
  716SOL    HW2 2148   0.731   0.787   1.567 -1.7123  1.9729 -0.5507
  717SOL     OW 2149   0.822   0.529   2.558  0.4514  0.2336 -0.5081
  717SOL    HW1 2150   0.801   0.430   2.534 -0.8286  2.8817 -2.2840
  717SOL    HW2 2151   0.732   0.569   2.583  0.1281  1.2441 -2.2649
  718SOL     OW 2152   1.311   0.391   0.489  0.3416 -0.1087  0.5953
  718SOL    HW1 2153   1.218   0.411   0.447 -2.6406 -1.5828  0.4535
  718SOL    HW2 2154   1.370   0.343   0.422 -1.0509  1.1535  1.3150
  719SOL     OW 2155   0.051   2.287   2.691 -0.0255 -0.3712  0.7983
  719SOL    HW1 2156   0.128   2.339   2.651 -1.6821 -1.5031  3.2065
  719SOL    HW2 2157   0.053   2.300   2.790  0.5354  1.8306 -0.7392
  720SOL     OW 2158   1.032   0.570   1.535 -0.1154  0.0376 -0.2199
  720SOL    HW1 2159   0.932   0.594   1.553 -0.1840 -0.9396 -0.1542
  720SOL    HW2 2160   1.087   0.649   1.499  0.6675 -1.7908 -1.0893
  721SOL     OW 2161   2.818   2.807   0.963 -0.0662 -0.2189 -0.0782
  721SOL    HW1 2162   2.871   2.720   0.987  3.0482 -2.3503  0.2277
  721SOL    HW2 2163   2.764   2.843   1.044 -2.1327  0.6892  3.3946
  722SOL     OW 2164   1.051   1.437   2.744 -0.3233 -0.2997 -0.3214
  722SOL    HW1 2165   1.020   1.453   2.841 -0.1847 -1.3199  1.2187
  722SOL    HW2 2166   0.982   1.454   2.672  0.9655  0.3423 -1.2803
  723SOL     OW 2167   2.561   0.869   1.333 -0.4529 -0.7218 -0.8042
  723SOL    HW1 2168   2.493   0.805   1.298  1.9938  2.2257  1.5125
  723SOL    HW2 2169   2.502   0.935   1.388 -1.6034  3.9392  1.9397
  724SOL     OW 2170   1.064   1.998   0.236  0.1263 -0.0664 -0.2503
  724SOL    HW1 2171   1.010   1.912   0.213 -1.1578 -2.1906  2.9011
  724SOL    HW2 2172   1.140   1.976   0.298  0.5032  2.4477  0.1321
  725SOL     OW 2173   0.272   0.941   1.387  0.2200  0.4251  0.6823
  725SOL    HW1 2174   0.204   1.012   1.357 -1.1359  0.2199 -2.0337
  725SOL    HW2 2175   0.345   0.926   1.311  1.5744 -1.4211 -1.4656
  726SOL     OW 2176   2.635   1.054   2.858  0.2692  0.0508  0.5473
  726SOL    HW1 2177   2.632   1.152   2.844 -0.4517  1.8838  0.3157
  726SOL    HW2 2178   2.541   1.016   2.857 -0.0718 -2.1874  2.3516
  727SOL     OW 2179   1.998   1.286   2.607 -0.4431 -0.5313  0.1740
  727SOL    HW1 2180   1.997   1.366   2.540 -0.5128 -1.4892 -0.6785
  727SOL    HW2 2181   1.952   1.202   2.576  0.4974  0.8786  4.3833
  728SOL     OW 2182   1.625   2.478   1.396  0.1183 -0.1139  0.4117
  728SOL    HW1 2183   1.592   2.575   1.408 -0.6320 -2.2295 -1.2525
  728SOL    HW2 2184   1.585   2.410   1.459 -1.1860 -1.8410 -2.4753
  729SOL     OW 2185   1.798   0.746   2.336  0.4342  0.2310 -0.1431
  729SOL    HW1 2186   1.886   0.755   2.386 -0.8787  0.5224 -2.2585
  729SOL    HW2 2187   1.745   0.832   2.339 -1.1600 -0.0778 -1.8534
  730SOL     OW 2188   1.062   0.616   0.821 -0.5637 -0.1219  0.2840
  730SOL    HW1 2189   1.103   0.707   0.825 -0.1602 -2.5876  2.7237
  730SOL    HW2 2190   1.090   0.549   0.899 -0.7816  2.0440  0.1649
  731SOL     OW 2191   0.793   0.455   2.970 -0.1715 -0.5427 -0.1395
  731SOL    HW1 2192   0.871   0.468   2.902  0.7026 -1.4456 -0.4868
  731SOL    HW2 2193   0.756   0.544   2.987  0.7632 -0.9879  2.1717
  732SOL     OW 2194   0.426   0.804   0.505  0.3102 -0.3186  0.7120
  732SOL    HW1 2195   0.468   0.781   0.411  2.4175 -2.2051 -1.0141
  732SOL    HW2 2196   0.480   0.771   0.585 -2.8821 -0.3904  0.2646
  733SOL     OW 2197   1.363   1.574   2.165 -0.3427  0.0434  0.2782
  733SOL    HW1 2198   1.293   1.513   2.214 -0.6320 -0.9084  1.2553
  733SOL    HW2 2199   1.454   1.535   2.190 -2.1815  0.8050  0.5269
  734SOL     OW 2200   0.103   2.352   2.957  0.3223  0.4753  0.5050
  734SOL    HW1 2201   0.137   2.308   3.042 -4.0962  2.5034  0.8347
  734SOL    HW2 2202   0.137   2.447   2.955 -0.6868 -2.7509  1.1968
  735SOL     OW 2203   2.317   0.559   0.722 -0.2560  0.1723 -0.2471
  735SOL    HW1 2204   2.258   0.641   0.732 -0.2800  2.5222 -2.3034
  735SOL    HW2 2205   2.301   0.523   0.631  2.3239 -1.9399  0.0695
  736SOL     OW 2206   2.107   1.455   2.316  0.4579  0.2711 -0.1257
  736SOL    HW1 2207   2.097   1.355   2.296 -2.4774 -0.6859  1.0058
  736SOL    HW2 2208   2.017   1.493   2.348 -0.5467 -1.0266  2.1128
  737SOL     OW 2209   3.031   0.733   0.548 -0.0141  0.2039  0.0829
  737SOL    HW1 2210   2.982   0.720   0.459  1.5658  1.6134  1.1404
  737SOL    HW2 2211   0.018   0.696   0.542  0.5328 -2.5337 -2.4734
  738SOL     OW 2212   0.768   2.150   1.576  0.3188 -0.0159 -0.5335
  738SOL    HW1 2213   0.768   2.245   1.609 -3.1227 -0.4220 -1.1211
  738SOL    HW2 2214   0.671   2.123   1.555  1.4468 -1.2946  1.1644
  739SOL     OW 2215   1.274   2.815   2.105  0.7352  0.8135  0.3074
  739SOL    HW1 2216   1.266   2.752   2.182 -1.7605 -0.0733 -3.3874
  739SOL    HW2 2217   1.211   2.896   2.108  0.4612 -1.1781  0.7698
  740SOL     OW 2218   1.863   2.473   1.258 -0.2339 -0.1734 -0.0022
  740SOL    HW1 2219   1.784   2.467   1.326 -2.1951  1.4406  1.8250
  740SOL    HW2 2220   1.952   2.494   1.298 -2.5877 -1.1045  0.8180
  741SOL     OW 2221   2.197   0.348   0.199  0.4364 -0.2460  0.8985
  741SOL    HW1 2222   2.179   0.247   0.177  0.3606 -3.1976  0.9080
  741SOL    HW2 2223   2.251   0.384   0.122 -0.8803 -0.6878 -0.6489
  742SOL     OW 2224   1.044   2.631   3.070 -1.0624  0.8299 -0.1262
  742SOL    HW1 2225   1.113   2.602   3.001 -1.2550  1.3447 -0.9894
  742SOL    HW2 2226   1.077   2.625   0.058  0.9701  1.3969  3.4104
  743SOL     OW 2227   2.475   0.952   2.074 -0.3415 -0.2970 -0.0454
  743SOL    HW1 2228   2.533   1.012   2.139  0.7361 -0.8031  0.6288
  743SOL    HW2 2229   2.531   0.881   2.031  2.3551 -0.5835 -0.4339
  744SOL     OW 2230   2.633   0.624   0.544 -0.1003 -0.7538  0.6380
  744SOL    HW1 2231   2.575   0.606   0.465  1.8989  1.9163  0.5614
  744SOL    HW2 2232   2.723   0.671   0.513  1.6828  0.6867 -1.0617
  745SOL     OW 2233   2.413   1.024   1.504  0.0031  0.3801  0.5573
  745SOL    HW1 2234   2.421   0.984   1.597  0.7149 -0.1787 -1.1915
  745SOL    HW2 2235   2.376   1.118   1.500 -0.2524 -3.0276 -0.3863
  746SOL     OW 2236   1.409   1.405   0.770  0.0774  0.6271 -0.3511
  746SOL    HW1 2237   1.379   1.490   0.824 -1.3932 -1.0785  0.2659
  746SOL    HW2 2238   1.370   1.395   0.675  1.1799  0.4625 -0.1990
  747SOL     OW 2239   1.125   1.611   1.326 -0.3165 -0.4857 -0.0272
  747SOL    HW1 2240   1.077   1.664   1.394  1.8791 -2.2116 -1.9411
  747SOL    HW2 2241   1.073   1.527   1.307  3.1025  0.2746  0.0829
  748SOL     OW 2242   0.342   2.753   0.004 -0.3561  0.4818 -0.3270
  748SOL    HW1 2243   0.401   2.780   3.034 -2.6076  2.8598 -1.6455
  748SOL    HW2 2244   0.366   2.659   0.038 -1.4300  2.8309  1.6388
  749SOL     OW 2245   0.193   0.909   2.769 -0.2842  0.3339  0.2029
  749SOL    HW1 2246   0.116   0.953   2.821 -0.3057 -1.1371 -0.1678
  749SOL    HW2 2247   0.177   0.924   2.668 -2.2911 -0.7815 -0.8329
  750SOL     OW 2248   1.551   0.917   1.961  0.3330 -0.3216 -0.5240
  750SOL    HW1 2249   1.496   0.894   1.872 -1.6713 -0.6030 -2.0099
  750SOL    HW2 2250   1.569   0.830   2.017 -0.4895  0.7100 -3.8614
  751SOL     OW 2251   2.872   0.687   0.327  0.4164 -0.4381 -0.3873
  751SOL    HW1 2252   2.885   0.629   0.248 -1.5584  3.8055  1.3007
  751SOL    HW2 2253   2.803   0.761   0.299 -0.9317 -1.0835 -3.8382
  752SOL     OW 2254   2.717   2.862   1.270  0.2679  0.3578  0.0527
  752SOL    HW1 2255   2.809   2.880   1.303 -2.0153  0.1355 -0.7302
  752SOL    HW2 2256   2.657   2.926   1.318  1.5447 -4.2513  0.2745
  753SOL     OW 2257   0.849   2.199   1.327 -0.3171  0.3459  0.2690
  753SOL    HW1 2258   0.885   2.295   1.339 -1.4374 -0.7847  0.4917
  753SOL    HW2 2259   0.813   2.163   1.412  0.3548  0.6761 -0.0434
  754SOL     OW 2260   3.062   2.663   2.065  0.5018 -0.0961 -0.7402
  754SOL    HW1 2261   2.978   2.695   2.107  0.2438  2.5930  1.0069
  754SOL    HW2 2262   0.017   2.744   2.071  3.5787  1.7399  4.1495
  755SOL     OW 2263   2.460   0.568   0.319 -0.6279  0.5708  0.1674
  755SOL    HW1 2264   2.508   0.557   0.226  1.8848  1.0452 -2.0820
  755SOL    HW2 2265   2.390   0.640   0.313  1.8793 -1.7449  2.4815
  756SOL     OW 2266   2.364   2.266   2.996  0.2700  0.3370 -0.0646
  756SOL    HW1 2267   2.428   2.339   3.016 -4.5626 -3.8408  0.9590
  756SOL    HW2 2268   2.338   2.230   3.089 -1.3249  0.7605 -2.1448
  757SOL     OW 2269   2.249   0.437   0.491 -0.4254  0.6636  0.1565
  757SOL    HW1 2270   2.310   0.467   0.418 -3.4860 -2.1868  2.7389
  757SOL    HW2 2271   2.180   0.373   0.452  1.1128 -2.4528  1.0681
  758SOL     OW 2272   2.198   0.860   2.047 -0.3505 -0.0123  0.8254
  758SOL    HW1 2273   2.162   0.896   1.959  0.5869  2.6195 -0.1361
  758SOL    HW2 2274   2.295   0.842   2.044 -1.3923  0.5345 -0.3124
  759SOL     OW 2275   2.625   0.545   1.154 -0.3037  0.0384  0.7227
  759SOL    HW1 2276   2.650   0.643   1.157  2.5673 -0.2144 -1.9212
  759SOL    HW2 2277   2.535   0.525   1.111 -1.4380 -1.0240  0.8403
  760SOL     OW 2278   0.162   1.508   1.319 -0.0563  0.4897  0.4639
  760SOL    HW1 2279   0.138   1.422   1.370 -1.1315 -0.5924 -0.3786
  760SOL    HW2 2280   0.108   1.503   1.236 -0.1341  0.3941  2.0270
  761SOL     OW 2281   1.002   0.876   0.212 -0.0576  0.2310  0.4586
  761SOL    HW1 2282   0.934   0.950   0.222  1.1610 -1.6113 -0.5035
  761SOL    HW2 2283   1.052   0.888   0.131 -1.9770 -0.1802  2.0337
  762SOL     OW 2284   0.982   1.898   1.240 -0.5715 -0.2377 -0.0797
  762SOL    HW1 2285   1.070   1.946   1.241 -1.2562 -0.9953  0.5535
  762SOL    HW2 2286   0.906   1.958   1.214  1.6490  1.6960  0.1557
  763SOL     OW 2287   1.138   0.740   1.319 -0.3973  0.0953  0.1913
  763SOL    HW1 2288   1.127   0.817   1.388  2.1483  1.0716  0.4370
  763SOL    HW2 2289   1.109   0.775   1.223  3.4549 -0.2659 -3.9653
  764SOL     OW 2290   0.342   2.257   2.775  0.1827  0.0325 -0.8081
  764SOL    HW1 2291   0.313   2.165   2.814  1.2186  0.5623  3.0465
  764SOL    HW2 2292   0.273   2.328   2.798 -0.2227  1.9091  0.2584
  765SOL     OW 2293   0.566   2.688   1.521  0.0988  0.0634  0.1952
  765SOL    HW1 2294   0.503   2.670   1.602 -3.0392 -0.0656  3.2260
  765SOL    HW2 2295   0.557   2.786   1.503 -2.1111 -1.7379 -0.4042
  766SOL     OW 2296   2.516   1.731   2.212  0.0220 -0.6701  0.0401
  766SOL    HW1 2297   2.538   1.820   2.259 -1.1285 -0.2654 -0.9942
  766SOL    HW2 2298   2.566   1.645   2.244  0.6263 -1.4925  2.1270
  767SOL     OW 2299   1.444   1.135   2.355 -0.0043  0.7239  0.3844
  767SOL    HW1 2300   1.466   1.212   2.416 -1.5648  0.9335  0.7421
  767SOL    HW2 2301   1.419   1.171   2.265  0.5632 -1.8976  0.6562
  768SOL     OW 2302   1.609   1.958   0.264 -0.3012  0.5904  0.3488
  768SOL    HW1 2303   1.648   1.941   0.357  1.3664  0.4476 -0.4529
  768SOL    HW2 2304   1.686   1.961   0.198  0.3334  0.1022 -0.8649
  769SOL     OW 2305   0.619   1.502   0.927  0.4631 -0.2715 -0.5349
  769SOL    HW1 2306   0.573   1.549   1.002  2.2080 -0.3324 -1.8199
  769SOL    HW2 2307   0.716   1.509   0.944 -0.6815 -0.4256 -3.1661
  770SOL     OW 2308   1.302   0.907   2.475  0.3868 -0.1183  0.1830
  770SOL    HW1 2309   1.345   0.989   2.441 -3.8936 -3.2738  1.5861
  770SOL    HW2 2310   1.346   0.818   2.452 -1.5931  2.5127 -0.2420
  771SOL     OW 2311   2.951   3.064   2.225  0.1016 -0.5205  0.5191
  771SOL    HW1 2312   2.882   0.013   2.263  0.3325 -2.1498 -1.3570
  771SOL    HW2 2313   2.924   2.968   2.244 -1.0967 -0.6387 -4.4870
  772SOL     OW 2314   2.035   1.902   2.236 -0.7900  0.1043  0.4733
  772SOL    HW1 2315   1.957   1.880   2.177  2.2043  1.1722  3.9791
  772SOL    HW2 2316   2.121   1.889   2.188 -1.3388  2.3410 -0.4050
  773SOL     OW 2317   0.508   1.388   1.357 -0.5327  0.0050 -0.7850
  773SOL    HW1 2318   0.465   1.441   1.280 -2.1292 -1.1096 -0.2389
  773SOL    HW2 2319   0.561   1.310   1.317 -1.8264 -2.3597  2.2227
  774SOL     OW 2320   1.329   0.731   2.887 -0.1006 -0.3135 -0.3976
  774SOL    HW1 2321   1.226   0.748   2.879 -1.5017 -0.4513 -1.2416
  774SOL    HW2 2322   1.363   0.713   2.978  1.1158  0.1882  1.2147
  775SOL     OW 2323   1.637   2.660   0.152  0.3117  0.2412 -0.2962
  775SOL    HW1 2324   1.659   2.603   0.231  0.8279  3.3344 -1.8198
  775SOL    HW2 2325   1.596   2.612   0.070 -0.5565  1.4755  1.5369
  776SOL     OW 2326   0.254   0.896   1.655 -0.4224 -0.7211  0.1195
  776SOL    HW1 2327   0.309   0.811   1.678  0.7239 -0.1242 -0.6298
  776SOL    HW2 2328   0.266   0.914   1.557  2.5081 -0.4454 -3.1570
  777SOL     OW 2329   2.280   1.850   2.098  0.3279 -0.7207 -0.1502
  777SOL    HW1 2330   2.371   1.812   2.131  2.0019 -1.0759  1.9090
  777SOL    HW2 2331   2.292   1.904   2.009  0.3518  1.2633 -0.6331
  778SOL     OW 2332   1.674   0.984   2.330  0.0373 -0.2430  0.4428
  778SOL    HW1 2333   1.590   1.036   2.341 -1.9496  0.4642  1.4158
  778SOL    HW2 2334   1.747   1.031   2.269  1.8861 -0.0453 -1.0331
  779SOL     OW 2335   3.038   1.117   0.212 -0.1033  0.5680  0.5027
  779SOL    HW1 2336   3.053   1.019   0.187 -1.0406  1.0619 -0.9739
  779SOL    HW2 2337   2.962   1.121   0.281 -0.1028  1.3180  0.9004
  780SOL     OW 2338   2.298   0.104   2.615 -0.1534  0.0296 -0.1964
  780SOL    HW1 2339   2.195   0.118   2.593 -3.8619  1.9366  0.6037
  780SOL    HW2 2340   2.346   0.194   2.632 -0.0634  1.0528  0.6965
  781SOL     OW 2341   0.055   1.864   1.585 -0.2454 -0.1954 -0.6673
  781SOL    HW1 2342   0.103   1.810   1.515 -0.8172  2.3628 -0.4155
  781SOL    HW2 2343   0.069   1.832   1.682 -0.0290 -5.1542  0.4699
  782SOL     OW 2344   2.665   1.927   2.630 -0.5158  0.4332  0.1942
  782SOL    HW1 2345   2.752   1.973   2.645 -2.9705  2.4436 -0.6298
  782SOL    HW2 2346   2.593   1.977   2.674  1.3153 -3.0164 -0.0633
  783SOL     OW 2347   0.878   1.516   0.954  0.3366  0.1813  0.0591
  783SOL    HW1 2348   0.889   1.423   0.988 -0.8129 -0.5362 -1.2386
  783SOL    HW2 2349   0.972   1.562   0.941  0.7144  0.3423 -1.5166
  784SOL     OW 2350   2.411   0.840   2.962  0.9258  0.6303  0.0303
  784SOL    HW1 2351   2.372   0.911   2.900 -0.8047 -0.4580  0.4436
  784SOL    HW2 2352   2.375   0.856   3.057 -0.6499 -0.9246 -3.1731
  785SOL     OW 2353   2.142   2.554   0.755 -0.4077  0.5403 -0.1120
  785SOL    HW1 2354   2.177   2.650   0.747 -1.0557  0.3398 -2.4245
  785SOL    HW2 2355   2.169   2.496   0.673 -0.9481  0.5783 -1.0905
  786SOL     OW 2356   0.462   2.354   2.557 -0.1374  0.2347 -0.1852
  786SOL    HW1 2357   0.526   2.290   2.519 -0.1181  1.6718 -0.1081
  786SOL    HW2 2358   0.418   2.323   2.640  4.7239 -0.0303 -0.6533
  787SOL     OW 2359   1.410   0.629   1.355 -0.3197  0.4532  0.3432
  787SOL    HW1 2360   1.318   0.638   1.299 -3.1488 -0.3393 -2.6426
  787SOL    HW2 2361   1.475   0.704   1.341 -1.2124  0.5655 -2.1606
  788SOL     OW 2362   0.469   0.766   0.220 -0.8808 -0.4172 -0.2691
  788SOL    HW1 2363   0.491   0.667   0.218  0.7900  1.0861  0.0466
  788SOL    HW2 2364   0.390   0.791   0.161 -1.9413  0.4750  2.0684
  789SOL     OW 2365   3.030   2.148   1.320 -0.4504 -0.1392  0.0117
  789SOL    HW1 2366   3.103   2.072   1.329 -0.9824 -2.2219  0.0906
  789SOL    HW2 2367   2.988   2.138   1.225  0.5668 -1.5799 -0.0373
  790SOL     OW 2368   1.290   0.439   1.863 -0.1828 -0.2306 -0.2908
  790SOL    HW1 2369   1.255   0.472   1.950 -0.4076  3.5898 -0.4303
  790SOL    HW2 2370   1.246   0.355   1.839  0.7183  1.7552  1.0264
  791SOL     OW 2371   1.272   0.661   0.300  0.2632 -0.2617  0.2946
  791SOL    HW1 2372   1.321   0.642   0.217  1.0387 -1.6703  1.5893
  791SOL    HW2 2373   1.205   0.588   0.322  0.3160  1.1479  2.6258
  792SOL     OW 2374   1.332   3.003   1.702 -0.1717 -0.4469 -0.1319
  792SOL    HW1 2375   1.266   2.948   1.762 -1.8878  1.3189  0.9775
  792SOL    HW2 2376   1.429   2.993   1.732  1.8312 -0.4749  2.0012
  793SOL     OW 2377   0.687   3.109   0.701  0.3554 -0.0507  0.1532
  793SOL    HW1 2378   0.622   3.085   0.778  2.7715  0.0118  0.0256
  793SOL    HW2 2379   0.655   3.077   0.610  1.8138  0.1534  0.4315
  794SOL     OW 2380   0.542   1.205   2.213  0.5504  0.2861  0.4849
  794SOL    HW1 2381   0.617   1.176   2.148  1.4747  2.1238  1.8942
  794SOL    HW2 2382   0.534   1.137   2.286  0.6716  1.4565 -0.1783
  795SOL     OW 2383   0.006   1.681   2.578 -0.3522  0.7590  0.0811
  795SOL    HW1 2384   0.054   1.638   2.496 -3.1854  2.3646 -1.7071
  795SOL    HW2 2385   3.031   1.627   2.603 -1.5464 -0.1389  0.5217
  796SOL     OW 2386   1.846   1.128   2.177  0.2325 -0.4864 -0.5156
  796SOL    HW1 2387   1.849   1.073   2.091  2.3736  0.0907 -1.2067
  796SOL    HW2 2388   1.942   1.155   2.212  2.6169  0.1400 -1.3851
  797SOL     OW 2389   3.047   0.039   2.635 -0.8171  0.0246  0.1317
  797SOL    HW1 2390   0.014   3.083   2.621 -1.4183  0.1335  2.6001
  797SOL    HW2 2391   2.955   3.098   2.639  0.7025 -2.5371 -0.7017
  798SOL     OW 2392   3.014   2.136   2.265  0.3010 -0.6110 -0.5758
  798SOL    HW1 2393   2.968   2.165   2.177  3.7058 -1.2258 -0.3042
  798SOL    HW2 2394   3.106   2.179   2.280 -3.5568 -0.7038  1.9052
  799SOL     OW 2395   2.863   2.114   3.100  0.0206 -0.1237  0.3024
  799SOL    HW1 2396   2.886   2.212   0.010 -0.5332  0.2957 -2.0614
  799SOL    HW2 2397   2.869   2.093   3.001  1.9840 -0.1854 -0.8267
  800SOL     OW 2398   1.358   1.655   0.867 -0.4128  0.7127 -0.1107
  800SOL    HW1 2399   1.304   1.673   0.781 -1.4926 -0.9421 -0.2246
  800SOL    HW2 2400   1.406   1.730   0.912 -2.2622 -1.8658 -1.3324
  801SOL     OW 2401   2.080   0.767   0.735 -0.0355  0.6047 -0.1738
  801SOL    HW1 2402   1.998   0.795   0.682  1.2111 -0.2529 -0.6920
  801SOL    HW2 2403   2.052   0.730   0.825 -0.1926 -0.1489 -2.4359
  802SOL     OW 2404   2.624   1.556   0.449  0.1087  0.0640 -0.0024
  802SOL    HW1 2405   2.643   1.470   0.394  0.7992 -1.6068 -1.3949
  802SOL    HW2 2406   2.642   1.642   0.403  2.1711 -0.2333  1.1784
  803SOL     OW 2407   1.520   1.880   3.011  0.8733 -0.3245 -0.0619
  803SOL    HW1 2408   1.587   1.910   2.939  3.6513  0.3946 -0.6625
  803SOL    HW2 2409   1.455   1.957   3.030 -2.6858  0.8659  0.2761
  804SOL     OW 2410   1.842   1.929   0.112 -0.1857 -0.3362  0.1442
  804SOL    HW1 2411   1.881   1.865   0.178  1.8454  3.8825 -2.4008
  804SOL    HW2 2412   1.870   1.899   0.017  0.8352 -0.9617  0.4685
  805SOL     OW 2413   2.519   1.540   3.027  0.5543  1.0268  0.0254
  805SOL    HW1 2414   2.584   1.617   3.027 -0.1441 -0.0136  0.0761
  805SOL    HW2 2415   2.524   1.484   0.004 -0.3065  2.0670 -0.2886
  806SOL     OW 2416   0.690   0.222   0.369  0.0477  0.1196 -0.8662
  806SOL    HW1 2417   0.719   0.305   0.309 -1.0500  0.5566 -2.0045
  806SOL    HW2 2418   0.775   0.188   0.422  2.1890 -1.3392  3.7999
  807SOL     OW 2419   2.226   1.273   2.738 -0.3055 -0.2774 -0.1544
  807SOL    HW1 2420   2.253   1.337   2.810 -0.1918 -1.5715 -0.1977
  807SOL    HW2 2421   2.131   1.287   2.711 -0.6949 -0.9391  4.2009
  808SOL     OW 2422   0.080   1.525   0.415  0.1921  0.1952  0.2885
  808SOL    HW1 2423   0.148   1.467   0.365 -1.0065 -1.6434 -0.6814
  808SOL    HW2 2424   0.061   1.488   0.508 -0.1987  1.8543  0.3723
  809SOL     OW 2425   2.769   0.766   2.451  0.0463  0.3317  0.2811
  809SOL    HW1 2426   2.769   0.670   2.488  0.9783 -0.1534 -2.5459
  809SOL    HW2 2427   2.837   0.817   2.505  0.4461 -0.6849 -1.4644
  810SOL     OW 2428   1.029   1.233   0.237  0.2461 -0.1399  0.4678
  810SOL    HW1 2429   1.113   1.205   0.180  2.6569  0.4111 -0.6324
  810SOL    HW2 2430   0.943   1.193   0.200 -2.2476 -3.5752 -0.9337
  811SOL     OW 2431   1.223   2.655   1.067 -0.2668  0.0804  0.4701
  811SOL    HW1 2432   1.171   2.652   0.979 -0.1172 -2.7090  0.6799
  811SOL    HW2 2433   1.318   2.611   1.060  3.2093  0.3523  1.8762
  812SOL     OW 2434   0.337   2.429   1.569  0.2823  0.4402 -0.8834
  812SOL    HW1 2435   0.397   2.399   1.491  1.0464  1.1836 -1.0500
  812SOL    HW2 2436   0.361   2.515   1.616  2.5199 -2.4665 -2.4063
  813SOL     OW 2437   1.053   0.141   2.080 -0.2030 -0.4142  0.2725
  813SOL    HW1 2438   1.046   0.043   2.105  0.4273  2.5728 -2.5544
  813SOL    HW2 2439   1.119   0.182   2.151  1.5963 -2.1267  4.1026
  814SOL     OW 2440   1.502   2.912   2.664 -0.2907 -0.8419  0.0497
  814SOL    HW1 2441   1.585   2.912   2.724 -2.2381  0.2803  0.2040
  814SOL    HW2 2442   1.534   2.903   2.569  1.6199 -2.5725  1.8818
  815SOL     OW 2443   0.449   0.430   1.803 -0.0855  0.2572 -0.2539
  815SOL    HW1 2444   0.365   0.484   1.818  2.0320 -3.7250 -0.6167
  815SOL    HW2 2445   0.504   0.464   1.727 -0.7237  1.0732  1.8132
  816SOL     OW 2446   2.258   0.195   2.907 -0.2510  0.0498  0.2921
  816SOL    HW1 2447   2.278   0.270   2.843 -0.8587  1.1699 -2.5714
  816SOL    HW2 2448   2.329   0.191   2.986  2.3778 -0.8231  0.2473
  817SOL     OW 2449   2.042   0.150   2.573 -0.3090 -0.5252  0.6156
  817SOL    HW1 2450   2.001   0.196   2.493 -1.4327  2.1406 -0.3363
  817SOL    HW2 2451   2.020   0.202   2.658  0.1823 -0.3898  2.5540
  818SOL     OW 2452   2.114   0.078   0.170 -0.4668  0.5844  0.7839
  818SOL    HW1 2453   2.015   0.085   0.181  1.0150  0.0671 -1.2269
  818SOL    HW2 2454   2.159   0.004   0.227 -0.8736  2.6396  1.3589
  819SOL     OW 2455   2.215   1.774   3.020 -0.4879  0.1517  0.5632
  819SOL    HW1 2456   2.282   1.826   3.073  1.1067  0.7712  2.6415
  819SOL    HW2 2457   2.244   1.768   2.920  2.9305 -3.5063  1.1799
  820SOL     OW 2458   0.371   1.647   0.294 -0.3904  0.0012  0.0086
  820SOL    HW1 2459   0.432   1.653   0.373 -0.5443  0.0713  0.3073
  820SOL    HW2 2460   0.331   1.554   0.292  0.3900  0.7465  0.2115
  821SOL     OW 2461   0.054   2.416   1.026 -0.3919  0.3009 -0.0117
  821SOL    HW1 2462   0.137   2.473   1.016 -1.2348  1.6686  0.2808
  821SOL    HW2 2463   0.031   2.412   1.126 -1.6749 -3.6646 -0.1317
  822SOL     OW 2464   2.521   2.514   2.700  0.5168 -0.7149  0.1625
  822SOL    HW1 2465   2.516   2.576   2.618  0.1262  3.5083  0.9528
  822SOL    HW2 2466   2.431   2.467   2.719  1.2724 -1.2875 -1.2075
  823SOL     OW 2467   1.635   0.125   2.638  0.4102 -0.4053  0.2151
  823SOL    HW1 2468   1.592   0.199   2.691 -0.2204  0.0869 -1.7052
  823SOL    HW2 2469   1.592   0.124   2.547 -0.9134 -2.0795 -0.2908
  824SOL     OW 2470   2.759   1.657   1.545 -0.8897  0.6223  0.0869
  824SOL    HW1 2471   2.686   1.704   1.599 -0.1161 -0.4888  0.3152
  824SOL    HW2 2472   2.839   1.718   1.523 -0.1959  1.0110 -0.5509
  825SOL     OW 2473   2.628   1.665   2.530  0.5042  0.9841  0.6187
  825SOL    HW1 2474   2.624   1.766   2.541 -2.2112 -2.1897 -0.1044
  825SOL    HW2 2475   2.646   1.642   2.433 -2.2754 -0.7601 -0.1585
  826SOL     OW 2476   2.273   1.139   2.130 -0.0656  0.2342 -0.0866
  826SOL    HW1 2477   2.340   1.065   2.107 -1.2014 -2.6437  0.0131
  826SOL    HW2 2478   2.313   1.234   2.116  1.5630 -0.5462 -2.3185
  827SOL     OW 2479   2.157   2.345   1.450  0.2539 -0.4469 -0.1101
  827SOL    HW1 2480   2.132   2.447   1.437 -1.5668  6.9336 -1.0059
  827SOL    HW2 2481   2.131   2.317   1.542  1.8506  2.7637  0.3691
  828SOL     OW 2482   2.640   2.730   1.689 -0.4497 -0.1550 -0.2523
  828SOL    HW1 2483   2.609   2.828   1.685 -0.8957  0.4896 -0.2286
  828SOL    HW2 2484   2.574   2.661   1.644  0.5670 -1.2184 -1.2285
  829SOL     OW 2485   1.528   2.235   2.579 -0.3959 -0.1013 -0.1055
  829SOL    HW1 2486   1.542   2.282   2.666  2.4369 -0.7543 -3.0722
  829SOL    HW2 2487   1.603   2.168   2.570 -2.7348  4.3111 -0.4889
  830SOL     OW 2488   1.451   0.428   0.712 -0.3826 -0.0838 -0.2962
  830SOL    HW1 2489   1.387   0.402   0.628 -1.3477  0.6979 -2.9155
  830SOL    HW2 2490   1.474   0.341   0.757 -1.0563  1.5652 -1.8556
  831SOL     OW 2491   2.537   1.418   0.177 -0.3281  0.3059 -0.3839
  831SOL    HW1 2492   2.465   1.468   0.232 -0.1688  3.0957  0.8826
  831SOL    HW2 2493   2.620   1.385   0.230  0.8098  0.4298 -2.0417
  832SOL     OW 2494   1.591   1.912   1.899 -0.4780  0.2812 -0.2223
  832SOL    HW1 2495   1.586   1.809   1.888  1.7293  1.8256  0.9152
  832SOL    HW2 2496   1.681   1.941   1.866  0.6145 -0.5113  1.5994
  833SOL     OW 2497   2.844   2.783   2.240  0.5507  0.8015  0.2356
  833SOL    HW1 2498   2.865   2.716   2.313 -0.0829 -0.8643 -3.0379
  833SOL    HW2 2499   2.744   2.783   2.218 -0.9035 -0.7789  1.2497
  834SOL     OW 2500   0.913   0.995   1.454  0.2218 -0.1271  0.7654
  834SOL    HW1 2501   0.908   1.093   1.490 -2.6776  1.6548  0.9936
  834SOL    HW2 2502   0.879   0.997   1.356  3.0710 -0.2211 -0.7089
  835SOL     OW 2503   2.986   0.849   2.603 -0.1409 -0.2362 -0.3140
  835SOL    HW1 2504   3.081   0.808   2.611  1.2078  0.3839 -1.6457
  835SOL    HW2 2505   2.982   0.950   2.610 -1.5483 -3.2383  1.5719
  836SOL     OW 2506   1.153   2.199   1.214  0.3346  0.1867 -0.0798
  836SOL    HW1 2507   1.221   2.269   1.247  0.2791  0.2647 -1.8805
  836SOL    HW2 2508   1.102   2.164   1.296 -0.0037 -1.8961  2.0434
  837SOL     OW 2509   1.980   0.931   1.133  0.0070 -0.6680 -0.3227
  837SOL    HW1 2510   2.034   0.985   1.068 -1.0339 -1.2238 -0.4655
  837SOL    HW2 2511   1.907   0.987   1.179 -1.9013  0.4101 -0.1093
  838SOL     OW 2512   1.256   1.814   2.506  0.0123  0.1453  1.4299
  838SOL    HW1 2513   1.212   1.740   2.450 -2.9989  2.9035 -0.3272
  838SOL    HW2 2514   1.201   1.833   2.584  2.2998  1.5914 -2.9732
  839SOL     OW 2515   0.659   2.248   2.839  0.4144  0.3404  0.0649
  839SOL    HW1 2516   0.556   2.259   2.842 -3.7877  1.3520  1.3074
  839SOL    HW2 2517   0.692   2.249   2.938  0.8269 -0.0088  1.6552
  840SOL     OW 2518   0.383   2.473   0.083  0.0852  0.0674  0.3455
  840SOL    HW1 2519   0.323   2.393   0.082  1.3180 -0.3720  0.0031
  840SOL    HW2 2520   0.467   2.459   0.023  1.7806  1.2478 -1.8522
  841SOL     OW 2521   1.813   2.342   3.027 -0.6701 -0.1163 -0.1171
  841SOL    HW1 2522   1.866   2.264   2.988  0.7094  0.9208 -3.3424
  841SOL    HW2 2523   1.854   2.434   2.997  3.1597 -0.1909  1.7675
  842SOL     OW 2524   1.068   0.779   2.890 -0.2251 -0.0737 -0.2481
  842SOL    HW1 2525   1.072   0.855   2.961  1.0311 -1.1366  1.9756
  842SOL    HW2 2526   1.035   0.823   2.803  1.5465 -0.0258 -0.0258
  843SOL     OW 2527   1.105   2.856   0.648 -0.1680  0.0708 -0.4316
  843SOL    HW1 2528   1.085   2.935   0.580 -0.0595 -0.3029 -2.4196
  843SOL    HW2 2529   1.141   2.884   0.735 -2.6453 -0.3209  0.5581
  844SOL     OW 2530   2.261   2.951   2.541  0.2785  0.1806  0.2711
  844SOL    HW1 2531   2.275   3.046   2.577  0.7203 -0.6653  0.5574
  844SOL    HW2 2532   2.231   2.888   2.618  0.0446 -0.2434  1.1916
  845SOL     OW 2533   2.641   2.430   1.337 -0.2189  0.0435  0.1590
  845SOL    HW1 2534   2.561   2.371   1.357  1.8978 -1.0465  3.6101
  845SOL    HW2 2535   2.622   2.502   1.266  0.5504  0.4430 -0.4033
  846SOL     OW 2536   2.913   2.082   2.516  0.4470  0.3364 -0.2234
  846SOL    HW1 2537   2.949   2.102   2.425 -1.0927  0.0931 -0.9587
  846SOL    HW2 2538   2.968   2.017   2.568 -0.1146 -0.6218  0.4527
  847SOL     OW 2539   1.433   0.560   1.635  0.0008 -0.4199  0.3886
  847SOL    HW1 2540   1.396   0.588   1.542 -0.7627  2.5205 -3.5249
  847SOL    HW2 2541   1.361   0.517   1.695  2.2598  2.1867  2.7421
  848SOL     OW 2542   2.873   0.425   0.179 -0.0020  0.0683  0.1214
  848SOL    HW1 2543   2.855   0.369   0.096  0.0014 -1.7889 -0.8920
  848SOL    HW2 2544   2.963   0.399   0.210 -4.5446  1.3995 -2.1742
  849SOL     OW 2545   0.608   0.202   3.004  0.1463  0.5270 -0.7894
  849SOL    HW1 2546   0.645   0.293   2.986 -3.0160 -0.4245  3.0879
  849SOL    HW2 2547   0.523   0.203   3.065 -2.7256 -1.1304 -0.5221
  850SOL     OW 2548   0.710   2.494   0.903  0.4272 -0.0545 -0.0588
  850SOL    HW1 2549   0.768   2.416   0.874  1.1974 -0.8963 -0.5902
  850SOL    HW2 2550   0.740   2.584   0.869 -2.2916  0.4996  1.6023
  851SOL     OW 2551   2.458   0.131   2.213 -0.5100  0.1638  0.8353
  851SOL    HW1 2552   2.444   0.170   2.120  0.7884  1.7070  1.6188
  851SOL    HW2 2553   2.383   0.172   2.268 -1.0786  0.6931 -0.5203
  852SOL     OW 2554   1.695   1.369   2.064  0.1748  0.6293 -0.1555
  852SOL    HW1 2555   1.643   1.414   2.143 -1.9189 -2.0844 -0.1477
  852SOL    HW2 2556   1.678   1.269   2.066 -2.2344 -0.2675 -1.3795
  853SOL     OW 2557   2.666   2.640   0.685 -0.9530 -0.0905  0.3361
  853SOL    HW1 2558   2.743   2.569   0.696  1.7509  1.5723  1.2306
  853SOL    HW2 2559   2.707   2.734   0.689  0.0941 -1.9079  1.6835
  854SOL     OW 2560   2.402   0.509   0.976  0.3315  0.4109  0.2103
  854SOL    HW1 2561   2.412   0.520   0.878 -0.3756  0.7955 -1.7723
  854SOL    HW2 2562   2.318   0.561   1.008 -3.6383  0.2014 -0.3007
  855SOL     OW 2563   1.344   2.244   0.661  0.0447  0.1294 -0.2863
  855SOL    HW1 2564   1.314   2.252   0.563 -1.3442  0.8978  0.2943
  855SOL    HW2 2565   1.343   2.334   0.712  0.5474  0.5032 -0.7760
  856SOL     OW 2566   2.990   0.443   2.952 -0.2275  0.6165 -0.3152
  856SOL    HW1 2567   2.992   0.450   2.850  0.9476 -2.1750  0.6781
  856SOL    HW2 2568   2.925   0.378   2.993 -1.5010 -0.2315  0.7791
  857SOL     OW 2569   1.578   2.991   1.797  0.5599 -0.0543  0.3989
  857SOL    HW1 2570   1.605   2.905   1.834 -2.5312  4.9206 -0.8213
  857SOL    HW2 2571   1.597   3.069   1.860 -0.3432  1.4119  1.2996
  858SOL     OW 2572   2.521   2.095   1.473 -1.4275 -0.5513 -0.0076
  858SOL    HW1 2573   2.623   2.084   1.456  2.8456 -0.3948 -0.7649
  858SOL    HW2 2574   2.469   2.006   1.480 -1.2700  0.0840  0.2543
  859SOL     OW 2575   1.556   2.313   1.149  0.1261  0.4353 -0.1747
  859SOL    HW1 2576   1.478   2.325   1.212 -0.2545 -0.8101 -3.4995
  859SOL    HW2 2577   1.645   2.340   1.191 -1.1936 -0.9886  0.8339
  860SOL     OW 2578   2.523   2.454   3.067  0.1094 -0.0156  0.5285
  860SOL    HW1 2579   2.501   2.554   3.066  1.4385 -1.3534 -0.3764
  860SOL    HW2 2580   2.622   2.443   3.083 -0.0501 -0.7854 -3.4491
  861SOL     OW 2581   1.482   2.542   1.013 -0.3424  0.0673  0.8953
  861SOL    HW1 2582   1.516   2.466   1.068  1.2411  2.1902 -3.8198
  861SOL    HW2 2583   1.559   2.604   0.990 -1.5118 -1.8783 -0.5571
  862SOL     OW 2584   1.893   2.904   2.429  0.1780 -0.3776 -0.0920
  862SOL    HW1 2585   1.943   2.955   2.356 -0.6072 -1.1679 -2.4841
  862SOL    HW2 2586   1.889   2.954   2.517 -0.7158 -2.2140  1.3131
  863SOL     OW 2587   0.248   0.401   0.542 -0.1457 -0.4205  0.6401
  863SOL    HW1 2588   0.317   0.337   0.576 -2.6215 -0.8077 -3.2577
  863SOL    HW2 2589   0.156   0.381   0.580  0.0645 -2.0097 -0.4127
  864SOL     OW 2590   2.715   2.402   1.896  0.1350  0.0221  0.0948
  864SOL    HW1 2591   2.642   2.376   1.828  1.5223  3.3033 -1.5969
  864SOL    HW2 2592   2.677   2.463   1.967  0.2244  1.2955  0.8914
  865SOL     OW 2593   2.916   2.040   2.826  0.0483  0.2781  0.1987
  865SOL    HW1 2594   2.981   1.984   2.769 -0.2019 -1.2303  0.5119
  865SOL    HW2 2595   2.914   2.142   2.809  1.2714  0.7284  0.4367
  866SOL     OW 2596   2.647   0.458   2.763  0.1954 -0.1006 -0.0848
  866SOL    HW1 2597   2.701   0.475   2.680 -0.6502  0.2967  0.0029
  866SOL    HW2 2598   2.634   0.539   2.825 -4.0152 -1.1160  1.0501
  867SOL     OW 2599   0.483   2.886   2.905  0.0889 -0.2149 -0.6115
  867SOL    HW1 2600   0.571   2.932   2.911 -2.7359 -0.8281 -0.7812
  867SOL    HW2 2601   0.410   2.946   2.863 -0.7928 -0.0083 -0.3452
  868SOL     OW 2602   1.330   2.474   0.792  0.2816  0.0769 -0.5153
  868SOL    HW1 2603   1.393   2.497   0.867  1.2679  0.0957 -0.8717
  868SOL    HW2 2604   1.240   2.513   0.806 -0.0517  0.1664 -0.4466
  869SOL     OW 2605   1.469   1.255   1.130  0.5320 -0.2944 -0.1519
  869SOL    HW1 2606   1.545   1.206   1.170 -0.1126 -0.4671  1.5691
  869SOL    HW2 2607   1.446   1.349   1.171  0.0642  6.6409  0.6125
  870SOL     OW 2608   1.839   2.085   1.027 -0.0430  0.1588  0.0257
  870SOL    HW1 2609   1.879   2.181   1.023 -0.2967  0.7704  0.2712
  870SOL    HW2 2610   1.815   2.056   1.124 -0.9404 -0.3508  1.5777
  871SOL     OW 2611   1.260   1.847   1.297  0.2221 -0.0737 -0.4754
  871SOL    HW1 2612   1.206   1.761   1.311  0.1392  0.5388  2.2185
  871SOL    HW2 2613   1.313   1.851   1.215 -0.2550 -2.5907  0.8298
  872SOL     OW 2614   1.236   1.126   1.237 -0.1443  0.3522  0.1696
  872SOL    HW1 2615   1.259   1.063   1.314 -1.1953 -1.2199  1.8402
  872SOL    HW2 2616   1.315   1.184   1.210 -3.0655 -1.7341  0.2402
  873SOL     OW 2617   1.071   0.936   2.344  0.2198 -0.3237 -0.0578
  873SOL    HW1 2618   1.002   0.998   2.397 -0.8736  1.7896  4.4897
  873SOL    HW2 2619   1.152   0.929   2.401 -0.1119  0.2487 -3.2604
  874SOL     OW 2620   0.367   1.113   1.075 -0.0112  0.1556 -0.6988
  874SOL    HW1 2621   0.301   1.145   1.146 -1.3274  0.1287 -0.1983
  874SOL    HW2 2622   0.376   1.179   0.994  1.1178 -0.3326  1.2839
  875SOL     OW 2623   2.757   2.816   0.306 -0.3516  0.5688 -0.2167
  875SOL    HW1 2624   2.689   2.847   0.376 -0.0060  0.8609  3.2310
  875SOL    HW2 2625   2.775   2.888   0.241  0.9872  1.5566  0.7026
  876SOL     OW 2626   1.190   0.324   2.865 -0.1271  0.3757  0.0190
  876SOL    HW1 2627   1.139   0.238   2.883  1.4661  3.3799 -1.1456
  876SOL    HW2 2628   1.128   0.393   2.827  3.9296 -2.2716 -0.8350
  877SOL     OW 2629   0.066   2.920   1.442  0.4515  0.7412  0.4868
  877SOL    HW1 2630   0.108   2.957   1.529 -1.6385 -0.5546  2.6293
  877SOL    HW2 2631   0.128   2.935   1.365 -2.4479  1.5551  1.0183
  878SOL     OW 2632   1.940   2.572   2.944  0.1804  0.2246  0.0481
  878SOL    HW1 2633   2.033   2.566   2.988  1.8262  0.0566  1.7935
  878SOL    HW2 2634   1.949   2.616   2.853  0.2048 -0.2647 -0.3068
  879SOL     OW 2635   2.249   1.869   1.707 -0.1026 -0.2710  0.6293
  879SOL    HW1 2636   2.294   1.858   1.617  0.7339  1.2584 -0.9456
  879SOL    HW2 2637   2.160   1.813   1.701 -0.1373 -1.3484 -1.4307
  880SOL     OW 2638   0.804   0.955   1.206  0.0006 -0.0260 -0.3524
  880SOL    HW1 2639   0.889   0.937   1.153 -1.0155 -0.0764 -2.3861
  880SOL    HW2 2640   0.760   0.872   1.249 -2.4136 -1.8992  1.0698
  881SOL     OW 2641   1.172   1.861   3.077 -0.1084 -0.1624 -0.7578
  881SOL    HW1 2642   1.221   1.949   3.086  0.7002  0.2758 -1.6015
  881SOL    HW2 2643   1.183   1.801   0.053 -2.0804  0.2042  0.7408
  882SOL     OW 2644   1.957   0.341   0.923  0.5597 -0.3380  1.0422
  882SOL    HW1 2645   1.883   0.405   0.955 -0.9174  0.0292  1.6884
  882SOL    HW2 2646   2.028   0.330   0.995 -2.2416  0.0378  0.2859
  883SOL     OW 2647   1.902   0.518   2.186 -0.1590 -0.1386 -0.2840
  883SOL    HW1 2648   1.866   0.586   2.256 -0.3547  0.4753  2.7557
  883SOL    HW2 2649   1.827   0.493   2.114 -0.5456 -1.0559 -3.6728
  884SOL     OW 2650   2.620   0.521   0.089 -0.2963 -0.0717  0.3149
  884SOL    HW1 2651   2.706   0.502   0.143  1.8403 -0.9755  1.2146
  884SOL    HW2 2652   2.644   0.598   0.025 -0.8889 -0.7661  1.8310
  885SOL     OW 2653   1.066   1.928   0.770  0.1105  0.1680  0.6231
  885SOL    HW1 2654   1.123   1.997   0.825  2.4820 -1.3235  2.1908
  885SOL    HW2 2655   0.970   1.927   0.810 -0.1949 -3.3948 -2.1511
  886SOL     OW 2656   1.887   1.453   0.101  0.4499  0.4608  0.5843
  886SOL    HW1 2657   1.829   1.451   0.183 -2.0945  0.7508 -1.6295
  886SOL    HW2 2658   1.953   1.530   0.105  0.6297 -1.0010  0.3170
  887SOL     OW 2659   1.682   0.465   1.586 -0.0079  0.1144 -0.3141
  887SOL    HW1 2660   1.686   0.370   1.558  3.7547  0.4092  1.5367
  887SOL    HW2 2661   1.588   0.496   1.610 -0.1947 -2.0303  3.1778
  888SOL     OW 2662   2.901   1.434   1.643 -0.7956  0.2495 -0.1364
  888SOL    HW1 2663   2.917   1.359   1.573 -0.0638  1.2081  0.0483
  888SOL    HW2 2664   2.847   1.512   1.606 -0.9829  1.8065  0.6765
  889SOL     OW 2665   2.882   2.488   0.800  0.2053  0.0060 -0.1735
  889SOL    HW1 2666   2.978   2.510   0.763  4.2479 -2.4869  1.6874
  889SOL    HW2 2667   2.872   2.535   0.890 -0.7555  0.1599 -0.0157
  890SOL     OW 2668   0.214   2.048   2.468  0.2746  0.1671 -0.2521
  890SOL    HW1 2669   0.238   1.961   2.410  1.0499 -2.5674 -0.0158
  890SOL    HW2 2670   0.207   2.132   2.418  0.3875  0.1991  2.2344
  891SOL     OW 2671   0.899   1.854   0.561  0.3903  0.1170  0.0052
  891SOL    HW1 2672   0.977   1.890   0.616  2.2052  0.6978  2.3907
  891SOL    HW2 2673   0.882   1.756   0.581  0.8538  0.4421 -1.8271
  892SOL     OW 2674   0.020   2.392   1.282  0.1679 -0.0181 -0.1772
  892SOL    HW1 2675   3.058   2.460   1.318 -3.6058  4.1867  1.9043
  892SOL    HW2 2676   3.097   2.297   1.294 -2.0205  0.6013 -2.2868
  893SOL     OW 2677   0.095   0.088   1.632 -0.4100 -0.2341  0.1744
  893SOL    HW1 2678   0.017   0.113   1.688  0.7922  1.4613 -2.0706
  893SOL    HW2 2679   0.128   3.103   1.641  1.3424  3.0634 -0.0018
  894SOL     OW 2680   2.657   1.876   0.765 -0.1154 -0.2611  0.0053
  894SOL    HW1 2681   2.749   1.849   0.727  1.6786 -1.1078 -2.4156
  894SOL    HW2 2682   2.657   1.974   0.795 -1.6456  1.3218  1.8402
  895SOL     OW 2683   1.828   2.437   1.722  0.4500 -0.5081 -0.5028
  895SOL    HW1 2684   1.922   2.412   1.738 -1.8086  1.0562 -0.7047
  895SOL    HW2 2685   1.818   2.512   1.651 -0.5266  2.8064 -0.7967
  896SOL     OW 2686   0.440   0.098   1.544  0.8148 -0.3517  0.1836
  896SOL    HW1 2687   0.466   0.174   1.484 -0.3184 -0.4850  1.3628
  896SOL    HW2 2688   0.464   0.112   1.642 -1.6080 -0.2049 -2.5134
  897SOL     OW 2689   1.352   0.980   1.459  0.1506  0.2060 -0.2417
  897SOL    HW1 2690   1.291   0.935   1.533  0.4981  1.3788  2.1621
  897SOL    HW2 2691   1.400   1.064   1.498  0.4395  1.2991 -2.2339
  898SOL     OW 2692   0.946   0.073   1.647  0.4700 -0.2512  0.2016
  898SOL    HW1 2693   0.883   3.104   1.655  0.2087 -1.1000 -0.3731
  898SOL    HW2 2694   1.024   0.035   1.591 -0.3739 -0.2958 -1.3905
  899SOL     OW 2695   1.354   0.370   3.106 -0.3858  0.3160  0.7819
  899SOL    HW1 2696   1.438   0.311   3.099  0.3445  0.3635 -2.1398
  899SOL    HW2 2697   1.288   0.348   3.031  1.1777 -0.1052  1.7840
  900SOL     OW 2698   0.742   0.017   2.083  0.5552  0.4787 -0.0099
  900SOL    HW1 2699   0.835   0.050   2.077 -2.7515 -0.2438  1.3330
  900SOL    HW2 2700   0.689   0.063   2.162 -0.1469  1.8464  2.7692
  901SOL     OW 2701   0.868   2.127   0.417  1.0989 -0.0040 -0.1005
  901SOL    HW1 2702   0.922   2.188   0.362 -1.3095 -1.7422  0.5344
  901SOL    HW2 2703   0.915   2.035   0.435 -2.0253  0.9866 -0.6807
  902SOL     OW 2704   2.176   0.570   1.114  0.5383  0.7521 -0.0802
  902SOL    HW1 2705   2.100   0.627   1.063 -1.5180  0.4663 -2.0036
  902SOL    HW2 2706   2.160   0.468   1.101 -0.1083 -0.5477 -1.4589
  903SOL     OW 2707   2.707   1.223   2.586  1.0018  0.3774 -0.3079
  903SOL    HW1 2708   2.690   1.251   2.685 -0.1379  2.0389  1.7312
  903SOL    HW2 2709   2.785   1.160   2.571 -1.9680  3.0418  1.2365
  904SOL     OW 2710   1.570   1.418   0.120 -0.2421 -0.6290 -0.5595
  904SOL    HW1 2711   1.642   1.389   0.056  2.6291 -0.4612  1.9691
  904SOL    HW2 2712   1.535   1.505   0.093 -1.0015 -3.5428  2.8795
  905SOL     OW 2713   1.848   3.064   1.531  0.2874  0.2058  0.6700
  905SOL    HW1 2714   1.897   3.074   1.617 -1.8847 -0.0209  0.2411
  905SOL    HW2 2715   1.907   3.093   1.457 -2.5322 -1.2047  3.7316
  906SOL     OW 2716   2.274   2.942   1.099  0.1250  0.0596  0.3857
  906SOL    HW1 2717   2.330   3.013   1.148 -0.3469  0.4400 -1.1042
  906SOL    HW2 2718   2.304   2.936   1.000 -0.5348  1.5298 -0.7976
  907SOL     OW 2719   1.853   1.007   0.309  0.3147 -0.1230 -0.3001
  907SOL    HW1 2720   1.797   0.920   0.318 -1.4026 -1.4302  2.6025
  907SOL    HW2 2721   1.810   1.076   0.371  0.2261 -1.2396  1.8859
  908SOL     OW 2722   1.804   0.265   1.242 -0.4629  0.1953  0.2420
  908SOL    HW1 2723   1.751   0.255   1.331 -0.5668 -0.0350 -0.1485
  908SOL    HW2 2724   1.815   0.360   1.206  0.1136 -1.4431 -0.6345
  909SOL     OW 2725   2.161   0.085   0.567 -0.1853  0.4765  0.5944
  909SOL    HW1 2726   2.070   0.043   0.568  2.9468  2.0708  0.1135
  909SOL    HW2 2727   2.168   0.170   0.623 -0.1945 -1.7354 -0.8110
  910SOL     OW 2728   2.551   0.546   2.154  0.4690  0.2154 -0.2329
  910SOL    HW1 2729   2.568   0.632   2.207  1.2716 -0.2484  1.2062
  910SOL    HW2 2730   2.541   0.564   2.054 -1.6681  1.2469  0.7972
  911SOL     OW 2731   2.644   0.192   2.897  0.9091 -0.0198  0.3689
  911SOL    HW1 2732   2.659   0.287   2.865  2.4781 -2.7394  2.4268
  911SOL    HW2 2733   2.620   0.126   2.822  0.2084  0.9616 -0.9077
  912SOL     OW 2734   0.613   1.123   1.559 -0.4328 -0.4989 -0.1072
  912SOL    HW1 2735   0.576   1.137   1.467  2.4254  0.6463 -0.2933
  912SOL    HW2 2736   0.611   1.208   1.613  1.0925 -0.6595  0.0883
  913SOL     OW 2737   2.918   2.584   1.310  0.0146  0.0510  0.0858
  913SOL    HW1 2738   2.965   2.637   1.383  0.8570  0.7928  0.7085
  913SOL    HW2 2739   2.823   2.552   1.328 -0.8443 -1.2027 -1.4319
  914SOL     OW 2740   1.906   0.974   1.528 -0.8392  0.0214  0.2058
  914SOL    HW1 2741   1.937   1.070   1.521 -0.2688  0.8644 -2.6015
  914SOL    HW2 2742   1.988   0.915   1.498  3.0937 -2.0150  0.8837
  915SOL     OW 2743   3.024   1.492   1.166 -0.4028 -0.0871 -0.0199
  915SOL    HW1 2744   2.964   1.573   1.137 -0.0205  0.2072  1.4071
  915SOL    HW2 2745   3.031   1.420   1.096 -1.1227 -0.1424  2.4293
  916SOL     OW 2746   1.958   2.331   1.050 -0.3715  0.0125 -0.4041
  916SOL    HW1 2747   1.947   2.376   1.139 -1.2540 -2.2049  1.4407
  916SOL    HW2 2748   1.915   2.378   0.976  0.3257  0.3769  0.1680
  917SOL     OW 2749   1.599   2.632   2.160 -0.0663 -0.3121  0.2594
  917SOL    HW1 2750   1.608   2.620   2.260 -2.3970  0.7265 -0.3413
  917SOL    HW2 2751   1.549   2.557   2.112 -0.1971  3.2204  0.7203
  918SOL     OW 2752   1.839   2.217   2.331  0.8208  0.3113  0.3618
  918SOL    HW1 2753   1.890   2.219   2.242  0.2675  1.5041 -1.0618
  918SOL    HW2 2754   1.876   2.138   2.387  0.0683 -2.4378 -0.6676
  919SOL     OW 2755   0.875   0.228   1.426 -0.1582 -0.0183 -0.4492
  919SOL    HW1 2756   0.789   0.277   1.439 -0.1765 -1.2292 -0.7887
  919SOL    HW2 2757   0.893   0.167   1.507  2.1996 -2.4322  0.5148
  920SOL     OW 2758   2.775   0.373   2.112  0.4754  0.2208  0.2448
  920SOL    HW1 2759   2.686   0.426   2.127 -1.1144  0.2387 -0.4137
  920SOL    HW2 2760   2.817   0.337   2.199 -0.0876 -1.9160 -1.5971
  921SOL     OW 2761   3.033   1.155   1.652 -0.3310 -0.4564  0.1522
  921SOL    HW1 2762   3.000   1.061   1.641  0.3878 -1.0536 -0.3340
  921SOL    HW2 2763   2.973   1.204   1.721 -0.0457  1.9027 -2.1883
  922SOL     OW 2764   2.413   2.277   0.735  0.4981  0.1405  0.1436
  922SOL    HW1 2765   2.348   2.335   0.682  0.4444  0.1718 -0.1280
  922SOL    HW2 2766   2.458   2.337   0.804  0.6787  1.7696 -2.3007
  923SOL     OW 2767   0.500   2.501   0.648 -0.1061  0.0189 -0.0713
  923SOL    HW1 2768   0.537   2.432   0.581 -0.1161 -0.5029 -0.3518
  923SOL    HW2 2769   0.469   2.455   0.733  2.3770 -0.1520  3.1156
  924SOL     OW 2770   1.113   0.945   2.665  0.2948  0.4304 -0.7488
  924SOL    HW1 2771   1.136   1.037   2.696  1.0458  0.1620  1.1521
  924SOL    HW2 2772   1.177   0.922   2.592 -0.1321 -1.0363 -0.0417
  925SOL     OW 2773   2.842   1.521   0.616  0.3759  0.1881  0.0463
  925SOL    HW1 2774   2.834   1.433   0.672 -2.6350 -2.0208  1.9027
  925SOL    HW2 2775   2.755   1.541   0.557 -3.8570  0.8175 -2.6783
  926SOL     OW 2776   3.098   0.045   0.829  0.3930 -0.4196  0.0220
  926SOL    HW1 2777   0.089   0.022   0.829  0.7577 -0.0136 -2.0940
  926SOL    HW2 2778   3.050   0.018   0.913 -1.6943 -0.1257 -1.1560
  927SOL     OW 2779   0.223   2.012   2.826  0.1569 -0.5121  0.0771
  927SOL    HW1 2780   0.179   2.031   2.915 -2.3996  2.1699  0.4297
  927SOL    HW2 2781   0.151   2.018   2.757  0.5541  0.7554 -2.5071
  928SOL     OW 2782   0.117   0.448   2.244 -0.5397  0.2908 -0.2224
  928SOL    HW1 2783   0.135   0.377   2.316  1.6625 -0.8018  0.7646
  928SOL    HW2 2784   0.188   0.524   2.244 -0.1316  3.4449 -0.6890
  929SOL     OW 2785   2.865   2.155   1.117 -0.0988 -0.0310  0.4101
  929SOL    HW1 2786   2.766   2.143   1.141  0.3123 -1.7180 -1.0747
  929SOL    HW2 2787   2.880   2.158   1.013  1.1864  0.3537 -0.7886
  930SOL     OW 2788   1.886   0.266   2.351  0.1173  0.0339  0.0182
  930SOL    HW1 2789   1.817   0.302   2.418 -1.4066 -0.5395  0.3529
  930SOL    HW2 2790   1.932   0.347   2.306 -2.5497  1.5155 -2.8927
  931SOL     OW 2791   2.373   1.030   2.783 -0.1081  0.3552  0.5711
  931SOL    HW1 2792   2.339   1.122   2.754  0.1807 -0.7117  1.7894
  931SOL    HW2 2793   2.387   0.967   2.704 -0.1348 -0.8241  3.2497
  932SOL     OW 2794   1.950   1.108   0.637 -0.0777 -0.0794  0.0088
  932SOL    HW1 2795   1.889   1.036   0.599  1.8557  1.7620 -1.6305
  932SOL    HW2 2796   1.901   1.199   0.654 -3.2532 -0.0956 -2.9028
  933SOL     OW 2797   2.458   1.405   0.996  0.6097 -0.1899 -0.4838
  933SOL    HW1 2798   2.354   1.406   1.024 -3.4269 -0.1576  0.1585
  933SOL    HW2 2799   2.461   1.408   0.897  0.5360  1.4455  1.8839
  934SOL     OW 2800   2.426   0.874   2.576 -0.3353  0.0973 -0.0642
  934SOL    HW1 2801   2.523   0.880   2.551 -3.6654 -0.8518  1.2737
  934SOL    HW2 2802   2.372   0.869   2.492  2.4554  1.1088  2.5828
  935SOL     OW 2803   0.215   1.562   0.735  0.3239  0.1644 -0.6746
  935SOL    HW1 2804   0.286   1.540   0.668  2.4706  1.8997 -0.2537
  935SOL    HW2 2805   0.129   1.507   0.718 -1.6771  0.0057 -0.1969
  936SOL     OW 2806   0.036   2.528   0.719  0.5003 -0.1295 -0.3666
  936SOL    HW1 2807   0.057   2.613   0.676 -0.6873 -1.5117 -1.6886
  936SOL    HW2 2808   0.116   2.468   0.748  1.3987 -2.7005 -0.1462
  937SOL     OW 2809   3.087   2.284   1.814 -0.6475 -0.0569  0.2081
  937SOL    HW1 2810   0.045   2.284   1.734  3.7173 -3.2019  0.0527
  937SOL    HW2 2811   3.037   2.196   1.817  0.5574  2.4527 -0.1073
  938SOL     OW 2812   2.655   1.938   3.069 -0.2732 -0.2441 -0.0062
  938SOL    HW1 2813   2.731   2.005   3.095  2.7472  1.5193  1.1874
  938SOL    HW2 2814   2.690   1.847   3.088  0.4138  1.7823  0.0213
  939SOL     OW 2815   1.070   0.939   1.126  0.0250 -0.1769  0.1680
  939SOL    HW1 2816   1.110   1.029   1.159  2.4265 -1.2659 -0.2904
  939SOL    HW2 2817   1.135   0.902   1.060  1.3760  1.8301  1.2131
  940SOL     OW 2818   2.541   3.090   2.698  0.4029  0.1973  0.2710
  940SOL    HW1 2819   2.462   0.032   2.656 -1.8990  1.7540  0.1515
  940SOL    HW2 2820   2.511   2.999   2.735  0.1840  1.3807 -0.3541
  941SOL     OW 2821   2.480   2.634   2.453 -0.0747 -0.1347 -0.2782
  941SOL    HW1 2822   2.518   2.550   2.413 -0.7300  2.2457 -0.5357
  941SOL    HW2 2823   2.389   2.659   2.414  0.4136  1.2297  1.0676
  942SOL     OW 2824   1.452   0.400   1.213 -0.3516 -0.1502  0.3734
  942SOL    HW1 2825   1.486   0.422   1.120 -0.6454 -1.4434 -0.3195
  942SOL    HW2 2826   1.465   0.483   1.271  0.3467 -1.2053 -2.3417
  943SOL     OW 2827   0.622   1.675   2.478 -0.5043 -0.5039 -0.1202
  943SOL    HW1 2828   0.584   1.660   2.388 -0.3523 -0.4387  1.7833
  943SOL    HW2 2829   0.620   1.773   2.516  1.2845 -1.2088 -0.5652
  944SOL     OW 2830   2.297   0.896   0.671  0.2209 -0.3100 -0.2261
  944SOL    HW1 2831   2.215   0.841   0.685  3.9511  1.1992  0.3567
  944SOL    HW2 2832   2.273   0.993   0.691  0.4908 -0.9645  0.2531
  945SOL     OW 2833   3.028   0.025   2.923 -0.0084  0.3012  0.5400
  945SOL    HW1 2834   3.082   0.021   2.836  2.1672 -4.3724 -1.6310
  945SOL    HW2 2835   3.082   3.089   2.995  0.9554  1.9453  0.7651
  946SOL     OW 2836   0.088   1.285   1.477  0.0717  0.1148 -0.6176
  946SOL    HW1 2837   0.160   1.340   1.529 -0.1551 -0.2800 -0.1677
  946SOL    HW2 2838   0.009   1.259   1.541 -2.3809  1.7530  2.9240
  947SOL     OW 2839   0.988   0.030   0.110 -0.1477 -0.3210  0.4254
  947SOL    HW1 2840   1.070   0.041   0.166  0.0872  0.9627 -0.8978
  947SOL    HW2 2841   0.958   3.049   0.083  2.6064  0.6808  0.9327
  948SOL     OW 2842   2.598   1.685   1.238 -0.0387  0.3130  0.0264
  948SOL    HW1 2843   2.666   1.763   1.238  1.4809  0.8002 -2.5979
  948SOL    HW2 2844   2.641   1.598   1.206  0.1263 -0.1193  1.5366
  949SOL     OW 2845   0.228   0.727   2.976  0.3889  0.0914  0.2124
  949SOL    HW1 2846   0.224   0.776   3.064 -2.2183  0.6741  1.3168
  949SOL    HW2 2847   0.239   0.795   2.902  0.5207 -1.3208  0.7550
  950SOL     OW 2848   0.389   2.692   1.300  0.3762 -0.0682  0.3935
  950SOL    HW1 2849   0.299   2.694   1.341  2.0551 -1.6645 -2.8872
  950SOL    HW2 2850   0.455   2.675   1.376  0.6076 -0.2195 -0.3097
  951SOL     OW 2851   0.886   1.713   2.769  0.1631  0.0619 -0.0730
  951SOL    HW1 2852   0.869   1.683   2.867 -0.5728 -0.0584 -1.9205
  951SOL    HW2 2853   0.838   1.800   2.749  1.0338 -1.3097 -0.6057
  952SOL     OW 2854   0.664   1.470   0.578  0.0156  0.5838 -0.3323
  952SOL    HW1 2855   0.666   1.396   0.649 -0.9840 -0.6892  3.4659
  952SOL    HW2 2856   0.745   1.527   0.595 -1.6115 -0.4764  0.0083
  953SOL     OW 2857   2.282   1.831   2.756  0.9399  0.8691 -0.2699
  953SOL    HW1 2858   2.290   1.813   2.652  2.8477  0.2654 -2.9170
  953SOL    HW2 2859   2.349   1.896   2.795 -0.0058 -0.2309  0.1476
  954SOL     OW 2860   1.715   0.684   0.834  0.3275 -0.1927  0.3659
  954SOL    HW1 2861   1.644   0.612   0.859 -3.6165  1.9660  2.4581
  954SOL    HW2 2862   1.709   0.769   0.888 -3.5911 -1.0447 -2.6495
  955SOL     OW 2863   0.902   1.942   3.038  0.6289  0.1036 -0.1814
  955SOL    HW1 2864   0.908   2.022   2.975 -1.3601  2.2625 -0.0277
  955SOL    HW2 2865   0.991   1.921   3.085 -0.5327 -0.7159 -1.5674
  956SOL     OW 2866   2.852   0.586   1.970 -0.1071 -0.2565 -0.3730
  956SOL    HW1 2867   2.775   0.654   1.964 -1.2144  1.7324 -1.3210
  956SOL    HW2 2868   2.829   0.509   2.035 -1.2536  2.2469 -1.0841
  957SOL     OW 2869   1.626   2.140   2.135  0.2670 -0.1809 -0.5047
  957SOL    HW1 2870   1.638   2.059   2.081  0.5498  3.3058 -0.6653
  957SOL    HW2 2871   1.699   2.151   2.207  0.7924 -1.5620  0.1644
  958SOL     OW 2872   1.658   0.989   1.636 -0.8584  0.1533  0.4138
  958SOL    HW1 2873   1.593   1.045   1.586  0.5049 -1.6511  2.2586
  958SOL    HW2 2874   1.753   1.009   1.608  0.2384 -0.0062  1.4749
  959SOL     OW 2875   1.434   1.857   2.143  0.3677 -0.0492  0.6199
  959SOL    HW1 2876   1.475   1.904   2.064  0.0680  0.4861 -1.5105
  959SOL    HW2 2877   1.432   1.756   2.129  1.1738  0.6976  2.6051
  960SOL     OW 2878   0.651   0.886   2.788 -0.9253 -0.0697  0.1520
  960SOL    HW1 2879   0.608   0.952   2.852  0.9313 -0.2697 -0.9537
  960SOL    HW2 2880   0.696   0.808   2.841 -2.5436 -2.0989  1.2541
  961SOL     OW 2881   0.249   1.129   3.034 -0.4892  0.9150 -0.3171
  961SOL    HW1 2882   0.177   1.115   2.968  1.9960  2.3821  0.7661
  961SOL    HW2 2883   0.266   1.230   3.047  1.8106 -3.3847 -1.3844
  962SOL     OW 2884   0.824   2.057   2.746 -0.0102 -0.3419  0.0677
  962SOL    HW1 2885   0.739   2.100   2.781  0.3447 -0.9927  0.7666
  962SOL    HW2 2886   0.911   2.107   2.784  1.9678  0.8752  1.5204
  963SOL     OW 2887   0.013   1.681   0.035  0.2471 -0.2132  0.2559
  963SOL    HW1 2888   0.086   1.694   3.074  0.3155 -2.8851  0.1109
  963SOL    HW2 2889   3.085   1.772   0.078 -2.7692  4.2242  2.3670
  964SOL     OW 2890   0.658   2.396   2.291 -0.1653  0.0285  0.3334
  964SOL    HW1 2891   0.604   2.393   2.204  1.1739  0.8676  0.0949
  964SOL    HW2 2892   0.655   2.485   2.337  0.1268 -0.0515 -0.4429
  965SOL     OW 2893   1.671   1.790   1.610  0.7216  0.4742  0.2594
  965SOL    HW1 2894   1.741   1.722   1.582 -1.2349  0.1596  0.1891
  965SOL    HW2 2895   1.638   1.769   1.706 -0.9537  0.8292 -0.3445
  966SOL     OW 2896   2.969   1.520   0.268  0.3788  0.5288 -0.3284
  966SOL    HW1 2897   3.033   1.552   0.343  3.3890 -0.3535 -0.3010
  966SOL    HW2 2898   2.981   1.581   0.185 -0.1549 -1.5677 -3.0894
  967SOL     OW 2899   2.071   2.732   2.061  0.2331  0.4141  0.1940
  967SOL    HW1 2900   2.019   2.647   2.080  0.7725 -0.3719 -0.4720
  967SOL    HW2 2901   2.032   2.776   1.975  0.6418  0.2557 -3.5144
  968SOL     OW 2902   1.556   1.052   0.033 -0.8227 -1.0382  0.3507
  968SOL    HW1 2903   1.658   1.060   0.027 -0.1748  0.8053  1.7482
  968SOL    HW2 2904   1.510   1.044   3.050  2.0003  0.6945 -2.7630
  969SOL     OW 2905   0.372   1.364   2.450  0.1774  0.2931  0.4568
  969SOL    HW1 2906   0.419   1.309   2.378 -0.3679  1.0429 -0.9924
  969SOL    HW2 2907   0.434   1.374   2.533 -0.7132  2.2235  2.0599
  970SOL     OW 2908   2.147   2.843   0.671 -0.3434  0.2173 -0.2784
  970SOL    HW1 2909   2.171   2.845   0.573  1.0330  1.1623 -0.1736
  970SOL    HW2 2910   2.056   2.809   0.690  6.0581  2.1775  2.4517
  971SOL     OW 2911   2.077   2.224   0.747 -0.2638  0.5802 -0.1216
  971SOL    HW1 2912   2.102   2.161   0.822 -0.5105 -0.3546 -1.1974
  971SOL    HW2 2913   2.046   2.317   0.784  0.4284  2.2022  0.0864
  972SOL     OW 2914   0.225   1.544   2.768 -0.0669 -0.0425 -0.0592
  972SOL    HW1 2915   0.181   1.600   2.697 -0.5172 -1.0584 -0.3208
  972SOL    HW2 2916   0.325   1.539   2.760  1.5911 -2.0193 -0.1956
  973SOL     OW 2917   0.754   0.424   0.200 -0.7194  0.3542  0.3108
  973SOL    HW1 2918   0.809   0.358   0.146  0.7746 -0.9851 -0.7404
  973SOL    HW2 2919   0.805   0.502   0.234 -1.2182  0.2224 -0.3783
  974SOL     OW 2920   2.420   0.867   1.743  0.7114 -0.2557 -0.3536
  974SOL    HW1 2921   2.385   0.771   1.744  0.7588 -1.6544  0.4528
  974SOL    HW2 2922   2.520   0.878   1.746  2.9383 -0.3026  0.7593
  975SOL     OW 2923   2.939   3.077   0.616 -0.0656 -0.1803 -0.2085
  975SOL    HW1 2924   3.014   3.091   0.683 -2.3394 -0.3551 -2.8440
  975SOL    HW2 2925   2.868   0.040   0.633  0.5837  0.5581  3.2968
  976SOL     OW 2926   0.663   1.619   1.400 -0.2559 -0.0215  0.1277
  976SOL    HW1 2927   0.603   1.535   1.399 -0.7387 -2.5290  0.9690
  976SOL    HW2 2928   0.704   1.643   1.311  0.6661  0.5589  1.6610
  977SOL     OW 2929   1.262   2.207   0.415  0.2823 -0.2939 -0.2801
  977SOL    HW1 2930   1.331   2.183   0.340 -0.5652 -0.4097  1.3844
  977SOL    HW2 2931   1.181   2.256   0.375 -1.3120 -1.3241 -3.7405
  978SOL     OW 2932   3.079   0.719   3.029 -0.6702  0.0419 -1.0850
  978SOL    HW1 2933   3.060   0.619   3.000 -0.0689 -1.1240 -1.9843
  978SOL    HW2 2934   0.071   0.737   3.028  0.0482 -0.0221 -2.0070
  979SOL     OW 2935   2.154   1.595   0.865  0.1861 -0.5165  0.2929
  979SOL    HW1 2936   2.224   1.535   0.833 -3.5951  2.9921 -0.5532
  979SOL    HW2 2937   2.130   1.675   0.806 -3.4692 -0.8039  2.3732
  980SOL     OW 2938   0.503   2.024   1.820 -0.5067 -0.0524 -0.5361
  980SOL    HW1 2939   0.589   1.968   1.802  2.0046 -2.0409  0.4331
  980SOL    HW2 2940   0.509   2.110   1.767 -0.7731 -1.3487  0.2544
  981SOL     OW 2941   2.573   1.292   2.357  0.3261  0.0325  0.0066
  981SOL    HW1 2942   2.637   1.264   2.436 -1.1586  0.3293  1.7887
  981SOL    HW2 2943   2.482   1.314   2.402  2.0933  1.2377 -1.1877
  982SOL     OW 2944   0.167   1.982   1.871 -0.0845 -0.4785 -0.3876
  982SOL    HW1 2945   0.221   1.908   1.833 -1.5272  1.9378  0.0004
  982SOL    HW2 2946   0.215   2.035   1.946 -1.1829 -0.4697  0.5290
  983SOL     OW 2947   1.560   0.308   1.867 -0.0761  0.8668  0.0833
  983SOL    HW1 2948   1.496   0.379   1.895 -0.3051 -2.2481 -1.8241
  983SOL    HW2 2949   1.546   0.273   1.768 -0.4369  0.9082  0.6153
  984SOL     OW 2950   2.830   2.945   2.938  0.1913  0.1194 -0.4792
  984SOL    HW1 2951   2.902   3.009   2.911  0.6714 -1.6394  1.5992
  984SOL    HW2 2952   2.751   2.951   2.874  1.2125  0.2484 -0.7210
  985SOL     OW 2953   1.311   1.330   1.769 -0.3156 -0.0495  0.1039
  985SOL    HW1 2954   1.286   1.426   1.780  2.2298 -1.1308 -0.6553
  985SOL    HW2 2955   1.396   1.306   1.815 -2.6140 -1.4795 -3.5141
  986SOL     OW 2956   2.025   0.267   2.819  0.0131  0.6072 -0.4461
  986SOL    HW1 2957   2.115   0.244   2.861 -2.1649 -1.8660 -1.0172
  986SOL    HW2 2958   1.997   0.366   2.838 -2.8194 -0.1202  0.0967
  987SOL     OW 2959   2.883   1.559   2.651 -0.2521  0.2044 -0.3151
  987SOL    HW1 2960   2.850   1.520   2.739 -2.5336  0.2877 -1.0679
  987SOL    HW2 2961   2.811   1.614   2.604  3.0226 -2.3591  0.0638
  988SOL     OW 2962   3.064   0.273   1.140 -0.1648 -0.0747 -0.2723
  988SOL    HW1 2963   3.049   0.268   1.240 -0.2102  0.1523  1.2389
  988SOL    HW2 2964   2.996   0.221   1.089 -2.6617  0.6005  1.5732
  989SOL     OW 2965   2.169   0.293   1.106  0.0394 -0.6195  0.0941
  989SOL    HW1 2966   2.221   0.289   1.192 -0.7978  0.1406 -0.0101
  989SOL    HW2 2967   2.127   0.204   1.090  0.1590 -1.9635  0.5259
  990SOL     OW 2968   2.623   0.668   2.965 -0.1217  0.2289  0.4020
  990SOL    HW1 2969   2.702   0.717   2.921 -0.6006  0.4332  0.7705
  990SOL    HW2 2970   2.540   0.727   2.955  0.3878  1.8342  0.7900
  991SOL     OW 2971   0.280   1.376   0.312  0.2951 -0.4042  0.1695
  991SOL    HW1 2972   0.221   1.293   0.335 -0.2005 -1.4403  3.0308
  991SOL    HW2 2973   0.340   1.353   0.231 -2.2153 -1.0487  2.2591
  992SOL     OW 2974   2.012   1.348   1.751  0.0190  1.0767  0.1230
  992SOL    HW1 2975   2.068   1.433   1.770 -0.4649  1.7796 -0.0601
  992SOL    HW2 2976   2.042   1.276   1.819 -0.1796 -3.1572  0.9139
  993SOL     OW 2977   0.219   2.358   0.789  0.2884 -0.5220 -0.2938
  993SOL    HW1 2978   0.174   2.300   0.857  1.1895  1.4443  1.8362
  993SOL    HW2 2979   0.316   2.363   0.817  0.8544  2.5607  0.1335
  994SOL     OW 2980   2.972   1.773   1.940 -0.5168  0.0161  0.3362
  994SOL    HW1 2981   2.871   1.758   1.927  1.3758  1.0299 -1.8689
  994SOL    HW2 2982   3.024   1.696   1.891 -0.0057  0.0430  0.6278
  995SOL     OW 2983   1.990   1.831   2.683 -0.2062  0.1972  0.0035
  995SOL    HW1 2984   1.938   1.864   2.603 -0.8893  0.1694  0.0252
  995SOL    HW2 2985   2.087   1.863   2.693  0.7797  1.1811  2.0376
  996SOL     OW 2986   2.135   2.279   0.331 -0.1817 -0.6571 -0.0772
  996SOL    HW1 2987   2.064   2.208   0.315  2.7147  0.8294  1.0028
  996SOL    HW2 2988   2.222   2.251   0.284  1.0366  0.5700  0.5753
  997SOL     OW 2989   1.010   1.574   2.337  0.0719 -0.0714 -0.1509
  997SOL    HW1 2990   0.951   1.562   2.420 -0.1480 -0.1174  1.5211
  997SOL    HW2 2991   1.048   1.488   2.299 -0.3303  1.0840  0.2941
  998SOL     OW 2992   2.828   2.370   0.547 -0.0285 -0.3160  0.3600
  998SOL    HW1 2993   2.842   2.383   0.647 -0.4285  1.2189 -1.9136
  998SOL    HW2 2994   2.828   2.462   0.507 -1.0403 -0.9083  1.8577
  999SOL     OW 2995   0.575   2.958   0.520  0.3239  0.1330 -0.2457
  999SOL    HW1 2996   0.492   2.954   0.461  1.7927 -0.6221  0.0341
  999SOL    HW2 2997   0.563   2.891   0.599 -0.9650  1.4211  1.4080
 1000SOL     OW 2998   1.387   0.244   0.259 -0.1470 -0.1484 -0.2273
 1000SOL    HW1 2999   1.484   0.214   0.252  1.4029 -0.1219  0.0080
 1000SOL    HW2 3000   1.352   0.290   0.172 -1.9230 -1.4986 -0.8880
   3.10910   3.10910   3.10910
