1000 SPC/Fw water molecules t= 492.00000 step= 492000
 3000
    1SOL     OW    1   2.814   2.921   1.165 -0.5358 -0.3827  0.0808
    1SOL    HW1    2   2.776   2.985   1.102 -0.1756 -2.3668  2.2369
    1SOL    HW2    3   2.879   2.863   1.114  0.1397 -3.1128 -1.4077
    2SOL     OW    4   3.065   2.465   2.690 -0.2781  0.1721 -0.1371
    2SOL    HW1    5   3.051   2.552   2.740  0.1078 -0.6196  1.3744
    2SOL    HW2    6   3.078   2.393   2.761  0.9565  1.0772 -0.0967
    3SOL     OW    7   1.094   1.840   0.233 -0.1377  0.2992 -0.2135
    3SOL    HW1    8   1.060   1.802   0.320 -1.5623  0.0205  1.7384
    3SOL    HW2    9   1.170   1.908   0.251  0.1312  0.9841 -1.1281
    4SOL     OW   10   1.537   2.759   2.541 -0.1814 -0.2229  0.0940
    4SOL    HW1   11   1.618   2.816   2.570  1.0429  4.4113 -0.6122
    4SOL    HW2   12   1.459   2.815   2.510 -2.2498 -0.2073  1.1712
    5SOL     OW   13   1.850   0.217   2.948  0.4515 -0.0104 -0.3305
    5SOL    HW1   14   1.898   0.144   2.899 -1.1238 -1.2628  0.6479
    5SOL    HW2   15   1.883   0.211   3.046 -0.3408  0.4906  0.3864
    6SOL     OW   16   0.010   1.471   0.815  0.2255  0.5676 -0.6218
    6SOL    HW1   17   3.051   1.408   0.762 -1.8566 -0.2298 -2.1502
    6SOL    HW2   18   0.096   1.493   0.766  0.5503  2.7935  2.6970
    7SOL     OW   19   1.104   1.771   0.511  0.7625 -0.4537  0.2461
    7SOL    HW1   20   1.087   1.673   0.492 -1.3549 -0.3648 -1.9480
    7SOL    HW2   21   1.175   1.802   0.573  1.8834 -1.0450  1.7440
    8SOL     OW   22   0.374   0.531   0.345 -0.0711  0.1086  0.5284
    8SOL    HW1   23   0.353   0.438   0.383  1.8392 -1.5260  0.1072
    8SOL    HW2   24   0.310   0.606   0.381 -0.6361 -0.0511  1.8093
    9SOL     OW   25   0.191   2.437   1.723 -0.1182 -0.0525  0.8996
    9SOL    HW1   26   0.256   2.482   1.785 -0.7731 -0.4095 -0.0370
    9SOL    HW2   27   0.144   2.504   1.660 -1.3548  1.8333 -1.7748
   10SOL     OW   28   1.504   1.777   0.420  0.1771  0.2791 -0.1288
   10SOL    HW1   29   1.487   1.811   0.324 -0.5635  0.6912  2.2184
   10SOL    HW2   30   1.524   1.860   0.476  1.3386  3.1939 -2.3143
   11SOL     OW   31   2.014   0.319   1.536 -0.7784  0.2526  0.1359
   11SOL    HW1   32   1.971   0.262   1.608  1.7487  1.3289  1.8005
   11SOL    HW2   33   1.998   0.419   1.556 -1.8970  1.0762  1.3976
   12SOL     OW   34   0.131   0.753   2.214 -0.5677 -0.3898 -0.6861
   12SOL    HW1   35   0.232   0.771   2.209  1.7691  1.4708  0.8950
   12SOL    HW2   36   0.109   0.668   2.260 -0.3814  0.8117 -2.5547
   13SOL     OW   37   2.142   0.322   0.393  0.3945  0.3129 -0.5794
   13SOL    HW1   38   2.044   0.339   0.366 -0.6837  1.1629  0.5379
   13SOL    HW2   39   2.186   0.410   0.425 -1.3257 -1.9829  1.5309
   14SOL     OW   40   2.357   2.333   3.009  0.3753  1.1244  0.0000
   14SOL    HW1   41   2.276   2.273   3.000  0.9849 -1.6400 -1.5226
   14SOL    HW2   42   2.339   2.431   3.016  1.8158 -0.0794 -0.1649
   15SOL     OW   43   2.408   2.974   2.789 -0.0846 -0.0231  0.0612
   15SOL    HW1   44   2.406   2.889   2.732  0.6637  0.4368  1.9245
   15SOL    HW2   45   2.352   3.044   2.739 -2.9886 -2.2734 -1.2770
   16SOL     OW   46   0.030   0.604   1.220  0.3554  0.0230  0.1840
   16SOL    HW1   47   0.119   0.642   1.193  0.8096  1.8583 -0.4882
   16SOL    HW2   48   3.061   0.637   1.157  1.6004 -0.2375  0.9836
   17SOL     OW   49   0.678   0.391   1.160  0.0845  0.0300 -0.1522
   17SOL    HW1   50   0.707   0.350   1.069  3.3904 -0.3691 -2.8618
   17SOL    HW2   51   0.578   0.417   1.162 -0.8482  2.2756 -0.0415
   18SOL     OW   52   3.015   0.148   0.663  0.0772 -0.5180 -0.0141
   18SOL    HW1   53   3.036   0.064   0.610 -2.1793 -0.7900 -0.1119
   18SOL    HW2   54   0.002   0.185   0.695  0.0048 -0.7698 -0.4378
   19SOL     OW   55   2.007   1.860   0.992  0.6648 -0.4222 -0.1070
   19SOL    HW1   56   2.094   1.864   1.047  2.2242  0.3033 -0.2663
   19SOL    HW2   57   2.022   1.819   0.899 -1.1808  1.0750  0.0921
   20SOL     OW   58   1.919   1.680   2.239  0.1781  0.1763  0.4899
   20SOL    HW1   59   1.837   1.615   2.227 -1.2830 -2.6882 -0.1875
   20SOL    HW2   60   1.900   1.759   2.298  1.7103  1.5128 -1.4454
   21SOL     OW   61   1.243   0.124   0.308  0.1023 -0.0577  0.3003
   21SOL    HW1   62   1.183   0.126   0.228  0.5771  4.3882  3.0371
   21SOL    HW2   63   1.336   0.160   0.287 -1.2066 -2.1921  3.4217
   22SOL     OW   64   2.266   0.984   2.966 -0.0422  0.5243 -0.0310
   22SOL    HW1   65   2.323   0.905   2.998  0.7745 -1.0465  1.9101
   22SOL    HW2   66   2.235   0.964   2.874  2.1362 -1.2076 -1.5272
   23SOL     OW   67   0.260   0.273   2.250 -0.1618  0.1866 -0.0888
   23SOL    HW1   68   0.238   0.179   2.286  1.7897  1.0813 -1.2438
   23SOL    HW2   69   0.331   0.313   2.308 -3.3777  1.8081 -0.0402
   24SOL     OW   70   2.275   2.271   0.964  0.0718  0.4293  0.1189
   24SOL    HW1   71   2.238   2.361   0.996 -1.1143 -1.6625  0.6576
   24SOL    HW2   72   2.208   2.195   0.977 -0.4030 -0.4193 -0.2624
   25SOL     OW   73   1.576   0.433   0.010  0.0139 -0.4346  0.0785
   25SOL    HW1   74   1.607   0.340   3.099  1.0299 -2.2856 -0.4250
   25SOL    HW2   75   1.651   0.481   0.057 -1.2641 -1.6047 -1.9477
   26SOL     OW   76   1.102   2.799   2.882  0.2762  0.3584 -0.0097
   26SOL    HW1   77   1.010   2.802   2.931 -1.1323  0.3620 -1.6898
   26SOL    HW2   78   1.148   2.710   2.897 -1.2126 -0.5646  2.9253
   27SOL     OW   79   0.900   0.667   1.286  0.7041  0.3706 -0.1632
   27SOL    HW1   80   0.816   0.613   1.314  0.4169  0.5805  2.6815
   27SOL    HW2   81   0.868   0.763   1.268 -2.6300 -2.0377  0.2269
   28SOL     OW   82   0.756   1.936   1.473  0.2075 -0.3468 -0.2779
   28SOL    HW1   83   0.826   1.901   1.413 -1.8750  0.6312  1.0842
   28SOL    HW2   84   0.766   1.893   1.564  0.2952  0.3167  3.1319
   29SOL     OW   85   2.623   0.469   0.822 -0.1810  0.6787  0.3832
   29SOL    HW1   86   2.685   0.412   0.883  0.0629 -3.2130 -2.0730
   29SOL    HW2   87   2.597   0.555   0.863 -2.2749 -0.8884  0.4048
   30SOL     OW   88   1.345   0.258   1.619  0.5926  0.3998  0.4326
   30SOL    HW1   89   1.302   0.168   1.585  1.8428 -3.8860 -0.4086
   30SOL    HW2   90   1.303   0.343   1.583  3.2106 -1.0586 -0.6387
   31SOL     OW   91   1.142   0.166   1.159 -0.7468 -0.0111  0.2682
   31SOL    HW1   92   1.199   0.151   1.075  1.0772  2.6304  0.8051
   31SOL    HW2   93   1.063   0.100   1.167  2.2298  1.8524  1.2441
   32SOL     OW   94   2.258   0.960   2.189  0.3642  0.0693 -0.4603
   32SOL    HW1   95   2.319   1.030   2.153 -2.5811 -1.1309 -1.9292
   32SOL    HW2   96   2.212   0.918   2.107  0.0199 -1.5621 -2.6045
   33SOL     OW   97   2.397   2.653   2.815 -0.1939  0.4434 -0.0371
   33SOL    HW1   98   2.479   2.607   2.782 -1.3098  0.9317 -0.4920
   33SOL    HW2   99   2.351   2.693   2.731 -1.6350  3.1676 -5.0822
   34SOL     OW  100   2.199   1.121   0.082  0.1174 -0.4789  0.0926
   34SOL    HW1  101   2.251   1.088   0.162 -0.7112 -0.2590  2.1642
   34SOL    HW2  102   2.211   1.059   0.002 -0.3548 -2.0345 -2.3499
   35SOL     OW  103   3.019   1.021   1.244 -0.2066 -0.3235  0.6143
   35SOL    HW1  104   3.061   0.979   1.161 -1.5142 -1.5375 -0.3552
   35SOL    HW2  105   2.959   1.096   1.209 -0.4821 -2.4767  2.0770
   36SOL     OW  106   2.188   2.461   2.597 -0.2213 -0.1104 -0.2162
   36SOL    HW1  107   2.166   2.523   2.674 -1.5461 -2.2417  0.3039
   36SOL    HW2  108   2.267   2.496   2.544 -1.1669  0.3147 -1.2013
   37SOL     OW  109   1.767   0.235   2.104  0.3016 -0.1759  0.9371
   37SOL    HW1  110   1.717   0.233   2.018  3.3356 -0.3082  0.8043
   37SOL    HW2  111   1.862   0.208   2.093  0.3742 -0.2834  1.4540
   38SOL     OW  112   1.306   1.667   2.391 -0.8153  0.4226 -0.0900
   38SOL    HW1  113   1.280   1.737   2.323 -0.0290 -2.1702  2.4457
   38SOL    HW2  114   1.374   1.598   2.363 -0.5781  0.1828  1.7086
   39SOL     OW  115   1.655   0.238   1.574  0.0591  0.3114  0.1217
   39SOL    HW1  116   1.662   0.248   1.477 -1.2239 -0.9825  1.5892
   39SOL    HW2  117   1.569   0.275   1.612  0.1928 -1.5874 -0.3844
   40SOL     OW  118   0.756   2.084   0.476 -0.1220  0.1056  0.4340
   40SOL    HW1  119   0.673   2.026   0.453  0.4736  0.6383  0.1474
   40SOL    HW2  120   0.726   2.174   0.503 -0.6956 -3.9410  3.3583
   41SOL     OW  121   2.307   2.350   1.308  0.0262  0.0692 -0.0774
   41SOL    HW1  122   2.285   2.397   1.218  1.5844  1.6755 -0.4829
   41SOL    HW2  123   2.405   2.322   1.305 -1.5091  1.5696 -0.4364
   42SOL     OW  124   2.864   2.981   0.179 -0.4024 -0.0850  0.0489
   42SOL    HW1  125   2.793   3.050   0.156  0.3738 -0.6903  0.1660
   42SOL    HW2  126   2.859   2.952   0.276  3.2569  0.7030  1.3188
   43SOL     OW  127   0.880   1.886   2.019 -0.1110  0.1988  0.4745
   43SOL    HW1  128   0.857   1.936   1.934  2.7266 -2.9843  1.7439
   43SOL    HW2  129   0.922   1.799   1.996 -1.3139 -1.0409 -2.3444
   44SOL     OW  130   1.693   3.002   1.262 -0.8443 -0.0454 -0.1053
   44SOL    HW1  131   1.723   3.100   1.249 -0.5968  0.8619 -0.3906
   44SOL    HW2  132   1.648   2.990   1.353  1.2897  1.5745  1.1711
   45SOL     OW  133   0.072   2.400   2.455  0.6353  0.3485  0.5252
   45SOL    HW1  134   0.156   2.342   2.470  2.8595 -0.6653  0.5804
   45SOL    HW2  135   0.032   2.438   2.537 -1.8961 -0.7664 -3.0480
   46SOL     OW  136   0.681   2.512   1.891 -0.1560  0.5240 -0.5672
   46SOL    HW1  137   0.673   2.548   1.984 -1.6693 -0.6343 -0.4324
   46SOL    HW2  138   0.646   2.418   1.887 -0.9100  1.5471  0.8665
   47SOL     OW  139   0.390   2.171   0.560 -0.0727  0.7505 -0.3852
   47SOL    HW1  140   0.443   2.244   0.608 -1.2997  0.5486 -2.5502
   47SOL    HW2  141   0.447   2.090   0.539 -2.3159 -0.7434  1.2954
   48SOL     OW  142   0.724   2.927   1.695 -0.1367  0.6414  0.2727
   48SOL    HW1  143   0.706   3.030   1.696 -0.4793  2.0513  1.4404
   48SOL    HW2  144   0.729   2.893   1.789  1.3325  1.6157 -3.4163
   49SOL     OW  145   0.605   2.683   3.084 -0.6047 -0.0775 -0.4586
   49SOL    HW1  146   0.510   2.717   3.067  2.2423  3.1034  0.7800
   49SOL    HW2  147   0.623   2.697   0.079 -0.1523  2.4247 -0.0064
   50SOL     OW  148   1.627   1.026   0.775  0.1304  0.3499  0.4993
   50SOL    HW1  149   1.537   1.028   0.826  1.0714  0.9303  1.0624
   50SOL    HW2  150   1.706   1.002   0.832 -0.4092  0.5887  3.5481
   51SOL     OW  151   1.777   3.046   0.733 -0.5262  0.6915  0.2351
   51SOL    HW1  152   1.795   2.947   0.765  0.3322 -3.2165  1.6544
   51SOL    HW2  153   1.716   3.092   0.792  3.3686 -1.0638 -2.6656
   52SOL     OW  154   0.651   1.599   1.011  0.4602 -0.3775 -0.0167
   52SOL    HW1  155   0.578   1.631   0.944 -0.1691  0.8984  2.3166
   52SOL    HW2  156   0.612   1.524   1.068 -2.9920  0.4821  1.6800
   53SOL     OW  157   0.333   0.845   2.929 -0.2758 -0.7015 -0.1371
   53SOL    HW1  158   0.260   0.774   2.919  0.7220  4.3631  1.0608
   53SOL    HW2  159   0.407   0.823   2.996 -1.4560  0.1883 -0.2212
   54SOL     OW  160   2.139   2.144   2.962  0.4470 -0.1229  0.0143
   54SOL    HW1  161   2.064   2.095   3.015  0.5183 -0.8982 -0.3199
   54SOL    HW2  162   2.217   2.082   2.951 -1.1123 -2.7943  2.4380
   55SOL     OW  163   2.566   2.259   1.319  0.2816  0.1558 -0.4778
   55SOL    HW1  164   2.632   2.328   1.339 -3.5761 -0.0450  0.8100
   55SOL    HW2  165   2.545   2.210   1.408  0.4888 -0.5087  4.8998
   56SOL     OW  166   1.758   1.107   1.528 -0.4593 -0.0929  0.6306
   56SOL    HW1  167   1.856   1.123   1.538  0.0508  0.2646  2.4369
   56SOL    HW2  168   1.725   1.168   1.451  0.5890 -0.8012  1.3024
   57SOL     OW  169   2.325   1.932   0.948 -0.4018  0.2387 -0.0178
   57SOL    HW1  170   2.283   1.930   1.039  1.1439 -0.1854 -0.6745
   57SOL    HW2  171   2.390   2.009   0.942  2.3596  0.2345 -3.3982
   58SOL     OW  172   2.037   0.152   2.094  0.0046 -0.4553 -0.5587
   58SOL    HW1  173   2.114   0.164   2.156 -1.0267 -1.1833 -0.4337
   58SOL    HW2  174   2.058   0.197   2.003 -0.7064  1.3752  0.5367
   59SOL     OW  175   1.416   0.375   2.465  0.2281  0.2326 -0.2049
   59SOL    HW1  176   1.481   0.307   2.503 -0.7264  1.6571 -0.5999
   59SOL    HW2  177   1.436   0.406   2.369  0.1986  0.4150  3.2316
   60SOL     OW  178   1.702   1.980   0.097 -0.0864 -0.4109 -0.8172
   60SOL    HW1  179   1.625   1.912   0.102 -0.9158 -1.6209  0.6303
   60SOL    HW2  180   1.667   2.070   0.070 -1.5667 -1.6448 -0.9587
   61SOL     OW  181   0.483   1.919   2.947 -0.0793  0.1185 -0.2718
   61SOL    HW1  182   0.560   1.875   2.900  0.1475  0.5833  2.8515
   61SOL    HW2  183   0.459   2.009   2.902 -0.2507  0.9110 -0.8628
   62SOL     OW  184   1.339   2.411   1.322 -0.1575  0.0708 -0.1756
   62SOL    HW1  185   1.300   2.499   1.334  3.0951 -2.4146  1.1943
   62SOL    HW2  186   1.300   2.352   1.396 -2.1987 -0.2166  0.2427
   63SOL     OW  187   0.541   1.887   0.479  0.0366 -0.6010 -0.5375
   63SOL    HW1  188   0.581   1.839   0.562 -1.5125  1.0381  0.2532
   63SOL    HW2  189   0.500   1.820   0.414  0.7250  1.7572  2.6957
   64SOL     OW  190   1.844   1.823   2.476  0.2159  0.0819 -0.3569
   64SOL    HW1  191   1.941   1.790   2.505  5.4796 -2.5510  0.3296
   64SOL    HW2  192   1.852   1.922   2.443 -0.5889  1.8124 -0.6253
   65SOL     OW  193   1.818   2.158   1.386 -0.1658 -0.4904  0.1446
   65SOL    HW1  194   1.743   2.139   1.320  0.2457  1.1761  2.4945
   65SOL    HW2  195   1.789   2.214   1.464 -0.4764  0.5880  1.4385
   66SOL     OW  196   2.736   0.165   0.583  0.1524 -0.1107 -0.2376
   66SOL    HW1  197   2.826   0.156   0.628 -1.4313 -2.1917 -2.1660
   66SOL    HW2  198   2.658   0.148   0.643 -0.5301 -1.9853  0.4507
   67SOL     OW  199   2.057   2.719   1.050  0.0862  0.1660  0.1023
   67SOL    HW1  200   1.964   2.759   1.057  0.0319  0.6995 -0.5288
   67SOL    HW2  201   2.113   2.764   0.978 -3.4578  1.4972  2.1755
   68SOL     OW  202   2.769   2.512   1.670  0.1937 -0.4470  0.0099
   68SOL    HW1  203   2.703   2.587   1.692  1.1475  2.8061 -0.6104
   68SOL    HW2  204   2.747   2.466   1.586 -1.5979 -1.2492  0.2024
   69SOL     OW  205   2.757   2.522   2.998 -0.1424 -0.4957  0.7053
   69SOL    HW1  206   2.850   2.557   2.968 -0.3040  1.0741 -0.2469
   69SOL    HW2  207   2.745   2.546   3.094 -1.2007 -0.7066 -1.1530
   70SOL     OW  208   1.246   1.895   2.208 -0.6329 -0.6964  0.3690
   70SOL    HW1  209   1.204   1.983   2.225  0.4070 -2.5418 -0.9177
   70SOL    HW2  210   1.346   1.901   2.234 -0.6608 -2.3411 -0.2049
   71SOL     OW  211   1.125   2.044   1.880 -0.0378 -0.6751  0.2990
   71SOL    HW1  212   1.073   1.999   1.953 -1.0399 -2.7569 -0.3852
   71SOL    HW2  213   1.165   2.133   1.913  1.7802 -0.2879 -0.7093
   72SOL     OW  214   2.444   1.104   1.401 -0.3602  0.9355  0.0342
   72SOL    HW1  215   2.529   1.153   1.436  1.1995  0.8276  0.5452
   72SOL    HW2  216   2.387   1.060   1.479  0.7706 -0.8482  0.8434
   73SOL     OW  217   0.653   2.037   2.330 -0.1463  0.3231 -0.9381
   73SOL    HW1  218   0.666   1.978   2.249  2.4284  1.3118 -0.9403
   73SOL    HW2  219   0.671   2.131   2.291  1.2830 -2.1284 -0.8334
   74SOL     OW  220   0.882   0.222   2.415  0.0810  0.4247 -0.0885
   74SOL    HW1  221   0.911   0.179   2.500 -3.4952  0.0685  0.0840
   74SOL    HW2  222   0.942   0.204   2.336 -1.3644 -0.4336  0.7388
   75SOL     OW  223   0.955   2.929   0.807  0.2746 -0.1253 -0.2379
   75SOL    HW1  224   1.046   2.890   0.779 -0.1900 -0.5827 -0.0066
   75SOL    HW2  225   0.931   3.004   0.738 -0.5491  1.3202 -1.8528
   76SOL     OW  226   0.432   1.133   2.504 -0.1096 -0.0587 -0.2854
   76SOL    HW1  227   0.487   1.202   2.553  2.6711  1.6473 -2.0793
   76SOL    HW2  228   0.382   1.064   2.565 -2.4137  1.5061  1.2682
   77SOL     OW  229   0.576   2.780   0.795  0.8376  0.1163 -0.3958
   77SOL    HW1  230   0.523   2.694   0.783  0.8070  1.2721 -0.6746
   77SOL    HW2  231   0.673   2.751   0.801  0.7707 -1.5519  0.8691
   78SOL     OW  232   2.627   0.965   2.687  0.0363  0.0438 -0.7609
   78SOL    HW1  233   2.615   0.931   2.596 -0.3985  3.7518  3.0028
   78SOL    HW2  234   2.573   1.050   2.697 -1.7399 -1.0370 -0.5077
   79SOL     OW  235   1.097   1.495   2.391  0.5152  0.2579 -0.1995
   79SOL    HW1  236   1.177   1.560   2.392 -0.3091 -1.3835 -0.3637
   79SOL    HW2  237   1.012   1.551   2.381 -0.7823 -1.3328 -1.0834
   80SOL     OW  238   2.143   0.809   1.417 -0.3616  0.2934 -0.0097
   80SOL    HW1  239   2.184   0.824   1.325 -1.4971 -3.1841 -0.2912
   80SOL    HW2  240   2.181   0.876   1.482  0.7088 -1.3678 -1.3301
   81SOL     OW  241   2.232   0.963   2.696 -0.0624  0.3028 -0.7560
   81SOL    HW1  242   2.162   1.036   2.674  0.7360 -0.6417 -1.5727
   81SOL    HW2  243   2.207   0.869   2.667 -0.7377 -2.2151  0.2332
   82SOL     OW  244   2.281   1.990   1.501  0.3421 -0.1391  0.2582
   82SOL    HW1  245   2.207   2.035   1.442 -0.1294 -1.3675 -1.0655
   82SOL    HW2  246   2.241   1.946   1.581  1.2375  0.7145 -1.9699
   83SOL     OW  247   1.702   2.980   0.308 -0.2604 -0.0055 -0.4082
   83SOL    HW1  248   1.605   2.996   0.332  1.1158  2.4676 -0.7473
   83SOL    HW2  249   1.708   2.939   0.220 -1.4681  1.6313  4.4956
   84SOL     OW  250   1.031   0.539   0.608  0.5267  0.1480 -0.6263
   84SOL    HW1  251   1.081   0.457   0.579 -1.3821  0.1729  0.1296
   84SOL    HW2  252   0.998   0.533   0.707  1.0423 -1.1769  1.8851
   85SOL     OW  253   2.139   1.606   1.307  0.3027 -0.2014  0.7363
   85SOL    HW1  254   2.193   1.555   1.231  2.2517 -2.8867 -2.2705
   85SOL    HW2  255   2.189   1.695   1.319  2.0996  1.4889 -1.0801
   86SOL     OW  256   0.608   0.819   1.043 -0.6079 -0.5085 -0.4115
   86SOL    HW1  257   0.690   0.854   1.092 -0.0517 -3.2130 -1.3651
   86SOL    HW2  258   0.519   0.835   1.092  0.6588  0.0950  2.8378
   87SOL     OW  259   3.059   2.027   2.496  0.4009 -0.5887 -0.5674
   87SOL    HW1  260   2.989   1.952   2.508 -2.3272 -1.6863  2.0531
   87SOL    HW2  261   0.012   2.008   2.416 -1.6348  1.3609 -0.5359
   88SOL     OW  262   0.493   0.023   2.867  0.3987  0.3145  0.1889
   88SOL    HW1  263   0.569   0.089   2.858  0.3490  1.5174 -0.8141
   88SOL    HW2  264   0.521   3.031   2.850 -0.3473  0.2142  0.3075
   89SOL     OW  265   1.556   0.562   1.212  0.0561  0.2969  0.3318
   89SOL    HW1  266   1.541   0.635   1.140 -0.9738  2.7850 -0.4588
   89SOL    HW2  267   1.482   0.575   1.278  2.6318  0.0801 -0.6819
   90SOL     OW  268   2.971   0.958   1.800  0.1478  0.3141 -0.7930
   90SOL    HW1  269   2.971   1.010   1.715 -1.1285 -1.0951 -2.2244
   90SOL    HW2  270   3.023   0.870   1.789 -0.6124  1.4491 -0.5472
   91SOL     OW  271   1.786   2.769   0.828 -0.4750  0.2784 -0.1506
   91SOL    HW1  272   1.859   2.701   0.801  2.3618  1.0230 -0.3448
   91SOL    HW2  273   1.775   2.780   0.928  5.3583  3.4276  1.1970
   92SOL     OW  274   1.858   2.159   0.694 -0.0790  0.3952  0.2040
   92SOL    HW1  275   1.915   2.210   0.627 -1.4658 -1.4062  2.3596
   92SOL    HW2  276   1.758   2.192   0.693 -1.6448 -0.9258  0.9484
   93SOL     OW  277   0.380   1.189   0.177 -0.1298 -0.5681  0.2228
   93SOL    HW1  278   0.331   1.100   0.184  2.7965 -0.8570 -1.3684
   93SOL    HW2  279   0.477   1.183   0.221  0.7288  0.3252  1.4760
   94SOL     OW  280   0.590   2.166   1.002  0.2174 -0.1759 -0.2674
   94SOL    HW1  281   0.691   2.185   0.988  0.4138 -1.2243 -1.7806
   94SOL    HW2  282   0.571   2.123   1.093  1.2924 -2.0571  1.7241
   95SOL     OW  283   0.372   0.964   0.435 -0.5304 -0.0749  0.0583
   95SOL    HW1  284   0.314   1.035   0.488 -1.7955  0.9268 -0.7780
   95SOL    HW2  285   0.468   0.963   0.468  0.6393  1.2614 -0.0635
   96SOL     OW  286   1.084   2.678   2.012 -0.6580 -0.0704  0.0865
   96SOL    HW1  287   1.165   2.689   1.955 -2.2210  0.3953  0.4510
   96SOL    HW2  288   1.042   2.585   2.021 -0.0533  2.5204  4.2629
   97SOL     OW  289   2.569   0.894   0.459  0.6082  0.4820  0.1127
   97SOL    HW1  290   2.493   0.899   0.524  1.3385  0.3868 -2.3945
   97SOL    HW2  291   2.557   0.964   0.385 -2.5290  0.6264 -0.0097
   98SOL     OW  292   0.183   1.796   1.874 -0.4499  0.1341  0.3217
   98SOL    HW1  293   0.220   1.888   1.841 -0.4836  2.8141 -1.2092
   98SOL    HW2  294   0.259   1.738   1.914  0.3479  1.3307  0.1930
   99SOL     OW  295   0.156   0.510   1.795 -0.1733 -0.1214 -0.0744
   99SOL    HW1  296   0.207   0.493   1.705 -0.0248  1.4587 -1.4181
   99SOL    HW2  297   0.175   0.433   1.859 -0.5318  0.0603  0.4060
  100SOL     OW  298   1.988   0.770   2.477  0.6751  0.7196 -0.0550
  100SOL    HW1  299   1.934   0.783   2.390 -1.0687  1.4475 -3.2729
  100SOL    HW2  300   1.924   0.783   2.556  0.2525  1.6306  1.7468
  101SOL     OW  301   0.792   0.475   2.028  0.3248 -0.2369  0.2426
  101SOL    HW1  302   0.889   0.484   2.064  2.4502  0.5619  0.2205
  101SOL    HW2  303   0.728   0.421   2.086 -0.8183  0.7977 -1.3515
  102SOL     OW  304   0.306   0.407   1.572  0.1799 -0.2600  0.0630
  102SOL    HW1  305   0.390   0.413   1.626  0.7513 -1.0784 -0.5935
  102SOL    HW2  306   0.315   0.316   1.533 -0.8540 -0.9487 -0.1850
  103SOL     OW  307   0.553   0.820   0.001  0.3217  0.0172  0.1829
  103SOL    HW1  308   0.553   0.731   0.056  0.1831 -1.1448  2.7480
  103SOL    HW2  309   0.616   0.883   0.043 -0.5425 -1.7642 -0.5715
  104SOL     OW  310   0.368   2.578   1.884  0.3595  0.2156  0.0424
  104SOL    HW1  311   0.313   2.662   1.905  2.0295 -0.1709 -2.1457
  104SOL    HW2  312   0.412   2.532   1.961 -0.7226 -1.1479 -2.3862
  105SOL     OW  313   2.347   2.882   2.010  0.2894  0.2120 -0.2996
  105SOL    HW1  314   2.443   2.923   2.026  4.5195 -1.2635  0.5872
  105SOL    HW2  315   2.292   2.930   1.940 -0.4594  0.3257 -0.2625
  106SOL     OW  316   0.440   2.934   0.979 -0.1313  0.0910 -0.2030
  106SOL    HW1  317   0.450   2.939   1.080 -0.3506 -0.6857  1.2876
  106SOL    HW2  318   0.535   2.918   0.940  0.5109  1.7147  0.3785
  107SOL     OW  319   0.085   1.283   1.088  0.1769 -0.0752 -0.2312
  107SOL    HW1  320   0.157   1.283   1.012  0.0363 -1.0646 -1.2399
  107SOL    HW2  321   0.121   1.264   1.180 -0.1272  1.3143  0.9111
  108SOL     OW  322   0.184   2.349   1.118  0.0016 -0.1787  0.7084
  108SOL    HW1  323   0.120   2.375   1.044  0.1464  1.4140 -1.2930
  108SOL    HW2  324   0.183   2.247   1.146 -0.9246 -1.9221  2.3205
  109SOL     OW  325   1.001   2.881   0.321 -0.4238 -0.6520  0.2666
  109SOL    HW1  326   1.051   2.944   0.387 -0.5919 -0.4247  0.5817
  109SOL    HW2  327   1.070   2.848   0.252  2.7110  0.0073  1.2949
  110SOL     OW  328   1.515   2.021   0.567 -0.1854 -0.2697 -0.5071
  110SOL    HW1  329   1.573   2.095   0.532 -0.1106 -1.1818 -0.0088
  110SOL    HW2  330   1.415   2.042   0.572 -0.3506  0.7857  1.0414
  111SOL     OW  331   1.787   2.794   2.065 -0.4349  0.1565  0.1404
  111SOL    HW1  332   1.857   2.732   2.025 -0.0455  2.7029 -2.4839
  111SOL    HW2  333   1.831   2.880   2.091 -0.2003 -0.9184 -1.7632
  112SOL     OW  334   2.120   2.885   2.845 -0.0932  0.0319  0.1795
  112SOL    HW1  335   2.105   2.787   2.823  0.3254  3.0288  0.3910
  112SOL    HW2  336   2.220   2.897   2.841  2.6884  1.8857 -1.7439
  113SOL     OW  337   2.266   2.102   2.133  0.4709 -0.0767 -0.2731
  113SOL    HW1  338   2.341   2.120   2.201 -0.7548 -1.6953  3.5604
  113SOL    HW2  339   2.310   2.066   2.052  1.8085 -0.1502 -1.0146
  114SOL     OW  340   0.103   1.195   1.684 -0.0117  0.7887  0.0813
  114SOL    HW1  341   0.131   1.099   1.702 -0.2249  2.5163 -0.3254
  114SOL    HW2  342   0.003   1.216   1.703 -0.5162  2.0829 -0.4929
  115SOL     OW  343   0.045   0.842   0.184 -0.0302  0.3506  0.4051
  115SOL    HW1  344   3.075   0.861   0.252  1.4091  1.1106 -0.8243
  115SOL    HW2  345   0.132   0.890   0.205  1.1315 -1.2250  2.3259
  116SOL     OW  346   2.695   0.480   3.041 -0.3285  0.0497  0.1474
  116SOL    HW1  347   2.683   0.500   2.941 -0.4861 -1.7012 -1.6149
  116SOL    HW2  348   2.772   0.414   3.047 -1.4233  1.9309 -0.6428
  117SOL     OW  349   2.969   2.774   0.615  0.1932 -0.0045  0.3953
  117SOL    HW1  350   3.025   2.710   0.560  1.0794  1.7319  1.2781
  117SOL    HW2  351   2.911   2.715   0.679 -1.2653  1.1350  0.8002
  118SOL     OW  352   1.032   2.420   2.027  0.1103  0.0076  0.7094
  118SOL    HW1  353   1.127   2.386   2.022  1.8247 -0.7561  2.6782
  118SOL    HW2  354   0.968   2.349   2.060  2.2134 -0.6066  0.3998
  119SOL     OW  355   0.850   2.385   3.082 -1.0408 -0.1551 -0.0472
  119SOL    HW1  356   0.790   2.313   3.041 -0.0056 -0.6949  2.1607
  119SOL    HW2  357   0.922   2.339   0.035 -4.6818  3.0622  0.1838
  120SOL     OW  358   1.534   0.939   0.221  0.2334 -0.0975  0.8639
  120SOL    HW1  359   1.501   0.849   0.255  2.4926 -0.3289 -1.9538
  120SOL    HW2  360   1.489   0.962   0.133 -0.2722 -0.3287 -0.9087
  121SOL     OW  361   1.410   1.248   1.145  0.1887 -0.1858  0.0693
  121SOL    HW1  362   1.475   1.254   1.223 -0.4403  1.6138 -0.4808
  121SOL    HW2  363   1.460   1.249   1.058 -0.1471 -1.5791  1.3483
  122SOL     OW  364   1.931   1.290   2.082 -0.4359 -0.1817 -0.5622
  122SOL    HW1  365   1.901   1.276   1.982 -0.0043  2.8724 -5.0042
  122SOL    HW2  366   1.945   1.203   2.134 -1.3998 -1.5687  1.1316
  123SOL     OW  367   0.040   0.818   0.644  0.2898  0.1740 -0.2429
  123SOL    HW1  368   0.072   0.883   0.712 -1.1438 -1.1244 -0.9462
  123SOL    HW2  369   3.068   0.760   0.684 -0.9125  0.5641  1.4051
  124SOL     OW  370   0.756   0.419   2.981 -0.0409 -0.0257 -0.0486
  124SOL    HW1  371   0.654   0.401   2.992  0.2556 -1.1777  0.6705
  124SOL    HW2  372   0.778   0.479   2.904 -3.6321  0.2782 -0.8527
  125SOL     OW  373   0.612   2.867   2.706  0.2366  0.4351  0.4320
  125SOL    HW1  374   0.541   2.806   2.673 -0.6684  1.1551  1.8985
  125SOL    HW2  375   0.692   2.813   2.738 -0.5228  3.1106 -1.4315
  126SOL     OW  376   0.813   1.397   2.579 -0.4442  0.3401 -0.3085
  126SOL    HW1  377   0.834   1.476   2.524  0.1850 -1.5282  0.2349
  126SOL    HW2  378   0.883   1.327   2.567 -1.6149  1.1285 -1.3443
  127SOL     OW  379   1.103   2.923   1.067  0.3563 -0.1357  0.1699
  127SOL    HW1  380   1.051   2.984   1.134 -0.9827  0.7917  0.6471
  127SOL    HW2  381   1.056   2.925   0.974 -0.2271  1.0595  0.1160
  128SOL     OW  382   1.702   2.347   0.202  0.3981  0.5225  0.0954
  128SOL    HW1  383   1.623   2.329   0.141  1.2075  0.3044  0.5756
  128SOL    HW2  384   1.744   2.440   0.179  1.9156  1.4819 -1.6457
  129SOL     OW  385   1.865   1.610   1.274  0.0599  0.3313 -0.2091
  129SOL    HW1  386   1.964   1.587   1.286 -1.3237  2.2310 -0.9213
  129SOL    HW2  387   1.853   1.700   1.228  0.6334 -2.1578  1.7342
  130SOL     OW  388   1.829   1.806   1.492 -0.0297  0.1476 -0.4865
  130SOL    HW1  389   1.888   1.799   1.409 -1.0221 -0.7495 -1.4133
  130SOL    HW2  390   1.733   1.825   1.463 -0.3862  4.2102 -2.2236
  131SOL     OW  391   0.997   2.940   1.967  0.5343 -0.0016 -0.2149
  131SOL    HW1  392   1.044   2.849   1.968 -1.2880  0.8513 -4.0707
  131SOL    HW2  393   0.893   2.926   1.963  3.7857 -1.9791  0.4297
  132SOL     OW  394   2.818   1.601   0.618  0.0251  0.3884 -0.5411
  132SOL    HW1  395   2.742   1.649   0.581  3.3565 -0.4435  3.1324
  132SOL    HW2  396   2.823   1.616   0.719  1.1793  1.1706 -1.5434
  133SOL     OW  397   0.684   1.547   1.615  0.0819 -0.2446  0.0616
  133SOL    HW1  398   0.673   1.501   1.705  0.7331 -0.3282  1.2945
  133SOL    HW2  399   0.669   1.645   1.624  0.6400 -1.7735 -0.4034
  134SOL     OW  400   0.169   1.021   0.820  0.4891  0.0895  0.0581
  134SOL    HW1  401   0.207   1.080   0.749 -0.2571 -0.3889  2.1373
  134SOL    HW2  402   0.229   1.018   0.903  2.0166 -0.4393  1.1648
  135SOL     OW  403   1.963   1.956   0.000  0.1137 -0.4423 -0.0097
  135SOL    HW1  404   2.016   1.942   0.087 -0.5504 -2.5970  2.2421
  135SOL    HW2  405   1.865   1.950   0.025  1.1425  0.3770  0.4003
  136SOL     OW  406   2.879   1.579   1.430 -0.2868  0.1213  0.0142
  136SOL    HW1  407   2.906   1.484   1.450 -0.2114  0.3702  4.1138
  136SOL    HW2  408   2.867   1.635   1.513 -0.5815 -0.7673 -0.1924
  137SOL     OW  409   2.473   1.143   2.800  0.3173  0.0850 -0.5506
  137SOL    HW1  410   2.414   1.057   2.788  2.1536 -0.2403  0.1222
  137SOL    HW2  411   2.514   1.144   2.891 -0.5695  0.0236 -2.5969
  138SOL     OW  412   3.095   0.323   1.011  0.1519 -0.3446  0.1934
  138SOL    HW1  413   3.102   0.406   0.951  0.0071  2.9440 -1.6940
  138SOL    HW2  414   0.002   0.348   1.110 -3.1458 -2.2357  1.4050
  139SOL     OW  415   1.880   2.264   0.020 -0.0622 -0.6013  0.3762
  139SOL    HW1  416   1.805   2.287   0.089 -2.0860 -2.6724  0.0261
  139SOL    HW2  417   1.859   2.253   3.024  1.7640  2.7552 -0.3009
  140SOL     OW  418   0.935   1.460   0.848 -0.0831  0.0308 -0.4997
  140SOL    HW1  419   0.877   1.380   0.872 -1.3592  0.1722  1.8199
  140SOL    HW2  420   0.919   1.545   0.899  1.2783  2.2905 -0.0110
  141SOL     OW  421   1.363   1.588   1.014  0.3332  0.4873  0.0284
  141SOL    HW1  422   1.366   1.568   0.913 -0.7387 -0.4114 -0.6984
  141SOL    HW2  423   1.457   1.616   1.048 -0.8627 -1.7863 -0.3178
  142SOL     OW  424   0.871   0.935   1.165 -0.4759  0.2125 -0.2562
  142SOL    HW1  425   0.914   0.910   1.074  2.5998 -1.6077 -0.7707
  142SOL    HW2  426   0.948   0.975   1.220  0.4438  0.0367  0.7816
  143SOL     OW  427   0.248   0.125   2.795 -0.1542 -0.2064  0.1269
  143SOL    HW1  428   0.341   0.088   2.814  0.3517  1.8849  0.5575
  143SOL    HW2  429   0.250   0.229   2.809  2.6596  0.6894  0.9998
  144SOL     OW  430   2.289   0.100   0.348  0.2111 -0.1520  0.0170
  144SOL    HW1  431   2.376   0.135   0.307  1.7685 -1.6795 -0.5517
  144SOL    HW2  432   2.218   0.174   0.362 -1.5927  2.0335 -1.3931
  145SOL     OW  433   1.972   0.008   2.823  0.5811 -0.0502  0.0200
  145SOL    HW1  434   1.952   0.010   2.726 -2.0944  0.2989  1.9556
  145SOL    HW2  435   2.021   3.031   2.851  0.3198  0.7706  2.1176
  146SOL     OW  436   0.131   2.941   0.330  0.2613 -0.0324 -0.1612
  146SOL    HW1  437   0.230   2.935   0.327 -2.1002 -1.5844 -1.5291
  146SOL    HW2  438   0.092   2.877   0.263 -1.4757 -1.9447  1.9203
  147SOL     OW  439   2.014   1.277   0.245 -0.1414 -0.1175 -0.2022
  147SOL    HW1  440   2.090   1.235   0.192  1.0295 -0.7534 -0.2999
  147SOL    HW2  441   1.981   1.359   0.200 -1.5926 -2.3513  0.8120
  148SOL     OW  442   0.783   2.821   0.446  0.2944 -0.1930  0.0871
  148SOL    HW1  443   0.870   2.836   0.396 -3.2867 -2.1053 -0.1236
  148SOL    HW2  444   0.763   2.891   0.520 -2.5069  2.4147 -0.6071
  149SOL     OW  445   1.292   0.741   2.359  0.3640  0.1444 -0.0732
  149SOL    HW1  446   1.193   0.712   2.355 -0.6572  0.9845  1.6943
  149SOL    HW2  447   1.338   0.721   2.448  0.7152  0.4361  0.0721
  150SOL     OW  448   1.254   3.016   2.695 -0.0335  0.2491 -0.0671
  150SOL    HW1  449   1.210   2.936   2.741  2.0841 -1.4097 -0.5958
  150SOL    HW2  450   1.320   3.056   2.760  0.4552  1.1882  0.7987
  151SOL     OW  451   0.205   1.101   3.022  0.3014 -0.1384  0.2576
  151SOL    HW1  452   0.272   1.163   2.974  0.3539 -3.0620 -2.4571
  151SOL    HW2  453   0.248   1.015   3.061 -0.2119 -1.7540  0.0831
  152SOL     OW  454   0.581   0.215   1.528 -0.5337 -0.1600  0.3957
  152SOL    HW1  455   0.579   0.241   1.625  1.1014  1.0595  0.3053
  152SOL    HW2  456   0.485   0.197   1.495  0.4170 -0.5781 -1.4219
  153SOL     OW  457   2.714   3.056   1.532 -0.7788  0.2688 -0.0667
  153SOL    HW1  458   2.772   0.012   1.468  1.2279 -0.5483 -2.4818
  153SOL    HW2  459   2.758   3.052   1.625 -0.2053 -0.7884  2.6149
  154SOL     OW  460   2.466   0.113   1.936 -0.0942  0.5023  0.6034
  154SOL    HW1  461   2.490   0.110   1.834  0.8642 -0.9634 -1.7983
  154SOL    HW2  462   2.408   0.191   1.955  0.4740 -2.7583 -0.8699
  155SOL     OW  463   0.614   1.174   0.316 -0.5464  0.6755 -0.3557
  155SOL    HW1  464   0.616   1.086   0.367 -1.3048 -0.5680  1.5782
  155SOL    HW2  465   0.706   1.198   0.278  0.6391  0.8163 -1.6158
  156SOL     OW  466   1.976   1.614   0.286 -0.0480  0.6498  0.3213
  156SOL    HW1  467   2.036   1.596   0.366 -0.2268 -0.7283  3.3324
  156SOL    HW2  468   1.876   1.619   0.307 -1.8877  1.3050 -0.9608
  157SOL     OW  469   0.950   1.967   3.073 -0.3330 -0.3301  0.3605
  157SOL    HW1  470   0.933   1.926   0.062 -0.0581  2.1444  1.3118
  157SOL    HW2  471   1.020   1.915   3.023 -0.4817  1.5200 -1.3582
  158SOL     OW  472   1.857   0.960   1.893 -0.4020  0.4162  0.1282
  158SOL    HW1  473   1.812   0.896   1.954  2.9267  0.4926 -4.9928
  158SOL    HW2  474   1.954   0.947   1.910 -3.3242 -0.1473  1.2162
  159SOL     OW  475   0.449   0.079   0.817 -0.0898  0.0251 -0.2554
  159SOL    HW1  476   0.450   3.097   0.878  1.0949 -1.8046  1.5291
  159SOL    HW2  477   0.475   0.046   0.721 -1.1725  0.6174 -1.9464
  160SOL     OW  478   2.306   1.582   1.695  0.1362  0.0798  0.7287
  160SOL    HW1  479   2.391   1.620   1.730 -2.3138  0.5438  1.0325
  160SOL    HW2  480   2.262   1.515   1.757  0.4076  0.5381  0.1937
  161SOL     OW  481   0.364   0.125   0.047  0.2312 -0.6807  0.0204
  161SOL    HW1  482   0.289   0.194   0.060 -1.8478  2.2092  1.5598
  161SOL    HW2  483   0.342   0.050   3.088  1.4429  0.2403  1.6308
  162SOL     OW  484   3.074   0.588   2.642  0.5733  0.3103 -0.3429
  162SOL    HW1  485   3.008   0.642   2.590  4.1500 -0.0258  2.4111
  162SOL    HW2  486   3.050   0.487   2.633 -1.9416 -2.5160 -0.1457
  163SOL     OW  487   0.165   2.809   2.734  0.2029  0.3864 -0.0384
  163SOL    HW1  488   0.236   2.743   2.762 -0.5371  1.5473 -0.1610
  163SOL    HW2  489   0.106   2.835   2.812  0.0242  1.4444  0.0289
  164SOL     OW  490   2.584   2.066   0.341  0.2527 -0.0185  0.1432
  164SOL    HW1  491   2.487   2.092   0.368 -0.0748  0.0107  1.1389
  164SOL    HW2  492   2.649   2.132   0.371  1.0767 -2.0304 -2.9425
  165SOL     OW  493   1.033   0.794   1.560  0.7030  0.0793 -0.3245
  165SOL    HW1  494   1.126   0.837   1.562 -1.5241 -2.3849 -1.1154
  165SOL    HW2  495   1.031   0.741   1.473  2.7046 -0.1046 -3.3443
  166SOL     OW  496   3.058   0.376   0.312  0.0728  0.3313 -0.2294
  166SOL    HW1  497   0.016   0.292   0.315 -0.6927 -4.5116 -0.0493
  166SOL    HW2  498   0.008   0.447   0.268 -0.2734 -1.7924  0.9568
  167SOL     OW  499   2.043   0.659   1.078 -0.1975  0.3098 -0.3107
  167SOL    HW1  500   2.110   0.652   1.002 -0.1104  2.5799 -1.3856
  167SOL    HW2  501   2.080   0.600   1.153 -0.8360 -0.0646  0.0090
  168SOL     OW  502   1.052   0.464   2.111 -0.2448  0.3682  0.4104
  168SOL    HW1  503   1.139   0.477   2.058  2.1424 -3.0685 -1.6622
  168SOL    HW2  504   1.044   0.523   2.196  2.6217 -3.1254  0.9744
  169SOL     OW  505   1.125   2.011   1.382  0.1964 -0.2852 -0.3569
  169SOL    HW1  506   1.073   1.924   1.350 -0.7416 -2.6607  1.0201
  169SOL    HW2  507   1.084   2.050   1.468  0.6903  1.7073  0.2174
  170SOL     OW  508   0.032   2.890   1.648  0.9438  0.1684  0.2907
  170SOL    HW1  509   0.133   2.886   1.648  0.6912  1.4571  0.2849
  170SOL    HW2  510   3.100   2.892   1.551  0.2662  0.1853  0.4604
  171SOL     OW  511   2.575   0.596   2.411 -0.1990 -0.3301 -0.2724
  171SOL    HW1  512   2.605   0.611   2.506 -0.2266 -0.0396 -0.6276
  171SOL    HW2  513   2.542   0.504   2.388  0.1338  2.4794 -0.7172
  172SOL     OW  514   1.217   2.883   1.558 -0.4936 -0.6703  0.2975
  172SOL    HW1  515   1.302   2.846   1.600  1.1645 -0.5781  2.2415
  172SOL    HW2  516   1.216   2.986   1.582  1.2829  3.7281  1.3352
  173SOL     OW  517   2.506   2.252   2.766  0.0666  0.6588 -0.2605
  173SOL    HW1  518   2.442   2.257   2.841 -0.5705 -1.1849 -2.1199
  173SOL    HW2  519   2.556   2.343   2.762 -0.5428 -0.8530  0.8545
  174SOL     OW  520   1.942   1.056   0.441 -0.3733  0.0503  0.5774
  174SOL    HW1  521   2.021   1.120   0.440  0.0253  0.2809 -2.1970
  174SOL    HW2  522   1.906   1.047   0.350  0.5344  0.7694 -0.8178
  175SOL     OW  523   0.973   1.420   1.311  0.2537 -0.3831 -0.6363
  175SOL    HW1  524   1.044   1.432   1.247 -0.7170 -1.2960  0.4921
  175SOL    HW2  525   0.984   1.496   1.382 -0.2054  1.3897 -0.0554
  176SOL     OW  526   0.142   3.032   0.771 -0.0278 -0.0554  0.1220
  176SOL    HW1  527   0.233   2.994   0.749  0.8294 -1.0114 -1.1471
  176SOL    HW2  528   0.076   3.014   0.698 -2.2106 -0.0414 -0.4590
  177SOL     OW  529   2.736   0.885   2.998  0.0061 -0.2368  0.0390
  177SOL    HW1  530   2.836   0.866   3.013  1.2523  2.9486  0.6216
  177SOL    HW2  531   2.716   0.899   2.898  1.0377  0.5077  0.3504
  178SOL     OW  532   2.817   2.735   2.301 -0.7985 -0.1228  0.2934
  178SOL    HW1  533   2.860   2.765   2.212  0.4781 -0.3109 -2.3145
  178SOL    HW2  534   2.801   2.633   2.305 -2.8738  2.1206  1.1657
  179SOL     OW  535   2.249   2.916   0.355 -0.0255 -0.1118 -0.1347
  179SOL    HW1  536   2.303   2.862   0.289 -0.5013  0.5715  0.4267
  179SOL    HW2  537   2.253   3.018   0.331  0.2457  2.2515  0.6509
  180SOL     OW  538   1.967   0.697   0.658 -0.4996 -0.0991 -0.1936
  180SOL    HW1  539   1.936   0.611   0.692 -0.0778  1.3266 -2.5653
  180SOL    HW2  540   1.887   0.758   0.644 -0.7055 -1.8665  0.5136
  181SOL     OW  541   3.013   0.309   2.657  0.1418  0.5046 -0.2419
  181SOL    HW1  542   3.083   0.249   2.612 -3.0191 -1.5940 -0.3233
  181SOL    HW2  543   2.977   0.255   2.736  0.0679  0.8683  0.7889
  182SOL     OW  544   2.676   2.013   2.326  0.2668 -0.2356 -0.1683
  182SOL    HW1  545   2.623   1.933   2.366 -1.5876  0.3427  0.6936
  182SOL    HW2  546   2.612   2.084   2.289  0.7063  0.7544  0.2638
  183SOL     OW  547   0.235   0.722   1.957  0.1279  0.2935  0.2105
  183SOL    HW1  548   0.195   0.722   2.053  0.5699 -2.2156  0.7264
  183SOL    HW2  549   0.200   0.640   1.903  1.5265 -3.6756  0.4653
  184SOL     OW  550   0.354   1.171   1.199 -0.0962 -0.0923 -0.0565
  184SOL    HW1  551   0.318   1.193   1.291 -0.3073  0.3373  1.9939
  184SOL    HW2  552   0.458   1.156   1.205 -0.1189  0.1503  0.8824
  185SOL     OW  553   2.924   2.379   1.192  0.2786 -0.2432 -0.2093
  185SOL    HW1  554   2.962   2.335   1.280 -0.1912 -0.2339 -1.1055
  185SOL    HW2  555   2.991   2.440   1.149 -1.1928 -2.4185 -0.8437
  186SOL     OW  556   1.545   2.820   2.985 -0.3111  0.2690  0.4751
  186SOL    HW1  557   1.565   2.742   2.924 -4.7699  3.5278 -1.0779
  186SOL    HW2  558   1.451   2.818   3.011  0.7148  2.5272 -1.1738
  187SOL     OW  559   0.449   1.341   0.611  0.1934 -0.2093 -0.8074
  187SOL    HW1  560   0.497   1.256   0.654  0.9643 -3.0693  0.4251
  187SOL    HW2  561   0.505   1.391   0.540  0.6852 -0.5266  1.3901
  188SOL     OW  562   1.790   1.959   0.357  0.2448  0.4119 -0.2789
  188SOL    HW1  563   1.769   1.957   0.257  0.5210 -1.0952 -2.2215
  188SOL    HW2  564   1.758   2.046   0.395 -1.3896 -0.8895 -2.1217
  189SOL     OW  565   0.125   1.590   3.050  0.0858 -0.1149 -0.0468
  189SOL    HW1  566   0.172   1.541   0.025 -0.9046  1.5514  1.3733
  189SOL    HW2  567   0.181   1.614   2.973 -3.0300 -3.0194  3.9395
  190SOL     OW  568   2.440   0.344   2.403  0.4132 -0.9400  0.0594
  190SOL    HW1  569   2.487   0.252   2.414  4.0153 -0.3668 -2.2734
  190SOL    HW2  570   2.347   0.335   2.364 -1.1620  0.6541 -0.9589
  191SOL     OW  571   0.511   0.966   2.032 -0.2567 -0.3606  0.7224
  191SOL    HW1  572   0.456   1.016   1.966  1.9018 -0.4383  2.7678
  191SOL    HW2  573   0.608   0.986   2.015 -1.9140 -0.7880 -0.4322
  192SOL     OW  574   2.004   1.217   1.724 -0.5776  0.0946 -0.0964
  192SOL    HW1  575   1.909   1.226   1.748  3.3023 -1.4139  2.2345
  192SOL    HW2  576   2.017   1.186   1.630  0.0111  0.8598  1.3408
  193SOL     OW  577   0.747   3.044   0.956  0.4622 -0.1639  0.5470
  193SOL    HW1  578   0.751   0.018   0.889 -0.4367  2.3054 -0.2334
  193SOL    HW2  579   0.829   2.980   0.943 -1.9737 -3.0623  0.0483
  194SOL     OW  580   1.378   2.005   1.336 -0.4884 -0.0624  0.4216
  194SOL    HW1  581   1.410   2.010   1.241 -2.0359  0.2509  1.5394
  194SOL    HW2  582   1.277   1.997   1.357 -1.7229  1.1589  1.8033
  195SOL     OW  583   1.829   0.508   1.069 -0.1212  0.0161 -0.2625
  195SOL    HW1  584   1.915   0.567   1.080  1.1166 -1.4097 -1.2153
  195SOL    HW2  585   1.764   0.539   1.140 -0.5738  0.0800  0.6931
  196SOL     OW  586   1.162   1.727   2.009  0.2202 -0.4114  0.5361
  196SOL    HW1  587   1.223   1.773   1.939 -3.0810  0.9007 -1.7380
  196SOL    HW2  588   1.168   1.783   2.093 -0.3503 -2.2197  1.3304
  197SOL     OW  589   2.981   2.659   2.865  0.8344 -0.0353  0.0366
  197SOL    HW1  590   3.049   2.717   2.910  0.4492 -2.5658 -0.1141
  197SOL    HW2  591   2.895   2.709   2.852  2.0272 -1.5955  0.3381
  198SOL     OW  592   3.062   0.550   0.871  0.1205  0.3865  0.1744
  198SOL    HW1  593   0.049   0.538   0.821  0.3903  0.3749 -2.6459
  198SOL    HW2  594   2.989   0.587   0.810 -0.9593 -0.2660 -0.9657
  199SOL     OW  595   0.431   1.975   0.862 -0.5932  0.0108  0.3001
  199SOL    HW1  596   0.355   2.025   0.818  0.5206  0.0587  1.3273
  199SOL    HW2  597   0.480   2.038   0.926 -0.2025 -4.3021  2.0597
  200SOL     OW  598   2.801   1.703   2.978  0.3991 -0.0836  0.1433
  200SOL    HW1  599   2.719   1.732   2.921 -2.7177  0.5739  1.5974
  200SOL    HW2  600   2.798   1.601   2.998  0.5301 -0.7418 -0.0617
  201SOL     OW  601   1.044   2.570   1.585  0.4689  0.1806 -0.4008
  201SOL    HW1  602   1.072   2.627   1.504  1.7731 -1.2088  0.7833
  201SOL    HW2  603   0.966   2.609   1.636  0.5922  0.1959 -0.3642
  202SOL     OW  604   0.876   2.797   3.021  0.3128 -0.1571  0.0448
  202SOL    HW1  605   0.859   2.864   0.001 -2.8476  1.9472  1.8819
  202SOL    HW2  606   0.791   2.739   3.012 -1.0390  1.9670  1.3679
  203SOL     OW  607   1.260   2.976   3.048 -0.5876 -0.1879  0.4978
  203SOL    HW1  608   1.284   3.073   3.035  0.6461 -1.2523  2.1290
  203SOL    HW2  609   1.218   2.931   2.962  0.8448 -3.5945 -3.1355
  204SOL     OW  610   0.451   1.588   1.335 -0.4176 -0.2502  0.1879
  204SOL    HW1  611   0.421   1.589   1.239 -2.2865 -0.2873  0.1031
  204SOL    HW2  612   0.488   1.499   1.360 -0.5119 -0.0214  0.4516
  205SOL     OW  613   1.776   1.219   1.859  0.3528  0.3675  0.4101
  205SOL    HW1  614   1.795   1.120   1.859  1.8760  1.9872  0.1429
  205SOL    HW2  615   1.713   1.237   1.935 -1.2838  2.2205  1.0855
  206SOL     OW  616   0.119   1.873   0.004 -0.5280 -0.2326 -0.2616
  206SOL    HW1  617   0.152   1.793   3.049  0.2725  0.8968 -2.7637
  206SOL    HW2  618   0.019   1.878   0.008  1.2434  1.0931  0.2331
  207SOL     OW  619   0.252   2.164   2.140  0.3474 -0.3474  0.2417
  207SOL    HW1  620   0.338   2.134   2.099 -1.1738  0.2040 -0.1263
  207SOL    HW2  621   0.174   2.132   2.078 -1.3079 -0.5426  0.0171
  208SOL     OW  622   0.412   2.553   0.800  0.0884 -0.0665 -0.1139
  208SOL    HW1  623   0.332   2.513   0.751  0.3866  2.3864 -3.3113
  208SOL    HW2  624   0.371   2.604   0.880 -1.8705  1.0503  1.2780
  209SOL     OW  625   0.951   2.671   2.244 -0.1894 -0.7694  0.2169
  209SOL    HW1  626   0.870   2.732   2.226 -0.8906  1.1351 -0.2827
  209SOL    HW2  627   1.011   2.652   2.161  4.6034  1.5072 -0.9513
  210SOL     OW  628   2.622   1.205   1.787 -0.0339 -0.3323  0.1650
  210SOL    HW1  629   2.525   1.197   1.769  2.7456 -0.1414  0.1985
  210SOL    HW2  630   2.651   1.127   1.849 -0.1719  0.0627  2.3705
  211SOL     OW  631   1.170   0.054   1.650 -0.0318  0.2942  0.3496
  211SOL    HW1  632   1.096   0.122   1.632 -0.5612  1.8443 -1.2279
  211SOL    HW2  633   1.156   0.032   1.749 -0.2511  0.7905  0.7515
  212SOL     OW  634   2.071   2.825   1.866 -1.0279  0.1780 -0.6202
  212SOL    HW1  635   2.051   2.768   1.948  1.0954 -0.1255  0.2826
  212SOL    HW2  636   2.049   2.779   1.778  2.5886  2.0313 -0.2869
  213SOL     OW  637   3.064   0.200   1.690  0.3501 -0.2947 -0.4705
  213SOL    HW1  638   2.965   0.191   1.691 -0.0512  2.0920 -1.7996
  213SOL    HW2  639   3.101   0.197   1.785  0.8559 -1.2124 -2.1129
  214SOL     OW  640   0.875   2.165   1.009 -0.7008 -0.5193  0.7646
  214SOL    HW1  641   0.954   2.187   1.064  1.0777  0.9193 -0.5190
  214SOL    HW2  642   0.872   2.068   0.979  1.2876  0.9037 -0.4577
  215SOL     OW  643   2.573   2.173   0.630 -0.9521 -0.0911 -0.2505
  215SOL    HW1  644   2.484   2.204   0.597 -1.3755 -0.8788  2.9709
  215SOL    HW2  645   2.647   2.241   0.597 -1.5876  2.1572 -2.0601
  216SOL     OW  646   0.211   0.926   1.753  0.2341 -0.3233  0.0928
  216SOL    HW1  647   0.204   0.872   1.837  0.8589 -1.7530 -0.5565
  216SOL    HW2  648   0.205   0.862   1.669 -1.0096 -1.9822  0.2621
  217SOL     OW  649   2.448   0.189   1.670 -0.3394 -0.1723 -0.6421
  217SOL    HW1  650   2.394   0.268   1.703  0.3766  2.4575 -0.4415
  217SOL    HW2  651   2.395   0.103   1.655 -0.3196  0.0474  1.0932
  218SOL     OW  652   1.939   2.685   1.690  0.2857 -0.0744  0.3282
  218SOL    HW1  653   1.879   2.726   1.616 -1.1948  1.9053 -0.7016
  218SOL    HW2  654   1.881   2.615   1.744 -3.6499 -1.4510 -2.0689
  219SOL     OW  655   2.074   2.475   3.023 -0.3265 -0.1312 -0.1676
  219SOL    HW1  656   2.159   2.514   3.062 -1.9919  1.0845 -1.5970
  219SOL    HW2  657   2.057   2.380   3.062  0.0564  2.3103  2.2280
  220SOL     OW  658   1.440   2.907   0.260  0.2281 -0.0655 -0.3778
  220SOL    HW1  659   1.347   2.913   0.212 -2.5525 -1.1809 -0.1977
  220SOL    HW2  660   1.486   2.824   0.234  0.7075  1.7904 -0.4626
  221SOL     OW  661   3.016   1.951   1.645 -0.2516 -0.4441 -0.7789
  221SOL    HW1  662   0.005   1.995   1.638  0.6419  2.8994 -1.9855
  221SOL    HW2  663   2.957   1.994   1.718 -0.6991 -3.0097 -1.2970
  222SOL     OW  664   1.778   2.782   1.117 -0.2894  0.2032  0.5641
  222SOL    HW1  665   1.759   2.872   1.158 -0.1641 -1.5081 -0.1204
  222SOL    HW2  666   1.791   2.709   1.182  1.2835 -0.8164 -0.1189
  223SOL     OW  667   1.361   0.581   1.426 -0.2266 -0.2850 -0.2301
  223SOL    HW1  668   1.368   0.631   1.515  0.0584  1.2928 -3.1361
  223SOL    HW2  669   1.266   0.579   1.391 -0.3603 -0.6452  0.6430
  224SOL     OW  670   3.037   2.304   1.426  0.5508 -0.1958 -0.3461
  224SOL    HW1  671   3.080   2.398   1.434 -0.3947 -1.6396  0.7706
  224SOL    HW2  672   2.992   2.275   1.512  0.2481  2.8955 -0.4764
  225SOL     OW  673   2.620   2.055   1.151 -0.3968  0.4172 -0.0154
  225SOL    HW1  674   2.601   2.121   1.226 -0.4432 -1.1287  2.1857
  225SOL    HW2  675   2.623   2.099   1.063 -0.1794  1.1598 -1.2773
  226SOL     OW  676   1.562   2.211   3.080 -0.1238 -0.1953 -0.4899
  226SOL    HW1  677   1.494   2.139   3.063  1.8720  1.6529 -1.2735
  226SOL    HW2  678   1.627   2.214   3.003 -0.1531 -2.9169  3.6271
  227SOL     OW  679   1.828   1.312   0.847 -0.8481 -0.2491 -0.0769
  227SOL    HW1  680   1.872   1.359   0.926 -0.7233  0.6455  1.0920
  227SOL    HW2  681   1.841   1.212   0.838  0.4301 -0.3581 -3.7288
  228SOL     OW  682   1.777   0.689   0.325  0.1975 -0.4060 -0.1190
  228SOL    HW1  683   1.694   0.629   0.308 -1.0397  2.0083 -0.5930
  228SOL    HW2  684   1.760   0.758   0.397  0.0808  0.5393 -2.1260
  229SOL     OW  685   2.741   1.019   1.928  0.0417 -0.3074 -0.1802
  229SOL    HW1  686   2.691   0.933   1.944 -0.5517 -0.6315 -2.6886
  229SOL    HW2  687   2.832   0.998   1.887 -1.5814  0.8693 -0.9157
  230SOL     OW  688   0.610   1.103   1.224  0.6911 -0.0145  0.6123
  230SOL    HW1  689   0.691   1.063   1.179  0.0338  0.0681 -0.7968
  230SOL    HW2  690   0.574   1.042   1.301  0.0153 -1.4312  2.1330
  231SOL     OW  691   2.021   0.497   2.604 -0.1299 -0.9086 -0.2626
  231SOL    HW1  692   1.987   0.482   2.702 -1.9406 -0.5581  1.6147
  231SOL    HW2  693   2.093   0.571   2.607 -2.2559  1.1475  0.3923
  232SOL     OW  694   0.071   1.579   1.070  0.3823  0.6705  0.2130
  232SOL    HW1  695   0.073   1.530   1.160  0.2806  0.2365 -0.6175
  232SOL    HW2  696   0.049   1.525   0.986  0.5794  1.0614 -1.7467
  233SOL     OW  697   1.702   2.925   2.710  0.2855 -0.4308  0.3273
  233SOL    HW1  698   1.742   3.016   2.718  1.3922 -0.6046 -0.1214
  233SOL    HW2  699   1.683   2.891   2.803  0.8064  1.3417 -3.7581
  234SOL     OW  700   1.582   2.733   1.450  0.0044 -0.1735  0.4898
  234SOL    HW1  701   1.518   2.767   1.374  0.3238 -0.2137 -3.0636
  234SOL    HW2  702   1.567   2.640   1.485 -0.5817  0.2670  0.1259
  235SOL     OW  703   0.940   1.258   1.540  0.1993 -0.1517  0.1217
  235SOL    HW1  704   1.034   1.219   1.521  0.9790 -0.3133  1.8487
  235SOL    HW2  705   0.919   1.324   1.466 -0.1626  1.0886  0.6847
  236SOL     OW  706   0.697   2.592   2.811 -0.7041  0.6591 -0.7523
  236SOL    HW1  707   0.797   2.561   2.813  4.4306  0.6424  0.5088
  236SOL    HW2  708   0.658   2.595   2.904 -0.3376  0.8088 -1.4957
  237SOL     OW  709   0.576   0.070   1.806  0.0400 -0.2001  0.3149
  237SOL    HW1  710   0.553   0.025   1.893  0.5316  1.6728 -1.4349
  237SOL    HW2  711   0.504   0.050   1.736 -2.1427 -0.1650  1.0375
  238SOL     OW  712   0.783   0.426   0.529 -0.2011 -0.7026 -0.2549
  238SOL    HW1  713   0.777   0.333   0.492  2.6435  2.1363  1.0859
  238SOL    HW2  714   0.884   0.454   0.532  2.6367  0.4553  1.4252
  239SOL     OW  715   2.455   0.763   2.801 -0.1631  0.1925 -0.0468
  239SOL    HW1  716   2.494   0.842   2.751  1.2782 -0.3856 -1.6002
  239SOL    HW2  717   2.462   0.769   2.906  1.9343 -1.0205  1.4556
  240SOL     OW  718   2.899   1.984   1.102 -0.0903  0.1160  0.0740
  240SOL    HW1  719   2.803   2.005   1.128 -1.4796  0.3448 -0.4911
  240SOL    HW2  720   2.939   1.956   1.191 -2.1053  2.6591 -1.1963
  241SOL     OW  721   1.257   1.853   0.739  0.6129 -0.0454  0.1807
  241SOL    HW1  722   1.354   1.844   0.764  1.8016 -1.7959  0.9154
  241SOL    HW2  723   1.230   1.947   0.712 -0.9968  0.2336  0.9724
  242SOL     OW  724   0.882   0.154   0.789  0.4315 -0.1728  0.4844
  242SOL    HW1  725   0.966   0.162   0.842 -0.6996  0.3557 -3.3877
  242SOL    HW2  726   0.821   0.231   0.801  2.3620 -2.2161 -0.8509
  243SOL     OW  727   0.413   0.447   1.174 -0.7223  0.0566 -0.6408
  243SOL    HW1  728   0.357   0.523   1.141 -0.4700 -1.3404  1.2070
  243SOL    HW2  729   0.373   0.355   1.155  2.6846 -4.1021  0.4200
  244SOL     OW  730   0.889   3.092   0.572 -0.5443  0.2177 -0.0638
  244SOL    HW1  731   0.988   3.073   0.541  0.1077 -0.2292  1.0827
  244SOL    HW2  732   0.878   0.083   0.609  1.3583 -0.8559 -0.2065
  245SOL     OW  733   2.654   1.136   0.268 -0.0216 -0.4320 -0.0869
  245SOL    HW1  734   2.715   1.059   0.256  0.0987  0.6009  0.4066
  245SOL    HW2  735   2.701   1.230   0.277 -2.3354  1.7124 -1.7343
  246SOL     OW  736   0.316   2.840   1.570 -0.5485  0.5551  0.2453
  246SOL    HW1  737   0.371   2.753   1.576 -1.4580  0.0107 -1.2155
  246SOL    HW2  738   0.289   2.858   1.472 -1.1982 -0.4103 -0.2617
  247SOL     OW  739   1.061   0.106   1.909  0.3583 -0.9465  0.2782
  247SOL    HW1  740   1.044   0.010   1.939  0.0002  0.7102 -0.7818
  247SOL    HW2  741   0.975   0.140   1.867  0.4012  0.4510 -2.3172
  248SOL     OW  742   0.406   1.674   1.986 -0.3792 -0.0329 -0.0047
  248SOL    HW1  743   0.490   1.715   2.024 -1.2050 -1.3098 -1.2437
  248SOL    HW2  744   0.419   1.573   1.988 -1.9917  1.3717 -1.5354
  249SOL     OW  745   1.007   2.141   0.410 -0.0298  0.5565 -0.1089
  249SOL    HW1  746   0.915   2.099   0.433  0.3979  0.4626 -1.7476
  249SOL    HW2  747   1.024   2.238   0.434  0.5274  1.1576 -2.7597
  250SOL     OW  748   0.545   3.075   2.072  0.6106 -0.3208 -0.3929
  250SOL    HW1  749   0.498   2.991   2.099  3.4792  2.5035  0.7285
  250SOL    HW2  750   0.591   0.004   2.156  1.6319  0.1646  1.3523
  251SOL     OW  751   2.795   1.966   1.851  0.8218 -0.2646 -0.0041
  251SOL    HW1  752   2.811   1.869   1.866  0.1363  0.1685  0.4695
  251SOL    HW2  753   2.727   1.990   1.783  0.5332  1.7386 -0.4442
  252SOL     OW  754   1.137   0.523   1.792 -0.0677 -0.0208  0.2136
  252SOL    HW1  755   1.052   0.553   1.842 -1.2083  0.9148  1.3484
  252SOL    HW2  756   1.117   0.491   1.700  2.4984  0.2637  2.0279
  253SOL     OW  757   2.497   1.795   2.417 -0.0417  0.0700  0.0738
  253SOL    HW1  758   2.498   1.729   2.337  0.6643  2.7461 -0.3147
  253SOL    HW2  759   2.415   1.853   2.409 -0.5681  0.3145  0.4043
  254SOL     OW  760   0.587   1.174   0.802  0.2714  0.5461  0.0075
  254SOL    HW1  761   0.502   1.213   0.842  1.9244 -1.0799 -0.9961
  254SOL    HW2  762   0.664   1.181   0.870  2.2400  1.5527  1.9849
  255SOL     OW  763   0.041   2.213   1.761 -0.3501 -0.4951 -0.1588
  255SOL    HW1  764   3.047   2.243   1.771  2.7680  0.3965  1.2787
  255SOL    HW2  765   0.093   2.294   1.725  0.1095 -0.2487 -1.4399
  256SOL     OW  766   0.423   2.993   0.344 -0.0536  0.2377  0.3573
  256SOL    HW1  767   0.406   2.986   0.445 -1.8111 -0.8855  2.5384
  256SOL    HW2  768   0.505   2.947   0.309 -0.2010  3.9488  0.7960
  257SOL     OW  769   1.195   2.585   2.380 -0.3925 -0.4371 -0.4701
  257SOL    HW1  770   1.259   2.651   2.338 -3.3311  1.3090  2.1965
  257SOL    HW2  771   1.105   2.588   2.335  0.1674 -1.6975  1.2236
  258SOL     OW  772   1.835   2.043   2.133 -0.5174 -0.1956 -0.5674
  258SOL    HW1  773   1.764   1.974   2.122  3.4095  1.9692  1.8232
  258SOL    HW2  774   1.863   2.091   2.051  2.8002 -1.7191  4.2937
  259SOL     OW  775   0.672   0.663   2.223  0.1088  0.0658  0.2193
  259SOL    HW1  776   0.754   0.707   2.182 -0.0567 -1.1837  1.9738
  259SOL    HW2  777   0.645   0.589   2.163 -0.5508  0.7467  1.9995
  260SOL     OW  778   2.468   0.824   3.072 -0.4911  0.1438 -0.0210
  260SOL    HW1  779   2.451   0.771   0.055 -1.5201  2.3372 -0.3007
  260SOL    HW2  780   2.566   0.848   3.056 -0.4241 -0.6293 -0.9773
  261SOL     OW  781   1.042   1.117   0.647 -0.3865 -0.1666  0.1936
  261SOL    HW1  782   1.110   1.044   0.607  0.6601 -1.3292 -0.2086
  261SOL    HW2  783   1.092   1.203   0.682 -1.2714  0.2267 -0.0713
  262SOL     OW  784   2.075   2.611   2.791  0.2194 -0.7815  0.1421
  262SOL    HW1  785   2.001   2.631   2.732  1.2441  1.5448  1.0644
  262SOL    HW2  786   2.057   2.556   2.875  0.3395  3.3110 -1.2148
  263SOL     OW  787   0.819   2.462   1.008  0.4854  0.2468  0.7610
  263SOL    HW1  788   0.850   2.483   1.104  1.1128  1.0852  1.2733
  263SOL    HW2  789   0.833   2.364   0.980 -1.9928 -1.7997  0.9910
  264SOL     OW  790   2.851   1.883   0.869  0.2701  0.4062 -0.6297
  264SOL    HW1  791   2.868   1.923   0.960  1.0528  0.4363 -2.1286
  264SOL    HW2  792   2.861   1.778   0.883  1.1592 -2.6981 -1.6153
  265SOL     OW  793   1.892   1.486   2.710 -0.2659  0.0340 -0.2422
  265SOL    HW1  794   1.958   1.418   2.750 -1.0026  2.5491 -0.4012
  265SOL    HW2  795   1.880   1.558   2.782  0.8959  0.2459 -2.2417
  266SOL     OW  796   1.586   1.903   2.106 -0.9266 -0.3369 -0.0037
  266SOL    HW1  797   1.602   1.803   2.081 -3.4551 -0.1881  0.0521
  266SOL    HW2  798   1.542   1.902   2.196  0.9656 -0.8231 -2.1149
  267SOL     OW  799   1.982   0.484   2.331  0.0027  0.4949 -0.1765
  267SOL    HW1  800   2.001   0.498   2.429  0.6010 -0.1763  1.0867
  267SOL    HW2  801   1.893   0.524   2.310  2.6049  0.3583  0.8540
  268SOL     OW  802   1.093   1.013   3.047  0.4626  0.4350  0.7187
  268SOL    HW1  803   1.094   1.114   3.057 -0.1057 -0.8097  0.5276
  268SOL    HW2  804   1.055   0.989   2.954 -1.2622 -0.3508  1.6625
  269SOL     OW  805   2.954   2.048   2.187 -0.0566  0.4532 -0.5639
  269SOL    HW1  806   2.976   1.993   2.104  3.5223 -1.2923 -0.4019
  269SOL    HW2  807   2.871   2.006   2.229 -2.0053 -0.8357 -3.1109
  270SOL     OW  808   2.908   1.443   3.077  0.7811  0.1283 -0.1666
  270SOL    HW1  809   2.992   1.384   3.076  1.6363  1.3437 -2.0466
  270SOL    HW2  810   2.892   1.494   0.060  1.6919 -2.4714  3.9763
  271SOL     OW  811   0.779   0.190   0.389 -0.4019  0.3217  0.0541
  271SOL    HW1  812   0.798   0.091   0.419  2.1404 -4.4825 -1.0924
  271SOL    HW2  813   0.818   0.212   0.295 -2.9589  1.4672  2.9730
  272SOL     OW  814   0.108   0.141   0.286  0.0186 -0.6137 -0.1998
  272SOL    HW1  815   0.079   0.139   0.187 -0.5952 -0.4444 -1.2504
  272SOL    HW2  816   0.152   0.050   0.308  0.4900  1.2309 -1.0903
  273SOL     OW  817   0.442   2.850   2.186  0.0740 -0.1863 -0.3719
  273SOL    HW1  818   0.390   2.812   2.264 -0.9344 -0.2703 -1.8303
  273SOL    HW2  819   0.392   2.836   2.101 -1.2200  1.8656 -0.4590
  274SOL     OW  820   0.316   0.154   1.443  0.3407 -0.5385 -0.0074
  274SOL    HW1  821   0.216   0.142   1.444  1.3710  2.7060 -2.3423
  274SOL    HW2  822   0.343   0.185   1.352  0.0437 -2.3467  2.5263
  275SOL     OW  823   0.958   1.821   1.321  0.5289  0.3227  0.3146
  275SOL    HW1  824   0.928   1.787   1.226 -0.6097 -0.7584  2.1306
  275SOL    HW2  825   0.971   1.741   1.388 -3.0083  0.5152  0.2455
  276SOL     OW  826   0.040   1.465   2.032 -0.1867 -0.3786  0.1741
  276SOL    HW1  827   0.077   1.374   2.048 -1.1653 -0.8117  1.4365
  276SOL    HW2  828   0.005   1.474   1.934  0.1221 -0.5793  1.5517
  277SOL     OW  829   1.263   2.294   1.957  0.2828 -0.6468 -0.3572
  277SOL    HW1  830   1.294   2.351   1.877  0.6218 -1.7591 -0.3840
  277SOL    HW2  831   1.339   2.239   1.995 -3.5896  1.3413 -0.4821
  278SOL     OW  832   1.822   2.906   2.395 -0.2919  0.4103 -0.0460
  278SOL    HW1  833   1.832   2.806   2.405 -1.1899 -0.1893  3.8250
  278SOL    HW2  834   1.865   2.943   2.313  0.9227 -4.3814  1.2826
  279SOL     OW  835   1.440   1.577   0.049 -0.3052 -0.3359 -0.3390
  279SOL    HW1  836   1.449   1.487   0.095 -1.9796 -3.3365  1.6365
  279SOL    HW2  837   1.512   1.587   3.079 -0.6083  0.3992  0.4876
  280SOL     OW  838   1.254   0.622   0.990  0.0217  0.5764 -0.1415
  280SOL    HW1  839   1.191   0.657   0.917  1.5293 -1.5867 -0.9246
  280SOL    HW2  840   1.278   0.526   0.962 -1.9692  0.8213  0.2585
  281SOL     OW  841   2.958   0.485   2.099 -0.1268 -0.2115  0.3488
  281SOL    HW1  842   3.051   0.520   2.130  0.8322  0.4197 -0.0579
  281SOL    HW2  843   2.880   0.536   2.139  1.2428  0.0381 -2.3262
  282SOL     OW  844   0.390   2.949   0.654  0.0172 -0.0353  0.2097
  282SOL    HW1  845   0.323   2.885   0.621 -0.6667  0.7817  2.3473
  282SOL    HW2  846   0.471   2.901   0.704  1.5658 -0.3251  3.0038
  283SOL     OW  847   1.236   2.303   1.553 -0.0404 -0.0071  1.1368
  283SOL    HW1  848   1.186   2.215   1.562 -1.0041  0.7115  0.4592
  283SOL    HW2  849   1.164   2.376   1.565 -3.7712 -1.5611 -0.3966
  284SOL     OW  850   2.155   2.804   1.304  0.3515 -0.2582 -0.3782
  284SOL    HW1  851   2.085   2.822   1.379  0.0557 -0.4764 -0.5071
  284SOL    HW2  852   2.102   2.775   1.226  1.9361  0.0607  3.6421
  285SOL     OW  853   0.886   1.763   1.069  0.2067 -0.3545 -0.0674
  285SOL    HW1  854   0.807   1.699   1.062  1.8343  0.8473  0.1471
  285SOL    HW2  855   0.936   1.764   0.979  0.8784 -0.2575  0.9909
  286SOL     OW  856   0.067   2.729   1.986  0.3528 -0.0625  0.0638
  286SOL    HW1  857   0.022   2.747   1.897  4.1391 -0.2819 -0.4217
  286SOL    HW2  858   0.028   2.642   2.025 -0.9271  0.1552  1.4655
  287SOL     OW  859   0.786   1.008   0.701  0.0242  0.5288 -0.1983
  287SOL    HW1  860   0.885   1.035   0.714  2.6838 -0.1305 -0.3964
  287SOL    HW2  861   0.724   1.073   0.748  1.7307  0.2086 -1.5803
  288SOL     OW  862   1.452   2.309   2.428  0.4183 -0.4757  0.2111
  288SOL    HW1  863   1.364   2.260   2.416 -1.7748  1.9638  0.2907
  288SOL    HW2  864   1.525   2.250   2.465 -1.4559 -1.3645 -1.9907
  289SOL     OW  865   1.847   1.247   2.445  0.1557  0.0621 -0.1350
  289SOL    HW1  866   1.895   1.336   2.462  2.0077  1.5469 -0.3420
  289SOL    HW2  867   1.910   1.190   2.388  3.8199  0.9356 -0.5109
  290SOL     OW  868   1.855   1.902   0.645  0.2382 -0.6082  0.0423
  290SOL    HW1  869   1.843   1.909   0.542 -0.7711  2.5481 -1.4967
  290SOL    HW2  870   1.856   1.999   0.676  0.2178 -3.7056  1.3182
  291SOL     OW  871   1.373   0.999   3.082 -0.4181 -0.2048 -1.0079
  291SOL    HW1  872   1.279   0.970   3.057 -3.0297 -0.4900 -0.2468
  291SOL    HW2  873   1.432   0.921   3.059 -2.3975  0.4608  2.2213
  292SOL     OW  874   2.088   1.755   0.738 -0.6012 -0.2717  0.0244
  292SOL    HW1  875   2.125   1.713   0.651 -1.7966 -0.1414 -1.3877
  292SOL    HW2  876   2.002   1.802   0.705  1.8542 -0.3637  0.2534
  293SOL     OW  877   1.801   0.145   1.213  0.0145  0.0626  0.4080
  293SOL    HW1  878   1.876   0.202   1.179 -0.5431 -1.5146  1.3930
  293SOL    HW2  879   1.726   0.192   1.251  1.4436 -2.7094 -1.2346
  294SOL     OW  880   2.839   0.913   0.211  0.2822  0.4748 -0.0319
  294SOL    HW1  881   2.832   0.837   0.149 -1.7524  0.0128  3.2530
  294SOL    HW2  882   2.857   0.878   0.305 -0.6351  2.0939 -2.4436
  295SOL     OW  883   2.099   1.782   2.568  0.0999  0.5385 -0.1378
  295SOL    HW1  884   2.135   1.823   2.484  1.5696 -0.0942  1.0155
  295SOL    HW2  885   2.167   1.722   2.614 -1.4902 -0.1862  2.9247
  296SOL     OW  886   1.253   1.810   1.122  0.7917  0.0246  0.3698
  296SOL    HW1  887   1.302   1.726   1.087  1.5883 -1.3866 -0.5136
  296SOL    HW2  888   1.174   1.780   1.176 -0.0656  1.5018  0.0831
  297SOL     OW  889   0.650   0.784   2.852 -0.0029  0.1977  0.1536
  297SOL    HW1  890   0.546   0.789   2.839 -0.2165  0.5073  0.5416
  297SOL    HW2  891   0.669   0.793   2.952  0.0241  2.8332 -1.2681
  298SOL     OW  892   1.603   3.029   1.869 -0.2634  0.9746 -0.1818
  298SOL    HW1  893   1.702   3.007   1.841  0.6019 -0.7699 -0.2351
  298SOL    HW2  894   1.583   2.994   1.955  0.2042 -0.6904 -3.1674
  299SOL     OW  895   1.021   0.643   2.594  0.2468  0.2556 -0.0161
  299SOL    HW1  896   0.994   0.673   2.686  1.2231 -1.2394 -0.6079
  299SOL    HW2  897   1.082   0.562   2.604 -1.8413  0.0242 -0.9579
  300SOL     OW  898   2.060   1.579   0.026 -0.4110 -0.0300  0.0916
  300SOL    HW1  899   2.034   1.598   0.121  1.6749 -3.6130  0.9109
  300SOL    HW2  900   2.130   1.507   0.029 -3.0874  2.4634  0.8616
  301SOL     OW  901   2.182   0.284   2.326 -0.1907 -0.2046  0.2094
  301SOL    HW1  902   2.173   0.219   2.406 -1.4002 -1.7728 -0.2353
  301SOL    HW2  903   2.093   0.332   2.310  1.3027  0.6491 -0.6448
  302SOL     OW  904   2.461   1.598   2.618  0.0399  0.1930  0.5212
  302SOL    HW1  905   2.498   1.504   2.610 -0.0650  1.5856 -0.4725
  302SOL    HW2  906   2.486   1.654   2.534 -0.3589 -0.3488 -1.7684
  303SOL     OW  907   0.184   2.555   2.263  0.0606  0.0391 -0.0319
  303SOL    HW1  908   0.145   2.512   2.346 -0.4584  2.9853 -1.0832
  303SOL    HW2  909   0.117   2.563   2.192  1.7469 -2.8552  2.4828
  304SOL     OW  910   3.003   0.958   0.863  0.5279 -0.2438 -0.8040
  304SOL    HW1  911   2.958   1.027   0.803  2.8764  1.3788  1.0021
  304SOL    HW2  912   0.001   0.967   0.854 -3.6544 -2.4685 -0.0435
  305SOL     OW  913   3.078   0.239   2.122  0.6265 -0.0564 -0.0596
  305SOL    HW1  914   3.029   0.322   2.090 -0.8879  0.2799 -2.2404
  305SOL    HW2  915   0.073   0.248   2.098 -2.8420  2.0661  1.1233
  306SOL     OW  916   1.535   1.934   0.823  0.0674 -0.5666  0.4230
  306SOL    HW1  917   1.584   1.846   0.817 -1.3559  0.3106  1.7003
  306SOL    HW2  918   1.539   1.975   0.726  0.1905 -0.1993  0.1081
  307SOL     OW  919   3.045   2.820   1.395 -0.2048  0.4308 -0.5564
  307SOL    HW1  920   0.015   2.863   1.339  1.7002  0.3198 -1.2506
  307SOL    HW2  921   2.954   2.858   1.372 -2.2487 -0.3076 -1.2124
  308SOL     OW  922   2.858   1.821   2.472 -0.0971 -0.0309  0.0982
  308SOL    HW1  923   2.840   1.735   2.527  1.4098  0.0094 -0.0494
  308SOL    HW2  924   2.798   1.830   2.390 -0.5769 -0.1281 -0.1310
  309SOL     OW  925   0.295   1.694   2.848  0.1277 -0.3655 -0.3740
  309SOL    HW1  926   0.340   1.638   2.777  2.1372 -0.2774  0.8021
  309SOL    HW2  927   0.288   1.789   2.815  2.4765 -0.8818 -2.8804
  310SOL     OW  928   2.111   0.496   0.004  0.2979 -0.6591 -0.4527
  310SOL    HW1  929   2.115   0.550   0.090  1.8869 -1.0611  0.3793
  310SOL    HW2  930   2.183   0.424   0.009  2.7845 -0.7408 -1.7418
  311SOL     OW  931   1.931   1.027   0.052  0.1997 -0.3776 -0.2696
  311SOL    HW1  932   1.898   1.043   3.058  0.6039 -2.7844  1.4341
  311SOL    HW2  933   2.024   1.066   0.068  3.0835  1.5377  1.1580
  312SOL     OW  934   1.168   1.329   2.185 -0.3082  0.2776  0.0589
  312SOL    HW1  935   1.119   1.391   2.254 -1.6686 -0.1240 -0.5334
  312SOL    HW2  936   1.104   1.277   2.130  0.8490 -1.7558  3.9910
  313SOL     OW  937   0.646   0.069   0.137 -0.0621  0.2426  0.5096
  313SOL    HW1  938   0.703   0.151   0.151 -1.2443 -0.9582  2.0622
  313SOL    HW2  939   0.560   0.079   0.081  0.2111 -0.0814  2.0759
  314SOL     OW  940   0.510   1.865   1.385 -0.1004 -0.0807 -0.6027
  314SOL    HW1  941   0.511   1.763   1.391  1.2851 -1.8308  0.0848
  314SOL    HW2  942   0.600   1.902   1.422 -0.6494  1.0292  0.7256
  315SOL     OW  943   1.477   2.154   1.581 -0.1053 -0.3756 -0.1369
  315SOL    HW1  944   1.461   2.096   1.500  2.4162  1.2088 -2.4838
  315SOL    HW2  945   1.394   2.213   1.600 -1.6025  0.6352 -1.3693
  316SOL     OW  946   0.693   2.171   0.205  0.2917 -0.0492  0.5290
  316SOL    HW1  947   0.644   2.086   0.202  2.2898  1.7337 -2.3312
  316SOL    HW2  948   0.754   2.168   0.285  1.9631  0.8521  1.2565
  317SOL     OW  949   2.700   0.313   1.029 -0.2515  0.4983  0.0342
  317SOL    HW1  950   2.692   0.256   1.114 -1.4822  0.9109  1.4214
  317SOL    HW2  951   2.784   0.284   0.969  4.8073  1.5457  0.6174
  318SOL     OW  952   1.014   2.416   0.363 -0.3869 -0.1980 -0.2984
  318SOL    HW1  953   1.007   2.474   0.447  1.3986  0.3926 -0.5573
  318SOL    HW2  954   0.988   2.471   0.276  0.7558 -0.0784  0.7697
  319SOL     OW  955   1.245   0.310   2.929 -0.3552 -0.5142  0.3008
  319SOL    HW1  956   1.152   0.318   2.895  1.1261 -0.1354  0.1482
  319SOL    HW2  957   1.247   0.343   3.023 -1.7223 -0.1033 -0.7356
  320SOL     OW  958   2.212   1.846   1.739  0.2985 -0.5976  0.1059
  320SOL    HW1  959   2.109   1.860   1.746 -3.4361 -2.8071  0.2357
  320SOL    HW2  960   2.240   1.759   1.691  0.7265 -0.7023  0.4076
  321SOL     OW  961   0.058   2.864   2.983 -0.3732 -0.5250  0.3882
  321SOL    HW1  962   0.055   2.852   3.080  1.1058  1.1150 -1.4780
  321SOL    HW2  963   0.053   2.962   2.960  0.0133 -0.2775 -0.3719
  322SOL     OW  964   2.308   0.816   1.172  0.3391  0.0414 -0.2124
  322SOL    HW1  965   2.225   0.826   1.119 -0.1549 -0.8826 -1.0352
  322SOL    HW2  966   2.378   0.886   1.159 -3.6114  0.6554  0.8220
  323SOL     OW  967   2.036   1.881   0.271 -0.0153 -0.1661 -0.2764
  323SOL    HW1  968   1.959   1.921   0.318  3.5780 -1.2528 -0.1715
  323SOL    HW2  969   2.032   1.778   0.274 -1.8900  0.9466 -0.7978
  324SOL     OW  970   0.042   0.198   1.434  0.0674 -0.2664 -0.0684
  324SOL    HW1  971   3.077   0.261   1.394  1.7089 -1.9561 -2.3338
  324SOL    HW2  972   0.022   0.179   1.534  2.8089 -2.0702  2.8218
  325SOL     OW  973   2.799   2.650   0.827 -0.0909  0.6132 -0.2799
  325SOL    HW1  974   2.765   2.590   0.904  1.2265 -0.7044 -1.8226
  325SOL    HW2  975   2.735   2.725   0.806  0.6751 -1.5994  0.1929
  326SOL     OW  976   1.559   2.613   0.454 -0.4434  0.2670 -0.5669
  326SOL    HW1  977   1.557   2.614   0.350 -1.6594  1.7431 -0.8994
  326SOL    HW2  978   1.649   2.581   0.488 -2.6375 -0.0179 -3.3882
  327SOL     OW  979   2.009   2.477   0.356  0.1830  0.2911 -0.0215
  327SOL    HW1  980   2.037   2.399   0.300 -3.2210  0.0256 -0.2939
  327SOL    HW2  981   2.031   2.568   0.309  0.9002  1.0933 -2.0040
  328SOL     OW  982   2.570   2.358   1.931 -0.7341 -0.0010  0.0391
  328SOL    HW1  983   2.629   2.279   1.968  0.1748  1.7934 -2.7800
  328SOL    HW2  984   2.623   2.433   1.897 -0.3657 -4.0281 -1.5222
  329SOL     OW  985   0.159   2.343   0.727  0.3243 -0.2585  0.0148
  329SOL    HW1  986   0.092   2.364   0.800 -2.1318  0.8158  0.7077
  329SOL    HW2  987   0.197   2.251   0.739 -1.8708  2.7518  1.5056
  330SOL     OW  988   2.137   0.943   1.900  0.5585  0.1791  0.0519
  330SOL    HW1  989   2.196   1.027   1.878  1.0693 -1.2284 -0.6677
  330SOL    HW2  990   2.150   0.869   1.835 -0.1805 -0.0835  2.9445
  331SOL     OW  991   2.459   1.737   0.811 -0.1584  0.3609 -0.2008
  331SOL    HW1  992   2.542   1.791   0.795 -0.3436  2.5185  1.1716
  331SOL    HW2  993   2.393   1.793   0.863 -0.5133 -2.3720 -0.1166
  332SOL     OW  994   0.052   2.573   1.449  0.1036  0.3226 -0.2667
  332SOL    HW1  995   0.144   2.578   1.405  2.4598  1.6408  0.5185
  332SOL    HW2  996   0.003   2.658   1.439 -0.2718 -0.2779 -0.0183
  333SOL     OW  997   2.927   1.500   1.758  0.2158  0.6127 -0.6004
  333SOL    HW1  998   2.847   1.559   1.734  2.9192  1.4855 -0.5231
  333SOL    HW2  999   3.006   1.558   1.734 -0.2538  0.1246 -1.0591
  334SOL     OW 1000   0.402   0.612   1.385 -0.7059  0.2238 -0.5973
  334SOL    HW1 1001   0.315   0.622   1.436 -1.8755  0.0373  0.6003
  334SOL    HW2 1002   0.398   0.538   1.313  0.3099 -2.6840 -0.5983
  335SOL     OW 1003   2.574   1.664   1.774 -0.3033  0.5204  0.2720
  335SOL    HW1 1004   2.607   1.579   1.821  0.9389  3.6505  1.2145
  335SOL    HW2 1005   2.652   1.717   1.735 -2.0377  2.5635  3.0227
  336SOL     OW 1006   1.746   2.893   0.052 -0.3575 -0.0046 -0.3333
  336SOL    HW1 1007   1.674   2.886   3.084  1.7306  1.9583  2.6204
  336SOL    HW2 1008   1.836   2.913   0.014  0.3574  1.9493  0.7338
  337SOL     OW 1009   0.686   0.539   1.372 -0.2241 -0.4696 -0.1804
  337SOL    HW1 1010   0.675   0.493   1.283 -0.3082  0.6448  2.9903
  337SOL    HW2 1011   0.599   0.573   1.409  1.8551  0.5318 -2.0277
  338SOL     OW 1012   1.719   2.350   0.975  0.2853 -0.3078  0.0595
  338SOL    HW1 1013   1.816   2.377   0.993 -0.3440 -0.2497 -1.2147
  338SOL    HW2 1014   1.662   2.401   1.041  2.7003  2.8099 -1.6633
  339SOL     OW 1015   0.361   1.549   1.031  0.4092  0.0790 -0.2038
  339SOL    HW1 1016   0.271   1.573   1.064 -0.1323  0.5174 -0.9888
  339SOL    HW2 1017   0.397   1.625   0.978 -0.8444 -0.8178  0.1028
  340SOL     OW 1018   0.207   0.034   2.349  0.1179  0.2316  0.0281
  340SOL    HW1 1019   0.149   3.096   2.275 -1.4240 -0.2441  1.4072
  340SOL    HW2 1020   0.259   3.066   2.404 -0.0977  1.7436 -0.2425
  341SOL     OW 1021   2.462   1.367   0.574 -0.1419  0.1010 -0.2101
  341SOL    HW1 1022   2.440   1.439   0.506  0.9243 -2.3439  0.7820
  341SOL    HW2 1023   2.564   1.343   0.585  2.7334 -2.2440 -2.7259
  342SOL     OW 1024   1.666   2.213   0.437 -0.2727  0.2670  0.3730
  342SOL    HW1 1025   1.676   2.260   0.344  1.5792  0.0831 -1.8726
  342SOL    HW2 1026   1.654   2.274   0.517  0.8455  3.1145  3.4900
  343SOL     OW 1027   1.960   0.461   0.805 -0.6357 -0.3019 -0.6954
  343SOL    HW1 1028   1.913   0.490   0.888  0.0757 -0.6612 -2.8678
  343SOL    HW2 1029   2.041   0.407   0.835 -2.3480 -0.9394  2.6176
  344SOL     OW 1030   2.489   0.235   2.873 -0.3017 -0.0239  0.0792
  344SOL    HW1 1031   2.422   0.259   2.800 -2.1979  0.0222  2.9053
  344SOL    HW2 1032   2.586   0.253   2.857 -2.1097  1.4341  0.4068
  345SOL     OW 1033   1.381   0.108   1.309 -0.4376  0.4646 -0.9183
  345SOL    HW1 1034   1.378   0.013   1.273  2.4641  0.6287  3.9735
  345SOL    HW2 1035   1.297   0.157   1.292  3.3545 -0.8631  0.7348
  346SOL     OW 1036   2.226   2.456   1.566 -0.2840  0.0256 -0.2355
  346SOL    HW1 1037   2.254   2.554   1.549 -1.5397 -1.4803  0.9298
  346SOL    HW2 1038   2.246   2.395   1.488  1.3780 -1.4495  2.5819
  347SOL     OW 1039   2.789   2.966   0.490 -0.2585 -0.2497  0.4034
  347SOL    HW1 1040   2.866   2.913   0.526  0.3070  0.5639 -2.2403
  347SOL    HW2 1041   2.775   3.049   0.540 -0.2709 -2.4075  1.7381
  348SOL     OW 1042   0.776   1.204   0.980  0.2702 -1.1066  0.0287
  348SOL    HW1 1043   0.875   1.197   0.990 -2.0357  1.2449  1.3475
  348SOL    HW2 1044   0.731   1.237   1.066 -2.7342  1.0523 -0.1047
  349SOL     OW 1045   2.185   3.096   0.063 -0.7354 -0.0163 -0.6185
  349SOL    HW1 1046   2.278   3.061   0.038 -1.9158  1.0889 -1.4830
  349SOL    HW2 1047   2.170   0.092   0.046  0.5141 -2.5001  1.2671
  350SOL     OW 1048   2.608   2.056   0.029 -0.1193 -0.1745 -0.5484
  350SOL    HW1 1049   2.610   2.091   0.123 -2.9241 -0.5023 -2.7269
  350SOL    HW2 1050   2.675   2.114   3.079  0.7259 -0.9718  0.0319
  351SOL     OW 1051   1.254   0.123   0.922  0.1199  0.0315 -0.2497
  351SOL    HW1 1052   1.290   0.216   0.925 -4.3317  1.9431  0.2015
  351SOL    HW2 1053   1.234   0.096   0.825  1.0018  3.0925 -2.6178
  352SOL     OW 1054   2.141   2.213   2.687  0.5091  0.1637 -0.7146
  352SOL    HW1 1055   2.112   2.215   2.788 -0.9752  0.4287  4.9594
  352SOL    HW2 1056   2.169   2.305   2.651  4.2900 -0.4780  0.4318
  353SOL     OW 1057   0.842   0.695   0.063  0.3383 -0.2808  0.5161
  353SOL    HW1 1058   0.825   0.794   0.067  2.3773 -0.4263  1.1992
  353SOL    HW2 1059   0.775   0.642   0.117  1.7959 -0.5096 -0.5063
  354SOL     OW 1060   0.865   1.906   2.755 -0.0979  0.5689  0.2945
  354SOL    HW1 1061   0.792   1.836   2.745  0.8239  1.5157  1.2011
  354SOL    HW2 1062   0.921   1.882   2.835  1.0060 -1.7254 -5.3969
  355SOL     OW 1063   2.820   2.757   1.992  0.3086 -0.6141 -0.5322
  355SOL    HW1 1064   2.909   2.763   1.938  3.2181 -0.2729 -0.2713
  355SOL    HW2 1065   2.745   2.756   1.931  0.7484 -1.0502 -0.5105
  356SOL     OW 1066   2.895   0.680   0.717  0.0238  0.3521 -0.1362
  356SOL    HW1 1067   2.819   0.745   0.735  1.0520 -1.8859  0.4584
  356SOL    HW2 1068   2.874   0.624   0.635 -0.0927  4.6613  0.7231
  357SOL     OW 1069   2.499   0.136   0.989  0.1983 -0.1327 -0.4160
  357SOL    HW1 1070   2.566   0.209   0.988 -1.9355 -0.0535 -0.3169
  357SOL    HW2 1071   2.469   0.112   1.085  1.8378  0.0757  1.6361
  358SOL     OW 1072   1.250   2.666   1.390  0.1574 -0.2699  0.4103
  358SOL    HW1 1073   1.209   2.671   1.298  0.3286 -0.9050 -3.1856
  358SOL    HW2 1074   1.234   2.752   1.445 -1.3463  2.9467  0.9535
  359SOL     OW 1075   0.052   2.174   2.694  0.0232  0.2045 -0.1788
  359SOL    HW1 1076   0.007   2.118   2.622 -0.3563  2.5260 -0.5945
  359SOL    HW2 1077   0.019   2.138   2.782  0.3220  0.7976 -2.8082
  360SOL     OW 1078   0.516   1.157   1.607  0.2780 -0.4163 -0.4316
  360SOL    HW1 1079   0.479   1.199   1.697 -0.9004  0.3809  3.0610
  360SOL    HW2 1080   0.545   1.060   1.619 -0.1352 -2.2503 -1.0490
  361SOL     OW 1081   2.516   2.843   0.443  0.8766  0.7089  0.1681
  361SOL    HW1 1082   2.438   2.886   0.489  2.5986  0.5625 -2.0943
  361SOL    HW2 1083   2.602   2.890   0.472 -2.3825 -1.6850 -1.2158
  362SOL     OW 1084   2.985   2.823   0.942 -0.1108  0.2749 -0.1677
  362SOL    HW1 1085   3.050   2.850   0.868  3.3305  0.3429  0.3174
  362SOL    HW2 1086   2.925   2.742   0.919 -1.3902 -0.4905 -1.0096
  363SOL     OW 1087   0.782   1.494   0.619 -0.4701 -0.1593  0.0344
  363SOL    HW1 1088   0.813   1.410   0.565 -0.9822  0.4024 -3.5570
  363SOL    HW2 1089   0.825   1.495   0.710  0.8092 -1.2204 -1.0845
  364SOL     OW 1090   0.691   1.369   1.197  0.0677  0.2800 -0.0798
  364SOL    HW1 1091   0.638   1.355   1.283 -0.5461 -1.3629 -1.4520
  364SOL    HW2 1092   0.786   1.394   1.217 -0.2266 -0.1292 -0.5202
  365SOL     OW 1093   2.643   1.749   0.469  0.4136  0.0367 -0.4587
  365SOL    HW1 1094   2.629   1.797   0.560  0.2525 -1.9828  0.3826
  365SOL    HW2 1095   2.621   1.814   0.397  1.4426 -0.1415  1.0110
  366SOL     OW 1096   2.773   1.588   1.131  0.3480 -0.1373  0.2526
  366SOL    HW1 1097   2.841   1.542   1.192 -0.3261 -0.3917 -1.0130
  366SOL    HW2 1098   2.727   1.664   1.178  1.7003  1.2670 -0.3000
  367SOL     OW 1099   2.089   2.263   2.005  0.0023  0.0388 -0.1713
  367SOL    HW1 1100   2.012   2.238   1.948  2.3335 -0.1248  2.4121
  367SOL    HW2 1101   2.128   2.181   2.046 -0.4808 -1.6325 -1.7037
  368SOL     OW 1102   2.547   0.979   1.125  0.0722 -0.1307 -0.0402
  368SOL    HW1 1103   2.528   1.035   1.209  1.5175 -1.9158 -0.4585
  368SOL    HW2 1104   2.583   0.888   1.146 -0.3707  3.0101 -3.3691
  369SOL     OW 1105   1.994   2.730   0.215 -0.5468 -0.6395 -0.4830
  369SOL    HW1 1106   1.991   2.791   0.302  0.5327 -0.3122  2.3784
  369SOL    HW2 1107   2.020   2.779   0.135 -1.3472  0.2025 -0.3393
  370SOL     OW 1108   2.738   2.458   1.412  0.4408 -0.2687 -0.3963
  370SOL    HW1 1109   2.695   2.542   1.366 -0.7425  2.0487 -0.1033
  370SOL    HW2 1110   2.824   2.432   1.368 -0.2554  0.3200 -0.3703
  371SOL     OW 1111   0.851   1.624   2.431 -0.0605  0.3208  0.2561
  371SOL    HW1 1112   0.877   1.722   2.449  0.4527 -1.2421  0.3978
  371SOL    HW2 1113   0.761   1.618   2.383 -1.4739 -0.4257  2.7412
  372SOL     OW 1114   0.936   1.285   0.477  0.4347  0.2302  0.4114
  372SOL    HW1 1115   0.925   1.274   0.378  1.4752  1.5347  1.6059
  372SOL    HW2 1116   0.934   1.195   0.529  1.2529  0.2453 -0.0602
  373SOL     OW 1117   1.318   2.512   0.114  0.3659 -0.1486 -0.0482
  373SOL    HW1 1118   1.318   2.463   0.204 -1.1103  0.4999 -0.3062
  373SOL    HW2 1119   1.319   2.453   0.031 -0.0880 -2.9926 -0.0985
  374SOL     OW 1120   0.411   1.684   0.028  0.6151 -0.1091 -0.3160
  374SOL    HW1 1121   0.450   1.738   3.055  0.7709  2.4168 -0.7642
  374SOL    HW2 1122   0.415   1.584   0.003 -3.0627 -1.0658  0.8321
  375SOL     OW 1123   0.922   1.638   1.881 -0.0280  0.4179 -0.3593
  375SOL    HW1 1124   1.002   1.648   1.946  1.4941  3.2506 -2.7918
  375SOL    HW2 1125   0.924   1.551   1.829  0.3465  4.0206  1.0812
  376SOL     OW 1126   0.548   2.359   1.567 -0.0138  0.1136 -0.4145
  376SOL    HW1 1127   0.549   2.319   1.660 -0.5290 -1.1157 -2.5664
  376SOL    HW2 1128   0.644   2.364   1.537 -1.1337  0.0456 -0.3044
  377SOL     OW 1129   2.285   1.373   2.197 -0.0374 -0.0764 -0.0245
  377SOL    HW1 1130   2.261   1.338   2.290  0.4417 -2.9815  1.3171
  377SOL    HW2 1131   2.213   1.425   2.149 -1.1267  0.5004  0.8155
  378SOL     OW 1132   1.140   0.365   2.583 -0.2555  0.1462  0.5152
  378SOL    HW1 1133   1.138   0.263   2.595  1.5776 -1.2545 -0.1305
  378SOL    HW2 1134   1.220   0.385   2.519  0.5920  2.5396  1.2718
  379SOL     OW 1135   1.585   0.582   0.782  0.0411 -0.0019  0.3306
  379SOL    HW1 1136   1.595   0.622   0.876 -1.1302 -1.8029  2.9722
  379SOL    HW2 1137   1.507   0.628   0.740  0.9615 -0.3170  0.4903
  380SOL     OW 1138   2.833   1.736   1.651  0.1682  0.5825  0.7535
  380SOL    HW1 1139   2.917   1.793   1.670 -1.7571 -0.9072 -0.4952
  380SOL    HW2 1140   2.773   1.789   1.586  4.1484 -2.8044  2.6409
  381SOL     OW 1141   1.555   1.841   1.464  0.1952  0.5962 -0.2206
  381SOL    HW1 1142   1.561   1.862   1.564  0.4121  2.9848  0.6322
  381SOL    HW2 1143   1.488   1.909   1.420 -1.5903  2.7799 -3.0491
  382SOL     OW 1144   0.152   0.418   3.036  0.0363 -0.2793  0.1597
  382SOL    HW1 1145   0.087   0.338   3.045  0.2329 -1.0764  1.4819
  382SOL    HW2 1146   0.144   0.484   0.013  1.9205  0.2194  0.2526
  383SOL     OW 1147   1.653   1.468   2.597  0.4260  0.1741 -0.1754
  383SOL    HW1 1148   1.603   1.432   2.676 -0.4162 -0.3803  2.8335
  383SOL    HW2 1149   1.749   1.491   2.631  0.9970 -0.6509 -2.0447
  384SOL     OW 1150   0.956   2.468   1.234  0.4478  0.3444  0.2112
  384SOL    HW1 1151   1.019   2.544   1.220 -1.2094  1.4327  0.5416
  384SOL    HW2 1152   1.000   2.377   1.213 -0.7599 -2.1629  1.9195
  385SOL     OW 1153   1.977   2.372   1.058 -0.1466 -0.6361 -0.3141
  385SOL    HW1 1154   2.060   2.428   1.080 -0.5448  2.5146  1.1765
  385SOL    HW2 1155   2.001   2.280   1.032 -1.4156  2.6028 -0.9574
  386SOL     OW 1156   2.095   2.131   1.354  0.3257 -0.1964  0.4054
  386SOL    HW1 1157   1.993   2.137   1.370  0.5461 -0.7882 -0.4275
  386SOL    HW2 1158   2.135   2.219   1.327  0.9684 -1.1859  0.9168
  387SOL     OW 1159   0.457   2.077   1.244 -0.3760 -0.5241 -0.6197
  387SOL    HW1 1160   0.435   2.151   1.299 -2.9391 -1.8473 -1.5584
  387SOL    HW2 1161   0.482   1.997   1.305 -0.5274 -1.0796 -0.4179
  388SOL     OW 1162   3.060   0.688   1.720  0.2222 -0.0729 -0.2872
  388SOL    HW1 1163   2.981   0.658   1.776  0.5747  1.6605  0.5355
  388SOL    HW2 1164   0.038   0.632   1.747 -2.8577  1.4404  0.5181
  389SOL     OW 1165   1.915   1.331   1.141  0.4690 -0.1350  0.2510
  389SOL    HW1 1166   1.956   1.418   1.101  0.3974  1.2977  1.5277
  389SOL    HW2 1167   1.813   1.352   1.155  0.2431  1.2281 -0.1505
  390SOL     OW 1168   0.883   2.220   2.116  0.3163  0.2490 -0.6263
  390SOL    HW1 1169   0.820   2.257   2.186  0.9779 -0.7727 -0.8679
  390SOL    HW2 1170   0.825   2.208   2.032  1.1381  2.0887 -1.5781
  391SOL     OW 1171   1.180   2.069   2.538  0.3252  0.2400 -0.1812
  391SOL    HW1 1172   1.150   2.009   2.458 -0.7708  0.1688 -3.7277
  391SOL    HW2 1173   1.155   2.167   2.521  0.4667  2.7089  0.4343
  392SOL     OW 1174   2.973   2.951   2.344  0.6597  0.1451  0.4095
  392SOL    HW1 1175   2.911   2.871   2.343  1.3244 -0.0948 -0.1838
  392SOL    HW2 1176   2.996   2.969   2.438 -0.8434 -0.0002 -1.4810
  393SOL     OW 1177   1.855   2.819   0.476 -0.4337 -0.0202 -0.1035
  393SOL    HW1 1178   1.801   2.878   0.414  1.0011  0.2133 -2.4672
  393SOL    HW2 1179   1.813   2.727   0.498 -1.9177 -0.7425 -0.4742
  394SOL     OW 1180   0.700   0.704   2.492  0.5376  0.1480 -0.3307
  394SOL    HW1 1181   0.608   0.688   2.530  1.8315  0.2223  0.7523
  394SOL    HW2 1182   0.688   0.721   2.394 -1.2789  2.8417  1.5104
  395SOL     OW 1183   0.562   1.363   1.436 -0.1677 -0.7506 -0.4057
  395SOL    HW1 1184   0.561   1.282   1.499  0.6070  1.6819 -0.7524
  395SOL    HW2 1185   0.602   1.433   1.492 -1.9788 -2.0882 -0.7089
  396SOL     OW 1186   1.589   1.625   2.062 -0.2387 -0.3523  0.1050
  396SOL    HW1 1187   1.491   1.611   2.049  1.4020  1.6471 -0.9815
  396SOL    HW2 1188   1.624   1.553   2.121 -0.0858 -0.0839  1.4725
  397SOL     OW 1189   0.802   0.576   2.746  0.2651  0.2414 -0.5510
  397SOL    HW1 1190   0.812   0.609   2.653 -0.7698 -1.3375  1.9210
  397SOL    HW2 1191   0.748   0.651   2.797 -2.2736  0.9464  3.2128
  398SOL     OW 1192   0.311   2.056   2.537 -0.0317 -0.3047  0.4603
  398SOL    HW1 1193   0.407   2.035   2.558 -2.2592  1.3238 -3.2631
  398SOL    HW2 1194   0.271   2.013   2.453  1.8340  1.7242  3.7977
  399SOL     OW 1195   0.211   1.640   2.181 -0.0435 -0.0186  1.0500
  399SOL    HW1 1196   0.283   1.665   2.115 -2.3336 -0.6064 -0.9706
  399SOL    HW2 1197   0.154   1.566   2.132 -0.4074 -3.0695 -3.4967
  400SOL     OW 1198   2.721   0.262   1.713  0.7833 -0.0768 -0.3457
  400SOL    HW1 1199   2.644   0.219   1.664  2.1991  1.4329 -0.2921
  400SOL    HW2 1200   2.746   0.214   1.802 -1.3020 -0.6786 -0.3380
  401SOL     OW 1201   0.757   1.830   0.137 -0.2855 -0.4363  0.2905
  401SOL    HW1 1202   0.748   1.780   0.224 -1.7319  0.3895 -0.2523
  401SOL    HW2 1203   0.678   1.885   0.107  1.9931 -1.0077 -0.1711
  402SOL     OW 1204   3.063   2.508   2.083  0.5196 -0.2369  0.0352
  402SOL    HW1 1205   3.004   2.499   2.004  0.4668  1.5789  2.5801
  402SOL    HW2 1206   3.051   2.431   2.150  2.3427  1.0388 -0.1763
  403SOL     OW 1207   0.203   1.238   2.107 -0.3376 -0.3142 -0.1615
  403SOL    HW1 1208   0.116   1.193   2.077  1.0092 -0.3179 -0.1946
  403SOL    HW2 1209   0.209   1.240   2.211 -2.5241  0.4291  1.9132
  404SOL     OW 1210   1.555   2.476   1.524  0.4641  0.6698  0.5431
  404SOL    HW1 1211   1.576   2.466   1.623 -0.9650 -1.4168  0.1485
  404SOL    HW2 1212   1.459   2.458   1.495 -1.8508 -1.8430 -0.8394
  405SOL     OW 1213   2.612   2.491   2.747  0.1276 -0.0908  0.0480
  405SOL    HW1 1214   2.641   2.498   2.844 -3.3460 -0.0048 -1.2806
  405SOL    HW2 1215   2.684   2.468   2.681 -3.5436  1.3246 -0.9081
  406SOL     OW 1216   0.575   1.312   2.673 -0.1280 -0.0019 -0.2478
  406SOL    HW1 1217   0.606   1.226   2.723  0.8327 -1.7016 -2.0311
  406SOL    HW2 1218   0.658   1.361   2.637 -0.0553 -1.2875  3.4555
  407SOL     OW 1219   2.431   2.985   3.096 -0.3778 -0.7134  0.2429
  407SOL    HW1 1220   2.448   2.960   2.996  1.2988  0.1085 -2.4429
  407SOL    HW2 1221   2.445   2.898   0.046 -2.2452  0.3076 -0.2963
  408SOL     OW 1222   2.668   2.596   0.160  0.0400  0.0880  0.3784
  408SOL    HW1 1223   2.699   2.600   0.254 -1.0203 -0.7979 -0.7521
  408SOL    HW2 1224   2.603   2.519   0.145 -2.1686 -2.9523  0.0758
  409SOL     OW 1225   2.250   1.226   0.515 -0.0309 -0.3304  0.2022
  409SOL    HW1 1226   2.330   1.283   0.546  3.1977 -1.5015 -0.7317
  409SOL    HW2 1227   2.156   1.272   0.528 -0.8375 -1.2503  0.4294
  410SOL     OW 1228   2.873   1.617   0.886 -0.1736  0.0426  0.7570
  410SOL    HW1 1229   2.830   1.598   0.975 -1.5208  1.4050 -1.3031
  410SOL    HW2 1230   2.970   1.585   0.873  0.5796  1.9023  0.7170
  411SOL     OW 1231   0.263   1.537   0.655  0.4717  0.0480 -0.0362
  411SOL    HW1 1232   0.290   1.628   0.681 -0.9279 -1.4799 -0.4894
  411SOL    HW2 1233   0.335   1.466   0.670 -2.5586  0.0917 -0.0294
  412SOL     OW 1234   2.285   2.345   0.661 -0.8752 -0.0228 -0.2307
  412SOL    HW1 1235   2.270   2.446   0.653 -0.6263 -1.3236  1.5724
  412SOL    HW2 1236   2.275   2.314   0.757  0.3733 -0.0552 -1.6919
  413SOL     OW 1237   1.559   1.258   2.025  0.5810  0.2764 -0.2827
  413SOL    HW1 1238   1.487   1.222   1.962  0.7549 -2.0932  1.3528
  413SOL    HW2 1239   1.527   1.247   2.124 -1.5882  0.4474  3.9756
  414SOL     OW 1240   3.073   2.832   0.127  0.4581 -0.3841  0.2634
  414SOL    HW1 1241   3.040   2.739   0.166 -0.1540 -1.3833  0.4205
  414SOL    HW2 1242   2.995   2.899   0.139  0.5217 -0.6837 -0.7525
  415SOL     OW 1243   1.059   2.114   1.634 -0.1858 -0.1145 -0.0311
  415SOL    HW1 1244   0.958   2.132   1.631 -1.6565 -2.7108 -1.1735
  415SOL    HW2 1245   1.087   2.078   1.722  0.1272 -0.2983 -0.0319
  416SOL     OW 1246   2.810   2.415   2.582  0.2275  0.6200 -0.2075
  416SOL    HW1 1247   2.902   2.449   2.610 -1.3541 -0.5256  1.0427
  416SOL    HW2 1248   2.808   2.314   2.576  0.9702 -0.6670  0.2103
  417SOL     OW 1249   2.671   0.503   1.277 -0.9648 -0.0087  0.0012
  417SOL    HW1 1250   2.676   0.439   1.199 -1.6217 -0.4915  0.8211
  417SOL    HW2 1251   2.702   0.457   1.363 -2.2638 -0.1875 -0.7160
  418SOL     OW 1252   2.844   0.213   0.081  0.4722 -0.8133 -0.0502
  418SOL    HW1 1253   2.838   0.259   0.169 -0.4282  0.5652 -3.7652
  418SOL    HW2 1254   2.756   0.160   0.059 -1.4305  1.2232 -1.9168
  419SOL     OW 1255   0.075   1.467   1.302  0.0666 -0.0058 -0.1903
  419SOL    HW1 1256   0.006   1.417   1.354  1.4094 -1.7782 -3.3565
  419SOL    HW2 1257   0.123   1.534   1.358 -2.1515 -2.8327 -2.8182
  420SOL     OW 1258   0.504   1.406   0.021  0.1609 -0.1190  0.1629
  420SOL    HW1 1259   0.450   1.403   0.106  2.1893  1.1688  1.2133
  420SOL    HW2 1260   0.478   1.328   3.063  1.2702 -1.3545 -1.0481
  421SOL     OW 1261   2.260   2.619   2.218  0.4411 -0.0470 -0.1317
  421SOL    HW1 1262   2.196   2.698   2.238 -0.3397 -1.4985 -2.7098
  421SOL    HW2 1263   2.336   2.649   2.151  3.5586  2.0463 -4.2172
  422SOL     OW 1264   0.417   0.747   2.533  0.0599 -0.2782 -0.3569
  422SOL    HW1 1265   0.401   0.756   2.437  0.5754  1.8644  1.0273
  422SOL    HW2 1266   0.384   0.828   2.578  0.0415 -0.0798 -1.2627
  423SOL     OW 1267   1.207   2.083   0.628 -0.5374 -0.4004 -0.1953
  423SOL    HW1 1268   1.210   2.138   0.715  0.4002 -0.0151 -0.4807
  423SOL    HW2 1269   1.116   2.089   0.584 -1.9487 -3.0785 -2.1597
  424SOL     OW 1270   0.767   1.814   1.724 -0.4661 -0.0043  0.4111
  424SOL    HW1 1271   0.821   1.743   1.776  0.1823  0.5331 -0.5052
  424SOL    HW2 1272   0.665   1.811   1.734 -0.2327 -0.1859  2.0603
  425SOL     OW 1273   2.452   2.552   2.511  0.2467 -0.0814  0.3829
  425SOL    HW1 1274   2.461   2.504   2.420  0.2261  0.0552 -2.2770
  425SOL    HW2 1275   2.520   2.510   2.574  1.1108  0.2224 -0.8465
  426SOL     OW 1276   1.578   0.770   1.039 -0.1981  0.2070 -0.4044
  426SOL    HW1 1277   1.668   0.818   1.049  0.8636  0.3099  0.5215
  426SOL    HW2 1278   1.505   0.834   1.037  1.7022  0.0270  1.3812
  427SOL     OW 1279   3.039   1.671   2.869  0.5437  0.0383 -0.2896
  427SOL    HW1 1280   3.102   1.648   2.944 -1.0226 -1.6814 -2.6195
  427SOL    HW2 1281   2.952   1.704   2.912 -1.2272 -0.7129 -0.2786
  428SOL     OW 1282   0.933   1.514   0.235 -0.6819 -0.3976  0.1039
  428SOL    HW1 1283   0.972   1.551   0.149  0.9385  0.0944  0.1017
  428SOL    HW2 1284   1.004   1.516   0.312  1.6410 -0.1877  0.5212
  429SOL     OW 1285   0.034   2.627   0.455  0.2898  0.0966  0.3538
  429SOL    HW1 1286   0.101   2.558   0.487 -0.3180 -2.0694  2.8488
  429SOL    HW2 1287   3.098   2.611   0.363 -2.0734 -1.4814  0.3713
  430SOL     OW 1288   0.412   2.393   2.171 -0.1727 -0.6146  0.5431
  430SOL    HW1 1289   0.347   2.456   2.207  0.5172  1.5262 -2.0765
  430SOL    HW2 1290   0.375   2.298   2.167  2.2789 -3.7288 -2.5911
  431SOL     OW 1291   2.967   1.196   0.223 -0.1350  0.5753  0.4055
  431SOL    HW1 1292   3.029   1.239   0.151 -2.7992  2.5222  0.5446
  431SOL    HW2 1293   2.957   1.096   0.208 -0.8523  3.0219 -3.2240
  432SOL     OW 1294   1.853   2.684   2.640 -0.0099  0.2788  0.1086
  432SOL    HW1 1295   1.838   2.641   2.548 -0.8969 -1.2488 -1.3179
  432SOL    HW2 1296   1.802   2.772   2.651  1.6981  1.2912 -1.4610
  433SOL     OW 1297   1.274   2.590   0.804 -0.2910 -0.0051 -0.1389
  433SOL    HW1 1298   1.231   2.682   0.804 -1.9942  0.3139  1.3094
  433SOL    HW2 1299   1.354   2.597   0.868 -0.8168  0.5069 -0.7389
  434SOL     OW 1300   1.475   1.928   2.351 -0.4009  0.2072 -0.0943
  434SOL    HW1 1301   1.511   2.005   2.405  0.8627 -2.8529 -2.2212
  434SOL    HW2 1302   1.515   1.842   2.385 -0.8256  0.9303 -2.3766
  435SOL     OW 1303   2.090   0.649   0.231 -0.4902 -0.0359  0.4078
  435SOL    HW1 1304   2.001   0.695   0.256  2.5181 -0.2789 -2.6937
  435SOL    HW2 1305   2.126   0.611   0.319 -2.3957  1.2019  1.4104
  436SOL     OW 1306   0.354   2.706   2.405  0.4741  0.3899 -0.1746
  436SOL    HW1 1307   0.297   2.645   2.345 -1.1557 -0.7650  0.2853
  436SOL    HW2 1308   0.419   2.651   2.467  0.8521 -1.1763  0.8270
  437SOL     OW 1309   1.944   3.031   1.522  0.1351  0.8551  0.2003
  437SOL    HW1 1310   1.910   2.950   1.469 -1.2399 -0.2011 -0.1677
  437SOL    HW2 1311   1.980   3.096   1.454 -2.5190  0.9103  1.7454
  438SOL     OW 1312   0.018   1.921   0.558  0.6107  0.0874 -0.2955
  438SOL    HW1 1313   0.057   1.866   0.635  4.0601 -0.2430  1.3057
  438SOL    HW2 1314   0.091   1.975   0.510 -2.9591 -1.4220 -3.2729
  439SOL     OW 1315   0.027   2.968   1.126  0.1905  0.5232  0.3365
  439SOL    HW1 1316   0.075   3.043   1.076 -1.7452 -3.1180 -0.4909
  439SOL    HW2 1317   3.076   2.906   1.062  0.0375 -1.7548 -1.7746
  440SOL     OW 1318   2.676   2.814   2.513  0.0480 -0.6697  0.1980
  440SOL    HW1 1319   2.724   2.803   2.424  0.7084 -0.9067 -0.6213
  440SOL    HW2 1320   2.654   2.727   2.559  2.4784 -0.7153  0.7598
  441SOL     OW 1321   0.236   0.737   0.457  0.0098 -0.0770 -0.0354
  441SOL    HW1 1322   0.261   0.830   0.426  0.6220 -2.9245 -1.6924
  441SOL    HW2 1323   0.140   0.729   0.491  1.6753 -0.0640 -3.2596
  442SOL     OW 1324   1.529   2.425   2.189  0.4520 -0.2804  0.1579
  442SOL    HW1 1325   1.475   2.438   2.273  0.6532  1.1374 -1.0163
  442SOL    HW2 1326   1.512   2.502   2.124  0.4783 -1.1735  1.1285
  443SOL     OW 1327   0.829   0.001   2.699 -0.5537  0.1560  0.2443
  443SOL    HW1 1328   0.778   0.087   2.723  3.4729  1.9960 -1.8519
  443SOL    HW2 1329   0.759   3.030   2.697  1.7837  2.3469  0.5432
  444SOL     OW 1330   1.519   1.756   2.745 -0.2745 -0.1028  0.0925
  444SOL    HW1 1331   1.420   1.750   2.725 -1.4775 -0.3694  0.4003
  444SOL    HW2 1332   1.579   1.725   2.667 -0.1123 -0.3156 -0.9272
  445SOL     OW 1333   0.357   0.160   1.160  0.3551  0.1681  0.0049
  445SOL    HW1 1334   0.290   0.137   1.084 -1.1076  1.0466  1.0604
  445SOL    HW2 1335   0.436   0.094   1.161 -0.1680  0.5146  1.3608
  446SOL     OW 1336   1.913   1.045   0.887 -0.5137  0.1755  0.3871
  446SOL    HW1 1337   1.976   1.086   0.951  0.3248  0.5737  1.2924
  446SOL    HW2 1338   1.963   0.995   0.810  0.1942 -0.7483 -0.1080
  447SOL     OW 1339   2.973   0.789   0.407 -0.5998  0.1213 -0.0470
  447SOL    HW1 1340   2.943   0.691   0.417  0.9430 -0.7563 -0.9803
  447SOL    HW2 1341   3.030   0.813   0.490  1.8147 -1.0006  1.5014
  448SOL     OW 1342   2.225   1.921   1.203  0.2544 -0.2155  0.3204
  448SOL    HW1 1343   2.306   1.881   1.254 -0.6966 -0.2879 -0.5026
  448SOL    HW2 1344   2.194   2.002   1.255 -2.0759 -0.9995 -0.8626
  449SOL     OW 1345   1.141   1.273   3.082 -0.3240 -1.3125  0.4246
  449SOL    HW1 1346   1.184   1.265   2.989  0.3778  2.8728  0.4629
  449SOL    HW2 1347   1.077   1.353   3.083  0.7197 -1.0067 -2.3748
  450SOL     OW 1348   2.357   2.790   2.581 -0.9732 -0.1685 -0.2514
  450SOL    HW1 1349   2.378   2.706   2.523  0.7970 -1.9936 -1.8693
  450SOL    HW2 1350   2.348   2.871   2.520 -0.5557  0.1192  0.3174
  451SOL     OW 1351   2.528   0.871   2.435  0.0900 -0.9053  0.4860
  451SOL    HW1 1352   2.558   0.776   2.431  1.0971 -1.0065  1.7265
  451SOL    HW2 1353   2.434   0.874   2.395 -4.0397  1.2752 -2.1055
  452SOL     OW 1354   1.633   1.287   1.371  0.3638  0.1046 -0.0941
  452SOL    HW1 1355   1.670   1.356   1.304  0.5766 -0.9962  1.6766
  452SOL    HW2 1356   1.570   1.325   1.441 -0.5776 -0.3389 -0.3590
  453SOL     OW 1357   1.685   0.523   1.759  0.3573  0.0303  0.0325
  453SOL    HW1 1358   1.651   0.535   1.667 -0.0332  1.9384  1.0813
  453SOL    HW2 1359   1.661   0.424   1.791 -0.1886  0.1134  0.1462
  454SOL     OW 1360   3.028   0.838   3.018  0.3068  0.1810  0.0826
  454SOL    HW1 1361   3.069   0.747   2.994  0.5966 -2.5010 -3.6678
  454SOL    HW2 1362   3.043   0.852   0.019 -1.5987 -2.7638  3.1271
  455SOL     OW 1363   2.428   1.515   1.444 -0.0873 -0.0156 -0.1335
  455SOL    HW1 1364   2.354   1.520   1.514 -0.3679  0.0954 -1.4461
  455SOL    HW2 1365   2.416   1.440   1.378 -0.1356 -0.6793  1.6692
  456SOL     OW 1366   1.873   3.014   1.784 -0.2334  0.3818  0.0695
  456SOL    HW1 1367   1.939   2.956   1.831  0.9473  2.8271 -0.1565
  456SOL    HW2 1368   1.893   3.008   1.687  0.0081 -1.6117  0.5382
  457SOL     OW 1369   1.367   2.890   0.544  0.2914 -0.0336  0.0031
  457SOL    HW1 1370   1.437   2.874   0.613 -5.0589  1.7919  1.1397
  457SOL    HW2 1371   1.411   2.900   0.452 -2.9433  3.0253  0.0285
  458SOL     OW 1372   3.078   3.004   0.551  0.2202 -0.3778 -0.5381
  458SOL    HW1 1373   3.047   2.913   0.579 -1.0081  0.2112 -0.0780
  458SOL    HW2 1374   0.015   3.003   0.457 -2.3788  0.3603  2.0036
  459SOL     OW 1375   2.013   1.354   0.501 -0.6179 -0.6094 -0.4716
  459SOL    HW1 1376   2.004   1.324   0.402  0.9421 -0.8136 -2.6399
  459SOL    HW2 1377   1.921   1.355   0.549 -1.4393 -1.0904 -1.6452
  460SOL     OW 1378   0.756   2.480   2.442 -0.4104 -0.7650 -1.0803
  460SOL    HW1 1379   0.755   2.581   2.452  1.8600 -0.7492  0.7426
  460SOL    HW2 1380   0.831   2.442   2.500 -1.0816  0.8078  0.1319
  461SOL     OW 1381   0.664   1.728   2.822 -0.1243 -0.0544 -0.4494
  461SOL    HW1 1382   0.611   1.663   2.764 -1.0609  1.1993  0.9890
  461SOL    HW2 1383   0.697   1.683   2.907 -0.2051 -0.4091 -2.5577
  462SOL     OW 1384   2.334   2.121   0.423 -0.4232 -0.0912 -0.0724
  462SOL    HW1 1385   2.292   2.082   0.506  1.1645  1.3473  1.0048
  462SOL    HW2 1386   2.297   2.090   0.334  2.8711 -0.5779  2.1161
  463SOL     OW 1387   2.902   0.551   0.445  1.0053  0.0753  0.0733
  463SOL    HW1 1388   2.947   0.475   0.397  0.4612 -0.5629 -1.3671
  463SOL    HW2 1389   2.807   0.524   0.477 -1.2349 -1.2602 -1.0281
  464SOL     OW 1390   0.473   1.709   0.303  0.6891  0.4328  0.0462
  464SOL    HW1 1391   0.464   1.708   0.203  0.1514 -2.3247  1.2932
  464SOL    HW2 1392   0.488   1.617   0.345  0.0178  0.9962 -0.5308
  465SOL     OW 1393   2.405   0.080   1.256 -0.0202  0.2680  0.1602
  465SOL    HW1 1394   2.404   3.084   1.234  0.6782 -1.0092 -1.1136
  465SOL    HW2 1395   2.317   0.116   1.289  1.3041  1.3264 -1.6915
  466SOL     OW 1396   2.341   2.904   0.682 -0.0487  0.3293  0.1590
  466SOL    HW1 1397   2.277   2.907   0.601  0.3775  2.0844 -0.3538
  466SOL    HW2 1398   2.372   3.003   0.702  0.7504 -0.2172 -1.0696
  467SOL     OW 1399   0.064   0.482   2.312  0.0517 -0.0795 -0.6881
  467SOL    HW1 1400   3.075   0.444   2.344 -2.3947 -0.1791 -0.1354
  467SOL    HW2 1401   0.121   0.408   2.276  0.6384 -0.1192  1.7989
  468SOL     OW 1402   2.916   0.040   2.173  0.4679  0.1447  0.2275
  468SOL    HW1 1403   2.990   0.105   2.154 -0.3593 -2.8348  2.1056
  468SOL    HW2 1404   2.952   3.064   2.228  1.6826  0.2821  2.4991
  469SOL     OW 1405   0.942   0.213   1.606  0.5629 -0.3211 -0.1268
  469SOL    HW1 1406   0.874   0.228   1.685 -1.0784 -0.9028  2.1730
  469SOL    HW2 1407   0.893   0.193   1.519 -0.2227 -1.1618  0.2502
  470SOL     OW 1408   2.528   0.790   1.716  0.0891 -0.0533  0.2536
  470SOL    HW1 1409   2.630   0.780   1.694  2.9945  0.6229  0.5753
  470SOL    HW2 1410   2.514   0.786   1.818  0.5661  0.3656  2.8979
  471SOL     OW 1411   2.734   1.605   2.641  0.2669 -0.1010 -0.0656
  471SOL    HW1 1412   2.665   1.663   2.689 -0.7171  1.1588 -2.0498
  471SOL    HW2 1413   2.769   1.532   2.702 -2.0066  2.1526 -0.7871
  472SOL     OW 1414   0.915   1.913   0.639 -0.1053 -0.2602 -0.5040
  472SOL    HW1 1415   0.983   1.874   0.579 -0.8990  1.0522  1.9899
  472SOL    HW2 1416   0.866   1.999   0.610 -1.1499 -0.8143  0.2933
  473SOL     OW 1417   1.499   2.168   2.046  1.0226 -0.8553 -0.7109
  473SOL    HW1 1418   1.503   2.070   2.079 -1.1350  1.5591  1.1805
  473SOL    HW2 1419   1.518   2.223   2.130 -2.7569 -1.8039  2.0052
  474SOL     OW 1420   0.796   2.741   2.494  0.6869 -0.4663  0.1655
  474SOL    HW1 1421   0.894   2.763   2.503  1.5470 -0.9269  0.5429
  474SOL    HW2 1422   0.747   2.791   2.573  0.5887  2.8140  3.7513
  475SOL     OW 1423   0.925   1.882   2.456  0.1530 -0.6043  0.0440
  475SOL    HW1 1424   0.860   1.946   2.414  1.4694 -1.7832  3.0235
  475SOL    HW2 1425   0.935   1.897   2.556 -1.3140  0.8675 -1.5327
  476SOL     OW 1426   0.731   0.611   0.928  0.1814  0.3022 -0.7170
  476SOL    HW1 1427   0.683   0.686   0.984 -2.8936  1.1793 -0.7957
  476SOL    HW2 1428   0.666   0.576   0.857 -2.3130  0.4479  0.0311
  477SOL     OW 1429   1.887   2.545   1.247  0.0558 -0.0665 -0.0546
  477SOL    HW1 1430   1.910   2.492   1.162  0.5327  1.7820 -0.1923
  477SOL    HW2 1431   1.901   2.486   1.327 -0.7815  2.5594 -0.8922
  478SOL     OW 1432   0.313   0.388   2.826 -0.5136  0.0617 -0.2767
  478SOL    HW1 1433   0.247   0.394   2.900 -0.3414 -0.1985 -0.7034
  478SOL    HW2 1434   0.283   0.449   2.748 -2.2685  0.7178  1.3959
  479SOL     OW 1435   1.159   0.606   1.266 -0.4594  0.3017  0.2843
  479SOL    HW1 1436   1.061   0.640   1.268 -2.2528  1.8965  1.0706
  479SOL    HW2 1437   1.185   0.583   1.167  1.1456  0.6873 -1.4209
  480SOL     OW 1438   2.907   2.364   0.326  0.1979  0.0518 -0.3306
  480SOL    HW1 1439   2.836   2.356   0.257  2.9089  2.3570  0.5411
  480SOL    HW2 1440   2.983   2.290   0.320  1.8943 -2.1952  0.8315
  481SOL     OW 1441   0.181   0.776   1.530  0.0545  0.4966  0.5471
  481SOL    HW1 1442   0.143   0.832   1.450 -0.6837  0.9373 -2.6459
  481SOL    HW2 1443   0.113   0.714   1.568 -2.7817 -0.4290 -1.4917
  482SOL     OW 1444   0.964   3.068   1.288 -0.5301  0.4690  0.3861
  482SOL    HW1 1445   0.897   0.029   1.321  1.3553 -0.9557  0.1973
  482SOL    HW2 1446   0.967   2.987   1.351  0.3279  1.2981  3.9925
  483SOL     OW 1447   2.938   1.341   2.430 -0.5265  0.0270  0.0667
  483SOL    HW1 1448   2.903   1.273   2.497 -1.3008  2.5896 -3.1813
  483SOL    HW2 1449   2.865   1.407   2.407 -0.6629  1.5421 -3.1351
  484SOL     OW 1450   1.770   1.696   1.842  0.7515 -0.5649  0.0667
  484SOL    HW1 1451   1.735   1.655   1.925 -1.2925 -1.0166 -0.7334
  484SOL    HW2 1452   1.767   1.634   1.758 -1.2846 -0.9070 -0.0480
  485SOL     OW 1453   0.269   2.946   2.521 -0.6636 -0.1596  0.0698
  485SOL    HW1 1454   0.216   2.892   2.588 -0.8602 -1.6480 -3.4063
  485SOL    HW2 1455   0.311   2.886   2.451  0.5584  0.3064 -3.2194
  486SOL     OW 1456   1.272   0.107   0.648 -0.3132  0.1613 -0.3285
  486SOL    HW1 1457   1.222   0.048   0.580 -1.7767 -2.9741 -2.1834
  486SOL    HW2 1458   1.373   0.098   0.634  1.1709 -0.0560  2.1582
  487SOL     OW 1459   1.648   0.098   0.961  0.1993  0.0314  0.0533
  487SOL    HW1 1460   1.596   0.185   0.960 -2.4312 -0.1995  0.6870
  487SOL    HW2 1461   1.720   0.103   1.035  0.1579 -1.3489  0.4825
  488SOL     OW 1462   2.353   1.002   0.631 -0.6403 -0.0720 -0.5494
  488SOL    HW1 1463   2.320   1.087   0.591  0.3212 -0.5987  1.0982
  488SOL    HW2 1464   2.410   1.023   0.716  0.7070  2.8023 -0.7685
  489SOL     OW 1465   1.275   0.878   1.145 -0.2083  0.1841 -0.8907
  489SOL    HW1 1466   1.321   0.880   1.239 -1.3448  0.3274  2.6990
  489SOL    HW2 1467   1.276   0.790   1.095  0.9578  2.3207 -0.5149
  490SOL     OW 1468   1.038   0.660   2.916  0.3402 -0.0600  0.2802
  490SOL    HW1 1469   1.126   0.674   2.970  1.8940 -1.6378  1.3363
  490SOL    HW2 1470   0.951   0.644   2.968  0.4053 -1.0343  0.1809
  491SOL     OW 1471   0.998   2.617   0.570 -0.1303 -0.7322  0.4503
  491SOL    HW1 1472   1.086   2.662   0.591 -0.7848 -1.2536  1.0373
  491SOL    HW2 1473   0.932   2.645   0.641  1.4252  0.0549 -0.7082
  492SOL     OW 1474   1.194   1.621   1.656 -0.8487  0.3711 -0.2315
  492SOL    HW1 1475   1.230   1.705   1.708  1.2362 -0.4177  1.8569
  492SOL    HW2 1476   1.246   1.603   1.568  0.3461 -0.3097 -1.8641
  493SOL     OW 1477   0.717   1.611   3.066 -0.0148 -0.1099 -0.2903
  493SOL    HW1 1478   0.642   1.549   3.078 -0.9483  5.4318  1.2738
  493SOL    HW2 1479   0.736   1.673   0.039  1.5288 -0.2770  1.3443
  494SOL     OW 1480   1.986   2.576   0.737  0.5234  1.1976 -0.0995
  494SOL    HW1 1481   1.993   2.518   0.816  0.6197 -0.3784 -2.4332
  494SOL    HW2 1482   2.077   2.577   0.695 -2.0370  0.7627 -1.2212
  495SOL     OW 1483   0.088   1.446   2.516 -0.2875  0.0416 -0.2020
  495SOL    HW1 1484   0.091   1.541   2.544 -0.2064 -0.6799  0.2811
  495SOL    HW2 1485   3.096   1.419   2.497  1.8518 -0.8016 -1.2450
  496SOL     OW 1486   0.331   2.338   2.537 -0.1917  0.1277  0.2297
  496SOL    HW1 1487   0.328   2.239   2.535  1.2914  0.7247 -0.0835
  496SOL    HW2 1488   0.315   2.367   2.631 -1.2169 -2.1680  1.2579
  497SOL     OW 1489   1.755   1.430   0.620  0.2046  0.1060  0.4987
  497SOL    HW1 1490   1.694   1.355   0.586  0.5011  2.4217  1.3388
  497SOL    HW2 1491   1.791   1.395   0.709 -1.0634  0.8241  2.1060
  498SOL     OW 1492   3.081   2.558   0.195  0.3623  0.3599 -0.1169
  498SOL    HW1 1493   0.024   2.518   0.114  1.4360  0.2291  3.6475
  498SOL    HW2 1494   3.007   2.503   0.230  3.1866  1.7688 -1.5973
  499SOL     OW 1495   2.256   2.633   0.627  0.0389  0.1483 -0.0961
  499SOL    HW1 1496   2.248   2.706   0.558 -1.4634  0.6967  2.0208
  499SOL    HW2 1497   2.346   2.635   0.675 -0.5987  0.0199  0.3960
  500SOL     OW 1498   0.414   0.394   2.429 -0.7373  0.0170  0.4538
  500SOL    HW1 1499   0.346   0.441   2.487  2.2580  1.6562 -0.0672
  500SOL    HW2 1500   0.509   0.422   2.455  1.3970 -0.3903  0.1995
  501SOL     OW 1501   1.862   2.784   1.420 -0.1638 -0.6485 -0.0972
  501SOL    HW1 1502   1.892   2.705   1.365 -2.3362 -0.2900  1.6274
  501SOL    HW2 1503   1.760   2.777   1.436  0.2850 -0.5515  1.5979
  502SOL     OW 1504   0.085   0.105   2.579  0.7301 -0.6263 -0.3195
  502SOL    HW1 1505   0.162   0.109   2.648  2.3846  0.5131 -0.5935
  502SOL    HW2 1506   0.122   0.077   2.488  0.3694  0.0178 -0.0465
  503SOL     OW 1507   1.848   2.611   2.360  0.8334 -0.1581  0.2239
  503SOL    HW1 1508   1.924   2.549   2.331 -0.1279 -0.2020  2.1534
  503SOL    HW2 1509   1.777   2.632   2.282 -2.4779 -0.5767  0.4400
  504SOL     OW 1510   2.095   0.254   1.855 -0.2075  0.3889 -0.5012
  504SOL    HW1 1511   2.022   0.227   1.789  0.7314  0.1674 -1.1455
  504SOL    HW2 1512   2.165   0.319   1.819 -0.5588 -0.9473  1.1406
  505SOL     OW 1513   2.708   1.384   0.987 -0.0238 -0.1029  0.0223
  505SOL    HW1 1514   2.722   1.453   1.059  3.1151  1.9357 -0.3872
  505SOL    HW2 1515   2.616   1.390   0.941 -1.0653 -0.4619 -1.8521
  506SOL     OW 1516   0.049   1.648   1.688  0.0677  0.0113  0.0773
  506SOL    HW1 1517   0.106   1.640   1.604 -0.1791 -1.0255 -1.2098
  506SOL    HW2 1518   0.101   1.712   1.748  0.7606  0.8057 -2.1293
  507SOL     OW 1519   0.340   2.265   1.421 -0.2193  0.0136  0.6447
  507SOL    HW1 1520   0.417   2.295   1.476 -2.6413 -0.9254 -0.4024
  507SOL    HW2 1521   0.278   2.341   1.395  0.4606 -0.3521 -2.9025
  508SOL     OW 1522   0.485   0.528   2.018 -0.2662 -0.4112  0.4935
  508SOL    HW1 1523   0.465   0.475   2.102 -0.9846  1.3966 -2.0252
  508SOL    HW2 1524   0.424   0.604   2.001  2.1588 -3.8585  0.7091
  509SOL     OW 1525   1.552   2.526   1.835  0.3289  0.2426  0.3350
  509SOL    HW1 1526   1.462   2.501   1.786  0.4095 -1.7730 -0.9657
  509SOL    HW2 1527   1.536   2.582   1.919 -0.3983 -0.0390 -1.8403
  510SOL     OW 1528   2.218   1.297   2.448 -0.1021 -0.4907  0.1117
  510SOL    HW1 1529   2.129   1.331   2.484 -1.8046 -2.6657  1.2621
  510SOL    HW2 1530   2.292   1.319   2.517  1.7786  2.3607  1.3709
  511SOL     OW 1531   1.051   1.212   1.042  0.2810  0.4254 -0.6009
  511SOL    HW1 1532   1.050   1.149   1.121  3.0541  3.0437  0.3837
  511SOL    HW2 1533   1.101   1.291   1.080 -1.5336  0.9894 -1.5909
  512SOL     OW 1534   2.997   1.705   0.435 -0.0377 -0.3049 -0.3314
  512SOL    HW1 1535   2.949   1.667   0.516  0.9433  3.0340 -2.8318
  512SOL    HW2 1536   3.044   1.792   0.461 -0.8523 -0.7599  1.4974
  513SOL     OW 1537   1.103   2.129   2.239  0.0380 -0.0486 -0.1653
  513SOL    HW1 1538   1.032   2.174   2.181 -0.3370  1.6298  0.4320
  513SOL    HW2 1539   1.148   2.204   2.290 -3.1279  2.7786  0.6499
  514SOL     OW 1540   0.214   2.079   1.141  0.4885  0.2411 -0.1879
  514SOL    HW1 1541   0.166   1.989   1.154  0.3647  1.6790 -1.4622
  514SOL    HW2 1542   0.312   2.068   1.180  0.5933 -1.9084 -0.5047
  515SOL     OW 1543   1.934   0.850   1.660 -0.0348 -0.2945  0.1144
  515SOL    HW1 1544   1.901   0.919   1.732  0.5146  0.9057  3.7498
  515SOL    HW2 1545   1.863   0.848   1.585 -3.4666  0.0455 -1.6481
  516SOL     OW 1546   2.316   0.317   3.087 -0.1056 -0.0349 -0.2968
  516SOL    HW1 1547   2.374   0.274   3.019  0.2178  0.2841  0.0431
  516SOL    HW2 1548   2.381   0.362   0.050  1.7920  1.0587 -0.3790
  517SOL     OW 1549   1.137   1.835   2.906  0.4825  0.2913 -0.0083
  517SOL    HW1 1550   1.167   1.766   2.972  0.7312 -1.0084 -2.9024
  517SOL    HW2 1551   1.170   1.800   2.813  1.4389  0.0207  0.6168
  518SOL     OW 1552   1.472   2.856   1.672 -0.4708 -0.1504 -0.2403
  518SOL    HW1 1553   1.529   2.923   1.725  0.8891 -0.1742 -0.4484
  518SOL    HW2 1554   1.520   2.806   1.597  0.2784  1.3989 -0.2872
  519SOL     OW 1555   2.249   2.940   0.931 -0.4661 -0.1752 -0.0998
  519SOL    HW1 1556   2.290   2.904   0.846 -0.8393 -1.5835  1.1440
  519SOL    HW2 1557   2.191   3.024   0.922  2.9847 -0.3780  2.1294
  520SOL     OW 1558   2.503   1.772   2.011 -0.0817 -0.1612  0.2563
  520SOL    HW1 1559   2.531   1.722   1.928 -1.8530 -1.1810 -1.2100
  520SOL    HW2 1560   2.453   1.858   1.998  2.1261  0.6227  2.7947
  521SOL     OW 1561   2.802   0.650   0.118  0.0462  0.4059 -0.0024
  521SOL    HW1 1562   2.757   0.607   0.041  1.8138  0.5105 -1.9234
  521SOL    HW2 1563   2.834   0.581   0.182  2.6785  1.5119  1.7150
  522SOL     OW 1564   0.875   0.936   2.583 -0.3777 -0.2252  0.7691
  522SOL    HW1 1565   0.814   0.875   2.532  1.0413  0.5611  3.5312
  522SOL    HW2 1566   0.949   0.965   2.519 -2.9991 -2.0150 -1.4166
  523SOL     OW 1567   0.244   2.454   0.483 -0.7231  0.3609 -0.2601
  523SOL    HW1 1568   0.225   2.402   0.569 -0.4086 -1.4150  1.2854
  523SOL    HW2 1569   0.284   2.393   0.412  2.7434 -0.8305 -0.5092
  524SOL     OW 1570   2.322   2.600   3.076  0.2874 -0.0391 -0.2319
  524SOL    HW1 1571   2.366   2.628   2.989  0.6901  1.0480  0.2489
  524SOL    HW2 1572   2.350   2.652   0.053  1.6618 -1.0576 -1.0414
  525SOL     OW 1573   2.584   0.489   1.847 -0.2019  0.0245  0.4953
  525SOL    HW1 1574   2.580   0.417   1.777 -1.8401 -1.1926  0.3298
  525SOL    HW2 1575   2.495   0.538   1.853  1.3836 -0.8995  1.1415
  526SOL     OW 1576   1.142   3.052   0.470  0.2761  0.5440 -0.3949
  526SOL    HW1 1577   1.231   3.002   0.476 -2.0172  0.3326  0.3350
  526SOL    HW2 1578   1.155   0.031   0.409 -1.5855  1.3313  0.6043
  527SOL     OW 1579   2.081   2.963   0.552  0.8727 -0.0754  0.0711
  527SOL    HW1 1580   1.994   2.916   0.542  1.3738  0.3097 -1.7540
  527SOL    HW2 1581   2.142   2.949   0.466  1.1624  2.1409 -1.0663
  528SOL     OW 1582   1.834   1.018   2.901  0.2290  0.2704  0.4387
  528SOL    HW1 1583   1.851   0.926   2.862 -0.9794  0.1555  1.6593
  528SOL    HW2 1584   1.738   1.045   2.895 -0.7619 -0.6153  0.7705
  529SOL     OW 1585   1.728   1.488   2.243  0.2013 -0.4667 -0.6575
  529SOL    HW1 1586   1.671   1.459   2.323  1.8644  4.3214  1.8262
  529SOL    HW2 1587   1.774   1.407   2.205 -1.9066  1.7449  0.9794
  530SOL     OW 1588   2.461   2.755   0.168 -0.7013 -0.4699 -0.4869
  530SOL    HW1 1589   2.463   2.778   0.265 -2.7774 -0.0634 -0.9547
  530SOL    HW2 1590   2.551   2.710   0.151 -0.2918 -1.2051  3.1434
  531SOL     OW 1591   1.885   1.664   2.930  0.0098 -0.1736 -0.6062
  531SOL    HW1 1592   1.956   1.654   3.007 -0.6002  1.0180  0.9128
  531SOL    HW2 1593   1.913   1.745   2.875 -3.7772  1.9833  1.0670
  532SOL     OW 1594   1.584   0.273   1.302  0.4968 -0.0789  0.2762
  532SOL    HW1 1595   1.511   0.200   1.294 -2.3814  0.4486  3.3580
  532SOL    HW2 1596   1.546   0.363   1.272 -2.8795  0.0319  0.1114
  533SOL     OW 1597   0.773   0.982   0.056  0.1441  0.3562 -0.5411
  533SOL    HW1 1598   0.852   0.993   0.114 -2.1689  1.8256 -2.0020
  533SOL    HW2 1599   0.760   1.059   3.093 -3.5577  1.8024 -1.1827
  534SOL     OW 1600   1.533   0.794   3.031  0.0875  0.0925  0.0034
  534SOL    HW1 1601   1.563   0.728   2.961  1.8127 -0.4688  2.3245
  534SOL    HW2 1602   1.616   0.823   3.081 -1.3342 -0.9670  0.5958
  535SOL     OW 1603   0.793   2.153   2.747  0.2753  0.2191 -0.4661
  535SOL    HW1 1604   0.773   2.179   2.843  1.5597 -0.0504 -1.1774
  535SOL    HW2 1605   0.825   2.058   2.738 -0.9307  5.4323 -1.3169
  536SOL     OW 1606   0.566   2.772   0.262 -0.4111  0.3313 -0.0173
  536SOL    HW1 1607   0.659   2.797   0.301 -0.3255 -0.5158  1.4816
  536SOL    HW2 1608   0.515   2.709   0.323 -0.4540 -0.6029  0.1861
  537SOL     OW 1609   1.927   0.198   0.098  0.6799 -0.3950  0.0680
  537SOL    HW1 1610   1.952   0.130   0.166 -1.3503  0.9385  0.2982
  537SOL    HW2 1611   1.946   0.289   0.140  1.1050  1.5928  2.9582
  538SOL     OW 1612   2.502   2.397   0.119 -0.0342 -0.5389 -0.4413
  538SOL    HW1 1613   2.450   2.362   0.036 -0.8775 -1.7365  3.3385
  538SOL    HW2 1614   2.443   2.379   0.199 -0.1299 -0.3286 -1.4111
  539SOL     OW 1615   2.583   1.129   3.069  0.2095  0.2767  0.2360
  539SOL    HW1 1616   2.641   1.046   3.056  2.5288  1.4951 -3.2825
  539SOL    HW2 1617   2.532   1.124   0.054 -3.3483  2.7978  2.2220
  540SOL     OW 1618   0.723   2.884   1.964  0.5663 -0.1998 -0.0901
  540SOL    HW1 1619   0.697   2.789   1.996  0.8422 -2.0380 -0.2881
  540SOL    HW2 1620   0.688   2.956   2.033 -0.8757  0.7418  1.5281
  541SOL     OW 1621   2.342   3.029   2.445 -0.4072  0.2444  0.2932
  541SOL    HW1 1622   2.264   3.085   2.469 -0.9209  0.7281  0.1248
  541SOL    HW2 1623   2.431   3.079   2.463  3.1868  2.2475  0.0686
  542SOL     OW 1624   0.526   0.558   0.121  0.9906  0.3558 -0.0894
  542SOL    HW1 1625   0.541   0.476   0.068 -1.5662  3.2386  0.6492
  542SOL    HW2 1626   0.470   0.536   0.203  0.1537  0.3558  0.3618
  543SOL     OW 1627   0.500   0.917   0.776  0.1396  0.0703  0.0299
  543SOL    HW1 1628   0.525   0.898   0.869  1.1588 -2.4841 -1.6605
  543SOL    HW2 1629   0.541   1.009   0.753 -3.3061 -0.4900 -0.2497
  544SOL     OW 1630   2.395   0.574   1.307 -0.8147  0.0235  0.2341
  544SOL    HW1 1631   2.476   0.517   1.287 -0.9675  0.7944  0.9256
  544SOL    HW2 1632   2.378   0.655   1.245  0.2508  1.1836 -0.1446
  545SOL     OW 1633   1.174   1.656   0.021 -0.1225 -0.3096  0.0250
  545SOL    HW1 1634   1.162   1.708   0.107  0.7216 -0.4712  3.2181
  545SOL    HW2 1635   1.263   1.613   0.027 -1.6510  1.7451 -0.7994
  546SOL     OW 1636   2.328   2.687   1.470  0.4394 -0.2786  0.6373
  546SOL    HW1 1637   2.272   2.726   1.392 -0.5611 -1.0144 -0.3819
  546SOL    HW2 1638   2.369   2.769   1.517 -1.0092  1.0560  0.3929
  547SOL     OW 1639   1.542   2.677   2.054 -0.3941  0.6122  0.5956
  547SOL    HW1 1640   1.634   2.722   2.062 -3.2995  0.6068 -3.1638
  547SOL    HW2 1641   1.461   2.742   2.072  0.0838  1.1955  0.2953
  548SOL     OW 1642   1.428   0.722   2.623  0.2479  0.1134  0.1408
  548SOL    HW1 1643   1.390   0.795   2.680  0.4396  0.1240  1.8625
  548SOL    HW2 1644   1.428   0.636   2.678  1.8271  1.7116  0.9239
  549SOL     OW 1645   2.173   0.573   0.493 -0.3423 -0.3473  0.6825
  549SOL    HW1 1646   2.107   0.583   0.568  1.4111  0.7593 -0.5615
  549SOL    HW2 1647   2.255   0.630   0.504  1.3774 -0.8330  2.5702
  550SOL     OW 1648   2.416   1.576   0.396  0.3021  0.7289 -0.3442
  550SOL    HW1 1649   2.486   1.647   0.406 -0.9117 -0.3202  1.3298
  550SOL    HW2 1650   2.385   1.572   0.299 -0.7060 -2.9945  3.3646
  551SOL     OW 1651   2.113   0.116   1.382 -0.0485  0.6201  0.0910
  551SOL    HW1 1652   2.059   0.185   1.442 -2.7166  1.2512  2.5234
  551SOL    HW2 1653   2.112   0.153   1.288 -3.0341 -1.0175  0.3349
  552SOL     OW 1654   1.412   0.089   2.853  0.2087 -0.1310  0.0395
  552SOL    HW1 1655   1.345   0.158   2.889  0.3112 -0.5719  1.1507
  552SOL    HW2 1656   1.486   0.142   2.802 -1.3215  2.8782 -2.9516
  553SOL     OW 1657   0.627   2.634   2.151  0.4479 -0.0880  0.4033
  553SOL    HW1 1658   0.558   2.703   2.187 -1.9484 -1.7881  0.7677
  553SOL    HW2 1659   0.655   2.560   2.210  2.5251  2.3748  0.9736
  554SOL     OW 1660   0.236   2.925   1.323  0.4192  0.2303 -0.6119
  554SOL    HW1 1661   0.179   2.933   1.240 -0.1195 -0.8598 -0.2502
  554SOL    HW2 1662   0.333   2.931   1.301 -0.6266  1.0572  0.6283
  555SOL     OW 1663   2.485   1.600   2.225  0.0778 -0.0641 -0.4760
  555SOL    HW1 1664   2.486   1.654   2.142 -0.9926 -2.2168  4.6771
  555SOL    HW2 1665   2.422   1.522   2.217  1.2253 -0.9035  2.2321
  556SOL     OW 1666   1.292   0.668   3.053 -0.0752  0.0468 -0.6456
  556SOL    HW1 1667   1.382   0.718   3.047  0.5249  0.4619  0.6025
  556SOL    HW2 1668   1.303   0.577   3.097  1.3775  2.6582 -0.9688
  557SOL     OW 1669   0.189   1.902   2.322  0.6360 -0.2178  0.1572
  557SOL    HW1 1670   0.218   1.962   2.242  1.1479  0.8015 -2.8034
  557SOL    HW2 1671   0.183   1.805   2.297  0.7313  1.0159  0.3734
  558SOL     OW 1672   1.868   0.732   2.784 -0.2166 -0.0429  0.2883
  558SOL    HW1 1673   1.773   0.698   2.794 -2.4431 -1.4062  2.7424
  558SOL    HW2 1674   1.934   0.664   2.818 -1.2882 -0.7446 -0.4612
  559SOL     OW 1675   1.938   1.911   1.753  0.2541 -0.1116 -0.0260
  559SOL    HW1 1676   1.898   1.870   1.671 -0.6358  0.2056  1.2378
  559SOL    HW2 1677   1.916   1.853   1.832 -1.5568 -0.0864  1.0271
  560SOL     OW 1678   1.761   0.693   1.989 -0.0191 -0.0242 -0.0857
  560SOL    HW1 1679   1.667   0.686   1.955  1.4120 -0.4106  0.6692
  560SOL    HW2 1680   1.828   0.651   1.928 -0.4091  1.9690  0.7077
  561SOL     OW 1681   0.037   0.014   2.923 -0.0120  0.3333  0.2584
  561SOL    HW1 1682   3.048   0.020   2.878  2.5914  0.4035 -0.2748
  561SOL    HW2 1683   0.113   0.039   2.856  3.3382 -0.0676  3.2083
  562SOL     OW 1684   0.985   1.608   1.511  0.2885 -0.3231  0.4196
  562SOL    HW1 1685   1.076   1.627   1.557 -0.4914 -1.0922 -0.5694
  562SOL    HW2 1686   0.918   1.572   1.580 -0.7396  1.2533  0.9204
  563SOL     OW 1687   1.051   0.074   0.092  0.5136 -0.2184  0.2383
  563SOL    HW1 1688   1.027   0.102   3.098 -0.0813  0.0263  0.0963
  563SOL    HW2 1689   1.009   3.082   0.100 -0.6262  0.0572 -1.0986
  564SOL     OW 1690   0.251   2.754   0.572 -0.5026  0.9916  0.6912
  564SOL    HW1 1691   0.334   2.706   0.529 -0.0806 -0.7481  1.5066
  564SOL    HW2 1692   0.171   2.716   0.522  1.4228 -0.3709 -0.2232
  565SOL     OW 1693   0.541   2.563   1.197 -0.1809 -0.0179  0.1975
  565SOL    HW1 1694   0.594   2.614   1.270  0.4148 -0.6145  0.0187
  565SOL    HW2 1695   0.587   2.478   1.171 -1.6602  0.3998 -1.1286
  566SOL     OW 1696   1.151   2.991   2.243  0.3711 -0.5583 -0.1155
  566SOL    HW1 1697   1.121   3.089   2.251  0.0928 -0.2641  0.5953
  566SOL    HW2 1698   1.074   2.937   2.210  1.0370  0.2512 -1.0448
  567SOL     OW 1699   2.140   0.226   0.880 -0.1910  0.4123  0.3254
  567SOL    HW1 1700   2.228   0.257   0.839 -0.2122  1.6890 -2.0650
  567SOL    HW2 1701   2.114   0.140   0.836 -1.5669  1.8801  0.9434
  568SOL     OW 1702   1.672   1.710   0.747 -0.3731  0.3979  0.1415
  568SOL    HW1 1703   1.749   1.754   0.698  0.4182  0.7438 -3.0195
  568SOL    HW2 1704   1.649   1.621   0.696 -0.8764 -1.7270 -2.3670
  569SOL     OW 1705   2.119   0.548   2.103  0.7433  0.2399  0.5918
  569SOL    HW1 1706   2.051   0.533   2.025  0.1872  1.9972 -1.9505
  569SOL    HW2 1707   2.090   0.526   2.201 -1.2571  0.5451  4.1699
  570SOL     OW 1708   0.050   3.027   2.121  0.5485 -0.0015  0.0793
  570SOL    HW1 1709   0.040   2.943   2.171  1.3460 -1.9288 -2.5157
  570SOL    HW2 1710   3.100   3.014   2.033 -1.3426 -1.9186  3.2171
  571SOL     OW 1711   0.479   2.617   1.611 -0.1408  0.5509 -0.8356
  571SOL    HW1 1712   0.483   2.610   1.714  0.7876 -0.0590 -0.8962
  571SOL    HW2 1713   0.497   2.530   1.563  1.0523 -0.6851 -0.1201
  572SOL     OW 1714   0.140   2.093   1.464  0.2674  0.3441  0.6534
  572SOL    HW1 1715   0.061   2.141   1.425  0.7338 -0.8967 -0.8732
  572SOL    HW2 1716   0.229   2.142   1.452 -1.0281 -0.5092  0.5312
  573SOL     OW 1717   1.332   0.964   2.704 -0.4543 -0.0987  0.3331
  573SOL    HW1 1718   1.390   1.022   2.764  0.9175 -0.8411 -0.3258
  573SOL    HW2 1719   1.239   0.942   2.741 -0.2576  1.0313  1.1656
  574SOL     OW 1720   2.551   2.459   2.220 -0.2163 -0.3812  0.1175
  574SOL    HW1 1721   2.650   2.456   2.240 -0.1706 -1.2153  2.4648
  574SOL    HW2 1722   2.535   2.464   2.119 -1.1036 -0.6921  1.0765
  575SOL     OW 1723   1.232   2.871   0.785 -0.1771 -0.3197  0.2211
  575SOL    HW1 1724   1.282   2.865   0.700 -1.8143 -0.5840  1.9926
  575SOL    HW2 1725   1.295   2.901   0.855  1.0588 -2.0193 -1.2723
  576SOL     OW 1726   1.331   0.399   0.875  0.2657 -0.6232  0.0751
  576SOL    HW1 1727   1.337   0.444   0.784  0.8852  1.0649  2.4532
  576SOL    HW2 1728   1.417   0.380   0.922 -2.4691  0.8631 -1.1279
  577SOL     OW 1729   2.238   2.042   0.180  0.1971  0.9133  0.1398
  577SOL    HW1 1730   2.285   2.018   0.095 -2.6657 -0.6749  3.4081
  577SOL    HW2 1731   2.180   1.964   0.215 -0.8252 -2.4071 -1.6410
  578SOL     OW 1732   2.116   0.505   1.271  0.4332 -0.1777 -0.2171
  578SOL    HW1 1733   2.210   0.521   1.308 -2.4106 -1.0093 -0.6938
  578SOL    HW2 1734   2.042   0.516   1.337  2.1758  0.6808  0.6095
  579SOL     OW 1735   1.673   1.045   2.521 -0.4919 -0.1074  0.0692
  579SOL    HW1 1736   1.583   1.065   2.482  0.1213 -0.4908 -2.4750
  579SOL    HW2 1737   1.739   1.121   2.506 -0.6744  0.5613 -1.2262
  580SOL     OW 1738   1.352   1.154   1.886 -0.6432  0.4761  1.0978
  580SOL    HW1 1739   1.310   1.230   1.834 -1.1418  1.6879  0.1027
  580SOL    HW2 1740   1.287   1.092   1.924  1.6760  1.4696  0.4459
  581SOL     OW 1741   0.290   0.930   1.087 -0.3888  0.3748  0.6760
  581SOL    HW1 1742   0.324   1.023   1.116 -2.1854  0.9715 -0.3468
  581SOL    HW2 1743   0.216   0.898   1.155  1.2879  0.3119  2.6205
  582SOL     OW 1744   2.843   0.587   1.862 -0.0692  0.2439 -0.6451
  582SOL    HW1 1745   2.742   0.576   1.873 -0.8460 -0.9127  1.1021
  582SOL    HW2 1746   2.896   0.534   1.930 -1.2463 -1.5762 -0.9726
  583SOL     OW 1747   2.871   0.758   2.548  0.1662  0.3216 -0.1911
  583SOL    HW1 1748   2.861   0.832   2.480 -0.4734  0.5375  1.2905
  583SOL    HW2 1749   2.831   0.781   2.640  0.3830  1.3923  1.4078
  584SOL     OW 1750   2.043   2.300   0.564 -0.0361 -0.0538  0.9071
  584SOL    HW1 1751   2.139   2.293   0.602  0.0557 -0.5675  2.3467
  584SOL    HW2 1752   2.045   2.356   0.475  1.4917  4.8489  0.0784
  585SOL     OW 1753   0.110   2.148   0.027  0.4586  0.0237  0.2711
  585SOL    HW1 1754   0.117   2.050   0.003 -0.2644 -0.8122 -0.0333
  585SOL    HW2 1755   0.039   2.160   0.101 -1.1259  0.9406 -0.9613
  586SOL     OW 1756   1.868   2.067   2.395  0.0502  0.0384 -0.2185
  586SOL    HW1 1757   1.863   2.068   2.293  1.0087  0.0655 -0.9267
  586SOL    HW2 1758   1.910   2.158   2.420 -0.8225 -1.5323 -2.1354
  587SOL     OW 1759   2.235   1.620   2.772 -0.2353  0.0186  0.2709
  587SOL    HW1 1760   2.323   1.619   2.719 -2.9566 -0.1735  1.6565
  587SOL    HW2 1761   2.209   1.525   2.793 -0.5433  1.8112 -3.4486
  588SOL     OW 1762   2.942   0.012   1.343 -0.0819  0.1772 -0.4100
  588SOL    HW1 1763   2.938   3.046   1.272 -0.8219 -2.1085  2.4291
  588SOL    HW2 1764   3.030   0.056   1.353 -2.1422 -2.0763 -2.5018
  589SOL     OW 1765   0.652   0.284   0.871 -0.0164  0.3169  0.4716
  589SOL    HW1 1766   0.579   0.215   0.864  0.2366  1.1239  0.8394
  589SOL    HW2 1767   0.632   0.356   0.803 -0.7027  2.0229  0.9096
  590SOL     OW 1768   2.535   2.189   0.912 -0.2892  0.2052  0.1229
  590SOL    HW1 1769   2.442   2.228   0.943 -0.2932  1.4068 -1.9824
  590SOL    HW2 1770   2.562   2.229   0.823 -2.8224 -1.2609 -0.5825
  591SOL     OW 1771   1.179   2.254   0.859 -0.5100  0.0550  0.5172
  591SOL    HW1 1772   1.234   2.259   0.943 -0.3694 -4.0877  0.3844
  591SOL    HW2 1773   1.133   2.343   0.841 -0.2662 -0.8447 -1.9869
  592SOL     OW 1774   1.091   1.053   1.258  0.3828  0.0769 -0.1796
  592SOL    HW1 1775   1.162   1.002   1.207 -1.7686 -1.4125 -2.5806
  592SOL    HW2 1776   1.132   1.085   1.349  4.3616  1.5466 -0.2127
  593SOL     OW 1777   0.800   2.393   1.473  0.1664 -0.1411 -0.1991
  593SOL    HW1 1778   0.812   2.488   1.513 -0.0462  0.8247 -1.7834
  593SOL    HW2 1779   0.852   2.385   1.386  1.6520  2.4276  1.9670
  594SOL     OW 1780   0.969   1.477   3.026  0.4689 -0.6107  0.5245
  594SOL    HW1 1781   1.050   1.545   3.028 -0.2693  0.3346 -1.5589
  594SOL    HW2 1782   0.875   1.520   3.030  0.1352 -4.2816  2.1350
  595SOL     OW 1783   1.412   1.287   1.557 -0.4689 -0.0651  0.7063
  595SOL    HW1 1784   1.466   1.327   1.634  0.6280  0.5676  0.9172
  595SOL    HW2 1785   1.362   1.363   1.513  0.9823 -1.5247 -1.0892
  596SOL     OW 1786   2.708   1.179   2.156 -0.5449 -0.1715  0.4416
  596SOL    HW1 1787   2.726   1.091   2.105 -0.9879  1.6076 -0.8694
  596SOL    HW2 1788   2.798   1.226   2.162  1.6726  1.0710 -1.0255
  597SOL     OW 1789   1.276   2.522   1.779 -0.4689 -0.0826  0.1440
  597SOL    HW1 1790   1.197   2.533   1.716 -1.9438  0.6666  0.1018
  597SOL    HW2 1791   1.301   2.612   1.817 -2.3772 -2.4302  2.4145
  598SOL     OW 1792   2.314   1.315   1.294 -0.1087  0.3422 -0.0702
  598SOL    HW1 1793   2.368   1.233   1.321 -3.1271 -1.9024  1.1782
  598SOL    HW2 1794   2.248   1.333   1.364  3.3128  2.0396 -1.8989
  599SOL     OW 1795   0.965   2.515   2.845 -0.4183 -0.5984 -0.0463
  599SOL    HW1 1796   1.058   2.557   2.855  0.5774  0.6025 -0.3823
  599SOL    HW2 1797   0.936   2.457   2.925 -0.4678 -0.2784 -1.5660
  600SOL     OW 1798   3.094   2.134   0.284  0.4778 -0.0122  0.1407
  600SOL    HW1 1799   3.021   2.069   0.302 -2.4300 -0.0919  0.6453
  600SOL    HW2 1800   0.061   2.141   0.357 -0.0018 -1.8186 -2.4153
  601SOL     OW 1801   0.484   0.878   1.378  0.5830  0.3937  0.3297
  601SOL    HW1 1802   0.526   0.861   1.469  1.1626  1.3807  0.1880
  601SOL    HW2 1803   0.435   0.793   1.355 -0.7886 -0.0717  0.2416
  602SOL     OW 1804   0.777   0.171   1.371 -0.5810 -0.0579  0.3652
  602SOL    HW1 1805   0.706   0.181   1.443  1.2029 -0.6867  1.9596
  602SOL    HW2 1806   0.788   0.257   1.313 -0.0662  3.7444 -1.8970
  603SOL     OW 1807   0.333   2.743   3.014  0.0971 -0.1435 -0.1442
  603SOL    HW1 1808   0.331   2.677   2.938 -2.4068  2.6487  0.5451
  603SOL    HW2 1809   0.239   2.785   3.009 -0.4786 -0.4524  2.8816
  604SOL     OW 1810   1.559   0.214   1.854 -0.1561 -0.2830 -0.5705
  604SOL    HW1 1811   1.467   0.254   1.868  0.5846  2.6000 -1.4238
  604SOL    HW2 1812   1.558   0.111   1.860 -0.1834 -0.1993  2.5883
  605SOL     OW 1813   1.536   1.419   1.772 -0.0633  0.2440 -0.6875
  605SOL    HW1 1814   1.626   1.463   1.743  0.3708 -1.8312  3.3233
  605SOL    HW2 1815   1.542   1.385   1.867  1.2006  0.4847 -1.7919
  606SOL     OW 1816   2.050   2.884   0.000 -0.2571 -0.1627 -0.2221
  606SOL    HW1 1817   2.107   2.952   0.050 -1.1564 -2.7019  0.5581
  606SOL    HW2 1818   2.063   2.892   3.001 -0.3144 -0.6900  0.3909
  607SOL     OW 1819   0.668   0.053   2.315  0.3467  0.0559 -0.7656
  607SOL    HW1 1820   0.614   0.050   2.400 -2.3418 -3.6037  0.3836
  607SOL    HW2 1821   0.759   0.105   2.328  1.0366  0.0888 -0.1378
  608SOL     OW 1822   2.993   2.296   2.258  0.2433  0.6201  0.2532
  608SOL    HW1 1823   3.049   2.325   2.340  1.5988  2.3500  0.9512
  608SOL    HW2 1824   2.986   2.196   2.243  0.4190  0.5017 -1.1832
  609SOL     OW 1825   0.804   1.196   2.996  0.0784 -0.5518  0.2668
  609SOL    HW1 1826   0.745   1.161   2.921  3.5815 -3.7681  2.7312
  609SOL    HW2 1827   0.847   1.286   2.968 -0.0424  0.0542  0.7806
  610SOL     OW 1828   0.268   2.717   1.008  0.0864 -0.1003  0.1545
  610SOL    HW1 1829   0.308   2.808   1.004  0.5752  1.6985 -1.2314
  610SOL    HW2 1830   0.285   2.668   1.096  1.0671 -2.0878  2.1417
  611SOL     OW 1831   1.093   1.505   0.455 -0.1436  0.1359  0.0455
  611SOL    HW1 1832   1.189   1.526   0.471 -1.9317  0.3261 -2.0547
  611SOL    HW2 1833   1.062   1.414   0.491  0.0545 -2.6701 -0.8581
  612SOL     OW 1834   2.285   1.961   0.643 -0.2259  0.5967  0.5084
  612SOL    HW1 1835   2.206   2.004   0.684  0.1760  1.3678 -0.5361
  612SOL    HW2 1836   2.350   1.919   0.706 -0.4392  0.9167  0.1210
  613SOL     OW 1837   1.698   1.569   0.378 -0.1612  0.1893 -0.2405
  613SOL    HW1 1838   1.655   1.664   0.386  1.2776  3.8330 -2.3698
  613SOL    HW2 1839   1.703   1.528   0.469  0.7090 -0.4236 -1.8046
  614SOL     OW 1840   2.764   0.308   2.604  0.0909  0.3417 -0.1310
  614SOL    HW1 1841   2.868   0.303   2.627  0.3473 -1.5617  0.7532
  614SOL    HW2 1842   2.746   0.289   2.505  2.1025 -2.9683 -0.4180
  615SOL     OW 1843   0.595   1.455   0.412 -0.0947 -0.3925 -0.3041
  615SOL    HW1 1844   0.596   1.358   0.376 -1.6132 -1.8798  2.7348
  615SOL    HW2 1845   0.689   1.483   0.427 -1.4562 -0.8652 -0.9834
  616SOL     OW 1846   1.559   1.113   2.792  0.3820 -0.7857 -0.5184
  616SOL    HW1 1847   1.554   1.217   2.805 -1.2342  4.4305  0.1891
  616SOL    HW2 1848   1.596   1.085   2.702  0.9976  2.0461 -1.0871
  617SOL     OW 1849   1.458   0.719   0.361  0.2035  0.3852 -0.2374
  617SOL    HW1 1850   1.361   0.711   0.386  1.8818  2.1456  0.2521
  617SOL    HW2 1851   1.495   0.624   0.366 -2.9230 -3.5657 -1.3480
  618SOL     OW 1852   3.023   1.855   2.003  0.4720 -0.1805  0.1530
  618SOL    HW1 1853   0.002   1.834   1.945  0.2535  0.7461 -0.6536
  618SOL    HW2 1854   3.018   1.788   2.085  1.4528 -1.2748  0.7442
  619SOL     OW 1855   2.636   1.923   0.675 -0.2560 -0.2178 -0.3362
  619SOL    HW1 1856   2.710   1.913   0.741 -1.5667  1.0674 -0.3130
  619SOL    HW2 1857   2.623   2.020   0.652  1.1603 -0.4558  3.6022
  620SOL     OW 1858   2.713   3.067   0.933  0.4218 -0.4470 -0.1393
  620SOL    HW1 1859   2.790   0.026   0.904  1.5580  2.1717  2.8617
  620SOL    HW2 1860   2.625   0.021   0.947 -0.6251 -1.1645 -2.7652
  621SOL     OW 1861   0.094   1.779   0.798  0.3988 -0.3263 -0.9113
  621SOL    HW1 1862   0.055   1.725   0.875 -0.8355 -0.3009  0.0131
  621SOL    HW2 1863   0.104   1.876   0.823 -0.1255 -1.3014  0.2962
  622SOL     OW 1864   0.496   1.772   1.725 -0.1931  0.3977 -0.1711
  622SOL    HW1 1865   0.426   1.815   1.667  1.6934 -0.1423 -0.6595
  622SOL    HW2 1866   0.450   1.726   1.809 -1.5024 -1.4317  2.4089
  623SOL     OW 1867   2.205   2.935   2.218  0.2824  0.3374  0.4280
  623SOL    HW1 1868   2.263   2.906   2.142  1.7853  0.3030 -1.1286
  623SOL    HW2 1869   2.254   2.945   2.308  0.8246 -2.4250 -1.3292
  624SOL     OW 1870   0.529   1.970   0.102 -0.0108  0.0296  0.6113
  624SOL    HW1 1871   0.440   1.951   0.157  1.8790  2.3429  1.4971
  624SOL    HW2 1872   0.510   1.958   3.102 -1.5807 -2.4354  0.0771
  625SOL     OW 1873   0.649   1.815   2.130  0.2449 -0.0927  0.6172
  625SOL    HW1 1874   0.747   1.817   2.094 -2.3192 -0.4325 -1.2441
  625SOL    HW2 1875   0.642   1.735   2.194 -1.3031 -1.1262  1.3918
  626SOL     OW 1876   0.302   2.319   0.265 -0.0900 -0.0202 -0.0242
  626SOL    HW1 1877   0.367   2.341   0.191  0.1333  2.5471  0.8981
  626SOL    HW2 1878   0.256   2.234   0.245  0.4583  2.2152 -0.9322
  627SOL     OW 1879   1.601   1.720   2.465  0.2682  0.5751 -0.1507
  627SOL    HW1 1880   1.688   1.772   2.488  2.2341  1.7976  0.0202
  627SOL    HW2 1881   1.613   1.622   2.498  0.4531 -1.9085  2.8175
  628SOL     OW 1882   1.250   2.083   0.282  0.7135  0.3823 -0.5854
  628SOL    HW1 1883   1.174   2.067   0.344  0.6215  0.6286 -3.0427
  628SOL    HW2 1884   1.283   2.177   0.299 -1.0600 -0.4361 -0.3539
  629SOL     OW 1885   0.885   0.803   2.156  0.4908 -0.2023  0.3279
  629SOL    HW1 1886   0.887   0.888   2.215 -2.3291 -2.6332  0.9734
  629SOL    HW2 1887   0.941   0.821   2.072 -2.7761  0.6343  1.5621
  630SOL     OW 1888   2.972   2.714   1.788 -0.4921 -0.1544  0.3905
  630SOL    HW1 1889   3.028   2.737   1.708 -1.9253 -2.2274  0.3614
  630SOL    HW2 1890   2.898   2.649   1.760 -0.2693  1.7139  1.2465
  631SOL     OW 1891   1.405   0.987   0.923  0.1193  0.3552  0.1791
  631SOL    HW1 1892   1.330   0.920   0.901  3.6128 -0.6824  3.1585
  631SOL    HW2 1893   1.370   1.050   0.990 -0.1257 -0.6890 -2.9047
  632SOL     OW 1894   2.330   0.312   2.090  0.0661 -0.0910  0.2014
  632SOL    HW1 1895   2.354   0.268   2.181  1.1462 -1.9866  2.5733
  632SOL    HW2 1896   2.264   0.387   2.103  3.2433  0.0739 -0.9627
  633SOL     OW 1897   1.726   1.137   0.215 -0.0377  0.1245  0.3914
  633SOL    HW1 1898   1.657   1.065   0.227 -0.2768  2.3443 -0.9036
  633SOL    HW2 1899   1.809   1.109   0.159  3.1727 -0.8348 -1.5730
  634SOL     OW 1900   0.288   1.899   0.235 -0.9320  0.5420  0.6692
  634SOL    HW1 1901   0.324   1.828   0.296  1.0546  0.1702  0.8367
  634SOL    HW2 1902   0.253   1.859   0.148  0.8332  1.8519  1.8609
  635SOL     OW 1903   2.712   1.501   2.383  0.0869  0.1523  0.3460
  635SOL    HW1 1904   2.721   1.531   2.478  1.8404  1.3050 -0.6252
  635SOL    HW2 1905   2.622   1.537   2.342 -1.1455  1.4686 -2.4086
  636SOL     OW 1906   0.049   1.696   2.594 -0.5544 -0.5407  0.0378
  636SOL    HW1 1907   3.100   1.693   2.679  0.7894 -0.7187  1.0655
  636SOL    HW2 1908   0.076   1.787   2.565 -1.2015 -1.6613  1.3845
  637SOL     OW 1909   0.203   2.057   0.420  0.2373  0.2480 -0.1322
  637SOL    HW1 1910   0.242   2.011   0.335  2.2008 -2.0103  1.3782
  637SOL    HW2 1911   0.273   2.104   0.476 -3.0126 -3.5782 -1.1879
  638SOL     OW 1912   2.567   2.542   0.440 -0.0844 -0.0940 -0.1039
  638SOL    HW1 1913   2.532   2.635   0.438 -0.6447 -0.9628  0.9108
  638SOL    HW2 1914   2.498   2.475   0.409  2.1955 -1.3987 -1.2153
  639SOL     OW 1915   1.116   0.692   0.175 -0.2428  0.4470 -0.2705
  639SOL    HW1 1916   1.021   0.669   0.144 -1.8438  0.8380 -0.4603
  639SOL    HW2 1917   1.173   0.689   0.098  0.0987 -2.5918  1.2725
  640SOL     OW 1918   2.382   2.242   1.763 -0.0564  0.1083 -0.4093
  640SOL    HW1 1919   2.437   2.289   1.840  1.8234 -1.5637  2.0454
  640SOL    HW2 1920   2.328   2.305   1.708 -0.2102 -1.7587  0.9661
  641SOL     OW 1921   2.595   2.673   1.326 -0.0241  0.1671  0.6494
  641SOL    HW1 1922   2.512   2.701   1.381 -0.9034 -1.6028 -3.6485
  641SOL    HW2 1923   2.653   2.753   1.301 -2.4410 -0.7521  0.4565
  642SOL     OW 1924   0.854   0.977   1.629 -0.7716  0.0057  0.2841
  642SOL    HW1 1925   0.925   0.905   1.616 -0.7759  1.7514 -0.2478
  642SOL    HW2 1926   0.878   1.072   1.597  0.8083 -1.0900  0.1796
  643SOL     OW 1927   0.484   1.351   2.234  0.0996  0.1071  0.4172
  643SOL    HW1 1928   0.401   1.322   2.284 -0.7510 -2.3201 -0.8165
  643SOL    HW2 1929   0.462   1.360   2.139 -1.5274  0.9825  6.6139
  644SOL     OW 1930   1.011   0.196   2.182  0.2576  0.2320  0.0778
  644SOL    HW1 1931   1.026   0.295   2.157  1.8925  1.2742 -0.0940
  644SOL    HW2 1932   1.017   0.133   2.099  1.9757  0.7821 -1.6402
  645SOL     OW 1933   2.016   1.181   1.453  0.1878  0.2283  0.0316
  645SOL    HW1 1934   2.010   1.138   1.362 -4.4349  2.1105  1.1585
  645SOL    HW2 1935   2.050   1.276   1.444 -0.0212  0.0664  1.1433
  646SOL     OW 1936   1.532   2.666   0.188  0.2247 -0.3975 -0.3028
  646SOL    HW1 1937   1.625   2.639   0.156  0.3934  0.8587  3.4483
  646SOL    HW2 1938   1.454   2.610   0.151  0.8895 -3.4755  0.6804
  647SOL     OW 1939   1.546   2.789   0.692  0.3212  0.0118  0.0640
  647SOL    HW1 1940   1.615   2.768   0.766 -1.6561  0.4988 -0.2633
  647SOL    HW2 1941   1.544   2.722   0.618  0.3061  0.3242  1.3382
  648SOL     OW 1942   0.261   2.548   1.280  0.0476  0.2129  0.7990
  648SOL    HW1 1943   0.223   2.469   1.228 -2.1841 -0.6963 -0.3870
  648SOL    HW2 1944   0.361   2.559   1.260 -0.7680 -1.7991 -0.9236
  649SOL     OW 1945   1.215   2.326   2.990 -0.0796  0.1964 -0.0142
  649SOL    HW1 1946   1.217   2.265   2.908 -2.1056 -1.5825 -1.2181
  649SOL    HW2 1947   1.156   2.301   3.066  0.7433  0.7699 -1.6049
  650SOL     OW 1948   2.502   1.415   3.040 -0.6387  0.0799  0.0331
  650SOL    HW1 1949   2.528   1.318   3.057  0.0372 -1.4609 -0.4283
  650SOL    HW2 1950   2.540   1.446   2.954  0.5987  1.1550  0.2960
  651SOL     OW 1951   2.482   2.192   2.302 -0.1139 -0.1742  0.1692
  651SOL    HW1 1952   2.494   2.289   2.277  0.6117 -0.0800 -1.8543
  651SOL    HW2 1953   2.462   2.179   2.404  1.5908  0.7391  0.4023
  652SOL     OW 1954   2.744   2.350   0.566 -0.0748 -0.5703 -0.5253
  652SOL    HW1 1955   2.679   2.425   0.538  1.6252  1.8989  0.2944
  652SOL    HW2 1956   2.813   2.339   0.494 -1.0572  1.5229  0.4507
  653SOL     OW 1957   2.371   1.773   1.381 -0.0537 -0.4119 -0.0357
  653SOL    HW1 1958   2.334   1.841   1.450  0.1964  3.4629 -0.5482
  653SOL    HW2 1959   2.414   1.685   1.419  2.6833 -3.5320 -1.6218
  654SOL     OW 1960   1.189   1.202   0.231  0.3326  0.0438  1.0297
  654SOL    HW1 1961   1.107   1.144   0.242 -1.8320  0.0620  0.4371
  654SOL    HW2 1962   1.184   1.231   0.133  0.8451  0.9524 -1.2371
  655SOL     OW 1963   1.398   1.465   0.744 -0.0130  0.4076  0.5914
  655SOL    HW1 1964   1.310   1.412   0.753 -0.8584  0.0136  1.4198
  655SOL    HW2 1965   1.407   1.493   0.645  0.5919 -0.2033  0.3877
  656SOL     OW 1966   1.516   2.511   2.605 -0.4776  0.8898  0.7926
  656SOL    HW1 1967   1.482   2.442   2.540  1.3903  1.6518  1.4151
  656SOL    HW2 1968   1.534   2.602   2.565 -0.9053 -2.4272  0.5352
  657SOL     OW 1969   2.148   1.599   0.531  0.1190 -0.1049 -0.6293
  657SOL    HW1 1970   2.114   1.505   0.533  2.6500  1.5046  1.8804
  657SOL    HW2 1971   2.249   1.605   0.518  0.0792 -0.7582  0.1169
  658SOL     OW 1972   2.288   3.092   1.586 -0.2574  0.1745 -0.1673
  658SOL    HW1 1973   2.253   3.043   1.669  2.2798  2.1938 -2.7649
  658SOL    HW2 1974   2.214   0.019   1.526  0.2989 -2.1171 -1.0295
  659SOL     OW 1975   2.841   1.609   0.225 -0.0086  0.1168 -0.5008
  659SOL    HW1 1976   2.902   1.641   0.305  1.4241  0.8414 -0.2339
  659SOL    HW2 1977   2.782   1.683   0.184  1.9472 -0.8144  0.9508
  660SOL     OW 1978   1.344   0.663   0.687 -0.2696 -0.0616 -0.2263
  660SOL    HW1 1979   1.302   0.658   0.595 -0.4575 -2.1048 -0.4935
  660SOL    HW2 1980   1.300   0.736   0.745 -0.8898  0.3225  2.8114
  661SOL     OW 1981   1.815   0.556   0.056 -0.2781 -0.0285 -0.2360
  661SOL    HW1 1982   1.912   0.532   0.043  0.4053 -0.1385  0.8246
  661SOL    HW2 1983   1.790   0.657   0.073 -3.3021  1.5904  2.0777
  662SOL     OW 1984   0.510   0.128   0.432 -0.1904 -0.2969  0.0430
  662SOL    HW1 1985   0.482   0.047   0.378  0.8908  2.5416  2.1914
  662SOL    HW2 1986   0.609   0.158   0.414  1.8016 -0.4125 -0.6175
  663SOL     OW 1987   1.246   2.572   2.878  0.2935 -0.2056 -0.3858
  663SOL    HW1 1988   1.234   2.477   2.923 -0.7450 -0.5406 -1.7200
  663SOL    HW2 1989   1.342   2.587   2.855 -1.9865 -1.3010  0.2455
  664SOL     OW 1990   0.625   2.741   1.385  0.7694  0.9695  0.1913
  664SOL    HW1 1991   0.553   2.741   1.456 -0.3845  0.3421  0.5182
  664SOL    HW2 1992   0.717   2.772   1.418 -2.0372  0.2504  0.0022
  665SOL     OW 1993   1.496   2.933   0.942  0.1003 -0.0206 -0.2518
  665SOL    HW1 1994   1.528   2.873   0.865  1.6791 -0.3973  1.6282
  665SOL    HW2 1995   1.563   3.009   0.954 -1.0238 -0.4467 -0.5601
  666SOL     OW 1996   0.961   2.351   2.643 -0.0789  0.7494  0.1763
  666SOL    HW1 1997   0.887   2.286   2.669 -2.8121 -0.1074 -0.9862
  666SOL    HW2 1998   0.971   2.428   2.707  0.6470 -0.5214 -0.6485
  667SOL     OW 1999   2.781   0.455   1.510 -0.0782  0.0758 -0.4364
  667SOL    HW1 2000   2.758   0.394   1.589 -0.4179 -0.4064  0.0543
  667SOL    HW2 2001   2.882   0.470   1.505 -1.3960  0.1960  0.8526
  668SOL     OW 2002   0.535   0.418   1.775 -0.0624 -0.7268  0.0952
  668SOL    HW1 2003   0.632   0.420   1.745  2.7086  2.6126 -2.9238
  668SOL    HW2 2004   0.525   0.436   1.873 -1.3797  0.3212 -4.4411
  669SOL     OW 2005   1.375   2.950   1.191  0.3324 -0.3763 -0.2879
  669SOL    HW1 2006   1.288   2.945   1.138 -0.9976 -0.1741  2.7503
  669SOL    HW2 2007   1.454   2.951   1.127 -1.7062  1.2921 -1.8145
  670SOL     OW 2008   1.813   2.546   2.936  0.2027 -0.2805  0.0064
  670SOL    HW1 2009   1.813   2.566   2.838 -3.4191 -0.7477 -0.5550
  670SOL    HW2 2010   1.896   2.497   2.965 -0.1156  2.5352 -2.3672
  671SOL     OW 2011   0.368   1.264   2.890 -0.8690  0.0082 -0.2581
  671SOL    HW1 2012   0.286   1.315   2.862 -1.9297 -0.5286  0.7898
  671SOL    HW2 2013   0.447   1.284   2.830 -1.7759 -1.0914 -0.1680
  672SOL     OW 2014   2.267   0.642   2.619 -0.4417 -0.4029 -0.1410
  672SOL    HW1 2015   2.333   0.680   2.692  0.2660  0.6423 -1.7281
  672SOL    HW2 2016   2.280   0.699   2.536 -1.2563 -0.4681  2.2172
  673SOL     OW 2017   0.075   1.852   1.212 -0.1798 -0.2785 -0.2959
  673SOL    HW1 2018   0.006   1.869   1.290 -2.1148  1.7741  1.9463
  673SOL    HW2 2019   0.054   1.772   1.154 -0.5863 -1.4003 -0.9403
  674SOL     OW 2020   1.634   2.120   1.811 -0.9842  0.8628 -0.7848
  674SOL    HW1 2021   1.586   2.158   1.893 -0.2500  0.2232  0.5080
  674SOL    HW2 2022   1.591   2.143   1.724  0.6148 -0.1061 -1.4462
  675SOL     OW 2023   1.190   1.430   1.154  0.1110  0.4722  0.0101
  675SOL    HW1 2024   1.213   1.507   1.093  0.0929 -1.1943  0.6127
  675SOL    HW2 2025   1.272   1.371   1.163 -3.0396 -2.2004  1.4779
  676SOL     OW 2026   2.271   0.634   0.927 -0.4954  0.1592  0.5778
  676SOL    HW1 2027   2.294   0.549   0.882  0.1074  0.4100 -1.7407
  676SOL    HW2 2028   2.356   0.684   0.949 -0.1335 -2.2296  1.9507
  677SOL     OW 2029   2.548   0.228   0.275 -0.0844  0.3176  0.3215
  677SOL    HW1 2030   2.643   0.255   0.293 -2.3016  0.1002 -1.6839
  677SOL    HW2 2031   2.496   0.308   0.240  0.2616 -0.6926 -2.3204
  678SOL     OW 2032   2.471   1.094   0.869  0.2934 -0.5998 -0.2200
  678SOL    HW1 2033   2.541   1.163   0.842 -0.1708  1.0269 -1.7062
  678SOL    HW2 2034   2.505   1.045   0.953 -0.5621 -1.7189  1.8540
  679SOL     OW 2035   2.504   0.468   0.128  0.3447  0.4241 -0.7128
  679SOL    HW1 2036   2.484   0.568   0.157  0.4177 -0.0045  1.1846
  679SOL    HW2 2037   2.568   0.458   0.052  0.2228  1.9696  1.1449
  680SOL     OW 2038   0.622   1.602   2.295  0.1844  0.6190 -0.5906
  680SOL    HW1 2039   0.596   1.510   2.265  0.3063 -1.6282 -1.0306
  680SOL    HW2 2040   0.551   1.646   2.352  1.5031 -0.1072 -2.7031
  681SOL     OW 2041   2.519   2.118   1.552 -0.1133 -0.3483 -0.5436
  681SOL    HW1 2042   2.484   2.166   1.636  1.7172 -1.6549  2.0744
  681SOL    HW2 2043   2.436   2.069   1.504  0.3319 -3.5705 -1.6441
  682SOL     OW 2044   0.433   1.764   2.454  0.3199 -0.2899 -0.4361
  682SOL    HW1 2045   0.334   1.790   2.442 -2.4378  1.0272 -1.5244
  682SOL    HW2 2046   0.487   1.843   2.488  0.9018  0.4448 -0.1829
  683SOL     OW 2047   2.662   1.872   1.495 -0.0240 -0.3490 -0.3478
  683SOL    HW1 2048   2.650   1.837   1.402  2.2840 -0.4429  1.3268
  683SOL    HW2 2049   2.613   1.961   1.506  2.5224  4.2736 -0.0311
  684SOL     OW 2050   2.664   1.466   1.915  0.0592 -0.0142  0.0577
  684SOL    HW1 2051   2.731   1.470   1.994  1.0087  2.1799 -1.9962
  684SOL    HW2 2052   2.653   1.369   1.888  1.0077  0.6178  0.1104
  685SOL     OW 2053   0.903   0.817   0.857  0.1458  0.6221 -0.7109
  685SOL    HW1 2054   0.846   0.878   0.803  0.8815 -1.1347 -1.1686
  685SOL    HW2 2055   0.843   0.741   0.890  1.3130  1.2323  3.4956
  686SOL     OW 2056   0.513   0.048   2.540  0.2927  0.3010  0.5475
  686SOL    HW1 2057   0.519   0.088   2.635  1.1092  0.2521  4.3945
  686SOL    HW2 2058   0.447   3.076   2.532  1.6810  0.2496 -2.3597
  687SOL     OW 2059   0.472   2.028   2.059  0.2550  0.1861  0.1268
  687SOL    HW1 2060   0.555   2.061   2.004  1.6614 -1.0055 -1.2384
  687SOL    HW2 2061   0.500   1.944   2.108  3.0081  0.2056  1.5639
  688SOL     OW 2062   2.255   0.392   1.699  0.0733 -0.0332 -0.1402
  688SOL    HW1 2063   2.184   0.358   1.637 -2.3148  2.1626  1.3003
  688SOL    HW2 2064   2.286   0.483   1.665 -0.8284 -0.5481  0.4945
  689SOL     OW 2065   2.103   0.956   0.722 -0.3083 -0.1632  0.6163
  689SOL    HW1 2066   2.068   0.866   0.690  2.9750 -0.2891  0.6833
  689SOL    HW2 2067   2.186   0.985   0.668 -0.0755  2.4833  1.3595
  690SOL     OW 2068   2.684   0.732   1.134  0.1743  0.2649  0.4020
  690SOL    HW1 2069   2.777   0.774   1.123 -0.8823 -2.7980  0.2405
  690SOL    HW2 2070   2.689   0.659   1.205 -2.9117  1.8016 -1.0968
  691SOL     OW 2071   3.069   1.155   2.000 -0.3915  0.1120 -0.0818
  691SOL    HW1 2072   3.000   1.221   2.034  0.0789 -2.1180 -0.4213
  691SOL    HW2 2073   3.019   1.087   1.943  1.2254  1.8945  1.8538
  692SOL     OW 2074   0.709   1.298   1.893  0.1009 -0.8180 -0.4553
  692SOL    HW1 2075   0.801   1.336   1.883  0.5802 -0.3771 -2.1161
  692SOL    HW2 2076   0.709   1.199   1.883  1.1346  1.4021  2.6789
  693SOL     OW 2077   0.367   1.126   1.854 -0.4571 -0.0061 -0.2318
  693SOL    HW1 2078   0.300   1.164   1.914 -0.2739  2.1868 -2.2747
  693SOL    HW2 2079   0.327   1.046   1.808  0.5802  0.4472 -1.3476
  694SOL     OW 2080   1.416   2.013   1.063 -0.0567 -0.3443  0.5145
  694SOL    HW1 2081   1.481   1.984   0.985  1.9699 -0.6436 -0.8121
  694SOL    HW2 2082   1.361   1.933   1.090 -0.1475  2.3767  0.4826
  695SOL     OW 2083   2.940   0.766   1.036 -0.1181  0.3206  0.4929
  695SOL    HW1 2084   2.934   0.844   0.970 -2.9089  1.3787 -1.2509
  695SOL    HW2 2085   2.948   0.677   0.986  0.7053 -1.2446  0.8113
  696SOL     OW 2086   0.706   2.335   0.526  0.1558 -0.2063 -0.0290
  696SOL    HW1 2087   0.702   2.429   0.483 -1.7499  1.6214 -1.4814
  696SOL    HW2 2088   0.672   2.336   0.627 -0.4326  0.8031  2.3574
  697SOL     OW 2089   1.518   1.001   1.725 -0.5689  0.0932 -0.4201
  697SOL    HW1 2090   1.597   1.045   1.678  0.2634 -0.8318  0.0798
  697SOL    HW2 2091   1.452   1.074   1.762 -0.4561  0.6286  0.8479
  698SOL     OW 2092   1.584   1.571   1.371  0.4753 -0.1153  0.4163
  698SOL    HW1 2093   1.560   1.670   1.377  0.6419  0.5811 -1.1161
  698SOL    HW2 2094   1.681   1.567   1.344 -1.9114 -2.7498 -2.2832
  699SOL     OW 2095   0.237   0.541   2.613 -0.0899  0.6494  0.1940
  699SOL    HW1 2096   0.139   0.535   2.595  3.9468 -1.8286 -0.9425
  699SOL    HW2 2097   0.272   0.634   2.617  0.0505 -1.7726 -1.3113
  700SOL     OW 2098   1.618   2.294   0.729 -0.3710  0.3001 -0.6183
  700SOL    HW1 2099   1.633   2.304   0.827 -0.3064  0.2144 -4.1104
  700SOL    HW2 2100   1.541   2.352   0.694  1.8587 -1.8669  0.7887
  701SOL     OW 2101   2.918   1.359   2.139  0.5081 -0.3248  0.0801
  701SOL    HW1 2102   2.916   1.374   2.238 -1.8321 -2.3025  0.0429
  701SOL    HW2 2103   2.980   1.424   2.101 -3.0341 -1.1064  0.9163
  702SOL     OW 2104   0.675   0.214   2.796  0.1334  0.1163 -0.3970
  702SOL    HW1 2105   0.694   0.278   2.867 -1.1572 -1.3660 -2.2022
  702SOL    HW2 2106   0.643   0.257   2.711 -1.0140 -1.3341 -1.4566
  703SOL     OW 2107   1.639   0.587   2.874 -0.3483  0.6906 -0.6720
  703SOL    HW1 2108   1.676   0.550   2.960  1.9038  0.3633  1.7608
  703SOL    HW2 2109   1.563   0.538   2.828 -1.9732  0.9251 -2.6957
  704SOL     OW 2110   2.917   1.253   1.162  0.2619 -0.3220  0.1232
  704SOL    HW1 2111   3.007   1.258   1.111 -0.6530  0.5517  0.9625
  704SOL    HW2 2112   2.841   1.300   1.109 -0.9798 -0.8230 -0.0630
  705SOL     OW 2113   2.376   1.999   1.902  0.3110  0.0816 -0.2158
  705SOL    HW1 2114   2.384   2.081   1.844 -0.8533 -0.4360 -0.1171
  705SOL    HW2 2115   2.309   1.934   1.855 -3.7840  1.1865 -1.9990
  706SOL     OW 2116   3.100   2.477   0.935  0.0296  0.3012 -0.3036
  706SOL    HW1 2117   0.031   2.567   0.906  1.5331 -2.1703  0.7995
  706SOL    HW2 2118   3.013   2.456   0.892  2.2120 -2.4870 -0.8868
  707SOL     OW 2119   0.828   2.963   0.118  0.1819  0.0700 -0.2950
  707SOL    HW1 2120   0.744   3.015   0.143  1.1841  0.9072  3.6309
  707SOL    HW2 2121   0.889   2.949   0.204  2.0653  0.2089  4.3228
  708SOL     OW 2122   0.770   2.187   1.634  0.5888  0.2574  0.0738
  708SOL    HW1 2123   0.784   2.268   1.573 -0.5737  1.5655 -0.0300
  708SOL    HW2 2124   0.743   2.101   1.583 -1.8081 -1.4156  0.4868
  709SOL     OW 2125   2.170   0.113   2.533 -0.0422 -0.5815 -0.1441
  709SOL    HW1 2126   2.073   0.091   2.540  1.1991 -1.5102  1.4844
  709SOL    HW2 2127   2.210   0.150   2.620  0.9053 -0.7465  0.7993
  710SOL     OW 2128   1.071   2.756   2.557 -0.0613 -0.2196 -0.0115
  710SOL    HW1 2129   1.118   2.680   2.509 -0.6152  0.7181  0.3079
  710SOL    HW2 2130   1.121   2.771   2.646 -1.7504  3.6845  0.3575
  711SOL     OW 2131   1.145   2.311   2.431  0.4057  0.1386 -0.5722
  711SOL    HW1 2132   1.188   2.399   2.407  0.4877  3.5910 -0.5920
  711SOL    HW2 2133   1.085   2.323   2.513 -0.1081 -0.7575  0.8202
  712SOL     OW 2134   1.238   2.074   2.852  0.0732 -0.1772  0.0490
  712SOL    HW1 2135   1.219   2.087   2.751 -1.6231  1.5289 -0.0318
  712SOL    HW2 2136   1.201   1.978   2.874 -1.9818 -0.4950  0.9663
  713SOL     OW 2137   0.757   1.010   1.888 -0.2294  0.5511  0.2328
  713SOL    HW1 2138   0.795   1.007   1.797  0.4772 -0.5162  1.1127
  713SOL    HW2 2139   0.742   0.914   1.923  1.3831  0.2273 -1.4813
  714SOL     OW 2140   1.674   2.126   1.137 -0.4986  0.7289  0.0641
  714SOL    HW1 2141   1.733   2.201   1.098  0.3400  1.6122 -1.8739
  714SOL    HW2 2142   1.590   2.114   1.085  2.3276  1.5355  0.2565
  715SOL     OW 2143   0.198   0.207   0.715 -0.1450 -0.1232 -0.5380
  715SOL    HW1 2144   0.252   0.128   0.754 -2.6398 -0.1379 -2.5092
  715SOL    HW2 2145   0.250   0.237   0.636  0.1216 -1.1521  1.5952
  716SOL     OW 2146   0.887   2.591   0.171  0.0605 -0.0414 -0.5197
  716SOL    HW1 2147   0.880   2.672   0.108  1.4415  1.5813  2.2396
  716SOL    HW2 2148   0.851   2.516   0.112 -0.3912 -3.0864 -0.5131
  717SOL     OW 2149   0.311   0.302   0.456  0.1791 -0.1478  0.0723
  717SOL    HW1 2150   0.402   0.253   0.451  3.2228 -0.3552 -2.0605
  717SOL    HW2 2151   0.239   0.253   0.402  0.6620 -0.8423  1.4530
  718SOL     OW 2152   1.607   2.452   1.197 -0.1335 -0.0232  0.2235
  718SOL    HW1 2153   1.523   2.445   1.254  0.3523  0.6668  2.1766
  718SOL    HW2 2154   1.688   2.463   1.256 -0.6447  0.6034  1.9202
  719SOL     OW 2155   2.897   2.353   0.786 -0.3952 -0.3262  0.4189
  719SOL    HW1 2156   2.923   2.258   0.776 -0.3806 -1.3597  1.8072
  719SOL    HW2 2157   2.837   2.383   0.712  1.0521 -1.1029 -0.0258
  720SOL     OW 2158   1.182   1.321   0.809  0.4300  0.1033  0.2088
  720SOL    HW1 2159   1.098   1.385   0.816 -2.6493  0.3454 -1.0647
  720SOL    HW2 2160   1.166   1.247   0.878  0.3608  0.3615 -1.0701
  721SOL     OW 2161   0.977   0.502   0.871 -0.0471 -0.5891 -0.0525
  721SOL    HW1 2162   0.899   0.558   0.891  2.2990 -1.5213 -0.7232
  721SOL    HW2 2163   1.013   0.452   0.952  0.5864  0.5283 -0.0791
  722SOL     OW 2164   1.188   1.130   1.489 -0.4813 -0.1835  0.2027
  722SOL    HW1 2165   1.273   1.183   1.482 -1.3541 -1.5815 -0.7202
  722SOL    HW2 2166   1.200   1.049   1.549 -2.0126  3.8484 -1.7013
  723SOL     OW 2167   0.813   0.196   1.852 -0.0389 -0.2270 -0.0781
  723SOL    HW1 2168   0.809   0.275   1.914  0.3127 -1.2246  0.2175
  723SOL    HW2 2169   0.720   0.156   1.841  0.8105  3.4610  0.2893
  724SOL     OW 2170   1.892   2.167   1.860  0.0812 -0.1039 -0.1052
  724SOL    HW1 2171   1.931   2.090   1.808 -1.3328  1.7183 -0.4479
  724SOL    HW2 2172   1.792   2.168   1.841 -1.0132  1.4340 -1.5001
  725SOL     OW 2173   0.912   2.867   1.495 -0.2855  0.5596  0.0402
  725SOL    HW1 2174   1.013   2.873   1.503  0.5344  1.1682 -1.0140
  725SOL    HW2 2175   0.871   2.905   1.579 -1.1964 -1.9688  0.7237
  726SOL     OW 2176   1.554   0.478   0.382  0.0685  0.5884  0.0015
  726SOL    HW1 2177   1.625   0.452   0.453  2.4486  0.8453 -1.2020
  726SOL    HW2 2178   1.501   0.399   0.343 -0.3566  1.4175  1.1262
  727SOL     OW 2179   1.341   2.284   1.074  0.1671 -0.0501 -0.2789
  727SOL    HW1 2180   1.370   2.329   1.162  1.1108  0.3648 -2.3710
  727SOL    HW2 2181   1.380   2.189   1.067  0.7214  0.8691  1.7537
  728SOL     OW 2182   1.753   0.192   2.368 -0.0731 -0.5536 -0.5543
  728SOL    HW1 2183   1.755   0.217   2.271  0.1541 -0.0378 -2.0349
  728SOL    HW2 2184   1.706   0.102   2.374 -1.7590 -0.4481  1.4332
  729SOL     OW 2185   2.455   1.432   0.850  0.1158 -0.1004 -0.0177
  729SOL    HW1 2186   2.444   1.401   0.753 -1.2709  0.2580 -0.3072
  729SOL    HW2 2187   2.460   1.533   0.851  1.5353 -1.7284  0.6010
  730SOL     OW 2188   2.001   1.140   2.700 -0.0675  0.2056  0.6310
  730SOL    HW1 2189   1.938   1.152   2.624 -0.6158 -0.4708  0.4709
  730SOL    HW2 2190   1.950   1.106   2.783  0.1750  0.1488  0.7722
  731SOL     OW 2191   0.350   3.096   1.645  0.1451 -0.5360  0.2923
  731SOL    HW1 2192   0.319   0.032   1.555 -0.2732 -1.0876 -1.4660
  731SOL    HW2 2193   0.364   2.997   1.638 -2.4172  3.1292 -1.7053
  732SOL     OW 2194   1.719   0.579   1.447  0.4113 -0.3149  0.1844
  732SOL    HW1 2195   1.656   0.529   1.386 -0.2021 -0.9818 -0.5956
  732SOL    HW2 2196   1.719   0.680   1.429 -1.0997  2.4021 -1.9349
  733SOL     OW 2197   0.951   1.384   1.772 -0.4498  0.1159  0.5489
  733SOL    HW1 2198   0.933   1.346   1.680  1.0507  0.7352 -0.5249
  733SOL    HW2 2199   1.052   1.382   1.786 -1.6761  0.4336 -1.1675
  734SOL     OW 2200   2.621   1.801   0.162  0.8893 -0.1544  0.2235
  734SOL    HW1 2201   2.534   1.746   0.146  3.5312 -1.9688 -0.8323
  734SOL    HW2 2202   2.617   1.895   0.120 -0.5025 -1.1137 -1.6077
  735SOL     OW 2203   0.609   0.671   0.445  0.1691  0.4027  0.0200
  735SOL    HW1 2204   0.530   0.613   0.419 -1.4028 -1.2210  2.1186
  735SOL    HW2 2205   0.678   0.601   0.466 -1.3620 -2.1924  1.9690
  736SOL     OW 2206   1.771   2.580   0.119 -0.2622  0.1997  0.1302
  736SOL    HW1 2207   1.843   2.645   0.152  0.4261 -0.8886 -2.0194
  736SOL    HW2 2208   1.765   2.589   0.016 -0.3893  0.5894  2.8586
  737SOL     OW 2209   1.065   2.205   1.212  0.1629 -0.0336 -0.4196
  737SOL    HW1 2210   1.062   2.143   1.298 -0.0930  3.3803  0.1326
  737SOL    HW2 2211   1.155   2.201   1.170  0.2012  2.6570 -0.5832
  738SOL     OW 2212   1.913   0.007   2.533  0.0023 -0.0256  0.1582
  738SOL    HW1 2213   1.867   0.087   2.490 -0.4562  2.4725 -0.0222
  738SOL    HW2 2214   1.893   3.023   2.477  0.9260 -2.8902 -0.9761
  739SOL     OW 2215   1.773   2.368   2.655 -0.5340  1.1901  0.3063
  739SOL    HW1 2216   1.845   2.360   2.583  0.2363 -0.4262 -1.5695
  739SOL    HW2 2217   1.705   2.433   2.621  0.7256 -0.0735 -0.2403
  740SOL     OW 2218   1.824   2.409   2.087 -0.0876  0.6201  0.4485
  740SOL    HW1 2219   1.729   2.381   2.117  0.5174 -1.6693  0.6996
  740SOL    HW2 2220   1.901   2.366   2.130 -1.5274  2.6233 -4.1820
  741SOL     OW 2221   2.381   2.155   2.558  0.0424  0.2975 -0.1211
  741SOL    HW1 2222   2.285   2.155   2.593  0.0365 -1.3819  0.7785
  741SOL    HW2 2223   2.444   2.184   2.632  0.3733 -0.7141  0.3309
  742SOL     OW 2224   1.255   1.274   2.829 -0.1385  0.7139  0.0990
  742SOL    HW1 2225   1.321   1.345   2.847  2.1157  1.0133  2.6932
  742SOL    HW2 2226   1.227   1.275   2.727  0.8134 -2.3347 -3.0094
  743SOL     OW 2227   1.511   1.388   2.844 -0.1575  0.1622  0.0254
  743SOL    HW1 2228   1.479   1.325   2.920 -0.4777  0.6287  3.0585
  743SOL    HW2 2229   1.551   1.474   2.880 -1.5039  0.3021 -1.2934
  744SOL     OW 2230   2.377   2.943   1.180 -0.1704  0.5499 -0.3910
  744SOL    HW1 2231   2.301   2.903   1.240 -1.0910 -0.0203  1.1277
  744SOL    HW2 2232   2.355   2.933   1.079 -0.6189 -0.9800 -1.4405
  745SOL     OW 2233   2.693   0.878   0.737 -0.2993 -0.2043 -0.0601
  745SOL    HW1 2234   2.693   0.879   0.634  0.2732 -0.8506 -1.3285
  745SOL    HW2 2235   2.705   0.966   0.787  1.3681 -3.5369  0.2812
  746SOL     OW 2236   2.611   1.794   1.251  0.4261 -0.3577  0.1223
  746SOL    HW1 2237   2.514   1.774   1.258  0.3356  1.2130  0.0088
  746SOL    HW2 2238   2.622   1.888   1.215  1.0282 -1.0762  4.0106
  747SOL     OW 2239   1.603   0.147   3.077 -0.2538 -0.5129  0.0769
  747SOL    HW1 2240   1.698   0.139   3.041 -1.6784  1.4524  0.0361
  747SOL    HW2 2241   1.529   0.080   3.040 -0.8688 -1.4298 -0.2576
  748SOL     OW 2242   0.835   1.282   0.178  0.3167  0.0704 -0.0423
  748SOL    HW1 2243   0.860   1.377   0.209 -0.7580  0.3250  0.9554
  748SOL    HW2 2244   0.827   1.281   0.074  0.3792 -0.1405 -0.3687
  749SOL     OW 2245   2.770   0.673   2.214 -0.5465 -0.2750 -0.1436
  749SOL    HW1 2246   2.706   0.640   2.286  0.5363 -1.7776  1.7642
  749SOL    HW2 2247   2.824   0.754   2.251 -0.3065  3.9714  1.4200
  750SOL     OW 2248   0.732   0.711   1.909  0.0807 -0.5444  0.0488
  750SOL    HW1 2249   0.743   0.619   1.949 -0.4815 -0.0252 -1.3550
  750SOL    HW2 2250   0.642   0.716   1.856  1.3604  2.4280  1.9706
  751SOL     OW 2251   2.447   2.633   1.936 -0.0232 -0.6004 -0.1865
  751SOL    HW1 2252   2.374   2.565   1.921  1.3917  0.1073  1.6766
  751SOL    HW2 2253   2.401   2.715   1.976  0.9215 -1.2799 -1.8867
  752SOL     OW 2254   2.043   1.520   0.956 -0.7579 -0.0555 -0.2131
  752SOL    HW1 2255   2.140   1.512   0.988  1.2813  0.8367  1.8036
  752SOL    HW2 2256   2.030   1.611   0.913  3.2194  0.4282  2.3594
  753SOL     OW 2257   0.964   1.164   2.068 -0.6033  0.1792 -0.2316
  753SOL    HW1 2258   0.862   1.163   2.044  1.2376  0.0536  1.7998
  753SOL    HW2 2259   1.013   1.085   2.022  1.9531 -0.8386 -0.8963
  754SOL     OW 2260   0.712   2.556   0.402 -0.4241  0.3658 -0.2875
  754SOL    HW1 2261   0.770   2.540   0.320  0.6879  2.8860  1.4691
  754SOL    HW2 2262   0.747   2.633   0.451 -0.3492 -3.6501  0.4901
  755SOL     OW 2263   2.607   2.848   0.824  0.7193 -0.5002  0.3316
  755SOL    HW1 2264   2.512   2.874   0.787 -2.9495  0.3278 -1.0130
  755SOL    HW2 2265   2.660   2.933   0.857  4.8394 -0.4040 -0.2003
  756SOL     OW 2266   2.277   1.943   2.400  0.2924 -0.0780 -0.0981
  756SOL    HW1 2267   2.297   2.021   2.456  0.1385 -2.5501  1.0172
  756SOL    HW2 2268   2.236   1.967   2.311 -0.2985  1.5981 -1.4174
  757SOL     OW 2269   3.041   2.977   1.874  0.3013  0.5031  0.3339
  757SOL    HW1 2270   3.060   2.937   1.782  1.2394  0.6256  2.0765
  757SOL    HW2 2271   2.955   3.033   1.864 -2.9653  2.0358 -0.9241
  758SOL     OW 2272   0.453   2.601   0.457  0.0426 -0.0241 -0.4538
  758SOL    HW1 2273   0.381   2.531   0.474  1.0367  0.5308  0.2364
  758SOL    HW2 2274   0.546   2.566   0.444 -3.0721  1.3642 -1.1039
  759SOL     OW 2275   2.024   1.090   1.153 -0.3469 -0.1882  0.2395
  759SOL    HW1 2276   1.991   1.188   1.145 -1.8278 -3.0465  0.1853
  759SOL    HW2 2277   2.110   1.075   1.103 -0.4311 -0.9433  0.5108
  760SOL     OW 2278   1.270   0.916   1.621 -0.7736  0.1887 -0.4853
  760SOL    HW1 2279   1.292   0.826   1.664 -1.0953  2.4873 -0.8262
  760SOL    HW2 2280   1.351   0.973   1.626  1.8412  2.8461  1.5314
  761SOL     OW 2281   2.070   0.238   1.136 -0.5578 -0.4057  0.3029
  761SOL    HW1 2282   2.085   0.337   1.156 -0.2792 -0.3206 -2.4424
  761SOL    HW2 2283   2.082   0.218   1.038  2.4470  1.8363  0.8912
  762SOL     OW 2284   1.708   0.221   0.447 -0.0132 -0.6568 -0.4941
  762SOL    HW1 2285   1.772   0.144   0.443 -2.0023  1.6214 -2.0515
  762SOL    HW2 2286   1.733   0.276   0.527 -3.2827 -2.7427 -0.6649
  763SOL     OW 2287   0.767   0.465   1.614  0.6450 -0.1781  0.7892
  763SOL    HW1 2288   0.742   0.494   1.520  0.0164 -1.2155 -0.9318
  763SOL    HW2 2289   0.867   0.462   1.628 -0.1757 -0.3992  0.1383
  764SOL     OW 2290   2.075   2.407   2.233 -0.1153 -0.3987  0.3089
  764SOL    HW1 2291   2.106   2.333   2.173 -1.1481  0.5108 -0.0241
  764SOL    HW2 2292   2.155   2.476   2.226  2.0088 -2.5548  0.1812
  765SOL     OW 2293   2.916   1.177   2.680  0.1444 -0.1939  0.0002
  765SOL    HW1 2294   2.826   1.139   2.711  1.1944  1.0821  0.1350
  765SOL    HW2 2295   3.000   1.124   2.716  1.2194 -0.5966  1.8736
  766SOL     OW 2296   0.088   0.647   2.897  0.3881  0.1652  0.7922
  766SOL    HW1 2297   0.103   0.548   2.926  1.6363  1.3733  0.5544
  766SOL    HW2 2298   0.044   0.652   2.809  3.7662 -1.7200 -2.8399
  767SOL     OW 2299   0.446   2.260   1.811 -0.0238  0.7451 -0.4611
  767SOL    HW1 2300   0.400   2.172   1.799 -2.6756  0.4932 -1.5863
  767SOL    HW2 2301   0.376   2.333   1.799  1.2845  1.2183 -2.2309
  768SOL     OW 2302   1.014   0.975   0.196  0.8032  0.1137  0.0365
  768SOL    HW1 2303   1.080   0.918   0.244  0.2796 -0.8581  0.2291
  768SOL    HW2 2304   1.047   0.980   0.099  1.1418 -0.8898  0.4243
  769SOL     OW 2305   1.282   2.373   0.334 -0.2702 -0.4097  0.4440
  769SOL    HW1 2306   1.175   2.374   0.328 -2.9713 -2.3862  0.9567
  769SOL    HW2 2307   1.314   2.370   0.430 -0.6564 -0.9265  1.0218
  770SOL     OW 2308   1.294   0.277   1.882  0.0629 -0.3448  0.0889
  770SOL    HW1 2309   1.318   0.263   1.783  2.2385  0.9917  0.6790
  770SOL    HW2 2310   1.213   0.218   1.902  1.5106  1.6739 -0.9300
  771SOL     OW 2311   0.834   2.645   0.780 -0.6096 -0.3766  0.0310
  771SOL    HW1 2312   0.864   2.718   0.843  1.5123  1.1549 -2.0408
  771SOL    HW2 2313   0.815   2.561   0.838 -1.2523 -0.8171  0.3566
  772SOL     OW 2314   2.378   0.703   0.203  0.0918 -0.3972 -0.0942
  772SOL    HW1 2315   2.419   0.676   0.292 -0.9983  0.3776 -1.1571
  772SOL    HW2 2316   2.281   0.732   0.208  0.4660  2.0459 -0.5838
  773SOL     OW 2317   2.174   0.700   1.733 -0.0424 -0.1689  0.4815
  773SOL    HW1 2318   2.243   0.681   1.660  1.9390  2.5116  1.5779
  773SOL    HW2 2319   2.094   0.738   1.684 -1.0977 -1.0746  0.4554
  774SOL     OW 2320   0.363   0.677   0.704 -0.0786  0.5075  0.5488
  774SOL    HW1 2321   0.312   0.695   0.620  1.5619  0.5367  2.8340
  774SOL    HW2 2322   0.417   0.763   0.727  1.0048 -1.8293  1.7016
  775SOL     OW 2323   1.565   0.353   0.967 -0.1012  0.6116 -0.0275
  775SOL    HW1 2324   1.626   0.386   1.042  0.9017 -1.8887 -1.8330
  775SOL    HW2 2325   1.594   0.402   0.883  0.4871 -0.8436  1.0025
  776SOL     OW 2326   1.943   3.011   2.199 -0.0744  0.4032  0.0062
  776SOL    HW1 2327   2.035   2.970   2.202  0.8412  2.9174  2.1958
  776SOL    HW2 2328   1.953   0.004   2.171  1.0794  1.0099  0.5274
  777SOL     OW 2329   1.397   1.525   0.480 -0.6278 -0.3507 -0.3521
  777SOL    HW1 2330   1.447   1.612   0.473  0.4956  0.0463 -0.1692
  777SOL    HW2 2331   1.435   1.459   0.411  1.5670 -0.3529 -2.2233
  778SOL     OW 2332   0.504   2.322   0.075 -0.0423  0.1001  0.1205
  778SOL    HW1 2333   0.568   2.269   0.140 -0.5792  1.2796  0.6869
  778SOL    HW2 2334   0.547   2.415   0.072 -1.7990  1.1612 -1.3510
  779SOL     OW 2335   0.206   1.417   0.186 -0.0782 -0.1492  0.2236
  779SOL    HW1 2336   0.262   1.338   0.191 -2.4713  0.7756 -3.0018
  779SOL    HW2 2337   0.184   1.442   0.282  0.1777 -0.7827  1.8123
  780SOL     OW 2338   1.523   0.411   2.158 -0.6337 -0.0712 -0.2511
  780SOL    HW1 2339   1.590   0.344   2.127 -0.3197 -0.8511 -1.5983
  780SOL    HW2 2340   1.567   0.492   2.198  0.1574 -0.1700  1.7680
  781SOL     OW 2341   1.777   1.851   1.136 -0.2471 -0.2105 -0.0699
  781SOL    HW1 2342   1.745   1.940   1.179  1.4502  1.2813  2.4090
  781SOL    HW2 2343   1.856   1.865   1.076 -1.7225  2.0393 -1.5473
  782SOL     OW 2344   1.983   2.608   1.998 -0.3347  0.0200  0.3421
  782SOL    HW1 2345   1.909   2.558   2.043  0.3952  0.6743 -0.5363
  782SOL    HW2 2346   2.047   2.541   1.957  0.6633 -0.5510  2.3009
  783SOL     OW 2347   1.343   0.669   1.687  0.4602  0.4134 -0.1583
  783SOL    HW1 2348   1.260   0.619   1.730 -4.7711 -0.6703  1.7458
  783SOL    HW2 2349   1.418   0.677   1.760  1.8863 -0.0089  0.5945
  784SOL     OW 2350   1.513   0.756   1.887  0.2301  0.2336  0.0243
  784SOL    HW1 2351   1.521   0.844   1.835  2.2982 -0.2111  1.6667
  784SOL    HW2 2352   1.456   0.768   1.973 -0.5184 -1.3145 -1.2730
  785SOL     OW 2353   1.787   0.883   0.574 -0.0706 -0.4334  0.3452
  785SOL    HW1 2354   1.838   0.963   0.533 -1.1400  0.5418 -0.0279
  785SOL    HW2 2355   1.704   0.917   0.623 -1.5457 -1.7533 -2.2628
  786SOL     OW 2356   0.012   1.213   0.509 -0.0642 -0.3120  0.2555
  786SOL    HW1 2357   3.038   1.189   0.447  2.2487 -1.9431  0.5409
  786SOL    HW2 2358   0.037   1.310   0.492  1.2157 -0.5093  1.6106
  787SOL     OW 2359   1.490   1.836   0.162  0.4419 -0.0419 -0.1232
  787SOL    HW1 2360   1.461   1.744   0.130  0.7797 -0.9349 -0.8204
  787SOL    HW2 2361   1.425   1.907   0.130  0.8644  2.2467  1.2475
  788SOL     OW 2362   2.213   1.018   0.971 -0.2844  0.6188 -0.6919
  788SOL    HW1 2363   2.305   1.063   0.955  0.1789 -1.0815 -0.7468
  788SOL    HW2 2364   2.184   0.989   0.880 -1.1779  0.2219  1.7417
  789SOL     OW 2365   2.939   1.644   2.196  0.6135  0.1186 -0.0540
  789SOL    HW1 2366   3.015   1.639   2.263 -2.8991 -4.6010 -1.4624
  789SOL    HW2 2367   2.860   1.585   2.232 -3.1610 -0.8081 -0.7392
  790SOL     OW 2368   1.082   0.093   2.632  0.3767  0.1079 -0.4820
  790SOL    HW1 2369   0.998   0.051   2.667 -0.0899  2.1459  1.6279
  790SOL    HW2 2370   1.164   0.037   2.628  0.1255 -0.0646 -0.9869
  791SOL     OW 2371   0.252   2.342   2.805 -0.4735 -0.5218  0.2951
  791SOL    HW1 2372   0.292   2.305   2.890  0.1638  0.3594  0.4777
  791SOL    HW2 2373   0.178   2.291   2.762  0.9899  2.9200  0.0759
  792SOL     OW 2374   1.291   0.506   2.027  0.0621 -0.5485 -0.3766
  792SOL    HW1 2375   1.377   0.473   2.078  2.9006  0.3720 -2.2507
  792SOL    HW2 2376   1.283   0.454   1.942  2.5769  0.2229  2.9210
  793SOL     OW 2377   2.564   0.093   2.489  0.7911 -0.2557 -0.4456
  793SOL    HW1 2378   2.609   0.053   2.570 -0.4075 -0.3143 -0.9976
  793SOL    HW2 2379   2.634   0.126   2.422 -1.1303 -4.1138  0.9425
  794SOL     OW 2380   0.229   0.281   1.967 -0.0776  0.2119  0.4996
  794SOL    HW1 2381   0.259   0.261   2.061  0.6266 -0.1600 -2.2479
  794SOL    HW2 2382   0.215   0.191   1.917  1.8793  0.0018  0.3158
  795SOL     OW 2383   2.795   1.375   0.315 -0.1057 -0.2646  0.3314
  795SOL    HW1 2384   2.887   1.333   0.297  1.0043  2.1121  0.7938
  795SOL    HW2 2385   2.784   1.468   0.270 -1.9767  1.3083 -2.6241
  796SOL     OW 2386   2.704   2.047   2.797  0.5163  0.2577  0.5942
  796SOL    HW1 2387   2.785   2.061   2.737  1.2037  1.9164  1.3308
  796SOL    HW2 2388   2.636   2.121   2.781  0.6956 -3.7493  0.3780
  797SOL     OW 2389   2.921   1.924   0.031 -0.1114 -0.1357  0.0351
  797SOL    HW1 2390   2.890   1.833   0.001 -0.7457  0.8958  1.6114
  797SOL    HW2 2391   2.911   1.933   0.132 -1.2167  1.2000  0.5311
  798SOL     OW 2392   0.507   0.691   1.768  0.0160 -0.0342  0.3315
  798SOL    HW1 2393   0.536   0.594   1.780  0.9145  1.5444 -3.6754
  798SOL    HW2 2394   0.417   0.716   1.810  1.0988  1.2878 -3.4527
  799SOL     OW 2395   2.659   1.145   2.417  0.0368  0.7411  0.2411
  799SOL    HW1 2396   2.576   1.083   2.416 -2.7807 -2.4752  1.8989
  799SOL    HW2 2397   2.674   1.178   2.319 -0.4461  1.0624  1.3939
  800SOL     OW 2398   2.928   2.098   0.687  0.1920 -0.1151 -0.1501
  800SOL    HW1 2399   3.001   2.052   0.635  0.9812  1.2291 -1.4862
  800SOL    HW2 2400   2.887   2.031   0.750  1.5623 -0.5654  1.3958
  801SOL     OW 2401   1.186   0.855   0.819 -0.3359 -0.3798  0.4131
  801SOL    HW1 2402   1.086   0.846   0.844 -3.1795  1.1393  1.5586
  801SOL    HW2 2403   1.197   0.908   0.730  1.1370  1.8726 -1.2088
  802SOL     OW 2404   2.024   2.126   0.904 -0.0698  0.6337 -0.2190
  802SOL    HW1 2405   1.991   2.031   0.934 -0.8711 -0.7134  2.1006
  802SOL    HW2 2406   1.964   2.158   0.829 -1.1251 -0.3968  1.4541
  803SOL     OW 2407   0.114   1.467   0.437 -0.1106 -0.2623  0.5264
  803SOL    HW1 2408   0.172   1.509   0.515 -0.2510  2.1726  0.8468
  803SOL    HW2 2409   0.050   1.542   0.404 -2.8382  3.7281 -0.9829
  804SOL     OW 2410   1.404   2.437   0.608  0.0230 -0.2660  0.0797
  804SOL    HW1 2411   1.351   2.485   0.681  1.0698  0.6185  0.1146
  804SOL    HW2 2412   1.464   2.505   0.560  1.3489  0.1528  0.4069
  805SOL     OW 2413   1.611   2.108   2.509 -0.5058  0.2755 -0.5755
  805SOL    HW1 2414   1.597   2.054   2.601  0.8238 -2.1507  4.8741
  805SOL    HW2 2415   1.708   2.104   2.477 -0.6763  2.3633 -0.5632
  806SOL     OW 2416   1.567   3.093   1.485 -0.4320  0.2409  0.2665
  806SOL    HW1 2417   1.616   0.066   1.532  1.4037 -1.8886 -0.0875
  806SOL    HW2 2418   1.476   0.007   1.447  1.0064 -0.5414 -4.0325
  807SOL     OW 2419   1.911   0.050   0.343  0.1736  0.3820 -0.3120
  807SOL    HW1 2420   1.979   0.009   0.407  1.3167  0.5272  2.3947
  807SOL    HW2 2421   1.829   3.096   0.328 -0.8503 -1.3652  0.0974
  808SOL     OW 2422   0.455   1.569   2.665  0.3297  0.0409 -0.5202
  808SOL    HW1 2423   0.465   1.469   2.670  1.7389  0.4282  0.0021
  808SOL    HW2 2424   0.431   1.598   2.570  1.2451  0.8581 -1.1184
  809SOL     OW 2425   0.005   1.012   2.829 -0.2929  0.1354 -0.0400
  809SOL    HW1 2426   0.061   1.074   2.890  1.0077 -0.2337  0.8585
  809SOL    HW2 2427   3.074   0.934   2.881  0.8825  2.1411 -0.2426
  810SOL     OW 2428   2.639   0.505   2.737  0.1501 -0.9897 -0.6588
  810SOL    HW1 2429   2.537   0.522   2.732 -0.5898 -3.8994 -0.2511
  810SOL    HW2 2430   2.664   0.419   2.692  1.1905  1.1655 -0.2423
  811SOL     OW 2431   2.227   2.466   1.854  0.4627 -0.0792  0.1568
  811SOL    HW1 2432   2.229   2.468   1.753 -0.2289 -3.3704 -0.0230
  811SOL    HW2 2433   2.181   2.378   1.888 -1.2313 -0.2734 -0.7484
  812SOL     OW 2434   1.162   0.316   0.496 -0.1495 -0.0079 -0.1560
  812SOL    HW1 2435   1.217   0.269   0.568 -1.4465 -1.8128 -0.9220
  812SOL    HW2 2436   1.175   0.272   0.403  2.4256 -1.3410 -2.0914
  813SOL     OW 2437   1.955   0.556   1.849  0.7283 -0.1215 -0.3979
  813SOL    HW1 2438   2.033   0.607   1.806  2.2428  2.8061 -0.3642
  813SOL    HW2 2439   1.881   0.540   1.779  1.5650  0.2362 -0.4119
  814SOL     OW 2440   1.804   0.883   1.114 -0.3390 -0.4697 -0.5474
  814SOL    HW1 2441   1.873   0.809   1.105 -0.5501  0.1495 -0.8797
  814SOL    HW2 2442   1.848   0.967   1.080 -1.5051  2.7583  0.2624
  815SOL     OW 2443   0.640   0.934   0.480 -0.3184  0.1189 -0.0837
  815SOL    HW1 2444   0.683   0.949   0.573 -0.6742 -0.1811  0.6409
  815SOL    HW2 2445   0.621   0.835   0.472 -2.2366  2.9011 -2.4283
  816SOL     OW 2446   2.341   2.377   0.331  0.4579 -0.1841 -0.0173
  816SOL    HW1 2447   2.322   2.298   0.395  0.0124  0.8963 -0.6672
  816SOL    HW2 2448   2.251   2.404   0.287 -0.3697 -2.3861  0.9742
  817SOL     OW 2449   2.730   2.406   1.010  0.0535 -0.2850 -0.4435
  817SOL    HW1 2450   2.780   2.380   0.924  0.9280 -0.4621  0.0439
  817SOL    HW2 2451   2.787   2.386   1.093  0.5464  0.5543 -0.8704
  818SOL     OW 2452   1.769   0.819   0.087  0.1002  0.6016 -0.5223
  818SOL    HW1 2453   1.843   0.890   0.068  2.1086 -3.0020 -0.0477
  818SOL    HW2 2454   1.758   0.799   0.187  0.3355  1.2964  1.0859
  819SOL     OW 2455   0.606   0.488   0.718  0.4846 -0.3415  0.7665
  819SOL    HW1 2456   0.542   0.568   0.709 -1.3486  1.7972 -2.0326
  819SOL    HW2 2457   0.664   0.478   0.633  0.8632  1.6669 -3.9358
  820SOL     OW 2458   1.992   0.602   1.504 -0.1419 -0.4717 -0.0516
  820SOL    HW1 2459   2.038   0.685   1.470 -0.5558 -2.3043  0.5029
  820SOL    HW2 2460   1.890   0.606   1.506 -1.1268  0.0228  1.9889
  821SOL     OW 2461   2.907   0.177   0.904  0.0202 -0.6450 -0.0767
  821SOL    HW1 2462   2.941   0.152   0.813  0.7609 -0.6713  0.2558
  821SOL    HW2 2463   2.981   0.225   0.952  1.9367 -1.2801 -1.0973
  822SOL     OW 2464   0.667   2.299   2.276  0.0528 -0.0512 -0.0253
  822SOL    HW1 2465   0.715   2.382   2.310  0.7936 -2.1146 -1.3368
  822SOL    HW2 2466   0.565   2.314   2.261 -1.1103  0.3933  0.6345
  823SOL     OW 2467   2.685   1.206   1.515  0.1749  0.5351 -0.2956
  823SOL    HW1 2468   2.742   1.122   1.509  0.2405  1.2934 -1.4751
  823SOL    HW2 2469   2.670   1.225   1.613 -1.2044  0.5309 -2.9226
  824SOL     OW 2470   0.538   2.598   2.605 -0.2496  0.1504 -0.1903
  824SOL    HW1 2471   0.596   2.598   2.687 -0.8712  1.8500 -1.8061
  824SOL    HW2 2472   0.584   2.535   2.538  0.0774  1.1165 -0.2726
  825SOL     OW 2473   1.609   1.611   2.947 -0.3055  0.2962  0.2372
  825SOL    HW1 2474   1.571   1.680   2.880  2.0685 -1.8668  0.1782
  825SOL    HW2 2475   1.712   1.620   2.961  2.7415 -2.2792  1.4975
  826SOL     OW 2476   1.041   2.218   0.093  0.0039  0.0458  0.3498
  826SOL    HW1 2477   1.042   2.208   0.197 -0.8800 -0.5373  4.8448
  826SOL    HW2 2478   0.993   2.141   0.057  2.0840  0.3572  1.2710
  827SOL     OW 2479   0.199   1.424   1.798 -0.2653  0.1945 -0.1719
  827SOL    HW1 2480   0.179   1.507   1.745  1.8912 -1.5086 -1.9405
  827SOL    HW2 2481   0.156   1.344   1.749 -2.6557  0.3649  0.6870
  828SOL     OW 2482   0.229   1.636   1.477 -0.4601  0.4213 -0.0115
  828SOL    HW1 2483   0.231   1.735   1.495  2.3881  0.2539 -0.5191
  828SOL    HW2 2484   0.302   1.608   1.412 -1.0194 -0.3111 -1.1056
  829SOL     OW 2485   3.069   2.277   2.928 -0.0485 -0.0799 -0.1609
  829SOL    HW1 2486   0.034   2.242   2.998  1.8828 -1.5438  2.5141
  829SOL    HW2 2487   2.977   2.237   2.947  1.3818  1.2830  2.7964
  830SOL     OW 2488   1.205   0.673   0.428 -0.4929  0.1684 -0.2428
  830SOL    HW1 2489   1.128   0.638   0.488 -1.1934  0.1429  4.5204
  830SOL    HW2 2490   1.178   0.668   0.327  0.8575 -1.5255 -1.6465
  831SOL     OW 2491   2.760   2.314   0.117 -0.2541  0.6438  0.2089
  831SOL    HW1 2492   2.816   2.269   0.048 -2.3890  0.3163  0.5365
  831SOL    HW2 2493   2.665   2.336   0.094  1.0785 -2.8732  1.9442
  832SOL     OW 2494   1.801   2.518   0.535 -0.1266 -0.0738 -0.8933
  832SOL    HW1 2495   1.862   2.501   0.454  1.6146 -0.2084 -2.9261
  832SOL    HW2 2496   1.856   2.533   0.620  2.3920 -2.1218  0.1714
  833SOL     OW 2497   0.221   1.227   2.383  0.0974 -0.2182  0.0334
  833SOL    HW1 2498   0.189   1.303   2.437  3.0766 -3.0722 -1.4318
  833SOL    HW2 2499   0.294   1.172   2.431 -1.2588 -2.7642  4.0537
  834SOL     OW 2500   2.347   0.344   0.682  0.1298 -0.1037  0.0933
  834SOL    HW1 2501   2.440   0.378   0.659  0.2146 -1.4727  1.1169
  834SOL    HW2 2502   2.281   0.349   0.602  0.8363 -0.0255 -0.8109
  835SOL     OW 2503   2.334   0.694   1.969  0.4982 -0.0024 -0.1614
  835SOL    HW1 2504   2.281   0.699   1.877 -1.4349  1.9301 -3.0391
  835SOL    HW2 2505   2.273   0.645   2.035 -0.1753 -2.0960  1.2418
  836SOL     OW 2506   1.008   1.737   0.829 -0.2660 -0.4898  0.6269
  836SOL    HW1 2507   0.962   1.793   0.760 -2.9961 -2.1278  0.5736
  836SOL    HW2 2508   1.107   1.724   0.804  1.4288 -0.3862 -2.7644
  837SOL     OW 2509   2.336   1.169   1.883 -0.0455 -0.3039  0.0213
  837SOL    HW1 2510   2.288   1.256   1.873 -2.0614  0.1772 -0.5071
  837SOL    HW2 2511   2.388   1.174   1.971 -0.0410  1.0553  1.5690
  838SOL     OW 2512   0.079   0.871   2.610 -0.0403 -0.6654 -0.6788
  838SOL    HW1 2513   0.018   0.878   2.534  2.2945  3.6000  2.6629
  838SOL    HW2 2514   0.048   0.912   2.701  0.5067 -0.2319 -0.7233
  839SOL     OW 2515   0.000   0.200   3.096  0.4091 -0.6552  0.0533
  839SOL    HW1 2516   0.025   0.127   3.032  0.8101  1.9613 -0.8303
  839SOL    HW2 2517   3.006   0.199   0.019  2.0453 -1.5854  0.6712
  840SOL     OW 2518   2.804   1.395   2.799 -0.1431 -0.1089  0.2340
  840SOL    HW1 2519   2.860   1.348   2.731 -0.3830  0.0725  1.3400
  840SOL    HW2 2520   2.853   1.401   2.889  0.9100  1.3083  0.0054
  841SOL     OW 2521   0.582   2.039   2.587 -0.3156 -0.5787 -0.1559
  841SOL    HW1 2522   0.622   2.037   2.496 -1.0120 -0.2477  0.8692
  841SOL    HW2 2523   0.629   2.107   2.645 -1.4115 -0.4760 -1.6464
  842SOL     OW 2524   0.621   0.038   1.194 -0.0181  0.0229  0.2703
  842SOL    HW1 2525   0.669   0.108   1.249 -2.4784  0.7655 -1.5980
  842SOL    HW2 2526   0.675   0.004   1.116 -0.6107  3.0233  0.4409
  843SOL     OW 2527   2.937   1.241   1.730  0.3356  0.2141  0.5038
  843SOL    HW1 2528   2.916   1.343   1.737 -2.4356  5.0335  0.6660
  843SOL    HW2 2529   2.854   1.188   1.751  1.1432  0.9648 -0.7246
  844SOL     OW 2530   1.954   2.313   2.457 -0.5998  0.1454  0.3652
  844SOL    HW1 2531   2.033   2.300   2.524  3.3668 -0.9234  1.9641
  844SOL    HW2 2532   1.992   2.352   2.371 -1.8671  1.4290 -2.0454
  845SOL     OW 2533   1.605   3.055   2.421  0.5466  0.1026  0.3936
  845SOL    HW1 2534   1.504   3.043   2.442 -4.1419  1.9873 -1.3366
  845SOL    HW2 2535   1.664   2.972   2.424 -0.1381 -1.8074  1.7295
  846SOL     OW 2536   2.419   1.635   0.085 -0.3463 -0.2037  0.1084
  846SOL    HW1 2537   2.368   1.677   0.009  0.2147  1.3445 -1.4858
  846SOL    HW2 2538   2.467   1.549   0.062 -0.1645 -2.0082 -2.1581
  847SOL     OW 2539   2.233   0.114   2.784 -0.3932 -0.5371 -0.4199
  847SOL    HW1 2540   2.154   0.110   2.844  0.3679 -0.7208  0.9559
  847SOL    HW2 2541   2.320   0.127   2.830 -0.7282  0.7231 -1.9122
  848SOL     OW 2542   1.874   0.391   0.302  0.4235 -0.4970 -0.0393
  848SOL    HW1 2543   1.860   0.490   0.316  2.4209 -0.1796 -1.8191
  848SOL    HW2 2544   1.803   0.341   0.348  1.9656  1.6186 -3.0212
  849SOL     OW 2545   0.990   0.387   2.786  0.1328 -0.2835 -0.3325
  849SOL    HW1 2546   1.055   0.384   2.704  0.8215  3.0828  0.2186
  849SOL    HW2 2547   0.916   0.453   2.767 -1.1933 -0.6195 -1.1583
  850SOL     OW 2548   0.123   0.567   0.167  0.0275  0.4445  0.5397
  850SOL    HW1 2549   0.217   0.572   0.206 -0.4470 -0.3607 -0.5707
  850SOL    HW2 2550   0.086   0.664   0.166  1.3453 -4.7242 -1.5329
  851SOL     OW 2551   0.286   1.147   1.470 -0.8444 -0.5409  0.1991
  851SOL    HW1 2552   0.234   1.199   1.539  0.0133 -1.6143  0.8695
  851SOL    HW2 2553   0.376   1.119   1.510 -0.7204 -0.5879  2.4670
  852SOL     OW 2554   1.140   0.971   1.984  0.1225  0.1654  0.2438
  852SOL    HW1 2555   1.117   0.905   1.908  0.9816  0.1487 -1.1159
  852SOL    HW2 2556   1.216   0.928   2.036 -0.8825 -1.2334  0.3533
  853SOL     OW 2557   2.118   1.361   2.818 -0.3019 -0.0455 -0.3527
  853SOL    HW1 2558   2.114   1.361   2.918  1.0362  0.5458 -1.6177
  853SOL    HW2 2559   2.099   1.276   2.761 -1.0373 -2.4139 -0.1011
  854SOL     OW 2560   1.230   1.390   1.808 -0.5603 -0.3980  0.2073
  854SOL    HW1 2561   1.290   1.417   1.885 -2.7294 -1.7689  0.5921
  854SOL    HW2 2562   1.216   1.466   1.742  2.0721  1.8332 -1.0152
  855SOL     OW 2563   0.263   2.046   1.764 -0.1487 -0.4193 -0.2310
  855SOL    HW1 2564   0.183   2.107   1.746  3.5266  1.0972  2.0609
  855SOL    HW2 2565   0.277   1.986   1.680 -1.8443 -1.8826 -1.3138
  856SOL     OW 2566   1.190   1.297   2.559 -0.6284  1.0466  0.0576
  856SOL    HW1 2567   1.197   1.221   2.487  0.9928 -1.5553  1.0017
  856SOL    HW2 2568   1.146   1.374   2.517 -0.9928 -1.0345  0.7446
  857SOL     OW 2569   1.067   0.883   2.787  0.0460 -0.5826 -0.2529
  857SOL    HW1 2570   0.990   0.901   2.722  2.8304 -0.3351 -0.5704
  857SOL    HW2 2571   1.055   0.801   2.841  3.2278 -1.4447 -4.2131
  858SOL     OW 2572   0.200   0.027   1.849  0.7723 -0.2044  0.3122
  858SOL    HW1 2573   0.248   0.012   1.760 -1.9683 -1.2100  3.1967
  858SOL    HW2 2574   0.109   3.081   1.843 -3.2224  2.1799  1.6729
  859SOL     OW 2575   2.450   0.058   0.702 -0.5092 -0.0618 -0.1299
  859SOL    HW1 2576   2.402   0.132   0.651 -2.7814 -0.5631  1.2834
  859SOL    HW2 2577   2.450   0.095   0.799 -1.9119  0.6084 -4.5488
  860SOL     OW 2578   0.600   0.896   1.619  0.4215  0.8237  0.1901
  860SOL    HW1 2579   0.591   0.830   1.695  1.7066  1.0212  1.8886
  860SOL    HW2 2580   0.693   0.937   1.613 -2.3772 -0.5261 -1.8871
  861SOL     OW 2581   1.433   0.856   1.381 -0.3584  0.1373  0.3680
  861SOL    HW1 2582   1.417   0.758   1.388  0.3146 -0.9755  0.9590
  861SOL    HW2 2583   1.535   0.877   1.387 -2.0544  2.5702  0.3286
  862SOL     OW 2584   0.753   2.880   2.267 -0.4102  0.6624  0.3520
  862SOL    HW1 2585   0.751   2.803   2.338  2.0970 -1.3156  2.0640
  862SOL    HW2 2586   0.714   2.963   2.305 -0.2845 -1.3608  1.5935
  863SOL     OW 2587   2.679   0.158   1.259 -0.3953  0.2766  0.4888
  863SOL    HW1 2588   2.763   0.151   1.309 -0.8737 -1.7479  0.2905
  863SOL    HW2 2589   2.593   0.112   1.296 -2.7968  1.4094 -0.1432
  864SOL     OW 2590   2.659   3.014   2.700  0.4560  0.4740 -0.0056
  864SOL    HW1 2591   2.564   3.022   2.740  2.8362  0.2524 -1.8555
  864SOL    HW2 2592   2.663   2.958   2.614  1.6875 -0.8434  0.1869
  865SOL     OW 2593   1.407   1.213   2.250 -0.3420 -0.3100 -0.3596
  865SOL    HW1 2594   1.392   1.137   2.318  2.2199 -0.6716 -1.5855
  865SOL    HW2 2595   1.320   1.254   2.214 -0.1492  0.3855 -1.3487
  866SOL     OW 2596   2.447   2.603   0.799  0.1613 -0.5232 -0.8992
  866SOL    HW1 2597   2.429   2.561   0.891 -1.0038  2.0593 -1.8411
  866SOL    HW2 2598   2.507   2.684   0.810  2.3857 -0.9989 -2.9063
  867SOL     OW 2599   2.496   2.513   1.076 -0.8324 -0.1194  0.6776
  867SOL    HW1 2600   2.518   2.564   1.158 -0.8569 -0.5814 -0.3542
  867SOL    HW2 2601   2.580   2.454   1.046 -0.4407  0.6643  0.3359
  868SOL     OW 2602   2.962   1.337   1.423  0.3654  0.2643 -0.1247
  868SOL    HW1 2603   2.947   1.279   1.500 -2.3156  0.6540 -1.1628
  868SOL    HW2 2604   2.928   1.303   1.331 -2.9234  1.6929 -1.5778
  869SOL     OW 2605   2.070   1.513   2.083 -0.2360 -0.0952  0.2886
  869SOL    HW1 2606   2.023   1.588   2.136  0.8192  1.3695  0.0116
  869SOL    HW2 2607   2.019   1.426   2.102 -0.0557 -0.7028 -1.2182
  870SOL     OW 2608   1.537   1.281   0.898  0.0493  0.2077 -0.9000
  870SOL    HW1 2609   1.613   1.243   0.847 -2.8009 -0.5313 -0.7593
  870SOL    HW2 2610   1.503   1.362   0.850  0.8761 -0.1991 -0.2635
  871SOL     OW 2611   2.158   1.406   1.844 -0.7178  0.1600  0.3028
  871SOL    HW1 2612   2.095   1.330   1.816 -0.4050  1.7538 -0.9596
  871SOL    HW2 2613   2.115   1.456   1.921  0.8852 -0.9541 -1.1905
  872SOL     OW 2614   1.470   1.424   2.390  0.1530  0.1912 -0.1620
  872SOL    HW1 2615   1.524   1.410   2.478 -0.3313 -3.0164  2.6555
  872SOL    HW2 2616   1.465   1.335   2.337 -0.8903 -1.4751  1.8707
  873SOL     OW 2617   1.312   1.520   1.412 -0.6368  0.2077 -0.1978
  873SOL    HW1 2618   1.246   1.497   1.340  2.8437  0.3699  2.4432
  873SOL    HW2 2619   1.405   1.526   1.370  1.6861 -0.3590  0.0128
  874SOL     OW 2620   1.668   1.402   1.105 -0.4956  0.0864  0.4157
  874SOL    HW1 2621   1.658   1.498   1.082 -1.5144 -0.1519 -0.4418
  874SOL    HW2 2622   1.616   1.334   1.048 -0.4424 -1.0104 -0.4168
  875SOL     OW 2623   2.371   0.378   2.673 -0.0998  0.0391  1.0751
  875SOL    HW1 2624   2.292   0.433   2.701  2.0623  1.9430 -1.8526
  875SOL    HW2 2625   2.372   0.372   2.572 -1.0442  0.8783  0.9859
  876SOL     OW 2626   1.205   0.919   0.549  0.1523  0.0166  0.2370
  876SOL    HW1 2627   1.214   0.833   0.502  1.7861 -0.4209 -2.6411
  876SOL    HW2 2628   1.276   0.985   0.504 -0.2066  1.5949  0.4678
  877SOL     OW 2629   2.066   3.087   0.780  0.4981 -0.4544 -0.4447
  877SOL    HW1 2630   2.092   3.040   0.692 -0.6580 -0.8977  1.4213
  877SOL    HW2 2631   1.960   3.089   0.781 -1.7118  0.6199 -2.2646
  878SOL     OW 2632   2.880   1.930   0.304 -0.1568 -0.0132  0.5674
  878SOL    HW1 2633   2.892   1.845   0.356  1.6190  0.5063  1.0379
  878SOL    HW2 2634   2.788   1.965   0.311  1.9864  1.1067 -1.1672
  879SOL     OW 2635   2.754   2.186   2.021  0.0165 -0.1363  0.3138
  879SOL    HW1 2636   2.821   2.205   2.092 -1.7189  0.1125 -0.4738
  879SOL    HW2 2637   2.767   2.096   1.976 -0.3235  1.0309  0.5933
  880SOL     OW 2638   0.479   1.720   0.828 -0.1736  0.7401  0.1731
  880SOL    HW1 2639   0.529   1.726   0.739  0.2484 -1.5402 -2.1865
  880SOL    HW2 2640   0.451   1.816   0.849  0.2584 -2.8510  0.6102
  881SOL     OW 2641   1.438   0.486   2.740  0.5518 -0.0838  0.2955
  881SOL    HW1 2642   1.384   0.426   2.805  1.5277 -2.3233  0.8032
  881SOL    HW2 2643   1.421   0.447   2.644  0.1165 -0.4174 -0.8612
  882SOL     OW 2644   2.480   0.641   0.448  0.0903 -0.1622 -0.5341
  882SOL    HW1 2645   2.502   0.740   0.463  1.6352 -0.6593 -0.8711
  882SOL    HW2 2646   2.535   0.574   0.508  0.2695 -0.6343  0.6331
  883SOL     OW 2647   1.683   0.775   2.501 -0.3317 -0.4676  0.1907
  883SOL    HW1 2648   1.594   0.737   2.535  0.1726 -2.7789  3.0998
  883SOL    HW2 2649   1.696   0.873   2.520  0.5709 -0.0615  1.1154
  884SOL     OW 2650   0.292   2.858   1.971  0.4790  0.2921  0.1757
  884SOL    HW1 2651   0.199   2.813   1.969  0.8611 -1.7619  2.0023
  884SOL    HW2 2652   0.285   2.959   1.976  0.9209 -0.5943  0.9741
  885SOL     OW 2653   1.941   0.774   2.179 -0.1736 -0.1936  0.0612
  885SOL    HW1 2654   2.025   0.714   2.175  0.7592 -3.4851  0.4990
  885SOL    HW2 2655   1.874   0.755   2.105 -0.9598 -3.8925  0.8499
  886SOL     OW 2656   1.654   0.203   2.744  0.2994 -0.0199  0.5195
  886SOL    HW1 2657   1.679   0.278   2.679 -0.0549 -0.5193 -2.8944
  886SOL    HW2 2658   1.721   0.206   2.820 -1.8567 -2.1421 -0.5517
  887SOL     OW 2659   1.121   0.419   1.526 -0.9480 -0.1901  0.5445
  887SOL    HW1 2660   1.107   0.443   1.427  0.5241 -0.8732 -0.9694
  887SOL    HW2 2661   1.075   0.332   1.549  1.1316 -0.2724 -3.5308
  888SOL     OW 2662   2.376   0.615   1.572 -0.5576 -0.4101 -1.0030
  888SOL    HW1 2663   2.460   0.662   1.614  0.4005  0.6728 -0.3394
  888SOL    HW2 2664   2.386   0.592   1.472  1.7304  0.8096 -0.5494
  889SOL     OW 2665   1.538   0.063   0.606 -0.0883 -0.2114  0.3181
  889SOL    HW1 2666   1.590   0.135   0.553  0.8600  0.8648 -1.9513
  889SOL    HW2 2667   1.602   3.087   0.619  0.6867 -0.4247 -0.3593
  890SOL     OW 2668   1.155   2.658   1.144 -0.8032  0.0463  0.3152
  890SOL    HW1 2669   1.224   2.638   1.075 -2.7429  2.1170  1.3423
  890SOL    HW2 2670   1.118   2.748   1.123  0.3418  0.5043 -1.5910
  891SOL     OW 2671   0.027   1.273   0.023  0.0514  0.2289  0.0888
  891SOL    HW1 2672   0.082   1.213   3.061 -0.4458 -1.3563  2.2447
  891SOL    HW2 2673   0.089   1.325   0.081 -2.7145 -1.2062 -0.0946
  892SOL     OW 2674   1.992   1.493   2.440  0.0809  0.0729 -0.0211
  892SOL    HW1 2675   1.979   1.553   2.362  1.3292  0.2169  2.0613
  892SOL    HW2 2676   1.951   1.531   2.528 -1.7912 -0.0074  3.3210
  893SOL     OW 2677   2.222   2.503   1.095  0.0623  0.1909  1.1126
  893SOL    HW1 2678   2.169   2.592   1.096 -1.6598  3.7466 -0.7767
  893SOL    HW2 2679   2.320   2.522   1.074 -2.3019  0.7631  2.1779
  894SOL     OW 2680   0.256   0.639   1.070 -0.3256 -0.2768 -0.1386
  894SOL    HW1 2681   0.235   0.587   0.984 -1.3851  0.4283 -2.0595
  894SOL    HW2 2682   0.285   0.733   1.049  0.6595 -1.2938  0.8261
  895SOL     OW 2683   2.817   2.139   2.547  0.4407  0.2141 -0.1173
  895SOL    HW1 2684   2.761   2.096   2.469  1.8185 -1.6723  0.3584
  895SOL    HW2 2685   2.911   2.096   2.542  1.9378  1.6527  1.2166
  896SOL     OW 2686   1.359   2.965   2.449 -0.0803 -0.2345 -0.0105
  896SOL    HW1 2687   1.291   2.977   2.525  1.7287 -1.4684 -2.0195
  896SOL    HW2 2688   1.309   2.943   2.369  2.2040  2.5320  0.3794
  897SOL     OW 2689   0.292   1.895   1.542 -0.4289 -0.0477 -0.4659
  897SOL    HW1 2690   0.381   1.894   1.487  1.4049 -2.1546 -0.3463
  897SOL    HW2 2691   0.228   1.969   1.504 -0.2200 -0.0048 -0.6720
  898SOL     OW 2692   0.688   2.158   1.884  0.3722  0.0685  0.4873
  898SOL    HW1 2693   0.736   2.180   1.801 -2.0970 -0.8656  0.0926
  898SOL    HW2 2694   0.595   2.200   1.875 -0.4235 -1.5408 -3.0963
  899SOL     OW 2695   1.876   0.171   1.707 -0.4726  1.0764  0.1616
  899SOL    HW1 2696   1.879   0.069   1.733 -0.8899  1.0089  2.5092
  899SOL    HW2 2697   1.787   0.195   1.661 -0.3033 -1.4629 -0.3964
  900SOL     OW 2698   1.581   1.199   0.550  0.1397 -0.4110  0.2036
  900SOL    HW1 2699   1.601   1.122   0.616 -1.9384 -0.3197  2.2740
  900SOL    HW2 2700   1.492   1.175   0.505  0.6010  1.0878  1.7775
  901SOL     OW 2701   1.376   1.034   2.434  0.4992  0.7298  0.3655
  901SOL    HW1 2702   1.378   1.024   2.536  1.0588 -2.9636  3.4525
  901SOL    HW2 2703   1.351   0.943   2.394 -0.2696  2.5747  1.9503
  902SOL     OW 2704   0.074   2.047   0.893  0.0364 -0.3943 -0.1089
  902SOL    HW1 2705   3.079   2.051   0.915  2.8831 -3.7695 -0.4205
  902SOL    HW2 2706   0.123   2.074   0.976 -2.5023  1.6810  0.2353
  903SOL     OW 2707   2.438   1.158   2.134  0.5105 -0.5481  0.3541
  903SOL    HW1 2708   2.389   1.243   2.170 -0.6581  0.3792  0.9567
  903SOL    HW2 2709   2.539   1.167   2.134 -3.2162  0.8318  3.3848
  904SOL     OW 2710   1.347   2.039   3.090  0.2954  1.3951 -0.3160
  904SOL    HW1 2711   1.314   2.049   2.998 -0.0998 -3.0809  0.5599
  904SOL    HW2 2712   1.276   2.064   0.056  0.3514 -0.3198 -1.2217
  905SOL     OW 2713   2.213   3.070   1.851 -0.2022 -0.4242 -0.1151
  905SOL    HW1 2714   2.141   2.999   1.867 -1.7369 -0.3866 -1.5740
  905SOL    HW2 2715   2.179   0.061   1.877  1.0114  0.4859 -0.8336
  906SOL     OW 2716   1.196   2.795   0.153  0.0867 -0.1149  0.9229
  906SOL    HW1 2717   1.208   2.844   0.064  0.5898  1.4241 -1.5842
  906SOL    HW2 2718   1.225   2.697   0.148  0.9514 -3.1544 -2.0016
  907SOL     OW 2719   0.106   2.698   0.800  1.0071 -0.1645 -0.0147
  907SOL    HW1 2720   0.174   2.703   0.873 -1.9848 -1.1235 -0.7136
  907SOL    HW2 2721   0.145   2.730   0.713 -0.3405  1.1224  1.3216
  908SOL     OW 2722   0.784   2.628   1.647 -0.3486  0.8240  0.2031
  908SOL    HW1 2723   0.725   2.712   1.628  1.4782  3.7139  3.2761
  908SOL    HW2 2724   0.768   2.590   1.737  0.6383  2.3236 -0.5591
  909SOL     OW 2725   1.727   0.867   1.386 -0.2376 -0.4513  0.1234
  909SOL    HW1 2726   1.771   0.874   1.291  1.7814 -0.0841 -0.4417
  909SOL    HW2 2727   1.741   0.959   1.429  0.8097 -1.5037 -0.9365
  910SOL     OW 2728   0.862   0.268   0.146  0.2229  0.3564 -0.2551
  910SOL    HW1 2729   0.831   0.309   0.057 -0.0967 -1.7245 -0.0299
  910SOL    HW2 2730   0.940   0.205   0.130  1.0772 -2.2690  1.5466
  911SOL     OW 2731   0.485   0.354   3.026 -0.7484  0.6237 -0.0610
  911SOL    HW1 2732   0.465   0.272   3.087  0.1368 -1.7567  0.9534
  911SOL    HW2 2733   0.424   0.358   2.946  1.0676 -0.9147  0.8047
  912SOL     OW 2734   3.054   1.930   2.792  1.1330  0.0057  0.3597
  912SOL    HW1 2735   3.040   1.833   2.809  2.2099  0.4579 -0.3336
  912SOL    HW2 2736   0.050   1.947   2.803 -0.7600 -3.1524  1.1004
  913SOL     OW 2737   2.628   0.010   0.121  0.0914  0.0873 -0.0817
  913SOL    HW1 2738   2.557   3.083   0.054  0.3929  0.2911  1.1651
  913SOL    HW2 2739   2.585   0.082   0.182  0.3344 -0.1036  1.0817
  914SOL     OW 2740   1.329   1.524   2.059 -0.0577 -0.4436  0.2160
  914SOL    HW1 2741   1.268   1.603   2.046  2.1951  0.8847  2.3557
  914SOL    HW2 2742   1.292   1.460   2.128  0.0936 -1.4187 -0.3852
  915SOL     OW 2743   2.809   2.486   2.328  0.3642 -0.6805  0.2929
  915SOL    HW1 2744   2.887   2.438   2.278  0.6972 -2.5266 -0.2367
  915SOL    HW2 2745   2.811   2.460   2.432 -0.5663 -0.7906  2.6558
  916SOL     OW 2746   2.843   0.949   2.360 -0.1588 -0.5288 -0.2459
  916SOL    HW1 2747   2.942   0.974   2.338  1.8034  1.6629 -0.2640
  916SOL    HW2 2748   2.781   1.029   2.371  0.5814 -2.8062  0.6505
  917SOL     OW 2749   1.490   0.238   0.229  0.2902 -0.5165 -0.1558
  917SOL    HW1 2750   1.552   0.212   0.306  1.4910  0.0924  0.4525
  917SOL    HW2 2751   1.521   0.206   0.138  3.0098  3.2451  2.0454
  918SOL     OW 2752   1.585   3.060   2.152  0.0756 -0.1310  0.1832
  918SOL    HW1 2753   1.587   3.063   2.254 -2.0713  1.0013 -0.2357
  918SOL    HW2 2754   1.650   0.024   2.114  1.4018 -0.5684  1.5594
  919SOL     OW 2755   1.804   2.442   1.766 -0.5005 -0.3529  0.0888
  919SOL    HW1 2756   1.718   2.467   1.808  3.2870 -0.7214  0.4409
  919SOL    HW2 2757   1.844   2.371   1.823  0.3858 -0.6008  0.3380
  920SOL     OW 2758   0.323   0.916   0.176  0.0451  0.3592 -0.0637
  920SOL    HW1 2759   0.335   0.936   0.274  0.2371  0.4743 -0.5119
  920SOL    HW2 2760   0.389   0.851   0.136 -1.0765  2.3877 -0.8271
  921SOL     OW 2761   2.252   0.800   2.412  0.4170 -0.0003  0.0459
  921SOL    HW1 2762   2.153   0.804   2.436 -0.8147  1.7915  2.4853
  921SOL    HW2 2763   2.273   0.862   2.334 -0.6735  1.4867  0.3031
  922SOL     OW 2764   1.226   1.774   2.656  0.1346  0.2667  0.6314
  922SOL    HW1 2765   1.218   1.863   2.611  1.3173 -0.1870 -0.8689
  922SOL    HW2 2766   1.225   1.702   2.583  0.7202 -0.5981 -1.3135
  923SOL     OW 2767   0.710   1.136   2.402  0.0583 -0.4420 -0.6441
  923SOL    HW1 2768   0.613   1.101   2.408  0.1172  1.8298 -0.1040
  923SOL    HW2 2769   0.709   1.237   2.423  0.9871  3.7876  0.5154
  924SOL     OW 2770   0.229   1.956   2.784 -0.0330  0.0561 -0.4716
  924SOL    HW1 2771   0.221   2.021   2.860  2.3582  2.3796  0.6906
  924SOL    HW2 2772   0.259   1.991   2.691 -1.4257 -0.0620  2.1120
  925SOL     OW 2773   1.608   1.670   1.035 -0.0139  0.3283  0.4200
  925SOL    HW1 2774   1.685   1.729   1.068 -2.8663  0.7989 -2.4747
  925SOL    HW2 2775   1.612   1.668   0.931  1.6438  2.7561 -1.0853
  926SOL     OW 2776   1.754   0.396   2.550  0.5621  0.1144 -0.2069
  926SOL    HW1 2777   1.759   0.330   2.474  0.7801 -0.1429 -0.6024
  926SOL    HW2 2778   1.837   0.450   2.572  1.8843 -2.2884 -1.9413
  927SOL     OW 2779   2.631   2.771   1.764  0.6319  0.4670 -0.5102
  927SOL    HW1 2780   2.566   2.810   1.691 -1.9780  2.5635 -2.2600
  927SOL    HW2 2781   2.576   2.736   1.843 -0.9004  0.6977  0.3934
  928SOL     OW 2782   0.692   1.059   2.787 -0.7743 -0.4128  0.2339
  928SOL    HW1 2783   0.666   0.986   2.848 -0.9166 -2.7062 -0.4627
  928SOL    HW2 2784   0.750   1.020   2.715 -4.4824 -1.3215  2.7380
  929SOL     OW 2785   0.125   0.092   1.005  0.0005  0.5107 -0.2521
  929SOL    HW1 2786   0.103   0.035   0.923 -3.9297  0.2512 -0.0589
  929SOL    HW2 2787   0.085   0.187   1.002  0.0560 -2.6174 -1.3003
  930SOL     OW 2788   2.776   0.171   1.955  0.6452  0.1159 -0.4513
  930SOL    HW1 2789   2.701   0.227   1.993 -0.2740  0.3007  0.1262
  930SOL    HW2 2790   2.824   0.119   2.029  1.0998 -2.5028 -4.5170
  931SOL     OW 2791   2.222   1.370   0.004  0.0537  0.7636 -0.0160
  931SOL    HW1 2792   2.320   1.394   3.090  0.2595  0.6145  0.1317
  931SOL    HW2 2793   2.221   1.277   0.038  2.2308  2.5019 -3.2509
  932SOL     OW 2794   2.740   1.191   0.813 -0.3604 -0.6561  0.2056
  932SOL    HW1 2795   2.763   1.267   0.878  2.1387  2.0773  1.5722
  932SOL    HW2 2796   2.756   1.220   0.721 -0.1624  0.6825  3.9080
  933SOL     OW 2797   2.903   2.311   1.793  0.0601  0.1691  0.1133
  933SOL    HW1 2798   2.842   2.253   1.849  1.3789  4.1751  0.1491
  933SOL    HW2 2799   2.852   2.390   1.750 -0.0719  3.8019 -2.2804
  934SOL     OW 2800   0.496   2.925   1.259 -0.0941 -0.0724 -0.4474
  934SOL    HW1 2801   0.554   2.847   1.288 -1.7261  3.1331 -1.8670
  934SOL    HW2 2802   0.552   3.009   1.249  0.2079  0.5610 -0.5739
  935SOL     OW 2803   2.739   0.227   2.338  0.1621  0.3885  0.3779
  935SOL    HW1 2804   2.703   0.284   2.263  1.5705 -0.7367 -0.3779
  935SOL    HW2 2805   2.796   0.154   2.296 -1.5290 -1.2683  0.7913
  936SOL     OW 2806   2.758   0.702   1.610 -0.4502 -0.4183 -0.2493
  936SOL    HW1 2807   2.776   0.644   1.691  0.6183  1.0340 -0.4364
  936SOL    HW2 2808   2.760   0.640   1.529  0.2744 -2.3860 -2.9269
  937SOL     OW 2809   1.748   1.541   1.637 -0.3334 -0.3511  0.0927
  937SOL    HW1 2810   1.677   1.584   1.577  0.3532  0.9416 -3.0096
  937SOL    HW2 2811   1.779   1.454   1.597  0.9662 -0.2656  0.1744
  938SOL     OW 2812   0.752   2.136   3.012 -0.2926  0.1643  0.2565
  938SOL    HW1 2813   0.671   2.133   3.071  0.2050 -1.6728  0.4588
  938SOL    HW2 2814   0.820   2.072   3.047 -0.2065  0.9116 -2.1787
  939SOL     OW 2815   1.967   0.464   2.873 -0.6971 -0.1241 -0.2293
  939SOL    HW1 2816   2.021   0.467   2.958 -0.8026  1.0000 -1.7656
  939SOL    HW2 2817   1.923   0.375   2.862 -0.6431  1.9773  0.3649
  940SOL     OW 2818   1.442   2.626   1.044 -0.4948  0.1665 -0.4710
  940SOL    HW1 2819   1.498   2.549   1.083  0.9140 -0.2702 -0.7269
  940SOL    HW2 2820   1.490   2.717   1.061  1.7582  0.9951 -1.0725
  941SOL     OW 2821   1.301   1.840   1.792  0.0058 -0.2057 -0.1133
  941SOL    HW1 2822   1.400   1.850   1.775 -0.0140 -2.2300  3.1671
  941SOL    HW2 2823   1.261   1.934   1.805  0.8171 -1.1129 -0.1207
  942SOL     OW 2824   2.853   2.130   3.001  0.7209  0.2298  0.1325
  942SOL    HW1 2825   2.881   2.043   3.059  0.6535 -1.0373 -1.9514
  942SOL    HW2 2826   2.800   2.098   2.922 -1.0495 -1.5840  0.0608
  943SOL     OW 2827   2.481   2.897   1.558  0.1171  0.0709  0.1229
  943SOL    HW1 2828   2.404   2.962   1.547  2.1895 -0.8153  0.3008
  943SOL    HW2 2829   2.570   2.954   1.560  0.9577  2.2181  1.7101
  944SOL     OW 2830   1.751   2.193   2.885 -0.0737  0.5691  0.6922
  944SOL    HW1 2831   1.719   2.104   2.847  0.3267  2.3261  0.0637
  944SOL    HW2 2832   1.742   2.264   2.812 -2.9680  0.3959 -1.3438
  945SOL     OW 2833   2.973   1.860   1.380  0.0128 -0.6299  0.0565
  945SOL    HW1 2834   2.993   1.887   1.478 -0.2326 -0.3201  0.2640
  945SOL    HW2 2835   2.897   1.789   1.382 -2.5566 -2.1286  0.0515
  946SOL     OW 2836   1.468   1.271   3.090  0.3203 -0.0458 -0.8223
  946SOL    HW1 2837   1.411   1.179   3.091 -3.4843 -1.8815 -0.4469
  946SOL    HW2 2838   1.513   1.297   0.073 -0.3577  0.8795  3.3779
  947SOL     OW 2839   0.014   0.967   2.352 -0.8720 -0.2122 -0.4193
  947SOL    HW1 2840   0.072   1.049   2.338  1.3541  0.5539 -0.1142
  947SOL    HW2 2841   0.053   0.888   2.303 -0.1039 -0.5225  0.9522
  948SOL     OW 2842   0.257   1.150   0.582 -0.3977  0.0191 -0.1245
  948SOL    HW1 2843   0.162   1.173   0.545  0.6759 -0.2394  0.7545
  948SOL    HW2 2844   0.323   1.230   0.581  1.0017 -0.7478  1.5191
  949SOL     OW 2845   0.694   0.421   2.478 -0.1544 -0.3270  0.7647
  949SOL    HW1 2846   0.707   0.516   2.448  1.5183 -0.4532  1.1787
  949SOL    HW2 2847   0.774   0.365   2.454 -0.3612  2.4397  3.1502
  950SOL     OW 2848   3.058   0.492   1.479 -0.0167  0.0596 -0.3191
  950SOL    HW1 2849   0.014   0.471   1.560  0.6977 -0.3458  0.4283
  950SOL    HW2 2850   0.001   0.543   1.405 -0.6926 -0.5062  1.1426
  951SOL     OW 2851   0.314   0.967   2.680  0.1535  0.0151  0.0162
  951SOL    HW1 2852   0.220   0.947   2.646  0.3058 -2.4464 -0.4071
  951SOL    HW2 2853   0.319   0.944   2.777 -1.6629 -1.8408 -2.6770
  952SOL     OW 2854   1.957   2.434   1.477  0.3037  0.0816  0.4508
  952SOL    HW1 2855   2.056   2.447   1.493 -1.7164  0.9101  0.5668
  952SOL    HW2 2856   1.903   2.440   1.559 -1.4746  0.1665 -1.4971
  953SOL     OW 2857   0.346   2.188   3.013 -0.3618 -0.1221 -0.2439
  953SOL    HW1 2858   0.424   2.229   3.065 -0.3567  1.0990  2.2957
  953SOL    HW2 2859   0.269   2.171   3.075  0.1378 -0.4349 -0.9689
  954SOL     OW 2860   2.540   0.703   0.898 -0.2566  0.1543 -0.2834
  954SOL    HW1 2861   2.554   0.715   0.997 -0.3751  1.0232  0.4257
  954SOL    HW2 2862   2.609   0.765   0.860 -0.2141 -0.7263  2.4335
  955SOL     OW 2863   1.592   1.377   0.224  0.1365  0.1497 -0.2719
  955SOL    HW1 2864   1.639   1.285   0.230  0.5834 -0.5492  0.6096
  955SOL    HW2 2865   1.655   1.447   0.271 -1.1478  0.3669 -0.0989
  956SOL     OW 2866   1.035   0.632   2.326 -0.2878 -0.0494 -0.4346
  956SOL    HW1 2867   0.973   0.703   2.280 -1.1124  1.1647 -1.2314
  956SOL    HW2 2868   1.007   0.606   2.421  0.8881 -2.0564  0.3213
  957SOL     OW 2869   0.644   0.337   2.233 -0.0419 -0.5321 -0.3430
  957SOL    HW1 2870   0.621   0.239   2.233  0.0884  1.4583  1.0017
  957SOL    HW2 2871   0.640   0.366   2.329  0.0909  1.3190 -0.2173
  958SOL     OW 2872   0.577   2.310   0.756 -0.1214  0.2464  0.2378
  958SOL    HW1 2873   0.597   2.249   0.834  1.3180  3.9027 -1.7324
  958SOL    HW2 2874   0.536   2.401   0.789  1.0778  2.5366  1.0987
  959SOL     OW 2875   2.599   0.787   2.002 -0.1469 -0.2968 -0.3317
  959SOL    HW1 2876   2.500   0.790   2.029 -0.3051  0.4104  2.6866
  959SOL    HW2 2877   2.663   0.759   2.082 -1.3988  1.4640 -0.2054
  960SOL     OW 2878   0.154   1.389   2.789 -0.1337  0.0382 -0.2113
  960SOL    HW1 2879   0.130   1.393   2.694  1.4893  1.1258 -0.4539
  960SOL    HW2 2880   0.086   1.442   2.846 -2.0921  3.1366 -2.8092
  961SOL     OW 2881   0.694   1.742   0.647  0.3094 -0.0612 -0.2738
  961SOL    HW1 2882   0.763   1.812   0.654  3.3678 -1.7624 -1.4158
  961SOL    HW2 2883   0.738   1.653   0.639  0.9219  4.0088 -0.5442
  962SOL     OW 2884   0.373   1.291   0.944  0.5134 -0.0525  0.2590
  962SOL    HW1 2885   0.364   1.248   1.037 -2.0290 -0.7509  0.9284
  962SOL    HW2 2886   0.387   1.393   0.958 -1.1659  2.3945 -0.9966
  963SOL     OW 2887   1.532   2.590   2.853 -0.0930  0.0922  0.4347
  963SOL    HW1 2888   1.538   2.587   2.751  1.6242 -0.7501  0.0463
  963SOL    HW2 2889   1.607   2.535   2.892  1.7198  2.6111 -0.2680
  964SOL     OW 2890   0.326   2.593   2.776  0.1494 -0.0558 -0.0758
  964SOL    HW1 2891   0.403   2.604   2.711 -0.7405  2.0411  1.7379
  964SOL    HW2 2892   0.309   2.494   2.788  2.7243  1.5339 -0.1928
  965SOL     OW 2893   2.607   1.794   2.826  0.6707  0.2872  0.0513
  965SOL    HW1 2894   2.513   1.807   2.789  3.9314 -1.9862 -0.8829
  965SOL    HW2 2895   2.659   1.880   2.819 -0.1180  0.3833 -1.6836
  966SOL     OW 2896   2.504   1.315   2.585 -0.6550 -0.4123  0.1901
  966SOL    HW1 2897   2.574   1.273   2.524  0.0768  0.4358 -0.8915
  966SOL    HW2 2898   2.490   1.260   2.668 -1.9342  1.9069 -1.8966
  967SOL     OW 2899   1.766   0.441   0.620  0.1542  0.4946 -0.0912
  967SOL    HW1 2900   1.853   0.423   0.672 -0.7276 -1.6876  1.8492
  967SOL    HW2 2901   1.705   0.498   0.674  2.3020 -1.0938 -2.0883
  968SOL     OW 2902   2.807   0.265   0.338  0.3504  0.1606  0.3204
  968SOL    HW1 2903   2.792   0.213   0.425  0.9223 -0.8350 -0.0049
  968SOL    HW2 2904   2.901   0.301   0.342 -1.6701 -0.1581 -0.7262
  969SOL     OW 2905   0.429   0.772   2.233  0.3585 -0.6514  0.5276
  969SOL    HW1 2906   0.522   0.729   2.236  1.6679  0.2549 -0.3093
  969SOL    HW2 2907   0.441   0.860   2.185  0.9350 -2.2402 -1.4956
  970SOL     OW 2908   1.945   1.878   2.783 -0.4340  0.4086 -0.5611
  970SOL    HW1 2909   1.969   1.959   2.843  1.1568  1.6891 -0.6251
  970SOL    HW2 2910   2.025   1.856   2.720  2.0135 -2.0022 -2.3448
  971SOL     OW 2911   2.776   3.018   1.784  0.1149  0.0765 -0.0753
  971SOL    HW1 2912   2.706   3.077   1.829 -1.2198 -1.4089  0.7350
  971SOL    HW2 2913   2.744   2.920   1.776  0.5216  0.8690  0.7051
  972SOL     OW 2914   0.219   0.494   0.832  0.2036 -0.6786 -0.7996
  972SOL    HW1 2915   0.258   0.402   0.823 -0.4119  1.4683 -0.0911
  972SOL    HW2 2916   0.271   0.568   0.788 -1.9564  0.7664 -1.3640
  973SOL     OW 2917   2.947   0.052   2.738  0.0707  0.2182 -0.2528
  973SOL    HW1 2918   3.006   0.021   2.661 -1.1079  2.8642  0.5315
  973SOL    HW2 2919   2.856   0.005   2.722 -0.8492  2.4529  1.6665
  974SOL     OW 2920   2.856   0.984   1.507 -0.4953 -0.0716 -0.2773
  974SOL    HW1 2921   2.887   0.982   1.412  0.2931 -0.7176 -0.8134
  974SOL    HW2 2922   2.835   0.890   1.543 -1.9249 -0.1209  0.8381
  975SOL     OW 2923   1.378   2.873   2.141 -0.5318  0.3752  0.3664
  975SOL    HW1 2924   1.453   2.940   2.164  1.1838 -2.6495 -0.7753
  975SOL    HW2 2925   1.287   2.914   2.170  1.5246  0.3575  0.5982
  976SOL     OW 2926   2.138   1.424   1.495  0.4146 -0.1791 -0.6032
  976SOL    HW1 2927   2.109   1.471   1.577  1.1481 -0.3695  0.0898
  976SOL    HW2 2928   2.140   1.494   1.415  2.4564  0.6646 -1.9191
  977SOL     OW 2929   2.793   2.863   2.900  0.1397 -0.3448  0.7434
  977SOL    HW1 2930   2.721   2.907   2.854 -1.0211 -2.4037  0.5995
  977SOL    HW2 2931   2.833   2.909   2.977 -0.0176 -1.5454  2.6325
  978SOL     OW 2932   1.978   1.053   2.236 -0.1413 -0.0385 -0.3727
  978SOL    HW1 2933   2.079   1.058   2.264  0.3032  3.0409 -2.1048
  978SOL    HW2 2934   1.945   0.957   2.229  0.0332 -1.5550  1.5453
  979SOL     OW 2935   0.928   1.029   2.307 -0.1072  0.2317  0.2353
  979SOL    HW1 2936   0.953   1.103   2.239  0.2797  2.0250 -0.8157
  979SOL    HW2 2937   0.843   1.065   2.363 -2.4076 -0.3487 -1.4074
  980SOL     OW 2938   1.680   1.980   2.733  0.1402 -0.8833 -0.0037
  980SOL    HW1 2939   1.632   1.895   2.744 -1.1589  0.3876 -0.1931
  980SOL    HW2 2940   1.774   1.963   2.696 -0.3690  0.6252  1.1010
  981SOL     OW 2941   0.989   0.763   1.849  0.2099  0.3526 -0.2108
  981SOL    HW1 2942   1.003   0.796   1.754 -0.1792 -0.1509  0.8522
  981SOL    HW2 2943   0.895   0.742   1.875  1.8001 -1.1962 -0.7209
  982SOL     OW 2944   0.969   0.121   2.931  0.0162  0.8765  0.6828
  982SOL    HW1 2945   0.967   0.213   2.878  0.3979  0.8022  0.0588
  982SOL    HW2 2946   0.928   0.047   2.865 -0.5752 -3.6517 -2.1977
  983SOL     OW 2947   2.394   1.101   0.282  0.6501 -0.6747  0.2255
  983SOL    HW1 2948   2.489   1.127   0.272 -2.7953 -0.3901  0.9107
  983SOL    HW2 2949   2.350   1.155   0.357  0.9630  0.0064  0.6648
  984SOL     OW 2950   1.319   0.427   0.067  0.5216 -0.3809 -0.2663
  984SOL    HW1 2951   1.415   0.428   0.031 -1.1570 -0.1810  1.2017
  984SOL    HW2 2952   1.322   0.406   0.165 -0.0161 -0.8042 -2.7938
  985SOL     OW 2953   1.297   2.782   1.876 -0.3971 -0.0429  0.4108
  985SOL    HW1 2954   1.339   2.826   1.954 -0.1159 -3.0757  1.5744
  985SOL    HW2 2955   1.355   2.802   1.796  2.7258 -1.1682  1.1488
  986SOL     OW 2956   2.584   3.021   2.070 -0.7450  0.2835  0.4807
  986SOL    HW1 2957   2.541   3.085   1.999 -0.3119  1.9697 -2.6629
  986SOL    HW2 2958   2.686   3.014   2.062 -3.1928  0.6681  0.7566
  987SOL     OW 2959   2.285   1.482   1.080  0.0734  0.2071 -0.9925
  987SOL    HW1 2960   2.343   1.452   1.003  0.2753 -3.0482  1.4805
  987SOL    HW2 2961   2.307   1.432   1.169  0.8951 -1.5699 -1.0795
  988SOL     OW 2962   2.329   1.004   1.618 -0.7364 -0.0736  0.3932
  988SOL    HW1 2963   2.408   0.938   1.626  0.5716  1.2310  0.5622
  988SOL    HW2 2964   2.315   1.046   1.707 -0.4824 -1.7640 -2.0923
  989SOL     OW 2965   2.090   2.268   0.195 -0.2621 -0.3472 -0.1999
  989SOL    HW1 2966   2.001   2.243   0.161  1.9360  0.5733  1.6044
  989SOL    HW2 2967   2.158   2.192   0.196  0.0415 -0.2785 -0.1391
  990SOL     OW 2968   1.329   0.766   2.082 -0.4326  0.1275  0.2390
  990SOL    HW1 2969   1.324   0.770   2.185  2.0140 -2.0856 -1.5902
  990SOL    HW2 2970   1.306   0.675   2.051  4.1793  1.4304  1.5170
  991SOL     OW 2971   1.356   1.089   0.400  0.0616 -0.5196 -0.5859
  991SOL    HW1 2972   1.292   1.143   0.334 -1.5080 -1.1125  1.9132
  991SOL    HW2 2973   1.418   1.037   0.334  0.0474 -2.4174 -2.5297
  992SOL     OW 2974   0.153   0.936   1.334  0.4209  0.6909  0.0119
  992SOL    HW1 2975   0.213   1.003   1.382  0.1912  1.7135  3.3612
  992SOL    HW2 2976   0.054   0.966   1.318  2.5980 -1.9910 -1.8995
  993SOL     OW 2977   2.639   0.378   2.131 -0.0546 -0.1336  0.5996
  993SOL    HW1 2978   2.543   0.369   2.104  1.3725 -0.4958 -0.5494
  993SOL    HW2 2979   2.684   0.456   2.089  1.0233  1.6154  0.3452
  994SOL     OW 2980   1.572   1.850   1.743 -0.3031 -0.2970 -0.0961
  994SOL    HW1 2981   1.628   1.790   1.802  1.3478  0.3806 -1.0428
  994SOL    HW2 2982   1.569   1.947   1.778  2.9026  1.8177 -1.1406
  995SOL     OW 2983   2.362   2.011   3.010 -0.3787  0.2442 -0.3127
  995SOL    HW1 2984   2.461   2.031   3.025  0.8819  0.7225 -0.2759
  995SOL    HW2 2985   2.352   1.909   2.998  1.7893  0.2014  2.1772
  996SOL     OW 2986   2.275   1.764   2.987 -0.3067  0.2545  0.0720
  996SOL    HW1 2987   2.185   1.786   3.026  0.1315 -0.5881  1.7705
  996SOL    HW2 2988   2.259   1.709   2.905 -1.9942  1.9754  1.1603
  997SOL     OW 2989   1.688   0.611   2.250  0.2853  0.1458 -0.4607
  997SOL    HW1 2990   1.713   0.651   2.160  0.0942 -0.6665  0.5974
  997SOL    HW2 2991   1.694   0.673   2.331  0.8480  1.0991 -0.0024
  998SOL     OW 2992   2.651   0.475   0.558  0.0081 -0.0511  0.0078
  998SOL    HW1 2993   2.647   0.480   0.658  1.7060  0.1076 -2.8968
  998SOL    HW2 2994   2.680   0.383   0.532 -2.6616  3.6796  0.8740
  999SOL     OW 2995   2.736   1.352   0.583  0.5649 -0.1966  0.3407
  999SOL    HW1 2996   2.779   1.447   0.600  2.7865 -0.2764 -0.2029
  999SOL    HW2 2997   2.766   1.320   0.490 -0.3038 -1.5321 -0.0334
 1000SOL     OW 2998   0.439   1.412   1.976  0.1130 -0.2105  0.3305
 1000SOL    HW1 2999   0.515   1.364   1.925 -0.5230  0.0688  1.4759
 1000SOL    HW2 3000   0.355   1.397   1.921  1.3945  0.7970  1.8982
   3.10236   3.10236   3.10236
