1000 SPC/Fw water molecules t= 182.00000 step= 182000
 3000
    1SOL     OW    1   2.730   0.016   1.121 -0.4880  0.2322  0.2265
    1SOL    HW1    2   2.644   0.060   1.096 -1.6090 -0.4613 -0.2971
    1SOL    HW2    3   2.802   0.027   1.052 -1.7652  4.3271  1.3982
    2SOL     OW    4   1.801   1.720   1.970  0.3204  0.1461 -0.3294
    2SOL    HW1    5   1.787   1.733   2.068 -1.5768 -4.2260 -0.5585
    2SOL    HW2    6   1.709   1.693   1.928 -0.5959  0.5706 -2.3225
    3SOL     OW    7   1.721   2.377   2.087 -0.6241  0.0250 -0.2631
    3SOL    HW1    8   1.763   2.435   2.159 -0.2377  2.7828 -1.4021
    3SOL    HW2    9   1.799   2.333   2.037  0.3085 -1.1968 -0.0768
    4SOL     OW   10   1.947   2.112   1.792 -0.3926  0.2428  0.1238
    4SOL    HW1   11   1.938   2.159   1.882  1.2814  0.4128 -0.1390
    4SOL    HW2   12   1.904   2.171   1.721 -0.5738  0.3887  0.3606
    5SOL     OW   13   1.064   0.749   1.955 -0.5454 -0.3613 -0.1202
    5SOL    HW1   14   1.133   0.827   1.944  0.4352  3.8210 -0.9734
    5SOL    HW2   15   0.970   0.790   1.949  1.6867 -1.8043  0.6325
    6SOL     OW   16   2.764   0.753   3.000 -0.5896 -0.0707 -0.8646
    6SOL    HW1   17   2.789   0.679   2.933 -0.5547 -0.9406  0.3590
    6SOL    HW2   18   2.663   0.747   3.013 -2.0909  0.1816 -0.9190
    7SOL     OW   19   1.228   0.859   1.614 -0.3057  0.1986  0.2259
    7SOL    HW1   20   1.141   0.809   1.605  0.0016  1.0209  0.2952
    7SOL    HW2   21   1.241   0.917   1.537  1.2118 -0.8470  5.5715
    8SOL     OW   22   1.160   0.029   1.077  0.1951 -0.3314 -0.0692
    8SOL    HW1   23   1.176   0.127   1.058 -0.1117 -2.8098  1.0804
    8SOL    HW2   24   1.069   0.016   1.117 -0.5806  0.7865  0.1823
    9SOL     OW   25   0.834   1.072   0.003  0.2197 -0.1992  0.5321
    9SOL    HW1   26   0.794   1.159   3.050 -2.6514  2.1877 -0.7249
    9SOL    HW2   27   0.824   1.072   0.108 -1.8236  0.1082  2.5060
   10SOL     OW   28   0.249   2.952   0.095 -0.0882 -0.8256  0.1725
   10SOL    HW1   29   0.153   2.924   0.081  1.8186  1.0799  1.1427
   10SOL    HW2   30   0.307   2.875   0.125  0.4496 -1.9070  0.0589
   11SOL     OW   31   0.368   1.488   3.081  0.0869 -0.4001  0.3392
   11SOL    HW1   32   0.430   1.508   3.004 -0.8958 -1.3492  0.2128
   11SOL    HW2   33   0.314   1.574   0.016 -3.1124  1.1901 -1.6240
   12SOL     OW   34   0.631   0.027   1.400 -0.4063  0.8739 -0.0519
   12SOL    HW1   35   0.712   3.070   1.448  2.3538 -2.1775 -0.9518
   12SOL    HW2   36   0.555   3.049   1.399 -2.2100  1.0230 -1.2812
   13SOL     OW   37   1.011   2.838   0.475  0.3101  0.5784 -0.6770
   13SOL    HW1   38   1.078   2.843   0.550 -1.3948  0.3361  1.2831
   13SOL    HW2   39   0.915   2.830   0.514  0.2478  0.9121 -0.6063
   14SOL     OW   40   1.140   2.051   1.279  0.3416 -0.4701  0.0322
   14SOL    HW1   41   1.114   2.088   1.372 -1.2269 -0.7349 -0.0318
   14SOL    HW2   42   1.162   1.955   1.301 -0.1931  1.4539  3.3728
   15SOL     OW   43   2.886   0.839   2.225 -0.3720 -0.2951  0.0683
   15SOL    HW1   44   2.854   0.931   2.261 -0.9026  0.3924  3.0288
   15SOL    HW2   45   2.818   0.795   2.161  3.0569 -0.2069  0.2031
   16SOL     OW   46   1.352   2.826   2.684  0.1410 -0.6759 -0.3159
   16SOL    HW1   47   1.361   2.731   2.656  1.6639  1.4939  0.9351
   16SOL    HW2   48   1.341   2.838   2.784 -1.0099 -1.3448 -2.0286
   17SOL     OW   49   0.863   3.025   1.607  0.1378 -0.2638 -0.8456
   17SOL    HW1   50   0.948   3.040   1.668  1.1643  2.0632  1.6976
   17SOL    HW2   51   0.793   3.086   1.648  1.2831 -1.5783  0.3018
   18SOL     OW   52   1.068   0.635   0.325 -0.3250 -0.3092 -0.0693
   18SOL    HW1   53   0.982   0.583   0.337 -1.5802  1.4563  1.2519
   18SOL    HW2   54   1.129   0.597   0.255 -1.1919  2.0038 -0.2437
   19SOL     OW   55   1.902   1.622   2.772  0.0948  0.4470 -0.3337
   19SOL    HW1   56   1.896   1.718   2.737 -2.3522 -0.1084 -0.1483
   19SOL    HW2   57   1.929   1.624   2.871 -2.3756 -0.8824  1.0149
   20SOL     OW   58   1.921   1.391   1.855 -0.3517 -0.5426 -0.1077
   20SOL    HW1   59   1.980   1.472   1.841 -3.7346  0.0885  0.3085
   20SOL    HW2   60   1.830   1.425   1.882  0.9351 -0.6177 -0.9844
   21SOL     OW   61   0.538   1.488   2.857  0.0874  0.3057  0.4848
   21SOL    HW1   62   0.577   1.544   2.782 -0.3978 -0.4198  1.0154
   21SOL    HW2   63   0.481   1.409   2.818 -0.5222 -0.8465  1.4427
   22SOL     OW   64   2.476   0.044   1.369 -0.2221  0.5421  0.1275
   22SOL    HW1   65   2.435   3.036   1.371 -2.0642 -0.2334 -0.2245
   22SOL    HW2   66   2.477   0.079   1.274 -1.9608 -1.5547 -0.4929
   23SOL     OW   67   3.061   0.882   1.506 -0.2567  0.6175  0.1157
   23SOL    HW1   68   3.040   0.953   1.439  0.7245 -1.5765  3.3186
   23SOL    HW2   69   2.985   0.812   1.512 -0.0239 -2.3922 -0.4883
   24SOL     OW   70   2.685   2.392   1.381 -0.1632  0.3882  0.2831
   24SOL    HW1   71   2.752   2.396   1.303 -2.0916 -1.1619  0.5140
   24SOL    HW2   72   2.674   2.485   1.425 -0.3977  0.6119 -1.4250
   25SOL     OW   73   1.985   2.876   2.586 -0.1854 -0.4210  0.0574
   25SOL    HW1   74   1.996   2.857   2.483  1.9654 -1.0989 -3.8978
   25SOL    HW2   75   1.905   2.826   2.621  2.0516  1.1960  0.0429
   26SOL     OW   76   1.304   2.884   2.966 -0.7460  0.1488 -0.4322
   26SOL    HW1   77   1.228   2.814   2.966  1.0568 -0.0672 -0.0398
   26SOL    HW2   78   1.381   2.852   3.023  0.3114 -2.9333 -1.6074
   27SOL     OW   79   0.425   2.235   2.942  0.6673 -0.5409  0.1321
   27SOL    HW1   80   0.431   2.262   3.043 -0.1610  0.2578  0.6725
   27SOL    HW2   81   0.406   2.133   2.935  0.9930 -1.7197  0.3136
   28SOL     OW   82   0.052   1.523   1.336  0.0542  0.5496  0.3128
   28SOL    HW1   83   0.054   1.550   1.235  1.7865 -0.1365  0.6354
   28SOL    HW2   84   0.143   1.534   1.380  0.9336  1.8726  1.3476
   29SOL     OW   85   2.680   1.971   2.061  0.0138  0.5079 -0.0458
   29SOL    HW1   86   2.667   1.942   1.966 -2.7439 -0.4155  1.6955
   29SOL    HW2   87   2.737   1.916   2.121 -1.2389  4.3883 -2.0422
   30SOL     OW   88   1.233   2.895   0.951 -0.2492 -0.3952 -0.0253
   30SOL    HW1   89   1.330   2.877   0.937 -0.4188 -1.0818 -2.2107
   30SOL    HW2   90   1.219   2.972   1.020  1.4467  0.9543  1.9147
   31SOL     OW   91   0.089   2.250   1.832 -0.2222 -0.0430 -0.0470
   31SOL    HW1   92   0.128   2.345   1.830  0.7695 -1.0238 -0.7864
   31SOL    HW2   93   0.143   2.183   1.894  0.0568 -0.9405  3.5224
   32SOL     OW   94   1.273   0.909   1.894  0.2612  0.7662  0.4481
   32SOL    HW1   95   1.247   0.886   1.795 -1.2907 -0.4377 -3.9048
   32SOL    HW2   96   1.282   1.011   1.911 -0.5884 -3.0394  0.7244
   33SOL     OW   97   0.331   2.624   2.362  0.1865  0.4186  0.3086
   33SOL    HW1   98   0.243   2.604   2.408  1.8061 -2.4171  1.3674
   33SOL    HW2   99   0.326   2.677   2.276  0.9239 -0.9388 -2.2142
   34SOL     OW  100   2.274   0.110   0.601 -0.7698 -0.7969 -0.1332
   34SOL    HW1  101   2.308   0.159   0.521 -4.2430 -1.8523  1.7786
   34SOL    HW2  102   2.197   0.160   0.635  1.6830 -4.3779 -1.6966
   35SOL     OW  103   2.289   0.759   1.460  0.1973 -0.2418  0.3311
   35SOL    HW1  104   2.267   0.853   1.473  0.3815  0.6351  2.4837
   35SOL    HW2  105   2.392   0.752   1.468 -0.5324 -0.9919  0.3378
   36SOL     OW  106   2.400   2.572   2.092  0.1390  0.3712  0.0997
   36SOL    HW1  107   2.419   2.503   2.019  1.0343 -1.3438 -1.8343
   36SOL    HW2  108   2.297   2.580   2.108  1.6358  0.6560 -0.8165
   37SOL     OW  109   0.877   2.230   2.337 -0.2487 -0.1647 -0.1249
   37SOL    HW1  110   0.954   2.223   2.270  1.9946 -1.5634 -1.6735
   37SOL    HW2  111   0.921   2.229   2.427 -1.1128 -3.4091 -0.0453
   38SOL     OW  112   2.567   0.309   2.797  0.1857  0.5471 -0.1851
   38SOL    HW1  113   2.633   0.390   2.783  1.1091  2.1407 -0.4206
   38SOL    HW2  114   2.602   0.253   2.874 -0.7395 -2.3591  3.0656
   39SOL     OW  115   2.042   1.667   1.840  0.3674  0.0585 -0.2741
   39SOL    HW1  116   1.950   1.699   1.862 -2.2412  0.8724  1.1497
   39SOL    HW2  117   2.114   1.727   1.878  0.5476 -1.4615 -3.6556
   40SOL     OW  118   0.140   2.770   2.751  0.2724  0.3991  0.3579
   40SOL    HW1  119   0.047   2.752   2.700 -1.8311 -0.6579 -2.5912
   40SOL    HW2  120   0.202   2.814   2.682 -0.1982  1.5948 -1.4854
   41SOL     OW  121   1.770   0.431   1.198  0.1989 -0.2526 -0.5864
   41SOL    HW1  122   1.865   0.410   1.180 -4.9774 -0.7270  1.3231
   41SOL    HW2  123   1.718   0.420   1.113  3.2761  0.8339  1.0732
   42SOL     OW  124   1.067   0.018   1.822  0.4186 -0.2161  0.1539
   42SOL    HW1  125   1.104   0.109   1.798  0.2937  1.1601  1.5407
   42SOL    HW2  126   1.003   0.027   1.904  2.1776 -2.1595  1.7842
   43SOL     OW  127   2.393   0.906   1.997 -0.4947  0.4521  0.3415
   43SOL    HW1  128   2.357   0.854   1.919  1.8292  3.2960  3.9733
   43SOL    HW2  129   2.421   0.847   2.077 -0.1113  1.3293  2.1591
   44SOL     OW  130   3.084   2.885   0.051  0.4963 -0.0037 -0.6354
   44SOL    HW1  131   3.041   2.945   0.122 -0.2382 -0.4077  0.1039
   44SOL    HW2  132   0.016   2.931   3.051  0.3006  4.3901 -1.0095
   45SOL     OW  133   0.381   2.459   2.024  0.2785  0.4492  0.3548
   45SOL    HW1  134   0.347   2.542   2.072 -1.5352  0.0201  1.3347
   45SOL    HW2  135   0.360   2.466   1.922  0.2327  0.3741 -1.9687
   46SOL     OW  136   2.249   2.332   1.951 -0.6242 -0.3919  0.3948
   46SOL    HW1  137   2.319   2.278   2.001  1.5810  0.7892  4.1696
   46SOL    HW2  138   2.296   2.396   1.886  2.8412 -1.0713 -2.7699
   47SOL     OW  139   1.650   1.977   1.210  0.2889 -0.0042 -0.4478
   47SOL    HW1  140   1.567   2.027   1.234  1.8176  2.2287 -1.2915
   47SOL    HW2  141   1.726   2.039   1.229  1.0525  0.2881  1.1332
   48SOL     OW  142   0.490   1.635   0.449  0.0769  0.0265  0.4860
   48SOL    HW1  143   0.553   1.683   0.384  1.6693 -1.4635 -2.5074
   48SOL    HW2  144   0.473   1.689   0.532  3.0633 -1.3972 -1.1524
   49SOL     OW  145   2.741   0.458   2.551  0.2952 -0.1575  0.2162
   49SOL    HW1  146   2.644   0.490   2.542 -0.2848  0.7581 -1.3250
   49SOL    HW2  147   2.767   0.424   2.462 -0.3832  0.2565 -0.7873
   50SOL     OW  148   2.134   1.004   0.793 -0.4368  0.2087 -0.2859
   50SOL    HW1  149   2.087   1.020   0.708  2.2486  1.1326  2.1286
   50SOL    HW2  150   2.131   1.080   0.859  2.2616  1.4781 -1.7151
   51SOL     OW  151   1.554   0.327   0.740 -0.4642 -0.3799 -0.2341
   51SOL    HW1  152   1.482   0.282   0.678 -0.1663 -0.5509  1.1703
   51SOL    HW2  153   1.564   0.421   0.706 -2.6948 -1.3436 -0.8919
   52SOL     OW  154   1.276   1.344   0.050  0.2749  0.1700 -0.3413
   52SOL    HW1  155   1.202   1.288   0.107 -6.1808 -3.0950  4.6527
   52SOL    HW2  156   1.327   1.411   0.113 -1.0115  0.3567 -0.1177
   53SOL     OW  157   0.904   1.737   2.703  0.2748  0.7117 -0.5058
   53SOL    HW1  158   0.899   1.801   2.780 -4.0484 -0.9445 -0.7563
   53SOL    HW2  159   0.813   1.694   2.696  0.2459 -1.1331 -1.5504
   54SOL     OW  160   2.079   0.443   1.206  0.3206 -0.2578 -0.2606
   54SOL    HW1  161   2.123   0.536   1.214 -2.4298  2.7426  0.0573
   54SOL    HW2  162   2.129   0.369   1.258 -0.4758 -1.4546 -0.7512
   55SOL     OW  163   2.386   2.826   0.834  0.8482  0.3147 -0.0708
   55SOL    HW1  164   2.449   2.907   0.824 -1.6892  1.4944 -1.3459
   55SOL    HW2  165   2.352   2.802   0.739 -0.4289 -1.5926  2.9000
   56SOL     OW  166   0.435   2.926   1.467  0.5485 -0.6230 -0.1241
   56SOL    HW1  167   0.340   2.945   1.503 -1.3002  0.2540  2.3589
   56SOL    HW2  168   0.490   2.867   1.525 -1.3106  2.3582 -2.0233
   57SOL     OW  169   1.577   1.126   0.683 -0.4249 -0.1373  0.0628
   57SOL    HW1  170   1.551   1.088   0.591 -0.3965  0.4251  0.1200
   57SOL    HW2  171   1.625   1.213   0.668  1.6008 -0.2485 -1.5048
   58SOL     OW  172   0.311   0.895   2.337 -0.0171  0.4293  0.4106
   58SOL    HW1  173   0.272   0.964   2.267 -1.8129  1.2935 -0.8859
   58SOL    HW2  174   0.230   0.854   2.386  0.2710 -2.4390  1.6789
   59SOL     OW  175   0.972   2.873   2.292  0.2292  0.0190  0.1328
   59SOL    HW1  176   1.064   2.875   2.328 -0.1842  0.2001 -2.5795
   59SOL    HW2  177   0.927   2.961   2.324 -1.7866  2.6727  1.0077
   60SOL     OW  178   2.729   2.756   1.029 -0.3990 -0.1753  0.2443
   60SOL    HW1  179   2.649   2.699   1.011 -2.6443  1.3996  4.4224
   60SOL    HW2  180   2.716   2.804   1.115 -1.6179 -3.1726 -1.4073
   61SOL     OW  181   1.153   2.115   0.742 -0.3404  0.2611 -0.2667
   61SOL    HW1  182   1.133   2.215   0.720  1.0063 -0.4563  4.0116
   61SOL    HW2  183   1.127   2.093   0.839  2.0022  0.0081  1.9066
   62SOL     OW  184   2.089   2.391   2.479 -0.0544 -0.5633  0.1478
   62SOL    HW1  185   2.073   2.422   2.573 -1.7217 -0.1630 -0.2094
   62SOL    HW2  186   2.166   2.449   2.441  1.6560  2.0523  1.4587
   63SOL     OW  187   2.329   0.621   2.860  0.3180 -0.3020  0.0723
   63SOL    HW1  188   2.234   0.633   2.893  2.6170  3.2132 -0.5497
   63SOL    HW2  189   2.347   0.522   2.844 -1.5557 -0.9179 -0.9773
   64SOL     OW  190   0.981   0.886   2.933  0.0654 -0.2831 -0.1978
   64SOL    HW1  191   1.065   0.886   2.996 -0.3780 -0.7161  0.1275
   64SOL    HW2  192   0.916   0.950   2.979 -1.4090  1.8455 -1.1880
   65SOL     OW  193   1.269   2.286   0.528 -0.1593 -0.1824  0.2062
   65SOL    HW1  194   1.199   2.329   0.589  1.4402  0.3210  1.1205
   65SOL    HW2  195   1.221   2.233   0.453  2.0041  1.3755 -2.4583
   66SOL     OW  196   0.679   1.209   1.669  0.3327 -0.0427 -0.5176
   66SOL    HW1  197   0.599   1.144   1.690 -1.8366 -0.1574 -0.3529
   66SOL    HW2  198   0.772   1.181   1.705 -0.2230  0.4290 -2.5959
   67SOL     OW  199   2.359   2.828   2.469  0.0049  0.1908 -0.0578
   67SOL    HW1  200   2.314   2.826   2.560  1.2187 -0.6399 -1.2034
   67SOL    HW2  201   2.320   2.908   2.418  0.5655 -0.4387 -1.5416
   68SOL     OW  202   0.574   1.650   1.095 -0.2406  0.3802 -0.9447
   68SOL    HW1  203   0.654   1.639   1.155 -1.2675  0.6896 -0.5374
   68SOL    HW2  204   0.610   1.701   1.017 -0.5824 -1.6868 -0.0583
   69SOL     OW  205   1.434   2.302   0.146 -0.0622 -0.0001 -0.2397
   69SOL    HW1  206   1.490   2.270   0.229  1.7329 -1.7614  0.7357
   69SOL    HW2  207   1.424   2.409   0.154  1.6684  3.2117 -2.5385
   70SOL     OW  208   0.077   1.069   2.543 -0.2355 -0.2611  0.5876
   70SOL    HW1  209   3.072   1.092   2.573  2.2856  0.0938  1.3507
   70SOL    HW2  210   0.065   1.000   2.466  0.1346 -0.3422 -1.1392
   71SOL     OW  211   2.939   1.455   2.623 -0.0596  0.7735 -0.1612
   71SOL    HW1  212   2.983   1.480   2.533  2.9484 -0.6815  0.7239
   71SOL    HW2  213   2.977   1.508   2.699 -0.9700  0.0588  1.4734
   72SOL     OW  214   2.679   2.306   0.374  0.1566 -0.2199  0.0409
   72SOL    HW1  215   2.645   2.406   0.366 -0.5208  1.0259 -2.5182
   72SOL    HW2  216   2.614   2.243   0.331 -0.4370  2.4778  1.1279
   73SOL     OW  217   0.618   1.844   0.284  0.0384 -0.0472  0.2746
   73SOL    HW1  218   0.559   1.915   0.330 -3.3318 -0.4131 -1.6955
   73SOL    HW2  219   0.709   1.838   0.327  4.9194 -0.5453 -1.4930
   74SOL     OW  220   2.878   1.240   2.831  0.2912 -0.5904 -0.1878
   74SOL    HW1  221   2.836   1.259   2.742 -2.2489  0.7730 -0.7319
   74SOL    HW2  222   2.854   1.147   2.865 -2.2439 -1.4361 -2.0839
   75SOL     OW  223   1.640   1.441   1.950  0.2528 -0.1798  0.1100
   75SOL    HW1  224   1.635   1.464   2.050  0.7854 -1.9250  0.5811
   75SOL    HW2  225   1.590   1.505   1.890  0.1026 -1.0148 -2.9134
   76SOL     OW  226   1.602   2.426   1.443 -1.0132 -0.6381 -0.2074
   76SOL    HW1  227   1.567   2.363   1.516  0.8884 -0.7238 -1.7032
   76SOL    HW2  228   1.619   2.520   1.475 -1.0975 -0.9985  0.7487
   77SOL     OW  229   2.604   0.976   1.194 -0.4039  0.5466  0.1185
   77SOL    HW1  230   2.683   0.918   1.173 -1.0557 -1.2488 -1.2887
   77SOL    HW2  231   2.528   0.936   1.136  0.5037  0.3448  0.1344
   78SOL     OW  232   1.275   0.942   0.538 -0.4477  0.1876 -0.2767
   78SOL    HW1  233   1.247   1.002   0.619 -0.5335  1.1044  0.3850
   78SOL    HW2  234   1.372   0.965   0.512 -0.8333 -0.6710  4.0416
   79SOL     OW  235   0.223   1.727   1.896 -0.3627 -0.0673  0.1243
   79SOL    HW1  236   0.278   1.641   1.884 -0.3482  2.0924 -2.5126
   79SOL    HW2  237   0.165   1.740   1.813 -3.5279 -1.6048  1.7223
   80SOL     OW  238   1.574   1.047   1.560 -0.6899  0.1726  0.0970
   80SOL    HW1  239   1.612   0.953   1.565  0.2672 -1.4058  1.3400
   80SOL    HW2  240   1.520   1.054   1.473 -1.1792 -0.9184 -0.6054
   81SOL     OW  241   0.830   0.163   0.793 -0.2310  0.9184 -0.3575
   81SOL    HW1  242   0.743   0.208   0.762  0.2237 -1.1538 -0.5783
   81SOL    HW2  243   0.879   0.115   0.716 -0.2385 -2.3693 -0.5212
   82SOL     OW  244   1.619   2.693   1.538  0.2983  0.1850  0.3592
   82SOL    HW1  245   1.671   2.739   1.461 -0.1585  0.6254 -0.1773
   82SOL    HW2  246   1.682   2.661   1.613  0.1971 -2.1473 -0.4129
   83SOL     OW  247   0.669   2.208   0.872  0.2103 -0.3628  0.2046
   83SOL    HW1  248   0.571   2.180   0.884 -1.4552  0.7338  0.6612
   83SOL    HW2  249   0.737   2.148   0.914  0.0096  0.2199  0.4822
   84SOL     OW  250   0.326   1.447   2.678  0.2220 -0.6503  0.0538
   84SOL    HW1  251   0.297   1.365   2.623  1.6144  0.9930  0.7705
   84SOL    HW2  252   0.372   1.519   2.616  3.2108  0.2306  1.6100
   85SOL     OW  253   0.215   2.258   1.397 -0.7228  0.9003  0.1905
   85SOL    HW1  254   0.164   2.210   1.472  0.2527 -0.4922 -0.7697
   85SOL    HW2  255   0.234   2.355   1.418 -2.9159 -2.8473  0.8861
   86SOL     OW  256   2.304   2.393   1.594 -0.4359 -0.3368  0.1195
   86SOL    HW1  257   2.351   2.440   1.673  0.2511 -2.1798  1.3033
   86SOL    HW2  258   2.342   2.419   1.501 -2.9183  0.5193  0.9820
   87SOL     OW  259   2.535   2.188   0.128  0.1387 -0.4279  0.4062
   87SOL    HW1  260   2.461   2.172   0.192  0.3855  0.2449  2.1737
   87SOL    HW2  261   2.577   2.100   0.101 -0.9745 -1.0665 -1.1470
   88SOL     OW  262   0.323   1.652   0.971  0.3010 -0.0286  0.2238
   88SOL    HW1  263   0.416   1.655   1.022  2.3962 -0.6698 -2.3368
   88SOL    HW2  264   0.282   1.746   0.953 -1.4502 -1.2411  0.3332
   89SOL     OW  265   1.028   2.716   1.843  0.0253 -0.4399 -0.1977
   89SOL    HW1  266   0.974   2.668   1.773 -0.7393  0.1841  0.9607
   89SOL    HW2  267   1.108   2.767   1.809 -2.0495 -0.9692 -0.5385
   90SOL     OW  268   3.026   1.750   1.473  0.4596 -0.0661  0.0419
   90SOL    HW1  269   2.941   1.749   1.535  0.6530  1.2180  1.4582
   90SOL    HW2  270   3.023   1.669   1.409  0.1678 -3.4612  1.7329
   91SOL     OW  271   1.441   2.147   0.874  0.2963 -0.4501 -0.3963
   91SOL    HW1  272   1.348   2.107   0.852 -0.7746  2.4731  2.1744
   91SOL    HW2  273   1.424   2.217   0.952 -2.0427  0.6248  1.9240
   92SOL     OW  274   2.642   2.671   1.442  0.3916 -0.0313 -0.1817
   92SOL    HW1  275   2.636   2.710   1.538 -0.6293 -0.3595 -0.4436
   92SOL    HW2  276   2.672   2.745   1.377 -1.6754  0.2260 -1.4340
   93SOL     OW  277   2.474   1.319   2.494  0.2407 -0.1324 -0.6760
   93SOL    HW1  278   2.445   1.340   2.399  0.7160 -0.1693  3.1604
   93SOL    HW2  279   2.555   1.379   2.517 -0.7755 -1.9690  0.9586
   94SOL     OW  280   2.865   2.670   2.184  0.0611 -0.3343 -0.2305
   94SOL    HW1  281   2.935   2.598   2.164 -0.8978 -1.9862 -0.0128
   94SOL    HW2  282   2.784   2.623   2.228  0.1567  1.2312 -1.6448
   95SOL     OW  283   1.564   0.168   1.636 -0.0937 -0.1219  0.2935
   95SOL    HW1  284   1.571   0.144   1.734 -3.4349 -0.2880 -1.7063
   95SOL    HW2  285   1.621   0.105   1.577 -1.5463 -1.8301 -2.6497
   96SOL     OW  286   3.063   2.786   1.542  0.2326  0.0789  0.0391
   96SOL    HW1  287   3.005   2.867   1.517 -2.0333 -2.8771  1.2668
   96SOL    HW2  288   3.070   2.724   1.458 -1.1913 -1.0611 -2.4987
   97SOL     OW  289   2.200   0.259   1.372 -0.6457  0.1243  0.1605
   97SOL    HW1  290   2.296   0.261   1.397 -1.5460 -1.6729 -1.2683
   97SOL    HW2  291   2.140   0.303   1.440 -1.6307  1.0571  1.6306
   98SOL     OW  292   1.299   2.304   1.493  0.1964  0.0556  0.1736
   98SOL    HW1  293   1.312   2.408   1.507  1.0221  0.9838 -1.6002
   98SOL    HW2  294   1.382   2.252   1.525 -0.3627  1.3261  1.4952
   99SOL     OW  295   0.074   2.974   1.877 -0.3120 -0.0587  0.3163
   99SOL    HW1  296   0.166   2.991   1.843 -1.2292  1.6060  1.2855
   99SOL    HW2  297   0.077   2.976   1.982 -0.9766  2.3318  1.3286
  100SOL     OW  298   3.079   1.140   2.063  0.4334  0.3957 -0.3336
  100SOL    HW1  299   0.032   1.232   2.072 -1.0416 -1.1926  0.7426
  100SOL    HW2  300   2.992   1.131   2.121 -0.4441 -0.5999  1.6494
  101SOL     OW  301   2.111   0.902   0.258 -0.3066 -0.4318  0.4892
  101SOL    HW1  302   2.171   0.885   0.338 -0.5664  2.8292 -1.0266
  101SOL    HW2  303   2.133   0.998   0.229  2.6077 -1.6492 -1.1194
  102SOL     OW  304   0.034   0.613   1.242 -0.1639 -0.1247 -0.1983
  102SOL    HW1  305   0.006   0.596   1.146  1.2130  0.1125 -0.1092
  102SOL    HW2  306   0.091   0.698   1.251 -0.7973 -0.3796  1.4414
  103SOL     OW  307   2.507   0.797   2.713 -0.3927 -0.3122  0.1967
  103SOL    HW1  308   2.446   0.742   2.778  1.5791  1.0957  1.8402
  103SOL    HW2  309   2.554   0.871   2.769  1.6748  1.7605 -0.4673
  104SOL     OW  310   0.056   0.077   2.410 -0.4088 -0.1096  0.3290
  104SOL    HW1  311   0.002   0.009   2.464  2.6921 -2.1360 -0.6174
  104SOL    HW2  312   3.085   0.117   2.338  1.9002  2.3128 -0.2144
  105SOL     OW  313   1.986   0.839   1.476  1.0155  0.4906  0.0802
  105SOL    HW1  314   1.934   0.804   1.394 -2.2217 -2.3704 -1.5064
  105SOL    HW2  315   2.054   0.913   1.448 -0.2840 -1.0781  1.1310
  106SOL     OW  316   1.185   2.935   0.684  0.6565 -0.5488 -0.3598
  106SOL    HW1  317   1.183   3.036   0.667 -2.0476 -2.9421  0.5869
  106SOL    HW2  318   1.180   2.917   0.784  1.3989  2.2920  1.9048
  107SOL     OW  319   0.048   1.646   1.098 -0.1775  0.0394 -0.0770
  107SOL    HW1  320   3.079   1.718   1.047 -3.0504 -2.1513  0.2925
  107SOL    HW2  321   0.128   1.616   1.045  1.6988  0.8191 -0.9933
  108SOL     OW  322   0.300   3.065   2.389  0.0879  1.0178 -0.2739
  108SOL    HW1  323   0.283   2.970   2.421 -2.9413  0.3600 -0.3682
  108SOL    HW2  324   0.238   0.045   2.433 -0.3005 -0.3477 -0.8008
  109SOL     OW  325   2.425   0.172   0.377  0.2907  0.4131 -0.0142
  109SOL    HW1  326   2.337   0.177   0.323 -0.2041 -0.2380 -1.7182
  109SOL    HW2  327   2.504   0.168   0.316  0.7276  0.5425  0.2256
  110SOL     OW  328   0.100   2.286   2.777 -0.0333  0.0683  0.6196
  110SOL    HW1  329   0.028   2.260   2.709  0.6343 -1.4577  0.3297
  110SOL    HW2  330   0.189   2.296   2.727 -0.1928  2.5427  0.3607
  111SOL     OW  331   1.749   2.911   2.140  0.2985  0.0857  0.1110
  111SOL    HW1  332   1.650   2.914   2.122  0.5942 -0.5474  0.1613
  111SOL    HW2  333   1.793   3.005   2.136 -0.6086  0.9685  1.7655
  112SOL     OW  334   1.936   2.480   2.677  0.0930  0.1330 -0.0638
  112SOL    HW1  335   1.895   2.390   2.694  0.4134 -0.0988 -1.0272
  112SOL    HW2  336   1.863   2.543   2.647 -1.6148 -1.4740  2.6627
  113SOL     OW  337   2.641   2.200   1.865  0.1293  0.3205 -0.0989
  113SOL    HW1  338   2.613   2.168   1.960 -0.9185  0.5120  1.6575
  113SOL    HW2  339   2.740   2.170   1.835 -0.3538 -0.6068  1.3222
  114SOL     OW  340   2.398   0.885   1.010 -0.0740  1.0220 -0.5980
  114SOL    HW1  341   2.307   0.843   0.999 -0.0501 -0.6013  1.0580
  114SOL    HW2  342   2.395   0.969   0.955 -0.5947  0.1419  0.6252
  115SOL     OW  343   3.028   1.627   2.815 -0.0301 -0.2745 -0.4941
  115SOL    HW1  344   0.041   1.627   2.802  0.0894 -0.7919  1.3782
  115SOL    HW2  345   2.994   1.714   2.854  0.7198  2.6038  0.4704
  116SOL     OW  346   0.201   1.446   2.283  0.1466 -0.3330 -0.0765
  116SOL    HW1  347   0.269   1.520   2.296  0.6200 -1.8821 -0.5589
  116SOL    HW2  348   0.229   1.381   2.209  1.4221  2.3230  1.1125
  117SOL     OW  349   2.629   0.225   0.790  0.1758 -0.3229 -0.0387
  117SOL    HW1  350   2.605   0.125   0.789 -0.8168 -0.8586 -0.5482
  117SOL    HW2  351   2.605   0.269   0.704  0.3619 -2.7153  1.0300
  118SOL     OW  352   0.667   2.094   1.668 -0.2437  0.3208 -0.3662
  118SOL    HW1  353   0.766   2.095   1.647  1.3147 -1.4807 -0.9674
  118SOL    HW2  354   0.618   2.018   1.626 -0.3974  2.0006  2.8725
  119SOL     OW  355   1.644   2.275   0.318  0.9808 -0.3949 -0.0619
  119SOL    HW1  356   1.700   2.225   0.251 -0.9390  1.5049  0.2228
  119SOL    HW2  357   1.696   2.351   0.359 -1.0050  2.0971 -1.5274
  120SOL     OW  358   0.437   1.661   2.548  0.4675 -0.0976  0.4045
  120SOL    HW1  359   0.363   1.719   2.586  0.2602  0.6707 -0.9520
  120SOL    HW2  360   0.451   1.672   2.449  1.4518  0.7017 -1.6256
  121SOL     OW  361   2.229   2.197   1.188  0.1330  0.0188  0.1768
  121SOL    HW1  362   2.194   2.115   1.244  0.3764  0.1954  2.1926
  121SOL    HW2  363   2.327   2.207   1.208  1.0341 -1.4079  1.7695
  122SOL     OW  364   2.413   1.917   2.081 -0.0216  0.4308  0.4774
  122SOL    HW1  365   2.371   1.826   2.053 -0.6665 -1.0104 -1.1679
  122SOL    HW2  366   2.514   1.916   2.070  3.7692 -0.4832  0.6435
  123SOL     OW  367   3.010   3.085   0.736 -0.3056 -0.0884  0.2920
  123SOL    HW1  368   2.939   3.019   0.766  0.5805  0.7051  2.8785
  123SOL    HW2  369   0.020   3.059   0.757  2.5333  0.6113 -1.4966
  124SOL     OW  370   1.600   0.532   2.750  0.2007  0.1826  0.8033
  124SOL    HW1  371   1.571   0.531   2.653  1.1191  0.0007  2.9584
  124SOL    HW2  372   1.530   0.485   2.811 -1.9888 -0.0618  3.6181
  125SOL     OW  373   0.305   1.323   0.204 -0.1553 -0.5080  0.3465
  125SOL    HW1  374   0.336   1.374   0.121 -0.3839 -1.1526  1.1513
  125SOL    HW2  375   0.279   1.226   0.177  0.0189 -1.4542 -1.0686
  126SOL     OW  376   2.356   2.155   0.328 -0.1898  0.2914 -0.3218
  126SOL    HW1  377   2.333   2.239   0.382  0.3625  0.7932 -0.1906
  126SOL    HW2  378   2.271   2.094   0.329 -2.7128  0.9030  1.2474
  127SOL     OW  379   0.238   1.902   0.950 -0.0278 -0.2758  0.3846
  127SOL    HW1  380   0.165   1.918   0.878 -2.4410 -1.6212 -3.8380
  127SOL    HW2  381   0.241   1.977   1.023 -1.5030  1.1529  0.5795
  128SOL     OW  382   0.799   0.705   3.070 -0.1491  0.1833  0.1383
  128SOL    HW1  383   0.858   0.765   3.013  2.5430 -0.0735 -1.4044
  128SOL    HW2  384   0.748   0.770   0.046 -1.0978  0.6381  0.8238
  129SOL     OW  385   2.386   1.543   0.889  0.5225 -0.4901 -0.0525
  129SOL    HW1  386   2.404   1.626   0.837 -0.8813 -0.1462 -0.6750
  129SOL    HW2  387   2.448   1.467   0.852  0.8154 -0.5451  0.8971
  130SOL     OW  388   2.206   1.784   1.197 -0.1791  0.2663 -0.5255
  130SOL    HW1  389   2.193   1.784   1.095  1.7716 -2.7530  0.3701
  130SOL    HW2  390   2.150   1.708   1.237 -0.7886  0.2241 -0.5694
  131SOL     OW  391   2.860   0.998   2.941 -0.7433  0.1450  0.0276
  131SOL    HW1  392   2.825   0.905   2.939  0.1097  0.9576 -0.7442
  131SOL    HW2  393   2.951   0.999   2.991  0.6764  1.2970 -0.0897
  132SOL     OW  394   2.755   1.783   1.860  0.1633 -0.1740 -0.4475
  132SOL    HW1  395   2.849   1.810   1.882  0.9537 -1.8656  0.7025
  132SOL    HW2  396   2.722   1.701   1.919  0.1769  0.4255  0.6347
  133SOL     OW  397   0.140   0.841   0.784 -0.0449 -0.2173  0.1606
  133SOL    HW1  398   0.223   0.896   0.815  1.1159  2.2470  0.8657
  133SOL    HW2  399   0.068   0.845   0.851  1.0792  0.5787 -0.6411
  134SOL     OW  400   0.288   1.067   0.125 -0.2790 -0.2421  0.6513
  134SOL    HW1  401   0.277   0.973   0.146  1.8504  2.7223 -1.9192
  134SOL    HW2  402   0.366   1.091   0.056  2.9191  2.4411 -1.7380
  135SOL     OW  403   1.949   1.280   1.235  0.0980  0.0470  0.0825
  135SOL    HW1  404   1.876   1.271   1.308 -0.1796  0.7952  0.0852
  135SOL    HW2  405   1.918   1.232   1.149 -1.0042 -1.7610 -0.4357
  136SOL     OW  406   1.857   1.091   1.061  0.4700  0.0113 -0.0522
  136SOL    HW1  407   1.941   1.037   1.095 -0.5171 -0.1038 -0.7433
  136SOL    HW2  408   1.803   1.035   0.996 -1.0242  0.6770  0.7433
  137SOL     OW  409   2.365   1.786   0.740  0.4383  0.1284  0.1633
  137SOL    HW1  410   2.318   1.842   0.669 -1.5857  0.8233 -2.2731
  137SOL    HW2  411   2.434   1.845   0.794  4.0076 -0.7717 -0.6277
  138SOL     OW  412   1.511   0.509   2.005 -0.5552  0.1292 -0.4892
  138SOL    HW1  413   1.612   0.527   2.025 -1.5464 -0.0688  3.8342
  138SOL    HW2  414   1.486   0.573   1.928 -2.7091  1.6169 -0.4587
  139SOL     OW  415   2.170   3.082   2.913  0.3457  0.0280  0.2314
  139SOL    HW1  416   2.250   3.040   2.868 -1.2469  0.5840  1.3086
  139SOL    HW2  417   2.197   0.070   2.973 -3.1531 -0.5780  0.2605
  140SOL     OW  418   1.478   2.083   2.415 -0.0955 -0.1059  0.0335
  140SOL    HW1  419   1.540   2.090   2.496 -0.4022 -0.9346 -1.4931
  140SOL    HW2  420   1.522   2.027   2.342 -2.6946  0.3444 -2.1048
  141SOL     OW  421   1.486   1.398   1.593  0.2418  1.1844 -0.2898
  141SOL    HW1  422   1.515   1.339   1.667 -0.0898 -2.2488 -0.6166
  141SOL    HW2  423   1.568   1.446   1.550 -2.0281  1.5959 -1.7219
  142SOL     OW  424   2.663   0.157   3.023 -0.1435  0.1345 -0.5241
  142SOL    HW1  425   2.750   0.099   3.026  0.4183 -2.9872  0.1094
  142SOL    HW2  426   2.578   0.106   3.047  0.0464  0.8493 -1.0389
  143SOL     OW  427   0.524   2.518   2.846  0.0683  0.1688 -0.0465
  143SOL    HW1  428   0.546   2.488   2.943  2.0004  0.2931 -1.7513
  143SOL    HW2  429   0.432   2.565   2.838 -1.0604  1.8832 -0.2065
  144SOL     OW  430   0.855   2.864   2.031 -0.0765 -0.0371 -0.0131
  144SOL    HW1  431   0.888   2.851   2.128  1.9011  0.0521  2.0611
  144SOL    HW2  432   0.915   2.822   1.961  0.4732  0.7207 -0.4405
  145SOL     OW  433   2.312   1.417   0.433  0.0460  0.1126  0.5506
  145SOL    HW1  434   2.372   1.342   0.392  0.9471 -1.5167 -1.6986
  145SOL    HW2  435   2.271   1.388   0.522 -0.4964 -2.4381  1.4716
  146SOL     OW  436   2.646   2.864   2.740  0.1029  0.5680  0.1759
  146SOL    HW1  437   2.640   2.963   2.718 -2.2184  1.4092  0.7362
  146SOL    HW2  438   2.669   2.855   2.838 -0.0666 -0.1222 -2.9536
  147SOL     OW  439   2.976   2.623   1.100  0.2240 -0.7751  0.0227
  147SOL    HW1  440   3.031   2.643   1.186  1.2305  1.0678  2.6823
  147SOL    HW2  441   2.913   2.704   1.084 -1.2351  1.9163 -0.0375
  148SOL     OW  442   1.601   0.080   0.060  0.3767  0.4536  0.1821
  148SOL    HW1  443   1.575   3.076   0.099 -0.9478 -1.5348 -2.5752
  148SOL    HW2  444   1.669   0.070   3.077  0.0991 -0.1364 -0.1984
  149SOL     OW  445   0.909   1.009   2.699  0.2399 -0.2263  0.1521
  149SOL    HW1  446   0.931   0.946   2.775  0.2908 -0.4212 -0.5008
  149SOL    HW2  447   0.950   1.100   2.722 -0.6577 -1.4816  0.4158
  150SOL     OW  448   1.147   2.533   0.915  0.2742 -0.0542  0.4690
  150SOL    HW1  449   1.108   2.462   0.982 -1.9202 -1.2196  0.5769
  150SOL    HW2  450   1.138   2.625   0.961 -0.2872  2.4256 -1.1799
  151SOL     OW  451   0.152   1.937   0.113  0.0189 -0.1768  0.5921
  151SOL    HW1  452   0.164   1.839   0.089 -2.0327 -2.1832  0.1952
  151SOL    HW2  453   0.152   1.999   0.026  1.6291  0.6547 -1.5280
  152SOL     OW  454   0.326   1.210   0.614  0.1605 -0.6185 -0.1698
  152SOL    HW1  455   0.385   1.257   0.543  2.3993 -1.9074 -1.8562
  152SOL    HW2  456   0.228   1.212   0.596 -0.2806 -0.9757 -1.3492
  153SOL     OW  457   2.472   2.510   2.945  0.0190 -0.1434  0.2178
  153SOL    HW1  458   2.527   2.457   3.017  0.4047 -5.1772  1.4234
  153SOL    HW2  459   2.421   2.441   2.885  1.1934  2.2125 -0.0769
  154SOL     OW  460   0.581   0.263   1.125 -0.2202  0.3414  0.5901
  154SOL    HW1  461   0.606   0.169   1.085 -0.5784  0.4446  1.8672
  154SOL    HW2  462   0.534   0.259   1.217  0.1806 -1.4376  1.7677
  155SOL     OW  463   3.051   2.047   1.145 -0.2410  0.7383  0.3782
  155SOL    HW1  464   3.038   1.965   1.080  0.1769 -3.3816  0.3858
  155SOL    HW2  465   2.982   2.033   1.219 -2.1501 -2.5658  1.2544
  156SOL     OW  466   2.050   2.133   0.011  0.2017 -0.6277  0.1306
  156SOL    HW1  467   2.096   2.059   0.062  1.1986 -0.4480 -0.9118
  156SOL    HW2  468   2.069   2.214   0.069 -0.1637 -1.6465  2.5675
  157SOL     OW  469   0.715   2.474   0.909 -0.6805  0.3037  0.2181
  157SOL    HW1  470   0.688   2.377   0.897  1.2273  0.2199 -0.5357
  157SOL    HW2  471   0.760   2.483   1.001  4.5593  3.3066  0.6870
  158SOL     OW  472   1.993   0.628   2.662 -0.2002 -0.2562 -0.5851
  158SOL    HW1  473   2.027   0.637   2.755 -2.9700 -0.8864 -2.7083
  158SOL    HW2  474   1.897   0.667   2.666 -1.1300 -4.1575  2.0173
  159SOL     OW  475   0.883   0.220   2.601  0.5647  0.1688 -0.1316
  159SOL    HW1  476   0.833   0.170   2.674 -0.2846 -1.4028  0.0512
  159SOL    HW2  477   0.895   0.321   2.616  0.2220  0.6342 -1.2250
  160SOL     OW  478   0.928   1.948   0.391 -0.3246  0.1795  0.3308
  160SOL    HW1  479   0.877   1.936   0.479  1.1196  2.4216 -0.2756
  160SOL    HW2  480   0.966   1.861   0.350  1.1342 -3.2602 -1.2226
  161SOL     OW  481   2.814   2.232   2.983 -0.3734  0.2928 -0.0887
  161SOL    HW1  482   2.804   2.319   3.034 -0.0319 -0.1970  1.7525
  161SOL    HW2  483   2.865   2.158   3.034  0.4436 -1.2306  0.1439
  162SOL     OW  484   0.495   2.591   0.812 -0.5399 -0.2422 -1.0271
  162SOL    HW1  485   0.579   2.543   0.854  2.1631 -2.2627 -1.2515
  162SOL    HW2  486   0.425   2.612   0.888  0.8513  2.7011  1.7579
  163SOL     OW  487   2.495   0.730   3.054  0.0140  0.0853 -0.1426
  163SOL    HW1  488   2.493   0.678   0.054 -0.6265  0.7797 -1.0946
  163SOL    HW2  489   2.413   0.697   3.000 -0.5903 -0.6940  2.0340
  164SOL     OW  490   0.037   2.705   0.491 -0.2717  0.2114  0.3576
  164SOL    HW1  491   3.057   2.677   0.421  1.8164 -0.3213 -0.4787
  164SOL    HW2  492   0.051   2.807   0.475  0.7331 -4.0203 -0.3681
  165SOL     OW  493   2.461   0.431   1.178 -0.1793  0.7185 -0.1048
  165SOL    HW1  494   2.476   0.431   1.282 -0.4455  1.1551  1.1780
  165SOL    HW2  495   2.394   0.508   1.158  0.6731  2.3869  2.7421
  166SOL     OW  496   2.153   0.423   0.952  0.2544 -0.2721  0.8012
  166SOL    HW1  497   2.193   0.333   0.928 -1.8856  3.2430 -0.3516
  166SOL    HW2  498   2.135   0.423   1.049  0.4607  0.4002 -3.2142
  167SOL     OW  499   0.383   0.656   1.391 -0.2889  0.2681  0.2607
  167SOL    HW1  500   0.358   0.630   1.485  1.5906 -1.8013 -1.4351
  167SOL    HW2  501   0.324   0.728   1.350 -1.4522  2.0075 -0.7830
  168SOL     OW  502   2.644   3.046   2.210  0.3931 -0.0872 -0.2592
  168SOL    HW1  503   2.635   2.953   2.248  0.7171 -0.4631 -1.1734
  168SOL    HW2  504   2.613   0.030   2.282  0.8179  3.1431  3.6349
  169SOL     OW  505   0.061   1.451   0.750 -0.3574 -0.1433  0.3421
  169SOL    HW1  506   0.011   1.536   0.727  0.6034 -1.9167 -1.1608
  169SOL    HW2  507   0.032   1.409   0.835 -0.0136  0.5674  0.6154
  170SOL     OW  508   2.876   0.665   1.541 -0.0872  0.0208 -0.5687
  170SOL    HW1  509   2.912   0.573   1.529 -1.2918  3.1531  1.5336
  170SOL    HW2  510   2.838   0.674   1.638  1.1001  1.9712  3.4371
  171SOL     OW  511   1.067   2.183   1.520  0.1389  0.1921 -0.1250
  171SOL    HW1  512   1.151   2.242   1.506 -2.4434  1.9205  2.6829
  171SOL    HW2  513   0.998   2.252   1.554  0.7240  2.2104 -0.8343
  172SOL     OW  514   0.435   2.384   1.097 -0.3960  0.0905 -0.3156
  172SOL    HW1  515   0.396   2.301   1.049 -2.1890  1.4913  0.4866
  172SOL    HW2  516   0.390   2.470   1.062 -3.3649  0.6885  0.5835
  173SOL     OW  517   1.130   0.135   0.291  0.0535  0.0660  0.0313
  173SOL    HW1  518   1.076   0.156   0.208 -1.9320  3.3171  0.1757
  173SOL    HW2  519   1.216   0.185   0.296  1.5978 -1.7222 -1.4050
  174SOL     OW  520   0.930   2.618   2.640  0.1341  0.5074 -0.0417
  174SOL    HW1  521   1.015   2.559   2.624  3.3363 -0.5372 -0.8830
  174SOL    HW2  522   0.885   2.606   2.731  2.7114  1.3915 -1.3212
  175SOL     OW  523   1.484   0.660   0.126  0.2425  0.7899 -0.0260
  175SOL    HW1  524   1.538   0.585   0.096  0.4911  0.3406 -1.0320
  175SOL    HW2  525   1.542   0.737   0.160  0.2292 -3.1959 -0.7790
  176SOL     OW  526   1.365   0.275   0.301  0.5711  0.5450  0.1678
  176SOL    HW1  527   1.437   0.260   0.230 -0.8460  1.4782  0.9916
  176SOL    HW2  528   1.397   0.259   0.396 -2.5328  0.6925  1.5122
  177SOL     OW  529   1.306   0.980   0.989  0.1955  0.3170  0.1140
  177SOL    HW1  530   1.295   1.075   0.957 -0.2879  0.4559  2.9188
  177SOL    HW2  531   1.241   0.961   1.064 -1.9773  1.3708 -1.2094
  178SOL     OW  532   2.062   1.770   2.183 -0.5352  0.4300  0.1050
  178SOL    HW1  533   2.129   1.696   2.149  1.1237 -4.2463 -1.2971
  178SOL    HW2  534   1.971   1.763   2.139  0.4386  0.3992 -0.2289
  179SOL     OW  535   0.648   2.670   2.584 -0.1197  0.1911  0.2870
  179SOL    HW1  536   0.747   2.658   2.588 -1.3584 -1.1322 -0.0589
  179SOL    HW2  537   0.603   2.580   2.557 -0.4942 -1.9821 -0.7567
  180SOL     OW  538   1.531   1.855   1.656 -0.5157  0.0258  0.1322
  180SOL    HW1  539   1.583   1.925   1.706  1.3311  0.1310  0.8607
  180SOL    HW2  540   1.585   1.817   1.575  0.8839 -1.9314 -0.7064
  181SOL     OW  541   1.506   1.252   2.368 -0.6283  0.1519  0.4582
  181SOL    HW1  542   1.497   1.260   2.473 -1.4768  0.1205  1.9261
  181SOL    HW2  543   1.424   1.215   2.320  1.3459  1.7253 -0.2853
  182SOL     OW  544   2.958   0.747   2.612  0.3366  0.0608  0.1746
  182SOL    HW1  545   2.854   0.751   2.627 -2.9348  0.5505  0.0739
  182SOL    HW2  546   2.986   0.647   2.610  1.9465 -0.1047  1.3309
  183SOL     OW  547   1.309   0.240   2.715 -0.6713 -0.3630  0.2035
  183SOL    HW1  548   1.316   0.303   2.634 -1.4169  1.8896 -3.3701
  183SOL    HW2  549   1.323   0.300   2.795  0.7836 -3.3037 -0.9697
  184SOL     OW  550   1.003   0.635   1.413 -0.2163 -0.1957  0.5171
  184SOL    HW1  551   0.976   0.726   1.452 -0.6364  0.3364  0.6220
  184SOL    HW2  552   0.956   0.631   1.322  0.0377 -1.7481  3.3046
  185SOL     OW  553   3.043   1.371   0.987  0.1171 -0.4375 -0.1977
  185SOL    HW1  554   2.971   1.419   1.045  0.0994  2.5242 -1.9658
  185SOL    HW2  555   3.075   1.276   1.012 -0.6677  0.9028 -1.7700
  186SOL     OW  556   0.348   1.915   2.929 -0.3529 -0.1531  0.9655
  186SOL    HW1  557   0.407   1.864   2.993  0.7657 -2.6492  0.7736
  186SOL    HW2  558   0.394   1.936   2.839 -2.5808  0.4139 -2.1563
  187SOL     OW  559   2.560   1.378   0.137 -0.0013  0.6200  0.3512
  187SOL    HW1  560   2.604   1.438   0.212  0.7371  1.9945  0.3004
  187SOL    HW2  561   2.504   1.428   0.068  0.6163  0.3481 -0.3661
  188SOL     OW  562   0.146   2.471   0.537  0.1648 -0.0291 -0.0844
  188SOL    HW1  563   0.116   2.408   0.461  0.9144  0.1895 -3.2660
  188SOL    HW2  564   0.107   2.568   0.522  0.5779  1.8787 -0.9777
  189SOL     OW  565   2.556   0.897   0.324 -0.2601  0.1381  0.1879
  189SOL    HW1  566   2.613   0.927   0.241  1.3004 -0.1293 -2.3992
  189SOL    HW2  567   2.619   0.877   0.399 -2.5612 -0.4624  0.1926
  190SOL     OW  568   1.452   1.724   2.213 -0.2743 -0.8676 -0.1399
  190SOL    HW1  569   1.496   1.634   2.235 -0.4511 -1.0436  2.0659
  190SOL    HW2  570   1.377   1.745   2.281  1.5190  0.3383  2.8059
  191SOL     OW  571   2.467   0.320   1.424 -0.3064  0.8516  0.5835
  191SOL    HW1  572   2.478   0.214   1.415  0.3826 -0.9440  0.0961
  191SOL    HW2  573   2.494   0.354   1.518 -0.5403  0.2367  0.0286
  192SOL     OW  574   1.997   0.232   1.752 -0.6879  0.1554 -0.4376
  192SOL    HW1  575   1.975   0.141   1.711  0.2535 -1.8224  1.3849
  192SOL    HW2  576   2.075   0.223   1.820  3.2491 -0.6757 -0.2768
  193SOL     OW  577   0.853   0.455   0.275 -0.6971 -0.2938  0.2080
  193SOL    HW1  578   0.836   0.397   0.357  0.0646  0.4106 -0.1141
  193SOL    HW2  579   0.768   0.509   0.260 -0.0860 -1.0371 -0.9185
  194SOL     OW  580   0.969   2.791   1.454  0.6715 -0.3267 -0.4383
  194SOL    HW1  581   1.060   2.831   1.443 -1.8813 -2.1481  1.6087
  194SOL    HW2  582   0.907   2.867   1.487 -0.1909  0.1855 -1.4640
  195SOL     OW  583   2.217   0.698   0.917  0.7022  0.0648 -0.7231
  195SOL    HW1  584   2.196   0.599   0.921  0.4527  1.8388 -1.5343
  195SOL    HW2  585   2.146   0.752   0.870 -0.0398 -3.6283  0.4647
  196SOL     OW  586   1.679   2.021   1.811  0.1322 -0.5779 -1.0100
  196SOL    HW1  587   1.781   2.032   1.815  4.7430  0.3326 -1.6348
  196SOL    HW2  588   1.627   1.999   1.902 -4.9330 -0.0074  0.7314
  197SOL     OW  589   0.151   0.188   0.106  0.0065 -0.0734  0.1238
  197SOL    HW1  590   0.174   0.222   0.197 -2.4353 -0.4697 -4.9006
  197SOL    HW2  591   0.224   0.132   0.061  1.4249  0.1588  1.1149
  198SOL     OW  592   1.122   1.097   0.717  0.1856 -0.6479  0.0512
  198SOL    HW1  593   1.136   1.174   0.786 -1.4411 -1.3840 -0.7751
  198SOL    HW2  594   1.046   1.030   0.748 -2.4527 -3.4163 -0.2397
  199SOL     OW  595   3.040   0.899   1.943 -0.2492  0.1588  0.1618
  199SOL    HW1  596   3.050   0.806   1.984 -0.0222 -1.2817 -0.7394
  199SOL    HW2  597   3.069   0.976   2.005  0.6382 -1.3962 -1.1140
  200SOL     OW  598   2.636   1.893   2.583  0.0047 -0.5050 -0.0184
  200SOL    HW1  599   2.572   1.904   2.504 -0.0935  2.1424  0.1666
  200SOL    HW2  600   2.649   1.979   2.631  1.9780 -1.3621 -0.2277
  201SOL     OW  601   2.487   0.167   1.110 -0.1427  0.2110 -0.3681
  201SOL    HW1  602   2.468   0.264   1.142  1.1322 -1.1354 -0.9762
  201SOL    HW2  603   2.431   0.153   1.024  0.4178 -1.0639 -1.8144
  202SOL     OW  604   2.302   0.786   0.427 -1.0329 -0.4265  0.1220
  202SOL    HW1  605   2.309   0.835   0.520 -1.2443  1.1945  2.7820
  202SOL    HW2  606   2.382   0.816   0.374 -0.0863 -1.1070  0.5338
  203SOL     OW  607   1.676   1.998   2.248  0.2644  0.5636 -0.1846
  203SOL    HW1  608   1.631   1.983   2.157  0.9436 -2.8143  0.2378
  203SOL    HW2  609   1.706   1.904   2.286 -0.7430  0.6695  1.5467
  204SOL     OW  610   1.004   1.774   2.187  0.0402 -0.3495 -0.1978
  204SOL    HW1  611   0.944   1.693   2.160 -0.5932 -2.6099 -0.8582
  204SOL    HW2  612   1.007   1.786   2.288  1.1162 -0.7658 -2.1196
  205SOL     OW  613   0.941   1.941   1.492  0.4890 -0.2090  0.3018
  205SOL    HW1  614   1.016   2.005   1.523 -1.4587 -3.0268 -1.5667
  205SOL    HW2  615   0.957   1.848   1.532 -1.2914  0.0592  0.7041
  206SOL     OW  616   0.056   0.307   2.979  0.1493  0.1017 -0.0908
  206SOL    HW1  617   0.081   0.245   3.047  1.8451  1.6834 -0.3568
  206SOL    HW2  618   3.047   0.321   2.984  2.7155  2.1209  1.6769
  207SOL     OW  619   1.914   2.676   2.090  0.6992 -0.0678  0.5840
  207SOL    HW1  620   1.836   2.733   2.120  0.9353 -0.0298  1.8692
  207SOL    HW2  621   1.933   2.683   1.989  0.1623  1.4832  1.5681
  208SOL     OW  622   0.448   2.112   1.456 -0.3744  0.6541 -0.1142
  208SOL    HW1  623   0.373   2.168   1.419  0.3660  2.1490 -1.7195
  208SOL    HW2  624   0.480   2.052   1.378  0.3839  0.7592  0.6589
  209SOL     OW  625   1.496   0.879   2.514  0.3298  0.1002  0.3315
  209SOL    HW1  626   1.419   0.946   2.491 -0.9647  0.3423  0.8733
  209SOL    HW2  627   1.567   0.872   2.439 -0.7975  0.3864  0.0833
  210SOL     OW  628   2.039   0.914   1.146 -0.2701 -0.1706  0.2176
  210SOL    HW1  629   2.075   0.980   1.216 -0.2089  0.1769  1.6884
  210SOL    HW2  630   1.991   0.833   1.190 -2.2271 -0.2277  3.3843
  211SOL     OW  631   0.584   0.215   0.700 -0.3140 -0.2932  0.1833
  211SOL    HW1  632   0.500   0.263   0.727  1.8231  0.6764 -1.5549
  211SOL    HW2  633   0.559   0.129   0.643  1.0075 -3.2365  0.5457
  212SOL     OW  634   1.721   1.315   0.339  0.5793 -0.2156 -0.1018
  212SOL    HW1  635   1.745   1.391   0.276  1.4781 -1.2206  1.1090
  212SOL    HW2  636   1.631   1.277   0.310  1.1730  0.8289  4.2969
  213SOL     OW  637   1.817   0.006   2.577  0.0758 -0.4794  0.2230
  213SOL    HW1  638   1.718   3.070   2.555  1.9421 -2.0862 -0.7258
  213SOL    HW2  639   1.870   3.009   2.580 -3.5738  0.0800  1.2182
  214SOL     OW  640   1.605   1.488   2.260 -0.1383 -0.6402  0.0794
  214SOL    HW1  641   1.658   1.499   2.348 -0.5510  0.3210  1.2362
  214SOL    HW2  642   1.571   1.395   2.263  0.5149  3.1025 -0.9242
  215SOL     OW  643   0.121   1.790   0.343 -0.0195 -0.0746  0.2819
  215SOL    HW1  644   0.171   1.699   0.329 -1.6379 -1.1479 -0.7858
  215SOL    HW2  645   0.106   1.844   0.258 -1.1830  0.3815 -1.8693
  216SOL     OW  646   0.629   2.771   2.266  0.1575  0.6525 -0.1929
  216SOL    HW1  647   0.700   2.700   2.239 -1.6642 -0.9795 -2.7299
  216SOL    HW2  648   0.598   2.754   2.362 -0.1033  1.7436 -1.8406
  217SOL     OW  649   2.505   1.189   0.572  0.1661  0.3205 -0.4856
  217SOL    HW1  650   2.556   1.116   0.619 -1.4213  1.3898  1.8981
  217SOL    HW2  651   2.517   1.171   0.472 -0.4948 -1.5919 -0.0343
  218SOL     OW  652   2.110   1.933   1.903 -0.0438  0.3918  0.1936
  218SOL    HW1  653   2.048   1.996   1.855  0.1811 -0.8687  0.9362
  218SOL    HW2  654   2.119   1.961   1.998 -2.0015 -1.0776 -0.9014
  219SOL     OW  655   1.798   1.228   0.037 -0.3709  0.4330 -0.9375
  219SOL    HW1  656   1.794   1.324   0.075 -1.4376  1.2686 -0.7193
  219SOL    HW2  657   1.763   1.223   3.033 -0.1327 -1.2908  2.2411
  220SOL     OW  658   1.186   1.743   1.054 -0.4625 -0.4065  0.2802
  220SOL    HW1  659   1.199   1.766   1.153  0.5003  0.8651  0.5868
  220SOL    HW2  660   1.269   1.699   1.015 -1.4154  1.6938  0.2380
  221SOL     OW  661   0.442   0.668   2.798  1.1439  0.5128  0.2504
  221SOL    HW1  662   0.497   0.725   2.739 -1.6056 -1.1325  1.4481
  221SOL    HW2  663   0.486   0.577   2.807  0.1565 -1.9184 -0.5825
  222SOL     OW  664   0.765   1.563   1.292 -0.0866 -0.5804 -0.0522
  222SOL    HW1  665   0.799   1.580   1.388  0.6630 -4.6819  2.6327
  222SOL    HW2  666   0.840   1.571   1.222  1.2236 -2.5388 -0.7626
  223SOL     OW  667   1.541   3.011   2.598  0.5681 -0.3149  0.4729
  223SOL    HW1  668   1.451   2.963   2.590  1.2749  0.4093  0.8262
  223SOL    HW2  669   1.539   3.078   2.672  2.7497 -2.0114 -0.1934
  224SOL     OW  670   2.617   0.715   0.977  0.5507 -0.2795 -0.2354
  224SOL    HW1  671   2.582   0.618   0.947 -4.7006 -3.6811  0.6349
  224SOL    HW2  672   2.533   0.770   0.983  1.9840  2.3362  0.1242
  225SOL     OW  673   1.141   0.521   1.602  0.0915 -0.3571  0.0892
  225SOL    HW1  674   1.206   0.458   1.563  1.4618  1.4426 -0.6631
  225SOL    HW2  675   1.105   0.581   1.522 -0.0601  1.3759 -0.8878
  226SOL     OW  676   1.653   1.960   2.718  0.8195  0.3922 -0.4821
  226SOL    HW1  677   1.607   1.905   2.644 -1.4851  1.3030 -3.5142
  226SOL    HW2  678   1.608   1.961   2.806  2.1302 -2.3899 -0.8932
  227SOL     OW  679   1.206   1.790   1.334 -0.1360  0.3285  0.5986
  227SOL    HW1  680   1.301   1.746   1.320  2.0112 -0.0491  0.8518
  227SOL    HW2  681   1.151   1.748   1.407  0.4086 -0.1071 -1.2821
  228SOL     OW  682   0.422   1.704   0.699 -0.5867  0.0563  0.1103
  228SOL    HW1  683   0.466   1.770   0.763  1.5572  1.5691  2.3018
  228SOL    HW2  684   0.356   1.649   0.754  0.3026 -0.1736  1.5608
  229SOL     OW  685   1.795   0.458   0.108 -0.4470 -0.2237  0.1718
  229SOL    HW1  686   1.809   0.446   0.008 -3.2373 -0.6513 -2.6680
  229SOL    HW2  687   1.859   0.527   0.140  0.6917  2.7271 -1.9316
  230SOL     OW  688   0.975   0.500   2.327 -0.0149  0.1700  0.0686
  230SOL    HW1  689   1.064   0.474   2.279  1.2844 -0.8856  1.1353
  230SOL    HW2  690   0.987   0.577   2.396  3.2867  0.4871  0.8640
  231SOL     OW  691   1.302   1.750   2.433  0.2028  0.3470 -0.0736
  231SOL    HW1  692   1.325   1.672   2.490  0.6455  0.6640 -0.5466
  231SOL    HW2  693   1.218   1.798   2.462 -0.2925  1.3623 -0.0474
  232SOL     OW  694   2.163   1.766   0.938  0.2963 -0.2892 -0.0113
  232SOL    HW1  695   2.091   1.691   0.934  1.1087  1.8391 -1.4543
  232SOL    HW2  696   2.239   1.754   0.871 -0.9307  2.3856 -0.2515
  233SOL     OW  697   2.049   2.755   0.025 -0.0672  0.0883  0.1724
  233SOL    HW1  698   1.968   2.704   0.051  0.1319  0.7956  0.6506
  233SOL    HW2  699   2.080   2.817   0.097 -1.5203  0.9875  1.7087
  234SOL     OW  700   0.898   2.905   2.661  0.3642  0.0395  0.0622
  234SOL    HW1  701   0.900   2.807   2.646  2.8176 -0.2226 -1.5185
  234SOL    HW2  702   0.981   2.950   2.623  0.1905  0.6693  0.8778
  235SOL     OW  703   2.473   3.062   3.066  0.0439 -0.6972  0.3393
  235SOL    HW1  704   2.428   3.048   2.979  2.9986  1.1242  2.6270
  235SOL    HW2  705   2.509   2.972   0.006  1.8982 -0.5109 -1.8323
  236SOL     OW  706   2.507   2.187   2.398  0.5763  0.3374  0.2844
  236SOL    HW1  707   2.502   2.280   2.442  0.2461 -2.3313 -0.3396
  236SOL    HW2  708   2.597   2.183   2.354 -0.2836 -1.0923  1.5276
  237SOL     OW  709   1.232   1.472   1.712  0.2397 -0.2089 -0.5112
  237SOL    HW1  710   1.323   1.454   1.663  0.9293 -0.6444  1.2497
  237SOL    HW2  711   1.234   1.476   1.815  1.0557 -2.1470  1.4590
  238SOL     OW  712   2.158   0.185   2.322 -0.3301  0.2130 -0.3424
  238SOL    HW1  713   2.158   0.259   2.251  1.5124  0.6603 -1.9842
  238SOL    HW2  714   2.079   0.188   2.387  2.0997 -1.6095 -1.6399
  239SOL     OW  715   0.357   1.869   2.085  0.8490 -0.4845  0.1424
  239SOL    HW1  716   0.441   1.827   2.112 -3.3356  1.3700  1.4609
  239SOL    HW2  717   0.323   1.827   1.999 -0.2135 -0.9747  0.7380
  240SOL     OW  718   2.821   2.894   0.817 -0.1564  0.1229  0.0278
  240SOL    HW1  719   2.783   2.840   0.894 -3.5944 -1.5691  2.4517
  240SOL    HW2  720   2.854   2.827   0.745  1.7139 -0.3031 -1.2293
  241SOL     OW  721   1.921   1.934   0.519 -0.0420  0.2031 -0.2792
  241SOL    HW1  722   1.966   1.844   0.534  2.0819 -0.2913 -1.4957
  241SOL    HW2  723   1.824   1.918   0.495 -3.7797  0.1604  0.7351
  242SOL     OW  724   1.291   1.637   2.847  0.2359 -0.2630  0.8992
  242SOL    HW1  725   1.383   1.602   2.820  0.0217  1.3823 -0.1156
  242SOL    HW2  726   1.216   1.584   2.799 -1.5720 -2.4738 -2.7307
  243SOL     OW  727   0.720   2.421   2.338  0.1885 -0.1404  0.0747
  243SOL    HW1  728   0.771   2.502   2.297  0.1559  0.0482 -1.8611
  243SOL    HW2  729   0.784   2.339   2.344  3.4393  0.0377 -0.8345
  244SOL     OW  730   2.387   3.018   2.803  0.5207 -0.0254  0.3873
  244SOL    HW1  731   2.452   3.070   2.742  0.6375 -0.6499 -0.4068
  244SOL    HW2  732   2.369   2.922   2.775 -1.1713  1.0232  1.1057
  245SOL     OW  733   1.336   2.827   0.495  0.1160 -0.2382 -0.5189
  245SOL    HW1  734   1.268   2.844   0.569 -0.9735 -3.2797  1.9859
  245SOL    HW2  735   1.299   2.862   0.406 -0.8234  2.0376 -0.6293
  246SOL     OW  736   0.903   2.954   0.242  0.1254  0.2444  0.2091
  246SOL    HW1  737   0.939   3.042   0.214  0.8394 -0.3702 -0.9380
  246SOL    HW2  738   0.957   2.912   0.318 -1.7946 -1.0358 -1.4564
  247SOL     OW  739   0.699   0.866   2.178 -0.2001  0.3573  0.0543
  247SOL    HW1  740   0.754   0.811   2.113  0.9634 -0.3326  1.3198
  247SOL    HW2  741   0.610   0.822   2.205 -1.6281  1.2409  0.0584
  248SOL     OW  742   1.105   1.427   2.331  0.6385  0.3163 -0.0663
  248SOL    HW1  743   1.037   1.482   2.275  3.1437 -0.6622 -0.5834
  248SOL    HW2  744   1.162   1.490   2.388  0.0047  5.1523  1.0329
  249SOL     OW  745   2.174   0.390   0.564  0.2431 -0.2578  0.2078
  249SOL    HW1  746   2.254   0.446   0.595 -1.3605 -0.5134 -2.9667
  249SOL    HW2  747   2.110   0.457   0.524 -0.7370  0.0457  1.2980
  250SOL     OW  748   0.779   0.036   0.506 -0.4996  0.0826  0.4547
  250SOL    HW1  749   0.777   3.040   0.567 -0.5320 -0.6611  4.7579
  250SOL    HW2  750   0.876   0.065   0.496  0.6045  0.5841 -1.2056
  251SOL     OW  751   1.556   0.052   2.833 -0.5185  0.0970 -0.5987
  251SOL    HW1  752   1.548   0.146   2.797  1.0053 -1.1327  0.7206
  251SOL    HW2  753   1.480   0.040   2.899  0.8609  0.1159 -2.3598
  252SOL     OW  754   1.765   1.140   1.939  0.0397  0.2618 -0.0074
  252SOL    HW1  755   1.825   1.131   2.022 -1.6075 -0.1129  0.8721
  252SOL    HW2  756   1.784   1.225   1.888 -0.7822 -0.2381  1.1628
  253SOL     OW  757   2.672   2.462   1.748 -0.2684  0.4423 -0.8650
  253SOL    HW1  758   2.670   2.377   1.804 -2.7781  1.3843 -0.9772
  253SOL    HW2  759   2.770   2.494   1.735 -0.4139 -2.0172 -0.2062
  254SOL     OW  760   0.437   1.423   1.229  0.0278 -0.0840  0.1755
  254SOL    HW1  761   0.506   1.401   1.303 -1.1975  1.8543  0.7127
  254SOL    HW2  762   0.479   1.491   1.164 -0.1490  0.0109  0.3439
  255SOL     OW  763   1.145   0.893   1.181 -0.2217 -0.2939  0.2882
  255SOL    HW1  764   1.068   0.831   1.162  0.7466  2.3937  3.6114
  255SOL    HW2  765   1.137   0.936   1.275  1.4688  0.7868 -1.0312
  256SOL     OW  766   1.783   2.563   1.720 -0.1420 -0.2960  0.8032
  256SOL    HW1  767   1.725   2.513   1.784  0.4163 -0.9830 -1.2315
  256SOL    HW2  768   1.848   2.501   1.669 -1.7488  0.2028  0.7811
  257SOL     OW  769   0.305   2.681   2.936  0.2673  0.1798  0.0486
  257SOL    HW1  770   0.237   2.709   2.869  1.0748 -0.3311  3.8350
  257SOL    HW2  771   0.380   2.754   2.945 -0.4204  0.3606  1.5131
  258SOL     OW  772   0.863   2.618   2.246 -0.3543  0.4110  0.3842
  258SOL    HW1  773   0.882   2.712   2.279 -1.6601 -3.6641  1.6060
  258SOL    HW2  774   0.945   2.592   2.185 -2.0032 -1.2917 -2.0287
  259SOL     OW  775   1.303   0.166   2.300  0.1870  0.6537 -0.4905
  259SOL    HW1  776   1.403   0.154   2.281 -1.0244 -0.5093  1.4491
  259SOL    HW2  777   1.263   0.089   2.348  0.8947  3.4497 -1.8244
  260SOL     OW  778   1.640   0.441   0.973  0.5059  0.7396  0.0063
  260SOL    HW1  779   1.615   0.379   0.891  2.6309 -0.3540 -3.0150
  260SOL    HW2  780   1.723   0.498   0.952 -0.9166 -1.3991 -1.0050
  261SOL     OW  781   0.006   0.492   2.564 -0.0235  0.5102 -0.1423
  261SOL    HW1  782   0.007   0.400   2.603 -0.2634  1.2259 -1.4566
  261SOL    HW2  783   0.094   0.542   2.574 -0.8098  0.2034  0.8189
  262SOL     OW  784   3.075   2.491   2.115  0.2064  0.1609 -0.2373
  262SOL    HW1  785   0.053   2.423   2.152  1.6025 -1.5923  1.9178
  262SOL    HW2  786   0.021   2.536   2.025 -1.1966  0.7834 -0.1514
  263SOL     OW  787   2.658   1.660   2.299  0.0732  0.0445  0.4153
  263SOL    HW1  788   2.699   1.738   2.247  0.2214  0.8476  0.2537
  263SOL    HW2  789   2.576   1.684   2.354 -1.7932  0.9540 -0.2906
  264SOL     OW  790   0.645   0.963   0.788  0.0265  0.0600  0.1291
  264SOL    HW1  791   0.730   0.988   0.834 -1.0650 -0.6282 -1.8646
  264SOL    HW2  792   0.663   0.946   0.691  0.8067 -0.6011  1.2577
  265SOL     OW  793   0.714   2.143   0.287  0.1087  0.0574 -0.0277
  265SOL    HW1  794   0.797   2.105   0.329 -0.3666  0.5780 -1.2390
  265SOL    HW2  795   0.633   2.128   0.353 -0.4216 -1.0848  0.6615
  266SOL     OW  796   1.384   0.507   0.919 -0.1629  0.4185  0.3083
  266SOL    HW1  797   1.477   0.486   0.962  2.1644 -0.2190 -0.6796
  266SOL    HW2  798   1.405   0.558   0.829 -1.2028  2.0035 -0.5386
  267SOL     OW  799   2.736   0.934   0.137 -0.1892 -0.3649  0.0605
  267SOL    HW1  800   2.824   0.958   0.187  0.3576  0.9161 -1.1354
  267SOL    HW2  801   2.752   0.867   0.063 -0.2511 -1.1311  1.6764
  268SOL     OW  802   1.963   0.241   0.360 -0.1407 -0.2425 -0.3668
  268SOL    HW1  803   1.945   0.203   0.452 -0.5724 -0.2698 -0.7679
  268SOL    HW2  804   1.874   0.256   0.308  0.3196  2.4707  4.0825
  269SOL     OW  805   1.895   0.945   2.777 -0.1322 -0.0130  0.4077
  269SOL    HW1  806   1.841   0.875   2.733  0.0751  2.8992  0.3510
  269SOL    HW2  807   1.934   0.906   2.861 -0.9276  2.9250  0.1556
  270SOL     OW  808   0.442   0.843   3.029 -0.0621 -0.1239 -0.3109
  270SOL    HW1  809   0.435   0.782   2.946  1.0054 -0.2241  2.3670
  270SOL    HW2  810   0.369   0.828   0.008  0.3605 -1.4796  1.5036
  271SOL     OW  811   2.986   0.688   0.257 -0.7344 -0.2136  0.6691
  271SOL    HW1  812   2.985   0.779   0.219  2.5354 -0.2511 -1.3094
  271SOL    HW2  813   3.072   0.674   0.308  1.9612  0.5269  1.3917
  272SOL     OW  814   2.942   1.944   2.840 -0.5333  0.2306 -0.5359
  272SOL    HW1  815   2.971   1.959   2.743 -0.0224  0.8310  0.8862
  272SOL    HW2  816   2.844   1.957   2.845  2.3097 -0.3939 -2.4891
  273SOL     OW  817   2.600   3.060   0.510  0.1228 -0.6536 -0.2351
  273SOL    HW1  818   2.538   0.036   0.459  1.2720 -0.9561  0.3128
  273SOL    HW2  819   2.700   3.085   0.496 -0.6055 -1.7361 -0.5856
  274SOL     OW  820   0.295   2.164   0.714  0.2972  0.1962 -0.2871
  274SOL    HW1  821   0.261   2.099   0.640 -1.5010 -2.0686 -2.4491
  274SOL    HW2  822   0.337   2.252   0.679  0.7249  0.9092 -0.5239
  275SOL     OW  823   2.452   1.651   0.517 -0.6178  0.5550 -0.1932
  275SOL    HW1  824   2.441   1.695   0.605  1.5942 -0.1740 -1.1151
  275SOL    HW2  825   2.426   1.553   0.513 -0.4815 -0.4006 -1.9197
  276SOL     OW  826   0.242   1.096   2.182 -0.1297 -0.0528  0.3177
  276SOL    HW1  827   0.313   1.162   2.149  2.2976  2.1982 -1.9411
  276SOL    HW2  828   0.154   1.105   2.131 -4.4359  1.6523  0.0740
  277SOL     OW  829   1.966   2.724   1.206  0.0208 -0.2082 -0.0421
  277SOL    HW1  830   2.035   2.649   1.193 -0.1222  1.1817 -2.1888
  277SOL    HW2  831   1.935   2.768   1.119  0.3043  3.1640  2.3888
  278SOL     OW  832   1.264   3.084   2.084  0.3370 -0.3977 -0.2130
  278SOL    HW1  833   1.168   0.007   2.054  1.5258  1.0896  1.5176
  278SOL    HW2  834   1.307   0.083   2.114  0.1594  2.5608 -1.5829
  279SOL     OW  835   1.656   1.885   0.495 -0.5989  0.2885  0.3360
  279SOL    HW1  836   1.594   1.958   0.533  0.5278  1.5258 -3.1662
  279SOL    HW2  837   1.657   1.883   0.393 -0.6807  0.5266 -1.8643
  280SOL     OW  838   2.972   1.828   0.987 -0.1869 -0.8450 -0.1349
  280SOL    HW1  839   3.000   1.829   0.889 -1.5572 -0.4374  3.0911
  280SOL    HW2  840   2.901   1.757   0.996  2.7047  1.9348  0.2681
  281SOL     OW  841   0.053   0.822   2.396  0.0881 -0.2821 -0.5456
  281SOL    HW1  842   3.065   0.799   2.337  0.8754  2.5006  2.9444
  281SOL    HW2  843   0.049   0.783   2.488 -1.1506  1.6812 -1.5784
  282SOL     OW  844   0.736   0.883   0.535  0.1058  0.3106 -0.1678
  282SOL    HW1  845   0.673   0.872   0.459  1.4011 -1.0228 -2.1831
  282SOL    HW2  846   0.821   0.932   0.509 -0.8396  0.5000 -0.6246
  283SOL     OW  847   1.645   2.266   3.065 -0.0852 -0.1907  0.1471
  283SOL    HW1  848   1.564   2.296   0.028 -1.0492 -0.2130 -4.9266
  283SOL    HW2  849   1.685   2.347   3.017  1.2692  0.7724 -1.6707
  284SOL     OW  850   1.259   0.509   0.190  0.7411  0.0548  0.3656
  284SOL    HW1  851   1.294   0.415   0.203  0.2359 -0.5679 -0.9349
  284SOL    HW2  852   1.332   0.578   0.157 -1.5221  0.7296  0.9459
  285SOL     OW  853   2.261   1.233   2.753 -0.1262  0.2696 -0.0991
  285SOL    HW1  854   2.190   1.304   2.734 -0.5482  0.3089  1.9298
  285SOL    HW2  855   2.296   1.193   2.666  1.5307 -0.8528  1.7791
  286SOL     OW  856   1.382   2.720   1.314 -0.5553 -0.4065  0.0965
  286SOL    HW1  857   1.378   2.781   1.396  1.0778  0.3814 -0.7821
  286SOL    HW2  858   1.348   2.627   1.337  0.8339  1.4892  1.5958
  287SOL     OW  859   0.933   0.829   0.734 -0.0351 -0.1634  0.1151
  287SOL    HW1  860   0.976   0.735   0.750 -1.3173 -1.6336  1.5192
  287SOL    HW2  861   0.875   0.832   0.654  1.7018  1.5337  0.2128
  288SOL     OW  862   1.199   2.669   0.128  0.1855 -0.1422 -0.5165
  288SOL    HW1  863   1.167   2.661   0.031 -0.4976  1.0381 -3.3815
  288SOL    HW2  864   1.294   2.630   0.144 -0.2803 -1.2634 -0.3939
  289SOL     OW  865   0.332   1.567   1.423 -0.4132 -0.0973 -0.4993
  289SOL    HW1  866   0.403   1.565   1.501 -0.5078 -2.2196 -2.8176
  289SOL    HW2  867   0.357   1.511   1.347  2.3885  0.5997  0.8628
  290SOL     OW  868   1.807   2.422   0.955  0.4529  0.1582  0.1532
  290SOL    HW1  869   1.751   2.451   1.039  0.8292 -0.5197  1.6377
  290SOL    HW2  870   1.775   2.466   0.867  1.1254  0.1058  0.6241
  291SOL     OW  871   1.934   2.985   2.997 -0.3304 -0.1433  0.4292
  291SOL    HW1  872   2.017   3.037   2.966 -0.6381 -0.6762  0.0913
  291SOL    HW2  873   1.973   2.900   3.045 -0.5065 -0.5214  0.0844
  292SOL     OW  874   0.847   0.548   2.067  0.1680 -0.2378 -0.4068
  292SOL    HW1  875   0.909   0.616   2.019 -2.1876  2.7622  1.1129
  292SOL    HW2  876   0.867   0.528   2.167  0.0392 -2.9519  3.2245
  293SOL     OW  877   2.039   2.361   0.806  0.5105 -0.2767  0.2315
  293SOL    HW1  878   1.994   2.270   0.789 -1.7567  0.1715 -2.8836
  293SOL    HW2  879   1.976   2.423   0.855 -0.2603  3.6249  2.4637
  294SOL     OW  880   0.490   0.718   2.267  0.1942 -0.2883 -0.1506
  294SOL    HW1  881   0.421   0.786   2.295 -0.6229 -0.6564  3.2967
  294SOL    HW2  882   0.479   0.633   2.319 -0.6310  0.2525 -0.1621
  295SOL     OW  883   1.430   1.678   0.972 -0.1949  0.9236  0.0152
  295SOL    HW1  884   1.490   1.627   1.040  1.8352 -0.2774  1.9781
  295SOL    HW2  885   1.465   1.774   0.956 -0.9655  4.5839 -0.0143
  296SOL     OW  886   2.375   1.852   0.337 -0.3240 -0.4160 -0.3584
  296SOL    HW1  887   2.417   1.937   0.371  0.6095 -1.4911 -1.5548
  296SOL    HW2  888   2.386   1.777   0.404 -1.8131  0.8886 -0.8130
  297SOL     OW  889   2.193   0.186   0.235 -0.2219 -0.1234 -0.4738
  297SOL    HW1  890   2.108   0.206   0.292 -2.7072  1.5897  0.5106
  297SOL    HW2  891   2.171   0.187   0.136  0.4994  0.6512  1.0755
  298SOL     OW  892   1.007   2.216   2.578  0.1712 -0.2753  0.3027
  298SOL    HW1  893   0.940   2.213   2.651  0.7917 -1.7687  0.9751
  298SOL    HW2  894   1.056   2.305   2.586 -0.6055 -3.3537 -0.7361
  299SOL     OW  895   1.310   2.497   2.138  0.4202  0.5007  0.0424
  299SOL    HW1  896   1.316   2.588   2.188 -1.6495  0.8014  0.2337
  299SOL    HW2  897   1.342   2.422   2.204  2.2033 -1.1072  1.1663
  300SOL     OW  898   2.609   0.029   2.651  0.0207 -0.6869  0.6797
  300SOL    HW1  899   2.618   0.120   2.691 -1.4063 -1.9842 -2.8425
  300SOL    HW2  900   2.626   0.044   2.552 -1.7126  0.6930  0.4777
  301SOL     OW  901   1.368   0.658   2.278  0.1378 -0.9379  0.7099
  301SOL    HW1  902   1.410   0.720   2.213 -3.0917 -0.9545  0.0518
  301SOL    HW2  903   1.326   0.583   2.227  1.6205  5.7708 -2.3949
  302SOL     OW  904   2.622   2.558   0.334  0.3182 -0.4731  0.3570
  302SOL    HW1  905   2.527   2.567   0.293 -5.3016 -0.7542 -0.7537
  302SOL    HW2  906   2.635   2.636   0.400 -0.1861 -2.8331 -1.2239
  303SOL     OW  907   2.846   2.346   2.066  0.6435  0.0856 -0.1827
  303SOL    HW1  908   2.878   2.292   1.987  2.0348  2.1123  1.3510
  303SOL    HW2  909   2.926   2.402   2.102  0.5841  1.8933  0.3766
  304SOL     OW  910   2.828   0.703   1.803 -0.1010  0.4356 -0.2938
  304SOL    HW1  911   2.775   0.778   1.848 -0.1996  1.2610 -1.1576
  304SOL    HW2  912   2.912   0.685   1.858  2.3062  1.8026 -1.9226
  305SOL     OW  913   0.584   1.859   1.546 -0.3229 -0.5053  0.4591
  305SOL    HW1  914   0.513   1.890   1.484  1.8246 -0.4715  2.5193
  305SOL    HW2  915   0.651   1.793   1.504 -0.2581  0.4983  0.2317
  306SOL     OW  916   2.970   1.043   1.726 -0.0272 -0.0597 -0.3005
  306SOL    HW1  917   2.985   0.991   1.815  1.3398  2.0343  3.5683
  306SOL    HW2  918   3.007   0.992   1.645 -1.3760  1.0201 -1.8211
  307SOL     OW  919   1.185   0.537   1.860 -0.1031  0.2296 -0.3857
  307SOL    HW1  920   1.130   0.614   1.910 -1.7014  5.2943  2.7549
  307SOL    HW2  921   1.179   0.549   1.758  0.3781  0.3616 -0.4854
  308SOL     OW  922   2.839   0.806   1.120 -0.0004 -0.5517 -0.0714
  308SOL    HW1  923   2.846   0.769   1.215 -1.4086 -0.8312  0.4004
  308SOL    HW2  924   2.763   0.776   1.066  1.0270  1.6497  2.0724
  309SOL     OW  925   2.167   1.260   0.939  0.3244 -0.6216  0.7358
  309SOL    HW1  926   2.080   1.292   0.914  1.1365  0.1308 -1.6742
  309SOL    HW2  927   2.185   1.273   1.043 -0.5709 -0.5676  3.1902
  310SOL     OW  928   2.913   1.912   2.554 -0.2243 -0.6302 -0.0776
  310SOL    HW1  929   2.971   1.857   2.487  0.2956  2.0868 -2.8986
  310SOL    HW2  930   2.814   1.879   2.564 -1.0961 -1.8609  0.1828
  311SOL     OW  931   2.981   2.686   2.621 -0.1670  0.2659 -0.4309
  311SOL    HW1  932   2.906   2.750   2.583 -1.1529  1.8720  0.3655
  311SOL    HW2  933   2.944   2.596   2.661  1.8106 -4.2505  2.9540
  312SOL     OW  934   2.115   1.893   0.160 -0.7976 -0.1098 -0.0764
  312SOL    HW1  935   2.210   1.870   0.179 -3.6852 -1.1052 -0.6866
  312SOL    HW2  936   2.078   1.810   0.116  0.7743  2.8653  3.5636
  313SOL     OW  937   2.596   3.024   0.773  0.1586  0.0937  0.0342
  313SOL    HW1  938   2.684   2.972   0.789  0.3608  1.2271 -0.1013
  313SOL    HW2  939   2.587   3.040   0.673 -0.6138  0.7347  2.0646
  314SOL     OW  940   1.492   1.032   0.440  0.0863  0.1896 -0.4832
  314SOL    HW1  941   1.546   0.966   0.382  1.2413  1.1987 -1.1735
  314SOL    HW2  942   1.468   1.113   0.381 -1.8117  3.0287 -1.2350
  315SOL     OW  943   1.359   2.575   1.879 -0.0701  0.5384  0.2567
  315SOL    HW1  944   1.321   2.554   1.968 -2.2839 -0.1287 -0.9118
  315SOL    HW2  945   1.385   2.671   1.866 -0.3522  0.4976  0.0736
  316SOL     OW  946   0.075   0.891   0.391  0.5693 -0.1103 -0.9745
  316SOL    HW1  947   0.105   0.801   0.361  0.0050  3.3801  3.2676
  316SOL    HW2  948   0.005   0.885   0.471 -0.9555  0.8111  2.0295
  317SOL     OW  949   0.432   3.070   0.256  0.0177 -0.2241  0.2705
  317SOL    HW1  950   0.379   3.060   0.343  1.3804  0.1099  0.2991
  317SOL    HW2  951   0.370   3.045   0.178  1.3595  2.2684  2.7131
  318SOL     OW  952   2.292   2.419   0.496 -0.7026 -0.1239 -0.1834
  318SOL    HW1  953   2.193   2.396   0.493  2.1131 -0.9103 -0.8484
  318SOL    HW2  954   2.313   2.483   0.416  0.7093 -1.2967 -0.3918
  319SOL     OW  955   0.966   1.699   3.074 -0.4403  0.9404  0.1625
  319SOL    HW1  956   0.870   1.723   3.088  1.7318  1.4663  1.0608
  319SOL    HW2  957   0.976   1.616   3.010  1.1666 -1.7540  1.9115
  320SOL     OW  958   0.208   2.320   2.178 -0.0846 -0.3074 -0.0400
  320SOL    HW1  959   0.205   2.225   2.136 -1.1828  0.3184  0.8876
  320SOL    HW2  960   0.273   2.379   2.127  2.7505 -1.4032  0.9555
  321SOL     OW  961   1.764   2.736   2.676  0.5743  0.2524  0.4016
  321SOL    HW1  962   1.713   2.765   2.596 -0.0714  1.1040  4.0850
  321SOL    HW2  963   1.720   2.788   2.752  1.4400  0.3938  1.4074
  322SOL     OW  964   2.737   1.393   2.277 -0.2816  0.0341 -0.0241
  322SOL    HW1  965   2.740   1.494   2.289  1.2085 -0.8124  2.4543
  322SOL    HW2  966   2.639   1.362   2.268 -0.6279 -1.9635  2.0924
  323SOL     OW  967   2.226   1.281   0.655 -0.0141  0.7045 -0.1456
  323SOL    HW1  968   2.203   1.251   0.751 -1.9514 -2.6935  0.1771
  323SOL    HW2  969   2.322   1.255   0.633  2.6312 -0.6990  0.9789
  324SOL     OW  970   2.956   3.022   2.522  0.3119  0.1774  0.1323
  324SOL    HW1  971   2.912   0.018   2.563  2.6595  3.3291 -0.2813
  324SOL    HW2  972   2.890   2.945   2.523 -3.5957  4.5296  3.6424
  325SOL     OW  973   1.243   0.674   2.837 -0.5020 -0.6196  0.2689
  325SOL    HW1  974   1.260   0.668   2.736 -0.0127  0.1689  1.2678
  325SOL    HW2  975   1.141   0.696   2.847 -1.3126  2.2417 -1.9176
  326SOL     OW  976   2.277   2.768   1.755  0.4543  0.5599  0.3543
  326SOL    HW1  977   2.262   2.840   1.683 -3.1754  1.6252 -0.7546
  326SOL    HW2  978   2.351   2.799   1.815 -1.8745  2.7931  2.7346
  327SOL     OW  979   2.197   0.238   3.044  0.8836  0.2232  0.5272
  327SOL    HW1  980   2.217   0.275   2.952  0.8730  0.8421  2.0090
  327SOL    HW2  981   2.211   0.321   0.015  1.0660 -0.8700 -1.1953
  328SOL     OW  982   0.247   1.270   2.494  0.5321  0.5841 -0.1732
  328SOL    HW1  983   0.187   1.189   2.502 -0.3375 -0.8671  1.4905
  328SOL    HW2  984   0.211   1.314   2.412  0.9967 -1.7212  0.0579
  329SOL     OW  985   2.072   3.017   1.806  0.2567  0.3134  0.0303
  329SOL    HW1  986   2.048   2.917   1.809  1.7528  0.4860  2.2281
  329SOL    HW2  987   2.117   3.054   1.893 -0.1654  0.8606 -1.0069
  330SOL     OW  988   2.831   1.437   1.182 -0.0599  0.4594  0.1696
  330SOL    HW1  989   2.775   1.357   1.147 -2.2004 -0.7904  0.1262
  330SOL    HW2  990   2.888   1.404   1.263 -0.5241 -0.8842  0.5431
  331SOL     OW  991   0.521   1.646   2.261  0.1392 -0.8014  0.1628
  331SOL    HW1  992   0.601   1.696   2.301 -0.2918 -0.2824 -0.7210
  331SOL    HW2  993   0.527   1.641   2.157  0.0646  1.2296  1.1878
  332SOL     OW  994   0.212   2.722   1.698  0.1706  0.2022 -0.1976
  332SOL    HW1  995   0.241   2.774   1.778 -0.1059 -2.1067 -0.0815
  332SOL    HW2  996   0.131   2.766   1.655  1.0186 -0.6862  1.6631
  333SOL     OW  997   2.206   2.593   1.184 -0.3024  0.0154  0.2384
  333SOL    HW1  998   2.272   2.582   1.263  0.9572  0.6639 -0.3835
  333SOL    HW2  999   2.223   2.520   1.115  1.3320  0.2535 -0.7709
  334SOL     OW 1000   0.637   1.838   0.834  0.1590 -0.2936  0.1461
  334SOL    HW1 1001   0.715   1.769   0.848  2.4401 -2.2501 -0.3777
  334SOL    HW2 1002   0.663   1.926   0.872  0.6038  1.2447 -2.6587
  335SOL     OW 1003   0.125   2.488   2.993  0.2834  0.0053  0.3162
  335SOL    HW1 1004   0.115   2.428   2.913 -0.7176 -0.1315  3.9095
  335SOL    HW2 1005   0.204   2.556   2.985  3.3476  0.1962  1.4937
  336SOL     OW 1006   0.607   3.044   2.299  0.2169  0.0590 -0.3364
  336SOL    HW1 1007   0.522   3.057   2.354 -0.7382 -2.5704  0.2028
  336SOL    HW2 1008   0.631   2.948   2.271 -0.0952 -1.4948  1.4217
  337SOL     OW 1009   2.405   2.058   2.835  0.1056  0.1875  0.0570
  337SOL    HW1 1010   2.423   2.010   2.923  3.5371 -0.3650 -0.7188
  337SOL    HW2 1011   2.333   2.001   2.792  0.1178 -1.4955  1.5995
  338SOL     OW 1012   0.977   1.543   1.059 -0.1302  0.1870 -0.3453
  338SOL    HW1 1013   0.934   1.554   0.967  0.1139 -1.5259 -1.0332
  338SOL    HW2 1014   1.052   1.610   1.064 -0.6821  0.1944 -1.0843
  339SOL     OW 1015   0.124   0.771   1.713 -0.1433 -0.0557  0.4246
  339SOL    HW1 1016   0.077   0.746   1.797 -0.5861  1.4018 -0.1902
  339SOL    HW2 1017   0.063   0.827   1.653 -0.2701  1.6852 -0.2823
  340SOL     OW 1018   1.464   2.568   0.149 -0.5905  0.2764 -0.0158
  340SOL    HW1 1019   1.481   2.591   0.245  1.0861 -1.4049  0.5370
  340SOL    HW2 1020   1.498   2.643   0.088 -0.3814 -1.3449  0.7641
  341SOL     OW 1021   1.897   1.295   0.818  0.4231  0.0774  0.0280
  341SOL    HW1 1022   1.826   1.287   0.891 -1.5363 -0.0763  0.3629
  341SOL    HW2 1023   1.863   1.343   0.732 -1.5593 -0.8157 -0.5132
  342SOL     OW 1024   2.657   2.917   0.205  0.9472  0.3855 -0.9166
  342SOL    HW1 1025   2.676   2.863   0.288  0.3073 -1.0772 -0.9519
  342SOL    HW2 1026   2.622   2.859   0.132  1.8129  1.9418 -0.4082
  343SOL     OW 1027   1.407   2.096   1.235 -0.2755 -0.0143 -0.1244
  343SOL    HW1 1028   1.421   2.196   1.224 -0.3153  1.4736  2.2904
  343SOL    HW2 1029   1.308   2.072   1.231  2.2492 -0.8890 -0.2405
  344SOL     OW 1030   2.235   1.982   0.621  0.2128  0.2798 -0.9729
  344SOL    HW1 1031   2.168   1.954   0.548 -0.1371  0.7266 -4.5041
  344SOL    HW2 1032   2.199   1.998   0.717  1.1595  0.7648  1.7793
  345SOL     OW 1033   2.651   2.428   0.063 -0.1514 -0.0677  0.4093
  345SOL    HW1 1034   2.621   2.332   0.093 -2.2784  0.0368 -0.3430
  345SOL    HW2 1035   2.661   2.492   0.138 -1.6760  0.3564  0.9334
  346SOL     OW 1036   2.800   1.394   0.850 -0.2133 -0.1245 -0.5166
  346SOL    HW1 1037   2.773   1.474   0.906 -0.3274  0.0430 -1.3833
  346SOL    HW2 1038   2.889   1.355   0.881  0.2362 -1.0710 -2.2424
  347SOL     OW 1039   1.759   2.216   1.300  0.0704  0.5185 -0.1801
  347SOL    HW1 1040   1.698   2.295   1.322 -0.4265 -3.7695 -1.1585
  347SOL    HW2 1041   1.824   2.234   1.220 -1.4397 -3.6871 -1.0780
  348SOL     OW 1042   0.707   1.724   3.030 -0.0677  0.0921  0.2464
  348SOL    HW1 1043   0.712   1.778   2.944  0.0252  0.4708 -0.9989
  348SOL    HW2 1044   0.615   1.715   3.066  2.3673  1.9381 -0.7576
  349SOL     OW 1045   2.328   1.358   1.646 -0.5501 -0.1101  0.5259
  349SOL    HW1 1046   2.275   1.300   1.580  1.5294  0.9680 -0.5911
  349SOL    HW2 1047   2.299   1.458   1.642  0.1521  1.7481  2.9387
  350SOL     OW 1048   0.064   2.559   0.933  0.0798  0.0566 -0.1100
  350SOL    HW1 1049   3.076   2.577   0.999 -3.6336  0.3710  0.3778
  350SOL    HW2 1050   0.073   2.464   0.912  0.2633 -0.5072 -0.1465
  351SOL     OW 1051   0.315   0.425   2.213 -0.1092  0.6552  0.3096
  351SOL    HW1 1052   0.391   0.427   2.281  1.8539  2.6633 -0.6335
  351SOL    HW2 1053   0.316   0.341   2.152 -4.8943 -1.1333 -0.8708
  352SOL     OW 1054   0.520   1.973   1.229 -0.1430  0.7235 -0.3539
  352SOL    HW1 1055   0.531   1.998   1.130  2.2327 -1.8359 -2.1246
  352SOL    HW2 1056   0.463   1.890   1.240 -2.6938 -0.0675  0.0505
  353SOL     OW 1057   1.547   1.796   2.530  0.7832  0.3143  0.4091
  353SOL    HW1 1058   1.463   1.821   2.478 -0.8571  1.2032 -0.6234
  353SOL    HW2 1059   1.573   1.699   2.508 -0.6479 -0.5819 -1.5908
  354SOL     OW 1060   1.265   0.579   1.170  0.4309  0.4101 -0.7647
  354SOL    HW1 1061   1.297   0.577   1.073 -0.7137 -2.0771  0.4446
  354SOL    HW2 1062   1.190   0.649   1.179 -1.4175  2.0624 -0.1895
  355SOL     OW 1063   2.618   0.968   0.695 -0.1973  0.2225  0.0210
  355SOL    HW1 1064   2.671   0.899   0.643 -0.1631 -0.8802 -2.4935
  355SOL    HW2 1065   2.678   1.020   0.761  1.1438  2.1407  1.2408
  356SOL     OW 1066   2.441   1.744   2.411  0.0058  0.5793 -0.1227
  356SOL    HW1 1067   2.391   1.830   2.418  0.4631 -0.2216 -2.3572
  356SOL    HW2 1068   2.397   1.662   2.455  1.0084 -1.4768  1.2123
  357SOL     OW 1069   0.583   2.509   1.289  0.6225  0.0814  0.3430
  357SOL    HW1 1070   0.687   2.504   1.270  3.4044 -2.4033 -1.4483
  357SOL    HW2 1071   0.530   2.450   1.217  0.0488 -0.2182 -0.2102
  358SOL     OW 1072   2.325   0.735   1.802 -0.2521  0.0903  0.0722
  358SOL    HW1 1073   2.419   0.702   1.772  1.5811 -2.7929 -2.2912
  358SOL    HW2 1074   2.253   0.726   1.727 -2.8083 -3.2347 -1.1940
  359SOL     OW 1075   2.299   2.319   2.829  0.1938 -0.4025 -0.2277
  359SOL    HW1 1076   2.340   2.230   2.800 -2.9560  2.2075 -1.3346
  359SOL    HW2 1077   2.195   2.314   2.837  0.5208  0.1209  0.0885
  360SOL     OW 1078   1.951   0.808   0.910 -0.1412  0.7402  0.9653
  360SOL    HW1 1079   1.999   0.864   0.981 -1.1992  2.0673 -1.8048
  360SOL    HW2 1080   1.875   0.862   0.873 -0.2135  0.9256 -0.4997
  361SOL     OW 1081   2.303   0.167   0.878  0.0275 -0.1220 -0.2804
  361SOL    HW1 1082   2.317   0.164   0.777 -0.9578 -0.8855  0.7477
  361SOL    HW2 1083   2.230   0.104   0.911 -0.8352  0.1598  1.4118
  362SOL     OW 1084   1.195   1.251   0.449  0.0991 -0.2471  0.5333
  362SOL    HW1 1085   1.247   1.248   0.537  1.2734  0.6163 -1.9542
  362SOL    HW2 1086   1.164   1.345   0.432  0.0593 -1.4815  0.8811
  363SOL     OW 1087   2.326   1.565   2.584 -0.0012 -0.3661 -0.1919
  363SOL    HW1 1088   2.384   1.487   2.599 -2.1782  2.6313 -0.4277
  363SOL    HW2 1089   2.305   1.609   2.674 -1.5470 -1.4285  0.8865
  364SOL     OW 1090   0.905   0.411   1.647  0.3070  0.3364 -0.5933
  364SOL    HW1 1091   0.993   0.460   1.651  0.3282 -0.7030  0.2102
  364SOL    HW2 1092   0.882   0.364   1.735  1.3828 -1.9485  4.4083
  365SOL     OW 1093   0.271   3.016   0.458  0.1834  0.2404  0.3489
  365SOL    HW1 1094   0.294   2.916   0.454 -3.0253  2.2717 -1.2698
  365SOL    HW2 1095   0.172   3.034   0.479 -0.1232 -1.4032 -1.3137
  366SOL     OW 1096   2.815   1.436   3.010  0.2783  0.3139 -0.0798
  366SOL    HW1 1097   2.835   1.429   0.023  1.4512 -0.4123 -1.2991
  366SOL    HW2 1098   2.849   1.349   2.969 -3.9537  0.1791  2.3730
  367SOL     OW 1099   2.860   2.465   2.716  0.1878 -0.0744 -0.2035
  367SOL    HW1 1100   2.772   2.526   2.708 -0.4584  1.5773  0.0262
  367SOL    HW2 1101   2.865   2.440   2.814 -3.5175  0.6872 -0.2545
  368SOL     OW 1102   3.086   1.973   0.749 -0.1744 -0.2060 -0.1358
  368SOL    HW1 1103   3.027   2.052   0.717 -0.9755  3.1582 -1.4049
  368SOL    HW2 1104   0.070   1.957   0.677  0.8869 -1.3749  1.9588
  369SOL     OW 1105   0.668   0.111   0.268  0.0614  0.1476 -0.3053
  369SOL    HW1 1106   0.582   0.060   0.251 -0.6078 -1.2404  2.5942
  369SOL    HW2 1107   0.727   0.064   0.340  2.3077 -1.8335  0.6523
  370SOL     OW 1108   0.378   0.983   0.810 -0.7690  0.0539  0.1437
  370SOL    HW1 1109   0.384   1.082   0.791  0.6943  0.6821 -2.4087
  370SOL    HW2 1110   0.479   0.961   0.804  0.9327  1.0551  0.5155
  371SOL     OW 1111   2.223   2.716   0.615 -0.1036 -0.0301 -0.1750
  371SOL    HW1 1112   2.266   2.632   0.655  3.3553  0.8665  1.8105
  371SOL    HW2 1113   2.154   2.685   0.549 -0.1465  0.9653  2.8087
  372SOL     OW 1114   0.171   1.047   2.789 -0.2762 -0.1309 -0.5622
  372SOL    HW1 1115   0.134   1.078   2.703 -2.3093 -2.6731  2.7032
  372SOL    HW2 1116   0.223   1.125   2.834  1.3515  2.0416 -1.0907
  373SOL     OW 1117   2.679   1.764   0.717  0.3195  0.0614  0.0180
  373SOL    HW1 1118   2.750   1.701   0.750  0.5099 -2.1176  0.7649
  373SOL    HW2 1119   2.664   1.849   0.768 -2.3720  1.6058 -4.0105
  374SOL     OW 1120   0.327   2.693   0.155 -0.0095  0.0002 -0.4939
  374SOL    HW1 1121   0.310   2.593   0.161  2.7688 -1.4671 -0.4153
  374SOL    HW2 1122   0.355   2.725   0.063 -0.6670  2.1474  2.9725
  375SOL     OW 1123   0.309   0.520   0.185 -0.2835  0.3167  0.0484
  375SOL    HW1 1124   0.391   0.463   0.205  0.0438 -1.2732  1.0957
  375SOL    HW2 1125   0.250   0.478   0.112  0.4432 -1.1550  1.3799
  376SOL     OW 1126   0.392   2.976   1.852 -0.2021 -0.1943 -0.1796
  376SOL    HW1 1127   0.496   2.969   1.850  1.4359 -1.7023  1.6234
  376SOL    HW2 1128   0.363   3.071   1.856  0.8036 -0.6145 -0.9827
  377SOL     OW 1129   1.223   2.036   2.499 -0.0085  0.7390 -0.1910
  377SOL    HW1 1130   1.149   2.096   2.535  1.3952  2.9831 -1.3658
  377SOL    HW2 1131   1.298   2.091   2.458  0.3115  0.1946 -0.2870
  378SOL     OW 1132   1.264   0.664   0.535  0.2983 -0.5655  0.0379
  378SOL    HW1 1133   1.211   0.640   0.453  3.0959  3.5941  2.4779
  378SOL    HW2 1134   1.254   0.766   0.544 -1.5942 -0.1887 -1.5342
  379SOL     OW 1135   0.963   1.708   0.275  0.3795  0.4041  0.1776
  379SOL    HW1 1136   0.932   1.724   0.180  1.1008 -0.5404  0.9129
  379SOL    HW2 1137   0.907   1.636   0.323 -1.1802  0.4030  1.4400
  380SOL     OW 1138   0.061   1.867   1.689  0.0489 -0.0820  0.1164
  380SOL    HW1 1139   0.021   1.832   1.602 -0.0888  1.1059  0.6478
  380SOL    HW2 1140   0.145   1.928   1.671  2.8691  1.7538 -0.0827
  381SOL     OW 1141   0.134   1.308   1.743 -0.0056 -0.0836  0.1663
  381SOL    HW1 1142   0.078   1.315   1.661 -0.8163 -0.0687  0.2164
  381SOL    HW2 1143   0.182   1.219   1.734  2.3369  0.1349 -1.1148
  382SOL     OW 1144   2.660   2.225   0.634  0.7514  0.2627 -0.2726
  382SOL    HW1 1145   2.561   2.218   0.650  2.1178  1.0531  0.3476
  382SOL    HW2 1146   2.677   2.275   0.549 -1.2200 -1.0046  0.8156
  383SOL     OW 1147   2.074   1.891   2.438  0.3310 -0.2439  0.0475
  383SOL    HW1 1148   2.052   1.852   2.344  0.1900 -1.9847 -3.5748
  383SOL    HW2 1149   2.166   1.932   2.442  2.0404 -0.0402  2.0424
  384SOL     OW 1150   0.709   1.792   2.403 -0.2776  0.7402  0.0769
  384SOL    HW1 1151   0.694   1.895   2.413 -0.0210  0.3414  0.9364
  384SOL    HW2 1152   0.809   1.779   2.423  1.2335  2.9340  0.1759
  385SOL     OW 1153   2.935   2.228   0.967  0.1391  0.2956 -0.7717
  385SOL    HW1 1154   2.997   2.266   0.896 -0.7553 -1.2291  0.1483
  385SOL    HW2 1155   2.986   2.160   1.030  1.6313  0.1454  1.4898
  386SOL     OW 1156   1.928   0.708   0.204  0.2436  0.6004  0.3835
  386SOL    HW1 1157   1.843   0.723   0.255  1.0678  1.1637 -0.1414
  386SOL    HW2 1158   1.995   0.785   0.217 -0.6614  1.2120  0.4359
  387SOL     OW 1159   0.230   1.062   1.741 -0.3549 -0.3415  0.1955
  387SOL    HW1 1160   0.188   0.973   1.769 -2.4134 -2.0542 -0.2760
  387SOL    HW2 1161   0.321   1.077   1.790  2.2321  1.8334 -0.3591
  388SOL     OW 1162   2.608   0.961   2.203 -0.2422  0.3523 -0.6949
  388SOL    HW1 1163   2.550   1.041   2.181  0.5981  0.1576 -0.3482
  388SOL    HW2 1164   2.583   0.912   2.288  1.0758  0.7738 -0.4534
  389SOL     OW 1165   1.682   0.909   2.265 -0.4384  0.5607  0.1303
  389SOL    HW1 1166   1.609   0.896   2.199  3.1956  2.8980 -0.9536
  389SOL    HW2 1167   1.771   0.876   2.227 -1.2190  0.9698  0.5971
  390SOL     OW 1168   1.863   2.575   0.118 -0.2617 -0.6783  0.5827
  390SOL    HW1 1169   1.809   2.595   0.202  3.0998 -1.0986 -0.0980
  390SOL    HW2 1170   1.797   2.533   0.056  1.0630  0.8209  0.9492
  391SOL     OW 1171   1.954   2.244   1.111  0.0015  0.9070 -0.5399
  391SOL    HW1 1172   2.048   2.266   1.147 -1.0929 -0.2256 -0.5590
  391SOL    HW2 1173   1.917   2.305   1.038  0.9837 -1.2667 -0.1019
  392SOL     OW 1174   3.032   2.450   1.461  0.1913  0.3635 -0.5329
  392SOL    HW1 1175   0.019   2.516   1.439 -1.7375  2.5109 -2.2508
  392SOL    HW2 1176   2.988   2.396   1.386 -0.1056 -0.7683  0.8737
  393SOL     OW 1177   1.977   1.883   2.979  0.0796 -0.2936 -0.2968
  393SOL    HW1 1178   1.989   1.954   3.053  0.7869 -0.1356  0.7198
  393SOL    HW2 1179   1.980   1.919   2.887  0.2467 -1.9239  0.4641
  394SOL     OW 1180   0.292   0.047   2.976  0.5354  0.4523 -0.2433
  394SOL    HW1 1181   0.292   3.056   3.043 -0.3536 -0.2677  1.3925
  394SOL    HW2 1182   0.384   0.065   2.936  0.6692 -0.5444  2.4818
  395SOL     OW 1183   1.493   1.030   1.289  0.8096  0.4462 -0.5901
  395SOL    HW1 1184   1.499   1.099   1.218 -1.4138 -2.0230  0.7004
  395SOL    HW2 1185   1.556   0.954   1.274 -3.4762  1.0798  1.8670
  396SOL     OW 1186   1.613   0.862   0.218 -0.0933  0.2218  1.0076
  396SOL    HW1 1187   1.692   0.922   0.186  1.3779 -0.5995  0.2734
  396SOL    HW2 1188   1.641   0.802   0.292 -2.3065 -0.1077 -1.9047
  397SOL     OW 1189   3.085   0.823   2.850  0.0554 -0.0920 -0.3430
  397SOL    HW1 1190   3.034   0.806   2.762  2.8599  1.1749  2.2381
  397SOL    HW2 1191   0.085   0.873   2.825 -0.7971 -1.4546  0.1400
  398SOL     OW 1192   1.373   0.236   3.083 -0.2057 -0.1228  0.3111
  398SOL    HW1 1193   1.442   0.186   0.039 -1.5563  0.4989  1.1317
  398SOL    HW2 1194   1.296   0.179   3.044 -1.6467 -1.2270 -2.3288
  399SOL     OW 1195   2.487   2.803   1.932  0.4263  0.4677  0.2859
  399SOL    HW1 1196   2.595   2.805   1.930  2.9258  0.7579  0.6965
  399SOL    HW2 1197   2.464   2.727   1.996  4.3539  0.0989 -1.4145
  400SOL     OW 1198   3.025   1.474   2.369 -0.4764 -0.3016 -0.6773
  400SOL    HW1 1199   0.029   1.463   2.333  0.9596 -0.9968 -0.0406
  400SOL    HW2 1200   2.964   1.407   2.321 -0.7147  2.0556  1.6813
  401SOL     OW 1201   0.448   0.364   2.647 -0.1385 -0.5119  0.0101
  401SOL    HW1 1202   0.486   0.386   2.740 -3.1190 -2.9518 -0.8362
  401SOL    HW2 1203   0.418   0.268   2.644 -2.9252 -0.4435 -0.0772
  402SOL     OW 1204   0.513   2.177   1.878  0.5901  0.6170  0.2674
  402SOL    HW1 1205   0.569   2.150   1.800 -2.5675  0.1233  0.0521
  402SOL    HW2 1206   0.565   2.222   1.954  1.5026 -1.6283  0.8210
  403SOL     OW 1207   0.631   1.335   1.414  0.3296  0.8508  0.3210
  403SOL    HW1 1208   0.645   1.313   1.510 -2.0887 -0.1878  0.0181
  403SOL    HW2 1209   0.693   1.409   1.377 -0.9003  1.1878  0.6965
  404SOL     OW 1210   2.927   2.565   1.700  0.6383 -0.4090 -0.3640
  404SOL    HW1 1211   2.915   2.663   1.683 -3.7552 -2.1632  0.4632
  404SOL    HW2 1212   2.965   2.520   1.621  0.0570 -0.8601 -1.8726
  405SOL     OW 1213   3.003   0.148   1.845 -0.3838 -0.2068 -0.2439
  405SOL    HW1 1214   3.075   0.080   1.820 -0.5731 -2.3663 -1.9192
  405SOL    HW2 1215   3.027   0.186   1.938  1.4126  1.9664  2.6847
  406SOL     OW 1216   1.525   2.447   2.744  0.1712  0.2251  0.5303
  406SOL    HW1 1217   1.502   2.348   2.710 -2.1718 -3.4541 -2.9586
  406SOL    HW2 1218   1.565   2.509   2.675 -0.7284 -0.8860  0.2415
  407SOL     OW 1219   1.704   1.458   1.406 -0.3799 -0.5174  0.4279
  407SOL    HW1 1220   1.728   1.360   1.396  0.0832  0.5748 -0.2084
  407SOL    HW2 1221   1.787   1.516   1.436  0.4202  0.6203  1.8980
  408SOL     OW 1222   0.633   0.218   2.195  0.0421 -0.2049  0.1339
  408SOL    HW1 1223   0.621   0.121   2.222 -2.6809 -3.2954  1.7050
  408SOL    HW2 1224   0.689   0.271   2.261 -1.0373  1.9061  0.1113
  409SOL     OW 1225   2.782   2.498   0.828 -0.2803 -0.3672  0.5229
  409SOL    HW1 1226   2.688   2.511   0.854  0.4668 -0.1252  1.0573
  409SOL    HW2 1227   2.825   2.434   0.896  1.0569 -0.0034 -0.2445
  410SOL     OW 1228   2.229   1.630   0.293  0.2484  0.1333 -0.0687
  410SOL    HW1 1229   2.264   1.545   0.336  4.2195  2.2355 -0.6005
  410SOL    HW2 1230   2.306   1.697   0.270  0.7409 -0.1909 -1.4844
  411SOL     OW 1231   0.104   0.581   0.706  0.3778  0.6861 -0.3328
  411SOL    HW1 1232   0.177   0.537   0.652 -1.4366 -1.2481 -0.2888
  411SOL    HW2 1233   0.110   0.681   0.724 -0.3688 -1.9579  2.6308
  412SOL     OW 1234   2.024   0.597   0.457 -0.0445  0.4076  0.5952
  412SOL    HW1 1235   1.991   0.681   0.502 -2.4811  0.5394 -0.8404
  412SOL    HW2 1236   2.028   0.603   0.353  1.1508 -0.9821 -0.8418
  413SOL     OW 1237   0.815   0.384   1.177  0.3437 -0.3829 -0.2287
  413SOL    HW1 1238   0.726   0.336   1.163  0.8617 -2.3067 -2.9096
  413SOL    HW2 1239   0.869   0.344   1.248  1.6708  0.5996  0.8797
  414SOL     OW 1240   0.200   1.676   0.076  0.2299 -0.3752 -0.4673
  414SOL    HW1 1241   0.108   1.655   0.031  0.7502 -1.5505 -2.6793
  414SOL    HW2 1242   0.207   1.627   0.162  0.0711  0.4538 -2.7158
  415SOL     OW 1243   0.262   2.423   0.120  0.3904  0.5624  0.1776
  415SOL    HW1 1244   0.336   2.350   0.122 -2.1694  2.4120 -2.3958
  415SOL    HW2 1245   0.202   2.413   0.038  0.2524  0.1824 -0.3621
  416SOL     OW 1246   1.747   0.729   0.412 -0.8542  0.0845 -0.8901
  416SOL    HW1 1247   1.714   0.629   0.426 -2.4625 -2.9907  2.1502
  416SOL    HW2 1248   1.813   0.758   0.485  1.6882  1.8312  1.7709
  417SOL     OW 1249   0.322   0.880   0.529 -0.3310  0.0849  0.2145
  417SOL    HW1 1250   0.239   0.921   0.480  1.2850  0.3014  2.4395
  417SOL    HW2 1251   0.311   0.882   0.630  1.6699  0.7484 -0.2747
  418SOL     OW 1252   2.683   1.183   2.626  0.4447  0.2940 -0.1262
  418SOL    HW1 1253   2.605   1.230   2.577 -4.3536 -0.0760 -0.3187
  418SOL    HW2 1254   2.642   1.133   2.704  0.9083  1.5678  1.1016
  419SOL     OW 1255   0.294   0.444   2.996 -0.1084  0.4138 -0.4597
  419SOL    HW1 1256   0.214   0.385   2.976  2.9471  2.1325  0.9916
  419SOL    HW2 1257   0.261   0.544   3.017 -1.4431  1.7599 -2.0908
  420SOL     OW 1258   0.315   1.221   1.093 -0.2585 -0.2086  0.0524
  420SOL    HW1 1259   0.350   1.288   1.023  0.4092 -0.4094 -0.2295
  420SOL    HW2 1260   0.338   1.263   1.181  1.2703  1.6482  0.4273
  421SOL     OW 1261   0.469   2.020   0.436 -0.3426 -0.3157 -0.4177
  421SOL    HW1 1262   0.372   2.037   0.397 -0.4166  2.4125 -0.0628
  421SOL    HW2 1263   0.498   2.088   0.504 -1.5491  0.4611  0.9641
  422SOL     OW 1264   2.748   0.607   1.324 -0.1451  0.0279  0.1804
  422SOL    HW1 1265   2.791   0.613   1.415 -0.0263  0.4517 -2.9449
  422SOL    HW2 1266   2.780   0.522   1.275 -0.3212 -0.3355 -1.9330
  423SOL     OW 1267   1.634   1.526   1.158  0.1733 -0.1597  0.6290
  423SOL    HW1 1268   1.655   1.502   1.253  0.0481 -1.1418 -1.8479
  423SOL    HW2 1269   1.704   1.589   1.118 -2.1680  0.5057  1.2840
  424SOL     OW 1270   2.003   1.264   0.410  0.2336 -0.2238 -0.0451
  424SOL    HW1 1271   2.063   1.247   0.327  1.5948 -4.0877  1.7005
  424SOL    HW2 1272   1.906   1.287   0.381  0.2054  0.8011 -1.9791
  425SOL     OW 1273   0.154   3.009   2.138 -0.1437 -0.1371 -0.1997
  425SOL    HW1 1274   0.212   3.068   2.197  0.5091  0.0800  1.9645
  425SOL    HW2 1275   0.086   2.960   2.197  0.4776  0.0034 -3.4630
  426SOL     OW 1276   2.586   2.605   2.694  0.0842 -0.5791  0.5256
  426SOL    HW1 1277   2.556   2.599   2.791 -0.6788  0.5069 -0.1378
  426SOL    HW2 1278   2.587   2.705   2.675 -1.1313  2.2441 -1.4548
  427SOL     OW 1279   0.974   0.989   2.200 -0.0713 -0.0812  0.1306
  427SOL    HW1 1280   0.883   0.970   2.160 -1.1188 -0.3207 -3.2730
  427SOL    HW2 1281   0.977   0.943   2.289  0.7002  1.6946 -2.8796
  428SOL     OW 1282   2.070   0.834   2.449 -0.4543  0.3793 -0.3516
  428SOL    HW1 1283   2.034   0.772   2.520  1.5995 -0.5669 -0.1329
  428SOL    HW2 1284   2.110   0.916   2.495 -2.7757 -3.6681 -0.3443
  429SOL     OW 1285   2.542   0.347   0.554  0.0432 -0.3141  0.2854
  429SOL    HW1 1286   2.501   0.288   0.483  1.9793  0.5435  0.5279
  429SOL    HW2 1287   2.482   0.415   0.588 -0.2796 -2.4168 -0.4521
  430SOL     OW 1288   2.091   1.098   1.916 -0.1802 -0.2204 -0.2045
  430SOL    HW1 1289   2.028   1.132   1.993 -0.3000  0.3282  1.7797
  430SOL    HW2 1290   2.063   1.004   1.889  1.4276 -0.4995  2.5673
  431SOL     OW 1291   2.935   2.012   1.392 -0.4416 -0.0292 -0.2956
  431SOL    HW1 1292   2.967   2.068   1.474  2.1190 -1.3543  2.8490
  431SOL    HW2 1293   2.971   1.917   1.406 -1.4468 -2.4574  0.4044
  432SOL     OW 1294   1.686   2.821   2.433  0.2859  0.0356 -0.0351
  432SOL    HW1 1295   1.622   2.901   2.447 -2.8397  0.5431  2.3402
  432SOL    HW2 1296   1.741   2.833   2.347  0.1893  1.0273  0.3488
  433SOL     OW 1297   1.470   2.828   1.829 -0.0449  0.0973  0.4793
  433SOL    HW1 1298   1.568   2.832   1.798  0.8764 -1.3522 -0.5468
  433SOL    HW2 1299   1.405   2.874   1.767 -2.4198  1.4291 -1.6234
  434SOL     OW 1300   0.226   2.195   2.420  0.0886  0.3259  0.1965
  434SOL    HW1 1301   0.296   2.247   2.476  0.1866 -0.8123 -0.6038
  434SOL    HW2 1302   0.201   2.244   2.335 -1.0540 -1.5665  2.9653
  435SOL     OW 1303   2.936   2.012   0.134  0.1169 -0.3887  0.0882
  435SOL    HW1 1304   3.023   1.987   0.099 -1.9633  0.0474  2.3021
  435SOL    HW2 1305   2.901   1.951   0.211 -0.9662  0.2916 -0.5853
  436SOL     OW 1306   0.954   1.134   1.754  0.2124  0.1388  0.1065
  436SOL    HW1 1307   1.028   1.084   1.707 -0.7314 -0.1489 -2.1917
  436SOL    HW2 1308   0.983   1.152   1.849  0.3772  1.5701  0.6863
  437SOL     OW 1309   0.428   0.091   2.616 -0.7887  0.1743  0.2747
  437SOL    HW1 1310   0.466   0.033   2.691 -1.0604  2.4378  2.3187
  437SOL    HW2 1311   0.403   0.034   2.538 -0.5531  2.0929  1.1757
  438SOL     OW 1312   0.523   1.597   1.628 -0.3579 -0.3434  0.1948
  438SOL    HW1 1313   0.550   1.689   1.607 -0.8036  1.3948  0.7380
  438SOL    HW2 1314   0.599   1.548   1.673  0.1324  1.1005 -0.3267
  439SOL     OW 1315   1.982   0.914   3.031 -0.5769 -0.0676  0.3106
  439SOL    HW1 1316   1.925   0.899   0.028  0.6619  0.2139 -0.0924
  439SOL    HW2 1317   2.063   0.983   3.049  1.6758  0.7319 -0.7455
  440SOL     OW 1318   0.761   1.151   0.274 -0.0887  0.0709 -0.2702
  440SOL    HW1 1319   0.784   1.091   0.346 -0.7024  1.6029 -0.3111
  440SOL    HW2 1320   0.678   1.206   0.299 -0.6780 -1.0786  1.1778
  441SOL     OW 1321   0.534   2.576   1.572 -0.0621  0.1518  0.3356
  441SOL    HW1 1322   0.552   2.550   1.476  1.7249 -0.3010  1.9439
  441SOL    HW2 1323   0.566   2.670   1.587 -0.5691 -0.7218 -0.3958
  442SOL     OW 1324   2.646   1.944   0.521 -0.1272 -0.3714 -0.0104
  442SOL    HW1 1325   2.682   2.031   0.561  4.0736  2.9423  2.9966
  442SOL    HW2 1326   2.649   1.866   0.584  0.8270  0.1801 -0.9549
  443SOL     OW 1327   2.671   1.476   2.575  0.2737 -0.1677  0.1823
  443SOL    HW1 1328   2.676   1.566   2.519 -1.5679  3.5817 -1.9542
  443SOL    HW2 1329   2.760   1.450   2.614  1.3357  0.0350 -0.3098
  444SOL     OW 1330   1.096   1.202   0.200 -0.6328  0.1715  0.1652
  444SOL    HW1 1331   1.027   1.143   0.160  0.2673  0.2796 -0.4828
  444SOL    HW2 1332   1.090   1.199   0.303 -2.8862 -1.5768  1.9029
  445SOL     OW 1333   2.410   2.531   1.805  0.4904 -0.1296  0.0940
  445SOL    HW1 1334   2.511   2.535   1.795  1.1957  2.4214  1.0896
  445SOL    HW2 1335   2.367   2.622   1.791 -1.7838  0.1175 -0.7290
  446SOL     OW 1336   3.024   1.714   0.705  0.0114 -0.2697  0.3281
  446SOL    HW1 1337   3.011   1.693   0.605  0.6457 -0.8543  1.7370
  446SOL    HW2 1338   3.037   1.816   0.708  0.8778  2.0403  0.1361
  447SOL     OW 1339   0.899   2.235   1.276 -0.0790  0.7336 -0.0509
  447SOL    HW1 1340   0.808   2.216   1.318  0.9995  1.3666 -0.9457
  447SOL    HW2 1341   0.952   2.151   1.264  2.1066  0.5225 -0.3861
  448SOL     OW 1342   1.533   1.673   1.867  0.3511 -0.4373  0.0254
  448SOL    HW1 1343   1.460   1.690   1.941 -2.4237  4.6851  1.4037
  448SOL    HW2 1344   1.527   1.743   1.794  0.6450  2.8814  0.8065
  449SOL     OW 1345   0.157   1.891   2.304  0.1527  0.6217 -0.3290
  449SOL    HW1 1346   0.101   1.977   2.281 -1.8141  3.2389 -0.0038
  449SOL    HW2 1347   0.232   1.879   2.228  0.6407 -2.0963 -2.4168
  450SOL     OW 1348   2.860   1.806   2.171 -0.0865  0.2335  0.4595
  450SOL    HW1 1349   2.921   1.792   2.257  2.8099  0.6994  1.4024
  450SOL    HW2 1350   2.874   1.723   2.114 -0.7761  2.4229  0.0820
  451SOL     OW 1351   2.121   0.622   1.627 -0.1599  0.2019 -0.2369
  451SOL    HW1 1352   2.166   0.672   1.551  0.5028 -0.1388 -0.8273
  451SOL    HW2 1353   2.104   0.526   1.595  0.1976  0.8599  0.2340
  452SOL     OW 1354   0.816   1.611   0.864  0.5507 -0.5395  0.6421
  452SOL    HW1 1355   0.757   1.530   0.876 -0.7459  0.0109  2.8863
  452SOL    HW2 1356   0.863   1.605   0.777 -2.9644 -1.1210  2.9535
  453SOL     OW 1357   1.424   2.383   1.094  0.7683 -0.6164  0.0549
  453SOL    HW1 1358   1.450   2.446   1.014  0.5560  1.6970  0.7717
  453SOL    HW2 1359   1.322   2.389   1.107  1.7096 -0.3765  0.8477
  454SOL     OW 1360   3.082   1.388   0.341  0.4066  0.4217 -0.2488
  454SOL    HW1 1361   0.033   1.317   0.408 -2.0449 -2.6202  1.6979
  454SOL    HW2 1362   0.046   1.400   0.255  0.0790 -0.0854  0.2956
  455SOL     OW 1363   0.942   1.056   0.485  0.0515 -0.3324  0.3888
  455SOL    HW1 1364   0.996   1.000   0.417  2.1328  0.2637  2.4931
  455SOL    HW2 1365   1.001   1.110   0.554  3.4249 -0.7340 -0.3146
  456SOL     OW 1366   2.230   2.407   0.988  0.6170 -0.2386 -0.6172
  456SOL    HW1 1367   2.169   2.392   0.906  1.7337  1.4963 -2.8838
  456SOL    HW2 1368   2.242   2.323   1.047  0.5966 -0.1337  0.2503
  457SOL     OW 1369   1.710   2.894   2.876  0.1665  0.0271  0.2132
  457SOL    HW1 1370   1.660   2.982   2.863  2.0583 -1.0774  3.0147
  457SOL    HW2 1371   1.803   2.917   2.917 -1.2305  0.7455 -0.2962
  458SOL     OW 1372   2.538   0.633   0.206 -0.1827  0.3623  0.2474
  458SOL    HW1 1373   2.479   0.565   0.253 -1.5486 -0.6418  2.6485
  458SOL    HW2 1374   2.580   0.701   0.267 -2.4212 -3.0364 -0.3479
  459SOL     OW 1375   2.155   0.343   2.113 -0.4816 -0.8353  0.0348
  459SOL    HW1 1376   2.114   0.422   2.169 -1.5877 -1.2866  0.7761
  459SOL    HW2 1377   2.256   0.362   2.097 -0.1741 -0.3259 -0.5268
  460SOL     OW 1378   2.791   0.540   2.801 -0.0378 -0.3272  0.2020
  460SOL    HW1 1379   2.812   0.466   2.872  0.0334  2.0873  0.3138
  460SOL    HW2 1380   2.781   0.501   2.706 -2.4027  2.3758  1.1446
  461SOL     OW 1381   0.081   2.326   0.812  0.2763 -0.2906 -0.1009
  461SOL    HW1 1382   0.156   2.260   0.792 -1.2230  0.1535  2.3869
  461SOL    HW2 1383   0.043   2.363   0.726 -0.6801 -0.5010  1.9249
  462SOL     OW 1384   2.941   2.991   1.265  0.2793  0.1560  0.2648
  462SOL    HW1 1385   2.870   3.039   1.208 -3.1782 -0.7513 -1.7572
  462SOL    HW2 1386   3.001   2.938   1.200  1.1775 -1.5598 -0.2948
  463SOL     OW 1387   2.107   1.398   2.997 -0.5327  0.0346  0.0048
  463SOL    HW1 1388   2.109   1.302   3.035 -1.5149 -0.2619  1.7476
  463SOL    HW2 1389   2.097   1.399   2.896 -2.0847  1.3973 -2.2004
  464SOL     OW 1390   0.828   2.458   1.143 -0.2995 -0.0285 -0.4412
  464SOL    HW1 1391   0.843   2.359   1.164  2.0382 -2.3481  0.4617
  464SOL    HW2 1392   0.894   2.515   1.196 -0.3688 -3.5673 -0.5216
  465SOL     OW 1393   0.939   0.255   1.423 -0.1391 -0.7474 -0.2798
  465SOL    HW1 1394   0.955   0.162   1.455 -1.4127  2.4119  1.0616
  465SOL    HW2 1395   0.927   0.319   1.503  1.9945 -1.5376  0.9539
  466SOL     OW 1396   1.552   2.346   1.857  0.0417 -0.0867  0.6264
  466SOL    HW1 1397   1.595   2.322   1.946 -0.8866 -0.2581 -1.4677
  466SOL    HW2 1398   1.478   2.416   1.869 -1.1749 -1.1732  2.8887
  467SOL     OW 1399   0.669   2.278   1.419 -0.1550  0.2213  0.3745
  467SOL    HW1 1400   0.622   2.365   1.404 -0.2087 -1.0741 -0.2331
  467SOL    HW2 1401   0.608   2.212   1.466  0.6947  2.3155  0.7531
  468SOL     OW 1402   2.625   1.593   2.022  0.6816 -0.1420  0.9151
  468SOL    HW1 1403   2.608   1.583   2.123 -0.7813  2.0522 -1.1332
  468SOL    HW2 1404   2.606   1.513   1.956 -1.3203 -1.0312 -1.0546
  469SOL     OW 1405   0.747   1.937   0.581  0.0679  0.6120 -0.0386
  469SOL    HW1 1406   0.683   2.012   0.561  1.8052 -1.0110  0.0203
  469SOL    HW2 1407   0.721   1.890   0.665  2.4405  0.4974  0.2718
  470SOL     OW 1408   1.950   1.101   2.133  0.2465 -0.0435 -0.0970
  470SOL    HW1 1409   1.958   1.010   2.180 -0.2388 -0.3201 -0.5935
  470SOL    HW2 1410   1.959   1.175   2.207  0.8050  1.0842 -0.1887
  471SOL     OW 1411   0.591   2.483   0.022 -0.1705 -0.2201 -0.0970
  471SOL    HW1 1412   0.590   2.520   0.116 -0.2793  1.1427 -1.6537
  471SOL    HW2 1413   0.668   2.420   0.019 -0.8752  0.5113  1.6265
  472SOL     OW 1414   0.384   2.754   2.102  0.6381 -0.1367 -1.2062
  472SOL    HW1 1415   0.324   2.834   2.088 -0.2770 -0.9104  1.6878
  472SOL    HW2 1416   0.473   2.779   2.150  3.2649  2.0059 -0.2245
  473SOL     OW 1417   0.547   2.778   3.059  0.0527 -0.2137  0.3872
  473SOL    HW1 1418   0.611   2.809   0.045 -1.3186 -0.6195  3.6226
  473SOL    HW2 1419   0.570   2.683   3.031  0.7867  1.5862 -2.7508
  474SOL     OW 1420   2.156   3.082   1.002 -0.4201  0.0626 -0.4383
  474SOL    HW1 1421   2.067   3.039   0.973 -1.0665  1.0308  0.6360
  474SOL    HW2 1422   2.210   3.013   1.054 -1.2682 -2.6592  0.4636
  475SOL     OW 1423   1.784   3.049   1.794  0.4448  0.0575  0.4124
  475SOL    HW1 1424   1.871   3.011   1.828 -1.5500 -1.0791 -2.1254
  475SOL    HW2 1425   1.802   3.060   1.697  1.8106 -2.2898 -0.6681
  476SOL     OW 1426   0.607   1.405   0.839 -0.0129  0.2923  0.0753
  476SOL    HW1 1427   0.508   1.415   0.834  3.5236 -0.7223  0.1654
  476SOL    HW2 1428   0.633   1.316   0.881  0.6869  0.0276  0.8239
  477SOL     OW 1429   0.209   1.922   0.588 -0.2003  0.0271 -0.0192
  477SOL    HW1 1430   0.260   1.854   0.645  1.2578 -3.1240  0.6640
  477SOL    HW2 1431   0.196   1.884   0.493 -2.5401  1.3788 -0.1303
  478SOL     OW 1432   0.079   2.583   2.455  0.4496 -0.5440 -0.9168
  478SOL    HW1 1433   0.013   2.627   2.522  1.5279  3.6782 -0.5051
  478SOL    HW2 1434   0.035   2.497   2.423  0.2569 -0.9778 -1.2221
  479SOL     OW 1435   2.966   0.340   1.431 -0.6821  0.1685 -0.5463
  479SOL    HW1 1436   3.065   0.363   1.429  0.5475 -2.6610  1.6370
  479SOL    HW2 1437   2.938   0.297   1.519  0.5959 -1.7894 -1.2949
  480SOL     OW 1438   2.812   2.556   2.981 -0.1053  0.1222 -0.2108
  480SOL    HW1 1439   2.885   2.590   3.047  1.5986 -0.5855 -1.8661
  480SOL    HW2 1440   2.737   2.505   3.031 -0.5579  0.6745  0.9255
  481SOL     OW 1441   2.332   1.888   1.753 -0.3607 -0.7752 -0.3944
  481SOL    HW1 1442   2.241   1.902   1.802 -1.2656  2.1602 -1.4601
  481SOL    HW2 1443   2.363   1.978   1.718 -0.4355  0.4695  0.7406
  482SOL     OW 1444   1.843   2.117   2.414 -0.5231 -0.4598  0.2080
  482SOL    HW1 1445   1.936   2.096   2.371  2.3899  0.5405 -0.1084
  482SOL    HW2 1446   1.774   2.072   2.352 -2.2793 -0.4583  2.3463
  483SOL     OW 1447   0.886   1.514   2.190  0.0895  0.2313 -0.2517
  483SOL    HW1 1448   0.838   1.487   2.274  0.9861 -1.1257  0.4029
  483SOL    HW2 1449   0.862   1.461   2.107  0.3029 -3.4994 -0.7516
  484SOL     OW 1450   0.122   0.416   1.394 -0.3426  0.1336 -0.0543
  484SOL    HW1 1451   0.102   0.483   1.320  1.4833 -1.0935  1.1024
  484SOL    HW2 1452   0.177   0.463   1.461 -3.2285  0.1583 -2.5780
  485SOL     OW 1453   2.452   1.190   0.302  0.2701  0.4498 -0.4571
  485SOL    HW1 1454   2.469   1.089   0.295  1.0839 -3.4529  0.6668
  485SOL    HW2 1455   2.497   1.243   0.226 -1.4070 -1.2230 -2.3127
  486SOL     OW 1456   1.567   0.204   2.262  0.0895  0.4355  0.2712
  486SOL    HW1 1457   1.553   0.221   2.160 -0.7813 -2.1304 -0.1006
  486SOL    HW2 1458   1.663   0.222   2.293  2.9784 -0.5527  0.3871
  487SOL     OW 1459   0.793   1.976   1.260 -0.0956 -1.0003  0.3508
  487SOL    HW1 1460   0.696   1.987   1.283  2.1474 -1.1607 -0.2758
  487SOL    HW2 1461   0.850   1.963   1.347  0.9131 -0.9190  4.2982
  488SOL     OW 1462   2.397   1.477   3.050  0.5482  0.3064 -0.3920
  488SOL    HW1 1463   2.452   1.466   2.967 -2.0089  0.4046 -0.0531
  488SOL    HW2 1464   2.295   1.465   3.030 -1.8854 -1.6976 -3.0338
  489SOL     OW 1465   2.208   2.965   0.478 -0.4630 -0.5066  0.1808
  489SOL    HW1 1466   2.224   2.874   0.522  0.0475 -0.4010  1.8151
  489SOL    HW2 1467   2.249   3.041   0.531 -0.3439 -1.5918 -4.3064
  490SOL     OW 1468   1.136   2.665   2.952  0.3537  0.4639 -0.4675
  490SOL    HW1 1469   1.181   2.590   2.910 -1.2128  0.9587 -0.1890
  490SOL    HW2 1470   1.036   2.667   2.928 -0.9244  0.9025  0.6389
  491SOL     OW 1471   1.042   1.195   0.993  0.1083  0.0592 -0.8682
  491SOL    HW1 1472   1.029   1.227   1.086  0.4989 -2.1834 -3.5455
  491SOL    HW2 1473   1.049   1.278   0.930  1.0524 -0.3290  1.2811
  492SOL     OW 1474   1.382   0.377   2.491 -0.2292  0.4181 -0.1826
  492SOL    HW1 1475   1.468   0.433   2.489  0.1560  1.2974  2.2249
  492SOL    HW2 1476   1.373   0.315   2.412  0.6173  1.0293  1.9802
  493SOL     OW 1477   1.794   2.060   0.086  0.1321  0.3845 -0.6118
  493SOL    HW1 1478   1.733   2.130   0.042  0.9304  0.6968 -1.4542
  493SOL    HW2 1479   1.893   2.067   0.051  3.2762 -0.7345 -1.9227
  494SOL     OW 1480   0.623   1.434   0.574 -0.0077  0.1312  0.2328
  494SOL    HW1 1481   0.566   1.516   0.544 -2.9497  1.9952 -2.3066
  494SOL    HW2 1482   0.625   1.432   0.677 -0.4993  2.2876  2.0647
  495SOL     OW 1483   2.881   2.677   0.651 -0.6341 -0.3415  0.1018
  495SOL    HW1 1484   2.968   2.639   0.605  1.0306 -2.1129 -0.2218
  495SOL    HW2 1485   2.834   2.601   0.699  1.3383  1.8447 -2.9018
  496SOL     OW 1486   2.628   0.029   1.605  0.0784  0.1069 -0.6863
  496SOL    HW1 1487   2.585   0.048   1.516  0.9856 -0.5667 -1.7656
  496SOL    HW2 1488   2.569   0.062   1.681  0.4960  4.0955 -0.2487
  497SOL     OW 1489   2.348   1.088   2.381 -0.2658 -0.1015  0.2573
  497SOL    HW1 1490   2.404   1.167   2.423  0.4861  0.6993  2.9287
  497SOL    HW2 1491   2.247   1.103   2.392  0.0495 -2.6578 -0.7472
  498SOL     OW 1492   0.397   2.142   0.968 -0.2405  0.0906  0.1132
  498SOL    HW1 1493   0.356   2.119   0.873 -1.1564 -1.2259 -2.2857
  498SOL    HW2 1494   0.328   2.122   1.044  0.7343  0.4223  2.3980
  499SOL     OW 1495   0.853   2.353   1.590  0.0210  0.2004 -0.4902
  499SOL    HW1 1496   0.820   2.356   1.686 -0.3498  0.7791  1.4751
  499SOL    HW2 1497   0.790   2.302   1.527 -0.1147 -2.1269  2.5296
  500SOL     OW 1498   1.120   2.174   0.324 -0.2215 -0.2563 -0.3853
  500SOL    HW1 1499   1.057   2.117   0.379 -0.4309  1.4619 -2.9131
  500SOL    HW2 1500   1.134   2.145   0.231 -2.1163  1.0052  2.9923
  501SOL     OW 1501   2.375   2.910   1.326 -0.2493  0.2208 -0.0273
  501SOL    HW1 1502   2.302   2.882   1.390  0.4295 -0.4527  0.7030
  501SOL    HW2 1503   2.338   2.901   1.232  4.5419  0.7194  1.6507
  502SOL     OW 1504   2.832   0.234   1.654 -0.0467 -0.2052 -0.0347
  502SOL    HW1 1505   2.896   0.196   1.727 -1.4562  2.1405  1.9413
  502SOL    HW2 1506   2.757   0.162   1.640  0.3987  1.0895  0.2615
  503SOL     OW 1507   2.740   0.892   1.971  0.3244 -0.6188  0.7254
  503SOL    HW1 1508   2.824   0.936   1.952 -2.1437 -1.0575  0.2534
  503SOL    HW2 1509   2.680   0.919   2.050  2.8619  2.0533  2.1100
  504SOL     OW 1510   1.453   0.665   1.807 -0.2141 -0.3560  0.1859
  504SOL    HW1 1511   1.502   0.696   1.727 -3.5385 -0.3937  1.4618
  504SOL    HW2 1512   1.353   0.682   1.802  1.3161 -0.5123 -0.7159
  505SOL     OW 1513   0.955   0.056   2.075  0.0667 -0.6774  0.0748
  505SOL    HW1 1514   0.907   3.055   2.093  2.7967  2.1449  0.2693
  505SOL    HW2 1515   0.962   0.121   2.156 -1.8862 -2.9476 -1.2715
  506SOL     OW 1516   0.319   0.277   0.748  0.2737  0.2239 -0.4692
  506SOL    HW1 1517   0.221   0.264   0.717 -0.7437 -0.5668 -3.1398
  506SOL    HW2 1518   0.344   0.203   0.814  0.8153 -1.8162 -1.1143
  507SOL     OW 1519   2.140   0.539   0.088  0.4127  0.1884  0.0546
  507SOL    HW1 1520   2.223   0.530   0.142 -1.4815  0.1272 -0.9547
  507SOL    HW2 1521   2.074   0.597   0.135  0.7488 -0.0655  1.7448
  508SOL     OW 1522   1.837   0.231   2.376  0.0069  0.2161  0.2279
  508SOL    HW1 1523   1.840   0.327   2.411  2.6606  1.3311 -0.6733
  508SOL    HW2 1524   1.840   0.168   2.457  1.1153  0.7954 -0.0509
  509SOL     OW 1525   0.974   1.396   1.616  0.4510 -0.1082  0.5269
  509SOL    HW1 1526   1.068   1.438   1.632 -1.4989 -1.9050  0.6334
  509SOL    HW2 1527   0.972   1.296   1.645  0.1609 -2.6488 -0.9567
  510SOL     OW 1528   2.794   1.082   0.888  0.0279 -0.0555 -0.6355
  510SOL    HW1 1529   2.858   1.014   0.932  2.4814  0.7257 -2.1946
  510SOL    HW2 1530   2.728   1.122   0.957 -1.7690  2.1990  1.1068
  511SOL     OW 1531   1.950   1.945   1.124 -0.1178  0.0604  0.5807
  511SOL    HW1 1532   1.997   1.959   1.212  0.7428 -1.6777  1.1333
  511SOL    HW2 1533   1.919   2.032   1.084  0.5157  0.4919 -1.1472
  512SOL     OW 1534   2.996   1.649   0.443  0.1821  0.1110 -0.1451
  512SOL    HW1 1535   3.003   1.554   0.419  2.2598  1.7171 -0.8800
  512SOL    HW2 1536   3.077   1.699   0.408 -2.6761  0.1397 -1.6756
  513SOL     OW 1537   2.926   2.207   0.328 -0.1159 -0.3252  0.3994
  513SOL    HW1 1538   2.914   2.140   0.250 -4.1356 -1.5008 -0.5821
  513SOL    HW2 1539   2.842   2.255   0.346  1.8892 -0.4496 -3.3363
  514SOL     OW 1540   2.325   1.993   2.484 -0.1072 -0.4303 -0.0163
  514SOL    HW1 1541   2.401   2.064   2.471  0.5558  0.9870 -1.1838
  514SOL    HW2 1542   2.311   1.978   2.581  2.6074 -0.8819 -0.5539
  515SOL     OW 1543   2.017   1.444   0.607 -0.6803  0.4587  1.1506
  515SOL    HW1 1544   2.008   1.377   0.527 -0.2127 -2.1327 -1.8575
  515SOL    HW2 1545   2.088   1.402   0.664 -1.6610  2.4978 -0.8976
  516SOL     OW 1546   1.952   3.003   0.524  0.2849  0.1739  0.1334
  516SOL    HW1 1547   1.946   0.010   0.557 -0.0784  1.5714  0.5241
  516SOL    HW2 1548   2.045   2.983   0.488  0.9553 -0.4069  0.5376
  517SOL     OW 1549   0.797   1.916   2.847 -0.2483  0.0366 -0.3847
  517SOL    HW1 1550   0.836   1.975   2.917 -1.7778 -0.1125 -0.0875
  517SOL    HW2 1551   0.752   1.967   2.769 -1.5147 -0.7131 -0.9926
  518SOL     OW 1552   0.431   0.627   1.984  0.8244 -0.4986 -0.6014
  518SOL    HW1 1553   0.480   0.538   1.975 -2.1295 -2.7052 -0.2976
  518SOL    HW2 1554   0.429   0.659   2.079  1.5250 -0.7602 -1.8973
  519SOL     OW 1555   2.965   1.016   0.248 -0.4124 -0.6962 -0.1424
  519SOL    HW1 1556   2.999   1.059   0.159  0.9428  2.0436 -0.4522
  519SOL    HW2 1557   3.036   0.997   0.314 -4.5161  0.3685 -0.6877
  520SOL     OW 1558   2.771   1.765   1.596 -0.3889 -0.4888  0.3112
  520SOL    HW1 1559   2.756   1.798   1.691 -1.6196  1.4298  0.2258
  520SOL    HW2 1560   2.713   1.807   1.527  0.3653  0.4450  0.1730
  521SOL     OW 1561   0.504   2.455   2.480  1.0220  0.2828  0.2766
  521SOL    HW1 1562   0.580   2.430   2.418 -0.7475 -3.0600  3.6177
  521SOL    HW2 1563   0.436   2.513   2.427 -0.2799 -1.7254  0.2831
  522SOL     OW 1564   1.866   0.080   2.135  0.2504 -0.1077  0.0418
  522SOL    HW1 1565   1.962   0.056   2.117 -1.0158  1.4859  1.0383
  522SOL    HW2 1566   1.857   0.147   2.210  0.3547 -2.5454 -1.3282
  523SOL     OW 1567   1.930   1.904   1.589 -0.2335  0.5051 -0.2566
  523SOL    HW1 1568   1.846   1.959   1.568 -2.1093 -0.6931  0.9532
  523SOL    HW2 1569   1.978   1.941   1.672  2.2719 -1.0910  4.4833
  524SOL     OW 1570   0.640   2.871   0.219  0.2949  0.1043 -0.3422
  524SOL    HW1 1571   0.586   2.910   0.297 -0.9986 -2.8994  2.7514
  524SOL    HW2 1572   0.731   2.915   0.209  1.3123  2.5306 -0.7940
  525SOL     OW 1573   2.900   0.323   0.360 -0.0097  0.2172  0.3406
  525SOL    HW1 1574   2.853   0.388   0.299  0.4630  1.8786  0.3765
  525SOL    HW2 1575   2.970   0.374   0.410  0.6474 -2.1763 -1.3657
  526SOL     OW 1576   0.779   2.846   0.607  0.3660 -0.2802 -0.5782
  526SOL    HW1 1577   0.813   2.812   0.697 -3.3134 -1.3012  2.5342
  526SOL    HW2 1578   0.693   2.793   0.586 -1.0195  2.0934 -2.8119
  527SOL     OW 1579   2.563   1.950   0.903  0.4715 -0.0714  0.6021
  527SOL    HW1 1580   2.586   1.911   0.997  2.2609 -1.1348  0.1628
  527SOL    HW2 1581   2.540   2.045   0.906  1.7984 -1.6220 -0.3598
  528SOL     OW 1582   2.772   0.348   2.289  0.0085  0.0625  0.3895
  528SOL    HW1 1583   2.870   0.368   2.277 -2.0350  0.5141 -0.4236
  528SOL    HW2 1584   2.725   0.321   2.199 -1.0593  0.8826 -3.5585
  529SOL     OW 1585   1.302   1.496   2.528  0.1756 -0.0171  0.5232
  529SOL    HW1 1586   1.367   1.418   2.528 -0.8525  1.4336  2.8632
  529SOL    HW2 1587   1.231   1.480   2.597  2.0017 -0.4364  1.0396
  530SOL     OW 1588   1.851   1.184   2.669  0.0350  0.0030  0.1231
  530SOL    HW1 1589   1.825   1.181   2.570 -0.9772  2.1500 -0.6726
  530SOL    HW2 1590   1.862   1.090   2.707  0.5844  1.3722  1.0150
  531SOL     OW 1591   0.670   1.606   2.649 -0.9603  0.0936  0.1370
  531SOL    HW1 1592   0.588   1.667   2.636 -0.6527  2.0633 -3.4925
  531SOL    HW2 1593   0.691   1.564   2.556  0.0807 -1.7522  0.3952
  532SOL     OW 1594   1.712   1.377   0.621 -0.0372  0.8289  0.1811
  532SOL    HW1 1595   1.729   1.339   0.527 -0.2806  2.6079  0.3322
  532SOL    HW2 1596   1.687   1.477   0.622 -0.9973  1.4995  1.4978
  533SOL     OW 1597   0.195   0.211   1.991 -0.5962  0.1897  0.5245
  533SOL    HW1 1598   0.200   0.162   1.900  0.0816  0.0428 -4.4077
  533SOL    HW2 1599   0.104   0.206   2.037  1.0449  0.3731  1.3270
  534SOL     OW 1600   0.785   2.607   2.847  0.0703  0.0032  0.1637
  534SOL    HW1 1601   0.689   2.563   2.847 -0.5993  0.6472 -0.7287
  534SOL    HW2 1602   0.796   2.676   2.920 -0.0217 -0.5764 -0.1601
  535SOL     OW 1603   0.193   0.244   0.378 -0.2661  0.6633 -0.0090
  535SOL    HW1 1604   0.290   0.255   0.402 -1.7389  1.0341 -0.5904
  535SOL    HW2 1605   0.148   0.227   0.472  0.0841  1.1843  3.1399
  536SOL     OW 1606   0.315   1.482   1.811  0.5289 -0.0409  0.6277
  536SOL    HW1 1607   0.241   1.415   1.782  1.1674  1.7238  1.0443
  536SOL    HW2 1608   0.373   1.504   1.729  0.9994  2.9804  1.0631
  537SOL     OW 1609   0.843   2.633   1.638  0.2518 -1.1673 -0.4034
  537SOL    HW1 1610   0.887   2.688   1.564 -3.2278 -0.8777 -1.7461
  537SOL    HW2 1611   0.856   2.533   1.624  0.6437  0.1596 -2.4938
  538SOL     OW 1612   2.809   1.822   0.320 -0.3264 -0.0466 -0.2690
  538SOL    HW1 1613   2.849   1.742   0.367  1.7397 -1.2951  1.3399
  538SOL    HW2 1614   2.740   1.856   0.384 -0.8351  2.0727 -0.7698
  539SOL     OW 1615   2.890   1.056   2.528  0.4099 -0.3425 -0.7729
  539SOL    HW1 1616   2.863   0.960   2.552 -2.0418 -0.4974 -0.8096
  539SOL    HW2 1617   2.813   1.114   2.552  1.5980 -0.7235 -0.7666
  540SOL     OW 1618   1.491   0.841   2.086  0.5554  0.2622  0.1219
  540SOL    HW1 1619   1.555   0.853   2.008 -1.3728  1.5876  0.6910
  540SOL    HW2 1620   1.401   0.881   2.060  0.3302  1.4732 -0.1608
  541SOL     OW 1621   0.838   0.895   1.915 -0.0525 -0.4823  0.1384
  541SOL    HW1 1622   0.760   0.861   1.860 -1.1610 -0.0366 -0.1353
  541SOL    HW2 1623   0.865   0.990   1.889 -0.1742 -2.6257  1.9029
  542SOL     OW 1624   2.302   0.346   2.803  0.1122  0.0112  0.0580
  542SOL    HW1 1625   2.404   0.325   2.808  1.7186  0.1958 -0.2148
  542SOL    HW2 1626   2.274   0.330   2.709 -2.0927  0.8402 -0.3557
  543SOL     OW 1627   0.972   3.052   2.998  0.5290  0.3541  0.3946
  543SOL    HW1 1628   0.938   0.032   3.065  0.0292  1.2388 -0.7593
  543SOL    HW2 1629   1.064   3.062   2.961  0.9227 -0.9710  1.4574
  544SOL     OW 1630   2.896   1.544   2.092 -0.0991  0.1545 -0.6747
  544SOL    HW1 1631   2.975   1.478   2.079  2.1756  0.2453  3.5277
  544SOL    HW2 1632   2.805   1.495   2.083  1.7656 -0.0985  0.2496
  545SOL     OW 1633   1.839   2.229   1.555 -0.1865  0.3984 -0.2698
  545SOL    HW1 1634   1.815   2.219   1.455  0.5974  2.6635  4.4112
  545SOL    HW2 1635   1.901   2.310   1.560 -1.6356 -3.1922  0.9214
  546SOL     OW 1636   0.052   3.046   2.895  0.3366  0.7557 -0.6554
  546SOL    HW1 1637   0.054   2.966   2.832 -0.0328  1.9006 -1.6133
  546SOL    HW2 1638   0.145   3.084   2.905 -1.8069  0.9843 -1.7919
  547SOL     OW 1639   1.744   0.928   0.814  0.9559  0.2628 -0.4329
  547SOL    HW1 1640   1.714   1.010   0.762 -2.0136  0.7736 -3.1332
  547SOL    HW2 1641   1.656   0.880   0.851 -2.9691 -1.7455  1.2690
  548SOL     OW 1642   1.766   1.711   2.232  0.2478 -0.2697  0.2059
  548SOL    HW1 1643   1.686   1.653   2.237  1.2478 -0.7053  3.1360
  548SOL    HW2 1644   1.840   1.669   2.287 -0.7384 -0.0528  2.7041
  549SOL     OW 1645   1.842   0.477   0.649  0.3943 -0.6285  0.8289
  549SOL    HW1 1646   1.908   0.517   0.580 -2.2861  0.4605 -1.2889
  549SOL    HW2 1647   1.879   0.484   0.745 -0.2228  1.8366  0.3975
  550SOL     OW 1648   1.963   1.585   0.902  0.3903  0.2631  0.2429
  550SOL    HW1 1649   1.874   1.613   0.944  1.5153 -2.5380 -1.2961
  550SOL    HW2 1650   1.954   1.520   0.820  0.6702  0.6361  1.7103
  551SOL     OW 1651   0.620   2.824   1.634 -0.5269  0.3672  0.0336
  551SOL    HW1 1652   0.705   2.772   1.626  1.6995  0.6234  2.4801
  551SOL    HW2 1653   0.613   2.881   1.715 -2.4393  0.5645  0.5648
  552SOL     OW 1654   3.074   2.172   2.551  0.0382 -0.4961  0.1448
  552SOL    HW1 1655   3.031   2.078   2.560 -3.8771  1.8069  0.1487
  552SOL    HW2 1656   0.069   2.169   2.494  2.0256  0.7593  0.2733
  553SOL     OW 1657   0.422   0.066   0.898 -0.1804  0.0917 -0.3229
  553SOL    HW1 1658   0.440   0.022   0.808  1.5773  2.1939 -1.0126
  553SOL    HW2 1659   0.513   0.082   0.939  0.0509 -2.8689 -1.2151
  554SOL     OW 1660   2.456   2.121   1.668 -0.1200  0.2008  0.1043
  554SOL    HW1 1661   2.535   2.157   1.720 -2.4992 -4.6767  1.5399
  554SOL    HW2 1662   2.376   2.184   1.670  1.5592  1.4403 -2.7829
  555SOL     OW 1663   1.212   2.199   1.810 -0.1345  0.0217 -0.2056
  555SOL    HW1 1664   1.202   2.188   1.714  0.7190  0.7314 -0.4901
  555SOL    HW2 1665   1.131   2.257   1.841 -1.2111  0.0383 -1.8832
  556SOL     OW 1666   1.123   1.743   1.609  0.6306 -0.2107 -0.2795
  556SOL    HW1 1667   1.178   1.829   1.596 -0.3648 -0.1227 -4.1156
  556SOL    HW2 1668   1.174   1.662   1.640 -0.9939  0.4063 -1.0561
  557SOL     OW 1669   1.983   2.281   2.027  0.2347 -0.0584 -0.2837
  557SOL    HW1 1670   2.071   2.303   1.981  0.3543 -2.2388  1.4866
  557SOL    HW2 1671   2.002   2.274   2.127  0.5033 -0.7330 -0.1841
  558SOL     OW 1672   0.657   2.980   1.858 -0.2334  0.4346  0.3663
  558SOL    HW1 1673   0.717   2.961   1.938 -1.2824 -1.3855 -0.4301
  558SOL    HW2 1674   0.689   3.066   1.812 -0.8464 -2.8928 -0.3890
  559SOL     OW 1675   2.268   2.836   1.082 -0.1523 -0.5160  0.8234
  559SOL    HW1 1676   2.321   2.817   0.999 -0.0720 -0.3502  0.0950
  559SOL    HW2 1677   2.220   2.754   1.116  2.2628  0.8302  0.2422
  560SOL     OW 1678   1.803   2.426   0.484  0.5019 -0.5593  0.2945
  560SOL    HW1 1679   1.767   2.401   0.576  1.6368  2.8735  0.6328
  560SOL    HW2 1680   1.894   2.389   0.471 -4.4591  0.3774  0.5626
  561SOL     OW 1681   1.030   0.399   0.072 -0.5568  0.0752 -0.0369
  561SOL    HW1 1682   1.127   0.435   0.087  2.1763 -0.3118 -3.7793
  561SOL    HW2 1683   0.965   0.427   0.149 -1.8501  0.9001  2.0107
  562SOL     OW 1684   0.533   0.487   2.406 -0.4037  0.3103 -1.1204
  562SOL    HW1 1685   0.485   0.449   2.489 -1.1150  0.8192  0.5559
  562SOL    HW2 1686   0.620   0.431   2.397 -2.7207 -2.6778  0.5958
  563SOL     OW 1687   1.596   1.751   3.000 -0.8046 -0.3388  0.0991
  563SOL    HW1 1688   1.544   1.705   3.073  2.8838  0.5821 -0.0416
  563SOL    HW2 1689   1.594   1.855   3.002  2.6283  4.7591 -1.7892
  564SOL     OW 1690   2.435   1.125   1.368  0.1560 -0.0700 -1.0957
  564SOL    HW1 1691   2.485   1.154   1.454 -1.3776 -0.3855  3.2800
  564SOL    HW2 1692   2.496   1.063   1.311 -0.1872  1.0222 -2.2512
  565SOL     OW 1693   0.859   0.466   2.691 -0.1328 -0.3542  0.2531
  565SOL    HW1 1694   0.773   0.516   2.672  0.0047 -2.9792  1.2921
  565SOL    HW2 1695   0.873   0.460   2.791 -0.2153 -1.6680  1.1053
  566SOL     OW 1696   2.010   0.183   2.696  0.3963  0.2807  0.0833
  566SOL    HW1 1697   1.933   0.113   2.676 -2.2328 -0.3487 -1.9872
  566SOL    HW2 1698   2.089   0.138   2.738  2.1373 -1.7471  1.7967
  567SOL     OW 1699   2.047   1.701   0.522  0.6486 -0.3716  0.1031
  567SOL    HW1 1700   2.107   1.667   0.446  1.9334 -2.1211  2.5546
  567SOL    HW2 1701   2.013   1.622   0.572  0.1650  1.0292 -3.4383
  568SOL     OW 1702   1.632   1.906   0.201  0.6072 -0.7620 -0.3049
  568SOL    HW1 1703   1.694   1.963   0.141 -0.9137  0.1681  0.5293
  568SOL    HW2 1704   1.535   1.918   0.174  3.7520  2.4652 -0.6186
  569SOL     OW 1705   2.232   1.118   3.011 -0.1898  0.0480 -0.2252
  569SOL    HW1 1706   2.247   1.169   2.926 -1.4312  2.9880  0.2880
  569SOL    HW2 1707   2.315   1.070   3.048 -3.7836 -0.7271  1.2956
  570SOL     OW 1708   0.390   2.380   1.749  0.3121 -0.3150  0.5750
  570SOL    HW1 1709   0.445   2.430   1.680 -2.6243 -1.2252  0.5788
  570SOL    HW2 1710   0.440   2.299   1.793 -0.2881 -1.5320 -0.6974
  571SOL     OW 1711   0.496   1.029   1.832 -0.2695 -0.1571  0.5938
  571SOL    HW1 1712   0.493   1.074   1.923  0.3852 -0.5540 -0.0915
  571SOL    HW2 1713   0.536   0.937   1.842  1.2718  0.5936 -1.4810
  572SOL     OW 1714   0.978   1.655   0.638 -0.2653  0.4360  0.6427
  572SOL    HW1 1715   0.920   1.642   0.555 -0.4200  0.6888 -3.9379
  572SOL    HW2 1716   1.036   1.742   0.630 -0.5821  3.2258  0.6879
  573SOL     OW 1717   1.546   2.038   2.969 -0.3757 -0.0014  0.1790
  573SOL    HW1 1718   1.461   2.001   3.007  2.1846 -1.1223  2.3998
  573SOL    HW2 1719   1.547   2.139   2.981 -0.6583 -1.4143 -3.6920
  574SOL     OW 1720   0.937   0.355   0.937  0.5677  0.6121 -0.1484
  574SOL    HW1 1721   0.894   0.387   1.023 -2.4423  2.4165  0.1767
  574SOL    HW2 1722   0.908   0.264   0.907 -1.8030  2.3800  1.4658
  575SOL     OW 1723   0.245   1.063   1.467  0.0539 -0.1631 -0.3626
  575SOL    HW1 1724   0.229   1.047   1.569 -1.5069  0.7567  0.0717
  575SOL    HW2 1725   0.344   1.061   1.449 -1.1153  0.3049  1.3975
  576SOL     OW 1726   2.049   2.693   1.478 -0.2322 -0.4003 -0.2860
  576SOL    HW1 1727   2.085   2.782   1.511  2.1076 -0.0715 -0.3895
  576SOL    HW2 1728   2.049   2.697   1.378  3.5111 -0.4182 -0.7562
  577SOL     OW 1729   1.034   1.168   1.996 -0.1785  0.6906  0.3236
  577SOL    HW1 1730   1.136   1.173   1.986  0.7314  2.0844 -1.1400
  577SOL    HW2 1731   1.003   1.117   2.082  0.3633  1.4156 -0.6815
  578SOL     OW 1732   1.745   0.738   2.681 -0.3354  0.5213 -0.4494
  578SOL    HW1 1733   1.679   0.670   2.723 -1.0443  1.3292  0.2936
  578SOL    HW2 1734   1.691   0.820   2.644  0.5720 -0.7333 -0.8637
  579SOL     OW 1735   2.003   2.451   1.592 -0.2757 -0.0440 -0.3959
  579SOL    HW1 1736   2.095   2.395   1.588  3.6030  0.2704 -2.6886
  579SOL    HW2 1737   2.023   2.549   1.574 -2.9602 -2.1524 -2.4343
  580SOL     OW 1738   1.969   1.298   2.297 -0.0980  0.8826 -0.0639
  580SOL    HW1 1739   1.881   1.301   2.351  1.7270  1.6634  1.9302
  580SOL    HW2 1740   2.039   1.362   2.335 -2.0848 -3.5360 -1.4932
  581SOL     OW 1741   1.441   1.295   2.633 -0.2273 -0.0131 -0.3242
  581SOL    HW1 1742   1.444   1.342   2.724 -0.6054 -1.2144 -0.3675
  581SOL    HW2 1743   1.383   1.210   2.632 -1.5973  0.6884  0.1248
  582SOL     OW 1744   1.030   1.698   1.871  0.1707  0.6244  0.0505
  582SOL    HW1 1745   1.065   1.701   1.776 -2.3878  1.0088 -0.0270
  582SOL    HW2 1746   1.091   1.747   1.934 -0.3806 -0.6583 -0.5508
  583SOL     OW 1747   1.794   1.202   1.446 -0.0016  0.3605  0.2840
  583SOL    HW1 1748   1.707   1.151   1.435  4.6344  0.1598 -1.8553
  583SOL    HW2 1749   1.845   1.181   1.536  2.0338  2.5669  2.4070
  584SOL     OW 1750   2.028   2.682   0.419  0.3947  0.0945  0.5116
  584SOL    HW1 1751   1.963   2.735   0.359 -0.2338  0.6857 -1.3163
  584SOL    HW2 1752   2.011   2.584   0.408  1.5474  1.0113  0.6772
  585SOL     OW 1753   2.223   2.798   2.688 -0.2336  0.4569  0.2388
  585SOL    HW1 1754   2.125   2.824   2.681  0.8651 -3.0881 -0.4234
  585SOL    HW2 1755   2.224   2.693   2.704  0.2343 -2.1054 -2.9436
  586SOL     OW 1756   2.879   2.383   1.194 -0.3597 -0.4799 -0.1298
  586SOL    HW1 1757   2.875   2.472   1.150  0.1531 -1.1054 -0.2072
  586SOL    HW2 1758   2.915   2.321   1.117  0.5318  0.5045 -0.2548
  587SOL     OW 1759   1.365   1.954   0.065 -0.0438 -0.0939 -0.4539
  587SOL    HW1 1760   1.308   2.035   0.081  3.3476 -0.4550 -1.0973
  587SOL    HW2 1761   1.305   1.879   0.039  0.2343  0.1135  1.9687
  588SOL     OW 1762   0.407   0.459   0.990 -0.2447 -0.1402  0.6659
  588SOL    HW1 1763   0.454   0.375   1.032 -0.0864  0.6155 -0.2513
  588SOL    HW2 1764   0.344   0.434   0.912 -3.1770  2.1034 -1.1660
  589SOL     OW 1765   1.024   0.185   0.516  0.3271  0.6720  0.9504
  589SOL    HW1 1766   0.949   0.251   0.509  1.2612  3.1126 -2.7799
  589SOL    HW2 1767   1.074   0.184   0.426 -1.3992 -3.1927 -0.5790
  590SOL     OW 1768   1.400   0.439   2.902 -0.1574  0.0171 -0.2231
  590SOL    HW1 1769   1.348   0.527   2.919 -0.2223  0.6902  0.9617
  590SOL    HW2 1770   1.410   0.380   2.989  0.0747 -1.0739  2.7729
  591SOL     OW 1771   3.036   2.067   2.253  0.2435  0.1780  0.2226
  591SOL    HW1 1772   2.979   2.082   2.331  0.1235  0.9771 -3.3857
  591SOL    HW2 1773   2.978   2.037   2.174  1.4087 -1.1201 -1.6590
  592SOL     OW 1774   2.265   1.531   2.096 -0.6815  0.0674 -0.5133
  592SOL    HW1 1775   2.220   1.463   2.035  0.1422  1.5684  1.7525
  592SOL    HW2 1776   2.330   1.588   2.045 -1.0668 -2.2805 -0.0141
  593SOL     OW 1777   1.525   1.165   1.809  0.3416  0.5187 -0.4026
  593SOL    HW1 1778   1.522   1.109   1.726  0.7729  0.8710 -1.3060
  593SOL    HW2 1779   1.618   1.174   1.850  0.0322 -0.6058  0.8256
  594SOL     OW 1780   2.636   1.156   3.084  0.4111 -0.1225  0.4063
  594SOL    HW1 1781   2.612   1.246   0.044 -2.0572 -1.1970  1.1172
  594SOL    HW2 1782   2.688   1.095   0.057 -2.7940  2.2453 -0.2027
  595SOL     OW 1783   0.527   0.651   0.563  0.1935 -1.1617 -0.1250
  595SOL    HW1 1784   0.492   0.746   0.581  0.1289  0.7708  0.5756
  595SOL    HW2 1785   0.614   0.623   0.607 -1.3845 -0.7426  2.6589
  596SOL     OW 1786   3.073   1.136   1.364  0.3796  0.0431  0.0095
  596SOL    HW1 1787   3.034   1.222   1.410 -1.4642 -0.3073  1.5261
  596SOL    HW2 1788   0.085   1.123   1.387 -0.2262 -1.9487 -0.4717
  597SOL     OW 1789   1.124   2.015   0.981 -0.5161 -0.2085  0.1633
  597SOL    HW1 1790   1.157   1.919   0.985  0.3034  1.2566  1.6168
  597SOL    HW2 1791   1.094   2.040   1.077 -1.4466  1.1610 -0.4292
  598SOL     OW 1792   0.236   0.120   1.739 -0.0238  0.4279  0.0581
  598SOL    HW1 1793   0.328   0.164   1.733 -1.3580 -0.2180 -1.5380
  598SOL    HW2 1794   0.234   0.052   1.662  0.4562 -0.7940 -0.3616
  599SOL     OW 1795   0.229   1.670   2.845 -0.2979 -0.0208  0.1513
  599SOL    HW1 1796   0.284   1.587   2.830 -1.1554  0.0349  3.1706
  599SOL    HW2 1797   0.289   1.752   2.860  1.4054 -0.5797 -0.2820
  600SOL     OW 1798   0.476   1.166   3.012 -0.1293  0.4905 -0.1838
  600SOL    HW1 1799   0.397   1.209   2.963 -2.0426 -2.4720 -1.5891
  600SOL    HW2 1800   0.504   1.073   2.971  1.0795  0.3557 -1.1673
  601SOL     OW 1801   0.631   0.995   1.198  0.1871 -0.1128  0.5610
  601SOL    HW1 1802   0.731   0.993   1.226  0.7510  0.0476 -1.5974
  601SOL    HW2 1803   0.615   0.925   1.125 -0.4452 -0.8567 -4.7083
  602SOL     OW 1804   0.917   0.157   0.107  0.0857 -0.0975  0.4442
  602SOL    HW1 1805   0.919   0.246   0.054 -1.2014  1.2291  1.7185
  602SOL    HW2 1806   0.844   0.157   0.171  1.2761 -2.4575 -1.4139
  603SOL     OW 1807   1.477   2.263   2.221 -0.4400  0.0870 -0.0268
  603SOL    HW1 1808   1.561   2.303   2.179  0.7281 -2.4369  1.9819
  603SOL    HW2 1809   1.492   2.217   2.314  0.4757 -3.4934 -0.5350
  604SOL     OW 1810   0.528   2.957   2.761 -0.0191 -0.3741 -0.0629
  604SOL    HW1 1811   0.533   2.974   2.864  0.7637 -2.0745 -0.0315
  604SOL    HW2 1812   0.610   2.904   2.728  2.4261  0.0974 -2.9364
  605SOL     OW 1813   2.516   1.164   1.629 -0.2675  0.4619 -0.5116
  605SOL    HW1 1814   2.612   1.206   1.622 -1.6498  1.5800 -1.3156
  605SOL    HW2 1815   2.451   1.239   1.636 -1.1911  1.4698  1.5068
  606SOL     OW 1816   1.016   1.240   2.806 -0.3307  0.4597  0.2399
  606SOL    HW1 1817   1.024   1.274   2.901 -3.2198  1.9874  0.4858
  606SOL    HW2 1818   0.931   1.282   2.767 -0.6869 -1.9826 -2.3848
  607SOL     OW 1819   0.787   0.336   0.512  0.4618  0.3932  0.1061
  607SOL    HW1 1820   0.734   0.246   0.519 -0.5647 -1.3767  0.8220
  607SOL    HW2 1821   0.777   0.393   0.599 -2.1650  1.6951 -0.8978
  608SOL     OW 1822   2.767   1.465   1.506  0.0480 -0.0682 -0.3226
  608SOL    HW1 1823   2.765   1.540   1.572  1.8955 -1.5151  1.0586
  608SOL    HW2 1824   2.688   1.465   1.437 -1.1909 -1.1178  0.1029
  609SOL     OW 1825   2.372   0.550   0.670 -0.0107 -0.1691  0.3211
  609SOL    HW1 1826   2.386   0.534   0.769 -1.5593 -0.0651  0.8439
  609SOL    HW2 1827   2.354   0.649   0.641 -2.9974  3.8046 -2.5484
  610SOL     OW 1828   0.290   2.517   1.432 -0.1117 -0.2737 -0.5420
  610SOL    HW1 1829   0.342   2.554   1.510 -3.0292 -0.3853  0.2828
  610SOL    HW2 1830   0.352   2.534   1.354 -0.8703  1.4481 -2.5936
  611SOL     OW 1831   1.603   1.616   0.253  0.0387 -0.0952 -0.8287
  611SOL    HW1 1832   1.617   1.616   0.352  0.6124 -2.1537  0.2502
  611SOL    HW2 1833   1.631   1.704   0.212 -2.0015 -0.3610  1.5656
  612SOL     OW 1834   0.722   0.130   1.774 -0.6936  0.1887  0.2339
  612SOL    HW1 1835   0.797   0.187   1.803 -0.8601 -1.0699  1.9001
  612SOL    HW2 1836   0.632   0.181   1.785 -0.5399 -3.0904 -0.6447
  613SOL     OW 1837   0.506   2.349   0.417 -0.6463 -0.1631  0.9148
  613SOL    HW1 1838   0.546   2.426   0.365  0.4862 -0.1315 -1.2203
  613SOL    HW2 1839   0.435   2.374   0.477  3.5317 -1.5360 -5.0052
  614SOL     OW 1840   2.136   0.085   2.022  0.3178  0.0491  0.1069
  614SOL    HW1 1841   2.133   0.185   2.057  1.1693 -1.3810  1.6921
  614SOL    HW2 1842   2.234   0.054   2.015  1.6917 -6.7291  0.6004
  615SOL     OW 1843   1.311   1.600   0.583 -0.2824 -0.1199  0.0692
  615SOL    HW1 1844   1.256   1.561   0.505 -1.9793  0.0807 -0.4992
  615SOL    HW2 1845   1.277   1.694   0.611 -0.2196 -1.2028  1.9679
  616SOL     OW 1846   1.612   1.619   0.544  0.1870 -0.0020 -0.4557
  616SOL    HW1 1847   1.515   1.608   0.561  2.5488  0.1352 -1.2869
  616SOL    HW2 1848   1.634   1.717   0.549 -1.0412  0.3337 -1.4897
  617SOL     OW 1849   1.383   1.195   2.936 -0.5780 -0.0463 -0.5965
  617SOL    HW1 1850   1.449   1.127   2.976  1.3736 -2.0948  1.2801
  617SOL    HW2 1851   1.323   1.245   3.001  0.8105  1.8530  1.9008
  618SOL     OW 1852   0.583   0.408   2.008  0.0887  0.2445 -0.4210
  618SOL    HW1 1853   0.669   0.464   2.008 -2.8446 -2.2582 -0.6584
  618SOL    HW2 1854   0.594   0.332   2.075  1.2913  5.0356 -0.1448
  619SOL     OW 1855   3.060   1.376   1.551  0.1796  0.2831  0.1456
  619SOL    HW1 1856   2.988   1.435   1.597 -1.6069  0.2472  0.3038
  619SOL    HW2 1857   0.014   1.413   1.465  0.2028  0.7863 -0.6898
  620SOL     OW 1858   2.632   0.159   2.405  0.3509 -0.7271 -0.2572
  620SOL    HW1 1859   2.547   0.221   2.398 -2.9435  0.7321 -0.4540
  620SOL    HW2 1860   2.716   0.212   2.382 -0.6493  1.6081 -0.0811
  621SOL     OW 1861   2.222   1.886   2.741 -0.0453 -0.4916  0.4815
  621SOL    HW1 1862   2.141   1.850   2.700  2.2166  1.3861  0.0829
  621SOL    HW2 1863   2.240   1.828   2.828 -2.1074 -1.6056  2.2595
  622SOL     OW 1864   1.166   0.885   0.071 -0.5079 -0.0290 -0.5066
  622SOL    HW1 1865   1.124   0.908   0.161 -1.7513 -0.8804  1.5137
  622SOL    HW2 1866   1.183   0.788   0.065  1.7912  1.0357  0.6075
  623SOL     OW 1867   0.938   1.421   1.926  0.2696 -0.2310  0.0483
  623SOL    HW1 1868   0.994   1.335   1.951  0.4328 -0.2050 -2.6874
  623SOL    HW2 1869   0.991   1.507   1.924  1.2077  1.8219  1.0716
  624SOL     OW 1870   2.837   0.054   0.518 -0.4864  0.0251 -0.2550
  624SOL    HW1 1871   2.845   0.107   0.431 -0.2085 -1.8706 -1.8553
  624SOL    HW2 1872   2.853   0.108   0.603  0.3063 -0.2953  0.5187
  625SOL     OW 1873   0.857   2.381   0.537  0.0526 -0.6341 -0.0845
  625SOL    HW1 1874   0.830   2.475   0.499 -0.2395  0.2446 -0.1226
  625SOL    HW2 1875   0.791   2.308   0.518  2.3259  2.3853  0.5884
  626SOL     OW 1876   2.460   0.852   2.423 -0.0233  0.5438  0.4955
  626SOL    HW1 1877   2.488   0.828   2.518  1.6089 -0.9417  0.5583
  626SOL    HW2 1878   2.416   0.943   2.425  4.1034 -2.0418  0.3270
  627SOL     OW 1879   1.369   1.901   2.753  0.2397  0.3681  0.1413
  627SOL    HW1 1880   1.346   1.906   2.653  2.7029 -0.9421  2.0156
  627SOL    HW2 1881   1.400   1.809   2.784 -0.4892  2.6096 -1.0986
  628SOL     OW 1882   2.775   2.816   2.507  0.1894  0.1064  0.3268
  628SOL    HW1 1883   2.723   2.798   2.423 -1.6697 -0.5893  0.7749
  628SOL    HW2 1884   2.713   2.846   2.584 -1.7236 -0.7373  3.1845
  629SOL     OW 1885   1.367   2.555   2.470  0.4621  0.5883 -0.1499
  629SOL    HW1 1886   1.352   2.618   2.394  0.9296 -0.9910 -1.1850
  629SOL    HW2 1887   1.469   2.525   2.475  1.1404 -1.0494 -0.8478
  630SOL     OW 1888   0.755   0.349   2.389  0.1118 -0.3404 -0.1442
  630SOL    HW1 1889   0.834   0.413   2.364 -1.9419  1.7125 -0.2000
  630SOL    HW2 1890   0.781   0.280   2.465 -0.0083 -1.4896 -1.1847
  631SOL     OW 1891   1.943   1.073   0.590  0.1033 -0.2311  0.0142
  631SOL    HW1 1892   1.896   1.093   0.680  1.8249 -1.6021  2.5364
  631SOL    HW2 1893   1.974   1.155   0.540  1.5358  1.5902 -1.2738
  632SOL     OW 1894   2.468   0.105   1.823 -0.3224 -0.3655 -0.0817
  632SOL    HW1 1895   2.415   0.194   1.812  0.6075  2.5563  1.1128
  632SOL    HW2 1896   2.547   0.111   1.885  1.1190 -0.9544 -2.1229
  633SOL     OW 1897   1.143   1.514   0.383  0.1251 -0.5602  0.6155
  633SOL    HW1 1898   1.216   1.511   0.313 -0.0708 -1.9511 -1.9109
  633SOL    HW2 1899   1.058   1.565   0.343  0.2258 -1.3340  0.0643
  634SOL     OW 1900   2.753   2.779   1.949 -0.1251 -0.0061  0.0470
  634SOL    HW1 1901   2.814   2.848   1.902  0.9782  0.3976  2.1177
  634SOL    HW2 1902   2.804   2.717   2.011 -1.6837  0.4356 -2.1198
  635SOL     OW 1903   1.639   0.482   0.453  0.3406  0.1875  0.1675
  635SOL    HW1 1904   1.622   0.413   0.379  2.5219  0.9211 -3.1497
  635SOL    HW2 1905   1.683   0.441   0.535  0.1049 -0.8312 -2.0699
  636SOL     OW 1906   0.702   1.285   3.004  0.0720 -0.3801 -0.2553
  636SOL    HW1 1907   0.612   1.249   2.999  3.5258 -1.9731  0.0911
  636SOL    HW2 1908   0.704   1.371   2.948  0.8541  1.6801  0.3243
  637SOL     OW 1909   2.653   1.887   0.082 -0.6449  0.1474 -0.0532
  637SOL    HW1 1910   2.669   1.825   0.165  0.7130 -1.9701  1.1551
  637SOL    HW2 1911   2.744   1.915   0.046  1.6284  0.7827  0.7799
  638SOL     OW 1912   1.139   2.452   2.620 -0.3017  0.0561 -0.0018
  638SOL    HW1 1913   1.223   2.467   2.569 -0.2451  2.3887  1.4399
  638SOL    HW2 1914   1.164   2.453   2.720 -1.9829  0.5171  0.2603
  639SOL     OW 1915   1.556   1.912   0.951  0.4459 -0.0193 -0.3409
  639SOL    HW1 1916   1.592   1.944   1.039  2.1283 -0.1504  0.0605
  639SOL    HW2 1917   1.522   1.990   0.896 -0.2177 -3.3565  1.6120
  640SOL     OW 1918   2.208   2.920   0.198 -0.5759 -0.3916  0.9612
  640SOL    HW1 1919   2.262   2.992   0.148 -1.0078 -0.5936  0.3317
  640SOL    HW2 1920   2.221   2.938   0.300  0.8288  1.4829  2.3873
  641SOL     OW 1921   2.847   0.368   2.997 -0.3559 -0.2387 -0.9163
  641SOL    HW1 1922   2.852   0.441   3.065  0.9876 -1.2860 -1.1294
  641SOL    HW2 1923   2.783   0.292   3.026 -0.1870 -1.6893 -0.6118
  642SOL     OW 1924   0.517   0.662   1.141  0.0603 -0.0381  0.0867
  642SOL    HW1 1925   0.468   0.656   1.231 -0.5990 -1.1377 -1.3286
  642SOL    HW2 1926   0.489   0.574   1.088 -1.6566 -0.8283 -0.2287
  643SOL     OW 1927   0.739   1.429   2.436  0.9158  0.2716 -0.3858
  643SOL    HW1 1928   0.789   1.363   2.497 -0.1046  0.4963 -0.1078
  643SOL    HW2 1929   0.647   1.384   2.409 -2.3439 -0.4732 -3.5849
  644SOL     OW 1930   1.925   2.106   0.723  0.1621  0.0707 -0.3909
  644SOL    HW1 1931   1.923   2.036   0.649  1.7011 -0.4330  0.7222
  644SOL    HW2 1932   1.998   2.088   0.789  0.5528 -0.4262  0.7730
  645SOL     OW 1933   1.696   2.250   0.714  0.2762  0.5352 -0.1882
  645SOL    HW1 1934   1.629   2.179   0.742 -0.4661  1.6013  1.1934
  645SOL    HW2 1935   1.792   2.218   0.733  0.7163 -0.0050 -1.7982
  646SOL     OW 1936   0.029   2.115   2.983 -0.1860 -0.2220 -0.1884
  646SOL    HW1 1937   3.047   2.044   2.955  0.3948 -0.9704  3.6282
  646SOL    HW2 1938   0.051   2.181   2.906 -2.7692 -2.1466 -2.5898
  647SOL     OW 1939   1.118   3.061   1.416  0.0216 -0.4296 -0.3210
  647SOL    HW1 1940   1.136   3.059   1.319  0.7663  0.0526  1.5482
  647SOL    HW2 1941   1.186   0.037   1.452  0.1805 -1.2265  1.7337
  648SOL     OW 1942   1.202   0.315   0.976 -0.7447  0.0514  0.4606
  648SOL    HW1 1943   1.109   0.335   0.948  2.4559  1.4290  2.9734
  648SOL    HW2 1944   1.271   0.392   0.963  4.6395 -0.1621 -2.9937
  649SOL     OW 1945   1.247   1.837   0.342 -0.8731  0.6401 -0.1834
  649SOL    HW1 1946   1.238   1.778   0.257  2.6781 -0.0477  0.1016
  649SOL    HW2 1947   1.325   1.903   0.330  1.7762  1.4355 -2.6892
  650SOL     OW 1948   2.257   1.631   1.652  0.2927 -0.2176 -0.1830
  650SOL    HW1 1949   2.319   1.710   1.663 -1.3251 -0.3363 -1.6136
  650SOL    HW2 1950   2.178   1.639   1.719  2.0011  0.3371 -0.1153
  651SOL     OW 1951   1.739   2.495   2.943  1.1266 -1.2335  0.0499
  651SOL    HW1 1952   1.819   2.508   2.885  1.3688  1.5079  1.1995
  651SOL    HW2 1953   1.658   2.548   2.909 -1.8939 -2.1409 -0.6769
  652SOL     OW 1954   2.657   1.528   0.334 -0.3425 -0.4043 -0.0164
  652SOL    HW1 1955   2.588   1.598   0.363 -1.2703  2.2310  0.8946
  652SOL    HW2 1956   2.713   1.501   0.416 -0.2149  1.3460  1.1067
  653SOL     OW 1957   0.008   0.157   1.048  0.1186  0.1565  0.4582
  653SOL    HW1 1958   3.040   0.171   0.963 -2.4633  0.0005 -1.9608
  653SOL    HW2 1959   3.072   0.231   1.113 -1.0829  3.9064  1.4947
  654SOL     OW 1960   2.915   2.926   1.803  0.1180 -0.4751  0.7728
  654SOL    HW1 1961   2.909   2.975   1.712  1.8575  0.5816 -2.5563
  654SOL    HW2 1962   3.010   2.913   1.839 -0.5296  0.0735 -1.1637
  655SOL     OW 1963   0.377   2.420   0.650  0.0304 -0.2444 -0.2403
  655SOL    HW1 1964   0.419   2.472   0.726  0.3002  0.2855  1.0509
  655SOL    HW2 1965   0.282   2.451   0.625  0.4437 -0.4258  0.3728
  656SOL     OW 1966   2.933   0.022   2.197 -0.3512 -0.3099  0.2868
  656SOL    HW1 1967   2.997   3.029   2.221  2.8603  1.5675 -1.0083
  656SOL    HW2 1968   2.845   0.019   2.244  1.2255 -0.9033  0.2216
  657SOL     OW 1969   0.018   1.331   2.966 -0.2077 -0.1285 -0.4085
  657SOL    HW1 1970   3.038   1.312   2.897  4.9423 -0.2856 -1.6982
  657SOL    HW2 1971   3.082   1.412   3.020 -2.5896 -1.5851 -1.3943
  658SOL     OW 1972   2.584   1.830   1.133  0.1881 -0.0977  0.6052
  658SOL    HW1 1973   2.673   1.864   1.160 -1.0232 -3.2691 -0.2550
  658SOL    HW2 1974   2.535   1.791   1.219 -2.9562 -2.8958  2.0207
  659SOL     OW 1975   1.542   2.778   3.079  0.2780 -0.2383 -0.1602
  659SOL    HW1 1976   1.559   2.837   0.072 -1.5326  0.6479  0.6234
  659SOL    HW2 1977   1.616   2.795   3.007  1.3346 -0.3183 -0.4783
  660SOL     OW 1978   1.492   1.210   0.233  0.2822 -0.0622 -0.8418
  660SOL    HW1 1979   1.549   1.194   0.152  0.3444  1.7753  2.1618
  660SOL    HW2 1980   1.390   1.222   0.206 -0.8685  3.7931  0.4263
  661SOL     OW 1981   0.217   2.097   1.163  0.2415  0.1047 -0.1685
  661SOL    HW1 1982   0.117   2.077   1.154 -0.1701  0.7064  1.1959
  661SOL    HW2 1983   0.240   2.145   1.249  1.7907  0.4114  1.4591
  662SOL     OW 1984   0.253   0.795   0.128  0.0003 -0.1327 -1.0144
  662SOL    HW1 1985   0.170   0.751   0.084  0.6053  0.2950  1.0826
  662SOL    HW2 1986   0.303   0.729   0.185 -1.0057  1.0157 -2.6226
  663SOL     OW 1987   2.075   1.509   1.163  0.0517 -0.3882 -0.0209
  663SOL    HW1 1988   2.009   1.435   1.188  0.0791  1.2623  1.0462
  663SOL    HW2 1989   2.076   1.517   1.061  1.6398 -2.2537  1.2394
  664SOL     OW 1990   1.018   1.330   1.259 -0.3966  0.2924 -0.2983
  664SOL    HW1 1991   1.115   1.309   1.297  1.9476 -0.3558 -2.5018
  664SOL    HW2 1992   1.000   1.418   1.219 -1.9627 -0.7093 -0.2232
  665SOL     OW 1993   2.146   2.525   2.135  0.5962 -0.3495  0.7137
  665SOL    HW1 1994   2.059   2.571   2.112  2.1861  1.0972 -0.0435
  665SOL    HW2 1995   2.148   2.438   2.090  2.5717  2.6125  0.1494
  666SOL     OW 1996   2.738   2.863   2.994 -0.1779  0.5518 -0.4237
  666SOL    HW1 1997   2.766   2.763   3.006  1.4823 -2.8027  2.1611
  666SOL    HW2 1998   2.822   2.917   3.019  1.1367 -1.2276  2.0674
  667SOL     OW 1999   2.436   1.180   2.041 -0.0514 -0.1834  0.0679
  667SOL    HW1 2000   2.421   1.081   2.012  0.1271 -2.9958  1.1532
  667SOL    HW2 2001   2.346   1.227   2.026  0.8134 -0.8919  0.4240
  668SOL     OW 2002   0.396   0.994   2.621  0.1378 -0.1157 -0.7195
  668SOL    HW1 2003   0.328   1.017   2.694  2.3365 -1.4115 -0.3769
  668SOL    HW2 2004   0.355   1.000   2.526 -2.2153 -0.1643 -0.2424
  669SOL     OW 2005   2.111   2.182   2.272  0.4410  1.1093  0.2906
  669SOL    HW1 2006   2.207   2.170   2.243 -3.9805  0.6803  1.2257
  669SOL    HW2 2007   2.104   2.220   2.370  2.4380 -1.7925  2.5851
  670SOL     OW 2008   2.209   1.332   1.909  0.2411  0.2716 -0.1436
  670SOL    HW1 2009   2.231   1.372   1.821  1.3755 -0.0526 -0.0658
  670SOL    HW2 2010   2.158   1.243   1.894  3.4835 -0.3958  4.3238
  671SOL     OW 2011   2.791   1.437   0.544  0.1474  0.8548 -0.1914
  671SOL    HW1 2012   2.798   1.336   0.552 -0.1020  0.3344  2.0937
  671SOL    HW2 2013   2.818   1.484   0.628 -4.0683 -0.7803 -2.4660
  672SOL     OW 2014   2.345   0.659   2.266 -0.0519 -0.3186 -0.1910
  672SOL    HW1 2015   2.263   0.664   2.206  1.2501  0.3842  2.7578
  672SOL    HW2 2016   2.362   0.749   2.312 -0.2780  1.5268 -0.6489
  673SOL     OW 2017   2.707   0.056   1.968 -0.5408  0.0120  0.3025
  673SOL    HW1 2018   2.779   0.004   1.921  0.9286 -1.2065  0.7166
  673SOL    HW2 2019   2.682   0.014   2.060  0.1094 -1.4768 -0.1655
  674SOL     OW 2020   1.684   1.774   1.456 -0.2774  0.5842  0.7286
  674SOL    HW1 2021   1.769   1.713   1.446  1.7834  0.0827  0.5348
  674SOL    HW2 2022   1.674   1.832   1.372  0.8884 -3.2506  0.3060
  675SOL     OW 2023   0.761   0.557   0.716 -0.0644  0.3418  0.2699
  675SOL    HW1 2024   0.718   0.594   0.803 -3.7095 -2.5598  3.5345
  675SOL    HW2 2025   0.862   0.561   0.726 -0.3093 -0.8133  0.8857
  676SOL     OW 2026   1.521   0.829   0.924  0.3720 -0.4896 -0.0886
  676SOL    HW1 2027   1.443   0.897   0.944 -1.2620 -0.9055 -0.4706
  676SOL    HW2 2028   1.477   0.754   0.868  2.2081  1.1779  3.1970
  677SOL     OW 2029   2.440   1.374   2.234 -0.5426  0.3122  0.4435
  677SOL    HW1 2030   2.472   1.310   2.163  1.5589  2.2196  2.8841
  677SOL    HW2 2031   2.378   1.443   2.193  0.8178  0.2581 -0.0952
  678SOL     OW 2032   2.775   1.620   0.986  0.1936 -0.3708 -0.0555
  678SOL    HW1 2033   2.814   1.558   1.056  0.2958  3.5741 -1.1694
  678SOL    HW2 2034   2.700   1.679   1.021  0.7124 -2.2363  2.8488
  679SOL     OW 2035   2.244   2.562   0.012  0.5649 -0.0873 -0.0527
  679SOL    HW1 2036   2.181   2.625   3.049 -0.0302  1.2675 -0.0611
  679SOL    HW2 2037   2.331   2.560   3.044  1.0288  3.6515  1.3663
  680SOL     OW 2038   0.251   2.101   1.986  0.2028  0.2264 -0.4305
  680SOL    HW1 2039   0.266   2.000   1.996  0.4095 -2.8547 -4.0851
  680SOL    HW2 2040   0.335   2.146   1.946 -1.6841 -2.0028 -1.6666
  681SOL     OW 2041   0.514   1.058   1.424 -0.1278  0.2463 -0.2306
  681SOL    HW1 2042   0.540   1.027   1.328  1.1852 -1.3757  0.1134
  681SOL    HW2 2043   0.533   1.153   1.442 -0.6631 -2.3190  1.3916
  682SOL     OW 2044   1.411   2.522   0.848  0.3424  0.8166  0.5220
  682SOL    HW1 2045   1.436   2.504   0.749  2.6901  0.2323 -0.9888
  682SOL    HW2 2046   1.311   2.545   0.858 -0.2655 -0.7789 -0.4300
  683SOL     OW 2047   2.543   1.369   0.759 -0.1020 -0.4834  0.6385
  683SOL    HW1 2048   2.513   1.304   0.687  1.5393 -0.8174  0.9198
  683SOL    HW2 2049   2.640   1.363   0.794 -0.1504 -0.9588 -1.2511
  684SOL     OW 2050   0.647   1.921   1.922 -0.0722  0.4725 -0.0748
  684SOL    HW1 2051   0.717   1.957   1.987 -0.9677  1.7678  0.3187
  684SOL    HW2 2052   0.582   1.991   1.891  0.7209  2.6015 -0.1424
  685SOL     OW 2053   1.797   1.492   0.125 -0.0809  0.1721  0.1032
  685SOL    HW1 2054   1.893   1.539   0.124 -2.5446  0.7368 -0.1506
  685SOL    HW2 2055   1.731   1.568   0.133 -3.0937 -0.7193  2.4695
  686SOL     OW 2056   0.318   0.881   1.072 -0.6207  0.0176  0.1381
  686SOL    HW1 2057   0.334   0.944   0.991  2.6860 -0.4769  2.6300
  686SOL    HW2 2058   0.390   0.805   1.080  2.3004 -1.5813 -2.9853
  687SOL     OW 2059   0.948   2.127   2.967 -0.6549 -0.0775  0.2715
  687SOL    HW1 2060   0.957   2.165   3.059  0.0193 -2.0287  1.2891
  687SOL    HW2 2061   0.883   2.183   2.913 -1.1906 -1.2225  0.9803
  688SOL     OW 2062   2.390   1.687   1.923 -0.3647 -0.3478 -0.1569
  688SOL    HW1 2063   2.486   1.645   1.915  1.1894 -1.0283 -0.7525
  688SOL    HW2 2064   2.375   1.755   1.845 -1.4126  0.0719 -0.2616
  689SOL     OW 2065   2.141   0.710   2.035  0.1845 -0.2801  0.2334
  689SOL    HW1 2066   2.211   0.754   1.974 -3.0792 -0.7752  1.8634
  689SOL    HW2 2067   2.089   0.639   1.984  1.2905 -2.1887 -1.0470
  690SOL     OW 2068   2.182   1.000   1.381 -0.3837  0.0867 -0.2257
  690SOL    HW1 2069   2.148   1.070   1.447 -0.1965 -0.8758  2.1979
  690SOL    HW2 2070   2.276   1.016   1.352 -2.1105 -0.1628  1.0348
  691SOL     OW 2071   0.776   1.736   1.783  0.0296 -0.2517  0.5625
  691SOL    HW1 2072   0.723   1.806   1.835 -1.3711  0.0105  2.9286
  691SOL    HW2 2073   0.867   1.731   1.822  0.4863 -1.9823  0.4404
  692SOL     OW 2074   2.138   3.072   1.295  0.2455 -0.1988 -0.2893
  692SOL    HW1 2075   2.185   0.075   1.320  1.1149  2.8128  0.2408
  692SOL    HW2 2076   2.078   0.000   1.211  1.9555  3.2500 -1.4661
  693SOL     OW 2077   0.665   1.127   2.251  0.3886 -0.3698 -0.7116
  693SOL    HW1 2078   0.734   1.167   2.317  0.2668  2.4477 -0.6355
  693SOL    HW2 2079   0.676   1.027   2.240  1.9973  1.0692  1.1492
  694SOL     OW 2080   1.756   2.831   1.337  0.1603 -0.2190  0.1387
  694SOL    HW1 2081   1.843   2.793   1.303 -0.0893  2.4594 -2.1914
  694SOL    HW2 2082   1.686   2.810   1.269  2.7189 -1.3908 -0.1636
  695SOL     OW 2083   1.312   1.179   1.976 -0.1965  0.6271  0.1438
  695SOL    HW1 2084   1.337   1.184   2.076  1.4793 -0.3807  0.9096
  695SOL    HW2 2085   1.395   1.160   1.922  0.7926  1.8244  0.5899
  696SOL     OW 2086   1.504   3.028   0.548 -0.5401  0.1365 -0.9751
  696SOL    HW1 2087   1.448   2.944   0.556  3.2978  0.4973  0.7197
  696SOL    HW2 2088   1.599   3.000   0.512  0.3420 -0.1645  0.1492
  697SOL     OW 2089   1.182   0.133   0.729  0.1385 -0.3063 -0.6037
  697SOL    HW1 2090   1.168   0.169   0.822 -1.1083 -0.0549 -0.0324
  697SOL    HW2 2091   1.116   0.172   0.656 -1.3422  1.5493 -1.7956
  698SOL     OW 2092   1.771   1.144   2.406  0.6555 -0.9120  0.0125
  698SOL    HW1 2093   1.779   1.052   2.361  0.4992 -1.3409  0.6156
  698SOL    HW2 2094   1.682   1.184   2.386 -0.7729 -1.4663 -2.1527
  699SOL     OW 2095   1.293   1.293   1.346 -0.1360  0.1036 -0.0949
  699SOL    HW1 2096   1.348   1.278   1.263 -1.2733 -1.8880 -0.9822
  699SOL    HW2 2097   1.353   1.343   1.410  0.5423  0.7991 -1.3081
  700SOL     OW 2098   1.402   0.194   0.576  0.2331 -0.4477  0.2416
  700SOL    HW1 2099   1.325   0.163   0.632  0.5135  2.9401 -0.2783
  700SOL    HW2 2100   1.446   0.108   0.545 -1.5859 -0.2398 -0.1593
  701SOL     OW 2101   0.517   0.309   1.764  0.3176  0.8020  0.4483
  701SOL    HW1 2102   0.513   0.389   1.701 -1.5058  1.8040  1.0674
  701SOL    HW2 2103   0.536   0.345   1.857 -2.0235  0.9586 -1.3135
  702SOL     OW 2104   1.264   2.934   0.239 -0.3222 -0.4719 -0.2376
  702SOL    HW1 2105   1.202   3.017   0.234  0.2929 -1.0541 -0.6096
  702SOL    HW2 2106   1.222   2.848   0.204  0.2104 -0.2881 -1.7726
  703SOL     OW 2107   2.578   2.815   2.318  0.3252  0.3590 -0.2609
  703SOL    HW1 2108   2.487   2.829   2.367 -0.5936 -1.7211  2.4853
  703SOL    HW2 2109   2.593   2.719   2.287 -0.9842  1.4487 -1.1851
  704SOL     OW 2110   0.610   2.180   0.604  0.1712 -0.1235  0.2005
  704SOL    HW1 2111   0.570   2.258   0.555 -2.4334 -0.2168  0.0675
  704SOL    HW2 2112   0.634   2.200   0.696 -2.0163 -0.9317 -2.7542
  705SOL     OW 2113   0.022   0.637   1.956  0.1997 -0.1750  0.0147
  705SOL    HW1 2114   0.073   0.560   1.908 -2.6178 -0.6173 -0.4001
  705SOL    HW2 2115   0.067   0.640   2.050  1.6794  1.7323  0.3673
  706SOL     OW 2116   1.536   2.947   0.194  0.3364  0.1925  0.1623
  706SOL    HW1 2117   1.597   2.957   0.273 -1.3635  0.8389  0.1822
  706SOL    HW2 2118   1.441   2.950   0.229 -2.0020 -0.1987  0.6559
  707SOL     OW 2119   1.513   1.928   2.033  0.0401  0.0519  0.1393
  707SOL    HW1 2120   1.482   1.851   2.086  2.6685 -1.4480 -1.0492
  707SOL    HW2 2121   1.436   2.005   2.027 -2.1033  1.4728 -1.5355
  708SOL     OW 2122   3.060   2.190   1.561 -0.4892 -0.1247  0.6171
  708SOL    HW1 2123   3.054   2.289   1.533 -0.5989 -3.2209 -2.9090
  708SOL    HW2 2124   3.083   2.177   1.659  2.0735 -1.1735 -0.5558
  709SOL     OW 2125   2.042   0.391   1.536  0.3598 -0.3942  0.2385
  709SOL    HW1 2126   2.035   0.338   1.624 -2.5920 -0.0725 -0.4699
  709SOL    HW2 2127   1.948   0.405   1.495 -2.8553  2.6201 -1.6540
  710SOL     OW 2128   2.905   2.999   1.527  0.6691  0.6011 -0.4343
  710SOL    HW1 2129   2.898   2.976   1.429 -0.9593  1.5728  0.1654
  710SOL    HW2 2130   2.821   3.050   1.554  0.0383 -2.1745  1.1639
  711SOL     OW 2131   0.080   2.317   0.337  0.0902 -0.1817 -0.6677
  711SOL    HW1 2132   0.113   2.358   0.249  1.3075 -2.1477 -0.1102
  711SOL    HW2 2133   3.081   2.265   0.330 -0.0351 -1.1778  0.5444
  712SOL     OW 2134   0.662   2.069   2.415 -0.0987 -0.3525  0.6877
  712SOL    HW1 2135   0.575   2.083   2.363 -0.7453  0.8844 -1.1822
  712SOL    HW2 2136   0.744   2.113   2.372  2.7561  1.3169 -1.6771
  713SOL     OW 2137   2.059   0.645   2.921  0.4415  0.1732  0.6770
  713SOL    HW1 2138   2.008   0.560   2.937 -0.9505 -0.1639 -2.4122
  713SOL    HW2 2139   2.045   0.717   2.984  1.3953 -1.1320  0.3835
  714SOL     OW 2140   1.215   1.852   0.616  0.0200  0.5551  0.4059
  714SOL    HW1 2141   1.207   1.942   0.665  0.5909 -0.4409  1.6657
  714SOL    HW2 2142   1.243   1.858   0.519  0.2494  0.1457  0.9297
  715SOL     OW 2143   1.982   0.168   0.635 -0.0320 -0.0079  0.0991
  715SOL    HW1 2144   1.906   0.178   0.704  3.2341  0.1283 -1.5230
  715SOL    HW2 2145   2.031   0.261   0.631 -0.1536 -1.4902 -2.5370
  716SOL     OW 2146   0.604   0.781   1.778 -1.0282 -0.0099 -0.1937
  716SOL    HW1 2147   0.549   0.711   1.823  5.0278  2.8031 -3.3467
  716SOL    HW2 2148   0.602   0.769   1.676  2.6542 -1.6632 -0.9875
  717SOL     OW 2149   0.046   0.672   3.063  0.3872 -0.1856  0.1237
  717SOL    HW1 2150   0.005   0.741   3.001  0.9303 -1.4730 -0.3544
  717SOL    HW2 2151   0.009   0.582   3.044  2.6175  2.6293  1.5886
  718SOL     OW 2152   1.095   0.910   0.329  0.2413  0.4039 -0.3313
  718SOL    HW1 2153   1.181   0.935   0.381  2.8529 -1.7631  1.5891
  718SOL    HW2 2154   1.054   0.823   0.363 -1.3045 -0.6784  4.7611
  719SOL     OW 2155   2.477   1.732   2.767  0.0828 -0.4394  0.0208
  719SOL    HW1 2156   2.530   1.648   2.802  0.7236 -3.4473  2.0623
  719SOL    HW2 2157   2.517   1.774   2.681  1.9654  1.7514  0.7354
  720SOL     OW 2158   1.610   0.786   1.193  0.6981 -0.1011 -0.0897
  720SOL    HW1 2159   1.582   0.793   1.094  0.8292  1.5459 -1.6704
  720SOL    HW2 2160   1.540   0.724   1.240 -2.3455  0.0947 -2.0712
  721SOL     OW 2161   2.729   0.786   0.495 -0.3486  0.0922  0.6191
  721SOL    HW1 2162   2.826   0.810   0.478 -0.5148 -0.6607 -0.0018
  721SOL    HW2 2163   2.721   0.685   0.514  0.1107 -2.3413  0.2709
  722SOL     OW 2164   1.096   1.518   2.711 -0.0356  0.0844  0.0023
  722SOL    HW1 2165   1.012   1.570   2.694  2.5248 -2.7222 -0.7745
  722SOL    HW2 2166   1.083   1.435   2.773 -0.7502 -1.5266  1.2524
  723SOL     OW 2167   0.499   0.977   0.364 -0.1404 -0.1981  0.1483
  723SOL    HW1 2168   0.483   1.076   0.354 -2.2576 -2.9670  0.2101
  723SOL    HW2 2169   0.427   0.925   0.422 -2.1708 -2.1107  0.3249
  724SOL     OW 2170   1.001   2.332   1.952 -0.0929  0.6728 -0.1244
  724SOL    HW1 2171   0.902   2.316   1.946  2.1491 -1.2555  1.6205
  724SOL    HW2 2172   1.020   2.430   1.976 -1.3133  1.2388  1.2333
  725SOL     OW 2173   2.592   0.917   1.706  0.3320 -0.6404 -0.3306
  725SOL    HW1 2174   2.545   1.004   1.671 -2.6345  2.3779  0.5094
  725SOL    HW2 2175   2.634   0.929   1.802  3.4693  0.8028  1.8356
  726SOL     OW 2176   1.722   2.936   0.408 -0.3599  0.2724  0.3449
  726SOL    HW1 2177   1.810   2.976   0.445  0.2966  1.7402 -0.1001
  726SOL    HW2 2178   1.743   2.839   0.414  0.5137  3.7302  1.5087
  727SOL     OW 2179   1.258   1.035   2.462 -0.6057 -0.1212 -0.7249
  727SOL    HW1 2180   1.241   1.071   2.554 -1.2555  0.4698  0.2801
  727SOL    HW2 2181   1.191   0.960   2.449 -0.3481 -0.7032 -1.6843
  728SOL     OW 2182   1.536   2.845   1.132  0.2098  0.0561  0.1733
  728SOL    HW1 2183   1.469   2.782   1.180 -0.4607 -0.5241  1.3718
  728SOL    HW2 2184   1.543   2.934   1.185 -0.2554  1.9063 -2.8624
  729SOL     OW 2185   1.447   0.606   1.366 -0.0587 -0.1753 -0.1640
  729SOL    HW1 2186   1.370   0.584   1.300  0.2785  2.5713  1.7580
  729SOL    HW2 2187   1.439   0.557   1.455  2.2486  0.3309  1.3535
  730SOL     OW 2188   0.851   1.982   2.111 -0.2526  0.0568 -0.0677
  730SOL    HW1 2189   0.914   2.057   2.079  4.5415 -0.0957  1.3104
  730SOL    HW2 2190   0.905   1.901   2.139 -0.4366 -1.5284  0.5037
  731SOL     OW 2191   0.463   0.303   0.414  0.0616 -0.2104 -0.0679
  731SOL    HW1 2192   0.523   0.385   0.401  0.3231 -0.1430 -0.2944
  731SOL    HW2 2193   0.506   0.222   0.382  0.5384  1.4023 -0.1194
  732SOL     OW 2194   0.552   0.411   2.885 -0.0961 -0.7008 -0.0052
  732SOL    HW1 2195   0.636   0.426   2.940 -0.4482 -1.3858 -0.0471
  732SOL    HW2 2196   0.466   0.404   2.939 -1.3371 -1.6093 -1.1370
  733SOL     OW 2197   1.158   2.360   1.178 -0.1469 -0.2109 -0.1197
  733SOL    HW1 2198   1.136   2.279   1.233  0.0861  2.1439  1.2719
  733SOL    HW2 2199   1.114   2.441   1.220  0.3020  0.4227 -0.3588
  734SOL     OW 2200   2.951   2.399   2.455 -0.6419 -0.1453  0.7058
  734SOL    HW1 2201   3.012   2.319   2.464 -0.2062 -0.6331 -0.4765
  734SOL    HW2 2202   2.907   2.427   2.544  2.0032  0.5719  0.0304
  735SOL     OW 2203   0.984   2.814   1.054 -0.3106 -0.3299 -0.4807
  735SOL    HW1 2204   0.969   2.892   1.119  0.0881  3.0638  0.9980
  735SOL    HW2 2205   1.075   2.826   1.010 -2.0992  2.1447 -1.9243
  736SOL     OW 2206   1.549   1.019   3.054  0.0907  0.1630  0.2611
  736SOL    HW1 2207   1.522   0.948   2.989 -1.4887 -1.5448  0.5892
  736SOL    HW2 2208   1.564   0.964   0.054  1.1242  0.4733 -1.2459
  737SOL     OW 2209   0.082   0.228   0.636 -0.5342 -0.0015  0.0796
  737SOL    HW1 2210   0.057   0.131   0.647  0.5621  0.9732  0.2655
  737SOL    HW2 2211   0.002   0.286   0.652  0.1843  1.7772  0.9785
  738SOL     OW 2212   2.664   2.882   1.263  0.3092  0.0682  0.2572
  738SOL    HW1 2213   2.706   2.972   1.248  0.0682 -0.1670 -1.4808
  738SOL    HW2 2214   2.566   2.900   1.288 -1.3311  0.3167  0.1178
  739SOL     OW 2215   1.485   2.624   0.424  0.2239  0.1471 -0.4194
  739SOL    HW1 2216   1.428   2.700   0.464 -0.5043 -1.4567 -0.3928
  739SOL    HW2 2217   1.485   2.541   0.488  1.9833 -2.5843  3.6695
  740SOL     OW 2218   1.925   2.913   0.987 -0.0324 -0.0780 -0.0958
  740SOL    HW1 2219   1.863   2.993   0.989 -1.2981  0.6768 -0.3901
  740SOL    HW2 2220   1.932   2.862   0.900 -0.9851  3.4957 -1.0058
  741SOL     OW 2221   1.909   0.543   0.937 -0.5108  0.2886  0.2591
  741SOL    HW1 2222   1.992   0.492   0.959 -2.3846  0.9391 -1.4775
  741SOL    HW2 2223   1.920   0.647   0.919  0.0927 -1.4152  1.5165
  742SOL     OW 2224   1.301   2.109   2.043 -0.1931 -0.4139  0.0705
  742SOL    HW1 2225   1.331   2.192   2.090 -2.3279 -1.7131 -1.8227
  742SOL    HW2 2226   1.266   2.134   1.951 -0.7468 -1.7372  2.8136
  743SOL     OW 2227   2.293   0.335   1.809 -0.3707 -0.6942 -0.2429
  743SOL    HW1 2228   2.361   0.382   1.750 -1.5655 -0.4149 -0.4321
  743SOL    HW2 2229   2.261   0.395   1.884  0.2164 -0.2972  0.8903
  744SOL     OW 2230   2.216   0.671   1.217  0.1205  0.0476 -0.3548
  744SOL    HW1 2231   2.239   0.707   1.311 -2.8362 -1.6540 -0.3469
  744SOL    HW2 2232   2.274   0.711   1.147 -3.4143  0.2405  0.7218
  745SOL     OW 2233   1.917   1.181   1.667 -0.2105  0.1289 -0.1911
  745SOL    HW1 2234   1.943   1.086   1.699  2.5280 -1.0538  0.6685
  745SOL    HW2 2235   1.913   1.248   1.747 -0.1372  0.4432 -2.6280
  746SOL     OW 2236   1.102   1.402   0.819 -0.5663  0.0375 -0.1326
  746SOL    HW1 2237   1.203   1.430   0.829  1.3619 -2.1189  3.2422
  746SOL    HW2 2238   1.053   1.463   0.751 -1.2943 -0.0498 -0.4928
  747SOL     OW 2239   1.477   1.248   1.122  0.0543  0.0880 -0.1874
  747SOL    HW1 2240   1.446   1.212   1.029  1.1304  1.9078 -1.5293
  747SOL    HW2 2241   1.518   1.338   1.117 -1.5099 -2.4571  2.0721
  748SOL     OW 2242   3.086   3.020   0.469 -0.3787 -0.1693 -0.2570
  748SOL    HW1 2243   3.027   3.003   0.385 -0.2694 -0.1868 -2.3466
  748SOL    HW2 2244   3.025   3.031   0.552  1.0383  1.3823 -0.4426
  749SOL     OW 2245   3.032   0.238   2.092  0.4911 -0.5879 -0.4571
  749SOL    HW1 2246   2.974   0.164   2.131  0.6276  0.7687 -0.1966
  749SOL    HW2 2247   3.038   0.316   2.163  0.6898  2.3406  0.2061
  750SOL     OW 2248   1.810   0.140   1.299  0.0484  0.1499 -0.7441
  750SOL    HW1 2249   1.807   0.239   1.318 -1.3971 -1.2135  1.5043
  750SOL    HW2 2250   1.774   0.115   1.208  2.0114  0.1473  4.7007
  751SOL     OW 2251   2.975   0.426   0.691 -0.0573 -0.4635  0.1000
  751SOL    HW1 2252   2.958   0.383   0.784 -0.0907 -3.4736  0.3956
  751SOL    HW2 2253   3.055   0.490   0.689  1.4046  1.8929 -0.1943
  752SOL     OW 2254   0.311   2.636   1.020  0.1381  0.3891 -0.2004
  752SOL    HW1 2255   0.308   2.704   1.095 -0.9378 -0.7794 -0.5433
  752SOL    HW2 2256   0.215   2.619   0.989 -0.9579 -0.0517 -0.8880
  753SOL     OW 2257   1.196   0.260   1.790  0.1025 -0.4860  0.3460
  753SOL    HW1 2258   1.166   0.354   1.807  1.6646 -1.0420 -0.1340
  753SOL    HW2 2259   1.280   0.250   1.844 -1.2199  0.1102 -1.1632
  754SOL     OW 2260   1.360   2.557   1.586  0.7014 -0.5876 -0.4764
  754SOL    HW1 2261   1.446   2.592   1.545 -1.0287 -0.4317 -0.8256
  754SOL    HW2 2262   1.356   2.563   1.690 -1.4110  1.6541  1.4264
  755SOL     OW 2263   2.885   1.171   0.639 -0.2457 -0.2781  0.4646
  755SOL    HW1 2264   2.854   1.202   0.732 -0.9245  0.3656  1.1017
  755SOL    HW2 2265   2.897   1.071   0.645  0.6814  0.9740 -0.7517
  756SOL     OW 2266   1.635   1.543   2.545 -0.1092 -0.3629  0.0683
  756SOL    HW1 2267   1.729   1.555   2.585 -1.5837  0.6792  0.4999
  756SOL    HW2 2268   1.574   1.487   2.603 -0.3507 -1.9701 -1.8523
  757SOL     OW 2269   1.994   2.826   0.731  0.0422  0.0387 -0.1995
  757SOL    HW1 2270   1.964   2.886   0.653 -0.4565  2.6229  4.3992
  757SOL    HW2 2271   2.096   2.813   0.726 -0.5875 -2.0730  1.9456
  758SOL     OW 2272   0.842   2.734   0.847 -0.1564 -0.0334 -0.1683
  758SOL    HW1 2273   0.816   2.635   0.855 -0.6126 -0.0821  1.3148
  758SOL    HW2 2274   0.881   2.775   0.930  0.4682 -0.3007 -4.2437
  759SOL     OW 2275   3.061   0.575   0.990  0.0188 -0.0834  0.6353
  759SOL    HW1 2276   0.056   0.566   0.929  0.1763  0.7246  0.0263
  759SOL    HW2 2277   2.990   0.625   0.936  0.0247 -0.7896  1.2220
  760SOL     OW 2278   2.251   1.282   1.198 -0.3830  0.3295  0.5734
  760SOL    HW1 2279   2.318   1.240   1.262  1.0922  0.2784 -0.6660
  760SOL    HW2 2280   2.171   1.311   1.246  1.9283 -0.1922 -0.8968
  761SOL     OW 2281   0.863   0.994   0.950  0.5871 -0.5778  0.3862
  761SOL    HW1 2282   0.948   1.048   0.974 -0.9253  1.8758 -0.7591
  761SOL    HW2 2283   0.898   0.928   0.884  2.2271  1.7399 -0.0960
  762SOL     OW 2284   2.116   1.982   1.357  0.3546  0.5709 -0.4727
  762SOL    HW1 2285   2.170   1.902   1.323 -1.4991 -0.2469  2.5412
  762SOL    HW2 2286   2.067   1.964   1.443  1.2171 -0.2179 -0.6755
  763SOL     OW 2287   1.246   1.522   1.989 -0.4318 -0.3871  0.4008
  763SOL    HW1 2288   1.247   1.471   2.076 -0.2340 -0.7399 -0.9359
  763SOL    HW2 2289   1.245   1.623   2.003  0.4190 -0.0554 -2.9178
  764SOL     OW 2290   3.042   1.746   2.372 -0.3170  0.4748  0.1100
  764SOL    HW1 2291   0.049   1.792   2.366  0.2806  0.3884  1.8245
  764SOL    HW2 2292   3.048   1.645   2.355  1.2855  0.0781 -2.5083
  765SOL     OW 2293   1.009   2.626   1.253  0.2267 -0.2238  0.3165
  765SOL    HW1 2294   0.968   2.655   1.340 -1.6774 -1.0200 -1.0848
  765SOL    HW2 2295   0.999   2.699   1.186  1.8610 -0.7747 -2.6114
  766SOL     OW 2296   0.823   2.293   2.779 -0.2637  0.2117 -0.7475
  766SOL    HW1 2297   0.765   2.224   2.732  0.5762  1.8282 -1.0096
  766SOL    HW2 2298   0.791   2.389   2.787  0.6574  3.2419 -1.9292
  767SOL     OW 2299   1.462   0.936   2.790 -0.0209  0.0684 -0.1585
  767SOL    HW1 2300   1.404   0.877   2.846  4.2122  2.2416  0.2688
  767SOL    HW2 2301   1.483   0.905   2.694  1.9639 -0.4800  0.9301
  768SOL     OW 2302   1.263   2.432   2.856  0.6407 -0.0028  0.2795
  768SOL    HW1 2303   1.364   2.432   2.838 -0.9904  1.5431 -0.5277
  768SOL    HW2 2304   1.235   2.338   2.880  0.8750  1.4153 -1.7666
  769SOL     OW 2305   0.072   2.656   1.325 -0.2144  0.3591 -0.1246
  769SOL    HW1 2306   0.095   2.734   1.261  2.7190  0.3715 -0.3180
  769SOL    HW2 2307   0.156   2.605   1.358 -0.6367 -2.3697  1.0204
  770SOL     OW 2308   0.782   0.028   2.760 -0.4078 -0.0837 -0.0964
  770SOL    HW1 2309   0.837   3.041   2.712  0.5554 -1.5451  2.0640
  770SOL    HW2 2310   0.789   0.014   2.862  1.7457 -1.6822 -1.4006
  771SOL     OW 2311   0.869   0.032   2.376 -0.1192  0.3225 -0.4603
  771SOL    HW1 2312   0.901   0.103   2.443  2.1329 -0.2656  0.4016
  771SOL    HW2 2313   0.773   0.000   2.396  0.9689  1.7449 -1.2490
  772SOL     OW 2314   2.381   3.030   2.014 -0.4193 -0.3007  0.2029
  772SOL    HW1 2315   2.417   3.076   1.931 -1.4476 -0.1660 -1.1681
  772SOL    HW2 2316   2.423   2.940   2.020 -0.6301  0.6248  0.2831
  773SOL     OW 2317   0.768   2.440   1.862  0.2973 -0.1787  0.3545
  773SOL    HW1 2318   0.747   2.539   1.846  2.9762  2.3013 -0.9948
  773SOL    HW2 2319   0.714   2.401   1.941  0.2853 -3.0590  3.0200
  774SOL     OW 2320   1.194   0.405   2.187 -0.0095 -0.0877 -0.0428
  774SOL    HW1 2321   1.230   0.318   2.216 -1.4390  2.6656 -0.9554
  774SOL    HW2 2322   1.206   0.423   2.086  1.6712 -0.2678 -4.5123
  775SOL     OW 2323   2.196   2.551   2.712 -0.0719  0.5227  0.2010
  775SOL    HW1 2324   2.104   2.519   2.740  0.3051  1.1111 -0.7073
  775SOL    HW2 2325   2.262   2.478   2.739 -0.9054  0.3025 -1.1214
  776SOL     OW 2326   1.776   0.526   2.274  0.2011  0.3533  0.1082
  776SOL    HW1 2327   1.873   0.548   2.291  2.6579  2.7650 -2.3499
  776SOL    HW2 2328   1.756   0.565   2.185  0.3798 -0.2919  1.1225
  777SOL     OW 2329   2.881   1.119   2.267 -0.1252 -0.1778 -0.1427
  777SOL    HW1 2330   2.907   1.107   2.367 -1.8188 -0.9414  1.0095
  777SOL    HW2 2331   2.792   1.170   2.258 -0.4953  1.7960 -1.8527
  778SOL     OW 2332   2.069   0.552   2.341 -0.3392  0.2469 -0.5684
  778SOL    HW1 2333   2.105   0.642   2.373 -1.4414 -0.0751  2.2681
  778SOL    HW2 2334   2.049   0.493   2.422  2.7691 -0.2154 -1.7840
  779SOL     OW 2335   2.982   0.176   0.159  0.0330  0.2029  0.2103
  779SOL    HW1 2336   2.958   0.250   0.230 -1.6489  5.2486  1.1784
  779SOL    HW2 2337   3.082   0.182   0.143  2.6117  1.5110 -0.7131
  780SOL     OW 2338   2.411   0.298   2.442 -0.1402  0.5282 -0.5657
  780SOL    HW1 2339   2.419   0.398   2.429 -0.5148 -3.0216 -0.2771
  780SOL    HW2 2340   2.333   0.251   2.396 -0.9979  1.9868  1.0021
  781SOL     OW 2341   0.174   3.025   1.532 -0.2421 -0.1090 -0.3040
  781SOL    HW1 2342   0.078   2.997   1.556 -1.9889  3.5994 -0.9829
  781SOL    HW2 2343   0.179   0.007   1.455  1.1679  3.1270  1.1105
  782SOL     OW 2344   1.733   2.670   0.397 -0.6002 -0.2357 -0.6159
  782SOL    HW1 2345   1.632   2.664   0.385  0.8682 -0.6307  0.6877
  782SOL    HW2 2346   1.763   2.591   0.454 -1.6918 -0.3989  0.7402
  783SOL     OW 2347   0.688   1.434   1.844  0.2632  0.4852 -0.0385
  783SOL    HW1 2348   0.781   1.447   1.886  0.7397 -0.5405  3.6287
  783SOL    HW2 2349   0.687   1.361   1.774 -0.3490  0.6721 -1.5186
  784SOL     OW 2350   1.580   0.548   2.441  0.1805 -0.3799  0.1372
  784SOL    HW1 2351   1.503   0.606   2.398  0.2887  2.1286  0.2636
  784SOL    HW2 2352   1.658   0.547   2.375 -0.7109  0.0441 -1.2325
  785SOL     OW 2353   2.876   0.285   0.907  0.0817  1.0087  0.1593
  785SOL    HW1 2354   2.879   0.313   1.005  1.7970 -0.0137 -1.5779
  785SOL    HW2 2355   2.779   0.269   0.869 -2.5698  1.5007  1.0237
  786SOL     OW 2356   1.725   0.018   1.051  0.7152 -0.0713 -0.4398
  786SOL    HW1 2357   1.752   0.089   0.983  3.0512  1.1154 -2.4872
  786SOL    HW2 2358   1.654   3.046   1.008  0.2772  0.8660  2.8236
  787SOL     OW 2359   1.517   3.056   1.303  0.2947 -0.5171  0.3591
  787SOL    HW1 2360   1.451   0.050   1.280 -1.8543  1.4317 -0.6412
  787SOL    HW2 2361   1.616   3.086   1.295  2.2605 -0.3541  0.4152
  788SOL     OW 2362   2.984   0.854   0.626  0.0431 -0.0574  0.3727
  788SOL    HW1 2363   3.064   0.879   0.684 -0.4739 -0.8005 -0.6437
  788SOL    HW2 2364   2.915   0.828   0.692 -1.1686  2.2305 -1.5508
  789SOL     OW 2365   0.483   1.174   2.062  0.2671 -0.0737  0.3990
  789SOL    HW1 2366   0.554   1.153   2.131 -1.7807 -0.7378 -1.5556
  789SOL    HW2 2367   0.463   1.274   2.056  0.5117 -0.6077  0.1729
  790SOL     OW 2368   0.251   0.601   2.631 -0.0698  0.2655  0.7424
  790SOL    HW1 2369   0.296   0.511   2.605 -2.5112  1.3396 -0.8936
  790SOL    HW2 2370   0.303   0.634   2.709 -5.5347 -1.0633 -0.1029
  791SOL     OW 2371   2.298   0.530   0.344 -0.3288  0.1025 -0.2628
  791SOL    HW1 2372   2.276   0.463   0.415  1.0378  2.3667 -1.4987
  791SOL    HW2 2373   2.284   0.623   0.380 -1.4734 -1.5094  1.8431
  792SOL     OW 2374   1.183   0.373   1.325  0.3125  0.4977 -0.0395
  792SOL    HW1 2375   1.207   0.465   1.282 -0.4498 -0.1499 -1.2138
  792SOL    HW2 2376   1.084   0.372   1.356  0.0495  0.5876  1.2338
  793SOL     OW 2377   0.345   2.842   1.204 -0.6570  0.0864 -0.3735
  793SOL    HW1 2378   0.383   2.853   1.298 -1.6362  1.7453  0.0614
  793SOL    HW2 2379   0.295   2.925   1.185  2.1534 -1.8070 -0.2071
  794SOL     OW 2380   0.132   0.628   2.196 -0.0269  0.8797  0.5261
  794SOL    HW1 2381   0.123   0.703   2.266  0.0257 -1.0746 -0.0815
  794SOL    HW2 2382   0.217   0.568   2.208  0.6138 -2.9712  0.3963
  795SOL     OW 2383   0.355   2.324   2.668  0.0176 -0.1264  0.1514
  795SOL    HW1 2384   0.399   2.393   2.608 -2.8209  0.8055 -0.2843
  795SOL    HW2 2385   0.403   2.323   2.758  0.1323 -0.5966  2.3525
  796SOL     OW 2386   1.998   0.402   2.540  0.2292  0.1123 -0.9779
  796SOL    HW1 2387   1.993   0.489   2.597  2.8125  1.3495  1.5997
  796SOL    HW2 2388   2.002   0.318   2.601 -1.8095 -0.3773 -0.4390
  797SOL     OW 2389   2.678   2.095   2.768  0.1439 -0.1993  0.8056
  797SOL    HW1 2390   2.747   2.161   2.805  1.8227 -4.0361 -2.6311
  797SOL    HW2 2391   2.580   2.103   2.789  1.0023  0.4546  0.1677
  798SOL     OW 2392   0.230   0.547   1.601 -0.0599 -0.0354  0.1798
  798SOL    HW1 2393   0.218   0.472   1.663  2.2920 -0.6116 -3.6576
  798SOL    HW2 2394   0.177   0.627   1.632 -0.9017 -1.6936 -0.1149
  799SOL     OW 2395   0.871   0.317   1.910  0.5981  0.4782  0.4081
  799SOL    HW1 2396   0.868   0.402   1.969  2.0265 -0.9161  0.6860
  799SOL    HW2 2397   0.914   0.246   1.969  4.5764  2.1469  0.5961
  800SOL     OW 2398   2.945   2.577   0.325 -0.3274  0.0524  0.3650
  800SOL    HW1 2399   2.961   2.583   0.223 -0.6936  1.8937 -1.7248
  800SOL    HW2 2400   2.845   2.561   0.345 -3.9230 -1.2387  0.6951
  801SOL     OW 2401   1.799   1.743   1.044 -0.2871 -0.2153  0.0608
  801SOL    HW1 2402   1.719   1.794   1.006 -2.3603  0.8429 -0.3336
  801SOL    HW2 2403   1.874   1.811   1.057 -1.9314 -1.9673  0.0431
  802SOL     OW 2404   0.594   0.570   0.304  1.0556 -0.4410 -0.2006
  802SOL    HW1 2405   0.569   0.603   0.398 -5.2991  0.3565 -0.6667
  802SOL    HW2 2406   0.597   0.654   0.241  2.2248  1.3601  1.2122
  803SOL     OW 2407   1.288   1.189   2.241 -0.3672 -0.3727 -0.0925
  803SOL    HW1 2408   1.276   1.111   2.306 -1.3375 -1.0892 -1.1604
  803SOL    HW2 2409   1.240   1.268   2.279 -0.2126  0.5646 -1.5762
  804SOL     OW 2410   2.134   2.040   0.892 -0.0674  0.2314 -0.2238
  804SOL    HW1 2411   2.119   2.113   0.964  0.4153  1.8939 -0.1523
  804SOL    HW2 2412   2.130   1.950   0.938 -0.9079  4.5934 -0.6455
  805SOL     OW 2413   0.398   2.044   2.698 -0.0262  0.3266  0.6220
  805SOL    HW1 2414   0.377   2.141   2.673  0.9605 -2.7320  0.6924
  805SOL    HW2 2415   0.338   1.976   2.654  1.4969 -0.6435  1.0204
  806SOL     OW 2416   0.606   2.586   0.285  0.4680 -0.2804 -0.4740
  806SOL    HW1 2417   0.568   2.680   0.273 -1.8525  3.5921 -3.2023
  806SOL    HW2 2418   0.699   2.592   0.318 -1.2498 -0.7482  1.0957
  807SOL     OW 2419   2.585   1.037   2.827 -0.0631 -0.2205 -0.2924
  807SOL    HW1 2420   2.664   1.052   2.890  3.0987 -0.0463 -0.0600
  807SOL    HW2 2421   2.498   1.065   2.870 -0.1125 -0.0486  2.0729
  808SOL     OW 2422   1.646   2.506   1.186 -0.2236 -0.3937  0.1848
  808SOL    HW1 2423   1.552   2.465   1.183 -0.1788 -1.6442  1.0362
  808SOL    HW2 2424   1.677   2.508   1.283  0.3816 -0.6614 -0.3468
  809SOL     OW 2425   0.289   0.478   0.564 -0.2243 -0.0650 -0.5761
  809SOL    HW1 2426   0.367   0.527   0.529  0.1387 -1.3264 -2.5042
  809SOL    HW2 2427   0.328   0.396   0.611 -1.6195  0.1602  0.0586
  810SOL     OW 2428   1.333   1.560   0.196  0.0997  0.3419  0.1687
  810SOL    HW1 2429   1.297   1.634   0.127 -1.6581  0.7177  0.6011
  810SOL    HW2 2430   1.427   1.571   0.233 -0.6021 -0.9405 -1.7079
  811SOL     OW 2431   1.449   2.906   1.531 -0.3051  0.1593 -0.1143
  811SOL    HW1 2432   1.521   2.833   1.539  1.6434 -0.3234  0.1043
  811SOL    HW2 2433   1.467   2.969   1.451  4.5669  0.5677 -3.7149
  812SOL     OW 2434   1.576   3.015   0.807 -0.2300 -0.0176 -0.0612
  812SOL    HW1 2435   1.533   3.033   0.714 -0.8452 -2.7591 -3.0393
  812SOL    HW2 2436   1.559   2.919   0.838 -0.4640  0.5138 -1.0978
  813SOL     OW 2437   1.488   2.918   2.083  0.5567 -0.3126  0.0024
  813SOL    HW1 2438   1.407   2.978   2.061  1.0717 -0.8371 -0.2024
  813SOL    HW2 2439   1.514   2.868   2.001 -1.8083 -2.0884  2.1602
  814SOL     OW 2440   1.073   2.566   2.072 -0.6680 -0.3091 -0.2088
  814SOL    HW1 2441   1.067   2.624   1.986 -0.3855 -0.7306  1.6446
  814SOL    HW2 2442   1.166   2.529   2.099 -1.1085  1.6029 -0.4600
  815SOL     OW 2443   0.553   0.119   2.898 -0.3502 -0.4388 -0.1140
  815SOL    HW1 2444   0.607   0.059   2.835 -1.2093  1.1569  1.2407
  815SOL    HW2 2445   0.539   0.208   2.856  0.0448 -0.6150  1.7391
  816SOL     OW 2446   2.441   0.982   0.028  0.1240 -0.5764 -0.2337
  816SOL    HW1 2447   2.529   1.033   0.034 -2.0893  1.8257  0.6053
  816SOL    HW2 2448   2.457   0.888   3.081 -3.5789  0.9556  0.5046
  817SOL     OW 2449   2.764   2.271   2.308  0.1513  0.2519 -0.1581
  817SOL    HW1 2450   2.827   2.314   2.371 -0.3607 -1.1441 -0.1951
  817SOL    HW2 2451   2.783   2.298   2.212  0.3041 -2.2722 -1.5221
  818SOL     OW 2452   0.834   1.517   0.400  0.0266 -0.0885  0.2571
  818SOL    HW1 2453   0.791   1.453   0.466  0.4962  1.8444  1.5453
  818SOL    HW2 2454   0.846   1.463   0.313 -1.0039 -0.8058  0.1820
  819SOL     OW 2455   1.685   1.268   2.888 -0.2328  0.5072  0.6748
  819SOL    HW1 2456   1.741   1.249   2.802  0.4865 -0.2514 -0.4588
  819SOL    HW2 2457   1.617   1.200   2.910 -0.3521 -0.2449  3.4354
  820SOL     OW 2458   0.521   1.265   0.352  0.2059  0.2006 -0.1072
  820SOL    HW1 2459   0.561   1.347   0.405  1.0148  0.7914  1.2585
  820SOL    HW2 2460   0.444   1.290   0.289 -2.9993 -0.0458  1.8584
  821SOL     OW 2461   0.558   2.880   1.020  0.2086  0.3931  0.2854
  821SOL    HW1 2462   0.542   2.819   0.942  3.6726 -0.3460  1.0069
  821SOL    HW2 2463   0.497   2.861   1.097  1.1847  0.3958 -0.8378
  822SOL     OW 2464   2.034   2.258   2.851 -0.1744  0.0319 -0.5545
  822SOL    HW1 2465   2.053   2.197   2.928 -0.6837  3.2193  1.0425
  822SOL    HW2 2466   1.978   2.211   2.777  0.3121 -0.2855  0.5343
  823SOL     OW 2467   1.015   0.659   2.530  0.2111 -0.0386 -0.3926
  823SOL    HW1 2468   1.114   0.646   2.556  1.2553 -1.9247  1.9115
  823SOL    HW2 2469   0.959   0.598   2.590 -2.3538  1.2976 -1.8658
  824SOL     OW 2470   2.641   2.845   1.667  0.2694  0.0560 -0.1134
  824SOL    HW1 2471   2.682   2.823   1.760  0.3687 -1.1421 -0.1625
  824SOL    HW2 2472   2.628   2.944   1.653 -1.5219  0.2000 -1.0527
  825SOL     OW 2473   0.234   1.856   2.590  0.0846 -0.2114 -0.3018
  825SOL    HW1 2474   0.208   1.857   2.491  1.2708  0.2169  0.7990
  825SOL    HW2 2475   0.155   1.825   2.649 -0.0714 -1.9912  0.0083
  826SOL     OW 2476   1.722   0.264   0.265 -0.3048 -0.1067 -0.0683
  826SOL    HW1 2477   1.731   0.350   0.206 -0.1545 -2.7992 -0.1206
  826SOL    HW2 2478   1.710   0.185   0.203  0.4003  0.8147 -0.5985
  827SOL     OW 2479   3.015   1.866   1.921 -0.5262  0.1198  0.5943
  827SOL    HW1 2480   3.064   1.839   2.000 -3.4825  0.6613 -1.7812
  827SOL    HW2 2481   3.071   1.876   1.833  1.6009 -0.5241 -2.4337
  828SOL     OW 2482   0.232   0.164   1.366 -0.5018 -0.0730 -0.8424
  828SOL    HW1 2483   0.167   0.247   1.375 -1.4583  0.7056 -0.0799
  828SOL    HW2 2484   0.327   0.204   1.360 -0.8533  0.6779  3.0428
  829SOL     OW 2485   1.022   1.826   2.473  0.4557 -0.0625  0.2390
  829SOL    HW1 2486   1.065   1.916   2.485  1.6283  1.6750  0.2751
  829SOL    HW2 2487   0.986   1.788   2.561 -4.0612 -3.2000 -0.9315
  830SOL     OW 2488   0.909   0.869   1.522 -0.2036 -0.0383 -0.1561
  830SOL    HW1 2489   0.916   0.966   1.493 -0.0454  0.1963 -0.0835
  830SOL    HW2 2490   0.815   0.840   1.551  0.1359 -2.2740 -1.2403
  831SOL     OW 2491   2.598   1.515   2.861  0.3374  0.1045 -0.6055
  831SOL    HW1 2492   2.651   1.514   2.779 -2.0595 -0.5164 -1.0383
  831SOL    HW2 2493   2.658   1.474   2.936 -1.1451 -1.6842  2.2849
  832SOL     OW 2494   1.211   2.154   2.864 -0.4798 -0.4355 -0.0508
  832SOL    HW1 2495   1.117   2.116   2.877  1.9074  1.6628  1.1764
  832SOL    HW2 2496   1.268   2.090   2.816  1.2928  0.1246  0.0530
  833SOL     OW 2497   0.208   0.449   1.871  0.1788 -0.7184 -0.1203
  833SOL    HW1 2498   0.263   0.522   1.911 -1.9302 -0.1010 -2.6526
  833SOL    HW2 2499   0.214   0.358   1.919 -0.6197  0.3062  1.7246
  834SOL     OW 2500   0.194   0.823   1.290 -0.7511 -0.6570  0.4519
  834SOL    HW1 2501   0.145   0.886   1.353  0.7655 -1.1135 -1.2079
  834SOL    HW2 2502   0.227   0.866   1.201 -0.4619  2.9762  0.9440
  835SOL     OW 2503   2.736   0.532   0.579 -0.0758 -0.2315 -0.6323
  835SOL    HW1 2504   2.822   0.481   0.598 -0.7791 -1.2748 -1.3846
  835SOL    HW2 2505   2.666   0.457   0.564 -1.1637 -2.2936  0.2348
  836SOL     OW 2506   0.809   2.320   0.074 -0.2751 -0.3621  0.0459
  836SOL    HW1 2507   0.894   2.367   0.108 -0.0787  0.6905 -0.1574
  836SOL    HW2 2508   0.772   2.259   0.145  0.9752  1.8905 -1.4753
  837SOL     OW 2509   1.470   2.073   0.485 -0.0619 -0.2054  0.6966
  837SOL    HW1 2510   1.520   2.147   0.433 -0.2842  0.6868 -2.9856
  837SOL    HW2 2511   1.387   2.112   0.524  0.6164 -3.9142  0.2190
  838SOL     OW 2512   1.950   0.832   2.213  0.1164 -0.1231 -0.0023
  838SOL    HW1 2513   2.001   0.779   2.145 -1.3977  3.5488  0.4765
  838SOL    HW2 2514   1.993   0.822   2.306 -2.3318 -0.8263 -1.1718
  839SOL     OW 2515   1.244   1.142   2.705 -0.2417 -0.0611  0.4015
  839SOL    HW1 2516   1.145   1.166   2.724 -3.5850  0.9762 -1.0322
  839SOL    HW2 2517   1.304   1.151   2.786 -1.8975 -2.8798 -1.9163
  840SOL     OW 2518   0.804   1.396   0.160 -0.1514 -0.8505  0.4665
  840SOL    HW1 2519   0.798   1.312   0.218  2.4361 -0.2691 -2.1363
  840SOL    HW2 2520   0.763   1.383   0.066  0.7813  1.4755  0.9714
  841SOL     OW 2521   1.211   2.187   0.062 -0.4058 -0.2244  0.0834
  841SOL    HW1 2522   1.304   2.221   0.090 -0.0121  0.0333  2.0316
  841SOL    HW2 2523   1.195   2.196   3.049  0.5224  1.4381  1.5193
  842SOL     OW 2524   0.132   0.614   0.379  0.0504  0.3238  0.1777
  842SOL    HW1 2525   0.152   0.568   0.468 -1.2104 -1.5604  2.1685
  842SOL    HW2 2526   0.197   0.576   0.309  0.5063  1.1033  3.6895
  843SOL     OW 2527   0.663   0.734   0.928  0.1982  0.4453  0.1423
  843SOL    HW1 2528   0.629   0.825   0.890 -0.3169  3.2722 -1.1950
  843SOL    HW2 2529   0.613   0.706   1.010  2.0561  1.4854 -1.8701
  844SOL     OW 2530   2.275   2.565   2.367  0.5013  0.1278  0.1467
  844SOL    HW1 2531   2.300   2.665   2.388 -0.5072 -1.5001 -0.7166
  844SOL    HW2 2532   2.220   2.566   2.280  1.4777  0.2815  1.4723
  845SOL     OW 2533   0.089   2.534   1.873  0.3861  0.1761  0.2114
  845SOL    HW1 2534   0.154   2.595   1.821  1.2062  0.2003 -2.5203
  845SOL    HW2 2535   0.002   2.523   1.821  0.9679  1.1044  3.2173
  846SOL     OW 2536   2.091   1.093   2.511 -0.3841 -0.2519  0.0329
  846SOL    HW1 2537   2.055   1.119   2.601  1.1648 -1.3340 -1.0409
  846SOL    HW2 2538   2.020   1.099   2.436 -1.6505  1.5495 -0.3504
  847SOL     OW 2539   2.704   0.437   1.790 -0.1776 -0.0849 -0.6256
  847SOL    HW1 2540   2.773   0.518   1.784  1.8491  3.3632 -0.2175
  847SOL    HW2 2541   2.736   0.352   1.744  2.8007 -0.1445  0.0003
  848SOL     OW 2542   2.497   2.775   0.028 -0.2204  0.2144  0.5108
  848SOL    HW1 2543   2.569   2.764   3.049  1.7394 -1.0314  0.9365
  848SOL    HW2 2544   2.408   2.729   0.006 -0.1447 -0.2078 -0.7803
  849SOL     OW 2545   0.468   3.018   0.673  0.0397  0.0802  0.6802
  849SOL    HW1 2546   0.523   2.929   0.651  0.5792 -3.0504  0.9919
  849SOL    HW2 2547   0.386   3.028   0.613  1.5030 -0.0355 -0.0441
  850SOL     OW 2548   0.849   2.606   0.384  0.1661  0.1742  0.1051
  850SOL    HW1 2549   0.898   2.693   0.370  0.3376 -1.7818  0.9521
  850SOL    HW2 2550   0.918   2.537   0.359  2.2830  1.5122  1.5758
  851SOL     OW 2551   1.862   0.412   2.928 -0.1697  0.2145  0.0606
  851SOL    HW1 2552   1.913   0.334   2.886  2.2685  0.0971 -3.0870
  851SOL    HW2 2553   1.790   0.448   2.866 -0.4105 -2.6370  2.9109
  852SOL     OW 2554   1.638   2.545   2.496 -0.3954  0.6965 -0.9433
  852SOL    HW1 2555   1.706   2.487   2.445 -1.8545  0.3201 -1.4795
  852SOL    HW2 2556   1.646   2.641   2.467 -1.1314 -1.3199  0.1260
  853SOL     OW 2557   3.019   2.618   0.068  0.4588 -0.3307 -0.2632
  853SOL    HW1 2558   3.063   2.544   0.019 -3.9236  1.6180 -0.1199
  853SOL    HW2 2559   3.066   2.711   0.062 -0.8843  2.2081  1.8182
  854SOL     OW 2560   1.282   0.649   2.573 -0.2927 -0.0609 -0.1934
  854SOL    HW1 2561   1.296   0.568   2.516 -1.7614  0.5369  0.1662
  854SOL    HW2 2562   1.331   0.725   2.524  2.4357  1.1562 -0.5528
  855SOL     OW 2563   0.301   2.754   0.407  0.2990  0.1898 -0.9004
  855SOL    HW1 2564   0.326   2.740   0.307  0.3592  1.1976  2.5828
  855SOL    HW2 2565   0.222   2.694   0.435 -0.5262 -1.2531  2.4595
  856SOL     OW 2566   0.328   2.853   2.573 -0.2836  0.2899 -0.1048
  856SOL    HW1 2567   0.324   2.770   2.516  0.7884  1.9493  3.2623
  856SOL    HW2 2568   0.415   2.861   2.633  0.6043  2.3042 -0.6875
  857SOL     OW 2569   1.229   2.923   1.722  0.0529 -0.9567  0.1022
  857SOL    HW1 2570   1.166   2.989   1.766  3.5245 -2.0238  0.1254
  857SOL    HW2 2571   1.263   2.952   1.633  0.3484 -0.6466 -0.8919
  858SOL     OW 2572   0.281   2.057   1.656  0.2930 -0.7146 -0.1311
  858SOL    HW1 2573   0.278   2.140   1.715  1.1918 -1.5240  0.3053
  858SOL    HW2 2574   0.356   2.066   1.584 -0.0968  1.3937 -1.7993
  859SOL     OW 2575   2.001   2.750   1.802  0.2821 -0.3518  0.2900
  859SOL    HW1 2576   2.097   2.715   1.793  0.3733 -0.7234  1.3159
  859SOL    HW2 2577   1.935   2.698   1.746  1.1524  1.5869  3.3507
  860SOL     OW 2578   1.757   0.126   0.800 -0.2564 -0.5986 -0.1510
  860SOL    HW1 2579   1.697   0.210   0.789  1.1299  3.1968 -1.4054
  860SOL    HW2 2580   1.711   0.043   0.775 -0.2619  1.0937 -0.3357
  861SOL     OW 2581   2.804   0.711   0.787  0.1666  0.4950  0.1108
  861SOL    HW1 2582   2.782   0.637   0.720  0.5143 -0.2995  0.4812
  861SOL    HW2 2583   2.721   0.733   0.843  0.6410  1.2664 -0.9261
  862SOL     OW 2584   1.760   0.616   2.024 -0.1262  1.0159  0.3399
  862SOL    HW1 2585   1.860   0.599   2.015  1.9731  0.1358  0.9739
  862SOL    HW2 2586   1.732   0.706   1.991  0.2434 -1.4198  1.2837
  863SOL     OW 2587   0.919   0.655   1.153  0.0386  0.3087 -0.5331
  863SOL    HW1 2588   0.877   0.709   1.078  0.8775  0.0826 -2.0809
  863SOL    HW2 2589   0.877   0.564   1.155  0.1375  3.0721  0.9854
  864SOL     OW 2590   3.041   2.880   2.261 -0.1883 -0.6656 -0.0207
  864SOL    HW1 2591   2.968   2.816   2.233  0.2998  0.7047  0.6872
  864SOL    HW2 2592   3.055   2.879   2.359  1.2793 -0.9751 -2.4364
  865SOL     OW 2593   1.020   0.903   2.464  0.4033 -0.4419 -0.0185
  865SOL    HW1 2594   1.022   0.800   2.483 -0.5681 -3.9122  1.3839
  865SOL    HW2 2595   0.958   0.953   2.533  0.0315 -1.4885  0.4138
  866SOL     OW 2596   2.704   2.792   0.453  0.3553 -0.3005 -0.1612
  866SOL    HW1 2597   2.644   2.870   0.487 -0.3654 -2.4960  1.9795
  866SOL    HW2 2598   2.782   2.772   0.520 -1.7016 -0.9061  1.0118
  867SOL     OW 2599   2.942   3.017   0.225  0.0509 -1.0647  0.1506
  867SOL    HW1 2600   2.848   2.981   0.218  2.9106 -0.2086 -2.0285
  867SOL    HW2 2601   2.942   0.028   0.199 -0.0748  1.7360  1.3054
  868SOL     OW 2602   1.828   1.025   0.196  0.0512 -0.4188  0.0340
  868SOL    HW1 2603   1.816   1.100   0.128 -0.6745 -2.7244  1.4503
  868SOL    HW2 2604   1.900   1.039   0.266  1.0275 -0.1306  2.3809
  869SOL     OW 2605   2.929   2.132   0.610 -0.4348  0.0360 -0.6301
  869SOL    HW1 2606   2.840   2.165   0.640 -0.0052 -0.4887 -1.8504
  869SOL    HW2 2607   2.942   2.161   0.514 -1.8462  0.4101  5.8949
  870SOL     OW 2608   2.105   2.057   0.365  0.3143 -0.2795  0.2919
  870SOL    HW1 2609   2.025   2.034   0.433 -3.0917 -1.2098  3.2630
  870SOL    HW2 2610   2.100   1.997   0.285 -1.0569  0.5072  2.8167
  871SOL     OW 2611   0.708   1.205   0.993  0.3597 -0.5081  0.0519
  871SOL    HW1 2612   0.618   1.220   1.042 -2.4272 -0.7618 -0.2439
  871SOL    HW2 2613   0.749   1.110   1.006 -0.0192  1.3550 -2.0155
  872SOL     OW 2614   1.210   1.795   2.037  0.8214  0.1555  0.3066
  872SOL    HW1 2615   1.241   1.892   2.029  0.3313  3.7572  0.6111
  872SOL    HW2 2616   1.139   1.785   2.109  1.3643 -0.4218 -2.2644
  873SOL     OW 2617   0.617   2.350   2.080  0.2075 -0.0034  0.2060
  873SOL    HW1 2618   0.670   2.353   2.167 -0.8024 -0.2410 -1.3154
  873SOL    HW2 2619   0.522   2.391   2.099 -0.3852  1.2364 -0.1668
  874SOL     OW 2620   0.908   3.054   1.189 -0.0314  0.2693  0.0362
  874SOL    HW1 2621   0.908   0.025   1.275  2.2579  0.5411 -0.6118
  874SOL    HW2 2622   0.829   3.060   1.126  2.1857  0.4696  0.0062
  875SOL     OW 2623   2.884   0.398   1.163  0.5919 -0.6202  0.5816
  875SOL    HW1 2624   2.940   0.474   1.124  0.6230  1.2734 -1.9756
  875SOL    HW2 2625   2.920   0.367   1.254  0.2730  0.3034 -1.6425
  876SOL     OW 2626   0.609   0.810   0.173  0.1146  0.1858  0.5224
  876SOL    HW1 2627   0.594   0.887   0.235  0.7610 -2.2549 -0.6099
  876SOL    HW2 2628   0.560   0.810   0.082  1.3040 -1.0508 -1.9933
  877SOL     OW 2629   0.652   0.525   1.575  0.2372  0.6143 -0.1934
  877SOL    HW1 2630   0.738   0.484   1.607  1.5040  0.1298  2.3409
  877SOL    HW2 2631   0.663   0.621   1.542 -2.3338  0.6347  1.7738
  878SOL     OW 2632   2.331   2.578   0.265  0.5198  0.5346 -0.5418
  878SOL    HW1 2633   2.301   2.558   0.168 -4.1765  1.0168 -2.5981
  878SOL    HW2 2634   2.300   2.673   0.282 -1.1222 -0.6787 -0.7096
  879SOL     OW 2635   2.549   1.514   1.340  0.0185  0.0958 -0.1570
  879SOL    HW1 2636   2.510   1.464   1.259 -1.1711  0.9939 -0.4342
  879SOL    HW2 2637   2.500   1.606   1.352 -0.3429  3.9367  0.6472
  880SOL     OW 2638   1.489   2.406   0.606  0.5567 -0.4971 -0.4531
  880SOL    HW1 2639   1.555   2.334   0.638  1.8021 -2.2463  0.4068
  880SOL    HW2 2640   1.403   2.366   0.575  2.3709 -1.5520  0.0698
  881SOL     OW 2641   1.022   2.442   0.270 -0.4473  0.1702  0.1415
  881SOL    HW1 2642   1.083   2.489   0.213 -3.3473 -1.8545  1.6985
  881SOL    HW2 2643   1.069   2.362   0.322  2.3984 -2.4806  3.9458
  882SOL     OW 2644   1.852   0.723   1.225 -0.5495 -0.1140 -0.5347
  882SOL    HW1 2645   1.852   0.623   1.247 -0.1273  0.3871 -0.5429
  882SOL    HW2 2646   1.755   0.756   1.214  0.3162  0.2155  0.7164
  883SOL     OW 2647   1.581   0.754   1.539  0.5125  0.2883 -0.7882
  883SOL    HW1 2648   1.667   0.699   1.545 -1.5741  2.5662 -1.5312
  883SOL    HW2 2649   1.526   0.722   1.457 -2.1623  0.4694 -0.2971
  884SOL     OW 2650   2.800   0.526   0.162  0.5955 -0.1235  0.0819
  884SOL    HW1 2651   2.712   0.570   0.192 -3.8186  0.0684  2.1587
  884SOL    HW2 2652   2.875   0.578   0.208 -0.4908  1.3283  0.8057
  885SOL     OW 2653   1.224   1.738   0.022  0.0847 -0.6791  0.2380
  885SOL    HW1 2654   1.123   1.734   0.011  2.3242  0.3687  1.2451
  885SOL    HW2 2655   1.268   1.714   3.023 -3.0765  1.1432  1.9788
  886SOL     OW 2656   1.557   1.517   2.853  0.1819  0.3134 -0.6766
  886SOL    HW1 2657   1.591   1.600   2.900  0.7245 -1.8399  1.4424
  886SOL    HW2 2658   1.610   1.432   2.872  0.9424 -1.6343 -0.0597
  887SOL     OW 2659   1.277   0.131   1.562  0.5197 -0.2569 -0.7946
  887SOL    HW1 2660   1.226   0.189   1.633 -1.5145  0.1545 -0.4834
  887SOL    HW2 2661   1.377   0.144   1.567 -2.1268 -0.6853 -0.8513
  888SOL     OW 2662   2.491   0.463   1.655 -0.2987 -0.1461 -0.0508
  888SOL    HW1 2663   2.566   0.475   1.728  1.0694 -0.2502  0.3079
  888SOL    HW2 2664   2.489   0.550   1.598 -1.2488 -0.0786 -0.2404
  889SOL     OW 2665   0.167   2.752   0.742 -0.4289  0.0549 -0.0520
  889SOL    HW1 2666   0.117   2.680   0.795  0.6920 -0.2711  2.0512
  889SOL    HW2 2667   0.152   2.739   0.639  1.5479  1.6895  0.4213
  890SOL     OW 2668   2.058   2.392   0.128 -0.1806  0.3991 -0.3914
  890SOL    HW1 2669   2.135   2.445   0.078  2.5914 -0.2758 -0.0647
  890SOL    HW2 2670   1.975   2.448   0.132  2.2376 -1.5903  3.1795
  891SOL     OW 2671   0.546   1.224   2.710  0.4586  0.5113  0.4394
  891SOL    HW1 2672   0.543   1.125   2.696  2.7425 -0.2309  0.2341
  891SOL    HW2 2673   0.531   1.279   2.623  0.0076  1.1990 -0.7348
  892SOL     OW 2674   0.196   3.069   1.161 -0.0651  0.3069  0.3740
  892SOL    HW1 2675   0.229   0.045   1.231 -0.9954  0.7124 -0.1037
  892SOL    HW2 2676   0.136   0.040   1.102 -1.4968 -0.5433  1.1181
  893SOL     OW 2677   1.378   0.167   1.237  0.0358 -0.0716 -0.0494
  893SOL    HW1 2678   1.321   0.243   1.271  4.6653  0.0535  1.6058
  893SOL    HW2 2679   1.416   0.178   1.142 -1.6138 -0.5795 -0.6961
  894SOL     OW 2680   2.348   0.872   0.672  0.2837 -0.4007 -0.0806
  894SOL    HW1 2681   2.280   0.924   0.725  0.9875  3.8046 -3.2126
  894SOL    HW2 2682   2.444   0.884   0.700  0.7158  3.5363  3.2615
  895SOL     OW 2683   1.921   1.571   2.455 -0.7072  0.1359 -0.1640
  895SOL    HW1 2684   1.949   1.533   2.546 -0.7113 -0.6314  0.1744
  895SOL    HW2 2685   2.012   1.588   2.411  4.2111 -1.2120 -1.8767
  896SOL     OW 2686   1.424   0.262   1.964 -0.4899 -0.7273 -0.2401
  896SOL    HW1 2687   1.440   0.363   1.982 -1.7070 -0.0408  0.0825
  896SOL    HW2 2688   1.507   0.208   1.946 -1.9970 -0.7680 -0.5281
  897SOL     OW 2689   0.539   1.650   1.985  0.5434 -0.3061 -0.5326
  897SOL    HW1 2690   0.581   1.565   1.947  0.4184  0.2211  0.1752
  897SOL    HW2 2691   0.589   1.736   1.967 -2.0224 -0.4933  0.1510
  898SOL     OW 2692   2.629   2.558   2.273 -0.7453 -0.7028 -0.1504
  898SOL    HW1 2693   2.563   2.544   2.198  2.0244 -0.4102 -1.7935
  898SOL    HW2 2694   2.618   2.494   2.351 -1.6773  0.2404  1.5258
  899SOL     OW 2695   1.251   1.032   1.407  0.3145 -0.4625  0.0498
  899SOL    HW1 2696   1.261   1.130   1.388  3.0276 -0.0602 -0.4929
  899SOL    HW2 2697   1.321   0.986   1.349  1.1510  0.0327 -0.6506
  900SOL     OW 2698   1.445   2.203   2.697 -0.5671  0.2123 -0.0802
  900SOL    HW1 2699   1.362   2.172   2.655  1.7662  0.2249  1.8884
  900SOL    HW2 2700   1.507   2.118   2.712  0.9775 -0.8800  2.7128
  901SOL     OW 2701   0.667   2.086   2.667  0.0124 -0.1697  0.0590
  901SOL    HW1 2702   0.569   2.085   2.681  0.8074  1.0867 -0.2158
  901SOL    HW2 2703   0.680   2.078   2.563 -0.9895  1.7772 -1.2295
  902SOL     OW 2704   2.041   1.615   0.091  0.0345  0.4723  0.1249
  902SOL    HW1 2705   2.077   1.546   0.027 -0.2843 -1.8149  1.3423
  902SOL    HW2 2706   2.099   1.629   0.172 -0.0564  0.3286 -1.0279
  903SOL     OW 2707   2.190   1.162   0.197  0.0911 -0.2079 -0.5094
  903SOL    HW1 2708   2.279   1.176   0.244  0.2527  2.6010 -0.3802
  903SOL    HW2 2709   2.200   1.168   0.100 -0.0090 -2.8379  1.4841
  904SOL     OW 2710   0.658   0.893   2.632  0.1071  0.0659 -0.4808
  904SOL    HW1 2711   0.571   0.943   2.617 -1.1376  0.5337  2.8783
  904SOL    HW2 2712   0.735   0.951   2.662 -0.1298  1.4777  2.7844
  905SOL     OW 2713   2.532   0.466   0.905  0.0545 -0.2911  0.3278
  905SOL    HW1 2714   2.584   0.384   0.873 -1.9124  1.3874 -0.2849
  905SOL    HW2 2715   2.503   0.453   1.001  0.7032  0.9241 -1.4254
  906SOL     OW 2716   2.649   2.244   0.940  0.1939 -0.7108  0.3311
  906SOL    HW1 2717   2.637   2.245   0.839  1.0197 -0.3204  2.1890
  906SOL    HW2 2718   2.743   2.202   0.961 -1.9678 -1.8095  0.1408
  907SOL     OW 2719   1.487   0.628   0.698  0.3761  0.0922  0.1414
  907SOL    HW1 2720   1.573   0.655   0.647 -1.6605  0.0302  0.6361
  907SOL    HW2 2721   1.404   0.653   0.640 -1.9829 -1.7411  2.1992
  908SOL     OW 2722   2.161   2.947   1.536  0.1006  0.1712 -0.3033
  908SOL    HW1 2723   2.147   2.999   1.450 -1.4985 -1.4454 -1.6293
  908SOL    HW2 2724   2.114   2.987   1.616  2.1546 -2.3499  1.4579
  909SOL     OW 2725   2.552   0.729   1.492 -0.2318  0.3542 -0.4232
  909SOL    HW1 2726   2.623   0.676   1.445 -1.5792 -0.8593  2.8833
  909SOL    HW2 2727   2.590   0.805   1.553  0.7652  2.3535 -0.1606
  910SOL     OW 2728   1.340   2.761   2.253 -0.6041 -0.1028 -0.3660
  910SOL    HW1 2729   1.289   2.807   2.329 -2.2898  1.4083 -2.0279
  910SOL    HW2 2730   1.399   2.828   2.203  3.4497  0.7496  1.4613
  911SOL     OW 2731   2.018   0.555   1.874 -0.0295 -0.1700 -0.4422
  911SOL    HW1 2732   1.950   0.488   1.844  2.2042  3.4505  1.4066
  911SOL    HW2 2733   2.068   0.592   1.797 -1.3286  0.7192  1.4654
  912SOL     OW 2734   2.562   1.926   1.479 -0.8064  0.2693  0.2663
  912SOL    HW1 2735   2.606   1.997   1.414  3.3899  3.2922 -0.6585
  912SOL    HW2 2736   2.540   1.984   1.557  0.0965 -3.3664 -1.0592
  913SOL     OW 2737   2.685   2.124   1.335 -0.4039 -0.0830  0.2146
  913SOL    HW1 2738   2.669   2.221   1.367  0.1139 -0.6972 -0.2254
  913SOL    HW2 2739   2.784   2.106   1.341 -2.7764  0.0553 -2.2949
  914SOL     OW 2740   2.147   1.499   1.434  0.7104  0.6035  0.4504
  914SOL    HW1 2741   2.210   1.561   1.483 -0.4055 -1.0748 -2.7269
  914SOL    HW2 2742   2.145   1.527   1.336 -1.9355  0.9259 -1.0086
  915SOL     OW 2743   0.896   1.132   1.371 -0.1230 -0.3790  0.3995
  915SOL    HW1 2744   0.812   1.172   1.405  1.1642 -0.6082 -1.2351
  915SOL    HW2 2745   0.933   1.205   1.310  1.7072 -1.9944  0.7642
  916SOL     OW 2746   2.398   2.545   1.358 -0.1337 -0.2605  0.2088
  916SOL    HW1 2747   2.436   2.459   1.326 -2.5893  0.2778  2.7112
  916SOL    HW2 2748   2.467   2.603   1.403  0.0637 -2.2427  0.9870
  917SOL     OW 2749   2.401   1.827   3.021  0.3717  0.0256 -0.0868
  917SOL    HW1 2750   2.478   1.840   3.087 -1.4535  0.9159  3.3341
  917SOL    HW2 2751   2.434   1.793   2.932  1.7418  0.6147 -0.3795
  918SOL     OW 2752   1.837   2.398   2.345 -0.2703 -0.3663 -0.5612
  918SOL    HW1 2753   1.816   2.301   2.327  0.0270 -2.9672  2.2494
  918SOL    HW2 2754   1.925   2.414   2.394  1.3617 -2.0281  3.4850
  919SOL     OW 2755   1.294   1.960   1.571 -0.1182  0.8371  0.4882
  919SOL    HW1 2756   1.374   1.901   1.603  0.9768  1.4030  4.4329
  919SOL    HW2 2757   1.321   2.057   1.569  1.4307 -1.9369 -0.2131
  920SOL     OW 2758   2.888   0.211   2.641  0.0305  0.8665 -0.1252
  920SOL    HW1 2759   2.986   0.217   2.670 -2.3125  1.0851  1.8980
  920SOL    HW2 2760   2.847   0.306   2.642 -2.3003  0.7775 -0.3744
  921SOL     OW 2761   2.657   0.305   2.023 -0.2153  0.3238 -0.6172
  921SOL    HW1 2762   2.680   0.207   2.011 -2.7302 -2.2087 -2.0125
  921SOL    HW2 2763   2.677   0.366   1.945 -1.6083  0.4004  0.8971
  922SOL     OW 2764   2.045   2.328   0.414  0.1895  0.7269  0.4753
  922SOL    HW1 2765   2.067   2.352   0.315 -0.7362  0.1838  1.0611
  922SOL    HW2 2766   2.056   2.225   0.417 -1.1958 -1.6657  0.5502
  923SOL     OW 2767   0.251   2.090   0.308  0.6833 -0.1363 -0.0081
  923SOL    HW1 2768   0.187   2.039   0.246 -1.7253 -0.6277 -1.0343
  923SOL    HW2 2769   0.205   2.169   0.340  3.8929 -0.7048 -0.3343
  924SOL     OW 2770   0.837   0.473   2.964  0.0712 -0.1865 -0.1792
  924SOL    HW1 2771   0.913   0.426   3.008 -0.5080  0.2166  3.0767
  924SOL    HW2 2772   0.816   0.558   3.016 -1.4608  1.5264 -0.3728
  925SOL     OW 2773   2.419   1.119   0.885  0.0771  0.3588  0.5886
  925SOL    HW1 2774   2.341   1.177   0.901  2.1649  0.7511 -1.9312
  925SOL    HW2 2775   2.506   1.172   0.876 -2.6810 -1.6268  0.5553
  926SOL     OW 2776   3.027   0.910   0.974 -0.7346  0.3469 -0.5060
  926SOL    HW1 2777   2.974   0.861   1.047  0.1543 -0.8207 -1.7704
  926SOL    HW2 2778   3.072   0.997   1.006  2.2646 -0.0685  0.6492
  927SOL     OW 2779   3.086   1.089   0.025  0.3864  0.4530  0.2015
  927SOL    HW1 2780   0.081   1.079   0.078 -0.0929 -0.1314  0.5068
  927SOL    HW2 2781   0.012   1.150   3.033  0.7907 -0.6538  2.2065
  928SOL     OW 2782   3.039   0.445   2.290  0.1293 -0.1219 -0.5033
  928SOL    HW1 2783   0.009   0.516   2.232  2.2432  2.2508 -0.4030
  928SOL    HW2 2784   3.050   0.456   2.391  1.2948 -0.2510  4.8602
  929SOL     OW 2785   0.025   2.891   1.090  0.2486 -0.0412  0.0715
  929SOL    HW1 2786   0.098   2.951   1.133  2.4556  0.5766  2.6335
  929SOL    HW2 2787   0.024   2.900   0.993  0.1686  0.1258  0.7465
  930SOL     OW 2788   1.905   1.633   1.478 -0.3519 -0.7903 -0.5143
  930SOL    HW1 2789   1.993   1.586   1.485 -2.6301  1.1762  0.6328
  930SOL    HW2 2790   1.913   1.716   1.540 -0.9228 -0.1804  1.7764
  931SOL     OW 2791   1.371   1.486   0.813 -0.1882 -0.6101 -0.4058
  931SOL    HW1 2792   1.412   1.560   0.876  0.8594  1.6954  2.1752
  931SOL    HW2 2793   1.375   1.522   0.719 -1.0632 -0.4725  0.5472
  932SOL     OW 2794   2.650   1.208   1.077 -0.5567 -0.2034 -0.4141
  932SOL    HW1 2795   2.643   1.118   1.130 -3.0623 -0.3652 -1.2859
  932SOL    HW2 2796   2.572   1.270   1.108 -1.3564  1.7316 -1.1081
  933SOL     OW 2797   2.431   1.736   1.351  0.2768 -0.1027 -1.2635
  933SOL    HW1 2798   2.353   1.775   1.308 -0.4123 -6.3072  2.2342
  933SOL    HW2 2799   2.484   1.802   1.411  1.6429  0.2964  1.4016
  934SOL     OW 2800   1.828   3.046   1.542  0.3684  0.0980  0.3873
  934SOL    HW1 2801   1.823   0.033   1.477  0.2608 -0.4927 -0.9984
  934SOL    HW2 2802   1.811   2.961   1.488 -0.1652 -0.2655 -0.4568
  935SOL     OW 2803   0.330   1.402   0.860  0.0034  0.0458  0.3208
  935SOL    HW1 2804   0.322   1.479   0.923  0.9777  4.0841 -1.1911
  935SOL    HW2 2805   0.242   1.387   0.808  1.3742 -0.0468  1.1229
  936SOL     OW 2806   0.047   1.246   0.580  0.0287 -0.0873  0.0212
  936SOL    HW1 2807   3.032   1.228   0.578  0.1685 -0.5754 -1.4778
  936SOL    HW2 2808   0.062   1.336   0.625 -4.5523 -0.5572 -1.6172
  937SOL     OW 2809   1.780   2.643   0.740 -0.2139  0.1247  0.0157
  937SOL    HW1 2810   1.709   2.714   0.760  1.8865 -1.8208 -1.3583
  937SOL    HW2 2811   1.876   2.686   0.734  3.1845 -0.6104 -1.7662
  938SOL     OW 2812   2.519   2.591   0.884 -0.3497 -0.2053  0.1727
  938SOL    HW1 2813   2.457   2.667   0.849 -2.1309  1.8702 -1.5662
  938SOL    HW2 2814   2.466   2.511   0.913 -1.4781 -0.8194 -0.8011
  939SOL     OW 2815   0.413   2.214   0.136  0.1194 -0.0724 -0.4086
  939SOL    HW1 2816   0.503   2.202   0.186  1.4659  0.2124  0.9996
  939SOL    HW2 2817   0.336   2.160   0.181 -1.6158 -1.6098  4.1080
  940SOL     OW 2818   2.901   0.027   3.036 -0.3655 -0.0820 -0.0130
  940SOL    HW1 2819   2.949   0.067   0.030  1.1403  2.1811  0.0636
  940SOL    HW2 2820   2.961   0.034   2.954 -1.6756 -0.9948  0.1013
  941SOL     OW 2821   1.253   0.048   2.932 -0.0171 -0.2514  0.2856
  941SOL    HW1 2822   1.254   3.033   2.930  2.1086 -2.7168 -0.7761
  941SOL    HW2 2823   1.249   0.079   2.837 -0.5004 -1.2935  0.4055
  942SOL     OW 2824   0.817   1.598   1.548  0.1943  0.1291 -0.0677
  942SOL    HW1 2825   0.868   1.506   1.570  1.2333  2.1353  0.8196
  942SOL    HW2 2826   0.815   1.659   1.625  0.4626 -0.9050 -4.0587
  943SOL     OW 2827   2.136   1.233   1.510  0.1982  0.0169  0.4610
  943SOL    HW1 2828   2.064   1.204   1.580 -0.0151 -2.6943 -1.0832
  943SOL    HW2 2829   2.120   1.328   1.474  0.1841  1.4728  0.6638
  944SOL     OW 2830   1.809   0.627   1.614  0.2498 -0.5277 -0.8165
  944SOL    HW1 2831   1.820   0.546   1.559  1.5428  1.3413  1.0947
  944SOL    HW2 2832   1.889   0.691   1.602 -0.2679 -1.5686 -0.7048
  945SOL     OW 2833   0.176   3.043   0.811  0.1876  0.2715 -0.3912
  945SOL    HW1 2834   0.216   2.956   0.785 -0.3198  2.2121  0.2212
  945SOL    HW2 2835   0.254   0.014   0.848 -1.0149 -1.5961  0.5507
  946SOL     OW 2836   0.607   0.801   1.499  0.8750 -0.0820  0.1979
  946SOL    HW1 2837   0.530   0.761   1.440 -0.5278 -1.5166  1.0116
  946SOL    HW2 2838   0.591   0.899   1.495 -0.0690 -4.8266  2.8099
  947SOL     OW 2839   0.521   2.763   0.578  0.2802 -0.1418 -0.1599
  947SOL    HW1 2840   0.452   2.765   0.505  2.7447 -3.1220 -0.6852
  947SOL    HW2 2841   0.501   2.685   0.643  1.2904 -1.8671  0.0147
  948SOL     OW 2842   2.589   1.355   1.914 -0.2757  0.0259  0.0726
  948SOL    HW1 2843   2.531   1.273   1.937 -1.5796 -0.2705  0.1262
  948SOL    HW2 2844   2.658   1.342   1.842  0.1010  1.3138  0.4699
  949SOL     OW 2845   0.530   1.278   2.437 -0.2842  0.5833  0.0316
  949SOL    HW1 2846   0.560   1.212   2.366 -1.6758  2.1438 -0.4386
  949SOL    HW2 2847   0.431   1.261   2.459  4.4419 -2.1506 -0.8095
  950SOL     OW 2848   1.040   0.537   0.743  0.0443 -0.1052  0.0959
  950SOL    HW1 2849   1.033   0.453   0.802  2.2013 -1.2989 -1.3603
  950SOL    HW2 2850   1.126   0.539   0.691 -2.3056  0.1626  1.2420
  951SOL     OW 2851   1.086   2.229   2.183  0.0728 -0.0228  0.1891
  951SOL    HW1 2852   1.058   2.294   2.113  0.3811  0.8175  0.2864
  951SOL    HW2 2853   1.159   2.167   2.150  1.3010 -0.5237 -0.9880
  952SOL     OW 2854   0.471   1.755   0.061 -0.0247  0.5030 -0.3030
  952SOL    HW1 2855   0.529   1.774   0.144  4.6290 -1.6893  1.1731
  952SOL    HW2 2856   0.377   1.727   0.085  0.1911  2.3919 -0.2302
  953SOL     OW 2857   2.028   2.853   2.317 -0.2968 -0.2929  0.0382
  953SOL    HW1 2858   2.100   2.922   2.291  0.9480  0.3251  1.9400
  953SOL    HW2 2859   2.006   2.788   2.244  0.6732 -0.5876 -0.9453
  954SOL     OW 2860   1.411   1.225   0.865 -0.0870 -0.3480 -0.2039
  954SOL    HW1 2861   1.472   1.175   0.794  2.1717 -0.2906 -4.2511
  954SOL    HW2 2862   1.402   1.325   0.844 -0.0995 -3.5238 -1.7685
  955SOL     OW 2863   0.438   2.088   2.269 -0.0899  0.3752 -0.2113
  955SOL    HW1 2864   0.430   2.033   2.187  1.7422 -0.9054  0.6768
  955SOL    HW2 2865   0.350   2.102   2.324 -2.0066  2.0237  3.4531
  956SOL     OW 2866   1.784   0.429   1.462  0.0628  0.1386  0.3068
  956SOL    HW1 2867   1.776   0.436   1.363  0.3221  1.1029  1.4603
  956SOL    HW2 2868   1.685   0.437   1.496  0.4329 -0.5339 -0.4037
  957SOL     OW 2869   1.910   1.913   2.690  0.0392 -0.1527  0.1781
  957SOL    HW1 2870   1.936   1.908   2.592  1.8631 -0.4452 -2.5615
  957SOL    HW2 2871   1.812   1.945   2.699 -0.4141 -2.2086 -0.9851
  958SOL     OW 2872   1.077   2.361   0.709  0.0176  0.6054  0.9721
  958SOL    HW1 2873   1.078   2.433   0.783 -2.4038 -0.3316  0.2921
  958SOL    HW2 2874   1.000   2.384   0.648  0.5681  0.7451 -0.7038
  959SOL     OW 2875   1.839   2.227   2.667 -0.0938 -0.3431 -0.1735
  959SOL    HW1 2876   1.776   2.155   2.708 -3.8571  0.3101  3.9079
  959SOL    HW2 2877   1.855   2.206   2.572  0.0343  1.5695  3.8143
  960SOL     OW 2878   0.060   0.259   2.680  0.7942  0.4662 -0.0689
  960SOL    HW1 2879   0.123   0.216   2.611  1.8106 -2.8547  1.7228
  960SOL    HW2 2880   0.097   0.253   2.776  2.4481  1.6674  2.0230
  961SOL     OW 2881   0.946   1.213   2.396 -0.2568  0.3386 -0.4115
  961SOL    HW1 2882   1.006   1.292   2.361  0.6861  0.1164  0.3963
  961SOL    HW2 2883   0.988   1.120   2.376  3.0152 -0.0286 -1.0908
  962SOL     OW 2884   1.033   1.421   3.013  0.3793 -0.3609  0.2016
  962SOL    HW1 2885   1.125   1.446   3.055 -1.5494  1.7392  0.2783
  962SOL    HW2 2886   0.961   1.422   3.085  1.8117 -0.4776 -0.5298
  963SOL     OW 2887   2.158   1.695   2.914  0.1431  0.1151 -0.2923
  963SOL    HW1 2888   2.087   1.750   2.964  0.1820 -2.0130 -0.0911
  963SOL    HW2 2889   2.239   1.684   2.974  0.8427 -1.2428  0.0781
  964SOL     OW 2890   1.550   2.763   0.892  0.0918 -0.2831 -0.4928
  964SOL    HW1 2891   1.508   2.669   0.874  0.4012  1.9580 -1.7606
  964SOL    HW2 2892   1.558   2.780   0.995  1.4518  1.7566  1.5295
  965SOL     OW 2893   0.817   2.000   0.985 -0.3403  0.0303 -0.5422
  965SOL    HW1 2894   0.827   1.957   1.078  1.0338 -0.9644  0.3444
  965SOL    HW2 2895   0.905   1.992   0.934  1.2168 -0.5969  0.5578
  966SOL     OW 2896   3.047   1.591   0.013 -0.7303 -0.8043  0.5684
  966SOL    HW1 2897   3.018   1.605   3.002 -0.8956 -0.1764 -1.3509
  966SOL    HW2 2898   2.965   1.565   0.068  2.2683  1.4794 -2.0704
  967SOL     OW 2899   1.637   0.115   1.967  0.4754  0.4522 -0.1284
  967SOL    HW1 2900   1.704   0.117   2.045 -0.0813 -0.1537  0.5320
  967SOL    HW2 2901   1.684   0.059   1.900 -1.4985  1.0304  3.2088
  968SOL     OW 2902   1.931   0.804   0.604  0.4523  0.2789 -0.0531
  968SOL    HW1 2903   1.935   0.797   0.708 -1.6091 -0.4278  3.4819
  968SOL    HW2 2904   1.928   0.898   0.563  2.2824 -0.9779 -3.1031
  969SOL     OW 2905   0.074   1.388   1.994  0.3130 -0.3914 -0.7491
  969SOL    HW1 2906   0.100   1.488   1.978 -0.1247  4.1294 -0.0849
  969SOL    HW2 2907   0.097   1.333   1.915 -0.5283 -0.9404  0.1359
  970SOL     OW 2908   2.463   1.410   1.107  0.6690 -0.6081  0.1950
  970SOL    HW1 2909   2.385   1.354   1.138  0.7673 -0.2518  0.3678
  970SOL    HW2 2910   2.437   1.479   1.036 -0.1881  2.1234  0.8678
  971SOL     OW 2911   0.484   0.259   1.382 -0.1392 -0.1783  0.0617
  971SOL    HW1 2912   0.508   0.343   1.432  0.1503  2.0704 -0.8154
  971SOL    HW2 2913   0.549   0.178   1.405  1.3312  0.1263  0.4530
  972SOL     OW 2914   0.669   0.635   2.600 -0.3522  0.0196 -0.1451
  972SOL    HW1 2915   0.656   0.734   2.595 -1.1775 -1.8614 -1.6219
  972SOL    HW2 2916   0.627   0.604   2.516  0.6391  0.5840 -0.4496
  973SOL     OW 2917   0.032   1.129   1.074 -0.2638  0.1594 -0.2144
  973SOL    HW1 2918   3.082   1.114   1.169 -1.4017 -0.9858  0.6766
  973SOL    HW2 2919   0.132   1.135   1.076 -1.3248 -0.4229  0.2221
  974SOL     OW 2920   1.955   0.909   1.734 -0.0613  0.3798  0.1237
  974SOL    HW1 2921   1.977   0.875   1.637  0.4860  2.6919 -2.8432
  974SOL    HW2 2922   1.861   0.874   1.765 -1.3641 -0.5259 -1.5448
  975SOL     OW 2923   2.656   0.114   0.209 -0.2689 -0.7029  0.4032
  975SOL    HW1 2924   2.668   0.013   0.221  0.6316 -0.1827  0.4685
  975SOL    HW2 2925   2.668   0.149   0.119 -2.0652  0.2031  1.6476
  976SOL     OW 2926   2.763   1.248   1.687 -0.0316 -0.1413  0.5098
  976SOL    HW1 2927   2.785   1.298   1.599  0.9523 -0.7981 -4.0438
  976SOL    HW2 2928   2.836   1.178   1.705 -2.6203  0.3536 -0.6616
  977SOL     OW 2929   0.833   2.766   3.059  0.2634  0.7599  0.5804
  977SOL    HW1 2930   0.846   2.860   3.026 -2.0037 -1.0228  0.6241
  977SOL    HW2 2931   0.877   2.764   0.063  0.8292  1.8258 -1.0677
  978SOL     OW 2932   0.264   1.570   0.328 -0.5844  0.1344 -0.1657
  978SOL    HW1 2933   0.286   1.469   0.310 -1.1127 -2.7016 -2.7845
  978SOL    HW2 2934   0.340   1.605   0.385 -0.5081  0.8025 -1.4726
  979SOL     OW 2935   1.437   1.671   1.307 -0.6985  0.3541 -0.1285
  979SOL    HW1 2936   1.501   1.667   1.390 -0.1606 -0.7674  0.1311
  979SOL    HW2 2937   1.473   1.601   1.235 -0.7748 -1.2176 -2.6340
  980SOL     OW 2938   0.373   1.414   2.070  0.1247  0.4987 -0.0242
  980SOL    HW1 2939   0.449   1.482   2.066 -0.9584 -0.5429 -2.7263
  980SOL    HW2 2940   0.330   1.410   1.975  0.5442  0.4557  2.4835
  981SOL     OW 2941   2.881   1.458   0.180 -0.3772 -0.0621  0.4687
  981SOL    HW1 2942   2.787   1.459   0.221  1.8269  0.3582  2.2843
  981SOL    HW2 2943   2.947   1.426   0.254  2.9168 -2.1206  1.0513
  982SOL     OW 2944   2.478   2.441   2.491 -0.0742 -0.6640  0.4490
  982SOL    HW1 2945   2.401   2.481   2.436 -1.2551 -1.3964  0.7210
  982SOL    HW2 2946   2.504   2.501   2.568  1.0961 -1.7038  0.4572
  983SOL     OW 2947   1.462   0.453   1.597 -0.7971  0.0287  0.5864
  983SOL    HW1 2948   1.510   0.361   1.601 -2.4567  0.3899  0.2627
  983SOL    HW2 2949   1.465   0.498   1.686 -0.8803  0.4616 -0.8772
  984SOL     OW 2950   1.132   0.082   2.561 -0.2922  0.0693 -0.2853
  984SOL    HW1 2951   1.051   0.132   2.583  2.0443 -0.3042 -1.7462
  984SOL    HW2 2952   1.217   0.140   2.561  2.1759  0.4932  1.8574
  985SOL     OW 2953   1.504   2.196   1.630 -0.1060  0.2296  0.4101
  985SOL    HW1 2954   1.512   2.254   1.714  0.3923 -0.3970 -1.0967
  985SOL    HW2 2955   1.587   2.141   1.617 -2.2643  0.2071 -0.7772
  986SOL     OW 2956   2.262   3.018   2.276  0.4514  0.1485 -0.9045
  986SOL    HW1 2957   2.310   3.017   2.184  1.3312 -0.0436 -1.3011
  986SOL    HW2 2958   2.205   0.015   2.289 -1.1252  0.5230  0.1971
  987SOL     OW 2959   2.422   0.422   2.087 -0.3103 -0.3875 -0.5097
  987SOL    HW1 2960   2.502   0.360   2.064  1.0506 -2.3551 -2.1185
  987SOL    HW2 2961   2.447   0.515   2.124 -1.3191  2.3923  2.1218
  988SOL     OW 2962   2.513   0.579   2.511 -0.3612 -0.2749 -0.5656
  988SOL    HW1 2963   2.524   0.641   2.593 -0.0658 -0.2431  0.1932
  988SOL    HW2 2964   2.454   0.616   2.434  0.1625  0.3136  2.3068
  989SOL     OW 2965   2.366   2.176   2.166 -0.4805  1.5568 -0.3984
  989SOL    HW1 2966   2.379   2.079   2.129  0.3619 -3.7947 -0.1955
  989SOL    HW2 2967   2.432   2.195   2.245  2.4390 -2.6553 -0.8554
  990SOL     OW 2968   0.271   1.289   2.880  0.0413  0.6163  0.1033
  990SOL    HW1 2969   0.193   1.327   2.934 -1.2563 -0.5604 -1.0555
  990SOL    HW2 2970   0.284   1.349   2.799  1.0698  1.0866 -2.8687
  991SOL     OW 2971   0.786   1.339   2.719 -0.1768 -0.2667  0.0724
  991SOL    HW1 2972   0.710   1.274   2.727  0.5343  3.2369  1.3678
  991SOL    HW2 2973   0.755   1.436   2.702  0.1931  0.4547 -0.1096
  992SOL     OW 2974   2.919   2.135   1.855 -0.1245 -0.5804  0.5469
  992SOL    HW1 2975   3.008   2.189   1.842  4.6240  0.4108 -1.2370
  992SOL    HW2 2976   2.932   2.046   1.894 -3.2471  0.9727  1.8498
  993SOL     OW 2977   0.687   0.028   1.011 -0.6003 -0.2689 -0.2027
  993SOL    HW1 2978   0.639   3.027   1.004  1.8797  1.1576 -0.0348
  993SOL    HW2 2979   0.724   0.059   0.919 -0.0356  1.7043  0.6143
  994SOL     OW 2980   0.267   1.793   1.247 -0.1394 -1.2751  0.2338
  994SOL    HW1 2981   0.174   1.780   1.215  0.2731  2.4657 -0.5961
  994SOL    HW2 2982   0.297   1.728   1.318  1.0414  2.4240  0.5739
  995SOL     OW 2983   2.166   1.501   2.361 -0.4207 -0.0890  0.2438
  995SOL    HW1 2984   2.244   1.485   2.422  0.9506 -2.5600  0.2462
  995SOL    HW2 2985   2.187   1.518   2.263  0.3576 -1.3593 -1.9047
  996SOL     OW 2986   2.035   1.388   2.690 -0.2216 -0.5832 -0.0471
  996SOL    HW1 2987   1.983   1.475   2.723 -3.5067  3.1527  0.7840
  996SOL    HW2 2988   1.971   1.310   2.681  1.7867 -0.1718 -0.0392
  997SOL     OW 2989   1.692   0.882   1.895 -0.5602  0.0464 -0.1788
  997SOL    HW1 2990   1.616   0.877   1.829 -1.2002  0.6392 -2.3542
  997SOL    HW2 2991   1.732   0.977   1.905  1.6888 -0.0813 -0.5542
  998SOL     OW 2992   2.503   2.250   1.196  0.3077  0.1206  0.0936
  998SOL    HW1 2993   2.555   2.290   1.120 -1.9627  2.0241  0.5493
  998SOL    HW2 2994   2.555   2.184   1.251 -4.0793  1.2580 -2.2888
  999SOL     OW 2995   2.402   2.222   0.635  1.0325  0.9752 -0.6664
  999SOL    HW1 2996   2.361   2.131   0.601  0.1534 -1.2854 -0.4989
  999SOL    HW2 2997   2.367   2.306   0.595  2.0304 -0.1738  0.6716
 1000SOL     OW 2998   1.223   2.936   2.462 -0.5747  0.0608 -0.1751
 1000SOL    HW1 2999   1.187   3.025   2.494  1.5158 -2.4413 -2.8270
 1000SOL    HW2 3000   1.258   2.888   2.545 -2.8309  1.3215 -0.2106
   3.08829   3.08829   3.08829
