1000 SPC/Fw water molecules t= 336.00000 step= 336000
 3000
    1SOL     OW    1   2.526   0.221   1.357  0.0490 -0.4974  0.1370
    1SOL    HW1    2   2.581   0.139   1.342 -0.9793  1.1404  2.2801
    1SOL    HW2    3   2.481   0.221   1.447  0.6425 -0.6558 -0.8228
    2SOL     OW    4   2.469   2.520   0.895  0.6098  0.1992 -0.0046
    2SOL    HW1    5   2.557   2.530   0.944  0.5949 -0.6409 -0.4018
    2SOL    HW2    6   2.405   2.453   0.952 -4.8588 -3.0827  1.5095
    3SOL     OW    7   1.033   2.877   2.817  0.2791 -0.0298 -0.1256
    3SOL    HW1    8   1.095   2.889   2.897 -0.1574  1.4666 -1.0480
    3SOL    HW2    9   0.937   2.883   2.852 -1.5723 -1.2218 -0.5146
    4SOL     OW   10   1.884   2.489   2.035 -0.4793  0.2307 -0.5251
    4SOL    HW1   11   1.852   2.579   2.072  0.2699 -3.9938  1.1180
    4SOL    HW2   12   1.881   2.485   1.935  0.0752  1.2493  1.3787
    5SOL     OW   13   1.589   0.952   1.738  0.3148  0.2436  0.5221
    5SOL    HW1   14   1.522   0.910   1.802 -0.1773  2.2415  0.4325
    5SOL    HW2   15   1.657   1.009   1.786 -1.1717  1.3803 -2.4226
    6SOL     OW   16   1.969   2.795   0.800  0.3870 -0.2294 -0.2656
    6SOL    HW1   17   1.894   2.727   0.794  0.6249 -2.6398  2.8919
    6SOL    HW2   18   2.029   2.778   0.882  1.6234 -0.0197 -1.7395
    7SOL     OW   19   2.057   1.143   1.225 -0.4832 -0.2907  0.2645
    7SOL    HW1   20   2.013   1.235   1.240 -2.9687 -0.4477 -0.0819
    7SOL    HW2   21   2.030   1.101   1.139  2.3303  1.3601  0.6347
    8SOL     OW   22   0.737   1.804   1.282  0.4998 -0.7259 -0.1701
    8SOL    HW1   23   0.674   1.728   1.291  0.4745  1.6067 -0.7903
    8SOL    HW2   24   0.706   1.881   1.341  0.0372 -3.7222 -0.9916
    9SOL     OW   25   1.272   2.507   2.160 -0.3077 -0.5093  0.0932
    9SOL    HW1   26   1.322   2.486   2.243 -1.7538 -0.0726 -2.8099
    9SOL    HW2   27   1.172   2.500   2.178 -0.5020 -0.4220  1.0032
   10SOL     OW   28   0.332   2.147   0.817 -0.5444  0.2585  0.5047
   10SOL    HW1   29   0.405   2.070   0.815 -0.6034 -1.1538  1.5074
   10SOL    HW2   30   0.298   2.168   0.910  1.5601 -0.6450  0.0250
   11SOL     OW   31   1.521   1.972   1.132  0.0690  0.5076 -0.3601
   11SOL    HW1   32   1.499   2.039   1.205  0.0600 -0.3728  0.3740
   11SOL    HW2   33   1.446   1.962   1.070  1.6981 -2.8661  4.1720
   12SOL     OW   34   2.481   0.194   2.068  0.1701  0.1817  0.0195
   12SOL    HW1   35   2.486   0.295   2.077 -0.9161  0.6742  0.4777
   12SOL    HW2   36   2.404   0.164   2.007 -2.2421 -0.8149 -0.6613
   13SOL     OW   37   2.824   2.945   0.481  0.1604  0.1550 -0.0589
   13SOL    HW1   38   2.737   2.975   0.524 -1.1454  2.7628 -0.3984
   13SOL    HW2   39   2.898   2.927   0.551 -1.7944 -0.9857  0.2761
   14SOL     OW   40   1.545   1.751   2.868 -0.2196  0.2445  0.1050
   14SOL    HW1   41   1.590   1.674   2.913  0.3637 -0.2771  1.0913
   14SOL    HW2   42   1.607   1.800   2.804  0.7082 -0.5131 -0.8806
   15SOL     OW   43   2.826   2.729   1.454 -0.5825  0.3561 -0.6028
   15SOL    HW1   44   2.880   2.805   1.494  1.5321  1.4892  0.3338
   15SOL    HW2   45   2.727   2.748   1.454  3.7425 -1.9820 -0.7514
   16SOL     OW   46   2.766   2.880   0.234  0.1467  0.5558  0.1211
   16SOL    HW1   47   2.790   2.899   0.331  0.8463 -1.0594  0.9203
   16SOL    HW2   48   2.847   2.910   0.174  1.5214 -1.4497 -1.0919
   17SOL     OW   49   0.312   0.308   1.229 -0.2452  0.2233  0.6073
   17SOL    HW1   50   0.362   0.366   1.163  1.5953 -0.7550  1.3576
   17SOL    HW2   51   0.344   0.208   1.230  1.4687 -4.0271 -0.8779
   18SOL     OW   52   2.324   0.760   0.583 -0.1817 -0.2974  0.4094
   18SOL    HW1   53   2.308   0.861   0.555 -2.3148  2.3353 -1.9031
   18SOL    HW2   54   2.420   0.735   0.587  3.0238  0.7934 -2.5689
   19SOL     OW   55   1.717   1.758   0.127  0.3472  0.4295 -0.0799
   19SOL    HW1   56   1.787   1.750   0.203 -0.0269  0.4476 -1.7740
   19SOL    HW2   57   1.748   1.824   0.059 -2.3747  0.0808  0.1187
   20SOL     OW   58   2.398   2.011   2.238  0.2339  0.1247 -0.3665
   20SOL    HW1   59   2.340   1.955   2.179 -1.5298 -3.1107 -1.5720
   20SOL    HW2   60   2.343   2.087   2.270  2.4234  1.4018  1.3850
   21SOL     OW   61   1.735   0.045   0.620  0.3082 -0.3492 -0.6601
   21SOL    HW1   62   1.700   0.045   0.716 -0.2641 -0.9998  1.9766
   21SOL    HW2   63   1.799   3.066   0.607 -2.2872  1.9090  0.7874
   22SOL     OW   64   2.422   0.181   1.605  0.1138  0.5684  0.1841
   22SOL    HW1   65   2.397   0.101   1.664 -0.9521  0.8043  0.8962
   22SOL    HW2   66   2.388   0.268   1.646  0.2803 -3.1751 -3.0007
   23SOL     OW   67   0.535   0.629   1.682  0.3724 -0.0507  0.2328
   23SOL    HW1   68   0.499   0.689   1.758  0.7015  1.1643 -1.0921
   23SOL    HW2   69   0.515   0.676   1.596 -0.2102  1.6424 -3.0671
   24SOL     OW   70   2.593   2.726   0.416 -0.2238 -0.1859 -0.2804
   24SOL    HW1   71   2.676   2.685   0.383 -4.0671 -2.1089  1.5171
   24SOL    HW2   72   2.596   2.827   0.421  0.8349  3.3235  0.7691
   25SOL     OW   73   1.099   2.675   2.620  0.0422 -0.3707 -0.1040
   25SOL    HW1   74   1.052   2.733   2.694  0.9786  1.1490 -1.6947
   25SOL    HW2   75   1.099   2.716   2.528 -3.0869 -0.9404 -0.1065
   26SOL     OW   76   1.265   2.493   0.123 -0.7250 -0.1430 -0.3576
   26SOL    HW1   77   1.273   2.535   0.032 -2.4066 -2.1551  2.5062
   26SOL    HW2   78   1.337   2.534   0.187  1.5118 -0.0367 -2.0211
   27SOL     OW   79   2.258   0.959   2.911  0.1828 -0.0701  0.3103
   27SOL    HW1   80   2.215   1.036   2.961 -2.8271  0.0687  0.3866
   27SOL    HW2   81   2.360   0.972   2.897 -1.1006  3.3952  2.1611
   28SOL     OW   82   1.125   1.535   1.051 -0.4436 -0.2749  0.1397
   28SOL    HW1   83   1.140   1.469   1.127  2.1828  0.3540  0.0707
   28SOL    HW2   84   1.036   1.587   1.063  1.1648 -0.0560 -0.5279
   29SOL     OW   85   3.028   2.620   1.934  0.1341  0.1285  0.2743
   29SOL    HW1   86   0.013   2.635   1.870  0.2394  0.6548  1.0976
   29SOL    HW2   87   2.984   2.533   1.924  0.8905  2.9737  4.0283
   30SOL     OW   88   1.324   0.113   1.138  0.0742 -0.3393  1.3571
   30SOL    HW1   89   1.414   0.098   1.185  1.2943  0.6885  0.1002
   30SOL    HW2   90   1.322   0.195   1.072  2.0910  3.6575 -3.6325
   31SOL     OW   91   2.074   3.053   2.405  0.2982 -0.4933 -0.1834
   31SOL    HW1   92   2.014   3.048   2.488  1.2879  1.0805 -0.0209
   31SOL    HW2   93   2.016   3.076   2.319 -1.2487  2.2746  1.7675
   32SOL     OW   94   0.815   1.406   0.193 -0.3998 -0.0492  0.4595
   32SOL    HW1   95   0.885   1.342   0.169 -2.2753  1.7147  1.1663
   32SOL    HW2   96   0.859   1.497   0.198  0.6299  0.4549 -0.8263
   33SOL     OW   97   0.077   0.924   2.431 -0.0306  0.0279 -0.2221
   33SOL    HW1   98   0.153   0.861   2.416  0.8924  2.5320  1.2451
   33SOL    HW2   99   0.071   0.986   2.347 -1.0334  1.6344  0.2074
   34SOL     OW  100   2.578   2.975   0.624 -0.3617 -0.3689 -0.0146
   34SOL    HW1  101   2.477   2.956   0.618  0.0053 -0.7477 -0.5169
   34SOL    HW2  102   2.621   2.930   0.705 -3.0246  0.5751 -0.3469
   35SOL     OW  103   2.350   2.890   2.019  0.1665  0.7663  0.1238
   35SOL    HW1  104   2.282   2.853   1.958  2.3935 -0.5125  1.1206
   35SOL    HW2  105   2.309   2.941   2.092  4.1044 -1.9422 -2.2547
   36SOL     OW  106   2.176   2.224   3.066 -0.0065  0.0756 -0.3416
   36SOL    HW1  107   2.241   2.299   3.034 -2.6754 -2.1661 -2.5902
   36SOL    HW2  108   2.081   2.251   3.040 -2.5098  0.4667 -2.5038
   37SOL     OW  109   1.521   0.425   2.247  0.6260  0.8581 -0.3879
   37SOL    HW1  110   1.539   0.503   2.309  1.5860  0.3435 -1.6448
   37SOL    HW2  111   1.466   0.358   2.299 -1.7161 -0.7561  0.1294
   38SOL     OW  112   0.221   0.478   2.747 -0.2066  0.1376 -0.2668
   38SOL    HW1  113   0.263   0.450   2.835  2.1006 -1.2355 -0.5126
   38SOL    HW2  114   0.286   0.464   2.672 -1.1233 -1.5395  1.7449
   39SOL     OW  115   1.971   1.396   1.625  0.8111  0.4097 -0.3565
   39SOL    HW1  116   2.063   1.379   1.595  0.3022 -0.9325  1.8745
   39SOL    HW2  117   1.959   1.369   1.723 -2.2689 -0.4762  0.2021
   40SOL     OW  118   1.407   2.675   0.301 -0.8836  0.5783  0.1830
   40SOL    HW1  119   1.412   2.758   0.362 -0.1072  1.9491 -0.2246
   40SOL    HW2  120   1.460   2.588   0.328 -1.5593 -3.8163 -0.0146
   41SOL     OW  121   2.361   1.290   0.941  0.4122  0.0664  0.1390
   41SOL    HW1  122   2.366   1.244   1.032 -1.1315 -0.6091  1.9623
   41SOL    HW2  123   2.452   1.293   0.893 -0.2483  2.0649  0.5270
   42SOL     OW  124   0.875   0.334   1.209 -0.0627 -0.0513 -0.0780
   42SOL    HW1  125   0.905   0.322   1.111  1.4020 -0.8476  1.9035
   42SOL    HW2  126   0.955   0.299   1.264 -1.8552  1.6269 -0.6403
   43SOL     OW  127   0.039   1.377   2.369  0.4268  0.1708 -0.7674
   43SOL    HW1  128   0.066   1.299   2.421  1.5047  2.0545 -0.4567
   43SOL    HW2  129   0.112   1.448   2.368  2.3995 -1.2055 -0.9491
   44SOL     OW  130   2.356   3.035   1.750 -0.4832 -0.3618  0.0286
   44SOL    HW1  131   2.344   3.091   1.832 -1.5457 -0.9572 -1.1983
   44SOL    HW2  132   2.430   2.967   1.764  0.1362  2.1815  0.1464
   45SOL     OW  133   1.427   2.927   2.235 -0.0204 -0.2515  0.7990
   45SOL    HW1  134   1.417   2.827   2.256  0.9320  1.8888 -1.6172
   45SOL    HW2  135   1.386   2.973   2.318 -1.1453  1.2086 -1.1610
   46SOL     OW  136   0.979   2.426   2.654 -0.1313  0.1357  0.6888
   46SOL    HW1  137   1.036   2.512   2.647  2.7684  3.0097 -1.1995
   46SOL    HW2  138   0.885   2.448   2.621  0.9440  0.4895 -0.0520
   47SOL     OW  139   1.532   1.570   0.758 -0.0193 -0.2969  0.4191
   47SOL    HW1  140   1.451   1.601   0.704  2.7209  1.6109  0.1405
   47SOL    HW2  141   1.598   1.524   0.695  2.7740 -1.3721 -1.1304
   48SOL     OW  142   1.286   2.263   0.640 -0.3630 -0.2275 -0.2667
   48SOL    HW1  143   1.290   2.238   0.539  0.4462 -1.8355  0.2899
   48SOL    HW2  144   1.232   2.190   0.686  0.2431 -0.7795  1.2875
   49SOL     OW  145   2.092   0.087   2.759 -0.1266 -0.7478  0.1362
   49SOL    HW1  146   2.002   0.048   2.730  0.1148 -1.2538 -0.4085
   49SOL    HW2  147   2.161   0.026   2.717 -0.4366  1.5989 -0.1845
   50SOL     OW  148   1.812   0.026   2.974 -0.1039 -0.2368 -0.0360
   50SOL    HW1  149   1.826   0.052   3.071 -1.2355 -1.4808  1.6926
   50SOL    HW2  150   1.783   0.110   2.922  1.7789  0.7638 -2.8038
   51SOL     OW  151   2.311   0.785   1.335  0.2488 -0.0649 -0.0990
   51SOL    HW1  152   2.357   0.731   1.261 -0.4515 -0.7772 -0.5504
   51SOL    HW2  153   2.376   0.809   1.408 -1.2559  2.0058 -0.9575
   52SOL     OW  154   1.074   1.503   0.602  0.3511 -0.0136 -0.2648
   52SOL    HW1  155   1.029   1.598   0.600 -1.3939  2.1244  0.0607
   52SOL    HW2  156   1.148   1.498   0.673 -0.2712 -4.4559  2.3361
   53SOL     OW  157   0.296   1.669   2.588 -0.1005 -0.4496 -0.1312
   53SOL    HW1  158   0.298   1.619   2.678 -2.3123 -0.3446  0.9959
   53SOL    HW2  159   0.392   1.695   2.563 -0.9393  0.1105  2.6585
   54SOL     OW  160   2.619   1.418   1.725  0.1270  0.3235 -0.4292
   54SOL    HW1  161   2.671   1.498   1.681  0.9469  3.0288 -3.4687
   54SOL    HW2  162   2.650   1.414   1.825  0.9611  1.3233  0.8713
   55SOL     OW  163   2.477   1.986   0.645 -0.9160  0.6600  0.3485
   55SOL    HW1  164   2.503   1.907   0.702  0.3214 -0.5333  0.1854
   55SOL    HW2  165   2.417   2.051   0.697 -0.3112  2.6926 -0.9641
   56SOL     OW  166   1.315   0.188   1.569 -0.2776 -0.0242  0.2284
   56SOL    HW1  167   1.234   0.203   1.516  1.5535  2.8099  1.2768
   56SOL    HW2  168   1.328   0.236   1.658 -2.1369  0.9567  1.3147
   57SOL     OW  169   1.549   1.216   2.722  0.3237  0.4660 -0.2011
   57SOL    HW1  170   1.585   1.153   2.648  2.5623 -0.7393  1.8523
   57SOL    HW2  171   1.447   1.205   2.728 -1.1041  0.3535  0.6249
   58SOL     OW  172   0.134   0.482   1.380 -0.0237  0.6604  0.6554
   58SOL    HW1  173   0.192   0.433   1.313  0.5610 -0.4018 -1.8941
   58SOL    HW2  174   0.183   0.555   1.425 -1.3915 -1.2440  0.0955
   59SOL     OW  175   1.562   2.749   0.087  0.0589 -0.6023 -0.6041
   59SOL    HW1  176   1.562   2.846   0.046  0.5261  3.7689 -2.8535
   59SOL    HW2  177   1.489   2.737   0.161  1.0989  1.2496  0.6051
   60SOL     OW  178   2.942   1.898   3.008  0.1334 -0.0053  0.0179
   60SOL    HW1  179   2.993   1.820   3.048  0.6344  1.1309  0.3194
   60SOL    HW2  180   2.860   1.863   2.960 -2.0317 -2.5787  3.8853
   61SOL     OW  181   0.895   2.553   0.718  0.3512  0.3314 -0.4456
   61SOL    HW1  182   0.881   2.638   0.778  0.7271 -0.7845  0.7829
   61SOL    HW2  183   0.873   2.471   0.775 -0.1050  1.2531  0.0600
   62SOL     OW  184   1.861   1.488   2.680  0.0158 -0.0900  0.3098
   62SOL    HW1  185   1.805   1.574   2.688 -0.0565 -0.6201  2.0309
   62SOL    HW2  186   1.819   1.419   2.741 -1.4421  0.2427  2.7209
   63SOL     OW  187   2.273   2.133   0.366  0.3675  0.7366  0.3467
   63SOL    HW1  188   2.314   2.063   0.303 -0.3594 -0.3838 -2.4205
   63SOL    HW2  189   2.352   2.198   0.386 -0.8299  0.2928 -1.7569
   64SOL     OW  190   1.879   1.158   3.037  0.0768 -0.0866 -0.3726
   64SOL    HW1  191   1.895   1.060   3.012  1.8150 -0.3274  0.6676
   64SOL    HW2  192   1.964   1.210   3.053  1.6969 -1.8027  0.0173
   65SOL     OW  193   1.906   1.614   2.236 -1.1050 -0.4373  0.3600
   65SOL    HW1  194   1.998   1.645   2.281 -0.4736  2.1300  0.9417
   65SOL    HW2  195   1.880   1.678   2.165  2.1594 -2.6217  0.0741
   66SOL     OW  196   0.280   0.964   1.163  0.3648  0.3871  0.1187
   66SOL    HW1  197   0.380   0.982   1.161  1.4954  0.7231  1.7638
   66SOL    HW2  198   0.230   1.004   1.081 -0.5585  0.4287 -2.1572
   67SOL     OW  199   2.152   2.683   2.639  0.1504  0.1248 -0.3998
   67SOL    HW1  200   2.067   2.637   2.607 -0.9051 -1.5368  0.2506
   67SOL    HW2  201   2.205   2.728   2.562  1.3896  0.6319  1.4456
   68SOL     OW  202   1.105   2.535   1.359 -0.1963  0.1126  0.0190
   68SOL    HW1  203   1.184   2.538   1.295 -2.5987 -0.0044 -0.7812
   68SOL    HW2  204   1.124   2.462   1.428  0.5103  0.3099 -1.6130
   69SOL     OW  205   0.598   2.473   0.014  0.1144  0.1114  0.1782
   69SOL    HW1  206   0.542   2.422   0.084  2.0515  0.0934 -1.9174
   69SOL    HW2  207   0.697   2.451   0.023 -0.6322 -2.8118 -1.6125
   70SOL     OW  208   3.048   0.567   2.465 -0.4543  0.7612  0.5088
   70SOL    HW1  209   3.033   0.560   2.365  1.4431 -2.0748  0.8094
   70SOL    HW2  210   3.039   0.660   2.499 -0.7018  1.6525 -1.8297
   71SOL     OW  211   0.704   1.672   2.873 -0.1578 -0.2319 -0.1232
   71SOL    HW1  212   0.786   1.627   2.908 -0.6399  1.0577 -1.0418
   71SOL    HW2  213   0.641   1.686   2.947 -0.7885  0.3435 -1.7191
   72SOL     OW  214   3.070   1.700   2.226  0.3674  0.1309 -0.7429
   72SOL    HW1  215   0.061   1.662   2.256 -2.9771  1.7910 -1.5548
   72SOL    HW2  216   3.085   1.798   2.232 -1.8572 -2.1192  0.5296
   73SOL     OW  217   1.667   1.385   0.387  0.0914  0.0247 -0.1325
   73SOL    HW1  218   1.681   1.339   0.295 -1.0114 -2.4403 -0.0895
   73SOL    HW2  219   1.756   1.409   0.430  1.1462  2.7831 -2.3206
   74SOL     OW  220   2.288   2.648   2.883 -0.0483  0.6643 -0.2589
   74SOL    HW1  221   2.234   2.643   2.796 -0.4853 -2.2975  3.1906
   74SOL    HW2  222   2.300   2.552   2.922 -2.4120 -1.6035  0.2066
   75SOL     OW  223   2.122   2.026   0.914  0.3872 -0.1027 -0.3918
   75SOL    HW1  224   2.071   2.084   0.982  1.3713  0.3824  1.2846
   75SOL    HW2  225   2.125   1.930   0.951  0.8091 -0.5363 -3.2026
   76SOL     OW  226   2.598   2.097   2.053 -0.4403 -0.3437  0.1133
   76SOL    HW1  227   2.514   2.071   2.104 -1.0749 -1.2003 -0.7509
   76SOL    HW2  228   2.627   2.198   2.056  0.5633  1.8563  0.3299
   77SOL     OW  229   2.880   0.229   2.337  0.1408 -0.2062 -0.0346
   77SOL    HW1  230   2.807   0.191   2.279  1.5711  3.1670  0.8935
   77SOL    HW2  231   2.956   0.159   2.343  1.2799  0.4635 -1.8524
   78SOL     OW  232   2.163   1.159   3.063  0.1006  0.0520  0.4603
   78SOL    HW1  233   2.182   1.169   0.067 -1.5027 -0.2615 -2.4494
   78SOL    HW2  234   2.171   1.249   3.019  1.0782 -1.2079  1.4439
   79SOL     OW  235   2.651   1.619   2.639 -0.1337  0.1229  0.7485
   79SOL    HW1  236   2.549   1.621   2.621  1.9531 -2.0174  1.7223
   79SOL    HW2  237   2.706   1.693   2.587  0.9479  1.1370 -2.0890
   80SOL     OW  238   1.475   1.602   1.673 -0.2956  0.3239 -0.3089
   80SOL    HW1  239   1.413   1.680   1.692  3.9095 -1.4941  1.8825
   80SOL    HW2  240   1.481   1.525   1.742  0.6707  1.0387 -1.1467
   81SOL     OW  241   1.753   0.774   2.064 -0.1027  0.2892 -0.5233
   81SOL    HW1  242   1.788   0.700   2.125  0.6837  0.5099  3.2768
   81SOL    HW2  243   1.812   0.778   1.984 -0.0917 -0.0814 -1.6340
   82SOL     OW  244   1.814   1.830   1.756  0.2238  0.6177  0.4840
   82SOL    HW1  245   1.813   1.748   1.698 -0.8263  0.5627 -0.7715
   82SOL    HW2  246   1.901   1.876   1.733 -1.0793 -1.3897 -0.4556
   83SOL     OW  247   3.042   0.099   0.175  0.0773  0.4003 -0.3395
   83SOL    HW1  248   3.092   0.185   0.210 -0.5782  2.3792  0.7261
   83SOL    HW2  249   2.958   0.137   0.130  0.3895  0.6827 -1.1504
   84SOL     OW  250   0.674   0.904   0.081 -0.6823 -0.2467  0.0717
   84SOL    HW1  251   0.671   0.872   0.181  0.5854  0.3749  3.2664
   84SOL    HW2  252   0.601   0.974   0.061 -0.3240  0.5221 -0.9152
   85SOL     OW  253   2.549   2.031   1.472 -0.3588  0.0559 -0.3475
   85SOL    HW1  254   2.514   1.946   1.430 -0.8164  1.5659 -0.8504
   85SOL    HW2  255   2.569   2.107   1.403  1.3177  1.0355 -3.4386
   86SOL     OW  256   0.528   2.729   1.226  0.2251 -0.3822 -0.5176
   86SOL    HW1  257   0.618   2.733   1.181 -0.8515 -0.3013  1.2937
   86SOL    HW2  258   0.456   2.748   1.158  1.3142  1.7300 -1.9092
   87SOL     OW  259   0.512   2.376   2.433 -0.4266 -0.4699 -0.3959
   87SOL    HW1  260   0.543   2.389   2.336 -2.0274  0.8767  0.3619
   87SOL    HW2  261   0.417   2.342   2.441  0.3565  1.1533  1.4117
   88SOL     OW  262   0.092   2.343   0.446  0.2325  0.5627 -0.0604
   88SOL    HW1  263   0.061   2.249   0.414 -4.6597 -0.7848  0.3483
   88SOL    HW2  264   0.164   2.339   0.518  1.2418  0.5880  1.1935
   89SOL     OW  265   0.893   0.915   0.843  0.1459  0.3174 -0.0442
   89SOL    HW1  266   0.972   0.852   0.826  2.2520 -0.3794 -1.9542
   89SOL    HW2  267   0.866   0.903   0.942 -0.1390 -0.5573  3.3112
   90SOL     OW  268   0.255   1.153   1.770 -0.5862 -0.1429 -0.7175
   90SOL    HW1  269   0.239   1.230   1.701  1.1582  2.5638  0.0649
   90SOL    HW2  270   0.316   1.087   1.729 -1.9549  1.5434  0.7015
   91SOL     OW  271   1.092   0.736   0.873 -0.2559  0.4619  0.1188
   91SOL    HW1  272   1.079   0.714   0.773  0.3789  0.0894 -0.6505
   91SOL    HW2  273   1.167   0.676   0.911  2.1591  0.2852 -2.5833
   92SOL     OW  274   1.962   1.046   0.991 -0.5538 -0.4300  0.1499
   92SOL    HW1  275   1.881   1.038   1.051  1.7245  0.5950  0.0498
   92SOL    HW2  276   1.944   1.083   0.901 -3.5462 -1.2778  0.0838
   93SOL     OW  277   2.612   0.994   2.270 -0.0416  0.1707  0.0345
   93SOL    HW1  278   2.714   1.002   2.279  0.9998 -0.9681 -0.1111
   93SOL    HW2  279   2.568   0.929   2.332 -0.7504  2.1506  1.1286
   94SOL     OW  280   2.056   1.798   2.878  0.3912  0.2106 -0.3049
   94SOL    HW1  281   1.989   1.873   2.856  1.2277  0.6620 -0.7464
   94SOL    HW2  282   2.084   1.744   2.790  1.4439  1.0330 -2.3762
   95SOL     OW  283   2.634   0.637   1.433 -0.2698  0.3654 -0.2198
   95SOL    HW1  284   2.635   0.712   1.364 -1.4976  1.8097  2.3364
   95SOL    HW2  285   2.627   0.543   1.389 -0.6922  0.0714  1.0992
   96SOL     OW  286   2.563   2.829   1.789  0.1937 -0.1725 -0.0733
   96SOL    HW1  287   2.660   2.816   1.811  0.6268  0.9913  1.6310
   96SOL    HW2  288   2.503   2.835   1.876 -0.5953  1.5093  0.2537
   97SOL     OW  289   2.485   1.011   1.400 -0.2974 -0.7066  0.0124
   97SOL    HW1  290   2.558   1.057   1.454  0.5810 -1.4136 -0.7561
   97SOL    HW2  291   2.397   1.057   1.418  1.9460 -1.6446 -2.4975
   98SOL     OW  292   1.630   2.290   1.619 -0.0048  0.3192  0.0746
   98SOL    HW1  293   1.629   2.190   1.655 -0.3938 -2.1096 -1.3638
   98SOL    HW2  294   1.579   2.353   1.688 -0.2136  2.1046  1.6940
   99SOL     OW  295   0.519   2.408   1.569 -0.0786 -0.0875  0.1075
   99SOL    HW1  296   0.566   2.423   1.473 -0.8780 -2.3021  1.3510
   99SOL    HW2  297   0.504   2.498   1.613 -0.6375  0.8966 -1.8764
  100SOL     OW  298   1.153   0.385   3.019 -0.5142 -0.5796  0.1676
  100SOL    HW1  299   1.115   0.404   0.015  1.0797 -0.6869  1.2451
  100SOL    HW2  300   1.231   0.317   3.019 -0.3418 -0.4495 -0.6260
  101SOL     OW  301   2.327   0.221   2.550 -0.0919  0.4276  0.4919
  101SOL    HW1  302   2.305   0.120   2.564 -3.8270 -1.1600 -0.6882
  101SOL    HW2  303   2.311   0.269   2.639 -0.9090  0.0995 -1.2634
  102SOL     OW  304   0.541   0.540   1.395 -0.6585 -0.2514  0.4255
  102SOL    HW1  305   0.487   0.524   1.308 -0.9212  1.2623 -1.3111
  102SOL    HW2  306   0.580   0.456   1.438  0.3933  0.3706 -0.8376
  103SOL     OW  307   0.722   0.384   2.583 -0.0095  0.1097 -0.7411
  103SOL    HW1  308   0.659   0.337   2.647  1.6814 -0.2813  0.9205
  103SOL    HW2  309   0.757   0.322   2.509  0.7239  1.5585 -0.0498
  104SOL     OW  310   0.985   0.758   2.597  0.6284  0.1082  0.2466
  104SOL    HW1  311   0.990   0.827   2.669  0.3401 -2.4687 -4.3640
  104SOL    HW2  312   1.037   0.671   2.626 -0.2054 -0.9470 -2.3270
  105SOL     OW  313   2.017   2.012   1.671 -0.4142 -0.3168  0.2077
  105SOL    HW1  314   2.001   2.085   1.740 -1.8342 -0.1008  0.3927
  105SOL    HW2  315   1.998   2.045   1.574  0.9351 -0.6878 -0.1145
  106SOL     OW  316   1.826   2.876   0.579 -1.0736  0.5833  0.4409
  106SOL    HW1  317   1.894   2.857   0.656  3.2757  2.2327 -1.3880
  106SOL    HW2  318   1.866   2.861   0.483 -1.3781 -0.8792 -2.7456
  107SOL     OW  319   2.520   1.961   0.997  0.1503 -0.5662 -0.7117
  107SOL    HW1  320   2.543   1.888   0.926  0.7425 -1.0349 -2.6001
  107SOL    HW2  321   2.532   2.054   0.960  0.3817 -0.0800  2.2277
  108SOL     OW  322   2.635   3.049   1.398 -0.2819  0.0836  0.3402
  108SOL    HW1  323   2.554   2.997   1.414  1.4606  1.4480 -0.3830
  108SOL    HW2  324   2.667   3.088   1.486 -1.5932 -0.2141 -2.1027
  109SOL     OW  325   2.079   2.501   1.098  0.0551 -0.0590  0.2498
  109SOL    HW1  326   2.015   2.486   1.171 -2.1059  0.1040  1.1720
  109SOL    HW2  327   2.093   2.605   1.090 -1.4003 -1.2881 -0.3454
  110SOL     OW  328   0.716   1.723   1.889  0.8678 -0.7357  0.1695
  110SOL    HW1  329   0.682   1.660   1.814 -2.7851  2.6824 -1.3014
  110SOL    HW2  330   0.656   1.720   1.973 -0.7220 -0.8176  3.6313
  111SOL     OW  331   1.565   2.257   2.387 -0.6653 -0.4876 -0.2888
  111SOL    HW1  332   1.626   2.338   2.391 -0.1204 -1.4784 -2.0732
  111SOL    HW2  333   1.569   2.205   2.296 -1.4548 -1.3287  1.0404
  112SOL     OW  334   1.721   1.720   2.419 -0.2775  0.3141 -0.0154
  112SOL    HW1  335   1.749   1.805   2.370 -2.3289  1.4065 -5.2652
  112SOL    HW2  336   1.749   1.650   2.356 -0.3841 -0.5820  1.1038
  113SOL     OW  337   1.632   2.014   1.720 -0.1997  0.0070  0.3984
  113SOL    HW1  338   1.576   1.979   1.648  1.6282  0.7433  1.3163
  113SOL    HW2  339   1.704   1.945   1.749  2.2777  1.1746 -1.8396
  114SOL     OW  340   2.914   0.807   0.953  0.7487  0.7307  1.1235
  114SOL    HW1  341   2.937   0.871   1.025 -1.1687 -0.1013  1.2815
  114SOL    HW2  342   2.831   0.847   0.907  0.3483  0.9065 -2.8211
  115SOL     OW  343   0.671   0.779   0.314  0.8451  0.1820 -0.2340
  115SOL    HW1  344   0.600   0.821   0.374  0.2445 -1.9189  1.4659
  115SOL    HW2  345   0.636   0.693   0.266  1.3070 -1.1423 -3.1309
  116SOL     OW  346   2.797   1.835   2.489  0.9470  0.0023 -0.3403
  116SOL    HW1  347   2.741   1.892   2.426 -0.8448 -3.1168  2.5158
  116SOL    HW2  348   2.858   1.896   2.544  0.7805 -0.5442 -0.4555
  117SOL     OW  349   3.042   2.815   0.632  0.6087 -0.2692 -0.3639
  117SOL    HW1  350   3.034   2.733   0.577 -0.8495  1.6101  0.2222
  117SOL    HW2  351   3.058   2.794   0.734  0.0722  0.0944  0.2311
  118SOL     OW  352   0.994   1.502   2.731 -0.2683 -0.2051  0.0842
  118SOL    HW1  353   0.898   1.484   2.702  0.6807 -1.5187  0.1370
  118SOL    HW2  354   1.038   1.544   2.647 -0.3340 -0.2354  0.9034
  119SOL     OW  355   0.362   2.063   0.194  0.1364  0.6235  0.0457
  119SOL    HW1  356   0.267   2.091   0.196  0.9426  0.7423  1.1292
  119SOL    HW2  357   0.373   1.974   0.241 -0.6414  1.3297 -0.8395
  120SOL     OW  358   1.489   0.627   0.392 -0.4655  0.0731  0.2000
  120SOL    HW1  359   1.526   0.624   0.488 -0.4370  0.4230 -0.6008
  120SOL    HW2  360   1.568   0.645   0.328 -2.0939 -0.3198 -1.4273
  121SOL     OW  361   1.499   2.432   0.397 -0.5555 -0.1584  0.1361
  121SOL    HW1  362   1.600   2.411   0.399 -0.4541  3.1929  0.3771
  121SOL    HW2  363   1.452   2.356   0.350 -0.4039  2.8959 -1.5347
  122SOL     OW  364   2.567   2.428   1.749 -0.1114 -0.0533  0.2380
  122SOL    HW1  365   2.638   2.439   1.675  1.4789  0.2175 -0.2595
  122SOL    HW2  366   2.536   2.335   1.742  1.1073 -0.9430 -0.0304
  123SOL     OW  367   0.779   1.872   0.768  0.0182  0.1253 -0.5223
  123SOL    HW1  368   0.788   1.886   0.670  0.4770  0.1628 -2.1176
  123SOL    HW2  369   0.869   1.897   0.815 -0.2760 -3.3205  2.4026
  124SOL     OW  370   3.019   0.805   0.130  0.1065 -0.3660 -0.2897
  124SOL    HW1  371   0.004   0.746   0.146 -1.7365  2.1833  1.5004
  124SOL    HW2  372   2.976   0.828   0.219  0.4262  1.4171  1.5635
  125SOL     OW  373   0.539   1.005   0.423  0.8090 -0.1175 -0.0274
  125SOL    HW1  374   0.464   0.953   0.469 -1.3335  0.7963 -2.8024
  125SOL    HW2  375   0.617   1.018   0.485 -4.0514  2.1232 -1.4536
  126SOL     OW  376   3.029   2.063   0.780  0.0488  0.4540 -0.3565
  126SOL    HW1  377   3.053   2.020   0.866  1.7482 -2.5585 -1.5321
  126SOL    HW2  378   3.091   2.035   0.706  0.5797 -1.0681 -1.6789
  127SOL     OW  379   1.368   1.875   1.751 -0.1812  0.2063 -0.2044
  127SOL    HW1  380   1.428   1.876   1.831 -0.0279 -2.2939  1.6063
  127SOL    HW2  381   1.280   1.923   1.764  1.9521 -0.5255  2.1230
  128SOL     OW  382   1.050   1.239   0.174  0.5707  0.4430 -0.9632
  128SOL    HW1  383   1.100   1.152   0.152  0.8231  1.9241  0.5985
  128SOL    HW2  384   1.080   1.265   0.270  1.6114  1.7306  1.9726
  129SOL     OW  385   1.721   1.508   1.188 -0.1692  0.4902  0.1561
  129SOL    HW1  386   1.636   1.533   1.139 -0.7602 -2.2049  0.8675
  129SOL    HW2  387   1.710   1.545   1.282  2.4190  0.3671 -0.1653
  130SOL     OW  388   2.362   1.595   1.592 -0.1136 -0.2216 -0.0535
  130SOL    HW1  389   2.321   1.689   1.580 -1.7271 -1.2709 -1.3594
  130SOL    HW2  390   2.440   1.597   1.656  0.5416  0.2507 -0.5509
  131SOL     OW  391   0.034   2.780   2.881 -0.2499  0.4388  0.3424
  131SOL    HW1  392   3.028   2.798   2.890 -0.8450 -1.2300  0.0793
  131SOL    HW2  393   0.067   2.754   2.788  0.5706  0.8522 -0.8162
  132SOL     OW  394   2.883   1.806   0.682  0.0703  0.2402 -0.5738
  132SOL    HW1  395   2.921   1.898   0.706 -1.0112  0.5061  1.4991
  132SOL    HW2  396   2.808   1.794   0.749  2.3661  3.1975 -0.1703
  133SOL     OW  397   0.365   3.035   1.937  0.6425 -0.4539  0.0114
  133SOL    HW1  398   0.343   2.955   1.990 -0.8296  1.9817  1.1641
  133SOL    HW2  399   0.392   0.010   2.003  0.1830 -2.6202  0.5508
  134SOL     OW  400   0.188   1.762   2.997 -0.1399  0.2187  0.5877
  134SOL    HW1  401   0.123   1.739   3.071 -0.6601  3.1257 -0.3518
  134SOL    HW2  402   0.156   1.844   2.943  1.2737 -0.4180 -1.8252
  135SOL     OW  403   1.484   0.751   2.009 -0.1663 -0.1312  0.2030
  135SOL    HW1  404   1.392   0.796   1.990  0.4900  1.2131  0.5117
  135SOL    HW2  405   1.568   0.811   2.008  1.1994  1.1019  2.4304
  136SOL     OW  406   2.817   1.444   0.406  0.1850  0.7350  0.1765
  136SOL    HW1  407   2.891   1.492   0.454 -0.3238  1.3404 -1.6208
  136SOL    HW2  408   2.805   1.476   0.306 -0.1629  0.5249 -3.3129
  137SOL     OW  409   0.004   1.948   1.046 -0.3596  0.6242 -0.7978
  137SOL    HW1  410   0.071   1.868   1.048  0.6659 -1.7962 -1.9015
  137SOL    HW2  411   0.056   2.035   1.026  2.9366  1.7349 -2.1116
  138SOL     OW  412   2.406   0.592   1.169  0.3006 -0.3624  0.1469
  138SOL    HW1  413   2.490   0.549   1.207 -0.0496  0.4925  1.4739
  138SOL    HW2  414   2.339   0.520   1.142 -1.0847 -0.8979  0.2287
  139SOL     OW  415   1.270   2.607   2.976  0.4328 -0.4241  0.4305
  139SOL    HW1  416   1.336   2.683   2.958  2.7076  0.8537  0.2965
  139SOL    HW2  417   1.182   2.644   3.010  1.1673  0.5490  0.3502
  140SOL     OW  418   1.307   1.715   1.125 -0.5204  0.1223 -0.3224
  140SOL    HW1  419   1.234   1.644   1.099 -0.4949  0.2792 -0.4956
  140SOL    HW2  420   1.292   1.796   1.062 -0.6403  1.5646 -1.1415
  141SOL     OW  421   1.363   2.179   0.343  0.1369 -0.2159  0.3606
  141SOL    HW1  422   1.279   2.177   0.290  2.8258  1.2418 -0.3119
  141SOL    HW2  423   1.424   2.108   0.312  1.1946  0.3242 -0.9941
  142SOL     OW  424   1.037   0.406   0.742  0.0318  0.1056 -0.4847
  142SOL    HW1  425   1.124   0.450   0.725  1.5452  0.9788 -0.2388
  142SOL    HW2  426   1.021   0.325   0.683 -1.0167 -2.3693 -1.4534
  143SOL     OW  427   0.902   1.533   3.010 -0.0059 -0.3135  0.4126
  143SOL    HW1  428   0.971   1.553   2.938 -2.0910  0.0376  0.9615
  143SOL    HW2  429   0.882   1.430   3.016 -1.0466 -0.3385  1.8180
  144SOL     OW  430   1.786   2.560   0.762  0.2554  0.0058  0.4939
  144SOL    HW1  431   1.706   2.549   0.698 -0.1425 -1.1958  1.3177
  144SOL    HW2  432   1.861   2.493   0.752  0.3922  0.9350  0.5342
  145SOL     OW  433   2.093   0.611   2.674 -0.6158  0.6143 -0.0796
  145SOL    HW1  434   2.083   0.665   2.586 -3.3859  0.0609 -0.7989
  145SOL    HW2  435   2.184   0.559   2.673  0.3442 -3.0776  1.4481
  146SOL     OW  436   0.239   2.896   0.374 -0.4548  0.1605  0.2163
  146SOL    HW1  437   0.187   2.912   0.462  0.2597  1.5999  1.2598
  146SOL    HW2  438   0.257   2.985   0.328  0.9108  1.0936  1.6588
  147SOL     OW  439   1.847   0.343   1.896 -0.0504  0.1036  0.3887
  147SOL    HW1  440   1.828   0.320   1.992  0.7803  1.2550  1.5712
  147SOL    HW2  441   1.912   0.421   1.885 -1.9007 -0.1990  1.9799
  148SOL     OW  442   1.062   0.093   1.987  0.6043 -0.2725 -0.3735
  148SOL    HW1  443   1.052   0.192   1.984 -0.7346 -1.2187 -0.0376
  148SOL    HW2  444   1.155   0.059   1.960  1.2987 -1.3425 -1.2515
  149SOL     OW  445   1.393   0.485   1.985  0.0497  0.3643  0.2563
  149SOL    HW1  446   1.381   0.584   1.973 -0.1974 -0.0401  2.2986
  149SOL    HW2  447   1.438   0.462   2.075 -0.8249  1.2365  2.1083
  150SOL     OW  448   2.999   0.365   3.024  0.2598  0.1667 -0.4324
  150SOL    HW1  449   2.929   0.328   3.087  2.2412  0.9378 -1.4464
  150SOL    HW2  450   2.952   0.401   2.943 -0.2431 -0.7649  0.7671
  151SOL     OW  451   0.574   1.424   0.046  0.0723 -0.4324 -0.0648
  151SOL    HW1  452   0.595   1.376   3.054 -0.3776  0.0834  1.1399
  151SOL    HW2  453   0.662   1.437   0.096  2.1663  1.0453  3.7400
  152SOL     OW  454   2.828   0.350   0.430 -0.1698  0.3045  0.0429
  152SOL    HW1  455   2.786   0.330   0.340 -1.7763 -0.9745  0.9902
  152SOL    HW2  456   2.883   0.435   0.425 -1.8778  0.3281 -0.9437
  153SOL     OW  457   2.623   0.437   1.239  0.1766  0.1419  0.0821
  153SOL    HW1  458   2.602   0.352   1.291  0.1083  0.9394 -0.3443
  153SOL    HW2  459   2.657   0.410   1.147  2.2935  0.9783 -0.0436
  154SOL     OW  460   1.657   3.004   2.130 -0.1293  0.5365  0.1458
  154SOL    HW1  461   1.651   3.067   2.050  1.3903 -2.7903  0.0608
  154SOL    HW2  462   1.563   2.977   2.158  2.8529 -4.1991 -1.4153
  155SOL     OW  463   0.173   1.975   0.668  0.2435 -0.1600 -0.3398
  155SOL    HW1  464   0.225   2.039   0.730  1.8805  1.3992 -1.3866
  155SOL    HW2  465   0.191   1.880   0.712  0.5910 -2.6454 -1.9425
  156SOL     OW  466   2.247   1.953   3.095  0.0507  0.2825 -0.4615
  156SOL    HW1  467   2.181   1.875   3.080 -2.7355 -1.8371 -2.0329
  156SOL    HW2  468   2.202   2.039   3.067  0.2779  1.5475 -0.9230
  157SOL     OW  469   0.921   0.221   0.542 -0.1995  0.2455  0.3983
  157SOL    HW1  470   0.890   0.306   0.502 -2.4734 -0.2973  1.4640
  157SOL    HW2  471   1.001   0.179   0.487  0.3713 -1.9020 -2.5262
  158SOL     OW  472   2.120   0.548   2.264  0.7647 -0.3731  0.2535
  158SOL    HW1  473   2.141   0.452   2.281 -0.1720 -0.7457  2.6605
  158SOL    HW2  474   2.183   0.582   2.195 -1.3965 -0.1731  2.6471
  159SOL     OW  475   0.075   0.333   0.326 -0.1395 -0.3511  0.6536
  159SOL    HW1  476   0.024   0.375   0.401 -0.0029 -0.6004 -0.6528
  159SOL    HW2  477   0.165   0.312   0.360  0.5145 -0.8943  0.1738
  160SOL     OW  478   1.592   2.000   2.153 -0.3614 -0.9193 -0.0207
  160SOL    HW1  479   1.503   2.041   2.184 -0.8234  1.3926  0.6596
  160SOL    HW2  480   1.573   1.912   2.106  2.0980  0.2090  3.6918
  161SOL     OW  481   2.650   0.760   2.700  0.2357 -0.1632  0.6738
  161SOL    HW1  482   2.723   0.809   2.747 -0.3110  0.9015  0.0180
  161SOL    HW2  483   2.695   0.700   2.631  1.1571  0.5714  1.4946
  162SOL     OW  484   0.856   2.548   1.644  0.4459 -0.2341  0.1068
  162SOL    HW1  485   0.911   2.610   1.584 -0.2568  0.2315 -0.3287
  162SOL    HW2  486   0.760   2.575   1.637  0.3806 -0.6704  0.2643
  163SOL     OW  487   2.632   0.274   2.516  0.4115  0.4666  0.0827
  163SOL    HW1  488   2.666   0.266   2.417  0.1776  3.1246 -0.8052
  163SOL    HW2  489   2.532   0.274   2.523  0.5862 -0.5841  1.2781
  164SOL     OW  490   2.099   1.547   0.199 -0.0272  0.1613 -0.1469
  164SOL    HW1  491   2.051   1.550   0.112 -0.1174 -2.3364  1.0705
  164SOL    HW2  492   2.095   1.640   0.240 -0.7975 -2.3145  0.4782
  165SOL     OW  493   2.871   0.315   1.640  0.5687 -0.2432 -0.7634
  165SOL    HW1  494   2.874   0.416   1.651 -1.9960 -0.6236  1.5796
  165SOL    HW2  495   2.962   0.280   1.611 -1.1030 -0.7601  0.6934
  166SOL     OW  496   2.304   0.735   3.050 -0.1186 -0.0977 -0.3016
  166SOL    HW1  497   2.372   0.693   2.984  1.2011  2.9256 -1.7872
  166SOL    HW2  498   2.274   0.823   3.010  0.5916 -3.5692 -0.8311
  167SOL     OW  499   2.815   0.677   0.001 -0.3376 -0.5485 -0.0104
  167SOL    HW1  500   2.891   0.732   0.049  0.7119  2.9033  2.2219
  167SOL    HW2  501   2.849   0.619   3.019  0.7898 -0.4096 -0.1032
  168SOL     OW  502   1.844   2.892   2.815  0.4623 -0.2319 -0.2147
  168SOL    HW1  503   1.929   2.844   2.834  0.0368  1.3464  0.8048
  168SOL    HW2  504   1.841   2.987   2.862  0.3247 -1.5531  0.3357
  169SOL     OW  505   0.034   1.496   0.821 -0.0243 -0.4288 -0.1619
  169SOL    HW1  506   3.034   1.473   0.846  1.2619  0.5206  1.2678
  169SOL    HW2  507   0.096   1.417   0.826  0.7961 -1.5818  1.4747
  170SOL     OW  508   2.970   0.513   1.276  0.2202  0.0485 -0.4034
  170SOL    HW1  509   2.878   0.470   1.305 -1.3072 -2.2927 -0.5156
  170SOL    HW2  510   3.046   0.478   1.334  1.3362  1.9930  0.2972
  171SOL     OW  511   1.968   2.202   1.867 -0.0502  0.3789  0.9418
  171SOL    HW1  512   1.879   2.184   1.916  0.9459  1.4989 -1.8476
  171SOL    HW2  513   2.050   2.154   1.913  0.9269  0.3858 -0.4510
  172SOL     OW  514   0.278   2.335   1.437 -0.8395 -0.4162 -0.1646
  172SOL    HW1  515   0.245   2.240   1.440 -0.0346  1.6004 -0.5996
  172SOL    HW2  516   0.362   2.354   1.497  2.2541  0.4240  1.9677
  173SOL     OW  517   1.506   1.141   0.171 -0.6823 -0.2837 -0.4074
  173SOL    HW1  518   1.555   1.074   0.242  2.7990 -4.7468  5.6880
  173SOL    HW2  519   1.473   1.091   0.089 -0.9869  0.7147  0.6580
  174SOL     OW  520   1.351   3.058   2.472  0.1849  0.1261 -0.2070
  174SOL    HW1  521   1.424   3.089   2.533 -0.5421  0.7515 -0.5417
  174SOL    HW2  522   1.267   3.023   2.523  0.1136  0.3724 -1.6652
  175SOL     OW  523   1.869   1.777   0.879 -0.1724  0.6215  0.5295
  175SOL    HW1  524   1.970   1.757   0.894  1.4567 -0.9084  2.7835
  175SOL    HW2  525   1.819   1.690   0.880  3.7209  0.9758 -0.9867
  176SOL     OW  526   1.557   0.109   0.096 -0.1471  0.2341 -0.1087
  176SOL    HW1  527   1.612   0.118   0.184 -2.0441 -0.0796  0.0169
  176SOL    HW2  528   1.529   0.203   0.061  0.8892 -0.2795 -2.6657
  177SOL     OW  529   0.615   1.256   2.924  0.5494  0.3922 -0.3640
  177SOL    HW1  530   0.573   1.298   2.843 -0.5328  0.2826  1.4700
  177SOL    HW2  531   0.548   1.193   2.967 -1.2874 -0.6366  2.3023
  178SOL     OW  532   2.642   2.326   2.614 -0.5681  0.2725  0.2149
  178SOL    HW1  533   2.700   2.277   2.543 -0.9439 -0.0096 -0.0221
  178SOL    HW2  534   2.558   2.361   2.568  1.1390 -1.3755 -2.9263
  179SOL     OW  535   2.574   0.181   2.868 -0.3879  0.2003 -0.1705
  179SOL    HW1  536   2.647   0.170   2.803 -0.7814  0.5717 -0.0851
  179SOL    HW2  537   2.546   0.091   2.913  0.5977 -1.3980  1.9435
  180SOL     OW  538   1.749   1.061   0.582  0.5481 -0.1203  0.2394
  180SOL    HW1  539   1.672   1.100   0.635  0.1869  0.2372 -2.5885
  180SOL    HW2  540   1.816   1.004   0.635  3.0425 -0.8097 -0.5336
  181SOL     OW  541   2.047   1.418   2.509 -0.5879  0.7929  0.6652
  181SOL    HW1  542   2.084   1.504   2.475 -2.3212 -0.4525 -0.7906
  181SOL    HW2  543   1.977   1.433   2.577  1.4958 -0.4514 -1.5123
  182SOL     OW  544   2.564   2.636   2.517 -0.1288 -0.0851  0.2530
  182SOL    HW1  545   2.513   2.553   2.492  2.5803  1.7394  3.7338
  182SOL    HW2  546   2.651   2.614   2.572  2.1785 -1.7011 -0.5876
  183SOL     OW  547   1.849   0.559   2.198  0.6822  0.5505 -0.7587
  183SOL    HW1  548   1.948   0.556   2.222  0.8442 -0.1583 -0.0949
  183SOL    HW2  549   1.807   0.470   2.165 -0.5199  0.0828  0.2810
  184SOL     OW  550   0.182   1.340   1.582 -0.0025 -0.0139 -0.5106
  184SOL    HW1  551   0.169   1.310   1.488  0.4866  0.6651 -0.3942
  184SOL    HW2  552   0.094   1.334   1.639 -0.8903 -2.8520  2.1313
  185SOL     OW  553   1.736   0.427   0.836 -0.2344 -0.3007  0.7322
  185SOL    HW1  554   1.715   0.368   0.918  3.5115 -1.7756  0.3404
  185SOL    HW2  555   1.743   0.376   0.742  2.0312 -1.9320 -0.3058
  186SOL     OW  556   0.253   2.319   2.688 -0.3647  0.5136  0.0642
  186SOL    HW1  557   0.159   2.331   2.729 -2.0731 -0.0949  2.9622
  186SOL    HW2  558   0.248   2.242   2.623  0.1960  1.1260 -2.5624
  187SOL     OW  559   2.842   1.170   0.435  0.0996  0.2962 -0.0017
  187SOL    HW1  560   2.806   1.263   0.437  1.7146 -0.4849 -1.2969
  187SOL    HW2  561   2.777   1.103   0.404  1.9680 -1.2485 -1.2403
  188SOL     OW  562   2.550   1.329   1.308 -0.0841 -0.2793 -0.0863
  188SOL    HW1  563   2.583   1.287   1.395 -1.9149  1.3151  0.1845
  188SOL    HW2  564   2.630   1.380   1.273 -1.4438 -0.3463  2.1102
  189SOL     OW  565   2.726   0.515   2.590 -0.5675  0.2794 -0.2667
  189SOL    HW1  566   2.667   0.435   2.572  1.2868 -2.5360  2.7946
  189SOL    HW2  567   2.793   0.512   2.515 -0.2303 -1.5782 -2.1792
  190SOL     OW  568   1.223   1.089   1.641  0.2184  0.0103 -0.3279
  190SOL    HW1  569   1.285   1.160   1.671 -1.5394 -1.6994 -1.4476
  190SOL    HW2  570   1.125   1.112   1.656  1.4705  0.0020  1.5686
  191SOL     OW  571   0.632   0.475   2.088 -0.0209  0.1426  0.4720
  191SOL    HW1  572   0.544   0.454   2.045  1.5532  0.5574 -1.1732
  191SOL    HW2  573   0.690   0.397   2.064 -0.0821  0.8744 -2.6451
  192SOL     OW  574   1.737   1.875   1.279  0.3267  0.0774  0.0542
  192SOL    HW1  575   1.668   1.898   1.207 -0.0238  0.3459  4.2343
  192SOL    HW2  576   1.693   1.811   1.343  2.0234 -1.8694 -1.2099
  193SOL     OW  577   1.589   0.812   1.196  0.0106  0.5448  0.3752
  193SOL    HW1  578   1.493   0.791   1.160 -0.3401  0.6859 -0.1481
  193SOL    HW2  579   1.649   0.729   1.186  3.2503  0.6248 -0.5200
  194SOL     OW  580   0.573   2.194   1.252 -0.5813 -0.2595 -0.3571
  194SOL    HW1  581   0.582   2.291   1.283 -2.4597 -1.7875  2.0655
  194SOL    HW2  582   0.569   2.186   1.151  0.0210 -2.2813  3.7352
  195SOL     OW  583   1.687   0.149   0.331 -0.2743  0.1222 -0.0954
  195SOL    HW1  584   1.715   0.122   0.423 -2.1259  1.7195 -2.2914
  195SOL    HW2  585   1.741   0.231   0.306 -1.7985 -0.4528  1.7254
  196SOL     OW  586   0.354   1.274   1.262  0.2426  0.0419  0.0178
  196SOL    HW1  587   0.355   1.367   1.300 -1.1986 -2.4942  1.6228
  196SOL    HW2  588   0.385   1.206   1.329  0.4104  0.2728 -1.2539
  197SOL     OW  589   0.996   0.152   1.691 -0.0664  0.0031  0.3033
  197SOL    HW1  590   1.041   0.088   1.620 -0.1678  1.8926 -1.9541
  197SOL    HW2  591   1.032   0.142   1.784  0.1324  0.1991  0.5177
  198SOL     OW  592   0.615   1.234   1.059  0.5648 -0.0339 -0.4447
  198SOL    HW1  593   0.551   1.204   1.132 -3.5305 -0.6786 -1.4970
  198SOL    HW2  594   0.572   1.221   0.969  1.6895  3.5772  0.9885
  199SOL     OW  595   0.014   2.420   1.638  0.3413  0.1126  0.0701
  199SOL    HW1  596   0.070   2.503   1.668 -1.5750 -0.0708 -1.0472
  199SOL    HW2  597   0.015   2.416   1.534  1.2790 -0.2338 -3.3307
  200SOL     OW  598   1.753   1.544   1.988  0.3474  0.2772  0.2764
  200SOL    HW1  599   1.856   1.553   1.985  0.7852 -0.2532  2.9051
  200SOL    HW2  600   1.735   1.482   2.063 -0.5742  1.1283 -4.8324
  201SOL     OW  601   0.560   1.746   2.107  0.1820  0.7214  0.1177
  201SOL    HW1  602   0.625   1.804   2.155 -0.3071 -0.2510 -2.0181
  201SOL    HW2  603   0.470   1.793   2.110  0.4987 -0.7587  2.2845
  202SOL     OW  604   1.598   0.560   0.072 -0.2425 -0.0076  0.0740
  202SOL    HW1  605   1.633   0.553   3.073  2.9480  2.3127  0.5041
  202SOL    HW2  606   1.627   0.648   0.118 -0.3840 -0.6113  1.1183
  203SOL     OW  607   1.282   2.667   1.735  0.1419 -0.0401  0.0042
  203SOL    HW1  608   1.332   2.742   1.786 -0.0417  0.0002 -1.2233
  203SOL    HW2  609   1.189   2.662   1.779 -2.5092  2.4767  1.5021
  204SOL     OW  610   0.486   1.904   1.594  0.2285 -0.2255  0.3817
  204SOL    HW1  611   0.567   1.936   1.540 -0.5258 -1.3581  2.0515
  204SOL    HW2  612   0.429   1.836   1.548  0.3410  0.1908 -0.5939
  205SOL     OW  613   1.539   1.771   2.013  0.2365 -0.3107 -0.2743
  205SOL    HW1  614   1.604   1.702   1.976  1.3930 -0.1585 -1.0854
  205SOL    HW2  615   1.444   1.729   2.026  1.4139 -1.6486 -3.4250
  206SOL     OW  616   0.016   1.434   2.085  0.3713  0.3743 -1.3217
  206SOL    HW1  617   0.089   1.370   2.050 -0.3232 -0.3747 -0.7316
  206SOL    HW2  618   0.002   1.431   2.188  3.2783  0.7225 -1.0184
  207SOL     OW  619   0.722   2.905   2.023 -0.4640 -0.0577  0.5640
  207SOL    HW1  620   0.682   2.886   2.119 -1.2235  1.8322  0.1230
  207SOL    HW2  621   0.715   3.002   2.000 -0.5924 -2.4184  0.2997
  208SOL     OW  622   0.582   2.613   1.945  0.2760  0.1462 -0.4845
  208SOL    HW1  623   0.636   2.701   1.925  1.4504 -0.6694 -1.8811
  208SOL    HW2  624   0.647   2.535   1.946 -2.3927  1.7509  1.5183
  209SOL     OW  625   1.376   2.981   0.423  0.3563  0.2746  0.2241
  209SOL    HW1  626   1.458   2.937   0.465 -1.2430  1.0725  1.1496
  209SOL    HW2  627   1.347   3.046   0.492 -1.3246  1.2250  0.1410
  210SOL     OW  628   2.583   0.601   0.698 -0.1705 -0.2243  0.1743
  210SOL    HW1  629   2.565   0.508   0.655 -0.0166  2.2329  1.8652
  210SOL    HW2  630   2.663   0.639   0.651 -1.4529  1.9548  1.8763
  211SOL     OW  631   0.712   0.424   1.619 -0.2843 -0.1014  0.2094
  211SOL    HW1  632   0.649   0.498   1.633  1.2230 -1.4197  2.0744
  211SOL    HW2  633   0.804   0.460   1.641  0.1479 -2.7658 -1.2142
  212SOL     OW  634   1.413   2.165   1.307 -0.5699  0.1828  0.4004
  212SOL    HW1  635   1.404   2.096   1.376 -0.3518  3.3238 -3.6597
  212SOL    HW2  636   1.432   2.259   1.346  0.5955  0.0345 -1.4138
  213SOL     OW  637   2.726   0.404   1.871  0.2100 -0.3055 -0.5986
  213SOL    HW1  638   2.740   0.342   1.789  2.2339 -0.1842 -1.9981
  213SOL    HW2  639   2.819   0.418   1.915  1.2795 -1.7164  2.0872
  214SOL     OW  640   0.606   2.460   2.205  0.6480 -0.3577  0.0067
  214SOL    HW1  641   0.655   2.421   2.125 -1.7186 -1.6508  3.2064
  214SOL    HW2  642   0.520   2.514   2.185 -0.7802  2.4202  1.0312
  215SOL     OW  643   2.774   1.630   1.611 -0.1130 -0.3253 -0.1469
  215SOL    HW1  644   2.864   1.625   1.647 -3.9239  0.0430  0.1460
  215SOL    HW2  645   2.775   1.651   1.515 -0.6764 -3.3305  1.6777
  216SOL     OW  646   0.744   0.866   2.045 -0.6099 -0.1469  0.2843
  216SOL    HW1  647   0.657   0.828   2.025  3.2716  1.0553  1.1977
  216SOL    HW2  648   0.737   0.939   2.115 -1.0167 -0.0606 -1.5366
  217SOL     OW  649   2.769   0.332   0.985 -0.0715 -0.2271  0.2919
  217SOL    HW1  650   2.820   0.370   0.907  0.5235  2.5747 -0.3016
  217SOL    HW2  651   2.833   0.287   1.050 -1.0886 -1.5131 -0.6383
  218SOL     OW  652   1.293   1.949   0.960 -0.3353  0.0896 -0.2953
  218SOL    HW1  653   1.333   1.953   0.865  0.9096 -1.6739 -2.1696
  218SOL    HW2  654   1.234   2.031   0.976  1.5207  0.2738 -1.2877
  219SOL     OW  655   2.118   2.740   0.537 -0.3497 -0.5829  0.2552
  219SOL    HW1  656   2.075   2.719   0.625 -0.8869  0.9491  0.6836
  219SOL    HW2  657   2.045   2.741   0.461 -0.8775 -2.7595  0.1153
  220SOL     OW  658   1.830   2.409   0.130  0.2191 -0.0561 -0.0264
  220SOL    HW1  659   1.744   2.373   0.086 -1.9278  1.0388  0.2809
  220SOL    HW2  660   1.898   2.331   0.142 -2.3486 -1.0081 -2.4389
  221SOL     OW  661   3.028   1.799   0.325 -0.1416  0.2976 -0.2402
  221SOL    HW1  662   2.942   1.854   0.314  0.5440  0.8529 -1.1559
  221SOL    HW2  663   3.014   1.725   0.394 -0.7715  0.8186 -0.2774
  222SOL     OW  664   0.556   2.377   0.805  0.3228  0.2091 -0.0204
  222SOL    HW1  665   0.527   2.370   0.705 -0.4602  2.2317 -1.2232
  222SOL    HW2  666   0.655   2.390   0.814 -3.0585  0.2254 -1.9222
  223SOL     OW  667   1.131   0.113   0.357 -0.3645 -0.3193  0.4263
  223SOL    HW1  668   1.191   0.076   0.432 -0.6112 -0.9067 -0.5930
  223SOL    HW2  669   1.084   0.044   0.296 -0.1626  0.6350 -1.9215
  224SOL     OW  670   2.831   1.151   1.039 -0.2171 -0.2017  0.1264
  224SOL    HW1  671   2.769   1.092   0.984  0.2024 -0.6939  2.9889
  224SOL    HW2  672   2.904   1.094   1.077 -0.3005 -0.7069 -1.6264
  225SOL     OW  673   0.232   1.785   1.125  0.3433 -0.3393  0.0226
  225SOL    HW1  674   0.253   1.880   1.159  0.2803  1.5082  0.4263
  225SOL    HW2  675   0.234   1.719   1.203  0.4986 -1.1389 -0.3655
  226SOL     OW  676   0.742   3.001   0.831  0.0870 -0.4952  0.0679
  226SOL    HW1  677   0.718   3.045   0.744  1.9377  1.3097  1.6113
  226SOL    HW2  678   0.798   3.067   0.887  0.1537  0.8214  0.0319
  227SOL     OW  679   1.078   1.464   1.710  0.5492  0.3424 -0.1253
  227SOL    HW1  680   1.096   1.554   1.755  1.3685 -0.0580  1.1835
  227SOL    HW2  681   1.119   1.453   1.618  0.4083  0.9708  3.0776
  228SOL     OW  682   0.797   0.267   2.113  0.3824  0.1635 -0.7153
  228SOL    HW1  683   0.795   0.188   2.051 -0.1132 -0.6709  0.3137
  228SOL    HW2  684   0.891   0.303   2.105 -2.4794 -4.1102 -0.1561
  229SOL     OW  685   2.959   0.818   2.566  0.2913 -0.0120 -0.5317
  229SOL    HW1  686   2.940   0.827   2.666  0.4344 -0.4791  1.5956
  229SOL    HW2  687   3.030   0.884   2.539  1.4527  0.8999 -1.8860
  230SOL     OW  688   0.265   0.713   1.047  0.1151  0.0759  0.0172
  230SOL    HW1  689   0.173   0.677   1.056  1.2885 -2.1930 -1.7453
  230SOL    HW2  690   0.271   0.810   1.084  2.1266 -0.0992  2.4290
  231SOL     OW  691   1.360   0.049   1.917 -1.0596  1.3621 -0.4945
  231SOL    HW1  692   1.459   0.076   1.947  0.4130 -1.3114  0.9790
  231SOL    HW2  693   1.331   3.052   1.947 -0.2324  0.6976  1.4868
  232SOL     OW  694   0.061   2.134   0.230  0.0631 -0.0160  0.1470
  232SOL    HW1  695   0.095   2.048   0.273  2.6832 -2.1214 -1.8718
  232SOL    HW2  696   3.054   2.125   0.213 -2.3914  1.1231  0.9803
  233SOL     OW  697   1.311   2.515   2.667  0.1291 -0.1864 -0.4217
  233SOL    HW1  698   1.291   2.473   2.575  2.8467  0.3517  0.2651
  233SOL    HW2  699   1.252   2.594   2.683  0.8503  1.2143 -2.3603
  234SOL     OW  700   0.560   1.009   1.726  0.4497  0.2842  0.2244
  234SOL    HW1  701   0.640   0.974   1.678 -3.9760  0.3549  1.6308
  234SOL    HW2  702   0.586   1.093   1.779 -0.1454 -0.7274 -0.9877
  235SOL     OW  703   0.003   2.405   2.434  0.3122 -0.1100  0.2589
  235SOL    HW1  704   0.094   2.375   2.405  0.7180  0.7688 -2.1167
  235SOL    HW2  705   3.090   2.398   2.536  0.8907  0.2066  0.9594
  236SOL     OW  706   1.691   1.882   2.667  0.1957 -0.5714 -0.1311
  236SOL    HW1  707   1.700   1.814   2.591  0.4446 -3.4327 -0.3755
  236SOL    HW2  708   1.663   1.978   2.644  1.8179 -0.1453  0.5781
  237SOL     OW  709   1.445   0.720   0.728 -0.4208  0.1518 -0.0199
  237SOL    HW1  710   1.535   0.697   0.684 -0.0540  0.2551 -0.1946
  237SOL    HW2  711   1.465   0.791   0.801  0.9914  0.9674 -0.6041
  238SOL     OW  712   1.010   2.785   2.044 -0.2996  0.3093 -0.4659
  238SOL    HW1  713   0.908   2.800   2.038 -3.1814  0.3186 -1.3015
  238SOL    HW2  714   1.044   2.703   1.993  0.0722 -1.5020  1.3780
  239SOL     OW  715   1.056   2.610   1.856 -0.0418 -0.2067  0.7748
  239SOL    HW1  716   0.959   2.619   1.816 -1.2674  2.3516 -0.2017
  239SOL    HW2  717   1.097   2.515   1.854 -4.1510  0.4528  0.2766
  240SOL     OW  718   2.006   0.041   0.843  0.4636  0.0318  0.3388
  240SOL    HW1  719   1.980   0.065   0.751 -0.7050 -2.3889  0.2715
  240SOL    HW2  720   2.093   3.086   0.850  1.0516 -0.5045 -0.6670
  241SOL     OW  721   1.207   1.314   2.487 -0.6773 -0.1389  0.2473
  241SOL    HW1  722   1.114   1.279   2.459  0.4946  2.0802  1.4858
  241SOL    HW2  723   1.212   1.412   2.490  0.0834 -0.1973  1.3878
  242SOL     OW  724   2.476   0.624   2.888  0.4177 -0.9171 -0.2395
  242SOL    HW1  725   2.531   0.552   2.934  1.5623 -0.7522  0.1728
  242SOL    HW2  726   2.529   0.676   2.819 -1.8714  1.5319 -1.4660
  243SOL     OW  727   0.896   0.656   1.204  0.1427 -0.5609 -0.1731
  243SOL    HW1  728   0.886   0.567   1.258 -1.7699 -0.2152  0.2942
  243SOL    HW2  729   0.989   0.652   1.167  0.4168 -2.2428  0.1360
  244SOL     OW  730   1.429   2.934   2.844  0.0719  0.1427 -0.5484
  244SOL    HW1  731   1.350   2.983   2.887 -0.4497 -2.2281 -1.1834
  244SOL    HW2  732   1.515   2.942   2.898  2.5830  0.5402  2.9015
  245SOL     OW  733   1.917   2.636   2.976  0.2922  0.0236 -0.0659
  245SOL    HW1  734   1.874   2.604   3.061 -1.9009 -1.0103 -1.1151
  245SOL    HW2  735   2.002   2.694   2.992 -2.0498  2.6790  0.2965
  246SOL     OW  736   0.690   0.767   1.360  0.0566  0.3670 -0.0711
  246SOL    HW1  737   0.617   0.694   1.373 -3.1628 -1.0264 -0.3267
  246SOL    HW2  738   0.780   0.726   1.341  0.4784  0.1513 -1.3219
  247SOL     OW  739   0.409   0.330   1.945  0.2130  0.2367  0.2606
  247SOL    HW1  740   0.313   0.362   1.959  0.4582  1.2285  0.0386
  247SOL    HW2  741   0.422   0.318   1.846 -1.3912  0.5393 -0.8724
  248SOL     OW  742   2.925   1.268   1.946  0.0542  0.4752  0.6687
  248SOL    HW1  743   2.839   1.321   1.943 -1.2272  0.5123 -0.7206
  248SOL    HW2  744   2.991   1.305   2.013  1.7959 -0.3267 -2.5889
  249SOL     OW  745   0.118   0.433   0.074 -0.3912  0.4021  0.2560
  249SOL    HW1  746   0.109   0.394   0.170  0.8734 -0.2517  1.9701
  249SOL    HW2  747   0.031   0.415   0.019 -1.6102  0.5733 -0.0677
  250SOL     OW  748   2.811   0.209   0.075  0.0441 -0.0953 -0.0276
  250SOL    HW1  749   2.770   0.288   0.115  1.5137  1.0553 -2.4414
  250SOL    HW2  750   2.757   0.126   0.088  2.2018  1.9794  0.8322
  251SOL     OW  751   0.866   1.853   1.659 -0.4208  0.1038  0.0006
  251SOL    HW1  752   0.810   1.937   1.646  1.2897  1.1060 -1.8721
  251SOL    HW2  753   0.834   1.804   1.744 -0.1115  0.7190 -0.6459
  252SOL     OW  754   1.954   2.148   1.093  0.0044  0.5168  0.1456
  252SOL    HW1  755   1.875   2.112   1.036  0.1036 -1.9749  0.5884
  252SOL    HW2  756   1.948   2.250   1.100 -2.9036  0.1139  0.3162
  253SOL     OW  757   1.830   1.918   2.259 -0.5555 -0.4590 -0.3640
  253SOL    HW1  758   1.884   1.880   2.185  0.2336 -1.9901  1.9598
  253SOL    HW2  759   1.749   1.971   2.234 -0.0820 -1.7371  1.6405
  254SOL     OW  760   0.711   2.374   1.966  0.3261 -0.2255 -0.0300
  254SOL    HW1  761   0.655   2.343   1.887 -1.7612 -1.4862 -0.4079
  254SOL    HW2  762   0.790   2.317   1.983  1.1376 -2.2327 -0.4898
  255SOL     OW  763   1.115   0.197   1.350 -0.2662 -0.1122 -0.0614
  255SOL    HW1  764   1.181   0.152   1.292  0.7358 -0.7153  3.4800
  255SOL    HW2  765   1.068   0.129   1.409  1.2385 -0.1609  0.3738
  256SOL     OW  766   2.228   2.151   1.484 -0.4853 -0.3945 -0.6706
  256SOL    HW1  767   2.170   2.100   1.419 -1.1559  0.3720  0.5390
  256SOL    HW2  768   2.327   2.122   1.491  0.5152  0.1341  2.1884
  257SOL     OW  769   0.694   2.130   2.768  0.4273 -0.4201  0.2019
  257SOL    HW1  770   0.624   2.186   2.822  0.4521  2.0679  0.0613
  257SOL    HW2  771   0.789   2.150   2.801  1.3199  0.2332 -0.1493
  258SOL     OW  772   0.419   0.931   2.319  0.2853 -0.1691  0.3311
  258SOL    HW1  773   0.403   0.888   2.411 -0.7666 -2.2787  0.5682
  258SOL    HW2  774   0.420   0.860   2.244  0.8563 -2.4405 -1.6451
  259SOL     OW  775   0.595   1.308   2.075 -0.0697  0.1355  0.0366
  259SOL    HW1  776   0.645   1.306   1.986  2.3171  0.5403  1.5592
  259SOL    HW2  777   0.660   1.308   2.156  1.2063 -0.6763  1.6713
  260SOL     OW  778   1.869   1.006   1.582 -0.2148  0.1750  0.1527
  260SOL    HW1  779   1.837   1.063   1.502 -2.0417 -4.2407 -0.0285
  260SOL    HW2  780   1.831   1.050   1.666 -1.5360 -0.7758  2.0745
  261SOL     OW  781   1.035   3.071   0.747  0.8996 -0.0194 -0.1279
  261SOL    HW1  782   0.945   0.018   0.723  2.2967 -2.0126 -0.0503
  261SOL    HW2  783   1.051   2.983   0.698 -0.6812  0.3677  0.0138
  262SOL     OW  784   2.131   2.107   2.583  0.0213 -0.2014  0.3394
  262SOL    HW1  785   2.051   2.101   2.521 -0.2160 -2.4514 -1.0147
  262SOL    HW2  786   2.170   2.201   2.581 -0.7598  2.3913 -2.0276
  263SOL     OW  787   0.207   1.535   2.857 -0.0440  0.5551 -0.0505
  263SOL    HW1  788   0.186   1.625   2.893  0.1607 -4.3171 -2.1378
  263SOL    HW2  789   0.245   1.472   2.927  1.9183  0.1187  0.2876
  264SOL     OW  790   0.333   2.003   1.269  0.2531  0.7334 -0.5515
  264SOL    HW1  791   0.426   2.043   1.277  1.3790  0.4072 -1.4717
  264SOL    HW2  792   0.273   2.040   1.346 -0.6013 -2.1468  1.1912
  265SOL     OW  793   0.741   0.994   0.632  0.0193 -0.2315 -0.4175
  265SOL    HW1  794   0.792   0.960   0.718 -0.6880  0.9685  1.8681
  265SOL    HW2  795   0.796   1.053   0.569  1.4668 -1.5515 -0.7608
  266SOL     OW  796   1.451   1.761   0.035 -0.4414  0.0323  0.1203
  266SOL    HW1  797   1.471   1.748   3.033 -0.5565  0.5549  0.6047
  266SOL    HW2  798   1.535   1.773   0.089 -0.6509  1.0474  0.4442
  267SOL     OW  799   0.713   0.781   2.557 -0.5727  0.7046 -0.5752
  267SOL    HW1  800   0.811   0.771   2.584  0.4809  0.0518 -0.0230
  267SOL    HW2  801   0.686   0.718   2.481 -1.0664 -1.3128  2.0636
  268SOL     OW  802   0.920   0.517   2.902  0.4461 -0.3100  0.5457
  268SOL    HW1  803   0.908   0.608   2.945  1.6566 -1.4601 -0.5136
  268SOL    HW2  804   1.005   0.476   2.935 -1.5054  0.6749  0.7863
  269SOL     OW  805   1.868   3.091   2.610 -0.1253  0.2831  0.5245
  269SOL    HW1  806   1.800   0.010   2.537  1.1728  0.1084  0.0910
  269SOL    HW2  807   1.829   3.018   2.670  2.1427 -2.5290  1.0344
  270SOL     OW  808   0.976   0.925   2.804 -0.0336 -0.2824  0.1191
  270SOL    HW1  809   1.071   0.939   2.841  1.2480  0.4726  2.5900
  270SOL    HW2  810   0.920   0.882   2.878 -2.2939 -2.5723  1.8582
  271SOL     OW  811   0.177   0.685   0.160 -0.0924  0.6394 -0.1335
  271SOL    HW1  812   0.270   0.719   0.128  0.8680  2.1190 -0.8959
  271SOL    HW2  813   0.153   0.589   0.128  2.2932  0.2277 -1.0968
  272SOL     OW  814   2.435   1.293   2.673  0.1742  0.2065  0.3441
  272SOL    HW1  815   2.421   1.292   2.773 -0.3178  0.9476 -2.1853
  272SOL    HW2  816   2.509   1.234   2.637 -1.0525 -1.0500 -3.3665
  273SOL     OW  817   0.091   0.219   2.297  0.0168 -0.6335  0.0061
  273SOL    HW1  818   0.156   0.147   2.334  0.6782 -0.5158 -0.4827
  273SOL    HW2  819   0.050   0.270   2.375 -2.4613 -0.8684 -0.5047
  274SOL     OW  820   0.119   0.300   2.014  0.1559  0.3238 -0.1557
  274SOL    HW1  821   0.129   0.216   1.962  0.1302  1.8166  0.7419
  274SOL    HW2  822   0.109   0.272   2.116  0.1333  0.3514  1.9863
  275SOL     OW  823   2.066   1.318   0.590  0.0234  0.5226  0.2179
  275SOL    HW1  824   2.051   1.219   0.617 -1.7663 -3.3457  0.9621
  275SOL    HW2  825   2.034   1.331   0.494 -1.1257  2.2395 -0.3111
  276SOL     OW  826   0.401   0.890   2.642  0.5215 -0.1923  0.3466
  276SOL    HW1  827   0.472   0.955   2.608 -0.4515  0.1592 -0.7407
  276SOL    HW2  828   0.439   0.799   2.653 -0.3219  0.9437 -0.2204
  277SOL     OW  829   1.983   2.594   2.427 -0.1049 -0.0904 -0.7409
  277SOL    HW1  830   2.011   2.640   2.343  0.1429  0.9738  0.5470
  277SOL    HW2  831   1.927   2.654   2.482  0.7889 -1.0169 -0.0267
  278SOL     OW  832   1.711   0.131   1.694 -0.2610  0.5287 -0.5650
  278SOL    HW1  833   1.675   0.208   1.636  1.6591 -3.9646 -0.1266
  278SOL    HW2  834   1.802   0.102   1.659 -2.0329 -2.1949  0.8448
  279SOL     OW  835   1.537   1.380   0.038 -0.4631 -0.5633 -0.0940
  279SOL    HW1  836   1.438   1.401   0.025  1.1023 -0.9360  1.4014
  279SOL    HW2  837   1.544   1.299   0.099 -0.2469  0.6672 -0.3849
  280SOL     OW  838   0.885   1.258   3.027 -0.1056 -0.4558 -0.6926
  280SOL    HW1  839   0.947   1.207   3.088  1.4015 -0.2001  1.4336
  280SOL    HW2  840   0.790   1.229   3.029  0.9655  0.7394 -0.5689
  281SOL     OW  841   3.046   2.932   1.478 -0.5141 -0.7356 -0.9186
  281SOL    HW1  842   0.045   2.896   1.471 -0.7411 -0.5197 -0.1211
  281SOL    HW2  843   3.025   2.970   1.573 -1.4606  1.1555  0.1563
  282SOL     OW  844   3.079   2.410   0.778  0.5190  0.2729 -0.0767
  282SOL    HW1  845   0.079   2.442   0.763  0.0273 -0.6155 -1.2769
  282SOL    HW2  846   3.009   2.455   0.717  0.1266  1.5940 -0.3981
  283SOL     OW  847   1.029   2.006   1.968 -0.5732 -0.3140 -0.6874
  283SOL    HW1  848   0.995   2.083   2.025  2.1075  1.5488  0.5029
  283SOL    HW2  849   1.017   1.912   2.008 -2.3986 -0.7234 -0.1001
  284SOL     OW  850   2.117   0.575   0.521 -0.1094  0.1969  0.2952
  284SOL    HW1  851   2.109   0.487   0.574 -0.4607  0.1946  1.7394
  284SOL    HW2  852   2.199   0.628   0.538 -4.8689 -3.6355 -0.8798
  285SOL     OW  853   0.128   2.750   2.603 -0.5289  0.0690 -0.0819
  285SOL    HW1  854   0.041   2.724   2.565  0.1917  1.3644 -1.1237
  285SOL    HW2  855   0.205   2.701   2.559 -1.6252 -0.9589 -3.0662
  286SOL     OW  856   1.869   2.587   1.431  0.1811  0.2503 -0.7925
  286SOL    HW1  857   1.948   2.646   1.459  2.9684  2.3618  2.1334
  286SOL    HW2  858   1.788   2.638   1.429 -0.5748  0.0871  0.6875
  287SOL     OW  859   0.874   1.618   1.097 -0.1971  0.2828  0.6403
  287SOL    HW1  860   0.832   1.542   1.042  0.2729 -0.5203 -3.6200
  287SOL    HW2  861   0.808   1.664   1.157  0.5974 -2.6494  1.6882
  288SOL     OW  862   1.916   2.232   2.989 -0.3008 -0.7215 -0.0711
  288SOL    HW1  863   1.831   2.286   3.011 -2.8154  0.2751 -2.5954
  288SOL    HW2  864   1.887   2.139   2.953 -2.7931 -0.9694  0.3674
  289SOL     OW  865   0.565   1.838   2.482  0.5547 -0.1513 -0.8105
  289SOL    HW1  866   0.541   1.914   2.417  1.3122 -0.7286 -0.5023
  289SOL    HW2  867   0.570   1.874   2.577  0.2372  0.2923  1.2772
  290SOL     OW  868   1.184   2.202   1.013  0.0517 -0.2523 -0.3931
  290SOL    HW1  869   1.231   2.290   1.023  0.2547 -2.0021 -2.3227
  290SOL    HW2  870   1.099   2.202   1.068  0.8831 -1.0744 -2.2982
  291SOL     OW  871   1.679   1.535   2.959 -0.2447 -0.8901  0.0700
  291SOL    HW1  872   1.724   1.454   2.914 -0.3815 -0.3466 -1.3182
  291SOL    HW2  873   1.620   1.498   3.031 -0.4833  1.2927  0.2568
  292SOL     OW  874   1.457   1.370   0.952 -0.0307 -0.6983  0.4816
  292SOL    HW1  875   1.516   1.434   0.891  1.0580  0.1561 -0.8802
  292SOL    HW2  876   1.454   1.410   1.047  0.0585  1.0022  0.9923
  293SOL     OW  877   1.500   2.847   0.941 -0.0365 -0.4090  0.0277
  293SOL    HW1  878   1.564   2.771   0.952 -0.9274  3.3680  0.6227
  293SOL    HW2  879   1.434   2.819   0.864 -2.9232 -1.2745 -3.1565
  294SOL     OW  880   2.933   1.100   2.644 -0.0935  0.4194  0.1606
  294SOL    HW1  881   3.031   1.128   2.667  0.2600 -1.4598  2.8955
  294SOL    HW2  882   2.911   1.095   2.544 -0.0653 -2.3341  2.6652
  295SOL     OW  883   1.450   2.166   2.781  0.2123 -0.3319  0.7692
  295SOL    HW1  884   1.458   2.259   2.816 -0.3815 -1.3030 -1.3416
  295SOL    HW2  885   1.527   2.147   2.722 -0.2673 -2.3339 -0.1402
  296SOL     OW  886   2.072   1.062   2.233 -1.0548 -0.3477  0.1321
  296SOL    HW1  887   1.970   1.050   2.226  1.3724  1.9851 -0.7391
  296SOL    HW2  888   2.098   1.037   2.324  0.6769  2.1483 -1.5845
  297SOL     OW  889   0.258   0.557   2.106  0.0907  0.4238 -0.1326
  297SOL    HW1  890   0.214   0.471   2.075  0.2724 -0.7356  3.0810
  297SOL    HW2  891   0.191   0.636   2.101 -0.8317 -0.8670  0.7915
  298SOL     OW  892   0.910   2.225   2.083  0.8024  0.0963 -0.0262
  298SOL    HW1  893   0.960   2.304   2.121  1.0876 -2.5877  1.2095
  298SOL    HW2  894   0.844   2.191   2.153 -1.0183 -1.7846  1.4130
  299SOL     OW  895   0.527   2.970   2.648 -0.4395 -0.1929  0.7382
  299SOL    HW1  896   0.631   2.987   2.639  3.6794  0.9972 -2.8955
  299SOL    HW2  897   0.517   2.890   2.708 -0.2198  1.0919 -0.2533
  300SOL     OW  898   0.162   0.888   2.801 -0.1193 -0.0366 -0.1652
  300SOL    HW1  899   0.192   0.966   2.861  0.4764  0.5426 -0.3682
  300SOL    HW2  900   0.211   0.890   2.708  0.7571 -1.1835 -1.9745
  301SOL     OW  901   1.501   1.209   1.650 -0.2666 -0.0479 -0.2986
  301SOL    HW1  902   1.512   1.118   1.692 -0.4399  1.6550 -1.1030
  301SOL    HW2  903   1.498   1.286   1.721  0.2565  2.1461 -0.9743
  302SOL     OW  904   2.655   1.997   2.338 -0.1968 -0.1461 -0.1953
  302SOL    HW1  905   2.699   2.088   2.339  2.0993  2.8067 -0.3824
  302SOL    HW2  906   2.561   1.995   2.309  1.6410 -0.0075 -0.0850
  303SOL     OW  907   3.077   0.126   2.668 -0.0891  0.3101 -0.1800
  303SOL    HW1  908   0.006   0.035   2.622  1.5589 -0.0382 -2.3823
  303SOL    HW2  909   0.024   0.206   2.620  0.4222  1.4288  1.7826
  304SOL     OW  910   2.913   0.573   1.640 -0.1539  0.2436  0.0014
  304SOL    HW1  911   3.013   0.574   1.651 -1.8690 -0.4492 -1.3399
  304SOL    HW2  912   2.868   0.664   1.622  1.5151  0.5712 -1.2077
  305SOL     OW  913   2.922   3.016   1.716 -0.8106  0.2520 -0.2016
  305SOL    HW1  914   2.893   2.932   1.769  0.5377 -3.4133  1.0704
  305SOL    HW2  915   2.853   3.094   1.729 -2.3105 -1.6564  2.3856
  306SOL     OW  916   2.662   1.215   1.524 -0.1591 -0.0084 -0.7579
  306SOL    HW1  917   2.626   1.238   1.616 -1.1696  0.4173 -0.3414
  306SOL    HW2  918   2.764   1.209   1.525  1.0148 -0.8867  0.2657
  307SOL     OW  919   2.156   0.437   1.140  0.1744 -0.0756 -0.1814
  307SOL    HW1  920   2.102   0.362   1.097 -0.8522  1.4696 -1.1995
  307SOL    HW2  921   2.107   0.525   1.142  0.6187  0.3619  0.0854
  308SOL     OW  922   2.911   1.946   1.255 -0.4968  0.8079  0.1148
  308SOL    HW1  923   3.000   1.939   1.206 -1.1424  1.6512 -1.6030
  308SOL    HW2  924   2.841   1.963   1.181 -0.6915  0.6029 -1.3062
  309SOL     OW  925   2.173   1.804   1.538 -0.1140  0.2413 -0.4997
  309SOL    HW1  926   2.104   1.796   1.460 -0.0416 -0.0986 -2.1583
  309SOL    HW2  927   2.145   1.868   1.613  0.6220  0.7841  1.7511
  310SOL     OW  928   2.523   1.653   0.027 -0.2861  0.8150 -0.1154
  310SOL    HW1  929   2.513   1.755   0.017 -0.7514 -0.5149 -0.7111
  310SOL    HW2  930   2.579   1.622   3.044  0.6935  1.0226  2.4966
  311SOL     OW  931   2.415   1.314   2.952 -0.7585  0.3443 -0.7651
  311SOL    HW1  932   2.489   1.284   3.024 -1.3335  0.1501  2.0959
  311SOL    HW2  933   2.344   1.374   2.996  1.3550  1.5095  0.7365
  312SOL     OW  934   1.217   2.367   1.542 -0.5055 -0.3464  0.7410
  312SOL    HW1  935   1.318   2.381   1.529 -1.5942  0.2767 -0.6193
  312SOL    HW2  936   1.196   2.363   1.643  1.5974  1.2958 -3.6928
  313SOL     OW  937   0.343   2.726   1.029 -0.6414  0.0464  0.4631
  313SOL    HW1  938   0.254   2.728   1.075 -0.9340 -0.9853 -2.4648
  313SOL    HW2  939   0.349   2.642   0.971 -2.0601  1.3192 -2.6711
  314SOL     OW  940   0.965   1.731   1.436 -0.1758  0.0509  0.1881
  314SOL    HW1  941   0.881   1.750   1.376 -0.5839  2.1153 -0.2802
  314SOL    HW2  942   0.950   1.792   1.520  0.1670  0.4427  1.5632
  315SOL     OW  943   0.415   2.883   2.375  0.2175 -0.1303  0.4884
  315SOL    HW1  944   0.448   2.961   2.434  2.3186  4.1674  1.0492
  315SOL    HW2  945   0.337   2.904   2.316 -0.9791 -2.1956  0.3566
  316SOL     OW  946   2.984   2.336   1.014  0.2877 -0.1731  0.1487
  316SOL    HW1  947   2.997   2.360   0.915  0.7514 -0.2855 -2.4991
  316SOL    HW2  948   3.068   2.360   1.069 -0.2206 -1.2641  1.0439
  317SOL     OW  949   1.854   0.561   0.406  0.2611 -0.4851  0.2358
  317SOL    HW1  950   1.841   0.474   0.348 -1.2601 -1.9766 -0.2730
  317SOL    HW2  951   1.946   0.561   0.453  1.2388  1.6017  0.2882
  318SOL     OW  952   2.924   2.571   0.008  0.0893  0.1705  0.2431
  318SOL    HW1  953   2.866   2.644   3.061 -0.4038 -2.7496 -1.5576
  318SOL    HW2  954   2.968   2.614   0.089  2.9910  2.0571  0.0876
  319SOL     OW  955   1.579   1.644   0.348 -0.1437  0.5964 -0.0562
  319SOL    HW1  956   1.606   1.545   0.352  0.0185 -0.6787  0.7366
  319SOL    HW2  957   1.636   1.693   0.276 -0.6209  0.7311 -3.0003
  320SOL     OW  958   0.733   2.493   2.561  0.1426 -0.1255 -0.3868
  320SOL    HW1  959   0.658   2.467   2.501  1.5718  2.2173  2.6387
  320SOL    HW2  960   0.698   2.522   2.652  3.0333  0.0497 -0.1564
  321SOL     OW  961   1.010   3.019   0.205  0.3334  0.1012 -0.1014
  321SOL    HW1  962   1.005   2.945   0.278 -2.2548 -1.5665  0.5687
  321SOL    HW2  963   1.055   2.987   0.121  4.0827 -1.0245 -0.4364
  322SOL     OW  964   2.329   0.958   2.158 -0.0413  0.0027  0.0678
  322SOL    HW1  965   2.243   1.012   2.172  0.2409 -0.4255 -0.7951
  322SOL    HW2  966   2.386   0.947   2.238  0.4303 -3.5064 -1.3044
  323SOL     OW  967   2.941   0.892   0.680 -0.4453  0.5563  0.2570
  323SOL    HW1  968   3.023   0.861   0.732 -0.3778 -1.5667  0.0950
  323SOL    HW2  969   2.949   0.991   0.660 -1.8893  0.0096 -0.6230
  324SOL     OW  970   0.063   0.341   2.547  0.0603  0.2247 -0.1567
  324SOL    HW1  971   0.010   0.418   2.505 -1.0500 -0.3334 -1.3652
  324SOL    HW2  972   0.137   0.375   2.608 -1.0760 -2.7424  0.3903
  325SOL     OW  973   0.801   3.017   2.416  0.3324 -0.1929 -0.3182
  325SOL    HW1  974   0.890   3.038   2.366 -0.2232 -0.6271  1.9671
  325SOL    HW2  975   0.817   3.023   2.518  0.0721  0.1843 -0.1726
  326SOL     OW  976   2.353   2.889   1.239  0.1950 -0.4624  0.4389
  326SOL    HW1  977   2.384   2.817   1.304  1.2255  0.3129 -1.1679
  326SOL    HW2  978   2.384   2.865   1.144 -0.4411 -0.0021 -0.0361
  327SOL     OW  979   1.678   0.755   0.241  0.7255 -0.1287 -0.7248
  327SOL    HW1  980   1.760   0.733   0.297  2.3141  0.5721  2.9927
  327SOL    HW2  981   1.639   0.848   0.272 -1.0646 -0.3181 -1.1341
  328SOL     OW  982   2.858   1.661   2.006  0.7222  0.7474 -0.5387
  328SOL    HW1  983   2.907   1.666   2.095 -0.5793 -2.1144 -1.0696
  328SOL    HW2  984   2.814   1.750   1.979 -1.0799 -2.6343 -1.5489
  329SOL     OW  985   2.149   2.690   1.936 -0.0614  0.1062  0.7455
  329SOL    HW1  986   2.207   2.610   1.948 -0.3949 -0.9082  2.4071
  329SOL    HW2  987   2.089   2.667   1.854  0.7681  0.4338 -1.5224
  330SOL     OW  988   2.362   1.682   1.907 -0.6940  0.3962  0.7159
  330SOL    HW1  989   2.386   1.585   1.927  0.8406  0.4120 -1.5396
  330SOL    HW2  990   2.439   1.713   1.850  0.8806  0.7618  1.2703
  331SOL     OW  991   2.762   2.233   1.084  0.0753 -0.0538 -0.2337
  331SOL    HW1  992   2.857   2.261   1.055  0.8678  0.1577  0.1661
  331SOL    HW2  993   2.704   2.235   1.003 -0.9385  2.2860  2.5123
  332SOL     OW  994   0.887   2.701   0.213  0.0894  0.7615 -0.0478
  332SOL    HW1  995   0.793   2.701   0.170 -1.4590 -0.4065 -0.3381
  332SOL    HW2  996   0.890   2.768   0.290 -0.8791 -1.5226 -0.2580
  333SOL     OW  997   1.809   0.388   2.586 -0.3463  0.1054  0.1834
  333SOL    HW1  998   1.787   0.325   2.666  1.4250 -2.0225  0.1371
  333SOL    HW2  999   1.842   0.332   2.506  1.0807 -0.8747  0.4769
  334SOL     OW 1000   0.607   1.356   0.624  0.6999 -0.0950 -0.4395
  334SOL    HW1 1001   0.697   1.379   0.673  0.9789  1.4180  1.6205
  334SOL    HW2 1002   0.621   1.323   0.525 -3.0796  0.1253  0.9065
  335SOL     OW 1003   0.005   2.994   2.126  0.6988  0.1773 -0.1547
  335SOL    HW1 1004   3.059   3.048   2.204 -0.2705 -0.2864  2.7735
  335SOL    HW2 1005   0.024   3.049   2.045 -0.9043 -1.0214 -0.8406
  336SOL     OW 1006   2.732   2.929   2.099 -0.4207  0.5955  0.0023
  336SOL    HW1 1007   2.744   3.011   2.156  1.9464 -0.5300 -0.4059
  336SOL    HW2 1008   2.651   2.872   2.122  0.8271  1.2848 -1.9430
  337SOL     OW 1009   1.806   1.466   0.661  0.0604 -0.1621  0.4021
  337SOL    HW1 1010   1.823   1.474   0.762  0.8331  1.5210  1.2470
  337SOL    HW2 1011   1.869   1.395   0.626  0.1438 -0.2625 -0.2127
  338SOL     OW 1012   0.990   1.956   0.934 -0.3081 -0.3303  0.0084
  338SOL    HW1 1013   1.058   1.920   0.998  2.5058 -0.9296 -2.5049
  338SOL    HW2 1014   0.903   1.962   0.989 -0.2837  1.2136 -0.8816
  339SOL     OW 1015   3.022   0.983   1.154 -0.0657  0.3896 -0.6339
  339SOL    HW1 1016   0.020   1.011   1.126  1.5788  0.3250 -1.2845
  339SOL    HW2 1017   3.023   0.909   1.222 -0.1479  0.7320 -1.3008
  340SOL     OW 1018   1.585   2.576   2.173 -0.5556  0.0873 -0.0441
  340SOL    HW1 1019   1.500   2.594   2.230 -0.4498  0.8468  0.5129
  340SOL    HW2 1020   1.668   2.634   2.194  2.3222  1.0120 -1.7093
  341SOL     OW 1021   2.154   1.460   0.809 -0.1252 -0.3734  0.3073
  341SOL    HW1 1022   2.223   1.411   0.866  2.1072  0.2817 -2.6780
  341SOL    HW2 1023   2.135   1.401   0.725 -0.9479 -1.9806 -0.9788
  342SOL     OW 1024   2.894   1.363   0.897 -0.5295  0.5048 -0.2466
  342SOL    HW1 1025   2.866   1.279   0.952  0.1877 -2.1713  1.7443
  342SOL    HW2 1026   2.824   1.438   0.888 -0.6593 -0.5420  0.5713
  343SOL     OW 1027   2.409   1.240   1.732 -0.6170  0.3546 -0.7200
  343SOL    HW1 1028   2.417   1.177   1.815 -2.0858 -0.3389 -0.1499
  343SOL    HW2 1029   2.486   1.306   1.733 -3.6659 -0.6229  1.8449
  344SOL     OW 1030   1.948   0.617   1.119  0.1443  0.3461 -0.1787
  344SOL    HW1 1031   1.848   0.594   1.127 -0.3832 -0.6514 -0.9048
  344SOL    HW2 1032   1.975   0.708   1.160  1.0644  3.1140 -0.0467
  345SOL     OW 1033   0.141   3.016   2.521 -0.2979  0.0235 -0.4758
  345SOL    HW1 1034   0.130   2.917   2.548 -1.4547  1.1012  0.1395
  345SOL    HW2 1035   0.235   3.058   2.544 -0.4735  0.0139  1.8729
  346SOL     OW 1036   2.740   1.604   0.193 -0.8780  0.4032 -0.1890
  346SOL    HW1 1037   2.726   1.650   0.281  1.0591 -2.4849 -1.0317
  346SOL    HW2 1038   2.651   1.589   0.152  0.6156  1.6650  2.6187
  347SOL     OW 1039   1.928   2.698   1.773  0.3682  0.3858  0.0812
  347SOL    HW1 1040   1.919   2.600   1.747  1.4099 -0.9496 -2.3011
  347SOL    HW2 1041   1.843   2.753   1.755  0.0605 -0.1185  0.0192
  348SOL     OW 1042   0.967   1.215   1.710  0.3823  0.3965 -0.2078
  348SOL    HW1 1043   0.978   1.320   1.710  2.0734 -0.0566 -0.2693
  348SOL    HW2 1044   0.915   1.192   1.625 -1.0508  1.1055 -2.4847
  349SOL     OW 1045   2.179   1.209   2.049 -0.1867 -0.1304  0.0221
  349SOL    HW1 1046   2.124   1.164   2.123 -0.6265 -0.8573  1.6903
  349SOL    HW2 1047   2.272   1.233   2.080  0.8806  0.2898 -0.0244
  350SOL     OW 1048   2.485   2.316   0.459 -0.1835 -0.2204  0.2268
  350SOL    HW1 1049   2.529   2.343   0.367  0.0607 -0.4459 -1.1229
  350SOL    HW2 1050   2.505   2.378   0.535 -1.8890 -0.4978  0.1073
  351SOL     OW 1051   0.249   0.105   1.495 -0.8493 -0.1013 -0.0165
  351SOL    HW1 1052   0.266   0.088   1.396  0.3346  0.3432 -1.6213
  351SOL    HW2 1053   0.174   0.172   1.512 -0.6551 -0.4727 -2.6798
  352SOL     OW 1054   1.451   2.440   1.758  0.5721 -0.1132 -0.3741
  352SOL    HW1 1055   1.407   2.533   1.728 -2.5807  2.1008 -0.6478
  352SOL    HW2 1056   1.408   2.416   1.848  0.0076  2.7492  0.7590
  353SOL     OW 1057   0.914   1.238   2.481 -0.0771  0.3043  0.3141
  353SOL    HW1 1058   0.914   1.240   2.586  1.1971 -1.4452  1.3571
  353SOL    HW2 1059   0.922   1.140   2.452  2.2003  0.0575 -0.5906
  354SOL     OW 1060   1.345   1.684   0.518  0.5266 -0.1964  0.3677
  354SOL    HW1 1061   1.265   1.688   0.460  3.2891 -2.5220 -0.0577
  354SOL    HW2 1062   1.419   1.646   0.458  1.5195  1.2153 -0.4057
  355SOL     OW 1063   2.011   0.247   1.021 -0.5946  0.3885  0.2585
  355SOL    HW1 1064   2.028   0.170   0.959  0.4545  0.7602  2.0131
  355SOL    HW2 1065   1.916   0.277   1.027  0.5242 -0.8155 -2.4577
  356SOL     OW 1066   3.035   1.284   3.004  0.3011 -0.1313 -0.1503
  356SOL    HW1 1067   0.016   1.296   2.939  0.9962 -0.7144 -0.7396
  356SOL    HW2 1068   3.049   1.206   3.069 -1.3768 -1.5333  0.3260
  357SOL     OW 1069   0.042   0.047   1.884 -0.2749  0.0472 -0.0617
  357SOL    HW1 1070   0.121   0.002   1.831  0.4391  0.1118  0.3518
  357SOL    HW2 1071   3.044   0.029   1.844 -1.6881  0.5980  1.6176
  358SOL     OW 1072   0.492   1.375   2.712  0.6462  0.2164 -0.0475
  358SOL    HW1 1073   0.416   1.330   2.660  0.1747  1.6433  0.9618
  358SOL    HW2 1074   0.562   1.412   2.652 -1.3497  0.9548 -0.2334
  359SOL     OW 1075   2.615   2.870   2.644  0.6031  0.3760  0.1709
  359SOL    HW1 1076   2.566   2.792   2.601  0.3112 -1.8440  0.0723
  359SOL    HW2 1077   2.614   2.852   2.742 -1.6104 -0.0249 -1.0599
  360SOL     OW 1078   1.581   1.235   1.273 -0.4581 -0.4377 -0.7322
  360SOL    HW1 1079   1.639   1.258   1.357 -1.4425  2.0240  2.9492
  360SOL    HW2 1080   1.540   1.323   1.238 -2.4790  1.1329  3.3013
  361SOL     OW 1081   1.902   2.374   1.270  0.0955 -0.2372  0.0448
  361SOL    HW1 1082   1.882   2.294   1.328 -2.6144  3.9586  1.8561
  361SOL    HW2 1083   1.902   2.457   1.328 -3.0914  0.8586 -2.5597
  362SOL     OW 1084   1.725   1.047   1.121 -0.1568  0.0546 -0.1013
  362SOL    HW1 1085   1.692   0.956   1.158  0.6168 -1.1669 -1.1346
  362SOL    HW2 1086   1.684   1.124   1.174 -1.2043 -0.0167 -0.0968
  363SOL     OW 1087   2.244   2.410   0.637  0.2871  0.7123 -0.0298
  363SOL    HW1 1088   2.283   2.390   0.545  0.7741 -1.3007  0.2876
  363SOL    HW2 1089   2.310   2.474   0.684 -2.2384 -2.0511 -0.8328
  364SOL     OW 1090   0.211   0.321   0.890 -0.3781 -0.1695 -0.0848
  364SOL    HW1 1091   0.244   0.234   0.853 -1.2303  3.4755 -0.2533
  364SOL    HW2 1092   0.157   0.311   0.974 -0.8371 -2.1463 -1.1381
  365SOL     OW 1093   0.376   2.872   0.678 -0.0329  0.0224  0.2662
  365SOL    HW1 1094   0.330   2.940   0.616 -0.2050  0.5364  1.9336
  365SOL    HW2 1095   0.409   2.915   0.759 -1.5814 -0.0177 -1.5369
  366SOL     OW 1096   0.281   1.479   0.382 -0.0245 -0.3391  0.3907
  366SOL    HW1 1097   0.227   1.515   0.461  0.0233 -0.5926 -1.9260
  366SOL    HW2 1098   0.322   1.549   0.323  4.8498 -3.8358  0.2404
  367SOL     OW 1099   2.606   2.344   2.879  0.2429  0.2883 -0.4076
  367SOL    HW1 1100   2.697   2.346   2.924  2.2496  0.1763  0.0738
  367SOL    HW2 1101   2.609   2.306   2.786 -0.8987  2.3106 -0.1636
  368SOL     OW 1102   2.539   1.745   0.805  0.7079  0.0758  0.0309
  368SOL    HW1 1103   2.457   1.720   0.754  1.0394  0.1499  4.7135
  368SOL    HW2 1104   2.582   1.664   0.857  0.2527 -1.4862 -1.7527
  369SOL     OW 1105   1.135   0.903   0.395 -0.7492 -0.0070  0.1303
  369SOL    HW1 1106   1.077   0.974   0.434 -0.4065  0.7695  0.4123
  369SOL    HW2 1107   1.228   0.895   0.444  0.4859  0.0263  0.3950
  370SOL     OW 1108   0.461   2.966   0.926  0.0974  0.2081  0.1695
  370SOL    HW1 1109   0.424   2.898   0.993  1.6579  1.9607  1.7866
  370SOL    HW2 1110   0.563   2.961   0.919 -0.3496  2.0018 -1.2907
  371SOL     OW 1111   2.824   1.415   2.640  0.4395 -0.1946  0.6565
  371SOL    HW1 1112   2.751   1.481   2.606  0.7532  1.6812 -1.9821
  371SOL    HW2 1113   2.802   1.370   2.731  1.9695 -0.4694  1.0564
  372SOL     OW 1114   0.685   0.561   2.379  0.1412  0.2620 -0.4645
  372SOL    HW1 1115   0.654   0.518   2.296  0.5874 -1.1828  1.5918
  372SOL    HW2 1116   0.698   0.486   2.452 -0.0515 -0.3090  0.9489
  373SOL     OW 1117   0.709   0.434   3.056  0.1095  0.2472 -0.0220
  373SOL    HW1 1118   0.777   0.449   2.983 -0.9376 -2.5091 -1.2358
  373SOL    HW2 1119   0.730   0.354   0.016  0.6410 -0.5269 -0.3873
  374SOL     OW 1120   1.052   2.073   3.086  0.0330 -0.4429 -0.1436
  374SOL    HW1 1121   1.126   2.147   3.082  0.4649 -0.5692 -0.5622
  374SOL    HW2 1122   1.101   1.983   0.011 -0.7643 -2.0451  1.3094
  375SOL     OW 1123   0.846   2.938   1.580 -0.3423  0.0434 -0.2749
  375SOL    HW1 1124   0.899   2.864   1.530 -1.0512  0.1625  1.2912
  375SOL    HW2 1125   0.775   2.986   1.525  2.0355 -1.6169 -0.3162
  376SOL     OW 1126   0.315   2.611   2.032  0.2828  0.7159 -0.1931
  376SOL    HW1 1127   0.402   2.646   1.991 -0.2288  0.2168  3.2968
  376SOL    HW2 1128   0.308   2.509   2.037 -2.0661 -1.5916  2.6232
  377SOL     OW 1129   2.519   1.917   3.093 -0.1256  0.4147  0.2688
  377SOL    HW1 1130   2.425   1.949   3.072  0.3452  0.3869 -1.2098
  377SOL    HW2 1131   2.583   1.906   3.016 -0.1308  0.6589  2.1500
  378SOL     OW 1132   2.283   0.198   0.712 -0.4289  0.5468  0.2740
  378SOL    HW1 1133   2.249   0.286   0.734  2.7845  0.1666 -1.5081
  378SOL    HW2 1134   2.365   0.211   0.650  0.7392  1.0097  1.4909
  379SOL     OW 1135   1.015   0.713   0.611  0.2870 -0.1841 -0.2280
  379SOL    HW1 1136   1.081   0.685   0.539  0.4995 -0.6394 -0.0991
  379SOL    HW2 1137   0.918   0.699   0.583 -1.2604 -2.2350  0.2191
  380SOL     OW 1138   2.633   2.367   2.042  0.1122 -0.2749 -0.3729
  380SOL    HW1 1139   2.709   2.429   2.067 -0.1547 -0.4514 -0.7539
  380SOL    HW2 1140   2.614   2.380   1.940 -0.0686  0.8148  1.0324
  381SOL     OW 1141   2.708   1.414   1.995  0.7617  0.3668 -0.1394
  381SOL    HW1 1142   2.757   1.502   2.014 -1.0693 -2.8386 -0.0941
  381SOL    HW2 1143   2.659   1.375   2.073  0.9953  1.3896 -2.0804
  382SOL     OW 1144   2.922   2.130   2.841  0.8477  0.2367 -0.2361
  382SOL    HW1 1145   2.909   2.210   2.905 -0.9903  2.9206 -1.8862
  382SOL    HW2 1146   2.914   2.040   2.886  1.4601  0.7701 -2.6907
  383SOL     OW 1147   1.324   0.792   2.669 -0.2052 -0.5496  0.0095
  383SOL    HW1 1148   1.289   0.864   2.736  1.9831 -1.0660  1.3348
  383SOL    HW2 1149   1.341   0.840   2.580 -0.9996 -1.6367  0.6941
  384SOL     OW 1150   1.345   2.101   2.228  0.2580  0.2762 -0.5263
  384SOL    HW1 1151   1.314   2.183   2.176 -1.3655  1.7019 -1.9413
  384SOL    HW2 1152   1.270   2.040   2.269 -1.0304 -1.4448  0.9421
  385SOL     OW 1153   2.622   2.710   0.027  0.4938  0.3644 -0.5990
  385SOL    HW1 1154   2.561   2.640   0.060  2.3934  3.0810 -0.7025
  385SOL    HW2 1155   2.684   2.741   0.101  1.1378  0.0751 -0.0963
  386SOL     OW 1156   1.524   1.169   0.715 -0.7235  0.2358  0.0556
  386SOL    HW1 1157   1.450   1.164   0.645  1.2607  1.2964  1.6154
  386SOL    HW2 1158   1.481   1.182   0.807 -1.2581 -1.5916  1.7475
  387SOL     OW 1159   0.013   1.839   1.636 -0.5730 -0.0978  0.3816
  387SOL    HW1 1160   0.061   1.880   1.715 -0.2010  2.4376  0.6059
  387SOL    HW2 1161   3.066   1.902   1.565  0.9009  0.8535  1.2118
  388SOL     OW 1162   0.488   1.118   1.465 -0.3238 -0.8956  0.2820
  388SOL    HW1 1163   0.542   1.103   1.550  0.6618  2.6433  2.0459
  388SOL    HW2 1164   0.527   1.069   1.386  2.3123  1.2098 -0.1833
  389SOL     OW 1165   2.152   1.041   2.511 -0.6119  0.4331  0.3737
  389SOL    HW1 1166   2.193   0.962   2.565  0.5416 -1.0645  0.6241
  389SOL    HW2 1167   2.102   1.100   2.570 -0.2741 -1.7932 -4.2205
  390SOL     OW 1168   0.970   1.671   0.133 -0.3107  0.6114  0.4522
  390SOL    HW1 1169   0.907   1.744   0.152  2.1739 -1.2316 -1.0291
  390SOL    HW2 1170   0.939   1.620   0.050  0.0076  0.5216 -0.5147
  391SOL     OW 1171   1.139   1.711   0.363  0.2166 -0.3204  0.0584
  391SOL    HW1 1172   1.072   1.736   0.442  0.3468  1.3117  0.0481
  391SOL    HW2 1173   1.081   1.679   0.285  0.1902 -1.9990  2.2304
  392SOL     OW 1174   2.553   2.986   2.383  0.2689  0.1697  0.2990
  392SOL    HW1 1175   2.617   2.924   2.340 -0.3257  3.5027 -0.3173
  392SOL    HW2 1176   2.591   3.013   2.476  0.6627 -0.8513  1.0680
  393SOL     OW 1177   1.497   2.097   0.033 -0.0163 -0.3220  0.6825
  393SOL    HW1 1178   1.478   2.031   0.103  1.8167 -0.6143 -1.4669
  393SOL    HW2 1179   1.410   2.144   0.010 -1.1194  0.2272 -0.0685
  394SOL     OW 1180   0.757   0.196   2.370 -0.2578  0.2306  0.1112
  394SOL    HW1 1181   0.765   0.100   2.399 -0.2282  1.9967  0.0455
  394SOL    HW2 1182   0.781   0.201   2.272 -1.5623  0.5999 -1.0734
  395SOL     OW 1183   0.266   1.571   1.316  0.0251  0.1594 -0.6648
  395SOL    HW1 1184   0.235   1.630   1.395 -2.2179 -1.8123  0.3568
  395SOL    HW2 1185   0.188   1.530   1.265 -0.5508 -1.4465  1.2202
  396SOL     OW 1186   2.135   1.381   2.918  0.1303  0.4637  0.4961
  396SOL    HW1 1187   2.156   1.396   2.822 -0.2892 -0.5837  1.4538
  396SOL    HW2 1188   2.096   1.464   2.963  1.0267  1.0674  1.0648
  397SOL     OW 1189   0.375   0.727   2.937 -0.1199 -0.5190  0.4124
  397SOL    HW1 1190   0.464   0.726   2.887  0.9693 -0.4475  0.4341
  397SOL    HW2 1191   0.293   0.753   2.878  0.3031 -0.7802  0.9388
  398SOL     OW 1192   1.051   2.462   0.279 -0.1397 -0.2187 -0.5937
  398SOL    HW1 1193   1.131   2.473   0.215  0.0087 -0.2479 -2.6402
  398SOL    HW2 1194   0.989   2.543   0.273  0.7176 -1.8067 -0.3315
  399SOL     OW 1195   1.816   2.390   2.290 -0.0751  0.1965  0.2132
  399SOL    HW1 1196   1.891   2.452   2.328  1.3437 -0.4139 -0.8250
  399SOL    HW2 1197   1.816   2.392   2.189  0.8415  1.4493 -0.4938
  400SOL     OW 1198   0.022   1.018   1.872 -0.3436 -0.2836 -0.3459
  400SOL    HW1 1199   3.046   1.069   1.924  0.8837 -1.7894  0.7534
  400SOL    HW2 1200   0.097   1.076   1.845  1.3260 -2.2451  2.1084
  401SOL     OW 1201   0.744   0.722   0.606  0.0460  0.0726  0.0725
  401SOL    HW1 1202   0.674   0.667   0.558 -0.1079  0.0668 -1.3152
  401SOL    HW2 1203   0.704   0.813   0.630 -0.9441  1.3347  0.9116
  402SOL     OW 1204   0.798   3.039   2.682 -0.4499  0.1906  0.2898
  402SOL    HW1 1205   0.823   0.034   2.722  1.0716  1.7477  1.6645
  402SOL    HW2 1206   0.790   2.980   2.765 -1.6797  1.5909 -2.4488
  403SOL     OW 1207   2.582   1.740   1.759  0.0120  0.1034 -0.3740
  403SOL    HW1 1208   2.618   1.787   1.841  1.6156 -1.2070  3.3864
  403SOL    HW2 1209   2.653   1.706   1.692  1.4475 -0.7902  0.6418
  404SOL     OW 1210   2.552   2.479   1.402 -0.4295 -0.3614  0.5663
  404SOL    HW1 1211   2.644   2.480   1.447  0.6646  3.1849  1.4867
  404SOL    HW2 1212   2.539   2.389   1.359  0.8404 -0.7949  0.4792
  405SOL     OW 1213   2.004   0.345   2.837 -0.0421 -0.1561  0.6732
  405SOL    HW1 1214   2.016   0.261   2.778 -2.0270 -0.2545  1.1084
  405SOL    HW2 1215   2.016   0.432   2.780 -1.2868  0.6094  1.2629
  406SOL     OW 1216   1.177   1.833   0.045  0.0913  0.0932  0.1814
  406SOL    HW1 1217   1.272   1.797   0.043  0.3374 -1.0612 -0.8284
  406SOL    HW2 1218   1.112   1.764   0.082 -0.6867  0.4165 -1.0811
  407SOL     OW 1219   1.841   1.733   0.601 -0.0030 -0.3146 -0.0723
  407SOL    HW1 1220   1.803   1.761   0.692  1.5288  2.2885  0.2193
  407SOL    HW2 1221   1.806   1.641   0.576 -2.0299  2.1762 -0.8194
  408SOL     OW 1222   0.013   0.245   1.512  0.0440  0.0732 -0.4454
  408SOL    HW1 1223   0.041   0.341   1.482 -0.6893 -0.3563 -2.1111
  408SOL    HW2 1224   0.001   0.186   1.432 -0.6737  0.0941  2.2448
  409SOL     OW 1225   2.584   1.305   0.062 -0.2105  0.1727  0.0269
  409SOL    HW1 1226   2.586   1.206   0.087  2.1939  0.0534  0.3775
  409SOL    HW2 1227   2.514   1.360   0.114  1.0233  1.5561  0.9721
  410SOL     OW 1228   2.319   2.354   1.050 -0.1914  0.0045 -0.5375
  410SOL    HW1 1229   2.305   2.257   1.097  0.5282 -4.8264  2.2036
  410SOL    HW2 1230   2.234   2.406   1.062  0.7890  0.1504  0.9985
  411SOL     OW 1231   0.241   0.019   0.237  0.4960  0.1271 -0.4078
  411SOL    HW1 1232   0.137   0.000   0.226 -0.1509 -0.5051  0.4751
  411SOL    HW2 1233   0.283   0.036   0.149 -1.8010 -2.1710  1.7350
  412SOL     OW 1234   1.546   2.808   0.579  0.2595  0.0244 -0.0689
  412SOL    HW1 1235   1.645   2.835   0.575  0.5532  1.2139 -0.6159
  412SOL    HW2 1236   1.536   2.711   0.607  1.4970 -2.8449 -2.1893
  413SOL     OW 1237   1.762   0.311   2.155  0.6157 -0.0665  0.3441
  413SOL    HW1 1238   1.832   0.289   2.226  0.2178 -0.5246  0.0403
  413SOL    HW2 1239   1.676   0.349   2.194  2.2656  1.0817  1.4544
  414SOL     OW 1240   0.108   0.712   0.417  0.0337 -0.0003 -0.1068
  414SOL    HW1 1241   0.141   0.714   0.318 -0.0672 -5.3412 -0.0949
  414SOL    HW2 1242   0.154   0.629   0.462 -1.6150  1.1184  2.4575
  415SOL     OW 1243   3.006   1.198   0.663 -0.3235 -0.2469  0.7558
  415SOL    HW1 1244   2.945   1.182   0.584  2.0554 -0.0923  0.1478
  415SOL    HW2 1245   2.959   1.254   0.731  1.7533 -3.3253 -4.6576
  416SOL     OW 1246   3.091   0.643   2.800 -0.0376  0.2848  0.0559
  416SOL    HW1 1247   0.073   0.581   2.767  3.4969 -1.8092  0.3024
  416SOL    HW2 1248   0.027   0.736   2.824 -1.7343  0.0558 -0.8617
  417SOL     OW 1249   2.540   0.191   0.917 -0.7699  0.6783  0.1689
  417SOL    HW1 1250   2.472   0.193   0.990  2.5531 -2.5010  1.1443
  417SOL    HW2 1251   2.617   0.254   0.934 -0.5472 -1.5550 -0.5653
  418SOL     OW 1252   0.777   2.875   2.911  0.1857  0.0394  0.3176
  418SOL    HW1 1253   0.748   2.924   2.999  0.7289  0.7795  0.1225
  418SOL    HW2 1254   0.734   2.780   2.907  0.8363  0.8758 -2.3927
  419SOL     OW 1255   0.406   0.952   0.727 -0.1641 -0.1221  0.1647
  419SOL    HW1 1256   0.310   0.981   0.723  0.8440  1.9099 -3.2608
  419SOL    HW2 1257   0.424   0.887   0.652 -1.4618 -1.0884 -0.0191
  420SOL     OW 1258   2.950   1.218   1.511 -0.2000  0.3023 -0.1570
  420SOL    HW1 1259   2.995   1.263   1.589 -0.1365 -2.8529 -1.6831
  420SOL    HW2 1260   2.989   1.124   1.494 -1.5470 -0.7999  1.3532
  421SOL     OW 1261   1.114   1.857   2.887 -0.1578  0.4880 -0.0136
  421SOL    HW1 1262   1.203   1.888   2.850  0.9968  1.5151  0.7929
  421SOL    HW2 1263   1.126   1.858   2.987  2.4223  2.5076  0.7873
  422SOL     OW 1264   2.484   0.831   2.430 -0.0896  0.4964 -0.4587
  422SOL    HW1 1265   2.412   0.845   2.502  0.8330 -1.6049  0.2862
  422SOL    HW2 1266   2.479   0.745   2.383  1.0326  0.6836  4.4972
  423SOL     OW 1267   1.979   1.366   0.345 -0.3220 -0.3949  0.5129
  423SOL    HW1 1268   2.036   1.438   0.299  1.2508 -0.8601 -2.7670
  423SOL    HW2 1269   1.895   1.352   0.291 -1.5364 -0.5726  2.1822
  424SOL     OW 1270   0.921   0.784   1.823  0.0882  0.5992 -0.2241
  424SOL    HW1 1271   0.845   0.808   1.887  2.3466 -0.6410  0.3075
  424SOL    HW2 1272   0.960   0.694   1.860 -0.9738 -2.5204  4.0182
  425SOL     OW 1273   2.990   2.748   2.181  0.0857 -0.6880  0.2688
  425SOL    HW1 1274   3.060   2.708   2.120 -0.6155 -0.4939 -0.0462
  425SOL    HW2 1275   2.993   2.847   2.170 -1.7384 -1.1325  1.3253
  426SOL     OW 1276   2.323   2.723   0.344 -0.0823 -0.5799  0.4965
  426SOL    HW1 1277   2.425   2.731   0.358  1.2032  1.7099  0.0597
  426SOL    HW2 1278   2.262   2.730   0.428 -0.3926 -2.4532  1.0967
  427SOL     OW 1279   0.604   0.655   2.797  0.1260  0.1122  0.4238
  427SOL    HW1 1280   0.652   0.686   2.711  1.9824  0.3536 -1.0013
  427SOL    HW2 1281   0.611   0.553   2.806 -0.5990  1.3880 -1.1570
  428SOL     OW 1282   2.783   1.343   2.948 -0.1794  0.5582 -0.2298
  428SOL    HW1 1283   2.724   1.332   3.028  2.5690  4.1019 -1.1036
  428SOL    HW2 1284   2.880   1.328   2.975 -0.1491  2.6906 -0.2070
  429SOL     OW 1285   2.439   0.428   0.334  0.1637  0.1032  0.2855
  429SOL    HW1 1286   2.466   0.415   0.434  1.6022 -1.3578  1.1481
  429SOL    HW2 1287   2.425   0.523   0.314 -1.9897 -0.8771  3.2106
  430SOL     OW 1288   1.344   2.314   1.987  0.2968 -0.4112 -0.4946
  430SOL    HW1 1289   1.434   2.289   2.030  3.3363  1.9429  0.4311
  430SOL    HW2 1290   1.302   2.400   2.031 -4.1495  1.6391  0.7683
  431SOL     OW 1291   0.199   2.085   1.494 -0.6117  0.8366  0.3605
  431SOL    HW1 1292   0.100   2.083   1.495 -0.2092  0.4656 -0.7915
  431SOL    HW2 1293   0.244   2.023   1.560 -0.4760 -1.0770  1.3026
  432SOL     OW 1294   1.809   2.747   2.160 -0.0981 -0.2581 -0.1323
  432SOL    HW1 1295   1.905   2.766   2.146 -0.0967 -0.8939  0.9416
  432SOL    HW2 1296   1.754   2.831   2.174 -2.3182 -0.1427  4.0657
  433SOL     OW 1297   1.085   2.049   0.341  0.2122 -0.7335 -0.0968
  433SOL    HW1 1298   1.002   2.021   0.284 -0.3662  1.1913 -0.8468
  433SOL    HW2 1299   1.126   1.964   0.379 -1.1203 -0.4670  1.3494
  434SOL     OW 1300   0.294   1.980   2.701 -0.2877  0.0445 -0.1786
  434SOL    HW1 1301   0.386   1.942   2.732  1.8843 -1.7295  0.9303
  434SOL    HW2 1302   0.229   2.001   2.776 -1.9278 -0.7143 -1.1488
  435SOL     OW 1303   0.220   0.958   0.441  0.4237 -0.2076 -0.3313
  435SOL    HW1 1304   0.166   1.035   0.401 -1.3240 -0.5274 -1.3245
  435SOL    HW2 1305   0.169   0.875   0.437  1.2862  3.5407 -2.4633
  436SOL     OW 1306   0.592   2.676   1.576 -0.6364 -0.2823  0.0175
  436SOL    HW1 1307   0.531   2.741   1.537 -0.3971  1.7312 -0.7768
  436SOL    HW2 1308   0.642   2.718   1.656  0.7188  0.1315 -0.0091
  437SOL     OW 1309   0.726   0.022   0.574  0.1464  0.1391 -0.7148
  437SOL    HW1 1310   0.788   0.101   0.554 -3.6507  1.0919  0.0504
  437SOL    HW2 1311   0.628   0.054   0.583 -0.3594 -0.9719  1.0072
  438SOL     OW 1312   0.250   2.354   0.656 -0.1239  0.0111 -0.0059
  438SOL    HW1 1313   0.336   2.382   0.603  1.7542  1.7780  0.5939
  438SOL    HW2 1314   0.270   2.269   0.719  1.2907 -0.5150  0.3372
  439SOL     OW 1315   0.894   2.263   1.694 -0.4898 -0.7889 -0.3729
  439SOL    HW1 1316   0.808   2.227   1.728  2.8988 -0.8494  1.6612
  439SOL    HW2 1317   0.885   2.358   1.656 -1.2918  3.0131  1.0477
  440SOL     OW 1318   1.916   0.007   2.183 -0.6442  0.4095 -0.3312
  440SOL    HW1 1319   1.973   0.042   2.104  0.4260 -0.9860 -2.5551
  440SOL    HW2 1320   1.826   3.067   2.147  0.5180 -1.2577  0.5903
  441SOL     OW 1321   2.981   0.454   1.962 -0.3718  0.6326 -0.0951
  441SOL    HW1 1322   3.055   0.385   1.975 -1.4003  1.2279  0.0858
  441SOL    HW2 1323   3.008   0.522   1.888  0.7837  3.0755 -0.3790
  442SOL     OW 1324   2.052   2.401   0.820  0.0223 -0.0108 -0.3217
  442SOL    HW1 1325   2.128   2.415   0.760 -1.1490 -0.3723  1.5473
  442SOL    HW2 1326   2.073   2.444   0.910  0.5332 -0.1798  0.2443
  443SOL     OW 1327   2.772   0.767   2.384 -0.3114 -0.2955  0.0199
  443SOL    HW1 1328   2.676   0.767   2.425  1.2551 -1.0964 -3.3503
  443SOL    HW2 1329   2.846   0.794   2.451 -0.4557  0.9750 -2.5595
  444SOL     OW 1330   1.816   0.953   2.265 -0.3205 -0.8518 -0.3752
  444SOL    HW1 1331   1.764   0.900   2.191 -0.7447 -3.2083 -0.9222
  444SOL    HW2 1332   1.756   0.952   2.347  0.4549 -0.1405  1.1318
  445SOL     OW 1333   2.866   2.455   1.296  0.4279 -0.5677 -0.5431
  445SOL    HW1 1334   2.900   2.547   1.263  2.1059 -0.3292 -1.2968
  445SOL    HW2 1335   2.830   2.397   1.222 -0.0430 -0.7552  1.7923
  446SOL     OW 1336   2.736   1.512   1.201  0.7490  1.0698  0.3701
  446SOL    HW1 1337   2.739   1.590   1.261 -2.9748  1.7577 -1.6958
  446SOL    HW2 1338   2.810   1.444   1.215  0.8904  0.3487  0.2089
  447SOL     OW 1339   0.501   1.197   0.817 -0.3687 -0.5069 -0.3546
  447SOL    HW1 1340   0.468   1.109   0.779  0.5109  0.7671  1.6333
  447SOL    HW2 1341   0.537   1.253   0.740 -0.8329  1.6524  1.5918
  448SOL     OW 1342   1.292   1.638   2.048  0.2532 -0.1356 -0.2699
  448SOL    HW1 1343   1.255   1.649   1.954 -1.4716 -1.2848  0.0860
  448SOL    HW2 1344   1.322   1.543   2.063  2.7013  1.3073 -2.6740
  449SOL     OW 1345   1.422   1.274   0.437 -0.1886  0.2229  0.3535
  449SOL    HW1 1346   1.504   1.332   0.457 -2.2105 -3.0119  1.5655
  449SOL    HW2 1347   1.448   1.212   0.360 -0.0076 -0.1111  1.2833
  450SOL     OW 1348   2.777   2.580   2.179 -0.7165 -0.0178 -0.0149
  450SOL    HW1 1349   2.858   2.644   2.183 -0.9085  1.0382  0.2009
  450SOL    HW2 1350   2.692   2.625   2.159  1.9155 -2.6064  0.0196
  451SOL     OW 1351   2.269   0.284   2.290  0.0205  0.6067  0.6154
  451SOL    HW1 1352   2.339   0.235   2.232  0.5054  0.7276 -1.1835
  451SOL    HW2 1353   2.288   0.264   2.391 -1.1352 -1.4239  2.1300
  452SOL     OW 1354   1.690   0.247   1.037  0.3054  0.0007  0.2041
  452SOL    HW1 1355   1.662   0.156   1.004  0.3692  1.8073 -0.4964
  452SOL    HW2 1356   1.668   0.259   1.137  0.5654 -0.9446 -1.2473
  453SOL     OW 1357   1.662   0.798   1.471 -0.4202 -0.3277 -0.1058
  453SOL    HW1 1358   1.670   0.837   1.374  1.7390 -0.4377 -3.3319
  453SOL    HW2 1359   1.666   0.872   1.542 -3.1536  1.9052  0.7424
  454SOL     OW 1360   3.001   1.610   0.550  0.1067  0.1536  0.0009
  454SOL    HW1 1361   0.005   1.621   0.569  1.4719 -0.0829  0.6823
  454SOL    HW2 1362   2.954   1.670   0.616  0.6595  1.4499  0.8232
  455SOL     OW 1363   2.978   0.126   0.502 -0.4414  0.0982 -0.0287
  455SOL    HW1 1364   2.915   0.209   0.500 -1.2411 -0.4730  0.5411
  455SOL    HW2 1365   2.997   0.088   0.410  1.2731 -0.1067  0.7118
  456SOL     OW 1366   0.099   2.745   1.169 -0.7353 -1.0359  0.0196
  456SOL    HW1 1367   3.093   2.738   1.180  0.9061  2.0867  1.1314
  456SOL    HW2 1368   0.154   2.693   1.237 -0.7751  1.1883 -0.2098
  457SOL     OW 1369   1.251   0.040   0.586  0.9974  0.2486 -0.6640
  457SOL    HW1 1370   1.186   0.009   0.662  2.3042 -0.1349  0.8835
  457SOL    HW2 1371   1.296   0.125   0.610 -2.1835 -1.1326 -0.7160
  458SOL     OW 1372   2.551   0.132   0.644 -0.3001  0.0641  0.2331
  458SOL    HW1 1373   2.535   0.147   0.746 -0.9018 -3.6590  3.6906
  458SOL    HW2 1374   2.563   0.036   0.624 -0.8364  1.7454  1.6639
  459SOL     OW 1375   2.389   0.556   2.567  0.1542 -0.0697 -0.4784
  459SOL    HW1 1376   2.427   0.558   2.472  2.3914 -1.6974 -2.7741
  459SOL    HW2 1377   2.392   0.458   2.597  1.7386 -1.9793  0.7347
  460SOL     OW 1378   2.847   3.051   2.938  0.2518  0.0889 -0.2328
  460SOL    HW1 1379   2.935   3.059   2.985 -0.2769 -0.3279  1.9296
  460SOL    HW2 1380   2.816   0.041   2.895 -2.3703  1.3874  0.0031
  461SOL     OW 1381   0.997   1.770   0.603 -0.3258 -0.4017 -0.0477
  461SOL    HW1 1382   1.047   1.855   0.621 -1.2936 -0.8674 -1.9304
  461SOL    HW2 1383   0.901   1.801   0.585  1.5449  1.8750 -0.6127
  462SOL     OW 1384   2.352   2.113   1.189  0.1125 -0.3069 -0.2355
  462SOL    HW1 1385   2.263   2.091   1.229 -1.2615  2.6189 -1.2510
  462SOL    HW2 1386   2.404   2.032   1.156 -3.1971  0.9206  0.1033
  463SOL     OW 1387   2.538   0.983   0.623  0.5069  0.0339  0.1459
  463SOL    HW1 1388   2.481   1.066   0.626 -0.3585 -0.6982  2.0281
  463SOL    HW2 1389   2.588   0.974   0.531 -2.4772 -0.3421  1.4337
  464SOL     OW 1390   0.277   3.040   1.249  0.2445 -0.7397 -0.0724
  464SOL    HW1 1391   0.351   3.083   1.193  1.7461 -0.5859 -2.9332
  464SOL    HW2 1392   0.309   2.972   1.316 -0.0605  0.9925 -2.4142
  465SOL     OW 1393   2.968   1.481   0.089  0.1920 -0.5355  0.5465
  465SOL    HW1 1394   2.874   1.506   0.106  1.1528 -0.7526  0.2092
  465SOL    HW2 1395   2.982   1.406   0.017  1.1828 -3.1661 -2.4450
  466SOL     OW 1396   1.755   0.242   2.806  0.2446  0.2687 -0.2821
  466SOL    HW1 1397   1.826   0.293   2.861  2.3071 -0.7638  0.3007
  466SOL    HW2 1398   1.659   0.266   2.834  0.2485 -0.7502  1.6338
  467SOL     OW 1399   0.943   0.578   1.600 -0.9093  0.1021 -0.2694
  467SOL    HW1 1400   1.013   0.564   1.674  2.1563 -0.9929 -2.1443
  467SOL    HW2 1401   0.940   0.678   1.582 -1.7885  1.7964  0.2769
  468SOL     OW 1402   0.608   1.041   2.562  0.2459 -0.2100  0.1801
  468SOL    HW1 1403   0.669   1.115   2.597  0.4451  2.4837 -1.0482
  468SOL    HW2 1404   0.662   0.954   2.548  0.8377 -0.2682  0.7993
  469SOL     OW 1405   0.165   2.194   3.079  0.2309 -0.1084  0.0905
  469SOL    HW1 1406   0.135   2.286   3.037 -0.9710  4.4901 -0.2794
  469SOL    HW2 1407   0.104   2.167   0.058 -0.0801 -0.1746  1.1745
  470SOL     OW 1408   2.192   1.699   2.664 -0.4489  0.0920  0.4404
  470SOL    HW1 1409   2.262   1.624   2.647  2.2617  1.1555  1.6598
  470SOL    HW2 1410   2.241   1.787   2.677  0.8369 -0.7183 -1.7092
  471SOL     OW 1411   2.657   1.261   2.225 -0.4276  0.4337  0.1598
  471SOL    HW1 1412   2.638   1.161   2.239  2.1152 -4.0382  2.5371
  471SOL    HW2 1413   2.736   1.300   2.280 -0.0247  0.0203  0.4740
  472SOL     OW 1414   0.510   2.708   0.487  0.5292  0.2375  0.8520
  472SOL    HW1 1415   0.437   2.704   0.415  0.7867  2.6613 -1.0671
  472SOL    HW2 1416   0.463   2.747   0.571 -0.8061 -0.9083 -1.9387
  473SOL     OW 1417   0.565   0.010   2.906  0.8155  0.2735 -0.4340
  473SOL    HW1 1418   0.573   3.057   2.991  0.0133 -0.7353 -1.4173
  473SOL    HW2 1419   0.659   0.045   2.878  1.6333 -1.0132  1.1436
  474SOL     OW 1420   1.685   0.019   2.398  0.6742  0.0500 -0.6354
  474SOL    HW1 1421   1.609   0.012   2.468  0.4305  0.6916 -2.2926
  474SOL    HW2 1422   1.653   3.069   2.313 -1.4901 -2.7451  0.0664
  475SOL     OW 1423   1.769   2.418   0.413  0.0098  0.1825 -0.5356
  475SOL    HW1 1424   1.828   2.383   0.486 -0.3790 -0.3157 -2.0117
  475SOL    HW2 1425   1.823   2.416   0.326 -0.3555  0.8593 -3.9481
  476SOL     OW 1426   0.279   0.559   0.787 -0.1165 -0.3687 -0.1871
  476SOL    HW1 1427   0.295   0.610   0.872 -0.0924 -1.5310  0.1410
  476SOL    HW2 1428   0.236   0.468   0.809 -1.3719  3.4846 -0.6491
  477SOL     OW 1429   1.508   2.311   0.781 -0.3740 -0.5891  0.1718
  477SOL    HW1 1430   1.571   2.231   0.766 -3.2124 -1.7096  0.8885
  477SOL    HW2 1431   1.423   2.288   0.734  1.8749  0.7762 -0.1431
  478SOL     OW 1432   0.251   2.298   2.335  0.5943 -0.3104  0.8427
  478SOL    HW1 1433   0.216   2.208   2.366  1.6956  0.6322  2.2763
  478SOL    HW2 1434   0.253   2.296   2.230  0.5255  2.0304 -1.3620
  479SOL     OW 1435   2.374   0.636   0.888 -0.3146  0.2629  0.9599
  479SOL    HW1 1436   2.454   0.630   0.821  1.4208 -0.8655 -1.8766
  479SOL    HW2 1437   2.407   0.620   0.982  0.2916  1.8843  0.5570
  480SOL     OW 1438   2.988   2.925   0.121 -0.1581  0.2132  0.0244
  480SOL    HW1 1439   3.037   3.011   0.121 -0.6888  0.7036 -1.0828
  480SOL    HW2 1440   3.047   2.845   0.113 -0.8193  0.8965 -1.4706
  481SOL     OW 1441   2.661   2.636   1.100  0.5872  0.6400 -0.1447
  481SOL    HW1 1442   2.692   2.592   1.183  4.7322 -0.0052 -1.6809
  481SOL    HW2 1443   2.652   2.735   1.113  2.6309 -0.5981  2.5323
  482SOL     OW 1444   1.204   2.318   2.817  0.0616  0.1638 -0.0938
  482SOL    HW1 1445   1.219   2.265   2.731  2.7476  0.7748 -2.2580
  482SOL    HW2 1446   1.222   2.414   2.803  0.9068  2.2059  0.5130
  483SOL     OW 1447   0.567   1.903   2.748 -0.2319  0.2348  0.0810
  483SOL    HW1 1448   0.587   1.829   2.816  2.8031 -2.2788  2.3526
  483SOL    HW2 1449   0.635   1.980   2.756  0.8284 -0.5172 -0.0976
  484SOL     OW 1450   0.919   0.948   1.167 -0.1742 -0.5266 -1.0649
  484SOL    HW1 1451   0.892   0.849   1.168  0.0301 -2.8503  0.0967
  484SOL    HW2 1452   1.006   0.962   1.216 -1.7295  2.3046 -1.9262
  485SOL     OW 1453   2.419   0.697   0.191  0.3931  0.0943  0.1171
  485SOL    HW1 1454   2.335   0.718   0.242  1.1978 -1.5142 -2.4171
  485SOL    HW2 1455   2.388   0.709   0.091  0.2037  2.6678 -0.1478
  486SOL     OW 1456   1.812   0.106   1.291  0.0139 -0.0143  0.2936
  486SOL    HW1 1457   1.719   0.071   1.306  1.0866 -0.5366  0.2859
  486SOL    HW2 1458   1.861   0.120   1.383  1.9340 -0.8730  1.0793
  487SOL     OW 1459   0.143   2.395   1.127  0.1710  0.2869  0.3972
  487SOL    HW1 1460   0.216   2.417   1.056  1.8178  0.8102 -1.3488
  487SOL    HW2 1461   0.157   2.429   1.220 -1.2113 -2.1072 -2.6010
  488SOL     OW 1462   2.667   0.988   0.371  0.3535  0.1324  0.1010
  488SOL    HW1 1463   2.619   1.030   0.288  0.7692  1.2770 -1.8637
  488SOL    HW2 1464   2.687   0.888   0.350 -0.6921 -2.3125  0.3939
  489SOL     OW 1465   1.825   3.060   1.040 -0.4043 -0.7421 -1.1239
  489SOL    HW1 1466   1.881   3.081   0.959 -1.0135  1.5185 -2.2686
  489SOL    HW2 1467   1.847   0.031   1.114  1.8743 -0.3991  1.7470
  490SOL     OW 1468   0.848   0.454   0.389  0.4729  0.0271  0.1100
  490SOL    HW1 1469   0.759   0.473   0.434  1.3293  3.7809 -0.8288
  490SOL    HW2 1470   0.916   0.527   0.411  0.7452  1.0920 -1.5238
  491SOL     OW 1471   0.493   2.417   0.541 -0.1367  0.4001  0.0248
  491SOL    HW1 1472   0.571   2.361   0.501  0.4908  0.8027 -2.3949
  491SOL    HW2 1473   0.503   2.512   0.514  1.0148 -0.8521 -2.5475
  492SOL     OW 1474   1.163   1.567   2.535 -0.4381  0.4397 -0.7372
  492SOL    HW1 1475   1.243   1.585   2.597 -0.1874  1.6509  0.1905
  492SOL    HW2 1476   1.173   1.613   2.445  1.3664 -0.4231 -0.0057
  493SOL     OW 1477   0.001   2.756   0.899 -0.3094  0.1578  0.2712
  493SOL    HW1 1478   3.003   2.723   0.912  1.4377 -0.7981 -2.1525
  493SOL    HW2 1479   0.054   2.758   0.988 -1.5578  1.2714 -0.2640
  494SOL     OW 1480   2.901   2.079   0.117  0.0755  0.3344  0.1526
  494SOL    HW1 1481   2.841   2.047   0.195 -0.0009  2.1474  1.3040
  494SOL    HW2 1482   2.907   2.018   0.037 -1.2809  0.9722 -3.2339
  495SOL     OW 1483   2.707   1.879   2.897  0.1332  0.7968  0.6182
  495SOL    HW1 1484   2.670   1.918   2.809 -0.0420  1.6383  0.9682
  495SOL    HW2 1485   2.713   1.776   2.887  0.6167  0.3115 -2.5183
  496SOL     OW 1486   2.694   0.104   1.622  0.0023  0.0114  0.1688
  496SOL    HW1 1487   2.751   0.187   1.618 -0.8516 -1.9617  1.6749
  496SOL    HW2 1488   2.600   0.130   1.647 -0.0697 -0.2243  0.3754
  497SOL     OW 1489   2.667   0.895   3.066 -0.1395 -0.9288 -0.2767
  497SOL    HW1 1490   2.619   0.919   2.979  0.3025 -1.9089  0.3981
  497SOL    HW2 1491   2.705   0.801   3.071 -0.5868 -0.4283  0.3532
  498SOL     OW 1492   0.080   1.965   2.234 -0.1881 -0.1008 -0.0282
  498SOL    HW1 1493   0.015   2.024   2.187  2.6765 -2.8148 -1.3999
  498SOL    HW2 1494   0.104   2.011   2.324 -0.1323  2.5691  1.3700
  499SOL     OW 1495   0.936   2.209   2.853  0.0735  0.3764 -0.1999
  499SOL    HW1 1496   0.967   2.123   2.900  1.0934 -1.8214 -1.2637
  499SOL    HW2 1497   1.018   2.249   2.811 -2.3541 -4.0632  2.7786
  500SOL     OW 1498   1.598   2.968   3.055  0.4286 -0.5043 -0.7229
  500SOL    HW1 1499   1.679   2.992   3.002  0.6478  0.1121  1.6575
  500SOL    HW2 1500   1.578   3.041   0.029 -0.6448  1.9325  0.1971
  501SOL     OW 1501   1.505   3.091   1.560 -0.1553 -0.1333 -0.0699
  501SOL    HW1 1502   1.577   0.028   1.624  0.2027 -1.7583 -1.2679
  501SOL    HW2 1503   1.439   0.075   1.547 -0.1880 -1.0186  1.5238
  502SOL     OW 1504   2.744   0.775   2.102 -0.1974  0.1132  0.1035
  502SOL    HW1 1505   2.726   0.677   2.085  0.3804 -1.3963 -0.1184
  502SOL    HW2 1506   2.778   0.778   2.201  1.7812 -1.3313  2.2614
  503SOL     OW 1507   2.173   2.215   2.223 -0.1816  0.1681 -0.3872
  503SOL    HW1 1508   2.167   2.305   2.172  0.0070  3.9253 -1.5484
  503SOL    HW2 1509   2.088   2.199   2.279 -1.9609 -0.8312  2.0940
  504SOL     OW 1510   1.510   0.622   1.595  0.6048 -0.3009 -0.1432
  504SOL    HW1 1511   1.552   0.697   1.545  0.2149 -0.0114 -0.5281
  504SOL    HW2 1512   1.558   0.601   1.684  2.4458 -0.4248  2.8924
  505SOL     OW 1513   0.755   0.959   1.555  0.4505 -0.6208  0.2625
  505SOL    HW1 1514   0.715   0.901   1.484  0.9033  0.6922  1.1256
  505SOL    HW2 1515   0.854   0.931   1.578  0.6769 -1.3120 -0.3405
  506SOL     OW 1516   0.316   0.639   2.361  0.2051  0.2013 -0.5471
  506SOL    HW1 1517   0.304   0.607   2.266 -0.8368 -1.0789  1.1126
  506SOL    HW2 1518   0.295   0.567   2.426  0.4127 -0.2907 -1.7222
  507SOL     OW 1519   0.248   0.006   3.056  0.0840  0.2636  0.1175
  507SOL    HW1 1520   0.276   3.013   3.014  0.7796 -2.9430  0.0654
  507SOL    HW2 1521   0.165   0.049   3.016  2.5775 -0.6587 -1.7166
  508SOL     OW 1522   1.274   0.784   1.601  0.3534  0.0377  0.3438
  508SOL    HW1 1523   1.360   0.740   1.582 -1.2802 -0.6282  1.8678
  508SOL    HW2 1524   1.277   0.880   1.631  0.9159 -2.1526 -1.1284
  509SOL     OW 1525   1.141   2.110   1.351 -0.4721  0.3051  0.2020
  509SOL    HW1 1526   1.174   2.011   1.358  1.5078 -0.6538  1.3295
  509SOL    HW2 1527   1.213   2.182   1.339  0.1338  2.6692  0.0435
  510SOL     OW 1528   2.405   1.309   2.181  0.1235 -0.4629  0.0944
  510SOL    HW1 1529   2.366   1.278   2.269  1.7065 -0.9052  0.1511
  510SOL    HW2 1530   2.508   1.285   2.189  1.1438 -3.2114  2.2348
  511SOL     OW 1531   0.782   1.973   1.075  0.0124  0.1048  0.3151
  511SOL    HW1 1532   0.703   2.028   1.047 -0.1802 -1.3403  0.4866
  511SOL    HW2 1533   0.753   1.921   1.157 -0.4970  2.0967 -3.2724
  512SOL     OW 1534   2.664   2.130   0.521 -0.3379 -0.5571 -0.4803
  512SOL    HW1 1535   2.609   2.209   0.496 -0.8562 -0.8485 -1.8906
  512SOL    HW2 1536   2.604   2.072   0.579  2.6980  0.0574  0.3727
  513SOL     OW 1537   0.023   1.800   2.590  0.8166 -0.2610  0.1843
  513SOL    HW1 1538   0.112   1.759   2.568 -1.1323  1.0822 -3.7528
  513SOL    HW2 1539   3.065   1.738   2.656 -0.0350 -0.3575  3.8978
  514SOL     OW 1540   3.017   2.659   2.440 -0.1333  0.3868 -0.5485
  514SOL    HW1 1541   3.039   2.559   2.438  0.8084 -2.2256  1.3063
  514SOL    HW2 1542   2.994   2.698   2.348 -0.4263 -4.4336  2.9914
  515SOL     OW 1543   2.223   1.083   1.503  0.7605  0.6753  0.1056
  515SOL    HW1 1544   2.147   1.053   1.444 -0.0451  0.8939  2.0747
  515SOL    HW2 1545   2.217   1.183   1.524 -0.5423 -0.8685  0.5885
  516SOL     OW 1546   2.611   2.164   0.055 -0.2639 -0.6570 -0.0342
  516SOL    HW1 1547   2.618   2.220   3.067  0.1615  2.5952 -0.3784
  516SOL    HW2 1548   2.598   2.065   0.036  1.5272 -1.8426  1.4864
  517SOL     OW 1549   1.441   0.927   3.077 -0.0955 -0.1877 -0.0395
  517SOL    HW1 1550   1.532   0.917   3.038 -0.7893  0.6949 -0.9380
  517SOL    HW2 1551   1.416   0.836   0.027  0.2158  0.1441  2.4390
  518SOL     OW 1552   3.008   3.067   2.387  0.0512  0.5951  0.2454
  518SOL    HW1 1553   3.088   3.052   2.447  0.3491  0.4631 -0.6989
  518SOL    HW2 1554   2.939   2.991   2.396 -0.2474  0.2195 -0.7911
  519SOL     OW 1555   1.175   1.681   2.268  0.1354 -0.1322 -0.1879
  519SOL    HW1 1556   1.238   1.647   2.196 -0.1175 -2.2126 -2.4840
  519SOL    HW2 1557   1.179   1.782   2.281 -2.1419  0.8910 -0.6648
  520SOL     OW 1558   2.847   2.881   2.483 -0.3063 -0.1525 -0.1947
  520SOL    HW1 1559   2.895   2.794   2.490 -0.8283  1.7170  2.2298
  520SOL    HW2 1560   2.778   2.888   2.557  0.2581  2.2480  2.2599
  521SOL     OW 1561   0.195   1.605   1.958  0.6916 -0.2772 -0.2042
  521SOL    HW1 1562   0.271   1.582   2.019  1.2888 -0.9347  0.7305
  521SOL    HW2 1563   0.108   1.564   1.993  2.3593  0.0823  1.9912
  522SOL     OW 1564   0.706   2.821   1.773 -0.1877  0.0763  0.2908
  522SOL    HW1 1565   0.739   2.903   1.716 -3.7772  2.9005  0.0216
  522SOL    HW2 1566   0.702   2.855   1.868  0.1488  0.4233 -0.5959
  523SOL     OW 1567   0.211   2.601   1.368  0.3151  0.1195  0.4607
  523SOL    HW1 1568   0.228   2.501   1.398  1.1308 -1.3310  2.0631
  523SOL    HW2 1569   0.242   2.667   1.435  1.6991 -0.5825 -1.6729
  524SOL     OW 1570   1.520   2.550   0.632  0.4883  0.4482 -0.0688
  524SOL    HW1 1571   1.501   2.522   0.537 -1.4776 -0.3930  2.4216
  524SOL    HW2 1572   1.501   2.475   0.697  0.6541 -2.1684 -2.2266
  525SOL     OW 1573   2.432   0.969   1.065 -0.3359  0.5029  0.1197
  525SOL    HW1 1574   2.418   1.053   1.119 -0.1408  0.0767 -1.1553
  525SOL    HW2 1575   2.341   0.936   1.037  1.4919 -0.7630 -0.6925
  526SOL     OW 1576   0.872   2.144   0.670 -0.1134  0.3743  0.0052
  526SOL    HW1 1577   0.886   2.183   0.576 -2.8174 -0.8236 -1.8398
  526SOL    HW2 1578   0.949   2.092   0.710  1.0746 -0.7475  0.6236
  527SOL     OW 1579   2.566   2.191   0.866  0.0899 -0.0748  0.1539
  527SOL    HW1 1580   2.635   2.183   0.794  0.2774 -1.7557  1.1243
  527SOL    HW2 1581   2.472   2.220   0.832  0.0701 -0.7617  0.2191
  528SOL     OW 1582   2.116   0.560   0.087  0.6949  0.0506 -0.1074
  528SOL    HW1 1583   2.192   0.597   0.036 -0.4491 -0.8052  2.2297
  528SOL    HW2 1584   2.131   0.461   0.087  1.8128  2.1513 -2.0622
  529SOL     OW 1585   1.092   1.207   1.953  0.1822 -0.3082  0.0606
  529SOL    HW1 1586   1.038   1.185   2.038 -1.4301  0.4668  2.0938
  529SOL    HW2 1587   1.035   1.216   1.872 -0.5289 -0.4580 -0.3172
  530SOL     OW 1588   2.657   1.144   2.637 -0.0561 -0.2391 -0.2661
  530SOL    HW1 1589   2.754   1.178   2.659  1.9441 -1.0923 -0.4761
  530SOL    HW2 1590   2.652   1.094   2.551 -0.5091  1.5279 -1.7159
  531SOL     OW 1591   1.195   1.019   0.117 -0.1475 -0.0492  0.4515
  531SOL    HW1 1592   1.281   1.001   0.069  0.7670  2.3638  0.6755
  531SOL    HW2 1593   1.177   0.945   0.178  0.6841 -0.0487 -0.8903
  532SOL     OW 1594   1.954   0.814   0.648  0.8213 -0.4270  0.3396
  532SOL    HW1 1595   1.965   0.738   0.715 -0.0199  0.7603  0.4747
  532SOL    HW2 1596   2.002   0.794   0.561 -0.1797 -0.0335 -0.1502
  533SOL     OW 1597   0.464   0.756   2.134 -0.2336  0.3061 -0.5036
  533SOL    HW1 1598   0.391   0.702   2.089 -0.3536 -3.6282  0.7562
  533SOL    HW2 1599   0.514   0.696   2.200  3.0351 -0.6787  0.7065
  534SOL     OW 1600   1.538   0.046   2.636 -0.5063 -0.2333  0.2564
  534SOL    HW1 1601   1.585   0.128   2.670  1.2532 -0.2607 -1.5643
  534SOL    HW2 1602   1.500   3.082   2.711  0.8510 -0.2103  1.2938
  535SOL     OW 1603   0.772   0.006   0.262 -0.0542  0.1025  0.1178
  535SOL    HW1 1604   0.742   3.090   0.360  1.7981 -0.7066 -0.5275
  535SOL    HW2 1605   0.870   3.062   0.252  0.8119  1.6948 -3.4642
  536SOL     OW 1606   1.172   3.039   0.974 -0.5275  0.2652  0.5877
  536SOL    HW1 1607   1.226   0.014   1.017  1.2723  0.5318 -2.0422
  536SOL    HW2 1608   1.146   3.070   0.878  2.8325 -0.2239 -0.8779
  537SOL     OW 1609   1.501   2.748   1.887 -0.3501 -0.0303  0.0094
  537SOL    HW1 1610   1.525   2.714   1.981  1.4834  2.6416  2.0147
  537SOL    HW2 1611   1.587   2.749   1.830 -0.8829  1.4078  0.4189
  538SOL     OW 1612   0.514   2.730   2.762  0.3861 -0.2549  0.1764
  538SOL    HW1 1613   0.581   2.659   2.796 -2.5194  0.9983  0.3048
  538SOL    HW2 1614   0.457   2.691   2.689  0.4503  2.5296 -1.2214
  539SOL     OW 1615   3.006   1.604   1.761  0.5403  0.1078 -0.3769
  539SOL    HW1 1616   3.047   1.692   1.732  2.0234  1.9380 -0.6775
  539SOL    HW2 1617   2.972   1.603   1.857 -4.1446  0.4903  3.4264
  540SOL     OW 1618   2.430   2.500   2.167 -0.0832 -0.0550 -0.0079
  540SOL    HW1 1619   2.341   2.460   2.130 -2.8905 -0.5965 -2.0994
  540SOL    HW2 1620   2.507   2.451   2.123  0.7483  3.3813 -0.8641
  541SOL     OW 1621   0.198   2.829   1.570 -0.1402  0.2624  0.3445
  541SOL    HW1 1622   0.186   2.912   1.630  0.7316  0.2820  2.3256
  541SOL    HW2 1623   0.278   2.850   1.510 -1.0694  0.2793  1.1360
  542SOL     OW 1624   3.008   0.619   2.206 -0.0363  0.3204  0.0195
  542SOL    HW1 1625   3.069   0.697   2.190 -2.8703 -1.5853  2.4034
  542SOL    HW2 1626   3.003   0.555   2.127  0.3462  0.4891  0.3912
  543SOL     OW 1627   0.797   0.502   0.771 -0.7574 -0.4519 -0.1011
  543SOL    HW1 1628   0.896   0.478   0.760 -1.9801 -1.0799 -2.4470
  543SOL    HW2 1629   0.785   0.602   0.743  2.7823 -0.2874  0.6617
  544SOL     OW 1630   2.111   2.035   1.287 -0.5853 -0.4674  0.0655
  544SOL    HW1 1631   2.066   1.950   1.328 -2.4106 -1.0938  2.0972
  544SOL    HW2 1632   2.049   2.083   1.224  2.2436 -2.5724  0.7747
  545SOL     OW 1633   1.233   1.437   0.831  0.1488  0.3805 -0.2390
  545SOL    HW1 1634   1.322   1.403   0.865 -0.5234  0.3232  0.2486
  545SOL    HW2 1635   1.182   1.486   0.908 -0.7800 -1.1033  0.6526
  546SOL     OW 1636   2.777   0.461   2.290  0.1865  0.4839 -0.1281
  546SOL    HW1 1637   2.826   0.374   2.319  1.0442 -0.3574 -2.9234
  546SOL    HW2 1638   2.840   0.525   2.247 -0.7351  0.4561 -1.2363
  547SOL     OW 1639   2.842   0.527   2.845 -0.2882 -0.1406 -0.5708
  547SOL    HW1 1640   2.795   0.517   2.755 -0.3106 -0.0058 -0.9473
  547SOL    HW2 1641   2.937   0.566   2.828  0.5196 -1.1477 -1.6924
  548SOL     OW 1642   2.582   2.007   2.661  0.1271  0.3242 -0.2848
  548SOL    HW1 1643   2.651   2.052   2.600  0.2591  1.3183 -0.9391
  548SOL    HW2 1644   2.485   2.043   2.652 -0.4943 -0.0112 -2.0744
  549SOL     OW 1645   2.215   0.460   0.761 -0.2819 -0.4298  0.4660
  549SOL    HW1 1646   2.116   0.484   0.773 -1.6316 -0.4443 -2.3807
  549SOL    HW2 1647   2.274   0.520   0.818 -2.4909 -0.8179 -0.6000
  550SOL     OW 1648   2.549   1.426   0.572  0.0314 -0.2089 -0.0514
  550SOL    HW1 1649   2.505   1.337   0.547  1.8608  0.3541 -1.4251
  550SOL    HW2 1650   2.632   1.443   0.521 -1.4784  1.7693  0.5068
  551SOL     OW 1651   1.456   2.665   1.356 -0.0524  0.6612  0.1307
  551SOL    HW1 1652   1.393   2.632   1.285 -1.1203 -0.1879  0.9767
  551SOL    HW2 1653   1.410   2.736   1.400 -0.0969 -3.7342 -1.2297
  552SOL     OW 1654   2.418   2.414   2.468 -0.2164  0.0478 -0.2709
  552SOL    HW1 1655   2.408   2.445   2.373 -0.4913  0.1549 -0.2961
  552SOL    HW2 1656   2.326   2.388   2.502  0.6730  3.0943 -2.0364
  553SOL     OW 1657   0.783   2.689   0.519 -0.4096 -0.6575  0.1710
  553SOL    HW1 1658   0.826   2.599   0.548 -0.4889 -1.3393  0.2387
  553SOL    HW2 1659   0.681   2.683   0.524 -0.0401  1.0440  0.7747
  554SOL     OW 1660   1.867   2.427   1.743 -0.0707 -0.0285  0.0596
  554SOL    HW1 1661   1.788   2.387   1.693 -0.9245 -1.3980  0.5596
  554SOL    HW2 1662   1.924   2.352   1.782 -1.0976  0.6710  0.7927
  555SOL     OW 1663   1.595   2.312   2.104  0.0546  0.3634  0.7406
  555SOL    HW1 1664   1.629   2.262   2.024 -0.4670 -0.4339  2.0031
  555SOL    HW2 1665   1.616   2.410   2.117 -2.0519  1.9485  1.8491
  556SOL     OW 1666   1.283   0.508   0.742 -0.0194 -0.0348 -0.0214
  556SOL    HW1 1667   1.328   0.456   0.818 -0.9654 -0.3976  1.2170
  556SOL    HW2 1668   1.321   0.602   0.737  2.0659  0.0478  1.6679
  557SOL     OW 1669   0.918   2.099   1.487 -0.3185  0.0636  0.0911
  557SOL    HW1 1670   0.997   2.106   1.420  5.0115  1.4920 -0.6950
  557SOL    HW2 1671   0.936   2.163   1.564  1.9887  1.6650 -0.2686
  558SOL     OW 1672   2.849   1.372   2.373  0.2170  0.2091  0.1611
  558SOL    HW1 1673   2.860   1.464   2.335  0.5427  0.2806  0.9411
  558SOL    HW2 1674   2.878   1.366   2.471  0.0142  1.5502  2.4385
  559SOL     OW 1675   2.165   2.446   2.072 -0.0140  0.3947 -0.4544
  559SOL    HW1 1676   2.198   2.411   1.988 -0.6569  2.4571  4.5879
  559SOL    HW2 1677   2.066   2.465   2.066 -3.0936 -2.0154 -1.3268
  560SOL     OW 1678   0.478   0.244   2.398 -0.7197  0.2809 -0.3838
  560SOL    HW1 1679   0.579   0.224   2.387  0.9579  0.4448 -0.4841
  560SOL    HW2 1680   0.428   0.180   2.458 -2.7236  2.6335  0.0914
  561SOL     OW 1681   1.212   0.606   0.422  0.1731 -0.2323 -0.1887
  561SOL    HW1 1682   1.314   0.599   0.409 -2.8105  0.9339 -2.7906
  561SOL    HW2 1683   1.181   0.694   0.378  1.3306  0.7783 -0.8017
  562SOL     OW 1684   0.699   1.270   1.813  0.3453 -0.5494 -0.2294
  562SOL    HW1 1685   0.656   1.351   1.764 -0.3931  0.7692  0.2259
  562SOL    HW2 1686   0.798   1.258   1.793 -0.4403 -2.1943  0.4604
  563SOL     OW 1687   1.981   2.128   0.216  0.3532 -0.1136  0.3096
  563SOL    HW1 1688   2.081   2.130   0.186  0.5823  0.1718  1.7099
  563SOL    HW2 1689   1.973   2.103   0.313  1.6243  1.9063 -1.4571
  564SOL     OW 1690   2.776   2.504   0.695 -0.1502 -0.6839 -0.0500
  564SOL    HW1 1691   2.691   2.510   0.639  2.0125  2.3553  1.2419
  564SOL    HW2 1692   2.792   2.409   0.731 -1.4010  1.3842  1.4698
  565SOL     OW 1693   0.370   0.073   2.590  0.0070  0.1813  0.1066
  565SOL    HW1 1694   0.337   0.111   2.679 -0.4412  0.1421  4.1348
  565SOL    HW2 1695   0.442   0.003   2.617 -0.9222  1.0058 -1.7279
  566SOL     OW 1696   1.430   2.770   2.587 -0.3953  0.4424  0.0573
  566SOL    HW1 1697   1.436   2.667   2.592 -0.7834 -0.2468  1.0214
  566SOL    HW2 1698   1.412   2.818   2.673  1.4826 -2.1045 -0.5014
  567SOL     OW 1699   1.990   1.801   1.342 -0.0221  0.5636  0.1180
  567SOL    HW1 1700   2.032   1.735   1.277 -0.6489  1.9254 -0.0865
  567SOL    HW2 1701   1.896   1.823   1.315 -1.6795 -1.0186 -2.5201
  568SOL     OW 1702   1.977   0.900   2.984  0.2028  0.7094  0.2536
  568SOL    HW1 1703   1.970   0.799   2.988  1.0318 -1.5241 -2.1315
  568SOL    HW2 1704   2.076   0.932   2.994 -1.2885 -0.0263 -1.9503
  569SOL     OW 1705   2.182   2.067   1.963 -0.6166  0.1868 -0.0126
  569SOL    HW1 1706   2.174   1.965   1.969  2.9337  1.2128  0.0731
  569SOL    HW2 1707   2.195   2.112   2.055 -0.0977 -1.5769  0.1141
  570SOL     OW 1708   2.819   2.797   1.871  0.1427 -0.2070  0.5107
  570SOL    HW1 1709   2.806   2.845   1.962 -0.0694 -1.4311  1.9415
  570SOL    HW2 1710   2.895   2.728   1.882  1.9198  1.1141  1.2940
  571SOL     OW 1711   0.200   0.984   1.438  0.2979 -0.2496 -0.1197
  571SOL    HW1 1712   0.233   0.976   1.342 -0.9349 -3.4688  0.9052
  571SOL    HW2 1713   0.099   0.992   1.444 -3.1521 -1.2341  0.0886
  572SOL     OW 1714   0.050   1.480   1.189  0.3904 -0.1179  0.0095
  572SOL    HW1 1715   3.058   1.431   1.202  0.1718  0.1745 -1.2613
  572SOL    HW2 1716   0.042   1.535   1.099  0.4379  0.7634 -2.9851
  573SOL     OW 1717   0.958   0.714   0.301  0.0301 -0.4980 -0.0611
  573SOL    HW1 1718   0.857   0.714   0.309 -1.8589 -1.5242 -1.0654
  573SOL    HW2 1719   1.002   0.809   0.309 -1.8516 -0.7060 -1.4558
  574SOL     OW 1720   0.443   0.209   0.033 -0.3810 -0.3895 -0.4285
  574SOL    HW1 1721   0.470   0.275   3.057 -1.7181  0.6262 -1.6660
  574SOL    HW2 1722   0.378   0.144   3.091  2.9258 -0.8888  1.9830
  575SOL     OW 1723   0.823   2.322   0.855 -0.1219 -0.0430  0.0306
  575SOL    HW1 1724   0.823   2.250   0.783 -1.0028  0.7343  0.7940
  575SOL    HW2 1725   0.801   2.281   0.947 -0.1769 -1.3195  1.4705
  576SOL     OW 1726   2.931   2.723   1.214  0.5771 -0.3332  0.1194
  576SOL    HW1 1727   2.889   2.803   1.165  1.4374  1.8505  1.5293
  576SOL    HW2 1728   2.908   2.725   1.316 -2.7651  2.4285 -0.9448
  577SOL     OW 1729   2.725   1.890   1.955  0.5489  0.0410 -0.3859
  577SOL    HW1 1730   2.673   1.967   2.003  0.6225 -0.4603  0.8421
  577SOL    HW2 1731   2.792   1.934   1.893 -2.2414 -0.2186  0.2632
  578SOL     OW 1732   1.118   2.976   2.576  0.5097  0.2043  0.1456
  578SOL    HW1 1733   1.077   2.924   2.499 -0.9696 -1.9416 -0.1706
  578SOL    HW2 1734   1.077   2.961   2.669  0.6406  0.9400  1.4399
  579SOL     OW 1735   1.929   1.813   2.032 -0.2826  0.6420 -0.0851
  579SOL    HW1 1736   1.862   1.812   1.953 -2.2920  0.6361 -0.1694
  579SOL    HW2 1737   1.999   1.737   2.023 -0.0830  0.8566 -0.8269
  580SOL     OW 1738   1.580   0.709   2.332  0.0165 -0.1751  0.4641
  580SOL    HW1 1739   1.587   0.704   2.231  0.9504 -2.0898  0.1764
  580SOL    HW2 1740   1.660   0.671   2.376 -1.0732 -0.9105 -1.3926
  581SOL     OW 1741   0.757   1.379   2.306  0.2847  0.3227  0.0716
  581SOL    HW1 1742   0.818   1.451   2.273 -4.5642 -0.2375 -0.1110
  581SOL    HW2 1743   0.814   1.330   2.378  2.5820 -1.1856 -0.4120
  582SOL     OW 1744   0.149   2.630   1.750 -0.2431 -0.5814  0.1683
  582SOL    HW1 1745   0.222   2.624   1.818 -0.7533  0.1810  0.2824
  582SOL    HW2 1746   0.162   2.713   1.686  0.4296 -0.1788 -2.0613
  583SOL     OW 1747   1.366   1.398   1.460 -0.4457  0.2106 -0.1833
  583SOL    HW1 1748   1.402   1.330   1.527 -0.1886  0.6614 -1.8072
  583SOL    HW2 1749   1.306   1.464   1.501  1.4342 -2.9016 -1.1194
  584SOL     OW 1750   1.342   1.917   2.766 -0.7877  0.0129  0.0479
  584SOL    HW1 1751   1.418   1.853   2.753 -1.1191  1.2984 -0.5267
  584SOL    HW2 1752   1.378   2.010   2.788 -0.1568 -4.2209 -2.3906
  585SOL     OW 1753   0.215   2.436   0.190  0.5777  0.2584  0.3750
  585SOL    HW1 1754   0.226   2.379   0.107 -2.6081  0.0542 -1.4911
  585SOL    HW2 1755   0.153   2.395   0.262 -2.1920 -2.2096  0.9779
  586SOL     OW 1756   2.079   1.857   0.657 -0.5680  0.1509 -1.0512
  586SOL    HW1 1757   1.990   1.810   0.641  1.1937  0.6867  2.0360
  586SOL    HW2 1758   2.086   1.913   0.744 -4.0222  0.5941 -0.8580
  587SOL     OW 1759   2.819   2.225   0.716 -0.1762 -0.1407 -0.5252
  587SOL    HW1 1760   2.905   2.182   0.749 -0.4586 -1.0147  1.0875
  587SOL    HW2 1761   2.801   2.199   0.618  0.7957 -2.1424  0.6258
  588SOL     OW 1762   2.344   0.235   1.146 -0.7513  0.3100  0.0245
  588SOL    HW1 1763   2.401   0.243   1.227 -2.4621  0.3011  0.1415
  588SOL    HW2 1764   2.288   0.321   1.139  0.8985  1.1525  0.2724
  589SOL     OW 1765   0.696   0.639   0.996 -0.0381  0.1081 -0.5327
  589SOL    HW1 1766   0.716   0.567   0.926  0.0647 -1.9610 -0.8007
  589SOL    HW2 1767   0.773   0.647   1.064  1.1978  2.3690  1.4894
  590SOL     OW 1768   2.636   2.372   0.239 -0.6614  0.2679  0.3186
  590SOL    HW1 1769   2.637   2.292   0.173  0.2823 -0.6997  0.1612
  590SOL    HW2 1770   2.728   2.409   0.259  2.6953 -1.0965  0.6945
  591SOL     OW 1771   0.633   2.210   1.744  0.5251  0.5001 -0.1485
  591SOL    HW1 1772   0.565   2.133   1.760 -1.5934 -0.2712  0.4817
  591SOL    HW2 1773   0.593   2.270   1.667  0.9216  0.9470  1.5062
  592SOL     OW 1774   0.631   1.366   1.431  0.3062 -0.4661 -0.0105
  592SOL    HW1 1775   0.729   1.334   1.425  0.2131  3.6594  2.8150
  592SOL    HW2 1776   0.563   1.292   1.438 -1.3674 -0.9771 -0.0414
  593SOL     OW 1777   0.971   2.189   1.177 -0.1446  0.3817  0.1712
  593SOL    HW1 1778   1.038   2.160   1.248 -1.1638 -3.8731  0.0957
  593SOL    HW2 1779   0.907   2.109   1.157  1.2755  0.2010  1.6603
  594SOL     OW 1780   0.832   1.154   2.725  0.2426  0.6373 -0.1154
  594SOL    HW1 1781   0.889   1.071   2.752  3.5908 -0.6178 -0.0764
  594SOL    HW2 1782   0.781   1.192   2.802  0.6765 -1.1427 -2.5580
  595SOL     OW 1783   1.354   0.620   1.014  0.3903  0.1439  0.0770
  595SOL    HW1 1784   1.401   0.697   0.972 -1.0963 -0.2789 -0.0229
  595SOL    HW2 1785   1.287   0.645   1.088 -0.0811  3.0722 -0.2273
  596SOL     OW 1786   0.210   1.305   0.830 -0.0048 -0.2643  0.7934
  596SOL    HW1 1787   0.316   1.303   0.814  4.2933 -0.1189  0.8861
  596SOL    HW2 1788   0.175   1.224   0.780 -0.2803  0.4697 -0.3411
  597SOL     OW 1789   0.093   1.994   2.897  0.0875 -0.3359 -0.9198
  597SOL    HW1 1790   0.005   1.960   2.939 -1.7934 -0.9264  2.7723
  597SOL    HW2 1791   0.126   2.071   2.954 -0.9140  0.0596  1.0491
  598SOL     OW 1792   1.920   2.162   2.402  0.4747  0.2132 -0.4719
  598SOL    HW1 1793   1.858   2.241   2.385 -1.8751  1.8905  0.3513
  598SOL    HW2 1794   1.882   2.072   2.360 -0.0295 -1.8095  0.5927
  599SOL     OW 1795   1.345   0.311   0.517  0.3096  0.3841  0.2341
  599SOL    HW1 1796   1.316   0.327   0.422 -0.7059  0.4085 -0.5929
  599SOL    HW2 1797   1.326   0.391   0.575  0.1229  0.5333  0.1665
  600SOL     OW 1798   0.939   2.887   0.418 -0.3683 -0.1773  0.1256
  600SOL    HW1 1799   0.853   2.856   0.469 -1.3233  0.1556  1.4436
  600SOL    HW2 1800   1.017   2.893   0.489 -0.5749  0.3104  2.2834
  601SOL     OW 1801   0.619   0.294   1.156 -0.0599 -0.0517  0.0135
  601SOL    HW1 1802   0.562   0.378   1.138 -0.4353  0.8884  1.4040
  601SOL    HW2 1803   0.714   0.325   1.191  1.3915  0.9855  2.1281
  602SOL     OW 1804   0.095   3.024   0.574 -0.3282 -0.4009 -0.1418
  602SOL    HW1 1805   0.055   2.932   0.603 -0.8859 -0.0737  0.3418
  602SOL    HW2 1806   0.017   3.096   0.557 -3.0720  2.9203 -0.7536
  603SOL     OW 1807   0.855   2.610   2.344 -0.2304 -0.2422 -0.2363
  603SOL    HW1 1808   0.780   2.670   2.297 -1.0843  0.2001  0.3316
  603SOL    HW2 1809   0.820   2.576   2.433 -0.3814 -2.2136 -2.1564
  604SOL     OW 1810   0.931   2.523   2.935  0.1516 -0.4249 -0.1841
  604SOL    HW1 1811   0.899   2.478   3.020 -2.1192  1.1948  0.7800
  604SOL    HW2 1812   0.951   2.454   2.866  2.0958 -1.8664  3.8680
  605SOL     OW 1813   1.020   0.857   1.588  0.4197  0.2631  0.1358
  605SOL    HW1 1814   1.112   0.818   1.568  0.7280  0.6721  1.0890
  605SOL    HW2 1815   1.001   0.850   1.687  0.1998  2.1275  0.4201
  606SOL     OW 1816   1.410   0.398   2.637 -0.2616 -0.2879 -0.0143
  606SOL    HW1 1817   1.477   0.478   2.631  0.4622 -4.2257  1.7105
  606SOL    HW2 1818   1.444   0.348   2.713  0.4695  1.5017 -2.5527
  607SOL     OW 1819   0.145   1.173   1.071 -0.0140 -0.3216  0.2260
  607SOL    HW1 1820   0.187   1.213   1.156 -0.1456 -0.4620 -1.4200
  607SOL    HW2 1821   0.178   1.230   0.990  0.2334 -0.1284  1.4311
  608SOL     OW 1822   2.915   2.347   2.243  0.2406 -0.3067  0.0457
  608SOL    HW1 1823   2.849   2.425   2.233  0.2204 -0.4962  2.5774
  608SOL    HW2 1824   3.000   2.381   2.289 -0.5769 -2.3701 -2.5605
  609SOL     OW 1825   1.808   0.372   0.214 -0.3256 -0.4212  0.4673
  609SOL    HW1 1826   1.863   0.324   0.140  0.9996 -1.5210  0.1796
  609SOL    HW2 1827   1.730   0.430   0.175  1.3531  1.2948  0.4220
  610SOL     OW 1828   0.871   2.760   0.876  0.7621  0.2871  0.2405
  610SOL    HW1 1829   0.815   2.846   0.855 -1.5317  2.6247  0.8550
  610SOL    HW2 1830   0.963   2.781   0.918  0.2847  1.5730  0.7855
  611SOL     OW 1831   0.637   1.289   0.364  0.3026 -0.5223  0.3640
  611SOL    HW1 1832   0.690   1.335   0.288 -0.4969  1.8339  2.8665
  611SOL    HW2 1833   0.559   1.241   0.318  0.9010 -0.0229 -2.8820
  612SOL     OW 1834   0.977   0.475   2.396 -0.2687  0.2379  0.1871
  612SOL    HW1 1835   0.909   0.551   2.394 -1.4250  0.7713  0.6018
  612SOL    HW2 1836   1.068   0.500   2.443  0.8524 -2.9515  0.1421
  613SOL     OW 1837   2.395   1.217   0.535  0.6419 -0.0424 -0.4668
  613SOL    HW1 1838   2.344   1.199   0.624 -0.5824  0.2497  2.6463
  613SOL    HW2 1839   2.356   1.166   0.459  0.1728  1.2874  1.6978
  614SOL     OW 1840   1.647   0.513   1.816 -0.3480 -0.4438  0.2557
  614SOL    HW1 1841   1.578   0.542   1.881  0.8395  0.5942 -1.2185
  614SOL    HW2 1842   1.689   0.426   1.839 -0.0241 -0.4239  0.8470
  615SOL     OW 1843   0.596   2.156   0.985  0.3475  0.2150 -0.2765
  615SOL    HW1 1844   0.561   2.088   0.917 -2.8073  3.3727 -0.1457
  615SOL    HW2 1845   0.586   2.245   0.943  0.4815 -2.2673  0.7403
  616SOL     OW 1846   1.621   1.047   2.507  0.9955  0.1150 -0.5477
  616SOL    HW1 1847   1.632   1.149   2.477  1.7299  0.9932  2.2661
  616SOL    HW2 1848   1.697   1.013   2.570 -0.7095 -2.6913  1.2321
  617SOL     OW 1849   1.805   2.670   0.164 -0.6534 -0.5839 -0.5233
  617SOL    HW1 1850   1.714   2.701   0.128  0.8789 -0.5570  0.7222
  617SOL    HW2 1851   1.831   2.574   0.140 -0.4469  0.4361  1.8586
  618SOL     OW 1852   0.811   0.786   2.980  0.5283 -0.0617 -0.3176
  618SOL    HW1 1853   0.733   0.742   2.925 -0.4468 -1.1505 -1.4993
  618SOL    HW2 1854   0.769   0.838   3.057  0.4166  1.0278  1.8083
  619SOL     OW 1855   2.584   1.279   0.797 -0.0969  0.0843 -0.3608
  619SOL    HW1 1856   2.642   1.196   0.790  0.3621 -0.2833 -1.2583
  619SOL    HW2 1857   2.578   1.326   0.708 -0.6054  1.3653  0.7644
  620SOL     OW 1858   2.520   2.802   2.905  0.0762 -0.1862  0.1294
  620SOL    HW1 1859   2.425   2.766   2.883 -1.3393  0.4222 -1.9272
  620SOL    HW2 1860   2.554   2.763   2.989 -2.0687  1.9442 -1.2160
  621SOL     OW 1861   2.304   0.984   0.325  0.4728  0.1575  0.0661
  621SOL    HW1 1862   2.261   0.894   0.312  3.1612  0.0228 -1.5211
  621SOL    HW2 1863   2.250   1.068   0.302 -0.8486  1.7369 -1.9323
  622SOL     OW 1864   1.102   2.276   2.479 -0.3599  0.2203  0.0195
  622SOL    HW1 1865   1.106   2.184   2.522  3.6008  2.2951 -1.5335
  622SOL    HW2 1866   1.066   2.339   2.552 -2.0073 -0.5758  2.2321
  623SOL     OW 1867   0.458   1.774   3.001 -0.1404  0.1433  0.1057
  623SOL    HW1 1868   0.358   1.760   2.987 -2.3350 -1.5225 -0.9353
  623SOL    HW2 1869   0.472   1.876   3.013  1.0239  1.9184 -1.1015
  624SOL     OW 1870   0.383   0.186   2.839  0.1444  0.1705 -0.1297
  624SOL    HW1 1871   0.439   0.104   2.868  2.7041 -0.7078  1.8744
  624SOL    HW2 1872   0.289   0.175   2.873  0.5703  1.2883  0.4421
  625SOL     OW 1873   0.858   1.898   0.252 -0.3967 -0.0438 -0.7359
  625SOL    HW1 1874   0.810   1.925   0.165  2.8096 -1.4163 -1.3690
  625SOL    HW2 1875   0.803   1.895   0.336  0.5598 -0.5629  0.7357
  626SOL     OW 1876   2.400   0.142   0.274 -0.2036  0.1141 -0.2493
  626SOL    HW1 1877   2.480   0.100   0.223 -0.8417 -1.5169 -1.4571
  626SOL    HW2 1878   2.398   0.247   0.268  0.3595 -1.5457 -2.1340
  627SOL     OW 1879   1.250   0.968   2.864  0.3385  1.0324 -0.2874
  627SOL    HW1 1880   1.314   0.952   2.944 -0.9370 -0.3866  0.3026
  627SOL    HW2 1881   1.267   1.057   2.819  1.5498 -4.1711  1.3238
  628SOL     OW 1882   1.178   0.565   2.584  0.0562 -0.2944 -0.3510
  628SOL    HW1 1883   1.252   0.499   2.598 -0.5731  0.5791  1.0881
  628SOL    HW2 1884   1.229   0.653   2.597  1.8226  0.7493 -0.3234
  629SOL     OW 1885   0.226   3.040   1.719 -0.4022 -0.2583  0.1500
  629SOL    HW1 1886   0.308   3.034   1.779 -1.7886 -0.5592 -0.1911
  629SOL    HW2 1887   0.243   0.017   1.655 -2.3643 -3.2144  0.3134
  630SOL     OW 1888   2.443   1.041   1.919  0.0613  0.6949 -0.3505
  630SOL    HW1 1889   2.401   1.035   2.013  0.9344 -2.2029  1.1530
  630SOL    HW2 1890   2.517   0.973   1.902 -0.7352 -0.5143 -0.6719
  631SOL     OW 1891   2.283   1.097   0.777 -0.6887 -0.2578  0.2919
  631SOL    HW1 1892   2.299   1.173   0.839 -3.1920 -1.9350 -0.4641
  631SOL    HW2 1893   2.263   1.013   0.826 -0.1420 -0.9052 -2.1465
  632SOL     OW 1894   2.647   0.645   1.700  0.2280  0.3522 -0.9935
  632SOL    HW1 1895   2.702   0.568   1.733  0.3684  1.5310  0.2360
  632SOL    HW2 1896   2.643   0.653   1.596 -1.1537  1.4223 -2.9028
  633SOL     OW 1897   1.050   2.719   3.082 -0.1373 -0.2412 -0.7726
  633SOL    HW1 1898   1.001   2.652   3.021 -0.0381  0.7861  2.8014
  633SOL    HW2 1899   1.011   2.725   0.080  0.5966  2.6276 -0.3927
  634SOL     OW 1900   1.627   2.637   2.945 -0.2383  0.2109 -0.4538
  634SOL    HW1 1901   1.603   2.678   3.037 -0.5066  1.4070  2.0884
  634SOL    HW2 1902   1.726   2.656   2.931  0.7516  0.1152  0.7021
  635SOL     OW 1903   2.699   0.447   0.186 -0.1225  0.2297  0.4989
  635SOL    HW1 1904   2.714   0.465   0.089 -0.4976 -3.8032 -2.0729
  635SOL    HW2 1905   2.596   0.460   0.204 -0.7624 -0.4144 -3.2445
  636SOL     OW 1906   0.468   1.606   0.655  0.3922  0.3814  0.3271
  636SOL    HW1 1907   0.540   1.616   0.724  0.6235  1.2456 -0.2743
  636SOL    HW2 1908   0.482   1.519   0.604 -2.5462 -4.0680 -0.3653
  637SOL     OW 1909   0.357   2.698   0.243 -0.1095 -0.2750 -0.5017
  637SOL    HW1 1910   0.308   2.620   0.200 -2.2850 -0.6421 -1.8700
  637SOL    HW2 1911   0.293   2.779   0.259 -3.2344  0.1631  1.1695
  638SOL     OW 1912   3.089   2.623   0.256  0.1173  0.3262  0.7735
  638SOL    HW1 1913   0.075   2.591   0.209  0.2789 -0.2820 -1.0504
  638SOL    HW2 1914   0.009   2.617   0.354 -0.5413  0.3539  0.5567
  639SOL     OW 1915   1.145   1.303   0.452 -0.2352  0.4179 -1.0193
  639SOL    HW1 1916   1.247   1.290   0.436  0.5951 -0.8616  1.7367
  639SOL    HW2 1917   1.128   1.395   0.497  0.8158  0.4538  1.0772
  640SOL     OW 1918   1.412   2.422   1.010  0.9122 -0.0444 -0.4694
  640SOL    HW1 1919   1.475   2.406   1.087 -0.1113  2.0455 -0.4216
  640SOL    HW2 1920   1.441   2.374   0.926  0.1933 -4.1995  1.3162
  641SOL     OW 1921   2.851   2.662   0.895  0.1043  0.2549 -0.1179
  641SOL    HW1 1922   2.826   2.610   0.813 -2.5241  0.1504  2.0326
  641SOL    HW2 1923   2.814   2.631   0.990 -2.3436  0.9810  0.4559
  642SOL     OW 1924   0.794   0.069   1.903 -0.1314  0.0136 -0.4897
  642SOL    HW1 1925   0.893   0.046   1.907  0.9983  2.0270 -0.6167
  642SOL    HW2 1926   0.761   0.089   1.811  2.0701  0.1790  0.1557
  643SOL     OW 1927   0.817   2.134   2.533 -0.0085  0.8157 -0.1069
  643SOL    HW1 1928   0.841   2.234   2.531 -0.6051  0.6993  0.2991
  643SOL    HW2 1929   0.784   2.098   2.621 -0.4476 -3.2281  0.1562
  644SOL     OW 1930   1.177   2.530   0.698 -0.2356  0.6665 -0.0534
  644SOL    HW1 1931   1.198   2.431   0.684  0.3302  2.5654 -2.3414
  644SOL    HW2 1932   1.077   2.536   0.698  1.8706  0.6365 -1.8149
  645SOL     OW 1933   1.304   1.361   2.065 -0.2007 -0.2041 -0.3191
  645SOL    HW1 1934   1.223   1.313   2.032 -0.9940 -0.1979 -0.4732
  645SOL    HW2 1935   1.338   1.320   2.150 -0.7189  0.8183 -1.8711
  646SOL     OW 1936   0.449   1.072   0.045 -0.3535 -0.3932  0.5430
  646SOL    HW1 1937   0.379   1.092   3.068  0.2964 -1.6616  0.4380
  646SOL    HW2 1938   0.418   1.118   0.133 -2.8500  2.9908 -0.4969
  647SOL     OW 1939   1.436   0.203   0.818  0.5004 -0.0374  0.5426
  647SOL    HW1 1940   1.494   0.117   0.827 -1.6334 -0.6934  1.9956
  647SOL    HW2 1941   1.477   0.274   0.760  0.3123 -0.7383  0.5465
  648SOL     OW 1942   2.557   2.777   1.518 -0.0860 -0.5281  0.4304
  648SOL    HW1 1943   2.553   2.822   1.608  3.1858 -0.7874 -1.5852
  648SOL    HW2 1944   2.499   2.700   1.515 -0.7141  1.3304 -1.8644
  649SOL     OW 1945   0.776   2.110   0.062 -0.1953  0.3990  0.3849
  649SOL    HW1 1946   0.880   2.114   0.057 -2.3225  0.6983  1.7327
  649SOL    HW2 1947   0.722   2.076   3.083  1.0334  0.2626 -1.3599
  650SOL     OW 1948   2.777   2.185   1.589  0.2334  0.1685  0.0697
  650SOL    HW1 1949   2.782   2.281   1.561 -0.2529 -0.0305 -0.3977
  650SOL    HW2 1950   2.704   2.129   1.543 -2.4550 -0.8785 -0.4369
  651SOL     OW 1951   0.052   0.150   2.936  0.0707 -0.6821  0.3891
  651SOL    HW1 1952   0.027   0.139   2.836 -0.1793  1.6747 -1.2630
  651SOL    HW2 1953   3.090   0.224   2.977 -0.1620 -1.3423 -0.4157
  652SOL     OW 1954   2.222   1.797   0.230  0.1026 -0.6001  0.4072
  652SOL    HW1 1955   2.251   1.857   0.153  0.0484  0.2475 -0.9274
  652SOL    HW2 1956   2.287   1.812   0.307  0.9714 -0.4712 -1.3013
  653SOL     OW 1957   0.197   0.064   0.780  0.1309  0.3152  0.0712
  653SOL    HW1 1958   0.142   0.063   0.864  0.6440 -0.1362 -2.5431
  653SOL    HW2 1959   0.149   0.026   0.701  0.2571 -0.1077 -0.1475
  654SOL     OW 1960   1.345   3.020   0.159 -0.2135 -0.1324  0.1800
  654SOL    HW1 1961   1.347   3.010   0.260  0.6971  1.8091 -0.1077
  654SOL    HW2 1962   1.421   3.078   0.129  0.6571  0.3654  1.7512
  655SOL     OW 1963   0.786   2.721   1.138  0.5072  0.1735  1.0223
  655SOL    HW1 1964   0.806   2.702   1.039 -1.4745 -2.5834  0.7115
  655SOL    HW2 1965   0.816   2.638   1.186  0.7191  1.5739  0.5039
  656SOL     OW 1966   0.437   0.127   2.129  0.1002  0.2428  0.0339
  656SOL    HW1 1967   0.444   0.167   2.223  1.1583  2.0145  0.0681
  656SOL    HW2 1968   0.441   0.203   2.065  1.9204 -1.8054  2.1107
  657SOL     OW 1969   1.775   0.636   2.510  0.2549  0.0446 -0.0810
  657SOL    HW1 1970   1.783   0.537   2.540 -0.3426 -1.2416  1.4212
  657SOL    HW2 1971   1.867   0.680   2.504 -0.7031 -1.6948 -0.1632
  658SOL     OW 1972   2.145   1.607   1.220 -0.3804  0.1520  0.2423
  658SOL    HW1 1973   2.085   1.527   1.228 -0.3063  1.9895 -0.4284
  658SOL    HW2 1974   2.246   1.583   1.228  0.4647 -0.3650  2.4415
  659SOL     OW 1975   2.812   2.776   2.901  0.1745 -0.1396  0.1430
  659SOL    HW1 1976   2.845   2.874   2.889 -0.8926  2.2350 -0.1765
  659SOL    HW2 1977   2.713   2.775   2.935 -0.4701  1.6186 -0.0226
  660SOL     OW 1978   1.310   0.694   0.086 -0.4422  0.0809 -0.2781
  660SOL    HW1 1979   1.241   0.638   0.038  0.3295  1.5131  0.1255
  660SOL    HW2 1980   1.350   0.655   0.171  0.5792 -1.5757  0.5021
  661SOL     OW 1981   2.419   2.783   0.997 -0.1643 -0.1991 -0.1360
  661SOL    HW1 1982   2.487   2.825   0.934 -0.3990 -0.2815  0.4294
  661SOL    HW2 1983   2.425   2.680   0.989 -2.1304 -1.5589 -0.0459
  662SOL     OW 1984   0.612   0.465   0.522 -0.2094 -0.1944 -0.2848
  662SOL    HW1 1985   0.581   0.409   0.606 -1.0075 -1.7011  0.8094
  662SOL    HW2 1986   0.543   0.452   0.446 -1.9011  1.1347  0.9852
  663SOL     OW 1987   1.325   2.391   2.406 -0.2458  0.2235  0.0053
  663SOL    HW1 1988   1.413   2.335   2.397  1.2331  1.0393 -0.3607
  663SOL    HW2 1989   1.240   2.328   2.426  1.0362 -2.3831  2.1910
  664SOL     OW 1990   0.625   2.474   1.330 -0.0784 -0.3045  0.5008
  664SOL    HW1 1991   0.725   2.478   1.321 -2.4294  2.4810  0.1230
  664SOL    HW2 1992   0.588   2.571   1.315 -0.6842 -0.2066  1.7163
  665SOL     OW 1993   1.439   1.939   1.495 -0.1848 -0.7321 -0.1836
  665SOL    HW1 1994   1.418   1.910   1.592 -0.1446  1.7728 -2.1684
  665SOL    HW2 1995   1.368   1.902   1.437 -2.1029  0.3831  0.5641
  666SOL     OW 1996   0.357   2.867   2.942  0.5248  0.2100 -0.4736
  666SOL    HW1 1997   0.412   2.947   2.910 -0.3518 -0.6677 -1.6197
  666SOL    HW2 1998   0.386   2.784   2.897 -1.8167  2.7456  0.7340
  667SOL     OW 1999   1.659   1.626   1.443 -0.6529  0.0554 -0.0476
  667SOL    HW1 2000   1.745   1.611   1.495  0.6509 -0.1231 -3.3227
  667SOL    HW2 2001   1.571   1.626   1.499 -2.0166 -0.3612  2.8903
  668SOL     OW 2002   1.028   3.048   2.262 -0.3611  0.2611 -0.1705
  668SOL    HW1 2003   1.027   3.031   2.159 -2.1716  1.7084 -2.4820
  668SOL    HW2 2004   1.081   0.037   2.294  0.4113  2.0633  1.7524
  669SOL     OW 2005   2.284   2.447   1.813 -0.1789  1.0947 -0.3018
  669SOL    HW1 2006   2.214   2.434   1.739 -1.9889  1.4572  1.2952
  669SOL    HW2 2007   2.381   2.428   1.784  2.7970  2.1351 -0.3638
  670SOL     OW 2008   2.399   1.846   0.436  0.2931 -0.1695  0.0836
  670SOL    HW1 2009   2.436   1.912   0.505 -1.5657  0.2972 -1.4069
  670SOL    HW2 2010   2.379   1.758   0.485 -1.9508 -1.6562 -1.6397
  671SOL     OW 2011   1.351   1.108   1.239 -0.0540 -0.1205  0.0948
  671SOL    HW1 2012   1.337   1.079   1.144 -1.1381 -2.9478  1.3674
  671SOL    HW2 2013   1.450   1.130   1.261 -5.3212 -1.6512  2.8930
  672SOL     OW 2014   2.348   1.540   2.301 -0.1787  0.3429  0.4259
  672SOL    HW1 2015   2.410   1.619   2.270  1.1190 -1.3303 -0.5863
  672SOL    HW2 2016   2.352   1.463   2.231  0.8444  0.7995 -2.1258
  673SOL     OW 2017   2.567   1.717   2.210  0.8443  0.3154  0.7204
  673SOL    HW1 2018   2.559   1.813   2.178 -1.1232  1.5475  0.3390
  673SOL    HW2 2019   2.659   1.683   2.226 -0.6292  4.4139 -1.2568
  674SOL     OW 2020   1.055   2.795   2.383 -0.0852  0.6036 -0.3995
  674SOL    HW1 2021   0.979   2.736   2.362 -0.2141 -0.3316 -0.2366
  674SOL    HW2 2022   1.063   2.879   2.325  0.1235 -0.5606 -0.8356
  675SOL     OW 2023   0.549   0.959   1.230 -0.1543 -0.6281  0.0237
  675SOL    HW1 2024   0.557   0.972   1.130 -0.5603  3.3016  1.3037
  675SOL    HW2 2025   0.608   0.880   1.260 -3.4304 -1.1865 -3.7423
  676SOL     OW 2026   1.980   0.595   0.832 -0.0298 -0.7656  0.3008
  676SOL    HW1 2027   1.902   0.530   0.816  0.8589 -2.6008 -1.6450
  676SOL    HW2 2028   1.993   0.613   0.931 -0.1313  1.3838  1.5488
  677SOL     OW 2029   2.666   1.589   2.909  0.4159  0.1498 -0.6235
  677SOL    HW1 2030   2.694   1.492   2.918  0.4076  2.2403 -0.0008
  677SOL    HW2 2031   2.652   1.596   2.807 -0.6337 -0.8307  1.2024
  678SOL     OW 2032   0.085   3.052   1.037 -0.2697  0.3038 -0.5166
  678SOL    HW1 2033   3.096   3.035   1.086  1.7102 -2.3205 -0.6086
  678SOL    HW2 2034   0.163   3.007   1.090  0.3071 -1.4698  1.8602
  679SOL     OW 2035   2.254   3.049   0.384  0.1951 -0.1904 -0.0792
  679SOL    HW1 2036   2.300   0.035   0.346 -1.8871  0.7780  0.7224
  679SOL    HW2 2037   2.303   3.015   0.466  2.9136 -1.4107  1.5771
  680SOL     OW 2038   0.293   2.289   2.075 -0.4040  0.2681 -0.1831
  680SOL    HW1 2039   0.374   2.225   2.078  2.4793 -1.1422 -1.5694
  680SOL    HW2 2040   0.246   2.280   1.984  0.1012 -0.8727  0.1511
  681SOL     OW 2041   2.739   1.756   1.354 -0.1477  0.3627 -0.1644
  681SOL    HW1 2042   2.819   1.816   1.337 -0.1467 -1.7564  0.5855
  681SOL    HW2 2043   2.659   1.790   1.302  0.6238 -0.3151  1.1431
  682SOL     OW 2044   0.119   2.238   1.860 -0.2302 -0.8989 -0.3661
  682SOL    HW1 2045   0.140   2.264   1.766 -1.1609  0.3184  3.9640
  682SOL    HW2 2046   0.040   2.297   1.891  0.4353  1.9635 -0.4362
  683SOL     OW 2047   2.887   2.063   1.813  0.1977  0.4110  0.2334
  683SOL    HW1 2048   2.958   2.119   1.862 -1.2244 -2.2216  2.9232
  683SOL    HW2 2049   2.834   2.114   1.743  2.4747 -1.2070 -1.9105
  684SOL     OW 2050   2.393   1.535   2.570 -0.2931 -0.7821 -0.0566
  684SOL    HW1 2051   2.388   1.537   2.466  1.3044  0.6247 -0.6984
  684SOL    HW2 2052   2.400   1.437   2.599 -0.4112  2.5317  0.6665
  685SOL     OW 2053   1.583   0.977   0.383  0.3616  0.0073 -0.3810
  685SOL    HW1 2054   1.506   0.940   0.436  1.6222 -1.1533  0.7433
  685SOL    HW2 2055   1.651   1.020   0.443  0.1552 -1.4773  0.7221
  686SOL     OW 2056   0.477   0.085   0.690 -0.8955 -0.3949 -0.5490
  686SOL    HW1 2057   0.511   0.177   0.719  2.3142  0.8318  0.2568
  686SOL    HW2 2058   0.382   0.062   0.720  1.1979  2.0042 -2.7237
  687SOL     OW 2059   1.414   1.249   2.296 -0.0561 -0.2959 -0.5909
  687SOL    HW1 2060   1.500   1.274   2.340  0.1362 -3.5664 -0.3247
  687SOL    HW2 2061   1.337   1.279   2.357  0.9958  1.1801 -2.7830
  688SOL     OW 2062   1.223   1.837   1.364  0.4293 -0.0535 -0.1240
  688SOL    HW1 2063   1.271   1.791   1.285  0.1356  0.5336 -2.1508
  688SOL    HW2 2064   1.157   1.779   1.415  0.7404 -0.2859 -0.7238
  689SOL     OW 2065   2.085   0.328   1.404  0.1248 -0.7481  0.6988
  689SOL    HW1 2066   2.084   0.256   1.330 -1.4422 -0.2309  2.7710
  689SOL    HW2 2067   2.100   0.420   1.369  1.5067 -0.3145 -0.2367
  690SOL     OW 2068   2.912   1.331   1.274  0.2953 -0.2665  0.0262
  690SOL    HW1 2069   2.932   1.295   1.364  1.7573  2.1102  2.4807
  690SOL    HW2 2070   2.866   1.268   1.214  2.8899  0.0722  1.7191
  691SOL     OW 2071   0.331   2.482   0.906  0.4838  0.2089  0.1535
  691SOL    HW1 2072   0.427   2.452   0.883  0.8833 -0.6153  0.4287
  691SOL    HW2 2073   0.294   2.537   0.831 -4.0602 -1.9283 -0.2860
  692SOL     OW 2074   2.289   0.381   1.726  0.3176  0.1885 -0.6262
  692SOL    HW1 2075   2.337   0.469   1.751  0.6412  1.1019  1.2027
  692SOL    HW2 2076   2.190   0.392   1.703 -1.1634 -1.4535  1.5111
  693SOL     OW 2077   0.274   1.852   2.069 -0.2254 -0.7521  0.4132
  693SOL    HW1 2078   0.244   1.769   2.016  0.5632  0.2929  0.3369
  693SOL    HW2 2079   0.200   1.892   2.129 -0.6357 -2.4585  1.3294
  694SOL     OW 2080   1.534   1.408   1.862 -0.5416  0.0707 -0.7783
  694SOL    HW1 2081   1.623   1.449   1.900 -1.0489 -0.4504  2.2478
  694SOL    HW2 2082   1.485   1.377   1.944  3.2475 -0.2884 -0.2660
  695SOL     OW 2083   0.590   0.911   0.966 -0.1700 -0.5140  0.1460
  695SOL    HW1 2084   0.527   0.933   0.885 -0.5140 -0.5475 -3.1912
  695SOL    HW2 2085   0.614   0.810   0.971  2.0508 -0.6884 -0.2293
  696SOL     OW 2086   1.588   3.083   0.890 -0.2708  0.4809  0.0556
  696SOL    HW1 2087   1.671   3.062   0.942 -0.5992 -1.2615 -0.5174
  696SOL    HW2 2088   1.542   2.993   0.883  0.5468 -0.4116  2.5888
  697SOL     OW 2089   1.116   0.477   1.372 -0.1849 -0.1066  0.3043
  697SOL    HW1 2090   1.068   0.502   1.458  1.7034  1.7279  1.1310
  697SOL    HW2 2091   1.135   0.379   1.368 -1.7804  0.3376  0.5717
  698SOL     OW 2092   1.768   1.268   2.074 -0.0876 -0.0903  0.0444
  698SOL    HW1 2093   1.674   1.231   2.078  0.3799  0.6852  0.5979
  698SOL    HW2 2094   1.818   1.265   2.167  3.9667 -1.3398  2.1227
  699SOL     OW 2095   2.012   0.763   1.577  0.0740 -0.1634  0.3016
  699SOL    HW1 2096   2.081   0.749   1.503  0.5103 -0.6987 -1.9156
  699SOL    HW2 2097   1.967   0.855   1.578  0.2910  0.3400 -1.0342
  700SOL     OW 2098   0.854   2.380   0.044  0.3876 -0.0240  0.0976
  700SOL    HW1 2099   0.888   2.402   0.135  0.4783  2.0809  0.6268
  700SOL    HW2 2100   0.826   2.283   0.041 -0.9801  1.2895  0.1607
  701SOL     OW 2101   2.168   2.406   2.571 -0.1056 -0.8731 -0.2708
  701SOL    HW1 2102   2.103   2.448   2.506 -0.0230  0.9518  1.3613
  701SOL    HW2 2103   2.144   2.443   2.667 -1.5249 -0.3321  1.9872
  702SOL     OW 2104   0.915   0.040   1.000  0.1166 -0.3231 -0.6335
  702SOL    HW1 2105   0.943   0.137   0.981 -0.3807  0.4346  0.7845
  702SOL    HW2 2106   0.997   3.075   1.010  3.6175  1.2523 -1.3405
  703SOL     OW 2107   1.919   0.240   2.363  0.1472  0.1668  0.7627
  703SOL    HW1 2108   2.014   0.212   2.355 -2.2924 -0.7720  0.3631
  703SOL    HW2 2109   1.858   0.156   2.371  1.3971 -0.7691  1.0956
  704SOL     OW 2110   2.811   2.549   0.420 -0.1963 -0.4855  0.0720
  704SOL    HW1 2111   2.899   2.572   0.371  1.1141 -2.9284  0.1576
  704SOL    HW2 2112   2.824   2.529   0.519  0.0514 -1.9970 -0.8580
  705SOL     OW 2113   2.655   0.103   2.239  0.3527 -0.4090  0.0745
  705SOL    HW1 2114   2.598   0.125   2.154  1.0217 -0.2861 -0.0130
  705SOL    HW2 2115   2.597   0.048   2.301  0.1017  0.8309  0.5165
  706SOL     OW 2116   2.101   2.746   1.478 -0.5066 -0.0886 -1.0889
  706SOL    HW1 2117   2.172   2.668   1.466 -1.4446 -2.3305 -0.3026
  706SOL    HW2 2118   2.076   2.793   1.393 -3.5616 -0.9518  0.3518
  707SOL     OW 2119   0.666   2.814   2.284 -0.0757 -0.5638  0.4984
  707SOL    HW1 2120   0.564   2.819   2.280  0.6875 -0.2178  0.7792
  707SOL    HW2 2121   0.709   2.886   2.347 -0.0530  1.9889  0.1758
  708SOL     OW 2122   2.944   2.368   1.849  0.2425  0.0190  0.0148
  708SOL    HW1 2123   2.844   2.351   1.857 -1.6138  0.7864  0.7134
  708SOL    HW2 2124   2.971   2.376   1.749  2.0228  0.2720 -1.0114
  709SOL     OW 2125   1.617   0.346   1.555 -0.2843  0.4891 -0.0688
  709SOL    HW1 2126   1.660   0.429   1.590 -1.4848  0.1745  0.2635
  709SOL    HW2 2127   1.518   0.357   1.529 -0.6737 -0.5575  1.3582
  710SOL     OW 2128   1.266   0.119   2.864  0.1482 -0.2430  0.1046
  710SOL    HW1 2129   1.203   0.140   2.782 -0.8392 -1.6800 -3.6206
  710SOL    HW2 2130   1.210   0.080   2.943  0.9815 -0.8809 -0.9669
  711SOL     OW 2131   0.814   1.706   2.469 -0.1587 -0.2254  1.1147
  711SOL    HW1 2132   0.868   1.739   2.547  0.7505 -0.9789 -2.3655
  711SOL    HW2 2133   0.720   1.748   2.456 -0.3715 -1.4788  2.1187
  712SOL     OW 2134   0.916   1.828   2.702 -0.4036  0.1600  0.2310
  712SOL    HW1 2135   0.828   1.801   2.750  0.3491  0.0342  0.3811
  712SOL    HW2 2136   0.994   1.822   2.764  0.7076 -0.6341 -1.1720
  713SOL     OW 2137   2.015   1.183   2.673  0.2041  0.1714  0.3711
  713SOL    HW1 2138   2.030   1.265   2.614 -0.5732 -1.5009 -0.7434
  713SOL    HW2 2139   1.967   1.207   2.757  2.1105 -0.0652  0.1863
  714SOL     OW 2140   1.127   1.713   1.831  0.5622  0.4387 -0.1753
  714SOL    HW1 2141   1.062   1.723   1.909  1.5343  1.7198 -2.4551
  714SOL    HW2 2142   1.129   1.801   1.777  0.4486  0.3277  0.8783
  715SOL     OW 2143   1.942   0.274   0.008 -0.3350 -0.3478  0.4833
  715SOL    HW1 2144   2.036   0.248   0.031 -1.0693 -0.9568 -1.6528
  715SOL    HW2 2145   1.944   0.301   3.002  2.0958 -1.6987 -0.5336
  716SOL     OW 2146   2.784   2.461   1.544  0.4977 -0.4369  0.7066
  716SOL    HW1 2147   2.805   2.561   1.556  0.1415  0.2025 -3.3008
  716SOL    HW2 2148   2.833   2.427   1.458  0.7643 -0.8803  0.3277
  717SOL     OW 2149   2.660   0.977   0.870  0.3320  0.2515 -0.2812
  717SOL    HW1 2150   2.587   0.984   0.938  2.9529 -0.6628  0.2240
  717SOL    HW2 2151   2.616   0.967   0.778 -1.6026  1.0111  2.3261
  718SOL     OW 2152   1.125   2.012   1.733  0.3888 -0.1266 -0.1338
  718SOL    HW1 2153   1.048   2.020   1.664  0.5322 -1.5329 -1.0358
  718SOL    HW2 2154   1.096   2.025   1.830 -1.9885  1.5094 -0.9767
  719SOL     OW 2155   2.368   0.353   2.787  0.4717 -0.2794 -0.0211
  719SOL    HW1 2156   2.385   0.442   2.824 -0.4672 -0.8831 -3.7110
  719SOL    HW2 2157   2.439   0.288   2.817 -1.4087  0.6897 -1.1835
  720SOL     OW 2158   1.021   0.313   0.989  0.5670 -0.7155 -0.1113
  720SOL    HW1 2159   1.120   0.321   1.012 -2.1765  1.2345 -0.2546
  720SOL    HW2 2160   1.009   0.358   0.894 -2.0051  0.5321 -3.0378
  721SOL     OW 2161   2.789   0.702   0.532 -0.2624 -0.8837 -0.1429
  721SOL    HW1 2162   2.756   0.719   0.440  1.3881  1.0605  1.9148
  721SOL    HW2 2163   2.836   0.788   0.573  1.2377  0.9104 -1.6531
  722SOL     OW 2164   0.375   2.647   2.500  0.2527  0.5933 -0.3580
  722SOL    HW1 2165   0.401   2.573   2.440 -1.0958  3.5221  2.9089
  722SOL    HW2 2166   0.390   2.742   2.462  1.6893  0.6306  1.9954
  723SOL     OW 2167   1.634   0.297   0.598  0.1434 -0.1310  0.0426
  723SOL    HW1 2168   1.661   0.199   0.592  0.6006 -0.5097 -0.6052
  723SOL    HW2 2169   1.548   0.315   0.547  1.6433  0.9118  0.4214
  724SOL     OW 2170   0.937   1.739   2.035 -0.1786 -0.7058  0.3751
  724SOL    HW1 2171   0.921   1.675   2.114  0.6225 -0.1248  2.1936
  724SOL    HW2 2172   0.852   1.750   1.978  0.2149 -0.6359 -1.2588
  725SOL     OW 2173   1.554   0.009   1.281  0.6031 -0.1756  0.0977
  725SOL    HW1 2174   1.522   0.018   1.382 -1.7453  1.3604 -0.5116
  725SOL    HW2 2175   1.537   3.011   1.246 -0.9938  0.0240  0.6644
  726SOL     OW 2176   2.174   2.889   0.159  0.2824  0.3623 -0.1463
  726SOL    HW1 2177   2.178   2.969   0.223 -2.0964  1.3168  2.1830
  726SOL    HW2 2178   2.243   2.821   0.187  1.7063  1.3651 -0.0832
  727SOL     OW 2179   1.388   1.907   0.703  0.0331 -0.2695  0.1271
  727SOL    HW1 2180   1.469   1.966   0.690  1.5721 -0.3931  0.7906
  727SOL    HW2 2181   1.403   1.823   0.650  1.9289 -0.9258  1.0690
  728SOL     OW 2182   2.086   2.765   2.191 -0.6028 -0.2639  0.3805
  728SOL    HW1 2183   2.125   2.734   2.102 -0.6442  1.6479 -1.2573
  728SOL    HW2 2184   2.133   2.845   2.231 -0.3670 -2.1972 -2.5697
  729SOL     OW 2185   1.807   2.132   1.424 -0.1594 -0.2293 -0.3711
  729SOL    HW1 2186   1.722   2.148   1.477  0.7398  1.5796  1.0590
  729SOL    HW2 2187   1.782   2.072   1.344  0.2700  0.8965  2.5802
  730SOL     OW 2188   1.707   0.853   2.957 -0.2988  0.3173 -0.2897
  730SOL    HW1 2189   1.677   0.762   2.989  2.4131  3.3760  2.2250
  730SOL    HW2 2190   1.806   0.867   2.965  1.3663 -2.1474  0.4908
  731SOL     OW 2191   0.806   3.024   1.214  0.5024  0.1903  0.1729
  731SOL    HW1 2192   0.848   3.066   1.132 -1.7900 -2.0440 -0.1941
  731SOL    HW2 2193   0.814   2.924   1.212 -0.3228  0.5859  0.6597
  732SOL     OW 2194   1.297   0.355   1.032 -0.2723 -0.0904  0.0423
  732SOL    HW1 2195   1.320   0.455   1.043  0.0732 -0.3799  0.0940
  732SOL    HW2 2196   1.367   0.312   0.973 -2.4056  1.9214  1.9730
  733SOL     OW 2197   0.871   1.201   1.208  0.2188 -1.0369  0.1693
  733SOL    HW1 2198   0.893   1.103   1.191 -0.9302 -1.2412  1.8044
  733SOL    HW2 2199   0.803   1.233   1.141  1.6440 -1.4834 -0.9563
  734SOL     OW 2200   2.767   2.596   2.689 -0.5241 -0.0348  0.0268
  734SOL    HW1 2201   2.800   2.647   2.769 -1.8789 -0.3469  3.2384
  734SOL    HW2 2202   2.736   2.507   2.720  0.0463  1.0309  1.8899
  735SOL     OW 2203   1.160   2.895   1.258  0.0574  0.2453 -0.1911
  735SOL    HW1 2204   1.189   2.965   1.191 -0.1648 -1.5613 -0.3064
  735SOL    HW2 2205   1.241   2.847   1.302  1.3327 -0.1105  3.7256
  736SOL     OW 2206   1.775   1.997   0.018  0.3861 -0.2477  0.6033
  736SOL    HW1 2207   1.683   2.021   3.094  2.7855  0.4069  0.9910
  736SOL    HW2 2208   1.812   2.047   0.097 -0.4506 -0.8915 -1.7729
  737SOL     OW 2209   3.019   2.076   1.492 -0.6129 -0.1483 -0.3080
  737SOL    HW1 2210   2.976   2.072   1.399  0.7996  1.2300  3.5187
  737SOL    HW2 2211   2.947   2.085   1.562  0.5084  1.9486 -1.3556
  738SOL     OW 2212   1.750   2.389   2.638 -0.3826  0.4654  0.0912
  738SOL    HW1 2213   1.672   2.391   2.702 -1.7160 -0.8083 -0.9125
  738SOL    HW2 2214   1.835   2.420   2.686  0.4143 -0.1533 -0.9114
  739SOL     OW 2215   1.124   2.016   2.590 -0.0581 -0.7251  0.1277
  739SOL    HW1 2216   1.200   1.969   2.639 -2.0196  0.4877 -2.0299
  739SOL    HW2 2217   1.033   2.009   2.639 -1.1599 -0.4556  1.7151
  740SOL     OW 2218   1.148   2.766   0.957  0.6877 -0.2941  0.2269
  740SOL    HW1 2219   1.156   2.866   0.986  1.5126  2.3342  0.6885
  740SOL    HW2 2220   1.218   2.742   0.885  1.7187  2.0308 -1.7286
  741SOL     OW 2221   0.002   1.135   0.317  0.3169  0.7178  0.4102
  741SOL    HW1 2222   3.010   1.126   0.365  1.6874 -0.3238 -2.9982
  741SOL    HW2 2223   0.004   1.228   0.277  2.2741  0.6718  0.3784
  742SOL     OW 2224   0.916   1.591   2.261  0.2361  0.4257  0.6972
  742SOL    HW1 2225   1.019   1.607   2.255  1.1697  2.1066 -0.3626
  742SOL    HW2 2226   0.874   1.622   2.349  0.3448  1.2102 -0.6734
  743SOL     OW 2227   0.954   0.991   2.416  0.3530  0.1813  0.0180
  743SOL    HW1 2228   0.950   0.912   2.480  0.4200 -0.0620  3.1364
  743SOL    HW2 2229   1.029   0.992   2.349 -0.2034  1.6354  0.8030
  744SOL     OW 2230   2.127   3.017   1.598  0.1030 -0.4487  0.2999
  744SOL    HW1 2231   2.219   3.019   1.634 -0.4234 -0.6401 -3.1321
  744SOL    HW2 2232   2.107   2.925   1.557  1.4484 -1.6230 -3.0648
  745SOL     OW 2233   1.963   1.400   1.261  0.3334  0.2850 -0.1565
  745SOL    HW1 2234   1.865   1.414   1.231 -2.2369 -0.7487 -0.5983
  745SOL    HW2 2235   1.961   1.402   1.363  0.6217 -1.1241  0.8741
  746SOL     OW 2236   2.018   1.065   0.693 -0.2638 -0.1169 -0.2055
  746SOL    HW1 2237   2.112   1.084   0.727  0.2507 -1.9813 -1.9520
  746SOL    HW2 2238   2.007   0.965   0.683  1.6939  3.6639  1.3321
  747SOL     OW 2239   2.291   1.667   0.630 -0.1158 -0.1555  0.4342
  747SOL    HW1 2240   2.282   1.571   0.602  0.6146  0.7895 -1.9248
  747SOL    HW2 2241   2.205   1.720   0.645 -1.5351 -0.2982 -1.7243
  748SOL     OW 2242   0.562   1.774   0.450  0.2821  0.0686 -0.4660
  748SOL    HW1 2243   0.513   1.740   0.531 -0.6038  0.4113  2.2490
  748SOL    HW2 2244   0.525   1.735   0.364 -0.7216 -1.5508  0.7861
  749SOL     OW 2245   3.050   2.377   2.728 -0.2577  0.2670  0.2351
  749SOL    HW1 2246   2.995   2.294   2.739  0.8298 -0.6566  1.9334
  749SOL    HW2 2247   2.995   2.459   2.703 -2.9536 -2.3957 -2.4023
  750SOL     OW 2248   2.212   0.884   0.914 -0.0304  0.1260 -0.2462
  750SOL    HW1 2249   2.221   0.788   0.877  0.0961  2.1135  1.9984
  750SOL    HW2 2250   2.126   0.905   0.963  2.2129 -0.2517 -2.4245
  751SOL     OW 2251   2.606   0.021   0.148 -0.0191 -0.0002 -0.0655
  751SOL    HW1 2252   2.556   3.082   0.068  2.8401 -4.0933  1.2846
  751SOL    HW2 2253   2.657   3.041   0.186 -0.4391 -0.3902 -1.1004
  752SOL     OW 2254   2.308   2.914   0.618  0.2352 -0.6819  0.0742
  752SOL    HW1 2255   2.285   2.941   0.713 -1.1475 -1.8284 -0.5734
  752SOL    HW2 2256   2.242   2.852   0.578  0.1999  0.3228  0.6878
  753SOL     OW 2257   1.882   1.340   2.311  0.2036  0.4706 -0.3161
  753SOL    HW1 2258   1.942   1.311   2.384  0.0724  1.0424 -2.3850
  753SOL    HW2 2259   1.906   1.441   2.286 -0.2348  3.5294 -0.9561
  754SOL     OW 2260   2.133   2.383   1.589  0.4116 -0.6129 -0.2684
  754SOL    HW1 2261   2.169   2.293   1.556  2.5277 -0.3826 -1.5364
  754SOL    HW2 2262   2.031   2.391   1.564  0.3114  0.4250 -1.2722
  755SOL     OW 2263   2.613   0.833   1.246 -0.0925 -0.6599  0.3562
  755SOL    HW1 2264   2.567   0.836   1.154 -0.3429 -0.9187 -2.4138
  755SOL    HW2 2265   2.579   0.911   1.300  1.1605 -2.3737  0.7372
  756SOL     OW 2266   1.234   1.415   2.881  0.1650  0.3642 -0.1345
  756SOL    HW1 2267   1.219   1.406   2.987  0.5343  1.4519  2.3718
  756SOL    HW2 2268   1.146   1.413   2.835  1.0263  0.3252 -1.5451
  757SOL     OW 2269   1.656   2.616   1.013  0.3826  0.1451  0.1548
  757SOL    HW1 2270   1.697   2.595   0.924  1.1310 -0.3460 -0.7499
  757SOL    HW2 2271   1.648   2.536   1.075 -1.4813  2.3829 -1.7719
  758SOL     OW 2272   0.899   2.469   1.213  0.2090 -0.0564  0.0377
  758SOL    HW1 2273   0.979   2.495   1.267  1.6242 -0.0546  0.5507
  758SOL    HW2 2274   0.900   2.368   1.188 -0.6505  0.1660 -0.6559
  759SOL     OW 2275   2.342   1.195   1.196 -0.3995 -0.2363 -0.5021
  759SOL    HW1 2276   2.409   1.249   1.251  0.2294 -0.4013 -0.2305
  759SOL    HW2 2277   2.249   1.195   1.233  1.5543  1.6036 -1.4388
  760SOL     OW 2278   1.814   1.057   1.852  0.5311  0.0151  0.0397
  760SOL    HW1 2279   1.911   1.026   1.842 -0.0485 -1.0399  1.1052
  760SOL    HW2 2280   1.803   1.073   1.949  0.5999 -1.3594 -4.1636
  761SOL     OW 2281   1.946   2.816   0.351 -0.1663  0.3766 -0.3453
  761SOL    HW1 2282   1.900   2.758   0.278  2.8618 -0.2747 -3.1717
  761SOL    HW2 2283   2.011   2.876   0.302 -1.4545  1.2554 -0.7768
  762SOL     OW 2284   1.983   1.591   3.061 -0.2050 -0.0736 -0.6152
  762SOL    HW1 2285   1.881   1.578   3.050 -3.1154  1.4263  1.3837
  762SOL    HW2 2286   2.013   1.680   3.025 -1.4838 -1.7648  0.0420
  763SOL     OW 2287   0.555   1.605   1.326  0.1501  0.6027  0.0665
  763SOL    HW1 2288   0.459   1.604   1.294  0.9922 -0.2316 -1.6768
  763SOL    HW2 2289   0.589   1.512   1.356  1.2061  0.6010  2.6140
  764SOL     OW 2290   0.051   2.408   2.992 -0.3435  0.0325  0.8895
  764SOL    HW1 2291   0.006   2.483   3.042 -0.0744  2.4062  0.3376
  764SOL    HW2 2292   0.010   2.405   2.900  0.1325 -0.7991  2.9109
  765SOL     OW 2293   0.635   3.078   1.439  0.1299  0.4896 -0.9065
  765SOL    HW1 2294   0.674   3.083   1.347 -1.8238  0.5737 -0.3669
  765SOL    HW2 2295   0.666   0.063   1.492 -0.2507 -2.0488 -0.1490
  766SOL     OW 2296   2.962   2.110   2.083 -0.0673 -0.5443  0.0097
  766SOL    HW1 2297   2.942   2.208   2.108  0.4556  0.0788  0.4572
  766SOL    HW2 2298   2.877   2.054   2.083 -0.4774 -0.9833 -3.8253
  767SOL     OW 2299   2.917   1.027   2.092 -0.0419 -0.0515  0.0931
  767SOL    HW1 2300   2.876   0.935   2.088 -0.5268  0.1760 -0.0050
  767SOL    HW2 2301   2.853   1.102   2.065  0.5568 -2.1400 -0.5787
  768SOL     OW 2302   0.811   0.174   2.822  0.4530 -0.0481  0.6647
  768SOL    HW1 2303   0.756   0.258   2.817 -2.2457 -2.9406 -1.4194
  768SOL    HW2 2304   0.908   0.190   2.804 -1.8742  0.3651  2.1680
  769SOL     OW 2305   2.130   2.765   1.055 -0.3772  0.2459 -0.3032
  769SOL    HW1 2306   2.231   2.777   1.031  2.0798  0.1540  1.1120
  769SOL    HW2 2307   2.106   2.838   1.125  1.4886  1.7444 -1.3676
  770SOL     OW 2308   2.818   0.164   2.725  0.0844 -0.2546 -0.3662
  770SOL    HW1 2309   2.771   0.189   2.635  0.1273  1.2089  1.9153
  770SOL    HW2 2310   2.919   0.148   2.711 -0.7330 -2.9118 -1.1753
  771SOL     OW 2311   1.725   2.117   1.966 -0.5241 -0.0967  0.1101
  771SOL    HW1 2312   1.676   2.077   1.885 -1.1321  1.9790  0.2657
  771SOL    HW2 2313   1.686   2.081   2.051 -0.5261  0.4675 -1.0679
  772SOL     OW 2314   1.264   0.322   0.248 -0.2970  0.1596  0.9033
  772SOL    HW1 2315   1.225   0.228   0.270 -1.1296  0.5947 -2.5926
  772SOL    HW2 2316   1.191   0.389   0.232  0.8318 -1.3689 -2.9153
  773SOL     OW 2317   2.645   0.873   1.861 -0.4255 -0.4993 -0.1928
  773SOL    HW1 2318   2.657   0.848   1.956 -0.5789  1.1399 -0.2199
  773SOL    HW2 2319   2.630   0.791   1.802 -1.6872 -0.7139  0.0600
  774SOL     OW 2320   1.074   1.118   0.856 -0.1026 -0.4576  0.1826
  774SOL    HW1 2321   1.015   1.197   0.845  0.5425  0.2147  1.6836
  774SOL    HW2 2322   1.016   1.038   0.869  0.2072  1.4871  2.1423
  775SOL     OW 2323   2.491   3.056   3.011 -0.0653  0.1305  0.9282
  775SOL    HW1 2324   2.389   3.064   3.001 -1.1251 -1.3083  3.5142
  775SOL    HW2 2325   2.532   2.976   2.967  1.6838  1.2058  0.0377
  776SOL     OW 2326   2.380   1.432   1.938  0.5014 -0.4669 -0.3596
  776SOL    HW1 2327   2.396   1.394   2.030  2.1478  0.6530  2.2705
  776SOL    HW2 2328   2.394   1.370   1.857  0.2923 -1.7513 -0.2968
  777SOL     OW 2329   0.393   1.231   2.504 -0.9135  0.6223 -0.0903
  777SOL    HW1 2330   0.433   1.286   2.429  0.9560  0.7214  0.8473
  777SOL    HW2 2331   0.467   1.169   2.536  0.0956 -1.2210 -0.3962
  778SOL     OW 2332   0.590   0.567   0.141  0.8028  0.0549 -0.0787
  778SOL    HW1 2333   0.637   0.521   0.059  1.1538  0.4261 -2.7465
  778SOL    HW2 2334   0.529   0.646   0.115  0.2945 -0.0956  0.5491
  779SOL     OW 2335   0.426   0.450   2.575 -0.1355 -0.4235 -0.0468
  779SOL    HW1 2336   0.524   0.466   2.605 -0.0733 -2.2671  1.1106
  779SOL    HW2 2337   0.428   0.397   2.490 -3.3714 -1.1933  1.9171
  780SOL     OW 2338   2.293   0.848   2.648 -0.0319 -0.8296 -0.2223
  780SOL    HW1 2339   2.276   0.900   2.734  0.9573  4.4420 -2.0345
  780SOL    HW2 2340   2.307   0.751   2.656 -0.0414  1.0571 -1.1777
  781SOL     OW 2341   2.908   0.901   1.727 -0.6590 -0.0837  0.0225
  781SOL    HW1 2342   2.816   0.909   1.773 -0.9193  1.1252 -0.8837
  781SOL    HW2 2343   2.981   0.921   1.799 -2.0291  1.5683  0.9078
  782SOL     OW 2344   0.722   1.516   2.633  0.1778  0.4339 -0.1707
  782SOL    HW1 2345   0.681   1.561   2.716 -0.5112  2.5230  1.6295
  782SOL    HW2 2346   0.748   1.585   2.559 -1.1402 -1.4547  0.7326
  783SOL     OW 2347   1.006   2.768   1.445 -0.3272 -0.3740 -0.1643
  783SOL    HW1 2348   1.056   2.835   1.385  3.7760  0.0581 -1.5622
  783SOL    HW2 2349   1.038   2.679   1.409  1.3742  4.4437 -0.2775
  784SOL     OW 2350   1.434   0.342   0.029  0.2423 -0.4270  0.5386
  784SOL    HW1 2351   1.373   0.307   0.106  0.2655 -1.6774 -2.7391
  784SOL    HW2 2352   1.482   0.428   0.050 -1.0273  0.0572 -0.4244
  785SOL     OW 2353   1.036   0.360   2.008 -0.1242  0.4800  0.0362
  785SOL    HW1 2354   1.089   0.366   1.919  0.8826  2.4420  1.2775
  785SOL    HW2 2355   1.036   0.454   2.049  2.1237 -0.2291  1.5888
  786SOL     OW 2356   0.763   1.919   0.508  0.1738 -0.1881  0.3104
  786SOL    HW1 2357   0.687   1.856   0.488 -0.1558 -0.6914  0.8036
  786SOL    HW2 2358   0.746   2.020   0.503  2.6067 -1.8578  0.9942
  787SOL     OW 2359   1.377   0.910   0.527  0.3472  0.1459 -0.3634
  787SOL    HW1 2360   1.338   0.988   0.584  0.3358 -1.0846 -0.1572
  787SOL    HW2 2361   1.405   0.833   0.589  0.3269  1.0352  3.5142
  788SOL     OW 2362   2.406   1.579   1.325 -0.4980  0.1260 -0.0185
  788SOL    HW1 2363   2.487   1.523   1.313 -0.1465 -0.1761  1.7192
  788SOL    HW2 2364   2.386   1.584   1.423 -1.0170 -0.7146 -1.0609
  789SOL     OW 2365   2.916   1.102   2.372 -0.0109  0.1062  0.0470
  789SOL    HW1 2366   2.955   1.059   2.291  1.5350 -2.7672 -0.7268
  789SOL    HW2 2367   2.902   1.204   2.361 -0.6864 -2.8946 -1.2738
  790SOL     OW 2368   0.670   2.977   0.034  0.0376 -0.4081  0.4258
  790SOL    HW1 2369   0.627   2.896   0.083  0.9097  0.9318 -0.6114
  790SOL    HW2 2370   0.703   3.039   0.099 -2.0668 -1.5818 -3.3933
  791SOL     OW 2371   0.418   0.782   0.104 -0.1012  0.4411 -0.2393
  791SOL    HW1 2372   0.431   0.877   0.119 -2.4091 -3.1781  4.0948
  791SOL    HW2 2373   0.387   0.770   0.004 -2.6222 -1.7957  2.4774
  792SOL     OW 2374   1.575   0.651   2.686 -0.2272  0.2819 -0.5085
  792SOL    HW1 2375   1.508   0.728   2.692  0.2173 -1.4495 -0.6908
  792SOL    HW2 2376   1.640   0.664   2.609 -0.4419 -0.5807  2.1148
  793SOL     OW 2377   2.994   0.564   0.473  0.2760 -0.3463  0.3270
  793SOL    HW1 2378   2.917   0.624   0.504 -0.0982  4.7666 -0.1598
  793SOL    HW2 2379   3.078   0.622   0.462  0.5869  1.8688  0.4562
  794SOL     OW 2380   0.387   0.343   1.674 -0.3729  0.0330  0.0309
  794SOL    HW1 2381   0.409   0.440   1.654 -2.9396 -1.7765 -0.2541
  794SOL    HW2 2382   0.451   0.276   1.644 -3.7978  2.1802 -1.0783
  795SOL     OW 2383   0.294   1.405   3.093 -0.1503 -0.1034  0.3519
  795SOL    HW1 2384   0.395   1.395   0.015  0.1841 -0.3657 -0.9768
  795SOL    HW2 2385   0.231   1.373   0.074 -2.2705  0.5070 -0.2970
  796SOL     OW 2386   0.216   1.088   2.974  0.1511 -0.1512  0.2483
  796SOL    HW1 2387   0.154   1.060   3.051  0.3576 -0.2588 -1.6484
  796SOL    HW2 2388   0.168   1.160   2.917 -0.4227  1.0039 -1.2480
  797SOL     OW 2389   1.533   2.423   2.798 -0.7396 -0.4651  0.0911
  797SOL    HW1 2390   1.575   2.504   2.848  0.8262  1.8297  1.1532
  797SOL    HW2 2391   1.462   2.451   2.729  0.1821  1.0694 -0.2037
  798SOL     OW 2392   3.062   0.599   1.023  0.2881  0.8410  0.0824
  798SOL    HW1 2393   3.040   0.541   1.103  2.2416  2.1370  2.0602
  798SOL    HW2 2394   2.991   0.671   1.004 -3.5977  1.3497  1.4152
  799SOL     OW 2395   2.255   0.705   2.046  0.1823 -0.1712  0.0065
  799SOL    HW1 2396   2.273   0.793   2.092 -0.8709  0.9691 -2.6124
  799SOL    HW2 2397   2.269   0.698   1.950 -1.8179 -0.7448  3.8490
  800SOL     OW 2398   0.170   1.940   0.382 -0.3015  0.1631 -0.0918
  800SOL    HW1 2399   0.198   1.960   0.479 -2.3801 -0.6304 -2.4015
  800SOL    HW2 2400   0.102   1.864   0.378  1.9011 -1.7430  1.3156
  801SOL     OW 2401   1.692   2.137   0.742  0.2314 -0.2966 -0.5676
  801SOL    HW1 2402   1.754   2.215   0.704 -0.0538 -1.9782 -1.1766
  801SOL    HW2 2403   1.741   2.097   0.824 -0.0015  1.2525  0.5814
  802SOL     OW 2404   1.361   1.606   2.742 -0.3904  0.1702 -0.1043
  802SOL    HW1 2405   1.338   1.522   2.796  2.3770 -2.5581  2.9947
  802SOL    HW2 2406   1.384   1.687   2.801 -0.1132  3.3898  0.9390
  803SOL     OW 2407   0.197   1.980   1.802  0.0922  0.6959 -0.2984
  803SOL    HW1 2408   0.166   2.068   1.842 -0.4241 -1.1136 -0.4179
  803SOL    HW2 2409   0.251   1.928   1.874  0.0778  1.0546  3.0461
  804SOL     OW 2410   1.270   2.608   1.143 -0.0871 -0.2501  0.1607
  804SOL    HW1 2411   1.308   2.532   1.086 -0.0716 -0.5775  1.2261
  804SOL    HW2 2412   1.203   2.660   1.087 -0.0132 -0.7561 -1.1877
  805SOL     OW 2413   2.286   1.951   2.744 -0.0315 -0.0244 -0.1355
  805SOL    HW1 2414   2.242   2.022   2.683  0.4380  0.2589  1.4355
  805SOL    HW2 2415   2.246   1.945   2.834 -2.1328 -0.5232 -0.1287
  806SOL     OW 2416   2.268   3.061   0.857 -0.0664  0.4050  0.1164
  806SOL    HW1 2417   2.279   3.066   0.957  2.3476  1.6760 -0.5709
  806SOL    HW2 2418   2.283   0.053   0.807  0.1649 -1.4757 -1.4670
  807SOL     OW 2419   0.124   1.189   2.530  0.0319 -0.2080 -0.4807
  807SOL    HW1 2420   0.227   1.197   2.519  1.3229 -0.7252 -0.4410
  807SOL    HW2 2421   0.100   1.094   2.505  0.9640  1.9016  2.7850
  808SOL     OW 2422   0.626   1.679   0.851  0.0077 -0.1157 -0.1960
  808SOL    HW1 2423   0.666   1.602   0.911 -0.0478 -0.2089  0.7232
  808SOL    HW2 2424   0.691   1.754   0.828 -1.1204  0.1493  1.6195
  809SOL     OW 2425   2.539   0.501   2.061  0.0856  0.1053 -0.1823
  809SOL    HW1 2426   2.489   0.551   1.988 -2.3771 -0.4138  0.6553
  809SOL    HW2 2427   2.626   0.465   2.030 -1.6137 -1.0492 -0.5095
  810SOL     OW 2428   1.397   0.463   1.417  0.6249 -0.3803  0.0810
  810SOL    HW1 2429   1.299   0.482   1.406 -1.4286 -1.8501  3.2785
  810SOL    HW2 2430   1.439   0.525   1.485  1.1708 -0.1495 -1.0610
  811SOL     OW 2431   2.010   0.096   1.917  0.3768 -0.1251 -0.1065
  811SOL    HW1 2432   1.943   0.153   1.868  2.1722  1.3698 -0.8091
  811SOL    HW2 2433   2.009   3.095   1.883 -0.7907  2.3784  0.1203
  812SOL     OW 2434   1.874   1.828   0.330 -0.5650 -0.1168  0.1018
  812SOL    HW1 2435   1.956   1.882   0.304  0.8187 -0.0873  1.1558
  812SOL    HW2 2436   1.887   1.809   0.430  0.9022  0.2205  1.5070
  813SOL     OW 2437   1.219   0.700   1.932  0.2755 -0.0371  0.0654
  813SOL    HW1 2438   1.163   0.670   2.007  1.3282  1.9794  2.4662
  813SOL    HW2 2439   1.223   0.802   1.937  2.3686  0.8267 -0.5603
  814SOL     OW 2440   0.441   0.095   1.111  0.8315  0.5038 -0.0870
  814SOL    HW1 2441   0.456   0.028   1.032 -1.3426 -4.5344 -3.6486
  814SOL    HW2 2442   0.523   0.155   1.123 -2.4347 -2.1873 -2.6375
  815SOL     OW 2443   0.329   0.265   0.482 -0.4262 -0.0019  0.4316
  815SOL    HW1 2444   0.331   0.185   0.539 -0.7257  0.7778 -4.2571
  815SOL    HW2 2445   0.398   0.263   0.404  0.5638  3.2036 -1.2601
  816SOL     OW 2446   2.144   1.682   2.377  0.0549 -0.8392 -0.0162
  816SOL    HW1 2447   2.225   1.628   2.354 -2.5456 -0.5988  4.8546
  816SOL    HW2 2448   2.160   1.714   2.475 -3.2862  2.7657  0.1901
  817SOL     OW 2449   1.075   2.833   0.638  0.3769 -0.3801 -0.3924
  817SOL    HW1 2450   1.164   2.788   0.657 -3.4418  1.0941 -0.3781
  817SOL    HW2 2451   1.000   2.772   0.663  0.5342 -0.2027 -1.1779
  818SOL     OW 2452   1.684   0.567   2.924 -0.0379 -0.3827  0.4875
  818SOL    HW1 2453   1.640   0.605   2.841  0.2058 -0.2866 -1.8424
  818SOL    HW2 2454   1.784   0.580   2.912  0.0146 -0.3379  1.9060
  819SOL     OW 2455   2.190   0.253   0.108 -0.2999 -0.1599 -0.5123
  819SOL    HW1 2456   2.206   0.212   0.201  1.6915 -0.6106 -1.1450
  819SOL    HW2 2457   2.256   0.222   0.040  1.5847 -0.6187  2.1897
  820SOL     OW 2458   1.980   0.642   2.934  0.6211 -0.1238  0.2629
  820SOL    HW1 2459   2.019   0.603   3.022  0.2054 -0.1527 -0.3954
  820SOL    HW2 2460   2.045   0.637   2.857 -1.4456 -1.5222  1.2127
  821SOL     OW 2461   2.958   0.443   0.794  0.0892 -0.5689  0.0728
  821SOL    HW1 2462   3.011   0.498   0.863 -2.9335  0.8537  1.5342
  821SOL    HW2 2463   2.960   0.496   0.708 -0.6430 -0.8566  0.8806
  822SOL     OW 2464   1.011   2.419   2.243 -0.0793  0.1096  0.0248
  822SOL    HW1 2465   1.064   2.390   2.324 -0.0339 -0.8819 -1.0529
  822SOL    HW2 2466   0.935   2.485   2.268 -0.6651 -2.3690 -1.1653
  823SOL     OW 2467   0.328   1.556   1.737 -0.3285 -0.1198  0.1263
  823SOL    HW1 2468   0.286   1.565   1.826 -1.6322  0.3322 -0.2341
  823SOL    HW2 2469   0.283   1.474   1.688 -0.1483  0.5235  0.4016
  824SOL     OW 2470   1.378   2.694   2.332  0.2325  0.3905 -0.6055
  824SOL    HW1 2471   1.392   2.736   2.426 -0.3114  1.2814 -1.2708
  824SOL    HW2 2472   1.288   2.653   2.316  0.9331 -0.5415  0.2233
  825SOL     OW 2473   1.700   0.717   0.599 -0.2187 -0.1717 -0.2524
  825SOL    HW1 2474   1.763   0.787   0.634 -0.2068 -0.6620 -0.7942
  825SOL    HW2 2475   1.753   0.651   0.541  0.3039 -0.5268 -2.1660
  826SOL     OW 2476   2.173   0.726   0.310  0.0869  0.5189  0.2985
  826SOL    HW1 2477   2.158   0.662   0.388 -0.1283 -0.3086  2.1471
  826SOL    HW2 2478   2.104   0.706   0.241 -1.5907 -0.1539  1.9642
  827SOL     OW 2479   0.413   1.518   2.117  0.4292  0.6419  0.9227
  827SOL    HW1 2480   0.477   1.593   2.103  1.3152  0.0470 -3.0198
  827SOL    HW2 2481   0.460   1.427   2.115  1.1951 -1.9643 -0.3407
  828SOL     OW 2482   2.234   1.360   1.572  0.2991 -0.5045  0.0342
  828SOL    HW1 2483   2.278   1.450   1.556  0.0906 -1.5754  1.5275
  828SOL    HW2 2484   2.293   1.313   1.642 -3.1763  2.0285 -0.0505
  829SOL     OW 2485   0.172   1.610   0.603  0.1895 -0.0215 -0.1664
  829SOL    HW1 2486   0.139   1.569   0.692  1.3445 -0.6946  2.4150
  829SOL    HW2 2487   0.273   1.631   0.615  1.6599  1.9083 -0.6010
  830SOL     OW 2488   1.482   0.897   0.939 -0.0219  0.6774 -0.2032
  830SOL    HW1 2489   1.429   0.981   0.940  0.7866 -1.6758 -2.4331
  830SOL    HW2 2490   1.575   0.910   0.973 -1.3869 -1.2615 -1.9710
  831SOL     OW 2491   3.066   1.714   0.053 -0.1420 -0.4874  0.4203
  831SOL    HW1 2492   3.069   1.747   0.150 -0.2119  0.1548  1.2403
  831SOL    HW2 2493   3.020   1.623   0.060 -1.4672 -0.8770  0.1445
  832SOL     OW 2494   0.837   0.288   0.176 -0.3892  0.1955  0.3611
  832SOL    HW1 2495   0.790   0.354   0.236  1.1248  1.2332  0.5078
  832SOL    HW2 2496   0.820   0.189   0.202 -1.4587  0.7765  1.6958
  833SOL     OW 2497   0.909   0.626   2.084 -0.0092  0.0206 -0.0155
  833SOL    HW1 2498   0.860   0.714   2.071 -0.0469 -0.3178 -1.5663
  833SOL    HW2 2499   0.839   0.554   2.099  0.5508  0.4834  1.2765
  834SOL     OW 2500   0.250   0.521   0.528 -0.5274  0.3386  0.1541
  834SOL    HW1 2501   0.261   0.528   0.630  1.4442  1.4027  0.0899
  834SOL    HW2 2502   0.289   0.430   0.498 -1.8902  0.7061  2.0434
  835SOL     OW 2503   2.773   2.956   1.170  0.0812  0.2263  0.3910
  835SOL    HW1 2504   2.728   2.988   1.252  1.0281 -1.4814 -2.8478
  835SOL    HW2 2505   2.731   3.019   1.099 -2.6356  1.8772  0.9430
  836SOL     OW 2506   0.539   2.031   3.043 -0.2180  0.4089 -0.2036
  836SOL    HW1 2507   0.524   2.103   2.972 -2.9893  1.8391 -1.7783
  836SOL    HW2 2508   0.489   2.058   0.031  0.6479  0.2303  0.4459
  837SOL     OW 2509   1.652   1.313   2.460  0.1996 -0.0481  0.2920
  837SOL    HW1 2510   1.631   1.408   2.494 -0.0628  1.1390 -0.8256
  837SOL    HW2 2511   1.740   1.328   2.413  0.3434  1.7862 -0.8039
  838SOL     OW 2512   0.226   0.738   1.612 -0.3045  0.3150  0.1004
  838SOL    HW1 2513   0.231   0.808   1.543 -1.5090  0.2180  1.7998
  838SOL    HW2 2514   0.302   0.755   1.674  1.3533  0.7626 -1.5245
  839SOL     OW 2515   0.734   1.450   0.950  0.4091  0.3079  0.4550
  839SOL    HW1 2516   0.683   1.381   1.002 -3.7563  0.7936 -0.3642
  839SOL    HW2 2517   0.797   1.414   0.880 -1.5804 -2.8217  2.3704
  840SOL     OW 2518   1.617   0.114   1.942  0.5393  0.0190  0.3226
  840SOL    HW1 2519   1.641   0.109   1.841 -0.8052  0.0499 -0.8012
  840SOL    HW2 2520   1.688   0.168   1.987 -1.7160 -0.3959  0.9103
  841SOL     OW 2521   0.665   2.252   0.430  0.4186  0.4722 -0.0304
  841SOL    HW1 2522   0.766   2.253   0.418 -0.6725  0.0825  0.4268
  841SOL    HW2 2523   0.620   2.253   0.340 -1.4799  0.1845 -1.3112
  842SOL     OW 2524   0.554   0.343   0.770  0.0354 -0.4995  0.0462
  842SOL    HW1 2525   0.493   0.400   0.827  0.9563  1.3559 -0.5215
  842SOL    HW2 2526   0.647   0.371   0.782 -1.3793 -1.3162  1.2847
  843SOL     OW 2527   0.682   1.044   2.260  0.2460  0.2344 -0.3419
  843SOL    HW1 2528   0.593   1.011   2.296 -0.2516 -0.4024 -0.7637
  843SOL    HW2 2529   0.749   1.071   2.330 -1.9955  1.5584  1.3974
  844SOL     OW 2530   1.260   2.229   3.074 -0.1201 -0.3289  0.3820
  844SOL    HW1 2531   1.260   2.251   2.974 -0.0118  0.6739  1.4882
  844SOL    HW2 2532   1.277   2.311   0.039 -1.5525  1.1539  1.6673
  845SOL     OW 2533   2.322   2.787   2.461  0.2340  0.1894  0.0481
  845SOL    HW1 2534   2.315   2.820   2.364 -3.7717 -0.8722 -0.9814
  845SOL    HW2 2535   2.414   2.755   2.480 -2.7791  0.3633  0.1204
  846SOL     OW 2536   1.852   1.986   2.850 -0.0276 -0.3593 -0.3175
  846SOL    HW1 2537   1.788   1.950   2.783  1.1824  0.3572  4.5263
  846SOL    HW2 2538   1.806   1.984   2.941 -0.3226 -0.2465 -1.3225
  847SOL     OW 2539   2.217   0.003   2.973  0.1122  0.0357  0.0785
  847SOL    HW1 2540   2.169   3.020   3.010  1.2893  1.3277 -1.4432
  847SOL    HW2 2541   2.170   0.036   2.889 -0.9821 -2.3982 -0.2728
  848SOL     OW 2542   0.441   0.766   0.511  0.0312  0.9521  0.3527
  848SOL    HW1 2543   0.343   0.787   0.490 -0.2042 -1.4532  0.4474
  848SOL    HW2 2544   0.457   0.662   0.518 -1.0258 -2.9960  0.2408
  849SOL     OW 2545   1.335   2.874   1.505  0.3587  0.4052  0.0350
  849SOL    HW1 2546   1.405   2.925   1.553 -1.4457  0.4054 -1.4925
  849SOL    HW2 2547   1.280   2.823   1.576  1.1071 -0.1591  0.5815
  850SOL     OW 2548   0.478   1.666   0.158  0.5893  0.8769 -0.0433
  850SOL    HW1 2549   0.460   1.721   0.074  2.3505  0.4821 -1.0292
  850SOL    HW2 2550   0.509   1.573   0.124 -0.9970 -0.5936 -0.6464
  851SOL     OW 2551   0.141   1.059   0.711 -0.0700  0.1610  0.0063
  851SOL    HW1 2552   0.062   1.118   0.703  1.8545 -0.2923  1.3107
  851SOL    HW2 2553   0.120   0.960   0.710 -0.8958 -0.0169 -1.6576
  852SOL     OW 2554   1.476   2.403   1.434 -0.3160  0.3514  0.0453
  852SOL    HW1 2555   1.534   2.362   1.511 -0.8513 -0.8394 -0.1472
  852SOL    HW2 2556   1.490   2.502   1.418  0.9893  0.3929 -1.6588
  853SOL     OW 2557   0.116   1.359   0.193  0.0904  0.3930 -0.2672
  853SOL    HW1 2558   0.047   1.413   0.143  2.6387  1.4307 -0.5987
  853SOL    HW2 2559   0.153   1.410   0.274  1.9941  1.5756 -2.0963
  854SOL     OW 2560   1.508   1.083   2.077 -0.0268  0.2722  0.0307
  854SOL    HW1 2561   1.471   1.118   2.163  0.4727  1.0453 -2.9219
  854SOL    HW2 2562   1.435   1.056   2.012 -4.3372 -3.5698 -0.5231
  855SOL     OW 2563   0.475   2.225   2.869  0.3815 -0.4034  0.5188
  855SOL    HW1 2564   0.410   2.222   2.790  1.0756 -3.2698 -1.8812
  855SOL    HW2 2565   0.462   2.306   2.934 -0.8495 -0.1642  2.2356
  856SOL     OW 2566   0.074   0.521   1.719 -0.0524 -0.3107  0.4662
  856SOL    HW1 2567   0.124   0.436   1.741  1.4473 -1.5199 -1.3749
  856SOL    HW2 2568   0.130   0.604   1.700 -0.3093  1.4187  0.1868
  857SOL     OW 2569   0.909   1.196   2.155 -0.2556  0.0245  0.1403
  857SOL    HW1 2570   0.860   1.106   2.150  2.4881  0.4961 -3.1051
  857SOL    HW2 2571   0.884   1.245   2.240  0.5079  0.9210  2.0896
  858SOL     OW 2572   0.218   1.581   2.314  0.4955  0.0915 -0.0771
  858SOL    HW1 2573   0.266   1.590   2.401 -1.6449  0.0734 -1.9775
  858SOL    HW2 2574   0.279   1.564   2.237 -0.5654 -1.0273  2.4765
  859SOL     OW 2575   2.733   3.092   0.919 -0.8856 -0.5413  0.4447
  859SOL    HW1 2576   2.666   0.070   0.911  0.8416  0.9023 -0.9630
  859SOL    HW2 2577   2.819   0.037   0.876 -0.4446  1.8118 -1.6198
  860SOL     OW 2578   2.105   2.822   3.003 -0.1986 -0.4626  0.0032
  860SOL    HW1 2579   2.109   2.832   0.008  1.0344  0.9010  2.0425
  860SOL    HW2 2580   2.186   2.779   2.959  0.0989  1.2000 -2.1788
  861SOL     OW 2581   0.528   0.350   0.296 -0.5565 -0.4769  0.5334
  861SOL    HW1 2582   0.563   0.430   0.249  0.8935 -0.7091 -1.5149
  861SOL    HW2 2583   0.496   0.280   0.232  1.6507 -0.4646 -0.7213
  862SOL     OW 2584   1.286   0.296   1.814 -1.0598 -0.4056 -0.0155
  862SOL    HW1 2585   1.318   0.202   1.849  1.0330 -1.6390 -4.7083
  862SOL    HW2 2586   1.330   0.363   1.873  0.5713 -0.0673  0.2652
  863SOL     OW 2587   2.589   2.239   1.278  0.2537 -0.3778 -0.1339
  863SOL    HW1 2588   2.502   2.197   1.250  0.2581 -2.2602  1.4246
  863SOL    HW2 2589   2.654   2.242   1.196 -1.3133 -1.4754 -1.3052
  864SOL     OW 2590   2.289   2.993   2.265 -0.1468 -0.0856  0.0778
  864SOL    HW1 2591   2.200   3.014   2.316 -1.5924 -5.2839 -0.2907
  864SOL    HW2 2592   2.368   3.041   2.305 -1.4343 -1.2486  0.8956
  865SOL     OW 2593   1.135   0.503   1.773 -0.1439 -0.0950  0.1409
  865SOL    HW1 2594   1.194   0.419   1.779  1.2068  1.8917 -0.7691
  865SOL    HW2 2595   1.191   0.583   1.794 -4.9659 -2.1619  0.7866
  866SOL     OW 2596   2.014   2.917   1.242 -0.1410 -0.1741 -0.8250
  866SOL    HW1 2597   2.067   2.990   1.197  0.3508 -2.6435  1.0974
  866SOL    HW2 2598   1.919   2.911   1.206  1.1006 -0.3637 -2.1082
  867SOL     OW 2599   2.501   2.548   0.631  0.0312  0.1275 -0.0611
  867SOL    HW1 2600   2.516   2.572   0.731  2.8950 -0.7510 -0.0366
  867SOL    HW2 2601   2.515   2.625   0.568  0.3871 -0.2514  1.7199
  868SOL     OW 2602   0.667   2.028   1.449 -0.4872  0.3016 -0.1432
  868SOL    HW1 2603   0.762   2.070   1.471 -0.6817  3.6570 -0.4410
  868SOL    HW2 2604   0.623   2.090   1.381  1.2113 -0.8045 -0.8552
  869SOL     OW 2605   2.355   2.404   3.001 -0.0001  0.1896  0.5910
  869SOL    HW1 2606   2.432   2.381   2.938  0.9769 -0.0290 -2.6237
  869SOL    HW2 2607   2.390   2.451   3.082 -0.8556 -1.6405 -2.7840
  870SOL     OW 2608   2.143   1.715   0.931 -0.1959  0.1147 -1.3320
  870SOL    HW1 2609   2.150   1.648   0.856 -0.3206  0.9165 -0.9125
  870SOL    HW2 2610   2.164   1.674   1.023 -1.0516 -1.0239  0.5274
  871SOL     OW 2611   0.240   1.731   1.518 -0.4957 -0.3722 -0.3745
  871SOL    HW1 2612   0.149   1.752   1.557 -1.3462  1.3874  0.0850
  871SOL    HW2 2613   0.291   1.681   1.591 -1.8253  0.8895  0.5246
  872SOL     OW 2614   0.391   1.149   2.167  0.4590 -0.1245  0.6547
  872SOL    HW1 2615   0.479   1.189   2.135  0.8919 -2.7012 -0.3743
  872SOL    HW2 2616   0.396   1.070   2.232 -3.0529  0.4983  0.1801
  873SOL     OW 2617   1.145   2.340   1.791  0.6004 -0.3340  0.4881
  873SOL    HW1 2618   1.192   2.293   1.865 -0.5837  1.6653 -0.3466
  873SOL    HW2 2619   1.055   2.292   1.776  0.2609 -0.9143 -2.2016
  874SOL     OW 2620   1.288   0.981   1.967  0.3151 -0.4356  0.9390
  874SOL    HW1 2621   1.217   1.043   1.928 -0.9228 -1.4308  0.4887
  874SOL    HW2 2622   1.265   0.970   2.066 -0.0679  2.4235 -2.7515
  875SOL     OW 2623   2.651   2.846   0.845 -0.4917 -0.2665 -0.0861
  875SOL    HW1 2624   2.721   2.785   0.887 -0.2716 -0.2802 -3.0600
  875SOL    HW2 2625   2.681   2.942   0.871  0.8714  1.5336  1.8117
  876SOL     OW 2626   0.899   1.188   0.493 -0.2903 -0.0357  0.0224
  876SOL    HW1 2627   0.986   1.230   0.465 -3.2767 -2.1476  1.1440
  876SOL    HW2 2628   0.825   1.226   0.440 -0.1930  1.8134 -0.7227
  877SOL     OW 2629   2.999   0.199   1.085 -0.1130  0.1939  0.1189
  877SOL    HW1 2630   3.034   0.143   1.007 -1.1469  2.1988 -0.8600
  877SOL    HW2 2631   3.034   0.162   1.174  3.5350 -2.8339  0.8540
  878SOL     OW 2632   2.664   1.731   0.432  0.5499 -0.5828 -0.1339
  878SOL    HW1 2633   2.680   1.688   0.522  2.5514 -0.3243 -1.8925
  878SOL    HW2 2634   2.568   1.761   0.417 -1.8110 -0.6758 -1.9873
  879SOL     OW 2635   2.484   1.856   1.255 -0.3302  0.3721 -0.0453
  879SOL    HW1 2636   2.422   1.771   1.268 -2.5401 -0.9157  0.6300
  879SOL    HW2 2637   2.499   1.875   1.157 -1.9205  1.2089  0.0997
  880SOL     OW 2638   0.208   2.665   0.720  0.0446  0.7105  0.1488
  880SOL    HW1 2639   0.158   2.705   0.800 -0.2440 -1.8225  1.4779
  880SOL    HW2 2640   0.280   2.727   0.684  2.6893  0.4224  1.7611
  881SOL     OW 2641   1.331   1.119   0.966 -0.2480  0.0711  0.4764
  881SOL    HW1 2642   1.364   1.215   0.967 -1.6357  3.2580 -2.6946
  881SOL    HW2 2643   1.234   1.119   0.930  0.2504 -2.5488  0.8884
  882SOL     OW 2644   2.530   0.976   2.831  0.5512 -0.3587 -0.2674
  882SOL    HW1 2645   2.530   1.070   2.795 -1.2528 -0.1538  2.3815
  882SOL    HW2 2646   2.569   0.921   2.753 -1.8244 -0.5939  1.1738
  883SOL     OW 2647   1.093   3.067   1.484  0.2438  0.1922 -0.5685
  883SOL    HW1 2648   1.007   3.015   1.511 -0.3888 -1.0317  4.0458
  883SOL    HW2 2649   1.167   3.018   1.439 -1.3829  0.8878 -0.8053
  884SOL     OW 2650   2.974   0.136   0.787 -0.1847  0.2886  0.2032
  884SOL    HW1 2651   2.967   0.119   0.686  0.3824 -1.1987 -1.9293
  884SOL    HW2 2652   2.973   0.237   0.798 -0.8051  0.9474 -0.4007
  885SOL     OW 2653   1.129   0.949   1.325  0.1291  0.2231 -0.0533
  885SOL    HW1 2654   1.108   0.943   1.423  0.8705 -1.1094 -2.5386
  885SOL    HW2 2655   1.214   1.007   1.312  0.1357  1.6104 -0.5602
  886SOL     OW 2656   1.825   0.968   2.652  0.0457  0.1444  0.0626
  886SOL    HW1 2657   1.820   0.905   2.732 -0.6530  3.7136 -2.0635
  886SOL    HW2 2658   1.912   1.020   2.641  1.5386  2.4289 -3.0048
  887SOL     OW 2659   1.676   0.556   1.084  0.4591 -0.3218  0.1213
  887SOL    HW1 2660   1.627   0.477   1.122  1.1888  2.4550 -3.8301
  887SOL    HW2 2661   1.690   0.544   0.986 -1.0037  1.8244 -0.0614
  888SOL     OW 2662   2.064   1.577   1.931 -0.1047 -0.1156  0.3114
  888SOL    HW1 2663   2.043   1.483   1.906  0.4796  1.5977  0.1322
  888SOL    HW2 2664   2.158   1.595   1.903 -3.3477  1.1360 -0.5821
  889SOL     OW 2665   2.316   2.166   0.788  0.0571  0.2208  0.1543
  889SOL    HW1 2666   2.268   2.237   0.728  0.1177  1.7665  2.8209
  889SOL    HW2 2667   2.240   2.111   0.832 -0.2878  1.7595 -0.8055
  890SOL     OW 2668   1.130   2.000   0.704  0.1005 -0.0858  0.2865
  890SOL    HW1 2669   1.227   1.967   0.692  0.0927 -1.5798  0.2911
  890SOL    HW2 2670   1.089   1.980   0.793  0.4939  1.8558 -1.3091
  891SOL     OW 2671   2.519   0.559   2.330 -0.6911 -0.6915  0.0633
  891SOL    HW1 2672   2.615   0.525   2.346  3.8873  0.0079 -4.1105
  891SOL    HW2 2673   2.496   0.540   2.235 -1.3659  0.2821 -0.5635
  892SOL     OW 2674   1.068   0.195   2.371  0.2528  0.2966  0.0266
  892SOL    HW1 2675   1.165   0.226   2.376 -0.9582  1.4413  1.5466
  892SOL    HW2 2676   1.004   0.273   2.353 -0.3870 -0.3093  1.5878
  893SOL     OW 2677   1.601   0.361   1.275 -1.6728 -0.5837  0.2556
  893SOL    HW1 2678   1.683   0.362   1.338  2.0882 -0.0340  2.7306
  893SOL    HW2 2679   1.524   0.392   1.330  1.9326 -1.0040 -0.7882
  894SOL     OW 2680   2.587   0.374   0.556 -0.1860 -0.3428 -0.0636
  894SOL    HW1 2681   2.563   0.277   0.590 -0.2285 -0.4638  0.7724
  894SOL    HW2 2682   2.682   0.370   0.517  2.1059  1.7809 -1.1054
  895SOL     OW 2683   1.969   2.432   2.796 -0.0897  0.5388 -0.5626
  895SOL    HW1 2684   1.970   2.515   2.855 -1.0454  0.2059 -0.6452
  895SOL    HW2 2685   1.979   2.348   2.856  2.1447 -2.1915  1.8467
  896SOL     OW 2686   1.704   2.858   1.692  0.4208  0.0943 -0.0074
  896SOL    HW1 2687   1.699   2.953   1.710 -2.9629  0.3715 -3.4414
  896SOL    HW2 2688   1.691   2.842   1.593  0.6063  3.7261  1.5597
  897SOL     OW 2689   0.448   2.052   2.086 -0.5385 -0.4766 -0.6156
  897SOL    HW1 2690   0.503   2.031   2.005 -0.2799 -0.3026  1.0439
  897SOL    HW2 2691   0.377   1.977   2.090  0.6266  2.4542  0.6708
  898SOL     OW 2692   2.249   1.820   2.124 -0.3652 -0.9686  0.0232
  898SOL    HW1 2693   2.287   1.764   2.049 -0.2263 -0.3686 -0.2359
  898SOL    HW2 2694   2.217   1.759   2.201 -0.0990  0.0172 -3.1681
  899SOL     OW 2695   1.911   2.290   0.626  0.1088 -0.0763 -0.6201
  899SOL    HW1 2696   1.977   2.321   0.702  1.1221 -0.1953  1.0105
  899SOL    HW2 2697   1.939   2.204   0.586 -0.8183  2.2821  2.7539
  900SOL     OW 2698   1.044   0.475   0.156  0.5797  0.0149  0.2880
  900SOL    HW1 2699   1.024   0.560   0.210  2.5331  1.4159  0.2939
  900SOL    HW2 2700   0.979   0.400   0.184 -1.0164 -3.5438 -1.1228
  901SOL     OW 2701   1.144   1.938   2.318  0.4837  0.2714 -0.1885
  901SOL    HW1 2702   1.048   1.941   2.290  0.5580 -0.4232  0.1967
  901SOL    HW2 2703   1.158   1.979   2.408  0.7748  0.6185 -0.4820
  902SOL     OW 2704   2.645   0.441   3.003  0.0934 -0.7240  0.3647
  902SOL    HW1 2705   2.724   0.471   2.944 -0.9153 -0.3503 -0.2048
  902SOL    HW2 2706   2.624   0.348   2.976 -0.9985  3.1041  3.7514
  903SOL     OW 2707   2.017   0.755   2.432 -0.4601 -0.1520  0.0775
  903SOL    HW1 2708   1.951   0.808   2.373  0.0971  0.0053 -3.5511
  903SOL    HW2 2709   2.046   0.667   2.387  0.7911  1.1362  0.9451
  904SOL     OW 2710   1.403   0.901   2.430  0.5488  0.3861 -0.0050
  904SOL    HW1 2711   1.468   0.979   2.422  0.2330  0.0316  0.7879
  904SOL    HW2 2712   1.456   0.817   2.397 -0.6532  0.0792  1.3615
  905SOL     OW 2713   2.029   2.947   1.834 -0.0112 -0.2270  0.0659
  905SOL    HW1 2714   2.068   2.963   1.740  1.9263 -0.2764 -0.2799
  905SOL    HW2 2715   2.014   2.850   1.854 -0.4670  2.3949 -0.6207
  906SOL     OW 2716   2.032   2.080   0.489  0.7133  0.2255  0.5688
  906SOL    HW1 2717   2.119   2.098   0.438 -0.1441  0.7017 -0.4812
  906SOL    HW2 2718   2.054   2.008   0.558  1.7270 -1.1096  1.6552
  907SOL     OW 2719   1.322   2.765   0.740 -0.6094  0.7150  0.1061
  907SOL    HW1 2720   1.382   2.782   0.662 -2.6448 -1.5439  2.2244
  907SOL    HW2 2721   1.307   2.664   0.749  1.8650  0.4835  2.0206
  908SOL     OW 2722   1.650   2.128   2.605 -0.3958  0.5581  0.4429
  908SOL    HW1 2723   1.717   2.206   2.623 -2.5502  1.8415  3.6467
  908SOL    HW2 2724   1.601   2.150   2.518 -1.5235 -2.0186 -1.8569
  909SOL     OW 2725   2.035   0.530   1.877 -0.0957  0.3329 -0.2453
  909SOL    HW1 2726   2.000   0.626   1.870 -0.6838  0.0846  0.5392
  909SOL    HW2 2727   2.118   0.524   1.934 -1.0762 -2.7752 -1.0768
  910SOL     OW 2728   1.493   0.262   2.881  0.3987 -0.2744  0.4403
  910SOL    HW1 2729   1.476   0.311   2.971 -0.0881  0.4857  1.0349
  910SOL    HW2 2730   1.413   0.194   2.875  0.2269  0.1586  0.0380
  911SOL     OW 2731   0.033   1.056   0.064 -0.1337 -0.0962 -0.1576
  911SOL    HW1 2732   0.042   1.091   0.158 -0.3869 -3.9259  1.5265
  911SOL    HW2 2733   3.081   0.969   0.069 -1.3851 -0.9165 -0.4208
  912SOL     OW 2734   0.022   2.575   0.527  0.8061 -0.0701  0.5053
  912SOL    HW1 2735   0.048   2.480   0.496 -0.5103 -1.2455  1.1007
  912SOL    HW2 2736   0.085   2.604   0.602  0.5006  2.2224 -1.0227
  913SOL     OW 2737   2.811   2.197   2.438  0.5066  0.5278 -0.0069
  913SOL    HW1 2738   2.854   2.247   2.358 -0.7502 -1.1456  1.3046
  913SOL    HW2 2739   2.881   2.148   2.492  1.1770 -2.3982 -1.7232
  914SOL     OW 2740   1.554   1.668   1.032 -0.0841 -0.1840  0.0560
  914SOL    HW1 2741   1.535   1.671   0.931  1.7975 -2.4390 -0.6192
  914SOL    HW2 2742   1.477   1.716   1.081 -3.0603  1.6487  0.9407
  915SOL     OW 2743   0.255   2.866   2.152 -0.1237  0.4459  0.2580
  915SOL    HW1 2744   0.260   2.773   2.106  1.3523 -0.9124  2.0119
  915SOL    HW2 2745   0.157   2.909   2.150 -1.7847  2.4235 -0.7745
  916SOL     OW 2746   0.716   0.146   1.635  0.0034 -0.2906 -0.1826
  916SOL    HW1 2747   0.817   0.154   1.636 -1.4985 -0.0975  1.1899
  916SOL    HW2 2748   0.685   0.241   1.639  0.3794 -2.0054 -2.1374
  917SOL     OW 2749   2.665   0.727   0.269  0.7247  0.1718  0.2637
  917SOL    HW1 2750   2.717   0.659   0.218 -1.8684 -1.8477  0.7080
  917SOL    HW2 2751   2.568   0.725   0.233 -0.4439 -2.3440 -0.1786
  918SOL     OW 2752   1.646   2.295   3.060  0.0117 -0.4423 -0.0495
  918SOL    HW1 2753   1.608   2.322   2.973  0.7885  1.3581  1.2598
  918SOL    HW2 2754   1.584   2.227   0.009 -0.1185 -0.0725  0.7927
  919SOL     OW 2755   1.760   2.815   1.170 -0.4181  0.1787  0.5507
  919SOL    HW1 2756   1.749   2.903   1.123 -2.9237 -1.3517 -0.0396
  919SOL    HW2 2757   1.714   2.733   1.120 -1.0011 -0.0625  0.7773
  920SOL     OW 2758   1.346   0.251   2.399  0.5693  0.2504  0.0314
  920SOL    HW1 2759   1.349   0.148   2.404 -0.1053  0.3929 -0.0534
  920SOL    HW2 2760   1.353   0.306   2.488 -2.4893 -0.4528  0.6939
  921SOL     OW 2761   2.848   0.910   2.818 -0.3335  0.0037 -0.6647
  921SOL    HW1 2762   2.881   0.996   2.770  1.5283  0.3982  0.5398
  921SOL    HW2 2763   2.840   0.924   2.921 -0.1085 -3.1178  2.1505
  922SOL     OW 2764   0.211   2.141   1.064 -0.1830 -0.2104  0.4151
  922SOL    HW1 2765   0.263   2.086   1.134  1.0701 -1.3328  1.3098
  922SOL    HW2 2766   0.186   2.235   1.097  0.2076  2.4857 -0.1348
  923SOL     OW 2767   0.611   1.549   1.707  0.3358  0.2526 -0.6937
  923SOL    HW1 2768   0.627   1.533   1.611  0.7638  2.0527  3.1318
  923SOL    HW2 2769   0.514   1.558   1.724 -0.7338  0.9022 -0.8411
  924SOL     OW 2770   1.802   2.731   2.574  0.0920 -0.3332 -0.1645
  924SOL    HW1 2771   1.712   2.684   2.576  0.9593 -3.4207 -0.1741
  924SOL    HW2 2772   1.816   2.783   2.659 -1.6167 -0.6180 -2.9751
  925SOL     OW 2773   2.651   1.518   0.937  0.0526 -0.0073 -0.2998
  925SOL    HW1 2774   2.606   1.434   0.909  0.9010  1.0799  1.8073
  925SOL    HW2 2775   2.685   1.515   1.034  0.5624 -2.2766 -1.4891
  926SOL     OW 2776   2.086   0.887   1.228 -0.6074 -0.1753  0.1373
  926SOL    HW1 2777   2.180   0.856   1.262 -2.1099  1.3448 -0.5331
  926SOL    HW2 2778   2.088   0.991   1.225  0.6746  0.7979 -0.4657
  927SOL     OW 2779   1.960   0.127   1.547  0.1583 -0.5768  0.2118
  927SOL    HW1 2780   2.006   0.209   1.502 -1.6303 -0.8576  0.4426
  927SOL    HW2 2781   2.026   0.053   1.568 -2.3493  1.4037 -0.9878
  928SOL     OW 2782   0.104   1.045   2.192 -0.2821 -0.0166 -0.0244
  928SOL    HW1 2783   0.179   1.109   2.153  0.1894 -1.1041 -1.0255
  928SOL    HW2 2784   0.022   1.062   2.134 -0.9670  0.5088 -0.5859
  929SOL     OW 2785   2.310   0.899   1.718 -0.2073 -0.2137 -0.1628
  929SOL    HW1 2786   2.269   0.961   1.648 -1.1922  3.4493  0.7138
  929SOL    HW2 2787   2.385   0.942   1.765 -0.3793 -1.3823  1.0058
  930SOL     OW 2788   2.531   2.747   2.137  0.3418 -0.6269  0.5956
  930SOL    HW1 2789   2.467   2.808   2.087 -3.0132 -0.9573  0.6131
  930SOL    HW2 2790   2.484   2.656   2.149 -1.5416 -2.8068  1.9539
  931SOL     OW 2791   1.724   1.274   1.513 -0.1583  0.0798  0.8570
  931SOL    HW1 2792   1.632   1.258   1.557 -0.7588  1.2867  2.5966
  931SOL    HW2 2793   1.788   1.326   1.576  1.1107  1.0504  1.2395
  932SOL     OW 2794   0.400   0.814   1.844  0.0016  0.0749  0.2988
  932SOL    HW1 2795   0.393   0.821   1.949  1.3733 -0.0873  1.0128
  932SOL    HW2 2796   0.463   0.888   1.806  0.4654  0.3338 -1.2031
  933SOL     OW 2797   2.484   2.152   1.735  0.0744 -0.4083 -1.0391
  933SOL    HW1 2798   2.529   2.091   1.669  0.1187  0.0324  3.1320
  933SOL    HW2 2799   2.399   2.111   1.771 -3.1620 -1.8043 -1.6119
  934SOL     OW 2800   0.535   1.947   1.862 -0.2702 -0.2393  0.5329
  934SOL    HW1 2801   0.612   1.884   1.869  0.9824  0.9232  0.0371
  934SOL    HW2 2802   0.495   1.921   1.768  1.2086 -2.4611  1.0442
  935SOL     OW 2803   3.054   1.346   1.731 -0.1663 -0.0899 -0.3026
  935SOL    HW1 2804   3.066   1.445   1.753 -1.9618 -1.1619  0.7957
  935SOL    HW2 2805   3.005   1.301   1.806 -0.9445  0.1328  1.8936
  936SOL     OW 2806   3.028   0.950   1.490  0.2261  0.1853 -0.4830
  936SOL    HW1 2807   2.981   0.896   1.416 -1.1566  1.0300 -0.6363
  936SOL    HW2 2808   2.985   0.922   1.578  0.2100 -0.4044  1.5420
  937SOL     OW 2809   1.824   0.572   1.450  0.1645  0.1334 -0.0921
  937SOL    HW1 2810   1.900   0.576   1.515  0.2645  1.2985  2.9776
  937SOL    HW2 2811   1.762   0.647   1.483 -0.2708  1.9822  0.6112
  938SOL     OW 2812   0.614   2.734   0.123  0.0985  0.5698 -0.2620
  938SOL    HW1 2813   0.530   2.747   0.180 -2.0085 -0.2606  0.1677
  938SOL    HW2 2814   0.604   2.649   0.070 -2.1773  0.9437 -1.7115
  939SOL     OW 2815   3.005   2.070   2.584 -0.0673  0.5389 -0.6448
  939SOL    HW1 2816   3.044   1.975   2.581  3.2890  1.3084 -0.6949
  939SOL    HW2 2817   2.961   2.081   2.675  2.2328 -0.1363  0.5148
  940SOL     OW 2818   1.514   1.944   0.281  0.2501 -0.0750  0.3203
  940SOL    HW1 2819   1.607   1.959   0.313  0.4515  2.5725  0.2523
  940SOL    HW2 2820   1.480   1.849   0.300  0.9959  0.0859 -3.2003
  941SOL     OW 2821   2.447   2.524   0.137 -0.3698 -0.0708  0.2454
  941SOL    HW1 2822   2.366   2.547   0.195  1.1234  0.4233  1.2249
  941SOL    HW2 2823   2.514   2.464   0.184 -0.7170  1.2034  0.3069
  942SOL     OW 2824   1.750   2.008   0.964  0.5918 -0.4021  0.1386
  942SOL    HW1 2825   1.789   1.922   0.927 -0.8489  0.8151  0.8363
  942SOL    HW2 2826   1.661   1.990   1.013 -2.4871  0.3086  1.3993
  943SOL     OW 2827   1.953   0.785   1.874 -0.4564 -0.0983 -0.5776
  943SOL    HW1 2828   1.942   0.793   1.771  1.9154  0.0902 -2.0588
  943SOL    HW2 2829   2.021   0.861   1.895  1.2205  3.3010 -3.1129
  944SOL     OW 2830   1.226   0.931   2.220  0.4608 -0.2577 -0.1866
  944SOL    HW1 2831   1.297   0.913   2.291  1.3501 -0.5781  0.8276
  944SOL    HW2 2832   1.167   0.848   2.220 -2.1430 -0.2309  2.7016
  945SOL     OW 2833   2.304   2.557   1.458  0.5473  0.1553  0.7209
  945SOL    HW1 2834   2.396   2.518   1.442 -2.4563 -2.7028  0.9674
  945SOL    HW2 2835   2.249   2.500   1.517 -1.2706  2.1764  2.3406
  946SOL     OW 2836   0.381   1.185   0.275 -0.2736 -0.0290 -0.1821
  946SOL    HW1 2837   0.348   1.270   0.321 -1.9314  1.7391  1.8271
  946SOL    HW2 2838   0.390   1.102   0.336 -4.1737 -1.9808  1.1960
  947SOL     OW 2839   1.610   2.411   1.192  0.5523 -0.0677 -0.4182
  947SOL    HW1 2840   1.561   2.411   1.279 -0.5024  1.6788  2.1671
  947SOL    HW2 2841   1.696   2.353   1.193  0.8988 -0.3382 -0.2183
  948SOL     OW 2842   0.296   1.774   0.810  0.7684 -0.6269  0.0708
  948SOL    HW1 2843   0.242   1.745   0.890  1.5826 -0.6450  1.6995
  948SOL    HW2 2844   0.368   1.707   0.794 -0.5412 -0.7215  0.8881
  949SOL     OW 2845   1.129   1.321   1.213  0.1885  0.5293  0.4476
  949SOL    HW1 2846   1.046   1.258   1.217 -2.5304 -1.7862  0.6819
  949SOL    HW2 2847   1.217   1.269   1.210 -1.4892 -0.7514 -0.3386
  950SOL     OW 2848   0.467   0.561   1.121  0.1122  0.0200  0.6389
  950SOL    HW1 2849   0.553   0.585   1.072 -0.4016  0.8144 -0.2666
  950SOL    HW2 2850   0.394   0.624   1.092 -1.5261 -0.2445 -1.7893
  951SOL     OW 2851   0.518   2.074   2.345  0.0070  0.1239  0.1987
  951SOL    HW1 2852   0.476   2.067   2.253 -1.0108  0.5718 -2.1555
  951SOL    HW2 2853   0.565   2.163   2.365  2.1908  0.0468  0.5954
  952SOL     OW 2854   1.237   1.411   0.055 -0.1525 -0.3039  0.3468
  952SOL    HW1 2855   1.242   1.489   0.124  1.0720  2.2697 -0.4075
  952SOL    HW2 2856   1.186   1.332   0.086  0.9844  0.0910 -0.1824
  953SOL     OW 2857   1.203   2.951   3.039  0.1791  0.0752 -0.2058
  953SOL    HW1 2858   1.258   2.977   0.020 -1.7217 -2.9045 -2.7158
  953SOL    HW2 2859   1.155   2.866   3.063 -1.1672  1.0669 -1.1921
  954SOL     OW 2860   1.775   1.341   0.145 -0.1115  0.5398 -0.1665
  954SOL    HW1 2861   1.790   1.262   0.079  0.2748 -0.7372  0.5053
  954SOL    HW2 2862   1.711   1.398   0.090 -2.4066 -3.7294 -0.4101
  955SOL     OW 2863   0.150   2.742   0.009  0.2614 -0.0113  0.0588
  955SOL    HW1 2864   0.238   2.796   0.009  1.3131  0.9653  0.6243
  955SOL    HW2 2865   0.113   2.755   3.013  2.7568 -0.4311  1.7836
  956SOL     OW 2866   1.162   0.702   1.209  0.2876 -0.4352 -0.4433
  956SOL    HW1 2867   1.161   0.793   1.256 -0.3255  3.5972  2.0930
  956SOL    HW2 2868   1.152   0.626   1.281 -2.1465 -0.0374 -0.6445
  957SOL     OW 2869   1.088   1.503   1.435  0.3980  0.3370  0.2692
  957SOL    HW1 2870   1.032   1.590   1.419 -0.3832 -0.3148 -5.1925
  957SOL    HW2 2871   1.121   1.470   1.347  2.3065  1.4857 -0.0658
  958SOL     OW 2872   0.525   1.966   0.785  0.4482  0.4010  0.1407
  958SOL    HW1 2873   0.461   1.889   0.774 -0.1231  2.7263 -0.1382
  958SOL    HW2 2874   0.622   1.934   0.771  0.6682  2.7084  1.1170
  959SOL     OW 2875   1.424   1.453   1.200  0.1777 -0.3967 -0.2740
  959SOL    HW1 2876   1.400   1.552   1.181  2.8137 -1.5985 -0.0135
  959SOL    HW2 2877   1.398   1.426   1.297 -1.9320 -1.9896 -0.8402
  960SOL     OW 2878   0.105   1.299   2.780 -0.0994 -0.0620  0.2361
  960SOL    HW1 2879   0.157   1.386   2.800  1.4521 -1.2503  0.1140
  960SOL    HW2 2880   0.095   1.274   2.679 -1.2221 -0.7825  0.6904
  961SOL     OW 2881   0.895   1.293   1.462  0.1255 -0.2046  0.4086
  961SOL    HW1 2882   0.890   1.234   1.379 -0.1841  0.8747 -2.3816
  961SOL    HW2 2883   0.975   1.346   1.466 -0.0353 -2.9287  1.1218
  962SOL     OW 2884   0.903   1.324   0.750  0.0053  0.0540  0.2945
  962SOL    HW1 2885   0.983   1.374   0.702  2.3105  0.2557 -0.0198
  962SOL    HW2 2886   0.860   1.259   0.685  0.5456 -0.0910  1.7417
  963SOL     OW 2887   1.561   1.541   2.556  0.4044 -0.5319  1.1785
  963SOL    HW1 2888   1.601   1.626   2.511 -0.2934 -0.7782  0.8812
  963SOL    HW2 2889   1.490   1.562   2.627  0.3521 -2.2290 -0.5188
  964SOL     OW 2890   0.647   2.534   2.863 -0.2275 -0.3350  0.6916
  964SOL    HW1 2891   0.738   2.495   2.872 -1.0662  0.3742  1.7065
  964SOL    HW2 2892   0.597   2.526   2.946  0.9812  0.5148 -3.2400
  965SOL     OW 2893   0.477   2.310   0.186  0.8543 -0.0555 -0.1117
  965SOL    HW1 2894   0.430   2.219   0.176 -2.1434 -1.0781 -0.5953
  965SOL    HW2 2895   0.405   2.380   0.201  0.6673  0.6271  0.3157
  966SOL     OW 2896   2.999   1.597   2.721  0.2467  0.4841 -0.0925
  966SOL    HW1 2897   2.922   1.534   2.690 -3.2062 -2.7653 -0.5460
  966SOL    HW2 2898   3.075   1.543   2.767  2.2594 -0.3002  0.2211
  967SOL     OW 2899   2.282   3.049   2.600 -0.0382 -0.3671  0.1438
  967SOL    HW1 2900   2.216   3.029   2.527  1.0214 -1.7970 -0.9486
  967SOL    HW2 2901   2.334   2.964   2.623 -1.2503 -1.3628  1.6752
  968SOL     OW 2902   2.093   0.101   0.546  0.4153 -0.5017 -0.1352
  968SOL    HW1 2903   2.139   0.038   0.484 -0.4395 -0.0101  0.4178
  968SOL    HW2 2904   2.157   0.128   0.618  1.5732  1.5458  0.8110
  969SOL     OW 2905   0.198   1.240   2.012  0.3953 -0.1638  0.4949
  969SOL    HW1 2906   0.220   1.220   1.915 -2.1984  1.5014  1.4152
  969SOL    HW2 2907   0.279   1.216   2.070 -3.3644 -1.3999 -1.4664
  970SOL     OW 2908   1.850   1.492   0.932 -0.1117 -0.6172 -0.2026
  970SOL    HW1 2909   1.797   1.509   1.018  0.2993  0.2111 -1.5072
  970SOL    HW2 2910   1.948   1.460   0.952  1.9578 -1.9186  1.4487
  971SOL     OW 2911   2.213   3.091   1.112 -0.5434  0.7091  0.3156
  971SOL    HW1 2912   2.266   3.018   1.157  0.5989 -3.4801 -0.6495
  971SOL    HW2 2913   2.257   0.084   1.123  0.0621 -0.1301  0.7889
  972SOL     OW 2914   0.425   2.883   1.444  0.0532  0.3919  0.4234
  972SOL    HW1 2915   0.468   2.826   1.374  2.8699 -2.2445 -1.1744
  972SOL    HW2 2916   0.496   2.950   1.480  1.1846  0.4427 -2.1763
  973SOL     OW 2917   0.580   0.369   2.830 -0.6952 -0.2615 -0.4624
  973SOL    HW1 2918   0.602   0.389   2.928 -0.6109  0.2966 -1.4942
  973SOL    HW2 2919   0.493   0.311   2.828  0.9858 -2.7134  1.1806
  974SOL     OW 2920   2.007   1.315   1.888  0.3571  0.1249 -0.1860
  974SOL    HW1 2921   1.911   1.297   1.914 -0.3628  0.2032 -2.3640
  974SOL    HW2 2922   2.078   1.275   1.951  1.2330 -1.6085 -1.5044
  975SOL     OW 2923   0.014   0.075   1.307  0.0099  0.0974 -0.1902
  975SOL    HW1 2924   3.081   3.092   1.362  1.6275 -0.4798 -0.7135
  975SOL    HW2 2925   0.091   0.045   1.242  0.4699  1.8421 -3.6299
  976SOL     OW 2926   0.879   1.956   2.332 -0.5518  0.0007  0.3799
  976SOL    HW1 2927   0.849   2.028   2.398 -0.5977 -1.0991  1.4902
  976SOL    HW2 2928   0.860   1.865   2.361  1.0409 -0.3744  0.0876
  977SOL     OW 2929   0.935   2.257   0.420 -0.4064  0.5066 -0.1783
  977SOL    HW1 2930   0.975   2.348   0.403 -0.8476 -0.3606 -1.5852
  977SOL    HW2 2931   1.006   2.187   0.397  1.6053 -0.0467  0.9642
  978SOL     OW 2932   2.813   1.646   2.309  0.2509 -0.2347  0.2515
  978SOL    HW1 2933   2.908   1.661   2.279 -3.4345  1.4416  0.1584
  978SOL    HW2 2934   2.793   1.705   2.392  0.4628 -1.2381  0.0232
  979SOL     OW 2935   1.681   2.780   1.428  0.2898 -0.5839 -0.0466
  979SOL    HW1 2936   1.724   2.824   1.347 -1.2245  0.7548  0.0572
  979SOL    HW2 2937   1.595   2.724   1.400  2.5307 -2.0883 -1.4464
  980SOL     OW 2938   1.267   1.205   2.739 -0.4322 -0.0736 -0.6570
  980SOL    HW1 2939   1.254   1.249   2.650 -1.8743  0.5204  2.1221
  980SOL    HW2 2940   1.270   1.280   2.811 -0.7758 -0.6570 -2.8800
  981SOL     OW 2941   2.278   0.160   1.898 -0.2114 -1.1666  0.1862
  981SOL    HW1 2942   2.286   0.241   1.836 -0.8737  1.5806  4.2583
  981SOL    HW2 2943   2.176   0.134   1.901  0.3614 -0.3706  2.1788
  982SOL     OW 2944   0.326   0.458   3.007 -0.3657  0.2220 -0.0979
  982SOL    HW1 2945   0.245   0.447   3.063  0.2617 -0.2886 -0.9237
  982SOL    HW2 2946   0.356   0.552   3.012  0.8232 -4.2551  1.7554
  983SOL     OW 2947   2.345   1.213   2.411  0.7023 -0.2439 -0.2632
  983SOL    HW1 2948   2.390   1.244   2.498 -0.0305 -1.4606  0.1272
  983SOL    HW2 2949   2.260   1.166   2.443  2.2976 -2.8421  1.9840
  984SOL     OW 2950   1.257   2.914   2.040  0.4604  0.0593  0.6658
  984SOL    HW1 2951   1.310   2.926   2.129 -0.9307 -0.5554  0.9592
  984SOL    HW2 2952   1.178   2.846   2.047 -0.5279 -4.4580  0.3704
  985SOL     OW 2953   1.879   1.641   1.596 -0.1934 -0.3626 -0.0207
  985SOL    HW1 2954   1.900   1.543   1.618 -0.7553 -1.5560  0.8835
  985SOL    HW2 2955   1.950   1.677   1.536 -0.8153  3.9151  0.4414
  986SOL     OW 2956   2.378   0.625   1.777  0.1485  0.3076 -0.0878
  986SOL    HW1 2957   2.472   0.626   1.738 -0.5493 -1.9969 -2.8967
  986SOL    HW2 2958   2.335   0.713   1.744 -0.3865  1.7421  3.1172
  987SOL     OW 2959   2.898   0.789   1.300 -0.0104 -0.1560 -1.2911
  987SOL    HW1 2960   2.930   0.692   1.317  0.2290  0.1849  0.0193
  987SOL    HW2 2961   2.799   0.789   1.283  0.3016  0.6402 -0.8093
  988SOL     OW 2962   0.102   0.787   2.059  0.0710 -0.2721 -0.2187
  988SOL    HW1 2963   0.128   0.872   2.109  0.7904 -2.3728 -1.6051
  988SOL    HW2 2964   0.070   0.810   1.964  1.8366 -0.4987 -0.2888
  989SOL     OW 2965   2.344   1.458   0.153 -0.0305  0.3380 -0.3865
  989SOL    HW1 2966   2.250   1.488   0.172  2.9082  2.9442 -1.0114
  989SOL    HW2 2967   2.397   1.540   0.127 -1.6163  0.3973  0.1655
  990SOL     OW 2968   1.099   0.143   2.650  0.3964 -0.2240 -0.4444
  990SOL    HW1 2969   1.108   0.191   2.562  1.7793 -1.4900 -1.0690
  990SOL    HW2 2970   1.095   0.043   2.636  1.2634  2.3338  0.7688
  991SOL     OW 2971   1.242   1.119   0.651  0.2418  0.3142 -0.4548
  991SOL    HW1 2972   1.219   1.194   0.586  0.5150  0.5853  0.3753
  991SOL    HW2 2973   1.183   1.126   0.731  0.7696 -0.0657  1.2177
  992SOL     OW 2974   2.203   1.220   0.224  0.2517 -0.4509 -0.0160
  992SOL    HW1 2975   2.118   1.252   0.267 -0.0469  0.5182 -0.4111
  992SOL    HW2 2976   2.270   1.294   0.228 -1.5091 -3.0931 -1.1912
  993SOL     OW 2977   0.055   0.779   0.808 -0.4278  0.2463  0.0346
  993SOL    HW1 2978   3.072   0.774   0.870 -1.4366  1.1205  1.0843
  993SOL    HW2 2979   0.121   0.703   0.818 -0.4515  2.4155  3.1215
  994SOL     OW 2980   0.167   2.073   2.472  0.1408  0.0949 -0.1801
  994SOL    HW1 2981   0.078   2.074   2.514  0.3928  1.5237 -0.1713
  994SOL    HW2 2982   0.228   2.012   2.528 -0.0112 -0.4166 -0.7484
  995SOL     OW 2983   1.769   1.312   2.845 -0.1688 -0.7087  0.7081
  995SOL    HW1 2984   1.792   1.263   2.932  0.3921 -2.9559  3.3308
  995SOL    HW2 2985   1.684   1.279   2.792 -2.6887 -0.9250  0.3766
  996SOL     OW 2986   2.529   1.042   0.150  0.1789  0.5333  0.2717
  996SOL    HW1 2987   2.437   1.000   0.178  0.0452 -0.0246  3.5862
  996SOL    HW2 2988   2.587   0.993   0.082  0.2779 -1.2257  0.2721
  997SOL     OW 2989   2.085   1.015   1.832  0.3074  0.7768  0.0847
  997SOL    HW1 2990   2.164   0.960   1.798  0.4639 -1.7135  0.1835
  997SOL    HW2 2991   2.099   1.116   1.847  2.1094  0.0111  1.6202
  998SOL     OW 2992   2.814   1.948   0.366  0.2500  0.1066  0.5160
  998SOL    HW1 2993   2.763   1.860   0.379  0.0816 -1.8586  0.7813
  998SOL    HW2 2994   2.793   2.012   0.439  1.8974 -0.8153  1.1122
  999SOL     OW 2995   2.828   2.326   3.042  0.6003 -0.1534 -0.0323
  999SOL    HW1 2996   2.837   2.253   0.014  1.0071  1.3189 -0.5298
  999SOL    HW2 2997   2.871   2.417   3.071  0.3093  0.8154 -0.0421
 1000SOL     OW 2998   1.145   0.672   2.208 -0.0478  0.0594  0.2633
 1000SOL    HW1 2999   1.160   0.615   2.290 -1.7875 -0.6417  2.1901
 1000SOL    HW2 3000   1.052   0.658   2.166 -1.3825 -3.9401 -0.1116
   3.09644   3.09644   3.09644
