1000 SPC/Fw water molecules t= 260.00000 step= 260000
 3000
    1SOL     OW    1   2.753   2.482   0.981 -0.2934  0.0007  0.1758
    1SOL    HW1    2   2.755   2.559   1.044  0.1256  0.4926 -2.7429
    1SOL    HW2    3   2.730   2.515   0.888  0.2129  2.3843 -0.1464
    2SOL     OW    4   1.798   2.102   1.259 -0.0303 -0.5735  0.1814
    2SOL    HW1    5   1.750   2.056   1.337  1.2713  0.8751  0.2885
    2SOL    HW2    6   1.894   2.139   1.282  1.1490 -0.7934  0.4223
    3SOL     OW    7   0.928   2.664   2.799 -0.2651 -0.5362  0.3383
    3SOL    HW1    8   0.935   2.567   2.783 -0.9811  0.9242 -0.9689
    3SOL    HW2    9   0.956   2.691   2.897 -0.0354  2.4474  2.0203
    4SOL     OW   10   1.993   2.031   1.569  0.4055 -0.0984  0.1717
    4SOL    HW1   11   2.052   1.991   1.638 -1.4935 -0.4629 -1.7075
    4SOL    HW2   12   1.983   2.127   1.602  1.3993 -1.6471  0.0511
    5SOL     OW   13   1.361   1.044   1.289  0.3599  0.2456 -0.7318
    5SOL    HW1   14   1.353   1.141   1.320 -2.8469  0.5049 -1.8011
    5SOL    HW2   15   1.432   1.037   1.220 -1.1998 -2.4882 -1.0036
    6SOL     OW   16   2.518   0.124   0.269 -0.1151  0.3309  0.1633
    6SOL    HW1   17   2.584   0.055   0.241 -2.5210 -0.0874  0.8403
    6SOL    HW2   18   2.513   0.194   0.199  2.5693  0.6567 -2.6756
    7SOL     OW   19   2.713   1.188   1.369 -0.2684 -0.3617  0.3587
    7SOL    HW1   20   2.672   1.225   1.451 -1.6140 -1.2682 -0.2075
    7SOL    HW2   21   2.685   1.254   1.295 -0.0695  2.1749  0.9053
    8SOL     OW   22   1.233   2.965   0.943 -0.2536  0.0524  0.0446
    8SOL    HW1   23   1.273   2.959   1.035  2.5167 -0.1774 -0.1000
    8SOL    HW2   24   1.303   2.928   0.879  0.2247 -0.5941  2.7297
    9SOL     OW   25   1.430   0.233   2.445  1.2371 -0.7273 -0.5049
    9SOL    HW1   26   1.470   0.277   2.358 -2.3840  0.7845  2.4941
    9SOL    HW2   27   1.498   0.196   2.514  0.6832 -1.7604 -1.0565
   10SOL     OW   28   0.696   2.134   0.536  0.0202 -0.0614  0.2904
   10SOL    HW1   29   0.723   2.137   0.632  2.1703 -1.7396 -3.5227
   10SOL    HW2   30   0.775   2.109   0.478  0.7598 -2.1239 -1.1000
   11SOL     OW   31   1.460   1.280   0.363 -0.1705 -0.3946 -0.4980
   11SOL    HW1   32   1.543   1.311   0.415  0.4772 -1.0445 -0.2636
   11SOL    HW2   33   1.425   1.354   0.299 -0.6715  0.9768 -1.4579
   12SOL     OW   34   2.798   3.046   1.909 -0.3256  0.9481 -0.0034
   12SOL    HW1   35   2.750   0.043   1.970 -0.2217 -0.3040 -0.1955
   12SOL    HW2   36   2.742   2.963   1.893  0.7016  1.5667 -0.0494
   13SOL     OW   37   1.767   0.214   0.636  0.2252  0.2414 -0.1357
   13SOL    HW1   38   1.731   0.310   0.653 -2.6022  2.1083  1.3518
   13SOL    HW2   39   1.852   0.201   0.692 -1.8802  0.0038 -1.4187
   14SOL     OW   40   1.259   2.355   1.050  0.0017  0.1277  0.1943
   14SOL    HW1   41   1.237   2.446   1.009  0.8765 -0.5597 -0.0354
   14SOL    HW2   42   1.357   2.334   1.053 -1.9242  0.8308 -1.4262
   15SOL     OW   43   2.641   1.507   1.503 -0.5446  0.3700 -0.1583
   15SOL    HW1   44   2.693   1.537   1.424 -0.2889  2.1406  0.6708
   15SOL    HW2   45   2.700   1.473   1.580  1.9229 -2.7651  2.1347
   16SOL     OW   46   2.126   2.517   0.359 -0.4404 -0.0690 -0.5292
   16SOL    HW1   47   2.181   2.482   0.435 -1.3203  0.9263  1.6150
   16SOL    HW2   48   2.025   2.496   0.378 -2.2881  0.3634  2.6131
   17SOL     OW   49   0.791   3.018   1.357 -0.3221 -1.1523 -0.0274
   17SOL    HW1   50   0.791   0.053   1.355 -0.2761  1.7128 -2.3899
   17SOL    HW2   51   0.700   2.977   1.360  0.4041  0.5239 -2.8446
   18SOL     OW   52   1.356   0.756   2.939 -0.7805 -0.5708 -0.0970
   18SOL    HW1   53   1.323   0.837   2.992  0.1952  0.7296 -3.2435
   18SOL    HW2   54   1.459   0.760   2.926  2.3631 -0.2074  0.3655
   19SOL     OW   55   1.849   1.987   3.013 -0.2719  0.1695 -0.1812
   19SOL    HW1   56   1.875   1.952   2.919  0.6593 -1.2118  0.3990
   19SOL    HW2   57   1.812   2.084   3.010  2.1032  2.8213 -1.0619
   20SOL     OW   58   2.105   1.919   1.812 -0.2600 -0.4466  0.1446
   20SOL    HW1   59   2.206   1.940   1.815 -2.3064  0.7930  2.5231
   20SOL    HW2   60   2.091   1.820   1.826  1.3062 -2.1844 -2.1521
   21SOL     OW   61   1.103   1.722   0.271 -0.1439  0.5167 -0.0109
   21SOL    HW1   62   1.041   1.642   0.288 -1.5555  1.7217 -1.3474
   21SOL    HW2   63   1.058   1.813   0.268 -0.6103 -2.1171 -1.1837
   22SOL     OW   64   1.937   0.029   1.602 -0.1394  0.2021 -0.1392
   22SOL    HW1   65   2.012   0.027   1.533  0.4354 -0.5006 -0.2356
   22SOL    HW2   66   1.918   0.122   1.635  0.8626 -2.2063 -0.2552
   23SOL     OW   67   2.808   0.807   1.751 -0.0531 -0.3576 -0.1254
   23SOL    HW1   68   2.732   0.864   1.709  2.3916  2.8838 -1.6814
   23SOL    HW2   69   2.791   0.789   1.852 -0.7830  0.5688 -0.1846
   24SOL     OW   70   2.289   2.732   0.345  0.2235  0.1249  0.6666
   24SOL    HW1   71   2.296   2.750   0.244 -0.4769  1.4128 -3.3727
   24SOL    HW2   72   2.230   2.648   0.359  0.9356  0.4962 -0.8287
   25SOL     OW   73   1.334   2.982   2.516  0.1149  0.4619 -0.2933
   25SOL    HW1   74   1.268   3.043   2.464  1.4432  2.3304 -3.2120
   25SOL    HW2   75   1.394   2.931   2.449  0.8395  1.9517  0.7759
   26SOL     OW   76   1.802   2.655   0.082 -0.1132  0.0225  0.6534
   26SOL    HW1   77   1.714   2.646   0.029 -0.0293 -0.6212  0.3360
   26SOL    HW2   78   1.805   2.612   0.175  1.7380  0.0768 -0.2218
   27SOL     OW   79   2.883   1.946   2.999 -0.2738 -0.1986 -0.2268
   27SOL    HW1   80   2.812   2.004   3.038 -1.6302  2.6359 -1.8623
   27SOL    HW2   81   2.899   1.979   2.903  0.5585  2.5075 -2.4022
   28SOL     OW   82   3.053   1.074   1.739  0.0484  0.0874  0.2665
   28SOL    HW1   83   2.980   1.058   1.674  3.2672  1.2389 -0.8398
   28SOL    HW2   84   0.029   1.167   1.722  1.9613 -1.1481  0.1916
   29SOL     OW   85   2.457   2.448   1.192  0.0514 -0.2852  0.4216
   29SOL    HW1   86   2.476   2.510   1.273 -0.1841 -0.9989  4.6103
   29SOL    HW2   87   2.545   2.418   1.146  0.6065 -1.0969 -0.0762
   30SOL     OW   88   1.530   0.316   0.276  0.1874 -0.1693 -0.5270
   30SOL    HW1   89   1.512   0.400   0.335  1.4029 -1.4565  1.2178
   30SOL    HW2   90   1.601   0.330   0.206 -2.7736 -1.0959 -1.2839
   31SOL     OW   91   2.669   2.816   1.778  0.2017 -0.2933 -0.6269
   31SOL    HW1   92   2.568   2.823   1.763 -3.5730 -0.7834  0.4042
   31SOL    HW2   93   2.704   2.755   1.703 -1.2304  0.4911 -0.9973
   32SOL     OW   94   0.900   1.791   1.192 -0.3691  0.4847 -0.4661
   32SOL    HW1   95   0.922   1.754   1.102 -2.1139  3.1506  0.2951
   32SOL    HW2   96   0.851   1.875   1.182 -0.2899  2.0556 -2.2753
   33SOL     OW   97   0.503   2.815   2.668  0.0737 -0.0699  0.3089
   33SOL    HW1   98   0.550   2.857   2.745  0.3666 -0.7540  0.3044
   33SOL    HW2   99   0.413   2.780   2.702 -1.0826  2.1955 -2.9203
   34SOL     OW  100   1.442   2.910   0.767 -0.0488 -0.2646  0.5514
   34SOL    HW1  101   1.507   2.986   0.774 -0.1298  0.3599 -1.1706
   34SOL    HW2  102   1.426   2.898   0.668 -1.9339  0.0139 -1.4497
   35SOL     OW  103   2.170   3.019   1.179  1.2902 -0.2736 -0.1132
   35SOL    HW1  104   2.112   2.938   1.146  0.9583 -3.9596  0.7368
   35SOL    HW2  105   2.127   0.008   1.249  0.6994 -2.3013 -0.7264
   36SOL     OW  106   1.744   2.734   2.145  0.7608 -0.1583 -0.5909
   36SOL    HW1  107   1.694   2.819   2.118  0.6205  0.8910  1.2147
   36SOL    HW2  108   1.678   2.664   2.182  1.4084 -1.4342 -3.0302
   37SOL     OW  109   0.688   3.020   2.313 -0.6065 -0.1406 -0.1067
   37SOL    HW1  110   0.697   3.021   2.212  0.6274  1.7215 -1.1605
   37SOL    HW2  111   0.776   3.019   2.363 -0.7633  1.7131 -1.5389
   38SOL     OW  112   0.236   2.284   2.581 -0.3234  0.3544  0.3113
   38SOL    HW1  113   0.310   2.321   2.650  2.3157 -5.1022  2.0824
   38SOL    HW2  114   0.216   2.351   2.508 -1.8681  0.5723 -0.1021
   39SOL     OW  115   2.157   1.188   1.815  0.5180  0.2525 -0.2796
   39SOL    HW1  116   2.220   1.196   1.734 -0.0717  0.2136 -0.8531
   39SOL    HW2  117   2.116   1.280   1.835  1.7776  0.9795 -0.6432
   40SOL     OW  118   0.604   2.906   0.018 -0.5767 -0.1788  0.3984
   40SOL    HW1  119   0.636   2.826   0.078  2.2810 -3.1469 -0.3009
   40SOL    HW2  120   0.634   2.995   0.059  2.2233  2.5571  3.5282
   41SOL     OW  121   2.198   1.105   1.088  0.0980 -0.4145  0.2726
   41SOL    HW1  122   2.251   1.140   1.169 -0.4867 -0.8836  0.2546
   41SOL    HW2  123   2.180   1.175   1.018 -0.7853 -2.3553 -0.7163
   42SOL     OW  124   0.550   0.509   1.008  0.3006  0.6432 -0.5322
   42SOL    HW1  125   0.471   0.554   1.050  2.2822  0.2968  0.3179
   42SOL    HW2  126   0.629   0.569   1.027 -1.3469 -1.9720  0.3038
   43SOL     OW  127   2.024   1.558   2.582  0.1069 -0.1645  0.1270
   43SOL    HW1  128   1.996   1.484   2.650 -0.5823 -2.7031  1.3821
   43SOL    HW2  129   2.093   1.524   2.519 -1.2003  3.0429 -0.2048
   44SOL     OW  130   3.036   2.909   1.528 -0.5358  0.5820 -0.2853
   44SOL    HW1  131   0.042   2.947   1.466 -0.5250  0.9391 -1.1615
   44SOL    HW2  132   3.008   2.977   1.602 -0.0690  4.2434 -0.9320
   45SOL     OW  133   0.337   2.620   1.160  0.2873 -0.3587  0.7888
   45SOL    HW1  134   0.282   2.708   1.146 -0.9589  0.8723  2.1179
   45SOL    HW2  135   0.434   2.649   1.173 -0.4786  2.2464  0.4167
   46SOL     OW  136   2.125   2.908   2.651 -0.4577 -0.0822 -0.4662
   46SOL    HW1  137   2.070   2.839   2.598  1.4549 -2.5171  1.6048
   46SOL    HW2  138   2.219   2.924   2.615 -2.7216 -0.8175  0.2247
   47SOL     OW  139   2.016   1.985   0.751  0.0037  0.4699 -0.5866
   47SOL    HW1  140   2.050   1.928   0.824  1.1737  1.1949 -1.8847
   47SOL    HW2  141   1.970   1.924   0.683 -2.2286 -1.9730 -2.9417
   48SOL     OW  142   0.634   1.806   0.408  0.4091  0.0948 -0.5649
   48SOL    HW1  143   0.693   1.850   0.334 -0.2244  0.0347 -0.0214
   48SOL    HW2  144   0.623   1.707   0.382  0.3123 -0.5529  1.2191
   49SOL     OW  145   2.728   0.435   2.538 -0.5843  0.1452 -0.0809
   49SOL    HW1  146   2.656   0.493   2.502  0.8153 -3.4154 -1.4605
   49SOL    HW2  147   2.765   0.381   2.455 -1.7358 -1.4328 -1.1394
   50SOL     OW  148   2.060   0.725   0.486 -0.4775 -0.6807  0.1573
   50SOL    HW1  149   2.105   0.790   0.425  0.2612 -2.2566  0.9664
   50SOL    HW2  150   1.981   0.692   0.432  0.4140 -0.4745  2.8751
   51SOL     OW  151   2.307   0.978   0.837 -0.3107 -0.3762  0.0124
   51SOL    HW1  152   2.289   0.978   0.936 -0.6667  1.8679 -2.1509
   51SOL    HW2  153   2.255   0.896   0.799 -1.8383  2.5727 -1.0125
   52SOL     OW  154   1.444   1.605   2.131  0.1154  0.3828  0.2252
   52SOL    HW1  155   1.485   1.589   2.038  1.5512 -0.4873 -1.8560
   52SOL    HW2  156   1.367   1.539   2.144  0.0165 -2.3732  0.6570
   53SOL     OW  157   0.570   1.831   2.079 -0.7733 -0.1676 -0.4335
   53SOL    HW1  158   0.631   1.763   2.037  1.0305  0.1109  2.3415
   53SOL    HW2  159   0.532   1.896   2.012  0.2279 -1.4377 -1.7115
   54SOL     OW  160   2.144   0.359   1.251  0.4209 -0.0487 -0.5835
   54SOL    HW1  161   2.224   0.307   1.213  0.9999 -0.7222 -1.2692
   54SOL    HW2  162   2.152   0.458   1.238  0.8805 -1.3622  0.5206
   55SOL     OW  163   2.359   2.140   0.812 -0.2089 -0.0932 -0.0431
   55SOL    HW1  164   2.436   2.127   0.883  1.0498 -0.2285  1.1021
   55SOL    HW2  165   2.347   2.058   0.753 -0.6252 -2.0400  3.0560
   56SOL     OW  166   1.162   3.043   1.856 -0.2710  0.2833  0.1515
   56SOL    HW1  167   1.213   2.973   1.911  0.9380  1.0154  0.1887
   56SOL    HW2  168   1.218   0.065   1.857 -2.7231  0.1556 -3.4231
   57SOL     OW  169   1.664   1.575   0.167 -0.0902  0.2795  0.3488
   57SOL    HW1  170   1.627   1.583   0.261  0.3682 -1.7831 -2.1000
   57SOL    HW2  171   1.648   1.658   0.109 -0.8111  4.1783 -1.4889
   58SOL     OW  172   0.055   1.054   2.426 -0.4109 -0.8916 -0.1432
   58SOL    HW1  173   0.151   1.034   2.453  3.2713 -0.5146  0.0874
   58SOL    HW2  174   0.056   1.046   2.326  0.4540 -0.4464 -0.5817
   59SOL     OW  175   0.923   2.993   2.445  0.1705  0.7034  0.0804
   59SOL    HW1  176   0.924   0.024   2.478 -0.0269  2.0469  1.1144
   59SOL    HW2  177   0.918   2.930   2.524  2.2388  1.4540  0.8423
   60SOL     OW  178   2.705   2.164   0.390  0.5014  0.0965  0.7116
   60SOL    HW1  179   2.776   2.126   0.331 -2.6880 -0.1760  0.5386
   60SOL    HW2  180   2.710   2.131   0.490 -1.3913 -1.4033 -1.3837
   61SOL     OW  181   1.274   2.021   0.449  0.0933  0.0379 -0.2000
   61SOL    HW1  182   1.285   2.059   0.353  0.9722  1.5733  2.1627
   61SOL    HW2  183   1.203   2.088   0.488 -0.4302  1.5878  0.4206
   62SOL     OW  184   1.958   2.132   2.326  0.2862 -0.1268  0.1267
   62SOL    HW1  185   2.011   2.047   2.357  0.1998 -1.3169 -1.8222
   62SOL    HW2  186   1.876   2.097   2.271 -0.1291 -0.6922 -0.8757
   63SOL     OW  187   2.130   2.184   2.963  0.3159 -0.0686 -0.6905
   63SOL    HW1  188   2.179   2.099   2.985 -0.2387 -0.1013 -0.7805
   63SOL    HW2  189   2.084   2.181   2.869  1.1552  1.4263 -0.6536
   64SOL     OW  190   1.632   1.051   2.471 -0.8169 -0.1668  0.8801
   64SOL    HW1  191   1.655   0.996   2.390  2.5017 -0.4420  0.1610
   64SOL    HW2  192   1.531   1.062   2.470 -3.0112 -1.4345  3.7582
   65SOL     OW  193   1.157   2.258   2.839 -0.5487  0.2144  0.1605
   65SOL    HW1  194   1.096   2.212   2.774 -1.6260 -1.6170  0.4446
   65SOL    HW2  195   1.253   2.260   2.802  0.5179 -1.6149 -2.2678
   66SOL     OW  196   0.222   1.614   1.931 -0.0275 -0.5009  0.6495
   66SOL    HW1  197   0.278   1.618   2.009 -1.6954 -3.5914  1.3346
   66SOL    HW2  198   0.226   1.522   1.891  0.9649  1.3835  2.2556
   67SOL     OW  199   2.847   2.743   2.710 -0.2395  0.2118 -0.3455
   67SOL    HW1  200   2.794   2.759   2.797  0.3229  0.8225 -0.2617
   67SOL    HW2  201   2.869   2.833   2.666  1.1744  2.6419 -2.2851
   68SOL     OW  202   0.827   2.645   1.391  0.1801  0.2916 -0.0272
   68SOL    HW1  203   0.864   2.725   1.444  0.5874 -1.0064  3.3105
   68SOL    HW2  204   0.899   2.598   1.338  0.3560 -0.9737  1.5869
   69SOL     OW  205   0.648   2.392   0.402 -0.3075  0.2180  0.2261
   69SOL    HW1  206   0.622   2.469   0.460  1.3081 -0.5580 -3.8456
   69SOL    HW2  207   0.646   2.301   0.451 -0.6288 -1.9837  0.5055
   70SOL     OW  208   2.597   0.849   2.992 -0.6336  0.0077  0.3946
   70SOL    HW1  209   2.685   0.817   2.952  0.4458  0.3174 -0.1040
   70SOL    HW2  210   2.519   0.824   2.930  1.0452  0.9488  1.3925
   71SOL     OW  211   0.748   1.029   2.379  0.3008 -0.1258 -0.4240
   71SOL    HW1  212   0.787   0.966   2.448 -2.0403 -0.0094  1.0155
   71SOL    HW2  213   0.649   1.038   2.388 -0.9535 -2.0068 -0.3640
   72SOL     OW  214   0.131   2.080   0.441  0.3312  0.1289 -0.2267
   72SOL    HW1  215   0.138   1.982   0.429 -1.4579  2.9600 -0.9658
   72SOL    HW2  216   0.086   2.109   0.528 -1.3495 -0.1041  1.8665
   73SOL     OW  217   1.066   1.464   0.338 -0.2625  0.1667  0.0420
   73SOL    HW1  218   1.007   1.440   0.259 -3.1873  1.2795  0.2076
   73SOL    HW2  219   1.024   1.523   0.408 -0.2471 -0.6954 -1.8232
   74SOL     OW  220   2.487   2.849   0.084  0.1259 -0.0244  0.7199
   74SOL    HW1  221   2.469   2.755   0.053  1.6556 -1.2762  1.5374
   74SOL    HW2  222   2.418   2.913   0.042 -0.4497 -0.8904 -0.3057
   75SOL     OW  223   2.045   1.677   1.877 -0.0145  0.6803  0.4145
   75SOL    HW1  224   2.074   1.589   1.921  0.1187 -1.3741 -0.0053
   75SOL    HW2  225   2.014   1.658   1.777  0.7382  1.5345 -1.2836
   76SOL     OW  226   1.917   2.500   1.833  0.3581  0.4481  0.3612
   76SOL    HW1  227   1.929   2.514   1.934 -0.1703 -0.4382  1.7690
   76SOL    HW2  228   1.836   2.548   1.806 -0.7893 -1.0453  1.7930
   77SOL     OW  229   2.502   0.251   1.734 -0.1452  0.0205  0.2447
   77SOL    HW1  230   2.457   0.330   1.783  1.2244  1.8640 -1.7091
   77SOL    HW2  231   2.602   0.275   1.735 -1.2365  0.5537 -1.1087
   78SOL     OW  232   1.632   0.778   2.904  0.2556  0.3645 -0.4751
   78SOL    HW1  233   1.673   0.765   2.997  1.5910 -0.5665  1.5274
   78SOL    HW2  234   1.673   0.853   2.853 -1.9848 -1.0005  2.3055
   79SOL     OW  235   2.493   1.650   1.922  0.2122  0.4577 -0.3674
   79SOL    HW1  236   2.525   1.744   1.944 -0.9306  1.0130 -0.5017
   79SOL    HW2  237   2.570   1.586   1.933 -1.5312  3.2737  0.7364
   80SOL     OW  238   1.911   1.235   1.270  0.3584 -0.4305  0.3453
   80SOL    HW1  239   1.919   1.160   1.196  0.7135  1.5793  0.2255
   80SOL    HW2  240   2.003   1.248   1.310 -2.7968  1.4807 -0.0844
   81SOL     OW  241   1.391   0.463   1.678 -0.1862 -0.0841 -0.0760
   81SOL    HW1  242   1.375   0.560   1.654 -1.5031  0.7392  1.0001
   81SOL    HW2  243   1.485   0.434   1.688  0.9729 -2.6564  1.8549
   82SOL     OW  244   1.455   2.473   1.643  0.0184 -0.0696 -0.1007
   82SOL    HW1  245   1.515   2.481   1.557  4.5119 -1.7468 -0.0229
   82SOL    HW2  246   1.361   2.490   1.618  0.4975  1.1420 -1.2721
   83SOL     OW  247   0.291   0.047   0.502  0.2246  0.2402 -0.1350
   83SOL    HW1  248   0.350   3.035   0.503  2.1420  2.0237  0.8750
   83SOL    HW2  249   0.333   0.131   0.458 -1.9644  2.2558  0.6366
   84SOL     OW  250   0.102   0.892   2.772 -0.0080 -0.0243 -0.1233
   84SOL    HW1  251   0.091   0.799   2.741 -1.6926 -0.9419  0.2307
   84SOL    HW2  252   0.108   0.900   2.874  0.7509 -0.8051  0.0180
   85SOL     OW  253   2.769   1.946   1.737  0.7027 -0.2236 -0.2784
   85SOL    HW1  254   2.711   1.884   1.677  0.3938 -1.5762  1.6022
   85SOL    HW2  255   2.804   2.029   1.694 -1.6304 -2.3136  3.1788
   86SOL     OW  256   2.858   2.193   1.659  0.0805  0.2832 -0.2828
   86SOL    HW1  257   2.944   2.245   1.647  0.8637 -2.3128  1.7215
   86SOL    HW2  258   2.807   2.210   1.749 -2.4426 -1.1920  3.5333
   87SOL     OW  259   0.486   0.086   2.658  0.3029 -0.2870  0.1121
   87SOL    HW1  260   0.489   3.054   2.632  0.2254  1.1268 -1.6961
   87SOL    HW2  261   0.517   0.103   2.758  0.9412  0.5022  2.1125
   88SOL     OW  262   0.334   2.012   0.996  0.2951  0.4538 -0.0498
   88SOL    HW1  263   0.356   2.065   0.911 -0.1691 -0.9965  1.5240
   88SOL    HW2  264   0.379   1.923   0.980 -1.2155  1.2462 -0.6158
   89SOL     OW  265   0.920   0.692   1.695 -0.5791 -0.3208  0.1277
   89SOL    HW1  266   0.982   0.703   1.615 -1.1209  0.7787  1.1617
   89SOL    HW2  267   0.969   0.649   1.776  0.8021 -0.0272  1.2074
   90SOL     OW  268   2.282   1.743   1.327  0.1380 -0.7100  0.0679
   90SOL    HW1  269   2.361   1.793   1.372 -0.9755  1.6249  2.2187
   90SOL    HW2  270   2.246   1.802   1.251 -2.4770 -1.8591  0.3778
   91SOL     OW  271   1.301   1.420   0.757  0.1457 -0.0067 -0.5227
   91SOL    HW1  272   1.296   1.450   0.660 -1.0837  0.0634 -1.7433
   91SOL    HW2  273   1.295   1.319   0.774 -2.4985  2.3336  2.8479
   92SOL     OW  274   2.108   0.517   0.874  0.4622 -0.2613  0.1250
   92SOL    HW1  275   2.091   0.610   0.835 -0.9142 -3.7183 -0.5009
   92SOL    HW2  276   2.140   0.521   0.971 -1.0267 -0.8768 -0.0039
   93SOL     OW  277   2.149   1.157   0.062  0.1715  0.1018 -0.2507
   93SOL    HW1  278   2.151   1.092   0.140 -1.9201 -0.2265  2.1020
   93SOL    HW2  279   2.055   1.195   0.054  0.2015 -0.9084  0.4255
   94SOL     OW  280   2.368   2.211   2.380 -0.6195  0.3115 -0.1937
   94SOL    HW1  281   2.383   2.290   2.313  1.2933 -0.9311  1.6433
   94SOL    HW2  282   2.332   2.128   2.326 -0.2022 -1.0604 -2.1773
   95SOL     OW  283   1.922   0.307   0.893 -0.9071  0.2262 -0.6170
   95SOL    HW1  284   1.996   0.380   0.883  0.7893  3.2952 -1.2056
   95SOL    HW2  285   1.952   0.222   0.848 -2.0788  0.7029  1.5391
   96SOL     OW  286   2.908   0.043   1.666 -0.0083 -0.4107  0.2572
   96SOL    HW1  287   2.877   0.016   1.761 -1.3341  0.4821  0.3151
   96SOL    HW2  288   2.829   0.075   1.614  0.3095 -1.4160 -1.6507
   97SOL     OW  289   2.412   0.276   1.076 -0.5059  0.4833 -0.2752
   97SOL    HW1  290   2.411   0.339   1.000  2.7036 -0.7168 -1.1633
   97SOL    HW2  291   2.459   0.191   1.052  0.1724  3.2901 -0.2950
   98SOL     OW  292   1.677   2.242   1.570  0.3489  0.4536  0.1578
   98SOL    HW1  293   1.756   2.247   1.636  1.8840 -0.9805 -1.5954
   98SOL    HW2  294   1.671   2.322   1.507  1.2824 -0.9997  0.2424
   99SOL     OW  295   2.629   2.494   1.801  0.2241 -0.0343  0.5884
   99SOL    HW1  296   2.564   2.544   1.861 -0.9973  0.9565 -0.6174
   99SOL    HW2  297   2.639   2.538   1.708  0.9671 -0.6665 -1.5977
  100SOL     OW  298   0.356   0.912   2.869  0.0500 -0.7998  0.0250
  100SOL    HW1  299   0.432   0.981   2.861  2.8521 -0.6536 -1.9265
  100SOL    HW2  300   0.269   0.951   2.837 -1.2477  0.9647  1.1453
  101SOL     OW  301   1.935   0.488   3.050  0.3623  0.3392 -0.4858
  101SOL    HW1  302   1.991   0.533   2.979 -0.3769 -0.1855  1.8363
  101SOL    HW2  303   1.991   0.431   0.046 -0.3326 -0.6093 -0.4332
  102SOL     OW  304   0.312   0.547   1.722 -0.3646  0.6628  0.3713
  102SOL    HW1  305   0.263   0.638   1.730 -0.9085 -1.7882 -0.9380
  102SOL    HW2  306   0.266   0.488   1.655 -0.1504  0.6935 -0.7679
  103SOL     OW  307   2.745   1.078   2.280  0.3701 -0.4873  0.0510
  103SOL    HW1  308   2.731   1.138   2.363 -0.0045 -0.1451  2.4273
  103SOL    HW2  309   2.789   0.990   2.302 -1.7482  0.4572  3.0992
  104SOL     OW  310   0.480   0.334   2.567  0.0774  0.1566 -0.2849
  104SOL    HW1  311   0.475   0.236   2.602  1.8252  1.7696  0.1863
  104SOL    HW2  312   0.572   0.341   2.519  2.7315 -0.5905  1.6327
  105SOL     OW  313   2.002   1.738   1.177 -0.0072  0.1882 -0.0616
  105SOL    HW1  314   2.013   1.761   1.276 -0.3073  1.3209 -0.1193
  105SOL    HW2  315   1.976   1.638   1.165  0.9609  1.2410 -2.6548
  106SOL     OW  316   2.220   0.285   0.547 -0.2760 -0.6393 -0.2831
  106SOL    HW1  317   2.230   0.193   0.502  1.6330 -1.7121 -0.0557
  106SOL    HW2  318   2.187   0.267   0.641  2.1998  0.4267  0.2307
  107SOL     OW  319   0.043   1.485   1.324 -0.4379  0.0233  0.1525
  107SOL    HW1  320   0.043   1.388   1.294 -0.9204  0.7129  3.2164
  107SOL    HW2  321   0.073   1.546   1.250 -1.8781 -2.8125  2.3771
  108SOL     OW  322   2.784   2.701   2.022 -0.0172  0.0491  0.6921
  108SOL    HW1  323   2.823   2.618   1.986 -0.1301  1.5680  1.0802
  108SOL    HW2  324   2.747   2.752   1.940 -0.6136  0.4273 -0.2031
  109SOL     OW  325   2.016   0.103   0.750  0.6800 -0.7171  0.5743
  109SOL    HW1  326   2.115   0.113   0.768 -0.4343 -1.4585 -0.3499
  109SOL    HW2  327   2.005   0.016   0.700 -0.0664  0.6358 -0.3850
  110SOL     OW  328   0.385   2.119   2.284 -0.0056  0.0238  0.1647
  110SOL    HW1  329   0.345   2.100   2.373  2.1769 -0.5855 -0.9877
  110SOL    HW2  330   0.377   2.031   2.229 -1.7623 -0.1453  0.7132
  111SOL     OW  331   1.628   2.309   2.002  0.0260 -0.4484 -0.4390
  111SOL    HW1  332   1.701   2.283   1.931  1.1999  2.0099 -0.5376
  111SOL    HW2  333   1.596   2.230   2.059  0.3617  2.3523 -0.3584
  112SOL     OW  334   1.530   2.644   0.000  0.2467  0.1100 -0.9624
  112SOL    HW1  335   1.472   2.559   0.003  0.8002 -0.2525 -0.6917
  112SOL    HW2  336   1.534   2.678   2.973  1.1468  1.1267  2.9767
  113SOL     OW  337   2.054   2.525   1.433 -0.2224  0.2171 -0.3746
  113SOL    HW1  338   1.972   2.577   1.469  0.0812  1.4995  2.3981
  113SOL    HW2  339   2.053   2.517   1.335  0.4990 -0.1797  5.1159
  114SOL     OW  340   2.970   1.108   0.605  0.0748  0.0724 -0.2947
  114SOL    HW1  341   2.874   1.135   0.619  2.1566 -2.7032  1.0541
  114SOL    HW2  342   3.030   1.153   0.674  1.2749  0.0385  0.9762
  115SOL     OW  343   0.755   0.957   2.905  0.7390  0.0001  0.3612
  115SOL    HW1  344   0.703   1.031   2.862 -3.1997 -1.1933  2.6180
  115SOL    HW2  345   0.697   0.921   2.984  0.2886 -1.3197  0.3563
  116SOL     OW  346   2.647   1.915   1.973 -0.0605 -0.2868 -0.6464
  116SOL    HW1  347   2.700   1.930   1.888 -1.8475  2.2726  1.9963
  116SOL    HW2  348   2.697   1.927   2.063  0.4752 -3.2775  0.6681
  117SOL     OW  349   2.675   2.614   0.737  0.0704  0.0056 -0.3832
  117SOL    HW1  350   2.627   2.620   0.647  1.8907 -1.3115 -1.3724
  117SOL    HW2  351   2.702   2.707   0.763  1.7898  0.4904  2.6283
  118SOL     OW  352   1.239   2.285   1.552 -0.3051 -0.0110  0.1340
  118SOL    HW1  353   1.324   2.277   1.601 -0.3852  0.1132  0.7479
  118SOL    HW2  354   1.256   2.270   1.453 -0.7521  2.2190 -1.4381
  119SOL     OW  355   0.399   1.885   2.836  0.5722  0.3546 -0.7122
  119SOL    HW1  356   0.332   1.810   2.823  0.4501  3.4632  1.0155
  119SOL    HW2  357   0.438   1.890   2.932  0.9415  2.3667 -1.7368
  120SOL     OW  358   0.940   0.751   2.985  0.5937 -0.5947 -0.5407
  120SOL    HW1  359   0.888   0.836   2.967  0.6958 -1.7324  3.0202
  120SOL    HW2  360   0.941   0.693   2.901  2.0965  3.4273  1.1264
  121SOL     OW  361   1.532   2.665   0.848 -0.2406  0.3738 -0.2071
  121SOL    HW1  362   1.561   2.580   0.803 -0.0512  2.1123 -0.2916
  121SOL    HW2  363   1.493   2.731   0.786  1.2665 -1.6955 -0.2450
  122SOL     OW  364   2.279   2.439   1.584  0.3087 -0.0698 -0.2903
  122SOL    HW1  365   2.248   2.448   1.679 -1.9784  0.7040 -0.1706
  122SOL    HW2  366   2.198   2.465   1.524 -0.2144  2.1177 -0.2542
  123SOL     OW  367   0.308   2.911   0.829 -0.0629  0.7222 -0.7849
  123SOL    HW1  368   0.401   2.943   0.796  2.9002 -0.5896  0.1710
  123SOL    HW2  369   0.284   2.817   0.791  0.6792 -0.5608 -0.5276
  124SOL     OW  370   2.225   1.258   2.691  0.3243  0.2720 -0.2131
  124SOL    HW1  371   2.251   1.215   2.604  0.0766  0.9313  0.3045
  124SOL    HW2  372   2.146   1.322   2.672 -1.8380  0.7253 -1.0656
  125SOL     OW  373   0.729   0.931   0.418  0.0379 -0.2510  0.1716
  125SOL    HW1  374   0.687   0.971   0.505 -2.3389 -2.9124 -2.0126
  125SOL    HW2  375   0.794   1.004   0.374  0.8758 -0.0009  0.6814
  126SOL     OW  376   2.796   1.125   1.079  0.4001 -0.1228  0.9568
  126SOL    HW1  377   2.852   1.056   1.030 -1.6611  0.6267  0.8757
  126SOL    HW2  378   2.720   1.146   1.018  0.1532 -1.6293 -0.0543
  127SOL     OW  379   0.260   1.856   1.827  0.4857  0.1744 -0.5098
  127SOL    HW1  380   0.249   1.762   1.862  0.6704  1.3238 -0.4084
  127SOL    HW2  381   0.351   1.890   1.856 -0.1976  2.5066 -0.0132
  128SOL     OW  382   1.151   1.091   2.887  0.1550  0.4473  0.6465
  128SOL    HW1  383   1.193   1.043   2.966  2.1826 -1.4152 -1.7938
  128SOL    HW2  384   1.212   1.156   2.839 -1.3679  0.4415  0.6729
  129SOL     OW  385   2.673   1.225   0.655  0.2550 -0.3104 -0.2417
  129SOL    HW1  386   2.603   1.233   0.731  2.8290 -0.1985  2.4493
  129SOL    HW2  387   2.666   1.127   0.619  0.2257 -0.8006 -0.6646
  130SOL     OW  388   2.397   0.978   1.449 -0.1957  0.3266  0.3708
  130SOL    HW1  389   2.477   0.924   1.475 -2.1223 -0.3187 -0.1158
  130SOL    HW2  390   2.416   1.035   1.365  0.3586  0.9691 -3.3621
  131SOL     OW  391   3.008   2.995   2.885  0.5289 -0.5757 -0.5949
  131SOL    HW1  392   0.035   3.000   2.842  1.3379  1.0148 -0.5971
  131SOL    HW2  393   2.981   0.029   2.907  0.4230  3.0600  0.1608
  132SOL     OW  394   3.042   1.844   1.506  0.0948  0.1448  0.0313
  132SOL    HW1  395   0.032   1.763   1.494 -1.9082  0.9285 -2.2573
  132SOL    HW2  396   3.045   1.890   1.595 -2.4007  0.0055 -3.7881
  133SOL     OW  397   1.191   0.184   1.274 -0.1236 -0.5050  0.2455
  133SOL    HW1  398   1.282   0.145   1.293  0.9442 -0.9462 -1.3033
  133SOL    HW2  399   1.174   0.272   1.330 -0.7760  1.6710  2.4226
  134SOL     OW  400   0.021   1.315   0.234 -0.5244 -0.1501  0.0704
  134SOL    HW1  401   3.002   1.267   0.241  0.8064  0.5240  0.6131
  134SOL    HW2  402   0.016   1.375   0.147 -3.1402  1.1025  0.1304
  135SOL     OW  403   2.319   1.169   1.621 -0.5586 -0.3483  0.1167
  135SOL    HW1  404   2.359   1.087   1.581  1.8822 -0.1967  1.1161
  135SOL    HW2  405   2.369   1.253   1.591  0.2748  1.3865 -1.1935
  136SOL     OW  406   0.097   0.980   0.420 -0.1002  0.8613 -0.3320
  136SOL    HW1  407   0.047   1.042   0.478  0.3454 -1.0279 -2.4396
  136SOL    HW2  408   0.156   1.037   0.361  0.6947 -1.1800  0.4915
  137SOL     OW  409   2.858   0.950   1.410 -0.6313 -0.1912  0.0234
  137SOL    HW1  410   2.941   0.958   1.356 -0.2823 -0.7780  1.5970
  137SOL    HW2  411   2.789   1.013   1.373  1.1138  0.3130 -0.7063
  138SOL     OW  412   1.602   0.962   1.075 -0.1094  0.2304 -0.1835
  138SOL    HW1  413   1.537   0.880   1.064 -0.5991 -0.3185  4.0204
  138SOL    HW2  414   1.681   0.940   1.134 -0.2492 -1.4820  0.7751
  139SOL     OW  415   1.882   0.007   0.106  0.0201  0.1484  0.0257
  139SOL    HW1  416   1.918   2.977   0.119  2.0628  1.3474  3.3228
  139SOL    HW2  417   1.886   0.054   0.195  1.6488  0.2202 -2.6873
  140SOL     OW  418   1.608   1.757   1.585  0.0309 -0.0990 -0.0285
  140SOL    HW1  419   1.627   1.695   1.507  2.0921  0.7499 -0.4847
  140SOL    HW2  420   1.535   1.721   1.647 -0.3190  0.3272  0.5564
  141SOL     OW  421   1.893   2.325   0.443  0.2592  0.1037  0.1619
  141SOL    HW1  422   1.967   2.332   0.510 -0.3968 -1.2894 -1.2110
  141SOL    HW2  423   1.925   2.272   0.357 -0.3291 -2.4583 -1.5103
  142SOL     OW  424   0.563   0.890   0.012 -0.0679  0.2104 -0.2538
  142SOL    HW1  425   0.603   0.826   0.087  1.2964 -0.5280  0.0210
  142SOL    HW2  426   0.489   0.848   3.023 -0.1761  0.6384 -1.5916
  143SOL     OW  427   0.207   2.140   0.071 -0.2033 -0.3207  0.8242
  143SOL    HW1  428   0.181   2.230   0.100  0.0924 -3.2017 -0.4188
  143SOL    HW2  429   0.221   2.129   3.037  2.9298  0.4632  2.0474
  144SOL     OW  430   1.384   2.855   1.168 -0.0989  0.5733  0.1140
  144SOL    HW1  431   1.383   2.856   1.270  2.2276 -1.2695  0.5330
  144SOL    HW2  432   1.470   2.824   1.123 -1.4986 -1.6300 -1.1329
  145SOL     OW  433   2.406   1.373   0.558  0.1710 -1.1152 -0.2421
  145SOL    HW1  434   2.492   1.381   0.502  2.5530  1.0116  0.0242
  145SOL    HW2  435   2.387   1.275   0.581 -0.0040  1.4863 -0.3447
  146SOL     OW  436   2.880   2.030   0.229 -0.1112  0.3463  0.0409
  146SOL    HW1  437   2.849   2.076   0.142  0.4942  1.7240  0.4865
  146SOL    HW2  438   2.970   1.990   0.220 -1.9695 -2.1009 -0.7306
  147SOL     OW  439   2.377   2.867   1.696  0.1101  0.1915 -0.5703
  147SOL    HW1  440   2.283   2.846   1.660 -1.5625  0.3849 -4.0620
  147SOL    HW2  441   2.434   2.885   1.613 -1.7479 -3.5562  2.3627
  148SOL     OW  442   1.290   2.682   1.953 -0.1324  0.1112 -0.2496
  148SOL    HW1  443   1.371   2.617   1.932 -0.0837 -2.8991  3.4847
  148SOL    HW2  444   1.202   2.631   1.954  2.3116  1.3368 -1.8967
  149SOL     OW  445   1.806   0.480   2.364 -0.2445  0.5589 -0.0986
  149SOL    HW1  446   1.809   0.494   2.263 -1.2703 -0.1770  3.0901
  149SOL    HW2  447   1.773   0.565   2.404 -0.2691 -0.2713 -4.4974
  150SOL     OW  448   0.446   2.903   0.530 -1.0342  0.0262 -0.4306
  150SOL    HW1  449   0.499   2.846   0.596 -1.3565  1.2763  0.8825
  150SOL    HW2  450   0.375   2.846   0.489  2.2277  1.3854  0.7665
  151SOL     OW  451   0.000   1.490   0.029  0.1434 -0.4164 -0.0873
  151SOL    HW1  452   3.000   1.569   0.018  0.1507  2.3159 -2.7840
  151SOL    HW2  453   0.031   1.465   2.999  0.1241 -0.8826 -1.6234
  152SOL     OW  454   2.950   0.104   0.583  0.8718  0.1354 -0.5032
  152SOL    HW1  455   3.009   0.068   0.660  0.8429  0.0768  1.9503
  152SOL    HW2  456   2.880   0.172   0.623 -2.6385  1.2834  1.0769
  153SOL     OW  457   2.369   2.996   0.987 -0.0656 -0.0441 -0.0763
  153SOL    HW1  458   2.294   3.005   1.056 -1.2018 -1.0539 -0.2408
  153SOL    HW2  459   2.412   2.904   0.991 -0.3565 -0.6090 -2.0670
  154SOL     OW  460   1.038   0.550   1.890 -0.3190  0.7583  0.2772
  154SOL    HW1  461   1.102   0.468   1.888  0.3292 -1.7058 -0.8080
  154SOL    HW2  462   0.974   0.554   1.968 -0.3378  2.3241 -1.2595
  155SOL     OW  463   0.005   0.961   1.216  0.6470 -0.3556 -0.0799
  155SOL    HW1  464   3.061   0.947   1.113  0.7175 -0.2312  0.5381
  155SOL    HW2  465   0.056   1.044   1.244 -2.8625 -1.6152 -1.8986
  156SOL     OW  466   0.036   1.922   0.078  0.5741 -0.4478 -0.1360
  156SOL    HW1  467   0.099   2.004   0.063 -1.5626 -0.3693  0.8638
  156SOL    HW2  468   3.027   1.934   0.013  2.2735 -0.6265 -2.4566
  157SOL     OW  469   0.788   0.517   0.262  0.4122  0.4733  0.7156
  157SOL    HW1  470   0.820   0.471   0.351 -0.3730 -1.6531  1.1420
  157SOL    HW2  471   0.718   0.461   0.221  2.7886  1.5252  3.3182
  158SOL     OW  472   2.612   0.168   2.810  0.4123 -0.2937 -0.1185
  158SOL    HW1  473   2.600   0.265   2.826  0.2897 -2.7059 -0.5707
  158SOL    HW2  474   2.652   0.147   2.719  0.7768 -1.5972  0.9986
  159SOL     OW  475   0.704   0.107   0.094  0.1089  0.3235  0.1132
  159SOL    HW1  476   0.800   0.127   0.065  0.6361  1.4939 -0.4869
  159SOL    HW2  477   0.667   0.188   0.144 -0.3029  0.0736 -0.4361
  160SOL     OW  478   1.148   1.786   3.031  0.4260 -0.1235 -0.3438
  160SOL    HW1  479   1.148   1.887   3.044  1.3740  0.9350  0.4017
  160SOL    HW2  480   1.204   1.745   0.037 -4.1233 -1.5572 -0.8374
  161SOL     OW  481   2.947   1.638   2.734  0.1484 -0.4159 -0.0183
  161SOL    HW1  482   2.852   1.669   2.766 -3.0472  1.1715  1.8663
  161SOL    HW2  483   2.959   1.649   2.633  1.4634 -2.1412 -1.7418
  162SOL     OW  484   0.464   2.457   1.467  0.1929  0.5938  0.1285
  162SOL    HW1  485   0.502   2.459   1.559 -0.9547 -4.5052  1.3731
  162SOL    HW2  486   0.380   2.519   1.448 -3.8875  1.9180 -0.5843
  163SOL     OW  487   1.963   0.242   2.830  0.5760 -0.1947  0.0856
  163SOL    HW1  488   1.904   0.299   2.771 -0.0017 -1.8835  1.4842
  163SOL    HW2  489   2.027   0.192   2.767  2.7477  1.7955 -2.0415
  164SOL     OW  490   2.758   1.456   0.565  0.1428  0.3536 -0.0272
  164SOL    HW1  491   2.705   1.489   0.485  1.3907  0.2565  2.4333
  164SOL    HW2  492   2.725   1.363   0.598 -0.3130 -0.7534  0.4275
  165SOL     OW  493   0.285   3.038   1.717  0.1078  0.2947 -0.0469
  165SOL    HW1  494   0.248   2.956   1.765 -1.5171 -0.9326  0.0396
  165SOL    HW2  495   0.329   0.040   1.783  1.8899  2.4671  0.2263
  166SOL     OW  496   2.118   0.764   0.745  0.0313 -0.1992 -0.1815
  166SOL    HW1  497   2.111   0.732   0.649  1.0543  2.1490  1.1044
  166SOL    HW2  498   2.030   0.811   0.770 -4.0235  2.3095 -0.9540
  167SOL     OW  499   0.398   0.603   0.264  0.3766  0.2368 -0.3462
  167SOL    HW1  500   0.480   0.656   0.243  0.8266  2.1392  1.3832
  167SOL    HW2  501   0.389   0.592   0.367  1.9755  0.6146  3.6181
  168SOL     OW  502   1.834   2.913   1.846 -0.3991 -0.0062 -0.2189
  168SOL    HW1  503   1.793   2.954   1.928  0.4566  0.2956 -0.5049
  168SOL    HW2  504   1.885   2.984   1.793  2.0228 -0.0060  1.6304
  169SOL     OW  505   0.996   1.153   0.740  0.6014 -0.4858 -0.2095
  169SOL    HW1  506   0.966   1.065   0.706  0.6295 -1.1281  0.6891
  169SOL    HW2  507   1.060   1.146   0.818  0.9653 -1.1651  0.8229
  170SOL     OW  508   3.017   0.124   1.227  0.0703  0.4045  0.1003
  170SOL    HW1  509   0.047   0.144   1.260 -0.6501 -0.0165  0.8416
  170SOL    HW2  510   2.952   0.167   1.292 -0.7657  1.2914 -0.7131
  171SOL     OW  511   0.856   2.729   2.072 -0.4330  0.2853 -0.0020
  171SOL    HW1  512   0.783   2.687   2.129  3.5459  0.6485  0.2824
  171SOL    HW2  513   0.907   2.656   2.016 -0.3817 -2.4368  0.0601
  172SOL     OW  514   0.588   2.286   1.271  0.0480  0.9738  0.6343
  172SOL    HW1  515   0.671   2.318   1.225 -1.5079 -1.3951 -1.1669
  172SOL    HW2  516   0.547   2.348   1.339 -1.3091 -0.4626 -2.2453
  173SOL     OW  517   1.463   1.037   2.752  0.7993  0.2275 -0.8004
  173SOL    HW1  518   1.421   1.043   2.662  1.7186 -3.6142  0.3627
  173SOL    HW2  519   1.415   0.971   2.810 -0.8572 -1.3841  0.9513
  174SOL     OW  520   1.763   0.124   2.957 -0.4169  0.0406 -0.1210
  174SOL    HW1  521   1.812   0.076   3.032 -1.8596 -0.0127  1.6023
  174SOL    HW2  522   1.832   0.177   2.903  1.8826  0.0961 -1.4162
  175SOL     OW  523   1.674   2.459   0.428 -0.0670  0.1502  0.1826
  175SOL    HW1  524   1.593   2.398   0.433 -0.3252  1.7609  0.2001
  175SOL    HW2  525   1.759   2.400   0.424  0.4615 -1.1960  0.2559
  176SOL     OW  526   1.507   0.153   2.866 -1.2308  0.1571 -0.6295
  176SOL    HW1  527   1.457   0.228   2.914 -0.8056 -1.0669 -1.2256
  176SOL    HW2  528   1.594   0.133   2.917  2.4324  0.5973 -2.2853
  177SOL     OW  529   1.291   1.553   0.513  0.3386  0.4183 -0.1078
  177SOL    HW1  530   1.252   1.636   0.561  0.2823  1.6953 -2.7350
  177SOL    HW2  531   1.239   1.513   0.433  2.5625 -2.4289  1.7764
  178SOL     OW  532   2.980   2.026   2.769  0.1691  0.4389  0.3782
  178SOL    HW1  533   2.940   2.124   2.757 -3.1454  1.1702  0.7174
  178SOL    HW2  534   2.958   1.970   2.684  0.0511  1.1124  1.5637
  179SOL     OW  535   0.419   2.378   2.759 -0.0479 -0.5977 -0.3609
  179SOL    HW1  536   0.505   2.390   2.710 -4.4944  0.2096 -0.4411
  179SOL    HW2  537   0.425   2.429   2.851  1.8331  2.4404  2.1242
  180SOL     OW  538   1.496   1.598   0.855  0.1984 -0.0184  0.2769
  180SOL    HW1  539   1.517   1.684   0.802 -0.7543 -0.0853 -2.8268
  180SOL    HW2  540   1.443   1.531   0.794 -1.8575  0.4979 -0.1938
  181SOL     OW  541   2.226   0.828   2.148 -0.6429  0.2505 -0.0524
  181SOL    HW1  542   2.152   0.830   2.215  1.7372  1.0045 -0.0503
  181SOL    HW2  543   2.265   0.922   2.117  3.2527  2.6847  0.1055
  182SOL     OW  544   2.894   2.975   2.547  0.1190 -0.2614  0.2079
  182SOL    HW1  545   2.800   3.015   2.551  0.0833  0.1131  1.7263
  182SOL    HW2  546   2.969   3.045   2.560 -0.6751  1.6725  0.9848
  183SOL     OW  547   1.459   0.751   2.318  0.6168 -0.0556  0.7331
  183SOL    HW1  548   1.468   0.694   2.403  1.3453  1.5459 -2.1875
  183SOL    HW2  549   1.406   0.707   2.239 -0.6726  0.0770 -1.0040
  184SOL     OW  550   0.683   0.588   1.684  0.1487 -0.1004  0.3596
  184SOL    HW1  551   0.624   0.661   1.728 -2.5481  0.4305 -0.2461
  184SOL    HW2  552   0.783   0.617   1.683  2.2535 -0.1992  0.8017
  185SOL     OW  553   1.923   0.952   0.629 -0.1767  0.4359 -0.3814
  185SOL    HW1  554   1.890   1.035   0.580 -1.8278 -0.7663  0.1006
  185SOL    HW2  555   1.976   0.890   0.568  1.0951 -0.8242  1.7211
  186SOL     OW  556   0.183   2.082   2.877  0.9662 -0.1495  0.9332
  186SOL    HW1  557   0.264   2.024   2.843  3.4998 -0.3546 -2.8472
  186SOL    HW2  558   0.093   2.049   2.838 -2.4487  0.4324  0.5190
  187SOL     OW  559   2.397   1.437   0.159 -0.0740  0.0786 -0.3870
  187SOL    HW1  560   2.350   1.514   0.205  0.3254  1.5486 -0.3143
  187SOL    HW2  561   2.348   1.403   0.076  1.1085  0.3122 -1.1248
  188SOL     OW  562   0.118   1.717   0.839 -0.1320 -0.2934  0.3883
  188SOL    HW1  563   0.195   1.758   0.785 -3.9357 -0.0518  1.9823
  188SOL    HW2  564   0.038   1.769   0.812  3.3073 -2.6963  0.7223
  189SOL     OW  565   2.389   0.485   0.413 -0.3189 -0.6838  0.5546
  189SOL    HW1  566   2.319   0.429   0.460 -1.1205 -0.4593 -2.4992
  189SOL    HW2  567   2.480   0.439   0.407  3.2184 -0.9510 -0.1683
  190SOL     OW  568   0.962   1.729   1.850 -0.5989  0.0761  0.0432
  190SOL    HW1  569   0.870   1.720   1.893  4.3523 -0.0854 -0.9404
  190SOL    HW2  570   0.990   1.630   1.838 -1.8763  0.3485  3.0202
  191SOL     OW  571   2.735   0.363   1.765  0.1438 -0.6158 -0.5412
  191SOL    HW1  572   2.781   0.328   1.847  0.3986 -1.3527 -0.2234
  191SOL    HW2  573   2.793   0.436   1.728 -0.3445 -0.0072 -0.4974
  192SOL     OW  574   1.701   1.343   1.435 -0.0444 -0.2325 -0.1408
  192SOL    HW1  575   1.788   1.350   1.379  1.8943  0.6362 -0.9909
  192SOL    HW2  576   1.719   1.293   1.523  1.4801 -0.7419  3.6669
  193SOL     OW  577   0.956   0.874   0.688 -0.0504  0.1074 -0.3008
  193SOL    HW1  578   0.914   0.812   0.619  2.0638  1.7354  1.3423
  193SOL    HW2  579   0.925   0.840   0.780  0.5573 -0.2235  1.4214
  194SOL     OW  580   1.010   2.530   1.234  0.4676 -0.3295 -0.1594
  194SOL    HW1  581   1.060   2.601   1.184 -0.0095  1.1997  2.1152
  194SOL    HW2  582   0.994   2.447   1.181  1.1186  0.5996  1.0424
  195SOL     OW  583   2.249   0.375   2.898  0.2814 -0.3064 -0.3424
  195SOL    HW1  584   2.278   0.320   2.978  0.4216 -1.9793  0.5051
  195SOL    HW2  585   2.152   0.366   2.878  3.5878  2.3688 -0.3809
  196SOL     OW  586   1.089   2.475   1.656  0.1002 -0.4473  0.5458
  196SOL    HW1  587   1.140   2.391   1.627  3.4035 -1.0024  0.7746
  196SOL    HW2  588   0.989   2.459   1.643 -0.5221 -2.1285  0.0764
  197SOL     OW  589   0.858   2.702   0.697 -0.1797 -0.4217  0.2530
  197SOL    HW1  590   0.839   2.693   0.593 -0.9090 -3.7752 -2.0707
  197SOL    HW2  591   0.922   2.779   0.720  2.6774  0.5806 -1.3328
  198SOL     OW  592   0.773   0.710   0.547  0.1936 -0.4647  0.1532
  198SOL    HW1  593   0.686   0.676   0.591 -0.5905  0.5652  0.1082
  198SOL    HW2  594   0.751   0.797   0.498 -1.7760  0.1752  0.3831
  199SOL     OW  595   0.292   2.589   1.661  0.6186 -0.4162  0.5074
  199SOL    HW1  596   0.220   2.546   1.600 -0.7585  0.8097 -3.5059
  199SOL    HW2  597   0.354   2.520   1.711 -0.8239  2.9413  3.2900
  200SOL     OW  598   2.228   1.847   2.549  0.3455 -0.1416 -0.9610
  200SOL    HW1  599   2.283   1.772   2.509 -1.5504 -1.1489  2.9436
  200SOL    HW2  600   2.208   1.829   2.652 -1.4960  2.0105  2.5343
  201SOL     OW  601   2.903   2.125   1.300  0.6888  0.1994  0.2401
  201SOL    HW1  602   2.960   2.059   1.248  1.4481 -0.0604 -0.4808
  201SOL    HW2  603   2.882   2.094   1.392 -1.2078 -0.6911  0.6087
  202SOL     OW  604   2.765   3.062   0.427  0.3635  0.1152 -0.0900
  202SOL    HW1  605   2.829   0.058   0.480  2.9283  0.3240 -2.2777
  202SOL    HW2  606   2.788   3.052   0.326  0.2163  0.1415  0.7920
  203SOL     OW  607   1.225   2.153   1.984 -0.4287  0.2717 -0.2307
  203SOL    HW1  608   1.148   2.087   2.011 -0.2285 -1.0368  0.8140
  203SOL    HW2  609   1.326   2.125   2.002  1.1302  0.8320 -0.9934
  204SOL     OW  610   1.313   1.884   1.625 -0.4975  0.8535 -0.0601
  204SOL    HW1  611   1.347   1.977   1.634 -0.8229 -2.2593 -0.0094
  204SOL    HW2  612   1.209   1.881   1.620 -1.9075 -1.2652  1.5791
  205SOL     OW  613   1.111   2.096   1.738 -0.3477  0.0128 -0.3463
  205SOL    HW1  614   1.170   2.148   1.671  2.4125 -1.4722  0.7027
  205SOL    HW2  615   1.142   2.111   1.834  0.0080 -1.2326 -2.3591
  206SOL     OW  616   0.123   0.607   2.679 -0.6113  0.1222 -0.0115
  206SOL    HW1  617   0.198   0.582   2.612  0.4494 -1.2486 -0.9602
  206SOL    HW2  618   0.030   0.583   2.640 -1.1974 -1.4425  0.7860
  207SOL     OW  619   1.242   0.032   1.580 -0.2028 -0.3581 -0.0117
  207SOL    HW1  620   1.162   0.090   1.552 -2.4550  1.4130  0.5470
  207SOL    HW2  621   1.224   3.047   1.666  0.5713  0.3582 -1.2976
  208SOL     OW  622   0.737   2.454   1.946  0.6192  0.4291 -0.0098
  208SOL    HW1  623   0.714   2.482   2.040  0.5468 -0.6399  2.5284
  208SOL    HW2  624   0.742   2.531   1.883 -2.4568  1.8317  1.0694
  209SOL     OW  625   1.752   0.669   0.080 -0.0098  0.3557  0.0387
  209SOL    HW1  626   1.820   0.596   0.040  1.0093  0.5733 -2.2961
  209SOL    HW2  627   1.659   0.631   0.097 -2.3371 -1.3040  1.3710
  210SOL     OW  628   0.020   0.444   0.854 -0.4545 -0.0269 -1.1358
  210SOL    HW1  629   0.100   0.456   0.921  2.4434  1.8736 -0.3104
  210SOL    HW2  630   0.058   0.436   0.758 -0.0067 -0.7095  2.0250
  211SOL     OW  631   0.748   0.598   1.202 -0.0892  0.3508  0.1307
  211SOL    HW1  632   0.849   0.626   1.225  3.6890 -0.1105 -2.1494
  211SOL    HW2  633   0.732   0.504   1.235  0.2186 -1.0858  0.1699
  212SOL     OW  634   1.474   1.852   0.768  0.3359  0.3142 -0.7986
  212SOL    HW1  635   1.375   1.826   0.753 -0.2143 -2.4255 -2.3129
  212SOL    HW2  636   1.487   1.935   0.828 -0.1977  1.0220  0.5282
  213SOL     OW  637   1.937   0.189   1.922 -0.1578 -0.1050 -0.2769
  213SOL    HW1  638   1.950   0.262   1.853 -0.1442 -0.4170 -1.5888
  213SOL    HW2  639   2.013   0.121   1.903 -0.6214 -1.0907 -2.2503
  214SOL     OW  640   1.180   2.526   2.623  0.2352  0.1720 -0.8680
  214SOL    HW1  641   1.195   2.539   2.724  2.5064  0.7602 -0.9829
  214SOL    HW2  642   1.168   2.611   2.570  0.2389  1.6829 -2.1328
  215SOL     OW  643   2.760   1.551   1.278  0.4695  0.6241 -0.2068
  215SOL    HW1  644   2.770   1.649   1.290  0.1353 -2.5683 -0.4588
  215SOL    HW2  645   2.848   1.513   1.244  0.2142 -1.4291  0.2239
  216SOL     OW  646   0.200   0.349   2.232  0.1420  0.1776 -0.1250
  216SOL    HW1  647   0.231   0.289   2.313  0.9371  0.0329  2.2662
  216SOL    HW2  648   0.256   0.429   2.206  0.0566 -1.0463  0.1381
  217SOL     OW  649   2.826   0.351   0.235  0.3109  1.1969  0.4593
  217SOL    HW1  650   2.864   0.385   0.144  0.8803 -0.5687 -3.1392
  217SOL    HW2  651   2.900   0.343   0.306 -1.5663 -2.5839  1.3268
  218SOL     OW  652   1.889   1.846   2.015 -0.1238  0.7049 -0.4145
  218SOL    HW1  653   1.924   1.786   1.936 -1.9152  1.4855  0.9038
  218SOL    HW2  654   1.829   1.792   2.080  1.2966 -0.9376  0.6928
  219SOL     OW  655   1.817   0.682   0.363  0.5087 -0.2498  0.3472
  219SOL    HW1  656   1.809   0.710   0.264 -2.2426  1.1564 -3.2673
  219SOL    HW2  657   1.742   0.724   0.416  1.4558 -2.2394 -1.4513
  220SOL     OW  658   1.585   2.052   0.946 -0.3871  0.0427  0.3606
  220SOL    HW1  659   1.515   2.068   1.018 -0.4510 -2.5361  0.2687
  220SOL    HW2  660   1.659   1.994   0.980 -2.2505  2.2114  3.2639
  221SOL     OW  661   0.330   0.724   0.011 -0.6669 -0.4837 -0.1571
  221SOL    HW1  662   0.356   0.691   0.106 -1.4356  2.3537 -2.1008
  221SOL    HW2  663   0.257   0.792   0.020  1.1286 -3.5300 -0.3135
  222SOL     OW  664   0.910   2.840   1.526 -0.5900  0.1545  0.3500
  222SOL    HW1  665   0.904   2.872   1.624  0.3992  0.3478 -1.7524
  222SOL    HW2  666   0.881   2.907   1.460 -0.3901  0.6903  0.7276
  223SOL     OW  667   1.573   0.533   2.786  0.6656  0.1703 -0.3834
  223SOL    HW1  668   1.523   0.497   2.864  1.0759 -0.2246 -1.3746
  223SOL    HW2  669   1.619   0.623   2.806  1.9161 -2.3803 -0.5124
  224SOL     OW  670   2.930   0.479   1.237  0.4410  0.5447  0.3807
  224SOL    HW1  671   2.951   0.439   1.325  0.5234 -0.2071  1.6099
  224SOL    HW2  672   2.860   0.414   1.198 -2.3654 -2.4032 -0.7144
  225SOL     OW  673   1.073   1.225   1.400 -0.5869 -0.0228  0.2566
  225SOL    HW1  674   0.986   1.226   1.348 -0.7163  1.2498  0.6565
  225SOL    HW2  675   1.119   1.316   1.385  2.9626  1.1126  1.4593
  226SOL     OW  676   1.008   0.052   0.386 -0.4308  0.3527  0.0894
  226SOL    HW1  677   1.088   0.029   0.327  0.5350  0.0702 -0.7811
  226SOL    HW2  678   1.045   0.070   0.480  4.3326  2.0826  2.4970
  227SOL     OW  679   0.720   1.576   1.349  0.0340  0.5673 -0.1345
  227SOL    HW1  680   0.805   1.575   1.298  1.7430  2.5572  0.1180
  227SOL    HW2  681   0.642   1.568   1.284 -1.3263 -1.3031  0.5761
  228SOL     OW  682   0.566   2.888   1.382  0.0755 -0.5050  0.0024
  228SOL    HW1  683   0.600   2.808   1.328  2.1370  1.3676 -2.6343
  228SOL    HW2  684   0.502   2.862   1.458 -0.5540  2.0336  1.6696
  229SOL     OW  685   2.385   0.966   0.354 -0.2662 -0.1685  0.2253
  229SOL    HW1  686   2.430   0.886   0.401  0.1948 -3.6101  1.6186
  229SOL    HW2  687   2.450   0.995   0.280  0.1454  0.9367  0.7379
  230SOL     OW  688   0.381   1.201   1.744 -0.1338 -0.0431 -0.0540
  230SOL    HW1  689   0.404   1.101   1.713  3.1567 -0.6100  0.7131
  230SOL    HW2  690   0.436   1.217   1.825 -2.4101  2.0826  2.2328
  231SOL     OW  691   1.354   2.314   1.304  0.3232  0.2986 -0.0011
  231SOL    HW1  692   1.442   2.357   1.337  1.9678 -2.1053 -1.3467
  231SOL    HW2  693   1.319   2.351   1.213 -3.1938  0.4181 -0.1584
  232SOL     OW  694   2.317   2.195   0.191  0.2794 -0.3621  0.0645
  232SOL    HW1  695   2.290   2.286   0.153  0.8978  0.8099 -0.8563
  232SOL    HW2  696   2.373   2.139   0.127  0.6254 -1.9918  1.6329
  233SOL     OW  697   0.965   2.341   3.015  0.2896 -0.0401 -0.2089
  233SOL    HW1  698   0.981   2.407   0.025  1.2184  0.2093  0.8232
  233SOL    HW2  699   1.041   2.327   2.949 -1.8884 -1.3193  2.5991
  234SOL     OW  700   1.071   0.468   2.317  0.1134 -0.3101  0.2306
  234SOL    HW1  701   1.157   0.465   2.264 -2.1445 -0.0612 -0.9341
  234SOL    HW2  702   0.992   0.430   2.266  1.5912  3.3923  0.8686
  235SOL     OW  703   0.029   2.265   0.303  0.4953 -0.4590 -0.4504
  235SOL    HW1  704   0.011   2.325   0.382  0.3697 -2.5740 -2.5348
  235SOL    HW2  705   0.069   2.177   0.337  0.1936 -2.5984  0.5965
  236SOL     OW  706   1.866   2.879   2.353 -0.0563  0.0289  0.0344
  236SOL    HW1  707   1.827   2.835   2.267 -1.8574  2.2700  0.5181
  236SOL    HW2  708   1.946   2.825   2.390  0.7318  2.8945 -0.4933
  237SOL     OW  709   1.908   1.244   1.603 -0.0206  0.1708 -0.3161
  237SOL    HW1  710   1.984   1.284   1.545  1.8472 -0.4793 -0.7884
  237SOL    HW2  711   1.941   1.156   1.645  2.5176 -0.6361  1.4637
  238SOL     OW  712   1.969   0.058   2.384 -0.4223  0.1633 -0.4715
  238SOL    HW1  713   1.895   0.127   2.365 -1.4229  4.3201 -0.1287
  238SOL    HW2  714   1.933   3.030   2.356  0.7773 -2.3987  0.2306
  239SOL     OW  715   0.689   1.916   1.705  0.5227 -0.3249 -0.0021
  239SOL    HW1  716   0.663   1.982   1.630 -1.6866 -0.0344 -2.0518
  239SOL    HW2  717   0.701   1.820   1.674  1.5433  0.1965  0.5593
  240SOL     OW  718   0.104   2.513   0.840  0.0866 -0.3461 -0.3511
  240SOL    HW1  719   0.169   2.584   0.804  1.1457  0.6826 -0.7783
  240SOL    HW2  720   0.034   2.490   0.774 -1.7443 -0.4559 -3.4976
  241SOL     OW  721   1.562   2.215   0.139  0.2870 -0.1647 -0.5583
  241SOL    HW1  722   1.593   2.186   0.233 -0.7953  0.5545  0.2348
  241SOL    HW2  723   1.639   2.242   0.074 -0.6597  0.4046 -0.2756
  242SOL     OW  724   1.954   1.097   0.317 -0.0821 -0.1067  0.1053
  242SOL    HW1  725   2.007   1.008   0.322  0.6774  0.6964  2.7403
  242SOL    HW2  726   1.862   1.089   0.270  0.4532  2.6620 -0.9127
  243SOL     OW  727   0.860   0.173   1.763  0.4547 -0.4429 -0.4948
  243SOL    HW1  728   0.918   0.190   1.679 -0.8212 -0.6720 -2.3130
  243SOL    HW2  729   0.909   0.163   1.852 -0.6192  2.5131 -1.0648
  244SOL     OW  730   1.793   2.930   2.889  0.6312  0.4733  0.7813
  244SOL    HW1  731   1.713   2.888   2.841 -2.0583  1.7445  1.5444
  244SOL    HW2  732   1.772   3.027   2.917  0.3367 -0.2961  2.7332
  245SOL     OW  733   1.294   2.866   0.037  0.5620  0.3128 -0.0265
  245SOL    HW1  734   1.352   2.904   3.031  1.2853  0.3194  0.7744
  245SOL    HW2  735   1.355   2.815   0.101 -0.9554  0.2417 -1.4678
  246SOL     OW  736   1.111   1.230   2.173  0.0896 -0.6695 -0.1887
  246SOL    HW1  737   1.182   1.202   2.243  1.3442  0.8529  1.5098
  246SOL    HW2  738   1.019   1.227   2.210  2.6259 -0.3032  0.9527
  247SOL     OW  739   3.015   0.671   2.127 -0.0356 -0.0340  0.4094
  247SOL    HW1  740   3.066   0.760   2.133  0.2569  4.4861 -2.3759
  247SOL    HW2  741   2.919   0.696   2.100  0.2700 -1.1459  1.3903
  248SOL     OW  742   0.576   0.774   1.829 -0.1176  0.5837 -0.9589
  248SOL    HW1  743   0.631   0.789   1.913 -0.3175 -0.5295 -1.3714
  248SOL    HW2  744   0.571   0.858   1.773  0.2025 -2.1563 -1.1012
  249SOL     OW  745   2.272   0.562   0.176  0.0136 -0.3277 -0.4836
  249SOL    HW1  746   2.207   0.496   0.145  2.3504  2.5209 -1.2433
  249SOL    HW2  747   2.311   0.547   0.271  0.7999  0.0925  1.3900
  250SOL     OW  748   3.034   0.335   0.413  0.4196 -0.4902 -0.0984
  250SOL    HW1  749   0.071   0.330   0.408  1.2965 -2.4082  0.1642
  250SOL    HW2  750   2.997   0.246   0.448 -0.9257  1.0268  2.2139
  251SOL     OW  751   0.984   0.756   2.335 -0.4983  0.3318  0.1227
  251SOL    HW1  752   1.016   0.657   2.330 -1.9433 -0.2869  1.5589
  251SOL    HW2  753   0.998   0.797   2.244 -1.5980  1.8412  0.7238
  252SOL     OW  754   1.409   1.661   1.753 -0.1618 -0.3675  0.3106
  252SOL    HW1  755   1.373   1.753   1.722 -0.7377 -1.7864  0.9972
  252SOL    HW2  756   1.339   1.591   1.742 -0.5924  1.9977  0.5713
  253SOL     OW  757   1.487   2.501   1.913 -0.4720 -0.1957  0.9478
  253SOL    HW1  758   1.500   2.480   1.813 -3.1824 -0.2555 -0.8976
  253SOL    HW2  759   1.523   2.430   1.975  0.2441  1.6423  0.2465
  254SOL     OW  760   0.857   2.126   2.282  0.5965  0.3810  0.0116
  254SOL    HW1  761   0.954   2.095   2.286 -0.5288  0.1252 -0.6135
  254SOL    HW2  762   0.838   2.181   2.195 -0.1685  2.0812 -2.7649
  255SOL     OW  763   1.265   0.500   0.540  0.0360 -0.0696 -0.0011
  255SOL    HW1  764   1.237   0.539   0.630  1.8306  1.0150 -0.0743
  255SOL    HW2  765   1.189   0.509   0.478  1.9709  1.0786  0.6784
  256SOL     OW  766   1.737   2.356   1.256 -0.2496 -0.2925  0.0875
  256SOL    HW1  767   1.824   2.406   1.238  0.8548 -0.4983  0.3754
  256SOL    HW2  768   1.749   2.255   1.237  0.5256 -2.7381 -0.4657
  257SOL     OW  769   0.337   2.054   2.539  0.5544  0.0913  0.3716
  257SOL    HW1  770   0.286   2.141   2.556 -0.2149 -0.7282  1.1922
  257SOL    HW2  771   0.296   1.973   2.590 -1.2265 -0.2161  0.5065
  258SOL     OW  772   0.663   0.640   2.207 -0.7580 -0.5917  0.1453
  258SOL    HW1  773   0.660   0.736   2.174 -1.8378  0.4036  0.6317
  258SOL    HW2  774   0.673   0.643   2.308 -4.8394 -1.7754 -1.5609
  259SOL     OW  775   1.351   0.981   2.482  0.0038  0.6310  0.1222
  259SOL    HW1  776   1.292   0.937   2.552 -2.6360  1.1782 -1.2675
  259SOL    HW2  777   1.386   0.909   2.418 -0.5350 -1.0380 -2.2408
  260SOL     OW  778   1.628   0.730   0.813 -0.4349 -0.2087 -0.4110
  260SOL    HW1  779   1.535   0.769   0.800  0.3394 -0.2393 -3.1618
  260SOL    HW2  780   1.644   0.636   0.782 -0.1454  2.4665 -0.3558
  261SOL     OW  781   0.847   0.368   2.887  0.6122  0.4536  0.5054
  261SOL    HW1  782   0.905   0.345   2.968 -0.8424 -0.8146  0.1294
  261SOL    HW2  783   0.815   0.282   2.847  0.0972 -0.8760 -1.1487
  262SOL     OW  784   2.425   3.028   2.749  0.2319  0.1157  0.6021
  262SOL    HW1  785   2.497   0.036   2.761  1.8660 -1.0810  0.5817
  262SOL    HW2  786   2.427   2.991   2.655  0.2770 -1.2054 -0.7150
  263SOL     OW  787   0.594   1.954   3.030 -0.0944 -0.2362  0.4154
  263SOL    HW1  788   0.685   1.912   3.021  0.9054 -0.1390  1.2784
  263SOL    HW2  789   0.590   2.056   3.026 -1.2136  2.0700  0.4958
  264SOL     OW  790   0.406   1.420   1.566 -0.2496 -0.1285 -0.2892
  264SOL    HW1  791   0.412   1.337   1.625  0.0801 -0.4271 -0.8044
  264SOL    HW2  792   0.420   1.504   1.620 -0.4190 -1.6234 -2.3709
  265SOL     OW  793   0.615   1.275   0.362 -0.2153 -0.5418 -0.2096
  265SOL    HW1  794   0.582   1.209   0.293 -0.4644  1.3403  0.0168
  265SOL    HW2  795   0.714   1.274   0.374 -1.8458 -1.8821 -0.2004
  266SOL     OW  796   2.012   1.538   0.435 -0.3020 -0.2638  0.4416
  266SOL    HW1  797   1.958   1.590   0.501 -2.2251  0.3644  1.3885
  266SOL    HW2  798   2.112   1.557   0.458  0.3415  1.6770  1.2206
  267SOL     OW  799   2.775   0.138   3.048  0.1114  0.8221 -0.3786
  267SOL    HW1  800   2.863   0.171   3.014 -1.5547 -1.7196  0.6560
  267SOL    HW2  801   2.720   0.110   2.964 -1.2232  1.2788 -3.9229
  268SOL     OW  802   0.562   0.142   2.906 -0.0798 -0.6646  0.0944
  268SOL    HW1  803   0.631   0.117   2.976 -1.8171  0.9591  1.7293
  268SOL    HW2  804   0.545   0.238   2.931  1.2902 -2.8825  3.3277
  269SOL     OW  805   1.762   0.367   2.682  0.1398  0.2220  0.1072
  269SOL    HW1  806   1.718   0.277   2.663  2.2001 -0.2284  2.2650
  269SOL    HW2  807   1.687   0.427   2.709  1.3708 -1.4478  0.2963
  270SOL     OW  808   1.135   0.858   2.551 -0.0518  0.0214 -0.2070
  270SOL    HW1  809   1.077   0.821   2.476  1.0015  0.5673 -1.8315
  270SOL    HW2  810   1.077   0.910   2.619 -0.6201 -1.2002  0.5183
  271SOL     OW  811   2.528   1.008   0.128  0.0931  0.1372 -0.3644
  271SOL    HW1  812   2.495   1.093   0.087 -0.0160 -1.8806  1.0263
  271SOL    HW2  813   2.529   0.927   0.069  1.2088  2.3895 -1.1896
  272SOL     OW  814   2.627   2.016   2.695  0.5674 -0.3856 -0.9405
  272SOL    HW1  815   2.674   2.089   2.652 -3.1726 -3.1868 -1.0141
  272SOL    HW2  816   2.557   2.060   2.757 -1.1165 -0.6476  0.9066
  273SOL     OW  817   2.424   0.608   2.876 -0.0675 -0.3422  0.3800
  273SOL    HW1  818   2.336   0.557   2.886 -0.8527  1.0200  1.1255
  273SOL    HW2  819   2.498   0.541   2.853 -0.1022  2.1168 -1.5388
  274SOL     OW  820   0.207   2.933   1.367 -0.5627  0.3961  0.0011
  274SOL    HW1  821   0.234   2.893   1.278  1.6951 -2.9359  3.4023
  274SOL    HW2  822   0.269   2.886   1.435  0.7584  0.7780  1.9461
  275SOL     OW  823   2.173   1.571   0.835 -0.3732  0.8194 -0.4272
  275SOL    HW1  824   2.088   1.516   0.807 -0.0839 -0.7351 -1.0412
  275SOL    HW2  825   2.242   1.569   0.760 -1.3478  0.8136  0.2965
  276SOL     OW  826   0.290   1.257   2.754  0.4697  0.2040  0.1066
  276SOL    HW1  827   0.363   1.262   2.683 -1.0241 -2.4741 -0.1586
  276SOL    HW2  828   0.199   1.272   2.714 -1.0512  0.6072 -2.0375
  277SOL     OW  829   1.694   2.678   1.808 -0.0069  0.1796 -0.0968
  277SOL    HW1  830   1.739   2.748   1.871  1.0145  3.4710  2.3291
  277SOL    HW2  831   1.623   2.621   1.854 -2.3966  0.7891  0.0353
  278SOL     OW  832   1.642   0.341   1.680  0.5173  0.0877 -0.8755
  278SOL    HW1  833   1.565   0.278   1.644 -2.4019 -0.7010  0.1102
  278SOL    HW2  834   1.721   0.348   1.614 -0.3684 -0.9932 -0.0856
  279SOL     OW  835   1.890   1.275   0.079  0.1457  0.0859 -0.2342
  279SOL    HW1  836   1.825   1.221   0.135 -0.1737 -2.1946  1.3616
  279SOL    HW2  837   1.924   1.358   0.129  1.6697  2.2615  0.1066
  280SOL     OW  838   0.806   1.417   1.083  0.6558  0.3063 -0.4977
  280SOL    HW1  839   0.783   1.384   0.993 -1.7848  0.5768  0.9047
  280SOL    HW2  840   0.731   1.480   1.116 -0.7968  3.3124  1.0721
  281SOL     OW  841   0.042   0.076   2.535 -0.1933  0.3723 -0.1730
  281SOL    HW1  842   0.107   0.111   2.466 -0.1364  1.6268 -1.1078
  281SOL    HW2  843   0.080   3.065   2.592 -2.9970 -2.3581  0.7683
  282SOL     OW  844   0.424   0.783   1.370 -0.8407  0.4652  0.2836
  282SOL    HW1  845   0.450   0.802   1.273 -0.6943 -0.2759  2.4880
  282SOL    HW2  846   0.322   0.782   1.378 -3.2462  2.8217  0.9750
  283SOL     OW  847   1.705   2.213   2.961  0.3946 -0.0147 -0.1738
  283SOL    HW1  848   1.729   2.302   2.922  0.3170  0.9963 -1.5848
  283SOL    HW2  849   1.626   2.174   2.910  1.7076  1.8570 -2.0231
  284SOL     OW  850   1.911   1.281   0.482  0.5350 -0.3857 -0.2151
  284SOL    HW1  851   1.965   1.363   0.446  3.2617  1.5957 -0.2952
  284SOL    HW2  852   1.930   1.201   0.425  0.1450 -0.6873  2.6684
  285SOL     OW  853   3.021   0.211   2.965  0.5041 -0.0897 -0.5778
  285SOL    HW1  854   0.031   0.216   3.037  0.3538 -1.2588  0.9258
  285SOL    HW2  855   3.048   0.239   2.869  2.4574  0.5494 -0.3085
  286SOL     OW  856   1.697   2.995   1.550  0.2386 -0.0801  0.0689
  286SOL    HW1  857   1.682   2.928   1.474 -0.4727  0.1119 -0.9170
  286SOL    HW2  858   1.798   3.011   1.553  4.4750  0.3117 -2.3677
  287SOL     OW  859   0.940   0.981   1.133 -0.2234  0.0097  0.1194
  287SOL    HW1  860   0.878   0.931   1.197  0.2240 -0.4552 -1.2783
  287SOL    HW2  861   0.940   1.084   1.148  0.9073  2.0833  0.4751
  288SOL     OW  862   1.262   2.648   0.342  0.3904 -0.4991  0.0502
  288SOL    HW1  863   1.364   2.670   0.342 -0.8035  0.7211 -0.0808
  288SOL    HW2  864   1.217   2.669   0.429 -1.1696 -0.9216 -0.6962
  289SOL     OW  865   0.015   1.422   2.836  0.2384 -0.3039  0.2985
  289SOL    HW1  866   3.048   1.510   2.794 -1.1756  0.2738  1.1830
  289SOL    HW2  867   0.004   1.341   2.778 -0.9447  1.7425  0.6829
  290SOL     OW  868   0.948   2.430   0.454  0.0525  0.2511 -0.0824
  290SOL    HW1  869   0.911   2.526   0.450  1.4390  1.5255  0.2608
  290SOL    HW2  870   1.034   2.435   0.512  1.9729 -0.7220  1.2762
  291SOL     OW  871   2.206   2.612   2.911 -0.3237  0.3313  0.3536
  291SOL    HW1  872   2.266   2.693   2.890  1.3684  0.2845  0.0204
  291SOL    HW2  873   2.111   2.620   2.880  1.1819  0.9340 -0.6665
  292SOL     OW  874   0.815   1.107   1.900  0.9007  0.3212 -0.1898
  292SOL    HW1  875   0.914   1.121   1.930  2.5929  0.7204  1.9285
  292SOL    HW2  876   0.806   1.117   1.800 -0.1445 -0.4314  2.1192
  293SOL     OW  877   2.346   2.827   1.297 -0.0377  0.3069 -0.4420
  293SOL    HW1  878   2.276   2.902   1.302  0.8428 -0.1810 -1.4277
  293SOL    HW2  879   2.309   2.747   1.247  2.9078  1.0192 -0.1278
  294SOL     OW  880   2.984   0.526   2.523  0.0363 -0.1251  0.2498
  294SOL    HW1  881   2.888   0.550   2.547  1.7513  0.5860 -2.8401
  294SOL    HW2  882   2.997   0.508   2.425  0.1139  2.2030  1.9789
  295SOL     OW  883   1.344   1.837   0.226 -0.5570  0.2652  0.4106
  295SOL    HW1  884   1.283   1.755   0.231  0.5827 -3.7642  0.4128
  295SOL    HW2  885   1.342   1.878   0.321 -3.3698 -1.8212  0.3345
  296SOL     OW  886   1.898   1.943   2.743 -0.3724  0.3353  0.2345
  296SOL    HW1  887   1.929   2.027   2.695  0.4511  2.5504  2.4704
  296SOL    HW2  888   1.968   1.871   2.741  0.4875  0.3005  0.4682
  297SOL     OW  889   2.543   0.577   0.066  0.0397  0.0809  0.5311
  297SOL    HW1  890   2.553   0.630   3.045  0.3060  1.7135 -1.3933
  297SOL    HW2  891   2.446   0.568   0.091 -1.7756  1.6999 -0.4518
  298SOL     OW  892   0.859   2.043   2.719  0.3877 -0.1120  0.4287
  298SOL    HW1  893   0.907   2.124   2.680 -0.4069  0.7904 -1.6919
  298SOL    HW2  894   0.758   2.037   2.707 -0.1263 -0.6151  0.7355
  299SOL     OW  895   1.161   2.758   2.491  0.2450  0.0940  0.3457
  299SOL    HW1  896   1.217   2.839   2.519 -0.3888 -3.2442 -0.5449
  299SOL    HW2  897   1.180   2.723   2.399 -1.7042  2.0486  1.8493
  300SOL     OW  898   2.573   0.308   0.081  0.3228 -0.7438  0.1471
  300SOL    HW1  899   2.586   0.412   0.086 -1.5684  2.1418  0.1902
  300SOL    HW2  900   2.648   0.258   0.035 -0.3505  2.5253  1.7721
  301SOL     OW  901   1.210   1.002   1.510  0.4008  0.1151 -0.0708
  301SOL    HW1  902   1.276   0.987   1.432  2.2156  0.1891  0.6908
  301SOL    HW2  903   1.144   1.075   1.487  0.7032  2.5447 -2.5662
  302SOL     OW  904   3.063   2.386   0.080 -0.0598 -0.2218  0.0250
  302SOL    HW1  905   0.007   2.337   0.169  0.8235 -3.4283 -1.8015
  302SOL    HW2  906   2.964   2.399   0.049 -1.9734  1.0420  0.3858
  303SOL     OW  907   2.950   2.620   2.461 -0.3033 -0.0176  0.4365
  303SOL    HW1  908   2.905   2.674   2.537 -1.0745  0.2642  3.1143
  303SOL    HW2  909   3.020   2.673   2.407 -1.2130  1.0091 -0.4245
  304SOL     OW  910   2.767   0.760   2.008 -0.1905 -0.4054 -0.0676
  304SOL    HW1  911   2.687   0.818   2.032  1.2642  0.6458 -0.0905
  304SOL    HW2  912   2.743   0.663   2.030  1.2438  0.2261  0.6272
  305SOL     OW  913   0.446   2.409   2.276  0.3846  0.0141 -0.8654
  305SOL    HW1  914   0.505   2.484   2.238  0.4962  1.6810 -2.2715
  305SOL    HW2  915   0.506   2.335   2.313  2.2219 -0.7869 -0.2752
  306SOL     OW  916   2.577   0.983   1.731 -0.3807  0.2766  0.1471
  306SOL    HW1  917   2.576   1.064   1.793 -4.1191  0.7394  0.3347
  306SOL    HW2  918   2.529   0.911   1.783  2.5401 -1.0168 -1.2208
  307SOL     OW  919   1.733   0.626   1.370 -1.3390  0.3599 -0.1371
  307SOL    HW1  920   1.822   0.685   1.360  3.2993  0.8599 -2.2915
  307SOL    HW2  921   1.689   0.611   1.276  1.2643  0.1139 -1.4676
  308SOL     OW  922   2.527   1.829   1.105 -0.7076 -0.2431  0.2326
  308SOL    HW1  923   2.431   1.836   1.113  2.0339  1.3147 -2.4849
  308SOL    HW2  924   2.549   1.741   1.058 -1.1449 -0.6385  2.0647
  309SOL     OW  925   1.948   1.671   1.630 -0.2129 -0.3293 -0.1934
  309SOL    HW1  926   1.897   1.698   1.547 -1.6480  0.8097 -0.4711
  309SOL    HW2  927   2.049   1.663   1.602  0.7656 -1.3103 -1.7400
  310SOL     OW  928   2.691   1.776   2.725  0.3024 -0.2423 -0.0075
  310SOL    HW1  929   2.671   1.877   2.703 -2.4797  1.8553 -4.4771
  310SOL    HW2  930   2.604   1.720   2.753 -2.2828 -1.5379  2.6068
  311SOL     OW  931   2.251   2.116   2.603  0.1338  0.5884  0.3043
  311SOL    HW1  932   2.218   2.030   2.561  1.4328  0.7675 -0.4503
  311SOL    HW2  933   2.295   2.171   2.528  1.5608 -0.4374 -1.2389
  312SOL     OW  934   2.057   2.101   1.320  0.1238 -0.0933 -0.5637
  312SOL    HW1  935   2.064   2.051   1.409 -0.4781 -0.3425 -3.2554
  312SOL    HW2  936   2.151   2.133   1.296  2.0188  0.9478 -2.2397
  313SOL     OW  937   2.289   2.679   1.081  0.1218 -0.1414 -0.2475
  313SOL    HW1  938   2.383   2.708   1.049  1.8100 -0.2999 -2.0466
  313SOL    HW2  939   2.270   2.580   1.056  0.8902 -1.6437 -0.7367
  314SOL     OW  940   0.921   1.907   0.497 -0.0759  0.3238 -0.3809
  314SOL    HW1  941   0.979   1.977   0.543 -1.0748 -3.4197 -0.6427
  314SOL    HW2  942   0.869   1.849   0.559 -0.8059  0.2169 -0.3468
  315SOL     OW  943   0.635   2.452   2.599  0.2338 -0.3697  0.4016
  315SOL    HW1  944   0.614   2.382   2.531 -0.4823  0.2090  1.9054
  315SOL    HW2  945   0.630   2.547   2.561  0.8609 -1.4027  0.1858
  316SOL     OW  946   0.084   0.727   0.581 -0.0852 -0.5770 -0.1365
  316SOL    HW1  947   0.080   0.812   0.521 -0.1249 -0.7323 -0.0476
  316SOL    HW2  948   3.061   0.678   0.573  1.0320 -1.5537  1.3327
  317SOL     OW  949   1.147   0.582   0.834 -0.3958  0.1870  0.4625
  317SOL    HW1  950   1.158   0.526   0.921  0.2240 -3.5543  2.2326
  317SOL    HW2  951   1.058   0.564   0.794  7.3428  1.4401  0.9760
  318SOL     OW  952   2.933   2.447   0.687 -0.5575 -0.5227  0.1257
  318SOL    HW1  953   2.869   2.527   0.702  0.6162 -0.6659  3.0686
  318SOL    HW2  954   2.921   2.386   0.764  0.0608  0.0976 -3.8203
  319SOL     OW  955   0.246   1.682   2.374  0.1454  0.9583  0.6953
  319SOL    HW1  956   0.331   1.708   2.416  2.3791 -0.0966 -3.1012
  319SOL    HW2  957   0.177   1.725   2.432  2.4174 -2.0536  0.5057
  320SOL     OW  958   0.611   2.607   2.172  0.2825  0.4370  0.0690
  320SOL    HW1  959   0.551   2.654   2.101 -1.1217 -0.1918  0.4857
  320SOL    HW2  960   0.616   2.657   2.261  1.0342  2.6752  1.4173
  321SOL     OW  961   1.057   2.525   0.130  0.4034  0.5730 -0.5471
  321SOL    HW1  962   1.119   2.533   0.209  0.1966  1.7240  0.9552
  321SOL    HW2  963   0.961   2.528   0.164  2.4770  2.7837 -0.9054
  322SOL     OW  964   2.270   1.300   2.161 -0.0307  0.4223 -0.4562
  322SOL    HW1  965   2.315   1.389   2.146  1.9731  0.9568  0.2380
  322SOL    HW2  966   2.275   1.277   2.265 -0.7858 -1.1171  2.1494
  323SOL     OW  967   2.497   0.749   0.512 -0.1838 -0.0948 -0.0329
  323SOL    HW1  968   2.445   0.670   0.469 -0.3576 -1.4249  2.6682
  323SOL    HW2  969   2.583   0.715   0.548 -4.2265 -0.4252  1.2764
  324SOL     OW  970   0.403   2.768   2.961  0.2667  0.0546 -0.2302
  324SOL    HW1  971   0.468   2.826   3.012 -1.0923  0.3124  1.5301
  324SOL    HW2  972   0.437   2.674   2.969 -0.1667 -1.6376  0.6691
  325SOL     OW  973   1.640   0.136   2.629  0.3463  0.1600 -0.6206
  325SOL    HW1  974   1.590   0.125   2.719  1.1817  1.1391  2.3806
  325SOL    HW2  975   1.665   0.041   2.602  1.0938  0.1099 -1.7619
  326SOL     OW  976   2.450   2.599   1.415  0.3563  0.2290  0.4022
  326SOL    HW1  977   2.391   2.543   1.475 -0.1136 -1.4770 -2.0110
  326SOL    HW2  978   2.396   2.680   1.381  1.5717 -0.7912 -2.4666
  327SOL     OW  979   1.426   0.395   3.000  0.1929 -0.2994  0.0216
  327SOL    HW1  980   1.353   0.456   3.034  2.3017 -1.4854  1.1455
  327SOL    HW2  981   1.506   0.389   3.060 -0.7493 -2.0347 -1.6944
  328SOL     OW  982   2.644   1.253   2.535 -0.2885  0.2671  0.4911
  328SOL    HW1  983   2.580   1.308   2.594 -1.9204  2.2985  1.2857
  328SOL    HW2  984   2.729   1.302   2.515 -0.8061 -1.4930  0.0982
  329SOL     OW  985   1.538   2.986   1.797 -0.1892  0.6206  0.1105
  329SOL    HW1  986   1.618   2.942   1.748  0.9939 -1.6959  0.2862
  329SOL    HW2  987   1.451   2.934   1.778 -1.3928 -1.2029  1.0161
  330SOL     OW  988   2.385   1.451   1.541 -0.4267 -0.4754 -0.1398
  330SOL    HW1  989   2.341   1.447   1.445 -2.2750  1.9209 -1.2103
  330SOL    HW2  990   2.481   1.473   1.527 -0.5418 -3.2012  2.6917
  331SOL     OW  991   0.334   1.395   1.285  0.9123  0.4492  0.2051
  331SOL    HW1  992   0.394   1.444   1.221 -2.1017  0.2598  0.5211
  331SOL    HW2  993   0.356   1.412   1.380 -3.0005  1.0667  1.2636
  332SOL     OW  994   0.808   0.227   1.354 -0.5632  0.3057  0.2712
  332SOL    HW1  995   0.844   0.250   1.261 -0.2694  2.0656 -1.2591
  332SOL    HW2  996   0.714   0.250   1.359  0.8099 -0.6609  0.2640
  333SOL     OW  997   2.205   2.483   1.854 -0.1304 -0.1802  0.2813
  333SOL    HW1  998   2.224   2.409   1.925  0.3701 -0.5840 -0.5400
  333SOL    HW2  999   2.107   2.487   1.831  2.1795 -0.5875  0.6791
  334SOL     OW 1000   1.153   1.475   1.358  0.5767 -0.5992 -0.2948
  334SOL    HW1 1001   1.057   1.511   1.386 -6.2395  0.1739  1.4550
  334SOL    HW2 1002   1.218   1.553   1.339  1.4628  1.6103 -3.6809
  335SOL     OW 1003   0.678   2.950   2.837 -0.0583 -0.3930  0.8760
  335SOL    HW1 1004   0.647   2.933   2.933 -1.5259  0.4137 -1.6560
  335SOL    HW2 1005   0.770   2.917   2.819 -3.0154 -3.6082  0.0309
  336SOL     OW 1006   3.006   2.869   1.985  0.1047  0.3262  0.8914
  336SOL    HW1 1007   2.946   2.950   1.966 -0.0301  1.2790 -2.1599
  336SOL    HW2 1008   2.945   2.794   2.028 -4.1793 -1.9617  2.2335
  337SOL     OW 1009   2.722   1.813   0.574  0.4813 -0.6248 -0.2591
  337SOL    HW1 1010   2.637   1.759   0.600  0.6556 -1.2104 -0.2466
  337SOL    HW2 1011   2.746   1.807   0.473  0.5977  0.5068 -1.2350
  338SOL     OW 1012   1.097   2.071   1.299  0.6541 -0.2381  0.0947
  338SOL    HW1 1013   1.159   1.993   1.286  2.9641  0.5529  0.5507
  338SOL    HW2 1014   1.020   2.041   1.353  0.6728 -1.1917  0.1886
  339SOL     OW 1015   2.911   0.877   2.393  0.4834  0.4444 -0.2028
  339SOL    HW1 1016   2.968   0.801   2.356 -2.0783 -0.3089 -1.6024
  339SOL    HW2 1017   2.969   0.958   2.406 -1.2856 -2.0449 -0.7385
  340SOL     OW 1018   1.631   2.797   1.063  0.1433 -0.4954  0.2848
  340SOL    HW1 1019   1.708   2.861   1.049  1.4259 -0.9591 -0.5720
  340SOL    HW2 1020   1.602   2.765   0.974  0.9426 -3.0006  1.7644
  341SOL     OW 1021   1.765   1.880   1.075  0.6869 -0.1950  0.1254
  341SOL    HW1 1022   1.846   1.828   1.102  0.7647  0.5057  0.2534
  341SOL    HW2 1023   1.775   1.970   1.126  0.1417  0.5318  1.8281
  342SOL     OW 1024   0.494   1.420   0.909 -0.2439  0.5790 -0.7416
  342SOL    HW1 1025   0.538   1.362   0.841  1.5451  0.3064  0.2268
  342SOL    HW2 1026   0.399   1.443   0.894  2.1520 -1.4042  0.3846
  343SOL     OW 1027   2.435   0.470   1.471  0.2372  0.2092 -0.7267
  343SOL    HW1 1028   2.465   0.528   1.546  1.7280 -1.3268 -2.9798
  343SOL    HW2 1029   2.426   0.529   1.390 -2.6311 -1.3312  0.3329
  344SOL     OW 1030   2.095   2.350   0.613  0.0109  0.1165  0.2468
  344SOL    HW1 1031   2.037   2.322   0.689 -0.8586  0.2807  0.8562
  344SOL    HW2 1032   2.192   2.332   0.634  0.4284  0.9476 -3.0486
  345SOL     OW 1033   0.012   2.622   2.824 -0.2861 -0.3910 -0.2887
  345SOL    HW1 1034   2.989   2.659   2.794 -0.8413 -1.5909 -0.1025
  345SOL    HW2 1035   0.011   2.522   2.832 -0.6026  1.9252 -2.0209
  346SOL     OW 1036   0.102   1.293   0.760  0.1962 -0.4792 -0.6815
  346SOL    HW1 1037   0.126   1.371   0.819 -1.4025 -1.9106 -0.1863
  346SOL    HW2 1038   0.089   1.325   0.661  0.9122 -1.2190 -0.6070
  347SOL     OW 1039   2.045   2.795   1.094  0.2314 -0.3011 -0.0492
  347SOL    HW1 1040   1.965   2.756   1.047 -1.6281  0.5659  1.4001
  347SOL    HW2 1041   2.134   2.742   1.081  2.6832  0.2274  1.3157
  348SOL     OW 1042   1.373   1.414   2.525 -0.2331  0.5376  0.1510
  348SOL    HW1 1043   1.379   1.340   2.454  1.3380 -0.7092  1.0009
  348SOL    HW2 1044   1.448   1.481   2.510 -1.5083 -0.7274  0.5908
  349SOL     OW 1045   2.282   1.180   2.438  0.1999  0.1064  0.0426
  349SOL    HW1 1046   2.199   1.121   2.428 -1.4618 -2.0885  1.0558
  349SOL    HW2 1047   2.370   1.129   2.445  0.4878  1.3462 -1.1306
  350SOL     OW 1048   3.025   1.900   1.111 -0.9421 -0.6122  0.1177
  350SOL    HW1 1049   3.061   1.805   1.131 -1.5048 -3.2768 -0.8030
  350SOL    HW2 1050   0.027   1.975   1.118 -0.3715  2.4018 -2.0572
  351SOL     OW 1051   0.709   0.372   2.427  0.0642  0.4860  0.8933
  351SOL    HW1 1052   0.773   0.342   2.500 -0.8807  0.0318  0.7890
  351SOL    HW2 1053   0.760   0.365   2.340 -0.8767 -1.3045 -1.3125
  352SOL     OW 1054   0.815   2.487   1.622 -0.1170  0.2730 -0.4008
  352SOL    HW1 1055   0.797   2.570   1.683 -2.0187 -1.6095  0.2845
  352SOL    HW2 1056   0.816   2.524   1.524  0.0144  1.6433 -3.0443
  353SOL     OW 1057   0.451   1.337   2.162 -0.7426  0.0640 -0.0446
  353SOL    HW1 1058   0.362   1.291   2.131 -0.0624  1.0916 -1.1953
  353SOL    HW2 1059   0.434   1.439   2.167  0.4575  0.9836 -0.9753
  354SOL     OW 1060   1.958   1.377   0.730  0.4593  0.0087 -0.2730
  354SOL    HW1 1061   1.879   1.379   0.794  0.3378 -2.8279 -0.6173
  354SOL    HW2 1062   1.925   1.342   0.638 -3.3842  0.7387 -0.1734
  355SOL     OW 1063   2.486   0.257   0.691 -0.8164  0.0749  0.2336
  355SOL    HW1 1064   2.541   0.296   0.613  0.4216  1.3592 -2.4622
  355SOL    HW2 1065   2.520   0.155   0.703  1.3487 -1.9573 -0.0648
  356SOL     OW 1066   0.052   1.264   2.593  0.1620 -0.2467  0.1221
  356SOL    HW1 1067   0.077   1.341   2.534  0.1703 -1.9339  2.0660
  356SOL    HW2 1068   0.037   1.182   2.533  1.0965  3.1360  0.5236
  357SOL     OW 1069   0.379   2.826   1.573  0.4191  0.7527  0.6467
  357SOL    HW1 1070   0.336   2.735   1.607 -1.5356 -0.5553  3.3967
  357SOL    HW2 1071   0.351   2.904   1.637 -0.7547 -0.1689  0.8859
  358SOL     OW 1072   2.836   1.429   2.473 -0.7611 -0.4572  0.2099
  358SOL    HW1 1073   2.893   1.410   2.392  0.5102 -0.2651  1.1542
  358SOL    HW2 1074   2.813   1.527   2.473  2.5241  2.3736  0.3756
  359SOL     OW 1075   2.682   2.465   2.810  0.5427 -0.3637  0.3129
  359SOL    HW1 1076   2.712   2.561   2.796 -0.7376 -0.7217 -0.9251
  359SOL    HW2 1077   2.591   2.446   2.769 -2.5376  1.7949 -1.3737
  360SOL     OW 1078   1.405   1.390   1.143 -0.0901 -0.4398  0.1190
  360SOL    HW1 1079   1.454   1.351   1.063  0.1147  2.0415  1.7144
  360SOL    HW2 1080   1.309   1.396   1.118  1.8059 -1.2874 -0.7623
  361SOL     OW 1081   1.989   2.436   1.185 -0.2009  0.0040 -0.0408
  361SOL    HW1 1082   2.050   2.371   1.134 -1.0351 -0.5527 -0.4017
  361SOL    HW2 1083   1.957   2.508   1.124 -1.7530 -3.9873  1.2886
  362SOL     OW 1084   1.641   1.632   1.094 -0.7283 -0.2051  0.0172
  362SOL    HW1 1085   1.684   1.723   1.074  2.1493  0.9064  2.3978
  362SOL    HW2 1086   1.587   1.605   1.014 -0.9320  1.1896  1.9457
  363SOL     OW 1087   2.698   2.128   0.026 -0.2754 -0.5125  0.1481
  363SOL    HW1 1088   2.605   2.089   0.009 -0.5748  1.5550  2.4371
  363SOL    HW2 1089   2.710   2.228   0.001  1.1446  2.2880  0.1925
  364SOL     OW 1090   2.230   0.423   1.688  0.1620  0.3219 -0.0468
  364SOL    HW1 1091   2.286   0.426   1.601  0.2654  1.1708 -4.9875
  364SOL    HW2 1092   2.282   0.391   1.775  1.2851  0.6297 -1.0231
  365SOL     OW 1093   2.859   2.592   1.379  0.0992  0.2893  0.1889
  365SOL    HW1 1094   2.939   2.629   1.434  2.8334 -2.1901  0.1720
  365SOL    HW2 1095   2.880   2.499   1.337 -2.0651 -1.8518  0.2230
  366SOL     OW 1096   2.774   1.312   0.171 -0.1992  0.1999 -0.0915
  366SOL    HW1 1097   2.797   1.323   0.072  0.3943 -1.7472 -0.3941
  366SOL    HW2 1098   2.759   1.212   0.189  0.8944 -0.2125 -0.6668
  367SOL     OW 1099   2.401   2.412   2.839  0.2401 -0.0725 -0.3935
  367SOL    HW1 1100   2.392   2.507   2.813 -0.5653 -0.0561  1.3923
  367SOL    HW2 1101   2.338   2.387   2.916 -0.4036 -1.6906 -0.9257
  368SOL     OW 1102   2.493   1.898   1.385 -0.0378 -0.0720 -0.0903
  368SOL    HW1 1103   2.535   1.986   1.413  0.2608 -2.5473 -1.3452
  368SOL    HW2 1104   2.518   1.885   1.289  1.5786  0.0907  1.7878
  369SOL     OW 1105   0.428   0.148   0.765  0.3262  0.0236  0.3899
  369SOL    HW1 1106   0.393   0.204   0.837  2.3014 -2.2468 -1.5575
  369SOL    HW2 1107   0.355   0.097   0.714 -2.0799 -0.5393  1.3044
  370SOL     OW 1108   0.754   0.352   0.853 -0.3408  0.2535 -0.3538
  370SOL    HW1 1109   0.678   0.415   0.878  0.7861 -0.3875  1.6885
  370SOL    HW2 1110   0.814   0.399   0.788  1.6116 -3.5942 -0.5321
  371SOL     OW 1111   2.499   1.829   0.222 -0.0884  0.2853 -0.2403
  371SOL    HW1 1112   2.586   1.812   0.271 -1.9366 -3.1321 -2.8541
  371SOL    HW2 1113   2.520   1.835   0.121 -2.7046  1.8890 -0.9279
  372SOL     OW 1114   0.275   0.977   2.549  0.2662 -0.1598 -0.1185
  372SOL    HW1 1115   0.213   0.944   2.625 -1.6993  0.5956  1.0710
  372SOL    HW2 1116   0.371   0.998   2.579  1.0137 -1.1587 -1.4138
  373SOL     OW 1117   2.873   0.870   0.452 -0.3864 -0.1714 -0.1070
  373SOL    HW1 1118   2.926   0.958   0.444 -3.8796 -0.4519 -1.7256
  373SOL    HW2 1119   2.928   0.783   0.458  0.3949 -2.3889 -1.6111
  374SOL     OW 1120   0.563   2.227   3.021 -0.5444 -0.3785 -0.2754
  374SOL    HW1 1121   0.481   2.268   3.066 -0.5986 -2.1322 -1.7356
  374SOL    HW2 1122   0.603   2.285   2.944 -0.0155 -0.6490 -2.2796
  375SOL     OW 1123   1.233   0.581   0.024  0.2440  0.1946 -0.4939
  375SOL    HW1 1124   1.284   0.646   3.032 -0.5620 -2.8160  0.3239
  375SOL    HW2 1125   1.134   0.606   0.041 -3.4269 -2.4865 -1.1919
  376SOL     OW 1126   0.168   2.830   1.832 -0.1557 -0.3545  0.3908
  376SOL    HW1 1127   0.090   2.851   1.893  0.6207  0.0772  0.4406
  376SOL    HW2 1128   0.163   2.732   1.804  1.0613 -0.8255 -0.3981
  377SOL     OW 1129   2.989   2.114   2.327  0.2163  0.6187 -0.1555
  377SOL    HW1 1130   0.010   2.111   2.281 -0.9907  3.0314  2.5958
  377SOL    HW2 1131   2.964   2.201   2.374 -0.3483 -2.7063  0.7107
  378SOL     OW 1132   1.645   0.782   0.537 -0.3801  0.0192  0.1540
  378SOL    HW1 1133   1.595   0.868   0.503 -1.2563  2.7771 -1.2271
  378SOL    HW2 1134   1.641   0.775   0.641 -0.2110 -1.4091  0.7472
  379SOL     OW 1135   1.311   1.438   0.182 -0.1782 -0.4299 -0.0296
  379SOL    HW1 1136   1.275   1.371   0.117 -0.3867  0.1114  2.7457
  379SOL    HW2 1137   1.233   1.493   0.223 -2.4495  0.1769 -0.1100
  380SOL     OW 1138   2.242   2.250   1.980  0.6227 -0.1925  0.5181
  380SOL    HW1 1139   2.329   2.209   1.947  0.1071  0.1544 -1.7935
  380SOL    HW2 1140   2.172   2.175   1.995 -0.8656  0.3646  1.6803
  381SOL     OW 1141   0.040   1.022   2.154  0.0370  0.5573  0.1757
  381SOL    HW1 1142   3.032   1.013   2.081 -1.6678  1.8684 -2.8285
  381SOL    HW2 1143   0.117   0.959   2.123 -0.0594 -2.7233  0.4433
  382SOL     OW 1144   2.782   2.395   3.055 -0.7403 -0.4502 -0.0073
  382SOL    HW1 1145   2.741   2.419   2.968  1.9657 -1.3214  0.7439
  382SOL    HW2 1146   2.742   2.455   0.059 -0.5079  0.2879  1.1169
  383SOL     OW 1147   1.511   1.136   2.142 -0.2541 -0.4734  0.4142
  383SOL    HW1 1148   1.469   1.092   2.056 -3.3286  0.1044 -2.7091
  383SOL    HW2 1149   1.570   1.216   2.124  0.9656 -2.2685 -3.9467
  384SOL     OW 1150   0.683   1.920   2.299 -0.1273  0.1112  0.0531
  384SOL    HW1 1151   0.761   1.989   2.288 -2.1080  0.1424 -0.2284
  384SOL    HW2 1152   0.641   1.896   2.209 -2.2653 -0.5812  0.5577
  385SOL     OW 1153   2.763   2.087   0.667  0.8142  0.8151  0.0347
  385SOL    HW1 1154   2.741   1.991   0.631  0.5747 -1.7833  1.2355
  385SOL    HW2 1155   2.758   2.087   0.768  0.6569 -0.9046  0.0683
  386SOL     OW 1156   1.314   0.993   0.016  0.1866  0.7459  0.0141
  386SOL    HW1 1157   1.401   1.050   0.004  0.0539 -2.7350 -1.4234
  386SOL    HW2 1158   1.305   0.958   0.109  2.0523  0.8688  0.2060
  387SOL     OW 1159   0.194   0.374   1.574  0.2947 -0.4576  0.8602
  387SOL    HW1 1160   0.232   0.384   1.479 -1.3164  0.6262 -0.9174
  387SOL    HW2 1161   0.174   0.276   1.596 -2.2917  0.1830  0.7539
  388SOL     OW 1162   2.951   0.691   1.414  0.2016 -0.1498 -0.1265
  388SOL    HW1 1163   2.926   0.783   1.395  3.0579  1.0313 -1.7022
  388SOL    HW2 1164   2.938   0.628   1.337  1.0794 -0.1798 -0.2118
  389SOL     OW 1165   1.840   1.219   2.488 -0.3009  0.1865 -0.6403
  389SOL    HW1 1166   1.766   1.150   2.481  0.7144  1.6746  0.8536
  389SOL    HW2 1167   1.829   1.306   2.434  1.2356  0.0302 -0.8254
  390SOL     OW 1168   1.902   2.100   0.294 -0.3247  0.6773 -0.5008
  390SOL    HW1 1169   1.938   2.145   0.209 -1.2862 -0.9311 -1.0390
  390SOL    HW2 1170   1.976   2.039   0.332 -2.4282 -1.0527 -1.2568
  391SOL     OW 1171   1.114   2.565   0.932 -0.3549  0.2199  0.8109
  391SOL    HW1 1172   1.146   2.650   0.981 -0.7878 -0.4747  2.4399
  391SOL    HW2 1173   1.015   2.551   0.941 -0.9317  0.6351  1.1814
  392SOL     OW 1174   2.677   2.624   1.576 -0.2597  0.1616  0.4463
  392SOL    HW1 1175   2.738   2.592   1.504  2.1107 -0.8099  0.6718
  392SOL    HW2 1176   2.586   2.653   1.538  1.2693 -0.7369 -0.0151
  393SOL     OW 1177   1.789   2.563   2.431 -0.6113 -0.4948 -0.3302
  393SOL    HW1 1178   1.740   2.523   2.353  1.3211  0.6651 -0.7544
  393SOL    HW2 1179   1.733   2.630   2.481  2.5673 -1.5662 -2.1966
  394SOL     OW 1180   0.208   2.730   2.484  0.1245  0.0447 -0.3040
  394SOL    HW1 1181   0.195   2.735   2.586 -0.7372  0.0101 -1.3206
  394SOL    HW2 1182   0.264   2.809   2.452 -1.2596  0.6396  1.3608
  395SOL     OW 1183   0.744   0.851   1.291  0.1845  0.1243  0.1301
  395SOL    HW1 1184   0.754   0.862   1.395  1.9817  1.5302  2.7935
  395SOL    HW2 1185   0.745   0.753   1.264  0.0090  1.3626  1.8362
  396SOL     OW 1186   2.056   1.075   2.385  0.1358 -0.4786 -0.1251
  396SOL    HW1 1187   2.002   0.984   2.375  2.8978 -0.6275  1.5055
  396SOL    HW2 1188   1.991   1.145   2.421 -1.6435  1.1541 -1.9873
  397SOL     OW 1189   2.635   0.458   2.801  0.2925 -0.4610  0.0856
  397SOL    HW1 1190   2.718   0.447   2.861 -0.6736 -0.4675 -1.5922
  397SOL    HW2 1191   2.652   0.460   2.701 -1.3450 -1.9228 -0.1979
  398SOL     OW 1192   1.643   0.015   0.784  0.5770  0.0690 -0.0753
  398SOL    HW1 1193   1.696   2.994   0.767 -1.7021 -0.1420 -2.2680
  398SOL    HW2 1194   1.681   0.092   0.726 -0.0962  2.3201 -2.5079
  399SOL     OW 1195   2.404   2.662   1.902 -0.0609 -0.1398  0.2017
  399SOL    HW1 1196   2.398   2.752   1.853  0.4669  0.8522  1.6814
  399SOL    HW2 1197   2.318   2.609   1.901  3.1956  1.3358 -0.2963
  400SOL     OW 1198   2.910   2.440   1.979 -0.0194 -0.0466 -0.6941
  400SOL    HW1 1199   2.833   2.380   1.950  1.5118 -0.8160  1.8822
  400SOL    HW2 1200   2.942   2.426   2.075 -2.0253 -2.0330 -0.0172
  401SOL     OW 1201   0.383   0.258   0.349  0.5033  0.1149  0.5912
  401SOL    HW1 1202   0.416   0.178   0.288  2.1913 -0.2834 -0.5550
  401SOL    HW2 1203   0.309   0.308   0.308 -0.0346  0.4543  0.3536
  402SOL     OW 1204   0.772   2.697   1.789 -0.0719 -0.0207 -0.3652
  402SOL    HW1 1205   0.843   2.763   1.821 -0.6770 -0.1055  2.7714
  402SOL    HW2 1206   0.682   2.745   1.788 -0.2760  0.1816 -0.1162
  403SOL     OW 1207   0.158   1.364   1.869 -0.5255 -0.6023 -0.0488
  403SOL    HW1 1208   0.232   1.315   1.831  0.7897 -0.2691  2.8650
  403SOL    HW2 1209   0.145   1.325   1.963  0.8835  3.1003 -1.3942
  404SOL     OW 1210   2.610   2.546   2.162  1.0099  0.2578  0.4066
  404SOL    HW1 1211   2.671   2.596   2.096 -2.4781  2.0363 -2.0947
  404SOL    HW2 1212   2.647   2.465   2.205  2.9354 -0.3386  3.0878
  405SOL     OW 1213   2.319   0.236   2.676 -0.6865  0.0235  0.2017
  405SOL    HW1 1214   2.237   0.174   2.678 -2.7984 -0.9110  1.1097
  405SOL    HW2 1215   2.311   0.312   2.741 -0.5943 -1.0545 -1.0353
  406SOL     OW 1216   1.466   2.276   0.447  0.7762 -0.2342 -0.3233
  406SOL    HW1 1217   1.417   2.263   0.533  0.4412 -2.2570 -0.0388
  406SOL    HW2 1218   1.537   2.201   0.434  1.2626 -0.2710  1.9503
  407SOL     OW 1219   1.944   1.538   0.160  0.3521  0.5015  0.2201
  407SOL    HW1 1220   1.977   1.532   0.253 -0.0828 -1.2042 -2.1910
  407SOL    HW2 1221   1.840   1.557   0.155 -2.0261 -2.7308  0.8318
  408SOL     OW 1222   0.195   0.821   2.101  0.7241  0.3546 -0.1233
  408SOL    HW1 1223   0.195   0.788   2.197  0.3203 -0.1920  2.9917
  408SOL    HW2 1224   0.260   0.768   2.045 -0.4979  3.5193 -1.0308
  409SOL     OW 1225   2.807   1.348   2.982  0.0046  0.0812  0.3304
  409SOL    HW1 1226   2.898   1.388   3.004  2.6626  2.9609  1.0459
  409SOL    HW2 1227   2.806   1.314   2.886  0.2754  1.4780  2.2873
  410SOL     OW 1228   2.583   1.347   1.188  0.2204  0.5709 -0.6391
  410SOL    HW1 1229   2.493   1.386   1.165 -3.5693  0.0438  0.9573
  410SOL    HW2 1230   2.655   1.416   1.187  0.3045 -0.5567  0.6755
  411SOL     OW 1231   2.922   0.607   0.473  0.1806  0.0926  0.5235
  411SOL    HW1 1232   2.950   0.512   0.445  0.4749 -3.0829 -1.5252
  411SOL    HW2 1233   2.824   0.606   0.499 -1.0461  3.1409 -1.9824
  412SOL     OW 1234   1.833   0.078   0.394 -0.7050  0.9886 -0.4510
  412SOL    HW1 1235   1.781   0.109   0.480 -1.3179 -0.4405  0.4079
  412SOL    HW2 1236   1.910   0.143   0.370 -0.1556 -1.2802 -0.3812
  413SOL     OW 1237   1.242   0.354   1.858 -0.3661 -0.3056 -0.1380
  413SOL    HW1 1238   1.272   0.253   1.857  0.2873  0.0948  2.5560
  413SOL    HW2 1239   1.295   0.400   1.782 -1.3155 -0.7233 -0.9244
  414SOL     OW 1240   0.530   1.099   0.168 -0.0497 -0.3658 -0.0519
  414SOL    HW1 1241   0.540   1.013   0.113 -0.7325  0.0179 -1.4921
  414SOL    HW2 1242   0.503   1.179   0.105 -0.5458  2.1271  1.3089
  415SOL     OW 1243   0.086   1.389   0.505 -0.4399 -0.1987 -0.7607
  415SOL    HW1 1244   0.056   1.481   0.534  0.6006  1.2437  0.2253
  415SOL    HW2 1245   0.053   1.373   0.412  0.6871 -1.3257 -2.8362
  416SOL     OW 1246   2.127   0.896   0.274  0.4747 -0.0039 -0.1743
  416SOL    HW1 1247   2.116   0.853   0.183 -0.1055 -1.2441 -0.0136
  416SOL    HW2 1248   2.220   0.925   0.298 -1.4048 -3.2888  0.6805
  417SOL     OW 1249   2.681   2.777   2.901  0.3008 -0.0086  0.1072
  417SOL    HW1 1250   2.699   2.820   2.991 -1.3380 -1.1346 -0.1277
  417SOL    HW2 1251   2.582   2.756   2.891 -1.7530  0.1013 -0.0135
  418SOL     OW 1252   2.769   0.661   0.192 -0.2321  0.3327 -0.4729
  418SOL    HW1 1253   2.750   0.685   0.290 -1.5937  3.0182 -0.5694
  418SOL    HW2 1254   2.689   0.617   0.146  1.7743  0.9022  1.2046
  419SOL     OW 1255   0.844   0.316   0.536  0.0289  0.1228  0.2269
  419SOL    HW1 1256   0.746   0.289   0.557 -1.0229 -0.3689  0.8446
  419SOL    HW2 1257   0.893   0.260   0.467 -1.1090 -0.8722  0.2712
  420SOL     OW 1258   0.583   1.006   0.634  0.3661  0.0124 -0.2550
  420SOL    HW1 1259   0.491   0.969   0.609 -1.9917  0.9098 -1.6648
  420SOL    HW2 1260   0.609   0.989   0.728  0.8041  3.5646  0.9687
  421SOL     OW 1261   0.409   1.926   0.528 -0.2242 -0.0585  0.4721
  421SOL    HW1 1262   0.500   1.904   0.491 -2.2734  0.6528  1.8247
  421SOL    HW2 1263   0.338   1.885   0.474  3.0569  1.3605  1.7496
  422SOL     OW 1264   2.961   0.382   1.482 -0.8533  0.2560  0.4875
  422SOL    HW1 1265   3.041   0.369   1.543 -0.1929  0.8006 -1.1584
  422SOL    HW2 1266   2.893   0.306   1.478 -1.9565 -0.9313 -4.4813
  423SOL     OW 1267   2.053   1.870   0.340 -0.3482 -0.1062 -0.5430
  423SOL    HW1 1268   2.146   1.907   0.369  1.7812 -0.2274  1.3589
  423SOL    HW2 1269   2.048   1.844   0.243 -1.3481  0.8824 -0.2570
  424SOL     OW 1270   1.558   1.649   2.888  0.7481  0.2742 -0.1836
  424SOL    HW1 1271   1.595   1.694   2.966 -0.0174 -1.0929 -1.4383
  424SOL    HW2 1272   1.630   1.644   2.813  0.1884 -0.9269  0.9780
  425SOL     OW 1273   0.473   2.766   2.021  0.3612  0.1896  0.3420
  425SOL    HW1 1274   0.402   2.826   2.062 -1.4883 -3.9492  0.0129
  425SOL    HW2 1275   0.511   2.812   1.937 -1.0111  1.6896  0.6781
  426SOL     OW 1276   2.316   3.035   3.008 -0.4572 -0.1326  0.2917
  426SOL    HW1 1277   2.365   3.040   2.921  3.6847  2.1789 -0.0901
  426SOL    HW2 1278   2.226   2.995   2.992 -1.7649 -1.7206 -3.3683
  427SOL     OW 1279   0.393   1.596   2.154 -0.0090  0.0136  0.2548
  427SOL    HW1 1280   0.490   1.633   2.156 -0.5818 -1.9709  2.2168
  427SOL    HW2 1281   0.329   1.626   2.227 -2.8216 -1.8123  1.1469
  428SOL     OW 1282   2.227   1.446   2.399  0.1657  0.2851  0.2583
  428SOL    HW1 1283   2.142   1.436   2.331 -3.7732 -0.0321 -3.0092
  428SOL    HW2 1284   2.268   1.352   2.414  1.3774 -0.8037 -1.8738
  429SOL     OW 1285   2.561   3.060   0.644  0.4320 -0.2091  0.2156
  429SOL    HW1 1286   2.610   0.019   0.556 -0.5803  1.2782 -2.9075
  429SOL    HW2 1287   2.488   2.990   0.634 -0.4261 -1.9655  2.2414
  430SOL     OW 1288   1.754   2.044   2.168 -0.4331 -0.2535  0.0258
  430SOL    HW1 1289   1.657   2.023   2.185  0.0915  0.9301 -1.7737
  430SOL    HW2 1290   1.805   1.959   2.136  2.7485  0.2546  2.5307
  431SOL     OW 1291   2.824   1.650   1.846 -0.2113 -0.3046  0.0742
  431SOL    HW1 1292   2.763   1.718   1.801 -1.0454  1.3747  0.0007
  431SOL    HW2 1293   2.902   1.617   1.792 -0.5890 -1.3820 -0.4203
  432SOL     OW 1294   1.058   2.356   2.089 -0.4174 -0.3141  0.4724
  432SOL    HW1 1295   1.143   2.298   2.064 -0.4646 -1.8872 -1.0108
  432SOL    HW2 1296   0.973   2.301   2.077 -2.3883 -0.1268  0.7396
  433SOL     OW 1297   1.023   2.920   0.754  0.0402  0.0048  0.1937
  433SOL    HW1 1298   1.103   2.936   0.817  2.0633 -1.0023 -0.8118
  433SOL    HW2 1299   0.938   2.957   0.796 -0.4860 -1.6650 -1.5130
  434SOL     OW 1300   0.226   2.308   2.130 -0.1515 -0.6079 -0.4786
  434SOL    HW1 1301   0.253   2.406   2.106  1.7134  0.4233 -0.5706
  434SOL    HW2 1302   0.298   2.271   2.192  0.0425  1.2224  0.6218
  435SOL     OW 1303   0.559   1.264   0.646 -0.6353  0.5644 -0.4277
  435SOL    HW1 1304   0.556   1.158   0.630 -0.1263 -1.8643  2.1414
  435SOL    HW2 1305   0.576   1.315   0.561 -0.7904  0.0097  0.1899
  436SOL     OW 1306   0.428   1.671   1.655 -0.2774 -0.1301  0.0994
  436SOL    HW1 1307   0.522   1.680   1.623  4.6804  0.6851 -0.2965
  436SOL    HW2 1308   0.372   1.756   1.634 -0.6042  0.4265 -0.7922
  437SOL     OW 1309   1.082   0.478   0.349 -0.6124 -0.3063  0.5579
  437SOL    HW1 1310   1.140   0.411   0.294 -0.5346 -1.7663 -1.6797
  437SOL    HW2 1311   1.050   0.555   0.291  0.0708  3.5986  2.2691
  438SOL     OW 1312   0.977   1.722   0.929  0.4398 -0.0424  0.1463
  438SOL    HW1 1313   0.930   1.664   0.859  2.3447 -0.6638  0.5815
  438SOL    HW2 1314   1.075   1.695   0.935 -1.5610  1.1306 -0.3508
  439SOL     OW 1315   1.224   1.784   2.195  0.2682  0.1998 -0.6758
  439SOL    HW1 1316   1.227   1.723   2.278  0.3412  1.2696  1.3759
  439SOL    HW2 1317   1.291   1.746   2.128  1.2155 -0.1949  1.0217
  440SOL     OW 1318   1.485   0.176   1.307 -0.3541 -0.0487 -0.0420
  440SOL    HW1 1319   1.491   0.170   1.411 -1.8779 -0.8588  2.9077
  440SOL    HW2 1320   1.579   0.156   1.271 -0.2900  0.6854  1.2681
  441SOL     OW 1321   0.492   0.040   1.176 -0.3594 -0.2201  0.2317
  441SOL    HW1 1322   0.433   0.092   1.235  2.1370  2.4547 -3.5896
  441SOL    HW2 1323   0.549   3.047   1.238 -0.3034 -0.6695  0.7430
  442SOL     OW 1324   2.296   1.935   0.641  0.4025  0.2913 -0.0160
  442SOL    HW1 1325   2.209   1.928   0.688  2.8632  0.4514  0.2447
  442SOL    HW2 1326   2.277   1.966   0.544  2.1448  1.8269 -2.5398
  443SOL     OW 1327   2.731   0.505   2.103 -0.1512 -0.0656 -0.3662
  443SOL    HW1 1328   2.656   0.477   2.168 -0.7536 -0.8991 -0.0080
  443SOL    HW2 1329   2.774   0.425   2.058 -0.6090  1.4855  0.9291
  444SOL     OW 1330   1.973   1.195   2.148 -0.0778  0.5528 -0.0377
  444SOL    HW1 1331   1.899   1.159   2.084  0.9551  0.1318  0.5876
  444SOL    HW2 1332   2.008   1.123   2.213  1.8265 -2.9027  1.6171
  445SOL     OW 1333   2.645   2.115   1.499 -0.2737  0.4905  0.3373
  445SOL    HW1 1334   2.736   2.139   1.533 -0.2565 -0.0758  1.0925
  445SOL    HW2 1335   2.566   2.157   1.552 -0.4361 -0.2581  0.5779
  446SOL     OW 1336   0.329   0.945   0.610 -0.2997  0.2346  0.2473
  446SOL    HW1 1337   0.259   0.936   0.544  1.6106  2.4246  3.4969
  446SOL    HW2 1338   0.298   1.012   0.685  1.1547  2.3244  2.5264
  447SOL     OW 1339   0.828   1.603   0.743 -0.3334  0.1375 -0.2497
  447SOL    HW1 1340   0.787   1.510   0.754 -1.9376 -2.2617  0.8793
  447SOL    HW2 1341   0.755   1.675   0.730  0.8086 -1.2413 -0.3747
  448SOL     OW 1342   1.237   0.968   1.780  0.3526 -0.4732  0.1893
  448SOL    HW1 1343   1.223   0.986   1.680  0.5788  2.4692 -2.9029
  448SOL    HW2 1344   1.218   0.872   1.806  1.3852  0.8152  0.2244
  449SOL     OW 1345   0.279   1.587   3.037 -0.0173 -0.2841 -0.3582
  449SOL    HW1 1346   0.225   1.501   3.037 -0.8901 -3.3747  1.9063
  449SOL    HW2 1347   0.256   1.647   0.049  0.0357  0.4377  0.5559
  450SOL     OW 1348   2.382   2.393   2.180 -0.1182  0.5255  0.0908
  450SOL    HW1 1349   2.365   2.324   2.104 -2.8861 -2.7343 -0.4840
  450SOL    HW2 1350   2.454   2.467   2.152 -0.1500  3.8071 -2.7562
  451SOL     OW 1351   2.145   0.409   2.111 -0.3677  0.0406  0.5857
  451SOL    HW1 1352   2.168   0.309   2.108  1.3559 -0.0072  2.4930
  451SOL    HW2 1353   2.109   0.447   2.021  0.3259  1.1175  1.9605
  452SOL     OW 1354   0.739   2.806   1.040 -0.9162 -0.3941 -0.3155
  452SOL    HW1 1355   0.687   2.867   0.980 -1.2806 -0.2507 -2.1731
  452SOL    HW2 1356   0.836   2.841   1.060 -1.0041  1.5017 -0.4947
  453SOL     OW 1357   1.140   1.116   0.962  0.0664 -0.5549  0.3088
  453SOL    HW1 1358   1.112   1.206   0.996 -1.7151  0.5177 -1.4239
  453SOL    HW2 1359   1.108   1.036   1.017 -1.3342  0.6367  1.0700
  454SOL     OW 1360   0.196   1.057   0.827 -0.6259 -0.1129  0.1671
  454SOL    HW1 1361   0.254   1.083   0.912 -0.1314 -0.8380  0.3777
  454SOL    HW2 1362   0.136   1.132   0.796 -3.0035  0.3122 -2.8560
  455SOL     OW 1363   0.135   2.929   0.186 -0.1838 -0.1807  0.1120
  455SOL    HW1 1364   0.184   2.995   0.128 -1.5505 -2.6021 -0.6847
  455SOL    HW2 1365   0.096   2.967   0.270  0.1772 -0.2802 -2.9584
  456SOL     OW 1366   2.382   2.335   0.614  0.1811 -0.1272  0.0311
  456SOL    HW1 1367   2.386   2.256   0.680  0.6231  0.6355 -0.7299
  456SOL    HW2 1368   2.455   2.339   0.545 -0.3202  2.1398  1.6176
  457SOL     OW 1369   1.089   3.043   2.921 -0.0662  0.2288  0.2070
  457SOL    HW1 1370   1.061   2.960   2.971  1.3015  0.6678  1.3207
  457SOL    HW2 1371   1.187   3.041   2.885 -1.8625  0.7547  0.6036
  458SOL     OW 1372   2.961   2.639   0.304 -0.4162 -0.4704  0.1111
  458SOL    HW1 1373   2.918   2.552   0.278  1.9056 -1.7372  3.3520
  458SOL    HW2 1374   2.960   2.709   0.228 -0.6810  1.6144 -1.8009
  459SOL     OW 1375   2.511   0.432   2.237  0.0131 -0.1730 -0.0976
  459SOL    HW1 1376   2.444   0.449   2.308  0.1835  1.1038 -2.3482
  459SOL    HW2 1377   2.505   0.336   2.204 -1.0932 -1.0993 -0.0370
  460SOL     OW 1378   3.019   0.548   0.120  0.3488 -0.1418 -0.3657
  460SOL    HW1 1379   0.016   0.587   0.050 -0.8011  1.0100 -1.9156
  460SOL    HW2 1380   2.931   0.595   0.128  0.3232  0.6064  1.6954
  461SOL     OW 1381   0.505   1.794   1.162 -0.4181 -0.0081 -0.1134
  461SOL    HW1 1382   0.535   1.821   1.066  1.9727  2.0941 -1.3587
  461SOL    HW2 1383   0.551   1.856   1.226  0.8657  1.9594 -1.0275
  462SOL     OW 1384   0.028   2.631   1.538  0.8949  0.1229  0.0792
  462SOL    HW1 1385   3.063   2.726   1.545 -0.1124 -1.6593  0.6125
  462SOL    HW2 1386   0.020   2.575   1.625  1.6575  0.3086 -3.1382
  463SOL     OW 1387   2.494   1.166   2.946 -0.0844  0.5797 -0.9142
  463SOL    HW1 1388   2.420   1.091   2.946 -1.6064  1.2634 -2.9206
  463SOL    HW2 1389   2.586   1.132   2.915  3.4367  0.2822 -0.2867
  464SOL     OW 1390   0.396   2.266   1.104 -0.2231  0.2785 -0.5606
  464SOL    HW1 1391   0.371   2.174   1.067 -0.4034 -1.8678 -0.4436
  464SOL    HW2 1392   0.477   2.258   1.172 -0.5164  0.4095  0.2044
  465SOL     OW 1393   0.568   0.629   0.690 -1.0234  0.3205 -0.0016
  465SOL    HW1 1394   0.470   0.621   0.649 -0.9285 -2.9904  2.0424
  465SOL    HW2 1395   0.573   0.676   0.780  0.0232 -2.3019  0.5260
  466SOL     OW 1396   1.287   2.911   2.088  0.6454 -0.2481  0.4935
  466SOL    HW1 1397   1.293   2.824   2.036 -3.2614  1.2421 -0.7717
  466SOL    HW2 1398   1.195   2.904   2.131 -0.1099 -0.7743  3.6329
  467SOL     OW 1399   0.762   0.550   1.976  0.3581  0.0767  0.1754
  467SOL    HW1 1400   0.696   0.559   1.897 -2.4216 -0.9326 -3.4542
  467SOL    HW2 1401   0.729   0.586   2.067  0.6364 -1.6743  0.2806
  468SOL     OW 1402   0.173   1.286   2.124  0.6301 -0.0387 -0.3089
  468SOL    HW1 1403   0.131   1.197   2.148 -0.0571 -1.4019  1.4860
  468SOL    HW2 1404   0.169   1.351   2.203  1.4926 -1.1711  0.3616
  469SOL     OW 1405   0.327   1.720   0.682 -0.5317  0.0891  0.1370
  469SOL    HW1 1406   0.345   1.791   0.610 -0.8005  1.0673 -2.6408
  469SOL    HW2 1407   0.336   1.628   0.639 -1.1392  1.1051  3.1018
  470SOL     OW 1408   2.578   1.705   2.257 -0.1438 -0.4063  0.6848
  470SOL    HW1 1409   2.563   1.657   2.172  0.0138  4.0137  2.2973
  470SOL    HW2 1410   2.607   1.806   2.236  0.2620  0.6970 -1.3836
  471SOL     OW 1411   1.438   0.629   2.555  1.0926  0.2073 -0.7423
  471SOL    HW1 1412   1.343   0.582   2.550 -0.0161  0.6238  1.2813
  471SOL    HW2 1413   1.479   0.609   2.648  2.0803  0.2295  2.3824
  472SOL     OW 1414   0.676   2.256   1.666  0.3635 -0.3693  0.0313
  472SOL    HW1 1415   0.725   2.197   1.728 -0.7519  1.7446 -2.4475
  472SOL    HW2 1416   0.725   2.340   1.635 -1.8724  0.7307  1.5306
  473SOL     OW 1417   0.291   0.153   2.394  0.1631  0.1504  0.2014
  473SOL    HW1 1418   0.361   0.197   2.456  1.0321 -0.2403  0.6618
  473SOL    HW2 1419   0.326   0.060   2.364  0.9869  1.5925 -1.4284
  474SOL     OW 1420   1.716   0.101   1.213 -0.0216  0.0347 -0.2330
  474SOL    HW1 1421   1.779   0.177   1.197 -1.1515  0.4733 -1.9049
  474SOL    HW2 1422   1.741   0.020   1.157  0.9826 -0.5651 -0.1243
  475SOL     OW 1423   2.063   0.850   1.089 -1.0882 -0.0837 -0.2951
  475SOL    HW1 1424   1.981   0.847   1.024  0.3228  2.5520  0.7045
  475SOL    HW2 1425   2.089   0.946   1.106 -0.9009 -0.4678 -1.5301
  476SOL     OW 1426   0.652   0.942   0.881  0.0298  0.0406 -0.0535
  476SOL    HW1 1427   0.625   0.981   0.974 -2.6540  2.7787 -0.9333
  476SOL    HW2 1428   0.727   0.878   0.900  0.5843  0.3584 -2.1596
  477SOL     OW 1429   1.314   2.290   0.666 -0.9773 -0.3468 -0.2547
  477SOL    HW1 1430   1.252   2.213   0.657 -0.6993  0.9307 -2.4455
  477SOL    HW2 1431   1.268   2.375   0.657 -0.2723 -1.6954  0.5854
  478SOL     OW 1432   3.008   2.395   2.253  0.4124  0.2428  0.2730
  478SOL    HW1 1433   3.032   2.465   2.326  0.7434  4.1747  0.1036
  478SOL    HW2 1434   0.027   2.336   2.240  3.9018 -1.3963 -1.7895
  479SOL     OW 1435   2.522   0.253   1.322 -0.4130 -0.1409  0.4198
  479SOL    HW1 1436   2.481   0.320   1.385 -0.4870 -1.6107  2.7306
  479SOL    HW2 1437   2.471   0.232   1.240  1.4617  0.3757 -0.2856
  480SOL     OW 1438   0.322   2.371   0.563  0.1399  0.1218 -0.5545
  480SOL    HW1 1439   0.345   2.353   0.466  0.1605 -1.2238 -2.8672
  480SOL    HW2 1440   0.222   2.399   0.571 -0.8414 -1.2382  1.7695
  481SOL     OW 1441   2.346   2.169   1.574 -0.2411 -0.2438  0.1130
  481SOL    HW1 1442   2.292   2.258   1.589  0.2192  1.2750  2.4106
  481SOL    HW2 1443   2.321   2.101   1.644  0.9153  2.4502  0.6341
  482SOL     OW 1444   1.211   2.560   2.893  0.1467  0.1611  0.4078
  482SOL    HW1 1445   1.138   2.613   2.944 -2.2515 -1.3589 -1.0472
  482SOL    HW2 1446   1.267   2.493   2.945 -0.3764  1.3983 -1.4364
  483SOL     OW 1447   0.855   2.091   1.823  0.2371  0.0017  0.6383
  483SOL    HW1 1448   0.954   2.093   1.798  0.5078 -0.0146  2.3569
  483SOL    HW2 1449   0.816   2.004   1.785  1.2877  0.8054  0.0487
  484SOL     OW 1450   1.195   0.404   1.464 -0.3884  0.8839 -0.1862
  484SOL    HW1 1451   1.262   0.389   1.541  2.5985 -0.0455  0.1344
  484SOL    HW2 1452   1.216   0.494   1.425  1.0928  0.2779  0.4861
  485SOL     OW 1453   1.817   0.877   2.677 -0.2754 -0.1740 -0.2586
  485SOL    HW1 1454   1.914   0.912   2.689 -3.0654 -1.1219 -0.7059
  485SOL    HW2 1455   1.756   0.957   2.659  0.3855  1.9142  2.6955
  486SOL     OW 1456   2.134   0.097   1.420  1.0044 -0.1701  0.4305
  486SOL    HW1 1457   2.144   0.191   1.395 -0.1340 -2.8395 -0.0627
  486SOL    HW2 1458   2.211   0.066   1.482 -1.2546  4.4353  2.1272
  487SOL     OW 1459   0.681   2.056   1.096  0.5433  0.0633  0.2681
  487SOL    HW1 1460   0.710   2.153   1.089  1.3663 -0.0743 -1.6810
  487SOL    HW2 1461   0.619   2.037   1.177  1.7245 -0.8403  1.2233
  488SOL     OW 1462   2.426   2.065   3.053 -0.0984 -0.0081 -0.6795
  488SOL    HW1 1463   2.414   2.098   2.957  0.0897 -0.3379  0.3542
  488SOL    HW2 1464   2.402   1.964   3.060  0.4882  2.1849  1.5324
  489SOL     OW 1465   2.038   2.916   0.634  0.6306  0.3398  0.0379
  489SOL    HW1 1466   2.109   2.853   0.680 -0.0234  0.2811  1.9900
  489SOL    HW2 1467   2.073   2.950   0.547 -1.5677 -3.7869  1.3147
  490SOL     OW 1468   0.872   1.942   2.976 -0.6742 -0.0300  0.2114
  490SOL    HW1 1469   0.857   1.965   2.878 -4.0480  1.3138 -0.0272
  490SOL    HW2 1470   0.962   1.976   3.012  0.5868 -2.4730 -0.3702
  491SOL     OW 1471   0.279   1.950   1.575  0.1751 -0.5296 -0.0594
  491SOL    HW1 1472   0.255   1.926   1.672  0.9081 -2.1980 -0.2465
  491SOL    HW2 1473   0.348   2.016   1.562 -4.2960 -3.3718 -3.1091
  492SOL     OW 1474   0.742   1.449   1.749 -0.8974 -0.1259 -0.2311
  492SOL    HW1 1475   0.829   1.430   1.700  0.3865  0.0673 -1.0090
  492SOL    HW2 1476   0.696   1.374   1.792 -0.9415  0.2738 -2.4507
  493SOL     OW 1477   2.544   1.594   0.956  0.0285  0.4934 -0.2135
  493SOL    HW1 1478   2.504   1.628   0.869  0.6194  0.6975 -2.0400
  493SOL    HW2 1479   2.623   1.538   0.930 -2.9918  3.1849 -0.2531
  494SOL     OW 1480   2.822   1.544   0.838  0.0698  0.5600  0.4731
  494SOL    HW1 1481   2.833   1.505   0.743  1.5224  0.1084 -2.3655
  494SOL    HW2 1482   2.847   1.645   0.842  2.1585 -1.7417  2.4914
  495SOL     OW 1483   2.352   2.887   0.588 -0.5535 -0.2441  0.1144
  495SOL    HW1 1484   2.333   2.980   0.550  1.8831 -2.0495  1.1816
  495SOL    HW2 1485   2.388   2.822   0.516  0.3663  0.7884  1.3434
  496SOL     OW 1486   2.383   0.074   1.560 -0.1655 -0.0488  0.2188
  496SOL    HW1 1487   2.444   3.062   1.523  1.8065  0.0227  1.4805
  496SOL    HW2 1488   2.438   0.145   1.610  0.7834  2.7197  1.6722
  497SOL     OW 1489   2.490   1.367   2.740 -0.3258 -0.0738 -0.3437
  497SOL    HW1 1490   2.395   1.329   2.739  0.7272 -1.5102  1.8340
  497SOL    HW2 1491   2.543   1.314   2.805 -1.3276  0.2896  0.6767
  498SOL     OW 1492   2.833   1.808   1.319 -0.3116 -0.2444  0.4017
  498SOL    HW1 1493   2.906   1.813   1.392 -0.0709 -1.3475 -0.1298
  498SOL    HW2 1494   2.872   1.839   1.230  2.4361  1.7563 -2.7042
  499SOL     OW 1495   0.926   2.388   2.652  0.1148 -0.0055 -0.0881
  499SOL    HW1 1496   1.009   2.442   2.619  0.5723  1.3556 -1.3725
  499SOL    HW2 1497   0.850   2.409   2.584 -0.2555  1.5608 -2.1643
  500SOL     OW 1498   1.657   1.384   0.546 -0.0714  0.4480  0.7544
  500SOL    HW1 1499   1.752   1.352   0.516  0.9377 -3.7189  1.3887
  500SOL    HW2 1500   1.654   1.399   0.648  1.8880  4.1132  0.0517
  501SOL     OW 1501   1.487   0.153   1.578 -0.5483 -0.9018  0.0084
  501SOL    HW1 1502   1.398   0.111   1.568  1.3770 -2.0245 -1.5178
  501SOL    HW2 1503   1.554   0.082   1.600  0.9492 -0.1476 -0.6879
  502SOL     OW 1504   2.548   0.640   1.665 -0.3886 -0.1148  0.3087
  502SOL    HW1 1505   2.605   0.570   1.705  2.5401  3.6139 -2.4132
  502SOL    HW2 1506   2.518   0.710   1.731 -1.0991  4.0852 -0.2923
  503SOL     OW 1507   2.362   1.530   2.122  0.3434  0.3841  0.1971
  503SOL    HW1 1508   2.296   1.590   2.173  0.4903 -0.2171 -3.8184
  503SOL    HW2 1509   2.379   1.566   2.026 -0.4825 -1.8266 -0.2315
  504SOL     OW 1510   1.104   1.176   1.904 -0.2579 -0.2937  0.3855
  504SOL    HW1 1511   1.103   1.200   2.003  1.9199 -2.4095  0.9955
  504SOL    HW2 1512   1.146   1.086   1.880  1.2809 -0.7016  0.3976
  505SOL     OW 1513   0.449   0.186   1.483 -0.5280  0.0605 -0.2073
  505SOL    HW1 1514   0.494   0.231   1.407 -1.4591  0.7023  1.0674
  505SOL    HW2 1515   0.467   0.244   1.569  0.1120 -2.0390 -1.3512
  506SOL     OW 1516   0.195   0.280   0.007  0.6405  0.0337  0.3748
  506SOL    HW1 1517   0.191   0.348   0.084  0.9949  0.6755  1.3675
  506SOL    HW2 1518   0.219   0.322   2.981 -2.7463  1.9657  0.7672
  507SOL     OW 1519   0.505   2.524   2.997 -0.0955 -0.5580 -0.6872
  507SOL    HW1 1520   0.486   2.482   0.020  0.8947 -0.5933  0.4677
  507SOL    HW2 1521   0.598   2.501   2.961 -1.3276 -1.4439  0.3935
  508SOL     OW 1522   0.854   0.376   2.192 -0.5449  0.2272 -0.0952
  508SOL    HW1 1523   0.802   0.437   2.125 -1.9912  0.2079 -1.1933
  508SOL    HW2 1524   0.875   0.285   2.151 -1.1812 -0.5013 -0.6285
  509SOL     OW 1525   1.460   2.066   1.212  0.8723  0.0566 -0.1444
  509SOL    HW1 1526   1.525   2.045   1.287  0.1528  2.1358 -1.6370
  509SOL    HW2 1527   1.422   2.160   1.229  0.7369  0.5300 -2.0488
  510SOL     OW 1528   2.791   1.110   1.632 -0.0415  0.3426  0.3559
  510SOL    HW1 1529   2.711   1.072   1.684 -1.4885 -1.4400  3.5819
  510SOL    HW2 1530   2.800   1.062   1.541 -1.4641 -0.6464 -1.6399
  511SOL     OW 1531   1.268   1.853   1.194  0.4928 -0.0322 -0.4318
  511SOL    HW1 1532   1.326   1.934   1.189 -0.5103  1.2652  0.3849
  511SOL    HW2 1533   1.298   1.781   1.262  0.6237 -3.5000  1.8650
  512SOL     OW 1534   0.188   1.808   0.445  0.1597  0.0741  0.8217
  512SOL    HW1 1535   0.134   1.739   0.495 -0.3444 -1.0102 -0.5702
  512SOL    HW2 1536   0.204   1.771   0.350 -0.3337 -2.8046 -0.8211
  513SOL     OW 1537   0.210   1.256   3.042  0.0966  0.6501 -0.3151
  513SOL    HW1 1538   0.207   1.260   2.940 -1.4136 -1.0590  1.1497
  513SOL    HW2 1539   0.150   1.179   3.063 -1.6389  1.5493 -2.2155
  514SOL     OW 1540   2.076   2.376   2.265  0.2803  0.1839  0.1015
  514SOL    HW1 1541   2.038   2.286   2.290 -2.2716  3.5029 -0.7775
  514SOL    HW2 1542   2.146   2.406   2.333  0.6382  0.8850  1.3082
  515SOL     OW 1543   2.649   0.946   0.616  0.5698  0.1880 -0.7329
  515SOL    HW1 1544   2.578   0.879   0.576 -0.5576 -1.6052 -2.0037
  515SOL    HW2 1545   2.733   0.938   0.559 -0.6619 -1.0346 -1.5328
  516SOL     OW 1546   2.431   2.582   0.095  0.0588  0.3346 -0.2386
  516SOL    HW1 1547   2.374   2.500   0.071  0.8321 -1.7766 -0.4920
  516SOL    HW2 1548   2.527   2.547   0.129  0.6030  0.0455  2.5309
  517SOL     OW 1549   0.657   1.565   2.922  0.0902  0.2543 -0.2082
  517SOL    HW1 1550   0.619   1.643   2.862 -0.8905  2.4702 -2.3719
  517SOL    HW2 1551   0.613   1.553   3.014 -2.1476 -0.4291  1.2317
  518SOL     OW 1552   2.850   0.290   2.001 -0.2327 -0.4978 -0.1227
  518SOL    HW1 1553   2.811   0.204   2.042  1.0233 -1.0161  2.2676
  518SOL    HW2 1554   2.951   0.283   1.980 -1.4777  3.1715 -0.5566
  519SOL     OW 1555   1.692   1.116   0.200  0.4255  0.5760 -0.4340
  519SOL    HW1 1556   1.617   1.125   0.132  2.1100  0.6794  0.0363
  519SOL    HW2 1557   1.658   1.069   0.284  2.0593 -0.9295 -1.4808
  520SOL     OW 1558   2.712   2.918   2.245 -0.3378 -0.1508  0.3036
  520SOL    HW1 1559   2.811   2.938   2.226 -0.0990  1.6348 -0.9988
  520SOL    HW2 1560   2.703   2.851   2.315  0.5084  0.8930 -2.2116
  521SOL     OW 1561   0.103   2.056   2.141  0.2504  0.4295 -0.2603
  521SOL    HW1 1562   0.149   2.138   2.114 -0.8236  1.9462  0.7380
  521SOL    HW2 1563   0.171   1.978   2.162  1.0488 -1.8170  1.4079
  522SOL     OW 1564   1.325   2.839   1.733 -0.5624 -0.4026 -0.1188
  522SOL    HW1 1565   1.306   2.778   1.811  0.2874  1.6645 -2.1815
  522SOL    HW2 1566   1.321   2.790   1.640 -1.0611  1.0800 -3.5780
  523SOL     OW 1567   2.197   2.278   1.027  0.3292  0.0921 -0.3403
  523SOL    HW1 1568   2.225   2.264   0.931 -2.1055 -0.5813 -0.8994
  523SOL    HW2 1569   2.276   2.278   1.096 -0.5231 -0.4399 -1.2850
  524SOL     OW 1570   0.979   2.214   0.813 -0.4309 -0.1024 -0.0599
  524SOL    HW1 1571   1.006   2.240   0.908  2.6223  0.1498 -1.3785
  524SOL    HW2 1572   0.883   2.223   0.804  1.5431 -0.7459 -0.0562
  525SOL     OW 1573   2.814   0.537   0.816 -0.6992 -0.3748 -0.3571
  525SOL    HW1 1574   2.765   0.620   0.859  1.3253  1.0951  0.3068
  525SOL    HW2 1575   2.898   0.506   0.870  0.2574  2.7239  0.2907
  526SOL     OW 1576   1.490   0.121   0.462  0.1237 -0.3398  0.4232
  526SOL    HW1 1577   1.415   0.170   0.515  1.0143  1.4972 -0.1305
  526SOL    HW2 1578   1.524   0.175   0.387  0.0606 -0.7288  4.5687
  527SOL     OW 1579   1.893   1.494   1.168  0.2296 -0.1813 -0.1152
  527SOL    HW1 1580   1.802   1.515   1.133  0.2286 -0.6863  1.2012
  527SOL    HW2 1581   1.908   1.397   1.200  0.5743  0.1111  1.8063
  528SOL     OW 1582   2.665   2.653   2.393  0.5494  0.2423 -0.2087
  528SOL    HW1 1583   2.763   2.627   2.418  2.7232  0.2280  0.3149
  528SOL    HW2 1584   2.642   2.631   2.300 -0.5952  2.8012  3.0808
  529SOL     OW 1585   0.876   1.261   2.333 -0.3657 -0.3548  0.3638
  529SOL    HW1 1586   0.900   1.297   2.423 -1.2777  0.9064 -2.0413
  529SOL    HW2 1587   0.830   1.169   2.348  0.1977 -0.7397  2.4177
  530SOL     OW 1588   1.867   0.693   2.512  0.4086  0.2137  0.4927
  530SOL    HW1 1589   1.850   0.775   2.572 -2.8808  1.0621 -2.0999
  530SOL    HW2 1590   1.927   0.620   2.552  1.5198 -1.1014 -2.0330
  531SOL     OW 1591   0.141   0.905   0.058  0.2444  0.4994 -0.1227
  531SOL    HW1 1592   0.042   0.916   0.046  3.3053  0.1956  4.7446
  531SOL    HW2 1593   0.179   0.962   0.132 -0.3467  0.4004 -2.1315
  532SOL     OW 1594   1.688   1.391   0.833 -0.4982  0.2012  0.4280
  532SOL    HW1 1595   1.632   1.320   0.883  0.5875 -1.7787 -0.8418
  532SOL    HW2 1596   1.635   1.478   0.830 -1.6175  0.9226 -0.1139
  533SOL     OW 1597   0.171   0.757   2.371  0.0776 -0.0901  0.2857
  533SOL    HW1 1598   0.216   0.832   2.424  0.2858  3.1493  0.3857
  533SOL    HW2 1599   0.207   0.664   2.390  0.1648  0.1901 -1.0823
  534SOL     OW 1600   0.923   0.224   2.556 -0.9102 -0.3076  0.0457
  534SOL    HW1 1601   1.001   0.286   2.590  1.5549 -1.0066  1.7855
  534SOL    HW2 1602   0.876   0.169   2.631 -1.3357  0.9157 -1.7946
  535SOL     OW 1603   0.571   0.413   2.935 -0.1641 -0.8471 -0.0640
  535SOL    HW1 1604   0.511   0.487   2.899 -1.6479 -0.4111 -2.3705
  535SOL    HW2 1605   0.666   0.435   2.906  0.5169  0.0713  3.9236
  536SOL     OW 1606   0.400   1.005   2.309 -0.6620  0.3565  0.7156
  536SOL    HW1 1607   0.342   0.984   2.229  2.1494  2.3287  0.6287
  536SOL    HW2 1608   0.374   1.089   2.360 -2.2824  0.0139  1.0480
  537SOL     OW 1609   1.391   2.846   1.446  0.3295  0.3171  0.3928
  537SOL    HW1 1610   1.359   2.935   1.479  0.8741 -2.0257  1.1407
  537SOL    HW2 1611   1.325   2.771   1.462  0.1216 -2.4652 -2.1644
  538SOL     OW 1612   0.778   2.185   0.098  0.1134  0.4537 -0.3286
  538SOL    HW1 1613   0.688   2.220   0.058 -0.4622 -1.0632 -1.9604
  538SOL    HW2 1614   0.855   2.214   0.037 -0.6752  0.9929  1.2000
  539SOL     OW 1615   2.530   1.247   1.824 -0.5047  0.5624 -0.0187
  539SOL    HW1 1616   2.432   1.263   1.832  1.0835  0.8040  0.0667
  539SOL    HW2 1617   2.596   1.318   1.853  0.4865 -0.9514 -1.1327
  540SOL     OW 1618   1.879   1.821   1.424 -0.0322 -0.3929 -0.0363
  540SOL    HW1 1619   1.808   1.829   1.353  3.5056 -1.5921  0.0106
  540SOL    HW2 1620   1.896   1.909   1.476 -2.5076  1.4757  2.3132
  541SOL     OW 1621   0.700   1.669   1.602  0.3526  0.2463 -0.5590
  541SOL    HW1 1622   0.714   1.587   1.665 -1.4215  1.7111  0.2781
  541SOL    HW2 1623   0.730   1.656   1.505 -1.3505  2.0477  1.3439
  542SOL     OW 1624   1.803   1.137   1.922  0.0633  0.1398 -0.5112
  542SOL    HW1 1625   1.738   1.193   1.858 -3.6538  1.7450 -0.0502
  542SOL    HW2 1626   1.800   1.038   1.890 -3.0517  0.5396 -0.8644
  543SOL     OW 1627   0.926   0.518   0.698 -0.1348  0.0425  0.3745
  543SOL    HW1 1628   0.894   0.591   0.634  2.1576 -0.2710 -0.9968
  543SOL    HW2 1629   0.928   0.424   0.652 -0.7001  1.9302 -1.8496
  544SOL     OW 1630   2.049   1.852   2.333  0.3090 -0.6860 -0.1134
  544SOL    HW1 1631   2.069   1.808   2.242  1.0546 -0.6618 -2.9365
  544SOL    HW2 1632   2.116   1.819   2.398 -0.4850 -2.6582 -1.7919
  545SOL     OW 1633   1.598   1.609   1.359 -0.3284  0.0011  0.0116
  545SOL    HW1 1634   1.596   1.625   1.261  0.3282  0.8125 -0.6618
  545SOL    HW2 1635   1.662   1.536   1.386 -0.7160  0.7520  1.3561
  546SOL     OW 1636   0.247   0.377   2.817 -0.6399  0.0781  0.0706
  546SOL    HW1 1637   0.147   0.395   2.800  1.7424  1.1093  1.2014
  546SOL    HW2 1638   0.309   0.375   2.737  0.6157  1.5548  0.2995
  547SOL     OW 1639   2.180   0.775   0.021  0.1390  0.2287 -1.2520
  547SOL    HW1 1640   2.139   0.743   2.997  0.8473 -2.2665 -2.2558
  547SOL    HW2 1641   2.212   0.698   0.080 -0.4782  2.1082  2.3937
  548SOL     OW 1642   2.247   2.025   2.231  0.3996  0.2565 -0.6893
  548SOL    HW1 1643   2.191   2.060   2.151  1.6883  1.1637 -2.5642
  548SOL    HW2 1644   2.276   1.925   2.209 -2.2227 -4.6313  1.2151
  549SOL     OW 1645   2.277   0.095   0.786 -0.2011  0.2469 -0.3182
  549SOL    HW1 1646   2.307   0.044   0.865  0.6488  0.0569 -1.2337
  549SOL    HW2 1647   2.361   0.146   0.752  2.1937 -1.0063  0.3239
  550SOL     OW 1648   2.278   1.662   0.223 -0.2066 -0.6284 -0.4420
  550SOL    HW1 1649   2.187   1.697   0.199 -0.5877 -2.5240 -0.0075
  550SOL    HW2 1650   2.357   1.721   0.200  0.3995  1.7334 -1.5771
  551SOL     OW 1651   1.401   0.130   1.867  0.1001  0.2816  0.1622
  551SOL    HW1 1652   1.447   0.177   1.943 -1.7189 -0.4181 -3.8260
  551SOL    HW2 1653   1.458   0.055   1.830 -3.7525 -1.3606 -0.2588
  552SOL     OW 1654   3.012   2.361   2.558 -0.1549 -0.2569 -0.0497
  552SOL    HW1 1655   0.028   2.348   2.622 -0.5558 -2.4934  2.0517
  552SOL    HW2 1656   3.000   2.462   2.530 -1.4145  3.4520  1.7512
  553SOL     OW 1657   0.769   3.010   0.294  0.4534  0.4123 -0.4113
  553SOL    HW1 1658   0.860   3.047   0.320  1.5863  2.3887 -1.5006
  553SOL    HW2 1659   0.707   0.011   0.247 -5.4030 -0.7206 -1.1611
  554SOL     OW 1660   1.956   2.333   1.607 -0.4244  0.1414 -0.2432
  554SOL    HW1 1661   1.998   2.381   1.528 -0.8776  0.1912  1.0474
  554SOL    HW2 1662   1.938   2.403   1.680  0.4788 -0.6537 -0.2672
  555SOL     OW 1663   1.440   2.145   1.677  0.0084  0.3436 -0.0606
  555SOL    HW1 1664   1.527   2.193   1.640  2.6760  0.6620 -1.5861
  555SOL    HW2 1665   1.442   2.125   1.777 -0.0526 -0.4733 -1.8505
  556SOL     OW 1666   1.624   1.848   0.526 -0.2739  0.3738 -0.5000
  556SOL    HW1 1667   1.600   1.770   0.462  0.9481 -2.4422  0.5445
  556SOL    HW2 1668   1.571   1.834   0.611 -1.0478 -0.2829 -0.9725
  557SOL     OW 1669   1.509   2.041   1.934 -0.2195 -0.4971 -0.0259
  557SOL    HW1 1670   1.592   2.021   1.884 -2.3185 -1.3123  0.7277
  557SOL    HW2 1671   1.506   1.976   2.014  1.2040 -0.8382 -2.9641
  558SOL     OW 1672   0.046   0.240   1.931 -0.1114 -0.2407  0.5771
  558SOL    HW1 1673   0.066   0.341   1.926 -0.9379 -1.1630  0.2992
  558SOL    HW2 1674   0.062   0.205   1.834 -0.0999  0.2414 -1.1861
  559SOL     OW 1675   2.527   2.935   1.485  0.6216 -0.7856 -0.1841
  559SOL    HW1 1676   2.487   2.897   1.402  1.0195  2.1229  3.4478
  559SOL    HW2 1677   2.621   2.959   1.466 -3.3416 -0.6353  1.2531
  560SOL     OW 1678   0.792   2.532   0.204 -0.3891  0.1056 -0.0901
  560SOL    HW1 1679   0.720   2.609   0.215 -1.6057  2.3999 -2.5222
  560SOL    HW2 1680   0.777   2.462   0.276 -1.7399  1.8520  2.1759
  561SOL     OW 1681   1.110   0.856   0.358 -0.1934 -0.1790  0.2355
  561SOL    HW1 1682   1.066   0.765   0.345  0.2692  0.1564  1.4507
  561SOL    HW2 1683   1.043   0.930   0.345  2.1483 -0.1698  0.6112
  562SOL     OW 1684   0.785   0.786   2.531 -0.6494 -0.2146 -0.1904
  562SOL    HW1 1685   0.851   0.765   2.459 -0.3201  1.8721 -1.2241
  562SOL    HW2 1686   0.810   0.756   2.626  0.9036 -0.1757  3.6803
  563SOL     OW 1687   1.827   2.299   2.531 -0.8690  0.6140  0.0560
  563SOL    HW1 1688   1.865   2.244   2.453 -0.7047  1.8668  0.8380
  563SOL    HW2 1689   1.853   2.396   2.520  0.1690 -4.5378  1.4097
  564SOL     OW 1690   0.265   1.105   0.233 -0.4891 -0.9009  0.4619
  564SOL    HW1 1691   0.363   1.084   0.210  2.8977  0.8673  0.7332
  564SOL    HW2 1692   0.229   1.189   0.185  0.8109 -0.4545 -0.6873
  565SOL     OW 1693   1.328   2.997   2.783 -0.2125 -0.0533  0.2843
  565SOL    HW1 1694   1.321   2.977   2.682 -1.3214 -0.5342 -0.2750
  565SOL    HW2 1695   1.384   0.017   2.795  1.0366 -0.5760 -0.1758
  566SOL     OW 1696   1.680   2.945   2.532 -0.0161 -0.3384 -0.1073
  566SOL    HW1 1697   1.746   2.946   2.457  1.2561 -0.8943 -0.2915
  566SOL    HW2 1698   1.643   2.852   2.556  0.3044 -0.2498 -0.4943
  567SOL     OW 1699   2.506   1.164   0.892  0.1428 -0.3698  0.2432
  567SOL    HW1 1700   2.466   1.076   0.882 -0.2494 -0.3244 -0.4288
  567SOL    HW2 1701   2.447   1.237   0.932 -1.5518  0.6903  1.2759
  568SOL     OW 1702   2.030   1.786   0.051 -0.5972  0.4882 -0.0699
  568SOL    HW1 1703   1.952   1.841   0.023  3.7605 -0.7433 -0.8463
  568SOL    HW2 1704   2.011   1.688   0.077 -0.9086 -1.2348  0.0098
  569SOL     OW 1705   2.086   1.749   2.761 -0.4394  0.2150 -0.5476
  569SOL    HW1 1706   2.132   1.715   2.848  0.1710  0.6439  1.7380
  569SOL    HW2 1707   2.078   1.676   2.693  0.3732  2.5400  1.8137
  570SOL     OW 1708   0.008   2.415   1.751 -0.6303 -0.3288 -0.0211
  570SOL    HW1 1709   3.046   2.416   1.847  0.3690 -1.8012 -0.6878
  570SOL    HW2 1710   0.068   2.334   1.738  0.5687 -0.5583  1.2883
  571SOL     OW 1711   3.007   0.440   2.268 -0.3025  0.3371  0.4256
  571SOL    HW1 1712   0.019   0.387   2.234 -1.6682 -0.6790 -1.9421
  571SOL    HW2 1713   2.990   0.523   2.207 -1.8699  3.2947  0.1813
  572SOL     OW 1714   1.109   1.380   1.026 -0.1612 -0.5986 -0.6091
  572SOL    HW1 1715   1.142   1.470   0.997  0.4765 -1.7034 -2.0934
  572SOL    HW2 1716   1.019   1.389   1.071  2.1246  0.6199  2.0005
  573SOL     OW 1717   0.965   0.179   0.030  0.6027  0.0759 -0.1969
  573SOL    HW1 1718   1.019   0.118   3.039 -1.5514 -2.6350 -1.1810
  573SOL    HW2 1719   1.022   0.218   0.106  0.9685 -0.8272  1.6731
  574SOL     OW 1720   0.594   0.232   0.534  0.5313 -0.1204 -0.2543
  574SOL    HW1 1721   0.537   0.274   0.455 -1.4868  0.9470  0.6395
  574SOL    HW2 1722   0.537   0.178   0.596  1.0766  0.8548 -0.8421
  575SOL     OW 1723   0.167   1.252   1.605  0.3481 -0.5537  0.7590
  575SOL    HW1 1724   0.173   1.353   1.604  0.8495 -2.5896 -0.4507
  575SOL    HW2 1725   0.245   1.207   1.652 -0.6587 -0.2987  1.6440
  576SOL     OW 1726   2.384   0.404   1.922 -0.2708 -0.4360  0.2121
  576SOL    HW1 1727   2.391   0.485   1.986 -1.9003 -0.3919  2.2868
  576SOL    HW2 1728   2.397   0.315   1.970  1.7211 -1.4028  1.6815
  577SOL     OW 1729   2.686   1.454   1.968 -0.3966  0.8141  0.4632
  577SOL    HW1 1730   2.750   1.388   2.019  0.9948 -1.3026  1.3700
  577SOL    HW2 1731   2.735   1.531   1.928 -2.8021 -0.4820  0.8138
  578SOL     OW 1732   1.446   2.799   2.325  0.2793  0.0952  0.1019
  578SOL    HW1 1733   1.420   2.701   2.303  0.2572 -1.0345 -2.2219
  578SOL    HW2 1734   1.430   2.859   2.243 -1.8545 -0.0929 -0.8025
  579SOL     OW 1735   2.055   2.069   2.057  0.0988 -0.0103  0.1040
  579SOL    HW1 1736   1.997   2.135   2.105  1.9768 -1.5343  0.5147
  579SOL    HW2 1737   1.988   1.998   2.024 -0.7566 -0.5564  1.4636
  580SOL     OW 1738   1.705   1.332   2.080  0.2799 -0.2922 -0.3713
  580SOL    HW1 1739   1.668   1.409   2.022  0.6431 -0.2525 -1.0854
  580SOL    HW2 1740   1.752   1.264   2.024 -0.2969 -0.8055 -0.3907
  581SOL     OW 1741   1.350   1.208   2.361 -0.2160 -0.0903 -0.3966
  581SOL    HW1 1742   1.409   1.175   2.283  0.4895  1.1288  0.2843
  581SOL    HW2 1743   1.320   1.125   2.416 -1.6623  1.8370  2.0549
  582SOL     OW 1744   3.062   1.933   1.791  0.1307 -0.3796 -0.3469
  582SOL    HW1 1745   0.072   1.867   1.814  0.1810  1.6490 -1.3555
  582SOL    HW2 1746   2.989   1.929   1.859  1.1964 -1.5706 -0.1958
  583SOL     OW 1747   1.537   1.207   0.943 -0.0588  0.5952  0.0488
  583SOL    HW1 1748   1.468   1.182   0.873 -0.0503 -1.4146 -2.5462
  583SOL    HW2 1749   1.556   1.121   0.996 -0.1077 -3.6598  0.1570
  584SOL     OW 1750   1.063   2.153   0.558 -0.2749  0.1384  0.1456
  584SOL    HW1 1751   0.997   2.175   0.480 -2.0835  2.9241 -2.2323
  584SOL    HW2 1752   1.029   2.181   0.651  0.3607 -0.5131 -2.1942
  585SOL     OW 1753   0.155   2.600   0.037 -0.2302 -0.2395  0.5851
  585SOL    HW1 1754   0.085   2.528   0.052 -0.8397 -1.4316 -0.0005
  585SOL    HW2 1755   0.132   2.674   3.038 -1.7829 -0.4073 -0.9067
  586SOL     OW 1756   2.594   1.413   0.328  0.0045  0.0319  0.5538
  586SOL    HW1 1757   2.659   1.352   0.283 -0.7817 -1.8121  2.2440
  586SOL    HW2 1758   2.518   1.451   0.268 -2.1599  0.7516  1.1597
  587SOL     OW 1759   1.049   1.427   2.789  0.4393  0.1145 -0.0311
  587SOL    HW1 1760   1.143   1.392   2.813 -0.6816 -1.3804 -1.4505
  587SOL    HW2 1761   1.025   1.506   2.846  1.4104  0.8375 -0.3818
  588SOL     OW 1762   0.223   0.322   0.665  0.1623  0.0904 -0.0742
  588SOL    HW1 1763   0.229   0.230   0.626  1.3419 -0.9447 -0.7785
  588SOL    HW2 1764   0.260   0.329   0.755 -1.7922  2.8872 -2.8521
  589SOL     OW 1765   1.309   0.246   0.611 -0.8389 -0.8110 -0.2180
  589SOL    HW1 1766   1.296   0.345   0.584  2.0517 -0.9401  0.2203
  589SOL    HW2 1767   1.234   0.210   0.664  0.5864  1.4599 -0.6456
  590SOL     OW 1768   2.521   2.356   0.362  0.4293  0.4228  0.1549
  590SOL    HW1 1769   2.593   2.287   0.387  0.3040  0.7514 -0.9682
  590SOL    HW2 1770   2.444   2.308   0.316  0.0401  2.2102  2.9847
  591SOL     OW 1771   0.325   2.532   1.979  0.2226 -0.1111  0.6773
  591SOL    HW1 1772   0.327   2.631   2.005  2.2026 -0.3569 -1.8375
  591SOL    HW2 1773   0.403   2.505   1.914 -1.6281 -0.6593 -1.5356
  592SOL     OW 1774   2.918   1.978   2.090 -0.4155  0.4987  0.4319
  592SOL    HW1 1775   2.941   1.877   2.097 -1.3866 -0.2960 -0.6856
  592SOL    HW2 1776   3.003   2.032   2.109  0.2418  0.7852 -0.2275
  593SOL     OW 1777   1.437   1.288   1.381 -0.1015 -0.2556 -0.3554
  593SOL    HW1 1778   1.531   1.311   1.416  0.2989  0.2067 -0.5138
  593SOL    HW2 1779   1.434   1.327   1.288 -2.4413  0.9794  1.9547
  594SOL     OW 1780   0.604   1.196   2.833  0.4693  0.2487 -0.6126
  594SOL    HW1 1781   0.544   1.235   2.904  0.0264 -1.2764  0.9181
  594SOL    HW2 1782   0.672   1.263   2.797  1.5951 -0.0663  0.8229
  595SOL     OW 1783   1.356   0.766   0.795  0.0629 -0.3630 -0.2550
  595SOL    HW1 1784   1.289   0.692   0.801 -3.4958  2.5511 -1.2560
  595SOL    HW2 1785   1.308   0.838   0.735 -1.2213  2.0079  0.1048
  596SOL     OW 1786   0.369   1.141   1.022 -0.4940 -0.1169  0.3995
  596SOL    HW1 1787   0.451   1.087   1.040  0.7849 -2.2162  0.1809
  596SOL    HW2 1788   0.387   1.240   1.003  2.2758 -0.1557  1.3049
  597SOL     OW 1789   0.816   2.228   2.040 -0.6110  0.1308  0.8419
  597SOL    HW1 1790   0.785   2.319   2.003  0.7327  0.1227 -1.4745
  597SOL    HW2 1791   0.845   2.168   1.963  1.1705 -1.3379 -0.7024
  598SOL     OW 1792   1.959   2.567   2.084  0.0548 -0.2438  0.8208
  598SOL    HW1 1793   1.880   2.599   2.143 -1.4694 -1.3842  1.8118
  598SOL    HW2 1794   2.011   2.497   2.135  1.7469 -0.8662  0.1862
  599SOL     OW 1795   0.939   1.084   0.305 -0.5297 -0.2244 -0.2982
  599SOL    HW1 1796   0.997   1.147   0.361 -0.6282  1.4419  2.5338
  599SOL    HW2 1797   0.947   1.093   0.205 -0.1691 -0.2089  0.5370
  600SOL     OW 1798   1.463   0.624   0.187 -0.6194  0.2434  0.3906
  600SOL    HW1 1799   1.385   0.564   0.165 -2.6741  2.0083 -0.1792
  600SOL    HW2 1800   1.512   0.604   0.278  0.0204 -1.0392  0.7406
  601SOL     OW 1801   0.563   0.354   1.306 -0.0465 -0.1504 -0.7136
  601SOL    HW1 1802   0.568   0.429   1.376  1.6085 -4.2885 -1.3515
  601SOL    HW2 1803   0.511   0.388   1.229  2.9797 -2.0362  1.0543
  602SOL     OW 1804   0.413   2.116   0.746  0.0236 -0.4540  0.2947
  602SOL    HW1 1805   0.416   2.036   0.680 -0.7143  1.6742 -0.9707
  602SOL    HW2 1806   0.373   2.192   0.694 -0.3277  0.8715 -1.5494
  603SOL     OW 1807   0.927   2.649   2.417  0.0031  0.1807  0.7003
  603SOL    HW1 1808   0.988   2.708   2.474  1.8727  4.3082 -1.4901
  603SOL    HW2 1809   0.842   2.707   2.399 -1.5924  0.0708  3.9830
  604SOL     OW 1810   0.358   2.168   0.350  0.2388 -0.2435  0.3355
  604SOL    HW1 1811   0.254   2.167   0.369 -2.1091  0.2635  2.7868
  604SOL    HW2 1812   0.400   2.098   0.404 -0.3079 -0.1330 -1.8999
  605SOL     OW 1813   1.797   1.445   1.711 -0.7733  0.0297  0.2893
  605SOL    HW1 1814   1.845   1.363   1.666 -0.3747  2.5163  1.3607
  605SOL    HW2 1815   1.848   1.532   1.680 -0.4844  1.3087 -0.7372
  606SOL     OW 1816   0.956   1.003   2.718 -0.2065 -0.1840 -0.2403
  606SOL    HW1 1817   0.877   0.963   2.769 -0.1156 -1.1192  1.6692
  606SOL    HW2 1818   1.022   1.051   2.779 -0.5568 -0.9318 -0.4445
  607SOL     OW 1819   1.170   0.869   1.166  0.2757  0.1815 -0.0711
  607SOL    HW1 1820   1.247   0.919   1.208  0.8783 -1.1344 -1.2186
  607SOL    HW2 1821   1.079   0.922   1.170 -4.6320 -0.2042  0.8122
  608SOL     OW 1822   2.779   2.204   2.018  0.1656 -0.1173 -0.0243
  608SOL    HW1 1823   2.827   2.116   2.037  0.3048 -1.9797 -1.8298
  608SOL    HW2 1824   2.754   2.250   2.106  0.6393 -0.8552 -0.7153
  609SOL     OW 1825   2.298   0.061   0.420  0.1680  0.2152  0.8244
  609SOL    HW1 1826   2.378   0.100   0.363  1.6490  0.8506  0.8641
  609SOL    HW2 1827   2.238   0.012   0.361 -0.4200 -0.0224  0.2445
  610SOL     OW 1828   0.155   2.227   1.422 -0.3469 -0.0026  0.3827
  610SOL    HW1 1829   0.192   2.320   1.396 -1.6699  4.3803 -2.5231
  610SOL    HW2 1830   0.138   2.169   1.342  0.3949  2.1872  2.2037
  611SOL     OW 1831   1.648   2.092   0.387 -0.3028 -0.3431  0.1295
  611SOL    HW1 1832   1.743   2.108   0.346  2.7018 -0.5393 -0.1342
  611SOL    HW2 1833   1.641   1.995   0.418 -1.4098  2.0373 -0.6001
  612SOL     OW 1834   0.627   0.064   1.853 -0.7060 -0.4102  0.2494
  612SOL    HW1 1835   0.693   0.130   1.807  1.9269 -0.7079  0.6399
  612SOL    HW2 1836   0.537   0.111   1.865 -0.6210 -1.2021  1.7121
  613SOL     OW 1837   3.060   1.633   0.525 -0.1708 -0.5347 -0.1275
  613SOL    HW1 1838   3.010   1.700   0.587  0.2183  1.9835  1.6040
  613SOL    HW2 1839   2.998   1.612   0.447  2.1058 -3.8376  0.7426
  614SOL     OW 1840   1.842   0.555   2.091  0.1205 -0.1520  0.1229
  614SOL    HW1 1841   1.916   0.606   2.040 -0.5423  0.9106 -1.4641
  614SOL    HW2 1842   1.782   0.500   2.025  0.8875 -1.4701  1.5526
  615SOL     OW 1843   0.862   1.222   1.260 -0.3480 -0.5333 -0.1033
  615SOL    HW1 1844   0.782   1.201   1.322  1.4572  0.3986  1.5536
  615SOL    HW2 1845   0.833   1.298   1.203 -0.7401 -1.9268  0.1179
  616SOL     OW 1846   1.645   1.809   0.019 -0.1313  0.2694  0.4053
  616SOL    HW1 1847   1.551   1.850   0.017 -0.0873 -1.2525 -2.0327
  616SOL    HW2 1848   1.708   1.887   0.011  1.5913 -0.6537  2.1585
  617SOL     OW 1849   2.115   2.942   0.358 -0.2714 -0.3696  0.2069
  617SOL    HW1 1850   2.057   2.919   0.274 -0.3006  0.7046  0.0517
  617SOL    HW2 1851   2.174   2.862   0.370 -1.1337  1.6186  1.4304
  618SOL     OW 1852   0.501   0.773   2.472  0.8107  0.1565  0.0092
  618SOL    HW1 1853   0.478   0.841   2.400  2.0479  0.9251  0.0894
  618SOL    HW2 1854   0.598   0.791   2.505  2.2707 -0.3290  1.7612
  619SOL     OW 1855   2.903   1.386   1.069  0.1102  0.3140 -0.4998
  619SOL    HW1 1856   2.872   1.427   0.985  0.4782 -0.6478  2.5538
  619SOL    HW2 1857   2.859   1.293   1.084 -1.0941 -2.1685 -1.1740
  620SOL     OW 1858   2.071   2.928   2.905  0.4068  0.3340  0.1527
  620SOL    HW1 1859   2.095   2.897   2.813  3.9357 -1.8858 -2.5714
  620SOL    HW2 1860   1.972   2.954   2.911  2.9107  0.5435 -1.4011
  621SOL     OW 1861   2.285   1.610   2.889 -0.2576 -0.0122 -0.2259
  621SOL    HW1 1862   2.353   1.616   2.812  0.5131 -1.9430  0.2316
  621SOL    HW2 1863   2.302   1.517   2.925  1.1385 -1.6703  1.5640
  622SOL     OW 1864   1.640   2.970   2.054  0.1059 -0.9280 -0.6291
  622SOL    HW1 1865   1.590   2.981   1.967 -0.0355  0.6624 -0.6588
  622SOL    HW2 1866   1.687   3.059   2.077  0.6872  0.6541 -0.5425
  623SOL     OW 1867   1.201   1.819   0.649 -0.2245  0.2385 -1.1738
  623SOL    HW1 1868   1.135   1.855   0.721 -2.5573 -1.2945 -0.4885
  623SOL    HW2 1869   1.221   1.890   0.583 -1.0998 -1.0846  1.5613
  624SOL     OW 1870   0.271   0.025   0.037  0.0699  0.0292 -0.0985
  624SOL    HW1 1871   0.254   3.041   3.018  1.3842  1.2379 -3.2287
  624SOL    HW2 1872   0.260   0.127   0.025 -0.8440 -0.8965 -1.9938
  625SOL     OW 1873   0.980   1.639   0.526  0.1214 -0.4803 -0.2648
  625SOL    HW1 1874   1.015   1.737   0.506 -1.0689  1.7582 -0.9177
  625SOL    HW2 1875   0.928   1.635   0.616 -1.6128 -1.0616  0.6903
  626SOL     OW 1876   2.959   2.829   0.041  0.2918  1.1122  0.7704
  626SOL    HW1 1877   3.042   2.859   0.095 -1.9637 -1.5662 -0.8020
  626SOL    HW2 1878   2.952   2.878   3.015 -2.9675 -0.3284  0.3086
  627SOL     OW 1879   1.154   1.840   2.743 -0.4843  0.0903 -0.9118
  627SOL    HW1 1880   1.069   1.809   2.691 -0.1665 -1.5907 -1.1581
  627SOL    HW2 1881   1.135   1.823   2.846 -0.9639 -0.6075  3.0653
  628SOL     OW 1882   0.202   0.014   2.797 -0.1861  0.1808 -0.1756
  628SOL    HW1 1883   0.265   0.091   2.790 -0.9071 -1.0124 -1.7382
  628SOL    HW2 1884   0.254   2.989   2.785  1.6422  0.2777  0.1012
  629SOL     OW 1885   0.393   2.974   2.361 -0.4523 -0.0981 -0.2664
  629SOL    HW1 1886   0.485   2.994   2.326 -0.5946  0.2326 -1.7794
  629SOL    HW2 1887   0.349   2.931   2.283  3.4286  2.1305 -0.2342
  630SOL     OW 1888   1.386   1.249   1.657  0.4940 -0.0502 -0.2589
  630SOL    HW1 1889   1.392   1.265   1.555  1.5998  0.6569  0.6180
  630SOL    HW2 1890   1.387   1.153   1.672  2.4867  3.7251 -1.9839
  631SOL     OW 1891   2.358   1.100   0.594  0.4669 -0.4065  0.1517
  631SOL    HW1 1892   2.347   1.046   0.680  1.5983 -0.5988 -0.6256
  631SOL    HW2 1893   2.369   1.050   0.508  0.4085 -1.1663  2.5693
  632SOL     OW 1894   2.408   0.629   2.074 -0.0492  0.1590  0.4721
  632SOL    HW1 1895   2.364   0.706   2.129  0.0068  2.8653 -2.2421
  632SOL    HW2 1896   2.453   0.567   2.140  0.6535 -2.6573  1.7518
  633SOL     OW 1897   0.838   1.917   0.251  0.4713 -0.3174  0.2000
  633SOL    HW1 1898   0.817   1.995   0.190  1.5639 -0.2333 -0.4866
  633SOL    HW2 1899   0.878   1.942   0.343  2.1866  1.4799  0.1590
  634SOL     OW 1900   1.563   2.701   2.562 -0.4519 -0.1970  0.7307
  634SOL    HW1 1901   1.494   2.727   2.491  1.0736  1.0112 -0.3900
  634SOL    HW2 1902   1.541   2.607   2.603  0.8738 -2.6752  1.6913
  635SOL     OW 1903   2.085   0.354   0.148 -0.0142  0.2868 -0.3660
  635SOL    HW1 1904   2.152   0.283   0.121 -2.1150  2.5843 -0.4735
  635SOL    HW2 1905   2.052   0.333   0.243  0.1907 -2.4017  0.6101
  636SOL     OW 1906   0.779   1.307   0.819 -0.3698  0.2266  0.1556
  636SOL    HW1 1907   0.695   1.286   0.760  0.1634 -1.0887 -1.3420
  636SOL    HW2 1908   0.863   1.271   0.773  0.1189  1.7166 -3.6330
  637SOL     OW 1909   3.031   2.102   0.660  0.1385 -0.1425 -0.1517
  637SOL    HW1 1910   0.018   2.157   0.726  0.8904 -0.9344 -0.6892
  637SOL    HW2 1911   2.928   2.126   0.669 -3.5067  2.1479 -1.7583
  638SOL     OW 1912   0.937   2.907   2.699 -0.4403  0.0823  0.5149
  638SOL    HW1 1913   0.920   2.810   2.733  0.4609 -1.8405 -0.0679
  638SOL    HW2 1914   1.035   2.922   2.694  0.7714 -2.8196 -0.6538
  639SOL     OW 1915   1.444   1.996   0.007  0.9658  0.7878  0.0396
  639SOL    HW1 1916   1.372   1.955   0.068 -0.1953  0.5321 -0.0475
  639SOL    HW2 1917   1.487   2.078   0.049 -0.7201 -1.6241 -0.8622
  640SOL     OW 1918   1.812   2.866   0.763  0.5184  0.8678 -0.1254
  640SOL    HW1 1919   1.905   2.881   0.726 -1.5028  0.1587 -1.6144
  640SOL    HW2 1920   1.782   2.771   0.730 -0.2341 -1.9152  0.3860
  641SOL     OW 1921   2.974   2.820   0.510  0.1749  0.0564  0.4142
  641SOL    HW1 1922   2.957   2.742   0.443  1.3844 -0.2119 -1.5125
  641SOL    HW2 1923   3.024   2.902   0.472 -1.3649 -0.7569  1.3119
  642SOL     OW 1924   1.020   0.220   1.556  0.2559 -0.2057  0.0364
  642SOL    HW1 1925   0.937   0.225   1.494 -1.5431  2.5149 -1.6463
  642SOL    HW2 1926   1.081   0.298   1.532 -0.2804 -0.3792 -1.9663
  643SOL     OW 1927   0.487   1.985   1.884 -0.1209  0.2953 -0.4473
  643SOL    HW1 1928   0.554   1.974   1.814 -3.0501 -0.5586  0.9771
  643SOL    HW2 1929   0.436   2.074   1.880  1.0977  0.1006  1.8355
  644SOL     OW 1930   0.592   2.708   0.261 -0.2464  0.6167 -0.1038
  644SOL    HW1 1931   0.512   2.645   0.281 -2.3570 -0.5564 -0.0786
  644SOL    HW2 1932   0.585   2.799   0.304 -1.0907 -1.1103 -0.2684
  645SOL     OW 1933   1.440   2.158   2.870  0.1865 -0.2275 -0.3295
  645SOL    HW1 1934   1.484   2.115   2.788 -0.3674 -0.0130  0.1706
  645SOL    HW2 1935   1.422   2.084   2.934  2.8762  0.0958  0.4950
  646SOL     OW 1936   0.469   1.278   3.045 -0.0125  0.3135 -0.0257
  646SOL    HW1 1937   0.369   1.270   3.025  0.2239  0.4439 -0.3208
  646SOL    HW2 1938   0.490   1.369   0.024  1.6787  0.7974 -0.2566
  647SOL     OW 1939   0.836   0.010   0.842 -0.0643  0.2327  0.4455
  647SOL    HW1 1940   0.739   0.002   0.857  0.9311 -0.5072 -1.2962
  647SOL    HW2 1941   0.847   0.106   0.820 -0.4685  2.1134 -0.0649
  648SOL     OW 1942   1.986   0.315   1.690  0.2550 -0.0746  0.0302
  648SOL    HW1 1943   1.926   0.356   1.621 -1.5843 -0.0434 -2.0051
  648SOL    HW2 1944   2.080   0.352   1.683 -0.0099 -1.0398 -2.1567
  649SOL     OW 1945   0.912   1.799   2.633 -0.0245  0.7474  0.7127
  649SOL    HW1 1946   0.890   1.898   2.662  0.2762  2.1794 -0.3901
  649SOL    HW2 1947   0.894   1.789   2.533  1.3864  2.7762  0.2531
  650SOL     OW 1948   2.607   1.764   1.597  0.0886  0.3901  0.1208
  650SOL    HW1 1949   2.571   1.811   1.513  0.2782 -0.5512  3.1963
  650SOL    HW2 1950   2.588   1.663   1.589 -2.4716 -2.8448 -0.8948
  651SOL     OW 1951   1.228   3.031   0.245  0.0348 -0.0859 -0.9141
  651SOL    HW1 1952   1.237   2.996   0.153 -0.1066  0.4632  0.7212
  651SOL    HW2 1953   1.289   2.976   0.309  0.9685  0.1908 -0.1639
  652SOL     OW 1954   2.868   1.666   3.039  0.4504  0.1726  0.0875
  652SOL    HW1 1955   2.772   1.637   3.034 -3.2023  1.2653 -1.3196
  652SOL    HW2 1956   2.870   1.764   3.016 -2.1090 -6.2043  1.3212
  653SOL     OW 1957   2.998   0.215   0.964 -0.1812  0.3365 -0.0459
  653SOL    HW1 1958   3.030   0.221   1.062 -0.7817  1.1250 -1.2672
  653SOL    HW2 1959   3.011   0.302   0.914 -0.1139  1.4153  2.3774
  654SOL     OW 1960   2.097   0.107   2.639 -0.2052 -0.4028 -0.4585
  654SOL    HW1 1961   2.064   0.118   2.543 -0.7167  2.0374  1.6835
  654SOL    HW2 1962   2.106   0.005   2.648  2.4498 -3.2829 -2.3209
  655SOL     OW 1963   0.482   2.487   0.962  0.0335  0.4847 -0.4167
  655SOL    HW1 1964   0.427   2.544   1.024 -1.9179 -4.0622 -2.4412
  655SOL    HW2 1965   0.467   2.391   0.994  0.8490  1.0944 -0.4416
  656SOL     OW 1966   0.260   2.897   2.163 -0.1723  0.4095  0.4686
  656SOL    HW1 1967   0.197   2.968   2.120 -0.4871  1.8378 -4.4874
  656SOL    HW2 1968   0.210   2.805   2.179 -1.2937 -0.2970  0.5332
  657SOL     OW 1969   2.319   0.458   2.452  0.3633  0.0940 -0.5693
  657SOL    HW1 1970   2.227   0.488   2.411 -2.2930  1.3233 -0.8665
  657SOL    HW2 1971   2.311   0.395   2.531  0.7294  1.1316 -1.6374
  658SOL     OW 1972   2.273   1.963   1.141  0.4401  0.2927  0.2206
  658SOL    HW1 1973   2.214   1.962   1.055 -2.0713  1.3966 -1.0869
  658SOL    HW2 1974   2.313   2.056   1.154 -1.8686  0.4433  0.1177
  659SOL     OW 1975   2.310   0.228   0.054  0.1197 -0.1491  0.1792
  659SOL    HW1 1976   2.409   0.255   0.076  0.7272 -1.4329  2.8498
  659SOL    HW2 1977   2.294   0.133   0.015 -2.7440 -1.1348 -0.9590
  660SOL     OW 1978   1.470   1.405   3.012 -0.4602  0.2155 -0.4036
  660SOL    HW1 1979   1.516   1.487   2.972 -0.2393  0.6349  2.3756
  660SOL    HW2 1980   1.448   1.427   0.043  2.1578  3.3230  0.4843
  661SOL     OW 1981   2.387   2.508   0.829 -0.3203  0.3344 -0.5101
  661SOL    HW1 1982   2.374   2.449   0.750 -1.5257  1.7687  1.7208
  661SOL    HW2 1983   2.483   2.504   0.862 -0.6095  1.5896 -2.1073
  662SOL     OW 1984   0.651   0.745   0.231 -0.1188  0.2175  0.5616
  662SOL    HW1 1985   0.716   0.665   0.229 -1.6905 -2.3777 -2.4730
  662SOL    HW2 1986   0.681   0.809   0.304 -0.2269 -0.0159 -2.0425
  663SOL     OW 1987   1.949   2.268   0.096  0.1472 -0.2959 -0.1760
  663SOL    HW1 1988   1.874   2.298   0.033 -0.0129 -0.6473  2.6091
  663SOL    HW2 1989   2.020   2.220   0.038 -0.7032 -1.0422  2.1546
  664SOL     OW 1990   0.630   1.964   1.354  0.2903  0.2520 -0.2011
  664SOL    HW1 1991   0.581   2.034   1.408  1.8041  1.7545 -1.5114
  664SOL    HW2 1992   0.732   1.966   1.375 -1.2205 -0.2366  1.5240
  665SOL     OW 1993   1.820   2.177   1.840 -0.1293 -0.6514  0.7258
  665SOL    HW1 1994   1.915   2.189   1.834 -0.9598  3.5146 -2.2391
  665SOL    HW2 1995   1.785   2.095   1.790  1.4366 -2.1893 -2.0501
  666SOL     OW 1996   0.474   2.356   0.193 -0.2697  0.1910 -0.5395
  666SOL    HW1 1997   0.571   2.356   0.230  1.5886 -1.0626  2.9735
  666SOL    HW2 1998   0.421   2.279   0.238 -0.7291  1.6145 -1.0891
  667SOL     OW 1999   2.029   1.406   1.925  0.2641  0.3345  0.2953
  667SOL    HW1 2000   2.035   1.335   1.995 -0.0016  2.4122  1.0852
  667SOL    HW2 2001   1.932   1.422   1.897  0.8324  0.7605 -0.2818
  668SOL     OW 2002   0.344   0.560   2.511  0.4738 -0.2058  0.2020
  668SOL    HW1 2003   0.400   0.646   2.509 -1.0872 -3.3335 -0.3487
  668SOL    HW2 2004   0.400   0.479   2.515 -2.3113 -0.0816  2.2718
  669SOL     OW 2005   1.567   2.136   2.622  0.1097 -0.3860 -0.0355
  669SOL    HW1 2006   1.534   2.067   2.559  3.1786  2.2247  1.8425
  669SOL    HW2 2007   1.657   2.173   2.590 -1.4873 -0.7907 -1.0643
  670SOL     OW 2008   2.427   2.141   2.808  0.7869 -0.0023  0.5963
  670SOL    HW1 2009   2.415   2.241   2.815  1.8692 -0.3957 -0.5280
  670SOL    HW2 2010   2.356   2.104   2.741 -2.2910  0.3087  1.8492
  671SOL     OW 2011   0.587   1.003   1.135  0.4244 -0.1101 -0.2451
  671SOL    HW1 2012   0.660   0.954   1.180  0.3728  0.9335  1.0089
  671SOL    HW2 2013   0.514   1.023   1.204  0.9630 -0.5795 -0.8586
  672SOL     OW 2014   2.550   0.832   2.315  0.2323 -0.0858  0.3419
  672SOL    HW1 2015   2.600   0.876   2.235 -0.9741 -0.1761 -3.9548
  672SOL    HW2 2016   2.530   0.902   2.385 -0.2237  0.9379  0.9799
  673SOL     OW 2017   2.488   2.853   2.091 -0.6173 -0.7283 -0.2172
  673SOL    HW1 2018   2.586   2.857   2.121 -1.5066 -3.0605 -2.6145
  673SOL    HW2 2019   2.474   2.773   2.030  1.2239  0.0030  1.6560
  674SOL     OW 2020   1.127   2.573   2.248 -0.3554  0.6818  0.2233
  674SOL    HW1 2021   1.105   2.501   2.175  2.4755 -1.7337 -1.5087
  674SOL    HW2 2022   1.041   2.595   2.291 -4.1327  0.9303 -0.1258
  675SOL     OW 2023   0.746   0.863   1.567 -0.0664  0.4616 -0.1458
  675SOL    HW1 2024   0.812   0.812   1.629 -1.2232  0.6566 -0.5607
  675SOL    HW2 2025   0.749   0.966   1.581 -2.3402  2.9961  0.6186
  676SOL     OW 2026   1.850   0.865   0.871 -0.5574  0.7068 -0.3716
  676SOL    HW1 2027   1.759   0.819   0.882  1.3455 -0.8272  1.4392
  676SOL    HW2 2028   1.861   0.902   0.776  1.9637  1.4144 -1.1379
  677SOL     OW 2029   2.774   1.688   2.460 -0.1417 -0.1529 -0.2332
  677SOL    HW1 2030   2.719   1.700   2.547  0.0087  1.8634  0.8757
  677SOL    HW2 2031   2.725   1.712   2.377  1.7181 -0.2165  2.0626
  678SOL     OW 2032   2.573   2.059   0.991 -0.5989 -0.2203  0.7940
  678SOL    HW1 2033   2.587   2.146   1.048 -0.3379 -0.1543  1.8456
  678SOL    HW2 2034   2.550   1.983   1.055  1.7013  0.9756  1.9868
  679SOL     OW 2035   1.492   2.671   0.544 -0.1774 -0.1398  0.8549
  679SOL    HW1 2036   1.492   2.595   0.608  0.7460 -1.6596 -3.6382
  679SOL    HW2 2037   1.571   2.661   0.487 -1.0629 -0.1660  1.4633
  680SOL     OW 2038   0.185   2.479   2.401 -0.6025 -0.2122  0.2929
  680SOL    HW1 2039   0.180   2.572   2.439  0.8386 -3.0380 -0.2495
  680SOL    HW2 2040   0.276   2.467   2.361  0.0006 -1.4881  0.5800
  681SOL     OW 2041   2.796   1.372   1.664 -0.1397  0.2285 -0.5845
  681SOL    HW1 2042   2.884   1.407   1.695 -0.4310 -1.6796 -0.3757
  681SOL    HW2 2043   2.802   1.269   1.668  0.3102 -0.8794  0.2384
  682SOL     OW 2044   0.277   1.786   1.312 -0.2253 -0.5421 -0.3431
  682SOL    HW1 2045   0.223   1.832   1.390 -1.7181  2.6963  0.5891
  682SOL    HW2 2046   0.378   1.812   1.309 -0.8146 -1.1083 -2.0101
  683SOL     OW 2047   2.291   1.451   1.276 -0.1237 -0.8205 -0.0566
  683SOL    HW1 2048   2.308   1.430   1.177 -0.9862 -0.7650 -2.5297
  683SOL    HW2 2049   2.266   1.548   1.287  0.2463  2.8166  0.5523
  684SOL     OW 2050   2.592   1.517   3.030 -0.3858  0.2167  0.4073
  684SOL    HW1 2051   2.671   1.459   3.023 -0.1857  1.2476  2.0875
  684SOL    HW2 2052   2.531   1.484   0.036  1.9297  1.8534 -0.3387
  685SOL     OW 2053   1.536   1.148   3.055  0.3637 -0.4224 -0.3204
  685SOL    HW1 2054   1.511   1.242   3.037 -1.8093 -3.9045 -2.5066
  685SOL    HW2 2055   1.598   1.104   2.984  0.5575 -1.4656  1.7331
  686SOL     OW 2056   0.198   0.301   1.158 -0.2819  0.5735  0.4923
  686SOL    HW1 2057   0.212   0.385   1.215  0.2146  2.4226  0.9406
  686SOL    HW2 2058   0.211   0.222   1.214  0.9590  2.6919 -2.9312
  687SOL     OW 2059   1.081   1.933   2.384  0.5018  0.1319  0.0522
  687SOL    HW1 2060   1.143   1.903   2.308  1.7144 -0.7981 -2.1456
  687SOL    HW2 2061   1.021   1.853   2.404 -3.4070  0.9360  0.0592
  688SOL     OW 2062   0.128   1.655   1.131  0.3667  0.5463 -0.4692
  688SOL    HW1 2063   0.202   1.701   1.188  0.7354  2.4308 -1.2342
  688SOL    HW2 2064   0.136   1.680   1.034 -0.6619 -2.7767  0.4424
  689SOL     OW 2065   1.558   0.694   1.576 -0.4477 -0.1670  0.1512
  689SOL    HW1 2066   1.560   0.798   1.585  0.2108  1.2953  1.0159
  689SOL    HW2 2067   1.628   0.666   1.506  1.4104 -0.0965  2.4620
  690SOL     OW 2068   2.599   0.884   1.097 -0.1624  0.7766 -0.1034
  690SOL    HW1 2069   2.577   0.784   1.103 -3.0369  2.8374  3.3568
  690SOL    HW2 2070   2.697   0.905   1.108 -0.3008 -2.2247 -0.2189
  691SOL     OW 2071   0.333   2.217   1.865  0.2586 -0.5260  0.4788
  691SOL    HW1 2072   0.292   2.261   1.949  0.8112 -3.1141 -2.0234
  691SOL    HW2 2073   0.259   2.203   1.800  2.7717  1.1615  0.7156
  692SOL     OW 2074   1.843   2.972   1.018 -0.3216  0.2599 -0.1799
  692SOL    HW1 2075   1.827   2.957   0.919  2.8503  2.0606 -1.4024
  692SOL    HW2 2076   1.938   2.955   1.041 -0.5525  0.2794 -2.7502
  693SOL     OW 2077   0.109   1.439   2.350  0.1165 -0.4512 -0.0043
  693SOL    HW1 2078   0.159   1.527   2.374  0.2009 -0.8503 -0.5796
  693SOL    HW2 2079   0.014   1.457   2.310  1.4055  4.1146 -0.5496
  694SOL     OW 2080   2.206   0.629   1.152 -0.2946  0.1764  0.2456
  694SOL    HW1 2081   2.287   0.644   1.212  0.3955 -0.2146  3.7191
  694SOL    HW2 2082   2.146   0.712   1.148  0.3205 -1.2144  0.6669
  695SOL     OW 2083   1.035   1.453   1.797  0.2710  0.0392  0.0305
  695SOL    HW1 2084   1.088   1.464   1.710  1.8084 -1.0013 -0.6580
  695SOL    HW2 2085   1.058   1.365   1.845  0.1135 -1.5965 -0.1108
  696SOL     OW 2086   1.041   2.759   3.036  0.0196  0.4398  0.1729
  696SOL    HW1 2087   1.039   2.660   3.064  2.2690 -0.0555  0.7498
  696SOL    HW2 2088   1.112   2.811   0.023  0.0328  0.9991 -1.9165
  697SOL     OW 2089   0.896   0.294   1.098  0.2184 -0.1241 -0.6599
  697SOL    HW1 2090   0.833   0.335   1.030  0.5177  1.7669  0.5322
  697SOL    HW2 2091   0.961   0.230   1.046  0.8939  0.6530  0.0811
  698SOL     OW 2092   1.226   1.473   2.186 -0.0745  0.0731 -0.3862
  698SOL    HW1 2093   1.198   1.517   2.274  0.9024  1.9887 -0.5310
  698SOL    HW2 2094   1.169   1.385   2.164 -1.9111 -4.4630 -1.0437
  699SOL     OW 2095   1.396   0.769   1.050 -0.2854  0.1511  0.0642
  699SOL    HW1 2096   1.309   0.812   1.083  1.5099 -1.7431  1.0604
  699SOL    HW2 2097   1.402   0.764   0.949 -0.6566  2.4247  1.1896
  700SOL     OW 2098   0.894   2.707   0.424 -0.4362  0.0050 -0.1455
  700SOL    HW1 2099   0.863   2.769   0.351  0.8077 -0.7276 -0.0612
  700SOL    HW2 2100   0.989   2.735   0.456  2.6905 -1.7728 -1.4954
  701SOL     OW 2101   2.397   2.911   2.508  0.0316 -0.0002  0.2482
  701SOL    HW1 2102   2.412   2.817   2.482  1.8977  1.5563  3.4661
  701SOL    HW2 2103   2.432   2.986   2.450 -0.4487 -2.1908  1.8460
  702SOL     OW 2104   1.261   0.255   0.210  0.3776  0.3035  0.0476
  702SOL    HW1 2105   1.239   0.156   0.221 -1.6785 -0.6064 -1.2948
  702SOL    HW2 2106   1.357   0.284   0.240  3.6757  0.2359  0.3137
  703SOL     OW 2107   2.423   0.158   2.427  0.4111 -0.3966  0.2364
  703SOL    HW1 2108   2.335   0.128   2.390  2.0511  2.9250  1.8792
  703SOL    HW2 2109   2.400   0.191   2.522 -0.6933  0.6294  0.6898
  704SOL     OW 2110   2.972   1.844   0.701  0.1916 -0.5384  0.2972
  704SOL    HW1 2111   2.873   1.837   0.683  0.9808 -0.5376 -0.2610
  704SOL    HW2 2112   2.998   1.942   0.690 -1.0834 -1.1923  0.3871
  705SOL     OW 2113   2.971   3.036   2.231 -0.0774  0.2857 -0.2990
  705SOL    HW1 2114   3.046   3.064   2.169 -1.4030 -0.6123  2.3412
  705SOL    HW2 2115   3.003   3.018   2.329 -1.0359 -0.8620  2.5233
  706SOL     OW 2116   1.991   2.584   0.753 -0.0917 -0.0765 -0.2587
  706SOL    HW1 2117   2.063   2.659   0.747  1.2877 -1.1447  1.9093
  706SOL    HW2 2118   2.044   2.504   0.717  0.1789  0.1685 -1.6550
  707SOL     OW 2119   0.868   2.039   1.466  0.2299  0.1919 -0.0221
  707SOL    HW1 2120   0.906   1.961   1.520  0.9376  0.8753 -1.5054
  707SOL    HW2 2121   0.869   2.126   1.512 -2.6249 -5.0394 -2.5923
  708SOL     OW 2122   0.097   2.160   1.704 -0.2347 -0.5812 -0.2686
  708SOL    HW1 2123   0.098   2.170   1.602  0.6799  0.4754  1.6902
  708SOL    HW2 2124   0.059   2.073   1.735  1.0327  2.7405 -1.5816
  709SOL     OW 2125   2.139   0.013   1.912 -0.2074  0.0024  0.1488
  709SOL    HW1 2126   2.132   2.986   1.952  0.2830  0.6623  0.5877
  709SOL    HW2 2127   2.231   0.034   1.881 -1.1508 -0.0247  0.9292
  710SOL     OW 2128   2.091   0.928   2.704 -0.0763  0.5123  0.4455
  710SOL    HW1 2129   2.119   1.018   2.748  1.6411  3.2668  0.5532
  710SOL    HW2 2130   2.158   0.897   2.633 -1.6948 -1.3008 -4.0480
  711SOL     OW 2131   1.151   2.057   3.044 -0.3640 -0.3076  0.0375
  711SOL    HW1 2132   1.143   2.082   0.077  2.2437 -0.0018 -0.7469
  711SOL    HW2 2133   1.181   2.139   2.989 -0.8438  0.7704 -0.8322
  712SOL     OW 2134   0.595   2.178   2.431 -0.1980  0.3941  0.1882
  712SOL    HW1 2135   0.692   2.157   2.403 -2.7756 -2.3413 -0.1202
  712SOL    HW2 2136   0.519   2.135   2.373  3.6707 -1.1089 -0.1828
  713SOL     OW 2137   1.793   1.363   2.919  0.3190 -0.2971  0.1867
  713SOL    HW1 2138   1.794   1.462   2.935 -1.7086 -0.0343 -1.9655
  713SOL    HW2 2139   1.802   1.309   3.004 -0.7621  1.1202  0.0579
  714SOL     OW 2140   0.975   1.671   1.423 -0.6380 -0.1628 -0.2272
  714SOL    HW1 2141   1.009   1.744   1.482  1.2107 -0.7088 -1.6735
  714SOL    HW2 2142   0.949   1.705   1.329 -1.2573  2.1945 -1.5702
  715SOL     OW 2143   1.696   0.352   0.034 -0.4811  0.3200 -0.1221
  715SOL    HW1 2144   1.782   0.401   0.013 -2.2944 -0.5741  1.1992
  715SOL    HW2 2145   1.700   0.266   3.048 -0.5145  0.2837  1.4324
  716SOL     OW 2146   0.098   2.675   2.186  0.4073  0.2532  0.2105
  716SOL    HW1 2147   0.050   2.630   2.107 -0.4762 -0.2654 -2.8099
  716SOL    HW2 2148   0.116   2.605   2.256 -4.3137 -1.4032  1.2756
  717SOL     OW 2149   0.059   0.613   1.093 -0.3404 -0.6571  0.4956
  717SOL    HW1 2150   0.010   0.643   1.009 -1.3831  1.6520 -2.1745
  717SOL    HW2 2151   3.061   0.584   1.168 -2.3001  0.5870  1.9382
  718SOL     OW 2152   0.544   1.293   2.411  0.2470 -0.2768 -0.1124
  718SOL    HW1 2153   0.591   1.380   2.450 -0.1615  1.7323  0.2620
  718SOL    HW2 2154   0.497   1.308   2.320  0.6442 -0.4377 -1.6631
  719SOL     OW 2155   2.287   1.364   2.987 -0.1589 -0.5763  0.1072
  719SOL    HW1 2156   2.207   1.305   3.011  0.8397 -1.7877 -1.3897
  719SOL    HW2 2157   2.362   1.303   2.958 -1.3557 -1.9493  1.7806
  720SOL     OW 2158   0.851   0.732   0.902 -0.2552  0.0051  0.0790
  720SOL    HW1 2159   0.825   0.637   0.881  0.6493  0.8047  1.3392
  720SOL    HW2 2160   0.912   0.730   0.982 -3.4282 -0.9856 -1.9527
  721SOL     OW 2161   2.617   0.339   0.392  0.0909  0.0455  0.0883
  721SOL    HW1 2162   2.701   0.361   0.335  2.1172  2.0886  1.3401
  721SOL    HW2 2163   2.572   0.252   0.360 -0.4107  0.1802 -3.8322
  722SOL     OW 2164   2.063   0.667   2.874 -0.0839 -0.0113  0.6543
  722SOL    HW1 2165   2.053   0.753   2.824 -1.2393  1.5552 -1.1008
  722SOL    HW2 2166   2.030   0.593   2.813 -2.5596 -0.5274 -0.1552
  723SOL     OW 2167   2.695   0.542   0.575 -0.0082 -0.8939 -0.0676
  723SOL    HW1 2168   2.672   0.456   0.528 -1.0471  0.9408  1.2917
  723SOL    HW2 2169   2.737   0.537   0.669 -0.0899  2.3573  2.0212
  724SOL     OW 2170   0.718   1.586   2.012 -0.4716 -0.1869  0.8636
  724SOL    HW1 2171   0.730   1.530   2.094 -1.4012 -0.8259  1.7238
  724SOL    HW2 2172   0.734   1.534   1.923 -1.7920 -0.9577 -0.9430
  725SOL     OW 2173   1.827   0.388   1.455  0.3722 -0.0154  0.0153
  725SOL    HW1 2174   1.791   0.481   1.430 -1.9291 -0.8824 -1.5293
  725SOL    HW2 2175   1.834   0.337   1.365  2.2743  0.0803 -0.3682
  726SOL     OW 2176   1.821   2.650   0.544 -0.0938 -0.3862 -0.0252
  726SOL    HW1 2177   1.885   2.600   0.605  0.4273 -0.4236 -0.7479
  726SOL    HW2 2178   1.765   2.591   0.480 -1.9723 -0.3604 -1.8427
  727SOL     OW 2179   1.685   1.719   2.161  0.2194  0.2047  0.1508
  727SOL    HW1 2180   1.722   1.719   2.255  0.4321  0.0033  0.4230
  727SOL    HW2 2181   1.597   1.669   2.158 -0.9927 -0.1414 -0.2522
  728SOL     OW 2182   2.110   2.823   1.606 -0.2758 -0.4380 -0.3914
  728SOL    HW1 2183   2.043   2.882   1.651  3.3710 -0.9216 -1.8339
  728SOL    HW2 2184   2.061   2.768   1.539  1.2435  1.3689  1.9766
  729SOL     OW 2185   2.176   1.262   0.868  0.3407  0.2288  0.3653
  729SOL    HW1 2186   2.090   1.305   0.827 -1.1736  2.1594  1.0122
  729SOL    HW2 2187   2.199   1.173   0.825  0.4020 -0.3535 -0.8983
  730SOL     OW 2188   0.499   1.110   2.606 -0.2866 -0.8537 -0.2259
  730SOL    HW1 2189   0.549   1.133   2.692 -1.1632 -2.0528  0.5067
  730SOL    HW2 2190   0.523   1.182   2.534  0.2006  0.3473 -2.1750
  731SOL     OW 2191   0.029   0.025   0.796  0.3535  0.2830 -0.0739
  731SOL    HW1 2192   0.115   3.052   0.826 -2.4059 -2.0688 -1.1948
  731SOL    HW2 2193   3.062   0.092   0.864  0.7231 -0.3658 -0.7607
  732SOL     OW 2194   1.354   0.860   0.268  0.0446 -0.4122  0.0707
  732SOL    HW1 2195   1.260   0.836   0.306 -0.0075 -1.1750 -0.9559
  732SOL    HW2 2196   1.400   0.776   0.229  2.1071 -2.5855 -3.6226
  733SOL     OW 2197   0.506   1.804   0.888  0.0720 -0.0640  0.1352
  733SOL    HW1 2198   0.598   1.841   0.854  3.7900 -0.4619  1.8858
  733SOL    HW2 2199   0.454   1.753   0.816  1.5349  1.3760  0.0391
  734SOL     OW 2200   0.058   2.449   0.504 -0.6216 -0.8405 -0.2850
  734SOL    HW1 2201   0.058   2.511   0.427  3.2727 -0.7965 -1.3361
  734SOL    HW2 2202   3.038   2.446   0.555 -0.6968 -1.8292  0.6932
  735SOL     OW 2203   1.147   0.429   1.081 -0.2851 -0.2056  0.2008
  735SOL    HW1 2204   1.075   0.363   1.081  0.3397  1.4095 -2.5197
  735SOL    HW2 2205   1.240   0.389   1.091 -2.0988  1.1323 -1.5018
  736SOL     OW 2206   2.242   2.398   0.022  0.5307  0.0803  0.1908
  736SOL    HW1 2207   2.227   2.483   3.040 -0.8956 -0.8028 -0.4192
  736SOL    HW2 2208   2.188   2.325   3.043 -0.1315  0.2279 -1.3409
  737SOL     OW 2209   0.081   0.803   0.851  0.4517  0.0070  0.2710
  737SOL    HW1 2210   0.147   0.886   0.854  0.7893  1.6713 -1.3209
  737SOL    HW2 2211   0.082   0.762   0.757 -0.3932 -0.8048  2.9207
  738SOL     OW 2212   2.792   2.981   1.403 -0.9422 -0.0755  0.7078
  738SOL    HW1 2213   2.803   2.982   1.303  0.3584 -1.2138 -1.4682
  738SOL    HW2 2214   2.881   2.960   1.450  1.3147  1.0961  0.9195
  739SOL     OW 2215   1.397   2.409   3.034  0.4501  0.4042 -0.8344
  739SOL    HW1 2216   1.410   2.325   2.979 -3.9219 -2.5512  0.5828
  739SOL    HW2 2217   1.374   2.381   0.066  1.0680 -1.2390  2.0843
  740SOL     OW 2218   1.434   0.356   1.080  0.1102 -0.2143 -0.2647
  740SOL    HW1 2219   1.438   0.283   1.146 -0.7281  1.1725  1.5190
  740SOL    HW2 2220   1.424   0.317   0.988 -2.5929  3.3118  1.3695
  741SOL     OW 2221   2.906   0.867   0.978  0.2098 -0.5329  0.3034
  741SOL    HW1 2222   2.829   0.840   0.915 -0.0516  0.4158 -2.1497
  741SOL    HW2 2223   2.995   0.842   0.931 -0.1526 -0.8065 -2.3318
  742SOL     OW 2224   0.684   1.498   2.526 -0.2530  0.0198  0.0588
  742SOL    HW1 2225   0.716   1.422   2.587  3.4218 -3.4245  1.4134
  742SOL    HW2 2226   0.667   1.581   2.581  0.0629  1.9452  0.2370
  743SOL     OW 2227   1.284   0.464   2.136  0.8747  0.1060 -0.0178
  743SOL    HW1 2228   1.243   0.430   2.048  2.8499 -0.5105 -0.6496
  743SOL    HW2 2229   1.374   0.417   2.158 -1.7897 -1.6085 -0.3014
  744SOL     OW 2230   2.165   0.864   1.477  0.1171  0.0748  0.2907
  744SOL    HW1 2231   2.253   0.913   1.461  0.5834 -0.8776  0.2064
  744SOL    HW2 2232   2.111   0.928   1.529  1.7243 -2.0552 -0.7319
  745SOL     OW 2233   1.238   1.470   1.626 -0.5428  0.3187  0.2511
  745SOL    HW1 2234   1.220   1.469   1.527  1.0624 -0.7957  0.5085
  745SOL    HW2 2235   1.272   1.380   1.653 -0.1602  3.1753 -0.5889
  746SOL     OW 2236   2.122   1.817   0.944 -0.4956 -0.2551 -0.3162
  746SOL    HW1 2237   2.087   1.792   1.036 -1.4809  1.0236 -0.6308
  746SOL    HW2 2238   2.150   1.727   0.900  2.1324 -0.6026  0.6949
  747SOL     OW 2239   2.339   1.405   1.016 -0.8679 -0.1050 -0.2672
  747SOL    HW1 2240   2.383   1.485   0.979 -1.1331 -0.6456  3.2605
  747SOL    HW2 2241   2.272   1.364   0.956 -0.5234  1.8380  0.3881
  748SOL     OW 2242   0.673   2.083   0.828  0.0196 -0.0042 -0.0793
  748SOL    HW1 2243   0.575   2.115   0.818 -2.9745 -2.7270 -0.6783
  748SOL    HW2 2244   0.686   2.056   0.925  1.3015  4.0495  0.6674
  749SOL     OW 2245   2.223   2.833   2.172  0.6420  0.1284 -0.0146
  749SOL    HW1 2246   2.168   2.813   2.088 -3.0470  0.1594 -0.8452
  749SOL    HW2 2247   2.325   2.830   2.158 -2.4186 -1.0455 -0.7854
  750SOL     OW 2248   2.397   0.463   0.861  0.1730 -0.4340 -0.1161
  750SOL    HW1 2249   2.429   0.394   0.789 -1.1765  1.1201 -1.2430
  750SOL    HW2 2250   2.303   0.507   0.835 -4.1783  1.5987 -1.0538
  751SOL     OW 2251   2.600   2.841   0.356 -0.1056  0.6042 -0.2136
  751SOL    HW1 2252   2.672   2.911   0.367 -1.2228 -0.6781  0.2424
  751SOL    HW2 2253   2.549   2.849   0.267 -3.3032  2.5133 -0.1929
  752SOL     OW 2254   2.965   2.822   0.781  0.2607  0.4783  0.2102
  752SOL    HW1 2255   2.988   2.820   0.679  1.6273 -0.3034 -4.8739
  752SOL    HW2 2256   2.998   2.906   0.818  0.6954 -1.1355  1.4796
  753SOL     OW 2257   1.659   0.936   2.222 -0.2311  0.6301 -0.1738
  753SOL    HW1 2258   1.612   1.023   2.188 -1.2325 -1.7701 -1.9339
  753SOL    HW2 2259   1.593   0.857   2.239 -1.3532  0.4190  2.3757
  754SOL     OW 2260   1.722   1.936   1.758  0.5461 -0.0447 -0.6115
  754SOL    HW1 2261   1.671   1.869   1.695 -0.9061 -1.7693  1.0102
  754SOL    HW2 2262   1.805   1.891   1.796  0.8066  1.0291 -1.5346
  755SOL     OW 2263   2.687   0.767   0.846 -0.3344 -0.0572 -0.2336
  755SOL    HW1 2264   2.624   0.702   0.890  0.8894  0.7035 -2.1401
  755SOL    HW2 2265   2.642   0.815   0.769 -0.9855  0.4201 -0.4194
  756SOL     OW 2266   0.782   1.359   2.747  0.2697 -0.1544  0.8223
  756SOL    HW1 2267   0.882   1.347   2.765  0.2523 -0.1313 -2.7335
  756SOL    HW2 2268   0.745   1.439   2.802 -0.5289 -1.2638  1.2038
  757SOL     OW 2269   1.140   2.783   0.552  0.5696  0.1128  0.0463
  757SOL    HW1 2270   1.079   2.841   0.614 -2.0611 -1.4683 -1.2380
  757SOL    HW2 2271   1.229   2.830   0.530  0.3227  1.4763 -2.5692
  758SOL     OW 2272   1.147   2.743   1.111  0.5302 -0.3455  0.4925
  758SOL    HW1 2273   1.069   2.810   1.125  0.9282  1.9737  1.4018
  758SOL    HW2 2274   1.237   2.793   1.115  1.0238 -0.1298  2.8200
  759SOL     OW 2275   0.316   0.547   0.534  0.2892  0.2099  0.1283
  759SOL    HW1 2276   0.293   0.460   0.585  0.6043  1.2055  0.4250
  759SOL    HW2 2277   0.233   0.608   0.535 -1.0102 -1.6941 -0.9570
  760SOL     OW 2278   2.443   1.107   1.218  0.2742 -0.9397  0.3755
  760SOL    HW1 2279   2.486   1.030   1.169  2.4897  3.5462  0.9685
  760SOL    HW2 2280   2.498   1.193   1.208  0.6866  2.2981  2.0737
  761SOL     OW 2281   1.688   0.464   0.783  0.4019  0.4744  0.2241
  761SOL    HW1 2282   1.606   0.418   0.826 -1.3430 -0.9120  1.7951
  761SOL    HW2 2283   1.777   0.437   0.824 -1.2478  0.1621 -1.9718
  762SOL     OW 2284   2.297   2.002   0.371  0.8023  0.3821  0.0663
  762SOL    HW1 2285   2.371   1.936   0.332  1.7950 -1.3290 -1.0949
  762SOL    HW2 2286   2.303   2.089   0.321 -1.9513 -0.9463  1.3798
  763SOL     OW 2287   0.641   1.226   1.454 -0.0172 -0.0811  0.3663
  763SOL    HW1 2288   0.553   1.184   1.422 -2.0360 -0.0808 -0.3304
  763SOL    HW2 2289   0.625   1.325   1.464 -0.1200  0.0657 -1.5574
  764SOL     OW 2290   2.637   2.164   2.438 -0.1010  0.6185  0.4121
  764SOL    HW1 2291   2.540   2.193   2.432  0.4367  0.4428 -5.4299
  764SOL    HW2 2292   2.678   2.197   2.525 -2.3566  3.6904 -0.6836
  765SOL     OW 2293   0.819   2.580   0.950 -0.2048 -0.6416 -0.1019
  765SOL    HW1 2294   0.849   2.579   0.854  1.8808 -0.4922  0.8624
  765SOL    HW2 2295   0.763   2.659   0.979 -2.7417  1.0335  1.0302
  766SOL     OW 2296   2.945   1.919   2.517 -0.0000  0.1599 -0.2637
  766SOL    HW1 2297   2.893   1.833   2.491  0.0747  0.4657 -2.5483
  766SOL    HW2 2298   2.944   1.982   2.439  0.8280 -5.3426 -1.4195
  767SOL     OW 2299   2.262   0.846   2.496 -0.1766  0.7873  0.0818
  767SOL    HW1 2300   2.259   0.797   2.409  2.3587 -1.0611  0.4541
  767SOL    HW2 2301   2.359   0.873   2.508 -0.3478  0.7756 -0.7498
  768SOL     OW 2302   1.177   0.140   2.411 -0.5229 -0.3944 -0.3915
  768SOL    HW1 2303   1.101   0.203   2.439 -2.8667  0.1944  0.4266
  768SOL    HW2 2304   1.270   0.177   2.427  0.0152 -1.7108 -2.6672
  769SOL     OW 2305   0.136   2.368   1.079  0.6381  0.0385  0.5470
  769SOL    HW1 2306   0.109   2.402   0.987 -1.1515  0.4124 -2.8865
  769SOL    HW2 2307   0.238   2.366   1.090 -1.4266 -2.6001 -2.9236
  770SOL     OW 2308   0.568   0.391   0.148  0.0682 -0.7891 -0.4132
  770SOL    HW1 2309   0.556   0.395   0.049  0.7813 -2.2083  1.7715
  770SOL    HW2 2310   0.478   0.407   0.198 -0.2227  1.4914  1.8992
  771SOL     OW 2311   1.185   1.636   2.420  0.0062 -0.3270  0.0272
  771SOL    HW1 2312   1.127   1.555   2.442 -2.9942  0.7205  0.3298
  771SOL    HW2 2313   1.207   1.688   2.504 -0.8706 -2.0215  2.0043
  772SOL     OW 2314   2.209   0.045   2.278 -0.5057 -0.3923 -0.1706
  772SOL    HW1 2315   2.217   3.014   2.244 -0.9377 -1.5764  0.1415
  772SOL    HW2 2316   2.113   0.078   2.292  2.4245  0.5958 -1.5580
  773SOL     OW 2317   1.450   0.953   1.960 -0.2868 -0.0718 -0.3789
  773SOL    HW1 2318   1.379   0.962   1.891 -0.1783 -0.0111  2.9102
  773SOL    HW2 2319   1.522   0.879   1.936  2.5325 -1.4367  1.1857
  774SOL     OW 2320   1.335   0.649   1.368 -0.3632 -0.1480 -0.2850
  774SOL    HW1 2321   1.387   0.608   1.291  0.1858 -1.4004  2.4729
  774SOL    HW2 2322   1.399   0.678   1.439 -1.9403  1.3945 -0.3312
  775SOL     OW 2323   1.998   2.835   0.115 -0.2098  0.5812 -0.1825
  775SOL    HW1 2324   1.939   2.751   0.122 -1.0073 -1.3517  0.7755
  775SOL    HW2 2325   2.027   2.849   0.019 -1.0277 -1.9444  1.7918
  776SOL     OW 2326   2.010   1.000   1.652 -0.2273 -0.2807 -0.4053
  776SOL    HW1 2327   1.939   0.941   1.695 -0.8966 -1.1538 -0.8070
  776SOL    HW2 2328   2.061   1.050   1.728 -1.0909  2.0506  2.6546
  777SOL     OW 2329   2.951   1.433   2.232  0.4471  0.2073  0.1820
  777SOL    HW1 2330   2.892   1.364   2.177 -1.8774 -0.1622  1.0143
  777SOL    HW2 2331   2.956   1.523   2.184  1.0125 -1.1439  2.2414
  778SOL     OW 2332   2.511   0.999   2.519 -0.0969 -0.3697  0.0312
  778SOL    HW1 2333   2.493   0.951   2.607 -0.5698 -1.3856 -1.7506
  778SOL    HW2 2334   2.571   1.080   2.523  0.0457 -0.0553 -0.4387
  779SOL     OW 2335   2.883   0.498   2.916  0.5519  0.5683  0.5414
  779SOL    HW1 2336   2.928   0.504   3.011  0.3262 -0.0410  4.1992
  779SOL    HW2 2337   2.946   0.457   2.846  1.7286 -1.9281  0.9182
  780SOL     OW 2338   2.285   2.598   2.340 -0.1763 -0.0292  0.9144
  780SOL    HW1 2339   2.251   2.678   2.289  0.8314 -5.4263  0.2089
  780SOL    HW2 2340   2.315   2.522   2.279 -1.2220 -0.0682  1.2754
  781SOL     OW 2341   2.931   0.998   1.958 -0.4290  0.2672  0.0080
  781SOL    HW1 2342   2.856   0.938   1.942  0.1064  2.5624 -1.3800
  781SOL    HW2 2343   2.983   1.020   1.870 -1.4187  0.0516 -0.4473
  782SOL     OW 2344   1.582   2.441   2.638  0.5446 -0.3892 -0.2913
  782SOL    HW1 2345   1.664   2.403   2.590  0.1919 -1.4715 -0.6150
  782SOL    HW2 2346   1.504   2.380   2.611  0.3256 -1.3401 -3.3750
  783SOL     OW 2347   0.768   2.299   1.056  0.3179 -0.2943 -0.3929
  783SOL    HW1 2348   0.869   2.313   1.063 -1.4710  1.0039  3.7415
  783SOL    HW2 2349   0.731   2.385   1.016  1.0148 -0.9572  1.6154
  784SOL     OW 2350   2.076   0.462   2.358 -0.3977  0.5388  0.0295
  784SOL    HW1 2351   1.976   0.462   2.361 -0.1799 -2.4460 -1.1215
  784SOL    HW2 2352   2.106   0.446   2.261  0.5479  2.7139  0.2368
  785SOL     OW 2353   0.219   0.120   1.351  0.1780 -0.1355  0.4368
  785SOL    HW1 2354   0.203   0.019   1.342 -0.1957  0.3898  0.2073
  785SOL    HW2 2355   0.294   0.140   1.418  1.0789  1.7060  0.2740
  786SOL     OW 2356   1.327   2.401   0.263  0.2617 -0.8338 -0.0056
  786SOL    HW1 2357   1.390   2.356   0.322  1.2547 -0.8258 -3.6389
  786SOL    HW2 2358   1.300   2.495   0.292  0.3345 -1.7067 -3.4173
  787SOL     OW 2359   1.092   0.118   0.754  0.9180 -0.1123  0.1763
  787SOL    HW1 2360   1.100   0.154   0.850  0.5211 -2.5636 -2.1396
  787SOL    HW2 2361   1.049   0.022   0.751  2.5923 -1.3046  0.1504
  788SOL     OW 2362   0.135   1.186   1.297 -0.8063 -0.1167  0.0821
  788SOL    HW1 2363   0.063   1.217   1.362  2.4020 -0.5799 -1.3124
  788SOL    HW2 2364   0.201   1.265   1.279 -3.1451 -0.6117 -0.1424
  789SOL     OW 2365   2.583   0.975   2.062 -0.4791  0.3464  0.5341
  789SOL    HW1 2366   2.488   1.015   2.055 -1.0552  1.5931 -1.1737
  789SOL    HW2 2367   2.643   1.037   2.112  1.1062  0.3621 -3.0299
  790SOL     OW 2368   1.183   0.646   2.749 -0.2979  0.1543 -0.0371
  790SOL    HW1 2369   1.173   0.718   2.678  0.1113  0.5663 -0.6745
  790SOL    HW2 2370   1.242   0.674   2.830  0.1767  1.5349  0.7581
  791SOL     OW 2371   0.319   2.563   0.256  0.0178  0.0868  0.5530
  791SOL    HW1 2372   0.261   2.579   0.176  0.2857 -3.2120  1.5092
  791SOL    HW2 2373   0.378   2.483   0.238 -0.3265  2.0850  4.2527
  792SOL     OW 2374   1.208   0.744   1.962 -0.2684  0.3799 -0.0825
  792SOL    HW1 2375   1.298   0.701   1.979 -1.3175 -0.9761 -1.8478
  792SOL    HW2 2376   1.137   0.677   1.925 -1.0427  0.0373 -2.9017
  793SOL     OW 2377   2.726   0.342   1.105  0.1875  0.4975  0.1666
  793SOL    HW1 2378   2.720   0.252   1.065 -0.8851  5.2235  1.0655
  793SOL    HW2 2379   2.681   0.347   1.196  1.3926 -0.3488  1.1791
  794SOL     OW 2380   2.812   0.270   2.339  0.2951 -0.1052  0.1640
  794SOL    HW1 2381   2.752   0.232   2.264 -1.5232 -1.8824  0.0041
  794SOL    HW2 2382   2.896   0.314   2.307 -0.2584 -3.2889  1.2067
  795SOL     OW 2383   0.525   1.538   0.103 -0.2916 -0.2806 -0.0160
  795SOL    HW1 2384   0.533   1.577   0.198  1.5568 -1.7804 -1.9074
  795SOL    HW2 2385   0.429   1.552   0.072  1.7944 -3.2887 -0.8171
  796SOL     OW 2386   2.808   0.756   2.874 -0.6478  0.8255 -0.0000
  796SOL    HW1 2387   2.843   0.662   2.891 -1.0122  2.0914  0.2844
  796SOL    HW2 2388   2.805   0.790   2.777 -2.6313  0.5899 -2.2848
  797SOL     OW 2389   2.032   2.686   2.491  0.2295  0.0382 -0.2432
  797SOL    HW1 2390   1.943   2.637   2.487  0.5036 -1.1429  0.3773
  797SOL    HW2 2391   2.113   2.630   2.454 -0.6710  0.3229 -1.2001
  798SOL     OW 2392   2.793   3.005   1.141 -0.1361  0.2757 -0.6179
  798SOL    HW1 2393   2.878   3.053   1.115  0.9224  1.0511  2.1023
  798SOL    HW2 2394   2.791   2.901   1.130  3.5811 -1.2431  1.0871
  799SOL     OW 2395   3.007   0.611   1.698  0.0252  0.7861  0.3270
  799SOL    HW1 2396   2.976   0.591   1.606 -1.7387  0.3437  3.9204
  799SOL    HW2 2397   2.965   0.691   1.739 -0.3617 -0.5614  0.4683
  800SOL     OW 2398   0.530   1.553   0.383 -0.2461  0.0775  0.0634
  800SOL    HW1 2399   0.559   1.459   0.360 -0.7358 -0.2066 -1.2978
  800SOL    HW2 2400   0.441   1.550   0.430 -0.2775 -0.2179 -1.5445
  801SOL     OW 2401   1.893   1.771   0.543  0.2135  0.0582 -0.1568
  801SOL    HW1 2402   1.950   1.807   0.466  2.2800  0.5730 -0.1174
  801SOL    HW2 2403   1.806   1.819   0.547  2.5643 -2.7613  1.6232
  802SOL     OW 2404   1.703   1.095   2.854 -0.2740 -0.8733 -0.1176
  802SOL    HW1 2405   1.748   1.188   2.856 -0.3749  1.4810  0.3843
  802SOL    HW2 2406   1.616   1.086   2.804  0.1482 -0.8405  1.5247
  803SOL     OW 2407   1.022   1.875   1.623 -0.1552 -0.3325  0.0095
  803SOL    HW1 2408   1.050   1.967   1.655  0.2496 -0.4870  0.9998
  803SOL    HW2 2409   0.995   1.820   1.703  0.0275  1.3278 -1.8570
  804SOL     OW 2410   1.562   2.422   0.760  0.2110 -0.2254 -0.7386
  804SOL    HW1 2411   1.638   2.352   0.762  1.6030  0.7983 -1.4758
  804SOL    HW2 2412   1.474   2.374   0.741 -1.2971  0.4274  2.7838
  805SOL     OW 2413   2.752   2.331   2.261  0.4029 -0.3762 -0.4898
  805SOL    HW1 2414   2.717   2.257   2.321 -2.2179  0.6135  0.6805
  805SOL    HW2 2415   2.855   2.334   2.266  1.6898 -0.9201 -0.6690
  806SOL     OW 2416   0.047   3.047   0.409 -0.3496  0.2298  0.3283
  806SOL    HW1 2417   3.046   0.028   0.465 -0.0084 -1.5351  0.8473
  806SOL    HW2 2418   0.134   0.012   0.450  0.5306 -1.4809  1.5315
  807SOL     OW 2419   2.437   0.860   2.748 -0.2800 -0.0204  0.3214
  807SOL    HW1 2420   2.427   0.765   2.776  0.7122 -2.4059 -3.4315
  807SOL    HW2 2421   2.386   0.930   2.802  1.2496  2.2610  1.5672
  808SOL     OW 2422   1.135   2.523   0.665  0.1567  0.8138  0.1566
  808SOL    HW1 2423   1.138   2.520   0.769  0.3668 -0.2652  1.3477
  808SOL    HW2 2424   1.141   2.620   0.628  1.8540  1.1132  0.9085
  809SOL     OW 2425   2.802   2.992   0.180 -0.3059 -0.2185  0.1579
  809SOL    HW1 2426   2.847   2.913   0.136  0.4356 -1.0028 -2.8520
  809SOL    HW2 2427   2.792   0.002   0.112 -2.6780  1.0860 -0.1098
  810SOL     OW 2428   1.323   1.145   0.760 -0.6650 -0.1329  0.0266
  810SOL    HW1 2429   1.250   1.116   0.830 -1.9063 -2.3798 -0.7250
  810SOL    HW2 2430   1.307   1.106   0.670 -0.9169 -0.6673  0.9254
  811SOL     OW 2431   1.855   2.667   1.536 -0.0476 -0.2092  0.1881
  811SOL    HW1 2432   1.798   2.714   1.470 -0.2760 -2.3030  0.2023
  811SOL    HW2 2433   1.806   2.656   1.629 -0.3382 -1.4107  2.3217
  812SOL     OW 2434   1.700   2.877   0.389 -0.1274 -0.0606  0.0989
  812SOL    HW1 2435   1.745   2.964   0.367  1.2320  0.4210 -3.0885
  812SOL    HW2 2436   1.758   2.817   0.447  0.8073  0.9534  0.0691
  813SOL     OW 2437   0.940   0.132   2.047  0.5978  0.4631  0.0378
  813SOL    HW1 2438   0.862   0.066   2.045  1.0908  1.4906  0.0941
  813SOL    HW2 2439   1.024   0.085   2.072  0.3324  1.3131  1.9938
  814SOL     OW 2440   0.296   2.919   1.106  0.4166 -0.0228 -0.1432
  814SOL    HW1 2441   0.280   2.928   1.005 -4.2119  3.2050 -2.4108
  814SOL    HW2 2442   0.358   2.991   1.137 -0.1012 -0.9113 -0.1785
  815SOL     OW 2443   0.265   2.688   0.703  0.4479 -0.5144 -0.1985
  815SOL    HW1 2444   0.209   2.709   0.619  1.4502 -0.3616  1.4725
  815SOL    HW2 2445   0.360   2.655   0.696 -2.2502 -2.2815  1.3242
  816SOL     OW 2446   2.462   1.640   2.697 -0.1809 -0.3727  0.3707
  816SOL    HW1 2447   2.503   1.554   2.725 -1.6149 -0.1300  0.6055
  816SOL    HW2 2448   2.423   1.645   2.603  3.1527  1.2647  0.8137
  817SOL     OW 2449   1.507   2.776   2.810  0.0054  0.1891 -0.1566
  817SOL    HW1 2450   1.418   2.825   2.829 -1.8456  1.0540  0.9083
  817SOL    HW2 2451   1.510   2.765   2.713  0.5433 -1.6378  3.3000
  818SOL     OW 2452   1.533   1.003   0.421  0.4925  0.2309 -0.5090
  818SOL    HW1 2453   1.499   1.100   0.404 -0.3412  3.8325 -1.1533
  818SOL    HW2 2454   1.461   0.939   0.386 -1.2694 -1.0281  1.2916
  819SOL     OW 2455   1.746   2.448   2.854 -0.0716 -0.1139 -0.1945
  819SOL    HW1 2456   1.677   2.413   2.787 -4.2064 -3.0891  0.9518
  819SOL    HW2 2457   1.808   2.520   2.819 -2.6207 -1.4350  2.0993
  820SOL     OW 2458   0.991   0.645   0.166  0.0196  0.3477  0.3203
  820SOL    HW1 2459   0.961   0.710   0.097  1.3542  1.3781 -2.1733
  820SOL    HW2 2460   0.917   0.584   0.194  2.0184  1.3248 -2.4186
  821SOL     OW 2461   0.305   0.510   1.325  0.0605 -0.3346 -0.4453
  821SOL    HW1 2462   0.351   0.534   1.412  0.1837  0.2769 -0.2808
  821SOL    HW2 2463   0.326   0.585   1.258  1.7457  0.0497 -1.0854
  822SOL     OW 2464   1.376   2.528   2.363  0.3319  0.1737  0.4690
  822SOL    HW1 2465   1.389   2.463   2.436  0.6529 -1.7954  0.5347
  822SOL    HW2 2466   1.285   2.515   2.324  1.7689 -0.3282  5.1283
  823SOL     OW 2467   0.713   0.898   2.061  0.3108  0.5162 -0.0256
  823SOL    HW1 2468   0.756   0.955   1.989 -2.8782  0.1224  0.0259
  823SOL    HW2 2469   0.732   0.936   2.152  1.6568  1.3367 -0.0649
  824SOL     OW 2470   2.419   0.041   1.869  0.1854  0.4725 -0.1037
  824SOL    HW1 2471   2.411   3.011   1.838 -1.9868  1.1671 -0.2597
  824SOL    HW2 2472   2.450   0.102   1.794  1.4061  0.2173 -1.4112
  825SOL     OW 2473   0.927   1.418   0.114  0.7885 -0.0234 -0.2327
  825SOL    HW1 2474   0.906   1.327   0.073 -4.5509 -0.9987 -0.7193
  825SOL    HW2 2475   0.939   1.487   0.040 -1.6283 -0.0360 -2.4876
  826SOL     OW 2476   2.002   0.508   2.658 -0.7128  0.2631 -0.7365
  826SOL    HW1 2477   2.056   0.485   2.573  0.1264  1.0747 -2.2461
  826SOL    HW2 2478   1.912   0.464   2.663  2.1021  0.9851  0.1582
  827SOL     OW 2479   0.602   2.008   2.697  0.5499 -0.0207 -0.2859
  827SOL    HW1 2480   0.551   2.061   2.627 -1.3285 -2.1493 -0.2129
  827SOL    HW2 2481   0.536   1.974   2.765 -2.5442 -0.3404 -1.9127
  828SOL     OW 2482   2.778   0.198   1.414  0.4753  0.1959 -0.2458
  828SOL    HW1 2483   2.679   0.218   1.398  2.0290  0.8929  1.8640
  828SOL    HW2 2484   2.794   0.099   1.414 -0.6296 -0.9979  0.0089
  829SOL     OW 2485   1.335   1.709   1.408  0.4523  0.1285  0.1789
  829SOL    HW1 2486   1.326   1.763   1.496 -2.4510  0.8466  0.0783
  829SOL    HW2 2487   1.423   1.664   1.404 -1.9282 -2.7496 -0.0947
  830SOL     OW 2488   0.463   0.943   1.640 -0.5401 -0.0301  0.6251
  830SOL    HW1 2489   0.532   0.904   1.569  4.4852 -2.1203 -2.8922
  830SOL    HW2 2490   0.378   0.887   1.632  2.1527  2.6776 -0.6742
  831SOL     OW 2491   0.231   1.752   0.159  0.0187 -0.3352  0.2622
  831SOL    HW1 2492   0.151   1.803   0.118 -1.2754 -1.2666  2.1834
  831SOL    HW2 2493   0.307   1.819   0.156 -0.7673 -0.3622  0.9273
  832SOL     OW 2494   0.822   0.097   2.767 -0.1052 -0.4497  0.1795
  832SOL    HW1 2495   0.903   0.032   2.783  1.2697 -0.2991 -0.2155
  832SOL    HW2 2496   0.730   0.046   2.757 -2.3518 -1.1208 -0.2199
  833SOL     OW 2497   0.086   0.515   1.934 -0.0472 -0.1554 -0.6271
  833SOL    HW1 2498   0.027   0.546   1.850 -1.4606 -0.7148 -1.3493
  833SOL    HW2 2499   0.059   0.562   2.018 -0.5978 -0.5275 -0.0138
  834SOL     OW 2500   0.321   0.660   1.083 -0.6800  0.4044 -0.1623
  834SOL    HW1 2501   0.351   0.712   1.000  1.4217 -0.6734 -3.0522
  834SOL    HW2 2502   0.219   0.648   1.091 -1.0283 -1.3545  0.2183
  835SOL     OW 2503   2.547   2.787   1.007  0.1553  0.6080  1.1914
  835SOL    HW1 2504   2.587   2.812   0.916 -2.2008  0.5444  2.4177
  835SOL    HW2 2505   2.623   2.755   1.069  1.5013 -0.5029 -0.4254
  836SOL     OW 2506   0.648   1.729   2.688 -0.2440 -0.4531 -0.1784
  836SOL    HW1 2507   0.599   1.815   2.694 -1.9269  2.7944  2.0496
  836SOL    HW2 2508   0.746   1.754   2.689 -2.5613 -0.7494 -0.6186
  837SOL     OW 2509   2.022   2.218   2.720  0.8475 -0.0538 -0.3676
  837SOL    HW1 2510   1.940   2.270   2.685  0.8510 -0.5722 -0.6098
  837SOL    HW2 2511   2.085   2.187   2.650 -1.6156  0.7731  1.0526
  838SOL     OW 2512   2.845   1.247   2.087 -0.2282 -0.4320  0.2773
  838SOL    HW1 2513   2.810   1.203   2.167  0.1754  1.2203 -2.4964
  838SOL    HW2 2514   2.887   1.170   2.033 -0.9338 -0.9537 -0.0654
  839SOL     OW 2515   0.950   1.153   0.027  0.1821 -0.2895  0.5023
  839SOL    HW1 2516   0.871   1.118   3.039 -1.6852 -1.7121  0.7209
  839SOL    HW2 2517   1.038   1.132   3.048  2.1916 -0.3615 -1.4997
  840SOL     OW 2518   1.514   0.564   0.447  0.1107 -0.1550  0.2376
  840SOL    HW1 2519   1.561   0.645   0.491 -0.6456 -2.3306 -0.7995
  840SOL    HW2 2520   1.427   0.540   0.494  0.7064  1.3813  0.1838
  841SOL     OW 2521   0.599   2.760   0.721  0.0223 -0.3796  0.3079
  841SOL    HW1 2522   0.698   2.747   0.744  3.9950  0.5966  0.6297
  841SOL    HW2 2523   0.562   2.671   0.697  3.2903  4.5926 -0.9836
  842SOL     OW 2524   0.169   0.430   0.242 -0.4019 -0.2714 -0.3180
  842SOL    HW1 2525   0.079   0.470   0.209 -1.2036 -1.5625  0.3452
  842SOL    HW2 2526   0.242   0.498   0.256  1.9534 -0.7015 -2.2537
  843SOL     OW 2527   0.503   0.375   1.665  0.1878 -0.1275  0.3676
  843SOL    HW1 2528   0.587   0.440   1.653  2.0817  1.6075 -1.4695
  843SOL    HW2 2529   0.423   0.428   1.695  0.4958 -2.1119 -0.7245
  844SOL     OW 2530   1.915   2.670   2.882 -0.1796  0.0408 -0.5088
  844SOL    HW1 2531   1.892   2.765   2.853 -1.2171 -2.4719  0.3636
  844SOL    HW2 2532   1.889   2.662   2.980 -0.3695  1.1002 -2.4369
  845SOL     OW 2533   2.676   0.130   2.145  0.0528 -0.1238  0.0542
  845SOL    HW1 2534   2.577   0.116   2.123  2.1659 -1.9565 -1.0472
  845SOL    HW2 2535   2.703   0.064   2.218 -1.6608 -0.3668  0.3306
  846SOL     OW 2536   1.798   1.789   2.396 -0.1062 -0.2205 -0.3910
  846SOL    HW1 2537   1.779   1.730   2.477  1.0505 -2.6317 -1.4657
  846SOL    HW2 2538   1.898   1.817   2.390  0.1094  1.0636 -1.0999
  847SOL     OW 2539   2.037   2.797   1.967  0.2067  0.2020 -0.0636
  847SOL    HW1 2540   2.001   2.716   2.015  0.5158 -0.8655 -0.3126
  847SOL    HW2 2541   1.958   2.830   1.913 -1.0549 -4.9654  2.7631
  848SOL     OW 2542   0.234   2.759   0.405  0.0656  0.6149 -0.1777
  848SOL    HW1 2543   0.174   2.819   0.349  1.6973 -3.6772  0.8472
  848SOL    HW2 2544   0.270   2.677   0.353  1.8908  0.1505  0.8410
  849SOL     OW 2545   0.620   2.679   1.227  0.3512  0.3764  0.2633
  849SOL    HW1 2546   0.698   2.651   1.289 -0.0232  0.5140 -0.1747
  849SOL    HW2 2547   0.658   2.743   1.157 -1.2350  0.0042 -1.2022
  850SOL     OW 2548   0.213   1.476   0.929  0.1417 -0.7749 -0.6293
  850SOL    HW1 2549   0.178   1.481   1.024 -1.1875 -1.3444  0.4095
  850SOL    HW2 2550   0.172   1.552   0.874 -0.2362  2.1781 -0.2992
  851SOL     OW 2551   0.097   0.630   2.952 -0.2602 -0.1215  0.3431
  851SOL    HW1 2552   0.187   0.643   3.002 -0.6595  0.7504 -0.1993
  851SOL    HW2 2553   0.108   0.608   2.852  2.1289  0.8633 -1.6166
  852SOL     OW 2554   1.513   1.936   2.183  0.0390  0.0898  0.7007
  852SOL    HW1 2555   1.581   1.862   2.179 -1.1000  1.0185 -2.2783
  852SOL    HW2 2556   1.465   1.933   2.267  0.6899  0.6985 -2.2065
  853SOL     OW 2557   0.696   1.838   0.677 -0.0922 -0.0223  0.2266
  853SOL    HW1 2558   0.698   1.937   0.701 -0.1621 -1.3238 -1.1441
  853SOL    HW2 2559   0.662   1.821   0.582 -0.8113 -1.6766  0.3906
  854SOL     OW 2560   1.595   0.954   1.564  0.0760  0.0346 -0.4791
  854SOL    HW1 2561   1.665   0.985   1.631 -0.6798 -0.9059 -1.3652
  854SOL    HW2 2562   1.619   0.986   1.470  1.7631  0.6573  0.1859
  855SOL     OW 2563   0.424   1.956   0.170 -0.1132  0.1991  0.1479
  855SOL    HW1 2564   0.483   1.966   0.086  1.9840  0.1228 -1.5746
  855SOL    HW2 2565   0.366   2.039   0.179  1.3171 -1.3467  0.4872
  856SOL     OW 2566   0.081   0.156   1.681 -0.2661 -0.0674  0.0799
  856SOL    HW1 2567   0.145   0.077   1.690  2.4472  1.1569  1.0884
  856SOL    HW2 2568   3.055   0.117   1.679  3.1315  0.6174  0.1828
  857SOL     OW 2569   0.377   0.174   1.858  0.2863  0.3306  0.0720
  857SOL    HW1 2570   0.299   0.219   1.899 -1.0597  1.5427 -1.4021
  857SOL    HW2 2571   0.417   0.237   1.787 -1.4448 -1.8943  1.6619
  858SOL     OW 2572   2.708   1.939   2.257 -0.3407 -0.3990 -0.1722
  858SOL    HW1 2573   2.795   1.974   2.222  1.1333  1.2712  1.2052
  858SOL    HW2 2574   2.675   2.013   2.321 -1.4143 -1.5940  0.9420
  859SOL     OW 2575   2.204   2.742   0.758  0.3570 -0.4432  0.3527
  859SOL    HW1 2576   2.277   2.780   0.698 -0.0842 -1.7486  0.8009
  859SOL    HW2 2577   2.246   2.671   0.817 -2.1056 -0.1247  0.4727
  860SOL     OW 2578   1.827   0.481   0.524  0.6524  0.4602  0.0270
  860SOL    HW1 2579   1.787   0.503   0.613 -0.7579  2.6185 -0.1717
  860SOL    HW2 2580   1.820   0.560   0.461  0.5708 -0.8857  0.9427
  861SOL     OW 2581   0.337   0.342   0.917  0.1426 -0.0450 -0.2089
  861SOL    HW1 2582   0.414   0.407   0.937  1.2236  1.0494  1.6128
  861SOL    HW2 2583   0.280   0.322   0.998 -2.3414  2.0608 -0.3789
  862SOL     OW 2584   2.203   0.701   1.718 -0.2708 -0.0896  0.4442
  862SOL    HW1 2585   2.192   0.596   1.708 -0.2743 -1.9797 -2.9896
  862SOL    HW2 2586   2.190   0.741   1.625  0.9511  0.2769  0.6864
  863SOL     OW 2587   0.535   1.539   1.161  0.5164  0.4871  0.3794
  863SOL    HW1 2588   0.513   1.493   1.070 -2.5916 -3.0611 -0.4546
  863SOL    HW2 2589   0.508   1.636   1.158 -2.2063 -1.1780  2.2041
  864SOL     OW 2590   2.399   0.162   2.122 -0.3067 -0.0389  0.9251
  864SOL    HW1 2591   2.388   0.119   2.029  1.0143  0.6021 -1.8535
  864SOL    HW2 2592   2.353   0.104   2.195  0.1395  1.6520 -0.1159
  865SOL     OW 2593   1.660   0.444   1.930 -0.1781  0.3586 -0.2152
  865SOL    HW1 2594   1.652   0.415   1.834 -1.8345  0.3884  0.1103
  865SOL    HW2 2595   1.609   0.371   1.982 -1.4059  0.1109 -0.5526
  866SOL     OW 2596   2.711   2.886   0.803 -0.2176 -0.0581  0.2520
  866SOL    HW1 2597   2.806   2.847   0.798  0.9608  0.3296  0.8013
  866SOL    HW2 2598   2.711   2.969   0.748  2.5923 -2.4199 -2.6291
  867SOL     OW 2599   2.571   2.603   0.483  0.0501 -0.0501  0.0515
  867SOL    HW1 2600   2.572   2.693   0.437  0.1750 -0.4524  2.0945
  867SOL    HW2 2601   2.542   2.526   0.424  1.3206 -0.4921  1.0010
  868SOL     OW 2602   1.393   1.736   2.624  0.9120  0.0797  0.9635
  868SOL    HW1 2603   1.326   1.791   2.680  1.2391  0.0441  0.2406
  868SOL    HW2 2604   1.450   1.678   2.685 -0.9115  1.1489 -1.7058
  869SOL     OW 2605   2.443   1.692   0.661  0.2398  0.7565  1.0685
  869SOL    HW1 2606   2.369   1.644   0.608  1.9619 -1.9768  0.2960
  869SOL    HW2 2607   2.417   1.793   0.666  1.3172  0.7204  0.1425
  870SOL     OW 2608   2.746   1.797   0.303  0.2849  0.4337  0.0487
  870SOL    HW1 2609   2.804   1.712   0.307 -2.1464  2.0063  0.1623
  870SOL    HW2 2610   2.787   1.873   0.255  0.1829 -0.1819 -0.4781
  871SOL     OW 2611   0.173   0.880   1.672 -0.6530 -0.1150  0.5925
  871SOL    HW1 2612   0.166   0.854   1.576  2.0699 -1.3325 -0.5116
  871SOL    HW2 2613   0.097   0.941   1.706  0.0853  0.3103  0.3808
  872SOL     OW 2614   0.306   1.879   2.169 -0.1823 -0.1228  0.6972
  872SOL    HW1 2615   0.276   1.810   2.240 -1.0437 -0.1877  0.5232
  872SOL    HW2 2616   0.400   1.859   2.139  0.7944  2.9032 -1.0172
  873SOL     OW 2617   0.471   2.422   1.770 -0.1700  0.9362 -0.3808
  873SOL    HW1 2618   0.415   2.341   1.809 -2.1612 -2.1723  1.2408
  873SOL    HW2 2619   0.566   2.385   1.751  0.4583 -0.4741  1.0337
  874SOL     OW 2620   1.055   0.923   2.110 -0.0847  0.5875  0.1082
  874SOL    HW1 2621   1.092   1.003   2.158  1.1870  1.3824  1.8067
  874SOL    HW2 2622   1.122   0.861   2.064  0.6999 -1.1579  1.0544
  875SOL     OW 2623   2.778   2.708   1.144  0.5221 -0.2755  0.3611
  875SOL    HW1 2624   2.771   2.677   1.244  2.7662  1.6753  0.2590
  875SOL    HW2 2625   2.870   2.695   1.117 -0.3881 -0.0551 -0.9690
  876SOL     OW 2626   1.090   1.210   0.472  0.0888 -0.0179  0.5900
  876SOL    HW1 2627   1.100   1.214   0.577 -1.2551 -0.7819  4.9945
  876SOL    HW2 2628   1.081   1.298   0.420 -0.4046 -0.1804 -0.0852
  877SOL     OW 2629   1.017   0.657   1.155 -0.0770  0.0202 -0.9399
  877SOL    HW1 2630   1.081   0.737   1.158 -2.9326  1.2657 -0.2122
  877SOL    HW2 2631   1.070   0.569   1.131  1.5335 -5.7856  2.6568
  878SOL     OW 2632   2.566   1.771   3.006 -0.6761 -0.4220  0.5549
  878SOL    HW1 2633   2.552   1.673   3.012  1.6546  0.5549  1.0088
  878SOL    HW2 2634   2.628   1.796   2.933 -0.8246  0.4894  2.5360
  879SOL     OW 2635   2.359   1.993   1.799 -0.2775  0.0679  0.3927
  879SOL    HW1 2636   2.425   1.917   1.775 -0.3147 -1.3826 -0.2410
  879SOL    HW2 2637   2.422   2.065   1.839  1.3331 -0.3366  1.1533
  880SOL     OW 2638   1.036   2.249   1.084  0.0486  0.1507  0.2139
  880SOL    HW1 2639   1.127   2.294   1.070  0.1977 -1.4913 -2.1155
  880SOL    HW2 2640   1.045   2.181   1.162 -0.5575  0.5686  2.2083
  881SOL     OW 2641   1.024   1.952   0.796  0.4965 -0.9817 -0.8527
  881SOL    HW1 2642   1.004   2.053   0.821 -1.0718  3.5898  1.1665
  881SOL    HW2 2643   0.977   1.881   0.858 -0.1759 -0.7146  0.3749
  882SOL     OW 2644   1.758   1.682   2.684  0.4519  0.2384 -0.3180
  882SOL    HW1 2645   1.838   1.620   2.659 -0.0007 -1.5354 -3.1430
  882SOL    HW2 2646   1.780   1.775   2.716  0.6361 -0.5456 -0.5089
  883SOL     OW 2647   1.531   0.581   1.189 -0.4095  0.0026 -0.1257
  883SOL    HW1 2648   1.494   0.662   1.143  0.5973 -4.7745  2.5496
  883SOL    HW2 2649   1.497   0.500   1.134 -0.2687 -1.5990 -0.0467
  884SOL     OW 2650   3.019   2.714   1.030  0.5504 -0.0527 -0.3752
  884SOL    HW1 2651   3.010   2.730   0.931 -2.0167  0.4158  0.7540
  884SOL    HW2 2652   3.056   2.623   1.046  2.1300  0.4609 -1.5459
  885SOL     OW 2653   0.601   1.276   1.920 -0.3487  0.1570  0.6834
  885SOL    HW1 2654   0.582   1.311   2.014 -2.5596  1.3681  0.2108
  885SOL    HW2 2655   0.666   1.199   1.923 -0.9692 -0.6395 -1.8405
  886SOL     OW 2656   1.094   1.413   2.523 -0.2376 -0.0143  0.0714
  886SOL    HW1 2657   1.047   1.413   2.614 -2.6573 -1.6525 -1.5314
  886SOL    HW2 2658   1.196   1.399   2.531  1.4660  0.8349 -1.4488
  887SOL     OW 2659   1.447   0.211   0.850 -0.2810  0.1935 -0.0910
  887SOL    HW1 2660   1.522   0.143   0.845 -1.2168 -0.8981 -1.5681
  887SOL    HW2 2661   1.392   0.218   0.765  1.1239 -0.0234 -1.1004
  888SOL     OW 2662   1.939   0.856   2.307  0.1799  0.3936  0.5547
  888SOL    HW1 2663   1.917   0.780   2.374  1.1944 -1.7651 -0.3484
  888SOL    HW2 2664   1.860   0.866   2.245 -2.4071  0.7751  0.2211
  889SOL     OW 2665   2.830   2.027   0.946  0.2187 -0.8786  0.2387
  889SOL    HW1 2666   2.881   1.987   1.024  0.3671  1.5700  0.5160
  889SOL    HW2 2667   2.729   2.020   0.961  0.6971 -1.5661 -0.6149
  890SOL     OW 2668   1.159   2.175   0.234  0.4805  0.5865  0.4364
  890SOL    HW1 2669   1.060   2.186   0.265 -1.2798  0.6217 -0.0947
  890SOL    HW2 2670   1.204   2.265   0.237 -1.9681 -0.8404 -0.0877
  891SOL     OW 2671   2.786   0.739   2.585  0.0384 -0.4213  0.0844
  891SOL    HW1 2672   2.803   0.789   2.499  0.3723 -0.5719  2.7319
  891SOL    HW2 2673   2.695   0.699   2.583  0.1375  0.3019  3.6863
  892SOL     OW 2674   2.987   2.389   1.248 -0.0303  0.2121  0.0628
  892SOL    HW1 2675   0.009   2.382   1.200 -0.1597 -1.3195 -0.9424
  892SOL    HW2 2676   2.960   2.296   1.285 -1.4004  0.4262  0.0415
  893SOL     OW 2677   1.090   0.140   1.027 -0.0342  0.3499  0.4332
  893SOL    HW1 2678   1.147   0.062   0.991 -0.7683  0.0766 -0.6815
  893SOL    HW2 2679   1.108   0.153   1.128 -0.8293  1.1008 -3.4894
  894SOL     OW 2680   2.602   0.098   1.000 -0.0763 -0.2313 -0.0187
  894SOL    HW1 2681   2.531   0.027   0.979 -0.0726 -1.1027 -0.3176
  894SOL    HW2 2682   2.679   0.049   1.044 -0.8835 -2.4489 -0.7643
  895SOL     OW 2683   1.555   1.909   2.465  0.3875 -0.4319 -0.1878
  895SOL    HW1 2684   1.633   1.843   2.446 -1.9332 -2.1011  0.4605
  895SOL    HW2 2685   1.496   1.856   2.531  3.4617 -2.3496  0.4544
  896SOL     OW 2686   1.949   0.781   1.309 -0.1395  0.3044 -0.0659
  896SOL    HW1 2687   2.025   0.804   1.374 -1.1012 -0.0839  0.7953
  896SOL    HW2 2688   1.993   0.792   1.217  0.7259 -0.2553  0.1707
  897SOL     OW 2689   0.422   1.115   1.317  0.5010 -0.3368 -0.5522
  897SOL    HW1 2690   0.392   1.184   1.247  0.4608  0.4026  0.3616
  897SOL    HW2 2691   0.341   1.082   1.371 -0.9616 -2.2103  1.7634
  898SOL     OW 2692   1.617   2.495   2.233  0.5065  0.4069 -0.0135
  898SOL    HW1 2693   1.523   2.487   2.273 -2.1366  0.3858  2.3594
  898SOL    HW2 2694   1.624   2.446   2.146  1.9492  1.6760  3.3380
  899SOL     OW 2695   1.228   1.658   0.976  0.8762 -0.4159 -0.1323
  899SOL    HW1 2696   1.256   1.739   1.040 -0.2102  1.0572  0.9558
  899SOL    HW2 2697   1.307   1.633   0.916 -0.0519  0.1809  2.6459
  900SOL     OW 2698   0.625   2.756   2.411 -0.1136  0.2340 -0.3884
  900SOL    HW1 2699   0.577   2.757   2.499  0.7761  3.1892  0.1918
  900SOL    HW2 2700   0.645   2.847   2.373  1.2143 -3.8866  2.3434
  901SOL     OW 2701   0.751   1.504   2.274  0.1508 -0.0478  0.0987
  901SOL    HW1 2702   0.710   1.526   2.363 -0.4817 -0.0778 -2.3248
  901SOL    HW2 2703   0.788   1.409   2.281 -0.9453 -3.8950  1.1144
  902SOL     OW 2704   2.288   1.000   2.953  0.2072 -0.6706  0.2529
  902SOL    HW1 2705   2.245   1.054   3.023 -0.8305  0.8070 -0.8232
  902SOL    HW2 2706   2.272   0.901   2.972  0.9102 -0.5403  0.7192
  903SOL     OW 2707   1.943   1.340   2.711  0.2237 -0.1655  0.2426
  903SOL    HW1 2708   1.890   1.342   2.800 -0.4868 -4.1963  0.4617
  903SOL    HW2 2709   1.884   1.285   2.645 -1.5198 -1.2626  0.2988
  904SOL     OW 2710   1.620   1.255   1.768 -0.1119  0.1276  0.2962
  904SOL    HW1 2711   1.524   1.266   1.753  1.7373  0.1994 -1.9653
  904SOL    HW2 2712   1.669   1.337   1.732  1.4445  0.1014 -0.2020
  905SOL     OW 2713   2.589   0.587   1.016  0.2110 -0.9898 -0.0489
  905SOL    HW1 2714   2.523   0.529   0.963  1.8394  0.4411  2.2830
  905SOL    HW2 2715   2.670   0.529   1.034 -2.5917 -2.2504 -1.0803
  906SOL     OW 2716   0.354   1.456   0.577 -0.3241 -0.2048  0.1527
  906SOL    HW1 2717   0.388   1.401   0.651 -1.1680  1.3151 -2.9457
  906SOL    HW2 2718   0.260   1.423   0.552  0.8392 -1.3092  1.1026
  907SOL     OW 2719   1.382   2.938   0.449 -0.0084  0.2119 -0.6218
  907SOL    HW1 2720   1.425   3.033   0.453 -1.1762 -1.3701 -0.9176
  907SOL    HW2 2721   1.450   2.872   0.416 -4.9147 -1.1756 -0.1310
  908SOL     OW 2722   1.162   2.722   1.513 -0.4406 -0.3760  0.5997
  908SOL    HW1 2723   1.129   2.635   1.551  1.9872  3.0308  1.2873
  908SOL    HW2 2724   1.086   2.790   1.496 -0.7870 -2.0587 -2.3802
  909SOL     OW 2725   2.431   0.782   1.852 -0.3213 -0.0693 -0.2966
  909SOL    HW1 2726   2.431   0.709   1.927  0.1536 -0.5673  1.5917
  909SOL    HW2 2727   2.349   0.778   1.794 -0.6693  0.0935  0.1548
  910SOL     OW 2728   1.320   0.095   2.168 -0.0302  0.8351  0.2159
  910SOL    HW1 2729   1.268   0.110   2.251 -1.5774 -0.1243 -1.7841
  910SOL    HW2 2730   1.307   0.002   2.130  0.1740  1.3490  1.0413
  911SOL     OW 2731   2.375   1.670   2.440  0.3903  0.4254 -0.2481
  911SOL    HW1 2732   2.446   1.705   2.373 -2.1125 -1.2399  0.5429
  911SOL    HW2 2733   2.329   1.581   2.411 -3.7104  2.0859 -1.9978
  912SOL     OW 2734   2.346   2.204   1.278  0.5361  0.1972 -0.2858
  912SOL    HW1 2735   2.380   2.293   1.243 -0.3283 -1.3765  0.1379
  912SOL    HW2 2736   2.370   2.207   1.381  2.4792  2.1416  2.5994
  913SOL     OW 2737   2.525   2.186   1.889  0.7146  0.3668 -0.4145
  913SOL    HW1 2738   2.596   2.157   1.950  0.3621  1.2860 -3.0651
  913SOL    HW2 2739   2.547   2.269   1.838  0.2871 -2.3895  2.4736
  914SOL     OW 2740   1.989   2.230   0.847 -0.1110 -0.0376 -0.1998
  914SOL    HW1 2741   2.023   2.240   0.945  0.9516 -0.6100 -0.7603
  914SOL    HW2 2742   1.982   2.133   0.821 -0.7047  2.9568  0.7504
  915SOL     OW 2743   1.032   2.587   1.919  0.5333 -0.3786 -0.4364
  915SOL    HW1 2744   1.031   2.503   1.972  1.2067  1.3059 -1.4500
  915SOL    HW2 2745   1.044   2.568   1.818 -0.8933  0.6171 -0.4360
  916SOL     OW 2746   0.128   2.106   1.160  0.5315 -0.8027 -0.3642
  916SOL    HW1 2747   0.115   2.202   1.128 -1.0289  3.5579  0.5362
  916SOL    HW2 2748   0.205   2.067   1.111 -1.3863  0.9338  0.8731
  917SOL     OW 2749   2.861   1.251   2.719 -0.0527 -0.1432 -0.3622
  917SOL    HW1 2750   2.848   1.152   2.700  0.0623  1.7504 -1.0890
  917SOL    HW2 2751   2.902   1.298   2.639 -3.4925 -0.6416 -4.2001
  918SOL     OW 2752   1.198   2.087   2.578  0.0286 -0.1479  0.2944
  918SOL    HW1 2753   1.210   2.019   2.653  1.2157  1.8886  1.1006
  918SOL    HW2 2754   1.146   2.056   2.495 -0.7822  1.1074 -0.0798
  919SOL     OW 2755   1.729   2.218   0.792  0.3892 -0.1509 -0.4220
  919SOL    HW1 2756   1.681   2.143   0.839 -1.7407  1.6679 -0.4442
  919SOL    HW2 2757   1.826   2.228   0.815 -0.7631  0.5518 -1.1327
  920SOL     OW 2758   1.119   0.401   2.574 -0.2816 -0.6006  0.2379
  920SOL    HW1 2759   1.146   0.471   2.642 -2.0627  1.0338 -1.3379
  920SOL    HW2 2760   1.112   0.442   2.480 -0.7614 -2.0199  2.7736
  921SOL     OW 2761   3.044   0.335   2.697 -0.3236 -0.1219  0.0695
  921SOL    HW1 2762   3.027   0.409   2.633  0.7906 -0.1765  0.3421
  921SOL    HW2 2763   0.010   0.248   2.655 -0.7332  0.8078  0.0940
  922SOL     OW 2764   2.189   1.627   1.539  0.8480 -0.1040 -0.2210
  922SOL    HW1 2765   2.230   1.682   1.467  1.1736  0.5496 -1.2746
  922SOL    HW2 2766   2.252   1.556   1.572 -1.0430  0.1580  1.2447
  923SOL     OW 2767   0.118   1.831   2.562  0.3983 -0.1520 -0.2692
  923SOL    HW1 2768   0.030   1.881   2.556  0.7310 -2.1408  0.1383
  923SOL    HW2 2769   0.141   1.809   2.659  3.8109 -1.7313  2.0483
  924SOL     OW 2770   1.761   0.230   2.387  0.2685 -0.3365  0.9781
  924SOL    HW1 2771   1.723   0.187   2.468  1.5417  2.6932 -1.1743
  924SOL    HW2 2772   1.772   0.330   2.404  0.3920  0.4197  2.8215
  925SOL     OW 2773   2.915   0.929   3.048 -0.1235  0.3612  0.1307
  925SOL    HW1 2774   2.882   0.868   2.974  1.4820  0.4275 -0.1231
  925SOL    HW2 2775   2.861   0.925   0.065  2.9818 -0.3139  0.4556
  926SOL     OW 2776   2.800   0.263   0.725 -0.0538  0.1481 -0.2596
  926SOL    HW1 2777   2.827   0.361   0.748  1.0924  2.0448 -0.2472
  926SOL    HW2 2778   2.744   0.216   0.798 -0.8926 -1.0578 -0.7743
  927SOL     OW 2779   1.204   0.922   0.615 -0.4283  0.2940 -0.2437
  927SOL    HW1 2780   1.194   0.920   0.512  1.2588  1.7561 -0.5372
  927SOL    HW2 2781   1.111   0.900   0.652  2.3129  1.5633 -1.2335
  928SOL     OW 2782   0.129   0.077   2.127  0.0705  0.4698  0.5116
  928SOL    HW1 2783   0.081   0.119   2.046  0.6146  1.7171 -0.4806
  928SOL    HW2 2784   0.189   0.147   2.175  3.1049  2.1355  0.5067
  929SOL     OW 2785   2.610   0.759   1.427  0.1366 -0.5663  0.2889
  929SOL    HW1 2786   2.701   0.801   1.425 -2.0670 -0.5416 -1.0645
  929SOL    HW2 2787   2.583   0.721   1.511 -0.6785  0.2672 -4.8099
  930SOL     OW 2788   1.866   2.618   0.993  0.2230 -0.2943  0.9197
  930SOL    HW1 2789   1.765   2.640   0.968 -3.3416  1.1892 -0.2413
  930SOL    HW2 2790   1.927   2.596   0.915  1.0442  1.0623  0.5969
  931SOL     OW 2791   1.873   1.090   1.030 -0.0349  0.1013  0.2411
  931SOL    HW1 2792   1.859   1.175   0.974  1.6553  1.7827  1.5050
  931SOL    HW2 2793   1.847   1.007   0.972 -0.5579 -1.2082 -0.0061
  932SOL     OW 2794   0.155   0.808   1.407  0.2384 -0.1126 -0.2954
  932SOL    HW1 2795   0.093   0.856   1.343  0.0891 -3.2978  1.8126
  932SOL    HW2 2796   0.107   0.724   1.429  0.9885 -1.4241 -1.2382
  933SOL     OW 2797   2.130   1.687   2.148 -0.0146  0.3978 -0.2289
  933SOL    HW1 2798   2.067   1.609   2.162 -0.1839 -0.1626 -2.0076
  933SOL    HW2 2799   2.128   1.712   2.048 -2.3162 -2.6050 -0.5036
  934SOL     OW 2800   1.642   2.791   1.326  0.7820 -0.6512 -0.0695
  934SOL    HW1 2801   1.649   2.783   1.224  2.5273 -2.2833 -0.0927
  934SOL    HW2 2802   1.556   2.846   1.350  1.7218 -0.6222 -0.3677
  935SOL     OW 2803   0.555   0.557   1.455 -0.4333 -0.1689 -1.2053
  935SOL    HW1 2804   0.522   0.650   1.425  0.4185 -0.3945  0.2261
  935SOL    HW2 2805   0.622   0.565   1.529  1.6747  1.5664  0.3452
  936SOL     OW 2806   2.443   0.636   1.267 -0.2893 -0.6097  0.4595
  936SOL    HW1 2807   2.500   0.609   1.182  1.7089  1.6065 -1.9963
  936SOL    HW2 2808   2.492   0.709   1.322  1.8486 -0.9795 -0.3191
  937SOL     OW 2809   0.957   2.947   1.159  0.1132  0.1976  0.4703
  937SOL    HW1 2810   0.895   2.975   1.233  1.6643 -2.3962 -3.0165
  937SOL    HW2 2811   0.999   3.027   1.112 -1.3641  1.3366  1.8779
  938SOL     OW 2812   2.953   2.272   0.904 -0.2234 -0.0835 -0.1182
  938SOL    HW1 2813   2.919   2.178   0.926 -0.6253 -0.1965  3.2153
  938SOL    HW2 2814   2.906   2.338   0.965  0.3700 -3.9696 -0.2466
  939SOL     OW 2815   0.165   1.702   2.798  0.0691 -0.0888  0.5937
  939SOL    HW1 2816   0.070   1.676   2.780 -2.5027 -0.7498  0.5800
  939SOL    HW2 2817   0.192   1.657   2.889 -1.3252 -0.1216  1.6750
  940SOL     OW 2818   2.420   2.761   2.811  1.1427 -0.9193 -0.3892
  940SOL    HW1 2819   2.409   2.740   2.711 -3.6377  3.0222  1.4026
  940SOL    HW2 2820   2.424   2.864   2.821 -1.1376 -0.0082  1.1776
  941SOL     OW 2821   1.511   2.812   0.210  0.1789  0.3648  0.2262
  941SOL    HW1 2822   1.549   2.754   0.133  2.3097 -0.4138 -1.3979
  941SOL    HW2 2823   1.591   2.845   0.265 -0.2491 -2.7648 -1.4047
  942SOL     OW 2824   1.605   1.996   1.431  0.2334  0.0476  0.8721
  942SOL    HW1 2825   1.560   1.912   1.467 -0.2276  0.8646  0.3009
  942SOL    HW2 2826   1.628   2.061   1.503 -1.1588 -2.7195 -2.9745
  943SOL     OW 2827   1.834   0.852   1.791  0.0284 -0.3582 -0.4276
  943SOL    HW1 2828   1.747   0.798   1.808 -2.5879 -0.5660  0.7830
  943SOL    HW2 2829   1.910   0.814   1.850  0.6407  0.9276  1.2147
  944SOL     OW 2830   1.618   0.714   1.832  0.1210 -0.2135 -0.4974
  944SOL    HW1 2831   1.599   0.690   1.734 -0.7905 -0.4753 -2.2393
  944SOL    HW2 2832   1.640   0.637   1.892  0.1734  2.4792 -0.3169
  945SOL     OW 2833   2.670   2.249   1.154 -0.0630  0.0364  0.1295
  945SOL    HW1 2834   2.717   2.327   1.114 -0.1665  1.2670  1.1674
  945SOL    HW2 2835   2.739   2.191   1.200  0.6452 -1.5752 -0.0826
  946SOL     OW 2836   0.819   1.119   1.627  0.3518 -0.0567 -0.1341
  946SOL    HW1 2837   0.902   1.170   1.611 -0.8593  2.6544  2.4016
  946SOL    HW2 2838   0.734   1.149   1.578 -0.5831  0.1139  0.2438
  947SOL     OW 2839   0.491   2.533   0.684  0.0904  0.0354 -0.1004
  947SOL    HW1 2840   0.483   2.507   0.784 -1.5714  0.4763  1.2297
  947SOL    HW2 2841   0.424   2.478   0.635 -0.3164  3.4405  2.7449
  948SOL     OW 2842   3.041   1.518   1.730  0.0167  0.4691  0.1503
  948SOL    HW1 2843   0.027   1.444   1.777  0.6067  1.5733 -2.8571
  948SOL    HW2 2844   0.028   1.557   1.651  0.8299 -0.3372 -3.2572
  949SOL     OW 2845   0.363   0.551   2.201  0.0921  0.3915 -0.0091
  949SOL    HW1 2846   0.460   0.544   2.236  0.2654  0.3918  1.5655
  949SOL    HW2 2847   0.355   0.584   2.103  1.7353 -1.2632 -1.0113
  950SOL     OW 2848   0.417   0.795   0.855 -0.1822  0.6388 -0.1202
  950SOL    HW1 2849   0.498   0.850   0.877 -0.0537 -1.3778 -0.4058
  950SOL    HW2 2850   0.375   0.821   0.765  2.3663  2.7425 -0.8295
  951SOL     OW 2851   0.867   1.732   2.346  0.0704 -0.3785  0.0104
  951SOL    HW1 2852   0.856   1.633   2.318 -0.7929  0.3564 -0.5467
  951SOL    HW2 2853   0.789   1.792   2.313 -2.8197 -0.0251  0.1274
  952SOL     OW 2854   1.307   1.336   2.795 -0.2216  0.0858 -0.3127
  952SOL    HW1 2855   1.335   1.372   2.702  2.4740  3.3004  0.0814
  952SOL    HW2 2856   1.380   1.363   2.864 -0.9712 -0.7403  0.8817
  953SOL     OW 2857   1.057   2.929   2.204  0.3240 -0.1851 -0.7405
  953SOL    HW1 2858   1.006   2.842   2.207  2.1209 -0.9657  1.4044
  953SOL    HW2 2859   1.033   2.985   2.289 -0.9946 -0.4234  2.8985
  954SOL     OW 2860   2.265   1.577   0.497 -0.2716 -0.0585  0.0010
  954SOL    HW1 2861   2.290   1.603   0.401 -1.1079  0.2862  0.4858
  954SOL    HW2 2862   2.315   1.491   0.519 -0.1611  2.7288  0.5498
  955SOL     OW 2863   0.053   2.330   2.848 -0.3009  0.4602  0.3261
  955SOL    HW1 2864   0.133   2.267   2.837 -0.8026 -0.1709 -1.5319
  955SOL    HW2 2865   0.033   2.337   2.947 -0.6649 -2.3552 -0.4989
  956SOL     OW 2866   1.105   0.741   1.511 -0.3657 -0.1803 -0.4014
  956SOL    HW1 2867   1.146   0.713   1.426 -2.5270  1.0239  0.4490
  956SOL    HW2 2868   1.143   0.836   1.540  1.7868  2.9522  0.8332
  957SOL     OW 2869   2.003   1.442   2.249  0.4418 -0.0082 -0.8011
  957SOL    HW1 2870   2.017   1.358   2.187 -0.0253  0.1695 -2.0689
  957SOL    HW2 2871   1.920   1.429   2.308 -0.8414  0.8869  2.7025
  958SOL     OW 2872   1.580   2.508   1.401  0.5871  0.1491 -0.2731
  958SOL    HW1 2873   1.580   2.606   1.376  0.9798 -1.2714  0.0672
  958SOL    HW2 2874   1.631   2.452   1.330  1.4744  0.4996 -1.1832
  959SOL     OW 2875   1.608   1.553   1.881 -0.6329 -0.0239 -0.5629
  959SOL    HW1 2876   1.686   1.542   1.814  0.2628  2.1716 -1.2734
  959SOL    HW2 2877   1.536   1.601   1.832 -0.0072 -1.6344 -2.3652
  960SOL     OW 2878   2.876   0.985   2.682 -0.3238  0.0836  0.7182
  960SOL    HW1 2879   2.835   0.926   2.612 -4.1207 -3.1427 -0.7566
  960SOL    HW2 2880   2.974   0.954   2.701 -1.0031 -0.0374  2.2441
  961SOL     OW 2881   0.377   0.662   1.953  0.1623  0.0697 -0.6820
  961SOL    HW1 2882   0.330   0.603   1.892  3.4166 -0.0291  4.6744
  961SOL    HW2 2883   0.457   0.705   1.905 -3.1804 -0.4492 -1.7558
  962SOL     OW 2884   1.553   1.595   0.422  0.3727  0.7294 -0.3972
  962SOL    HW1 2885   1.461   1.578   0.462  2.0171 -1.1324 -2.0181
  962SOL    HW2 2886   1.615   1.525   0.462 -0.5050  1.6828  0.0270
  963SOL     OW 2887   1.336   2.335   2.560 -0.0644 -0.3426 -0.3983
  963SOL    HW1 2888   1.275   2.410   2.589  1.1639  1.8034  0.1660
  963SOL    HW2 2889   1.290   2.242   2.559  1.4156  0.1628  0.4217
  964SOL     OW 2890   0.906   2.196   0.334 -0.4847 -0.0567  0.1306
  964SOL    HW1 2891   0.842   2.190   0.253 -3.3516 -0.6913 -1.3504
  964SOL    HW2 2892   0.926   2.288   0.369  0.9918 -1.9725  1.0000
  965SOL     OW 2893   0.582   3.045   0.917 -0.0427  0.2125  0.1674
  965SOL    HW1 2894   0.541   3.053   1.008 -2.5123 -0.0952 -1.1587
  965SOL    HW2 2895   0.539   0.054   0.861  1.5185  0.6826  2.1393
  966SOL     OW 2896   3.037   1.128   2.919 -0.0131 -0.2944  0.4666
  966SOL    HW1 2897   2.969   1.162   2.848 -3.1666 -0.0450  2.0699
  966SOL    HW2 2898   2.998   1.045   2.967 -1.6160  0.0383 -0.4444
  967SOL     OW 2899   0.907   2.965   1.751 -0.0532 -0.1818  0.0770
  967SOL    HW1 2900   0.860   3.057   1.755 -0.1583 -0.4630 -1.5220
  967SOL    HW2 2901   1.003   2.971   1.796  2.3340 -1.1805  1.9337
  968SOL     OW 2902   1.987   0.329   0.394  0.1017  0.4113  0.1039
  968SOL    HW1 2903   2.062   0.315   0.463 -3.7468  0.5561  1.8358
  968SOL    HW2 2904   1.918   0.392   0.433  1.0259 -0.7246 -1.3324
  969SOL     OW 2905   3.016   1.651   2.038  0.0402 -0.0926  0.0467
  969SOL    HW1 2906   2.939   1.663   1.977  0.1172 -0.3172  1.7455
  969SOL    HW2 2907   0.036   1.639   1.984  1.2225 -0.3214 -0.3488
  970SOL     OW 2908   2.145   1.255   1.395  0.2197 -0.3533 -0.1526
  970SOL    HW1 2909   2.200   1.327   1.351  0.9212 -0.3947  0.1656
  970SOL    HW2 2910   2.204   1.205   1.460 -1.9008  1.5095 -2.4883
  971SOL     OW 2911   1.875   0.299   1.177  0.6008 -0.3055  0.2737
  971SOL    HW1 2912   1.965   0.330   1.208 -2.0426  1.8972  0.9728
  971SOL    HW2 2913   1.878   0.271   1.075  0.2162 -0.9157 -4.4351
  972SOL     OW 2914   0.545   2.863   1.795 -0.0639  0.6231  0.1800
  972SOL    HW1 2915   0.587   2.954   1.783  2.9016  1.4843  1.4742
  972SOL    HW2 2916   0.513   2.819   1.710  0.5320  1.0756  0.5958
  973SOL     OW 2917   2.759   1.041   0.263  0.3513  0.8616 -0.0369
  973SOL    HW1 2918   2.670   1.031   0.215 -2.4191 -2.9525  2.8387
  973SOL    HW2 2919   2.775   0.949   0.307  2.4652 -0.5281  0.9230
  974SOL     OW 2920   1.736   1.426   2.349 -0.3964  0.0362  0.9714
  974SOL    HW1 2921   1.723   1.384   2.259 -1.6535  2.1587  0.8475
  974SOL    HW2 2922   1.647   1.476   2.366  1.0475  0.8780  0.2072
  975SOL     OW 2923   0.215   2.525   1.369 -0.3429  0.6408  0.2937
  975SOL    HW1 2924   0.246   2.562   1.280  2.0347 -2.5116  1.5074
  975SOL    HW2 2925   0.125   2.562   1.401 -1.3886  2.3492 -0.6612
  976SOL     OW 2926   0.158   1.570   1.533  0.3012 -0.0112  0.1746
  976SOL    HW1 2927   0.258   1.548   1.533  1.3891  0.3030  0.0508
  976SOL    HW2 2928   0.105   1.538   1.446  1.4785 -1.4339 -2.7067
  977SOL     OW 2929   0.726   2.415   2.882  0.2983 -0.0510 -0.3534
  977SOL    HW1 2930   0.726   2.442   2.784  1.9961  0.9525  0.6403
  977SOL    HW2 2931   0.816   2.371   2.911  1.7227  0.8517  0.6968
  978SOL     OW 2932   0.505   1.755   2.435  0.1986  0.9213 -0.4451
  978SOL    HW1 2933   0.578   1.822   2.418 -0.6354 -0.5610 -0.1252
  978SOL    HW2 2934   0.541   1.687   2.503 -1.1045 -1.3020  0.6281
  979SOL     OW 2935   1.530   2.366   1.038  0.4022 -0.2818 -0.0941
  979SOL    HW1 2936   1.614   2.373   1.093 -0.2126  1.0002 -2.0149
  979SOL    HW2 2937   1.542   2.366   0.938 -0.4203 -1.3940 -1.4503
  980SOL     OW 2938   0.957   1.606   2.964  0.3047  0.0740 -0.4839
  980SOL    HW1 2939   0.865   1.638   2.931 -0.4307  1.4115  0.4006
  980SOL    HW2 2940   1.014   1.683   3.001  1.2142 -1.7176  2.9133
  981SOL     OW 2941   2.677   0.078   2.525 -0.2637 -0.2597  0.3273
  981SOL    HW1 2942   2.743   0.145   2.488  0.1914 -0.3561 -0.6256
  981SOL    HW2 2943   2.589   0.101   2.479  0.3278 -0.7051 -3.2318
  982SOL     OW 2944   0.233   2.798   2.759  0.0781 -0.0122  0.5242
  982SOL    HW1 2945   0.160   2.730   2.777  2.1346  2.6337  0.3318
  982SOL    HW2 2946   0.301   2.792   2.835 -2.0544 -0.2818 -0.0384
  983SOL     OW 2947   2.295   1.073   2.027 -0.2665 -0.1588  0.6187
  983SOL    HW1 2948   2.280   1.150   2.092 -1.0609  1.3403  0.3737
  983SOL    HW2 2949   2.249   1.093   1.938  1.0942 -0.0761 -0.3498
  984SOL     OW 2950   1.497   0.297   2.165 -0.4226 -0.2788 -0.3290
  984SOL    HW1 2951   1.436   0.216   2.177 -0.3728  0.1959 -0.3325
  984SOL    HW2 2952   1.595   0.264   2.145  1.6654 -1.2416 -1.5697
  985SOL     OW 2953   1.075   1.928   2.022 -0.4382  0.2632 -0.2082
  985SOL    HW1 2954   1.050   1.857   1.948  0.0823 -0.2348 -2.1331
  985SOL    HW2 2955   1.098   1.878   2.108 -2.7494  0.2757 -0.8371
  986SOL     OW 2956   1.723   0.167   2.100 -0.6156  0.0852  0.2557
  986SOL    HW1 2957   1.802   0.196   2.045 -2.1022 -0.5061  0.8634
  986SOL    HW2 2958   1.756   0.148   2.196  0.5661  0.1691  1.8096
  987SOL     OW 2959   2.051   0.712   1.956 -0.5085 -0.4087  0.0239
  987SOL    HW1 2960   2.085   0.717   1.863  0.1147 -0.4555 -1.5071
  987SOL    HW2 2961   2.126   0.731   2.021 -0.7377  0.7036  1.6393
  988SOL     OW 2962   2.546   0.625   2.507  0.2547  0.4131  0.0335
  988SOL    HW1 2963   2.551   0.687   2.427  1.4307 -1.9772  2.3514
  988SOL    HW2 2964   2.453   0.578   2.512 -1.3847  0.3985  0.6972
  989SOL     OW 2965   2.441   2.644   2.552 -0.1779 -0.2547 -0.4617
  989SOL    HW1 2966   2.388   2.611   2.474  0.6720  1.2412 -0.2603
  989SOL    HW2 2967   2.544   2.646   2.519  2.8529  1.3093 -1.8598
  990SOL     OW 2968   0.425   0.637   2.839  0.5311  0.3005 -0.7398
  990SOL    HW1 2969   0.378   0.636   2.752  1.0876 -0.5140  1.6081
  990SOL    HW2 2970   0.389   0.700   2.908  0.1785 -1.7480 -1.3209
  991SOL     OW 2971   0.896   0.588   2.758 -0.9002  0.1821  0.2613
  991SOL    HW1 2972   0.862   0.498   2.794  0.3038 -2.8154  1.3345
  991SOL    HW2 2973   0.995   0.586   2.764 -0.4692 -0.7924 -2.7817
  992SOL     OW 2974   2.804   2.239   2.672  0.1789 -0.4217 -0.6925
  992SOL    HW1 2975   2.881   2.275   2.608  0.7804 -0.5024 -0.4591
  992SOL    HW2 2976   2.777   2.303   2.747 -0.6527  2.4042  3.0067
  993SOL     OW 2977   0.453   0.031   0.223  0.1087 -0.3970  0.1341
  993SOL    HW1 2978   0.506   3.011   0.246  0.8637 -1.6394 -1.6592
  993SOL    HW2 2979   0.399   0.025   0.136  4.4950  1.5400  0.5426
  994SOL     OW 2980   0.460   2.132   1.536  0.3878  0.6680  0.8750
  994SOL    HW1 2981   0.535   2.201   1.559 -0.9072 -1.3828 -0.4617
  994SOL    HW2 2982   0.372   2.169   1.497 -1.9608 -0.8584 -3.2482
  995SOL     OW 2983   2.272   1.838   3.043 -0.3756 -0.1987 -0.2780
  995SOL    HW1 2984   2.286   1.760   2.982 -1.3624  1.6186  2.3333
  995SOL    HW2 2985   2.174   1.825   0.002  1.9500 -1.2540  0.5947
  996SOL     OW 2986   1.543   1.605   2.400  0.1851  0.5523  0.1658
  996SOL    HW1 2987   1.504   1.600   2.304  0.2484  0.6610  2.2644
  996SOL    HW2 2988   1.485   1.672   2.452  1.4938  3.0852 -0.8463
  997SOL     OW 2989   1.737   1.000   1.321  0.0457  0.0654 -0.5203
  997SOL    HW1 2990   1.754   1.096   1.312 -1.0532 -2.4853  0.2514
  997SOL    HW2 2991   1.828   0.952   1.331  0.9949  1.8436 -0.4113
  998SOL     OW 2992   2.890   1.577   0.305 -0.4128 -0.0204  0.8657
  998SOL    HW1 2993   2.830   1.498   0.331 -3.9843 -3.2781 -1.5852
  998SOL    HW2 2994   2.919   1.571   0.208  2.0486  2.7377 -1.2422
  999SOL     OW 2995   2.696   2.548   0.203 -0.2092 -0.0680 -0.0083
  999SOL    HW1 2996   2.705   2.633   0.257 -1.8018  0.3326 -1.1847
  999SOL    HW2 2997   2.646   2.478   0.256  0.2154 -0.6741  0.6795
 1000SOL     OW 2998   0.732   2.983   2.050  0.1903 -0.3017  0.3462
 1000SOL    HW1 2999   0.682   3.029   1.976  1.5657  1.2575  1.2959
 1000SOL    HW2 3000   0.768   2.890   2.028  0.3941  1.3175  1.8837
   3.06629   3.06629   3.06629
