1000 SPC/Fw water molecules t= 113.00000 step= 113000
 3000
    1SOL     OW    1   2.045   2.402   0.544  0.4808 -0.7618  0.1750
    1SOL    HW1    2   2.025   2.365   0.453  1.7541 -0.2757 -0.1360
    1SOL    HW2    3   2.117   2.349   0.590 -4.9453  2.0074  0.3536
    2SOL     OW    4   1.463   1.514   2.230 -0.1647 -0.5597  0.6368
    2SOL    HW1    5   1.417   1.582   2.286 -1.5385 -0.1739  0.3802
    2SOL    HW2    6   1.411   1.488   2.147  0.9264 -3.3632 -2.1404
    3SOL     OW    7   1.334   2.396   2.211  0.1584  0.3774 -0.0984
    3SOL    HW1    8   1.368   2.439   2.128  0.1617  2.8440 -1.2817
    3SOL    HW2    9   1.367   2.305   2.225  0.0344  0.9887  1.4709
    4SOL     OW   10   1.063   1.995   1.990 -0.1557 -0.6991 -0.2813
    4SOL    HW1   11   1.066   1.933   2.073 -2.5027  1.0595  0.4061
    4SOL    HW2   12   1.055   2.094   2.016 -3.2814  0.5174 -1.5519
    5SOL     OW   13   0.468   0.825   1.779  0.4774  0.0221  0.3461
    5SOL    HW1   14   0.554   0.880   1.770  0.2043 -1.9764  1.3106
    5SOL    HW2   15   0.470   0.765   1.865 -1.8147 -0.8046  0.2520
    6SOL     OW   16   2.353   0.705   2.962 -0.5273  0.2878 -0.5280
    6SOL    HW1   17   2.280   0.716   2.893 -1.4184 -0.2806  1.4695
    6SOL    HW2   18   2.445   0.694   2.917  0.7034  0.2437  2.8354
    7SOL     OW   19   0.858   0.362   1.677 -0.3869  0.3038 -0.0922
    7SOL    HW1   20   0.909   0.301   1.742 -0.9967 -1.1637 -0.0301
    7SOL    HW2   21   0.916   0.392   1.601  0.5751  2.0908  1.9806
    8SOL     OW   22   1.525   0.010   1.840  0.1690  0.2490  0.6813
    8SOL    HW1   23   1.549   0.076   1.768  1.4495 -2.6306 -0.2193
    8SOL    HW2   24   1.603   3.099   1.901 -0.3266 -0.8769 -0.0915
    9SOL     OW   25   0.548   0.642   0.584 -0.6513  0.6318 -0.1587
    9SOL    HW1   26   0.590   0.613   0.669 -1.2262  1.2439 -3.0436
    9SOL    HW2   27   0.502   0.735   0.597  2.6585  0.6041  0.9767
   10SOL     OW   28   0.863   2.404   2.331 -0.0132 -0.5622  0.0003
   10SOL    HW1   29   0.807   2.317   2.335 -1.9551  0.7199  0.8737
   10SOL    HW2   30   0.806   2.485   2.309  1.4735 -2.0543  0.6252
   11SOL     OW   31   0.787   1.931   2.836 -0.7346 -0.8496  0.7889
   11SOL    HW1   32   0.817   2.013   2.895 -1.4581 -0.9091 -0.8060
   11SOL    HW2   33   0.854   1.860   2.850 -3.1990 -0.5730 -1.1795
   12SOL     OW   34   0.143   2.949   1.320 -0.0769 -0.1538  0.7098
   12SOL    HW1   35   0.085   3.032   1.340 -1.4775  0.3288  0.6749
   12SOL    HW2   36   0.099   2.860   1.343  1.7527 -2.1810 -2.2970
   13SOL     OW   37   0.926   2.642   0.144 -0.5379  0.3613 -0.4682
   13SOL    HW1   38   0.994   2.634   0.067  1.9378  0.2233  1.1393
   13SOL    HW2   39   0.866   2.720   0.131  1.4236 -2.8000  0.0544
   14SOL     OW   40   1.695   1.920   0.781  0.3879  0.2889 -0.2392
   14SOL    HW1   41   1.690   1.861   0.864 -2.4056 -4.4365  1.1048
   14SOL    HW2   42   1.773   1.889   0.727  0.0209 -0.2350  0.7088
   15SOL     OW   43   2.952   1.462   2.234  1.0946 -0.0988 -0.1351
   15SOL    HW1   44   3.002   1.464   2.324 -2.3157  2.5553 -1.1501
   15SOL    HW2   45   2.850   1.441   2.249 -1.2729  3.1595 -0.5501
   16SOL     OW   46   1.269   2.985   2.904 -0.4334  0.5837 -0.5416
   16SOL    HW1   47   1.172   2.974   2.935  0.2161  2.8471  1.6458
   16SOL    HW2   48   1.269   2.989   2.802 -1.8214  0.1818  0.6034
   17SOL     OW   49   0.532   2.367   1.994 -0.0959  0.6194  0.4419
   17SOL    HW1   50   0.626   2.379   1.949  1.8605  1.8827 -2.2531
   17SOL    HW2   51   0.496   2.287   1.945 -0.5725 -0.6539 -0.5722
   18SOL     OW   52   1.780   0.654   0.337  0.8377 -0.1926  0.2751
   18SOL    HW1   53   1.774   0.756   0.318  0.3915 -1.6020  3.1067
   18SOL    HW2   54   1.756   0.600   0.254  1.3936 -0.0362 -1.2863
   19SOL     OW   55   2.411   1.857   2.524 -0.3760 -0.3780  0.5892
   19SOL    HW1   56   2.376   1.854   2.617  1.1271  0.4757 -2.5874
   19SOL    HW2   57   2.507   1.895   2.528 -1.6609 -0.2703 -1.0416
   20SOL     OW   58   2.395   2.089   2.175 -0.2798 -0.1494 -0.0326
   20SOL    HW1   59   2.356   2.122   2.263  1.6856  0.2897 -0.8720
   20SOL    HW2   60   2.372   2.156   2.100 -1.4323  1.4342 -1.0751
   21SOL     OW   61   0.627   2.071   0.296 -0.5965 -0.0510 -0.4045
   21SOL    HW1   62   0.577   2.079   0.204 -0.7501 -1.7552 -2.8604
   21SOL    HW2   63   0.623   1.972   0.323 -1.6521  0.0790  0.7602
   22SOL     OW   64   2.267   2.539   1.483 -0.1721  0.4835 -0.2435
   22SOL    HW1   65   2.354   2.483   1.487  2.8899 -1.4238  0.0576
   22SOL    HW2   66   2.182   2.489   1.462  1.7686 -3.4548  1.2182
   23SOL     OW   67   0.262   1.006   1.801 -0.5491 -0.8547 -0.3497
   23SOL    HW1   68   0.294   1.101   1.769  2.0800 -1.0253  0.8726
   23SOL    HW2   69   0.337   0.936   1.789  2.1797 -1.6474 -1.2490
   24SOL     OW   70   2.247   2.075   1.854  0.3699 -0.0158 -0.1134
   24SOL    HW1   71   2.250   2.155   1.919 -1.1756  1.1001  1.1121
   24SOL    HW2   72   2.238   1.989   1.908  1.7375  0.4129  1.7813
   25SOL     OW   73   1.780   0.048   2.426 -0.4848 -0.2537  0.0765
   25SOL    HW1   74   1.793   0.070   2.327  1.8662 -0.5618 -2.1996
   25SOL    HW2   75   1.693   0.000   2.447 -3.7619 -1.5565  0.2737
   26SOL     OW   76   1.316   0.084   0.814  0.0343 -0.5896 -0.2957
   26SOL    HW1   77   1.329   0.050   0.717  0.7908 -0.7647 -1.7750
   26SOL    HW2   78   1.333   0.187   0.821 -1.4880  1.8982 -0.6256
   27SOL     OW   79   1.103   1.605   0.143  0.9956 -0.0415 -0.1550
   27SOL    HW1   80   1.131   1.688   0.198 -1.2290  1.7756 -1.2076
   27SOL    HW2   81   1.010   1.622   0.099 -1.5091 -1.1478 -0.4280
   28SOL     OW   82   2.828   1.807   1.297  0.1618 -0.1659  0.1402
   28SOL    HW1   83   2.740   1.758   1.294  2.1160 -1.1915 -1.0546
   28SOL    HW2   84   2.839   1.878   1.367  0.0314  3.3730  1.5338
   29SOL     OW   85   2.091   2.678   1.796 -0.9710 -0.4484  0.2288
   29SOL    HW1   86   2.049   2.716   1.881  0.4810 -0.9549  2.2439
   29SOL    HW2   87   2.192   2.704   1.800  0.2533  1.1819  2.6652
   30SOL     OW   88   0.910   2.833   0.979 -0.0858  0.4958  0.1809
   30SOL    HW1   89   1.006   2.804   0.987  0.6537 -0.4142  1.1041
   30SOL    HW2   90   0.884   2.856   0.881 -0.9756 -0.3037 -1.2510
   31SOL     OW   91   2.951   2.231   1.858  0.1666 -0.0576 -0.2865
   31SOL    HW1   92   3.050   2.228   1.876  0.5697 -0.0751 -0.0621
   31SOL    HW2   93   2.900   2.290   1.921  1.7869 -0.6338  1.6568
   32SOL     OW   94   1.612   1.318   1.964  0.1111  0.1730 -0.4287
   32SOL    HW1   95   1.517   1.349   1.978  0.2963  0.5117  0.2669
   32SOL    HW2   96   1.621   1.214   1.970  2.8250 -1.4121  1.6639
   33SOL     OW   97   0.272   0.054   2.762  0.5294 -0.3553  0.3406
   33SOL    HW1   98   0.339   0.115   2.720  0.4505  0.8878  0.5329
   33SOL    HW2   99   0.230   3.084   2.701 -0.2258  1.0827 -0.4363
   34SOL     OW  100   1.821   0.336   1.608 -0.2617 -0.0283  0.9235
   34SOL    HW1  101   1.813   0.429   1.645 -1.1886  1.8591 -1.0069
   34SOL    HW2  102   1.863   0.268   1.671  1.1313  2.0645 -1.6808
   35SOL     OW  103   2.400   0.643   1.559  0.0549 -0.1453 -0.4848
   35SOL    HW1  104   2.493   0.601   1.569  1.3601  0.2634  1.0689
   35SOL    HW2  105   2.404   0.740   1.578  0.9326 -4.8320  3.2357
   36SOL     OW  106   2.404   3.009   2.564  0.1443  0.4667  0.1572
   36SOL    HW1  107   2.319   2.956   2.583 -1.9293  0.7422  2.6067
   36SOL    HW2  108   2.487   2.949   2.575 -0.6678 -1.6697  2.6993
   37SOL     OW  109   1.008   2.320   2.971  0.5087  0.1183  0.8220
   37SOL    HW1  110   0.988   2.417   2.996  1.2484 -3.3967 -1.4379
   37SOL    HW2  111   1.093   2.279   3.020  0.2271 -0.3348 -0.6557
   38SOL     OW  112   2.866   0.951   2.794  0.2605  0.3481  0.8742
   38SOL    HW1  113   2.921   0.940   2.881  0.1591 -0.6094 -1.1137
   38SOL    HW2  114   2.764   0.959   2.811 -0.0951 -3.2446 -0.1120
   39SOL     OW  115   1.959   2.109   2.222  0.6973 -0.0352  0.3268
   39SOL    HW1  116   1.909   2.023   2.192 -0.3312 -2.1791 -1.0811
   39SOL    HW2  117   2.023   2.092   2.300 -0.3958  0.8544  2.2740
   40SOL     OW  118   0.664   0.318   2.870  0.3394 -0.2241 -0.0860
   40SOL    HW1  119   0.685   0.302   2.967 -0.5390  0.0365  1.2310
   40SOL    HW2  120   0.747   0.310   2.812 -1.0417  0.7960  1.4887
   41SOL     OW  121   1.416   1.017   1.512  0.3794 -0.0588  0.0574
   41SOL    HW1  122   1.516   0.987   1.521  0.0580 -0.6951 -2.1249
   41SOL    HW2  123   1.350   0.966   1.574 -0.2848 -1.0375  0.1381
   42SOL     OW  124   0.204   0.313   2.074 -0.4487  0.0786 -0.1573
   42SOL    HW1  125   0.137   0.388   2.098 -0.0347 -1.3578  0.0842
   42SOL    HW2  126   0.301   0.326   2.103  2.1719 -1.1640 -0.4634
   43SOL     OW  127   1.871   1.409   2.137 -0.0897  0.2997 -0.0637
   43SOL    HW1  128   1.857   1.380   2.235  4.5799  1.5439 -1.0554
   43SOL    HW2  129   1.800   1.370   2.075  1.3656  0.0382 -1.9304
   44SOL     OW  130   3.018   3.027   2.994 -0.0884  0.0843 -0.2203
   44SOL    HW1  131   3.050   3.096   3.065 -0.3714  2.5756  0.2796
   44SOL    HW2  132   3.036   2.936   3.039 -2.5256  3.5403 -0.7153
   45SOL     OW  133   0.732   2.002   1.045 -0.4426 -0.1553 -0.3979
   45SOL    HW1  134   0.711   2.078   0.983  1.0025  0.1571  2.0909
   45SOL    HW2  135   0.649   1.967   1.091 -1.1784 -0.0226 -1.0703
   46SOL     OW  136   2.540   2.650   1.929  0.7972  0.0485 -0.1222
   46SOL    HW1  137   2.634   2.641   1.894 -3.2538  1.5777  3.0903
   46SOL    HW2  138   2.476   2.655   1.846  1.4674  2.9089  1.2125
   47SOL     OW  139   1.079   1.735   1.203  0.2575  0.1718  0.1876
   47SOL    HW1  140   1.036   1.822   1.195 -0.5946 -4.1670  2.2112
   47SOL    HW2  141   1.019   1.654   1.170 -4.2960  0.5052 -2.7372
   48SOL     OW  142   0.219   2.146   0.384  0.4903  0.2169  0.4773
   48SOL    HW1  143   0.143   2.161   0.450 -1.1692 -1.1157 -1.4791
   48SOL    HW2  144   0.309   2.154   0.426 -1.8130 -1.6526 -0.9209
   49SOL     OW  145   3.080   1.354   2.024  0.1228  1.1607  0.2069
   49SOL    HW1  146   0.073   1.392   2.002 -1.5776 -0.7133 -1.4444
   49SOL    HW2  147   3.025   1.401   2.093  0.4897 -2.5449 -2.1947
   50SOL     OW  148   2.199   0.831   0.779  0.5038 -0.2192  0.1375
   50SOL    HW1  149   2.290   0.879   0.772  1.1771  0.0219 -1.2735
   50SOL    HW2  150   2.131   0.876   0.720  0.8009 -0.2164  2.5087
   51SOL     OW  151   1.078   0.694   0.697  0.4105 -0.3687 -0.6032
   51SOL    HW1  152   1.023   0.769   0.655 -1.2710 -1.5469  0.7934
   51SOL    HW2  153   1.049   0.677   0.793  4.0153  1.4039  2.5767
   52SOL     OW  154   1.525   1.253   0.191 -0.4149  0.6470  0.0173
   52SOL    HW1  155   1.534   1.151   0.169 -0.9007  1.3939  1.1512
   52SOL    HW2  156   1.494   1.268   0.290  0.3125  1.7085  2.5847
   53SOL     OW  157   1.068   2.250   2.706  0.2394 -0.0974 -0.1052
   53SOL    HW1  158   1.104   2.163   2.666  2.3216  1.0325 -0.2718
   53SOL    HW2  159   1.073   2.249   2.808 -1.1407 -2.9014  2.4755
   54SOL     OW  160   1.468   0.706   1.660 -0.4885  0.1357 -0.3127
   54SOL    HW1  161   1.382   0.756   1.676  2.2520  0.4329 -0.3834
   54SOL    HW2  162   1.491   0.688   1.565  0.5252 -1.1129 -1.8802
   55SOL     OW  163   2.519   3.087   0.484  0.3757  0.1554 -0.6282
   55SOL    HW1  164   2.416   3.074   0.491  0.3092 -0.7173  0.1639
   55SOL    HW2  165   2.550   3.000   0.441 -2.2474 -1.1882 -0.5444
   56SOL     OW  166   0.685   2.674   1.711 -0.0821  0.6152  0.3181
   56SOL    HW1  167   0.661   2.682   1.808  0.4433 -0.6201 -3.6224
   56SOL    HW2  168   0.606   2.693   1.648  1.2983  0.2820 -1.1519
   57SOL     OW  169   2.059   0.562   2.682  0.1012 -0.5337 -0.0734
   57SOL    HW1  170   2.003   0.532   2.601 -0.5000  0.8053 -3.1086
   57SOL    HW2  171   2.077   0.485   2.749  1.6175  0.5789 -1.5125
   58SOL     OW  172   2.947   1.325   1.751  0.1369  0.2828 -0.0633
   58SOL    HW1  173   2.984   1.343   1.843 -1.6382 -0.2713  0.8185
   58SOL    HW2  174   2.866   1.379   1.726 -0.9997 -0.7718 -0.4801
   59SOL     OW  175   0.441   2.824   2.344  0.1683 -0.0194 -0.2382
   59SOL    HW1  176   0.523   2.760   2.348 -3.0052 -1.4080 -0.1790
   59SOL    HW2  177   0.368   2.800   2.274 -1.5976  1.5111  0.3649
   60SOL     OW  178   2.749   2.154   0.811 -0.1597 -0.1629  0.2903
   60SOL    HW1  179   2.752   2.083   0.732 -0.7872 -2.6501  0.8794
   60SOL    HW2  180   2.683   2.123   0.885 -0.6427 -1.3969  2.6084
   61SOL     OW  181   0.880   2.109   0.221  0.3129 -0.1187 -0.5306
   61SOL    HW1  182   0.954   2.121   0.296  4.5128 -1.8855  0.0002
   61SOL    HW2  183   0.788   2.089   0.256  1.0677  3.1733 -1.9465
   62SOL     OW  184   2.216   2.711   2.843 -0.0819 -0.2884 -0.3918
   62SOL    HW1  185   2.311   2.693   2.872  1.0184  3.0142 -1.1482
   62SOL    HW2  186   2.202   2.762   2.756  0.9788 -0.8673 -1.1839
   63SOL     OW  187   1.853   0.161   3.024  0.4252 -0.5160  0.4066
   63SOL    HW1  188   1.868   0.237   2.956  1.0702  1.9561  3.2265
   63SOL    HW2  189   1.861   0.071   2.982 -0.5741  0.7065  0.6321
   64SOL     OW  190   0.768   1.158   2.546  0.0758  0.2598 -0.8547
   64SOL    HW1  191   0.858   1.193   2.588 -0.5061  0.3237  0.1587
   64SOL    HW2  192   0.719   1.092   2.604  3.1965  2.2977  0.6549
   65SOL     OW  193   1.369   2.998   0.564  0.3511 -0.2585  0.3582
   65SOL    HW1  194   1.383   2.910   0.608  2.3412  1.4377  0.3349
   65SOL    HW2  195   1.308   2.980   0.485 -1.3069  2.1111 -1.8224
   66SOL     OW  196   0.365   1.246   1.781 -0.0646 -0.2596  0.3090
   66SOL    HW1  197   0.363   1.307   1.863 -0.5638  1.2702 -1.3903
   66SOL    HW2  198   0.442   1.272   1.716  3.3404 -1.6049 -3.1937
   67SOL     OW  199   2.217   3.077   2.214 -0.5825 -0.2158 -0.5901
   67SOL    HW1  200   2.206   3.064   2.115  1.0555 -0.8212  0.8182
   67SOL    HW2  201   2.311   3.086   2.249  0.1863 -2.3109  2.5119
   68SOL     OW  202   0.772   0.673   1.795  0.8101  0.5699  0.0822
   68SOL    HW1  203   0.710   0.619   1.737 -1.0014  1.5000 -0.9388
   68SOL    HW2  204   0.758   0.772   1.796  0.3047  0.3467  0.0830
   69SOL     OW  205   2.276   2.960   0.462 -0.2390 -0.4597 -0.2620
   69SOL    HW1  206   2.309   2.866   0.439 -1.4016 -1.4834  1.3703
   69SOL    HW2  207   2.200   2.982   0.399  0.4745 -1.3004 -1.1879
   70SOL     OW  208   2.593   0.693   2.839 -0.2770  0.5360 -0.2710
   70SOL    HW1  209   2.637   0.695   2.744 -2.2285  1.4594 -1.1620
   70SOL    HW2  210   2.647   0.637   2.902  0.6201 -0.9222 -2.4467
   71SOL     OW  211   2.865   1.952   0.061 -0.2066 -0.3196  0.1877
   71SOL    HW1  212   2.850   1.883   3.084 -0.1649 -1.7893  0.0933
   71SOL    HW2  213   2.950   2.009   0.044  0.6781 -0.9211  1.7846
   72SOL     OW  214   3.047   1.865   0.443  0.0797  0.6407 -0.6465
   72SOL    HW1  215   2.957   1.909   0.438  1.9018 -3.7097 -2.4458
   72SOL    HW2  216   3.096   1.871   0.535  2.5308 -1.1144  4.1903
   73SOL     OW  217   0.916   0.907   0.611  0.1747 -0.0091 -0.1151
   73SOL    HW1  218   0.859   0.928   0.691  0.8818  0.0083 -1.1504
   73SOL    HW2  219   0.861   0.881   0.528 -2.6722 -1.1826 -2.0962
   74SOL     OW  220   0.109   2.209   1.915  0.1306  0.5377  0.3211
   74SOL    HW1  221   0.136   2.273   1.989 -0.1737 -3.0600 -2.7799
   74SOL    HW2  222   0.182   2.204   1.838 -0.0699  0.1850 -1.0688
   75SOL     OW  223   1.829   1.439   1.390  0.1811  0.2169  0.4303
   75SOL    HW1  224   1.748   1.465   1.329  1.5062  2.9437 -0.3358
   75SOL    HW2  225   1.805   1.374   1.467  0.8278  0.3371  2.6325
   76SOL     OW  226   1.970   2.386   1.029 -0.3931  0.1335  0.5360
   76SOL    HW1  227   1.970   2.412   0.925 -1.4936  0.0169 -2.6680
   76SOL    HW2  228   2.050   2.433   1.070 -1.0127 -0.8102 -1.1169
   77SOL     OW  229   2.615   1.740   1.616 -0.1370 -0.2488  0.0458
   77SOL    HW1  230   2.565   1.766   1.702 -1.9350 -1.2187 -1.7683
   77SOL    HW2  231   2.715   1.745   1.628  0.9157  0.7709 -3.4304
   78SOL     OW  232   1.450   0.858   0.316  0.4052  0.1165 -0.6139
   78SOL    HW1  233   1.483   0.850   0.415  2.3801 -0.2957  3.6632
   78SOL    HW2  234   1.351   0.869   0.309 -1.9115 -0.7310  1.2579
   79SOL     OW  235   2.213   1.701   1.525 -0.4817  0.0359  0.1772
   79SOL    HW1  236   2.228   1.793   1.568 -0.8074  0.3941  0.3987
   79SOL    HW2  237   2.296   1.645   1.538  0.9416  1.6139  0.2835
   80SOL     OW  238   0.612   0.487   1.639  0.4863  0.1465  0.0780
   80SOL    HW1  239   0.690   0.425   1.656  0.6429 -1.3777  0.2423
   80SOL    HW2  240   0.581   0.483   1.544 -0.7764  0.8697  1.6692
   81SOL     OW  241   0.540   2.502   0.754 -0.5848  0.0813  0.2423
   81SOL    HW1  242   0.504   2.479   0.665  0.3135  1.9049  2.0032
   81SOL    HW2  243   0.643   2.521   0.749  0.8391  1.8657 -3.2768
   82SOL     OW  244   1.307   0.148   1.934 -0.4930 -0.0125  0.2205
   82SOL    HW1  245   1.380   0.076   1.925  0.1966 -1.1650  0.4511
   82SOL    HW2  246   1.333   0.238   1.972 -0.4895  1.7590  3.0603
   83SOL     OW  247   0.964   1.763   0.454 -0.0003 -0.0982  1.1142
   83SOL    HW1  248   1.067   1.755   0.452  0.9639 -0.4388  2.2852
   83SOL    HW2  249   0.942   1.780   0.352 -1.5275  1.3021 -3.2922
   84SOL     OW  250   2.959   1.444   3.039 -0.2092 -0.1261  0.3224
   84SOL    HW1  251   2.950   1.348   3.080 -2.3510 -1.6860 -0.8453
   84SOL    HW2  252   3.036   1.501   3.078  0.6908  0.7743 -0.2378
   85SOL     OW  253   0.123   2.379   0.954  0.2370 -0.0379  0.0905
   85SOL    HW1  254   0.063   2.389   0.871 -0.5457  0.0410  2.1037
   85SOL    HW2  255   0.218   2.363   0.939 -2.6829 -0.1411  0.4010
   86SOL     OW  256   2.158   2.932   1.311  0.0760 -0.0396 -0.3885
   86SOL    HW1  257   2.087   2.969   1.370 -1.1944  1.2627  2.7819
   86SOL    HW2  258   2.127   2.882   1.226 -0.9786  0.1375 -0.8426
   87SOL     OW  259   0.115   1.886   0.660  0.1565 -0.1683 -0.8396
   87SOL    HW1  260   0.111   1.977   0.708 -1.2400  1.9931  0.3881
   87SOL    HW2  261   0.082   1.813   0.725 -4.2703 -1.6554  0.4647
   88SOL     OW  262   0.970   0.453   1.412  0.0776 -0.1020 -0.0917
   88SOL    HW1  263   0.925   0.481   1.328 -0.9669 -2.0277 -0.2454
   88SOL    HW2  264   0.986   0.353   1.409  1.2505  0.5451 -1.1606
   89SOL     OW  265   1.021   2.905   1.706 -0.1999  0.0060 -0.0603
   89SOL    HW1  266   1.061   3.000   1.718  2.1027 -1.3820 -0.0016
   89SOL    HW2  267   0.932   2.909   1.657  0.3057  0.3480 -3.3255
   90SOL     OW  268   0.268   1.938   1.387 -0.4367 -0.1366  0.1316
   90SOL    HW1  269   0.226   1.875   1.317 -1.7912  1.2052  0.2706
   90SOL    HW2  270   0.359   1.901   1.415 -0.4529 -1.1137  0.1079
   91SOL     OW  271   1.165   2.206   1.246 -0.0411  0.1929 -0.8458
   91SOL    HW1  272   1.132   2.303   1.221  1.3748  1.2463 -0.1080
   91SOL    HW2  273   1.225   2.204   1.331 -1.4694  1.2468  0.5886
   92SOL     OW  274   2.813   0.029   1.483 -0.0703  0.5395 -0.4111
   92SOL    HW1  275   2.769   0.046   1.396  1.3012  0.4187  2.6385
   92SOL    HW2  276   2.914   0.034   1.470  1.1961 -2.0228  0.2741
   93SOL     OW  277   2.897   1.192   0.026 -0.1152  0.2734  0.4511
   93SOL    HW1  278   2.943   1.117   3.074  0.3881 -2.1717  0.7577
   93SOL    HW2  279   2.914   1.176   0.122 -0.3622 -1.0378 -0.2181
   94SOL     OW  280   2.818   2.659   2.099 -0.2714  0.0022 -0.7822
   94SOL    HW1  281   2.841   2.742   2.047  1.9488 -0.2918  0.7262
   94SOL    HW2  282   2.865   2.658   2.188 -0.6158  1.4755  0.3630
   95SOL     OW  283   1.477   0.638   2.053  0.5717  0.7128 -0.2557
   95SOL    HW1  284   1.556   0.646   2.113  1.1713 -0.7868 -1.3023
   95SOL    HW2  285   1.417   0.721   2.056  2.0433  2.1626  0.9261
   96SOL     OW  286   2.585   0.525   1.909  0.1002  0.3013 -0.3151
   96SOL    HW1  287   2.614   0.497   1.814  0.2330  0.3594  0.4255
   96SOL    HW2  288   2.664   0.555   1.965  0.4859 -1.1159 -1.1755
   97SOL     OW  289   2.411   0.137   1.506  0.0758  0.4744 -0.1911
   97SOL    HW1  290   2.349   0.195   1.562  0.2448  1.3607 -1.1195
   97SOL    HW2  291   2.483   0.092   1.560  0.2533 -0.8931  1.1709
   98SOL     OW  292   2.364   3.066   1.286 -0.4133  0.3445  0.1398
   98SOL    HW1  293   2.384   0.028   1.365  1.4419  0.5707  0.2876
   98SOL    HW2  294   2.283   3.005   1.292  2.3847  1.0176 -0.9526
   99SOL     OW  295   2.777   0.399   2.203  0.2868 -0.1114  0.0071
   99SOL    HW1  296   2.859   0.343   2.236  0.5935 -0.2612 -0.4926
   99SOL    HW2  297   2.814   0.461   2.126  1.5844  2.0967 -2.7995
  100SOL     OW  298   2.024   1.449   1.821 -0.2022  0.0555 -0.0510
  100SOL    HW1  299   1.969   1.519   1.772  0.7693 -0.0932  1.3668
  100SOL    HW2  300   2.076   1.492   1.895 -1.0733  1.4349 -1.7127
  101SOL     OW  301   1.813   3.086   0.672  0.0464 -0.4881  0.2835
  101SOL    HW1  302   1.781   0.032   0.759  0.3774 -0.0742 -1.9443
  101SOL    HW2  303   1.740   3.094   0.602  1.9050  1.8076  3.0671
  102SOL     OW  304   0.353   0.745   1.502 -0.2028 -0.2007  0.0130
  102SOL    HW1  305   0.393   0.667   1.451  1.5224  0.3901 -0.2044
  102SOL    HW2  306   0.410   0.784   1.575 -0.2252 -0.0327  1.4339
  103SOL     OW  307   2.764   0.544   2.998 -0.6928  0.1927  0.1417
  103SOL    HW1  308   2.842   0.504   2.944  2.9278  0.2546 -2.6217
  103SOL    HW2  309   2.695   0.474   3.027  0.5391  0.0779 -1.0076
  104SOL     OW  310   2.738   0.003   1.933 -0.9561 -0.0000 -0.1845
  104SOL    HW1  311   2.787   0.059   1.861 -0.5403  2.0040 -0.8982
  104SOL    HW2  312   2.705   0.072   1.999  2.1138 -0.6090 -0.8772
  105SOL     OW  313   1.700   0.928   2.174 -0.0367 -0.0250 -0.1951
  105SOL    HW1  314   1.660   0.841   2.202  0.8443  0.8438 -1.6469
  105SOL    HW2  315   1.791   0.911   2.143 -3.3340  1.0554 -0.3773
  106SOL     OW  316   1.740   0.088   0.914 -0.3681  0.5277  0.2593
  106SOL    HW1  317   1.795   0.128   0.986  1.2293  3.2980 -2.8601
  106SOL    HW2  318   1.681   0.016   0.962 -0.4771  1.2665  1.8664
  107SOL     OW  319   0.782   0.948   0.844  0.2766  0.6072 -0.1127
  107SOL    HW1  320   0.694   0.936   0.892  2.5312 -0.6516  0.5892
  107SOL    HW2  321   0.821   1.041   0.853  0.2177  1.3657  0.4551
  108SOL     OW  322   2.877   0.516   2.562 -0.2587  0.2566  0.1585
  108SOL    HW1  323   2.948   0.441   2.570  0.3444  0.9727  0.6401
  108SOL    HW2  324   2.784   0.480   2.552 -0.1130 -1.2833  1.9053
  109SOL     OW  325   2.011   0.155   0.144  0.1772 -0.3031  0.4625
  109SOL    HW1  326   1.939   0.159   0.071  0.9881 -0.2668 -1.4019
  109SOL    HW2  327   1.986   0.196   0.233  1.9340 -1.1220  1.0498
  110SOL     OW  328   3.015   1.994   2.795 -0.0728  0.4013 -0.1681
  110SOL    HW1  329   3.043   2.082   2.831 -1.4343 -0.0218  2.6978
  110SOL    HW2  330   3.075   1.915   2.826  2.7324 -2.2169 -0.6854
  111SOL     OW  331   2.056   0.189   2.261 -0.4776 -0.6974  0.4314
  111SOL    HW1  332   2.130   0.119   2.235 -0.0263 -1.8835 -1.4305
  111SOL    HW2  333   2.067   0.214   2.357  0.4831 -1.2086 -2.4423
  112SOL     OW  334   2.552   3.038   1.102 -0.9931  0.3031  0.5796
  112SOL    HW1  335   2.530   3.031   1.002 -0.3601  0.0091 -1.4059
  112SOL    HW2  336   2.469   3.050   1.161  0.0824  2.2949 -1.8904
  113SOL     OW  337   2.355   2.651   1.745  0.1717  0.7665  0.7259
  113SOL    HW1  338   2.393   2.728   1.687 -0.9904  0.9403 -0.7589
  113SOL    HW2  339   2.317   2.580   1.685 -1.1106  2.6593  1.4626
  114SOL     OW  340   2.916   0.137   0.577 -0.1283  0.1433 -0.2013
  114SOL    HW1  341   2.999   0.140   0.635 -2.4929 -0.3430 -0.4385
  114SOL    HW2  342   2.857   0.067   0.615  2.5584  0.0723  1.3362
  115SOL     OW  343   2.838   1.710   3.014  0.4396  0.1131  0.4322
  115SOL    HW1  344   2.892   1.628   3.028  1.0349 -1.7664  2.4495
  115SOL    HW2  345   2.738   1.688   3.007 -0.3953  2.8537  0.4338
  116SOL     OW  346   0.173   1.545   2.037  0.4897  0.4551  0.0272
  116SOL    HW1  347   0.097   1.590   2.093  1.5047 -0.4740  1.0026
  116SOL    HW2  348   0.167   1.569   1.935  0.7623  2.2031 -3.6418
  117SOL     OW  349   2.519   2.948   0.756 -0.1281 -0.2339 -0.1412
  117SOL    HW1  350   2.460   2.867   0.755 -4.5471  1.6989 -0.6400
  117SOL    HW2  351   2.521   3.001   0.665  2.1196  2.3425 -1.1770
  118SOL     OW  352   0.461   2.412   1.632  0.3762  0.1117  0.3324
  118SOL    HW1  353   0.372   2.384   1.595 -0.5858  1.2890 -0.4847
  118SOL    HW2  354   0.531   2.340   1.620  1.2208  0.7040 -0.8662
  119SOL     OW  355   1.556   2.176   1.011 -0.4929  0.1487 -0.1419
  119SOL    HW1  356   1.602   2.206   0.925 -0.1766  1.4384 -0.1797
  119SOL    HW2  357   1.629   2.158   1.078  1.5261 -0.4994  3.4811
  120SOL     OW  358   0.569   2.062   1.997  0.4299  0.1002 -0.8116
  120SOL    HW1  359   0.493   1.998   2.012 -1.4025  0.0397  0.3387
  120SOL    HW2  360   0.641   2.048   2.066  0.7714 -1.6539 -1.3237
  121SOL     OW  361   2.475   1.682   0.938  0.1658  0.3523 -0.4468
  121SOL    HW1  362   2.469   1.775   0.897  2.0303 -4.2089  1.5175
  121SOL    HW2  363   2.377   1.652   0.965 -4.0937 -0.1848  1.0587
  122SOL     OW  364   1.931   1.736   2.336 -0.0661  0.3482  0.5015
  122SOL    HW1  365   1.913   1.693   2.241 -2.9305 -2.2647 -0.7020
  122SOL    HW2  366   2.034   1.750   2.346  2.3315  0.1191 -3.0615
  123SOL     OW  367   2.791   3.022   0.723  0.2057 -0.4050 -0.1664
  123SOL    HW1  368   2.861   2.958   0.687  1.0753 -1.0182 -5.3956
  123SOL    HW2  369   2.703   2.973   0.750  0.5429 -1.4752 -0.0655
  124SOL     OW  370   1.403   1.169   2.823 -1.1442 -0.0368  0.8166
  124SOL    HW1  371   1.379   1.173   2.919  0.0455 -0.9465 -2.9445
  124SOL    HW2  372   1.490   1.222   2.812 -1.7114 -0.4439  0.9721
  125SOL     OW  373   0.329   1.600   2.507 -0.8567 -0.2421  0.1719
  125SOL    HW1  374   0.277   1.673   2.453 -0.9783  0.9469 -3.2523
  125SOL    HW2  375   0.367   1.529   2.445 -0.4519  1.3104  0.4753
  126SOL     OW  376   2.838   2.040   0.333 -0.4747  0.6985 -0.1840
  126SOL    HW1  377   2.840   2.143   0.331  0.4565  4.0967 -0.5979
  126SOL    HW2  378   2.852   1.989   0.244 -0.9490 -1.3629 -1.3360
  127SOL     OW  379   0.393   1.765   0.905  0.0687 -0.3095  0.5882
  127SOL    HW1  380   0.326   1.694   0.879 -0.3596  1.8882  3.1060
  127SOL    HW2  381   0.358   1.860   0.895  1.3057 -1.0664 -0.0658
  128SOL     OW  382   1.587   0.978   0.125  0.1150  0.7011  0.8783
  128SOL    HW1  383   1.538   0.923   0.194 -0.5734 -1.9503  0.5074
  128SOL    HW2  384   1.634   0.918   0.055  3.7447 -2.6893 -2.0282
  129SOL     OW  385   2.285   1.742   1.257  0.0445  0.3348  0.6022
  129SOL    HW1  386   2.264   1.838   1.232  2.1071 -1.7771  1.4672
  129SOL    HW2  387   2.258   1.718   1.354  3.1697 -0.0420 -0.5123
  130SOL     OW  388   1.914   1.263   0.496 -0.5397 -0.3559  0.4884
  130SOL    HW1  389   1.998   1.230   0.448  2.8861  0.4140  0.5338
  130SOL    HW2  390   1.931   1.319   0.578 -1.4532 -0.2869 -0.2659
  131SOL     OW  391   2.863   1.196   2.667 -0.1316 -0.4855  0.1225
  131SOL    HW1  392   2.872   1.118   2.734  1.2331 -2.5668  0.2557
  131SOL    HW2  393   2.855   1.289   2.710  0.1521  0.7048 -0.0627
  132SOL     OW  394   1.873   1.674   1.744  0.3047 -0.2642 -0.1893
  132SOL    HW1  395   1.893   1.708   1.648 -2.2748  2.9759 -0.4737
  132SOL    HW2  396   1.796   1.611   1.750  2.5168  2.9770 -0.3463
  133SOL     OW  397   0.183   1.281   0.041  0.2551  0.2573  0.3333
  133SOL    HW1  398   0.103   1.263   3.078 -2.3242 -1.7521  0.5196
  133SOL    HW2  399   0.148   1.282   0.136  0.8975  0.8589 -4.7157
  134SOL     OW  400   2.568   1.536   0.150 -0.1550  0.3310 -0.1456
  134SOL    HW1  401   2.601   1.449   0.103 -0.0883  0.7502  2.5957
  134SOL    HW2  402   2.652   1.585   0.181 -1.6260 -0.0671  1.0242
  135SOL     OW  403   2.516   1.056   0.495 -0.4904  0.1618 -0.1034
  135SOL    HW1  404   2.434   0.998   0.473 -0.4209  0.6205 -1.2605
  135SOL    HW2  405   2.496   1.156   0.496  0.7868 -1.9272 -0.9184
  136SOL     OW  406   1.954   1.674   1.445 -0.0518  0.0965 -0.4182
  136SOL    HW1  407   2.046   1.668   1.494 -0.0615  2.7200  2.9577
  136SOL    HW2  408   1.911   1.581   1.432 -1.2370 -1.8532 -0.4557
  137SOL     OW  409   2.500   2.171   0.516  0.4125 -0.3103  0.2324
  137SOL    HW1  410   2.524   2.228   0.434  1.2501 -3.7171 -2.3274
  137SOL    HW2  411   2.584   2.137   0.561  0.9762 -0.7714 -0.6528
  138SOL     OW  412   1.849   0.173   1.842  0.5066 -0.1160 -0.1035
  138SOL    HW1  413   1.824   0.082   1.876  0.9154  1.4450 -0.1518
  138SOL    HW2  414   1.796   0.250   1.888 -1.3409 -0.7465 -0.4384
  139SOL     OW  415   2.554   0.149   0.163  0.3641  0.0288  0.4062
  139SOL    HW1  416   2.471   0.156   0.223 -3.2219 -1.3273  1.1318
  139SOL    HW2  417   2.551   0.060   0.107  0.7260 -2.4965  1.6207
  140SOL     OW  418   1.376   1.963   2.647 -0.1082  0.6194 -0.5535
  140SOL    HW1  419   1.433   1.876   2.642  1.2721 -0.2542  1.5509
  140SOL    HW2  420   1.311   1.962   2.727 -0.6569 -1.0271 -0.5632
  141SOL     OW  421   0.888   0.990   2.065 -0.5190 -0.3593  0.5033
  141SOL    HW1  422   0.844   1.000   2.156 -3.0160  2.1573  0.1936
  141SOL    HW2  423   0.976   0.941   2.063  1.8842  1.3749  0.8572
  142SOL     OW  424   2.067   2.468   2.928 -0.4673 -0.2350 -0.0970
  142SOL    HW1  425   2.099   2.545   2.872 -4.0171  0.5190  0.5129
  142SOL    HW2  426   2.102   2.373   2.906 -2.9791  0.4709  0.6708
  143SOL     OW  427   0.860   2.089   3.046 -0.4456 -0.1696  0.3488
  143SOL    HW1  428   0.915   2.178   3.032  2.2356 -1.6225 -1.4846
  143SOL    HW2  429   0.850   2.061   0.045  1.4873  2.9478 -0.8480
  144SOL     OW  430   1.468   2.564   0.134 -0.1917  0.4634 -0.0652
  144SOL    HW1  431   1.398   2.573   0.064  3.5604  1.8218 -1.2856
  144SOL    HW2  432   1.436   2.506   0.209 -1.0502 -0.8179  0.4067
  145SOL     OW  433   2.143   1.870   2.699 -0.1144  0.1989  0.2094
  145SOL    HW1  434   2.195   1.901   2.786 -0.8355 -2.1224  3.6978
  145SOL    HW2  435   2.053   1.925   2.695 -1.5063  1.1166 -1.2315
  146SOL     OW  436   2.492   2.663   2.896  0.0417 -0.2516  0.2575
  146SOL    HW1  437   2.552   2.744   2.879  1.1757  2.2914 -1.8980
  146SOL    HW2  438   2.548   2.582   2.915 -1.1219  1.0959  0.0975
  147SOL     OW  439   2.825   1.601   1.106 -0.3878 -0.3860 -0.1720
  147SOL    HW1  440   2.788   1.689   1.063 -0.5485  0.1731 -2.6938
  147SOL    HW2  441   2.824   1.612   1.209 -3.6638 -2.1311  1.8337
  148SOL     OW  442   1.846   2.953   2.996 -0.5475  0.4284 -0.2887
  148SOL    HW1  443   1.861   2.963   2.898  1.6695  1.5671  1.2074
  148SOL    HW2  444   1.748   2.945   3.018  1.1906 -3.4434  1.8137
  149SOL     OW  445   0.732   1.480   2.815  0.2799 -0.7853 -0.4932
  149SOL    HW1  446   0.687   1.393   2.838  1.6085  0.6950 -1.0009
  149SOL    HW2  447   0.685   1.525   2.735 -0.1839 -1.3713  1.2839
  150SOL     OW  448   0.442   2.147   0.510  0.8774  0.5208  0.0358
  150SOL    HW1  449   0.451   2.077   0.586 -1.0895 -1.8874  1.9014
  150SOL    HW2  450   0.518   2.130   0.444  0.7729 -1.2847 -1.3945
  151SOL     OW  451   0.611   1.614   0.084  0.3632 -0.4231 -0.0826
  151SOL    HW1  452   0.566   1.586   0.170  1.7206 -1.0505 -4.0410
  151SOL    HW2  453   0.536   1.635   0.013 -1.5984 -2.1058 -4.2045
  152SOL     OW  454   2.800   1.549   0.618 -0.4849 -0.7725 -0.3005
  152SOL    HW1  455   2.749   1.524   0.704  0.5251  2.3825 -0.0106
  152SOL    HW2  456   2.887   1.499   0.609  0.1911 -1.2872  0.2844
  153SOL     OW  457   2.055   2.324   0.270  0.6345  0.0305  0.1501
  153SOL    HW1  458   1.969   2.296   0.222  1.4479 -0.2280 -1.1999
  153SOL    HW2  459   2.095   2.400   0.216 -1.7226 -0.2394 -0.1923
  154SOL     OW  460   0.900   2.736   0.559  0.2814 -0.3220 -0.0454
  154SOL    HW1  461   0.895   2.807   0.631 -2.9532 -1.3410 -2.5713
  154SOL    HW2  462   0.805   2.716   0.534  0.8384  2.3308  0.2455
  155SOL     OW  463   0.323   2.021   0.864 -0.4515  0.1066  0.3414
  155SOL    HW1  464   0.337   2.043   0.963  0.1874 -1.0990  0.5103
  155SOL    HW2  465   0.251   2.078   0.828  1.2927 -1.9503 -1.0777
  156SOL     OW  466   2.399   2.301   3.076  0.1072  0.1650  0.4347
  156SOL    HW1  467   2.495   2.336   3.077 -0.8094 -1.9091  0.0522
  156SOL    HW2  468   2.358   2.310   0.067 -0.9847 -0.4977 -1.7578
  157SOL     OW  469   0.809   1.589   1.411 -0.1668  0.3899 -0.2525
  157SOL    HW1  470   0.763   1.655   1.482 -1.7418 -0.8121 -0.3690
  157SOL    HW2  471   0.770   1.610   1.320  0.7268  0.9667  1.2509
  158SOL     OW  472   1.726   0.510   0.116 -0.3494  0.1711  0.2034
  158SOL    HW1  473   1.734   0.556   0.023 -3.1251  0.8596 -0.6384
  158SOL    HW2  474   1.684   0.416   0.117 -0.2623  1.1787 -0.0903
  159SOL     OW  475   1.101   0.734   0.061  0.1253  0.2713  0.1558
  159SOL    HW1  476   1.179   0.704   0.010 -1.6319  1.5856  2.7494
  159SOL    HW2  477   1.133   0.771   0.154 -1.0399 -0.3248  1.8653
  160SOL     OW  478   1.124   1.410   0.563  0.3684  0.2766 -0.4405
  160SOL    HW1  479   1.185   1.492   0.541  1.9093  1.7326  0.1302
  160SOL    HW2  480   1.165   1.355   0.639  0.7911  0.0352 -0.1180
  161SOL     OW  481   0.094   2.221   2.733  0.3564 -0.0812 -0.4142
  161SOL    HW1  482   0.022   2.210   2.655 -1.8777  1.9911 -0.4443
  161SOL    HW2  483   0.175   2.162   2.723 -0.1106 -1.6083  0.2850
  162SOL     OW  484   0.387   2.384   0.922 -0.9536 -0.1320 -0.5360
  162SOL    HW1  485   0.448   2.433   0.855  1.1106 -0.2046  0.8582
  162SOL    HW2  486   0.438   2.305   0.959 -2.7016  1.3041 -0.8282
  163SOL     OW  487   0.069   0.666   2.994  0.1103  0.4589  0.6014
  163SOL    HW1  488   0.157   0.719   2.988  0.2299  0.9547  1.2409
  163SOL    HW2  489   0.025   0.684   3.081  1.3625 -0.4203 -1.2716
  164SOL     OW  490   0.489   0.228   2.660  0.1359  0.0682 -0.1453
  164SOL    HW1  491   0.546   0.252   2.741 -1.4383 -1.9484  0.2657
  164SOL    HW2  492   0.525   0.139   2.626 -0.0873  4.1741 -1.5989
  165SOL     OW  493   2.259   0.546   1.789  0.0861  0.1854 -0.8267
  165SOL    HW1  494   2.309   0.552   1.876 -0.5795  2.0139 -0.2558
  165SOL    HW2  495   2.315   0.576   1.705 -0.3043 -2.4669 -1.5863
  166SOL     OW  496   2.060   2.791   1.542 -0.4077 -0.6763 -0.0667
  166SOL    HW1  497   2.069   2.761   1.644 -0.6016  0.4883  1.5557
  166SOL    HW2  498   2.114   2.731   1.483 -2.9305  1.0394 -0.2160
  167SOL     OW  499   1.046   0.608   2.296 -0.0852  0.4096  0.5506
  167SOL    HW1  500   0.986   0.661   2.363 -1.2585  0.6582 -0.2217
  167SOL    HW2  501   1.145   0.604   2.325 -0.4043 -1.4658 -2.4048
  168SOL     OW  502   2.570   0.206   2.128 -0.1461 -0.4160 -0.0121
  168SOL    HW1  503   2.619   0.297   2.139  0.0799  3.2170  1.2308
  168SOL    HW2  504   2.550   0.164   2.217  0.3001  0.9844 -4.6292
  169SOL     OW  505   0.093   1.295   0.302 -0.1013  0.4702 -0.5297
  169SOL    HW1  506   0.084   1.362   0.376  0.8359 -0.2055 -2.6449
  169SOL    HW2  507   0.011   1.238   0.286 -2.3133  1.8717  0.9845
  170SOL     OW  508   0.096   1.629   1.780  0.1338 -0.1313 -0.8100
  170SOL    HW1  509   0.152   1.707   1.750 -0.2784  3.1463 -4.2045
  170SOL    HW2  510   0.007   1.612   1.734 -1.4167  1.3083 -1.4481
  171SOL     OW  511   0.970   2.256   2.110  0.2112 -0.1266 -0.3910
  171SOL    HW1  512   0.973   2.288   2.212 -1.6804 -0.7513  0.6560
  171SOL    HW2  513   1.024   2.318   2.045  2.6624 -3.2525 -0.1655
  172SOL     OW  514   0.656   2.697   1.981  0.0848 -0.3946  0.1873
  172SOL    HW1  515   0.742   2.661   2.022 -0.0313 -1.4097  2.5978
  172SOL    HW2  516   0.574   2.695   2.041 -0.1288 -2.4489 -0.3413
  173SOL     OW  517   1.526   2.450   0.904  0.2558  0.0151 -0.0992
  173SOL    HW1  518   1.583   2.528   0.935 -1.1654 -0.1358  0.4325
  173SOL    HW2  519   1.504   2.390   0.985 -1.1336 -0.1519 -2.7092
  174SOL     OW  520   1.649   0.274   0.501 -0.1510  0.5250 -0.3229
  174SOL    HW1  521   1.647   0.305   0.600 -1.6195  0.3592  3.9285
  174SOL    HW2  522   1.628   0.174   0.491 -0.6029  1.4027  2.0476
  175SOL     OW  523   1.453   1.271   0.474 -0.4833  0.2303 -0.0750
  175SOL    HW1  524   1.471   1.367   0.446  1.3933 -3.0255 -1.1651
  175SOL    HW2  525   1.363   1.247   0.448  3.9489  1.1600 -0.5908
  176SOL     OW  526   1.510   0.903   0.600 -0.7162 -0.2044  0.4034
  176SOL    HW1  527   1.575   0.964   0.549  2.5984  3.9544  0.4998
  176SOL    HW2  528   1.530   0.901   0.702 -0.1279  0.1382 -0.6877
  177SOL     OW  529   1.341   0.747   1.244  0.7946 -0.6521  0.2195
  177SOL    HW1  530   1.262   0.755   1.307 -1.6845 -1.0663  0.0749
  177SOL    HW2  531   1.368   0.840   1.206  3.3301  2.0966 -0.4327
  178SOL     OW  532   2.572   1.674   3.016  0.5874 -0.2281 -0.1259
  178SOL    HW1  533   2.542   1.638   0.007 -0.5997  0.6191 -2.1653
  178SOL    HW2  534   2.507   1.645   2.941  0.9409  0.6222 -0.6646
  179SOL     OW  535   0.524   2.514   0.047 -0.3248 -0.0981 -0.0109
  179SOL    HW1  536   0.501   2.574   0.126 -2.0564 -0.5257 -0.9597
  179SOL    HW2  537   0.599   2.444   0.073  4.0938 -0.6152  0.5614
  180SOL     OW  538   1.665   1.463   1.736 -0.4802  0.6858  0.4270
  180SOL    HW1  539   1.637   1.414   1.819 -0.3960  0.5499 -0.2149
  180SOL    HW2  540   1.604   1.533   1.706 -0.2979  1.0911  2.0302
  181SOL     OW  541   1.050   1.223   2.228  0.0177  0.1558 -0.3950
  181SOL    HW1  542   1.085   1.203   2.136  0.2822 -1.6861 -0.9161
  181SOL    HW2  543   1.127   1.214   2.294 -0.0386 -2.0176  1.6756
  182SOL     OW  544   0.029   1.279   2.595 -0.2449 -0.7017 -0.1399
  182SOL    HW1  545   0.037   1.365   2.539 -1.4293 -0.6545 -1.2434
  182SOL    HW2  546   3.031   1.253   2.616 -1.8384 -3.3604  0.8434
  183SOL     OW  547   1.669   0.642   2.256 -0.2087  0.3330 -0.3070
  183SOL    HW1  548   1.762   0.607   2.236 -0.5258 -0.9057 -0.7965
  183SOL    HW2  549   1.655   0.624   2.357  1.0206 -2.5826  1.0100
  184SOL     OW  550   0.140   0.452   1.705  0.2169 -0.4982  0.1091
  184SOL    HW1  551   0.232   0.428   1.743  1.5195  0.9039  0.7921
  184SOL    HW2  552   0.152   0.540   1.654 -0.0074  2.9037 -0.4811
  185SOL     OW  553   2.416   1.863   0.559  0.3401 -0.2064  0.2557
  185SOL    HW1  554   2.362   1.920   0.490 -0.0066  1.7140 -4.6461
  185SOL    HW2  555   2.507   1.836   0.523  0.4678  2.6845  1.3247
  186SOL     OW  556   0.540   1.823   2.853 -0.3647  0.0269 -0.1689
  186SOL    HW1  557   0.635   1.860   2.849 -3.6524 -1.7703 -0.7663
  186SOL    HW2  558   0.469   1.897   2.845 -1.1978 -2.6114 -4.0795
  187SOL     OW  559   2.281   1.972   2.897 -0.1087 -0.2202  0.0091
  187SOL    HW1  560   2.267   1.900   2.971  0.5201 -0.4214 -0.8000
  187SOL    HW2  561   2.381   1.998   2.893 -1.0682  1.1862  0.3174
  188SOL     OW  562   0.909   2.398   0.550  0.3585  0.5350  0.4870
  188SOL    HW1  563   0.882   2.479   0.602 -1.3399  0.1091  1.3562
  188SOL    HW2  564   0.882   2.410   0.451  2.2992  4.5491 -0.3264
  189SOL     OW  565   2.210   0.746   2.755 -0.0898  0.1026  0.4167
  189SOL    HW1  566   2.154   0.668   2.721 -0.4252 -2.1354 -0.4120
  189SOL    HW2  567   2.173   0.832   2.717 -5.0444  0.2247  0.8324
  190SOL     OW  568   1.062   1.833   2.235  0.2865  0.4333  0.2792
  190SOL    HW1  569   1.124   1.861   2.308 -2.4205 -0.0133  0.0122
  190SOL    HW2  570   0.966   1.850   2.262 -0.1748 -1.9068 -0.1332
  191SOL     OW  571   2.429   0.915   1.523  0.1259 -0.2046  0.5629
  191SOL    HW1  572   2.528   0.935   1.539 -2.2641  1.0908  3.1829
  191SOL    HW2  573   2.412   0.883   1.427 -0.8403 -0.9612 -0.9375
  192SOL     OW  574   2.105   0.383   2.087 -0.3842  0.1779  0.3096
  192SOL    HW1  575   2.209   0.399   2.073  3.2190 -1.0193 -0.8705
  192SOL    HW2  576   2.084   0.287   2.123 -2.5539 -1.2486 -1.8341
  193SOL     OW  577   0.300   0.320   0.814 -0.3162 -0.6347 -0.3494
  193SOL    HW1  578   0.257   0.274   0.895  0.3060 -0.7064 -0.8026
  193SOL    HW2  579   0.251   0.407   0.800  1.9664 -4.6062 -1.8391
  194SOL     OW  580   1.124   2.570   1.593 -0.2596 -0.0657  0.1435
  194SOL    HW1  581   1.138   2.633   1.513  1.1320  0.2569 -3.7383
  194SOL    HW2  582   1.171   2.483   1.572  1.1126  0.0457  0.2208
  195SOL     OW  583   2.766   0.708   0.729  0.1304  0.1210 -0.0940
  195SOL    HW1  584   2.695   0.635   0.720  1.0138  3.5736  0.0674
  195SOL    HW2  585   2.715   0.789   0.766 -0.6439 -1.7544 -0.2843
  196SOL     OW  586   1.121   1.853   1.567 -0.1113 -0.4863 -0.2274
  196SOL    HW1  587   1.037   1.888   1.528 -2.3360  0.1397  0.3210
  196SOL    HW2  588   1.169   1.807   1.489 -0.8516  1.1556  2.4247
  197SOL     OW  589   0.413   0.441   2.487  0.2709 -0.1252 -0.2588
  197SOL    HW1  590   0.442   0.362   2.542 -1.1437  2.7784 -1.9565
  197SOL    HW2  591   0.412   0.523   2.549  1.4219 -0.3089  4.2556
  198SOL     OW  592   1.251   1.030   0.593  0.1058  0.0093 -0.5037
  198SOL    HW1  593   1.331   0.965   0.577 -2.2320  1.3322 -2.9761
  198SOL    HW2  594   1.275   1.111   0.649  1.8600 -0.9171 -0.1408
  199SOL     OW  595   2.362   0.556   2.036  0.3231 -0.2953  0.0271
  199SOL    HW1  596   2.378   0.565   2.131  0.8593  0.8004  1.4183
  199SOL    HW2  597   2.453   0.541   1.987  0.9674  0.5762  1.1386
  200SOL     OW  598   2.442   2.513   2.129 -0.1833  0.2242  0.1692
  200SOL    HW1  599   2.516   2.490   2.195 -0.5300 -0.8723 -1.0032
  200SOL    HW2  600   2.481   2.556   2.045  0.7092 -1.3555  2.5385
  201SOL     OW  601   2.275   0.275   1.721 -0.3066 -0.1006 -0.1181
  201SOL    HW1  602   2.247   0.374   1.744  0.1624  1.9971  1.3276
  201SOL    HW2  603   2.193   0.212   1.722 -1.0762 -2.4322  1.1184
  202SOL     OW  604   2.301   2.872   0.143 -0.5402 -0.3346 -0.6862
  202SOL    HW1  605   2.277   2.920   0.232 -1.8090 -2.3268  0.8304
  202SOL    HW2  606   2.230   2.881   0.070  0.8813 -1.2315  0.7736
  203SOL     OW  607   0.764   2.051   2.174  0.2984 -0.6383  0.8858
  203SOL    HW1  608   0.782   1.985   2.251  1.1438 -2.1074 -2.7747
  203SOL    HW2  609   0.840   2.122   2.159  1.4188 -1.1144  0.9495
  204SOL     OW  610   0.962   1.306   2.717 -0.4777 -0.0236 -0.0120
  204SOL    HW1  611   0.924   1.398   2.694 -0.8117  0.6359  2.3729
  204SOL    HW2  612   0.949   1.299   2.817  0.7305  1.0767 -1.0351
  205SOL     OW  613   0.974   0.865   1.219  0.4546  0.3797  0.1887
  205SOL    HW1  614   1.029   0.828   1.297 -1.3788  1.1998  0.5931
  205SOL    HW2  615   1.026   0.939   1.171 -0.6415 -0.1285 -1.8659
  206SOL     OW  616   0.730   0.582   2.787  0.2004  0.3556 -0.4721
  206SOL    HW1  617   0.736   0.606   2.692  1.1667 -2.1280 -0.2019
  206SOL    HW2  618   0.685   0.489   2.789 -0.7919 -1.5210 -0.0370
  207SOL     OW  619   1.679   2.579   1.910  0.2460 -0.1260 -0.0873
  207SOL    HW1  620   1.703   2.646   1.984  0.0618  1.6216 -0.6247
  207SOL    HW2  621   1.695   2.619   1.817 -1.4591 -1.3218 -0.9837
  208SOL     OW  622   0.811   2.685   1.180  0.4821 -0.4142  0.0965
  208SOL    HW1  623   0.827   2.754   1.103 -1.2880  0.6756 -1.8560
  208SOL    HW2  624   0.797   2.591   1.149 -0.7766  1.3660  1.9480
  209SOL     OW  625   1.428   1.453   2.671 -0.2891  0.1441 -1.0082
  209SOL    HW1  626   1.489   1.418   2.748  0.8702 -1.4870  1.6421
  209SOL    HW2  627   1.453   1.407   2.586  2.5872  0.8825  1.2743
  210SOL     OW  628   2.076   0.684   0.967 -0.4903  0.2918 -0.4570
  210SOL    HW1  629   2.089   0.597   0.927  0.7664  5.3190 -0.4658
  210SOL    HW2  630   2.123   0.753   0.911 -0.3930 -2.1639  1.9755
  211SOL     OW  631   1.155   2.533   0.563 -0.3559  0.5710  0.0474
  211SOL    HW1  632   1.134   2.615   0.507  0.9829  2.2678  1.3409
  211SOL    HW2  633   1.076   2.463   0.566 -0.9716 -1.3429 -0.6270
  212SOL     OW  634   2.094   1.818   0.204 -0.1611  0.6385  0.3817
  212SOL    HW1  635   2.008   1.875   0.201 -1.6009  0.1542 -2.0604
  212SOL    HW2  636   2.134   1.794   0.111  1.4815  2.1385 -0.7686
  213SOL     OW  637   1.793   0.365   2.850  0.7095 -0.2818  0.1918
  213SOL    HW1  638   1.807   0.329   2.760 -2.1029  0.1516 -0.9742
  213SOL    HW2  639   1.691   0.386   2.859 -1.0581  1.7328  1.4179
  214SOL     OW  640   1.176   1.629   1.837  0.0742  0.9199 -0.2057
  214SOL    HW1  641   1.080   1.588   1.833  0.7614 -0.1224 -0.3954
  214SOL    HW2  642   1.182   1.693   1.758 -2.8953 -0.3798  2.5982
  215SOL     OW  643   0.611   1.821   0.342 -0.0976 -0.0754 -0.5420
  215SOL    HW1  644   0.692   1.762   0.342  1.0817  1.5630  0.5474
  215SOL    HW2  645   0.528   1.780   0.389 -1.9016 -1.3902  2.0013
  216SOL     OW  646   0.132   2.960   2.589  0.0220 -0.6596  0.2065
  216SOL    HW1  647   0.186   2.878   2.610 -2.5479 -0.2682  2.0178
  216SOL    HW2  648   0.098   2.954   2.492 -0.5588  2.3209 -1.1279
  217SOL     OW  649   2.538   0.731   1.071  0.0841  0.1084 -0.4579
  217SOL    HW1  650   2.501   0.641   1.034  0.7933 -0.9042 -0.2361
  217SOL    HW2  651   2.634   0.713   1.096  0.3471  0.4874  0.9827
  218SOL     OW  652   1.519   1.824   2.025  0.2471  0.3201 -0.1846
  218SOL    HW1  653   1.587   1.754   2.054 -0.5512 -1.2391 -0.7571
  218SOL    HW2  654   1.426   1.786   2.044  1.0494  3.8253  0.1049
  219SOL     OW  655   2.116   1.563   2.992  0.1035  0.5826 -0.2031
  219SOL    HW1  656   2.118   1.573   2.888  3.1018  0.3137 -0.4647
  219SOL    HW2  657   2.033   1.618   3.018  0.4764  0.6738 -3.3412
  220SOL     OW  658   1.781   0.966   0.766  0.0995  0.0177  0.3783
  220SOL    HW1  659   1.805   0.867   0.772 -2.9137 -1.8221  1.0117
  220SOL    HW2  660   1.764   0.990   0.667 -2.4200  0.2162 -0.0310
  221SOL     OW  661   0.340   0.751   3.088  0.2670  0.1159  0.4374
  221SOL    HW1  662   0.337   0.721   0.089 -2.2160  1.6348  3.4827
  221SOL    HW2  663   0.383   0.677   3.033  0.5472 -0.1025 -0.6849
  222SOL     OW  664   1.571   1.521   0.425  0.5188  0.6981  0.2569
  222SOL    HW1  665   1.654   1.561   0.469 -1.4590 -0.2859 -2.6675
  222SOL    HW2  666   1.585   1.503   0.325  0.4087 -1.0283  0.1440
  223SOL     OW  667   1.269   0.192   0.190 -0.3311  0.3436 -0.6885
  223SOL    HW1  668   1.268   0.255   0.112  0.0790 -0.0748  1.3523
  223SOL    HW2  669   1.330   0.218   0.263  0.2242 -0.3171 -0.7864
  224SOL     OW  670   1.975   3.042   1.522  0.1531 -0.1084 -0.5340
  224SOL    HW1  671   1.882   3.042   1.483  1.4721 -1.3508 -0.4092
  224SOL    HW2  672   2.001   2.945   1.544  2.6590 -0.8993  0.7953
  225SOL     OW  673   0.544   2.338   1.278  0.0563  0.4291  0.3839
  225SOL    HW1  674   0.501   2.287   1.354 -1.1190 -0.2260 -0.0415
  225SOL    HW2  675   0.600   2.409   1.321 -1.4770  2.6444  1.5020
  226SOL     OW  676   1.174   1.396   3.096  0.1834  0.1964  0.5042
  226SOL    HW1  677   1.087   1.356   3.066  0.4253 -1.1567  1.4469
  226SOL    HW2  678   1.155   1.450   0.084  0.1417  0.8707  0.8478
  227SOL     OW  679   1.057   1.409   0.893  0.6173  0.5491 -0.7848
  227SOL    HW1  680   1.074   1.491   0.833 -2.9117  0.4354 -1.0267
  227SOL    HW2  681   1.026   1.452   0.981  1.7425  3.1374  0.2745
  228SOL     OW  682   0.368   1.706   0.478 -0.2865  0.0123  0.3636
  228SOL    HW1  683   0.360   1.624   0.546 -0.5393 -0.7040  1.7754
  228SOL    HW2  684   0.280   1.732   0.430 -2.1498  2.4741 -1.5770
  229SOL     OW  685   1.595   0.036   2.743  0.1639 -0.0692  0.3883
  229SOL    HW1  686   1.658   0.111   2.710  0.9619 -1.3821  1.6963
  229SOL    HW2  687   1.523   0.067   2.805 -1.0770 -0.5133 -0.3360
  230SOL     OW  688   1.479   0.934   2.710  0.0700  0.1552 -0.3044
  230SOL    HW1  689   1.513   0.967   2.616  1.5865  0.6657 -0.7182
  230SOL    HW2  690   1.444   1.012   2.764  0.7667  1.8017 -0.2094
  231SOL     OW  691   1.059   1.688   2.532  0.2788  0.4194  0.4172
  231SOL    HW1  692   1.108   1.658   2.617  1.0519 -1.5609 -1.1971
  231SOL    HW2  693   0.971   1.636   2.515  0.1639  0.9185  2.5463
  232SOL     OW  694   2.319   2.268   0.229 -0.0671  0.0624 -0.0153
  232SOL    HW1  695   2.215   2.256   0.238 -1.8806 -1.5090  0.2184
  232SOL    HW2  696   2.357   2.174   0.231  0.0092 -0.6638  1.8192
  233SOL     OW  697   2.423   2.492   0.296 -0.3618  0.2521  0.0194
  233SOL    HW1  698   2.438   2.554   0.214  1.1429  2.5292 -0.4597
  233SOL    HW2  699   2.374   2.409   0.268 -1.3368  1.1308 -0.4898
  234SOL     OW  700   0.760   0.859   2.882 -0.1418  0.4680  0.5429
  234SOL    HW1  701   0.753   0.768   2.841  2.1954  0.4166 -1.2480
  234SOL    HW2  702   0.857   0.881   2.890 -0.2566 -1.6188  2.5529
  235SOL     OW  703   2.884   0.355   2.868 -0.9378  0.7178 -0.2736
  235SOL    HW1  704   2.873   0.264   2.909  0.9219  2.4058  0.3548
  235SOL    HW2  705   2.801   0.365   2.811 -0.0863 -0.4525  1.6289
  236SOL     OW  706   1.983   2.451   1.457 -0.2527 -0.1759 -0.1364
  236SOL    HW1  707   1.921   2.376   1.427  0.4989 -0.3032 -2.5313
  236SOL    HW2  708   1.999   2.456   1.558 -2.3390  0.0926 -3.0511
  237SOL     OW  709   0.921   1.557   1.861 -0.5210 -0.5037  0.2651
  237SOL    HW1  710   0.909   1.657   1.870  1.5328  1.4852 -1.4123
  237SOL    HW2  711   0.888   1.500   1.942  2.6306 -0.5525 -0.1203
  238SOL     OW  712   1.551   0.481   2.729 -0.2170  0.1562  0.1177
  238SOL    HW1  713   1.499   0.565   2.750  0.0572  0.5698  0.7428
  238SOL    HW2  714   1.519   0.444   2.638 -0.8540 -1.2947 -1.9801
  239SOL     OW  715   0.372   2.124   1.789  0.2643  0.3441 -0.2651
  239SOL    HW1  716   0.424   2.138   1.703 -1.9169 -0.4012 -2.9720
  239SOL    HW2  717   0.440   2.104   1.865  1.1304  0.7531 -1.8448
  240SOL     OW  718   2.342   2.632   0.524  0.5526 -0.2005 -0.4763
  240SOL    HW1  719   2.238   2.636   0.551 -6.5849 -0.7283  1.2329
  240SOL    HW2  720   2.367   2.570   0.447  2.0259  0.5282 -1.0729
  241SOL     OW  721   2.619   0.895   0.884  0.3607 -0.5907 -0.1147
  241SOL    HW1  722   2.586   0.850   0.967 -1.6705  0.0114  1.4823
  241SOL    HW2  723   2.543   0.923   0.824  0.4833 -1.9516 -4.1264
  242SOL     OW  724   2.192   2.630   2.162 -0.1288  0.3126  0.4275
  242SOL    HW1  725   2.127   2.551   2.171 -1.0864  1.9154  0.4230
  242SOL    HW2  726   2.281   2.604   2.127 -3.7631  0.2096 -0.6314
  243SOL     OW  727   0.834   2.320   1.454  0.2516 -0.5931 -0.6345
  243SOL    HW1  728   0.932   2.310   1.473 -3.5721 -1.1525  3.4655
  243SOL    HW2  729   0.804   2.420   1.433 -1.7562  3.0423  0.0996
  244SOL     OW  730   1.808   0.174   2.660  0.4280  0.2396  0.0365
  244SOL    HW1  731   1.804   0.111   2.579 -1.7715 -0.0423 -1.2763
  244SOL    HW2  732   1.886   0.138   2.719 -0.5542  0.2023  1.3667
  245SOL     OW  733   1.250   0.170   1.347 -0.4920 -0.4168  0.5810
  245SOL    HW1  734   1.212   0.233   1.281 -0.9358  0.4363 -0.7869
  245SOL    HW2  735   1.227   0.074   1.319  1.2593 -2.4799 -1.7718
  246SOL     OW  736   1.908   2.663   0.228 -0.0968  0.2227  0.4101
  246SOL    HW1  737   1.951   2.590   0.167  1.9731 -2.0797 -1.3439
  246SOL    HW2  738   1.828   2.626   0.279 -1.6438 -0.5293 -2.0520
  247SOL     OW  739   1.285   0.601   2.409  1.1243 -0.1073 -0.1292
  247SOL    HW1  740   1.234   0.602   2.494 -3.5944 -1.8342  0.7866
  247SOL    HW2  741   1.368   0.543   2.407  0.5696  0.6595 -1.9421
  248SOL     OW  742   0.720   1.842   1.573 -0.6739 -0.0040  0.0385
  248SOL    HW1  743   0.784   1.890   1.510 -0.2257 -3.4817  0.7910
  248SOL    HW2  744   0.688   1.909   1.645  0.7301  1.7570  0.5952
  249SOL     OW  745   2.328   0.411   0.467  0.2387 -0.1669 -0.4510
  249SOL    HW1  746   2.344   0.457   0.379  1.9322  0.9320  3.0400
  249SOL    HW2  747   2.306   0.480   0.537 -2.0692  0.5479 -0.0708
  250SOL     OW  748   0.077   0.515   0.231 -0.6270  0.3064  0.1302
  250SOL    HW1  749   0.073   0.475   0.324  0.3479 -0.9501  2.9953
  250SOL    HW2  750   3.096   0.565   0.201  0.4603 -0.4250  0.0975
  251SOL     OW  751   1.325   0.655   3.021 -0.0248 -0.1937  0.4737
  251SOL    HW1  752   1.396   0.697   3.082 -1.8168  1.7115  0.5457
  251SOL    HW2  753   1.345   0.673   2.926 -2.5235 -2.4468 -0.0582
  252SOL     OW  754   1.444   1.828   1.728  0.6315  0.6328 -0.2236
  252SOL    HW1  755   1.359   1.883   1.724  0.7015 -2.4139 -1.0559
  252SOL    HW2  756   1.412   1.731   1.723  2.9594  0.7010 -1.5935
  253SOL     OW  757   2.614   2.398   1.354 -0.5693 -0.2589  0.1641
  253SOL    HW1  758   2.583   2.418   1.451 -1.4562  0.3163 -3.3078
  253SOL    HW2  759   2.710   2.417   1.330 -0.0488 -0.6719 -1.2130
  254SOL     OW  760   2.806   1.225   1.041  0.5867 -0.0726 -0.0277
  254SOL    HW1  761   2.872   1.283   1.089 -2.7874  0.1338 -0.0433
  254SOL    HW2  762   2.798   1.240   0.936 -0.8789  0.1058 -3.3401
  255SOL     OW  763   1.190   0.315   1.113 -0.8735 -0.0217 -0.1663
  255SOL    HW1  764   1.107   0.280   1.065 -1.5632  1.4862 -0.8107
  255SOL    HW2  765   1.198   0.413   1.093  0.7427 -3.1051 -0.2274
  256SOL     OW  766   1.789   2.384   1.231 -0.3534  0.6572 -0.0227
  256SOL    HW1  767   1.764   2.284   1.219  1.2330 -2.5802  2.5663
  256SOL    HW2  768   1.857   2.416   1.159  0.8320  1.9675  0.4785
  257SOL     OW  769   0.584   3.085   2.599 -0.1871 -0.2625 -0.1732
  257SOL    HW1  770   0.584   3.001   2.663  0.8481 -3.0649  2.9999
  257SOL    HW2  771   0.524   3.075   2.520  2.2357  0.0129  5.6157
  258SOL     OW  772   0.978   2.134   0.489 -0.3217 -0.4935 -0.4451
  258SOL    HW1  773   0.949   2.232   0.508  0.7141 -0.7783  1.5909
  258SOL    HW2  774   0.911   2.069   0.527  0.5752  0.0440  0.8773
  259SOL     OW  775   1.224   3.033   2.630 -0.0340  0.0149 -0.2860
  259SOL    HW1  776   1.119   3.029   2.625 -1.4940  1.8756  2.5857
  259SOL    HW2  777   1.266   2.968   2.565 -4.2168  0.8302  0.7460
  260SOL     OW  778   2.238   0.631   1.339  0.2045 -0.2698  0.5125
  260SOL    HW1  779   2.142   0.619   1.372 -1.8447  0.0373  0.2914
  260SOL    HW2  780   2.301   0.641   1.416 -1.7192 -1.4367 -3.2216
  261SOL     OW  781   0.680   0.651   2.503 -0.3959  0.0612  0.1551
  261SOL    HW1  782   0.597   0.696   2.547  0.1469  0.1294 -0.1358
  261SOL    HW2  783   0.674   0.657   2.403  0.1122 -0.1369  2.0524
  262SOL     OW  784   0.246   2.329   2.125 -0.1334  1.1066 -0.4220
  262SOL    HW1  785   0.321   2.283   2.172 -1.4450  0.7886  1.2963
  262SOL    HW2  786   0.207   2.400   2.188 -0.2980  0.6100 -0.3747
  263SOL     OW  787   0.111   1.764   2.429  0.0956  0.3204 -0.4253
  263SOL    HW1  788   0.049   1.817   2.492  0.3296 -1.4432  2.1419
  263SOL    HW2  789   0.134   1.815   2.347  0.2906 -0.3897  0.4353
  264SOL     OW  790   1.121   0.960   0.849  0.6190 -0.8496 -0.0488
  264SOL    HW1  791   1.057   0.888   0.870  0.4423  2.8294 -0.6818
  264SOL    HW2  792   1.140   0.966   0.748  0.2963 -3.2233 -2.2243
  265SOL     OW  793   1.431   2.757   0.688  0.2460  0.2638  0.0516
  265SOL    HW1  794   1.358   2.695   0.718  1.3239 -0.7610  1.3967
  265SOL    HW2  795   1.475   2.798   0.768  0.6839 -0.1984  2.5202
  266SOL     OW  796   1.687   0.988   1.526 -0.2405 -0.5592  0.1246
  266SOL    HW1  797   1.766   0.943   1.480 -2.9686  0.5610 -0.4154
  266SOL    HW2  798   1.702   1.090   1.523  0.2187 -0.6434 -0.5426
  267SOL     OW  799   2.405   1.105   2.731  0.2211 -0.1183  0.7410
  267SOL    HW1  800   2.442   1.106   2.636 -1.6521  0.0232  1.8412
  267SOL    HW2  801   2.323   1.160   2.734  0.6632  0.2880 -3.8816
  268SOL     OW  802   1.477   0.333   0.315 -0.3016 -0.3346  0.5310
  268SOL    HW1  803   1.556   0.330   0.385  2.3730  1.4830  2.0238
  268SOL    HW2  804   1.514   0.303   0.224 -0.4181  2.6078  0.6463
  269SOL     OW  805   3.019   0.732   2.622  0.5015 -0.1814 -0.3011
  269SOL    HW1  806   2.978   0.640   2.605 -0.5448 -1.1156  1.1793
  269SOL    HW2  807   2.974   0.776   2.700  3.2257 -0.7626  1.0777
  270SOL     OW  808   0.036   1.292   2.867 -0.4446  0.2998  0.1891
  270SOL    HW1  809   3.065   1.362   2.896 -2.3631 -0.0517  0.4040
  270SOL    HW2  810   0.058   1.288   2.763 -0.0303 -2.9750 -1.1882
  271SOL     OW  811   2.616   0.949   0.045  1.0129 -0.1092  0.4801
  271SOL    HW1  812   2.642   0.969   3.047 -0.1240 -1.1056 -0.1560
  271SOL    HW2  813   2.645   0.857   0.077  0.5093  1.1811 -0.1028
  272SOL     OW  814   2.696   2.287   2.259  0.2997  0.0440  0.4758
  272SOL    HW1  815   2.680   2.196   2.302 -2.6658 -0.1179 -0.2224
  272SOL    HW2  816   2.693   2.365   2.324 -0.9554 -2.6131  1.4114
  273SOL     OW  817   0.080   0.071   0.070 -0.0374  0.8382 -0.0756
  273SOL    HW1  818   0.033   0.160   0.089  0.5498 -1.2721 -1.4957
  273SOL    HW2  819   0.058   0.002   0.142  0.6940  3.3613  2.7999
  274SOL     OW  820   0.686   2.187   0.846  0.3807 -0.2625  0.2491
  274SOL    HW1  821   0.628   2.255   0.805 -0.5266  1.7198 -0.7762
  274SOL    HW2  822   0.730   2.125   0.777 -1.3612 -0.2456 -0.9212
  275SOL     OW  823   2.277   0.616   0.628 -0.1495  0.3233  0.1415
  275SOL    HW1  824   2.372   0.645   0.595 -0.0799  2.3969 -1.7168
  275SOL    HW2  825   2.245   0.687   0.689 -2.4666 -1.5859 -0.0947
  276SOL     OW  826   2.533   1.457   1.173  0.5434  0.4069  0.3581
  276SOL    HW1  827   2.441   1.482   1.141  3.6138  0.3790  0.8693
  276SOL    HW2  828   2.575   1.540   1.213  1.5290  2.2705  1.4559
  277SOL     OW  829   2.280   0.117   1.052  0.6427  0.2504  0.0313
  277SOL    HW1  830   2.243   0.124   1.148  1.0049  0.2018 -0.2581
  277SOL    HW2  831   2.374   0.156   1.047 -0.0885  1.1003 -2.7435
  278SOL     OW  832   1.544   2.558   2.314 -0.5527 -0.0798 -0.0943
  278SOL    HW1  833   1.477   2.485   2.290 -1.0703 -0.3597  0.5215
  278SOL    HW2  834   1.540   2.592   2.412  0.2950 -0.1066 -2.5565
  279SOL     OW  835   1.325   2.059   1.071  0.3963  0.1447  0.7628
  279SOL    HW1  836   1.265   2.103   1.139 -0.7993  0.7110 -1.1510
  279SOL    HW2  837   1.408   2.114   1.044  2.2312 -0.2032 -1.7330
  280SOL     OW  838   0.455   0.920   1.223 -0.4647  1.1905 -0.1503
  280SOL    HW1  839   0.367   0.909   1.271  0.3685  0.6407  1.0692
  280SOL    HW2  840   0.537   0.895   1.281  1.8199 -0.7296 -0.1255
  281SOL     OW  841   2.589   1.349   2.837 -0.0062  0.3085 -0.4094
  281SOL    HW1  842   2.548   1.266   2.798  0.7637  1.8945  0.3957
  281SOL    HW2  843   2.673   1.379   2.786  0.3700 -0.3874  0.8769
  282SOL     OW  844   0.456   1.504   0.289  0.3365  0.3674 -0.2666
  282SOL    HW1  845   0.385   1.558   0.335  3.5502 -0.3421 -1.5260
  282SOL    HW2  846   0.441   1.403   0.290 -0.9666 -2.0188 -0.4684
  283SOL     OW  847   1.782   2.468   2.922  0.0943 -0.2538 -0.3481
  283SOL    HW1  848   1.883   2.465   2.939  0.3131 -2.5147  1.6803
  283SOL    HW2  849   1.755   2.403   2.852  1.8081  1.4755  1.6298
  284SOL     OW  850   1.033   0.066   0.755 -0.3011 -0.0115 -0.0416
  284SOL    HW1  851   1.128   0.067   0.721 -1.0611 -1.5204  0.3265
  284SOL    HW2  852   0.977   0.133   0.711  1.0345 -3.4626  0.3953
  285SOL     OW  853   2.145   1.214   2.685  0.1709 -0.3381  0.0216
  285SOL    HW1  854   2.127   1.290   2.617 -1.2085 -0.5147  1.9579
  285SOL    HW2  855   2.101   1.245   2.769  0.2446  1.5561 -4.1279
  286SOL     OW  856   1.794   2.658   0.917  0.2646  0.1651 -1.2274
  286SOL    HW1  857   1.820   2.564   0.885 -2.0618 -1.5040 -0.9303
  286SOL    HW2  858   1.827   2.675   1.013 -1.9344 -1.8053 -0.5068
  287SOL     OW  859   1.368   0.342   0.885  0.0212 -0.2483 -0.2175
  287SOL    HW1  860   1.349   0.322   0.986  0.8471 -0.6850  1.3372
  287SOL    HW2  861   1.356   0.442   0.863 -1.0441 -0.9621 -1.2528
  288SOL     OW  862   0.822   2.560   2.883 -0.0404  0.2039 -0.1784
  288SOL    HW1  863   0.893   2.631   2.883 -0.7142  1.9985  0.4038
  288SOL    HW2  864   0.733   2.601   2.904  3.7230  3.3006  1.2579
  289SOL     OW  865   0.216   1.550   0.907 -0.2050  0.1430 -0.2139
  289SOL    HW1  866   0.202   1.461   0.949 -3.2015  0.0790 -2.6580
  289SOL    HW2  867   0.130   1.601   0.890  3.5750 -3.2045 -1.8643
  290SOL     OW  868   1.105   1.968   0.912 -0.2305  0.0810  0.3940
  290SOL    HW1  869   1.104   2.037   0.836  1.2147  1.3015 -0.1716
  290SOL    HW2  870   1.148   2.012   0.992  0.9979  0.4422 -0.3047
  291SOL     OW  871   1.581   2.936   3.056  0.5908  0.0752 -0.5540
  291SOL    HW1  872   1.575   2.900   0.055 -0.0856 -1.2093  0.7418
  291SOL    HW2  873   1.532   3.027   3.050 -0.3848  2.0204  0.3448
  292SOL     OW  874   0.439   0.403   2.210 -0.1800 -0.2200  0.3304
  292SOL    HW1  875   0.417   0.439   2.303  2.7838  0.5183 -1.6044
  292SOL    HW2  876   0.441   0.472   2.136 -0.1362  1.6583  0.6504
  293SOL     OW  877   2.611   2.078   1.039 -0.4119 -0.2178  0.3781
  293SOL    HW1  878   2.528   2.110   0.986 -0.9212  0.4635  0.0550
  293SOL    HW2  879   2.586   2.057   1.132  0.2955  1.0481 -1.2605
  294SOL     OW  880   0.670   0.258   2.292  0.1585 -0.1762 -0.3612
  294SOL    HW1  881   0.581   0.296   2.276 -0.6292 -2.5232  0.6993
  294SOL    HW2  882   0.667   0.162   2.252  1.1569 -0.3781  0.4809
  295SOL     OW  883   1.336   1.780   1.039  0.0062 -0.3669 -0.1732
  295SOL    HW1  884   1.242   1.754   1.069  0.6148 -0.3814  0.3267
  295SOL    HW2  885   1.347   1.883   1.060  0.1110  0.7064 -1.0833
  296SOL     OW  886   2.337   2.000   0.195  0.1293  0.5849  0.3142
  296SOL    HW1  887   2.292   1.916   0.171  2.6167 -0.0607  0.0552
  296SOL    HW2  888   2.432   2.000   0.154 -0.3713 -0.6120  1.1771
  297SOL     OW  889   2.302   0.201   0.297 -0.1365 -0.0713  0.1085
  297SOL    HW1  890   2.236   0.130   0.321 -0.2474 -0.0926  0.0650
  297SOL    HW2  891   2.330   0.260   0.372 -1.1956 -0.6151 -0.5623
  298SOL     OW  892   0.982   0.137   2.910 -0.4143 -0.5542 -0.0056
  298SOL    HW1  893   0.983   0.135   2.808  0.6590  0.5981 -0.3246
  298SOL    HW2  894   0.998   0.234   2.939  3.4435 -0.6714  0.9244
  299SOL     OW  895   0.548   2.512   2.237  0.0376 -0.1114  0.1667
  299SOL    HW1  896   0.521   2.493   2.143 -0.7738  0.2584 -2.3200
  299SOL    HW2  897   0.506   2.445   2.302 -0.6132  2.5464 -1.1729
  300SOL     OW  898   2.851   3.009   2.489 -0.3444 -0.2633  0.1467
  300SOL    HW1  899   2.847   0.005   2.527 -0.8123 -1.3995 -0.6493
  300SOL    HW2  900   2.901   2.955   2.558 -1.0263  0.1058 -0.6264
  301SOL     OW  901   1.221   0.532   1.665  0.6164 -0.1716  0.1058
  301SOL    HW1  902   1.315   0.517   1.621  2.8921 -2.3839 -1.3730
  301SOL    HW2  903   1.172   0.450   1.642  2.3078  1.3721 -0.8611
  302SOL     OW  904   3.004   2.305   2.969 -0.5609 -0.1804 -0.2874
  302SOL    HW1  905   3.096   2.337   2.950 -3.8227 -0.4477 -1.2301
  302SOL    HW2  906   2.943   2.321   2.892 -1.0308  1.1406  1.1840
  303SOL     OW  907   2.155   2.162   1.450 -0.2675 -0.1902 -0.7560
  303SOL    HW1  908   2.058   2.188   1.474 -0.5600 -0.6208  1.3696
  303SOL    HW2  909   2.212   2.228   1.504  1.6071  1.4778 -0.0493
  304SOL     OW  910   2.699   0.890   1.568 -0.0307  0.3661  0.5107
  304SOL    HW1  911   2.744   0.854   1.483  2.8394 -2.3049 -0.7519
  304SOL    HW2  912   2.769   0.938   1.623 -4.0719 -2.0422  1.3131
  305SOL     OW  913   0.646   1.630   0.892 -0.0838  0.1346  0.2522
  305SOL    HW1  914   0.739   1.665   0.888  1.7715  1.6242 -2.3208
  305SOL    HW2  915   0.584   1.708   0.884  0.7177  0.6246  0.4981
  306SOL     OW  916   0.556   1.406   2.238  0.0581  0.1999  0.3001
  306SOL    HW1  917   0.583   1.504   2.228  0.0898  4.3484  0.7217
  306SOL    HW2  918   0.542   1.380   2.338 -0.1280 -2.0746 -1.7811
  307SOL     OW  919   1.122   0.268   1.598  0.2883  0.2213  0.4886
  307SOL    HW1  920   1.117   0.205   1.676  0.9828  0.8270  0.4457
  307SOL    HW2  921   1.169   0.229   1.515  3.4041 -2.4427 -1.8183
  308SOL     OW  922   3.043   1.043   1.328 -0.0104 -0.3976 -0.3001
  308SOL    HW1  923   2.946   1.019   1.348  1.3318  0.8255  1.2036
  308SOL    HW2  924   3.061   1.019   1.227  1.2885  3.8153 -0.5445
  309SOL     OW  925   2.513   1.218   1.062  0.1711  0.1849 -0.6164
  309SOL    HW1  926   2.507   1.313   1.100  0.4259  2.3588  1.3975
  309SOL    HW2  927   2.612   1.189   1.050  0.6708 -1.6948  1.9211
  310SOL     OW  928   0.331   1.980   2.469 -0.3236  0.1247 -0.4733
  310SOL    HW1  929   0.429   2.009   2.463  1.6578  0.7423  1.9824
  310SOL    HW2  930   0.279   2.058   2.420  0.1684  2.3817 -1.3400
  311SOL     OW  931   2.590   2.678   2.333  0.2887 -0.0039  0.0116
  311SOL    HW1  932   2.615   2.737   2.255 -1.0038  2.5772 -3.1263
  311SOL    HW2  933   2.601   2.730   2.418 -0.1989  2.7553 -0.8093
  312SOL     OW  934   1.921   2.195   3.000  0.0181  0.2963  0.2991
  312SOL    HW1  935   1.867   2.208   2.914 -1.2591  0.5340 -0.6382
  312SOL    HW2  936   2.022   2.204   2.982  4.7022 -1.6655 -1.3000
  313SOL     OW  937   0.043   3.060   0.769 -0.1905 -0.0267 -0.0121
  313SOL    HW1  938   0.109   2.988   0.732  3.8123  1.5420  0.0962
  313SOL    HW2  939   0.072   0.050   0.732  0.2179 -2.5992 -0.6055
  314SOL     OW  940   1.900   1.015   2.897  0.6833  0.1271 -0.1426
  314SOL    HW1  941   1.980   0.976   2.945  1.0412  1.7309 -1.3970
  314SOL    HW2  942   1.924   1.117   2.871  1.4750  2.5063  0.9030
  315SOL     OW  943   1.540   2.988   2.440 -0.2285 -0.1327 -0.9437
  315SOL    HW1  944   1.460   2.960   2.378 -0.6064  1.8360  0.1330
  315SOL    HW2  945   1.524   2.947   2.534  0.0578 -2.5707  0.5710
  316SOL     OW  946   2.854   1.086   0.567  0.1679  0.4882 -0.0701
  316SOL    HW1  947   2.929   1.148   0.530  0.1814 -1.0719  0.2824
  316SOL    HW2  948   2.792   1.058   0.486 -2.2264 -0.5138  2.1004
  317SOL     OW  949   0.595   2.712   2.967  0.0318 -0.2364  0.4590
  317SOL    HW1  950   0.577   2.632   3.024 -2.3732 -1.2794  0.5609
  317SOL    HW2  951   0.578   2.795   3.024 -1.7892  0.4435  1.0055
  318SOL     OW  952   2.763   2.403   1.036 -0.0486 -0.1561  0.4150
  318SOL    HW1  953   2.672   2.377   1.000 -1.4130  2.5178  1.3243
  318SOL    HW2  954   2.826   2.322   1.034  3.0920 -2.9007  0.3909
  319SOL     OW  955   1.185   1.934   2.871  0.0869  0.0013 -0.3695
  319SOL    HW1  956   1.122   1.933   2.792 -1.5374  0.9439 -1.4506
  319SOL    HW2  957   1.202   1.840   2.908  1.0622 -1.3703 -1.0296
  320SOL     OW  958   0.550   1.834   1.166  0.8940  0.4360 -0.0440
  320SOL    HW1  959   0.480   1.777   1.115 -1.4562 -4.5692 -2.5142
  320SOL    HW2  960   0.545   1.811   1.266  2.3412 -0.5908 -1.6832
  321SOL     OW  961   1.236   2.802   2.191 -0.0612 -0.2204 -0.7750
  321SOL    HW1  962   1.174   2.842   2.124  0.2358  2.2204  1.2139
  321SOL    HW2  963   1.209   2.706   2.209 -1.2371  1.7021  1.0428
  322SOL     OW  964   2.510   1.861   1.837 -0.5666  0.1135  0.1783
  322SOL    HW1  965   2.425   1.853   1.893  0.7439 -2.5545  1.0100
  322SOL    HW2  966   2.506   1.944   1.784 -2.5253 -2.3391  0.1778
  323SOL     OW  967   2.943   0.607   0.899  0.2388 -0.1280  0.2789
  323SOL    HW1  968   2.883   0.637   0.821 -1.6780  2.3259 -1.3313
  323SOL    HW2  969   3.039   0.642   0.892 -2.1727  1.6373 -0.5908
  324SOL     OW  970   2.637   2.867   2.548 -0.0577  0.3080 -0.0701
  324SOL    HW1  971   2.658   2.834   2.644  0.4266  0.8390 -1.5507
  324SOL    HW2  972   2.700   2.940   2.520 -1.3633  0.3161  1.3104
  325SOL     OW  973   0.967   0.383   2.703 -0.1444 -0.1948  0.1332
  325SOL    HW1  974   1.041   0.318   2.673  1.3302 -0.5555  2.5239
  325SOL    HW2  975   0.903   0.400   2.626 -0.8570  0.5937  1.0362
  326SOL     OW  976   2.008   2.444   1.727 -0.1665  0.2809  0.1417
  326SOL    HW1  977   1.933   2.395   1.774  0.1120  0.1388 -1.7742
  326SOL    HW2  978   2.020   2.538   1.759  1.2819  0.7856 -0.5229
  327SOL     OW  979   2.252   0.061   2.911 -0.5482 -0.0602  0.0087
  327SOL    HW1  980   2.258   0.145   2.972 -0.2467  2.9991 -1.4542
  327SOL    HW2  981   2.216   3.083   2.963  1.1100  1.3287 -0.7696
  328SOL     OW  982   0.394   1.421   1.990 -0.1721 -0.1693  0.0990
  328SOL    HW1  983   0.439   1.402   2.080 -0.4072 -3.7422 -1.3184
  328SOL    HW2  984   0.304   1.476   1.999 -0.5330  1.0696 -0.0654
  329SOL     OW  985   1.996   0.584   1.695 -0.4533  0.0756  0.0297
  329SOL    HW1  986   1.922   0.602   1.762  1.1139 -2.4099 -1.0261
  329SOL    HW2  987   2.086   0.593   1.749 -0.2770 -0.6036  0.2503
  330SOL     OW  988   0.109   1.142   0.889  0.4697  0.1802  0.0531
  330SOL    HW1  989   0.069   1.062   0.941 -1.5459 -0.5872  0.1629
  330SOL    HW2  990   0.114   1.227   0.945  1.2985 -0.4308 -3.8612
  331SOL     OW  991   0.143   1.888   2.143  0.1696 -0.0028  0.1396
  331SOL    HW1  992   0.079   1.832   2.089  1.0629 -1.0858  0.9408
  331SOL    HW2  993   0.234   1.893   2.096  0.5400  1.8760 -0.6503
  332SOL     OW  994   3.043   2.636   1.631 -0.2532 -0.2582 -0.2686
  332SOL    HW1  995   3.026   2.681   1.541 -1.9564 -0.8232  1.3792
  332SOL    HW2  996   3.008   2.537   1.637  0.0365 -3.2842 -0.8219
  333SOL     OW  997   2.552   0.263   0.931  0.1675  0.3468  0.3113
  333SOL    HW1  998   2.507   0.221   0.849  3.4677  1.8873 -0.3307
  333SOL    HW2  999   2.646   0.223   0.943 -1.2340  1.0294  0.0477
  334SOL     OW 1000   0.311   1.495   0.640 -0.5560  0.0714 -0.0492
  334SOL    HW1 1001   0.360   1.413   0.614  0.7619  0.5148 -1.6640
  334SOL    HW2 1002   0.301   1.506   0.740  0.6945  0.8442  2.0063
  335SOL     OW 1003   0.206   2.600   2.955 -0.0372 -0.5374 -0.1975
  335SOL    HW1 1004   0.160   2.587   2.864 -4.1600 -2.3858  0.2176
  335SOL    HW2 1005   0.235   2.507   2.991 -1.2282  2.1544 -0.2985
  336SOL     OW 1006   2.912   2.637   2.369 -0.2457  0.6740 -0.4112
  336SOL    HW1 1007   2.934   2.729   2.334 -2.1842  0.5903  1.2704
  336SOL    HW2 1008   2.924   2.635   2.470  0.1027 -1.5151  0.1941
  337SOL     OW 1009   1.820   2.345   1.882  0.3973 -0.1001  0.7182
  337SOL    HW1 1010   1.741   2.412   1.864 -2.7688  0.7495 -2.0489
  337SOL    HW2 1011   1.788   2.247   1.858  0.7425 -0.7403  1.3446
  338SOL     OW 1012   0.819   2.872   0.085  0.3954  0.0311  1.0603
  338SOL    HW1 1013   0.745   2.922   0.133 -0.1670  1.7081  1.8998
  338SOL    HW2 1014   0.879   2.933   0.029 -0.0857  0.4226  0.5561
  339SOL     OW 1015   0.651   1.172   2.163  0.0301 -0.4974  0.0215
  339SOL    HW1 1016   0.630   1.263   2.199  0.7750  0.1908 -0.4218
  339SOL    HW2 1017   0.669   1.180   2.064 -0.8444  0.3115  2.2623
  340SOL     OW 1018   1.884   2.815   0.699  0.2200 -0.5791 -0.0292
  340SOL    HW1 1019   1.855   2.773   0.786  5.7670  0.7731  0.4894
  340SOL    HW2 1020   1.848   2.909   0.695 -1.9189  0.3613  0.2044
  341SOL     OW 1021   2.057   1.180   1.080 -0.0428 -0.5227 -0.1211
  341SOL    HW1 1022   2.050   1.080   1.104  1.6418  0.4689 -2.7459
  341SOL    HW2 1023   2.084   1.245   1.157 -0.3044  2.1648  0.1928
  342SOL     OW 1024   2.506   3.026   0.011 -0.2028 -0.7465  0.5986
  342SOL    HW1 1025   2.409   2.993   0.019 -0.8499  0.1949  2.7744
  342SOL    HW2 1026   2.575   2.959   0.038 -1.1287  2.7765 -1.6075
  343SOL     OW 1027   1.049   2.210   1.633  0.2854  0.1074  0.0768
  343SOL    HW1 1028   1.048   2.243   1.732 -3.5277 -2.4301 -1.6832
  343SOL    HW2 1029   1.123   2.139   1.615  3.0101  0.2013 -0.7616
  344SOL     OW 1030   2.554   2.775   1.507  1.1311  0.1350  0.0157
  344SOL    HW1 1031   2.506   2.857   1.553 -1.8448  0.6118  1.4002
  344SOL    HW2 1032   2.652   2.792   1.512  0.9348  0.8118  1.2461
  345SOL     OW 1033   2.555   2.009   2.943  0.2525  0.2124  0.2455
  345SOL    HW1 1034   2.622   1.949   2.890  0.5991  0.3492 -1.9748
  345SOL    HW2 1035   2.571   2.007   3.042 -0.2182  0.9859  0.4391
  346SOL     OW 1036   2.253   2.258   0.618 -0.2547 -0.1179 -0.3132
  346SOL    HW1 1037   2.340   2.240   0.569  2.7790 -0.2286 -0.2506
  346SOL    HW2 1038   2.264   2.229   0.710  0.3686 -1.4538 -4.6488
  347SOL     OW 1039   1.609   1.917   1.246  0.3393  0.4694 -0.1254
  347SOL    HW1 1040   1.603   1.837   1.185  0.5404  0.2893 -0.3718
  347SOL    HW2 1041   1.540   1.910   1.326  0.2710  2.2867 -0.4110
  348SOL     OW 1042   0.520   1.745   2.291 -0.5785  0.9444 -0.7742
  348SOL    HW1 1043   0.607   1.737   2.234  1.7730  4.4588  0.2639
  348SOL    HW2 1044   0.531   1.804   2.372  2.2180 -1.6608  0.1878
  349SOL     OW 1045   2.221   1.642   0.615 -0.6868  0.4566  0.8742
  349SOL    HW1 1046   2.201   1.602   0.705  1.4667  1.2229 -2.1710
  349SOL    HW2 1047   2.284   1.725   0.626  0.2202  1.3156  0.0728
  350SOL     OW 1048   2.821   2.422   0.702  0.4811 -0.1492 -0.9630
  350SOL    HW1 1049   2.761   2.507   0.724  1.6877  0.1028 -0.5759
  350SOL    HW2 1050   2.785   2.340   0.748 -0.2392  1.0696 -2.0750
  351SOL     OW 1051   0.321   2.920   1.589 -0.2335 -0.1888 -0.3153
  351SOL    HW1 1052   0.364   2.839   1.555  0.1555  0.6647 -3.4581
  351SOL    HW2 1053   0.281   2.973   1.512  0.4610 -1.2082 -0.0508
  352SOL     OW 1054   0.505   1.370   1.176  0.5971 -0.1529 -0.3181
  352SOL    HW1 1055   0.428   1.308   1.195  1.0706  1.9221 -2.5192
  352SOL    HW2 1056   0.551   1.344   1.090  1.2969  0.7994 -2.3552
  353SOL     OW 1057   1.205   1.191   2.637 -0.4157 -0.3920 -0.1746
  353SOL    HW1 1058   1.123   1.239   2.663  5.0342 -0.4886  0.1647
  353SOL    HW2 1059   1.260   1.171   2.721 -0.6925  1.3424 -3.2150
  354SOL     OW 1060   1.451   0.047   1.485 -0.5881  0.2295  0.2815
  354SOL    HW1 1061   1.367   0.081   1.437  0.0978  1.7930 -1.6173
  354SOL    HW2 1062   1.467   0.088   1.579  0.3803  1.5768  1.2449
  355SOL     OW 1063   2.170   1.375   0.737 -0.5395 -0.4874  0.3312
  355SOL    HW1 1064   2.213   1.290   0.770 -2.3705  4.0811 -2.6727
  355SOL    HW2 1065   2.217   1.403   0.649  1.9948 -1.8301 -1.3146
  356SOL     OW 1066   2.651   1.692   1.955 -0.2649  0.5290 -0.2950
  356SOL    HW1 1067   2.579   1.755   1.911 -4.5156  1.3207 -1.0724
  356SOL    HW2 1068   2.729   1.754   1.993  1.4073 -1.0966  2.3337
  357SOL     OW 1069   0.385   2.911   1.195  0.7970  0.0675 -0.0193
  357SOL    HW1 1070   0.290   2.912   1.236  0.4385  1.2906  2.6476
  357SOL    HW2 1071   0.409   2.821   1.155  2.7378  1.7061  0.0645
  358SOL     OW 1072   2.689   1.447   1.833 -0.1135  0.0322 -0.0484
  358SOL    HW1 1073   2.668   1.540   1.859 -0.4008 -2.0329 -0.6978
  358SOL    HW2 1074   2.614   1.415   1.775 -0.4940  2.3699  1.2377
  359SOL     OW 1075   2.169   2.847   2.601  0.4098 -0.5462  0.2059
  359SOL    HW1 1076   2.204   2.766   2.546  1.3165 -0.4651 -0.3390
  359SOL    HW2 1077   2.101   2.897   2.548  0.3610  1.0871 -2.1453
  360SOL     OW 1078   0.778   0.288   0.866 -0.4138 -0.0806 -0.0232
  360SOL    HW1 1079   0.812   0.309   0.773 -2.6383 -1.7668  0.9184
  360SOL    HW2 1080   0.680   0.253   0.863  0.4626 -0.8175 -0.1203
  361SOL     OW 1081   1.925   0.177   1.102  0.1465  0.2037  0.0658
  361SOL    HW1 1082   1.989   0.222   1.036  0.5349  1.0851  1.7729
  361SOL    HW2 1083   1.921   0.228   1.190  0.2084 -0.2178 -0.9345
  362SOL     OW 1084   1.562   1.087   1.028  0.0083 -0.0099  0.5477
  362SOL    HW1 1085   1.664   1.076   1.032  0.2171 -1.1804  0.1929
  362SOL    HW2 1086   1.542   1.187   1.013  0.5631  0.5242 -1.3424
  363SOL     OW 1087   2.273   1.512   2.327  0.5756 -0.1125 -0.3789
  363SOL    HW1 1088   2.373   1.489   2.337  2.9472 -1.1119  0.7971
  363SOL    HW2 1089   2.240   1.473   2.244 -0.3445 -0.1327  2.0988
  364SOL     OW 1090   0.225   3.021   1.004 -0.1078 -0.1517 -0.1452
  364SOL    HW1 1091   0.296   3.011   1.081  3.4369 -0.2780 -0.7755
  364SOL    HW2 1092   0.127   3.004   1.025  1.4414  0.6296 -1.8619
  365SOL     OW 1093   0.237   3.015   2.998  0.1475 -0.5836 -0.2597
  365SOL    HW1 1094   0.242   3.058   2.906 -0.8887  0.2911  0.3673
  365SOL    HW2 1095   0.161   3.056   3.050  0.2415  0.1284  1.2907
  366SOL     OW 1096   2.188   2.227   2.933  0.5680 -0.0923  0.2515
  366SOL    HW1 1097   2.205   2.124   2.921 -2.0807 -0.0392  0.0474
  366SOL    HW2 1098   2.261   2.271   2.992 -0.4120  1.0410  1.8229
  367SOL     OW 1099   2.600   2.443   2.945 -0.2769 -0.2005 -0.1878
  367SOL    HW1 1100   2.620   2.346   2.912 -0.5320  0.7788 -0.4409
  367SOL    HW2 1101   2.683   2.470   3.003  0.4075  0.1475 -0.7978
  368SOL     OW 1102   0.153   1.347   1.066  0.5179 -0.1417  0.3574
  368SOL    HW1 1103   0.064   1.348   1.118 -2.4939 -1.8540  2.0067
  368SOL    HW2 1104   0.217   1.286   1.112  0.5610  1.7922 -0.8180
  369SOL     OW 1105   0.582   2.824   2.708 -0.5996 -0.2943 -0.5498
  369SOL    HW1 1106   0.667   2.781   2.671 -0.8411 -1.0962  0.2723
  369SOL    HW2 1107   0.558   2.791   2.800  1.7015 -1.3324 -1.3944
  370SOL     OW 1108   3.044   0.902   0.606  0.9385  0.0337  0.2211
  370SOL    HW1 1109   2.977   0.977   0.629  0.4808 -0.1649 -0.7669
  370SOL    HW2 1110   2.992   0.812   0.586  0.3797 -2.2254 -0.5182
  371SOL     OW 1111   1.875   2.401   0.775  0.5131  0.4382 -0.0945
  371SOL    HW1 1112   1.947   2.390   0.700  0.4698 -1.3551 -0.2820
  371SOL    HW2 1113   1.800   2.332   0.759  0.1142 -1.6145  1.0753
  372SOL     OW 1114   3.017   0.946   3.018 -0.1678  0.4052  0.1607
  372SOL    HW1 1115   3.007   0.894   0.003  2.2131  2.0104 -2.9111
  372SOL    HW2 1116   0.012   0.979   3.016 -0.7212  2.6810  1.4180
  373SOL     OW 1117   3.038   1.853   1.101 -0.1762  0.1353  0.5934
  373SOL    HW1 1118   0.021   1.841   1.156 -1.0617  3.9224 -0.2514
  373SOL    HW2 1119   2.954   1.852   1.162 -1.2830 -1.1465  0.7175
  374SOL     OW 1120   0.496   2.753   0.247 -0.6324 -0.0649  0.3654
  374SOL    HW1 1121   0.438   2.753   0.162  0.8655 -2.0084  1.6045
  374SOL    HW2 1122   0.499   2.842   0.302  1.5586 -0.5322  0.1795
  375SOL     OW 1123   0.341   0.188   0.030  0.0072 -0.0954 -0.5709
  375SOL    HW1 1124   0.319   0.222   3.036  1.2501 -1.1893 -1.2018
  375SOL    HW2 1125   0.266   0.141   0.076  0.5222  0.9563  0.4263
  376SOL     OW 1126   0.201   2.348   1.564 -0.1245  0.0224 -0.1517
  376SOL    HW1 1127   0.123   2.413   1.572 -0.1335 -1.8577  0.2062
  376SOL    HW2 1128   0.178   2.271   1.499 -0.0919 -0.2615 -1.5208
  377SOL     OW 1129   1.721   2.442   2.640  0.2634 -0.1502 -0.1883
  377SOL    HW1 1130   1.759   2.409   2.557 -0.3595  0.0505  0.5172
  377SOL    HW2 1131   1.643   2.506   2.624 -0.1593  2.0388 -1.6305
  378SOL     OW 1132   0.705   0.344   0.127 -0.1548  1.0303 -0.0076
  378SOL    HW1 1133   0.759   0.423   0.141 -1.4797 -1.5722 -3.4532
  378SOL    HW2 1134   0.722   0.265   0.193 -1.8486  0.7955  0.9703
  379SOL     OW 1135   0.447   1.267   0.588  0.2295 -0.1870 -0.1580
  379SOL    HW1 1136   0.396   1.253   0.503  2.5735 -0.7197 -0.8200
  379SOL    HW2 1137   0.545   1.252   0.567 -3.4272  0.6814 -2.2587
  380SOL     OW 1138   0.181   1.948   1.837  0.3385 -0.4821 -0.0756
  380SOL    HW1 1139   0.118   2.014   1.882  2.0484 -3.7020  0.5559
  380SOL    HW2 1140   0.275   1.990   1.824  0.5060 -0.1541 -0.2552
  381SOL     OW 1141   0.709   1.228   1.905  0.3841 -0.0002  0.4680
  381SOL    HW1 1142   0.706   1.130   1.890  0.1758 -0.0148  3.0326
  381SOL    HW2 1143   0.670   1.278   1.826  0.6074  2.9151 -0.0294
  382SOL     OW 1144   2.196   2.030   0.434 -0.2755  0.4622  0.1701
  382SOL    HW1 1145   2.197   2.132   0.447  0.5924 -1.2095 -0.5099
  382SOL    HW2 1146   2.240   2.001   0.349  1.0015  0.2105  0.5885
  383SOL     OW 1147   2.777   1.894   2.825  0.4482 -0.0900  0.2261
  383SOL    HW1 1148   2.797   1.813   2.886  0.8647  0.0618 -1.2613
  383SOL    HW2 1149   2.865   1.940   2.811 -2.5096  0.7307 -0.9413
  384SOL     OW 1150   0.553   2.098   2.375 -0.2541  0.0345 -0.1019
  384SOL    HW1 1151   0.510   2.190   2.369  0.0436 -0.8627  1.4693
  384SOL    HW2 1152   0.638   2.092   2.315 -0.6462  0.9221 -1.8721
  385SOL     OW 1153   2.701   1.826   1.007 -0.3249  0.0742 -0.1768
  385SOL    HW1 1154   2.709   1.921   1.047  0.2000  0.9298  2.6083
  385SOL    HW2 1155   2.609   1.789   0.989  1.3574  0.4797 -2.5033
  386SOL     OW 1156   2.067   1.369   1.281 -0.2144 -0.3709 -0.4293
  386SOL    HW1 1157   1.970   1.399   1.301 -2.5439 -0.5427  4.2371
  386SOL    HW2 1158   2.122   1.445   1.240 -1.3791 -0.2735  0.7333
  387SOL     OW 1159   3.025   1.093   2.135 -0.3856  0.2650  0.1745
  387SOL    HW1 1160   2.961   1.021   2.094 -0.1362 -1.5565 -0.7299
  387SOL    HW2 1161   3.009   1.175   2.082  0.8506 -0.8440  0.1951
  388SOL     OW 1162   2.688   1.344   2.204 -0.0249  0.0023  0.0537
  388SOL    HW1 1163   2.615   1.354   2.274 -1.2213  0.0097  0.6068
  388SOL    HW2 1164   2.679   1.410   2.128  0.4767  2.0895 -0.5604
  389SOL     OW 1165   2.129   1.328   2.053 -0.2123 -0.3349  0.0082
  389SOL    HW1 1166   2.042   1.362   2.098 -0.4191 -0.0481 -1.2799
  389SOL    HW2 1167   2.126   1.229   2.019 -2.8851 -2.9649 -1.3457
  390SOL     OW 1168   2.084   2.649   0.650 -0.0948  0.4759 -0.3066
  390SOL    HW1 1169   1.996   2.701   0.668 -0.3263 -1.1018  2.0741
  390SOL    HW2 1170   2.060   2.558   0.612 -0.4311 -2.8271 -1.3151
  391SOL     OW 1171   2.388   2.165   0.916  0.8175 -0.0226  0.4832
  391SOL    HW1 1172   2.291   2.163   0.950 -2.2071  0.2348  0.2500
  391SOL    HW2 1173   2.416   2.262   0.926  0.4259 -1.6835  0.5829
  392SOL     OW 1174   3.033   2.734   1.370 -0.1303 -0.1114  0.5243
  392SOL    HW1 1175   3.018   2.635   1.350  1.6878 -0.1798  0.8281
  392SOL    HW2 1176   3.010   2.786   1.285  1.1166 -1.1261  2.6452
  393SOL     OW 1177   1.915   2.011   2.655 -0.2179 -0.0991  0.0276
  393SOL    HW1 1178   1.872   2.086   2.709  0.3778  1.8644 -0.9164
  393SOL    HW2 1179   1.850   1.974   2.586  1.6916  0.3646 -0.0633
  394SOL     OW 1180   0.430   0.636   2.653 -0.5411  0.0220  0.0834
  394SOL    HW1 1181   0.438   0.596   2.747  0.2298  2.9286  0.1380
  394SOL    HW2 1182   0.341   0.691   2.650 -1.1892 -0.8903 -1.3175
  395SOL     OW 1183   0.714   0.576   0.804  0.7094  0.2233 -0.0869
  395SOL    HW1 1184   0.754   0.492   0.766 -1.4182 -0.3917 -0.6850
  395SOL    HW2 1185   0.778   0.634   0.859 -1.0491 -0.8596 -0.9320
  396SOL     OW 1186   1.208   1.207   0.365  0.0519 -0.0265  0.1576
  396SOL    HW1 1187   1.150   1.276   0.403  0.9886  0.8401  1.1910
  396SOL    HW2 1188   1.200   1.114   0.414  1.9810  2.6426 -0.4280
  397SOL     OW 1189   0.330   1.123   2.205 -0.0402 -0.2034  0.0536
  397SOL    HW1 1190   0.426   1.103   2.170  1.8474 -0.7646 -1.2172
  397SOL    HW2 1191   0.267   1.057   2.165  1.6556  1.9181 -1.4914
  398SOL     OW 1192   0.955   3.079   0.404 -0.0808 -0.5116  0.2094
  398SOL    HW1 1193   0.954   2.986   0.448  0.5311 -1.8128 -2.7782
  398SOL    HW2 1194   0.990   3.065   0.308  0.5971 -2.3879 -3.7304
  399SOL     OW 1195   2.084   0.103   1.723  0.5653  0.0122 -0.5308
  399SOL    HW1 1196   2.004   0.152   1.766 -2.8065 -1.0364  2.8279
  399SOL    HW2 1197   2.039   0.044   1.657  1.5683 -0.1140  0.1848
  400SOL     OW 1198   0.687   1.618   1.720 -0.1697  0.4579 -0.1220
  400SOL    HW1 1199   0.776   1.584   1.756  0.0472  0.1033  0.3890
  400SOL    HW2 1200   0.692   1.710   1.671 -0.9789  1.9054  0.6710
  401SOL     OW 1201   0.604   1.027   2.722  0.5724  1.1153 -0.0466
  401SOL    HW1 1202   0.640   0.961   2.797 -1.4697 -0.5965  2.1635
  401SOL    HW2 1203   0.506   1.003   2.705 -0.0177 -3.7628  0.5945
  402SOL     OW 1204   2.959   2.196   1.452 -0.4972  0.1444  0.1840
  402SOL    HW1 1205   2.891   2.122   1.443  0.8431 -1.6681 -1.5959
  402SOL    HW2 1206   3.055   2.161   1.435  0.5217 -2.8646 -1.7088
  403SOL     OW 1207   0.160   0.962   2.038  0.3246 -0.0898 -0.2203
  403SOL    HW1 1208   0.080   1.021   2.061  0.8114 -2.3689  1.7214
  403SOL    HW2 1209   0.208   0.997   1.955 -0.5202 -0.3704  1.2068
  404SOL     OW 1210   0.003   2.870   1.802  0.3467 -0.1966 -0.2524
  404SOL    HW1 1211   0.079   2.834   1.859 -0.2281 -0.3596  1.3998
  404SOL    HW2 1212   3.082   2.803   1.732  2.3768  0.6016  0.2577
  405SOL     OW 1213   0.556   0.279   1.894  0.1775  0.5848  0.3563
  405SOL    HW1 1214   0.583   0.294   1.990 -2.0645  0.0816 -1.0135
  405SOL    HW2 1215   0.604   0.200   1.853  0.1939  1.3763 -0.9143
  406SOL     OW 1216   1.679   2.152   2.334 -0.3395  0.0489 -0.2366
  406SOL    HW1 1217   1.748   2.206   2.277  1.1405  1.3182 -1.1146
  406SOL    HW2 1218   1.710   2.058   2.360  1.1262  1.1431  1.6392
  407SOL     OW 1219   1.479   1.343   2.424 -0.3729  0.0917  0.6931
  407SOL    HW1 1220   1.465   1.415   2.350  1.5856 -0.7725 -0.0489
  407SOL    HW2 1221   1.419   1.265   2.412 -0.2611  0.7711 -0.4918
  408SOL     OW 1222   0.762   0.395   2.504  0.6735 -0.0238 -0.2408
  408SOL    HW1 1223   0.728   0.356   2.417  0.6726 -0.3161 -0.4599
  408SOL    HW2 1224   0.730   0.494   2.509 -1.1214 -1.2527 -2.8500
  409SOL     OW 1225   0.230   1.810   0.032  1.0655 -0.4436 -0.1743
  409SOL    HW1 1226   0.308   1.740   0.030 -0.3729 -2.9594  0.6981
  409SOL    HW2 1227   0.207   1.840   0.129 -0.7934  0.6307  1.8175
  410SOL     OW 1228   2.815   1.657   0.209  1.0187  0.4171  0.4849
  410SOL    HW1 1229   2.888   1.599   0.236 -2.5244  1.4908  1.5107
  410SOL    HW2 1230   2.833   1.706   0.121 -1.3968 -0.2480 -1.0367
  411SOL     OW 1231   2.810   0.378   0.839 -0.1842  0.5320  0.4153
  411SOL    HW1 1232   2.879   0.450   0.857 -0.3009 -3.3062  1.0144
  411SOL    HW2 1233   2.717   0.407   0.803 -0.0927 -1.0205 -0.3218
  412SOL     OW 1234   1.394   1.017   1.222  0.3907  0.0313 -0.3552
  412SOL    HW1 1235   1.461   1.063   1.162  2.5460 -0.5447 -0.2584
  412SOL    HW2 1236   1.405   1.050   1.320  1.3380  0.4513  0.9227
  413SOL     OW 1237   0.726   2.564   1.405  0.0381 -0.2357 -0.3119
  413SOL    HW1 1238   0.736   2.643   1.342 -1.7234  1.6214 -2.0659
  413SOL    HW2 1239   0.676   2.604   1.488  1.6201  2.5668  2.0869
  414SOL     OW 1240   2.854   1.439   2.776  0.0505  0.2986  0.8144
  414SOL    HW1 1241   2.903   1.515   2.731  0.1980  0.5879  3.2417
  414SOL    HW2 1242   2.870   1.452   2.876 -2.3364 -0.5662 -1.2507
  415SOL     OW 1243   0.462   2.177   2.860  0.1674 -0.4396  0.3969
  415SOL    HW1 1244   0.392   2.122   2.813  1.1129 -2.2160  0.9247
  415SOL    HW2 1245   0.412   2.254   2.901  0.0596  0.9516  0.7077
  416SOL     OW 1246   1.710   0.002   0.236 -0.1954  0.1310 -0.1232
  416SOL    HW1 1247   1.789   3.045   0.211  1.4983 -0.0527  1.9981
  416SOL    HW2 1248   1.701   0.085   0.177 -0.1931 -0.5135  0.9627
  417SOL     OW 1249   0.497   0.618   0.959  0.4791  0.1131 -0.5200
  417SOL    HW1 1250   0.461   0.712   0.943 -1.6118 -0.4769  1.7528
  417SOL    HW2 1251   0.555   0.589   0.883 -3.2564  0.7277  2.4558
  418SOL     OW 1252   2.537   0.972   1.916  0.4803  0.9222  0.7134
  418SOL    HW1 1253   2.472   0.918   1.856 -0.0654 -1.2027  1.1686
  418SOL    HW2 1254   2.559   1.067   1.885  2.6508  0.7050  0.4385
  419SOL     OW 1255   0.151   0.159   0.638  0.1484 -0.0879  0.1840
  419SOL    HW1 1256   0.190   0.168   0.539  0.2804 -0.8494  1.5884
  419SOL    HW2 1257   0.189   0.229   0.696  0.6635 -2.2750 -1.4953
  420SOL     OW 1258   0.306   1.172   1.185  0.0048 -0.2763  0.6747
  420SOL    HW1 1259   0.238   1.189   1.259  2.5134  1.1045 -0.8248
  420SOL    HW2 1260   0.345   1.079   1.180 -1.2565  2.2042 -2.0447
  421SOL     OW 1261   1.279   2.581   0.801  0.2338 -0.2084  0.1550
  421SOL    HW1 1262   1.242   2.536   0.715  0.7036  0.1916 -4.2185
  421SOL    HW2 1263   1.334   2.518   0.856 -1.1798  1.9833 -1.9255
  422SOL     OW 1264   0.102   0.693   1.569 -0.3899  0.0796 -0.0780
  422SOL    HW1 1265   0.051   0.668   1.481  2.2524  0.2301 -2.3373
  422SOL    HW2 1266   0.197   0.720   1.542 -0.1326  1.5633 -0.2536
  423SOL     OW 1267   1.152   1.027   1.111  0.4422 -0.0194  0.1324
  423SOL    HW1 1268   1.243   1.020   1.153  0.5984 -1.3375 -2.7039
  423SOL    HW2 1269   1.152   1.005   1.010 -1.5355  1.2690 -1.4179
  424SOL     OW 1270   1.969   1.292   2.863 -0.5517  0.1412  0.2288
  424SOL    HW1 1271   1.979   1.308   2.965 -0.8203 -0.4417  0.4142
  424SOL    HW2 1272   1.939   1.378   2.821 -1.0222 -0.5789 -1.2833
  425SOL     OW 1273   0.037   0.527   2.101  0.3089 -0.1746  0.3432
  425SOL    HW1 1274   0.090   0.607   2.133  0.7471  0.1710  2.3549
  425SOL    HW2 1275   3.038   0.555   2.084 -2.3998  1.8316 -0.8405
  426SOL     OW 1276   3.076   2.771   3.082 -0.8560  0.1844  0.4816
  426SOL    HW1 1277   0.069   2.755   3.044 -1.5383 -1.0917 -0.9972
  426SOL    HW2 1278   3.064   2.739   0.080 -1.7691  0.2318  1.8671
  427SOL     OW 1279   1.014   0.961   2.658  0.2102 -0.2412 -0.9152
  427SOL    HW1 1280   1.081   1.032   2.624  1.3562 -0.1441 -0.9914
  427SOL    HW2 1281   1.028   0.944   2.759 -1.5497 -1.3142 -0.0275
  428SOL     OW 1282   2.472   1.314   1.700 -0.1496 -0.0934  0.2699
  428SOL    HW1 1283   2.529   1.243   1.658 -0.0525 -1.4295  1.2799
  428SOL    HW2 1284   2.374   1.288   1.720  0.8939 -0.5926 -1.0368
  429SOL     OW 1285   2.443   2.669   0.769 -0.3894  0.7604 -0.7645
  429SOL    HW1 1286   2.412   2.646   0.673  1.9261 -0.9998 -0.2214
  429SOL    HW2 1287   2.360   2.698   0.820  0.3295  0.9716 -2.1385
  430SOL     OW 1288   1.295   1.686   2.392 -0.0083 -0.3038 -0.3207
  430SOL    HW1 1289   1.202   1.664   2.424  2.6734 -0.4517 -1.3373
  430SOL    HW2 1290   1.300   1.786   2.373 -0.5301 -1.5278 -1.3770
  431SOL     OW 1291   2.903   1.538   1.477  0.6506 -0.2252  0.0575
  431SOL    HW1 1292   2.821   1.483   1.450 -1.3937 -1.3765  2.6558
  431SOL    HW2 1293   2.888   1.624   1.527  4.7889  1.0384 -0.8986
  432SOL     OW 1294   1.272   2.835   2.454 -0.0058 -0.0720  0.0774
  432SOL    HW1 1295   1.244   2.824   2.354 -0.7013 -2.3129  0.6736
  432SOL    HW2 1296   1.251   2.750   2.507  2.0614  0.3946 -0.7743
  433SOL     OW 1297   1.815   0.163   2.160  0.1510  0.1403 -0.1677
  433SOL    HW1 1298   1.907   0.159   2.206  1.6949 -2.6319 -0.3456
  433SOL    HW2 1299   1.805   0.251   2.108  0.8641 -0.9177 -0.8706
  434SOL     OW 1300   0.250   2.751   2.169 -0.5386 -0.2853 -0.3203
  434SOL    HW1 1301   0.229   2.657   2.202 -0.0694  0.3437  2.5625
  434SOL    HW2 1302   0.247   2.765   2.066 -0.3620 -3.2236  1.2621
  435SOL     OW 1303   0.001   2.403   0.307  0.3277 -0.2894 -0.6342
  435SOL    HW1 1304   0.063   2.420   0.390  1.2784  1.0304  2.2515
  435SOL    HW2 1305   3.064   2.489   0.266  0.6535 -0.4012  1.6631
  436SOL     OW 1306   0.643   0.623   2.038  0.2007  0.4081  0.4841
  436SOL    HW1 1307   0.539   0.621   2.023 -2.9764 -1.3230  0.9149
  436SOL    HW2 1308   0.694   0.654   1.956  0.7133  0.8090 -2.4297
  437SOL     OW 1309   0.335   2.765   2.582  0.0985 -0.6648  0.7251
  437SOL    HW1 1310   0.365   2.793   2.483  0.5552 -1.7465 -4.5705
  437SOL    HW2 1311   0.416   2.761   2.641 -2.4619  2.3173 -0.9171
  438SOL     OW 1312   0.597   1.333   1.681  0.1199 -0.3258 -0.3445
  438SOL    HW1 1313   0.623   1.311   1.584  1.3147  3.6682 -1.1609
  438SOL    HW2 1314   0.596   1.438   1.699 -1.3736  1.5259  0.9384
  439SOL     OW 1315   2.133   0.959   2.616 -0.0994  0.4026  0.5878
  439SOL    HW1 1316   2.171   0.968   2.519 -1.6351  0.2883 -1.4811
  439SOL    HW2 1317   2.154   1.044   2.664  0.3946 -0.9660  1.4979
  440SOL     OW 1318   0.304   0.648   0.232  0.4190 -0.1005 -0.5713
  440SOL    HW1 1319   0.379   0.578   0.234 -3.3986  0.5011 -0.9819
  440SOL    HW2 1320   0.211   0.606   0.229 -0.4903  0.6275  2.4823
  441SOL     OW 1321   1.084   2.428   1.140  0.2708 -0.1466 -0.1931
  441SOL    HW1 1322   1.162   2.492   1.171  1.8572  1.5394  1.1460
  441SOL    HW2 1323   0.988   2.465   1.165  0.6634 -2.2437  1.5780
  442SOL     OW 1324   2.667   1.520   0.830 -0.4631 -0.0542 -0.2023
  442SOL    HW1 1325   2.719   1.514   0.918  2.0746  0.7920 -0.7219
  442SOL    HW2 1326   2.576   1.566   0.853 -0.0666  2.2875 -0.8297
  443SOL     OW 1327   2.651   1.975   2.231 -0.8057 -0.1272 -0.1802
  443SOL    HW1 1328   2.579   2.036   2.198  1.9898 -0.9440  2.5128
  443SOL    HW2 1329   2.613   1.882   2.227  0.7178 -0.6477  1.9361
  444SOL     OW 1330   1.674   1.240   3.075  0.0833  0.6791  0.1972
  444SOL    HW1 1331   1.711   1.148   3.091  0.8355 -0.4381 -0.3953
  444SOL    HW2 1332   1.607   1.275   0.043 -0.2986  2.9046 -0.5169
  445SOL     OW 1333   2.566   2.933   2.099 -1.1711 -0.1171  0.5037
  445SOL    HW1 1334   2.520   2.853   2.063 -1.9299  2.9108  1.7728
  445SOL    HW2 1335   2.628   2.971   2.026  1.0072 -0.3717  2.5667
  446SOL     OW 1336   0.223   0.931   1.326  0.8831  0.2974  0.0821
  446SOL    HW1 1337   0.224   0.866   1.409 -0.6548 -3.2263  0.2525
  446SOL    HW2 1338   0.148   0.998   1.336 -0.7511 -1.9438 -0.6928
  447SOL     OW 1339   1.029   1.635   0.783 -0.4784 -0.3882  0.2355
  447SOL    HW1 1340   0.959   1.700   0.827  0.0577  1.2827 -2.8817
  447SOL    HW2 1341   0.993   1.582   0.702 -0.1444 -0.0473  0.6263
  448SOL     OW 1342   1.246   0.877   1.694 -0.0486 -0.3381 -0.3440
  448SOL    HW1 1343   1.287   0.926   1.773 -2.6790 -0.3017  1.2895
  448SOL    HW2 1344   1.167   0.819   1.729 -2.8363 -0.9519  0.4023
  449SOL     OW 1345   3.072   2.122   2.197  0.2005 -0.1211  0.1574
  449SOL    HW1 1346   3.076   2.186   2.114  3.0163  2.9164 -2.4290
  449SOL    HW2 1347   0.001   2.028   2.170 -1.4478 -0.4841 -0.1336
  450SOL     OW 1348   2.780   2.017   1.801  0.2678  0.0533  0.4441
  450SOL    HW1 1349   2.693   2.040   1.754 -0.5115  1.1162 -0.7283
  450SOL    HW2 1350   2.845   2.096   1.806  0.3187  2.8693  0.5430
  451SOL     OW 1351   2.389   0.845   1.265  0.2983 -0.4626  0.1973
  451SOL    HW1 1352   2.302   0.786   1.275 -0.5205 -1.0846 -1.2379
  451SOL    HW2 1353   2.451   0.799   1.199  0.3135 -1.3035  0.4191
  452SOL     OW 1354   0.678   1.323   0.973  0.2484  0.5952 -0.0887
  452SOL    HW1 1355   0.728   1.233   0.968 -2.2551 -1.4359 -1.3486
  452SOL    HW2 1356   0.659   1.370   0.884 -0.0374  1.0763 -0.8321
  453SOL     OW 1357   0.883   1.817   0.923 -0.1629  0.0664  0.1111
  453SOL    HW1 1358   0.810   1.869   0.973 -0.0960 -1.0904  0.4187
  453SOL    HW2 1359   0.966   1.873   0.932 -1.0081 -1.5453  0.4988
  454SOL     OW 1360   0.406   1.611   3.002  0.0797  0.3828  0.4159
  454SOL    HW1 1361   0.456   1.665   2.937 -4.2461  0.5121  3.7744
  454SOL    HW2 1362   0.380   1.524   2.965  2.5360  2.9220 -1.2281
  455SOL     OW 1363   1.823   0.640   0.619 -0.4610  0.2021 -0.3604
  455SOL    HW1 1364   1.802   0.588   0.703 -2.9487 -0.0583 -1.5754
  455SOL    HW2 1365   1.761   0.632   0.542  0.0852  1.6698  0.5227
  456SOL     OW 1366   2.200   2.517   1.079  0.3126  0.7014 -0.3445
  456SOL    HW1 1367   2.205   2.590   1.010 -0.0141  0.7280  1.9287
  456SOL    HW2 1368   2.287   2.487   1.119 -1.2362 -0.8740 -3.8734
  457SOL     OW 1369   1.856   2.866   2.687  0.2585 -0.0833 -0.0718
  457SOL    HW1 1370   1.754   2.872   2.677 -0.8086  0.2516 -2.1804
  457SOL    HW2 1371   1.901   2.774   2.675  0.2174 -0.4772  1.0293
  458SOL     OW 1372   2.325   0.582   0.261 -0.2302  0.1951  0.4755
  458SOL    HW1 1373   2.356   0.668   0.208 -3.5374 -0.8936  1.1177
  458SOL    HW2 1374   2.224   0.567   0.244  0.3322  2.7211  0.0650
  459SOL     OW 1375   0.059   1.090   2.381  0.4022  0.7086  0.0654
  459SOL    HW1 1376   0.048   1.160   2.456  0.1108  0.4385 -2.4664
  459SOL    HW2 1377   0.009   1.127   2.300 -0.8911  0.0554  1.1418
  460SOL     OW 1378   0.569   0.882   3.098 -0.0635 -0.1893  0.2863
  460SOL    HW1 1379   0.644   0.874   3.031 -0.0100 -0.4310 -0.9018
  460SOL    HW2 1380   0.481   0.838   3.064  1.9289  1.3423 -0.4350
  461SOL     OW 1381   2.697   2.648   0.808  0.3528 -0.1253  0.3142
  461SOL    HW1 1382   2.712   2.659   0.908  0.5136 -1.0130 -0.8998
  461SOL    HW2 1383   2.603   2.687   0.788 -0.1029 -1.4163  2.0728
  462SOL     OW 1384   0.309   0.239   1.569 -0.2528  0.1881  0.0684
  462SOL    HW1 1385   0.216   0.263   1.535 -0.3047 -1.3778  1.3416
  462SOL    HW2 1386   0.368   0.247   1.486 -1.6771  0.8515 -0.9509
  463SOL     OW 1387   2.025   2.344   2.065 -0.0726  0.2850 -0.9222
  463SOL    HW1 1388   1.985   2.275   2.131  1.0686 -1.0093  1.2733
  463SOL    HW2 1389   1.966   2.353   1.979  1.9061  3.0535 -2.3044
  464SOL     OW 1390   0.688   0.089   1.537  0.3321 -0.3321 -0.4241
  464SOL    HW1 1391   0.769   0.149   1.552 -1.5366  2.6364  0.5839
  464SOL    HW2 1392   0.653   0.042   1.620  1.8859 -2.0671  0.4486
  465SOL     OW 1393   0.609   2.954   1.368  0.0924 -0.3793  0.3461
  465SOL    HW1 1394   0.529   2.938   1.315  1.6995 -0.5950 -1.0519
  465SOL    HW2 1395   0.593   3.027   1.437 -1.0961  2.8552  1.1233
  466SOL     OW 1396   1.224   2.007   1.778  0.1964  0.1461 -0.0683
  466SOL    HW1 1397   1.169   1.999   1.869  0.8251 -3.3037  3.2315
  466SOL    HW2 1398   1.172   1.962   1.701  1.3203  0.1045  0.5636
  467SOL     OW 1399   0.130   1.749   1.242  0.2152 -0.1552 -0.3395
  467SOL    HW1 1400   0.086   1.686   1.312 -2.5898 -0.9036 -0.7911
  467SOL    HW2 1401   0.212   1.702   1.210 -1.7470 -2.0199 -1.5771
  468SOL     OW 1402   2.657   1.981   2.576  0.1236  0.1274 -0.2062
  468SOL    HW1 1403   2.731   1.982   2.508  2.4802 -3.5654  1.6357
  468SOL    HW2 1404   2.695   1.959   2.670 -2.8066  1.7777  2.2161
  469SOL     OW 1405   1.188   2.179   0.727  0.5450 -0.2814 -0.2020
  469SOL    HW1 1406   1.251   2.100   0.718  3.2651 -1.4419 -0.0735
  469SOL    HW2 1407   1.193   2.233   0.641  0.1609 -2.2698  1.7152
  470SOL     OW 1408   2.264   1.526   1.101  0.0416  0.1687  0.2701
  470SOL    HW1 1409   2.270   1.608   1.155  1.3380 -3.4357 -1.5712
  470SOL    HW2 1410   2.176   1.531   1.049  1.1766 -2.6172  0.1567
  471SOL     OW 1411   0.328   2.365   3.013  0.3379 -0.0998 -0.6047
  471SOL    HW1 1412   0.308   2.286   3.073  1.9589 -0.2878  2.1964
  471SOL    HW2 1413   0.415   2.411   3.034 -1.8218  2.9583  0.0206
  472SOL     OW 1414   2.833   1.865   2.030 -0.5678  0.1649 -0.0824
  472SOL    HW1 1415   2.785   1.902   1.946 -0.7833  0.0511 -1.7172
  472SOL    HW2 1416   2.823   1.936   2.103  1.1462  0.3469 -1.0689
  473SOL     OW 1417   0.828   2.551   0.776 -0.0349 -0.3400  0.1596
  473SOL    HW1 1418   0.901   2.484   0.808  0.3981 -1.6810 -1.4109
  473SOL    HW2 1419   0.858   2.648   0.787 -0.0740 -1.7594 -2.3400
  474SOL     OW 1420   3.053   0.196   1.211  0.1693 -0.2440  0.4505
  474SOL    HW1 1421   2.996   0.276   1.242  0.0209  0.5984  0.9575
  474SOL    HW2 1422   3.040   0.114   1.270 -0.9023  0.0360 -0.0609
  475SOL     OW 1423   1.707   2.786   1.702  0.0403 -0.2493  0.0044
  475SOL    HW1 1424   1.738   2.790   1.606  2.7507 -1.7616 -1.0920
  475SOL    HW2 1425   1.606   2.792   1.710  2.5963  0.3762 -1.0146
  476SOL     OW 1426   0.268   0.543   1.079  0.0240 -0.0713  0.0104
  476SOL    HW1 1427   0.355   0.578   1.044  0.4978  2.4276  0.2777
  476SOL    HW2 1428   0.278   0.462   1.142  0.1438 -2.9746  0.2120
  477SOL     OW 1429   0.782   2.435   1.106 -0.0212  0.2036 -0.3517
  477SOL    HW1 1430   0.718   2.366   1.145  1.2489  0.9741  1.3171
  477SOL    HW2 1431   0.859   2.396   1.048  1.0222  0.9415  0.6602
  478SOL     OW 1432   0.452   2.355   2.426  0.1052 -0.4266 -0.1545
  478SOL    HW1 1433   0.483   2.305   2.511  3.4634 -0.3431  3.3199
  478SOL    HW2 1434   0.370   2.414   2.445 -0.2343  0.6056 -0.7979
  479SOL     OW 1435   0.388   0.612   2.030 -0.0632 -0.8970  0.6465
  479SOL    HW1 1436   0.297   0.644   2.068  1.7121 -0.8115 -0.6109
  479SOL    HW2 1437   0.373   0.552   1.949  2.3075  0.3987 -1.9042
  480SOL     OW 1438   3.065   2.156   0.092  0.4078 -0.2887 -0.2651
  480SOL    HW1 1439   3.050   2.212   0.006  0.1953 -1.4227 -1.6214
  480SOL    HW2 1440   3.088   2.209   0.178 -1.3517  0.9979 -1.3514
  481SOL     OW 1441   1.431   2.068   1.939 -0.1367  0.0401 -0.1932
  481SOL    HW1 1442   1.477   1.979   1.970  1.9888  1.0218 -1.3286
  481SOL    HW2 1443   1.348   2.050   1.895  3.0648  1.7578  1.9807
  482SOL     OW 1444   1.523   2.183   2.560 -0.4698  1.3947 -0.4969
  482SOL    HW1 1445   1.465   2.101   2.578 -1.4531  0.7282  1.3514
  482SOL    HW2 1446   1.579   2.170   2.476 -2.3211 -0.6076 -0.0638
  483SOL     OW 1447   0.823   2.347   2.691 -0.1990 -0.2293  1.0371
  483SOL    HW1 1448   0.822   2.427   2.758  0.5889 -0.8508 -1.8061
  483SOL    HW2 1449   0.919   2.314   2.679 -1.7264  0.7516  1.6011
  484SOL     OW 1450   0.185   0.195   1.029  0.3683  0.8390  0.0855
  484SOL    HW1 1451   0.086   0.201   1.065 -3.1303  0.9467 -1.8669
  484SOL    HW2 1452   0.211   0.095   1.024  0.8585 -2.3447 -2.9492
  485SOL     OW 1453   2.046   0.470   0.559 -0.7685  0.1707  0.2431
  485SOL    HW1 1454   1.966   0.533   0.566  1.1914 -0.4616  1.3005
  485SOL    HW2 1455   2.135   0.519   0.550  0.8583  0.1919  1.6714
  486SOL     OW 1456   1.794   2.715   2.138 -0.2874 -0.1051  0.2592
  486SOL    HW1 1457   1.850   2.777   2.076  1.2174  1.3974  3.3786
  486SOL    HW2 1458   1.800   2.748   2.237 -0.1617 -2.6348  0.0226
  487SOL     OW 1459   1.696   2.201   0.740 -0.0249 -0.1011 -0.2936
  487SOL    HW1 1460   1.703   2.103   0.770  0.6706  0.1004 -1.4875
  487SOL    HW2 1461   1.662   2.208   0.643  1.0135 -0.6644  5.0015
  488SOL     OW 1462   2.150   0.923   0.258  0.5757  0.8957 -0.2943
  488SOL    HW1 1463   2.051   0.949   0.256 -0.4674  2.1948  0.8393
  488SOL    HW2 1464   2.183   0.910   0.164 -1.4835 -0.3115 -2.9346
  489SOL     OW 1465   2.469   0.203   0.667  0.6163  0.6858 -0.5710
  489SOL    HW1 1466   2.368   0.232   0.674 -3.4350  4.6416 -1.6412
  489SOL    HW2 1467   2.476   0.121   0.602 -2.0504 -1.0747 -1.5662
  490SOL     OW 1468   1.587   2.703   2.931  0.4573  0.4279 -0.4963
  490SOL    HW1 1469   1.579   2.794   2.981  2.2710  1.1140 -1.2888
  490SOL    HW2 1470   1.672   2.649   2.956  1.5098  1.4439 -0.2890
  491SOL     OW 1471   0.898   0.488   1.131 -0.3878 -0.5719 -0.1357
  491SOL    HW1 1472   0.998   0.493   1.121 -2.0034  0.6209  1.5628
  491SOL    HW2 1473   0.862   0.410   1.077  0.3296  0.9686 -1.0473
  492SOL     OW 1474   1.623   0.236   0.086 -0.6404 -0.5280  0.4013
  492SOL    HW1 1475   1.542   0.187   0.046  1.6852 -1.4441 -1.3325
  492SOL    HW2 1476   1.704   0.220   0.029 -1.5599 -0.4524 -0.5178
  493SOL     OW 1477   1.802   2.232   2.771 -0.4364  0.4030  0.6973
  493SOL    HW1 1478   1.712   2.194   2.805  0.4124  1.1767 -1.1089
  493SOL    HW2 1479   1.793   2.307   2.707  0.4011 -5.2027 -0.0351
  494SOL     OW 1480   0.355   1.079   0.775 -0.2487 -0.2187 -0.5071
  494SOL    HW1 1481   0.390   1.159   0.721 -0.5847 -0.3618 -0.8143
  494SOL    HW2 1482   0.264   1.097   0.811  2.4988 -2.0577 -0.2129
  495SOL     OW 1483   0.007   0.051   1.453  0.0016 -0.1546  0.0010
  495SOL    HW1 1484   0.045   0.147   1.438 -0.4835 -1.5331  1.1212
  495SOL    HW2 1485   0.027   0.021   1.549 -0.5063  1.7087 -3.1266
  496SOL     OW 1486   2.610   0.005   1.657  0.1738  0.1757  0.3698
  496SOL    HW1 1487   2.701   0.036   1.613  1.5328  0.0914 -2.5078
  496SOL    HW2 1488   2.597   0.018   1.762 -3.0690  0.6944 -0.6177
  497SOL     OW 1489   1.505   1.726   2.564  0.2313  0.1754 -0.2091
  497SOL    HW1 1490   1.491   1.657   2.633  2.5714  0.7435  0.1875
  497SOL    HW2 1491   1.441   1.699   2.486 -2.5256  0.3304 -4.5878
  498SOL     OW 1492   0.490   1.933   0.657  0.0490 -0.2306 -0.5911
  498SOL    HW1 1493   0.451   1.853   0.608 -0.4549 -3.0346 -0.0532
  498SOL    HW2 1494   0.415   1.961   0.722 -3.2420 -0.7541  3.3639
  499SOL     OW 1495   0.067   1.527   1.406  0.3414 -0.8722 -0.1525
  499SOL    HW1 1496   0.084   1.430   1.394 -2.1146 -1.0463 -0.1206
  499SOL    HW2 1497   3.075   1.542   1.440  0.6944  4.5898 -1.4314
  500SOL     OW 1498   1.351   2.416   0.338  0.1273  0.3790 -0.6336
  500SOL    HW1 1499   1.354   2.316   0.354  0.6358 -0.2084 -1.3480
  500SOL    HW2 1500   1.279   2.454   0.401 -0.7773  0.1052  2.2449
  501SOL     OW 1501   2.431   2.507   1.194  0.3572 -0.3649 -0.8353
  501SOL    HW1 1502   2.463   2.601   1.204  0.5104 -2.2869 -1.6318
  501SOL    HW2 1503   2.479   2.449   1.263  0.2659  0.4590  0.3427
  502SOL     OW 1504   3.094   0.893   1.709 -0.0524  0.2868 -0.4264
  502SOL    HW1 1505   0.062   0.952   1.757 -0.1845 -1.3114  0.9759
  502SOL    HW2 1506   0.036   0.832   1.642  1.7680 -0.7395 -0.2320
  503SOL     OW 1507   2.415   0.127   1.921  0.3688 -0.1625  0.1846
  503SOL    HW1 1508   2.485   0.174   1.980 -1.1625  1.1575 -0.1793
  503SOL    HW2 1509   2.377   0.185   1.844 -1.1697  3.9490 -0.7941
  504SOL     OW 1510   1.771   0.593   1.821 -0.0990  0.3708 -0.3488
  504SOL    HW1 1511   1.689   0.532   1.804  0.0454  0.0476  0.1671
  504SOL    HW2 1512   1.746   0.689   1.800 -1.4983 -1.0480  0.2239
  505SOL     OW 1513   1.183   0.192   2.661 -0.5145  0.3133 -0.4533
  505SOL    HW1 1514   1.207   0.093   2.643  1.7000  0.6029 -0.6657
  505SOL    HW2 1515   1.244   0.230   2.733 -2.0710 -1.2559  0.8812
  506SOL     OW 1516   0.384   0.447   1.792  0.6670 -0.2509 -0.7004
  506SOL    HW1 1517   0.433   0.484   1.715  0.8843  0.9799 -2.2782
  506SOL    HW2 1518   0.445   0.379   1.839  1.5734  1.3344 -1.0683
  507SOL     OW 1519   1.564   2.876   2.694 -0.1732 -0.8110 -0.2667
  507SOL    HW1 1520   1.565   2.971   2.730 -0.7084  0.8223 -0.0059
  507SOL    HW2 1521   1.564   2.815   2.776  0.0377 -2.0445 -0.3069
  508SOL     OW 1522   2.437   0.392   2.812 -0.3366  0.2426  0.1019
  508SOL    HW1 1523   2.359   0.447   2.838  3.2148 -4.1850 -0.3500
  508SOL    HW2 1524   2.408   0.308   2.757 -0.1948  0.5552 -1.8445
  509SOL     OW 1525   1.035   1.336   1.725  0.2135 -0.1938  0.0158
  509SOL    HW1 1526   0.982   1.407   1.780 -0.2091  0.1344  0.2204
  509SOL    HW2 1527   1.034   1.360   1.626 -0.5128  1.1894 -0.8057
  510SOL     OW 1528   0.021   0.935   1.086 -0.2980 -0.2632  0.2336
  510SOL    HW1 1529   0.076   0.859   1.046 -0.6616  1.7335 -1.0394
  510SOL    HW2 1530   3.022   0.921   1.050 -3.4941 -0.6088 -0.4071
  511SOL     OW 1531   1.609   1.748   1.004 -0.0378 -0.5738  0.1832
  511SOL    HW1 1532   1.510   1.770   0.998 -2.5332  2.5200  1.4579
  511SOL    HW2 1533   1.631   1.695   0.924 -0.5200  1.9959  0.9011
  512SOL     OW 1534   0.714   1.373   0.100 -0.1914 -0.1660 -0.5168
  512SOL    HW1 1535   0.658   1.314   0.044 -0.0607 -0.7313  1.4824
  512SOL    HW2 1536   0.676   1.468   0.113 -2.7684  1.4126  0.3588
  513SOL     OW 1537   0.145   2.516   0.513  0.3575  0.0915  0.2736
  513SOL    HW1 1538   0.128   2.604   0.561  0.3302 -0.8562  0.9493
  513SOL    HW2 1539   0.242   2.498   0.486  1.4141 -0.1376  2.6212
  514SOL     OW 1540   0.108   1.840   2.876  0.9399 -0.1558 -0.0833
  514SOL    HW1 1541   0.155   1.838   2.963  0.3949 -4.0487 -1.2968
  514SOL    HW2 1542   0.121   1.749   2.826 -1.3082  2.5922  1.4916
  515SOL     OW 1543   2.482   0.687   0.471  0.2800  0.5695 -0.5569
  515SOL    HW1 1544   2.447   0.784   0.478  0.9825  2.1775  1.1897
  515SOL    HW2 1545   2.445   0.644   0.390  3.0327 -2.4299  5.0056
  516SOL     OW 1546   2.529   2.771   1.239  0.1258  0.4721  0.6377
  516SOL    HW1 1547   2.533   2.773   1.337 -1.8668 -1.9148 -0.8773
  516SOL    HW2 1548   2.523   2.864   1.192 -0.8005 -0.1423 -1.9941
  517SOL     OW 1549   1.288   1.727   3.023 -0.3069 -0.3179  0.2348
  517SOL    HW1 1550   1.378   1.747   3.060 -2.8452 -2.6356  1.3120
  517SOL    HW2 1551   1.228   1.688   3.092  1.6058 -0.7201 -2.0461
  518SOL     OW 1552   1.071   0.678   1.822  0.2191 -0.1972  0.2015
  518SOL    HW1 1553   0.969   0.672   1.812 -2.0031  0.5499 -0.5793
  518SOL    HW2 1554   1.125   0.604   1.774  0.1510 -0.1255 -0.7026
  519SOL     OW 1555   2.850   1.781   0.767  0.7830 -0.3178  0.1255
  519SOL    HW1 1556   2.795   1.797   0.847 -1.3585 -0.9991 -2.2167
  519SOL    HW2 1557   2.814   1.702   0.708 -1.4724 -1.4535  2.9907
  520SOL     OW 1558   2.251   2.279   1.676  0.1939 -0.3038 -0.0147
  520SOL    HW1 1559   2.255   2.197   1.738 -1.8347 -3.4412 -0.2368
  520SOL    HW2 1560   2.178   2.336   1.714  0.6365 -3.4785  1.7139
  521SOL     OW 1561   0.955   3.013   2.604 -0.4063 -0.3893 -0.0672
  521SOL    HW1 1562   0.901   3.099   2.614  0.2664  0.2018 -2.0525
  521SOL    HW2 1563   0.891   2.940   2.583  0.1764  2.1174  1.0805
  522SOL     OW 1564   2.652   0.344   2.663 -0.4079  0.6191  0.5394
  522SOL    HW1 1565   2.620   0.380   2.570  2.2133 -1.5491  1.2160
  522SOL    HW2 1566   2.580   0.366   2.734 -0.2174 -2.6171  1.3393
  523SOL     OW 1567   1.423   2.368   1.577 -0.2586 -0.5146  0.3089
  523SOL    HW1 1568   1.454   2.464   1.556 -0.6396 -1.3975 -0.0172
  523SOL    HW2 1569   1.477   2.333   1.660  1.0149 -1.1429  1.3137
  524SOL     OW 1570   1.555   2.051   2.845 -0.2776 -0.1572 -0.1008
  524SOL    HW1 1571   1.493   2.091   2.772  0.9597  5.0314  2.6186
  524SOL    HW2 1572   1.600   1.963   2.815  0.5799 -1.5374 -2.3797
  525SOL     OW 1573   0.061   0.917   0.352  0.2413  0.1888 -0.8071
  525SOL    HW1 1574   0.033   0.909   0.452 -0.4697  0.5856  2.3279
  525SOL    HW2 1575   0.165   0.911   0.343 -1.7151  2.9594 -0.6388
  526SOL     OW 1576   0.865   2.946   0.721  0.0283  0.7047 -0.1817
  526SOL    HW1 1577   0.936   3.015   0.712 -2.4296 -0.8161  1.0103
  526SOL    HW2 1578   0.773   2.989   0.719  1.6388  0.3544 -0.8431
  527SOL     OW 1579   2.654   1.738   0.457 -0.0576 -0.1103  0.2766
  527SOL    HW1 1580   2.698   1.662   0.504 -1.7219 -0.8760  0.0926
  527SOL    HW2 1581   2.705   1.762   0.372  0.1293  1.0552  2.4378
  528SOL     OW 1582   0.767   1.003   2.315  0.4083 -0.5160 -0.7402
  528SOL    HW1 1583   0.786   1.049   2.406 -0.0712  1.6006  0.5259
  528SOL    HW2 1584   0.718   1.072   2.261 -1.1304 -2.2298  0.9732
  529SOL     OW 1585   1.207   1.593   2.763 -0.2818 -0.1099  0.4260
  529SOL    HW1 1586   1.239   1.611   2.858 -1.9835 -0.3204  0.3623
  529SOL    HW2 1587   1.278   1.535   2.719  2.0654  3.7944  1.8082
  530SOL     OW 1588   1.754   1.321   2.365 -0.2456  0.4058 -0.1793
  530SOL    HW1 1589   1.658   1.337   2.387  1.0630 -0.2906  1.0227
  530SOL    HW2 1590   1.787   1.242   2.419 -0.0391  1.7309 -0.5829
  531SOL     OW 1591   0.593   2.232   2.633 -0.0965 -0.2991 -0.0003
  531SOL    HW1 1592   0.563   2.214   2.725  2.5327  0.6118 -0.4378
  531SOL    HW2 1593   0.691   2.269   2.635  0.0606  2.5619 -0.4546
  532SOL     OW 1594   2.296   0.888   0.486 -0.3271 -0.3940  0.0648
  532SOL    HW1 1595   2.217   0.874   0.544  1.5811 -0.9091 -1.4109
  532SOL    HW2 1596   2.259   0.885   0.392 -0.6395 -0.9114  1.6079
  533SOL     OW 1597   3.034   0.387   1.832  0.2274 -0.1713  0.1749
  533SOL    HW1 1598   0.018   0.395   1.773  1.0304  2.0491  0.0286
  533SOL    HW2 1599   3.057   0.441   1.913 -2.4730 -0.9228 -2.9850
  534SOL     OW 1600   1.432   0.077   3.079 -0.0419 -0.2366  0.4402
  534SOL    HW1 1601   1.357   0.057   0.045 -2.8321  2.2649 -0.4163
  534SOL    HW2 1602   1.394   0.073   2.987  2.5735  0.1265  1.3421
  535SOL     OW 1603   0.595   0.117   0.008 -0.2374 -0.2890 -0.0954
  535SOL    HW1 1604   0.498   0.142   0.004  0.6077  2.4909 -0.2990
  535SOL    HW2 1605   0.650   0.192   0.049  1.3346  1.2661 -1.5901
  536SOL     OW 1606   0.313   1.604   1.509  0.3029  0.0887  0.2704
  536SOL    HW1 1607   0.224   1.598   1.457 -1.0631  0.2914  2.0207
  536SOL    HW2 1608   0.316   1.546   1.591  0.0218 -0.6818 -0.8144
  537SOL     OW 1609   0.344   2.540   1.849  0.1817  0.0061 -0.1476
  537SOL    HW1 1610   0.393   2.494   1.771  0.4107 -1.5953 -2.0601
  537SOL    HW2 1611   0.361   2.484   1.936  2.1026 -0.8330  1.9462
  538SOL     OW 1612   0.032   1.617   0.080 -0.1529 -0.2101  0.4590
  538SOL    HW1 1613   0.101   1.692   0.063 -0.8287  0.3695  1.2432
  538SOL    HW2 1614   0.040   1.586   0.181 -3.0172 -0.1534  1.5695
  539SOL     OW 1615   2.683   0.730   2.584 -0.4637  0.2550 -0.0852
  539SOL    HW1 1616   2.730   0.674   2.515 -0.2858  1.7608  0.7081
  539SOL    HW2 1617   2.733   0.819   2.584  2.1505 -0.8645 -0.1968
  540SOL     OW 1618   1.717   0.583   2.545  0.2416 -0.3328  0.1923
  540SOL    HW1 1619   1.669   0.541   2.623  0.7868  1.3108  0.1133
  540SOL    HW2 1620   1.784   0.513   2.507 -0.5743  0.0162  1.0357
  541SOL     OW 1621   0.865   0.132   1.930 -0.1070  0.2851 -0.1026
  541SOL    HW1 1622   0.794   0.059   1.925 -2.8095 -1.3549  0.5202
  541SOL    HW2 1623   0.824   0.218   1.976 -0.3194  1.0337  3.1111
  542SOL     OW 1624   1.986   2.625   2.471  0.0627  1.0268 -0.1693
  542SOL    HW1 1625   1.926   2.692   2.429  1.8244 -2.9608 -1.6657
  542SOL    HW2 1626   1.940   2.533   2.491 -0.7861 -1.0855  0.2978
  543SOL     OW 1627   0.608   3.034   0.728  0.6667 -0.1758 -0.7031
  543SOL    HW1 1628   0.531   2.986   0.776  2.9429 -0.5776  0.2678
  543SOL    HW2 1629   0.573   0.010   0.671 -0.1010  0.4418  0.5439
  544SOL     OW 1630   2.490   1.563   2.115  0.6072 -0.4240  0.5498
  544SOL    HW1 1631   2.557   1.605   2.047  1.4110  1.1745  0.2636
  544SOL    HW2 1632   2.402   1.529   2.067 -0.7836  1.1285 -0.7602
  545SOL     OW 1633   1.890   1.723   1.193  0.1708 -0.5463 -0.4060
  545SOL    HW1 1634   1.791   1.729   1.189 -1.9631 -1.4976  1.1681
  545SOL    HW2 1635   1.919   1.720   1.291 -1.3501  0.1192  1.6956
  546SOL     OW 1636   0.215   0.087   2.244 -0.0550 -0.4450  0.2268
  546SOL    HW1 1637   0.187   0.150   2.170 -2.4785 -0.0247  1.2429
  546SOL    HW2 1638   0.145   0.015   2.254 -0.2413  2.7786 -2.4436
  547SOL     OW 1639   1.201   0.576   1.073 -0.2668  0.3041  0.0027
  547SOL    HW1 1640   1.238   0.645   1.140  1.3341  0.0435 -2.0207
  547SOL    HW2 1641   1.249   0.590   0.982  1.8461 -0.3704 -1.2285
  548SOL     OW 1642   1.413   2.375   2.783 -0.1385 -0.1069  0.0753
  548SOL    HW1 1643   1.379   2.460   2.744 -0.3774 -3.6278  3.3861
  548SOL    HW2 1644   1.474   2.329   2.721 -2.3367  2.2483 -1.0301
  549SOL     OW 1645   2.235   0.251   0.020  0.1393  0.5025  0.2546
  549SOL    HW1 1646   2.146   0.215   0.059 -2.0389 -3.1455 -2.2287
  549SOL    HW2 1647   2.304   0.258   0.097  3.0166  3.3112  1.2010
  550SOL     OW 1648   2.720   2.007   0.581  0.5094  0.1218  0.2314
  550SOL    HW1 1649   2.683   1.912   0.593  2.6532  0.4027  1.8559
  550SOL    HW2 1650   2.785   2.015   0.507  0.4765  2.5450 -0.2735
  551SOL     OW 1651   1.056   2.860   1.979 -0.4551  0.0520  0.3096
  551SOL    HW1 1652   1.048   2.878   1.877  0.9279 -1.3122 -1.1545
  551SOL    HW2 1653   1.046   2.948   2.030 -0.3384  1.0126  3.6983
  552SOL     OW 1654   2.995   2.201   2.537 -0.6386  0.2019 -0.0149
  552SOL    HW1 1655   2.948   2.156   2.454  0.5776  1.3500  2.0021
  552SOL    HW2 1656   2.925   2.248   2.594  0.3381  3.6747 -1.6302
  553SOL     OW 1657   0.101   2.673   0.965 -0.0644  0.9664  0.1752
  553SOL    HW1 1658   0.038   2.721   1.028 -0.7645  1.5036 -0.5919
  553SOL    HW2 1659   0.109   2.571   0.979  0.4830 -0.9745 -0.7344
  554SOL     OW 1660   2.239   1.951   1.612  0.0533  0.4829  0.5537
  554SOL    HW1 1661   2.226   1.994   1.703 -0.0495 -1.9898  2.3462
  554SOL    HW2 1662   2.220   2.010   1.533  1.6825  1.0210 -0.7480
  555SOL     OW 1663   1.533   2.307   1.819  0.1028 -0.1131 -0.1381
  555SOL    HW1 1664   1.517   2.222   1.876 -1.8911 -2.7437  2.2627
  555SOL    HW2 1665   1.502   2.385   1.878 -0.0547  0.3111 -0.2030
  556SOL     OW 1666   1.481   1.477   0.819 -0.5554 -0.0186  0.3335
  556SOL    HW1 1667   1.558   1.519   0.764  1.7303 -0.8668 -0.0954
  556SOL    HW2 1668   1.405   1.539   0.835  1.5404 -1.9161  2.7886
  557SOL     OW 1669   1.398   2.851   1.546  0.4342 -0.0071 -0.2664
  557SOL    HW1 1670   1.417   2.845   1.643  0.0426 -2.4744 -0.3583
  557SOL    HW2 1671   1.420   2.943   1.509 -1.7761  0.5712 -0.3886
  558SOL     OW 1672   0.267   0.162   1.815 -0.4283 -0.2499 -0.1358
  558SOL    HW1 1673   0.279   0.230   1.893 -3.0516  0.6616  1.6514
  558SOL    HW2 1674   0.281   0.196   1.719 -1.7470  1.6794 -0.0360
  559SOL     OW 1675   2.119   3.006   0.926  0.4957 -0.0881 -0.2688
  559SOL    HW1 1676   2.194   3.062   0.973 -0.3742 -1.8234 -0.9147
  559SOL    HW2 1677   2.099   3.033   0.834 -2.9438 -0.8556 -0.1548
  560SOL     OW 1678   1.597   2.504   0.609 -0.0105 -0.3549 -0.2302
  560SOL    HW1 1679   1.651   2.490   0.688 -0.7970 -0.5495 -0.6559
  560SOL    HW2 1680   1.516   2.557   0.637 -0.4698 -2.8283 -0.8390
  561SOL     OW 1681   1.012   0.249   0.466  0.2505 -0.5216  0.0415
  561SOL    HW1 1682   1.088   0.305   0.434 -2.4719 -0.6533 -1.9169
  561SOL    HW2 1683   1.010   0.155   0.435 -2.0136  2.3951  2.7960
  562SOL     OW 1684   0.550   1.337   2.490  0.3710 -0.1018 -0.4590
  562SOL    HW1 1685   0.453   1.307   2.506 -0.5236  0.9660 -1.7734
  562SOL    HW2 1686   0.609   1.254   2.501  0.5861  0.7568  0.9014
  563SOL     OW 1687   1.429   2.148   2.202  0.3096 -0.0966  0.1682
  563SOL    HW1 1688   1.454   2.102   2.113  1.5426 -0.8614 -0.7481
  563SOL    HW2 1689   1.515   2.165   2.256  3.7317  0.4977  2.2986
  564SOL     OW 1690   2.858   0.972   0.979  0.6476 -0.4493  0.0504
  564SOL    HW1 1691   2.843   1.065   1.012  0.2091 -1.7395 -0.7623
  564SOL    HW2 1692   2.771   0.946   0.933  1.6233 -0.5957  1.9423
  565SOL     OW 1693   0.565   0.978   0.259  0.5984 -0.4700  0.0550
  565SOL    HW1 1694   0.554   0.948   0.159  1.3638 -0.2667 -4.6697
  565SOL    HW2 1695   0.612   1.068   0.263  0.9185  3.1922 -1.5790
  566SOL     OW 1696   2.584   0.040   2.867  0.7573  0.3232 -0.0267
  566SOL    HW1 1697   2.541   3.099   2.948  0.5296  1.3085 -3.8737
  566SOL    HW2 1698   2.518   0.096   2.810  2.3472  1.9337  2.6578
  567SOL     OW 1699   1.516   0.830   0.907  0.0468 -0.3361  0.6945
  567SOL    HW1 1700   1.587   0.775   0.952  0.5450 -0.5652 -0.1137
  567SOL    HW2 1701   1.523   0.929   0.941  2.0499  0.0172 -0.8031
  568SOL     OW 1702   1.669   1.808   2.831  0.3732 -0.2223  0.1742
  568SOL    HW1 1703   1.585   1.770   2.873 -0.9281  0.9314 -0.2349
  568SOL    HW2 1704   1.749   1.760   2.868 -0.0764  0.7979 -1.3227
  569SOL     OW 1705   2.018   1.349   0.028 -0.0808  0.0072 -0.0770
  569SOL    HW1 1706   1.975   1.372   0.121 -2.1175 -0.2928  0.0773
  569SOL    HW2 1707   2.082   1.420   3.096 -0.1523  0.3542  1.1458
  570SOL     OW 1708   0.055   2.548   1.878  0.1989  0.3895  0.1726
  570SOL    HW1 1709   0.156   2.521   1.872  4.2039 -0.0520  0.7457
  570SOL    HW2 1710   0.020   2.595   1.791 -0.3118  0.2652 -3.6461
  571SOL     OW 1711   2.881   1.799   1.653  0.2625  0.4037  0.3203
  571SOL    HW1 1712   2.982   1.816   1.636  2.6043  1.7288 -0.7801
  571SOL    HW2 1713   2.833   1.883   1.694  0.8910 -0.4704 -0.0915
  572SOL     OW 1714   1.570   1.908   0.452 -0.0869  0.4391  0.3227
  572SOL    HW1 1715   1.522   1.919   0.540  1.2235 -3.0446 -0.9254
  572SOL    HW2 1716   1.634   1.987   0.434  2.4676 -0.3114 -2.1440
  573SOL     OW 1717   1.726   2.114   0.395  0.1034  0.0208  0.3005
  573SOL    HW1 1718   1.771   2.160   0.315 -0.4716  2.2935 -1.3611
  573SOL    HW2 1719   1.648   2.173   0.428 -2.0469 -0.4150 -0.9235
  574SOL     OW 1720   0.947   0.175   1.307  0.0933 -0.4521 -0.1796
  574SOL    HW1 1721   1.021   0.104   1.313  1.5325 -0.1918 -1.1856
  574SOL    HW2 1722   0.924   0.178   1.210 -0.4946 -0.1753  0.8160
  575SOL     OW 1723   0.732   0.932   1.822 -0.2568 -0.4043  0.1451
  575SOL    HW1 1724   0.767   1.007   1.760  0.7182 -0.0057 -0.5838
  575SOL    HW2 1725   0.781   0.932   1.909  0.7011  0.1511  1.4874
  576SOL     OW 1726   2.620   0.489   1.544 -0.4279 -0.5791 -0.4668
  576SOL    HW1 1727   2.712   0.473   1.584  0.5939 -0.9144 -1.6947
  576SOL    HW2 1728   2.599   0.419   1.474  1.0004 -0.3426  0.6084
  577SOL     OW 1729   1.275   1.161   2.385  0.5204  0.3616  0.0568
  577SOL    HW1 1730   1.249   1.180   2.485 -0.9180  0.9452  1.7178
  577SOL    HW2 1731   1.295   1.064   2.373 -0.4606  1.4542 -3.6834
  578SOL     OW 1732   2.070   1.402   2.509  0.2388  0.2222  0.0691
  578SOL    HW1 1733   1.978   1.430   2.485  0.5263 -0.7144 -0.4409
  578SOL    HW2 1734   2.135   1.426   2.433 -0.3594  1.0695  0.0217
  579SOL     OW 1735   1.330   2.159   1.449  0.4843  0.1813  0.1119
  579SOL    HW1 1736   1.396   2.086   1.455 -0.9086  2.2003 -1.8221
  579SOL    HW2 1737   1.363   2.243   1.502  2.2585 -0.9668 -0.5009
  580SOL     OW 1738   1.313   2.127   0.454  0.6077  0.4656  0.2638
  580SOL    HW1 1739   1.346   2.044   0.499  0.8935  0.3256 -1.2890
  580SOL    HW2 1740   1.246   2.102   0.380 -0.1350 -0.0686 -2.0237
  581SOL     OW 1741   1.322   0.894   2.117 -0.3811 -0.0256  0.2098
  581SOL    HW1 1742   1.221   0.877   2.095 -2.8642  3.8270  0.4609
  581SOL    HW2 1743   1.323   0.906   2.217 -0.6747 -0.2072  0.8234
  582SOL     OW 1744   0.852   1.118   1.658  0.1287  0.1487  0.1998
  582SOL    HW1 1745   0.948   1.151   1.667  0.3432 -2.5925 -0.4112
  582SOL    HW2 1746   0.835   1.092   1.558 -0.3160  0.1700 -2.8194
  583SOL     OW 1747   1.176   1.236   1.927  0.5224  0.4864  0.4489
  583SOL    HW1 1748   1.234   1.159   1.904 -1.5533  0.0434  1.3996
  583SOL    HW2 1749   1.115   1.251   1.847  1.8590 -1.0748  1.3989
  584SOL     OW 1750   2.491   2.406   0.953 -0.0858 -0.0124  0.6249
  584SOL    HW1 1751   2.499   2.478   0.877  0.4910  2.5583 -0.3347
  584SOL    HW2 1752   2.481   2.455   1.041 -0.0526 -1.8051 -2.7998
  585SOL     OW 1753   2.021   0.020   2.740  0.4146  0.3358  1.1311
  585SOL    HW1 1754   1.992   3.024   2.719  2.4521 -0.6992 -0.4379
  585SOL    HW2 1755   2.104   0.020   2.795 -1.0392  0.4630  1.7988
  586SOL     OW 1756   3.084   2.401   0.722 -0.4377 -0.3748 -0.2091
  586SOL    HW1 1757   2.983   2.411   0.726  1.7076 -1.5968  0.1721
  586SOL    HW2 1758   0.030   2.458   0.649  1.6787  2.9948 -0.8741
  587SOL     OW 1759   1.560   1.713   0.006  0.0558  0.0741  0.5914
  587SOL    HW1 1760   1.593   1.801   0.054 -0.5092 -0.9034  0.0139
  587SOL    HW2 1761   1.601   1.632   0.054  1.9747 -0.1732 -1.4948
  588SOL     OW 1762   0.329   0.320   1.250  0.2864 -0.3133 -0.1900
  588SOL    HW1 1763   0.406   0.254   1.265  1.3579 -0.5243  3.0171
  588SOL    HW2 1764   0.270   0.291   1.173  1.0930 -1.6049  1.1446
  589SOL     OW 1765   1.333   0.630   0.817  0.2653  0.6209 -0.5906
  589SOL    HW1 1766   1.394   0.707   0.827 -1.2709  0.4994 -1.8934
  589SOL    HW2 1767   1.255   0.651   0.754  1.0998  0.1240  1.6883
  590SOL     OW 1768   1.286   1.162   3.098 -1.0443 -0.2581  0.1666
  590SOL    HW1 1769   1.321   1.143   0.092 -0.5451 -1.4983  1.6028
  590SOL    HW2 1770   1.254   1.260   3.091  0.0333 -2.0200  0.5642
  591SOL     OW 1771   2.635   2.460   2.480 -0.5166 -0.1472  0.1773
  591SOL    HW1 1772   2.551   2.466   2.535  1.3220 -3.1035  0.1525
  591SOL    HW2 1773   2.628   2.536   2.413 -1.4473  1.3689  0.6564
  592SOL     OW 1774   1.859   2.190   1.465  0.1392  0.2761  0.3926
  592SOL    HW1 1775   1.821   2.147   1.379  0.9721  0.9457 -2.6454
  592SOL    HW2 1776   1.793   2.168   1.539 -2.2194  0.2209  0.6110
  593SOL     OW 1777   0.530   0.200   0.871  0.2626 -0.5026 -0.3413
  593SOL    HW1 1778   0.513   0.154   0.960 -0.8102 -1.6590 -0.3261
  593SOL    HW2 1779   0.444   0.240   0.834  1.7619 -0.7230  0.9824
  594SOL     OW 1780   2.773   1.003   2.498  0.2136  0.1920  0.0751
  594SOL    HW1 1781   2.803   1.079   2.555 -0.2048 -2.3946 -1.4202
  594SOL    HW2 1782   2.847   0.967   2.443 -2.6452  1.3983  0.6588
  595SOL     OW 1783   0.405   2.892   0.843  0.2340 -0.0759 -0.3319
  595SOL    HW1 1784   0.409   2.808   0.898  1.8832  1.3684 -1.0815
  595SOL    HW2 1785   0.330   2.950   0.889 -1.5657 -0.6530  1.0594
  596SOL     OW 1786   0.108   1.244   1.382  0.3748 -0.4755 -0.5802
  596SOL    HW1 1787   0.119   1.270   1.479  2.0543 -0.7650  0.7606
  596SOL    HW2 1788   0.026   1.180   1.369  0.0348 -3.6483 -0.7288
  597SOL     OW 1789   1.904   1.456   0.261  0.0594  0.5109  0.1735
  597SOL    HW1 1790   1.894   1.373   0.323 -0.8401 -2.9090  1.1408
  597SOL    HW2 1791   1.990   1.508   0.289 -0.8205 -0.0618  0.5944
  598SOL     OW 1792   0.498   3.068   1.726 -0.1358 -0.1175 -0.1403
  598SOL    HW1 1793   0.435   3.025   1.656  0.9978 -1.4015 -0.9305
  598SOL    HW2 1794   0.437   0.038   1.775 -0.3307 -2.8681  1.1812
  599SOL     OW 1795   2.417   1.580   2.785 -0.1496 -0.0561 -0.5054
  599SOL    HW1 1796   2.320   1.560   2.761 -0.7326 -0.7371 -1.8426
  599SOL    HW2 1797   2.479   1.511   2.743  2.9117  0.6047 -0.4534
  600SOL     OW 1798   0.735   1.181   0.298  0.4906  0.5224 -0.1884
  600SOL    HW1 1799   0.738   1.258   0.229  0.8030 -1.7488 -1.3909
  600SOL    HW2 1800   0.747   1.212   0.395 -0.7939  1.2759  0.8887
  601SOL     OW 1801   0.529   0.933   0.953 -0.0143  0.2010  0.4900
  601SOL    HW1 1802   0.459   0.986   0.903  2.1003 -0.6327 -0.3390
  601SOL    HW2 1803   0.507   0.933   1.050 -1.8681 -1.6642  2.8117
  602SOL     OW 1804   1.665   2.833   0.467  0.0758 -0.4762  0.0711
  602SOL    HW1 1805   1.719   2.790   0.543  0.7607 -0.4264  1.2304
  602SOL    HW2 1806   1.635   2.923   0.497 -1.8907  1.2406 -0.7642
  603SOL     OW 1807   0.713   2.707   2.315 -0.0658 -0.4372  0.3306
  603SOL    HW1 1808   0.793   2.742   2.269 -1.4708 -4.4229  1.2789
  603SOL    HW2 1809   0.679   2.621   2.270  3.9028  3.0861  0.5562
  604SOL     OW 1810   0.172   0.322   2.403 -0.2286 -0.2400 -0.4159
  604SOL    HW1 1811   0.190   0.248   2.334  0.1351 -3.3374  0.2560
  604SOL    HW2 1812   0.261   0.355   2.437 -3.9048 -1.6376 -1.1919
  605SOL     OW 1813   2.706   1.376   1.368 -0.0089  0.4006 -0.2613
  605SOL    HW1 1814   2.666   1.297   1.425 -0.2794 -1.0476 -0.1297
  605SOL    HW2 1815   2.652   1.394   1.284 -3.0716 -0.5616  1.1688
  606SOL     OW 1816   0.833   1.594   2.449  0.3712 -0.1707 -0.4652
  606SOL    HW1 1817   0.743   1.577   2.489  1.6026 -0.3153 -1.3420
  606SOL    HW2 1818   0.847   1.522   2.376  2.9310 -1.7565  0.1967
  607SOL     OW 1819   0.302   3.081   0.317  0.4081  0.6305  1.0646
  607SOL    HW1 1820   0.278   0.076   0.339  0.2698 -2.0019  1.1089
  607SOL    HW2 1821   0.220   3.026   0.288  1.6992 -0.5246 -0.9214
  608SOL     OW 1822   1.981   1.724   2.000  0.5164 -0.8430  0.2138
  608SOL    HW1 1823   1.947   1.813   2.033  0.4986 -0.3535  1.0718
  608SOL    HW2 1824   1.945   1.700   1.908  0.8165  1.2055 -0.2363
  609SOL     OW 1825   2.714   0.434   1.173  0.3514 -0.0497  0.0681
  609SOL    HW1 1826   2.694   0.395   1.082 -0.3154 -0.6225  0.3010
  609SOL    HW2 1827   2.674   0.378   1.252 -0.4456 -1.8028  2.1549
  610SOL     OW 1828   0.299   2.856   0.597  0.5340  0.0156  0.2619
  610SOL    HW1 1829   0.338   2.877   0.691 -1.1383 -1.0895 -1.0210
  610SOL    HW2 1830   0.367   2.855   0.527 -2.1315  0.6982  0.2271
  611SOL     OW 1831   1.668   0.851   2.874 -0.4181  0.2739  0.0558
  611SOL    HW1 1832   1.750   0.913   2.873  3.1151  1.8762  3.3837
  611SOL    HW2 1833   1.609   0.874   2.799  0.7712  0.0788 -1.9199
  612SOL     OW 1834   0.777   2.280   1.853  0.0924 -0.3858 -0.2152
  612SOL    HW1 1835   0.830   2.268   1.939  1.4828  1.2802 -0.8815
  612SOL    HW2 1836   0.829   2.343   1.792 -1.3716 -1.5592  1.4330
  613SOL     OW 1837   0.403   2.449   0.453 -0.0366 -0.0295 -0.2807
  613SOL    HW1 1838   0.418   2.349   0.434 -1.2477 -0.6566  0.6936
  613SOL    HW2 1839   0.486   2.505   0.423 -1.0697 -0.8007  0.0119
  614SOL     OW 1840   2.374   2.944   1.630 -0.0573 -0.4168 -0.0680
  614SOL    HW1 1841   2.364   2.997   1.714 -1.1627  0.2631 -1.7639
  614SOL    HW2 1842   2.353   3.000   1.549 -0.6992  0.1258 -1.3275
  615SOL     OW 1843   1.852   0.958   0.332 -0.2782 -0.3251  0.3762
  615SOL    HW1 1844   1.771   0.999   0.373 -2.1748  1.3795  0.1698
  615SOL    HW2 1845   1.889   1.031   0.269  0.3097  2.8458  2.5788
  616SOL     OW 1846   2.059   0.519   0.248 -0.1443 -0.2242  0.2446
  616SOL    HW1 1847   1.993   0.587   0.291 -0.6732  0.3159 -2.3096
  616SOL    HW2 1848   2.045   0.426   0.282  0.3459  1.3495  0.0133
  617SOL     OW 1849   1.024   0.917   2.916 -0.0169  0.4038 -0.2504
  617SOL    HW1 1850   0.998   0.954   3.004  1.5547  0.0656 -1.4566
  617SOL    HW2 1851   1.102   0.851   2.933  0.9926 -2.1942 -1.1995
  618SOL     OW 1852   0.651   2.988   1.939  0.2235 -0.4242  0.7318
  618SOL    HW1 1853   0.673   2.889   1.936  2.1219  0.3405 -2.1635
  618SOL    HW2 1854   0.587   3.014   1.863 -0.7223 -0.6493 -2.4125
  619SOL     OW 1855   3.001   1.390   1.171 -0.2098  0.2105  0.0870
  619SOL    HW1 1856   3.016   1.402   1.270 -0.3382 -0.1965 -2.4837
  619SOL    HW2 1857   2.942   1.464   1.134  0.7207  1.6917  0.0138
  620SOL     OW 1858   2.594   0.968   2.855 -0.5337 -0.1503  0.0810
  620SOL    HW1 1859   2.523   1.032   2.821 -2.9949 -1.3978  1.3464
  620SOL    HW2 1860   2.564   0.876   2.823 -1.7861  0.2589  0.4167
  621SOL     OW 1861   2.518   2.443   1.618 -0.2097  0.2836  0.6117
  621SOL    HW1 1862   2.512   2.395   1.709 -1.8302  0.0663  1.7427
  621SOL    HW2 1863   2.525   2.546   1.617 -1.1125  2.4326 -2.6769
  622SOL     OW 1864   0.941   0.759   2.498 -0.6278 -0.4800 -0.0869
  622SOL    HW1 1865   0.850   0.735   2.530  5.5039 -1.1051  0.1606
  622SOL    HW2 1866   0.964   0.851   2.537 -1.1312  3.2432 -2.2024
  623SOL     OW 1867   1.126   0.617   2.644 -0.3049 -0.3739 -0.0630
  623SOL    HW1 1868   1.062   0.543   2.679  0.2183 -0.0384 -1.8143
  623SOL    HW2 1869   1.079   0.693   2.594  1.3516  1.3126  2.6578
  624SOL     OW 1870   2.393   0.783   0.122  0.0319 -0.4589  0.1472
  624SOL    HW1 1871   2.377   0.746   0.026  2.2248  0.0200 -1.4906
  624SOL    HW2 1872   2.463   0.856   0.113 -0.4854  0.2749  0.2927
  625SOL     OW 1873   0.940   1.175   0.883  0.2450  0.0147 -0.3930
  625SOL    HW1 1874   1.014   1.105   0.900  2.7615 -1.7485  2.4435
  625SOL    HW2 1875   0.970   1.272   0.899  1.3609 -1.8739  1.3967
  626SOL     OW 1876   1.875   1.131   2.517 -0.2947  0.1920 -0.1610
  626SOL    HW1 1877   1.853   1.031   2.527 -1.3056 -0.7604  1.5416
  626SOL    HW2 1878   1.948   1.158   2.585  0.1888 -1.5347  1.3763
  627SOL     OW 1879   0.998   2.803   2.859 -0.4332  0.0916 -0.4878
  627SOL    HW1 1880   0.995   2.851   2.767 -0.0217  0.2564 -0.2725
  627SOL    HW2 1881   0.974   2.867   2.938 -0.9377  1.2700  1.8444
  628SOL     OW 1882   2.095   0.215   2.533 -0.1196  0.4357  0.1400
  628SOL    HW1 1883   2.035   0.157   2.588  2.5385  2.6412  0.6679
  628SOL    HW2 1884   2.183   0.225   2.578 -0.3078 -1.1747 -0.4344
  629SOL     OW 1885   1.006   0.410   2.968 -0.1835 -0.0399 -0.0814
  629SOL    HW1 1886   0.983   0.429   2.867 -0.0572 -1.3411 -2.0165
  629SOL    HW2 1887   0.947   0.464   3.034  0.1317 -1.6876  1.5860
  630SOL     OW 1888   1.200   0.202   2.386 -0.9330  0.0193  0.5223
  630SOL    HW1 1889   1.137   0.266   2.342  0.9817 -0.0492  1.0919
  630SOL    HW2 1890   1.181   0.196   2.487 -0.9335 -0.6596 -0.2712
  631SOL     OW 1891   2.422   0.996   0.736  0.1477  0.2112 -0.4333
  631SOL    HW1 1892   2.378   1.066   0.793  1.8257  0.6027 -3.3331
  631SOL    HW2 1893   2.453   1.037   0.648  0.4145  0.0528  0.5368
  632SOL     OW 1894   1.896   0.880   1.371 -0.0381 -0.5606  0.2135
  632SOL    HW1 1895   1.950   0.928   1.441 -0.3572  0.0843 -1.6855
  632SOL    HW2 1896   1.934   0.785   1.372  0.1040  2.3551 -1.1841
  633SOL     OW 1897   0.852   1.508   0.521 -0.6387  0.2486  0.5245
  633SOL    HW1 1898   0.889   1.595   0.487  1.7722 -0.3267 -1.3662
  633SOL    HW2 1899   0.932   1.444   0.512  0.3443  0.5327 -1.2054
  634SOL     OW 1900   2.149   0.211   1.290  0.1539 -0.9749 -0.0696
  634SOL    HW1 1901   2.055   0.242   1.324  1.7550  1.2283  0.4066
  634SOL    HW2 1902   2.179   0.127   1.337  0.3172  0.7047 -2.2274
  635SOL     OW 1903   1.760   0.549   1.275  0.5274  0.5430  0.1888
  635SOL    HW1 1904   1.674   0.590   1.313 -1.4515  0.6054 -2.1021
  635SOL    HW2 1905   1.782   0.583   1.183 -2.0532 -0.0274 -0.0781
  636SOL     OW 1906   0.806   1.188   0.562 -0.1152 -0.0487 -0.2454
  636SOL    HW1 1907   0.797   1.254   0.637  1.2154 -2.3850 -2.1772
  636SOL    HW2 1908   0.885   1.127   0.570  0.6335  0.8361 -1.5130
  637SOL     OW 1909   2.616   2.226   2.778  0.0388  0.6750  0.2627
  637SOL    HW1 1910   2.602   2.145   2.844  0.0727 -1.5285  2.4338
  637SOL    HW2 1911   2.528   2.248   2.735  0.9495  0.1900 -0.8660
  638SOL     OW 1912   1.502   2.625   2.570 -0.2580  0.3383 -0.0960
  638SOL    HW1 1913   1.558   2.700   2.607  1.8535  0.4350 -1.5043
  638SOL    HW2 1914   1.415   2.626   2.619  0.4339  0.9362  2.6015
  639SOL     OW 1915   0.975   2.014   1.202  0.1056 -0.1975  0.0388
  639SOL    HW1 1916   0.900   2.029   1.136 -1.4070  2.4359 -0.8135
  639SOL    HW2 1917   1.036   2.094   1.210 -0.5658  1.1055 -1.2351
  640SOL     OW 1918   2.536   2.812   0.353 -0.0404  0.8750  0.5749
  640SOL    HW1 1919   2.568   2.830   0.257 -2.3665  0.3177  0.4737
  640SOL    HW2 1920   2.574   2.720   0.382 -0.5817 -0.4453 -1.4148
  641SOL     OW 1921   0.062   2.957   0.258 -0.4854 -0.0622  0.4676
  641SOL    HW1 1922   0.117   2.870   0.273  0.3601 -2.0589  1.1734
  641SOL    HW2 1923   3.076   2.960   0.317 -2.4657  1.3946  1.7146
  642SOL     OW 1924   2.801   0.947   1.263 -0.0238 -0.4721 -0.3957
  642SOL    HW1 1925   2.812   0.864   1.199 -0.4533 -1.1485 -1.3726
  642SOL    HW2 1926   2.750   1.032   1.232 -2.3776  0.5096  0.8715
  643SOL     OW 1927   0.868   1.827   1.896 -0.4911 -0.6136 -0.0780
  643SOL    HW1 1928   0.819   1.879   1.822 -0.1948  0.1325  0.0913
  643SOL    HW2 1929   0.952   1.882   1.925 -0.5582  3.6487 -1.8820
  644SOL     OW 1930   1.689   2.580   0.354 -0.7248 -0.5735 -0.1593
  644SOL    HW1 1931   1.637   2.519   0.423 -2.6200  0.9268  0.2811
  644SOL    HW2 1932   1.685   2.677   0.378 -0.9430 -2.2847 -1.9248
  645SOL     OW 1933   2.135   2.146   1.016 -0.8011  0.6426 -0.6501
  645SOL    HW1 1934   2.070   2.074   1.051 -0.1553  1.5163  1.2028
  645SOL    HW2 1935   2.083   2.234   1.011 -2.0785  0.4524 -1.0841
  646SOL     OW 1936   1.093   2.611   3.022 -0.1447 -0.0861 -0.1029
  646SOL    HW1 1937   1.188   2.580   3.007  0.5109 -1.2269 -0.9236
  646SOL    HW2 1938   1.064   2.687   2.959  1.0017  2.5785  0.1091
  647SOL     OW 1939   0.242   2.802   1.905  0.2321 -0.4441 -0.3890
  647SOL    HW1 1940   0.266   2.886   1.859  0.8000 -1.9644  0.4785
  647SOL    HW2 1941   0.293   2.725   1.863  1.9009 -1.1851  0.5491
  648SOL     OW 1942   1.749   0.703   0.995  0.4080 -0.0768 -0.7522
  648SOL    HW1 1943   1.768   0.634   0.922 -0.8314  0.1050 -0.2962
  648SOL    HW2 1944   1.831   0.761   1.011 -0.5056  1.1502 -0.5465
  649SOL     OW 1945   1.539   2.133   0.009 -0.3196  0.5987 -0.1470
  649SOL    HW1 1946   1.562   2.232   0.012 -2.7179 -0.4892  0.6041
  649SOL    HW2 1947   1.550   2.096   3.014  0.2522  2.2183 -3.4095
  650SOL     OW 1948   2.314   1.487   1.942 -0.1520 -0.0689  0.4796
  650SOL    HW1 1949   2.326   1.513   1.847  0.2481 -2.0742  1.3901
  650SOL    HW2 1950   2.234   1.421   1.959  1.1674  0.5672 -1.0227
  651SOL     OW 1951   1.634   2.385   0.008  0.1841 -0.2754  0.0806
  651SOL    HW1 1952   1.586   2.463   0.052  2.9030  1.2126 -0.9638
  651SOL    HW2 1953   1.690   2.417   3.033  1.3183 -0.6562 -0.0882
  652SOL     OW 1954   0.500   2.133   0.035 -0.2900 -0.0011  0.7772
  652SOL    HW1 1955   0.531   2.152   3.040  0.3013 -0.0322  0.8829
  652SOL    HW2 1956   0.396   2.101   0.032 -2.2353  1.0588 -1.0223
  653SOL     OW 1957   2.517   2.095   1.292 -0.5303 -0.2606 -0.4362
  653SOL    HW1 1958   2.529   2.197   1.310  1.8282  3.3699  0.3466
  653SOL    HW2 1959   2.420   2.074   1.267  0.6520 -0.6742  0.8091
  654SOL     OW 1960   2.819   2.859   1.523  0.0641  0.4064  0.1849
  654SOL    HW1 1961   2.794   2.954   1.547 -2.5188  0.1894 -1.0794
  654SOL    HW2 1962   2.916   2.848   1.492 -0.1626  2.6394  0.0074
  655SOL     OW 1963   0.116   2.148   1.394  0.4981 -0.0124  0.1175
  655SOL    HW1 1964   0.172   2.061   1.401  1.6993 -3.0676  0.2864
  655SOL    HW2 1965   0.063   2.156   1.303 -0.2226  2.2703 -4.6610
  656SOL     OW 1966   2.960   2.687   2.671  0.9151 -0.3086 -0.3276
  656SOL    HW1 1967   2.896   2.684   2.750 -1.5709 -0.3217  1.6006
  656SOL    HW2 1968   3.006   2.776   2.671 -0.2932 -1.0122  0.4203
  657SOL     OW 1969   3.054   0.756   0.131 -0.2235  0.0013 -0.3547
  657SOL    HW1 1970   2.956   0.754   0.159 -0.4887  0.6173 -0.0249
  657SOL    HW2 1971   0.007   0.805   0.202  1.1730  1.5135  1.0370
  658SOL     OW 1972   1.974   1.929   1.060  0.4341 -0.1259 -0.1635
  658SOL    HW1 1973   1.970   1.914   0.960  1.2783 -0.2230 -0.4956
  658SOL    HW2 1974   1.956   1.847   1.118  1.7705 -0.7044 -1.9129
  659SOL     OW 1975   1.516   0.607   1.412 -0.3393 -0.7918  0.4432
  659SOL    HW1 1976   1.461   0.661   1.347  1.8746 -0.8777  2.6774
  659SOL    HW2 1977   1.498   0.504   1.408  1.2095  1.4260  1.8793
  660SOL     OW 1978   1.709   1.516   0.101 -0.0213 -0.8242 -0.0313
  660SOL    HW1 1979   1.783   1.512   0.174 -0.1307  0.4862  0.2209
  660SOL    HW2 1980   1.680   1.420   0.086 -0.0254 -0.5554  0.1422
  661SOL     OW 1981   0.166   1.884   0.278 -0.2825 -0.5313 -0.9948
  661SOL    HW1 1982   0.196   1.984   0.294  1.4518  4.3108 -0.4577
  661SOL    HW2 1983   0.098   1.857   0.346  1.5622 -0.8523 -1.0894
  662SOL     OW 1984   0.192   0.735   2.174  0.0452  0.2714  0.0321
  662SOL    HW1 1985   0.204   0.775   2.266  2.0380 -0.3477  0.1126
  662SOL    HW2 1986   0.170   0.810   2.113  0.4887  0.0626  2.7002
  663SOL     OW 1987   1.899   1.439   0.803 -0.0576 -0.3009 -0.3459
  663SOL    HW1 1988   1.841   1.364   0.823  0.3728  2.0121 -1.8594
  663SOL    HW2 1989   1.999   1.420   0.802  0.8862  3.3043  1.7109
  664SOL     OW 1990   0.647   0.593   1.179 -0.1036  0.0978 -0.1455
  664SOL    HW1 1991   0.739   0.559   1.157  1.6252 -1.5493  0.0310
  664SOL    HW2 1992   0.591   0.594   1.092  1.8184  2.4150 -1.5139
  665SOL     OW 1993   1.108   3.084   0.189 -0.2137  0.3625 -0.1083
  665SOL    HW1 1994   1.165   3.013   0.241  0.5158 -1.8185  3.0900
  665SOL    HW2 1995   1.159   0.074   0.186  1.3289 -2.1396 -0.4516
  666SOL     OW 1996   3.072   0.305   2.582  0.3013  0.3350  0.4005
  666SOL    HW1 1997   0.037   0.288   2.503 -0.2767 -0.2789 -2.7202
  666SOL    HW2 1998   0.019   0.366   2.649 -3.0177  0.3825 -0.1308
  667SOL     OW 1999   2.250   1.834   1.981 -0.3847 -0.2014  0.3124
  667SOL    HW1 2000   2.270   1.838   2.080  0.9070  1.1549 -0.7601
  667SOL    HW2 2001   2.164   1.785   1.963  0.7803  0.0536 -2.3014
  668SOL     OW 2002   0.581   1.651   2.623 -0.0956 -0.1209 -0.1864
  668SOL    HW1 2003   0.585   1.727   2.692 -0.9602  1.8123  2.7559
  668SOL    HW2 2004   0.485   1.658   2.579  0.5598 -0.6115 -0.1203
  669SOL     OW 2005   2.252   2.626   2.465 -0.5322 -0.0110  0.0415
  669SOL    HW1 2006   2.273   2.643   2.364 -1.0099  0.1062 -3.7402
  669SOL    HW2 2007   2.153   2.603   2.475  2.4668 -1.9661  1.3587
  670SOL     OW 2008   2.518   1.095   2.473  0.2264  0.0230  0.1511
  670SOL    HW1 2009   2.462   1.068   2.391 -1.6722 -0.3538 -1.0160
  670SOL    HW2 2010   2.609   1.048   2.494 -1.0336  0.9721 -1.9806
  671SOL     OW 2011   2.404   1.192   0.202  0.1715 -0.3474  0.3925
  671SOL    HW1 2012   2.451   1.142   0.123 -0.0562 -1.8359  0.5161
  671SOL    HW2 2013   2.430   1.293   0.219  2.0736  0.0708 -3.3736
  672SOL     OW 2014   2.505   1.357   2.402  0.2142  0.4961 -0.6659
  672SOL    HW1 2015   2.559   1.409   2.470  0.8000  3.3624 -2.1137
  672SOL    HW2 2016   2.503   1.254   2.428 -2.7265 -4.4806  2.6915
  673SOL     OW 2017   2.612   1.144   1.497  0.2396 -0.2875  0.3733
  673SOL    HW1 2018   2.529   1.113   1.443  0.8119 -1.2393  1.4266
  673SOL    HW2 2019   2.670   1.065   1.528  0.3152 -0.0823  0.7872
  674SOL     OW 2020   1.718   1.886   1.822  0.8456 -0.3413  0.2773
  674SOL    HW1 2021   1.767   1.805   1.791  0.3253 -4.9275  0.5005
  674SOL    HW2 2022   1.619   1.863   1.838 -1.4484  2.3675 -1.5712
  675SOL     OW 2023   0.120   0.723   0.950 -0.0846 -0.4377  0.0521
  675SOL    HW1 2024   0.124   0.741   0.848 -0.8737  0.0733  3.1510
  675SOL    HW2 2025   0.178   0.639   0.969  0.4161 -0.3443  0.5948
  676SOL     OW 2026   2.029   0.909   1.130 -0.1689  0.6817 -0.0751
  676SOL    HW1 2027   1.980   0.886   1.220 -5.1900 -1.5310  1.0087
  676SOL    HW2 2028   2.069   0.829   1.082  0.8546 -1.5405  1.0180
  677SOL     OW 2029   1.685   1.647   2.121 -0.5906  0.4686 -0.2045
  677SOL    HW1 2030   1.762   1.595   2.080 -0.4942  0.7103  0.2751
  677SOL    HW2 2031   1.620   1.583   2.167 -1.8512  0.7415  1.3439
  678SOL     OW 2032   0.010   1.725   0.862 -0.4286 -0.2628 -0.1322
  678SOL    HW1 2033   3.099   1.763   0.959  4.7005  0.1514  2.0425
  678SOL    HW2 2034   3.023   1.733   0.813  0.0166 -0.2521  3.1544
  679SOL     OW 2035   2.910   2.841   0.387 -1.0462 -0.0846  0.3054
  679SOL    HW1 2036   2.857   2.924   0.382  0.0397 -3.3017 -1.0195
  679SOL    HW2 2037   2.916   2.809   0.481  0.2666 -3.7163 -0.2550
  680SOL     OW 2038   0.281   2.443   1.229 -0.3078  0.5681  0.4677
  680SOL    HW1 2039   0.204   2.383   1.198 -0.4277 -1.9135  0.2786
  680SOL    HW2 2040   0.373   2.403   1.201 -1.1130 -0.6179  0.7965
  681SOL     OW 2041   0.706   0.825   1.332  0.0437 -0.1063 -0.7180
  681SOL    HW1 2042   0.803   0.819   1.313 -0.2303  1.2217  0.2560
  681SOL    HW2 2043   0.661   0.741   1.297 -0.8906  0.1589  0.7557
  682SOL     OW 2044   1.540   2.795   0.943  0.3530 -0.4694 -0.0727
  682SOL    HW1 2045   1.552   2.870   1.015  0.4965  0.1899 -0.9911
  682SOL    HW2 2046   1.618   2.731   0.934 -0.9971 -3.2232 -0.4911
  683SOL     OW 2047   2.136   1.194   1.443  0.0209  0.3990 -0.2774
  683SOL    HW1 2048   2.110   1.267   1.373  0.7868 -1.9846 -0.2543
  683SOL    HW2 2049   2.206   1.129   1.407  0.7742  0.1330  0.1491
  684SOL     OW 2050   0.712   2.027   1.758  0.1384 -0.2512  0.3124
  684SOL    HW1 2051   0.759   2.120   1.761 -1.1098  0.0767  1.9472
  684SOL    HW2 2052   0.677   2.006   1.852  1.1431 -1.5681  0.6815
  685SOL     OW 2053   2.276   1.762   3.080  0.2792  0.0133  0.5019
  685SOL    HW1 2054   2.377   1.749   3.096  2.9151  1.2370  1.7513
  685SOL    HW2 2055   2.225   1.679   3.040  2.0816 -1.2339 -0.5554
  686SOL     OW 2056   3.075   0.415   0.473 -0.1000 -0.2000 -0.0791
  686SOL    HW1 2057   3.047   0.317   0.451  2.4937 -1.3459  0.7775
  686SOL    HW2 2058   2.990   0.470   0.479 -2.8875  0.8366 -1.8322
  687SOL     OW 2059   1.265   2.909   0.325 -0.9237 -0.0912 -0.3395
  687SOL    HW1 2060   1.191   2.842   0.344 -0.8541  1.6093  2.2379
  687SOL    HW2 2061   1.345   2.867   0.279  1.2788 -3.0218 -0.8345
  688SOL     OW 2062   1.791   1.923   2.103 -0.1671  0.0501 -0.2060
  688SOL    HW1 2063   1.759   1.920   2.004  2.2135 -0.2338 -1.3761
  688SOL    HW2 2064   1.728   1.867   2.153  1.3208  0.1634 -0.3563
  689SOL     OW 2065   2.720   1.194   1.989 -0.2116 -0.0527 -1.1471
  689SOL    HW1 2066   2.700   1.222   2.086 -0.7510  2.8172 -4.6604
  689SOL    HW2 2067   2.734   1.281   1.937 -2.2827  0.8834  3.6086
  690SOL     OW 2068   1.825   1.192   0.919  0.0852  0.0667  0.1462
  690SOL    HW1 2069   1.910   1.183   0.972 -0.3818 -1.8634  0.5843
  690SOL    HW2 2070   1.826   1.107   0.863 -0.0608 -0.8225 -1.3743
  691SOL     OW 2071   0.989   1.247   1.239  0.0402 -0.0341  0.3574
  691SOL    HW1 2072   1.048   1.186   1.178 -0.5328  2.1922 -0.2611
  691SOL    HW2 2073   0.933   1.188   1.302 -1.0292 -3.9535  0.3419
  692SOL     OW 2074   1.542   0.200   2.249 -0.1856 -0.3711 -0.1518
  692SOL    HW1 2075   1.504   0.106   2.264 -1.8449  0.0289  1.3172
  692SOL    HW2 2076   1.626   0.199   2.193 -0.1037 -0.5617  1.2674
  693SOL     OW 2077   0.234   1.021   2.992 -0.2095  0.2270 -0.1911
  693SOL    HW1 2078   0.285   1.100   3.036 -2.9283  2.7299  1.1344
  693SOL    HW2 2079   0.269   0.937   3.034 -1.0663 -1.0804 -1.3343
  694SOL     OW 2080   2.199   2.724   0.881 -0.7201  0.0184 -0.0280
  694SOL    HW1 2081   2.178   2.819   0.904  0.0215 -0.1363 -1.6737
  694SOL    HW2 2082   2.152   2.688   0.796 -2.3953 -1.0655 -1.8053
  695SOL     OW 2083   1.630   1.325   2.833 -0.2546 -0.1397 -0.0796
  695SOL    HW1 2084   1.637   1.297   2.930 -1.8192 -0.1164  3.2754
  695SOL    HW2 2085   1.715   1.376   2.802  2.7794  2.5052 -0.0735
  696SOL     OW 2086   1.553   0.226   1.672  0.0554  0.1098  0.0562
  696SOL    HW1 2087   1.506   0.306   1.712  0.5525  0.9886 -3.0872
  696SOL    HW2 2088   1.649   0.249   1.650 -0.6013  0.0880  2.8557
  697SOL     OW 2089   1.371   0.385   2.067 -0.5519 -0.5987  0.3382
  697SOL    HW1 2090   1.405   0.330   2.146  1.2491  2.2474  0.2926
  697SOL    HW2 2091   1.416   0.479   2.066  0.3398  0.7591  0.1133
  698SOL     OW 2092   1.837   1.560   2.506 -0.0380 -0.0042  0.2961
  698SOL    HW1 2093   1.857   1.636   2.441 -1.6821  0.5815  0.6057
  698SOL    HW2 2094   1.822   1.476   2.450 -0.7720  0.1347 -2.7397
  699SOL     OW 2095   1.612   1.363   1.023 -0.3380 -0.4302 -0.1660
  699SOL    HW1 2096   1.575   1.407   0.940 -1.3941 -2.5110 -2.5349
  699SOL    HW2 2097   1.704   1.310   1.004  1.8565 -3.0640 -0.3674
  700SOL     OW 2098   1.875   2.927   0.174  0.0866  0.6291  0.7378
  700SOL    HW1 2099   1.890   2.829   0.207  0.4480 -4.9126 -1.6457
  700SOL    HW2 2100   1.861   2.930   0.071  0.1370  0.8238 -1.9758
  701SOL     OW 2101   0.496   0.142   1.350  0.5355  0.3109  0.2048
  701SOL    HW1 2102   0.525   0.098   1.265  0.0473 -0.7447  0.8117
  701SOL    HW2 2103   0.569   0.131   1.422 -0.3359 -0.0750 -0.9319
  702SOL     OW 2104   1.678   3.042   1.342 -0.0741  0.9180 -0.0003
  702SOL    HW1 2105   1.697   2.961   1.399  2.5449 -2.9764 -1.4773
  702SOL    HW2 2106   1.598   3.095   1.372  0.2116  1.8447 -0.5933
  703SOL     OW 2107   2.466   0.001   2.306  0.2693 -0.2899 -0.4900
  703SOL    HW1 2108   2.456   3.082   2.405 -0.4094  2.5291  1.0900
  703SOL    HW2 2109   2.493   3.026   2.242 -1.0592  2.2675  0.3222
  704SOL     OW 2110   1.287   1.758   0.773 -0.4442 -0.6134 -1.0613
  704SOL    HW1 2111   1.192   1.726   0.768 -2.2438 -0.7842 -3.0026
  704SOL    HW2 2112   1.313   1.764   0.871  0.9779 -1.0184 -0.5615
  705SOL     OW 2113   3.032   1.702   2.071 -0.3736 -0.4894 -0.0201
  705SOL    HW1 2114   2.955   1.771   2.048 -2.7260  0.2248  0.0241
  705SOL    HW2 2115   3.002   1.628   2.138 -0.6528 -0.4011  1.1258
  706SOL     OW 2116   1.608   3.097   0.499  0.1366 -0.4472 -0.4383
  706SOL    HW1 2117   1.516   3.053   0.512 -3.8226 -0.9863  0.0075
  706SOL    HW2 2118   1.631   3.097   0.400  3.1901  0.8621  2.0777
  707SOL     OW 2119   1.121   2.557   2.251  0.1828  0.0799  0.1755
  707SOL    HW1 2120   1.102   2.533   2.348 -0.4092  1.5161 -2.2965
  707SOL    HW2 2121   1.202   2.502   2.222  1.7686 -0.0109  1.9647
  708SOL     OW 2122   0.594   2.193   1.571  0.1018 -0.8561 -0.2647
  708SOL    HW1 2123   0.601   2.097   1.610 -0.8300 -0.6744  4.5790
  708SOL    HW2 2124   0.683   2.234   1.536  0.5088  1.5057 -0.2852
  709SOL     OW 2125   2.557   0.839   2.166 -0.5031 -0.0614 -0.2576
  709SOL    HW1 2126   2.653   0.820   2.189 -1.1364 -2.0423 -0.7303
  709SOL    HW2 2127   2.556   0.903   2.086 -2.7667  0.2342  0.0335
  710SOL     OW 2128   2.859   0.488   1.647 -0.7177 -1.1649  0.2407
  710SOL    HW1 2129   2.907   0.494   1.555 -0.3121  0.3142 -0.3895
  710SOL    HW2 2130   2.920   0.461   1.728 -1.5707 -0.9400 -1.2317
  711SOL     OW 2131   2.841   2.341   0.414  0.0444 -0.0590  0.3035
  711SOL    HW1 2132   2.818   2.367   0.511  1.5857  1.0331 -0.3326
  711SOL    HW2 2133   2.942   2.351   0.386  0.7753 -0.6336 -1.3759
  712SOL     OW 2134   0.248   2.506   2.549 -0.3295 -0.1417 -0.3795
  712SOL    HW1 2135   0.296   2.594   2.568  0.7101  0.5746  0.4084
  712SOL    HW2 2136   0.194   2.475   2.629  0.5868  1.2361 -0.5792
  713SOL     OW 2137   2.034   0.645   3.090  0.0929 -0.3395 -0.7579
  713SOL    HW1 2138   2.042   0.608   0.084  1.2012 -1.6814 -1.0459
  713SOL    HW2 2139   1.943   0.636   3.052 -0.0291 -1.4378  1.6157
  714SOL     OW 2140   1.412   1.982   0.688 -0.1539 -0.2678 -0.2939
  714SOL    HW1 2141   1.361   1.899   0.721 -0.1591  0.6253  0.1897
  714SOL    HW2 2142   1.456   2.030   0.766  1.7870 -2.2459  1.3463
  715SOL     OW 2143   0.214   0.221   0.390  0.2616 -0.0459 -0.0204
  715SOL    HW1 2144   0.122   0.232   0.349 -1.9773  0.2122 -0.3743
  715SOL    HW2 2145   0.262   0.309   0.411  0.3939 -0.0445 -0.3137
  716SOL     OW 2146   0.656   0.028   2.161 -0.4078 -0.4619  0.3685
  716SOL    HW1 2147   0.583   3.094   2.229  0.9924  1.2076 -0.1599
  716SOL    HW2 2148   0.660   3.063   2.082  1.7336  2.3800 -2.5396
  717SOL     OW 2149   0.430   0.520   2.924 -0.4419 -0.1888 -0.1034
  717SOL    HW1 2150   0.520   0.468   2.923  2.0741 -1.4171 -1.8157
  717SOL    HW2 2151   0.352   0.454   2.924 -2.5527 -0.5363 -2.9512
  718SOL     OW 2152   1.098   0.628   0.431  0.2842 -0.4799 -0.2222
  718SOL    HW1 2153   1.086   0.653   0.530 -1.4641  0.3647 -2.0983
  718SOL    HW2 2154   1.159   0.546   0.421 -1.4952 -3.3755 -3.6137
  719SOL     OW 2155   2.371   2.263   2.699 -0.2838  0.2451 -0.0887
  719SOL    HW1 2156   2.389   2.352   2.668 -0.8994 -1.5514  1.2251
  719SOL    HW2 2157   2.303   2.265   2.779  0.7913  2.2128  1.7197
  720SOL     OW 2158   1.647   1.046   1.937  0.2459 -0.1715 -0.3060
  720SOL    HW1 2159   1.661   0.966   1.875 -2.4193 -0.6571  2.1795
  720SOL    HW2 2160   1.666   1.014   2.031  1.1609 -1.9376  2.0283
  721SOL     OW 2161   2.826   0.120   0.944 -0.3406 -0.3811 -0.4672
  721SOL    HW1 2162   2.853   0.208   0.903 -2.0674 -1.0178  2.2404
  721SOL    HW2 2163   2.803   0.050   0.872  0.9258 -0.7336  0.8255
  722SOL     OW 2164   1.279   1.954   2.380  0.4054  0.7038 -0.2513
  722SOL    HW1 2165   1.326   2.019   2.315  1.4863  0.6390 -1.9123
  722SOL    HW2 2166   1.304   1.968   2.478 -1.3297  1.8004  1.1485
  723SOL     OW 2167   1.259   0.406   0.453  0.5239  0.4736 -0.1533
  723SOL    HW1 2168   1.298   0.403   0.546 -1.4178  0.7994  2.5440
  723SOL    HW2 2169   1.334   0.400   0.388 -0.6751 -0.0048  0.8657
  724SOL     OW 2170   0.812   1.856   2.369 -0.1159 -0.0995  0.1052
  724SOL    HW1 2171   0.793   1.899   2.460 -1.5443 -0.6082  2.7338
  724SOL    HW2 2172   0.812   1.756   2.367  0.6632 -1.9718  1.7531
  725SOL     OW 2173   0.062   0.656   1.270 -0.0885 -0.1595  0.1212
  725SOL    HW1 2174   0.036   0.752   1.260 -0.3771 -0.9813 -1.0358
  725SOL    HW2 2175   0.149   0.633   1.221  3.9476 -1.3069 -1.9644
  726SOL     OW 2176   2.070   3.073   0.664 -0.0033 -0.4268  0.3613
  726SOL    HW1 2177   2.122   3.020   0.595 -2.9493 -0.8984  0.6698
  726SOL    HW2 2178   1.972   3.091   0.639  0.9316  0.0958 -1.5757
  727SOL     OW 2179   2.060   1.045   2.287 -0.4835  0.1201 -0.0440
  727SOL    HW1 2180   2.154   1.012   2.313 -0.1784  2.0643  0.2995
  727SOL    HW2 2181   2.014   1.090   2.367 -1.4963 -1.8548 -1.6191
  728SOL     OW 2182   1.475   2.611   1.495  0.0721  0.1922  0.4699
  728SOL    HW1 2183   1.429   2.702   1.519 -0.6573 -0.4501 -0.7881
  728SOL    HW2 2184   1.544   2.627   1.419 -0.9658  1.3288 -1.0536
  729SOL     OW 2185   1.831   0.394   2.011  0.1226  0.4294  0.0728
  729SOL    HW1 2186   1.931   0.396   2.009  0.7387  0.0370 -1.0041
  729SOL    HW2 2187   1.796   0.478   1.962 -0.1976  1.1360  0.2384
  730SOL     OW 2188   0.662   1.321   1.403  0.0739 -0.0240 -0.6084
  730SOL    HW1 2189   0.701   1.420   1.414  3.4358 -0.0283  0.3643
  730SOL    HW2 2190   0.586   1.314   1.333 -0.4400 -0.3878 -0.2779
  731SOL     OW 2191   0.616   3.039   0.204  0.0433  0.5591  0.8635
  731SOL    HW1 2192   0.521   3.023   0.242 -1.4062  0.2624  0.2463
  731SOL    HW2 2193   0.605   3.097   0.118 -0.0087  0.0932 -0.9123
  732SOL     OW 2194   0.727   0.804   0.424  0.1327  0.1382 -0.2361
  732SOL    HW1 2195   0.656   0.782   0.491  0.8377  0.6703  0.3528
  732SOL    HW2 2196   0.686   0.850   0.339 -3.8355  1.5671 -2.7009
  733SOL     OW 2197   1.413   1.550   1.704  0.3867  0.1610 -0.4848
  733SOL    HW1 2198   1.381   1.486   1.774  3.4211  0.6663  0.3466
  733SOL    HW2 2199   1.369   1.541   1.612 -4.0212 -0.1713 -1.1120
  734SOL     OW 2200   3.051   2.444   2.109 -0.3743 -0.7065 -0.1499
  734SOL    HW1 2201   3.080   2.503   2.031 -1.6677  2.1291  1.0402
  734SOL    HW2 2202   2.949   2.448   2.111  1.7320  2.1879  0.1404
  735SOL     OW 2203   1.283   3.031   1.026 -0.5557  0.3142 -0.1515
  735SOL    HW1 2204   1.254   2.935   0.993 -1.9857 -1.0883  1.9981
  735SOL    HW2 2205   1.318   3.091   0.952 -1.9943 -1.0090  2.3708
  736SOL     OW 2206   1.047   1.044   0.042 -0.0480  0.1994 -0.2523
  736SOL    HW1 2207   1.003   1.022   0.128  1.1231  1.5729  0.7162
  736SOL    HW2 2208   1.143   1.067   0.058  1.7735 -1.6652 -1.5637
  737SOL     OW 2209   0.145   0.762   0.692 -0.0966  0.2359 -0.2927
  737SOL    HW1 2210   0.244   0.779   0.656  0.3868  0.8637  0.9927
  737SOL    HW2 2211   0.077   0.834   0.661  0.0214  1.5934 -0.7162
  738SOL     OW 2212   0.467   2.654   1.526 -0.1939 -0.2326 -0.3551
  738SOL    HW1 2213   0.386   2.656   1.466 -1.3067  0.5064  1.0256
  738SOL    HW2 2214   0.471   2.571   1.582  0.6191  2.0437  1.0572
  739SOL     OW 2215   1.568   2.804   0.199  0.1221 -0.6625 -0.1909
  739SOL    HW1 2216   1.603   2.827   0.291 -1.0294  0.6662 -0.6564
  739SOL    HW2 2217   1.548   2.709   0.182 -1.2628 -0.8770  2.0885
  740SOL     OW 2218   1.802   2.795   1.447  0.2462 -0.6736 -0.5922
  740SOL    HW1 2219   1.899   2.775   1.479  3.2198 -1.7309 -0.2039
  740SOL    HW2 2220   1.784   2.753   1.357 -1.3991 -0.6660 -0.3054
  741SOL     OW 2221   2.177   0.228   0.706 -0.8735  0.0267  0.1007
  741SOL    HW1 2222   2.118   0.301   0.662 -0.3276 -0.3755 -1.4308
  741SOL    HW2 2223   2.136   0.139   0.693  1.8908  0.6046  0.3336
  742SOL     OW 2224   1.070   2.450   2.523  0.1971 -0.5887  1.0521
  742SOL    HW1 2225   1.012   2.414   2.446  2.0574 -1.1149  0.3772
  742SOL    HW2 2226   1.075   2.382   2.598  0.7297  0.5151 -0.1765
  743SOL     OW 2227   2.168   0.811   1.942 -0.1262 -0.7531 -0.6753
  743SOL    HW1 2228   2.186   0.834   1.846 -1.6586 -1.6640  2.3579
  743SOL    HW2 2229   2.218   0.725   1.970  2.2136  0.7340  1.0920
  744SOL     OW 2230   2.071   0.392   0.924  0.5332 -0.1048 -0.2102
  744SOL    HW1 2231   2.130   0.401   1.004 -0.8317 -1.9610  0.0662
  744SOL    HW2 2232   2.123   0.338   0.855 -2.1513  0.8032  0.7087
  745SOL     OW 2233   2.134   1.078   1.941 -0.7002 -0.0579  0.1828
  745SOL    HW1 2234   2.172   1.117   1.856 -0.3360 -0.0219  0.4947
  745SOL    HW2 2235   2.132   0.977   1.939 -0.7316  2.3441 -2.7284
  746SOL     OW 2236   1.355   1.629   0.520  0.3612  0.1787  0.1995
  746SOL    HW1 2237   1.444   1.591   0.489 -0.3862  2.1240  0.2607
  746SOL    HW2 2238   1.363   1.674   0.610 -0.9541  0.7185 -1.5417
  747SOL     OW 2239   2.035   1.620   0.999  0.5951  0.4796 -0.4276
  747SOL    HW1 2240   1.969   1.579   0.926  1.0011 -2.3892  0.6275
  747SOL    HW2 2241   1.978   1.659   1.078 -0.2834 -1.8299  0.6299
  748SOL     OW 2242   0.186   2.723   0.264  0.0086 -0.4690 -0.3000
  748SOL    HW1 2243   0.246   2.693   0.340 -3.3906 -0.0921  0.4848
  748SOL    HW2 2244   0.245   2.746   0.186 -0.9541  1.3496  2.1040
  749SOL     OW 2245   0.253   0.905   2.418 -0.1683  0.0124  0.1148
  749SOL    HW1 2246   0.341   0.942   2.377  0.1103 -0.8883 -1.3747
  749SOL    HW2 2247   0.175   0.965   2.393 -1.4279  2.1611 -0.2055
  750SOL     OW 2248   1.452   2.855   1.813 -0.1622  0.1729  0.5927
  750SOL    HW1 2249   1.465   2.954   1.831 -1.4584  1.8470 -1.8337
  750SOL    HW2 2250   1.448   2.803   1.897  2.5005  1.0369 -2.7498
  751SOL     OW 2251   2.700   0.578   0.389 -0.0430  0.2910  0.4913
  751SOL    HW1 2252   2.618   0.639   0.408  0.6752  0.8652  0.3194
  751SOL    HW2 2253   2.679   0.487   0.423 -1.6707  1.8902 -2.0919
  752SOL     OW 2254   0.044   2.145   0.758  0.2229 -0.1139  0.4834
  752SOL    HW1 2255   3.081   2.113   0.829 -0.3192 -1.9921  0.3003
  752SOL    HW2 2256   0.029   2.247   0.742 -1.0509 -0.3173 -2.1337
  753SOL     OW 2257   0.970   0.196   1.003 -0.4284  0.2028  0.1344
  753SOL    HW1 2258   1.019   0.131   0.946 -1.5401 -0.9031  3.1836
  753SOL    HW2 2259   0.883   0.223   0.954 -0.0345  0.4796 -2.1245
  754SOL     OW 2260   0.442   3.086   2.366  0.2054 -0.4597  0.0752
  754SOL    HW1 2261   0.351   0.029   2.336 -2.2310  2.0805  0.2490
  754SOL    HW2 2262   0.442   2.984   2.356 -0.3917 -0.2429 -2.4046
  755SOL     OW 2263   2.123   0.893   3.059  0.7387 -0.2451  0.1553
  755SOL    HW1 2264   2.092   0.796   3.074 -0.0649  1.7930  3.7190
  755SOL    HW2 2265   2.217   0.899   3.014  1.7515 -0.2684 -1.1543
  756SOL     OW 2266   2.356   2.105   2.467  0.0184 -0.0837 -0.0229
  756SOL    HW1 2267   2.372   2.005   2.476  0.8943  0.3298 -0.9504
  756SOL    HW2 2268   2.379   2.160   2.550  1.4216  3.1062 -1.4138
  757SOL     OW 2269   1.620   0.313   0.781  0.4244 -0.2928  0.6083
  757SOL    HW1 2270   1.523   0.330   0.807 -0.3787  0.2625 -0.8265
  757SOL    HW2 2271   1.659   0.230   0.826  1.2275  0.9088 -0.3270
  758SOL     OW 2272   1.568   3.039   1.071  0.5648  0.0083 -0.0039
  758SOL    HW1 2273   1.470   3.070   1.086 -2.2220  1.5489 -1.7116
  758SOL    HW2 2274   1.622   3.039   1.160  3.2894 -1.4580 -1.1452
  759SOL     OW 2275   2.799   0.689   1.139 -0.5573  0.0912 -0.6542
  759SOL    HW1 2276   2.773   0.597   1.172 -1.2507 -2.4742  3.1112
  759SOL    HW2 2277   2.867   0.679   1.065  3.0728 -1.2168 -0.2108
  760SOL     OW 2278   2.377   1.112   1.302 -0.2826 -0.1815  0.1707
  760SOL    HW1 2279   2.434   1.152   1.231  0.0444 -0.0482  1.7249
  760SOL    HW2 2280   2.373   1.012   1.283  0.2358  1.1071 -2.3981
  761SOL     OW 2281   0.451   0.408   0.476  0.3087  0.2088 -0.0127
  761SOL    HW1 2282   0.464   0.415   0.377  0.9110  2.9650  0.3131
  761SOL    HW2 2283   0.479   0.493   0.530  0.5541  3.6251  2.7567
  762SOL     OW 2284   1.772   2.131   1.179  0.3920 -0.2490 -0.3628
  762SOL    HW1 2285   1.858   2.092   1.152 -0.6684 -2.1583  1.8979
  762SOL    HW2 2286   1.715   2.056   1.227  2.0161 -2.8493  1.4008
  763SOL     OW 2287   1.363   1.448   1.965  0.4925 -0.0749 -0.1158
  763SOL    HW1 2288   1.306   1.525   1.929 -0.4197  2.6002 -1.0661
  763SOL    HW2 2289   1.310   1.360   1.978 -1.8380  0.0010  0.9815
  764SOL     OW 2290   3.004   1.874   2.561 -0.4841  0.0981  0.0463
  764SOL    HW1 2291   2.946   1.918   2.487 -0.3658  2.8912  1.1365
  764SOL    HW2 2292   3.008   1.932   2.646  2.8232  2.9883  0.0558
  765SOL     OW 2293   1.587   2.578   1.205  0.7232 -0.1233  0.5730
  765SOL    HW1 2294   1.634   2.490   1.219 -0.7209 -1.4051 -0.5242
  765SOL    HW2 2295   1.649   2.659   1.193 -1.3302  1.4032  0.7857
  766SOL     OW 2296   0.037   2.478   2.760 -0.0474  0.1769  0.4027
  766SOL    HW1 2297   3.055   2.508   2.705 -0.8633 -0.0233  1.4513
  766SOL    HW2 2298   0.058   2.381   2.743 -0.0900  0.3091  1.3101
  767SOL     OW 2299   1.341   0.897   2.388 -0.2066  0.1430  0.2941
  767SOL    HW1 2300   1.434   0.928   2.417 -1.5342 -2.2574 -1.2353
  767SOL    HW2 2301   1.328   0.797   2.393  1.2128 -0.9120 -1.3964
  768SOL     OW 2302   1.205   2.139   3.047 -0.2581 -0.3750 -0.5247
  768SOL    HW1 2303   1.294   2.184   3.058 -0.4638  0.7723 -1.1777
  768SOL    HW2 2304   1.203   2.066   2.975  1.6277 -1.4085  0.5155
  769SOL     OW 2305   0.414   2.088   1.130 -0.3282 -0.7926 -0.8212
  769SOL    HW1 2306   0.456   1.994   1.145  2.8566 -1.2739 -1.3198
  769SOL    HW2 2307   0.463   2.163   1.176 -0.5084  1.0830 -0.8868
  770SOL     OW 2308   1.799   0.630   2.965  0.6203  0.2960  0.6010
  770SOL    HW1 2309   1.831   0.559   2.905  1.7432  1.1598  0.8626
  770SOL    HW2 2310   1.758   0.708   2.919 -0.8920 -1.6593  3.3534
  771SOL     OW 2311   0.100   2.940   2.315 -0.3233  0.2518 -0.0073
  771SOL    HW1 2312   0.003   2.927   2.290 -0.0767 -0.0057 -0.8030
  771SOL    HW2 2313   0.166   2.869   2.276 -0.7248 -0.0460  0.5802
  772SOL     OW 2314   2.054   2.836   2.021 -0.0045  0.3670  0.1009
  772SOL    HW1 2315   2.101   2.767   2.084 -0.4626 -2.1197 -2.4441
  772SOL    HW2 2316   2.115   2.910   1.994 -2.0115 -2.2242  1.7945
  773SOL     OW 2317   0.911   2.022   1.471  0.0249  0.6433 -0.5474
  773SOL    HW1 2318   0.933   2.023   1.373  0.5582  0.5172 -0.0058
  773SOL    HW2 2319   0.934   2.110   1.518 -0.4058  0.0770  0.1597
  774SOL     OW 2320   1.028   3.095   2.125 -0.0150 -0.1014  0.1177
  774SOL    HW1 2321   1.032   0.032   2.219 -1.2620  2.0337  0.4214
  774SOL    HW2 2322   0.985   0.058   2.061  0.6149 -3.1790  0.8579
  775SOL     OW 2323   2.118   2.922   3.038 -0.9055  0.2255 -0.1278
  775SOL    HW1 2324   2.146   2.840   2.982  1.3396  0.0160 -0.2434
  775SOL    HW2 2325   2.018   2.934   3.043 -0.2521 -0.6430  1.0187
  776SOL     OW 2326   2.832   0.789   2.189 -0.6574 -0.0333 -0.4253
  776SOL    HW1 2327   2.886   0.823   2.268 -2.4936 -1.8373  3.7891
  776SOL    HW2 2328   2.845   0.850   2.110 -2.9184  0.5828 -1.5266
  777SOL     OW 2329   2.291   2.324   2.021  0.0232  0.1491  0.0322
  777SOL    HW1 2330   2.189   2.353   2.033 -1.8073  0.8505  1.6032
  777SOL    HW2 2331   2.347   2.380   2.078 -1.9795 -4.0381 -0.2066
  778SOL     OW 2332   1.817   0.861   2.581  0.4915  0.0353  0.2464
  778SOL    HW1 2333   1.858   0.903   2.664  1.4249 -0.6565  1.9016
  778SOL    HW2 2334   1.794   0.760   2.584  0.6989  1.3586  0.6814
  779SOL     OW 2335   3.033   0.183   0.316  0.2123 -0.3066  0.0781
  779SOL    HW1 2336   2.979   0.148   0.395 -2.4528 -0.6815 -1.8869
  779SOL    HW2 2337   2.979   0.182   0.231 -1.2074  1.0084 -1.5269
  780SOL     OW 2338   2.592   0.334   3.048  0.5849  0.0450 -0.5999
  780SOL    HW1 2339   2.556   0.276   0.025 -1.2561 -0.9121 -0.1103
  780SOL    HW2 2340   2.526   0.369   2.979  3.5387  1.7133  1.1306
  781SOL     OW 2341   0.242   2.650   1.395 -0.3619 -0.6354  0.2656
  781SOL    HW1 2342   0.262   2.562   1.347 -0.7502  2.4540  0.3537
  781SOL    HW2 2343   0.141   2.666   1.406 -1.2102  0.2407  1.8534
  782SOL     OW 2344   2.130   2.506   0.087 -0.0811  0.1874  0.6930
  782SOL    HW1 2345   2.222   2.546   0.091 -0.6434 -0.7897 -0.8434
  782SOL    HW2 2346   2.109   2.483   3.092 -2.5972  0.1752  0.0205
  783SOL     OW 2347   0.800   1.081   1.397  0.2374 -0.0435  0.3025
  783SOL    HW1 2348   0.737   1.163   1.392  1.3260  2.2412 -0.5942
  783SOL    HW2 2349   0.749   0.999   1.368 -0.9999 -0.4291  1.6690
  784SOL     OW 2350   1.373   0.689   2.737 -0.2632  0.1559  0.8659
  784SOL    HW1 2351   1.275   0.677   2.701 -1.6296 -0.5555  1.6094
  784SOL    HW2 2352   1.393   0.789   2.739 -0.2089 -0.3877  0.1262
  785SOL     OW 2353   2.433   0.502   0.985  0.0521  0.1759  0.0785
  785SOL    HW1 2354   2.461   0.403   0.975 -0.3788 -0.6090  4.1611
  785SOL    HW2 2355   2.339   0.503   1.025 -1.6271 -2.1569  0.5365
  786SOL     OW 2356   1.127   2.361   1.894 -0.4710 -0.7354 -0.1657
  786SOL    HW1 2357   1.117   2.464   1.872 -3.3454  2.9939  0.5252
  786SOL    HW2 2358   1.226   2.338   1.897 -0.6392  2.6638  1.2653
  787SOL     OW 2359   1.879   0.293   1.339 -0.1903 -0.7012  0.0808
  787SOL    HW1 2360   1.819   0.372   1.318  0.3353 -0.8037  0.8543
  787SOL    HW2 2361   1.879   0.264   1.436  1.4832 -1.3445 -0.3175
  788SOL     OW 2362   0.401   0.869   0.613  0.2986  0.3927  0.2915
  788SOL    HW1 2363   0.394   0.948   0.677  1.0746  1.6713 -0.7163
  788SOL    HW2 2364   0.383   0.900   0.512 -1.0397  0.5357 -3.3696
  789SOL     OW 2365   0.484   1.788   1.421 -0.0119 -0.1443 -0.5042
  789SOL    HW1 2366   0.427   1.698   1.437 -0.8673 -4.1790 -1.6098
  789SOL    HW2 2367   0.538   1.810   1.503 -0.3240 -1.4652 -1.6316
  790SOL     OW 2368   0.697   0.745   2.259 -0.2376 -0.1519  0.2531
  790SOL    HW1 2369   0.720   0.849   2.261 -1.0417  0.1811 -0.5929
  790SOL    HW2 2370   0.665   0.711   2.167 -2.9256 -0.1537 -0.0436
  791SOL     OW 2371   1.826   0.486   0.834 -0.5804 -0.2437 -0.1937
  791SOL    HW1 2372   1.747   0.417   0.833  2.0129 -1.8824 -1.5098
  791SOL    HW2 2373   1.910   0.447   0.878  1.2716 -1.3114  2.0682
  792SOL     OW 2374   0.888   2.586   2.039  0.9280 -0.2649 -0.0969
  792SOL    HW1 2375   0.900   2.579   1.939  0.6166 -0.3292  1.5598
  792SOL    HW2 2376   0.977   2.563   2.083  0.8779  1.7488 -0.7478
  793SOL     OW 2377   0.766   0.149   0.290  0.2737  0.4094  0.1932
  793SOL    HW1 2378   0.709   0.068   0.274 -0.0885  0.4815  0.8743
  793SOL    HW2 2379   0.838   0.125   0.354  1.3348  0.6443 -2.8282
  794SOL     OW 2380   0.428   1.662   1.819  0.4571  0.0091 -0.1559
  794SOL    HW1 2381   0.403   1.575   1.868  2.9563  1.9075 -1.3934
  794SOL    HW2 2382   0.502   1.652   1.752  1.4330  0.0312 -0.4533
  795SOL     OW 2383   0.150   2.187   2.404 -0.6266  0.0555  0.3613
  795SOL    HW1 2384   0.075   2.190   2.473  1.9860 -1.0151 -0.5257
  795SOL    HW2 2385   0.115   2.175   2.309  1.9502  1.4227  0.0310
  796SOL     OW 2386   2.457   0.642   2.304  0.5744 -0.0441 -0.2133
  796SOL    HW1 2387   2.411   0.674   2.391 -1.8868 -0.7269  3.5069
  796SOL    HW2 2388   2.475   0.724   2.247  0.5141  0.8583  0.5639
  797SOL     OW 2389   2.821   2.374   2.656 -1.1607 -0.3052 -0.2734
  797SOL    HW1 2390   2.786   2.432   2.579 -0.0859 -4.2945  2.4087
  797SOL    HW2 2391   2.749   2.322   2.698  4.5474 -1.0321 -4.4600
  798SOL     OW 2392   2.946   2.887   2.266  0.0590 -0.4200 -0.3452
  798SOL    HW1 2393   2.891   2.958   2.315  0.1447  1.3920  1.2219
  798SOL    HW2 2394   2.918   2.893   2.165 -0.0132 -2.2574  0.7294
  799SOL     OW 2395   0.163   2.518   2.287 -0.5902  0.5675  0.2066
  799SOL    HW1 2396   0.158   2.481   2.382  0.3591 -1.4234 -0.7397
  799SOL    HW2 2397   0.069   2.513   2.243 -1.3640 -1.1494  0.9572
  800SOL     OW 2398   0.237   2.079   0.008  0.2857 -0.4955  0.1871
  800SOL    HW1 2399   0.162   2.121   0.067 -0.5289 -2.6668  1.4646
  800SOL    HW2 2400   0.228   1.979   0.003 -1.5873  1.0365  1.4384
  801SOL     OW 2401   1.584   1.503   1.253  0.0350  0.2869  0.2586
  801SOL    HW1 2402   1.581   1.461   1.154 -1.7115 -0.8973 -4.0624
  801SOL    HW2 2403   1.490   1.522   1.292 -3.2790  0.5771  2.7853
  802SOL     OW 2404   3.045   1.272   0.705  0.1870 -0.2416 -0.3353
  802SOL    HW1 2405   2.944   1.271   0.719 -3.2935 -0.7174 -0.5668
  802SOL    HW2 2406   3.089   1.206   0.775 -0.1141 -1.2242  1.8675
  803SOL     OW 2407   1.270   1.744   2.068 -0.1935 -0.0525  0.0982
  803SOL    HW1 2408   1.222   1.678   2.005 -1.7117 -1.1118  2.2163
  803SOL    HW2 2409   1.202   1.787   2.130 -1.0309  1.8356  3.0365
  804SOL     OW 2410   1.695   1.621   0.753 -0.2629  0.1053 -0.3188
  804SOL    HW1 2411   1.712   1.661   0.663 -1.7916  0.4869  3.3076
  804SOL    HW2 2412   1.771   1.554   0.775  2.3450 -1.8019 -1.8042
  805SOL     OW 2413   2.674   1.336   3.094  0.2173 -0.4259  0.2924
  805SOL    HW1 2414   2.645   1.363   3.001 -1.4257  0.1000 -1.1735
  805SOL    HW2 2415   2.735   1.253   3.086 -1.6654  1.7885  2.1921
  806SOL     OW 2416   0.654   2.629   0.441  0.2462  0.3763 -0.0403
  806SOL    HW1 2417   0.714   2.557   0.396  0.0843  0.6431 -1.9129
  806SOL    HW2 2418   0.608   2.687   0.372 -0.3119  0.7660  1.1319
  807SOL     OW 2419   2.144   1.596   2.727 -0.7063 -0.1733 -0.0305
  807SOL    HW1 2420   2.138   1.694   2.696  0.6125 -1.5035 -0.1719
  807SOL    HW2 2421   2.125   1.535   2.652  3.1820  2.3203  2.1498
  808SOL     OW 2422   0.967   1.500   1.130  0.4078  0.1709 -0.4280
  808SOL    HW1 2423   0.991   1.407   1.163  0.6921 -3.1259 -1.3947
  808SOL    HW2 2424   0.865   1.519   1.135  0.9364  1.1655  2.1642
  809SOL     OW 2425   2.914   0.666   0.523 -0.7180 -0.3206  0.0014
  809SOL    HW1 2426   2.874   0.679   0.621 -0.2548  0.1727 -0.3527
  809SOL    HW2 2427   2.834   0.633   0.470  0.4196  1.3529  0.6390
  810SOL     OW 2428   0.682   1.412   0.703  0.3374  0.6557  0.2864
  810SOL    HW1 2429   0.651   1.496   0.753 -2.8862  0.8774  0.3228
  810SOL    HW2 2430   0.733   1.442   0.619 -1.4081 -0.0503 -0.3001
  811SOL     OW 2431   2.031   2.633   1.253  0.0639 -0.0329  0.5548
  811SOL    HW1 2432   2.107   2.603   1.190  2.5148  1.4827  0.8443
  811SOL    HW2 2433   2.019   2.560   1.323 -0.8466 -1.1672 -1.1815
  812SOL     OW 2434   1.184   2.738   1.406  0.2345 -0.0075 -0.6756
  812SOL    HW1 2435   1.262   2.797   1.447  1.1238 -0.0368  0.3811
  812SOL    HW2 2436   1.095   2.791   1.389 -2.3245 -0.3249  0.1999
  813SOL     OW 2437   0.787   2.875   1.551 -0.3780 -0.2137  0.5963
  813SOL    HW1 2438   0.747   2.806   1.619 -0.0263 -0.6362  0.4303
  813SOL    HW2 2439   0.727   2.895   1.476  0.3223 -0.0879  3.6048
  814SOL     OW 2440   0.805   2.692   2.597 -0.3955  0.2670 -0.2478
  814SOL    HW1 2441   0.775   2.699   2.500 -0.2622 -0.7811  0.0440
  814SOL    HW2 2442   0.835   2.597   2.620  0.4876 -0.1519 -1.9192
  815SOL     OW 2443   0.804   0.140   2.631 -0.1853  0.2716 -0.6706
  815SOL    HW1 2444   0.722   0.076   2.624  0.5071 -1.9500 -2.7061
  815SOL    HW2 2445   0.790   0.221   2.567 -1.5050  0.5311 -1.1362
  816SOL     OW 2446   2.168   0.459   2.926 -0.2596  0.0618  0.4214
  816SOL    HW1 2447   2.125   0.544   2.970  1.5082 -2.3244  0.0516
  816SOL    HW2 2448   2.210   0.410   3.000 -1.8842  0.4618  1.5839
  817SOL     OW 2449   2.205   3.065   1.929 -0.0843  0.4591  0.0786
  817SOL    HW1 2450   2.290   0.025   1.940  0.2998  1.0802 -0.9676
  817SOL    HW2 2451   2.144   0.007   1.859  0.7190  3.3626  0.1156
  818SOL     OW 2452   1.167   0.843   0.315  0.3165 -0.8727 -0.0698
  818SOL    HW1 2453   1.083   0.898   0.299  0.6203  0.1232  0.6631
  818SOL    HW2 2454   1.143   0.762   0.370  1.3783  2.3524  1.3246
  819SOL     OW 2455   1.743   1.900   2.490 -0.1615 -0.0755 -0.0477
  819SOL    HW1 2456   1.669   1.838   2.520 -0.6867 -0.3903 -1.4928
  819SOL    HW2 2457   1.810   1.846   2.430 -0.3899 -0.0731 -2.4427
  820SOL     OW 2458   0.172   1.618   2.736  0.1591 -0.5116  0.4645
  820SOL    HW1 2459   0.225   1.644   2.649 -0.6493  0.5054 -0.3095
  820SOL    HW2 2460   0.235   1.562   2.799 -0.1514 -1.6600 -0.6821
  821SOL     OW 2461   0.088   2.745   0.688 -0.0729  0.1689 -0.1490
  821SOL    HW1 2462   0.180   2.775   0.652  1.1764 -1.9801  0.3450
  821SOL    HW2 2463   0.083   2.734   0.792 -0.1276 -2.2936  1.1510
  822SOL     OW 2464   2.441   2.529   2.641 -0.4607  0.5327  0.0454
  822SOL    HW1 2465   2.368   2.570   2.592  0.2203  0.5855 -0.0003
  822SOL    HW2 2466   2.467   2.587   2.719 -2.4160  1.3933  0.6708
  823SOL     OW 2467   1.333   3.098   2.256 -0.0322 -0.1561 -0.0745
  823SOL    HW1 2468   1.275   3.094   2.175  0.6817  0.5877  2.8258
  823SOL    HW2 2469   1.288   0.049   2.328 -0.1916 -0.3286 -0.9268
  824SOL     OW 2470   2.761   2.365   2.002 -0.2644 -0.1418 -0.2541
  824SOL    HW1 2471   2.778   2.465   2.002  2.4825 -3.8476  0.7612
  824SOL    HW2 2472   2.730   2.332   2.096 -2.0577 -1.2200  2.1084
  825SOL     OW 2473   2.873   2.025   2.355 -0.6224 -0.3477  0.2884
  825SOL    HW1 2474   2.794   2.000   2.294  0.8833 -0.6100  0.7857
  825SOL    HW2 2475   2.953   2.060   2.299  1.2150  1.7963  0.3826
  826SOL     OW 2476   2.401   0.758   2.544 -0.8170 -0.7973  0.3510
  826SOL    HW1 2477   2.499   0.756   2.574 -1.3409 -2.3837 -2.9352
  826SOL    HW2 2478   2.336   0.745   2.616  0.1483 -0.8116 -1.5979
  827SOL     OW 2479   2.708   2.033   1.459 -0.3952  0.1994  0.0086
  827SOL    HW1 2480   2.674   2.013   1.554  2.8319 -0.6078  2.4900
  827SOL    HW2 2481   2.637   2.069   1.393  0.4232  0.0493 -2.0414
  828SOL     OW 2482   2.923   0.138   1.774  0.2385 -0.0868  0.1418
  828SOL    HW1 2483   2.997   0.083   1.731 -0.8935  0.3493  0.8778
  828SOL    HW2 2484   2.959   0.228   1.792  0.2407 -0.0685  0.5568
  829SOL     OW 2485   1.048   1.938   2.631  0.6903  0.2740 -0.0333
  829SOL    HW1 2486   1.077   1.861   2.573 -0.7299  0.9345  1.5921
  829SOL    HW2 2487   0.948   1.959   2.620 -0.8904  2.9790  1.2462
  830SOL     OW 2488   0.910   0.730   0.900 -0.2176  0.5277 -0.0136
  830SOL    HW1 2489   0.919   0.707   0.999 -0.6217  0.0542  0.4873
  830SOL    HW2 2490   0.853   0.813   0.887  1.7395 -2.1651  0.4264
  831SOL     OW 2491   3.010   1.619   2.663 -0.0451 -0.6449 -0.1710
  831SOL    HW1 2492   2.998   1.696   2.604 -1.1240 -2.7210 -0.0735
  831SOL    HW2 2493   0.009   1.606   2.683 -2.3720 -0.2968  0.9397
  832SOL     OW 2494   1.769   2.402   2.206 -0.0840  0.3060  0.5448
  832SOL    HW1 2495   1.829   2.429   2.128  0.3214  0.6699 -3.8184
  832SOL    HW2 2496   1.704   2.472   2.241  0.8294 -0.4669  1.3746
  833SOL     OW 2497   0.772   0.358   2.044  0.3988  0.1225  0.3161
  833SOL    HW1 2498   0.781   0.453   2.014  0.1972 -2.5925 -1.0239
  833SOL    HW2 2499   0.763   0.347   2.142  0.8996  1.7661  0.6550
  834SOL     OW 2500   0.040   0.313   1.485  0.3081  0.3625 -0.2756
  834SOL    HW1 2501   3.066   0.360   1.442 -0.6041 -2.1971  3.6644
  834SOL    HW2 2502   0.060   0.359   1.575 -1.0675  1.2855  0.7493
  835SOL     OW 2503   2.717   0.704   0.109  0.0603  0.0054 -0.0385
  835SOL    HW1 2504   2.689   0.644   0.185 -1.2674 -0.5541  0.4704
  835SOL    HW2 2505   2.752   0.655   0.021 -0.0483 -0.8323 -2.0344
  836SOL     OW 2506   1.641   1.931   0.158 -0.5917 -0.1374  0.0755
  836SOL    HW1 2507   1.604   2.015   0.111 -0.1963  0.7039  0.1752
  836SOL    HW2 2508   1.628   1.936   0.257 -1.6624  2.9139 -1.6375
  837SOL     OW 2509   1.973   1.838   0.778  0.2737  0.1397  0.2711
  837SOL    HW1 2510   2.043   1.764   0.774  0.5036 -0.9532 -0.7944
  837SOL    HW2 2511   1.962   1.890   0.687 -1.8580 -1.2093 -3.5859
  838SOL     OW 2512   1.603   0.981   2.432  0.5662  0.1919  0.4760
  838SOL    HW1 2513   1.637   0.983   2.337 -1.3194  0.7191 -1.7589
  838SOL    HW2 2514   1.684   0.952   2.490 -0.1766  0.3014  0.0501
  839SOL     OW 2515   0.820   1.434   2.083 -0.2399 -0.0391  0.5072
  839SOL    HW1 2516   0.775   1.362   2.024  0.3695 -2.1012 -0.5525
  839SOL    HW2 2517   0.834   1.397   2.177 -1.4429 -2.7867  0.9519
  840SOL     OW 2518   1.228   1.770   0.334 -0.6064 -0.1344 -0.4587
  840SOL    HW1 2519   1.286   1.854   0.324 -1.1885 -0.8004  3.4353
  840SOL    HW2 2520   1.270   1.699   0.392 -0.8205 -1.8620  0.4433
  841SOL     OW 2521   1.536   2.241   0.515 -0.3348 -0.1910 -0.4931
  841SOL    HW1 2522   1.553   2.324   0.577 -0.7387  0.7273 -0.8171
  841SOL    HW2 2523   1.432   2.216   0.509 -1.2621 -0.3333 -1.3598
  842SOL     OW 2524   0.444   0.403   0.199  0.3011  0.4934  0.2800
  842SOL    HW1 2525   0.549   0.404   0.186  4.0320  1.4796 -1.0232
  842SOL    HW2 2526   0.404   0.313   0.168 -1.4400  1.5929  1.6297
  843SOL     OW 2527   0.795   0.361   0.601 -0.5032  0.3091  0.1106
  843SOL    HW1 2528   0.738   0.411   0.532 -2.8633  1.0363 -0.7768
  843SOL    HW2 2529   0.871   0.316   0.551 -1.3469  1.2741 -2.5425
  844SOL     OW 2530   2.827   0.116   2.945  0.5485 -0.2157 -0.6183
  844SOL    HW1 2531   2.738   0.097   2.901  1.0597  0.1996 -0.4986
  844SOL    HW2 2532   2.887   0.036   2.935 -1.0349 -0.0154 -2.2457
  845SOL     OW 2533   2.959   2.381   1.642  0.0740 -0.2313 -0.3925
  845SOL    HW1 2534   2.925   2.335   1.724  0.2745 -1.5519 -2.6933
  845SOL    HW2 2535   2.961   2.312   1.564 -2.9799 -2.2666 -1.6748
  846SOL     OW 2536   2.562   1.689   2.352  0.9262  0.5103  0.0736
  846SOL    HW1 2537   2.484   1.741   2.391  1.3765 -1.0854 -2.5642
  846SOL    HW2 2538   2.531   1.635   2.273 -0.0885  2.7372 -1.6552
  847SOL     OW 2539   1.084   0.786   2.083 -0.1971 -0.0697  0.3039
  847SOL    HW1 2540   1.060   0.734   2.168 -0.1462  1.0086  3.0912
  847SOL    HW2 2541   1.089   0.722   2.001 -1.1305 -1.3485  0.2722
  848SOL     OW 2542   2.692   2.842   2.841 -0.5458 -0.2175  0.1107
  848SOL    HW1 2543   2.764   2.810   2.908 -1.8397 -2.0073  0.2062
  848SOL    HW2 2544   2.691   2.944   2.833 -1.2074 -0.6831 -0.2465
  849SOL     OW 2545   0.311   2.793   0.018  0.4047 -0.2581 -0.0228
  849SOL    HW1 2546   0.281   2.887   3.084 -0.9921  3.1116  2.2768
  849SOL    HW2 2547   0.286   2.721   3.049  0.7846 -4.5453  1.0770
  850SOL     OW 2548   1.186   2.768   0.988 -0.3377  0.1340 -0.2725
  850SOL    HW1 2549   1.220   2.715   1.074  0.9605 -3.2097  0.7759
  850SOL    HW2 2550   1.223   2.723   0.901 -1.7423  1.3973  0.7836
  851SOL     OW 2551   2.621   0.458   2.419 -0.1721 -0.0445  0.1819
  851SOL    HW1 2552   2.553   0.522   2.383 -1.5478  0.2143  1.3206
  851SOL    HW2 2553   2.686   0.454   2.339 -3.0061  0.3549  0.4188
  852SOL     OW 2554   1.450   0.374   2.475 -0.7218 -0.5578  0.4207
  852SOL    HW1 2555   1.499   0.332   2.394  2.2649  0.7479  0.1995
  852SOL    HW2 2556   1.371   0.316   2.491  2.2612 -3.2502  0.5981
  853SOL     OW 2557   3.039   2.655   0.225  0.4023 -0.1803 -0.1860
  853SOL    HW1 2558   2.991   2.721   0.286 -2.2172 -0.4954  1.0931
  853SOL    HW2 2559   0.041   2.663   0.242  2.2444 -0.5700 -4.1535
  854SOL     OW 2560   2.278   0.940   2.388 -0.1828  0.2152  0.1940
  854SOL    HW1 2561   2.325   0.921   2.297 -1.5030 -1.1977 -2.0474
  854SOL    HW2 2562   2.309   0.875   2.455  1.6035  0.3306 -1.4976
  855SOL     OW 2563   0.816   2.471   0.307 -0.6700  0.0956  0.2557
  855SOL    HW1 2564   0.789   2.397   0.240  0.0743 -1.4945 -0.0373
  855SOL    HW2 2565   0.851   2.549   0.253 -0.3153 -3.8017 -0.1463
  856SOL     OW 2566   3.005   2.976   2.722  0.0661  0.3253 -0.3474
  856SOL    HW1 2567   3.093   2.977   2.678 -0.9824 -0.5124  0.3276
  856SOL    HW2 2568   3.013   3.006   2.820  0.9927  0.6053 -0.5497
  857SOL     OW 2569   0.956   2.843   1.338  0.0072  0.0084 -0.3080
  857SOL    HW1 2570   0.901   2.878   1.415 -0.1475 -0.8725  1.4478
  857SOL    HW2 2571   0.899   2.782   1.281  0.9171  1.6338  1.2697
  858SOL     OW 2572   2.517   2.080   1.687  0.5190  0.0886 -0.5190
  858SOL    HW1 2573   2.524   2.173   1.722  0.7568 -2.5798 -3.1280
  858SOL    HW2 2574   2.434   2.075   1.627 -0.9269 -1.3711  1.2206
  859SOL     OW 2575   1.701   2.128   1.692  0.4387  0.2980  0.0020
  859SOL    HW1 2576   1.701   2.045   1.744  0.0735 -0.0603 -0.8038
  859SOL    HW2 2577   1.625   2.188   1.726 -2.2035  0.7226  0.0333
  860SOL     OW 2578   2.103   3.028   0.277  0.3536  0.9451  0.1577
  860SOL    HW1 2579   2.092   0.018   0.239 -0.0345  0.1537  1.4951
  860SOL    HW2 2580   2.020   2.971   0.253  1.2302 -2.9300  1.9548
  861SOL     OW 2581   2.686   0.320   0.516 -0.4021 -0.2641  0.2116
  861SOL    HW1 2582   2.768   0.277   0.556  1.7228  3.5452  1.0853
  861SOL    HW2 2583   2.602   0.287   0.555  4.2648  3.1898  1.0395
  862SOL     OW 2584   1.247   2.593   2.690 -0.5661 -0.0225 -0.2824
  862SOL    HW1 2585   1.200   2.595   2.783 -2.4590 -2.7888  2.5908
  862SOL    HW2 2586   1.191   2.540   2.627 -0.7096  3.0717  0.2119
  863SOL     OW 2587   0.486   0.530   1.386 -0.5273 -0.6466 -0.0890
  863SOL    HW1 2588   0.549   0.565   1.307  2.5694  2.9136 -2.4116
  863SOL    HW2 2589   0.421   0.456   1.357 -0.0236 -1.2688  0.9263
  864SOL     OW 2590   0.063   0.008   1.703  0.0394  0.0614  0.1561
  864SOL    HW1 2591   0.130   0.066   1.758 -0.0317  1.2657  0.4848
  864SOL    HW2 2592   0.041   3.018   1.749 -0.9671 -1.3458  2.0201
  865SOL     OW 2593   0.451   1.265   0.006 -0.0643  0.3725  0.5666
  865SOL    HW1 2594   0.494   1.270   3.013  2.3042 -1.0074 -2.0707
  865SOL    HW2 2595   0.359   1.313   0.009 -0.3279  1.5027  2.9346
  866SOL     OW 2596   3.089   0.327   0.058  0.1675 -0.5654 -0.2983
  866SOL    HW1 2597   0.022   0.353   3.066 -1.9995 -1.5367  1.8445
  866SOL    HW2 2598   0.042   0.378   0.130  1.2249 -2.1282  0.0757
  867SOL     OW 2599   2.816   2.698   3.037 -0.1479  0.2822 -0.1903
  867SOL    HW1 2600   2.915   2.729   3.031 -0.7255 -0.2139  0.5951
  867SOL    HW2 2601   2.802   2.606   3.072 -1.6527  2.2216  1.3005
  868SOL     OW 2602   1.508   0.682   0.112 -0.6100 -0.7445 -0.1829
  868SOL    HW1 2603   1.567   0.601   0.127 -1.2914  2.1348 -3.0045
  868SOL    HW2 2604   1.476   0.730   0.193  3.3458  0.0190 -3.0753
  869SOL     OW 2605   2.493   1.332   0.506  0.3734  0.2778 -0.1740
  869SOL    HW1 2606   2.451   1.394   0.435 -1.0261  1.0373  0.0934
  869SOL    HW2 2607   2.555   1.381   0.573  1.8199  4.2148  2.2047
  870SOL     OW 2608   2.369   1.456   0.307 -0.5180 -0.5107  0.6576
  870SOL    HW1 2609   2.433   1.513   0.249  1.6043  1.2568 -0.7265
  870SOL    HW2 2610   2.289   1.512   0.339  0.6590 -0.3483 -1.4807
  871SOL     OW 2611   1.268   1.289   0.761  0.1470  0.7695 -0.0747
  871SOL    HW1 2612   1.217   1.315   0.845 -1.8322  0.5695 -1.4819
  871SOL    HW2 2613   1.362   1.333   0.772 -1.1712 -0.2261  0.8909
  872SOL     OW 2614   1.265   1.723   1.385  0.1318  0.3411  0.1222
  872SOL    HW1 2615   1.274   1.623   1.418  0.9665 -0.8389  0.9018
  872SOL    HW2 2616   1.212   1.726   1.298 -0.0356 -0.2609 -0.5202
  873SOL     OW 2617   0.709   1.695   2.096  0.0115  0.1519  0.0126
  873SOL    HW1 2618   0.740   1.765   2.025  0.9558  2.5640  0.0612
  873SOL    HW2 2619   0.766   1.613   2.097  0.4722 -0.2483 -1.5887
  874SOL     OW 2620   0.699   1.555   1.180  0.1591  0.4148  0.1100
  874SOL    HW1 2621   0.667   1.631   1.121  1.0357 -0.3680  0.1228
  874SOL    HW2 2622   0.653   1.470   1.148  0.4984 -3.3788  0.1527
  875SOL     OW 2623   2.183   0.441   1.159 -0.0742 -0.0013  0.3426
  875SOL    HW1 2624   2.173   0.370   1.227 -3.0251  1.2877  1.3290
  875SOL    HW2 2625   2.212   0.522   1.214  0.5806 -1.7543  0.6193
  876SOL     OW 2626   0.876   0.573   0.061  0.1899  0.1776  1.0632
  876SOL    HW1 2627   0.836   0.588   0.153 -0.3598 -2.6503 -3.0835
  876SOL    HW2 2628   0.955   0.645   0.050  2.4699  2.2759 -0.1949
  877SOL     OW 2629   2.948   0.487   1.372 -0.0982  0.1053  0.3799
  877SOL    HW1 2630   2.859   0.463   1.325  1.6765  1.1904  0.8186
  877SOL    HW2 2631   3.002   0.540   1.306  0.3753 -0.3074 -0.9883
  878SOL     OW 2632   1.809   2.252   0.163  0.0602  0.2690 -0.0556
  878SOL    HW1 2633   1.736   2.321   0.149 -0.1047 -0.3403  1.0914
  878SOL    HW2 2634   1.833   2.204   0.075  0.4290  0.9075 -3.6113
  879SOL     OW 2635   2.582   1.692   1.325 -0.5680 -0.5809  0.6735
  879SOL    HW1 2636   2.501   1.738   1.287  1.0464 -0.6027  0.9654
  879SOL    HW2 2637   2.603   1.723   1.419 -1.6112  0.0054 -0.8791
  880SOL     OW 2638   1.152   3.038   1.259 -0.5510 -0.4504  0.0017
  880SOL    HW1 2639   1.093   2.954   1.275 -0.9063  0.1721 -0.5074
  880SOL    HW2 2640   1.198   3.035   1.167  3.0030  0.6829 -4.1871
  881SOL     OW 2641   1.222   2.032   0.220 -0.2057 -0.1810  0.0234
  881SOL    HW1 2642   1.135   1.985   0.234  1.1722  2.7520  0.9736
  881SOL    HW2 2643   1.228   2.055   0.120  0.3897 -0.3069 -1.0992
  882SOL     OW 2644   1.981   0.839   2.150  0.3164 -0.4637 -0.3737
  882SOL    HW1 2645   2.003   0.920   2.205  1.1185  0.9858  2.8592
  882SOL    HW2 2646   2.040   0.840   2.063  0.9066  2.7593 -1.9979
  883SOL     OW 2647   1.098   0.350   2.190 -0.0333 -0.8408 -0.3465
  883SOL    HW1 2648   1.170   0.352   2.118  0.0970 -2.7350  0.7466
  883SOL    HW2 2649   1.064   0.443   2.207  1.3833 -2.2946 -2.2647
  884SOL     OW 2650   2.803   0.126   0.110  0.5972  0.1534  0.0514
  884SOL    HW1 2651   2.705   0.172   0.121 -3.3313  0.6161 -0.4505
  884SOL    HW2 2652   2.823   0.130   0.007 -0.3574 -1.2094 -2.0474
  885SOL     OW 2653   0.878   1.657   0.018 -0.7627  0.5918 -0.2888
  885SOL    HW1 2654   0.895   1.668   3.018  2.8097 -0.7840  1.9553
  885SOL    HW2 2655   0.778   1.663   0.039 -0.7496 -0.1347 -0.2399
  886SOL     OW 2656   1.835   1.509   2.776  0.1354  0.2252 -0.0597
  886SOL    HW1 2657   1.847   1.557   2.684  2.1441 -3.0810  1.7735
  886SOL    HW2 2658   1.838   1.575   2.852 -0.7739 -0.3265 -2.8470
  887SOL     OW 2659   1.515   0.472   1.799  0.2738 -0.4463  0.0591
  887SOL    HW1 2660   1.489   0.558   1.750 -0.4874 -1.0072 -0.8384
  887SOL    HW2 2661   1.476   0.479   1.893  1.4338  1.1746 -2.2372
  888SOL     OW 2662   2.871   0.749   1.808  0.0380  0.4573  0.6542
  888SOL    HW1 2663   2.942   0.803   1.762  1.3466 -1.1817  0.4808
  888SOL    HW2 2664   2.848   0.680   1.741  0.3237  1.6661 -1.0319
  889SOL     OW 2665   2.925   2.790   0.649  0.7257 -0.2122 -0.1417
  889SOL    HW1 2666   2.879   2.714   0.702  2.6660  1.8408  0.6438
  889SOL    HW2 2667   3.017   2.794   0.685  0.5852 -0.4704 -2.4110
  890SOL     OW 2668   2.812   2.435   0.022  0.1102 -0.4758 -0.3333
  890SOL    HW1 2669   2.800   2.412   0.119  0.7284  3.0128 -2.0887
  890SOL    HW2 2670   2.894   2.397   3.083 -1.4623  2.7116  2.5094
  891SOL     OW 2671   0.929   1.689   2.845  0.3038  0.4297 -0.0042
  891SOL    HW1 2672   0.858   1.621   2.832  1.8990  5.0996  1.0667
  891SOL    HW2 2673   1.021   1.649   2.834  1.6319 -0.9004  1.0600
  892SOL     OW 2674   3.034   3.034   1.005 -0.0976  0.5078  0.0911
  892SOL    HW1 2675   3.069   3.046   0.903  1.5509 -0.6277 -2.7175
  892SOL    HW2 2676   2.945   3.089   1.022 -3.5811  0.3228  0.6981
  893SOL     OW 2677   0.796   3.056   1.121 -0.1789  0.1397  0.0960
  893SOL    HW1 2678   0.776   3.029   1.221 -2.5467 -0.5833  1.3801
  893SOL    HW2 2679   0.846   2.983   1.071  1.7829  1.7856 -0.4446
  894SOL     OW 2680   2.782   1.263   0.773  0.2712 -0.0905 -0.1721
  894SOL    HW1 2681   2.712   1.336   0.757 -0.7552  0.6889 -1.1586
  894SOL    HW2 2682   2.786   1.193   0.701 -1.4869 -0.3412 -0.4903
  895SOL     OW 2683   2.784   2.699   1.802  0.5063 -0.1034 -0.2769
  895SOL    HW1 2684   2.839   2.620   1.773 -1.5240  0.6998  0.7724
  895SOL    HW2 2685   2.750   2.748   1.721  0.2675 -1.3772  2.0836
  896SOL     OW 2686   1.078   0.096   1.793 -0.2523 -0.1080  0.2695
  896SOL    HW1 2687   0.990   0.109   1.839  2.9269  1.3276 -0.7372
  896SOL    HW2 2688   1.157   0.120   1.856  2.2810  2.4736  3.0167
  897SOL     OW 2689   1.014   1.403   1.463  0.2869  0.4989 -0.7786
  897SOL    HW1 2690   0.995   1.334   1.392 -0.3839 -1.2149 -2.6464
  897SOL    HW2 2691   0.947   1.477   1.448  1.3532  0.8076 -0.0001
  898SOL     OW 2692   1.153   2.633   1.856 -0.1296 -0.1929  0.3716
  898SOL    HW1 2693   1.119   2.721   1.905 -0.1946 -0.4066  3.2204
  898SOL    HW2 2694   1.137   2.637   1.756 -1.7539  0.7080  0.5659
  899SOL     OW 2695   0.832   0.561   0.335 -0.0045 -0.0316  0.1735
  899SOL    HW1 2696   0.779   0.647   0.350  0.9065  4.3530  1.5865
  899SOL    HW2 2697   0.932   0.570   0.353 -1.1784 -2.6971  1.6699
  900SOL     OW 2698   1.381   2.510   1.961  0.8155  0.0252  0.1329
  900SOL    HW1 2699   1.298   2.558   1.926 -0.3435 -0.3908 -0.8694
  900SOL    HW2 2700   1.455   2.576   1.994  0.4775  1.7242  1.4448
  901SOL     OW 2701   0.683   2.309   0.096  0.3272 -0.1907 -0.1631
  901SOL    HW1 2702   0.605   2.246   0.085  2.5625  3.4386 -0.1765
  901SOL    HW2 2703   0.770   2.262   0.090 -2.7930  2.6810  1.2506
  902SOL     OW 2704   1.946   1.089   0.121  0.2819  0.6324  0.2938
  902SOL    HW1 2705   1.972   1.180   0.087  0.0830 -3.9121 -1.1397
  902SOL    HW2 2706   1.985   1.019   0.063  1.3582 -0.9617 -0.8591
  903SOL     OW 2707   2.013   0.848   0.575  0.6945  0.3185 -0.0997
  903SOL    HW1 2708   1.948   0.776   0.597 -1.0243 -2.0420 -1.6585
  903SOL    HW2 2709   1.988   0.887   0.485 -1.4307 -3.0658  1.4439
  904SOL     OW 2710   0.879   1.250   3.012  0.7038 -0.3892  0.4745
  904SOL    HW1 2711   0.830   1.311   3.080 -0.7771  0.6914  1.4183
  904SOL    HW2 2712   0.916   1.168   3.057 -0.2816 -0.9396  2.5120
  905SOL     OW 2713   1.925   2.997   1.125  0.8597  0.0229 -0.0267
  905SOL    HW1 2714   1.987   2.993   1.041  0.3553  0.0332 -0.0696
  905SOL    HW2 2715   1.898   3.088   1.157  0.4687 -1.8004 -0.9194
  906SOL     OW 2716   3.093   2.211   1.167  0.1941  0.5378 -0.3391
  906SOL    HW1 2717   3.041   2.137   1.120  2.2773  1.6488 -1.4131
  906SOL    HW2 2718   0.042   2.268   1.098  1.3118  0.4876 -1.5853
  907SOL     OW 2719   0.923   0.968   0.268 -0.1573  0.1477  0.2201
  907SOL    HW1 2720   0.869   1.044   0.306  0.1477 -0.4136  1.8292
  907SOL    HW2 2721   0.880   0.878   0.298  0.4820  0.8699  1.9900
  908SOL     OW 2722   1.813   2.748   1.168 -0.4156 -0.1070 -0.0631
  908SOL    HW1 2723   1.898   2.700   1.206  0.8019 -0.1517  1.6293
  908SOL    HW2 2724   1.842   2.845   1.146 -0.5329  1.3255  2.5486
  909SOL     OW 2725   2.204   1.271   1.713 -0.1789 -0.5275  0.1775
  909SOL    HW1 2726   2.131   1.319   1.766 -0.8337  2.5703  0.6233
  909SOL    HW2 2727   2.173   1.256   1.618  0.5798  0.2333  5.5523
  910SOL     OW 2728   1.490   2.758   2.097 -0.3294  0.0203 -0.0164
  910SOL    HW1 2729   1.549   2.733   2.175 -0.9493  0.3696  0.7598
  910SOL    HW2 2730   1.400   2.797   2.131  0.6351 -2.4959  2.4095
  911SOL     OW 2731   2.990   0.890   2.399 -0.1470  0.4086 -0.1141
  911SOL    HW1 2732   3.068   0.959   2.387  0.8783 -0.5243  0.4916
  911SOL    HW2 2733   2.995   0.841   2.487  3.4828  0.3126 -0.6167
  912SOL     OW 2734   0.115   1.308   1.645  0.1902 -0.0013 -0.0517
  912SOL    HW1 2735   0.027   1.305   1.693 -0.4328 -1.1800  0.6620
  912SOL    HW2 2736   0.194   1.283   1.707  1.5462  0.4940  3.1135
  913SOL     OW 2737   2.958   2.442   1.296  0.2912  0.1632 -0.4431
  913SOL    HW1 2738   2.942   2.357   1.349 -1.4513 -0.1013 -0.4392
  913SOL    HW2 2739   2.973   2.423   1.195  0.1906 -2.0908 -0.3991
  914SOL     OW 2740   1.674   0.858   1.748 -0.1743 -0.6476  0.2400
  914SOL    HW1 2741   1.598   0.792   1.725 -0.4235 -1.4705 -1.9878
  914SOL    HW2 2742   1.685   0.910   1.659  0.5154 -0.6636 -0.3938
  915SOL     OW 2743   1.985   0.618   1.425 -0.1041 -0.5108 -0.4791
  915SOL    HW1 2744   1.994   0.585   1.520  1.2532  1.5852  0.9868
  915SOL    HW2 2745   1.900   0.577   1.385  0.6929  2.6467 -0.2368
  916SOL     OW 2746   2.736   2.674   1.070 -0.2655  0.4320  0.3830
  916SOL    HW1 2747   2.667   2.712   1.136 -0.8395  1.6865  2.6285
  916SOL    HW2 2748   2.745   2.571   1.073  1.2007  0.0864 -0.2056
  917SOL     OW 2749   1.886   1.954   0.024 -0.4271 -0.1348  0.0080
  917SOL    HW1 2750   1.792   1.946   0.061 -0.8029  0.5999  1.4162
  917SOL    HW2 2751   1.903   2.046   3.082 -1.2384 -2.0620  0.3398
  918SOL     OW 2752   1.807   2.839   2.401  0.4136 -0.2195  0.3511
  918SOL    HW1 2753   1.884   2.894   2.442  1.6423  1.3825  4.2648
  918SOL    HW2 2754   1.724   2.896   2.373  0.2030 -2.4321  1.5648
  919SOL     OW 2755   1.283   2.604   1.202 -0.5786  0.0953  0.4431
  919SOL    HW1 2756   1.383   2.609   1.196 -3.7236  0.4563 -1.5452
  919SOL    HW2 2757   1.248   2.635   1.293  2.1143  1.4613  0.0081
  920SOL     OW 2758   2.828   0.154   2.584  0.2277 -0.0110 -0.5378
  920SOL    HW1 2759   2.754   0.219   2.612 -2.9308  1.9062 -1.2377
  920SOL    HW2 2760   2.925   0.192   2.591  0.5719  1.7381 -1.8918
  921SOL     OW 2761   2.889   1.059   1.664 -0.6197  0.7707  0.1190
  921SOL    HW1 2762   2.908   1.150   1.700 -0.5038 -4.7156 -2.3182
  921SOL    HW2 2763   2.977   1.003   1.667  2.0558 -0.0350 -0.7819
  922SOL     OW 2764   1.932   1.966   0.532  0.2544 -0.4166 -0.4828
  922SOL    HW1 2765   2.020   1.981   0.480  1.9698 -1.3566 -3.2861
  922SOL    HW2 2766   1.872   2.028   0.484  2.5738 -1.7319 -0.5164
  923SOL     OW 2767   0.979   1.868   0.179 -0.2431  0.0308  0.9681
  923SOL    HW1 2768   0.928   1.812   0.108 -0.0954 -0.6694 -0.3460
  923SOL    HW2 2769   0.946   1.965   0.186 -1.0626 -1.0492  1.8590
  924SOL     OW 2770   1.270   0.391   3.075 -0.1751 -0.0470 -0.3954
  924SOL    HW1 2771   1.174   0.382   3.035  0.1253 -0.0461 -1.8458
  924SOL    HW2 2772   1.310   0.485   3.059 -0.1870  0.9749  2.0021
  925SOL     OW 2773   2.579   0.510   0.725  0.1827 -0.4207  0.3096
  925SOL    HW1 2774   2.540   0.450   0.651 -0.6877  1.2460  2.9636
  925SOL    HW2 2775   2.507   0.517   0.796  4.5144  1.5858  0.7212
  926SOL     OW 2776   0.530   0.034   1.076  0.2873  0.2281 -0.1905
  926SOL    HW1 2777   0.488   3.047   1.119 -0.8785  1.6991  1.3307
  926SOL    HW2 2778   0.631   0.017   1.054  4.2905 -1.4219  1.4825
  927SOL     OW 2779   0.046   1.499   2.430  0.1973  0.4569  0.2854
  927SOL    HW1 2780   0.084   1.593   2.440 -0.6577 -1.6568  0.2814
  927SOL    HW2 2781   0.111   1.456   2.361  0.7565  0.4921 -1.0121
  928SOL     OW 2782   0.024   0.470   2.813 -0.4335  0.2102  0.0773
  928SOL    HW1 2783   0.034   0.547   2.878 -1.4088 -2.9712  0.7932
  928SOL    HW2 2784   3.034   0.426   2.837 -3.0023 -4.0281  1.9143
  929SOL     OW 2785   2.586   0.273   1.352 -0.0282  0.3630 -0.1779
  929SOL    HW1 2786   2.650   0.206   1.315 -0.5880  1.4494  1.1729
  929SOL    HW2 2787   2.500   0.226   1.377 -0.4719 -1.0332 -2.9121
  930SOL     OW 2788   1.900   1.103   1.807 -0.2604 -0.3919 -0.0103
  930SOL    HW1 2789   1.816   1.098   1.865  2.0168  1.1533  1.9348
  930SOL    HW2 2790   1.978   1.122   1.870 -0.0649  0.9694 -1.1265
  931SOL     OW 2791   2.153   1.216   0.335 -0.0133 -0.0160 -0.2002
  931SOL    HW1 2792   2.233   1.258   0.287  1.1066 -0.5277 -0.2857
  931SOL    HW2 2793   2.169   1.115   0.342  0.9148  0.8564 -1.8196
  932SOL     OW 2794   2.293   1.185   0.891 -0.4370  0.2474  0.0011
  932SOL    HW1 2795   2.366   1.195   0.964  1.9788 -1.6871  2.9045
  932SOL    HW2 2796   2.203   1.160   0.936 -0.9608 -0.6237 -2.6802
  933SOL     OW 2797   2.436   1.920   0.816 -0.3341 -0.1442  0.0183
  933SOL    HW1 2798   2.430   1.915   0.715 -1.1247 -1.4338  0.1175
  933SOL    HW2 2799   2.429   2.014   0.846  0.9872 -1.4065 -0.6408
  934SOL     OW 2800   1.925   0.423   2.480  0.9024 -0.1055  0.4752
  934SOL    HW1 2801   1.948   0.469   2.389  0.1433  0.5061 -2.1094
  934SOL    HW2 2802   2.000   0.351   2.482  3.3962 -1.7858 -1.0511
  935SOL     OW 2803   0.055   1.467   0.555 -0.6729 -0.4437  0.3843
  935SOL    HW1 2804   0.007   1.406   0.623 -1.4204  2.6634 -1.8313
  935SOL    HW2 2805   0.153   1.482   0.585 -1.5473  0.3109 -1.3838
  936SOL     OW 2806   0.128   0.498   0.686  0.9009 -0.2259 -0.5240
  936SOL    HW1 2807   0.090   0.462   0.599  0.4582  1.4716 -1.6519
  936SOL    HW2 2808   0.103   0.598   0.695 -1.4000  0.9768  2.8501
  937SOL     OW 2809   2.747   0.089   1.217 -0.5813 -0.1329  0.4341
  937SOL    HW1 2810   2.676   0.028   1.179 -0.3755  0.0176  2.0525
  937SOL    HW2 2811   2.785   0.136   1.132 -0.9645 -1.4439 -1.8560
  938SOL     OW 2812   2.625   2.295   0.276  0.2709 -0.1232 -0.4705
  938SOL    HW1 2813   2.710   2.320   0.325 -0.6243  2.4444 -0.3601
  938SOL    HW2 2814   2.554   2.369   0.280  0.1618  0.3707 -0.8145
  939SOL     OW 2815   0.792   1.964   0.639 -0.7197 -0.3218  0.2183
  939SOL    HW1 2816   0.694   1.932   0.638  1.6056 -1.5529 -0.1973
  939SOL    HW2 2817   0.861   1.890   0.624 -0.0571 -0.1957  0.3116
  940SOL     OW 2818   0.252   0.312   2.880  0.1139  0.4107  0.1918
  940SOL    HW1 2819   0.170   0.361   2.839 -0.8401 -0.7661 -0.0103
  940SOL    HW2 2820   0.255   0.224   2.832 -1.1361  0.1076  0.5385
  941SOL     OW 2821   1.409   0.289   2.849  0.6131  0.0938 -0.0274
  941SOL    HW1 2822   1.481   0.353   2.812 -0.5964 -2.4441 -0.8074
  941SOL    HW2 2823   1.368   0.328   2.934 -0.0736  0.0063  1.1558
  942SOL     OW 2824   1.123   0.730   1.411  0.6874 -0.4838 -0.6692
  942SOL    HW1 2825   1.064   0.643   1.415 -1.3597 -0.7321 -0.6590
  942SOL    HW2 2826   1.144   0.759   1.508  1.5473  0.7198  1.4232
  943SOL     OW 2827   1.358   1.031   1.883  0.2245 -0.1530  0.3280
  943SOL    HW1 2828   1.456   1.064   1.875  1.5729  2.3692  3.2254
  943SOL    HW2 2829   1.346   0.988   1.974  0.7179  1.4898  1.2865
  944SOL     OW 2830   2.000   0.996   1.580 -0.5617 -0.4416 -0.1665
  944SOL    HW1 2831   1.952   1.012   1.669  1.0175  0.4425 -1.0513
  944SOL    HW2 2832   2.050   1.082   1.554 -0.7646  0.9280  0.4781
  945SOL     OW 2833   2.755   3.070   0.318 -0.0736  0.2663 -0.4066
  945SOL    HW1 2834   2.683   0.020   0.371  0.7782  1.4184 -0.4486
  945SOL    HW2 2835   2.795   0.031   0.248 -0.5667 -0.2971  1.7352
  946SOL     OW 2836   2.869   0.962   1.967  0.2037  0.1517 -0.8246
  946SOL    HW1 2837   2.831   0.878   1.921 -1.9154 -1.0131  1.9060
  946SOL    HW2 2838   2.807   1.042   1.941 -0.7293 -2.0053  0.3915
  947SOL     OW 2839   1.065   2.750   0.362  0.0192  0.1692  0.2768
  947SOL    HW1 2840   0.982   2.762   0.426 -1.4519  0.1081 -0.0525
  947SOL    HW2 2841   1.035   2.723   0.268 -0.1130  1.7230  0.2382
  948SOL     OW 2842   2.418   1.540   1.570 -0.0782 -0.4907 -0.3646
  948SOL    HW1 2843   2.490   1.613   1.586  0.6324  2.5173  0.6499
  948SOL    HW2 2844   2.453   1.451   1.607 -0.3563  0.5087  0.6352
  949SOL     OW 2845   0.334   1.372   2.840 -0.1473  0.4901 -0.5145
  949SOL    HW1 2846   0.241   1.352   2.870  2.6231  1.3342  1.0335
  949SOL    HW2 2847   0.354   1.317   2.759 -0.4205  0.3863  2.3253
  950SOL     OW 2848   0.373   2.689   1.059  0.2518  0.1186  0.2525
  950SOL    HW1 2849   0.286   2.715   1.014 -0.2467 -2.6658  2.3707
  950SOL    HW2 2850   0.384   2.586   1.083  1.6062 -0.2173 -1.1219
  951SOL     OW 2851   0.851   1.322   2.330 -0.2484  0.0716 -0.4744
  951SOL    HW1 2852   0.933   1.280   2.277  0.7657  0.4629 -1.7944
  951SOL    HW2 2853   0.833   1.265   2.411  2.1322  0.4018 -0.1932
  952SOL     OW 2854   0.403   1.229   0.318 -0.1378 -0.0502  0.0381
  952SOL    HW1 2855   0.468   1.213   0.245 -2.5271 -2.1486 -1.1089
  952SOL    HW2 2856   0.309   1.223   0.284  0.9731  1.7430  1.4723
  953SOL     OW 2857   2.343   0.156   2.688  0.7046  0.4477 -0.1462
  953SOL    HW1 2858   2.286   0.118   2.768  1.2801 -2.5270  3.8696
  953SOL    HW2 2859   2.387   0.080   2.634 -0.4695 -0.1439  1.7866
  954SOL     OW 2860   1.671   1.115   0.507 -0.1900 -0.0435  0.0768
  954SOL    HW1 2861   1.585   1.175   0.506 -2.4474  2.1703 -1.0796
  954SOL    HW2 2862   1.753   1.177   0.504  1.4155  0.0133  0.6335
  955SOL     OW 2863   0.788   2.025   2.582 -0.1576 -0.3328 -0.4821
  955SOL    HW1 2864   0.775   2.017   2.685  3.8133  1.3890  0.9119
  955SOL    HW2 2865   0.706   2.079   2.543  0.1992  1.7465 -1.9707
  956SOL     OW 2866   1.948   0.569   2.248  0.8133  0.1284 -0.1978
  956SOL    HW1 2867   2.011   0.511   2.188  3.0058 -4.1106 -0.3869
  956SOL    HW2 2868   1.958   0.667   2.230 -0.3313 -0.2921  0.4967
  957SOL     OW 2869   2.095   2.126   2.452  0.2534  0.0631 -0.4204
  957SOL    HW1 2870   2.046   2.079   2.532  0.8113 -0.3887  2.7929
  957SOL    HW2 2871   2.197   2.121   2.462 -0.9168 -1.0967 -0.9040
  958SOL     OW 2872   1.518   1.267   1.487  0.3065  0.8347  0.2104
  958SOL    HW1 2873   1.618   1.262   1.508  0.3998  0.0200 -1.3206
  958SOL    HW2 2874   1.472   1.181   1.504 -0.4805  0.4722 -2.1911
  959SOL     OW 2875   1.897   2.348   2.450  0.1585  0.3303 -0.8583
  959SOL    HW1 2876   1.850   2.356   2.359  1.5644  3.1000 -2.0860
  959SOL    HW2 2877   1.963   2.270   2.455 -1.1233 -1.0099  1.0192
  960SOL     OW 2878   0.202   0.779   2.646 -0.2882 -0.1034 -0.4601
  960SOL    HW1 2879   0.227   0.817   2.554  2.0016  0.6978 -1.2171
  960SOL    HW2 2880   0.106   0.748   2.639  0.1708 -0.1533 -0.3903
  961SOL     OW 2881   0.327   0.993   2.736 -0.3747 -0.2771  0.7802
  961SOL    HW1 2882   0.275   0.907   2.721 -1.1469  3.4909  1.0258
  961SOL    HW2 2883   0.305   1.022   2.827 -1.8709 -2.0230 -3.5103
  962SOL     OW 2884   0.645   1.234   2.890 -0.2354  0.2075 -0.1291
  962SOL    HW1 2885   0.731   1.224   2.941  1.0006 -0.2609  2.6014
  962SOL    HW2 2886   0.624   1.159   2.828  0.0972  1.9328  2.7253
  963SOL     OW 2887   2.599   2.027   0.115  0.0994  0.1357  0.4874
  963SOL    HW1 2888   2.590   2.102   0.177  1.4410 -1.4074 -1.9557
  963SOL    HW2 2889   2.698   1.997   0.116  2.6820  1.9540  0.1201
  964SOL     OW 2890   0.884   2.507   1.752 -0.1193  0.0193  0.3727
  964SOL    HW1 2891   0.972   2.539   1.704  2.0804 -1.6281  0.5065
  964SOL    HW2 2892   0.807   2.574   1.736 -1.6607 -0.0539 -0.0354
  965SOL     OW 2893   1.751   1.716   0.507  0.2519 -0.1767 -0.2273
  965SOL    HW1 2894   1.845   1.758   0.503  2.9112 -1.2810 -0.0422
  965SOL    HW2 2895   1.684   1.782   0.470  0.8026 -0.0645 -1.4931
  966SOL     OW 2896   3.062   1.582   0.333 -0.1766  0.2942 -0.0902
  966SOL    HW1 2897   3.084   1.541   0.423 -0.6077  2.1878 -0.7067
  966SOL    HW2 2898   3.056   1.683   0.340 -0.3735  1.1908  0.5496
  967SOL     OW 2899   1.819   2.984   1.886  0.2484 -0.0495  0.4914
  967SOL    HW1 2900   1.905   2.975   1.942 -1.5166 -2.0198  1.7403
  967SOL    HW2 2901   1.802   2.902   1.829 -2.1439  0.3594 -0.3672
  968SOL     OW 2902   1.916   0.290   0.377 -0.1098 -0.0537  0.1741
  968SOL    HW1 2903   1.842   0.240   0.422  3.1117 -0.9214 -2.2665
  968SOL    HW2 2904   1.967   0.349   0.440  1.4610  0.4946 -0.9144
  969SOL     OW 2905   0.222   1.370   2.280 -0.3694 -0.1263  0.7295
  969SOL    HW1 2906   0.217   1.425   2.191  2.3022  1.3962  0.3565
  969SOL    HW2 2907   0.269   1.282   2.269  1.1833  3.7349 -0.0684
  970SOL     OW 2908   2.253   2.035   1.227  0.0951 -0.2288  0.0059
  970SOL    HW1 2909   2.207   2.061   1.139 -0.4996 -1.2275 -0.3408
  970SOL    HW2 2910   2.207   2.082   1.307  0.1799  0.8234  1.9684
  971SOL     OW 2911   2.991   2.791   1.106 -0.6490 -0.5772  0.0221
  971SOL    HW1 2912   2.907   2.738   1.084 -0.4368 -1.3919 -2.1232
  971SOL    HW2 2913   2.998   2.879   1.053  0.2628 -0.3571  2.7379
  972SOL     OW 2914   0.312   1.240   2.570 -0.4112  0.0468 -0.5144
  972SOL    HW1 2915   0.315   1.151   2.621  0.6186 -1.8814  4.0019
  972SOL    HW2 2916   0.222   1.267   2.540  2.6223 -1.5680 -1.0074
  973SOL     OW 2917   0.521   0.158   0.589  0.4069  0.1733  0.3080
  973SOL    HW1 2918   0.560   0.162   0.683  0.9367 -0.6403 -0.2171
  973SOL    HW2 2919   0.492   0.251   0.558 -0.3109  1.6998  0.7424
  974SOL     OW 2920   2.214   0.881   1.691 -0.2158  0.3045  0.3233
  974SOL    HW1 2921   2.129   0.902   1.638  1.6983  0.4772  0.2676
  974SOL    HW2 2922   2.295   0.897   1.629 -0.7469  1.7140  1.1562
  975SOL     OW 2923   2.676   2.868   0.139  0.2145 -0.0787 -0.0567
  975SOL    HW1 2924   2.721   2.929   0.207  0.5027  0.0492 -1.5146
  975SOL    HW2 2925   2.743   2.814   0.083 -2.0003  1.1110 -2.4092
  976SOL     OW 2926   0.348   1.603   1.173 -0.3413 -0.0365  0.2531
  976SOL    HW1 2927   0.415   1.533   1.196 -1.3354 -0.1258 -1.2186
  976SOL    HW2 2928   0.313   1.583   1.078  0.4749  0.6616  4.3796
  977SOL     OW 2929   1.000   2.360   0.893 -0.1660  0.5475  0.4310
  977SOL    HW1 2930   1.053   2.286   0.848 -0.7514 -2.1465  0.6848
  977SOL    HW2 2931   1.051   2.394   0.974  2.6478  1.3096 -2.2983
  978SOL     OW 2932   0.330   0.901   0.342 -0.6662  0.0644  0.3023
  978SOL    HW1 2933   0.416   0.956   0.304 -0.6914  2.3785 -1.8833
  978SOL    HW2 2934   0.329   0.804   0.312 -1.9402 -1.3942  0.4654
  979SOL     OW 2935   2.141   1.611   0.371  0.2472  0.2396  0.3938
  979SOL    HW1 2936   2.166   1.622   0.471 -2.2538 -1.9805 -2.1679
  979SOL    HW2 2937   2.124   1.700   0.323 -1.5264 -1.6717 -0.1901
  980SOL     OW 2938   0.403   1.846   2.019  0.2909 -0.3659 -0.4554
  980SOL    HW1 2939   0.415   1.795   1.931  2.2583  1.1835  1.2471
  980SOL    HW2 2940   0.453   1.799   2.099  0.9423  0.7157 -0.5534
  981SOL     OW 2941   2.709   1.051   0.320  0.4363 -0.2080  0.0259
  981SOL    HW1 2942   2.639   1.064   0.396  1.6671 -0.8169 -0.7000
  981SOL    HW2 2943   2.665   1.030   0.229  0.7193 -0.9823 -1.1177
  982SOL     OW 2944   2.922   2.904   2.000  0.0408 -0.0381 -0.2422
  982SOL    HW1 2945   2.860   2.979   1.970 -3.2884  0.7897 -0.8630
  982SOL    HW2 2946   2.998   2.889   1.932  1.9624  1.2864 -0.4482
  983SOL     OW 2947   1.419   0.371   1.462  0.4826  0.0102 -0.3914
  983SOL    HW1 2948   1.355   0.317   1.405  0.5103  1.3833 -0.0247
  983SOL    HW2 2949   1.454   0.308   1.532  2.1897 -3.4058  0.1291
  984SOL     OW 2950   1.357   2.559   2.975  0.0539 -0.1935  0.3019
  984SOL    HW1 2951   1.383   2.475   2.920  0.1583  0.9964  2.1705
  984SOL    HW2 2952   1.432   2.624   2.966 -1.9361 -3.5344  1.5554
  985SOL     OW 2953   1.475   1.898   1.471 -0.2737  0.0490  0.4990
  985SOL    HW1 2954   1.401   1.841   1.438  0.8262  0.1892  0.6142
  985SOL    HW2 2955   1.497   1.870   1.567  0.3772 -2.1484 -3.0840
  986SOL     OW 2956   2.024   3.036   2.438  0.1838 -0.4238 -0.1236
  986SOL    HW1 2957   2.084   3.077   2.370  1.3031 -0.4685 -2.3012
  986SOL    HW2 2958   1.946   3.095   2.457  0.0194 -0.0772 -2.4733
  987SOL     OW 2959   2.613   1.516   2.594  0.2176  0.8086 -0.0832
  987SOL    HW1 2960   2.682   1.554   2.662 -0.5226 -0.1629  1.1976
  987SOL    HW2 2961   2.596   1.585   2.521 -0.6644 -2.5785 -1.3619
  988SOL     OW 2962   2.845   0.606   2.019  0.3789  0.1146 -0.2723
  988SOL    HW1 2963   2.868   0.660   1.934  0.6292  1.2966  2.0537
  988SOL    HW2 2964   2.833   0.671   2.098  0.5178 -2.4471 -1.1108
  989SOL     OW 2965   1.782   1.243   1.591 -0.2708  0.8639  0.3306
  989SOL    HW1 2966   1.757   1.333   1.634 -1.7889 -3.5028 -1.2845
  989SOL    HW2 2967   1.849   1.190   1.647 -0.7730 -0.5728 -1.6407
  990SOL     OW 2968   2.963   1.120   0.289 -0.3647 -0.0220  0.0420
  990SOL    HW1 2969   2.862   1.100   0.296  0.5581  1.3735 -0.4528
  990SOL    HW2 2970   3.020   1.040   0.315 -0.1775 -2.1666 -1.1412
  991SOL     OW 2971   0.269   2.019   2.719 -0.0100  0.5514  0.0310
  991SOL    HW1 2972   0.196   1.951   2.750  0.4940 -1.7596 -0.3152
  991SOL    HW2 2973   0.266   2.014   2.618 -2.2670  0.6653  1.0809
  992SOL     OW 2974   2.535   2.308   1.855 -0.0829 -0.6570  0.6346
  992SOL    HW1 2975   2.456   2.297   1.916 -2.2406  0.8148 -1.3220
  992SOL    HW2 2976   2.623   2.324   1.900 -2.4484  0.3862 -0.5789
  993SOL     OW 2977   0.498   2.947   0.434 -0.4697  0.1104 -0.3089
  993SOL    HW1 2978   0.427   3.015   0.405  1.1303  0.6046 -1.5970
  993SOL    HW2 2979   0.542   2.977   0.522  1.1809  2.9098  3.2586
  994SOL     OW 2980   0.032   1.870   1.617 -0.4948 -0.2317 -0.2335
  994SOL    HW1 2981   0.075   1.906   1.703 -0.9451  1.2140  0.0436
  994SOL    HW2 2982   0.098   1.885   1.539 -1.2331  0.6232  0.0778
  995SOL     OW 2983   2.183   1.763   2.373 -0.4935 -0.3188  0.1579
  995SOL    HW1 2984   2.242   1.813   2.444  0.6862  1.3727  0.0408
  995SOL    HW2 2985   2.209   1.668   2.359 -1.8619  5.7866  0.7714
  996SOL     OW 2986   1.868   1.678   3.022  0.3711  0.2380  0.2698
  996SOL    HW1 2987   1.811   1.615   3.083 -2.7070 -2.3703  2.6345
  996SOL    HW2 2988   1.878   1.772   3.058 -1.0310  2.7440 -0.5559
  997SOL     OW 2989   1.299   1.456   1.476 -0.2440  0.5728 -0.6762
  997SOL    HW1 2990   1.206   1.420   1.462  0.6120 -0.0655 -1.6644
  997SOL    HW2 2991   1.372   1.392   1.462 -0.7123  2.6534  0.3225
  998SOL     OW 2992   2.940   2.068   0.991  0.3720  0.6119  0.1875
  998SOL    HW1 2993   2.881   2.075   0.908 -2.5904 -0.4100  0.9214
  998SOL    HW2 2994   2.983   1.977   1.005  0.0074  1.9656  1.2122
  999SOL     OW 2995   2.388   2.626   0.067  0.3944 -0.2305 -0.2604
  999SOL    HW1 2996   2.384   2.723   0.110  1.5770 -0.2791 -0.0716
  999SOL    HW2 2997   2.420   2.638   3.071  2.5691 -0.0810 -2.1370
 1000SOL     OW 2998   1.016   3.013   3.049  0.4540 -0.5237 -0.2423
 1000SOL    HW1 2999   1.068   3.028   0.036  1.9142 -0.8392  2.9475
 1000SOL    HW2 3000   1.010   3.098   2.993  0.5151 -1.5018 -1.3375
   3.09958   3.09958   3.09958
