1000 SPC/Fw water molecules t=  54.00000 step= 54000
 3000
    1SOL     OW    1   2.126   2.645   0.800 -0.5531 -0.1579 -0.1376
    1SOL    HW1    2   2.095   2.667   0.705 -1.2052  1.8320 -1.5950
    1SOL    HW2    3   2.110   2.719   0.867 -2.7892 -1.6927 -1.0741
    2SOL     OW    4   1.160   0.987   2.520  0.1952 -0.3194  0.2266
    2SOL    HW1    5   1.087   1.038   2.464 -3.0344  0.6986 -2.2039
    2SOL    HW2    6   1.177   1.047   2.601  2.9099 -2.4949 -1.5804
    3SOL     OW    7   0.943   2.764   2.711  0.3003 -0.4278  0.0957
    3SOL    HW1    8   1.028   2.825   2.720  0.5777  0.2355  2.0860
    3SOL    HW2    9   0.970   2.670   2.693  0.6877  4.5088  0.9825
    4SOL     OW   10   1.458   1.615   2.972 -0.1159 -0.2817 -0.2001
    4SOL    HW1   11   1.490   1.521   2.987 -0.1015 -0.4497  1.9817
    4SOL    HW2   12   1.530   1.662   2.913  2.0519 -0.7146  1.0019
    5SOL     OW   13   0.886   0.787   1.871 -0.1651  0.9362  0.0778
    5SOL    HW1   14   0.929   0.700   1.838  1.2170 -1.1295  1.6594
    5SOL    HW2   15   0.797   0.765   1.924 -0.6852 -1.9627 -0.2903
    6SOL     OW   16   2.039   0.656   2.401 -0.2633 -0.4675  0.1155
    6SOL    HW1   17   2.090   0.618   2.326  0.3612 -2.8671 -0.3566
    6SOL    HW2   18   2.071   0.633   2.493 -0.3311  1.1377 -1.2741
    7SOL     OW   19   0.272   0.715   1.596  0.1593 -0.4842 -0.2389
    7SOL    HW1   20   0.330   0.666   1.526 -0.3546 -0.5314 -1.7914
    7SOL    HW2   21   0.238   0.650   1.665  0.0422  0.3481  0.3015
    8SOL     OW   22   1.974   3.034   1.879  0.2597  0.1738  0.0961
    8SOL    HW1   23   1.946   2.960   1.943  1.6017  0.5746 -2.4803
    8SOL    HW2   24   1.896   3.098   1.887  0.3030  1.3376 -0.4499
    9SOL     OW   25   0.290   2.995   0.611  0.0902  0.2040  0.1678
    9SOL    HW1   26   0.185   3.010   0.615 -2.0597  2.7871 -0.0164
    9SOL    HW2   27   0.316   2.937   0.532  0.9197 -1.6700  1.2112
   10SOL     OW   28   0.230   2.241   2.294  0.1435 -0.3236 -0.2766
   10SOL    HW1   29   0.214   2.291   2.381  3.0601 -0.1891 -0.9113
   10SOL    HW2   30   0.331   2.233   2.277  1.2522  0.4996 -0.2162
   11SOL     OW   31   0.928   1.558   3.045 -0.7021 -0.8329  0.1814
   11SOL    HW1   32   0.847   1.495   3.056  1.1427  1.1802  2.2331
   11SOL    HW2   33   1.010   1.509   3.007 -0.3557  0.1931  0.5063
   12SOL     OW   34   2.510   2.314   1.467 -0.3656 -0.7015 -0.0288
   12SOL    HW1   35   2.417   2.281   1.445  2.9827  2.8257 -2.3768
   12SOL    HW2   36   2.515   2.369   1.556  0.2536  0.2841  0.8318
   13SOL     OW   37   0.470   3.008   3.057  0.3254  0.3766  0.1906
   13SOL    HW1   38   0.534   3.082   3.081  1.5890 -3.0443  1.2408
   13SOL    HW2   39   0.490   2.928   0.003  3.0937  0.9163 -1.3297
   14SOL     OW   40   1.377   1.705   1.362 -0.4978  0.6019 -0.0226
   14SOL    HW1   41   1.316   1.757   1.425 -0.9016  1.1273  0.0314
   14SOL    HW2   42   1.477   1.695   1.391  0.4675 -1.1722 -2.1861
   15SOL     OW   43   0.432   1.674   2.452 -0.0180 -0.0676  0.4947
   15SOL    HW1   44   0.516   1.672   2.397  3.3900 -1.2143  1.5993
   15SOL    HW2   45   0.366   1.739   2.415  1.2035  2.1167  1.4765
   16SOL     OW   46   1.708   0.633   2.829 -0.2084 -0.3896  0.2347
   16SOL    HW1   47   1.631   0.584   2.870  1.3714 -2.5329 -2.1813
   16SOL    HW2   48   1.675   0.718   2.778 -2.3447 -0.8153 -2.8481
   17SOL     OW   49   3.095   2.921   2.469  0.3225  0.0942  0.0971
   17SOL    HW1   50   3.101   2.826   2.438 -2.2486  0.7620  1.8652
   17SOL    HW2   51   0.029   2.939   2.557 -1.2815  0.3355 -0.0091
   18SOL     OW   52   1.256   1.168   0.846  0.2656  0.1075 -0.4782
   18SOL    HW1   53   1.217   1.245   0.798  2.1728 -3.6105  0.5611
   18SOL    HW2   54   1.178   1.109   0.872  1.1435  0.6635 -2.0901
   19SOL     OW   55   2.818   1.840   2.328  0.0719  0.1488 -0.0234
   19SOL    HW1   56   2.897   1.794   2.374 -2.0009  0.8015  0.9807
   19SOL    HW2   57   2.823   1.939   2.341 -2.3210  1.5635 -0.6609
   20SOL     OW   58   2.369   2.325   2.450  1.0016 -0.1676  0.3262
   20SOL    HW1   59   2.333   2.369   2.361 -1.0966 -1.8972 -3.4332
   20SOL    HW2   60   2.301   2.336   2.530 -1.0508 -2.1230  1.0426
   21SOL     OW   61   1.824   1.887   0.526 -0.0950 -0.6481 -0.4707
   21SOL    HW1   62   1.784   1.976   0.549  0.2131 -1.1582  0.2669
   21SOL    HW2   63   1.869   1.850   0.611 -0.3769 -1.2760  0.6489
   22SOL     OW   64   2.340   1.975   1.265 -0.3825  0.2564  0.1978
   22SOL    HW1   65   2.398   1.893   1.301  1.6413 -0.8986 -1.7127
   22SOL    HW2   66   2.245   1.945   1.245 -0.0496  1.0011 -0.0504
   23SOL     OW   67   0.024   1.376   1.440 -0.6537  0.2692 -0.0645
   23SOL    HW1   68   3.101   1.471   1.441  1.6452  0.6396  0.3845
   23SOL    HW2   69   3.065   1.319   1.496  0.0987  0.7688 -0.6659
   24SOL     OW   70   2.178   1.141   2.054 -0.1281 -0.0697 -0.4136
   24SOL    HW1   71   2.249   1.213   2.083  1.5332  0.0137  2.1239
   24SOL    HW2   72   2.135   1.101   2.136  3.4663  1.8151 -0.5063
   25SOL     OW   73   1.954   0.192   2.422 -0.3173  0.5498  0.0503
   25SOL    HW1   74   1.855   0.186   2.450  1.8502 -1.6269 -0.1244
   25SOL    HW2   75   1.973   0.127   2.345  1.1640 -2.1884 -0.4090
   26SOL     OW   76   0.857   0.132   0.153  0.2915  0.0202  0.4964
   26SOL    HW1   77   0.769   0.112   0.096 -4.7889 -0.5625 -1.1014
   26SOL    HW2   78   0.885   0.228   0.131 -1.1266 -1.8520 -1.4807
   27SOL     OW   79   0.735   1.750   0.855 -0.2564 -0.0084 -0.1714
   27SOL    HW1   80   0.699   1.709   0.770  1.6074 -2.5278  0.8022
   27SOL    HW2   81   0.735   1.690   0.938  1.6141 -0.4496 -0.0160
   28SOL     OW   82   2.332   2.209   1.091 -0.3445 -0.5154  0.3300
   28SOL    HW1   83   2.326   2.132   1.158  1.4824  1.3493  0.2077
   28SOL    HW2   84   2.320   2.306   1.126  0.3899  1.3027 -2.9789
   29SOL     OW   85   2.180   0.097   1.912  0.1276  0.2179 -0.0189
   29SOL    HW1   86   2.101   0.029   1.897 -0.2514  1.5418 -0.3198
   29SOL    HW2   87   2.269   0.051   1.886  1.2327 -0.0561  2.1482
   30SOL     OW   88   0.560   3.071   1.338  0.6444 -0.2560 -0.4193
   30SOL    HW1   89   0.475   3.026   1.375 -2.0852 -1.5283  2.2755
   30SOL    HW2   90   0.543   0.032   1.273 -0.7050 -1.7875 -0.0502
   31SOL     OW   91   0.006   1.972   2.096  0.0435 -0.2880 -0.1019
   31SOL    HW1   92   0.061   2.036   2.034  0.1890  0.7611 -1.8237
   31SOL    HW2   93   0.042   1.879   2.089 -2.0430  0.7873 -0.1750
   32SOL     OW   94   1.527   1.998   2.269  0.4959  0.0690  0.3956
   32SOL    HW1   95   1.595   1.983   2.340 -0.8080 -1.7310 -1.4763
   32SOL    HW2   96   1.532   1.922   2.200  0.0142  0.1173 -0.0959
   33SOL     OW   97   0.360   0.145   2.857  0.1325  0.0495  0.2044
   33SOL    HW1   98   0.367   0.046   2.892 -0.6883 -3.3988 -0.1872
   33SOL    HW2   99   0.401   0.145   2.762 -1.4350  0.5296  2.1473
   34SOL     OW  100   2.559   2.938   0.371  0.1455  0.0547  0.3455
   34SOL    HW1  101   2.594   3.027   0.407 -0.6707  2.2191  1.4757
   34SOL    HW2  102   2.525   2.882   0.451 -0.6825  1.0335 -1.7397
   35SOL     OW  103   2.796   0.314   1.652  0.5703  0.1157  0.0112
   35SOL    HW1  104   2.727   0.387   1.669  0.1917  1.1091  0.7818
   35SOL    HW2  105   2.878   0.354   1.604  1.9472  3.3771  2.7335
   36SOL     OW  106   2.523   0.035   2.480 -0.2605  0.0739  0.2806
   36SOL    HW1  107   2.488   3.075   2.543 -2.4831 -0.6999  1.6661
   36SOL    HW2  108   2.611   0.077   2.504  1.5380 -0.5971 -0.7616
   37SOL     OW  109   1.459   2.818   0.164  0.2519 -0.8472 -0.4235
   37SOL    HW1  110   1.481   2.916   0.188  0.5852  1.8343 -1.8919
   37SOL    HW2  111   1.359   2.812   0.141 -2.1958 -1.9364  0.0319
   38SOL     OW  112   0.085   0.825   0.063  0.1608  0.4531  0.4598
   38SOL    HW1  113   0.079   0.721   0.052  2.4827 -0.9384  2.4340
   38SOL    HW2  114   0.127   0.872   3.092  1.3229  1.8480 -2.5831
   39SOL     OW  115   1.539   1.789   1.998 -0.1682  0.1439  0.4407
   39SOL    HW1  116   1.549   1.892   1.969  2.5158  0.9918  0.5809
   39SOL    HW2  117   1.439   1.773   2.022 -3.8881  4.0819 -0.5508
   40SOL     OW  118   0.298   0.517   2.634  0.1746 -0.5348 -0.2820
   40SOL    HW1  119   0.396   0.533   2.613  0.7242  0.8311 -0.6018
   40SOL    HW2  120   0.266   0.462   2.556 -1.9017 -3.9505 -1.8824
   41SOL     OW  121   1.523   1.040   2.176 -0.2021 -0.1687  0.2729
   41SOL    HW1  122   1.588   0.961   2.155 -0.3261  0.7069 -0.7967
   41SOL    HW2  123   1.501   1.064   2.276 -1.1483 -1.8663 -0.1399
   42SOL     OW  124   2.996   0.395   1.499 -0.2402  0.1627 -0.3103
   42SOL    HW1  125   2.995   0.498   1.496 -0.8014  1.3353  0.7317
   42SOL    HW2  126   3.079   0.372   1.551  1.1448 -1.0197 -1.7593
   43SOL     OW  127   1.352   1.243   1.619  0.2760 -0.0117 -0.8496
   43SOL    HW1  128   1.437   1.270   1.669  2.2116  0.0786 -0.8737
   43SOL    HW2  129   1.291   1.183   1.674 -0.5622 -2.2834  1.4109
   44SOL     OW  130   3.021   0.239   2.917 -0.3614 -0.2292  0.1418
   44SOL    HW1  131   0.007   0.213   2.956  2.0154  3.4776  0.1408
   44SOL    HW2  132   2.970   0.160   2.887 -0.1864  1.8583  0.6540
   45SOL     OW  133   0.257   2.217   1.422 -0.5443  0.4422  0.6788
   45SOL    HW1  134   0.182   2.206   1.354  0.7969 -1.7052  0.5500
   45SOL    HW2  135   0.339   2.190   1.371  1.8865 -3.3512  0.6633
   46SOL     OW  136   2.409   3.043   1.877  0.0986  0.5572  0.3005
   46SOL    HW1  137   2.469   3.090   1.946  1.5502 -1.6730  2.7231
   46SOL    HW2  138   2.458   2.995   1.797 -0.5554 -1.9325  0.5275
   47SOL     OW  139   0.300   1.960   1.160  0.1273 -0.2216  0.0043
   47SOL    HW1  140   0.329   1.960   1.062  1.8392  0.5280 -1.6433
   47SOL    HW2  141   0.293   1.863   1.181  2.0426 -0.3279 -0.7161
   48SOL     OW  142   0.552   2.787   0.119  0.3192 -0.0115 -0.0507
   48SOL    HW1  143   0.507   2.838   0.195  0.4435  0.4224  0.7347
   48SOL    HW2  144   0.509   2.704   0.081  1.0264 -0.6181 -0.9738
   49SOL     OW  145   0.021   1.763   1.855 -0.1312 -0.4594 -0.4047
   49SOL    HW1  146   0.063   1.747   1.947  0.9887 -1.0884  0.1750
   49SOL    HW2  147   3.073   1.684   1.834  1.9461  2.8348  0.3723
   50SOL     OW  148   1.644   3.106   0.759 -0.1272 -0.0269 -0.0554
   50SOL    HW1  149   1.657   0.061   0.682 -0.9208  1.1797 -3.1352
   50SOL    HW2  150   1.670   0.047   0.843 -0.4385  0.2103  1.4228
   51SOL     OW  151   1.096   0.199   1.101  0.0880 -0.4698 -0.3401
   51SOL    HW1  152   1.035   0.200   1.180  2.4823 -2.2339 -2.6724
   51SOL    HW2  153   1.107   0.292   1.060 -0.8471 -0.6909  0.2811
   52SOL     OW  154   0.748   1.432   0.303  0.0743 -0.4564 -0.2613
   52SOL    HW1  155   0.685   1.497   0.354 -0.1703  1.0159  0.6786
   52SOL    HW2  156   0.744   1.338   0.342  1.2204  1.6039  0.2144
   53SOL     OW  157   1.450   2.941   2.485 -0.2655 -0.0204  0.1112
   53SOL    HW1  158   1.487   2.938   2.396  0.2416  0.5652  2.8105
   53SOL    HW2  159   1.518   2.907   2.554  1.4481 -0.7917 -2.9726
   54SOL     OW  160   1.699   0.588   1.787 -0.4684  0.1175  0.1869
   54SOL    HW1  161   1.746   0.618   1.699  0.3845  2.5390 -1.0875
   54SOL    HW2  162   1.768   0.535   1.841  3.2464  0.0206  0.0991
   55SOL     OW  163   3.012   2.479   0.513 -0.0031 -0.5411 -0.3993
   55SOL    HW1  164   3.074   2.557   0.533 -1.7220  0.8268  0.1999
   55SOL    HW2  165   3.060   2.392   0.500  0.8669 -2.2078 -1.3553
   56SOL     OW  166   0.997   2.794   1.807 -0.1241  0.3987 -0.2649
   56SOL    HW1  167   0.994   2.804   1.910  1.5833 -0.8227  1.2730
   56SOL    HW2  168   0.920   2.847   1.767  2.4022 -1.6155  2.2121
   57SOL     OW  169   1.777   0.573   2.307 -0.1964  0.2357 -0.0855
   57SOL    HW1  170   1.856   0.613   2.357 -1.7025 -0.9484 -0.7040
   57SOL    HW2  171   1.744   0.641   2.239  0.6139  1.0771  0.4735
   58SOL     OW  172   0.469   1.271   2.122 -0.8460  0.2848 -0.5418
   58SOL    HW1  173   0.540   1.341   2.110  0.1976  0.0313  0.0599
   58SOL    HW2  174   0.441   1.228   2.031 -0.3109 -1.9547  0.9361
   59SOL     OW  175   0.641   2.580   2.070 -0.2717  0.1157 -0.2387
   59SOL    HW1  176   0.609   2.486   2.039 -2.9665  0.1818 -1.2365
   59SOL    HW2  177   0.697   2.626   2.000 -0.2312 -2.1022  2.4463
   60SOL     OW  178   2.567   2.471   0.208  0.2346  0.9358 -0.5512
   60SOL    HW1  179   2.666   2.454   0.232  1.0105 -0.4678  1.3857
   60SOL    HW2  180   2.555   2.558   0.156 -0.1494  0.7908 -2.1763
   61SOL     OW  181   1.066   2.718   0.802  0.2850  0.0363  0.1476
   61SOL    HW1  182   1.095   2.695   0.897 -1.7139 -0.6855  0.8637
   61SOL    HW2  183   1.108   2.655   0.736  1.4688  3.4804  2.6792
   62SOL     OW  184   1.517   2.717   3.031 -0.1749 -0.7636  0.3224
   62SOL    HW1  185   1.483   2.750   0.013  2.4068  0.2827  0.5171
   62SOL    HW2  186   1.551   2.624   3.048  0.1585  1.0128 -1.6086
   63SOL     OW  187   2.286   0.599   3.041 -0.2538 -0.0281 -0.0825
   63SOL    HW1  188   2.300   0.698   3.065 -1.2594  1.0540  0.0722
   63SOL    HW2  189   2.366   0.539   3.071 -0.7526 -2.9317 -1.0551
   64SOL     OW  190   1.291   1.208   0.085 -0.4749 -0.5296  0.0217
   64SOL    HW1  191   1.210   1.210   0.147  1.8855 -0.3794 -0.1347
   64SOL    HW2  192   1.379   1.222   0.131 -3.1125 -2.4399 -0.3364
   65SOL     OW  193   0.797   2.955   1.453  0.6081  0.4121 -0.3069
   65SOL    HW1  194   0.858   2.967   1.372 -0.0078  0.2112 -0.2745
   65SOL    HW2  195   0.711   3.006   1.443  1.1453  0.9086  1.3575
   66SOL     OW  196   0.777   1.173   1.255  0.4023  0.0819  0.1520
   66SOL    HW1  197   0.721   1.085   1.247 -0.7927 -3.0528  1.1911
   66SOL    HW2  198   0.870   1.170   1.217 -0.1353 -1.3242  1.2871
   67SOL     OW  199   2.395   2.180   1.889 -0.0575 -0.4125 -0.6422
   67SOL    HW1  200   2.429   2.273   1.924 -0.3191  1.3034 -1.1112
   67SOL    HW2  201   2.336   2.198   1.804  0.6329 -0.3108  0.4760
   68SOL     OW  202   0.905   1.356   2.110 -0.0618 -0.3148 -0.2217
   68SOL    HW1  203   0.821   1.410   2.093  0.5140 -0.3133  1.5169
   68SOL    HW2  204   0.958   1.350   2.022 -1.8179  1.9150  0.5095
   69SOL     OW  205   2.761   2.703   0.091 -0.3560  0.0773 -0.3111
   69SOL    HW1  206   2.802   2.720   0.185 -0.7504  0.9532  1.4996
   69SOL    HW2  207   2.700   2.782   0.069  1.0131  2.2464  0.2620
   70SOL     OW  208   2.593   0.865   2.527 -0.7411 -0.0361  0.7900
   70SOL    HW1  209   2.555   0.892   2.618  1.3626  0.9779 -0.5212
   70SOL    HW2  210   2.605   0.764   2.529 -1.2376 -1.8087  2.2502
   71SOL     OW  211   0.244   1.930   0.696 -0.7789  0.0290  0.6163
   71SOL    HW1  212   0.205   1.860   0.635  2.1596 -0.5944  0.3975
   71SOL    HW2  213   0.166   1.978   0.738  0.1814 -1.9030 -2.6345
   72SOL     OW  214   2.657   1.827   0.392  0.5303  0.0977  0.0338
   72SOL    HW1  215   2.645   1.924   0.370  1.1157 -1.9021 -0.7253
   72SOL    HW2  216   2.568   1.777   0.404 -1.2450  0.7717 -1.0311
   73SOL     OW  217   1.011   0.414   0.485 -0.4648  0.1095  0.5072
   73SOL    HW1  218   0.983   0.483   0.416 -2.0230  0.4979 -1.2608
   73SOL    HW2  219   0.966   0.425   0.574 -0.2253  0.4032  0.0712
   74SOL     OW  220   2.527   2.408   1.960 -0.3478 -0.1804  0.0503
   74SOL    HW1  221   2.616   2.415   2.004 -0.6970 -1.2089 -1.7156
   74SOL    HW2  222   2.479   2.498   1.981 -0.5341 -1.1295  1.2889
   75SOL     OW  223   1.639   1.619   1.794 -0.1641 -0.2494  0.2920
   75SOL    HW1  224   1.579   1.675   1.854  3.6190 -1.1334  0.3152
   75SOL    HW2  225   1.633   1.518   1.804  2.3244 -0.5999  0.2477
   76SOL     OW  226   1.063   1.793   1.094  0.4181  0.0215 -0.0148
   76SOL    HW1  227   1.144   1.753   1.051 -1.7166  1.6818 -0.3178
   76SOL    HW2  228   1.011   1.720   1.148  1.0315  0.6345 -0.1934
   77SOL     OW  229   2.646   1.429   2.005 -0.3198  0.5757 -0.3038
   77SOL    HW1  230   2.626   1.475   2.089 -0.1354  0.1251 -3.1618
   77SOL    HW2  231   2.724   1.360   2.019  1.9714  0.4735  1.3146
   78SOL     OW  232   1.876   0.602   0.399 -0.4296 -0.3806  0.5623
   78SOL    HW1  233   1.873   0.556   0.493  0.0278  1.2479  3.4091
   78SOL    HW2  234   1.832   0.695   0.402 -0.9924  0.1081  1.1034
   79SOL     OW  235   1.552   1.288   2.071 -0.4749 -0.1077  0.2459
   79SOL    HW1  236   1.653   1.307   2.090  1.0039 -3.5826 -0.5716
   79SOL    HW2  237   1.522   1.189   2.096 -0.0580 -1.3559 -0.1685
   80SOL     OW  238   0.958   0.565   1.585 -0.3936  0.0770 -0.2258
   80SOL    HW1  239   1.028   0.526   1.518 -1.3760  1.9940 -1.2987
   80SOL    HW2  240   1.009   0.587   1.669 -0.1390 -2.4008 -1.7963
   81SOL     OW  241   0.788   2.709   0.841 -0.1971  0.6037  0.0407
   81SOL    HW1  242   0.751   2.799   0.877 -1.1488  0.8546  1.3268
   81SOL    HW2  243   0.885   2.715   0.812  1.4906 -0.6735 -1.1752
   82SOL     OW  244   1.264   0.386   1.813  0.1515 -0.0242  0.1388
   82SOL    HW1  245   1.339   0.436   1.763  0.4031  1.4032  1.9963
   82SOL    HW2  246   1.304   0.351   1.897  1.3018 -0.2690 -3.0073
   83SOL     OW  247   0.223   2.272   0.642  0.1548 -0.1522  0.0828
   83SOL    HW1  248   0.327   2.280   0.647  2.1042 -0.4830  2.5736
   83SOL    HW2  249   0.180   2.329   0.712  3.1757  0.0590  1.9143
   84SOL     OW  250   2.646   1.503   3.092 -0.2520 -0.2182  0.4029
   84SOL    HW1  251   2.652   1.442   3.012 -0.6901  1.2894 -0.7849
   84SOL    HW2  252   2.713   1.583   3.090 -0.9232  0.3118  1.1636
   85SOL     OW  253   2.518   1.964   1.680  0.0151 -0.9085  0.6495
   85SOL    HW1  254   2.446   2.037   1.662 -2.3134  2.2773 -0.2762
   85SOL    HW2  255   2.552   1.971   1.774  1.0517 -2.0920 -0.7191
   86SOL     OW  256   1.685   2.646   1.201 -0.2445 -0.5052  0.2108
   86SOL    HW1  257   1.779   2.650   1.246 -1.2213  0.2719 -0.8587
   86SOL    HW2  258   1.695   2.684   1.105 -2.6308 -1.1666  1.8679
   87SOL     OW  259   2.452   1.612   0.429  0.1128  0.5962  0.0336
   87SOL    HW1  260   2.367   1.661   0.455  0.1312 -0.1859  0.6897
   87SOL    HW2  261   2.442   1.542   0.355 -0.1049 -1.7088  0.4577
   88SOL     OW  262   0.869   0.246   0.729 -0.7461  0.6385  0.0123
   88SOL    HW1  263   0.939   0.180   0.768  0.9987 -3.1822  1.4004
   88SOL    HW2  264   0.895   0.343   0.757 -1.3754  1.8296  1.1427
   89SOL     OW  265   0.717   0.062   1.825  0.3382 -0.3890  0.1304
   89SOL    HW1  266   0.778   0.142   1.836 -1.7250 -0.5763 -2.5893
   89SOL    HW2  267   0.651   0.060   1.903 -0.8353 -1.5329  0.6561
   90SOL     OW  268   2.947   1.826   0.839  0.3771  0.3154 -0.0364
   90SOL    HW1  269   2.878   1.850   0.766 -1.5000  2.3826  0.8594
   90SOL    HW2  270   2.962   1.723   0.842  0.3643 -5.2290 -1.5791
   91SOL     OW  271   0.934   1.615   1.234  0.6482  0.0645 -0.7450
   91SOL    HW1  272   0.838   1.623   1.268 -0.8711  0.0027  0.3746
   91SOL    HW2  273   0.941   1.520   1.190 -0.8940 -2.9585 -0.2358
   92SOL     OW  274   2.561   2.954   1.661 -0.4355  0.9490  0.1026
   92SOL    HW1  275   2.590   3.050   1.642 -1.8698 -0.9701 -0.8113
   92SOL    HW2  276   2.604   2.883   1.600  3.2713 -0.3566  1.3445
   93SOL     OW  277   0.313   1.061   2.816 -0.4181 -0.6537  0.1807
   93SOL    HW1  278   0.416   1.070   2.815 -0.3103 -1.9681  0.3191
   93SOL    HW2  279   0.276   1.122   2.746 -0.5219  0.4415  1.4632
   94SOL     OW  280   2.517   0.146   2.002  0.3361 -0.1563  0.0492
   94SOL    HW1  281   2.543   0.223   2.063 -0.8935 -1.9019 -1.3332
   94SOL    HW2  282   2.478   0.181   1.912  0.0597  2.3432 -3.4073
   95SOL     OW  283   1.656   0.777   2.156  0.0511 -0.0069  0.1624
   95SOL    HW1  284   1.579   0.716   2.194  0.8590  0.1169  0.4589
   95SOL    HW2  285   1.654   0.776   2.056  0.3252 -2.6095  0.0149
   96SOL     OW  286   2.869   0.647   1.776 -0.2037  0.5627  0.2310
   96SOL    HW1  287   2.782   0.595   1.772  2.4310  1.5872 -2.9311
   96SOL    HW2  288   2.859   0.747   1.802 -0.1119 -0.6392 -1.3831
   97SOL     OW  289   2.038   2.913   1.645 -0.3607 -0.0355 -0.2843
   97SOL    HW1  290   2.136   2.893   1.645 -1.7928  0.8452 -0.8127
   97SOL    HW2  291   2.007   2.970   1.722 -2.3286 -0.2253 -2.5373
   98SOL     OW  292   2.102   2.498   1.783  0.1026  0.0799 -0.8146
   98SOL    HW1  293   2.105   2.400   1.805  2.0696  2.1688 -2.9793
   98SOL    HW2  294   2.067   2.546   1.867  0.0208  0.2441  0.8481
   99SOL     OW  295   2.788   0.611   1.356 -0.0821 -0.2625  0.4073
   99SOL    HW1  296   2.792   0.510   1.360  1.4686 -1.0595 -1.0441
   99SOL    HW2  297   2.857   0.652   1.421  1.5962  0.4687 -0.2249
  100SOL     OW  298   2.422   1.766   1.915 -0.6872 -0.0928  0.2824
  100SOL    HW1  299   2.351   1.837   1.928  2.3416 -1.2467 -1.3868
  100SOL    HW2  300   2.511   1.809   1.948  2.5874  1.0228  1.6275
  101SOL     OW  301   2.165   0.030   0.148 -0.0664  0.1275 -0.2999
  101SOL    HW1  302   2.154   3.057   0.089 -2.3731 -1.5399 -0.1732
  101SOL    HW2  303   2.202   0.098   0.088 -0.1470 -1.4788  3.5787
  102SOL     OW  304   0.701   0.427   1.079  0.3542  0.1803 -0.2431
  102SOL    HW1  305   0.711   0.398   1.176 -1.4139  2.1934 -2.8271
  102SOL    HW2  306   0.600   0.426   1.058 -4.0119  0.4033  0.8496
  103SOL     OW  307   3.058   0.076   2.393  0.2343 -0.4643 -0.1457
  103SOL    HW1  308   3.061   3.092   2.411  1.7960  4.3677 -1.0319
  103SOL    HW2  309   0.016   0.093   2.318 -1.0307  0.8891 -0.3917
  104SOL     OW  310   0.220   2.483   1.409 -0.7421 -0.6831 -0.0797
  104SOL    HW1  311   0.213   2.382   1.427 -0.7092  1.1037  2.2667
  104SOL    HW2  312   0.319   2.508   1.382  2.4260 -2.1321 -0.0434
  105SOL     OW  313   0.996   1.640   1.960  0.2663 -0.1778 -0.2247
  105SOL    HW1  314   1.012   1.541   1.948  0.4687  1.4276  0.6775
  105SOL    HW2  315   0.933   1.681   1.887 -1.2838  3.3345 -1.5082
  106SOL     OW  316   1.913   0.608   0.680  0.1707 -0.1658  0.3027
  106SOL    HW1  317   1.964   0.560   0.759  0.9433 -3.1932  2.6468
  106SOL    HW2  318   1.824   0.643   0.709 -0.4578 -0.9974  0.4922
  107SOL     OW  319   0.654   0.930   1.172 -0.8150  0.0402  0.1655
  107SOL    HW1  320   0.575   0.860   1.160  1.2670  0.3058  1.9868
  107SOL    HW2  321   0.667   0.984   1.087  0.0940  0.4385 -0.6053
  108SOL     OW  322   3.099   0.658   2.255 -0.1734 -0.2890  0.0779
  108SOL    HW1  323   3.091   0.616   2.164  0.0657 -1.0937  4.5618
  108SOL    HW2  324   3.050   0.604   2.329  0.8101  0.8563  0.1022
  109SOL     OW  325   1.591   2.847   2.779 -0.3801  0.0240  0.3540
  109SOL    HW1  326   1.591   2.834   2.880  2.1035  0.9319 -2.5969
  109SOL    HW2  327   1.510   2.797   2.736 -3.4180 -2.2582 -2.3309
  110SOL     OW  328   0.096   1.865   2.901  0.2163  0.0346  0.4794
  110SOL    HW1  329   0.036   1.796   2.948  0.7404 -2.4673  0.2672
  110SOL    HW2  330   0.192   1.857   2.931 -0.1802 -2.6879  0.7839
  111SOL     OW  331   2.739   0.600   2.192 -0.2789 -0.1464 -0.3953
  111SOL    HW1  332   2.666   0.599   2.263  1.2969 -0.2522 -1.3104
  111SOL    HW2  333   2.795   0.515   2.195 -0.3690 -0.4576  1.1035
  112SOL     OW  334   2.662   2.530   1.356 -0.2987  0.8351  0.0664
  112SOL    HW1  335   2.615   2.445   1.394 -0.9843  0.7528 -2.1771
  112SOL    HW2  336   2.728   2.503   1.279  1.8609 -0.4487 -2.6980
  113SOL     OW  337   2.187   2.154   2.234 -0.3134  0.5412 -0.3427
  113SOL    HW1  338   2.238   2.237   2.206  0.2458 -2.9757 -0.3426
  113SOL    HW2  339   2.093   2.180   2.264 -1.1979 -0.6339 -0.2846
  114SOL     OW  340   0.154   0.291   0.185  0.4225 -0.5290  0.6251
  114SOL    HW1  341   0.091   0.286   0.262  2.1959 -1.4805 -3.2900
  114SOL    HW2  342   0.234   0.230   0.197  3.0084 -0.9978  2.6812
  115SOL     OW  343   2.783   1.729   3.028 -0.1693 -0.5221  0.6040
  115SOL    HW1  344   2.880   1.696   3.043 -2.3203 -2.2102  0.8410
  115SOL    HW2  345   2.778   1.764   2.933  0.5887  1.9198 -0.3994
  116SOL     OW  346   3.020   1.304   1.828 -0.0375  0.7216  0.2859
  116SOL    HW1  347   0.015   1.310   1.833  1.5012  1.2998 -1.0561
  116SOL    HW2  348   2.980   1.394   1.809  4.5012 -1.2137 -0.4724
  117SOL     OW  349   2.314   3.109   1.346 -0.0202 -0.2163  0.0316
  117SOL    HW1  350   2.236   0.032   1.293  2.4686 -0.4947  1.8177
  117SOL    HW2  351   2.310   0.049   1.435  0.4838  0.2205  1.3853
  118SOL     OW  352   2.772   2.379   2.081  0.1095 -0.4157 -0.2461
  118SOL    HW1  353   2.825   2.457   2.047 -0.2433  0.0578  1.9231
  118SOL    HW2  354   2.819   2.338   2.164  2.3276  1.7246  0.9902
  119SOL     OW  355   0.690   1.699   1.279  0.1123 -0.0061  0.2681
  119SOL    HW1  356   0.700   1.801   1.271  0.6477  0.4566 -0.1064
  119SOL    HW2  357   0.598   1.669   1.318 -1.0246 -2.2837  0.3588
  120SOL     OW  358   0.117   1.809   1.426  0.2139  0.0361  0.2786
  120SOL    HW1  359   0.137   1.812   1.528 -0.1177 -1.0816 -2.2629
  120SOL    HW2  360   0.047   1.876   1.396  0.3974 -2.4621  1.1133
  121SOL     OW  361   1.937   1.253   1.112  0.6024 -0.1440 -0.5475
  121SOL    HW1  362   1.903   1.210   1.032 -2.4152  0.8967  5.5973
  121SOL    HW2  363   1.962   1.176   1.171  0.2204  1.8429 -0.6162
  122SOL     OW  364   1.753   2.341   2.630 -0.0014 -0.0849  0.2391
  122SOL    HW1  365   1.827   2.296   2.579 -0.1207 -2.7826 -0.7424
  122SOL    HW2  366   1.749   2.441   2.591 -1.0162 -0.0797 -1.4332
  123SOL     OW  367   2.881   0.022   0.148  0.6876 -0.3066 -0.0769
  123SOL    HW1  368   2.975   3.099   0.165 -1.4493  0.4072 -0.4142
  123SOL    HW2  369   2.831   0.026   0.236 -0.4495 -2.9727 -0.4803
  124SOL     OW  370   0.990   1.213   0.552  0.2253  0.1916 -0.1769
  124SOL    HW1  371   0.962   1.224   0.651 -0.5534  3.2959  2.0221
  124SOL    HW2  372   1.089   1.178   0.547  1.7164 -1.8171  1.1914
  125SOL     OW  373   0.138   1.303   2.062  0.2512  0.0941 -0.2551
  125SOL    HW1  374   0.180   1.338   1.980 -1.5204  0.4716  0.1532
  125SOL    HW2  375   0.109   1.380   2.124 -0.6133  0.6722  2.7081
  126SOL     OW  376   0.076   2.385   0.189  0.2946  0.0967  0.3080
  126SOL    HW1  377   0.101   2.332   0.265  0.9947  1.8206 -1.1790
  126SOL    HW2  378   0.045   2.478   0.216  1.4475 -1.4016  0.6177
  127SOL     OW  379   2.956   1.776   0.347  0.1116  0.5292  0.0997
  127SOL    HW1  380   3.003   1.787   0.256 -0.2057 -2.5896 -4.0462
  127SOL    HW2  381   2.861   1.788   0.322  2.9651 -0.8323 -1.5115
  128SOL     OW  382   1.403   0.975   0.701 -0.0495 -0.0210  0.6003
  128SOL    HW1  383   1.344   1.047   0.738 -1.6617 -0.3146  0.0866
  128SOL    HW2  384   1.433   0.914   0.776 -1.7481  1.9581 -1.7467
  129SOL     OW  385   2.634   1.946   0.959 -0.0219 -0.5182  0.5626
  129SOL    HW1  386   2.721   1.993   0.983 -0.0794 -0.9222 -1.0180
  129SOL    HW2  387   2.576   1.923   1.039 -0.4982 -0.0271 -1.6712
  130SOL     OW  388   2.417   1.003   0.866  0.4723  0.2284  0.3563
  130SOL    HW1  389   2.447   0.992   0.964  0.7920  2.0911 -0.3707
  130SOL    HW2  390   2.356   1.087   0.855 -1.3022  0.9838  1.7401
  131SOL     OW  391   2.951   1.207   2.467 -0.1055 -0.0989 -0.0061
  131SOL    HW1  392   2.879   1.134   2.463  0.5042  0.9684 -0.7559
  131SOL    HW2  393   3.044   1.175   2.484 -1.6129 -2.0612  1.2090
  132SOL     OW  394   1.363   1.462   2.188  1.0144  0.0324 -0.3087
  132SOL    HW1  395   1.285   1.415   2.226  2.2462  1.3303 -1.5433
  132SOL    HW2  396   1.433   1.395   2.166 -0.2939  0.3228  1.5416
  133SOL     OW  397   0.220   1.175   0.423 -0.3554  0.1966 -0.0943
  133SOL    HW1  398   0.132   1.225   0.416 -1.6419 -1.7180 -1.9395
  133SOL    HW2  399   0.238   1.146   0.327 -0.4204  1.0130 -2.0470
  134SOL     OW  400   2.808   1.184   0.231  0.0764  0.3380  0.4405
  134SOL    HW1  401   2.841   1.122   0.154  0.9024  0.2126 -0.3009
  134SOL    HW2  402   2.715   1.213   0.212  1.1358  1.0239 -1.6937
  135SOL     OW  403   1.588   0.798   0.094  0.1841  0.2062  0.0670
  135SOL    HW1  404   1.566   0.832   3.108 -2.7934  0.6279 -1.0196
  135SOL    HW2  405   1.549   0.861   0.162  0.4774 -0.9741 -1.6226
  136SOL     OW  406   1.882   1.767   1.790 -0.8159  0.0075 -0.0179
  136SOL    HW1  407   1.810   1.694   1.779 -2.1797 -0.5820 -1.1686
  136SOL    HW2  408   1.837   1.854   1.799 -0.7223  1.0037  1.0484
  137SOL     OW  409   2.444   2.500   0.547  0.0780 -0.2098  0.1997
  137SOL    HW1  410   2.521   2.434   0.540  0.8308  1.7792 -0.7614
  137SOL    HW2  411   2.368   2.473   0.482 -1.6979 -0.7237 -1.6557
  138SOL     OW  412   2.531   0.418   1.253  0.3052  0.6056 -0.3561
  138SOL    HW1  413   2.589   0.335   1.224  1.1955  0.8822  1.3262
  138SOL    HW2  414   2.513   0.483   1.177  1.7620  0.4002  0.8317
  139SOL     OW  415   2.540   0.167   2.813 -0.2504 -0.0434 -0.4853
  139SOL    HW1  416   2.588   0.239   2.865 -2.7237  1.5424 -0.5429
  139SOL    HW2  417   2.567   0.074   2.839 -0.9977 -0.4013 -1.9582
  140SOL     OW  418   1.197   1.884   2.253 -0.0456 -0.4951 -0.1784
  140SOL    HW1  419   1.280   1.882   2.308 -0.9824  2.7646 -1.8819
  140SOL    HW2  420   1.107   1.905   2.301 -1.6231  1.6064  1.4939
  141SOL     OW  421   0.920   0.722   2.277  0.3531 -0.2553  0.3221
  141SOL    HW1  422   0.973   0.726   2.363 -1.4046  0.7604  1.2305
  141SOL    HW2  423   0.948   0.790   2.209 -1.1000  2.0037  1.7658
  142SOL     OW  424   2.512   2.669   2.826 -0.4173 -0.3002  0.1262
  142SOL    HW1  425   2.423   2.678   2.774 -0.1719  0.7208 -2.2122
  142SOL    HW2  426   2.576   2.605   2.785  1.1191  1.4227  2.5949
  143SOL     OW  427   1.095   2.004   0.432  0.1444 -0.3649 -0.0463
  143SOL    HW1  428   1.183   2.055   0.421  0.9490  0.1812  1.3894
  143SOL    HW2  429   1.044   2.044   0.510 -0.1609 -2.1749  0.1253
  144SOL     OW  430   1.192   2.808   0.146  0.3282 -0.3161 -0.0239
  144SOL    HW1  431   1.173   2.735   0.077 -0.3252 -1.5253  2.1811
  144SOL    HW2  432   1.114   2.876   0.140 -0.8141 -0.6130 -0.9041
  145SOL     OW  433   1.468   2.354   2.454 -0.0643 -0.1680  1.0833
  145SOL    HW1  434   1.569   2.332   2.465 -1.1809  2.9597 -0.0927
  145SOL    HW2  435   1.421   2.280   2.405 -0.0798 -0.9959  1.0432
  146SOL     OW  436   2.396   2.951   2.828  0.2859 -0.5750 -0.3038
  146SOL    HW1  437   2.481   2.988   2.871  1.5937 -0.5731 -2.2584
  146SOL    HW2  438   2.340   3.030   2.794 -1.5542  0.6570  2.5185
  147SOL     OW  439   2.808   1.051   1.228 -0.0690  0.3213  0.6881
  147SOL    HW1  440   2.743   1.123   1.200  1.1531 -0.4881 -0.4634
  147SOL    HW2  441   2.900   1.087   1.228 -1.0356 -0.2265 -2.6546
  148SOL     OW  442   2.044   2.745   0.137 -0.1304 -0.2381 -0.5535
  148SOL    HW1  443   2.061   2.717   0.233 -1.6386  0.9692  0.2524
  148SOL    HW2  444   2.112   2.814   0.106 -0.2816  1.3366 -0.7940
  149SOL     OW  445   0.535   1.906   2.878  0.1060  0.4013 -0.4844
  149SOL    HW1  446   0.612   1.850   2.849 -1.3700 -1.6022  2.1236
  149SOL    HW2  447   0.454   1.870   2.830 -0.2362 -2.2659 -2.4371
  150SOL     OW  448   0.484   2.426   0.657  0.0143 -0.3842 -0.1567
  150SOL    HW1  449   0.543   2.418   0.569  1.1743 -0.9338 -3.9426
  150SOL    HW2  450   0.523   2.480   0.728 -1.8174 -0.2762 -0.2908
  151SOL     OW  451   0.273   1.116   0.180  0.3320  0.6173  0.2534
  151SOL    HW1  452   0.351   1.057   0.159  0.7069 -0.6017  0.6606
  151SOL    HW2  453   0.215   1.122   0.095  1.8822 -1.4989 -0.5035
  152SOL     OW  454   2.654   2.162   0.724 -0.8524 -0.0853  0.0703
  152SOL    HW1  455   2.690   2.223   0.802  0.1049  0.4684  0.5718
  152SOL    HW2  456   2.654   2.219   0.637 -0.3459 -1.0809  0.4554
  153SOL     OW  457   1.691   2.345   0.829 -0.5987  0.2695  0.0395
  153SOL    HW1  458   1.717   2.343   0.930 -1.5204  0.4629 -0.6025
  153SOL    HW2  459   1.601   2.303   0.816 -1.4594 -0.5174  1.4870
  154SOL     OW  460   0.661   2.830   1.192 -0.0164 -1.0631  0.6338
  154SOL    HW1  461   0.633   2.920   1.234  0.4037  0.7476  1.8923
  154SOL    HW2  462   0.759   2.821   1.193 -0.8922  0.4174 -0.0829
  155SOL     OW  463   2.779   1.941   0.623  0.0296 -0.3404 -0.3935
  155SOL    HW1  464   2.711   2.007   0.662  1.4840  2.3877  0.3964
  155SOL    HW2  465   2.753   1.903   0.534  2.1687 -0.6361  0.3073
  156SOL     OW  466   2.658   2.336   2.893  0.0052 -0.1720  0.4374
  156SOL    HW1  467   2.730   2.383   2.941 -2.4822 -2.9562  0.0209
  156SOL    HW2  468   2.633   2.259   2.943 -0.2323  2.2400 -3.1784
  157SOL     OW  469   0.424   2.388   1.666 -0.3209  0.0178 -0.4935
  157SOL    HW1  470   0.363   2.461   1.704  2.6122  0.0384 -1.1249
  157SOL    HW2  471   0.373   2.332   1.597 -0.2936 -0.4420  0.0306
  158SOL     OW  472   1.551   0.412   0.786 -0.0712 -0.1732 -0.2812
  158SOL    HW1  473   1.526   0.312   0.783  1.0031 -2.2798  0.6327
  158SOL    HW2  474   1.627   0.424   0.860  5.2728 -0.6081  3.1436
  159SOL     OW  475   1.823   0.717   0.117  0.2792 -0.6009  0.4059
  159SOL    HW1  476   1.847   0.693   0.208 -1.0843 -0.2386 -1.9085
  159SOL    HW2  477   1.723   0.748   0.116 -1.4635 -1.9173  0.9231
  160SOL     OW  478   0.830   1.443   0.626 -0.1180 -0.2447  0.4451
  160SOL    HW1  479   0.817   1.404   0.717  2.0287 -1.1862  0.9832
  160SOL    HW2  480   0.884   1.375   0.568  1.7471 -0.7734 -1.1688
  161SOL     OW  481   2.942   2.497   2.528 -0.2958 -0.6084 -0.3680
  161SOL    HW1  482   2.839   2.503   2.538 -2.5595  0.5838  0.3307
  161SOL    HW2  483   2.972   2.398   2.541  0.3024  1.2711 -0.7427
  162SOL     OW  484   0.031   2.262   1.276 -0.0005  0.1035  0.1530
  162SOL    HW1  485   3.049   2.298   1.302 -1.3299 -1.5589 -1.2143
  162SOL    HW2  486   0.038   2.260   1.174 -1.4815 -0.3389  1.7716
  163SOL     OW  487   0.394   0.409   2.882 -0.3692 -0.5684 -0.1740
  163SOL    HW1  488   0.387   0.304   2.873  1.1352 -0.9679 -1.2477
  163SOL    HW2  489   0.323   0.452   2.818  0.9296  1.3889 -0.8146
  164SOL     OW  490   0.280   2.781   2.448 -0.4247  0.9873 -0.1585
  164SOL    HW1  491   0.367   2.796   2.502  1.9842  0.2910 -0.9215
  164SOL    HW2  492   0.222   2.702   2.484 -1.4373  0.5441  2.0901
  165SOL     OW  493   2.555   0.805   1.745  0.2800  0.3241  0.2504
  165SOL    HW1  494   2.627   0.820   1.678 -1.5308 -2.4318  0.6931
  165SOL    HW2  495   2.575   0.754   1.831 -3.1614 -0.1095  0.3920
  166SOL     OW  496   1.995   2.016   1.434 -0.7635 -0.5666  0.4211
  166SOL    HW1  497   2.031   2.000   1.337 -0.3986 -2.9952 -1.0652
  166SOL    HW2  498   1.999   1.933   1.497  0.5309  2.3794  0.7658
  167SOL     OW  499   0.714   0.874   2.403 -0.2563  0.8660  0.0581
  167SOL    HW1  500   0.679   0.857   2.496 -0.4081  0.4572  0.5339
  167SOL    HW2  501   0.772   0.796   2.370 -1.3361  2.3797  2.3974
  168SOL     OW  502   2.194   0.258   2.135 -0.3454 -0.0061 -0.4567
  168SOL    HW1  503   2.238   0.212   2.213 -3.0384 -0.8442 -1.3914
  168SOL    HW2  504   2.201   0.205   2.046 -0.9527 -0.8602 -0.1965
  169SOL     OW  505   0.468   0.923   0.224  0.1740 -0.4498 -0.0957
  169SOL    HW1  506   0.563   0.915   0.186  4.9137 -0.6366 -2.8101
  169SOL    HW2  507   0.448   0.854   0.297  1.2811  0.3087 -1.3738
  170SOL     OW  508   0.828   1.547   1.612 -0.0403 -0.0157  0.2683
  170SOL    HW1  509   0.831   1.481   1.690  2.4449 -0.1430 -0.9268
  170SOL    HW2  510   0.882   1.511   1.535 -1.3815  0.2566  0.2911
  171SOL     OW  511   0.891   2.292   1.837 -0.0327 -0.1497 -0.0580
  171SOL    HW1  512   0.863   2.261   1.744  1.5073  1.1459 -0.2950
  171SOL    HW2  513   0.883   2.394   1.839 -2.7569  2.0376 -3.6720
  172SOL     OW  514   1.341   2.936   1.978 -0.0646 -0.2990 -0.2435
  172SOL    HW1  515   1.327   3.000   2.055 -0.0048 -0.9357 -4.6947
  172SOL    HW2  516   1.308   2.841   1.994 -0.8317  0.6156 -1.6437
  173SOL     OW  517   1.414   2.322   0.822  0.1399 -0.0250  0.0517
  173SOL    HW1  518   1.367   2.254   0.753 -1.9203 -1.2076 -0.1169
  173SOL    HW2  519   1.343   2.328   0.892  2.1044 -2.0648 -2.8425
  174SOL     OW  520   2.235   2.949   0.350 -0.7289 -0.1281 -0.4908
  174SOL    HW1  521   2.326   2.972   0.398  0.6903 -1.5865 -0.3939
  174SOL    HW2  522   2.208   3.017   0.280  1.0167 -0.9201  0.7135
  175SOL     OW  523   1.223   1.433   0.727  0.2345 -0.1007  0.1809
  175SOL    HW1  524   1.284   1.477   0.654 -0.2092 -1.0104 -2.3622
  175SOL    HW2  525   1.158   1.494   0.770  1.1321 -1.0699 -1.9075
  176SOL     OW  526   0.646   1.600   0.496  0.0503  0.5170 -0.1469
  176SOL    HW1  527   0.678   1.697   0.479  0.2846  0.4917  0.8137
  176SOL    HW2  528   0.729   1.551   0.530 -0.4876 -0.3481  1.1125
  177SOL     OW  529   1.266   1.133   1.186 -0.3740 -0.2126  0.0663
  177SOL    HW1  530   1.359   1.174   1.190 -1.9721  0.9558 -1.7868
  177SOL    HW2  531   1.283   1.047   1.133  0.9846  2.3297  2.4881
  178SOL     OW  532   2.415   1.866   0.190  0.0896  0.2315 -0.6102
  178SOL    HW1  533   2.418   1.940   0.262  2.0692  0.0350  0.0525
  178SOL    HW2  534   2.413   1.769   0.224 -0.8883 -0.4680 -0.3702
  179SOL     OW  535   1.058   2.396   3.041  0.4567  0.3071  0.1385
  179SOL    HW1  536   1.016   2.377   2.951 -0.3918 -0.6358  1.0362
  179SOL    HW2  537   1.160   2.407   3.039  1.5507  0.4090  0.0554
  180SOL     OW  538   1.966   1.285   1.968  0.0675  0.5984 -0.3285
  180SOL    HW1  539   2.048   1.230   2.005 -1.4161  0.3126  2.2029
  180SOL    HW2  540   1.997   1.384   1.958  1.1912  0.3990 -2.2229
  181SOL     OW  541   1.084   0.716   2.509 -0.1069  0.1944 -0.6745
  181SOL    HW1  542   1.097   0.817   2.527  1.7951 -0.4718 -0.7883
  181SOL    HW2  543   1.111   0.658   2.592 -1.5874 -0.7544 -0.9948
  182SOL     OW  544   2.871   1.426   2.288 -0.2942  0.2337  0.1875
  182SOL    HW1  545   2.897   1.361   2.358  0.8580  0.6281 -0.5487
  182SOL    HW2  546   2.847   1.367   2.205  0.6467  1.0670  1.5822
  183SOL     OW  547   1.420   0.592   2.430 -0.3573 -0.1213 -0.4461
  183SOL    HW1  548   1.366   0.525   2.482  0.6764  1.5924 -4.3415
  183SOL    HW2  549   1.439   0.562   2.336 -0.6049  0.1767  0.3445
  184SOL     OW  550   0.457   0.604   1.408  0.1618 -0.5646  0.0608
  184SOL    HW1  551   0.551   0.618   1.449 -0.9685 -0.1960  0.6988
  184SOL    HW2  552   0.431   0.503   1.410 -0.1116 -0.5332 -0.6705
  185SOL     OW  553   2.275   1.823   0.467  0.0959  0.2244 -0.3632
  185SOL    HW1  554   2.250   1.918   0.428  1.2745  1.0569  0.5251
  185SOL    HW2  555   2.198   1.758   0.451  2.8944  1.9096  1.2547
  186SOL     OW  556   0.214   1.893   0.299 -0.2280 -0.7399  0.4806
  186SOL    HW1  557   0.302   1.852   0.261 -0.1633  2.3561  2.2310
  186SOL    HW2  558   0.191   1.844   0.384  1.2436 -2.4311 -2.1300
  187SOL     OW  559   1.956   2.257   0.075  0.9973 -0.3014  0.1920
  187SOL    HW1  560   1.934   2.273   0.178 -0.4049 -1.5182  2.2625
  187SOL    HW2  561   2.050   2.221   0.068 -3.0451  1.3936  1.9298
  188SOL     OW  562   0.888   2.016   1.095 -0.3917 -0.1638  0.6450
  188SOL    HW1  563   0.838   1.996   1.176  0.8973  0.5293 -0.9944
  188SOL    HW2  564   0.957   1.947   1.081 -0.9107  0.9952 -0.3429
  189SOL     OW  565   2.208   1.428   2.671 -0.0193  0.3612  0.1619
  189SOL    HW1  566   2.111   1.452   2.659 -0.0279  1.0329 -3.1195
  189SOL    HW2  567   2.260   1.501   2.728  1.5223 -2.8686  1.4583
  190SOL     OW  568   0.854   2.547   2.247  0.0620  0.0493 -0.1199
  190SOL    HW1  569   0.771   2.573   2.195 -1.0319 -0.4417 -0.4077
  190SOL    HW2  570   0.827   2.530   2.345 -1.7321  0.7959  0.0169
  191SOL     OW  571   2.558   0.670   1.478 -0.5816 -0.7305 -0.3172
  191SOL    HW1  572   2.513   0.749   1.433 -0.0350  1.1916  1.8463
  191SOL    HW2  573   2.643   0.649   1.422  1.2840  0.9010 -1.0855
  192SOL     OW  574   2.365   0.538   1.622  0.1967 -0.0331  0.2494
  192SOL    HW1  575   2.434   0.591   1.569  1.6444 -1.1890  2.8373
  192SOL    HW2  576   2.315   0.597   1.691 -1.2722  0.1868  0.4918
  193SOL     OW  577   0.408   0.306   0.450 -0.4052 -0.4719  0.3278
  193SOL    HW1  578   0.340   0.326   0.528  0.3706 -0.0867  0.8673
  193SOL    HW2  579   0.509   0.324   0.487  0.3287  0.5375  1.1346
  194SOL     OW  580   1.096   2.320   1.454 -0.5140  0.0106  0.0205
  194SOL    HW1  581   1.123   2.241   1.396 -2.1687  3.0829  0.9382
  194SOL    HW2  582   1.175   2.342   1.514  1.0664 -1.1454 -0.6327
  195SOL     OW  583   2.455   1.033   0.448  0.1443  0.0636  0.2550
  195SOL    HW1  584   2.507   0.955   0.489 -3.0606  1.3008 -3.8197
  195SOL    HW2  585   2.505   1.090   0.382  0.2291  0.0987 -2.1031
  196SOL     OW  586   0.670   2.476   1.609  0.4293  0.0693  0.5246
  196SOL    HW1  587   0.663   2.538   1.529  0.8830 -0.8881 -1.6391
  196SOL    HW2  588   0.577   2.444   1.635  0.0864  1.4086 -0.3122
  197SOL     OW  589   0.324   0.865   2.325  0.2603  0.3034 -0.4865
  197SOL    HW1  590   0.241   0.922   2.286  3.2299  2.6988 -0.7367
  197SOL    HW2  591   0.311   0.766   2.298 -2.8914 -0.8335 -0.1065
  198SOL     OW  592   1.772   0.861   0.405 -0.3093 -0.0858 -0.1580
  198SOL    HW1  593   1.689   0.864   0.462 -0.0461  0.1655 -0.7747
  198SOL    HW2  594   1.809   0.957   0.400  0.3065  1.3191 -0.6594
  199SOL     OW  595   2.634   0.504   1.767 -0.2957 -0.1757  0.1034
  199SOL    HW1  596   2.591   0.496   1.858  0.1515  1.9161 -2.7065
  199SOL    HW2  597   2.568   0.534   1.698 -0.1795 -2.9127  2.3778
  200SOL     OW  598   2.213   0.060   2.772 -0.0775 -0.1291 -0.0686
  200SOL    HW1  599   2.293   0.122   2.801 -1.5431  2.2771 -0.6547
  200SOL    HW2  600   2.134   0.114   2.797 -1.9422 -0.6662 -0.0372
  201SOL     OW  601   2.576   3.110   1.377 -0.1300  0.4846 -0.2626
  201SOL    HW1  602   2.591   0.037   1.468 -0.0708  0.4652 -0.5247
  201SOL    HW2  603   2.480   3.095   1.354 -1.0182  0.0297  1.3912
  202SOL     OW  604   3.076   2.676   0.264  0.5026  0.1489 -0.0107
  202SOL    HW1  605   0.011   2.644   0.349  1.4711 -1.8533  1.1528
  202SOL    HW2  606   2.991   2.719   0.289  2.7794  1.2844 -2.3424
  203SOL     OW  607   1.263   2.008   2.866  0.0995  0.3956 -0.4710
  203SOL    HW1  608   1.268   1.966   2.956  0.5668  3.3380  0.4806
  203SOL    HW2  609   1.286   1.939   2.792  1.5004 -2.6633 -3.1701
  204SOL     OW  610   0.442   2.098   2.509 -0.3780  0.0144 -0.1632
  204SOL    HW1  611   0.407   2.020   2.453  0.4540  2.7159 -0.9084
  204SOL    HW2  612   0.369   2.150   2.561 -1.2671  0.0391  1.2253
  205SOL     OW  613   1.185   0.780   1.007 -0.3664 -0.1567 -0.5248
  205SOL    HW1  614   1.140   0.723   1.079 -2.4747  0.7545 -0.9428
  205SOL    HW2  615   1.275   0.811   1.046  1.9536  1.3405  1.1104
  206SOL     OW  616   0.279   0.824   2.953 -0.1596  0.3604  0.2172
  206SOL    HW1  617   0.278   0.907   2.897  2.6933 -2.5483  2.2768
  206SOL    HW2  618   0.221   0.750   2.913 -2.0395 -1.2931 -2.6136
  207SOL     OW  619   1.550   2.433   1.732 -0.0811  0.2632 -0.0529
  207SOL    HW1  620   1.641   2.455   1.766 -0.4000 -0.7190  0.3960
  207SOL    HW2  621   1.496   2.370   1.790  2.3861 -4.1644  0.8477
  208SOL     OW  622   0.371   3.108   0.976 -0.0895  0.5231 -0.1138
  208SOL    HW1  623   0.416   3.018   0.973  0.9525  2.4584  0.9168
  208SOL    HW2  624   0.358   0.036   0.880  1.7647 -0.3371  0.9906
  209SOL     OW  625   1.856   1.088   0.735 -0.3127  0.4035 -0.6793
  209SOL    HW1  626   1.930   1.022   0.756 -2.1610  1.0012 -1.2272
  209SOL    HW2  627   1.851   1.099   0.633 -0.3000  0.0216 -3.5598
  210SOL     OW  628   2.608   0.563   0.830  0.4845  0.0398 -0.4738
  210SOL    HW1  629   2.591   0.608   0.738  0.2275  2.0028  1.0795
  210SOL    HW2  630   2.651   0.472   0.826 -0.0783  0.8669  2.7740
  211SOL     OW  631   1.331   0.044   0.436 -0.3058 -0.1851 -0.6182
  211SOL    HW1  632   1.254   3.089   0.453 -1.4812 -1.9748  1.6088
  211SOL    HW2  633   1.385   0.009   0.355  0.4616 -3.1099 -2.0481
  212SOL     OW  634   1.707   2.136   0.598  0.1931  0.4927 -0.4219
  212SOL    HW1  635   1.795   2.189   0.630  1.4596  2.8788 -0.7388
  212SOL    HW2  636   1.644   2.203   0.559 -0.4801 -0.5039  2.4277
  213SOL     OW  637   2.117   0.598   2.658 -0.6215  0.7044  0.0533
  213SOL    HW1  638   2.215   0.572   2.681  0.1622  2.0577  3.6071
  213SOL    HW2  639   2.059   0.512   2.639 -2.4952 -1.2377 -1.4726
  214SOL     OW  640   1.281   1.734   2.035  0.3611 -0.2933  0.5178
  214SOL    HW1  641   1.226   1.773   2.114 -1.1203 -1.5919  2.0431
  214SOL    HW2  642   1.218   1.680   1.980  4.0288  1.3080 -0.3369
  215SOL     OW  643   0.146   1.283   1.049 -0.0232  0.1138  0.3952
  215SOL    HW1  644   0.069   1.233   1.105 -3.8217 -3.9796 -0.5194
  215SOL    HW2  645   0.246   1.265   1.075  0.5294  0.1860  0.2908
  216SOL     OW  646   0.126   2.181   2.660  0.5025  0.4462 -0.8825
  216SOL    HW1  647   0.175   2.258   2.620 -0.9101  0.0987 -0.2704
  216SOL    HW2  648   0.168   2.145   2.747 -0.4175  1.6783 -1.4146
  217SOL     OW  649   2.459   1.119   1.445  0.2417 -0.0673 -0.0761
  217SOL    HW1  650   2.416   1.043   1.393 -1.0377  1.3910  1.2740
  217SOL    HW2  651   2.436   1.119   1.542  0.9884  1.4304 -1.7689
  218SOL     OW  652   0.591   2.336   2.020  0.2331 -0.1563 -0.5393
  218SOL    HW1  653   0.615   2.263   1.951 -0.5826 -0.7061  1.7091
  218SOL    HW2  654   0.550   2.291   2.106 -1.4383 -1.7523 -0.9338
  219SOL     OW  655   2.115   1.365   0.267  0.2552  0.6020 -0.2810
  219SOL    HW1  656   2.183   1.430   0.227  0.3028  1.7776  2.0743
  219SOL    HW2  657   2.106   1.386   0.368 -1.3503  0.6264  0.7019
  220SOL     OW  658   2.408   0.791   0.678  0.1502  0.1395 -0.1171
  220SOL    HW1  659   2.441   0.855   0.750  0.6068 -1.9140  0.6950
  220SOL    HW2  660   2.308   0.787   0.658  0.5105  0.8993 -0.0537
  221SOL     OW  661   2.722   0.702   0.131  0.5079 -0.0917  0.7065
  221SOL    HW1  662   2.770   0.770   0.188 -1.5883  1.6817  4.6704
  221SOL    HW2  663   2.791   0.631   0.097  1.5650  1.6831 -1.2972
  222SOL     OW  664   1.576   1.201   0.630  0.0508  0.0092  0.2041
  222SOL    HW1  665   1.563   1.099   0.650  0.9850 -2.6468 -1.3002
  222SOL    HW2  666   1.566   1.252   0.717  1.2495 -3.2271 -1.4148
  223SOL     OW  667   0.906   0.136   2.882  0.0519 -0.1227  0.0955
  223SOL    HW1  668   0.879   0.233   2.907  0.0214  3.3803  3.3341
  223SOL    HW2  669   0.957   0.134   2.790  2.1552 -0.0375  0.0970
  224SOL     OW  670   1.179   3.024   1.202  0.3064  0.6950  0.0978
  224SOL    HW1  671   1.117   3.101   1.174  0.1265  0.0183 -0.8312
  224SOL    HW2  672   1.198   3.028   1.303  1.0057 -0.7187  3.0358
  225SOL     OW  673   0.344   2.467   1.998  0.5929  0.8691 -0.3810
  225SOL    HW1  674   0.347   2.515   2.087 -0.0239  1.9393  2.2473
  225SOL    HW2  675   0.422   2.407   1.981 -1.4129 -0.0811  1.6011
  226SOL     OW  676   1.396   1.324   0.473 -0.1526 -0.2280 -0.1265
  226SOL    HW1  677   1.480   1.304   0.528  0.8821  1.2802 -1.1185
  226SOL    HW2  678   1.373   1.422   0.470 -3.3188  1.9722 -1.4542
  227SOL     OW  679   0.498   1.461   0.721  0.5929  0.6613  0.2171
  227SOL    HW1  680   0.561   1.481   0.645  1.0573 -2.5522 -1.0938
  227SOL    HW2  681   0.414   1.413   0.684  2.6945 -1.2900  2.3929
  228SOL     OW  682   2.999   1.564   0.795 -0.2422 -0.1544 -0.8750
  228SOL    HW1  683   2.968   1.468   0.805 -1.2284 -0.5491  0.8437
  228SOL    HW2  684   3.002   1.584   0.692 -1.1249 -1.2507 -3.2952
  229SOL     OW  685   2.682   0.368   2.971  0.1004 -0.3184 -0.0404
  229SOL    HW1  686   2.670   0.468   2.991  0.5226 -2.1093  1.4783
  229SOL    HW2  687   2.657   0.313   3.051  3.4903  0.7383 -1.2252
  230SOL     OW  688   2.122   0.971   1.066  0.0650  0.0083  0.5498
  230SOL    HW1  689   2.186   1.043   1.092 -3.4971 -2.2969 -0.5374
  230SOL    HW2  690   2.050   0.958   1.142 -2.5084 -0.6886  1.1245
  231SOL     OW  691   1.571   1.355   2.924 -0.6119 -0.2222  0.3063
  231SOL    HW1  692   1.636   1.379   2.848  0.8941 -0.6098 -1.6817
  231SOL    HW2  693   1.625   1.328   3.009  1.9609 -3.7176  0.7910
  232SOL     OW  694   2.378   2.106   0.827 -0.2167  0.4657  0.0932
  232SOL    HW1  695   2.477   2.101   0.812 -0.7926 -1.3294 -0.1783
  232SOL    HW2  696   2.357   2.148   0.915 -0.5582 -1.9256  1.0546
  233SOL     OW  697   0.571   2.529   0.914  0.2710  0.6598 -0.1914
  233SOL    HW1  698   0.509   2.581   0.977  2.6317 -1.5094 -2.2762
  233SOL    HW2  699   0.648   2.592   0.877  2.1317  3.5449 -1.9989
  234SOL     OW  700   0.555   0.587   2.596  0.4560  0.2852 -0.4863
  234SOL    HW1  701   0.537   0.687   2.603  0.3492  0.6388  0.2138
  234SOL    HW2  702   0.595   0.547   2.685  1.5288 -0.2932 -0.0084
  235SOL     OW  703   2.868   0.834   2.241 -0.4585  0.1754 -0.0328
  235SOL    HW1  704   2.820   0.751   2.205 -0.1324  2.6724  1.6084
  235SOL    HW2  705   2.965   0.825   2.250 -2.7277 -1.2550 -0.3389
  236SOL     OW  706   1.483   2.881   1.460 -0.2776  0.1186 -0.1467
  236SOL    HW1  707   1.460   2.814   1.385 -1.0380  2.0968  1.3794
  236SOL    HW2  708   1.523   2.824   1.540  0.5920  1.0236  0.6457
  237SOL     OW  709   0.891   1.398   2.749 -0.8321 -0.2288 -0.4509
  237SOL    HW1  710   0.822   1.452   2.700  0.6467 -0.4875  1.1426
  237SOL    HW2  711   0.971   1.389   2.690  0.2931 -0.5274 -1.5591
  238SOL     OW  712   1.059   0.417   2.403  0.0994 -0.7747 -0.0732
  238SOL    HW1  713   1.103   0.502   2.438 -0.6814  0.8021  1.5328
  238SOL    HW2  714   0.957   0.415   2.428 -0.1844 -0.6928  0.6435
  239SOL     OW  715   0.066   2.282   2.097  0.4043  0.4813  0.2646
  239SOL    HW1  716   0.133   2.257   2.169 -0.0913 -0.0192 -2.2288
  239SOL    HW2  717   0.103   2.258   2.007  0.2398 -0.3480 -0.1431
  240SOL     OW  718   2.468   2.769   0.580 -0.1141 -0.3710  0.1322
  240SOL    HW1  719   2.452   2.672   0.561 -0.9386 -1.3292  1.9618
  240SOL    HW2  720   2.403   2.809   0.643  2.8712  1.0407 -2.9089
  241SOL     OW  721   2.804   1.257   0.502  0.3204 -0.2844  0.0153
  241SOL    HW1  722   2.730   1.330   0.517  0.6133 -0.2009 -1.7770
  241SOL    HW2  723   2.790   1.216   0.409 -0.8379  0.6214  0.8304
  242SOL     OW  724   1.825   2.468   1.797 -0.4128  0.3597 -0.0331
  242SOL    HW1  725   1.886   2.389   1.813 -1.5534  2.4141 -1.3122
  242SOL    HW2  726   1.862   2.544   1.747 -1.6538 -2.8986  0.5327
  243SOL     OW  727   0.350   2.639   2.205  0.2766 -0.2762 -0.2828
  243SOL    HW1  728   0.447   2.625   2.192 -1.2449  0.8785  1.1406
  243SOL    HW2  729   0.336   2.709   2.279  1.0437 -0.5882 -0.4910
  244SOL     OW  730   2.645   0.577   2.459 -0.2951 -0.3875 -1.0313
  244SOL    HW1  731   2.699   0.538   2.539  2.6359 -2.8661  4.0551
  244SOL    HW2  732   2.553   0.533   2.456  0.8216  0.7757  0.6649
  245SOL     OW  733   1.402   0.066   1.090  0.0512 -0.5298  0.3424
  245SOL    HW1  734   1.329   0.009   1.131  3.4909 -0.6852  1.0209
  245SOL    HW2  735   1.362   0.163   1.081 -0.2177  2.5924  0.5959
  246SOL     OW  736   1.693   2.690   0.240  0.4698  0.0630  0.4592
  246SOL    HW1  737   1.753   2.668   0.158  0.2983  0.7344 -4.3884
  246SOL    HW2  738   1.613   2.754   0.221 -1.1561  0.7094  0.0733
  247SOL     OW  739   1.306   0.686   2.050 -0.1891  0.2419  0.4945
  247SOL    HW1  740   1.352   0.602   2.086  0.9826  0.3386  0.0444
  247SOL    HW2  741   1.204   0.676   2.069 -2.6823 -0.8627 -0.8694
  248SOL     OW  742   3.082   2.304   1.778  0.1274  0.0550  0.2645
  248SOL    HW1  743   0.009   2.219   1.741 -1.3558  2.1337 -1.1599
  248SOL    HW2  744   2.997   2.291   1.828 -0.0695 -0.7859 -0.9661
  249SOL     OW  745   2.954   0.556   0.042  0.0818 -0.0464  0.4234
  249SOL    HW1  746   3.044   0.593   0.070  0.0391 -0.7997 -0.9668
  249SOL    HW2  747   2.945   0.462   0.079  0.2210  0.5382 -0.0252
  250SOL     OW  748   2.759   0.175   2.488  0.2783 -0.3914 -0.7391
  250SOL    HW1  749   2.789   0.227   2.404 -1.7108  1.1069  0.6019
  250SOL    HW2  750   2.819   0.093   2.494  1.1978  2.4425 -0.7163
  251SOL     OW  751   1.484   0.554   0.246 -0.2400 -0.0646  0.2198
  251SOL    HW1  752   1.491   0.471   0.302 -1.7812  4.7599 -0.4005
  251SOL    HW2  753   1.570   0.598   0.218 -0.8055 -1.9913 -0.2307
  252SOL     OW  754   1.443   2.273   2.000 -0.0519  0.0519  0.5420
  252SOL    HW1  755   1.342   2.275   2.027 -0.9227 -0.0456  1.4298
  252SOL    HW2  756   1.495   2.359   2.020  0.9012 -1.9201  0.2824
  253SOL     OW  757   2.269   2.466   1.150 -0.1635  0.4701  0.2693
  253SOL    HW1  758   2.308   2.531   1.081  0.0506  1.9333  2.8050
  253SOL    HW2  759   2.286   2.500   1.245  2.6156 -1.4670 -0.0527
  254SOL     OW  760   2.385   1.274   0.630  0.4376  0.1268  0.1602
  254SOL    HW1  761   2.402   1.201   0.563 -2.1471 -0.0250 -0.3385
  254SOL    HW2  762   2.370   1.236   0.724 -0.6471  2.7552 -1.7825
  255SOL     OW  763   0.931   2.812   1.211 -0.1678 -0.1628  0.0268
  255SOL    HW1  764   1.030   2.838   1.206  0.3473 -1.1455  1.7790
  255SOL    HW2  765   0.923   2.713   1.230  2.0979  2.2166 -1.7775
  256SOL     OW  766   1.882   2.260   1.474 -0.0593 -0.1313  1.1620
  256SOL    HW1  767   1.924   2.168   1.447 -1.5629 -1.0305 -2.4570
  256SOL    HW2  768   1.777   2.255   1.469 -1.4565 -0.0413  1.7827
  257SOL     OW  769   0.790   2.505   2.489  0.2735 -0.8887 -0.1468
  257SOL    HW1  770   0.802   2.587   2.556 -0.5905  1.2276 -0.3927
  257SOL    HW2  771   0.849   2.431   2.516 -0.6965  2.0078 -1.4694
  258SOL     OW  772   0.717   2.632   0.560  0.1705 -0.0338  0.4939
  258SOL    HW1  773   0.776   2.677   0.494 -2.1125 -2.2682  0.8862
  258SOL    HW2  774   0.742   2.653   0.657  1.2318  0.9217  0.7403
  259SOL     OW  775   1.497   0.479   2.925  0.1235 -0.6941  0.0617
  259SOL    HW1  776   1.541   0.389   2.912 -0.3767  0.1151  0.6679
  259SOL    HW2  777   1.449   0.480   3.012 -0.8851  0.9791  1.5662
  260SOL     OW  778   2.709   0.765   1.162  0.2659  0.1797  0.7532
  260SOL    HW1  779   2.748   0.861   1.169  1.8260  1.2348 -0.1131
  260SOL    HW2  780   2.734   0.703   1.235 -0.5670  1.4315  0.3506
  261SOL     OW  781   0.746   0.467   2.447 -0.5498 -0.3019 -0.2488
  261SOL    HW1  782   0.687   0.528   2.502 -1.8832  0.0426 -1.0346
  261SOL    HW2  783   0.748   0.370   2.485 -2.0735  0.5454  0.9785
  262SOL     OW  784   0.933   2.309   2.116  0.4093  0.1142 -0.1040
  262SOL    HW1  785   0.913   2.397   2.167  1.9914 -1.6564 -2.5988
  262SOL    HW2  786   0.920   2.323   2.015 -0.7113 -0.3701 -0.6832
  263SOL     OW  787   0.470   2.079   3.065  0.4477  0.0258 -0.4479
  263SOL    HW1  788   0.553   2.083   0.017  2.2416  1.9706 -1.1170
  263SOL    HW2  789   0.473   1.990   3.014 -0.4722  0.7329 -0.1159
  264SOL     OW  790   1.058   1.465   1.035 -0.3993  0.6328  0.2562
  264SOL    HW1  791   1.078   1.519   0.947  0.9914 -1.0341  4.1346
  264SOL    HW2  792   1.136   1.479   1.101  1.0777 -1.1074 -0.5208
  265SOL     OW  793   1.068   2.339   0.692  0.2507 -0.6521 -0.0105
  265SOL    HW1  794   1.134   2.261   0.694 -1.6280 -0.2115 -1.3974
  265SOL    HW2  795   1.111   2.427   0.662  0.7212 -0.3842  2.6712
  266SOL     OW  796   2.087   0.504   0.859  0.2210 -0.7077 -0.0996
  266SOL    HW1  797   2.065   0.432   0.930 -0.2975 -0.1783 -0.1744
  266SOL    HW2  798   2.142   0.578   0.902  1.2543  0.8297 -0.2386
  267SOL     OW  799   3.030   1.365   2.686 -0.1894 -0.2088 -0.5491
  267SOL    HW1  800   2.998   1.342   2.783 -4.0123  0.3113  1.0806
  267SOL    HW2  801   3.016   1.288   2.621 -0.3344  0.9729  1.1892
  268SOL     OW  802   1.497   3.068   0.226 -0.0966  0.2096 -0.1247
  268SOL    HW1  803   1.594   3.060   0.269  1.8808 -0.0082  1.5426
  268SOL    HW2  804   1.493   0.044   0.177 -0.5667 -0.4126 -0.6811
  269SOL     OW  805   0.004   0.862   2.646 -0.9906  0.2654 -0.0491
  269SOL    HW1  806   0.058   0.927   2.590  1.7183  1.0954  0.9158
  269SOL    HW2  807   0.038   0.772   2.625  1.8198  2.2898 -1.5013
  270SOL     OW  808   0.044   1.392   0.015 -1.0565  0.2636 -0.7422
  270SOL    HW1  809   0.009   1.396   0.107  1.3047  2.5945  0.4913
  270SOL    HW2  810   0.071   1.299   3.106 -1.1334  3.2092  1.5550
  271SOL     OW  811   2.610   1.474   2.602  0.7987 -0.2970 -0.0180
  271SOL    HW1  812   2.548   1.558   2.592 -2.8539  0.8874 -0.4808
  271SOL    HW2  813   2.575   1.392   2.551 -1.6174 -0.3812 -1.8801
  272SOL     OW  814   2.418   2.644   2.039 -0.5561  0.0254  0.3665
  272SOL    HW1  815   2.342   2.713   2.023  0.0068  1.6052 -1.1156
  272SOL    HW2  816   2.511   2.694   2.030  3.9434 -0.7179 -1.3634
  273SOL     OW  817   0.390   2.564   0.059  0.2713  0.1475  0.4124
  273SOL    HW1  818   0.427   2.495   0.128  0.6964 -0.7887  0.2642
  273SOL    HW2  819   0.292   2.552   0.043 -1.6123  0.8354  0.9863
  274SOL     OW  820   0.956   2.265   0.988 -0.2998  0.0136  0.6753
  274SOL    HW1  821   0.943   2.284   0.890 -2.1364  1.2986  1.9248
  274SOL    HW2  822   0.924   2.171   1.017  0.3825 -0.9741  1.2030
  275SOL     OW  823   2.252   1.568   0.133  0.0876 -0.1202  0.3009
  275SOL    HW1  824   2.160   1.614   0.140 -2.7656  0.4375  2.2784
  275SOL    HW2  825   2.295   1.585   0.039  2.6953 -1.5804 -1.0976
  276SOL     OW  826   2.508   1.563   1.228  0.0372 -0.1084 -0.0022
  276SOL    HW1  827   2.528   1.482   1.292  0.0039 -0.4224  0.4110
  276SOL    HW2  828   2.586   1.576   1.160  3.5402 -1.9000 -2.2081
  277SOL     OW  829   2.358   2.929   0.788 -0.1847  0.4901 -0.3348
  277SOL    HW1  830   2.265   2.917   0.828 -0.1475  1.1180 -0.9290
  277SOL    HW2  831   2.425   2.932   0.864 -1.0809 -0.5442 -0.9791
  278SOL     OW  832   1.687   0.189   2.499 -0.2740 -0.1813 -0.1243
  278SOL    HW1  833   1.681   0.253   2.577 -1.1793  2.1919  1.1717
  278SOL    HW2  834   1.651   0.103   2.528 -0.0817  2.8169 -0.2017
  279SOL     OW  835   1.430   2.592   1.328 -0.1251  0.9372 -0.0897
  279SOL    HW1  836   1.524   2.597   1.295 -0.2120 -0.5631  0.5858
  279SOL    HW2  837   1.369   2.645   1.274 -0.1026 -1.8583  0.6907
  280SOL     OW  838   1.240   1.114   0.510  0.3672  0.0992 -0.7683
  280SOL    HW1  839   1.298   1.048   0.557  1.9920  1.2644 -0.6098
  280SOL    HW2  840   1.292   1.200   0.480  0.0827  0.1269 -1.7341
  281SOL     OW  841   2.349   1.643   2.761 -0.1777  0.1105  0.8413
  281SOL    HW1  842   2.413   1.665   2.683  3.0334 -1.8058 -0.3758
  281SOL    HW2  843   2.281   1.719   2.758 -1.2982  0.7683 -0.8158
  282SOL     OW  844   2.937   1.282   2.947 -0.2372 -0.6739 -0.2579
  282SOL    HW1  845   2.976   1.192   2.913  0.3592 -0.3249 -2.6001
  282SOL    HW2  846   2.989   1.332   3.017  1.7943 -1.9089 -2.9620
  283SOL     OW  847   1.355   2.713   2.780 -0.6881  0.1346 -0.2201
  283SOL    HW1  848   1.343   2.618   2.743  0.7936 -1.4959  2.5973
  283SOL    HW2  849   1.403   2.706   2.873  0.6086 -0.8784  1.2976
  284SOL     OW  850   0.852   0.383   2.949 -0.5924  0.2098 -0.0637
  284SOL    HW1  851   0.783   0.451   2.909 -2.7658  1.0468  0.0869
  284SOL    HW2  852   0.871   0.405   3.050 -0.2562  1.9761 -1.6417
  285SOL     OW  853   2.030   1.931   2.540 -0.4762 -0.4033  0.1915
  285SOL    HW1  854   2.102   1.936   2.472  0.8913 -0.3754  3.5933
  285SOL    HW2  855   2.012   2.028   2.567  0.9269 -0.8647 -2.1204
  286SOL     OW  856   1.249   1.897   0.799 -0.5843 -0.0219  0.0624
  286SOL    HW1  857   1.146   1.878   0.783 -0.5649  0.4515 -2.7664
  286SOL    HW2  858   1.273   1.946   0.884 -0.6448  0.7501  0.8637
  287SOL     OW  859   1.655   0.320   1.360  0.2559  0.0035 -0.1444
  287SOL    HW1  860   1.591   0.274   1.424 -1.1972 -0.1208  1.0189
  287SOL    HW2  861   1.745   0.332   1.409 -0.7847 -2.9922  1.9563
  288SOL     OW  862   0.677   2.825   2.347 -0.0871 -0.1525  0.0334
  288SOL    HW1  863   0.775   2.825   2.369  0.4981  1.4167  0.4431
  288SOL    HW2  864   0.654   2.852   2.251  0.4715 -0.6592  0.3986
  289SOL     OW  865   0.126   1.242   0.781  0.0326 -0.5340  0.0706
  289SOL    HW1  866   0.132   1.269   0.878 -0.3929 -1.3657 -1.5967
  289SOL    HW2  867   0.187   1.162   0.767 -0.6315  2.6117  0.3805
  290SOL     OW  868   1.236   2.116   1.316  0.0130  0.5787  0.1245
  290SOL    HW1  869   1.308   2.145   1.250  0.0649 -1.6737  1.0003
  290SOL    HW2  870   1.191   2.032   1.272 -1.8257 -3.0780 -3.2409
  291SOL     OW  871   1.928   2.728   0.586  0.4385 -0.2790 -0.0981
  291SOL    HW1  872   1.921   2.819   0.632 -0.2861 -0.2818  0.7279
  291SOL    HW2  873   1.856   2.665   0.622 -1.4608 -0.8902  0.1934
  292SOL     OW  874   0.450   0.124   1.763 -0.0560 -0.2801  0.1405
  292SOL    HW1  875   0.379   0.051   1.763  2.1587  3.5592 -0.3219
  292SOL    HW2  876   0.544   0.092   1.742  0.8183  0.6436  1.4034
  293SOL     OW  877   2.231   1.742   0.734 -0.3834  0.0503  0.0272
  293SOL    HW1  878   2.335   1.749   0.751  0.4544 -1.7006  1.5251
  293SOL    HW2  879   2.212   1.751   0.634 -1.8278 -0.0468 -1.6433
  294SOL     OW  880   0.988   0.253   2.157 -0.2361 -0.1660  0.4368
  294SOL    HW1  881   1.024   0.244   2.249  1.2341  0.6996 -2.3688
  294SOL    HW2  882   0.920   0.180   2.135 -4.1592  2.3336  0.4392
  295SOL     OW  883   0.917   1.212   0.821  0.4190  0.1165 -0.1347
  295SOL    HW1  884   0.833   1.253   0.871 -2.6827  2.2276 -2.7552
  295SOL    HW2  885   0.962   1.142   0.880 -1.3688 -1.8172  1.6756
  296SOL     OW  886   2.143   1.920   0.914 -0.2519 -0.5549  0.2122
  296SOL    HW1  887   2.176   1.834   0.864  0.9438 -0.3274  0.0280
  296SOL    HW2  888   2.212   1.996   0.895  0.3762  0.7903 -0.1403
  297SOL     OW  889   2.029   0.252   2.818  0.2319 -0.1394 -0.3358
  297SOL    HW1  890   2.010   0.302   2.731 -1.6509 -0.5964 -0.5412
  297SOL    HW2  891   2.049   0.319   2.890  1.4055 -1.0813 -2.7762
  298SOL     OW  892   1.357   0.073   2.600  0.2400 -0.3915  0.0165
  298SOL    HW1  893   1.384   3.096   2.561 -1.5011  2.6557 -1.1118
  298SOL    HW2  894   1.350   0.067   2.702  1.2877  0.4460  3.1529
  299SOL     OW  895   1.255   0.000   2.192 -0.4643 -0.2936 -0.2008
  299SOL    HW1  896   1.250   0.084   2.254  1.0679  3.5836  0.6750
  299SOL    HW2  897   1.271   3.037   2.255  1.1012  0.0525  1.6944
  300SOL     OW  898   2.603   0.103   1.637 -0.8861  0.1862  0.1222
  300SOL    HW1  899   2.683   0.165   1.651 -1.2701  0.2052  0.6199
  300SOL    HW2  900   2.515   0.146   1.668  0.1493 -1.8074  0.7372
  301SOL     OW  901   2.383   0.293   1.782  0.1154 -0.0058  0.1224
  301SOL    HW1  902   2.390   0.336   1.874 -0.8643 -0.2580 -0.5588
  301SOL    HW2  903   2.400   0.361   1.705 -0.0722  1.8353 -0.2867
  302SOL     OW  904   0.787   2.517   3.099  0.2647 -0.4715 -0.0789
  302SOL    HW1  905   0.879   2.522   3.053  0.0108 -1.3911 -0.0079
  302SOL    HW2  906   0.721   2.465   3.043 -0.6389 -0.0785  2.3454
  303SOL     OW  907   1.666   1.952   1.504  0.3061  0.0271  0.0273
  303SOL    HW1  908   1.569   1.980   1.514  1.6111  0.1064 -0.8489
  303SOL    HW2  909   1.701   1.969   1.407 -1.2541  0.4698 -2.5111
  304SOL     OW  910   0.717   0.664   0.856 -0.9466 -0.4863  0.5204
  304SOL    HW1  911   0.742   0.614   0.947 -1.3264  0.0792  3.6735
  304SOL    HW2  912   0.629   0.630   0.815 -2.2040 -0.2914 -0.8576
  305SOL     OW  913   1.134   0.745   0.744 -0.5427  0.7762  0.5297
  305SOL    HW1  914   1.143   0.783   0.835 -0.7206 -0.2124 -1.1830
  305SOL    HW2  915   1.209   0.677   0.729  2.4078 -0.9711 -1.1097
  306SOL     OW  916   0.586   1.068   2.815  0.5871  0.3571 -0.1158
  306SOL    HW1  917   0.676   1.052   2.762  2.7230  0.6803 -1.4974
  306SOL    HW2  918   0.603   1.102   2.910  0.6033 -1.9462  0.7975
  307SOL     OW  919   1.068   0.205   1.767  0.2689 -0.0183 -0.2953
  307SOL    HW1  920   1.160   0.253   1.768 -1.3288  1.7960 -0.7474
  307SOL    HW2  921   0.998   0.243   1.834 -2.7321  1.9401  3.0192
  308SOL     OW  922   0.961   0.531   0.740  0.3970 -0.3995  0.3134
  308SOL    HW1  923   0.873   0.563   0.786 -2.8852 -2.1513  2.2419
  308SOL    HW2  924   1.035   0.602   0.749  0.2695  1.2671 -0.5574
  309SOL     OW  925   2.587   0.752   0.495  0.7138  0.0703  0.1747
  309SOL    HW1  926   2.511   0.769   0.563  0.6140  0.8584  2.3436
  309SOL    HW2  927   2.671   0.767   0.548 -0.0389  1.0049  0.6949
  310SOL     OW  928   1.196   1.489   2.978 -0.1413  0.0911  0.3870
  310SOL    HW1  929   1.278   1.552   2.971  1.4351  0.5549 -2.8477
  310SOL    HW2  930   1.228   1.397   3.009 -1.4033  0.8207  0.6015
  311SOL     OW  931   2.020   2.517   2.202  0.2951  0.6511  0.3515
  311SOL    HW1  932   2.001   2.561   2.111 -2.9461  0.0256 -1.5367
  311SOL    HW2  933   2.002   2.580   2.277  1.6822  0.8278 -3.3793
  312SOL     OW  934   2.225   2.476   3.015  0.1007 -0.2124  0.0321
  312SOL    HW1  935   2.208   2.376   3.045 -1.9500 -0.6823 -1.3119
  312SOL    HW2  936   2.145   2.525   2.988  1.4554  2.5620  1.4890
  313SOL     OW  937   0.482   0.324   0.056  0.0234 -0.3471 -0.7697
  313SOL    HW1  938   0.529   0.400   0.109  2.2720  0.8172 -1.8711
  313SOL    HW2  939   0.457   0.357   3.072 -0.4596  2.1478 -2.4762
  314SOL     OW  940   2.385   1.598   3.016 -0.6452  0.2512  0.1584
  314SOL    HW1  941   2.478   1.580   3.059 -0.9278 -1.2894  0.1961
  314SOL    HW2  942   2.385   1.621   2.917  1.4686  1.3680  1.3426
  315SOL     OW  943   1.688   0.339   2.267 -0.0248  0.1512  0.3771
  315SOL    HW1  944   1.687   0.279   2.351  0.7549 -2.1992 -0.4413
  315SOL    HW2  945   1.728   0.433   2.286 -2.9785  1.5473  0.8326
  316SOL     OW  946   0.092   0.910   0.719  0.4335 -0.1456  0.7886
  316SOL    HW1  947   0.046   0.942   0.806  1.5303  0.4794  2.8545
  316SOL    HW2  948   0.031   0.923   0.636 -0.4125 -1.0276 -1.6956
  317SOL     OW  949   0.809   2.769   0.134  0.0318  0.2706 -0.2369
  317SOL    HW1  950   0.707   2.789   0.132 -2.6631  0.2424 -1.4721
  317SOL    HW2  951   0.815   2.670   0.118  2.5366  1.0419 -0.4779
  318SOL     OW  952   1.860   2.691   1.616 -0.4915 -0.5106  1.0520
  318SOL    HW1  953   1.920   2.772   1.638 -0.8032  1.8070 -1.6657
  318SOL    HW2  954   1.906   2.619   1.557  1.2769  0.5318  0.0568
  319SOL     OW  955   1.332   1.843   3.076 -0.3059 -0.4817 -0.1040
  319SOL    HW1  956   1.361   1.838   0.061 -0.5108  1.2077 -0.9078
  319SOL    HW2  957   1.374   1.760   3.027 -0.4415  0.2402 -0.1235
  320SOL     OW  958   0.422   1.905   0.907 -0.2548 -0.2758 -0.8531
  320SOL    HW1  959   0.361   1.922   0.825  0.0064 -0.8944 -2.4350
  320SOL    HW2  960   0.413   1.807   0.944  1.7467 -2.2314 -0.3924
  321SOL     OW  961   2.030   2.672   1.977  0.5489  0.0436  0.2416
  321SOL    HW1  962   2.113   2.726   1.959 -1.3641 -1.5771  1.1610
  321SOL    HW2  963   1.946   2.726   2.003  0.6680 -1.0481 -0.2412
  322SOL     OW  964   2.217   1.903   2.331 -0.1092 -0.3696 -0.2400
  322SOL    HW1  965   2.200   1.986   2.273 -2.2100 -0.2925 -0.4634
  322SOL    HW2  966   2.268   1.827   2.287 -0.3014 -0.9208 -0.8503
  323SOL     OW  967   2.561   3.075   0.680 -0.3535  0.5603 -0.2203
  323SOL    HW1  968   2.477   3.035   0.714  1.1267  2.4134  0.2222
  323SOL    HW2  969   2.542   0.011   0.593  0.8366 -1.5992 -1.8128
  324SOL     OW  970   2.721   2.659   2.331 -0.6251  0.0407  0.0470
  324SOL    HW1  971   2.823   2.669   2.329  1.2153 -0.5733 -0.3161
  324SOL    HW2  972   2.681   2.682   2.242  3.1573  2.7965  1.9779
  325SOL     OW  973   1.121   0.622   2.772 -0.0765 -0.0646  0.2068
  325SOL    HW1  974   1.193   0.662   2.832  1.4068 -0.1216  0.5989
  325SOL    HW2  975   1.112   0.525   2.802  0.1400  0.8740 -2.7868
  326SOL     OW  976   2.574   2.378   1.074 -0.0748  0.2739 -0.1811
  326SOL    HW1  977   2.504   2.305   1.057  0.4537  0.4162  0.3348
  326SOL    HW2  978   2.547   2.469   1.043  2.8136 -0.3014 -5.4161
  327SOL     OW  979   2.549   2.882   0.099  0.3008 -0.4782 -0.3007
  327SOL    HW1  980   2.533   2.920   0.192  0.7863  0.1983 -0.0411
  327SOL    HW2  981   2.466   2.838   0.061 -1.1707  2.0913 -1.8767
  328SOL     OW  982   0.496   0.721   1.155  0.2818  0.2989  0.7600
  328SOL    HW1  983   0.478   0.642   1.090 -1.4871  0.1533 -0.5199
  328SOL    HW2  984   0.499   0.683   1.250 -0.1054  1.3601  1.0318
  329SOL     OW  985   1.887   0.401   1.481 -0.3618  0.3027  1.1412
  329SOL    HW1  986   1.942   0.351   1.550  0.1313 -2.2668 -0.8814
  329SOL    HW2  987   1.883   0.498   1.503 -1.1720  0.9158  1.6919
  330SOL     OW  988   0.661   0.380   0.561  0.2331  0.2276 -0.0856
  330SOL    HW1  989   0.695   0.474   0.538 -2.4700  1.7386  0.7168
  330SOL    HW2  990   0.737   0.325   0.603  0.2120  0.4814  1.7284
  331SOL     OW  991   0.853   1.970   1.933  0.0692 -0.1453 -0.2623
  331SOL    HW1  992   0.823   1.902   1.866 -1.4580 -0.6606  1.1399
  331SOL    HW2  993   0.840   2.061   1.889  0.4879  0.7094  0.2916
  332SOL     OW  994   2.545   2.461   1.697  0.4546  0.1863 -0.4333
  332SOL    HW1  995   2.638   2.476   1.652  1.2046 -1.1533  0.9336
  332SOL    HW2  996   2.563   2.432   1.797  0.3089 -1.0781 -1.1137
  333SOL     OW  997   2.970   3.042   0.910  0.0494  0.1357  0.0314
  333SOL    HW1  998   2.984   0.032   0.897  0.2247 -1.3228 -0.5745
  333SOL    HW2  999   2.945   2.996   0.821  0.6080 -1.0037 -0.8320
  334SOL     OW 1000   3.066   1.280   0.491  0.0877  0.1168 -0.0774
  334SOL    HW1 1001   2.962   1.276   0.495  0.3614  1.4623  2.0891
  334SOL    HW2 1002   0.004   1.233   0.569  2.5974 -0.4543  0.9670
  335SOL     OW 1003   0.692   2.631   2.721  0.1272 -0.2178 -0.0419
  335SOL    HW1 1004   0.786   2.672   2.724 -1.2346 -1.4880  2.4963
  335SOL    HW2 1005   0.623   2.693   2.675  0.9680 -0.5358 -2.6653
  336SOL     OW 1006   2.900   2.975   2.065 -0.3315 -0.7850 -0.4596
  336SOL    HW1 1007   2.825   3.025   2.112 -1.1751  1.6637  2.7303
  336SOL    HW2 1008   2.990   2.979   2.116 -0.0180  1.9873  0.6693
  337SOL     OW 1009   1.331   2.017   1.741  0.1448 -0.0335 -0.4612
  337SOL    HW1 1010   1.249   2.040   1.793  3.7505  1.2620  0.7754
  337SOL    HW2 1011   1.417   2.039   1.790  0.6877  0.1457  1.4543
  338SOL     OW 1012   1.038   0.098   2.629  0.3186  0.0647  0.3615
  338SOL    HW1 1013   0.979   0.062   2.557  2.0815 -2.3237 -0.4502
  338SOL    HW2 1014   1.123   0.047   2.642  0.1553 -0.1619  1.0905
  339SOL     OW 1015   0.536   1.108   2.364  0.1889 -0.2408 -0.4665
  339SOL    HW1 1016   0.523   1.139   2.270 -2.0399  0.2336  0.9389
  339SOL    HW2 1017   0.592   1.027   2.378 -0.7720  0.8633  1.6437
  340SOL     OW 1018   2.124   0.329   1.086  0.1643 -0.4802  0.3681
  340SOL    HW1 1019   2.178   0.281   1.014 -0.9599 -3.4082 -1.2732
  340SOL    HW2 1020   2.167   0.334   1.176  2.1815 -0.8422  0.6593
  341SOL     OW 1021   2.268   1.225   0.885 -0.5246  0.0668  0.0714
  341SOL    HW1 1022   2.174   1.252   0.850 -1.8322  0.5562 -1.3069
  341SOL    HW2 1023   2.267   1.218   0.988 -0.3097 -1.6730 -0.1416
  342SOL     OW 1024   2.015   2.628   2.882  0.1777 -0.0692 -0.0672
  342SOL    HW1 1025   1.939   2.565   2.880  0.4784 -0.0754 -1.6381
  342SOL    HW2 1026   1.988   2.723   2.906  0.4085 -0.4751  2.3210
  343SOL     OW 1027   3.094   2.592   1.383  0.0275  0.2934 -0.0179
  343SOL    HW1 1028   3.017   2.521   1.380  0.9589 -1.6417 -0.0722
  343SOL    HW2 1029   0.077   2.551   1.391  0.7211  1.4028 -1.2005
  344SOL     OW 1030   2.359   2.589   1.365 -0.3632 -0.1953 -0.0745
  344SOL    HW1 1031   2.452   2.589   1.323 -1.7942  1.6191 -2.1568
  344SOL    HW2 1032   2.359   2.566   1.463  0.9494  0.3291 -0.2499
  345SOL     OW 1033   2.468   2.235   0.143  0.1318 -0.2309 -0.2209
  345SOL    HW1 1034   2.516   2.198   0.060 -1.3188  0.1895 -0.3881
  345SOL    HW2 1035   2.487   2.334   0.163  1.0204  0.8084 -0.1241
  346SOL     OW 1036   1.609   2.291   1.425 -0.4132  0.0369  0.2800
  346SOL    HW1 1037   1.548   2.210   1.429 -0.9374 -2.7405  2.3566
  346SOL    HW2 1038   1.586   2.353   1.500 -3.1628  1.4946  0.8511
  347SOL     OW 1039   1.040   1.871   1.429  0.1563 -0.8791 -0.0780
  347SOL    HW1 1040   1.123   1.871   1.489  0.5426  0.1101 -0.9802
  347SOL    HW2 1041   1.041   1.807   1.348  1.0566  0.3298 -0.0210
  348SOL     OW 1042   0.180   2.100   1.933  0.3154 -0.0064 -0.4692
  348SOL    HW1 1043   0.177   2.078   1.832 -2.0435  2.8231 -0.7296
  348SOL    HW2 1044   0.264   2.062   1.980 -0.3006 -1.4529 -0.1793
  349SOL     OW 1045   1.658   1.686   1.530  0.1966  0.1455 -0.4362
  349SOL    HW1 1046   1.644   1.652   1.629 -1.7591 -0.5084 -0.7074
  349SOL    HW2 1047   1.675   1.787   1.516 -1.2375 -1.2301  0.6266
  350SOL     OW 1048   2.134   2.303   0.427  0.2623  0.3745  0.1446
  350SOL    HW1 1049   2.049   2.304   0.372  1.9071 -1.5586  0.7335
  350SOL    HW2 1050   2.189   2.380   0.402  0.3961 -1.5421 -0.0244
  351SOL     OW 1051   0.784   2.944   1.711 -0.4696 -0.2539 -0.2140
  351SOL    HW1 1052   0.752   3.034   1.749 -0.3544  2.0780  1.0771
  351SOL    HW2 1053   0.818   2.951   1.612 -0.8021  0.3173 -2.0681
  352SOL     OW 1054   0.775   0.919   0.778  0.7062  0.6338  0.0162
  352SOL    HW1 1055   0.763   0.819   0.798  0.2429 -0.9378 -2.2466
  352SOL    HW2 1056   0.817   0.929   0.687 -3.0229  0.8508 -0.4172
  353SOL     OW 1057   1.332   1.944   2.585  0.3881  0.1650 -0.2373
  353SOL    HW1 1058   1.262   2.017   2.571  0.5649 -0.5699  0.4345
  353SOL    HW2 1059   1.310   1.854   2.541  0.3379  1.3375 -1.2109
  354SOL     OW 1060   1.815   2.843   2.017  0.1263  0.0172  0.1045
  354SOL    HW1 1061   1.812   2.870   2.116  1.3717 -1.9249 -3.7786
  354SOL    HW2 1062   1.729   2.859   1.970  4.7279 -0.0859  0.3723
  355SOL     OW 1063   2.057   1.090   0.243 -0.8303 -0.0184 -0.3294
  355SOL    HW1 1064   2.094   1.180   0.270  1.2085  0.6953  1.7460
  355SOL    HW2 1065   2.034   1.097   0.143 -1.6705  1.2729  0.4131
  356SOL     OW 1066   2.834   1.769   1.359 -0.4770  0.1950 -0.4864
  356SOL    HW1 1067   2.865   1.799   1.265 -1.3366  0.3885 -2.7053
  356SOL    HW2 1068   2.820   1.845   1.427  0.5148  2.5135 -0.1165
  357SOL     OW 1069   0.214   2.842   1.168 -1.0761 -0.0190  0.4555
  357SOL    HW1 1070   0.239   2.864   1.264  1.0297  2.0911 -0.7310
  357SOL    HW2 1071   0.126   2.791   1.156 -0.2364 -1.2630 -0.8177
  358SOL     OW 1072   2.530   1.791   1.379 -0.0860 -0.0333  0.1051
  358SOL    HW1 1073   2.633   1.808   1.364  3.3984 -2.3741 -3.5506
  358SOL    HW2 1074   2.502   1.705   1.330  1.4225 -0.4800  0.7579
  359SOL     OW 1075   2.107   3.053   2.569  0.3450 -0.0596  0.4585
  359SOL    HW1 1076   2.138   3.102   2.654 -0.3992  0.8832 -0.9463
  359SOL    HW2 1077   2.167   3.069   2.490  0.0470 -0.9436  0.7784
  360SOL     OW 1078   1.154   2.973   0.762 -0.0094  1.0326  0.2968
  360SOL    HW1 1079   1.252   2.956   0.744  1.6492  1.3184  0.9827
  360SOL    HW2 1080   1.104   2.887   0.790 -3.4231 -3.0191 -0.3034
  361SOL     OW 1081   2.119   0.153   0.391  0.0653  0.2418  0.3761
  361SOL    HW1 1082   2.139   0.125   0.295  1.4044  0.3967  0.6479
  361SOL    HW2 1083   2.198   0.210   0.419 -0.9753 -1.1891 -0.7790
  362SOL     OW 1084   1.570   0.859   0.863  0.4657 -0.0300 -0.0619
  362SOL    HW1 1085   1.643   0.791   0.868 -0.1439  2.5383  1.9098
  362SOL    HW2 1086   1.603   0.943   0.908 -2.3728 -0.0836  0.4542
  363SOL     OW 1087   2.358   1.295   2.481  0.5870  0.5602 -0.1942
  363SOL    HW1 1088   2.322   1.345   2.562  0.2327 -1.2364 -1.8537
  363SOL    HW2 1089   2.310   1.205   2.465  0.8984 -0.8011 -3.2432
  364SOL     OW 1090   0.145   0.680   1.130  0.4696 -0.3116 -0.0748
  364SOL    HW1 1091   0.188   0.633   1.055 -3.8056 -0.3765  4.6976
  364SOL    HW2 1092   0.197   0.765   1.159  2.3605  3.7585  0.6228
  365SOL     OW 1093   0.721   0.224   2.559 -0.3655 -0.3370  0.1880
  365SOL    HW1 1094   0.636   0.177   2.580  1.5550 -0.1464 -0.6749
  365SOL    HW2 1095   0.785   0.166   2.506  0.3927  2.6908  1.0311
  366SOL     OW 1096   2.373   2.075   2.529 -0.1931 -0.2037 -0.1714
  366SOL    HW1 1097   2.340   2.020   2.453 -0.7842 -1.0249 -0.3237
  366SOL    HW2 1098   2.367   2.174   2.499 -0.2280  2.1953  2.0626
  367SOL     OW 1099   2.831   2.519   3.013  0.2275  0.0885 -0.3759
  367SOL    HW1 1100   2.798   2.576   3.092 -0.0539 -2.2751 -2.4493
  367SOL    HW2 1101   2.850   2.575   2.932 -1.3374  0.8668  0.7680
  368SOL     OW 1102   2.602   1.214   1.156 -0.4280 -0.1831  0.2579
  368SOL    HW1 1103   2.603   1.291   1.225 -0.2052 -1.4780 -1.2553
  368SOL    HW2 1104   2.601   1.248   1.059 -1.2610  0.6749 -2.2131
  369SOL     OW 1105   0.931   2.858   2.449 -0.3190 -0.2433 -0.0920
  369SOL    HW1 1106   1.024   2.880   2.414 -1.0400 -1.9820 -0.9630
  369SOL    HW2 1107   0.929   2.807   2.536  0.7001  0.7505 -0.0966
  370SOL     OW 1108   2.815   0.291   0.451  0.2100 -0.5445 -0.2820
  370SOL    HW1 1109   2.899   0.342   0.426 -0.8434  0.7734 -0.5045
  370SOL    HW2 1110   2.744   0.300   0.378  0.9950 -2.6186  1.0452
  371SOL     OW 1111   1.417   2.232   1.129  0.5116 -0.4193 -0.0290
  371SOL    HW1 1112   1.500   2.289   1.152  1.1236  0.6269  0.1547
  371SOL    HW2 1113   1.338   2.299   1.108 -1.8175  1.0508  0.3239
  372SOL     OW 1114   0.121   0.625   2.840 -0.4089 -0.0754  0.5592
  372SOL    HW1 1115   0.034   0.572   2.844  2.9144 -1.8441  1.5245
  372SOL    HW2 1116   0.174   0.590   2.759  1.4575 -3.5854 -0.4103
  373SOL     OW 1117   2.495   1.807   0.774 -0.0061  0.0556  0.3018
  373SOL    HW1 1118   2.484   1.841   0.680  0.2138 -3.7519 -0.5950
  373SOL    HW2 1119   2.536   1.876   0.837 -0.5178  1.8685  0.1752
  374SOL     OW 1120   0.520   2.821   2.577  0.7774  1.1162 -0.2142
  374SOL    HW1 1121   0.543   2.886   2.654  1.1030  1.6981  1.4617
  374SOL    HW2 1122   0.585   2.827   2.500  0.9557  0.2728  1.2708
  375SOL     OW 1123   0.475   0.075   2.633 -0.8959  0.2417 -0.0310
  375SOL    HW1 1124   0.421   0.044   2.555  0.1298 -1.8203 -0.0037
  375SOL    HW2 1125   0.533   0.001   2.671 -1.3098 -0.6138 -2.5549
  376SOL     OW 1126   2.826   2.226   1.834  0.1224 -0.2842 -0.0655
  376SOL    HW1 1127   2.848   2.128   1.844 -0.5406  0.2351  0.2614
  376SOL    HW2 1128   2.788   2.262   1.919  2.3100  0.2374 -0.0203
  377SOL     OW 1129   1.826   2.409   2.888  0.0138 -0.0449  0.8071
  377SOL    HW1 1130   1.785   2.393   2.794 -1.0114  1.8463  0.0986
  377SOL    HW2 1131   1.749   2.432   2.949 -1.9920  0.4449  0.7048
  378SOL     OW 1132   0.204   0.365   2.396  0.3184 -0.1043  0.0295
  378SOL    HW1 1133   0.261   0.304   2.338  0.9848 -0.5110  0.3666
  378SOL    HW2 1134   0.143   0.309   2.463  1.9127 -2.8189 -0.4949
  379SOL     OW 1135   0.480   0.811   0.481  0.6680  0.4319 -0.2174
  379SOL    HW1 1136   0.416   0.755   0.543  1.3230  0.2411 -0.4415
  379SOL    HW2 1137   0.511   0.904   0.515 -0.6476  0.0928  1.7371
  380SOL     OW 1138   0.356   1.613   1.749 -0.4945 -0.0327  0.2566
  380SOL    HW1 1139   0.441   1.628   1.694 -1.6644 -0.0275 -0.8408
  380SOL    HW2 1140   0.363   1.635   1.850  1.2310  1.0763 -0.0450
  381SOL     OW 1141   0.637   1.017   1.919 -0.2975 -0.1868 -0.0364
  381SOL    HW1 1142   0.558   1.085   1.908  3.2387  1.9565 -1.5999
  381SOL    HW2 1143   0.634   0.933   1.861  0.8356 -2.2074 -2.0554
  382SOL     OW 1144   2.521   2.084   0.374 -0.1475  0.3655  0.0546
  382SOL    HW1 1145   2.510   2.142   0.292 -0.0673 -3.2204  0.9599
  382SOL    HW2 1146   2.469   2.113   0.457 -0.8616 -0.7129 -0.4767
  383SOL     OW 1147   0.317   1.826   3.048  0.1291 -0.7346  0.0300
  383SOL    HW1 1148   0.282   1.766   0.014 -2.9635 -0.3080 -1.8843
  383SOL    HW2 1149   0.418   1.824   3.041  1.6397  0.5935 -0.0279
  384SOL     OW 1150   0.772   2.010   2.987 -0.2256 -0.4680 -0.2382
  384SOL    HW1 1151   0.738   2.060   3.069  1.1481  1.1092  1.5962
  384SOL    HW2 1152   0.700   1.990   2.920 -0.1901  1.0532  1.8198
  385SOL     OW 1153   2.350   2.167   0.562  0.1817 -0.2778  0.6392
  385SOL    HW1 1154   2.337   2.142   0.660  1.2395 -3.1082  0.5316
  385SOL    HW2 1155   2.268   2.215   0.526 -0.4516 -0.7140  1.1614
  386SOL     OW 1156   2.292   0.753   1.752  0.7495 -0.2761  0.8236
  386SOL    HW1 1157   2.377   0.776   1.703 -1.3978  0.6559 -1.6988
  386SOL    HW2 1158   2.254   0.836   1.791  0.1668 -1.7426 -1.2022
  387SOL     OW 1159   2.664   1.581   2.241 -0.3006 -0.1623 -0.2358
  387SOL    HW1 1160   2.746   1.527   2.268  0.4644  2.0620 -2.3757
  387SOL    HW2 1161   2.699   1.677   2.268  2.4758  1.3675 -0.6486
  388SOL     OW 1162   0.372   1.715   1.995  0.1456  0.9420 -0.3616
  388SOL    HW1 1163   0.408   1.680   2.087 -1.8842 -0.4058  2.9878
  388SOL    HW2 1164   0.382   1.815   1.983  0.6649 -0.7716 -0.3901
  389SOL     OW 1165   1.228   1.096   1.838  0.3404  0.3078 -0.1962
  389SOL    HW1 1166   1.133   1.072   1.804 -2.4567  0.9646  1.1875
  389SOL    HW2 1167   1.230   1.087   1.943 -2.5016  0.9096 -0.0926
  390SOL     OW 1168   1.981   0.001   0.943  0.8207 -0.3406  0.0517
  390SOL    HW1 1169   2.015   0.010   1.038 -1.4224 -1.1904 -1.3476
  390SOL    HW2 1170   1.911   0.074   0.939 -4.2828  0.6013  0.7222
  391SOL     OW 1171   1.897   1.742   1.286 -0.0705 -0.4035 -0.8442
  391SOL    HW1 1172   1.920   1.661   1.228 -1.3171 -0.5793 -2.0344
  391SOL    HW2 1173   1.926   1.722   1.379  0.9292 -0.9933 -0.7064
  392SOL     OW 1174   2.846   2.806   0.334 -0.1205  0.3408 -0.3090
  392SOL    HW1 1175   2.855   2.767   0.427  1.0242  1.9423  2.2551
  392SOL    HW2 1176   2.759   2.862   0.324  1.7175  0.7118 -1.7290
  393SOL     OW 1177   2.012   2.186   2.645  0.2385  0.0192 -0.6583
  393SOL    HW1 1178   2.028   2.164   2.745  0.7810 -0.2691 -0.8699
  393SOL    HW2 1179   2.068   2.268   2.615  1.2371  0.7690  1.2888
  394SOL     OW 1180   0.101   2.600   2.598 -0.4617  0.1590  0.2690
  394SOL    HW1 1181   0.102   2.626   2.692 -0.6751 -1.1851 -3.0847
  394SOL    HW2 1182   0.015   2.551   2.578  1.9943  0.2464  2.7556
  395SOL     OW 1183   0.395   0.102   0.714 -0.0127  0.1759 -0.2022
  395SOL    HW1 1184   0.369   0.026   0.655 -1.5509 -3.0448  1.3274
  395SOL    HW2 1185   0.348   0.191   0.699 -0.0466  0.6345  0.1409
  396SOL     OW 1186   2.141   0.790   0.614  0.3239  0.0862  0.3993
  396SOL    HW1 1187   2.085   0.707   0.630  0.5947  0.6432  0.5528
  396SOL    HW2 1188   2.134   0.816   0.512 -2.4120  1.5071 -0.8215
  397SOL     OW 1189   0.611   0.573   2.222 -0.4929 -0.0826  0.0495
  397SOL    HW1 1190   0.685   0.554   2.294 -0.7989  1.4100  1.1158
  397SOL    HW2 1191   0.528   0.610   2.267  0.9550  0.9862  1.9196
  398SOL     OW 1192   1.055   3.028   0.463  0.2000  0.1210 -0.7811
  398SOL    HW1 1193   1.034   0.017   0.482 -0.3997  0.7768  0.5379
  398SOL    HW2 1194   1.049   2.973   0.547 -0.7627 -4.1774 -0.1533
  399SOL     OW 1195   2.298   2.848   1.624 -0.0812  0.1093 -0.1936
  399SOL    HW1 1196   2.307   2.747   1.623  1.3730  1.6851 -0.2828
  399SOL    HW2 1197   2.383   2.900   1.610 -2.2451  0.9576  1.1215
  400SOL     OW 1198   0.965   1.921   2.397 -0.0176  0.0997 -0.5248
  400SOL    HW1 1199   0.916   1.976   2.325 -0.3065  0.0719  0.6799
  400SOL    HW2 1200   0.911   1.937   2.482 -1.6991  1.4351 -2.4911
  401SOL     OW 1201   0.907   1.084   2.440 -0.4541 -0.2111  0.1938
  401SOL    HW1 1202   0.836   1.029   2.394  1.0545  1.0245  0.1363
  401SOL    HW2 1203   0.888   1.182   2.443  0.9979 -1.9055  0.4627
  402SOL     OW 1204   0.018   2.018   0.801 -0.6442  0.3589  0.0450
  402SOL    HW1 1205   3.104   2.048   0.706  0.1147  0.3553  0.0836
  402SOL    HW2 1206   3.063   1.950   0.840 -0.9211 -2.8527  0.5240
  403SOL     OW 1207   0.124   1.042   2.178 -0.2459 -0.2209 -0.3110
  403SOL    HW1 1208   0.171   0.994   2.101 -0.7655 -1.3071  1.0495
  403SOL    HW2 1209   0.114   1.142   2.149  0.6464  4.0199 -3.5497
  404SOL     OW 1210   3.007   2.678   2.324  0.4175 -0.6108  0.0279
  404SOL    HW1 1211   3.028   2.604   2.386 -2.1523 -1.5168 -1.1490
  404SOL    HW2 1212   3.055   2.668   2.235  0.5854  2.5855  2.2911
  405SOL     OW 1213   0.127   0.317   1.590 -0.3586  0.0346  0.0982
  405SOL    HW1 1214   0.223   0.353   1.587  1.1078  0.2611  1.3837
  405SOL    HW2 1215   0.105   0.285   1.686  2.8482 -0.7152 -0.4184
  406SOL     OW 1216   1.533   1.552   2.628 -0.0998  0.0487  0.2467
  406SOL    HW1 1217   1.571   1.613   2.697 -1.1266 -3.0599  1.2037
  406SOL    HW2 1218   1.523   1.589   2.529 -1.9877  0.8325 -2.6363
  407SOL     OW 1219   1.637   0.834   2.665 -0.0060 -0.6796  0.1730
  407SOL    HW1 1220   1.723   0.860   2.611  0.0970  0.5721 -1.4023
  407SOL    HW2 1221   1.549   0.854   2.620  4.0920  0.3356  1.7991
  408SOL     OW 1222   0.851   0.017   2.413 -0.2899  0.4961 -0.4063
  408SOL    HW1 1223   0.862   3.029   2.438  0.3579  2.5663 -1.6828
  408SOL    HW2 1224   0.847   0.024   2.314  0.7617  2.1232  2.4716
  409SOL     OW 1225   0.132   2.191   1.027 -0.2846 -0.1666 -0.7165
  409SOL    HW1 1226   0.111   2.141   0.940  0.5209  0.8188  1.9224
  409SOL    HW2 1227   0.197   2.141   1.087  1.6639  0.4146 -1.1595
  410SOL     OW 1228   2.496   1.436   0.201  0.5939 -0.3586 -0.3458
  410SOL    HW1 1229   2.407   1.473   0.168  1.0416  3.2197  0.6856
  410SOL    HW2 1230   2.569   1.451   0.130 -2.3696 -3.6106  0.7374
  411SOL     OW 1231   0.122   0.070   1.026  0.0810 -0.5022 -0.1137
  411SOL    HW1 1232   0.072   3.106   1.073  2.4234  2.2157 -0.2668
  411SOL    HW2 1233   0.218   0.044   1.014  3.2759  0.9928 -0.5609
  412SOL     OW 1234   1.850   0.674   1.548 -0.1250 -0.2705 -0.5866
  412SOL    HW1 1235   1.950   0.678   1.528 -0.2056 -0.1093 -0.6396
  412SOL    HW2 1236   1.803   0.752   1.495  2.0723  1.3466 -0.8779
  413SOL     OW 1237   0.846   0.272   1.929  0.0249 -0.0282 -0.2267
  413SOL    HW1 1238   0.900   0.277   2.017  1.0591 -2.4049 -0.1660
  413SOL    HW2 1239   0.848   0.365   1.882  0.3890  2.0677 -0.2066
  414SOL     OW 1240   2.881   1.586   2.591  0.5329  0.0356 -0.1597
  414SOL    HW1 1241   2.946   1.511   2.618 -0.0479  0.6926 -0.3192
  414SOL    HW2 1242   2.780   1.554   2.595  0.4271  0.8393  1.8966
  415SOL     OW 1243   0.821   2.344   0.208  0.1032  1.0618  0.0273
  415SOL    HW1 1244   0.921   2.320   0.223 -1.8085  0.1110  1.2346
  415SOL    HW2 1245   0.810   2.400   0.124 -1.1172  0.6883 -0.6365
  416SOL     OW 1246   1.786   0.126   2.892 -0.1398 -0.1979  0.0892
  416SOL    HW1 1247   1.800   0.089   2.987 -1.0295  1.1510 -3.3367
  416SOL    HW2 1248   1.880   0.155   2.855  2.3417  1.0674  0.2360
  417SOL     OW 1249   0.253   0.329   0.666 -0.0062 -0.0240  0.3158
  417SOL    HW1 1250   0.240   0.371   0.756 -0.6294 -3.5003 -1.2911
  417SOL    HW2 1251   0.177   0.260   0.645  0.6288 -1.6411  2.6554
  418SOL     OW 1252   2.510   2.893   1.006  0.3837 -0.6630  0.4905
  418SOL    HW1 1253   2.449   2.869   1.089 -2.3968 -2.1233  3.1237
  418SOL    HW2 1254   2.609   2.913   1.034  0.6615 -1.4815 -0.3632
  419SOL     OW 1255   0.076   2.745   0.551 -0.0133 -0.1519 -0.2020
  419SOL    HW1 1256   0.056   2.765   0.649 -2.9915  0.4121 -0.5556
  419SOL    HW2 1257   0.167   2.701   0.543 -2.4744  1.2457  0.2533
  420SOL     OW 1258   0.208   1.371   1.758  0.0239  0.5911 -0.0998
  420SOL    HW1 1259   0.245   1.463   1.743 -2.5997 -4.3092 -0.2229
  420SOL    HW2 1260   0.218   1.319   1.673 -3.0721  1.3954 -1.5333
  421SOL     OW 1261   1.448   2.599   0.768 -0.3351  0.0060 -0.0873
  421SOL    HW1 1262   1.440   2.657   0.854  0.9897 -0.8004  2.1261
  421SOL    HW2 1263   1.434   2.500   0.792 -0.1989  0.9993 -1.6596
  422SOL     OW 1264   0.714   0.361   1.342  0.5162  0.3056  0.0576
  422SOL    HW1 1265   0.733   0.438   1.407  0.0209  1.9344 -2.5417
  422SOL    HW2 1266   0.614   0.345   1.340 -0.5678 -0.2061 -0.4642
  423SOL     OW 1267   1.072   1.401   1.870 -0.3254  0.6649  0.0586
  423SOL    HW1 1268   1.173   1.405   1.885  0.0711  0.7718  1.5420
  423SOL    HW2 1269   1.048   1.328   1.800 -3.3944  0.7581 -2.1672
  424SOL     OW 1270   1.911   1.973   0.273  0.3831  0.3920 -0.1942
  424SOL    HW1 1271   1.880   1.951   0.367 -1.1989  1.0888  0.2439
  424SOL    HW2 1272   1.852   2.050   0.234  1.6477  1.9650  0.9726
  425SOL     OW 1273   3.006   0.278   2.074  0.2350 -0.0928 -0.3638
  425SOL    HW1 1274   3.077   0.214   2.115 -0.7416  1.7385 -1.4363
  425SOL    HW2 1275   2.962   0.235   1.990  0.6190 -1.6531 -0.8795
  426SOL     OW 1276   0.091   2.649   2.883 -0.1797  0.3509  0.5337
  426SOL    HW1 1277   0.142   2.732   2.909 -0.5108 -0.6573 -2.7607
  426SOL    HW2 1278   0.114   2.567   2.944  0.0594 -1.6333  0.7412
  427SOL     OW 1279   1.302   0.546   0.044  0.2137 -0.1232  0.2851
  427SOL    HW1 1280   1.373   0.576   0.115 -1.0155  0.2637  0.5241
  427SOL    HW2 1281   1.287   0.443   0.057  2.4748 -4.0045  1.0197
  428SOL     OW 1282   2.870   0.936   1.769  0.3046 -0.3088 -0.3577
  428SOL    HW1 1283   2.821   0.982   1.847  0.1296  0.4583 -0.3164
  428SOL    HW2 1284   2.840   0.969   1.676 -1.5482  1.6593 -1.9228
  429SOL     OW 1285   1.941   2.907   1.383  0.2681  0.1103  0.1348
  429SOL    HW1 1286   2.006   2.910   1.464  0.3952  0.7750 -0.8657
  429SOL    HW2 1287   1.942   2.815   1.338  0.5383  3.2747 -3.2139
  430SOL     OW 1288   1.256   1.681   2.591  0.4720  0.1267 -0.0025
  430SOL    HW1 1289   1.208   1.688   2.679 -0.6386  2.4683  1.8814
  430SOL    HW2 1290   1.348   1.641   2.598  0.0293  1.6954 -0.2377
  431SOL     OW 1291   2.738   1.528   1.523 -0.8133  0.1802 -0.6761
  431SOL    HW1 1292   2.710   1.555   1.620 -2.9870  2.4811  0.0888
  431SOL    HW2 1293   2.744   1.613   1.472  1.3148  0.9001 -0.1836
  432SOL     OW 1294   1.132   2.624   2.236 -0.2752  0.8444 -0.4347
  432SOL    HW1 1295   1.178   2.584   2.322  2.4735 -2.4826  0.7210
  432SOL    HW2 1296   1.042   2.582   2.224  3.0959  0.1895  0.6933
  433SOL     OW 1297   1.926   0.294   2.095  0.1029  0.1748 -0.5890
  433SOL    HW1 1298   2.023   0.304   2.108 -1.5110 -1.8975 -0.8189
  433SOL    HW2 1299   1.868   0.306   2.178  0.3036 -0.5845 -2.1771
  434SOL     OW 1300   0.518   2.527   2.482 -0.4548  0.3627 -0.0651
  434SOL    HW1 1301   0.494   2.624   2.493 -0.9836  0.3817 -1.3602
  434SOL    HW2 1302   0.621   2.514   2.485 -0.6962  0.4705 -0.4775
  435SOL     OW 1303   0.060   3.070   0.161  0.3257 -0.4086  0.1235
  435SOL    HW1 1304   0.070   0.038   0.096  1.8556 -2.2727 -3.4621
  435SOL    HW2 1305   0.154   3.047   0.196 -0.4801 -1.1260  2.7361
  436SOL     OW 1306   0.647   0.724   1.992  0.5346 -0.5500 -0.3158
  436SOL    HW1 1307   0.613   0.817   2.020  0.3644  1.5544 -2.5264
  436SOL    HW2 1308   0.650   0.671   2.078 -1.1218 -0.2834 -1.3333
  437SOL     OW 1309   0.685   2.383   2.782 -0.2078 -0.2981 -0.0342
  437SOL    HW1 1310   0.677   2.484   2.774  1.6534  1.8317  0.7291
  437SOL    HW2 1311   0.621   2.355   2.859  1.3455  1.1233 -0.6030
  438SOL     OW 1312   1.022   1.213   1.157  0.2830 -0.0408  0.1416
  438SOL    HW1 1313   1.024   1.309   1.116  2.4007  1.2541 -3.0134
  438SOL    HW2 1314   1.118   1.182   1.171 -0.0023  0.2667 -2.6994
  439SOL     OW 1315   2.572   1.233   2.321 -0.4930  0.0389  0.1952
  439SOL    HW1 1316   2.660   1.192   2.351 -0.5106  0.5389  0.8423
  439SOL    HW2 1317   2.494   1.205   2.384 -0.7823 -1.0701  1.9810
  440SOL     OW 1318   0.133   0.550   0.111 -0.4530 -0.5957 -0.4418
  440SOL    HW1 1319   0.218   0.582   0.160  0.7386  1.7368  0.3024
  440SOL    HW2 1320   0.129   0.453   0.110 -0.6826  1.7137 -1.6468
  441SOL     OW 1321   0.851   2.003   1.601  0.1325  0.3558 -0.0745
  441SOL    HW1 1322   0.856   2.103   1.600 -0.4054  1.3099  1.4830
  441SOL    HW2 1323   0.922   1.964   1.536  1.6705  1.8500 -1.3249
  442SOL     OW 1324   2.013   1.559   0.853  0.4454 -0.2481 -0.0860
  442SOL    HW1 1325   2.005   1.524   0.950 -0.2864  1.2988  0.8048
  442SOL    HW2 1326   2.107   1.593   0.824 -0.3721  0.3572 -1.2708
  443SOL     OW 1327   2.619   1.930   2.591  0.1522 -0.0229 -0.0469
  443SOL    HW1 1328   2.698   1.986   2.554  4.0455  3.5541 -1.8840
  443SOL    HW2 1329   2.530   1.975   2.564 -0.2538  0.3008 -0.9980
  444SOL     OW 1330   2.037   1.691   2.929  0.1870  0.0240  0.2826
  444SOL    HW1 1331   1.966   1.736   2.981 -1.8958 -0.0061 -0.3483
  444SOL    HW2 1332   2.076   1.762   2.865 -0.8776  2.3158  0.0349
  445SOL     OW 1333   2.656   2.816   2.086 -0.0344  0.8263  0.2656
  445SOL    HW1 1334   2.623   2.909   2.107 -1.1556 -0.0171 -2.8443
  445SOL    HW2 1335   2.747   2.823   2.045 -0.6620  0.8295 -0.4329
  446SOL     OW 1336   1.011   0.963   1.711  0.1920 -0.4946  0.2038
  446SOL    HW1 1337   1.026   0.906   1.628 -1.6065  1.9606  0.4043
  446SOL    HW2 1338   0.959   0.905   1.781 -0.5424 -0.1434  1.3036
  447SOL     OW 1339   1.056   1.011   0.962 -0.0426  0.4679 -0.1144
  447SOL    HW1 1340   1.082   0.910   0.978  2.0749 -2.2975  0.3403
  447SOL    HW2 1341   1.028   1.056   1.048 -0.1033  2.1718  0.9310
  448SOL     OW 1342   1.074   1.386   2.513 -0.4653  0.2835 -0.5327
  448SOL    HW1 1343   1.087   1.344   2.421  0.6403  0.1539  0.6306
  448SOL    HW2 1344   1.055   1.484   2.508 -2.6152  1.4593 -0.9622
  449SOL     OW 1345   3.110   2.030   2.395 -0.3436  0.0229 -0.2875
  449SOL    HW1 1346   3.067   1.948   2.441 -3.4716  1.3721 -0.4478
  449SOL    HW2 1347   3.092   2.025   2.294  3.0183 -0.4863  0.2314
  450SOL     OW 1348   2.037   1.572   1.927  0.1929 -0.0941 -0.4474
  450SOL    HW1 1349   2.026   1.602   2.025 -2.0897  1.7365  1.8563
  450SOL    HW2 1350   1.979   1.633   1.868  2.9840  0.0133 -0.8088
  451SOL     OW 1351   2.596   1.363   1.368 -0.7452 -0.0690  0.1152
  451SOL    HW1 1352   2.638   1.426   1.438 -0.9891  0.2509 -0.0790
  451SOL    HW2 1353   2.563   1.276   1.406  2.2943 -2.0915 -2.3066
  452SOL     OW 1354   0.512   1.279   1.602 -0.2821 -0.2113 -0.3083
  452SOL    HW1 1355   0.409   1.280   1.595  1.1533  0.8019  1.2986
  452SOL    HW2 1356   0.553   1.286   1.509 -1.7657  0.0308 -0.2129
  453SOL     OW 1357   0.585   1.034   0.626 -0.0029  0.1653 -0.2630
  453SOL    HW1 1358   0.494   1.049   0.670  2.0458  0.4700 -1.2546
  453SOL    HW2 1359   0.650   0.990   0.694  1.3753 -2.1383  3.5782
  454SOL     OW 1360   0.980   1.547   0.203 -0.1156 -0.3847 -0.1462
  454SOL    HW1 1361   0.890   1.523   0.249 -1.0579 -0.9042  1.7734
  454SOL    HW2 1362   0.972   1.546   0.101  0.5470  0.5370 -2.5928
  455SOL     OW 1363   1.853   0.753   1.190 -0.3080 -0.0492 -0.4955
  455SOL    HW1 1364   1.804   0.793   1.267  1.9988  0.0123 -0.9029
  455SOL    HW2 1365   1.854   0.649   1.200  0.2817 -0.5062  0.8854
  456SOL     OW 1366   1.657   2.736   0.950  0.2524 -0.1117  0.0173
  456SOL    HW1 1367   1.708   2.720   0.870 -0.6628  0.8082  1.7212
  456SOL    HW2 1368   1.629   2.839   0.962 -0.2771  1.0770  1.4912
  457SOL     OW 1369   1.979   0.389   2.594 -0.1793  0.2845  0.1522
  457SOL    HW1 1370   1.884   0.430   2.599  1.6111  0.8256  0.6349
  457SOL    HW2 1371   1.979   0.323   2.515 -1.0933  1.0816 -0.5763
  458SOL     OW 1372   2.607   0.684   2.796  0.1550  0.0119  0.2389
  458SOL    HW1 1373   2.561   0.772   2.778 -0.9168 -2.6733  1.7936
  458SOL    HW2 1374   2.705   0.688   2.761  1.0903 -1.6688  2.2103
  459SOL     OW 1375   0.127   1.702   2.097 -0.1987 -0.3223  0.0823
  459SOL    HW1 1376   0.214   1.707   2.050 -0.4491  1.5342  1.4556
  459SOL    HW2 1377   0.117   1.616   2.149  1.9375  1.4190 -0.4708
  460SOL     OW 1378   0.528   0.732   3.052 -0.2895  0.1568 -0.1502
  460SOL    HW1 1379   0.435   0.765   3.023 -1.8605  0.2483 -1.7297
  460SOL    HW2 1380   0.596   0.778   2.990  1.1865  1.2812  0.0485
  461SOL     OW 1381   0.059   2.265   0.430  0.3992 -0.3752  0.6652
  461SOL    HW1 1382   0.028   2.171   0.450  1.0085  1.5337  0.3636
  461SOL    HW2 1383   0.139   2.282   0.487 -0.3707  1.0402 -0.3192
  462SOL     OW 1384   0.023   2.711   1.628  0.2957 -0.7020  0.3632
  462SOL    HW1 1385   3.106   2.680   1.538 -1.1640 -0.7005  0.6581
  462SOL    HW2 1386   0.084   2.641   1.666 -0.5893  1.8611 -1.4625
  463SOL     OW 1387   1.785   2.022   1.738 -0.2860  0.0683  0.7122
  463SOL    HW1 1388   1.734   1.983   1.657 -0.0827 -0.0047  0.1086
  463SOL    HW2 1389   1.818   2.116   1.722  1.2915 -2.8010 -1.2388
  464SOL     OW 1390   0.070   2.861   0.794  0.0740  0.8191  0.0510
  464SOL    HW1 1391   0.008   2.929   0.839 -0.7895 -2.9107  3.2666
  464SOL    HW2 1392   0.138   2.827   0.854 -0.4269  3.4491 -2.2762
  465SOL     OW 1393   0.152   0.066   1.469 -0.1597 -0.4821 -0.0851
  465SOL    HW1 1394   0.109   0.017   1.545 -1.9153  2.5181 -3.1676
  465SOL    HW2 1395   0.170   0.165   1.498  1.1332  1.7017 -0.1681
  466SOL     OW 1396   1.165   2.404   2.421  0.2893  0.0563  1.0323
  466SOL    HW1 1397   1.254   2.347   2.407  0.2134 -0.5416 -0.7325
  466SOL    HW2 1398   1.090   2.353   2.466  0.7933 -0.8014  0.4471
  467SOL     OW 1399   2.860   1.400   1.083  0.0338  0.7030 -0.0680
  467SOL    HW1 1400   2.809   1.486   1.099  0.9104 -3.6562  0.4727
  467SOL    HW2 1401   2.938   1.419   1.022  3.1519 -0.2463 -3.0296
  468SOL     OW 1402   2.351   2.077   2.820 -0.1265 -0.1545  0.0443
  468SOL    HW1 1403   2.349   2.062   2.718 -1.1800  0.3375  2.3119
  468SOL    HW2 1404   2.357   2.176   2.845  0.0300  0.1500 -1.9115
  469SOL     OW 1405   1.263   2.143   0.665  0.7562  0.3327 -0.2167
  469SOL    HW1 1406   1.324   2.124   0.582  1.3593  2.6700  2.1589
  469SOL    HW2 1407   1.242   2.052   0.709 -2.3501 -0.6909  0.2927
  470SOL     OW 1408   1.975   1.742   1.536  0.4492  0.5567  0.0469
  470SOL    HW1 1409   2.071   1.723   1.558 -4.2785  1.9205 -3.2529
  470SOL    HW2 1410   1.921   1.759   1.620  1.2882 -0.2662  0.1179
  471SOL     OW 1411   0.417   2.394   0.268 -0.0833  0.0786 -0.0594
  471SOL    HW1 1412   0.515   2.407   0.305 -0.0340 -0.6831 -0.2060
  471SOL    HW2 1413   0.387   2.295   0.259  1.6021 -0.7213 -0.7269
  472SOL     OW 1414   2.390   1.635   2.285 -0.0323  0.2765  0.5038
  472SOL    HW1 1415   2.486   1.608   2.270  2.6509 -0.3813  2.2785
  472SOL    HW2 1416   2.326   1.563   2.268 -0.7128 -1.9415  0.3895
  473SOL     OW 1417   1.222   2.365   1.000 -0.0549  0.2580 -0.0226
  473SOL    HW1 1418   1.141   2.314   0.959 -2.1656 -0.1338  1.1792
  473SOL    HW2 1419   1.199   2.459   1.028 -1.0800  1.7573 -0.6017
  474SOL     OW 1420   2.951   0.287   1.261 -0.0740 -0.0324 -0.2105
  474SOL    HW1 1421   2.951   0.340   1.348 -0.2767  1.1744 -2.1243
  474SOL    HW2 1422   2.867   0.230   1.243  0.8260  0.1909 -0.8693
  475SOL     OW 1423   2.242   2.841   1.985 -0.5188  0.0347  0.5198
  475SOL    HW1 1424   2.238   2.894   2.074  0.2243  0.4099  1.7165
  475SOL    HW2 1425   2.301   2.885   1.912  0.8288 -1.5876 -0.6742
  476SOL     OW 1426   0.486   0.567   0.708 -0.5645  0.4674 -0.2664
  476SOL    HW1 1427   0.537   0.513   0.639 -0.9202  2.5744 -0.4920
  476SOL    HW2 1428   0.398   0.523   0.734  0.8261  1.1766 -0.7133
  477SOL     OW 1429   0.636   2.059   0.940  0.5384  0.0867 -0.1825
  477SOL    HW1 1430   0.709   2.021   1.002  1.4973 -3.4101  2.2412
  477SOL    HW2 1431   0.556   1.998   0.937  1.4966  0.0796  0.0818
  478SOL     OW 1432   0.952   2.331   2.811 -0.0059 -0.2839  0.5624
  478SOL    HW1 1433   0.984   2.246   2.757  1.2058 -1.2652 -1.7945
  478SOL    HW2 1434   0.852   2.339   2.803  0.9239  0.2823  1.4433
  479SOL     OW 1435   2.862   1.268   2.055  0.2532  0.0815  0.2133
  479SOL    HW1 1436   2.828   1.170   2.063 -1.0746 -2.4008  2.8302
  479SOL    HW2 1437   2.921   1.275   1.972  0.2146 -0.8904  2.1120
  480SOL     OW 1438   0.148   2.427   3.014 -0.4203  0.2242  0.3812
  480SOL    HW1 1439   0.099   2.421   3.102  0.9352 -1.1712 -2.8887
  480SOL    HW2 1440   0.163   2.330   2.974 -0.3402 -3.5332  1.5378
  481SOL     OW 1441   1.570   2.963   2.227  0.3351 -0.0417  0.3868
  481SOL    HW1 1442   1.667   2.957   2.254 -0.1147 -2.7276  1.9513
  481SOL    HW2 1443   1.543   3.058   2.206 -1.7819  2.7722  1.6197
  482SOL     OW 1444   1.736   2.084   3.056 -0.4083  0.2124 -0.2720
  482SOL    HW1 1445   1.835   2.106   3.058 -1.6166  2.1575 -1.6184
  482SOL    HW2 1446   1.688   2.112   2.972  3.0370 -0.3982 -0.1714
  483SOL     OW 1447   1.050   2.535   2.661  0.7230  0.4373 -0.3510
  483SOL    HW1 1448   1.129   2.538   2.595  0.9875 -0.8551  1.2972
  483SOL    HW2 1449   1.038   2.444   2.707 -0.1863  0.6248 -1.2869
  484SOL     OW 1450   0.454   2.705   1.103 -0.0678  0.0156 -0.1055
  484SOL    HW1 1451   0.366   2.757   1.131 -2.3410  2.6878  0.3329
  484SOL    HW2 1452   0.543   2.753   1.130  0.0635  1.2378  1.1277
  485SOL     OW 1453   2.329   0.491   0.688 -0.3069 -0.0827  0.1273
  485SOL    HW1 1454   2.354   0.590   0.704  1.6058  3.6917 -1.7453
  485SOL    HW2 1455   2.295   0.454   0.775  0.5404  0.0802  1.7778
  486SOL     OW 1456   2.077   2.672   2.448 -0.5156 -0.3756  0.0938
  486SOL    HW1 1457   2.000   2.720   2.495 -0.1283 -0.8520  2.3845
  486SOL    HW2 1458   2.162   2.725   2.456 -0.7943 -0.4502 -0.4747
  487SOL     OW 1459   1.028   1.595   0.767 -0.6586  0.1920 -0.3929
  487SOL    HW1 1460   0.949   1.545   0.728  0.3940 -1.4050 -0.6454
  487SOL    HW2 1461   1.024   1.696   0.755  0.4251 -1.6791 -0.8796
  488SOL     OW 1462   2.271   0.252   0.014 -0.1775 -0.1417 -0.2353
  488SOL    HW1 1463   2.272   0.335   0.076  2.7948  1.4841 -1.3855
  488SOL    HW2 1464   2.187   0.254   3.063 -1.2002 -1.3444  0.5276
  489SOL     OW 1465   1.921   3.099   0.478 -0.2195 -0.0537 -0.5079
  489SOL    HW1 1466   1.940   3.064   0.570  1.8760  2.4671 -1.4779
  489SOL    HW2 1467   2.011   0.037   0.449  1.5824 -0.1911 -0.1366
  490SOL     OW 1468   1.549   0.208   2.962 -0.3514 -0.1044  0.0949
  490SOL    HW1 1469   1.540   0.158   3.051 -1.7207 -1.6838  0.7639
  490SOL    HW2 1470   1.649   0.194   2.932  2.9653 -1.1702  0.9169
  491SOL     OW 1471   0.799   0.086   1.032  0.2188  1.2579  0.4152
  491SOL    HW1 1472   0.830   0.093   1.131 -0.2616  1.1860 -1.0228
  491SOL    HW2 1473   0.848   0.148   0.973 -0.5437 -4.2685 -0.1201
  492SOL     OW 1474   1.745   2.961   0.296  0.1865  0.0883 -0.0816
  492SOL    HW1 1475   1.815   3.003   0.357  1.6728  1.0172 -2.7207
  492SOL    HW2 1476   1.766   2.867   0.261 -2.6850 -2.5989 -1.3483
  493SOL     OW 1477   1.379   2.236   2.860 -0.6493 -0.2911 -0.0396
  493SOL    HW1 1478   1.324   2.151   2.844 -0.9513  1.4506  0.6942
  493SOL    HW2 1479   1.478   2.216   2.858 -0.3613 -0.4224 -3.1575
  494SOL     OW 1480   0.390   1.193   1.114  0.2198 -0.0121 -0.2354
  494SOL    HW1 1481   0.437   1.263   1.174  1.0230  0.2206  1.5925
  494SOL    HW2 1482   0.459   1.139   1.063 -0.6662  1.3565 -1.7009
  495SOL     OW 1483   2.992   0.688   1.532  0.3522 -0.1378  0.4049
  495SOL    HW1 1484   3.056   0.769   1.522 -1.2676 -0.9890  0.2960
  495SOL    HW2 1485   2.955   0.681   1.631  2.1081  0.9425 -1.4604
  496SOL     OW 1486   2.281   2.413   2.219  0.0326 -0.7835  0.4636
  496SOL    HW1 1487   2.331   2.463   2.149 -0.0969  3.0429  2.2071
  496SOL    HW2 1488   2.179   2.440   2.207 -2.4357  0.6613 -0.6938
  497SOL     OW 1489   1.747   1.377   2.724 -0.1019 -0.7200 -0.2271
  497SOL    HW1 1490   1.787   1.298   2.673 -0.4268 -0.7726  0.1079
  497SOL    HW2 1491   1.679   1.424   2.665  0.3335 -1.0230  1.7403
  498SOL     OW 1492   0.944   2.103   0.633 -0.3314  0.1593 -0.3441
  498SOL    HW1 1493   0.966   2.205   0.644  0.0045  2.1171 -0.1842
  498SOL    HW2 1494   0.840   2.098   0.641 -1.7850  0.3991 -0.4586
  499SOL     OW 1495   0.134   1.557   0.984  0.3134  0.3502 -0.3552
  499SOL    HW1 1496   0.073   1.587   0.913  1.7203 -0.7611 -0.0199
  499SOL    HW2 1497   0.132   1.456   1.005 -0.1377 -0.5805  0.4915
  500SOL     OW 1498   1.216   2.559   0.619  0.2689 -0.1039  0.0568
  500SOL    HW1 1499   1.189   2.622   0.543  1.5611  0.3143 -1.2186
  500SOL    HW2 1500   1.315   2.566   0.645 -0.4991  1.2527 -1.4324
  501SOL     OW 1501   1.999   2.514   1.052  0.0312  0.3803 -0.2582
  501SOL    HW1 1502   2.097   2.497   1.091  1.8360  1.3601  1.2456
  501SOL    HW2 1503   1.982   2.445   0.973 -1.1951  0.3782  0.4952
  502SOL     OW 1504   0.199   0.440   1.254  0.9045  0.6000  0.3166
  502SOL    HW1 1505   0.114   0.403   1.209 -2.5544 -2.5130  1.7656
  502SOL    HW2 1506   0.208   0.540   1.260 -0.4119 -4.2835 -0.5999
  503SOL     OW 1507   2.018   0.218   1.739  0.9172  0.6525  0.4593
  503SOL    HW1 1508   1.957   0.156   1.684 -0.9980 -0.3198  2.5185
  503SOL    HW2 1509   2.054   0.173   1.822  0.2254  1.0891 -3.2214
  504SOL     OW 1510   2.049   0.687   1.892 -1.0152 -0.2149 -0.1455
  504SOL    HW1 1511   2.003   0.601   1.868 -1.3884  1.6101  0.0978
  504SOL    HW2 1512   2.108   0.724   1.815 -0.7355 -1.6062  1.1579
  505SOL     OW 1513   1.218   2.881   2.362  0.0701 -0.3264 -0.0502
  505SOL    HW1 1514   1.193   2.789   2.332 -0.2881 -0.6928  0.1614
  505SOL    HW2 1515   1.297   2.886   2.430  5.2196 -0.5106 -0.1167
  506SOL     OW 1516   0.393   0.378   1.669 -0.6129  0.1306  0.7022
  506SOL    HW1 1517   0.398   0.284   1.709 -1.9549 -2.8822  1.3945
  506SOL    HW2 1518   0.408   0.453   1.737  1.0295  1.7679 -0.3098
  507SOL     OW 1519   1.561   0.203   0.129 -0.1618  0.0308  0.2162
  507SOL    HW1 1520   1.540   0.261   0.211 -2.6274  3.0070  0.4019
  507SOL    HW2 1521   1.645   0.234   0.078 -1.9201 -1.5361 -2.6736
  508SOL     OW 1522   2.216   0.500   2.252 -0.5398 -0.5307  0.7211
  508SOL    HW1 1523   2.224   0.571   2.172  0.0464  0.8828 -2.7199
  508SOL    HW2 1524   2.187   0.411   2.210 -2.1661  0.5269  0.5358
  509SOL     OW 1525   0.754   1.570   2.565 -0.0483 -0.2589 -0.6873
  509SOL    HW1 1526   0.736   1.480   2.525  3.0391  0.0972  2.9569
  509SOL    HW2 1527   0.837   1.613   2.525 -0.9972 -0.2000  0.6195
  510SOL     OW 1528   2.957   0.554   0.767 -0.7245  0.0351 -0.4587
  510SOL    HW1 1529   3.057   0.573   0.733  1.0572  1.5697 -1.6688
  510SOL    HW2 1530   2.928   0.625   0.837  0.3940  1.3411 -1.2738
  511SOL     OW 1531   1.663   1.457   1.356 -0.3855  0.2258  0.4712
  511SOL    HW1 1532   1.661   1.552   1.390  0.4880  0.0719  0.6546
  511SOL    HW2 1533   1.741   1.408   1.397 -1.0433 -0.2688 -2.2820
  512SOL     OW 1534   0.324   1.601   0.447 -0.1671  0.5698 -0.0028
  512SOL    HW1 1535   0.422   1.623   0.468 -1.2484  1.3032 -2.0746
  512SOL    HW2 1536   0.298   1.517   0.502  0.7455 -0.2585  0.6057
  513SOL     OW 1537   0.469   2.146   1.268 -0.8086  0.0999  0.8951
  513SOL    HW1 1538   0.394   2.080   1.232 -1.4541  0.5994 -2.3159
  513SOL    HW2 1539   0.501   2.205   1.187  1.9927  0.0311 -2.2502
  514SOL     OW 1540   0.362   2.129   0.265 -0.1101  0.0677  0.4162
  514SOL    HW1 1541   0.318   2.040   0.275  0.6844  1.8076  0.4846
  514SOL    HW2 1542   0.394   2.138   0.168 -1.3823  1.7448 -2.0553
  515SOL     OW 1543   2.927   2.999   3.016  0.5398 -0.2211 -0.1429
  515SOL    HW1 1544   2.937   3.060   3.101  1.2125  0.5240  1.8458
  515SOL    HW2 1545   2.979   2.913   3.033  0.0977  2.8601  0.2791
  516SOL     OW 1546   2.054   0.014   1.203 -0.2700 -0.7544  0.3329
  516SOL    HW1 1547   1.981   0.071   1.242  1.5849  0.9087 -1.5243
  516SOL    HW2 1548   2.048   3.025   1.231 -1.9244 -0.5138  0.2916
  517SOL     OW 1549   1.737   1.394   0.480  0.0636 -0.1451 -0.1984
  517SOL    HW1 1550   1.771   1.467   0.540  0.9548 -1.8452 -1.1341
  517SOL    HW2 1551   1.668   1.337   0.529  0.2752  0.7889  0.1093
  518SOL     OW 1552   1.351   0.352   1.041  0.6504 -0.2814  0.4109
  518SOL    HW1 1553   1.277   0.408   1.004 -2.4475  1.8101 -0.7162
  518SOL    HW2 1554   1.398   0.298   0.968  0.9375  0.3878 -0.4080
  519SOL     OW 1555   2.819   2.440   0.305 -0.4361  0.3734 -0.2714
  519SOL    HW1 1556   2.890   2.480   0.365  3.3339  1.5767 -0.4254
  519SOL    HW2 1557   2.860   2.389   0.222 -0.7897 -1.2492 -1.1309
  520SOL     OW 1558   1.902   2.027   2.056 -0.0781 -0.1931  0.3321
  520SOL    HW1 1559   1.828   2.096   2.071 -0.9362  4.6576 -2.6612
  520SOL    HW2 1560   1.874   1.934   2.088  1.1750  0.1802  0.0232
  521SOL     OW 1561   1.528   2.721   2.123 -0.0025  0.1615  0.5319
  521SOL    HW1 1562   1.447   2.710   2.057 -0.5647  1.1000 -1.3940
  521SOL    HW2 1563   1.553   2.818   2.139 -0.0882 -2.1671  0.8080
  522SOL     OW 1564   2.936   0.156   1.848  0.4767  0.7184 -0.0271
  522SOL    HW1 1565   2.889   0.204   1.772  0.3464  0.2753  2.8657
  522SOL    HW2 1566   2.934   0.054   1.835 -1.1796  1.8450  1.7015
  523SOL     OW 1567   0.858   2.274   1.560  0.3061  0.1283 -0.3960
  523SOL    HW1 1568   0.792   2.350   1.540  1.2846 -2.7575  1.4624
  523SOL    HW2 1569   0.943   2.292   1.504  1.9159  4.2685  0.6902
  524SOL     OW 1570   2.209   2.220   0.012 -0.0364 -0.5331 -0.4634
  524SOL    HW1 1571   2.230   2.127   3.092 -1.5986 -0.2345 -0.3690
  524SOL    HW2 1572   2.278   2.235   0.090 -0.8902 -1.3674  0.3278
  525SOL     OW 1573   2.944   1.010   0.056  0.2096  0.1034 -0.8257
  525SOL    HW1 1574   3.025   0.948   0.067  2.1510 -0.5442 -0.2103
  525SOL    HW2 1575   2.880   0.975   3.102  0.3371 -1.1053  1.5630
  526SOL     OW 1576   0.702   3.056   0.461  0.2791 -0.7704  0.1052
  526SOL    HW1 1577   0.771   0.014   0.433  1.2838 -3.4457 -0.1849
  526SOL    HW2 1578   0.670   3.075   0.555 -0.4755  2.2197  2.2061
  527SOL     OW 1579   2.601   1.426   0.574  0.3014 -0.0273 -0.4735
  527SOL    HW1 1580   2.523   1.366   0.608 -1.9379 -1.4595  0.2733
  527SOL    HW2 1581   2.579   1.510   0.525  1.9560  2.7879  3.4366
  528SOL     OW 1582   0.481   0.835   2.586 -0.2166  0.2652 -0.2432
  528SOL    HW1 1583   0.469   0.902   2.659 -0.9806 -2.1398  1.7283
  528SOL    HW2 1584   0.436   0.866   2.504 -1.1868 -0.9990  0.2206
  529SOL     OW 1585   0.682   1.455   3.089 -0.2775 -0.3511 -0.1861
  529SOL    HW1 1586   0.654   1.466   0.080  0.4830 -0.6893  2.4100
  529SOL    HW2 1587   0.635   1.529   3.032  0.3586 -1.0266 -1.0943
  530SOL     OW 1588   1.230   1.071   2.149 -0.0595 -0.3895  0.3283
  530SOL    HW1 1589   1.324   1.044   2.169 -0.1996 -0.6547 -1.4426
  530SOL    HW2 1590   1.158   1.000   2.168 -2.1870 -0.3204  1.0835
  531SOL     OW 1591   1.134   2.020   0.069  0.3006 -0.6191  0.4593
  531SOL    HW1 1592   1.210   1.955   0.071  1.1387  1.3954  1.2441
  531SOL    HW2 1593   1.065   2.000   0.001 -0.3017 -0.1042 -1.9001
  532SOL     OW 1594   2.223   0.999   2.686  0.3198 -0.2269  0.2814
  532SOL    HW1 1595   2.166   0.930   2.738  1.0843 -0.2578  2.5974
  532SOL    HW2 1596   2.195   1.091   2.714  1.4627 -1.7091 -0.2150
  533SOL     OW 1597   3.046   0.551   1.992 -0.1505 -0.0004 -0.4186
  533SOL    HW1 1598   3.041   0.451   2.023 -1.5943 -2.4238  1.1893
  533SOL    HW2 1599   2.981   0.575   1.919  3.5421  0.7000  3.0560
  534SOL     OW 1600   1.860   0.049   0.030  1.1353  0.5256  0.1683
  534SOL    HW1 1601   1.856   0.145   0.051  0.2483 -2.7773 -0.3005
  534SOL    HW2 1602   1.838   3.105   0.112 -0.4629 -1.5073  0.4009
  535SOL     OW 1603   0.676   0.088   3.048 -0.0916 -0.5079 -0.2632
  535SOL    HW1 1604   0.761   0.110   2.993 -0.1731 -0.4801 -1.0255
  535SOL    HW2 1605   0.614   0.166   3.066  4.0778  0.7704  2.3894
  536SOL     OW 1606   0.587   1.947   1.646 -0.1075  0.6191  0.0796
  536SOL    HW1 1607   0.574   1.846   1.637 -0.1789 -1.6831  0.6796
  536SOL    HW2 1608   0.687   1.968   1.638 -0.9519  0.0790  1.4476
  537SOL     OW 1609   2.872   2.735   1.724  0.2448 -0.5859 -0.0538
  537SOL    HW1 1610   2.963   2.734   1.689 -2.1846 -0.2853  1.0453
  537SOL    HW2 1611   2.803   2.756   1.649 -2.5508 -1.3658 -1.3584
  538SOL     OW 1612   3.051   2.030   0.504  0.0969  0.0824 -0.3282
  538SOL    HW1 1613   3.095   1.940   0.500 -0.5818 -0.1889 -1.2903
  538SOL    HW2 1614   2.958   2.019   0.546 -3.0893 -1.2990  1.0276
  539SOL     OW 1615   2.480   0.951   2.750  0.3244  0.4325 -0.4134
  539SOL    HW1 1616   2.385   0.978   2.729 -1.7425 -1.5422  0.4450
  539SOL    HW2 1617   2.525   1.020   2.807 -0.1733  1.8324 -3.0072
  540SOL     OW 1618   2.002   0.878   3.097 -0.3841  0.0211 -0.2674
  540SOL    HW1 1619   1.946   0.965   3.088 -0.2033  3.1567  0.7142
  540SOL    HW2 1620   1.956   0.808   0.051  0.2187 -1.4489  0.0980
  541SOL     OW 1621   1.056   0.526   2.118  0.0090 -1.0141  0.0980
  541SOL    HW1 1622   1.014   0.575   2.201 -0.4169 -0.8511  1.6982
  541SOL    HW2 1623   1.040   0.427   2.118  0.5988  2.7072 -0.6577
  542SOL     OW 1624   1.645   2.490   1.999  0.1322 -0.2055 -0.1803
  542SOL    HW1 1625   1.616   2.578   2.043  0.1374  2.0754 -1.0263
  542SOL    HW2 1626   1.728   2.494   1.943  0.0947 -2.8775 -0.4017
  543SOL     OW 1627   0.877   2.795   0.395  0.0829 -0.0676  0.2143
  543SOL    HW1 1628   0.892   2.895   0.408 -2.7785  1.1747  1.1730
  543SOL    HW2 1629   0.848   2.774   0.300  1.2943 -0.0871 -0.8944
  544SOL     OW 1630   2.870   1.838   2.070  0.3487  0.3119 -0.1417
  544SOL    HW1 1631   2.960   1.875   2.054 -3.6039  1.7939  1.2924
  544SOL    HW2 1632   2.849   1.836   2.171  1.0793 -0.0989 -0.0150
  545SOL     OW 1633   1.423   2.093   1.503  0.4816 -0.5696  0.1817
  545SOL    HW1 1634   1.383   2.059   1.589  1.6449 -0.3769  0.1463
  545SOL    HW2 1635   1.342   2.117   1.440 -0.7238 -0.7044  0.3678
  546SOL     OW 1636   0.350   0.144   2.280 -0.0305  0.7120  0.6139
  546SOL    HW1 1637   0.447   0.162   2.272 -0.8926 -0.2730  0.7652
  546SOL    HW2 1638   0.322   0.068   2.340 -1.3803  5.0580 -0.5423
  547SOL     OW 1639   0.885   0.131   0.412  0.0580  0.4833 -0.2100
  547SOL    HW1 1640   0.879   0.124   0.311 -0.7425  1.0886  0.7779
  547SOL    HW2 1641   0.954   0.201   0.443 -1.2294 -0.4061  0.5371
  548SOL     OW 1642   1.678   2.109   0.209 -0.4053  0.3262 -0.2005
  548SOL    HW1 1643   1.611   2.184   0.225 -0.3307  1.6799 -0.5957
  548SOL    HW2 1644   1.703   2.110   0.108  1.1514  2.0329  0.8829
  549SOL     OW 1645   2.206   0.900   0.367 -0.2656  0.5723 -0.7659
  549SOL    HW1 1646   2.147   0.973   0.327 -0.1034 -0.7072 -1.0247
  549SOL    HW2 1647   2.294   0.943   0.404  3.8673  2.2414 -1.9745
  550SOL     OW 1648   2.643   2.320   0.497  0.9491  0.2504 -0.2319
  550SOL    HW1 1649   2.625   2.236   0.439 -0.3495 -1.9772  1.1440
  550SOL    HW2 1650   2.706   2.382   0.450 -3.6762  0.1578  1.1172
  551SOL     OW 1651   1.168   0.452   1.389 -0.1801 -0.2960 -0.1329
  551SOL    HW1 1652   1.265   0.472   1.361 -1.6945 -0.6519 -0.2375
  551SOL    HW2 1653   1.158   0.351   1.407 -0.8802  0.0583  2.8923
  552SOL     OW 1654   2.879   2.057   2.829 -0.2950  0.6335  0.0295
  552SOL    HW1 1655   2.844   1.960   2.806 -0.3792  0.7001 -0.1859
  552SOL    HW2 1656   2.923   2.064   2.925  1.0263  0.4941  0.3675
  553SOL     OW 1657   2.740   2.730   0.596 -0.1231  0.0302 -0.0292
  553SOL    HW1 1658   2.638   2.737   0.584  0.0926 -1.2287 -1.4329
  553SOL    HW2 1659   2.771   2.659   0.664  0.2892  0.1036 -1.4272
  554SOL     OW 1660   1.828   1.267   1.744 -0.1448  0.7211  0.0641
  554SOL    HW1 1661   1.865   1.185   1.699 -0.5207 -2.4866 -0.4216
  554SOL    HW2 1662   1.865   1.284   1.842 -0.6071  0.3780  1.1394
  555SOL     OW 1663   1.188   2.229   2.070 -0.3022  0.2368  0.0329
  555SOL    HW1 1664   1.105   2.272   2.110  0.1358  1.6723  0.3006
  555SOL    HW2 1665   1.167   2.143   2.023  0.1089  0.3458 -1.5666
  556SOL     OW 1666   1.325   1.475   1.904 -0.5970 -0.1099  0.1838
  556SOL    HW1 1667   1.344   1.511   1.999  2.3025 -2.1570  0.8718
  556SOL    HW2 1668   1.401   1.419   1.870  0.7406 -2.8693  0.3178
  557SOL     OW 1669   1.529   0.082   1.791 -0.1046  0.2715 -0.1396
  557SOL    HW1 1670   1.565   3.107   1.839  0.7034  1.0232  2.3027
  557SOL    HW2 1671   1.437   0.057   1.758  0.2668  2.5857 -0.8929
  558SOL     OW 1672   0.594   2.939   2.082 -0.4426 -0.2472 -0.4324
  558SOL    HW1 1673   0.540   3.020   2.070  3.1307 -0.7592  1.4242
  558SOL    HW2 1674   0.548   2.859   2.036 -0.1383 -0.5057 -0.3447
  559SOL     OW 1675   1.740   2.502   0.426  0.2104 -0.5243  0.1988
  559SOL    HW1 1676   1.732   2.575   0.355  1.1798 -0.3943  0.7176
  559SOL    HW2 1677   1.739   2.547   0.518  0.8599  2.3908 -1.2617
  560SOL     OW 1678   1.351   2.108   0.396 -0.2924 -0.0371 -0.0307
  560SOL    HW1 1679   1.375   2.046   0.320  0.1693 -0.0498  0.2511
  560SOL    HW2 1680   1.352   2.204   0.363 -2.4421  0.9060  0.2655
  561SOL     OW 1681   1.516   0.352   0.410  0.0595 -0.1209  0.0006
  561SOL    HW1 1682   1.585   0.294   0.459 -1.6433  0.3550  0.4160
  561SOL    HW2 1683   1.432   0.359   0.468  1.7747  1.5378  0.8691
  562SOL     OW 1684   0.674   1.490   2.034 -0.7311 -0.2608  0.4839
  562SOL    HW1 1685   0.723   1.581   2.033  0.0774 -0.9024  1.2185
  562SOL    HW2 1686   0.678   1.445   1.941  0.6572 -1.1385 -0.8057
  563SOL     OW 1687   1.648   2.180   2.821  0.8876 -0.1530 -0.1585
  563SOL    HW1 1688   1.631   2.099   2.759 -1.3078  1.8470  0.0805
  563SOL    HW2 1689   1.690   2.254   2.764  0.1697 -0.1652  0.2276
  564SOL     OW 1690   3.042   0.988   0.914 -0.0193 -0.5865 -0.5782
  564SOL    HW1 1691   2.946   1.026   0.901 -1.5255  1.2096 -0.6327
  564SOL    HW2 1692   3.047   0.930   0.997  0.7979  1.0032 -1.5981
  565SOL     OW 1693   0.645   1.179   3.065  0.0146 -0.4853 -0.0074
  565SOL    HW1 1694   0.666   1.277   3.046 -0.2854  1.2383  3.7757
  565SOL    HW2 1695   0.727   1.128   3.103  0.5166  0.1710  0.4515
  566SOL     OW 1696   2.273   2.712   2.720  0.1729 -0.2210  0.3293
  566SOL    HW1 1697   2.311   2.806   2.752 -0.5487  2.5360  0.6325
  566SOL    HW2 1698   2.183   2.682   2.763 -0.8946  0.5660 -1.9209
  567SOL     OW 1699   1.455   1.280   1.361 -0.1303  0.2614  0.3622
  567SOL    HW1 1700   1.540   1.338   1.368 -0.2084  0.5146  1.2244
  567SOL    HW2 1701   1.407   1.264   1.450  1.9932 -0.3450 -2.2991
  568SOL     OW 1702   1.390   1.167   2.942 -0.3194  1.2858  0.4876
  568SOL    HW1 1703   1.366   1.185   3.041  1.0841 -0.7628  0.6566
  568SOL    HW2 1704   1.471   1.228   2.918  2.1251 -0.7483  0.6859
  569SOL     OW 1705   2.165   2.037   0.363  0.1478  0.8405 -0.3747
  569SOL    HW1 1706   2.084   2.019   0.300 -1.8741 -3.1686 -1.6040
  569SOL    HW2 1707   2.170   2.135   0.386 -1.0507 -3.4566 -0.1197
  570SOL     OW 1708   2.601   2.240   2.320  0.7982  0.7088  0.1036
  570SOL    HW1 1709   2.523   2.273   2.375  0.1587 -2.1567  0.7797
  570SOL    HW2 1710   2.638   2.303   2.256  1.0274  0.7489  1.6192
  571SOL     OW 1711   2.881   1.945   1.798  0.5025 -0.0142 -0.0157
  571SOL    HW1 1712   2.967   1.902   1.843  2.3265 -1.2203  2.4351
  571SOL    HW2 1713   2.799   1.926   1.858 -0.1904 -1.3695 -0.5101
  572SOL     OW 1714   1.539   2.391   0.225  0.8971  0.1081 -0.1717
  572SOL    HW1 1715   1.449   2.407   0.271  0.5784  2.0194 -2.0513
  572SOL    HW2 1716   1.615   2.444   0.271 -2.5226 -2.0676  1.7708
  573SOL     OW 1717   1.473   1.798   0.712  0.3810  0.3137  0.1087
  573SOL    HW1 1718   1.551   1.858   0.736  3.4238  3.2047  0.2518
  573SOL    HW2 1719   1.397   1.849   0.755  0.0054  3.6551  2.2061
  574SOL     OW 1720   1.249   3.030   1.473  0.4856  0.1167  0.8402
  574SOL    HW1 1721   1.336   2.975   1.465  2.5675 -1.8865 -0.9520
  574SOL    HW2 1722   1.238   3.052   1.571  2.1760 -1.5290 -0.0048
  575SOL     OW 1723   0.846   0.765   1.335  0.1253  0.1375  0.0286
  575SOL    HW1 1724   0.789   0.827   1.275  1.3845  0.9032 -1.3273
  575SOL    HW2 1725   0.789   0.691   1.385 -2.3281  1.5828  1.1191
  576SOL     OW 1726   2.683   0.170   1.171  0.3179  0.4035 -0.1388
  576SOL    HW1 1727   2.662   0.152   1.075  1.6803  0.1546 -1.4854
  576SOL    HW2 1728   2.644   0.101   1.236  1.9622 -1.6272 -0.1115
  577SOL     OW 1729   1.706   0.465   2.623 -0.0366  0.6793 -0.2827
  577SOL    HW1 1730   1.734   0.533   2.691  1.0832  0.4232 -2.7235
  577SOL    HW2 1731   1.654   0.514   2.550 -1.3293  0.1477 -0.2683
  578SOL     OW 1732   1.920   1.677   2.495 -0.6018 -0.2172 -0.2523
  578SOL    HW1 1733   1.926   1.614   2.579 -0.1015 -0.0752  5.1291
  578SOL    HW2 1734   1.960   1.768   2.516 -0.5976  1.4941  1.8044
  579SOL     OW 1735   0.399   1.596   0.927  0.6193  0.1539  0.6850
  579SOL    HW1 1736   0.295   1.589   0.945 -3.2841 -2.0769  1.5053
  579SOL    HW2 1737   0.427   1.541   0.844  2.0645 -0.2552 -1.0427
  580SOL     OW 1738   1.351   2.454   3.028  0.8695  0.0229  0.4337
  580SOL    HW1 1739   1.443   2.455   3.072 -1.4921 -1.5568  0.3954
  580SOL    HW2 1740   1.334   2.365   2.978 -1.3742 -0.6762  1.8337
  581SOL     OW 1741   0.990   0.919   2.073  0.4468 -0.0654  0.1297
  581SOL    HW1 1742   0.927   0.989   2.116  0.8097  0.0709  2.1683
  581SOL    HW2 1743   0.947   0.879   1.987 -2.8804 -1.7986 -2.3153
  582SOL     OW 1744   0.676   1.086   0.972 -0.2639  0.0734  0.6670
  582SOL    HW1 1745   0.723   1.027   0.900  2.0887 -0.1070 -1.1494
  582SOL    HW2 1746   0.687   1.185   0.948 -0.6362  1.0088  1.4317
  583SOL     OW 1747   0.828   1.720   2.153  0.2117  0.4940 -0.0218
  583SOL    HW1 1748   0.899   1.679   2.091  1.8525  1.0223 -0.9484
  583SOL    HW2 1749   0.872   1.787   2.211 -0.4178  1.1972  1.6846
  584SOL     OW 1750   2.139   2.701   0.412  0.3284 -0.6970 -0.0226
  584SOL    HW1 1751   2.066   2.706   0.479  1.2729  1.7036 -0.7253
  584SOL    HW2 1752   2.158   2.802   0.387 -0.9176  5.1285 -1.5308
  585SOL     OW 1753   1.867   0.548   3.020 -0.3400  0.2537  0.3127
  585SOL    HW1 1754   1.866   0.613   3.096 -2.2352 -1.2972 -0.4951
  585SOL    HW2 1755   1.796   0.566   2.952  0.2036 -3.5052  0.3848
  586SOL     OW 1756   0.118   1.749   0.546 -0.0570 -0.3019 -0.0064
  586SOL    HW1 1757   0.028   1.703   0.521  1.4679 -0.7583 -1.2884
  586SOL    HW2 1758   0.192   1.687   0.524 -0.6027  1.1451  0.0535
  587SOL     OW 1759   1.656   1.983   0.818  0.1277  0.0168  0.3416
  587SOL    HW1 1760   1.658   2.056   0.745  0.0619 -1.4081  0.6837
  587SOL    HW2 1761   1.747   1.936   0.818  3.6695 -0.8256  0.1806
  588SOL     OW 1762   0.430   0.457   1.037  0.2184 -0.0867 -0.1966
  588SOL    HW1 1763   0.336   0.451   0.997  1.5346 -1.5136  2.3823
  588SOL    HW2 1764   0.423   0.431   1.138  0.1167 -0.6145 -0.8732
  589SOL     OW 1765   1.091   0.460   0.999  0.3084  0.7951 -0.0993
  589SOL    HW1 1766   1.095   0.485   0.899  0.1078 -3.0936  1.4182
  589SOL    HW2 1767   1.055   0.534   1.062  0.7096 -1.7520  0.0701
  590SOL     OW 1768   1.431   0.926   0.282 -0.1342  0.2158 -0.2009
  590SOL    HW1 1769   1.345   0.888   0.241  1.0928 -1.5014  0.1174
  590SOL    HW2 1770   1.449   0.865   0.367 -1.2604 -0.6357  1.3486
  591SOL     OW 1771   2.577   2.850   2.475  0.2042  0.1439 -0.6467
  591SOL    HW1 1772   2.654   2.914   2.491  2.3843 -0.8514  2.3059
  591SOL    HW2 1773   2.612   2.765   2.433 -1.4950  0.4617 -1.9019
  592SOL     OW 1774   1.465   1.990   1.004 -0.1462  0.4548 -0.1523
  592SOL    HW1 1775   1.536   2.011   0.933  1.6006  1.2566 -0.5088
  592SOL    HW2 1776   1.436   2.076   1.052  0.0656 -1.8214  1.5653
  593SOL     OW 1777   1.036   0.092   0.850 -0.4107 -0.2555 -0.1118
  593SOL    HW1 1778   1.072   0.001   0.826 -0.5894 -1.9768  0.1539
  593SOL    HW2 1779   1.061   0.117   0.947  2.1351 -0.7108  2.2983
  594SOL     OW 1780   0.383   1.151   1.881  0.3450 -0.1924  0.3648
  594SOL    HW1 1781   0.359   1.209   1.805  1.0391  0.7218  3.7921
  594SOL    HW2 1782   0.317   1.072   1.899  0.8361 -1.7443 -1.3286
  595SOL     OW 1783   0.263   2.680   0.867 -0.3273 -0.4199  0.1954
  595SOL    HW1 1784   0.267   2.684   0.969  2.3242 -0.9581  1.9944
  595SOL    HW2 1785   0.334   2.746   0.834  0.2351 -2.7046  0.6943
  596SOL     OW 1786   0.070   0.900   1.577  0.3857 -0.4814  0.1127
  596SOL    HW1 1787   0.156   0.848   1.579 -2.5150  1.8189 -2.1139
  596SOL    HW2 1788   0.044   0.937   1.667 -0.3218  0.3343 -2.0198
  597SOL     OW 1789   2.064   1.659   0.449 -0.7291 -0.4697  0.3973
  597SOL    HW1 1790   2.042   1.570   0.482  0.9175  2.5402 -1.0497
  597SOL    HW2 1791   1.987   1.698   0.398  1.5751  1.1218 -1.3948
  598SOL     OW 1792   0.430   2.781   1.924 -0.0318 -0.0822 -0.0223
  598SOL    HW1 1793   0.482   2.805   1.839  1.2152 -1.8095 -1.5743
  598SOL    HW2 1794   0.417   2.683   1.933 -0.4539  2.0682 -0.8755
  599SOL     OW 1795   2.568   2.104   3.018 -0.2103 -0.1945  0.1409
  599SOL    HW1 1796   2.519   2.055   2.943 -0.5022  0.3683  0.7620
  599SOL    HW2 1797   2.595   2.043   3.088 -1.5002  1.8611 -4.7808
  600SOL     OW 1798   0.762   0.964   0.251  0.0814 -0.0407 -0.1193
  600SOL    HW1 1799   0.824   1.028   0.195 -0.2090  2.2344 -0.7931
  600SOL    HW2 1800   0.727   1.020   0.331  1.1124  1.7506  0.4864
  601SOL     OW 1801   1.071   0.942   0.376  0.1034 -0.3898 -1.2310
  601SOL    HW1 1802   1.129   1.015   0.424  1.8392  1.5493  1.0057
  601SOL    HW2 1803   1.007   0.899   0.444 -1.2391  0.9550  0.7319
  602SOL     OW 1804   1.343   2.814   1.145  0.2698 -0.0757 -0.5143
  602SOL    HW1 1805   1.269   2.883   1.146 -2.0293  0.5710 -3.8675
  602SOL    HW2 1806   1.432   2.858   1.118  1.7416  3.2354  0.6182
  603SOL     OW 1807   0.830   0.011   2.150  0.5033  0.1271  0.1241
  603SOL    HW1 1808   0.742   3.072   2.126  1.5456 -1.9182  1.6783
  603SOL    HW2 1809   0.902   3.055   2.129  1.3974 -1.7727 -0.3182
  604SOL     OW 1810   0.094   0.111   2.182  0.0263  0.0368 -0.0152
  604SOL    HW1 1811   0.082   0.013   2.150 -2.9643 -0.0947  0.3248
  604SOL    HW2 1812   0.196   0.129   2.193 -0.9127 -1.3111 -0.6687
  605SOL     OW 1813   2.714   2.164   1.369 -0.3998 -0.1579  0.6171
  605SOL    HW1 1814   2.638   2.214   1.410  2.2765 -1.0816 -2.4677
  605SOL    HW2 1815   2.749   2.091   1.437  0.0425 -0.4542  1.9275
  606SOL     OW 1816   0.488   1.545   2.924  0.2600  0.1158 -0.0715
  606SOL    HW1 1817   0.391   1.549   2.958  1.0820 -1.3857  0.1348
  606SOL    HW2 1818   0.495   1.621   2.852  0.0336 -0.7515 -0.0520
  607SOL     OW 1819   0.960   0.404   0.089 -0.0532 -0.5898 -0.1136
  607SOL    HW1 1820   0.976   0.495   0.123  0.4360 -1.5245 -0.9850
  607SOL    HW2 1821   1.044   0.361   0.055 -1.0327 -0.0244  1.5795
  608SOL     OW 1822   1.770   1.159   2.389  0.6441 -0.3045 -0.1732
  608SOL    HW1 1823   1.672   1.125   2.397 -2.9950 -0.6745  0.5560
  608SOL    HW2 1824   1.821   1.140   2.476 -2.7769  1.0555 -3.4940
  609SOL     OW 1825   3.011   0.227   0.810 -0.2343  0.0970 -0.2954
  609SOL    HW1 1826   3.055   0.269   0.891 -0.8261  1.1055  0.1181
  609SOL    HW2 1827   2.916   0.268   0.794 -2.8238  0.9257  0.7923
  610SOL     OW 1828   0.533   2.357   3.004 -0.3003  0.5619  0.1512
  610SOL    HW1 1829   0.496   2.260   3.014 -1.3948 -0.0682 -1.6524
  610SOL    HW2 1830   0.465   2.419   3.050  0.4011  0.0725 -0.9049
  611SOL     OW 1831   1.881   1.111   0.440 -0.3190 -0.0042 -0.3606
  611SOL    HW1 1832   1.946   1.100   0.364  0.1533  0.0979 -0.0190
  611SOL    HW2 1833   1.851   1.209   0.445 -0.3910 -1.0909 -1.4888
  612SOL     OW 1834   0.929   2.265   2.505  0.2057  0.0807 -0.0856
  612SOL    HW1 1835   0.834   2.229   2.514  1.1521 -0.4547  0.6359
  612SOL    HW2 1836   0.991   2.197   2.550 -2.3767  1.4661 -1.8340
  613SOL     OW 1837   1.062   2.114   2.678  0.0674 -0.3585 -0.1220
  613SOL    HW1 1838   1.132   2.098   2.746 -2.6615  1.4603  1.5403
  613SOL    HW2 1839   0.987   2.042   2.683 -0.7356 -2.7920 -1.1972
  614SOL     OW 1840   2.726   2.775   1.495 -0.4727 -0.1134 -0.0303
  614SOL    HW1 1841   2.794   2.820   1.433 -3.2096 -0.1317 -0.7231
  614SOL    HW2 1842   2.686   2.693   1.445  0.8333  0.2516  0.1910
  615SOL     OW 1843   2.229   1.338   3.057 -0.2688  0.0510 -0.2852
  615SOL    HW1 1844   2.140   1.377   3.084 -0.1968  2.1348 -0.0723
  615SOL    HW2 1845   2.287   1.417   3.020 -1.3651 -1.0624 -0.8207
  616SOL     OW 1846   1.733   0.183   0.540 -0.3945  0.1805 -0.3433
  616SOL    HW1 1847   1.767   0.123   0.464  1.2987 -1.1573 -0.9749
  616SOL    HW2 1848   1.808   0.242   0.570 -0.5435 -2.1152 -0.3125
  617SOL     OW 1849   0.906   1.138   0.097  0.3037  0.3146 -0.2863
  617SOL    HW1 1850   0.928   1.178   0.004  0.2399 -2.9202 -0.3268
  617SOL    HW2 1851   0.960   1.181   0.172 -0.9429  1.2830 -0.2868
  618SOL     OW 1852   0.501   0.623   1.775 -0.4265  0.2853  0.5047
  618SOL    HW1 1853   0.436   0.699   1.755  2.2498  0.0534  1.2557
  618SOL    HW2 1854   0.547   0.644   1.863 -0.7715 -0.4615  1.6534
  619SOL     OW 1855   0.243   1.230   1.527 -0.0712 -0.6889  0.0755
  619SOL    HW1 1856   0.163   1.284   1.492 -2.0831  0.0833 -0.6265
  619SOL    HW2 1857   0.225   1.132   1.547  1.0295  1.5460 -0.6577
  620SOL     OW 1858   1.922   1.150   3.100  0.1201  0.3729  0.0823
  620SOL    HW1 1859   1.828   1.166   0.024 -1.4772  2.0085 -1.7484
  620SOL    HW2 1860   1.962   1.233   3.062 -0.9120 -0.5555 -0.1177
  621SOL     OW 1861   2.311   2.863   1.227 -0.7036  0.0886  0.4167
  621SOL    HW1 1862   2.318   2.942   1.294  3.1454 -1.6669 -0.7962
  621SOL    HW2 1863   2.288   2.772   1.276 -4.5353 -3.9660 -0.5181
  622SOL     OW 1864   1.393   0.848   2.534  0.1838 -0.0664 -0.1055
  622SOL    HW1 1865   1.299   0.900   2.540 -3.1255  4.1856 -0.5817
  622SOL    HW2 1866   1.381   0.748   2.516  0.7785 -0.8152 -0.4832
  623SOL     OW 1867   1.209   0.301   3.084 -0.3120  0.1693 -0.2072
  623SOL    HW1 1868   1.217   0.332   2.989 -0.8648  0.4231  0.3543
  623SOL    HW2 1869   1.172   0.204   3.096  1.0821 -2.6464  0.8128
  624SOL     OW 1870   1.878   0.327   0.292 -0.1174  0.3261  0.2106
  624SOL    HW1 1871   1.872   0.422   0.325  0.5141  1.3600  0.8195
  624SOL    HW2 1872   1.944   0.273   0.349 -1.0320  0.7634  1.1842
  625SOL     OW 1873   0.706   1.351   0.885  0.3491 -0.5606 -0.1961
  625SOL    HW1 1874   0.731   1.440   0.933 -0.3676  2.2754 -1.0280
  625SOL    HW2 1875   0.610   1.357   0.845 -1.5186  0.9151 -0.7244
  626SOL     OW 1876   1.507   1.194   0.250  0.1095  0.6689 -0.1055
  626SOL    HW1 1877   1.483   1.253   0.334 -0.6464 -1.3022  0.6856
  626SOL    HW2 1878   1.473   1.102   0.275 -0.7433  3.1452 -2.2616
  627SOL     OW 1879   1.028   2.921   2.126  0.1518 -0.5524  0.4347
  627SOL    HW1 1880   1.036   2.821   2.146 -1.4142 -0.2544  1.3940
  627SOL    HW2 1881   1.097   2.979   2.169 -0.4705 -1.4708 -0.9207
  628SOL     OW 1882   2.608   0.321   2.187  0.5803  0.4111 -0.2184
  628SOL    HW1 1883   2.704   0.318   2.216 -1.2931  0.0650  1.6249
  628SOL    HW2 1884   2.545   0.338   2.270  0.1620  1.9779  0.2084
  629SOL     OW 1885   0.961   1.203   2.943 -0.6972 -0.0571 -0.4152
  629SOL    HW1 1886   1.006   1.126   2.900 -1.5892  2.8344  2.0899
  629SOL    HW2 1887   0.934   1.271   2.872 -2.9839 -0.2342  1.2320
  630SOL     OW 1888   1.247   0.199   2.362 -0.1804 -0.7433 -0.2853
  630SOL    HW1 1889   1.200   0.289   2.368 -1.8389  1.3779  0.9094
  630SOL    HW2 1890   1.290   0.170   2.450 -1.3582 -1.8195  2.7713
  631SOL     OW 1891   2.813   0.792   0.636 -0.0896 -0.0465  0.0967
  631SOL    HW1 1892   2.832   0.725   0.707  1.1861  1.4747 -1.5639
  631SOL    HW2 1893   2.897   0.841   0.600  2.2462  0.0959 -1.6163
  632SOL     OW 1894   2.400   0.856   1.342  0.3230  0.4239  0.3707
  632SOL    HW1 1895   2.318   0.793   1.344 -1.7744  0.1682 -0.3979
  632SOL    HW2 1896   2.425   0.882   1.251 -2.0743  1.8984  2.3966
  633SOL     OW 1897   1.810   0.741   0.928 -0.1634 -0.5170 -0.6345
  633SOL    HW1 1898   1.876   0.794   0.868  1.0935 -0.1966 -1.2191
  633SOL    HW2 1899   1.839   0.752   1.026  1.0280  1.4176  1.4042
  634SOL     OW 1900   1.891   2.948   0.743  0.1729 -0.1572  0.4671
  634SOL    HW1 1901   1.925   2.989   0.829 -1.9104  1.5778 -1.4202
  634SOL    HW2 1902   1.795   2.976   0.735  2.5636 -1.4573 -0.1292
  635SOL     OW 1903   1.687   0.861   1.390 -0.3154 -0.3225 -0.8268
  635SOL    HW1 1904   1.598   0.825   1.365  1.4504 -0.8412  0.5897
  635SOL    HW2 1905   1.690   0.960   1.370 -1.0382 -1.6644  2.8225
  636SOL     OW 1906   0.924   0.791   0.539 -0.7514  0.1078 -0.5642
  636SOL    HW1 1907   0.875   0.718   0.489 -0.5658  0.6130  0.7759
  636SOL    HW2 1908   0.994   0.753   0.602 -1.2269 -0.3175 -2.3250
  637SOL     OW 1909   1.889   2.286   0.341  0.0743  0.3532  0.5110
  637SOL    HW1 1910   1.849   2.380   0.362 -0.0300  0.8937 -0.3490
  637SOL    HW2 1911   1.836   2.217   0.391 -2.4213  0.6461 -1.9562
  638SOL     OW 1912   1.169   2.913   2.770 -0.1241  0.3486  0.0396
  638SOL    HW1 1913   1.216   2.997   2.809  1.3093 -0.2056 -3.4144
  638SOL    HW2 1914   1.234   2.830   2.760 -1.4215 -3.4049 -0.8496
  639SOL     OW 1915   0.675   1.956   1.279  0.3549 -0.0873  0.1307
  639SOL    HW1 1916   0.605   2.029   1.279 -1.4401  3.0591  0.1027
  639SOL    HW2 1917   0.699   1.942   1.379  1.0157 -0.2559 -0.5367
  640SOL     OW 1918   0.053   2.817   0.061 -0.0891 -0.2242 -0.0403
  640SOL    HW1 1919   0.018   2.759   0.140 -0.9283 -1.5715  0.9908
  640SOL    HW2 1920   0.042   2.914   0.086  0.5570 -3.5575 -2.0708
  641SOL     OW 1921   0.140   0.199   3.048  0.5407  0.3554 -0.0011
  641SOL    HW1 1922   0.145   0.267   0.013  0.1024  0.2790 -0.2313
  641SOL    HW2 1923   0.231   0.195   3.004 -0.1540  0.1045 -0.3722
  642SOL     OW 1924   3.045   1.241   1.223 -0.0747  0.2377  0.1166
  642SOL    HW1 1925   2.966   1.271   1.166  4.0286 -2.2125 -2.2997
  642SOL    HW2 1926   3.078   1.315   1.290 -1.0570  2.5960  0.8057
  643SOL     OW 1927   0.618   1.904   2.184  0.2829 -0.3089 -0.3908
  643SOL    HW1 1928   0.669   1.820   2.161 -0.9943 -0.1021 -0.6251
  643SOL    HW2 1929   0.679   1.984   2.156 -0.5432 -0.4190  0.1952
  644SOL     OW 1930   1.713   2.597   0.704 -0.7649  0.0397  0.0170
  644SOL    HW1 1931   1.737   2.504   0.746 -0.0329 -0.8471 -2.7147
  644SOL    HW2 1932   1.610   2.608   0.706 -0.5538 -1.3034 -0.3604
  645SOL     OW 1933   1.678   2.367   1.153  0.5949  0.0808  0.1068
  645SOL    HW1 1934   1.686   2.340   1.248  1.1667 -0.4371  2.2748
  645SOL    HW2 1935   1.675   2.471   1.154  1.3217  2.0983  0.7783
  646SOL     OW 1936   1.183   2.685   0.388 -0.2276  0.2774 -0.1592
  646SOL    HW1 1937   1.215   2.735   0.310 -2.9692 -1.9027  1.0210
  646SOL    HW2 1938   1.096   2.724   0.417 -0.9807 -1.0379  0.5441
  647SOL     OW 1939   0.273   2.999   1.816 -0.5055  0.0661 -0.7150
  647SOL    HW1 1940   0.193   2.964   1.767 -0.4355 -0.4489 -1.0713
  647SOL    HW2 1941   0.320   2.926   1.868 -0.8608 -4.2626 -0.6939
  648SOL     OW 1942   2.212   0.689   1.020  0.1044 -0.3290 -0.2147
  648SOL    HW1 1943   2.195   0.790   1.024 -1.2896  0.8595 -1.6932
  648SOL    HW2 1944   2.312   0.677   1.013 -2.0779  3.4835 -3.0283
  649SOL     OW 1945   1.976   2.188   2.926 -0.6354 -0.2140 -0.3562
  649SOL    HW1 1946   1.972   2.215   3.024 -1.2588  0.3502  2.1625
  649SOL    HW2 1947   1.933   2.265   2.869 -1.0364 -1.3406 -2.0780
  650SOL     OW 1948   2.687   1.624   1.786  0.2286  0.5573  0.1327
  650SOL    HW1 1949   2.615   1.698   1.770 -2.2039 -0.6474  0.2175
  650SOL    HW2 1950   2.682   1.587   1.881 -0.7300 -1.7229  1.2559
  651SOL     OW 1951   1.627   1.738   2.794  0.5290 -0.7118 -0.6577
  651SOL    HW1 1952   1.697   1.766   2.866  3.4579 -0.5246  2.2282
  651SOL    HW2 1953   1.610   1.818   2.729 -0.2472  1.3366  0.8667
  652SOL     OW 1954   0.835   2.990   2.870  0.2079 -0.0210  0.2845
  652SOL    HW1 1955   0.923   2.944   2.865  2.2745 -1.2914 -1.2836
  652SOL    HW2 1956   0.845   3.092   2.887  0.3127  1.2929  1.2031
  653SOL     OW 1957   2.030   2.294   0.895  0.1701  0.3405 -0.1798
  653SOL    HW1 1958   1.987   2.228   0.962 -0.5178 -2.2371  1.7895
  653SOL    HW2 1959   2.135   2.290   0.901 -0.9790  1.3943 -0.9456
  654SOL     OW 1960   2.656   3.077   2.153 -0.3347 -0.0809 -0.4168
  654SOL    HW1 1961   2.626   3.096   2.249 -0.9591 -0.8795  0.8482
  654SOL    HW2 1962   2.627   0.037   2.084 -1.2035 -0.0585  3.3815
  655SOL     OW 1963   2.831   2.119   1.133  0.0280 -0.2045  0.4492
  655SOL    HW1 1964   2.850   2.192   1.070 -0.5670 -3.7701  1.6076
  655SOL    HW2 1965   2.757   2.146   1.196  0.6200  0.4847  0.7927
  656SOL     OW 1966   2.964   2.230   2.638 -0.1035  0.4472 -0.2945
  656SOL    HW1 1967   3.066   2.204   2.634 -0.0858 -0.1746 -0.9763
  656SOL    HW2 1968   2.916   2.181   2.714  0.4681  2.2104  0.7942
  657SOL     OW 1969   3.040   0.915   0.513  0.5984 -0.2445  0.1481
  657SOL    HW1 1970   2.973   0.980   0.468 -2.5503  0.6340 -1.9918
  657SOL    HW2 1971   0.012   0.904   0.453 -1.5453  1.0828 -1.9576
  658SOL     OW 1972   1.341   1.767   1.086  0.4111 -0.2126 -0.0690
  658SOL    HW1 1973   1.349   1.746   1.186 -1.9008 -0.4026 -0.2671
  658SOL    HW2 1974   1.383   1.859   1.063  0.3654  0.6084 -0.5857
  659SOL     OW 1975   1.414   0.471   1.272  0.0195  0.4767  0.0991
  659SOL    HW1 1976   1.505   0.444   1.298 -4.9162  1.5003 -3.6685
  659SOL    HW2 1977   1.380   0.411   1.195 -1.3345 -0.9819 -0.7655
  660SOL     OW 1978   2.030   1.307   0.777  0.6213 -0.3260  0.0759
  660SOL    HW1 1979   1.949   1.241   0.769 -3.5401  0.4053 -0.5914
  660SOL    HW2 1980   2.000   1.405   0.788  1.8787  1.3795  1.2745
  661SOL     OW 1981   0.459   1.551   0.209 -0.0514  0.0625  0.1437
  661SOL    HW1 1982   0.478   1.449   0.188  0.9569 -1.5765 -1.5995
  661SOL    HW2 1983   0.411   1.564   0.298 -1.6370  1.7959 -0.6404
  662SOL     OW 1984   2.772   1.014   2.018  0.8462  0.4699  1.1955
  662SOL    HW1 1985   2.819   0.946   2.077  1.6414 -0.8490  1.1547
  662SOL    HW2 1986   2.674   1.031   2.048 -0.1308  0.4835  0.2148
  663SOL     OW 1987   2.165   1.328   1.423 -0.2443  0.5826  0.3251
  663SOL    HW1 1988   2.197   1.423   1.412 -0.0643 -0.4008 -1.7129
  663SOL    HW2 1989   2.187   1.288   1.515 -0.6422 -2.3590 -1.3587
  664SOL     OW 1990   0.515   0.136   1.136 -0.3149 -0.5164 -0.2494
  664SOL    HW1 1991   0.442   0.094   1.077  1.6461 -2.0406 -0.6634
  664SOL    HW2 1992   0.607   0.132   1.088  3.5837  3.5990 -1.9512
  665SOL     OW 1993   1.315   0.039   2.892 -0.0689  0.0333  0.4168
  665SOL    HW1 1994   1.389   0.107   2.912 -1.2115 -0.1575 -1.1697
  665SOL    HW2 1995   1.252   0.032   2.971  3.5850  1.3908  1.3197
  666SOL     OW 1996   0.584   0.276   2.222  0.2706  0.1786 -0.0893
  666SOL    HW1 1997   0.561   0.371   2.249 -0.0361 -0.6461  1.3487
  666SOL    HW2 1998   0.681   0.256   2.226  0.2042 -0.4202  0.6163
  667SOL     OW 1999   1.790   1.353   2.165 -0.0850 -0.1780 -0.0229
  667SOL    HW1 2000   1.858   1.355   2.089  2.6785  0.9862  1.0017
  667SOL    HW2 2001   1.810   1.273   2.225 -1.2800  1.6258  0.6586
  668SOL     OW 2002   0.126   1.464   2.500  1.2537 -0.9886  0.2553
  668SOL    HW1 2003   0.044   1.430   2.554 -1.4819  0.8562 -1.2085
  668SOL    HW2 2004   0.217   1.449   2.547  0.0458  0.5412  1.0307
  669SOL     OW 2005   2.287   0.124   2.354  0.5348 -0.4692  0.1981
  669SOL    HW1 2006   2.379   0.099   2.387 -0.5417  2.1311  0.1572
  669SOL    HW2 2007   2.242   0.189   2.416  1.2564 -1.5004 -1.4192
  670SOL     OW 2008   2.750   1.037   2.415 -0.3034  0.5862  0.2025
  670SOL    HW1 2009   2.801   0.967   2.363 -0.2300 -1.1953 -0.5953
  670SOL    HW2 2010   2.683   0.988   2.473 -0.2031 -0.0325 -0.2253
  671SOL     OW 2011   2.667   1.900   0.078 -0.4337 -0.6128  0.1783
  671SOL    HW1 2012   2.701   1.823   0.017 -2.3390 -0.0116 -0.3100
  671SOL    HW2 2013   2.575   1.889   0.111 -1.1781  0.2425 -0.6090
  672SOL     OW 2014   2.040   1.608   2.208 -0.3806  0.3712 -0.6195
  672SOL    HW1 2015   2.098   1.523   2.223  0.3253  2.8975  0.5722
  672SOL    HW2 2016   2.068   1.682   2.275 -3.4178  0.6956 -1.9826
  673SOL     OW 2017   2.730   1.624   1.080  0.1675 -0.0221  0.3007
  673SOL    HW1 2018   2.709   1.603   0.985 -4.8148 -1.1597  2.8778
  673SOL    HW2 2019   2.788   1.708   1.093  0.7013  1.0720 -1.5171
  674SOL     OW 2020   1.133   1.981   1.934  0.2040 -0.3818 -0.4576
  674SOL    HW1 2021   1.180   1.927   2.003 -1.0512  2.7986 -2.5555
  674SOL    HW2 2022   1.034   1.966   1.929  2.7404  0.0458  2.0199
  675SOL     OW 2023   2.871   0.756   0.935  0.3431 -0.2671  0.5444
  675SOL    HW1 2024   2.934   0.792   1.009  0.0908  1.6139 -0.0048
  675SOL    HW2 2025   2.778   0.742   0.973  1.9576 -1.9726 -0.5451
  676SOL     OW 2026   2.949   1.302   0.806 -0.6006 -0.3223 -0.1214
  676SOL    HW1 2027   2.882   1.231   0.820 -0.1130  3.0037  2.8080
  676SOL    HW2 2028   3.047   1.277   0.805 -2.8361  1.9075 -0.5706
  677SOL     OW 2029   1.511   1.625   2.361  0.6340 -0.4686  0.2595
  677SOL    HW1 2030   1.601   1.633   2.319 -2.0206  0.8325  1.2837
  677SOL    HW2 2031   1.445   1.586   2.293  0.1117 -1.5636  0.9538
  678SOL     OW 2032   2.645   1.319   0.919  0.2375 -0.0174  0.1942
  678SOL    HW1 2033   2.649   1.387   0.837 -1.0359  1.5512 -0.7920
  678SOL    HW2 2034   2.722   1.339   0.985  0.3420 -0.0912  0.2952
  679SOL     OW 2035   0.500   2.282   1.028  0.1907  0.1142  0.0320
  679SOL    HW1 2036   0.517   2.367   0.975 -0.9903  0.5828  0.9399
  679SOL    HW2 2037   0.554   2.198   1.002 -2.8789 -0.3885  0.5883
  680SOL     OW 2038   2.898   1.858   1.107 -0.1645 -0.5261 -0.5803
  680SOL    HW1 2039   2.953   1.858   1.027 -0.2548  2.6004  1.8517
  680SOL    HW2 2040   2.898   1.956   1.138  0.6653  1.5128 -0.5547
  681SOL     OW 2041   1.045   0.636   1.187 -0.3181 -0.4330  0.6232
  681SOL    HW1 2042   0.978   0.677   1.246  1.2710 -0.2450 -3.1259
  681SOL    HW2 2043   1.105   0.582   1.239 -0.4869  0.1283  0.1761
  682SOL     OW 2044   1.614   2.989   1.048  0.4078 -0.3038  0.0531
  682SOL    HW1 2045   1.703   3.010   1.093  2.1601  0.3464  1.3416
  682SOL    HW2 2046   1.546   3.069   1.047 -1.1318  1.6260 -1.0846
  683SOL     OW 2047   2.238   1.256   1.669 -0.2270 -0.3323  0.4513
  683SOL    HW1 2048   2.226   1.338   1.728 -0.3913  0.2961  1.7128
  683SOL    HW2 2049   2.280   1.177   1.720  1.2750  0.5325 -1.0081
  684SOL     OW 2050   0.200   1.823   1.684 -0.0523 -0.0207 -0.0416
  684SOL    HW1 2051   0.120   1.809   1.750 -2.0751 -1.4774  1.7610
  684SOL    HW2 2052   0.277   1.759   1.707  1.1562 -0.3560 -0.6801
  685SOL     OW 2053   1.973   1.696   0.166 -0.2914  0.3657  0.1139
  685SOL    HW1 2054   2.013   1.795   0.160  2.8607  1.2828  1.3031
  685SOL    HW2 2055   1.881   1.693   0.122  0.9424  0.9618  1.2526
  686SOL     OW 2056   2.614   0.162   0.867 -0.3404 -0.2090 -0.2923
  686SOL    HW1 2057   2.680   0.220   0.822 -2.3696 -0.5912  1.6222
  686SOL    HW2 2058   2.606   0.077   0.813  0.3608 -0.9704  1.2947
  687SOL     OW 2059   1.668   3.104   2.706  0.3700 -0.6136 -0.2510
  687SOL    HW1 2060   1.645   3.009   2.736  0.4209  0.2599  3.2029
  687SOL    HW2 2061   1.719   0.042   2.777 -2.4777 -0.7242  0.5264
  688SOL     OW 2062   1.337   2.183   2.281 -0.0380  0.2297 -0.2841
  688SOL    HW1 2063   1.392   2.106   2.250 -2.9677  3.9997  0.8357
  688SOL    HW2 2064   1.269   2.219   2.214 -0.2540 -3.5412 -0.8727
  689SOL     OW 2065   2.512   1.332   1.801 -0.5695  0.1156 -0.5442
  689SOL    HW1 2066   2.444   1.400   1.781  1.4052 -1.8851 -0.5243
  689SOL    HW2 2067   2.580   1.370   1.869  2.3022  1.1445  0.9986
  690SOL     OW 2068   1.760   1.972   1.244 -0.3259  0.2276 -0.3377
  690SOL    HW1 2069   1.694   1.934   1.174  0.4261 -1.0319 -0.4374
  690SOL    HW2 2070   1.820   1.894   1.272 -0.3471 -2.2657  1.3409
  691SOL     OW 2071   0.280   1.377   0.598 -0.0068 -0.9026  0.2567
  691SOL    HW1 2072   0.271   1.306   0.526 -0.9932 -0.6414  3.2987
  691SOL    HW2 2073   0.205   1.362   0.668  1.6291  2.0264  0.8324
  692SOL     OW 2074   2.244   2.995   2.210 -0.0887 -0.0250  0.2370
  692SOL    HW1 2075   2.247   2.925   2.283 -1.7724 -1.4122 -0.7394
  692SOL    HW2 2076   2.306   3.068   2.228 -2.9563 -2.2688  1.5641
  693SOL     OW 2077   0.031   1.484   2.233  0.5357 -0.0413  0.4505
  693SOL    HW1 2078   3.044   1.451   2.230  1.3428 -2.2368 -0.5212
  693SOL    HW2 2079   0.056   1.484   2.328 -3.6934 -1.2872 -4.4068
  694SOL     OW 2080   2.244   0.203   1.569  0.2645  0.2519  0.6879
  694SOL    HW1 2081   2.142   0.192   1.578 -3.4482 -0.5634 -1.2515
  694SOL    HW2 2082   2.293   0.228   1.654 -1.5307 -0.1777 -3.1616
  695SOL     OW 2083   1.047   0.980   2.829 -0.3409 -0.0286 -0.4912
  695SOL    HW1 2084   1.058   0.897   2.890  0.7288 -0.2209  0.2035
  695SOL    HW2 2085   1.141   1.014   2.806 -2.6737 -3.3776  1.3365
  696SOL     OW 2086   1.783   0.137   1.893  0.0893  0.0201  0.3081
  696SOL    HW1 2087   1.830   0.229   1.884 -2.0966  2.5655 -1.9088
  696SOL    HW2 2088   1.687   0.136   1.858  1.6478 -0.5537  0.6817
  697SOL     OW 2089   1.612   0.113   2.124 -0.1946  0.3186 -0.0904
  697SOL    HW1 2090   1.658   0.186   2.180 -2.4433  0.3959  0.2964
  697SOL    HW2 2091   1.657   0.109   2.032 -0.2436  1.0062  0.0398
  698SOL     OW 2092   1.762   1.584   2.304 -0.3401 -0.3044 -0.3712
  698SOL    HW1 2093   1.848   1.612   2.349  0.7040  1.8322 -0.7361
  698SOL    HW2 2094   1.778   1.512   2.233 -1.5943 -2.0978  3.1536
  699SOL     OW 2095   2.105   0.668   0.254  0.6971  0.0857  0.0398
  699SOL    HW1 2096   2.010   0.654   0.291 -0.8973 -1.9840  0.6437
  699SOL    HW2 2097   2.139   0.753   0.291  0.3450 -3.4077 -2.6761
  700SOL     OW 2098   1.272   0.329   0.534  0.5173  0.0198 -0.1693
  700SOL    HW1 2099   1.176   0.361   0.518 -0.0313 -0.5719 -0.0025
  700SOL    HW2 2100   1.285   0.233   0.499 -0.2604 -1.8029 -0.4427
  701SOL     OW 2101   0.196   0.455   0.903  0.1477  0.1683 -0.1893
  701SOL    HW1 2102   0.130   0.395   0.954 -0.8653  1.6759 -0.9419
  701SOL    HW2 2103   0.146   0.520   0.841 -0.1671  0.9180 -0.5990
  702SOL     OW 2104   1.890   0.069   1.557 -0.1995 -0.0868 -0.5135
  702SOL    HW1 2105   1.817   0.098   1.494 -0.8007  0.5769  0.1127
  702SOL    HW2 2106   1.900   3.082   1.573 -0.6895  0.6717  0.8099
  703SOL     OW 2107   2.801   1.001   1.517  0.2479 -0.6986  0.1656
  703SOL    HW1 2108   2.862   0.978   1.441 -1.2012 -0.8580 -0.4585
  703SOL    HW2 2109   2.713   1.018   1.469 -0.8879  0.1456 -0.4834
  704SOL     OW 2110   0.614   2.684   1.445  0.4593 -0.1489 -0.2350
  704SOL    HW1 2111   0.653   2.746   1.375 -0.0551 -2.5801 -0.5394
  704SOL    HW2 2112   0.568   2.603   1.404  2.7810  0.2031  2.3412
  705SOL     OW 2113   0.394   1.438   2.562 -0.0522  1.2686 -0.4887
  705SOL    HW1 2114   0.413   1.528   2.527  1.2877 -1.6671  1.6525
  705SOL    HW2 2115   0.471   1.400   2.622  0.2816 -1.2184  1.4898
  706SOL     OW 2116   2.921   0.294   0.091 -0.5288 -0.4285 -0.4760
  706SOL    HW1 2117   2.911   0.203   0.133 -1.3579 -1.3788  1.8913
  706SOL    HW2 2118   2.960   0.289   3.108  1.7229 -0.6742 -0.2055
  707SOL     OW 2119   1.620   2.639   2.361  0.2781  0.5866  0.0002
  707SOL    HW1 2120   1.580   2.682   2.277 -1.8879  2.5286 -1.6143
  707SOL    HW2 2121   1.577   2.544   2.370  1.0608 -1.2198  1.7689
  708SOL     OW 2122   0.166   2.504   1.776 -0.5060 -0.0797  0.0609
  708SOL    HW1 2123   0.201   2.504   1.873  1.3727  2.4431  2.5590
  708SOL    HW2 2124   0.101   2.428   1.780  1.3150 -0.2729 -1.0372
  709SOL     OW 2125   0.242   0.920   1.917  0.8119 -0.3801 -0.4176
  709SOL    HW1 2126   0.153   0.951   1.882  2.0208  1.4665  2.1087
  709SOL    HW2 2127   0.250   0.818   1.933  0.3436 -1.9450  0.7483
  710SOL     OW 2128   3.041   0.848   1.138  0.1892  0.2490  0.3695
  710SOL    HW1 2129   3.109   0.775   1.151  0.9700  0.6671  0.6011
  710SOL    HW2 2130   3.039   0.905   1.224  2.0958  2.1189  3.8612
  711SOL     OW 2131   3.073   2.666   1.118  0.1360  0.1156  0.5245
  711SOL    HW1 2132   3.089   2.608   1.195 -2.1844  2.3239 -1.9850
  711SOL    HW2 2133   2.994   2.636   1.054  1.4784  0.0731 -1.1005
  712SOL     OW 2134   0.283   3.068   2.456 -0.3622  0.0180 -0.6076
  712SOL    HW1 2135   0.225   3.070   2.540 -0.5756  0.7121 -1.5283
  712SOL    HW2 2136   0.303   2.969   2.442 -0.4694  0.6436  1.3172
  713SOL     OW 2137   2.500   0.104   0.440 -0.2328 -0.3319 -0.1504
  713SOL    HW1 2138   2.421   0.164   0.468  1.3454  0.8994  0.0428
  713SOL    HW2 2139   2.561   0.168   0.389 -1.4725 -1.3750 -1.1466
  714SOL     OW 2140   1.696   1.661   0.116  0.0413 -0.3409 -0.0453
  714SOL    HW1 2141   1.661   1.719   0.194  0.8283  0.8905  1.2033
  714SOL    HW2 2142   1.723   1.571   0.150 -1.4613  2.3938 -3.0312
  715SOL     OW 2143   0.053   0.183   0.591 -0.1381  0.1123  0.4735
  715SOL    HW1 2144   0.041   0.088   0.570  1.4610  2.3857  2.3380
  715SOL    HW2 2145   0.018   0.198   0.684  1.0586  0.2951  2.1994
  716SOL     OW 2146   1.042   0.536   1.852 -0.4368 -0.2151  0.0604
  716SOL    HW1 2147   1.128   0.495   1.822  0.3629 -0.4797 -0.0943
  716SOL    HW2 2148   1.037   0.530   1.952  1.7513  1.8956  0.2950
  717SOL     OW 2149   0.671   0.552   2.850 -0.4645  0.1632  0.3130
  717SOL    HW1 2150   0.577   0.523   2.871 -0.7971  0.6564 -1.6285
  717SOL    HW2 2151   0.684   0.654   2.868 -0.9012 -1.1202  1.3834
  718SOL     OW 2152   1.065   0.679   0.106  0.1424  0.5473 -0.1502
  718SOL    HW1 2153   1.080   0.779   0.121  0.2523  0.0263 -0.2289
  718SOL    HW2 2154   1.153   0.635   0.089 -1.0928  1.5421  0.1516
  719SOL     OW 2155   2.624   2.489   2.659  0.3395 -0.9316  0.3103
  719SOL    HW1 2156   2.644   2.420   2.728 -1.9784  0.1520 -1.5924
  719SOL    HW2 2157   2.578   2.458   2.569  2.0358  0.2242  0.5373
  720SOL     OW 2158   1.434   0.725   1.347  0.3325  0.5492  0.2621
  720SOL    HW1 2159   1.406   0.734   1.443 -0.9294  1.5111 -0.5867
  720SOL    HW2 2160   1.413   0.625   1.320  0.2200 -0.4593 -0.0229
  721SOL     OW 2161   2.772   2.911   1.081 -0.2039  0.0827 -0.3419
  721SOL    HW1 2162   2.845   2.976   1.042  0.2966 -3.2627  0.3835
  721SOL    HW2 2163   2.816   2.843   1.141 -0.1679 -1.0868 -0.4531
  722SOL     OW 2164   1.144   1.709   2.841 -0.3581  0.3858  0.2545
  722SOL    HW1 2165   1.138   1.617   2.888 -0.9002 -1.5786  2.5809
  722SOL    HW2 2166   1.157   1.776   2.920 -0.6399  1.5785 -0.8837
  723SOL     OW 2167   2.333   0.201   0.920  0.0746  0.2426 -0.0850
  723SOL    HW1 2168   2.303   0.134   0.851  2.2143 -0.2311 -0.4682
  723SOL    HW2 2169   2.436   0.206   0.921  1.9928 -1.3015  0.0570
  724SOL     OW 2170   0.734   2.088   0.119  0.2460  0.5825  0.1398
  724SOL    HW1 2171   0.793   2.034   0.180 -0.2164  0.3345  0.2171
  724SOL    HW2 2172   0.762   2.184   0.118 -1.4376 -0.7036 -0.2091
  725SOL     OW 2173   0.264   0.914   1.210  0.2851  0.6422 -0.1301
  725SOL    HW1 2174   0.305   0.978   1.139  1.9170  1.3445  0.7630
  725SOL    HW2 2175   0.320   0.915   1.291 -2.4064  0.3797 -0.9116
  726SOL     OW 2176   2.530   0.575   0.292 -0.0194  0.6496  0.0786
  726SOL    HW1 2177   2.532   0.623   0.380  1.0602 -2.1016 -2.4496
  726SOL    HW2 2178   2.591   0.631   0.236 -1.1907  2.1657 -0.1125
  727SOL     OW 2179   1.902   1.169   2.645 -0.1556  0.5274  0.5481
  727SOL    HW1 2180   1.940   1.193   2.735  1.4879  2.9225 -0.8815
  727SOL    HW2 2181   1.911   1.064   2.631 -2.3980 -2.3052 -0.2657
  728SOL     OW 2182   1.708   3.029   1.400 -0.6033 -0.3280  0.1013
  728SOL    HW1 2183   1.793   2.974   1.406 -0.0029 -0.1518  0.4735
  728SOL    HW2 2184   1.624   2.984   1.441 -1.4421 -0.9859 -0.6083
  729SOL     OW 2185   2.388   0.887   2.271 -0.0651  1.2208  0.4574
  729SOL    HW1 2186   2.438   0.837   2.345 -0.9593 -0.9915 -0.8427
  729SOL    HW2 2187   2.337   0.960   2.311  4.0428 -5.4674 -0.8076
  730SOL     OW 2188   1.075   0.811   1.475 -0.3682  0.5598 -0.6526
  730SOL    HW1 2189   0.982   0.802   1.426 -0.9503 -0.4871 -2.0988
  730SOL    HW2 2190   1.127   0.895   1.446 -0.1057  0.4068 -2.2136
  731SOL     OW 2191   0.588   0.568   0.145 -0.0048  0.4755 -0.7633
  731SOL    HW1 2192   0.683   0.591   0.172  2.0782 -2.0917 -0.3937
  731SOL    HW2 2193   0.547   0.630   0.078 -0.1680  0.8567  1.9239
  732SOL     OW 2194   0.353   0.516   0.277 -0.6885 -0.0328 -0.0709
  732SOL    HW1 2195   0.433   0.549   0.221 -2.2364 -2.4595  1.6995
  732SOL    HW2 2196   0.367   0.420   0.312  0.3941 -0.8550  1.2771
  733SOL     OW 2197   1.970   1.526   2.722  0.1991  0.1467 -0.1904
  733SOL    HW1 2198   1.880   1.477   2.723  0.9874  1.0021 -0.0003
  733SOL    HW2 2199   1.993   1.565   2.814  2.4407  0.8500 -1.8607
  734SOL     OW 2200   0.133   1.889   2.643 -0.5391 -0.2623 -0.1507
  734SOL    HW1 2201   0.123   1.864   2.739  2.6795  2.5116 -3.4269
  734SOL    HW2 2202   0.107   1.988   2.634 -2.1768 -0.0323  0.4146
  735SOL     OW 2203   1.889   0.455   1.207 -0.9177  0.0986  0.5609
  735SOL    HW1 2204   1.974   0.422   1.155 -0.3010 -0.0607  0.2063
  735SOL    HW2 2205   1.894   0.431   1.306  2.1918 -0.6257 -0.6453
  736SOL     OW 2206   1.783   1.820   3.010 -0.2022 -0.0652 -0.4617
  736SOL    HW1 2207   1.725   1.757   3.073  0.8314 -0.6788 -1.3535
  736SOL    HW2 2208   1.757   1.919   3.027 -2.0562  2.4164 -1.3832
  737SOL     OW 2209   3.100   0.368   0.413 -0.1196 -0.2624  0.2282
  737SOL    HW1 2210   0.053   0.445   0.418  1.1325  0.0349 -0.0225
  737SOL    HW2 2211   0.016   0.304   0.486  2.1855  3.3587 -1.5264
  738SOL     OW 2212   0.508   2.148   1.800 -0.3208  0.2980 -0.5002
  738SOL    HW1 2213   0.473   2.229   1.748  0.8415  0.8622 -0.6116
  738SOL    HW2 2214   0.545   2.077   1.738 -2.1650 -0.8652  0.8057
  739SOL     OW 2215   1.279   2.691   2.003 -0.1627  0.0978  0.0356
  739SOL    HW1 2216   1.256   2.647   1.913  3.2998 -0.7124  1.3748
  739SOL    HW2 2217   1.231   2.649   2.081 -2.2312  1.1995 -1.8510
  740SOL     OW 2218   2.020   2.497   1.482  0.1001 -0.0119 -0.2413
  740SOL    HW1 2219   1.975   2.412   1.510  3.5502  1.5903  2.0930
  740SOL    HW2 2220   2.103   2.509   1.538 -1.1941  0.0539 -1.8155
  741SOL     OW 2221   2.301   0.453   0.218 -0.1121 -0.4891  0.0216
  741SOL    HW1 2222   2.397   0.490   0.240  2.3632 -1.1107  0.2187
  741SOL    HW2 2223   2.227   0.527   0.211  2.5401  1.8544 -0.7291
  742SOL     OW 2224   1.083   2.268   0.173 -0.4455  0.4204 -0.4557
  742SOL    HW1 2225   1.100   2.166   0.158  0.4820  0.2311 -0.4673
  742SOL    HW2 2226   1.079   2.315   0.082 -0.3005  0.1622  0.2571
  743SOL     OW 2227   2.510   1.021   2.069 -0.3448  0.0461  0.3434
  743SOL    HW1 2228   2.485   0.962   2.149 -0.0120 -2.1897  2.7805
  743SOL    HW2 2229   2.429   1.055   2.020 -0.6037  1.6740 -0.5486
  744SOL     OW 2230   2.780   0.346   0.720  0.1407 -0.0218 -0.2930
  744SOL    HW1 2231   2.769   0.324   0.619 -0.6975  1.1047  1.5977
  744SOL    HW2 2232   2.839   0.425   0.738 -3.0813  1.7787 -1.7856
  745SOL     OW 2233   2.441   1.077   1.745  0.0974  0.0568  0.0820
  745SOL    HW1 2234   2.499   0.997   1.751 -0.4391  3.8872  0.0609
  745SOL    HW2 2235   2.497   1.165   1.761  0.3659  4.8861 -0.5235
  746SOL     OW 2236   1.484   1.303   0.877  0.0260  0.1433  0.2796
  746SOL    HW1 2237   1.466   1.405   0.865 -0.0544 -0.1472 -1.1057
  746SOL    HW2 2238   1.392   1.254   0.883  1.2351 -1.1871  1.8527
  747SOL     OW 2239   1.244   1.793   1.601 -0.0556  0.1494  0.1415
  747SOL    HW1 2240   1.269   1.861   1.672  2.4630 -3.2997  0.5362
  747SOL    HW2 2241   1.239   1.706   1.652 -1.2654 -1.4173 -0.5783
  748SOL     OW 2242   0.227   2.896   2.974  0.9348  1.0424  0.1093
  748SOL    HW1 2243   0.309   2.939   3.017 -0.9886 -0.5120  0.7397
  748SOL    HW2 2244   0.167   2.859   3.054 -0.4072 -2.1537  3.1477
  749SOL     OW 2245   0.333   1.165   2.559  0.4029  0.2378  0.1599
  749SOL    HW1 2246   0.390   1.122   2.484 -0.5118 -0.7102  2.8074
  749SOL    HW2 2247   0.358   1.264   2.570  2.5313  1.3330  2.9401
  750SOL     OW 2248   1.897   0.905   2.002 -0.3586  0.3584 -0.3268
  750SOL    HW1 2249   1.939   0.813   1.975 -0.9168 -2.5896  0.1915
  750SOL    HW2 2250   1.792   0.898   1.997 -3.3090 -0.0092  0.8161
  751SOL     OW 2251   2.601   0.292   0.281  0.1927  0.5017 -0.3837
  751SOL    HW1 2252   2.602   0.241   0.192 -2.5179 -0.1028 -2.7834
  751SOL    HW2 2253   2.585   0.393   0.259  0.1841  1.7327 -1.6501
  752SOL     OW 2254   0.133   2.424   0.861 -0.0004 -0.4346 -0.2075
  752SOL    HW1 2255   0.154   2.364   0.939 -1.1880 -4.1124 -0.6174
  752SOL    HW2 2256   0.186   2.511   0.861  0.6251  0.8133 -0.0495
  753SOL     OW 2257   0.749   2.448   1.125  0.6318 -0.2631 -0.1506
  753SOL    HW1 2258   0.801   2.369   1.086  2.7348 -0.7430 -0.1782
  753SOL    HW2 2259   0.683   2.490   1.060 -0.0468  0.7810 -0.5078
  754SOL     OW 2260   0.037   2.966   1.682  0.1840 -0.4446 -0.2049
  754SOL    HW1 2261   3.064   3.018   1.689  1.6935  2.0103  0.1983
  754SOL    HW2 2262   0.022   2.866   1.671 -2.0697 -0.8197  1.0630
  755SOL     OW 2263   2.318   0.315   0.457 -0.0550  0.4348 -0.3829
  755SOL    HW1 2264   2.309   0.371   0.369 -1.8031 -2.4326  0.8457
  755SOL    HW2 2265   2.321   0.377   0.540 -0.5020  2.5521  2.3015
  756SOL     OW 2266   2.185   2.396   2.636 -0.5844  0.1112 -0.0797
  756SOL    HW1 2267   2.237   2.390   2.727 -1.5723 -0.2219  3.5231
  756SOL    HW2 2268   2.162   2.495   2.610  1.2610  3.5668 -0.9283
  757SOL     OW 2269   1.968   0.316   0.583 -0.0887  0.6110 -0.4065
  757SOL    HW1 2270   2.033   0.254   0.538 -0.3467 -1.6252 -2.4645
  757SOL    HW2 2271   2.011   0.368   0.655 -1.1304 -2.0761 -0.9350
  758SOL     OW 2272   2.258   0.347   1.334 -0.2614  0.2018 -0.1914
  758SOL    HW1 2273   2.358   0.363   1.315  3.1942 -1.0883 -0.0261
  758SOL    HW2 2274   2.249   0.276   1.411  0.5361 -0.5200  0.6333
  759SOL     OW 2275   2.495   0.611   1.054  0.2922  1.2094 -0.1340
  759SOL    HW1 2276   2.565   0.670   1.099 -0.9699  3.1423 -1.0652
  759SOL    HW2 2277   2.515   0.594   0.955 -1.1673 -2.4736  0.0068
  760SOL     OW 2278   2.267   1.198   1.176  0.2832  0.5029  0.3656
  760SOL    HW1 2279   2.216   1.237   1.255  1.6161  1.6380 -0.4563
  760SOL    HW2 2280   2.363   1.188   1.203 -2.3379  1.1182 -0.9453
  761SOL     OW 2281   0.681   0.632   0.457 -1.0358  0.0048 -0.4093
  761SOL    HW1 2282   0.737   0.660   0.371  0.6379  1.5298 -0.7175
  761SOL    HW2 2283   0.605   0.698   0.463  2.1020 -1.9038  1.0050
  762SOL     OW 2284   0.992   1.876   0.765 -0.1073  0.2345 -0.1618
  762SOL    HW1 2285   0.913   1.838   0.827 -1.7246 -2.2908  1.9628
  762SOL    HW2 2286   0.971   1.961   0.710  0.2912  1.1419  1.7612
  763SOL     OW 2287   1.228   1.042   1.459  0.1144 -0.3683  0.2608
  763SOL    HW1 2288   1.276   1.057   1.364  1.2092 -0.2489 -1.0124
  763SOL    HW2 2289   1.271   1.110   1.520 -0.5894  0.6410 -1.6369
  764SOL     OW 2290   0.390   1.708   2.719  0.3125 -0.0046 -0.0266
  764SOL    HW1 2291   0.418   1.687   2.621  2.4717  0.5923  2.8970
  764SOL    HW2 2292   0.295   1.741   2.730  0.3869 -0.5215  1.0413
  765SOL     OW 2293   0.559   2.812   1.681  0.4108  0.0306  0.1027
  765SOL    HW1 2294   0.560   2.758   1.590 -0.7748  2.5263 -1.6135
  765SOL    HW2 2295   0.647   2.864   1.709  1.8195  0.3967 -0.0522
  766SOL     OW 2296   2.563   1.974   2.271  0.6161  0.3645 -0.1438
  766SOL    HW1 2297   2.641   1.906   2.293  1.4218 -1.8617  0.5614
  766SOL    HW2 2298   2.580   2.067   2.307  2.7252 -2.6052 -1.3693
  767SOL     OW 2299   1.506   1.093   2.458  0.1522 -0.1762  0.1821
  767SOL    HW1 2300   1.466   0.997   2.482  0.3331 -0.6474  1.0486
  767SOL    HW2 2301   1.454   1.177   2.495 -1.3412  1.3722 -0.3549
  768SOL     OW 2302   1.623   1.842   0.313 -0.4030 -0.7213 -0.1402
  768SOL    HW1 2303   1.677   1.835   0.397 -1.6333  0.1025  0.9615
  768SOL    HW2 2304   1.636   1.937   0.274 -0.9228 -2.9578  1.1027
  769SOL     OW 2305   0.445   1.592   1.318  0.1273  0.3524  0.1023
  769SOL    HW1 2306   0.422   1.491   1.301 -1.6444 -0.2237  0.5387
  769SOL    HW2 2307   0.372   1.650   1.266 -0.5013  0.3030 -0.3743
  770SOL     OW 2308   1.516   0.899   2.949  0.1539 -0.2004  0.4145
  770SOL    HW1 2309   1.479   0.994   2.933 -1.4542  2.8797 -0.7094
  770SOL    HW2 2310   1.557   0.865   2.862 -1.0939  1.8176 -2.4501
  771SOL     OW 2311   0.102   2.948   2.142 -0.1158  0.4710 -0.5296
  771SOL    HW1 2312   0.079   2.883   2.215  0.0242  0.6053 -0.2003
  771SOL    HW2 2313   0.192   2.919   2.105 -0.7388  0.7230  1.3596
  772SOL     OW 2314   2.106   1.958   1.774  0.1714  0.4503 -0.7614
  772SOL    HW1 2315   2.141   1.947   1.868  2.0930  0.0831 -0.0056
  772SOL    HW2 2316   2.028   1.892   1.763 -0.0230 -0.8597 -0.5054
  773SOL     OW 2317   0.570   1.663   1.567  0.2894 -0.1028 -0.2201
  773SOL    HW1 2318   0.659   1.615   1.584 -0.7888  0.3877  1.0967
  773SOL    HW2 2319   0.519   1.623   1.490  2.4977 -1.6085  1.1612
  774SOL     OW 2320   1.303   0.732   2.954 -0.0856  0.0961 -0.1009
  774SOL    HW1 2321   1.373   0.803   2.969  1.3385 -2.3347  0.3806
  774SOL    HW2 2322   1.284   0.675   3.037 -0.7324  0.1489 -0.2202
  775SOL     OW 2323   1.933   2.873   2.973  0.0026 -0.0104 -0.0500
  775SOL    HW1 2324   1.912   2.976   2.970  1.0185  1.4114 -0.4706
  775SOL    HW2 2325   1.929   2.832   3.067 -1.6183  2.1864  0.5644
  776SOL     OW 2326   0.204   0.639   1.937 -0.5528 -0.5827  0.0107
  776SOL    HW1 2327   0.115   0.591   1.952 -1.3887 -1.0787  1.0117
  776SOL    HW2 2328   0.267   0.616   2.020  1.9479 -3.5876  0.9713
  777SOL     OW 2329   2.259   1.974   1.998 -0.4396 -0.3653 -0.4174
  777SOL    HW1 2330   2.207   1.995   2.081 -0.9677 -1.4903 -2.3592
  777SOL    HW2 2331   2.308   2.053   1.960 -0.9086 -2.9640  0.4728
  778SOL     OW 2332   1.988   1.033   2.222  0.0710 -0.1875 -0.1054
  778SOL    HW1 2333   1.915   1.089   2.269 -1.4092 -0.9600  0.5534
  778SOL    HW2 2334   1.953   0.974   2.145  2.8790 -2.5351  3.7445
  779SOL     OW 2335   2.533   1.171   0.216  0.1752 -0.0126  0.4066
  779SOL    HW1 2336   2.504   1.267   0.232  0.0165  0.4464 -1.2765
  779SOL    HW2 2337   2.482   1.129   0.137  0.4373 -0.3152 -1.7189
  780SOL     OW 2338   2.774   0.409   2.639  0.1233 -0.3082 -0.5341
  780SOL    HW1 2339   2.745   0.406   2.736 -0.6128  2.3793  0.2052
  780SOL    HW2 2340   2.754   0.326   2.585 -0.4561  1.1241  0.6699
  781SOL     OW 2341   0.138   2.098   1.638 -0.0775  0.3268  0.1990
  781SOL    HW1 2342   0.171   2.135   1.547 -0.0154  0.7241  1.6745
  781SOL    HW2 2343   0.171   2.001   1.655 -2.3304 -1.2349 -0.3313
  782SOL     OW 2344   2.390   2.347   2.846  0.4348 -0.2645  0.5018
  782SOL    HW1 2345   2.330   2.402   2.910 -0.2871  1.1517 -1.4023
  782SOL    HW2 2346   2.483   2.380   2.841 -2.2351 -2.6233 -1.2532
  783SOL     OW 2347   0.573   1.340   1.250 -0.0143  0.2168  0.2403
  783SOL    HW1 2348   0.646   1.269   1.256  0.5620  0.5180  0.0838
  783SOL    HW2 2349   0.608   1.421   1.202 -1.3176 -1.2436  0.3563
  784SOL     OW 2350   2.049   0.851   2.835  0.3756  0.0687  0.2889
  784SOL    HW1 2351   2.076   0.759   2.813  1.0480  2.6392  0.2861
  784SOL    HW2 2352   2.028   0.857   2.931 -0.8491 -3.1775 -0.6185
  785SOL     OW 2353   2.326   2.461   0.804 -0.3867  0.1772 -0.6865
  785SOL    HW1 2354   2.363   2.452   0.712  2.0096  1.1445 -0.2400
  785SOL    HW2 2355   2.236   2.509   0.803  0.4096  0.8236  2.0879
  786SOL     OW 2356   0.546   2.227   2.270  0.2378 -0.3367  0.2651
  786SOL    HW1 2357   0.514   2.192   2.360 -3.1895  1.6763  1.0323
  786SOL    HW2 2358   0.644   2.252   2.275 -2.5772 -1.5811 -0.7780
  787SOL     OW 2359   1.406   0.899   1.117  0.3152  0.1393 -0.4081
  787SOL    HW1 2360   1.408   0.834   1.194  0.7012  0.6606 -2.0377
  787SOL    HW2 2361   1.480   0.872   1.057 -0.4008  0.2547 -0.5250
  788SOL     OW 2362   0.167   0.589   0.443  0.0057 -0.2417  0.3913
  788SOL    HW1 2363   0.243   0.546   0.389  0.5622 -0.1714 -2.1790
  788SOL    HW2 2364   0.170   0.686   0.417  1.5174 -0.2413  3.4218
  789SOL     OW 2365   3.056   2.011   1.347 -0.1942 -0.3211  0.3927
  789SOL    HW1 2366   2.956   2.014   1.358 -1.5619  0.8041  0.5260
  789SOL    HW2 2367   3.094   2.107   1.330  0.0284  1.4470  1.8945
  790SOL     OW 2368   1.342   0.831   1.837  0.6211 -1.2630  0.1031
  790SOL    HW1 2369   1.332   0.777   1.923 -0.9377 -0.9889 -3.1740
  790SOL    HW2 2370   1.312   0.929   1.840 -0.8087 -0.3883  2.1151
  791SOL     OW 2371   1.625   0.571   0.564  0.0896 -0.2410 -0.0438
  791SOL    HW1 2372   1.588   0.524   0.483 -2.1049  0.5930 -0.2348
  791SOL    HW2 2373   1.588   0.530   0.649 -0.7207  1.5805 -1.2750
  792SOL     OW 2374   1.582   2.922   1.890  0.0258 -0.0360 -0.3694
  792SOL    HW1 2375   1.492   2.928   1.940  0.3731 -1.4659 -0.7420
  792SOL    HW2 2376   1.577   2.854   1.816 -0.3149  1.7104 -1.5587
  793SOL     OW 2377   0.668   0.038   0.715  0.5795  0.0692 -0.0299
  793SOL    HW1 2378   0.729   0.117   0.713 -3.1453  2.8300 -0.8070
  793SOL    HW2 2379   0.572   0.065   0.734 -0.8352  0.2840 -0.8498
  794SOL     OW 2380   0.786   1.096   2.131  0.5451 -0.8894  0.5248
  794SOL    HW1 2381   0.724   1.069   2.053 -0.6596 -0.2638 -1.4213
  794SOL    HW2 2382   0.816   1.191   2.131  1.0663 -0.0749  0.1045
  795SOL     OW 2383   0.282   1.894   2.401 -0.1912  0.3112  0.0929
  795SOL    HW1 2384   0.227   1.951   2.340  0.4662 -0.8188 -1.8104
  795SOL    HW2 2385   0.238   1.883   2.490 -0.0462  2.2202 -0.6491
  796SOL     OW 2386   2.405   1.291   2.102  0.4846 -0.8556  0.2562
  796SOL    HW1 2387   2.467   1.266   2.178  0.3948 -0.4844 -0.7312
  796SOL    HW2 2388   2.463   1.314   2.023  1.4185 -1.2123 -0.5644
  797SOL     OW 2389   2.937   2.689   2.834 -0.1708  0.3336  0.1864
  797SOL    HW1 2390   3.037   2.668   2.854  2.4300  1.2186  2.1677
  797SOL    HW2 2391   2.917   2.678   2.736  3.3492  0.5763 -0.7264
  798SOL     OW 2392   2.947   2.270   2.250  0.8034  0.4987 -0.2692
  798SOL    HW1 2393   3.028   2.272   2.187  0.7100  0.0963 -0.2587
  798SOL    HW2 2394   2.968   2.212   2.331  0.4430  0.4427  0.9292
  799SOL     OW 2395   0.185   2.135   2.966  0.4629  0.0394  0.5607
  799SOL    HW1 2396   0.116   2.060   2.947 -1.7866 -5.6386 -1.9066
  799SOL    HW2 2397   0.264   2.109   3.018 -3.5091 -2.2901 -2.4211
  800SOL     OW 2398   1.380   1.850   0.215  0.3834 -0.7129  0.1022
  800SOL    HW1 2399   1.305   1.800   0.271  0.0645 -2.1556 -1.6929
  800SOL    HW2 2400   1.465   1.848   0.263 -1.0752  1.9917 -0.1938
  801SOL     OW 2401   1.880   1.370   1.491 -0.0158 -0.1215  0.1754
  801SOL    HW1 2402   1.870   1.359   1.591 -0.7471  1.2456  0.3498
  801SOL    HW2 2403   1.980   1.363   1.463  0.4486 -0.8983  0.3967
  802SOL     OW 2404   3.030   1.326   0.240  0.2821 -0.2520 -0.1859
  802SOL    HW1 2405   3.058   1.303   0.338  1.2895  0.2905  1.6487
  802SOL    HW2 2406   2.936   1.292   0.217  0.1815 -2.4298 -1.1020
  803SOL     OW 2407   1.589   1.965   2.639 -0.5539 -0.0661 -0.1190
  803SOL    HW1 2408   1.644   1.940   2.554  1.4877  0.8968 -0.5421
  803SOL    HW2 2409   1.491   1.970   2.610 -0.4429  2.1856  0.4733
  804SOL     OW 2410   1.819   1.435   0.239 -0.9652 -0.9578 -0.6644
  804SOL    HW1 2411   1.771   1.414   0.325 -0.4799 -2.2407 -0.8252
  804SOL    HW2 2412   1.922   1.432   0.247  2.4396 -1.9033 -0.7299
  805SOL     OW 2413   2.499   1.707   2.544 -0.2721 -0.6614  0.2381
  805SOL    HW1 2414   2.445   1.701   2.457 -1.1389  0.7957  1.0533
  805SOL    HW2 2415   2.562   1.785   2.544  0.4173  0.9980  1.5191
  806SOL     OW 2416   0.334   2.994   0.227  0.3746  0.8528  0.4579
  806SOL    HW1 2417   0.343   3.093   0.219  0.7020 -0.3311  1.8403
  806SOL    HW2 2418   0.388   2.950   0.298 -2.0538  2.1895 -0.9633
  807SOL     OW 2419   2.011   1.479   3.083  0.3404  0.5096  0.0908
  807SOL    HW1 2420   2.023   1.536   3.000 -3.8555 -0.0576  1.2155
  807SOL    HW2 2421   1.983   1.531   0.054 -0.4344  0.5199 -0.3143
  808SOL     OW 2422   3.015   1.587   0.516 -0.2525 -0.2323  0.1830
  808SOL    HW1 2423   3.027   1.497   0.472 -0.6184 -0.2091  1.3629
  808SOL    HW2 2424   2.973   1.653   0.452  3.3112 -2.7365  1.8617
  809SOL     OW 2425   2.402   1.125   3.103  0.8973  0.1491 -0.0105
  809SOL    HW1 2426   2.349   1.034   3.103 -2.4111 -1.6355  1.4372
  809SOL    HW2 2427   2.339   1.204   3.093  0.0043  0.6208 -0.9734
  810SOL     OW 2428   0.465   1.308   0.122  0.4447  0.2741  0.6835
  810SOL    HW1 2429   0.547   1.264   0.075  2.0845  0.4761 -0.9172
  810SOL    HW2 2430   0.397   1.240   0.152  1.1218  3.2820 -1.1757
  811SOL     OW 2431   1.346   2.502   1.557  0.0244 -0.5148  0.3652
  811SOL    HW1 2432   1.378   2.533   1.462  0.2003 -3.1071  0.7917
  811SOL    HW2 2433   1.424   2.486   1.622  1.1952 -0.3629  1.9574
  812SOL     OW 2434   0.833   2.564   1.810  0.2994  0.2313 -0.3568
  812SOL    HW1 2435   0.777   2.517   1.735 -2.7600 -2.0390  2.0093
  812SOL    HW2 2436   0.897   2.637   1.779  0.9674 -1.8414  0.1699
  813SOL     OW 2437   1.344   0.257   2.036  0.2643 -0.4631  0.8553
  813SOL    HW1 2438   1.439   0.215   2.036 -1.6399  2.3198 -0.3146
  813SOL    HW2 2439   1.270   0.199   2.079 -1.9915 -1.3712  2.0416
  814SOL     OW 2440   1.328   2.451   2.683 -0.1961  0.2802 -0.1267
  814SOL    HW1 2441   1.384   2.444   2.598 -0.1928 -1.2387  2.9935
  814SOL    HW2 2442   1.334   2.366   2.743 -1.7939 -1.5969  0.2641
  815SOL     OW 2443   0.500   0.088   2.018  0.0712  0.7561  0.1635
  815SOL    HW1 2444   0.520   0.163   2.082  2.6521  1.6660 -1.0936
  815SOL    HW2 2445   0.464   0.121   1.934  0.7504 -1.5953  0.1307
  816SOL     OW 2446   2.093   0.427   3.012  0.7428 -0.1035  0.6244
  816SOL    HW1 2447   2.159   0.505   3.025 -1.2222 -1.2808 -1.8817
  816SOL    HW2 2448   2.001   0.468   2.992  0.6761  1.3890  0.3805
  817SOL     OW 2449   2.441   0.427   2.378  0.1308  0.8993  0.1857
  817SOL    HW1 2450   2.413   0.371   2.460  0.9976 -2.2828  1.6101
  817SOL    HW2 2451   2.363   0.472   2.328  0.6837  0.7785 -1.6568
  818SOL     OW 2452   1.785   0.313   0.048 -0.6993  0.4949 -0.5581
  818SOL    HW1 2453   1.828   0.310   0.143  0.0824 -1.9615  0.4555
  818SOL    HW2 2454   1.824   0.386   3.106 -4.2322 -2.0947  0.8651
  819SOL     OW 2455   2.167   1.862   2.771  0.3625 -0.0092  0.2817
  819SOL    HW1 2456   2.112   1.856   2.685 -0.4737 -1.8031  1.1361
  819SOL    HW2 2457   2.209   1.948   2.788 -1.7540 -0.9077  1.0734
  820SOL     OW 2458   3.087   1.873   0.127 -0.4585 -0.5739 -0.2670
  820SOL    HW1 2459   3.035   1.956   0.095 -1.0433  3.2785 -1.9901
  820SOL    HW2 2460   0.067   1.907   0.169  1.1009  0.2365 -1.2089
  821SOL     OW 2461   0.423   2.874   0.803  0.1694 -0.5465 -0.0051
  821SOL    HW1 2462   0.517   2.906   0.836  2.0185  2.3700  0.8806
  821SOL    HW2 2463   0.385   2.928   0.729 -1.1003 -3.4277 -0.6214
  822SOL     OW 2464   2.732   2.866   2.768  0.2180 -0.0105  0.0946
  822SOL    HW1 2465   2.653   2.808   2.787  3.5747  1.0225 -0.7011
  822SOL    HW2 2466   2.815   2.822   2.815  1.1356  2.0688  0.4852
  823SOL     OW 2467   1.404   0.426   2.674  0.3204 -0.3922  0.5258
  823SOL    HW1 2468   1.485   0.384   2.633 -3.3337  1.4397  2.2390
  823SOL    HW2 2469   1.423   0.466   2.766 -0.0883 -0.6581  2.1624
  824SOL     OW 2470   2.644   1.910   1.963 -0.1588 -0.1248 -0.4818
  824SOL    HW1 2471   2.723   1.872   2.019  0.5671 -1.5747  2.1792
  824SOL    HW2 2472   2.582   1.969   2.023 -1.7021 -1.0011 -0.8574
  825SOL     OW 2473   2.812   2.091   2.446  0.3328  0.1688  0.4662
  825SOL    HW1 2474   2.850   2.128   2.530  0.2866 -2.4302  0.6972
  825SOL    HW2 2475   2.777   2.170   2.393 -1.0886 -1.1746  1.0649
  826SOL     OW 2476   2.201   1.393   2.244  0.6632 -0.4923  0.3482
  826SOL    HW1 2477   2.226   1.372   2.345 -0.0992  0.2480  2.0536
  826SOL    HW2 2478   2.271   1.372   2.177  1.9822  0.3890  0.8851
  827SOL     OW 2479   2.271   2.198   1.386  0.3342  0.3067 -0.2053
  827SOL    HW1 2480   2.175   2.222   1.367 -1.5681  0.1332  0.2437
  827SOL    HW2 2481   2.303   2.113   1.337  1.0778  0.9403  4.4160
  828SOL     OW 2482   3.054   3.087   1.308  0.0549  0.3485  0.2643
  828SOL    HW1 2483   2.981   0.050   1.329 -0.0241  1.9345 -1.2515
  828SOL    HW2 2484   0.033   0.011   1.343 -0.3530 -0.7033 -0.0341
  829SOL     OW 2485   1.718   2.255   2.127  0.0085 -0.5398 -0.3102
  829SOL    HW1 2486   1.631   2.211   2.157 -0.8045 -1.8309  0.6366
  829SOL    HW2 2487   1.707   2.355   2.094  0.0383  2.2744  0.9987
  830SOL     OW 2488   1.309   0.523   0.732  0.3984  0.2214  0.0283
  830SOL    HW1 2489   1.404   0.514   0.763 -1.0437 -1.0577 -1.8747
  830SOL    HW2 2490   1.294   0.466   0.647  1.9138 -1.4642 -0.2317
  831SOL     OW 2491   2.675   1.351   2.837 -0.4007  0.0700  0.2107
  831SOL    HW1 2492   2.770   1.343   2.867  2.1727  1.4529 -2.0059
  831SOL    HW2 2493   2.665   1.400   2.747  0.2875  0.0719 -0.4298
  832SOL     OW 2494   1.557   2.033   1.912  0.3196 -0.1635 -0.1304
  832SOL    HW1 2495   1.516   2.121   1.946 -0.1046 -1.9010  0.0823
  832SOL    HW2 2496   1.650   2.041   1.875 -3.1372  0.4742 -1.7155
  833SOL     OW 2497   0.148   0.197   1.838  0.1351  0.2454 -0.0608
  833SOL    HW1 2498   0.087   0.236   1.911  0.6522  0.6727 -0.0240
  833SOL    HW2 2499   0.128   0.100   1.822  1.8332 -0.4557 -0.9061
  834SOL     OW 2500   0.958   1.219   1.689 -0.4253 -0.0716 -0.1134
  834SOL    HW1 2501   0.926   1.263   1.602  0.3389  1.3826  2.1362
  834SOL    HW2 2502   0.963   1.115   1.682 -0.4813  3.6484 -0.0429
  835SOL     OW 2503   2.825   0.936   2.928 -0.2036 -0.2057  0.1887
  835SOL    HW1 2504   2.752   1.004   2.914  2.8148 -0.4922 -2.2613
  835SOL    HW2 2505   2.810   0.856   2.866 -0.9627  0.3477  1.8046
  836SOL     OW 2506   1.364   1.585   0.554  0.1249 -0.2669  0.5112
  836SOL    HW1 2507   1.306   1.631   0.482 -0.1609  0.9859 -0.2400
  836SOL    HW2 2508   1.417   1.653   0.608  0.5755  1.5194  0.3009
  837SOL     OW 2509   1.722   1.556   1.053 -0.1136  0.0448  0.3048
  837SOL    HW1 2510   1.747   1.506   1.137 -1.4347 -1.1968 -1.2383
  837SOL    HW2 2511   1.624   1.550   1.038  1.5781  0.8010  0.7839
  838SOL     OW 2512   0.999   1.663   2.480  0.4774 -0.2684  0.6188
  838SOL    HW1 2513   1.093   1.655   2.514 -1.2174  3.7031 -0.5320
  838SOL    HW2 2514   0.970   1.762   2.465  0.5054 -2.1666 -1.4662
  839SOL     OW 2515   0.695   2.176   2.593 -0.2435  0.4558 -0.4710
  839SOL    HW1 2516   0.683   2.250   2.660  0.2842  2.1210 -1.1145
  839SOL    HW2 2517   0.604   2.136   2.564 -0.3374 -0.2644  0.6844
  840SOL     OW 2518   0.635   2.444   0.390 -0.2556 -0.2829  0.5511
  840SOL    HW1 2519   0.663   2.520   0.450 -1.1743 -3.2958  0.9216
  840SOL    HW2 2520   0.719   2.402   0.350  1.2368 -0.5937 -2.5010
  841SOL     OW 2521   1.878   2.528   0.079  0.6779  0.2216 -0.2397
  841SOL    HW1 2522   1.892   2.424   0.081  0.0864 -1.8688  0.2959
  841SOL    HW2 2523   1.967   2.580   0.075 -0.5911 -0.8012  0.0676
  842SOL     OW 2524   0.696   0.818   2.860 -0.3942  0.5414  0.1954
  842SOL    HW1 2525   0.695   0.901   2.801  2.1008  0.2423  0.5252
  842SOL    HW2 2526   0.794   0.803   2.882 -1.0135 -1.2975  0.8783
  843SOL     OW 2527   1.408   0.179   0.765  0.4259  0.3914  0.0741
  843SOL    HW1 2528   1.415   0.086   0.803 -2.3618  0.9020  1.3199
  843SOL    HW2 2529   1.322   0.189   0.704 -2.4995  0.5045 -1.6405
  844SOL     OW 2530   2.805   3.021   2.570  0.2029  0.4404  0.4401
  844SOL    HW1 2531   2.900   3.000   2.546 -0.3260  0.8855 -2.3614
  844SOL    HW2 2532   2.776   2.953   2.640 -0.4802 -1.3659  1.6246
  845SOL     OW 2533   2.800   2.316   0.940  0.7549 -0.1580 -0.3288
  845SOL    HW1 2534   2.807   2.397   0.880 -1.4796 -3.0290  1.3250
  845SOL    HW2 2535   2.714   2.319   0.999 -1.5291  1.1966 -0.7074
  846SOL     OW 2536   3.016   1.793   2.509 -0.0456 -0.5081 -0.4036
  846SOL    HW1 2537   2.955   1.721   2.550 -2.1811  0.7398  0.0951
  846SOL    HW2 2538   3.096   1.812   2.569  1.1542  0.2179 -1.0881
  847SOL     OW 2539   1.323   0.734   1.591  0.4008  0.0863  0.0173
  847SOL    HW1 2540   1.236   0.759   1.546  0.5404  0.9457  0.5542
  847SOL    HW2 2541   1.333   0.774   1.684  1.0634  0.2028  0.9340
  848SOL     OW 2542   2.608   3.048   2.988 -0.0920  0.0809  0.1504
  848SOL    HW1 2543   2.580   3.005   3.077  0.8595 -0.3391  0.7214
  848SOL    HW2 2544   2.700   3.012   2.960 -0.2510  0.4721  2.3144
  849SOL     OW 2545   0.597   2.972   2.785 -0.0751 -0.1155  0.4055
  849SOL    HW1 2546   0.547   2.959   2.869  1.4338 -2.6629 -4.2042
  849SOL    HW2 2547   0.700   2.976   2.801  0.5331 -1.8465  0.3551
  850SOL     OW 2548   1.146   2.625   1.061  0.3218 -0.0582 -0.6219
  850SOL    HW1 2549   1.092   2.585   1.137  1.3233  0.6188 -3.0392
  850SOL    HW2 2550   1.221   2.681   1.092  0.1701  1.4901 -1.2940
  851SOL     OW 2551   2.859   0.324   2.288  0.3680 -0.0922  0.3489
  851SOL    HW1 2552   2.902   0.401   2.340 -0.0006  0.4536 -1.7399
  851SOL    HW2 2553   2.911   0.312   2.204 -0.3577  1.1196  5.9450
  852SOL     OW 2554   2.221   1.061   2.382 -0.1790 -0.3552 -0.5091
  852SOL    HW1 2555   2.135   1.051   2.330  2.2783 -0.0517 -0.7557
  852SOL    HW2 2556   2.212   1.018   2.476 -2.7543 -1.8794  1.4702
  853SOL     OW 2557   2.890   0.027   0.448  0.1431 -0.3241 -0.1535
  853SOL    HW1 2558   2.892   0.130   0.467  1.7422 -1.1920 -0.8704
  853SOL    HW2 2559   2.871   3.080   0.529 -0.6404  1.9953 -0.0405
  854SOL     OW 2560   2.113   0.966   1.826  0.0513  0.4053  0.0861
  854SOL    HW1 2561   2.031   0.938   1.885 -2.6957 -0.2547 -1.1788
  854SOL    HW2 2562   2.132   1.062   1.844 -0.8582 -1.8723  0.7589
  855SOL     OW 2563   1.283   2.411   0.301 -0.4227 -0.2917 -0.0605
  855SOL    HW1 2564   1.208   2.373   0.237 -1.2388 -0.0727  1.3351
  855SOL    HW2 2565   1.254   2.495   0.351  2.7597  0.0805  1.3763
  856SOL     OW 2566   0.044   0.257   2.567 -0.2871  0.1447 -0.8032
  856SOL    HW1 2567   3.097   0.198   2.511 -1.1006  1.8387  1.0811
  856SOL    HW2 2568   0.052   0.211   2.660  0.3083 -2.6998  1.1282
  857SOL     OW 2569   1.260   3.100   1.733  0.0736 -0.1144  0.1049
  857SOL    HW1 2570   1.165   0.025   1.760 -1.7478  1.1742 -0.0889
  857SOL    HW2 2571   1.284   3.030   1.798 -1.1461  2.7721 -1.6566
  858SOL     OW 2572   2.264   2.140   1.657  0.0276  0.3213 -0.0453
  858SOL    HW1 2573   2.249   2.158   1.559  1.6643 -0.1356 -2.2309
  858SOL    HW2 2574   2.204   2.060   1.685 -0.4298 -0.4546 -0.0747
  859SOL     OW 2575   1.002   2.512   1.242  0.2626  0.9198 -0.6552
  859SOL    HW1 2576   0.903   2.482   1.229  0.9274 -1.2686  0.6695
  859SOL    HW2 2577   1.034   2.475   1.330 -0.4249 -0.8230 -3.5256
  860SOL     OW 2578   2.364   2.699   3.045  0.3411  0.7214  0.5678
  860SOL    HW1 2579   2.432   2.704   2.968 -0.9381 -0.4163 -0.8296
  860SOL    HW2 2580   2.322   2.604   3.052 -0.8807  1.0414  0.4569
  861SOL     OW 2581   2.154   2.879   0.975  0.0503 -0.0296  0.0450
  861SOL    HW1 2582   2.088   2.955   0.966  1.9202 -2.9414  1.1133
  861SOL    HW2 2583   2.206   2.879   1.063  1.5927 -0.5552  0.2598
  862SOL     OW 2584   1.841   2.939   2.275 -0.5845 -0.9284 -0.1595
  862SOL    HW1 2585   1.877   2.890   2.359 -1.2715  2.2884  2.0117
  862SOL    HW2 2586   1.902   3.017   2.267 -0.9979 -0.1606  0.3007
  863SOL     OW 2587   0.101   0.610   0.695  0.4221 -0.1664  0.8372
  863SOL    HW1 2588   0.102   0.708   0.712 -1.6428  0.3073 -0.9885
  863SOL    HW2 2589   0.108   0.602   0.591 -1.8319  1.0683 -1.4779
  864SOL     OW 2590   0.077   2.577   2.118  0.4860 -0.5843  0.3822
  864SOL    HW1 2591   0.066   2.476   2.113 -1.9827 -0.4488  3.0558
  864SOL    HW2 2592   0.170   2.598   2.146 -1.9335  0.8573 -0.1863
  865SOL     OW 2593   0.582   1.348   2.758  0.0164 -0.0407  0.2855
  865SOL    HW1 2594   0.554   1.421   2.828 -1.2610 -1.0319  1.5284
  865SOL    HW2 2595   0.600   1.257   2.799 -1.4757  4.2402  0.0532
  866SOL     OW 2596   2.871   0.708   2.724  0.3543  0.0256  0.3496
  866SOL    HW1 2597   2.940   0.764   2.676 -0.2703  1.4965 -0.6329
  866SOL    HW2 2598   2.920   0.634   2.773 -0.9194  2.0860 -0.3188
  867SOL     OW 2599   0.114   2.995   2.696 -0.0774  0.3876  0.3005
  867SOL    HW1 2600   0.169   2.971   2.778  0.6061  0.8225 -2.5409
  867SOL    HW2 2601   0.027   3.049   2.722 -1.3102  1.5503  0.5012
  868SOL     OW 2602   1.411   2.951   0.738  0.0029  0.1408 -0.3190
  868SOL    HW1 2603   1.491   3.006   0.765 -1.3576  1.3637 -1.0910
  868SOL    HW2 2604   1.417   2.926   0.644  0.5146  1.1725  1.1457
  869SOL     OW 2605   1.461   1.573   0.902  0.2630  0.3769 -0.1008
  869SOL    HW1 2606   1.455   1.621   0.813 -2.2866  0.6906  0.9131
  869SOL    HW2 2607   1.435   1.636   0.972  2.3768 -2.4380  0.4412
  870SOL     OW 2608   2.077   1.927   1.188  0.2200 -0.1275 -0.3335
  870SOL    HW1 2609   2.094   1.920   1.090  2.0407 -1.1230  1.9060
  870SOL    HW2 2610   2.019   1.850   1.219 -2.5121 -0.5665 -2.3586
  871SOL     OW 2611   0.874   1.767   1.742  0.2340  0.2455 -0.2511
  871SOL    HW1 2612   0.886   1.849   1.693 -0.2582 -1.7104  1.2293
  871SOL    HW2 2613   0.858   1.683   1.682  0.4121  2.2382  2.1765
  872SOL     OW 2614   0.947   1.356   1.433  0.3868 -0.0776  0.0526
  872SOL    HW1 2615   1.037   1.387   1.398 -0.0927 -0.5525  0.4457
  872SOL    HW2 2616   0.910   1.292   1.365 -0.7604  0.3098  0.3062
  873SOL     OW 2617   1.239   1.134   2.723 -0.2020 -0.3423 -0.0073
  873SOL    HW1 2618   1.278   1.187   2.648 -1.0944  0.5269 -0.2655
  873SOL    HW2 2619   1.284   1.151   2.815 -1.7438  0.6570  1.5774
  874SOL     OW 2620   3.050   1.621   1.498 -0.2721 -0.1485  0.9899
  874SOL    HW1 2621   2.969   1.655   1.452  1.0537 -0.0538  1.8660
  874SOL    HW2 2622   0.018   1.688   1.493  1.0508 -0.6046 -0.7667
  875SOL     OW 2623   2.814   2.977   0.667  0.3272  0.0462 -0.2278
  875SOL    HW1 2624   2.722   3.011   0.684  2.8694 -1.0178  0.8155
  875SOL    HW2 2625   2.798   2.875   0.661 -1.9993 -0.5958  0.6307
  876SOL     OW 2626   0.951   0.730   2.968  0.3881 -0.1873  0.2681
  876SOL    HW1 2627   0.995   0.681   2.891 -1.0862  0.0944  1.8728
  876SOL    HW2 2628   0.980   0.691   3.057  1.7852  0.5503  2.1139
  877SOL     OW 2629   0.018   0.304   1.059 -0.1529  0.3069  0.1194
  877SOL    HW1 2630   3.060   0.297   1.134 -2.0762 -2.4368  0.3817
  877SOL    HW2 2631   0.072   0.214   1.052  0.2582 -2.9909 -0.3259
  878SOL     OW 2632   1.628   2.485   3.090  0.0052  0.0244  0.6067
  878SOL    HW1 2633   1.709   2.528   0.024  1.1538 -0.5315  2.3642
  878SOL    HW2 2634   1.594   2.412   0.047  0.2954  0.2066  1.7604
  879SOL     OW 2635   2.263   1.733   1.572 -0.2880 -0.2413  0.3247
  879SOL    HW1 2636   2.285   1.699   1.666  0.6433 -0.5070 -1.0819
  879SOL    HW2 2637   2.331   1.801   1.537 -0.3308 -0.8464  0.2122
  880SOL     OW 2638   0.702   0.587   1.546  0.2183 -0.1793 -0.4040
  880SOL    HW1 2639   0.804   0.583   1.567  1.4705  1.5474 -0.2609
  880SOL    HW2 2640   0.644   0.574   1.630 -1.1338  1.4716  1.5928
  881SOL     OW 2641   0.928   1.842   0.005 -0.0304  0.3351 -0.5555
  881SOL    HW1 2642   0.921   1.742   3.092 -2.3322  2.7823 -2.4245
  881SOL    HW2 2643   0.874   1.897   3.049  2.7334 -1.6140 -0.3042
  882SOL     OW 2644   2.114   0.716   1.529  0.4848  0.0322  0.6014
  882SOL    HW1 2645   2.175   0.748   1.601 -1.5425  0.7504  2.3502
  882SOL    HW2 2646   2.160   0.679   1.447  0.5439  1.1318  1.0597
  883SOL     OW 2647   1.463   0.467   2.169  0.4540  0.6248 -0.4673
  883SOL    HW1 2648   1.541   0.426   2.221 -2.4366  1.0875 -0.6651
  883SOL    HW2 2649   1.412   0.389   2.128  0.0788  1.3330 -1.3708
  884SOL     OW 2650   2.545   0.196   0.023 -0.0487  0.3277  0.7588
  884SOL    HW1 2651   2.444   0.207   0.020  0.0774  2.3031  1.1291
  884SOL    HW2 2652   2.576   0.105   3.091 -0.5883 -1.9269 -1.3006
  885SOL     OW 2653   0.443   2.083   0.531  0.0478 -0.3210  0.2218
  885SOL    HW1 2654   0.405   2.132   0.448 -2.1492  3.8160 -0.5573
  885SOL    HW2 2655   0.369   2.044   0.589 -0.8688 -1.3660 -0.8995
  886SOL     OW 2656   1.691   1.295   0.066  0.8289  0.0517 -0.7184
  886SOL    HW1 2657   1.628   1.250   0.135 -0.9096 -2.4136  2.4166
  886SOL    HW2 2658   1.764   1.349   0.117  1.3450 -1.0387 -2.9652
  887SOL     OW 2659   1.482   0.504   1.666  0.1590  0.0709  0.4289
  887SOL    HW1 2660   1.555   0.544   1.726  2.2045 -0.5051 -0.3545
  887SOL    HW2 2661   1.423   0.575   1.620  0.1684 -0.1168  1.9549
  888SOL     OW 2662   2.938   1.232   1.568  0.0747  0.4419 -0.0137
  888SOL    HW1 2663   2.948   1.239   1.670 -0.7599 -0.3522  0.1168
  888SOL    HW2 2664   2.896   1.144   1.540 -1.8347  1.1655  0.5965
  889SOL     OW 2665   3.044   2.597   0.844 -0.5273 -0.3540 -0.1619
  889SOL    HW1 2666   3.067   2.696   0.848 -1.4623  3.0581  0.0670
  889SOL    HW2 2667   0.017   2.536   0.858  0.9290 -0.6616  1.1136
  890SOL     OW 2668   0.263   2.385   2.546 -0.1564  0.0786  0.2008
  890SOL    HW1 2669   0.355   2.427   2.552 -0.0334 -0.2267 -0.7297
  890SOL    HW2 2670   0.195   2.449   2.580 -0.8621  1.7695  0.4546
  891SOL     OW 2671   0.465   1.813   0.205 -0.5589  0.0573  0.6957
  891SOL    HW1 2672   0.533   1.858   0.264  1.0005 -0.3089 -0.1892
  891SOL    HW2 2673   0.467   1.711   0.199 -1.2586 -2.4443 -1.1772
  892SOL     OW 2674   2.906   2.363   1.368 -0.4446  0.6118 -0.0173
  892SOL    HW1 2675   2.887   2.409   1.460  0.5934  0.9713  0.2529
  892SOL    HW2 2676   2.850   2.278   1.356 -0.9919 -2.2148 -0.1073
  893SOL     OW 2677   0.341   2.966   1.457 -0.1229 -0.2821 -0.8176
  893SOL    HW1 2678   0.275   3.046   1.472 -0.2791 -0.5376 -0.4331
  893SOL    HW2 2679   0.338   2.902   1.534  0.5007 -1.8934 -1.5440
  894SOL     OW 2680   2.675   1.575   0.793  0.1509 -0.5693  0.1221
  894SOL    HW1 2681   2.613   1.663   0.790 -0.0626  2.7785  1.7433
  894SOL    HW2 2682   2.698   1.545   0.697  0.6793  1.1502  0.1890
  895SOL     OW 2683   2.302   2.573   1.629 -0.6999 -0.3081  0.0147
  895SOL    HW1 2684   2.220   2.556   1.681 -0.2754  1.8559 -4.9383
  895SOL    HW2 2685   2.387   2.536   1.668  1.4150  1.8059 -0.1946
  896SOL     OW 2686   0.926   0.183   1.287 -0.3023 -0.3141 -0.1690
  896SOL    HW1 2687   0.848   0.248   1.299 -3.8035 -1.3603  1.4592
  896SOL    HW2 2688   0.989   0.178   1.368 -0.0983 -1.2451  2.9201
  897SOL     OW 2689   0.665   1.578   1.047 -0.2270  0.4694 -0.4627
  897SOL    HW1 2690   0.574   1.598   1.012  1.4243 -1.0821 -0.6903
  897SOL    HW2 2691   0.688   1.634   1.129  1.4454 -0.0629  0.0801
  898SOL     OW 2692   1.603   2.731   1.671  0.1377 -0.4850 -0.3192
  898SOL    HW1 2693   1.552   2.645   1.695  2.1829  1.5096  2.1844
  898SOL    HW2 2694   1.698   2.713   1.640 -2.6812 -0.2104  2.9247
  899SOL     OW 2695   1.180   0.348   2.793  0.2810 -0.0015  0.1412
  899SOL    HW1 2696   1.264   0.379   2.745  0.5212 -0.2134 -0.1038
  899SOL    HW2 2697   1.117   0.293   2.737  1.4091 -0.8848 -1.0962
  900SOL     OW 2698   1.217   2.626   1.759  0.5180  0.1941  0.7025
  900SOL    HW1 2699   1.262   2.583   1.678  0.4279  0.7958 -0.2956
  900SOL    HW2 2700   1.142   2.692   1.733  0.4282  1.3159 -1.6768
  901SOL     OW 2701   0.879   1.910   0.293  0.7585 -0.0065  0.2044
  901SOL    HW1 2702   0.962   1.949   0.347  2.3606  0.8346  3.0310
  901SOL    HW2 2703   0.911   1.877   0.201 -1.7439 -1.5922  0.4557
  902SOL     OW 2704   1.681   1.123   0.956 -0.6114 -0.1888 -0.0193
  902SOL    HW1 2705   1.757   1.127   0.886 -1.0084  0.7738 -0.7793
  902SOL    HW2 2706   1.617   1.201   0.939  2.2723  0.6829  0.5452
  903SOL     OW 2707   2.599   1.110   2.914  0.2807 -0.2844 -0.5106
  903SOL    HW1 2708   2.616   1.207   2.882  0.8221 -1.4801  0.2144
  903SOL    HW2 2709   2.547   1.113   3.004  1.0964 -0.5916 -0.3151
  904SOL     OW 2710   1.076   1.285   0.249 -0.3398  0.4297 -0.5789
  904SOL    HW1 2711   1.062   1.383   0.232 -1.2645 -0.3453 -0.5143
  904SOL    HW2 2712   1.062   1.254   0.343  1.3016  0.8856 -1.6126
  905SOL     OW 2713   1.749   0.101   1.211  0.3371 -0.3673  0.0320
  905SOL    HW1 2714   1.705   0.191   1.236  0.7348 -3.0283  2.3234
  905SOL    HW2 2715   1.723   0.031   1.283  0.8349 -1.3308  0.7608
  906SOL     OW 2716   2.458   2.619   0.985 -0.4640 -0.2823 -0.3798
  906SOL    HW1 2717   2.494   2.717   0.973  1.7192  1.3232 -0.4506
  906SOL    HW2 2718   2.413   2.575   0.906 -0.0713  3.1733 -1.3029
  907SOL     OW 2719   1.522   0.806   0.534  0.0898 -0.8279 -0.2569
  907SOL    HW1 2720   1.580   0.733   0.569  0.2609 -0.1250 -0.0674
  907SOL    HW2 2721   1.469   0.849   0.610  0.4409  0.6717 -2.4766
  908SOL     OW 2722   1.757   0.176   0.951  0.1108 -0.7937  0.4015
  908SOL    HW1 2723   1.749   0.276   0.947  1.1115  0.4920  1.7965
  908SOL    HW2 2724   1.765   0.144   1.048  0.7476 -0.2727 -1.0116
  909SOL     OW 2725   2.215   0.610   1.298  0.4602 -0.1686 -0.1956
  909SOL    HW1 2726   2.182   0.629   1.205 -0.9832  1.4343  3.1490
  909SOL    HW2 2727   2.235   0.510   1.314  0.2784 -2.4691 -1.9431
  910SOL     OW 2728   2.274   0.698   2.088 -0.0926  0.1187  0.0880
  910SOL    HW1 2729   2.204   0.726   2.017 -2.4249  0.2794 -0.3702
  910SOL    HW2 2730   2.311   0.779   2.134 -0.8646 -0.3309 -0.9208
  911SOL     OW 2731   2.351   0.522   2.780 -0.0182 -0.3568 -0.1489
  911SOL    HW1 2732   2.445   0.566   2.769 -2.0645  0.7430  3.5791
  911SOL    HW2 2733   2.331   0.529   2.881  1.1766 -0.5375  1.0520
  912SOL     OW 2734   0.710   1.340   1.795 -0.3546  0.0084  0.5489
  912SOL    HW1 2735   0.786   1.278   1.774  0.5032 -2.3412  0.1745
  912SOL    HW2 2736   0.627   1.308   1.748  1.4861 -1.0429  0.4527
  913SOL     OW 2737   2.808   2.431   1.642  0.2155 -0.6804 -0.4497
  913SOL    HW1 2738   2.823   2.348   1.700 -3.0467  0.7461 -0.2156
  913SOL    HW2 2739   2.869   2.505   1.678  1.4857  0.6557 -0.4566
  914SOL     OW 2740   1.628   0.845   1.907  0.0880  0.1972  0.1880
  914SOL    HW1 2741   1.538   0.888   1.889 -0.3956  2.0549 -1.9225
  914SOL    HW2 2742   1.659   0.783   1.830  2.1109 -0.8347 -0.8108
  915SOL     OW 2743   2.519   0.944   1.116 -0.0172 -0.0852  0.2073
  915SOL    HW1 2744   2.588   0.872   1.121  0.0812  1.3364 -0.4032
  915SOL    HW2 2745   2.560   1.037   1.127  4.8153  0.9392 -1.6605
  916SOL     OW 2746   1.884   2.161   1.079 -0.2565  0.5919  0.0989
  916SOL    HW1 2747   1.820   2.237   1.098 -1.1025  1.8383 -2.0957
  916SOL    HW2 2748   1.855   2.072   1.126 -2.9959 -2.1838  0.6813
  917SOL     OW 2749   1.917   2.275   2.316 -0.4145 -0.5155 -0.1326
  917SOL    HW1 2750   1.835   2.247   2.263 -1.7748  1.0825 -0.1271
  917SOL    HW2 2751   1.956   2.364   2.283  2.0137  1.8019  0.3543
  918SOL     OW 2752   1.822   2.581   2.551 -0.5659  0.0235  0.1121
  918SOL    HW1 2753   1.742   2.601   2.492  4.2064 -1.1537  1.0757
  918SOL    HW2 2754   1.830   2.634   2.641  1.6719 -0.7664  3.1389
  919SOL     OW 2755   1.118   0.185   1.464 -0.6720 -0.1752 -0.0807
  919SOL    HW1 2756   1.191   0.112   1.458  2.5892 -1.0615  0.4821
  919SOL    HW2 2757   1.086   0.201   1.562 -1.9879 -1.5367  0.9915
  920SOL     OW 2758   2.971   0.500   2.457 -0.3961 -0.2579  0.5677
  920SOL    HW1 2759   3.054   0.519   2.508 -1.3278  0.9595 -0.9594
  920SOL    HW2 2760   2.895   0.469   2.511  2.0235 -0.0361 -1.3297
  921SOL     OW 2761   0.022   1.020   1.834  0.0006 -0.0657  0.0103
  921SOL    HW1 2762   0.024   1.114   1.871 -1.3848 -0.5105 -0.2632
  921SOL    HW2 2763   3.039   0.990   1.816  1.5657  0.6583  0.2895
  922SOL     OW 2764   2.288   2.492   0.320  0.4144  0.1551 -0.0401
  922SOL    HW1 2765   2.226   2.566   0.355 -0.6213  2.4455  0.2885
  922SOL    HW2 2766   2.384   2.521   0.300  1.4863 -0.0276  2.2949
  923SOL     OW 2767   0.693   2.092   0.660 -0.0785  0.4063 -0.3519
  923SOL    HW1 2768   0.686   2.077   0.761  0.0838  1.2423  0.4753
  923SOL    HW2 2769   0.602   2.107   0.623  2.1204  2.6352  2.4934
  924SOL     OW 2770   1.179   0.917   0.131  0.2818  0.2029  0.2154
  924SOL    HW1 2771   1.233   0.999   0.092  0.8828  0.0618 -0.4761
  924SOL    HW2 2772   1.131   0.939   0.216  0.9089  0.0339 -2.3897
  925SOL     OW 2773   2.795   1.063   0.853  0.2644  0.4280  0.7484
  925SOL    HW1 2774   2.768   1.001   0.774 -0.8848 -0.8022 -4.2290
  925SOL    HW2 2775   2.721   1.125   0.876  0.1783 -0.3905 -2.0395
  926SOL     OW 2776   0.432   0.335   1.290  0.7794 -0.0204  0.0014
  926SOL    HW1 2777   0.448   0.247   1.248  1.0048  3.3741 -0.0977
  926SOL    HW2 2778   0.332   0.360   1.290 -3.3968 -0.8996 -0.0399
  927SOL     OW 2779   0.688   1.296   2.521  0.3687  0.6450  0.2791
  927SOL    HW1 2780   0.671   1.304   2.622  0.9504 -2.6798  0.5872
  927SOL    HW2 2781   0.613   1.246   2.477 -0.9605 -0.5005  3.1229
  928SOL     OW 2782   0.244   0.616   2.262 -0.0779 -0.2767  0.1163
  928SOL    HW1 2783   0.149   0.656   2.265 -0.1436  2.3611  1.5626
  928SOL    HW2 2784   0.250   0.527   2.311  0.0597  1.4277 -0.3233
  929SOL     OW 2785   2.958   2.834   1.359 -0.2285  0.2510 -0.2781
  929SOL    HW1 2786   3.022   2.768   1.322  1.0120 -0.9942  4.0644
  929SOL    HW2 2787   2.988   2.931   1.333  0.2073  1.0415 -0.3760
  930SOL     OW 2788   1.920   0.451   1.870  0.3851 -0.2609  0.4016
  930SOL    HW1 2789   1.994   0.402   1.809  1.4252 -0.8231 -0.6622
  930SOL    HW2 2790   1.914   0.399   1.959 -1.5569  0.9826 -0.4296
  931SOL     OW 2791   2.265   0.896   0.028 -0.1871  0.2380 -0.2434
  931SOL    HW1 2792   2.169   0.900   3.107 -0.4927 -0.0778 -0.5436
  931SOL    HW2 2793   2.269   0.855   0.118  0.8973 -0.7679 -1.0595
  932SOL     OW 2794   2.150   1.383   0.539  0.4296  0.1020  0.4684
  932SOL    HW1 2795   2.247   1.372   0.569 -1.8936  2.0569 -2.5220
  932SOL    HW2 2796   2.089   1.358   0.615 -1.8725  0.7340  1.9859
  933SOL     OW 2797   2.014   1.514   1.146 -0.2793  1.1288 -0.3487
  933SOL    HW1 2798   2.105   1.542   1.186  1.2889 -0.2558  0.3307
  933SOL    HW2 2799   1.993   1.417   1.163 -1.0373 -0.0819  1.6515
  934SOL     OW 2800   1.921   0.890   2.572  0.0186 -0.6373 -0.1553
  934SOL    HW1 2801   1.987   0.873   2.645  1.2093  0.7283  0.1352
  934SOL    HW2 2802   1.942   0.834   2.486  0.5267 -1.3804  1.1116
  935SOL     OW 2803   0.313   1.065   0.661 -0.0275 -0.3499 -0.0099
  935SOL    HW1 2804   0.309   1.110   0.563 -0.2433  0.6142 -2.0387
  935SOL    HW2 2805   0.244   0.992   0.677  1.6653 -2.2367  1.3424
  936SOL     OW 2806   0.700   2.968   0.896 -0.0020 -0.3426  0.0792
  936SOL    HW1 2807   0.742   3.024   0.969 -1.1431 -2.1162  0.0101
  936SOL    HW2 2808   0.702   3.025   0.805 -1.5050  2.6688 -3.5626
  937SOL     OW 2809   2.889   3.000   1.790  0.3628  0.0886  0.2984
  937SOL    HW1 2810   2.869   2.910   1.749  0.2974  0.6833 -0.8319
  937SOL    HW2 2811   2.887   2.990   1.889 -3.4032 -0.5772 -1.0913
  938SOL     OW 2812   2.924   2.324   0.079 -0.3131 -0.1724  0.1436
  938SOL    HW1 2813   2.915   2.403   0.015 -2.0927 -0.1232  1.1528
  938SOL    HW2 2814   3.018   2.323   0.117  1.5018 -3.4867 -2.1411
  939SOL     OW 2815   1.235   1.484   1.269  0.0703 -0.1388  0.0281
  939SOL    HW1 2816   1.302   1.416   1.298 -1.3407 -0.9725 -0.7196
  939SOL    HW2 2817   1.262   1.577   1.304 -0.0753  0.6852 -0.0694
  940SOL     OW 2818   2.994   0.512   2.885 -0.4108  0.4217 -0.1285
  940SOL    HW1 2819   3.003   0.411   2.880 -1.4609 -0.9114 -1.6579
  940SOL    HW2 2820   2.959   0.551   2.975 -0.5741  1.1884 -1.9918
  941SOL     OW 2821   2.376   0.300   2.611 -0.1455  0.1416  0.3614
  941SOL    HW1 2822   2.427   0.232   2.662 -2.2046  0.0111 -1.0861
  941SOL    HW2 2823   2.336   0.368   2.675  1.3691 -3.3158  1.4174
  942SOL     OW 2824   1.736   0.455   0.978 -0.1301 -0.3042  0.0263
  942SOL    HW1 2825   1.763   0.456   1.079 -1.1849  0.1666  1.3326
  942SOL    HW2 2826   1.745   0.551   0.940 -0.1876 -1.4556  1.4997
  943SOL     OW 2827   1.138   1.298   2.251  0.3739  0.0842  0.0532
  943SOL    HW1 2828   1.179   1.216   2.209 -0.3763 -1.5036 -1.3332
  943SOL    HW2 2829   1.044   1.318   2.218 -2.0456  1.1600 -4.2478
  944SOL     OW 2830   2.007   1.015   1.538  0.0989 -0.0271  0.2711
  944SOL    HW1 2831   1.993   0.914   1.532 -1.3765 -0.9714  0.1564
  944SOL    HW2 2832   2.074   1.039   1.611  0.5066 -0.0623  1.1457
  945SOL     OW 2833   2.989   3.078   2.783  0.4227  0.6178  0.3666
  945SOL    HW1 2834   2.915   3.091   2.716  1.7894  4.9709  0.3860
  945SOL    HW2 2835   2.952   3.046   2.874  0.1798  3.4803 -0.4848
  946SOL     OW 2836   2.976   1.555   1.766 -0.7172 -0.0323  0.0112
  946SOL    HW1 2837   3.030   1.575   1.680  1.2557 -1.2176  1.2385
  946SOL    HW2 2838   2.881   1.587   1.763  0.6655 -1.4848 -0.8133
  947SOL     OW 2839   0.984   2.981   0.126  0.4521 -0.0800 -0.4735
  947SOL    HW1 2840   0.933   2.894   0.115  1.2958 -1.3709 -1.1495
  947SOL    HW2 2841   0.920   3.054   0.154 -1.0937 -0.5035 -0.8967
  948SOL     OW 2842   2.245   1.571   1.288  0.0510  0.0225 -0.5081
  948SOL    HW1 2843   2.228   1.640   1.362 -1.1476  0.3091 -0.1130
  948SOL    HW2 2844   2.340   1.571   1.261 -1.6313  0.4149 -0.2170
  949SOL     OW 2845   0.136   1.130   3.041 -0.1113  0.8117 -0.2625
  949SOL    HW1 2846   0.048   1.101   3.000  0.0936  0.5442  1.4159
  949SOL    HW2 2847   0.221   1.131   2.981  1.3990  2.3645 -2.4622
  950SOL     OW 2848   0.481   2.494   1.306 -0.2537  0.9093 -0.0880
  950SOL    HW1 2849   0.479   2.542   1.217  0.9056 -2.1017  2.2444
  950SOL    HW2 2850   0.497   2.393   1.287 -0.4410 -1.1205 -0.5489
  951SOL     OW 2851   0.731   1.752   2.797 -0.3852  0.0273 -0.2672
  951SOL    HW1 2852   0.785   1.716   2.873 -1.2765 -0.2001 -1.1485
  951SOL    HW2 2853   0.733   1.692   2.715 -1.1823 -1.8225 -1.3809
  952SOL     OW 2854   0.732   1.175   0.436  0.3128 -0.4774 -0.4173
  952SOL    HW1 2855   0.660   1.140   0.501 -1.4371 -0.0134  2.1469
  952SOL    HW2 2856   0.821   1.175   0.481 -1.6463 -1.1636  1.0268
  953SOL     OW 2857   2.310   2.841   2.468 -0.1277  0.2918  0.1320
  953SOL    HW1 2858   2.413   2.844   2.479  1.3020 -1.3688  1.0672
  953SOL    HW2 2859   2.280   2.794   2.553 -0.8411 -0.9265 -0.2610
  954SOL     OW 2860   2.015   0.890   0.836 -0.1154 -0.6271  0.6493
  954SOL    HW1 2861   2.063   0.921   0.923  0.2694 -0.4655  0.8581
  954SOL    HW2 2862   2.073   0.848   0.762  0.2580 -4.0689  1.4444
  955SOL     OW 2863   0.731   1.848   0.504 -0.5071 -0.2990 -0.1037
  955SOL    HW1 2864   0.794   1.862   0.426 -1.9133 -0.1207  2.0561
  955SOL    HW2 2865   0.721   1.940   0.557  1.9019  3.2260  2.2259
  956SOL     OW 2866   2.435   0.454   2.001  0.2978  0.3797  0.3174
  956SOL    HW1 2867   2.367   0.522   2.026 -0.4391 -0.5604 -1.8784
  956SOL    HW2 2868   2.510   0.445   2.068 -2.0550  2.0857 -1.9737
  957SOL     OW 2869   2.007   2.234   1.850 -0.1320  0.2452 -0.4289
  957SOL    HW1 2870   2.054   2.164   1.795 -0.4835  1.6628  0.9125
  957SOL    HW2 2871   1.980   2.190   1.934 -1.1314  0.1453 -1.0818
  958SOL     OW 2872   1.644   1.127   1.268 -0.9020  0.0500 -0.3840
  958SOL    HW1 2873   1.643   1.181   1.181  3.2427  0.7159 -2.3834
  958SOL    HW2 2874   1.567   1.164   1.330 -0.6406  2.4187 -1.0891
  959SOL     OW 2875   1.767   1.816   2.166  0.0912  0.0941  0.4210
  959SOL    HW1 2876   1.799   1.726   2.214  1.8327 -1.0848  0.5056
  959SOL    HW2 2877   1.712   1.796   2.078  1.1345  0.8425 -0.9194
  960SOL     OW 2878   0.801   1.016   2.691  0.1996  0.3192  0.0717
  960SOL    HW1 2879   0.824   1.039   2.596  2.7226 -0.6623 -0.3415
  960SOL    HW2 2880   0.885   1.011   2.750  0.1910 -2.9232  1.2331
  961SOL     OW 2881   3.057   1.049   2.879 -0.0945  0.0944  0.1656
  961SOL    HW1 2882   2.968   1.005   2.906 -1.5025  1.6124  0.4201
  961SOL    HW2 2883   0.000   0.986   2.816  0.4498 -0.1016  0.0863
  962SOL     OW 2884   0.863   1.958   2.643 -0.1591 -0.0733  0.1830
  962SOL    HW1 2885   0.830   1.870   2.688  1.4938  1.1408 -0.0910
  962SOL    HW2 2886   0.793   2.035   2.639 -1.2377  1.1229 -1.3202
  963SOL     OW 2887   2.939   2.061   0.033  0.1239 -0.1188 -0.0969
  963SOL    HW1 2888   2.845   2.022   0.055  2.5709  0.5308  0.2642
  963SOL    HW2 2889   2.933   2.162   0.056  0.2042  1.4344  1.8249
  964SOL     OW 2890   0.872   2.064   2.193  0.0832  0.0230  0.1465
  964SOL    HW1 2891   0.897   2.161   2.171 -2.2576 -2.2530  1.5400
  964SOL    HW2 2892   0.862   2.016   2.102 -0.4101  1.5296 -0.3148
  965SOL     OW 2893   1.897   1.838   0.823  0.2569 -0.4525  0.2310
  965SOL    HW1 2894   1.982   1.891   0.857 -0.4493 -0.9640 -0.7112
  965SOL    HW2 2895   1.908   1.746   0.850  0.2650  3.4713 -2.7443
  966SOL     OW 2896   3.059   1.676   3.057  0.1304 -0.2800 -0.0945
  966SOL    HW1 2897   3.073   1.758   0.011  0.3860 -0.1864  4.1371
  966SOL    HW2 2898   0.002   1.597   3.088 -0.4123 -2.3211 -0.0403
  967SOL     OW 2899   2.003   0.029   2.213 -0.5831 -0.9176 -0.3875
  967SOL    HW1 2900   2.085   3.081   2.204 -1.3921 -0.2380 -2.8610
  967SOL    HW2 2901   1.994   0.094   2.132  2.1339  0.3617 -0.7132
  968SOL     OW 2902   0.825   0.695   0.235  0.1623  0.5186 -0.2775
  968SOL    HW1 2903   0.777   0.786   0.232 -1.9437 -0.2817 -0.0173
  968SOL    HW2 2904   0.917   0.696   0.183  2.7308  1.9949 -0.9888
  969SOL     OW 2905   0.493   1.584   2.205  0.6620 -0.2768 -0.3587
  969SOL    HW1 2906   0.565   1.547   2.140 -0.1723  1.7860 -2.1959
  969SOL    HW2 2907   0.470   1.520   2.282  1.4832  2.3986 -1.5646
  970SOL     OW 2908   1.936   2.646   1.277 -0.0161 -0.2949 -0.2211
  970SOL    HW1 2909   1.961   2.605   1.184 -1.6226  0.0104 -0.4986
  970SOL    HW2 2910   1.959   2.582   1.353 -0.2797 -1.4697 -0.3424
  971SOL     OW 2911   1.939   2.277   0.632  0.3140  0.2014 -0.2343
  971SOL    HW1 2912   1.953   2.288   0.734 -1.1954  0.9565 -1.0278
  971SOL    HW2 2913   2.032   2.261   0.590  2.6945  1.3874  1.2887
  972SOL     OW 2914   0.083   1.101   2.479  0.1788 -0.4181  0.1153
  972SOL    HW1 2915   0.092   1.084   2.379 -0.6582 -0.4977  0.2390
  972SOL    HW2 2916   0.170   1.135   2.517 -0.2507  0.9088 -1.4728
  973SOL     OW 2917   0.380   0.137   0.234 -0.0591 -0.0812 -0.2072
  973SOL    HW1 2918   0.385   0.189   0.322  2.0644  0.5551  2.7849
  973SOL    HW2 2919   0.428   0.181   0.155 -4.3593 -0.9173  1.7576
  974SOL     OW 2920   2.628   0.728   2.000 -0.2803  0.2147  0.1317
  974SOL    HW1 2921   2.664   0.673   2.078 -1.4983  2.8787  0.7878
  974SOL    HW2 2922   2.589   0.813   2.040 -1.2082  1.7620 -1.7719
  975SOL     OW 2923   0.030   3.030   0.532  0.6258  0.1695 -0.6376
  975SOL    HW1 2924   3.066   3.069   0.476  3.0543  0.5957 -1.4910
  975SOL    HW2 2925   0.026   2.927   0.523 -1.6867 -2.0938 -0.3403
  976SOL     OW 2926   0.233   1.708   1.204  0.1658 -0.0940 -0.4196
  976SOL    HW1 2927   0.171   1.742   1.282 -4.4563  1.0883 -0.3153
  976SOL    HW2 2928   0.176   1.662   1.131  1.8273  2.7608  1.4295
  977SOL     OW 2929   1.189   1.696   0.363  0.3475 -0.0218  0.3620
  977SOL    HW1 2930   1.113   1.651   0.313 -0.8716 -0.4708 -0.4783
  977SOL    HW2 2931   1.154   1.762   0.428  0.6251 -1.0552  0.9928
  978SOL     OW 2932   0.155   0.850   0.337  0.1177  0.1719  0.2539
  978SOL    HW1 2933   0.112   0.849   0.245 -0.5680 -1.3013  0.5485
  978SOL    HW2 2934   0.239   0.912   0.338  3.5582 -1.0346  0.2679
  979SOL     OW 2935   1.784   1.571   0.693  0.5552 -0.7794  0.6377
  979SOL    HW1 2936   1.864   1.575   0.756  1.6094  1.1492  0.0791
  979SOL    HW2 2937   1.705   1.599   0.751 -0.1351  0.3939  1.0391
  980SOL     OW 2938   0.412   1.988   2.037  0.4584  0.1389  0.2761
  980SOL    HW1 2939   0.482   1.952   2.101  1.5575 -0.6600 -2.4057
  980SOL    HW2 2940   0.456   2.053   1.972  1.3077 -1.3242 -0.6793
  981SOL     OW 2941   2.087   1.228   2.834 -0.0851  0.2005 -0.8579
  981SOL    HW1 2942   2.140   1.198   2.917 -0.7660 -1.4434  1.5297
  981SOL    HW2 2943   2.146   1.295   2.786 -0.6397 -2.3178  3.3474
  982SOL     OW 2944   2.920   2.581   1.951 -0.2497  0.4295  1.0895
  982SOL    HW1 2945   3.014   2.589   1.973 -3.7642 -1.7637 -2.0074
  982SOL    HW2 2946   2.896   2.648   1.876 -1.1351  2.6445  2.1273
  983SOL     OW 2947   1.529   0.250   1.578 -0.0955 -0.1444 -0.8145
  983SOL    HW1 2948   1.530   0.351   1.603 -0.9240 -0.2743  1.6783
  983SOL    HW2 2949   1.544   0.191   1.660 -1.6008 -0.3539 -1.1065
  984SOL     OW 2950   2.196   2.930   3.086 -0.2041  0.0066  0.0039
  984SOL    HW1 2951   2.272   2.855   3.068  1.1420 -0.3143  1.5446
  984SOL    HW2 2952   2.137   2.945   3.004 -1.0607 -0.6293  0.3702
  985SOL     OW 2953   1.575   1.357   1.803  0.5900  0.1327 -0.1858
  985SOL    HW1 2954   1.662   1.327   1.762 -0.1310 -1.1736  1.4618
  985SOL    HW2 2955   1.570   1.344   1.903  1.2179  2.1749  0.5557
  986SOL     OW 2956   1.913   2.881   2.551  0.2971 -0.5376  0.0498
  986SOL    HW1 2957   1.993   2.945   2.566 -0.3282  0.1186  1.4224
  986SOL    HW2 2958   1.824   2.915   2.590  2.3264  0.3090  2.0074
  987SOL     OW 2959   2.777   1.800   2.774 -0.3292 -0.0451  0.2205
  987SOL    HW1 2960   2.819   1.733   2.707  1.7677 -1.6897 -1.7363
  987SOL    HW2 2961   2.693   1.845   2.737  0.0980 -1.4734 -1.2839
  988SOL     OW 2962   3.048   0.992   1.364  0.1872 -0.5548 -0.2271
  988SOL    HW1 2963   0.005   0.967   1.437 -1.2186  1.3508  0.0908
  988SOL    HW2 2964   3.074   1.080   1.317  2.4263  0.2408 -1.4920
  989SOL     OW 2965   1.919   1.043   1.271  0.3943 -0.0108  0.3903
  989SOL    HW1 2966   1.945   1.059   1.368 -0.5011 -0.1176 -0.2123
  989SOL    HW2 2967   1.823   1.061   1.257 -1.1659  1.0171  1.8118
  990SOL     OW 2968   2.551   0.578   3.069 -0.3000  0.3710  0.0275
  990SOL    HW1 2969   2.560   0.619   2.977 -0.5478 -2.9117 -1.3696
  990SOL    HW2 2970   2.603   0.639   0.026  1.6579  0.6229 -0.2776
  991SOL     OW 2971   0.270   1.552   3.081 -0.1746  0.1256  0.3124
  991SOL    HW1 2972   0.183   1.501   3.081 -0.6032  0.7463 -1.5088
  991SOL    HW2 2973   0.334   1.498   0.022 -1.6682  2.1280 -3.2632
  992SOL     OW 2974   2.276   1.562   1.797  0.4142 -0.6328 -0.1864
  992SOL    HW1 2975   2.193   1.574   1.852  2.9234  0.8318  0.7031
  992SOL    HW2 2976   2.352   1.614   1.838 -2.5779 -2.2684 -0.1693
  993SOL     OW 2977   0.499   2.882   0.393 -0.4271  0.0776  0.2297
  993SOL    HW1 2978   0.535   2.793   0.428 -1.4854 -1.4818 -1.8380
  993SOL    HW2 2979   0.573   2.956   0.394 -0.7757 -0.1138 -0.1495
  994SOL     OW 2980   2.762   1.963   1.541 -0.5183  0.3293 -0.2747
  994SOL    HW1 2981   2.666   1.967   1.575  1.9938  1.0128  0.6203
  994SOL    HW2 2982   2.825   1.958   1.629  1.5974  0.2849 -0.1587
  995SOL     OW 2983   1.742   1.882   2.428  0.4617 -0.2657 -0.1793
  995SOL    HW1 2984   1.797   1.816   2.480 -2.1683  2.2614 -1.8157
  995SOL    HW2 2985   1.746   1.862   2.325  1.7698 -1.1284 -1.4135
  996SOL     OW 2986   2.266   1.951   3.087  0.3485  0.5203  0.4315
  996SOL    HW1 2987   2.227   1.905   3.003 -1.8155 -0.6069 -3.5980
  996SOL    HW2 2988   2.312   1.887   0.039 -1.4972 -0.9927 -1.8681
  997SOL     OW 2989   1.352   1.315   2.547 -0.8009 -0.1697  0.7287
  997SOL    HW1 2990   1.266   1.370   2.531  0.7908 -1.7227  0.4460
  997SOL    HW2 2991   1.423   1.376   2.591  0.2100  0.0579 -0.6037
  998SOL     OW 2992   2.815   2.497   0.755  0.4952 -0.3103  0.2663
  998SOL    HW1 2993   2.838   2.456   0.661 -0.1945 -0.0031 -4.8997
  998SOL    HW2 2994   2.901   2.527   0.798 -0.1615 -1.4271  1.2647
  999SOL     OW 2995   0.299   2.570   0.480  0.0025 -0.2819 -0.5109
  999SOL    HW1 2996   0.328   2.540   0.571 -2.0976  0.6668 -2.7836
  999SOL    HW2 2997   0.310   2.497   0.412  0.5399  3.4587 -0.1570
 1000SOL     OW 2998   1.114   0.038   3.066 -0.6194  0.8031  0.0353
 1000SOL    HW1 2999   1.067   3.084   0.024 -1.9509 -4.1209 -1.6036
 1000SOL    HW2 3000   1.048   0.072   3.000  2.0964  0.1850 -2.0441
   3.11059   3.11059   3.11059
