1000 SPC/Fw water molecules t= 128.00000 step= 128000
 3000
    1SOL     OW    1   2.233   2.096   1.084 -0.3311 -0.0849  0.1561
    1SOL    HW1    2   2.281   2.056   1.004 -0.9974  0.7886  1.3832
    1SOL    HW2    3   2.179   2.020   1.127  1.4516  0.5340  1.2469
    2SOL     OW    4   1.429   1.873   2.335 -0.5361  0.1723 -0.1548
    2SOL    HW1    5   1.357   1.874   2.411 -2.9983 -0.4285 -2.9395
    2SOL    HW2    6   1.421   1.783   2.295  0.3199  0.1375 -0.4799
    3SOL     OW    7   1.577   2.333   2.411  0.0704 -0.2891  0.0785
    3SOL    HW1    8   1.575   2.344   2.309  0.7951 -0.6116 -0.2131
    3SOL    HW2    9   1.654   2.272   2.431 -1.7464  0.0940 -2.1614
    4SOL     OW   10   1.324   2.288   2.125  0.0436  0.1955 -0.0886
    4SOL    HW1   11   1.393   2.215   2.105  0.9086  0.4670  2.4938
    4SOL    HW2   12   1.265   2.252   2.200 -2.7958 -1.0091 -1.9992
    5SOL     OW   13   0.670   0.968   1.425  0.1605  0.0155  0.3054
    5SOL    HW1   14   0.573   0.944   1.403 -0.6708  1.1982 -0.6019
    5SOL    HW2   15   0.683   0.997   1.521 -0.8617 -2.7960 -0.5886
    6SOL     OW   16   2.192   0.910   0.061  0.0381 -0.5491 -0.1032
    6SOL    HW1   17   2.106   0.878   0.101 -0.6318  2.6080 -0.7425
    6SOL    HW2   18   2.273   0.851   0.089  1.1686 -2.3235 -1.2179
    7SOL     OW   19   0.452   0.062   1.638  0.2463  0.1304  0.9034
    7SOL    HW1   20   0.490   0.059   1.734  0.7486  1.1858 -0.6402
    7SOL    HW2   21   0.373   3.096   1.622 -1.2041 -0.4096 -1.5777
    8SOL     OW   22   1.155   2.831   1.421 -0.0446 -0.0326 -0.2678
    8SOL    HW1   23   1.060   2.849   1.391  1.3319  1.4570  0.3773
    8SOL    HW2   24   1.160   2.835   1.524 -0.7700 -2.0412  0.2821
    9SOL     OW   25   0.657   0.684   0.423  0.0411  0.1685 -0.0414
    9SOL    HW1   26   0.726   0.752   0.465  3.9909 -1.5893 -1.0943
    9SOL    HW2   27   0.585   0.727   0.367  0.8856 -3.5100  1.8888
   10SOL     OW   28   0.820   2.408   2.357  0.1520 -0.2547  0.3789
   10SOL    HW1   29   0.803   2.361   2.443  0.7487  1.2983 -3.0283
   10SOL    HW2   30   0.734   2.444   2.316 -1.1147 -1.5265 -1.1278
   11SOL     OW   31   0.517   1.983   0.062 -0.2354  0.4910 -0.2210
   11SOL    HW1   32   0.551   1.969   3.062  1.5617  2.1417 -1.3157
   11SOL    HW2   33   0.505   1.895   0.117  0.1173 -3.6975  2.1117
   12SOL     OW   34   0.443   0.109   1.361 -0.0378  0.5055 -0.0562
   12SOL    HW1   35   0.453   0.065   1.452  1.2822 -2.5906  1.6085
   12SOL    HW2   36   0.449   0.044   1.284 -0.4063  0.4599  2.5958
   13SOL     OW   37   0.711   2.607   0.065  0.6601  0.0471 -0.0979
   13SOL    HW1   38   0.775   2.543   0.025 -0.6651 -0.0800 -1.1107
   13SOL    HW2   39   0.745   2.700   0.056 -3.1520 -1.8717 -1.6908
   14SOL     OW   40   1.628   1.638   0.880 -0.0022  0.1691  0.0916
   14SOL    HW1   41   1.676   1.657   0.965 -2.4033 -0.8554 -2.7500
   14SOL    HW2   42   1.544   1.694   0.872  0.2580 -0.0501 -0.2747
   15SOL     OW   43   2.944   1.089   2.400 -0.5225 -0.5046  1.0425
   15SOL    HW1   44   2.922   1.071   2.499 -0.5785  1.2795 -0.7119
   15SOL    HW2   45   3.036   1.137   2.384  2.2513  3.0427 -0.6546
   16SOL     OW   46   1.488   2.915   2.801  0.3087 -0.3917 -0.1227
   16SOL    HW1   47   1.445   2.842   2.746 -0.6623 -0.4468  0.1475
   16SOL    HW2   48   1.499   3.000   2.748 -2.5385 -1.5211 -0.5949
   17SOL     OW   49   0.719   2.446   2.057 -0.4208  0.0850 -0.0939
   17SOL    HW1   50   0.733   2.349   2.090  0.4828 -1.3086  1.2248
   17SOL    HW2   51   0.624   2.480   2.067 -1.2106  1.5715  1.1097
   18SOL     OW   52   1.592   0.783   0.135  0.9491 -0.5059 -0.1181
   18SOL    HW1   53   1.627   0.831   0.217 -2.5863 -3.1323 -0.5317
   18SOL    HW2   54   1.668   0.751   0.079 -0.9755  0.7354 -0.4694
   19SOL     OW   55   2.470   2.008   2.835  0.3873  0.6860  0.5569
   19SOL    HW1   56   2.475   2.023   2.934  0.8110 -1.4042 -0.5189
   19SOL    HW2   57   2.562   1.963   2.806  3.1033 -1.4830  0.2102
   20SOL     OW   58   2.465   2.128   2.396 -0.7190 -0.0460 -0.6498
   20SOL    HW1   59   2.462   2.235   2.389  0.9513  1.0985 -0.3363
   20SOL    HW2   60   2.558   2.099   2.419  1.3007 -2.7057 -0.0473
   21SOL     OW   61   0.619   2.222   0.175  0.1223 -0.0418 -0.4048
   21SOL    HW1   62   0.541   2.262   0.230 -1.7004  1.5649  1.0998
   21SOL    HW2   63   0.587   2.140   0.121 -1.2165  0.0908 -0.4651
   22SOL     OW   64   2.117   2.752   1.350  0.3624  0.1948 -0.0504
   22SOL    HW1   65   2.091   2.850   1.359  1.8165  0.6678  1.2447
   22SOL    HW2   66   2.179   2.734   1.426  0.2957  0.7834  0.6913
   23SOL     OW   67   0.408   1.236   1.425 -0.2615  0.6443  0.2341
   23SOL    HW1   68   0.363   1.322   1.445  1.2293 -1.3546 -1.7948
   23SOL    HW2   69   0.481   1.224   1.490 -1.0819 -0.9052 -0.5086
   24SOL     OW   70   2.242   1.857   1.556 -0.1425  0.5287 -0.1778
   24SOL    HW1   71   2.344   1.866   1.562 -0.6896 -1.9384 -1.5004
   24SOL    HW2   72   2.214   1.783   1.624 -2.5016 -1.2051 -0.5941
   25SOL     OW   73   1.919   3.023   2.746  0.6900 -0.6555 -0.2086
   25SOL    HW1   74   2.020   3.049   2.741 -1.1925  1.1054  0.8621
   25SOL    HW2   75   1.901   2.928   2.719 -0.4424  0.8145 -2.3205
   26SOL     OW   76   1.277   2.961   0.883 -0.0107  0.5422 -0.3148
   26SOL    HW1   77   1.311   3.012   0.797  2.7769  2.1309 -1.8757
   26SOL    HW2   78   1.274   3.030   0.954 -0.2857 -1.4985 -4.2395
   27SOL     OW   79   1.155   1.846   0.128  0.2213 -0.0350  0.0671
   27SOL    HW1   80   1.179   1.774   0.196 -1.6196 -0.4846  0.0403
   27SOL    HW2   81   1.062   1.819   0.090  0.6433 -2.2790  0.4887
   28SOL     OW   82   2.842   1.685   1.310 -0.2742 -0.5984  0.0878
   28SOL    HW1   83   2.815   1.673   1.407  0.6145  0.5115 -0.0098
   28SOL    HW2   84   2.938   1.713   1.298  1.9550  1.9348  0.2416
   29SOL     OW   85   2.294   2.415   2.114  0.2324  0.1806  0.3133
   29SOL    HW1   86   2.292   2.338   2.184  3.0420  1.7812  1.2770
   29SOL    HW2   87   2.238   2.496   2.149  2.2190  2.8613 -1.0342
   30SOL     OW   88   0.893   2.697   1.085 -0.4039  0.1855 -1.2302
   30SOL    HW1   89   0.976   2.644   1.070 -0.2002  1.1633 -1.1378
   30SOL    HW2   90   0.824   2.685   1.013 -0.8878  0.8230  2.2762
   31SOL     OW   91   3.089   1.980   2.197  0.0625 -0.3389 -0.3315
   31SOL    HW1   92   3.064   1.887   2.165 -0.6878 -1.7228  1.5526
   31SOL    HW2   93   0.088   1.999   2.169  0.6867 -0.5575  1.8956
   32SOL     OW   94   1.548   1.197   2.122 -0.6047 -0.0475 -0.0523
   32SOL    HW1   95   1.565   1.125   2.051  1.1916 -3.8178 -0.9979
   32SOL    HW2   96   1.454   1.232   2.124  0.5759 -1.3516  0.8540
   33SOL     OW   97   0.517   3.004   2.480 -0.4809  0.0434 -0.6389
   33SOL    HW1   98   0.453   2.944   2.533  0.0382  1.5510  0.2603
   33SOL    HW2   99   0.600   2.958   2.459 -0.6727  1.0592 -1.4434
   34SOL     OW  100   1.456   3.090   1.567  0.9527 -0.0426  0.3724
   34SOL    HW1  101   1.508   3.007   1.586 -0.7670  1.5087 -1.1962
   34SOL    HW2  102   1.512   0.075   1.599  0.2849  0.7407  1.4097
   35SOL     OW  103   2.026   0.446   1.262  0.3275  0.4491 -0.6037
   35SOL    HW1  104   1.993   0.418   1.358  0.6160  0.7089 -0.6834
   35SOL    HW2  105   1.962   0.511   1.223  3.3189 -2.7461  1.6305
   36SOL     OW  106   2.270   2.946   2.576 -0.2540  0.3967  1.0783
   36SOL    HW1  107   2.262   2.888   2.660  0.1737 -1.6177 -2.0232
   36SOL    HW2  108   2.268   2.881   2.495 -0.1641 -0.3674 -2.0646
   37SOL     OW  109   1.100   2.187   2.918  0.0684  0.5332  0.4123
   37SOL    HW1  110   1.101   2.239   3.004  2.7201 -2.1606  0.2564
   37SOL    HW2  111   1.140   2.099   2.951  1.0638  0.3585 -0.0439
   38SOL     OW  112   2.847   0.802   2.740 -0.3219  0.3568 -0.1403
   38SOL    HW1  113   2.828   0.742   2.658  1.7367 -2.2171  0.1790
   38SOL    HW2  114   2.838   0.743   2.822  0.1923 -2.0326 -2.1608
   39SOL     OW  115   2.079   2.084   2.089 -0.0752  0.7229 -0.1547
   39SOL    HW1  116   2.026   2.011   2.041 -3.4365 -0.3530  0.8621
   39SOL    HW2  117   2.043   2.179   2.077 -1.8919 -2.1501 -1.4905
   40SOL     OW  118   0.190   0.295   2.927  0.4463  0.5238  0.2277
   40SOL    HW1  119   0.228   0.293   3.021  0.2756 -0.7415 -0.0225
   40SOL    HW2  120   0.209   0.207   2.876  1.1121 -3.1010  0.3330
   41SOL     OW  121   1.430   0.995   1.418 -0.1979  0.2571 -0.5777
   41SOL    HW1  122   1.494   1.066   1.380 -0.4733  1.1373  2.0846
   41SOL    HW2  123   1.361   1.044   1.470  4.0408 -1.7686 -0.0055
   42SOL     OW  124   0.174   0.323   1.972 -0.8017  0.1207 -0.3173
   42SOL    HW1  125   0.137   0.420   1.975  0.1953  0.5884  0.2247
   42SOL    HW2  126   0.273   0.319   1.954  0.5965 -1.9796  1.0868
   43SOL     OW  127   1.628   1.612   2.085 -0.1822  0.0489  0.2482
   43SOL    HW1  128   1.542   1.606   2.136  4.1656 -1.8177 -2.6698
   43SOL    HW2  129   1.677   1.521   2.081  2.4330 -3.0628  0.0615
   44SOL     OW  130   2.959   2.778   2.527  0.0118 -0.3090 -0.0355
   44SOL    HW1  131   2.984   2.870   2.560 -0.3979 -2.0300 -3.3509
   44SOL    HW2  132   3.000   2.759   2.440 -1.0127 -1.5866  0.5518
   45SOL     OW  133   0.580   2.360   1.378 -0.0916  0.4364  0.2824
   45SOL    HW1  134   0.559   2.296   1.453  1.0393  1.3255  0.1917
   45SOL    HW2  135   0.683   2.365   1.369 -1.4095 -2.0819 -2.3126
   46SOL     OW  136   2.521   2.247   1.933 -0.0317  0.3217 -0.6068
   46SOL    HW1  137   2.445   2.291   1.986 -2.4067 -0.1225 -0.1968
   46SOL    HW2  138   2.614   2.289   1.932 -0.7856 -3.9350  2.7313
   47SOL     OW  139   1.659   1.695   1.623 -0.2080  0.4928  0.1822
   47SOL    HW1  140   1.582   1.686   1.691  2.8399 -0.9781 -2.3149
   47SOL    HW2  141   1.744   1.648   1.655  0.9718  0.3041 -1.4289
   48SOL     OW  142   0.290   2.037   0.484 -0.5855 -0.4874 -0.1129
   48SOL    HW1  143   0.362   2.018   0.412  3.6281  0.7950 -1.1912
   48SOL    HW2  144   0.328   2.068   0.574  0.3820  0.4686  0.4048
   49SOL     OW  145   3.049   0.893   2.147 -0.1802 -0.1466 -0.0671
   49SOL    HW1  146   0.055   0.913   2.123  1.1096  0.3393 -0.9719
   49SOL    HW2  147   3.015   0.957   2.221 -0.2705  0.3857 -1.4310
   50SOL     OW  148   2.035   0.826   0.767  0.3970  0.1442  0.4641
   50SOL    HW1  149   2.096   0.817   0.689  0.5703 -2.0956  0.7989
   50SOL    HW2  150   1.943   0.789   0.741 -2.3291 -0.0265 -1.4222
   51SOL     OW  151   1.177   0.580   0.617 -0.5933  0.5051 -0.3979
   51SOL    HW1  152   1.085   0.607   0.647  0.7628 -1.1804 -0.8482
   51SOL    HW2  153   1.213   0.503   0.678  2.0366 -2.1643 -1.6634
   52SOL     OW  154   1.380   1.134   0.334  0.2167 -0.2891  0.0976
   52SOL    HW1  155   1.370   1.036   0.321 -0.4986  2.2056 -0.2214
   52SOL    HW2  156   1.445   1.154   0.411 -0.6093  0.4278 -1.0587
   53SOL     OW  157   1.129   2.278   2.666 -0.2304 -0.1862  0.2885
   53SOL    HW1  158   1.224   2.278   2.633  2.0085 -1.4584  1.4092
   53SOL    HW2  159   1.113   2.241   2.764  0.5324  0.7958  2.4208
   54SOL     OW  160   1.500   0.837   1.646  0.7053  0.1204  0.5422
   54SOL    HW1  161   1.472   0.741   1.611  1.0474 -0.4057 -0.5860
   54SOL    HW2  162   1.481   0.905   1.570 -0.3293  0.3822  0.4778
   55SOL     OW  163   2.043   2.801   0.570  0.3405  0.6512  0.4016
   55SOL    HW1  164   2.012   2.841   0.480 -4.0254 -1.3186 -0.6071
   55SOL    HW2  165   2.024   2.699   0.572 -2.1092  1.8596 -2.2479
   56SOL     OW  166   0.884   2.784   1.346 -0.0769 -0.3965 -0.2032
   56SOL    HW1  167   0.859   2.744   1.257  0.0417 -0.8832  2.9175
   56SOL    HW2  168   0.802   2.824   1.391  0.5836 -2.3922  0.9401
   57SOL     OW  169   1.810   1.009   2.957  1.6375 -0.2699 -0.1690
   57SOL    HW1  170   1.841   1.058   2.877 -1.8689  0.3947  1.5059
   57SOL    HW2  171   1.819   1.074   3.036  0.2882  1.0200  0.6892
   58SOL     OW  172   2.992   1.006   1.892 -0.1746  0.7096 -0.4980
   58SOL    HW1  173   3.000   0.962   1.988  1.7944  0.0242  3.2517
   58SOL    HW2  174   2.895   1.030   1.875  1.3767 -1.7817  2.5663
   59SOL     OW  175   0.618   2.604   2.301  0.3915  0.0131  0.0605
   59SOL    HW1  176   0.616   2.621   2.203  1.8465  0.3750  0.8141
   59SOL    HW2  177   0.674   2.674   2.353 -0.0689  2.1674  1.5600
   60SOL     OW  178   2.640   2.339   1.105  0.0539 -0.0523 -0.1155
   60SOL    HW1  179   2.542   2.324   1.129 -0.5685  1.5713 -1.0303
   60SOL    HW2  180   2.648   2.370   1.009 -2.0570  1.3102  2.2955
   61SOL     OW  181   0.872   2.485   0.360 -0.5816 -0.2622 -0.5696
   61SOL    HW1  182   0.948   2.460   0.424  0.9304 -0.3161  0.5563
   61SOL    HW2  183   0.841   2.402   0.312  2.3986 -0.5740  0.0397
   62SOL     OW  184   2.040   2.739   3.015  0.3002  0.5581  0.3472
   62SOL    HW1  185   2.105   2.668   3.056 -1.3904 -3.5004 -2.9871
   62SOL    HW2  186   1.945   2.716   3.041  0.5398  1.0698 -1.9336
   63SOL     OW  187   1.898   0.241   0.178  0.3147  0.5199 -0.0814
   63SOL    HW1  188   1.873   0.178   0.107  2.9587  1.7047 -0.7855
   63SOL    HW2  189   1.990   0.282   0.157 -2.2331 -1.1428  1.4301
   64SOL     OW  190   0.994   1.092   2.437  0.3239 -0.1443 -0.0051
   64SOL    HW1  191   0.986   1.095   2.540  0.5294  1.7319  1.7275
   64SOL    HW2  192   0.955   1.007   2.393 -0.7833 -2.5992 -3.2227
   65SOL     OW  193   1.357   2.727   0.504 -0.0951  0.1276 -0.1524
   65SOL    HW1  194   1.360   2.627   0.513  0.0724  0.6603  2.9539
   65SOL    HW2  195   1.431   2.775   0.551  0.2849  3.2413  1.8938
   66SOL     OW  196   0.515   1.591   1.641 -0.1993 -0.0161 -0.2843
   66SOL    HW1  197   0.583   1.533   1.685 -1.5285 -1.2160 -4.1695
   66SOL    HW2  198   0.443   1.531   1.609  3.6702 -0.0831 -1.0068
   67SOL     OW  199   2.417   3.009   2.268 -0.7993  0.5814  0.6531
   67SOL    HW1  200   2.514   2.978   2.292 -0.4220  1.9395  0.2570
   67SOL    HW2  201   2.419   3.055   2.182 -1.8448 -0.9167  2.8293
   68SOL     OW  202   0.907   0.860   1.381 -0.2169 -0.1827 -0.3487
   68SOL    HW1  203   0.881   0.766   1.350 -1.0049  1.4326 -0.1284
   68SOL    HW2  204   0.819   0.912   1.396  1.5193 -1.3513  3.8148
   69SOL     OW  205   1.964   2.929   0.343 -0.1250  0.0755  0.1210
   69SOL    HW1  206   1.875   2.917   0.303 -0.2947  3.5084  0.2916
   69SOL    HW2  207   1.971   3.024   0.378 -0.1283  1.7035 -1.3005
   70SOL     OW  208   2.564   1.057   2.918 -0.0084 -0.7517  0.2884
   70SOL    HW1  209   2.600   1.128   2.858  2.5243 -0.0556  1.8625
   70SOL    HW2  210   2.641   1.001   2.954 -1.7425  0.8049 -1.1640
   71SOL     OW  211   2.876   1.823   0.007 -0.4898  0.2141  0.3776
   71SOL    HW1  212   2.897   1.898   3.031  1.1534  2.0294 -3.0864
   71SOL    HW2  213   2.955   1.808   0.073  0.8022 -1.3648  0.2723
   72SOL     OW  214   2.962   1.979   0.563 -0.7075 -0.4786 -0.2394
   72SOL    HW1  215   2.940   1.886   0.546  1.3615  1.9028 -1.8778
   72SOL    HW2  216   3.011   2.020   0.481  0.8320  2.0141 -1.0048
   73SOL     OW  217   1.036   0.864   0.380 -0.0043  0.5024 -0.8051
   73SOL    HW1  218   1.012   0.933   0.312  0.6562 -2.7645 -0.6247
   73SOL    HW2  219   1.084   0.781   0.339  2.0729 -1.1409  1.4410
   74SOL     OW  220   0.202   1.808   1.928 -0.0030  0.1477 -0.0126
   74SOL    HW1  221   0.215   1.904   1.967  1.2869  1.2695  4.4305
   74SOL    HW2  222   0.275   1.741   1.954  0.8659 -1.5268 -2.7072
   75SOL     OW  223   1.693   1.296   1.671  0.5070 -0.0064  0.1704
   75SOL    HW1  224   1.741   1.207   1.683 -1.2999  2.3942 -2.7659
   75SOL    HW2  225   1.612   1.295   1.734 -2.0476 -2.5362  2.2590
   76SOL     OW  226   2.109   2.391   1.399 -0.0632  0.3781 -0.2510
   76SOL    HW1  227   2.124   2.310   1.455  3.0992  2.7126 -1.1510
   76SOL    HW2  228   2.137   2.474   1.445 -1.1755 -0.7326  0.2726
   77SOL     OW  229   2.785   1.362   1.758 -0.3297 -0.3077 -0.4131
   77SOL    HW1  230   2.692   1.374   1.795  0.3077 -1.8390  1.4533
   77SOL    HW2  231   2.851   1.368   1.839 -1.3820  2.1160  1.2844
   78SOL     OW  232   1.408   0.300   0.550 -0.1453  0.1071 -0.4696
   78SOL    HW1  233   1.386   0.338   0.646 -2.2629 -1.1703  1.2142
   78SOL    HW2  234   1.485   0.352   0.507  1.8143 -1.5971 -2.3310
   79SOL     OW  235   2.450   1.512   1.503 -0.0585 -0.0082 -0.2083
   79SOL    HW1  236   2.436   1.602   1.548  1.8464 -0.9020 -2.9379
   79SOL    HW2  237   2.422   1.436   1.561 -1.2827  2.1083 -0.0872
   80SOL     OW  238   0.872   0.620   1.301  0.3920  0.0371  0.7356
   80SOL    HW1  239   0.768   0.606   1.314 -0.9349  0.4698  1.4019
   80SOL    HW2  240   0.906   0.530   1.262  0.0067 -2.7291  3.7302
   81SOL     OW  241   0.699   2.694   0.868  0.3176 -0.5932 -0.0003
   81SOL    HW1  242   0.773   2.660   0.810 -0.6294 -0.5811 -0.6761
   81SOL    HW2  243   0.652   2.772   0.817 -0.5226  2.7301 -0.4237
   82SOL     OW  244   1.561   3.041   2.044 -0.1643 -0.1223  0.0772
   82SOL    HW1  245   1.473   3.017   2.002  1.0005  0.8653  0.0585
   82SOL    HW2  246   1.579   0.039   2.023  3.0300 -1.6806  0.9682
   83SOL     OW  247   1.414   1.823   0.916  0.0524 -0.2468  0.4628
   83SOL    HW1  248   1.444   1.878   0.998  0.4670 -0.9580  1.1775
   83SOL    HW2  249   1.386   1.884   0.839  2.1098  0.1436 -0.6599
   84SOL     OW  250   3.094   1.487   2.900  0.2360 -0.4460 -0.3541
   84SOL    HW1  251   3.005   1.444   2.871 -1.3311 -1.1736 -1.5294
   84SOL    HW2  252   0.004   1.582   2.860 -0.5430 -0.1425 -0.3917
   85SOL     OW  253   0.424   2.276   1.168  0.0695 -0.0974  0.3528
   85SOL    HW1  254   0.385   2.358   1.125  1.6730 -1.8335 -1.6659
   85SOL    HW2  255   0.498   2.306   1.231  0.1075  1.7724 -0.1981
   86SOL     OW  256   2.350   2.302   1.724 -0.3616 -0.0917  0.5981
   86SOL    HW1  257   2.423   2.285   1.792 -0.2106 -2.1862 -0.9512
   86SOL    HW2  258   2.274   2.361   1.764 -0.7245  2.7000  1.7295
   87SOL     OW  259   2.982   2.074   0.817  0.0169  0.2475  0.1743
   87SOL    HW1  260   2.995   2.171   0.836  0.7118  1.4327 -1.9690
   87SOL    HW2  261   2.989   2.054   0.716 -1.7728  0.3490  1.4072
   88SOL     OW  262   0.853   0.945   1.099  0.0342  0.1373  0.5573
   88SOL    HW1  263   0.894   0.991   1.013 -1.5694  1.6621  0.6626
   88SOL    HW2  264   0.823   1.018   1.167 -0.3259  3.2697  2.0497
   89SOL     OW  265   1.011   0.049   1.940  0.3855 -0.4258 -0.1185
   89SOL    HW1  266   1.006   0.136   1.992  1.4124 -1.5167 -1.8694
   89SOL    HW2  267   0.948   3.075   1.976 -1.9684  1.0499 -1.6309
   90SOL     OW  268   0.046   2.032   1.495 -0.0333  0.4187  0.0390
   90SOL    HW1  269   0.088   1.936   1.482 -2.1316 -0.6414  1.8853
   90SOL    HW2  270   0.114   2.099   1.539  0.4764  0.0987  1.9175
   91SOL     OW  271   1.497   2.111   1.416 -0.0238  1.0039  0.1126
   91SOL    HW1  272   1.519   2.124   1.512  0.0441  1.3878 -1.3035
   91SOL    HW2  273   1.582   2.098   1.361  1.5389 -1.6196 -1.4361
   92SOL     OW  274   2.730   2.907   1.468 -0.1051  0.0079 -0.1780
   92SOL    HW1  275   2.743   2.945   1.376  1.0115 -3.8938  5.6312
   92SOL    HW2  276   2.761   2.966   1.545  0.9969  0.2024 -0.1441
   93SOL     OW  277   3.075   1.219   2.665  0.2698  0.2786 -0.0880
   93SOL    HW1  278   0.061   1.165   2.699  1.4412 -0.8539  0.5430
   93SOL    HW2  279   2.988   1.162   2.651 -1.3058 -1.6199  1.3600
   94SOL     OW  280   2.748   2.392   1.960 -0.1145  0.2889 -0.1119
   94SOL    HW1  281   2.773   2.365   2.058 -0.2214 -0.4424  0.6790
   94SOL    HW2  282   2.731   2.489   1.949 -0.9945  1.9001 -2.6303
   95SOL     OW  283   1.383   0.763   2.140  0.2339  0.1686  0.5358
   95SOL    HW1  284   1.352   0.812   2.227 -0.0242  0.3820  0.9697
   95SOL    HW2  285   1.399   0.661   2.150 -3.5824 -0.3811  1.8974
   96SOL     OW  286   2.576   0.606   1.644  0.1183  0.2002  0.3372
   96SOL    HW1  287   2.553   0.511   1.610  1.7744 -3.5500  0.4249
   96SOL    HW2  288   2.575   0.603   1.743 -0.4243 -0.3233 -2.7888
   97SOL     OW  289   1.907   0.333   1.774 -0.2696  0.2166  0.2192
   97SOL    HW1  290   1.812   0.326   1.809 -0.9104  1.7632 -0.7902
   97SOL    HW2  291   1.912   0.405   1.703  0.6443 -1.1482  2.4029
   98SOL     OW  292   1.902   2.606   1.425 -0.5114 -0.1950  0.1683
   98SOL    HW1  293   1.978   2.658   1.374  1.2576 -1.6048 -2.4838
   98SOL    HW2  294   1.927   2.589   1.524  0.6607  2.8060 -0.6581
   99SOL     OW  295   2.638   0.350   2.039 -0.9282  0.0471  0.0641
   99SOL    HW1  296   2.667   0.339   2.139 -2.1177  0.2274  3.5460
   99SOL    HW2  297   2.726   0.363   1.986  1.7468 -1.7340 -2.3929
  100SOL     OW  298   2.222   1.669   1.768  0.1010  0.5172  0.3748
  100SOL    HW1  299   2.144   1.673   1.831  1.2548 -1.9558  0.5043
  100SOL    HW2  300   2.304   1.626   1.811  3.1126 -1.3109 -0.8810
  101SOL     OW  301   1.593   0.085   0.894  0.0881  0.4776  0.1273
  101SOL    HW1  302   1.556   0.015   0.958 -1.9962  1.0851  0.0560
  101SOL    HW2  303   1.650   0.045   0.818  0.9971 -0.9716  1.7637
  102SOL     OW  304   0.617   0.808   1.106 -0.0950  0.2487 -0.7212
  102SOL    HW1  305   0.599   0.795   1.206 -0.5855 -0.3185  1.3045
  102SOL    HW2  306   0.702   0.856   1.091  0.1083 -3.3884  0.6302
  103SOL     OW  307   2.582   0.393   3.061 -0.0059  0.2628 -0.1985
  103SOL    HW1  308   2.623   0.327   2.994  1.2765  0.8520  1.5670
  103SOL    HW2  309   2.652   0.402   0.037 -2.4873 -2.9649 -0.7537
  104SOL     OW  310   2.747   0.161   1.677  0.3811  0.1453  0.4310
  104SOL    HW1  311   2.799   0.077   1.706  1.0090 -1.3862  1.9139
  104SOL    HW2  312   2.802   0.248   1.677 -0.7698 -2.1613  2.4609
  105SOL     OW  313   1.836   0.886   1.943  1.3111  0.3051 -0.2757
  105SOL    HW1  314   1.741   0.882   1.983 -0.6716  0.3279 -0.7400
  105SOL    HW2  315   1.902   0.905   2.017  0.1762 -0.6546  1.2579
  106SOL     OW  316   1.768   2.974   0.788 -0.0043 -0.3308  0.6466
  106SOL    HW1  317   1.783   2.945   0.882  1.7638  2.1847 -0.2135
  106SOL    HW2  318   1.848   2.991   0.739 -0.5468 -1.6010  0.9742
  107SOL     OW  319   0.724   1.020   0.794  0.3982 -0.2640  0.3135
  107SOL    HW1  320   0.707   1.115   0.811 -0.2950 -2.5885 -1.0753
  107SOL    HW2  321   0.653   0.962   0.829  0.3590 -0.5472  0.0360
  108SOL     OW  322   2.691   0.309   2.303 -0.1045  0.3944 -0.1920
  108SOL    HW1  323   2.752   0.225   2.308 -0.6829 -1.2313  3.9858
  108SOL    HW2  324   2.630   0.302   2.385 -0.1018  1.1665  1.7935
  109SOL     OW  325   1.723   0.454   0.225  0.0986 -0.4219 -0.8643
  109SOL    HW1  326   1.647   0.440   0.159  1.3704 -0.9698 -2.1394
  109SOL    HW2  327   1.781   0.372   0.224  0.9409 -2.6513 -1.1432
  110SOL     OW  328   3.081   2.241   2.870  0.5084  0.4701  0.0269
  110SOL    HW1  329   3.010   2.284   2.808 -2.5713 -1.6274 -1.9917
  110SOL    HW2  330   0.016   2.312   2.938 -0.8065 -4.0624  1.1092
  111SOL     OW  331   2.240   0.243   2.159 -0.4180  0.0331 -0.1643
  111SOL    HW1  332   2.256   0.341   2.177  1.9446  1.9988  0.4781
  111SOL    HW2  333   2.186   0.201   2.237 -0.7282  0.3907  1.5229
  112SOL     OW  334   2.511   3.041   0.607 -0.0789  0.1551  0.2797
  112SOL    HW1  335   2.486   0.031   0.664 -1.6729 -0.2621  0.4013
  112SOL    HW2  336   2.427   3.001   0.565  0.7715 -1.7231 -2.3608
  113SOL     OW  337   2.550   1.827   1.646 -0.3423 -0.4671 -0.6153
  113SOL    HW1  338   2.564   1.859   1.550 -0.9746 -0.0736 -0.6708
  113SOL    HW2  339   2.576   1.903   1.712 -1.8558  2.1321 -0.6084
  114SOL     OW  340   2.787   0.605   0.705 -0.8111  0.3205  0.3436
  114SOL    HW1  341   2.800   0.698   0.661 -1.1380 -0.6927  1.1715
  114SOL    HW2  342   2.785   0.532   0.630 -0.0374 -1.7418 -0.8871
  115SOL     OW  343   2.704   1.771   0.229 -0.6295 -0.2168 -0.2100
  115SOL    HW1  344   2.759   1.762   0.315  0.6543  2.6242  0.2267
  115SOL    HW2  345   2.770   1.800   0.154  0.7123 -0.2523  2.4494
  116SOL     OW  346   0.063   1.387   2.049 -0.1394  0.0443 -0.1375
  116SOL    HW1  347   3.059   1.382   2.052  1.1952 -2.0146  0.0943
  116SOL    HW2  348   0.094   1.347   1.960 -0.5471 -1.2888 -0.3325
  117SOL     OW  349   2.738   3.058   0.484 -0.0544 -0.2890  0.2139
  117SOL    HW1  350   2.648   3.056   0.530  0.5676 -0.2975  1.2571
  117SOL    HW2  351   2.745   0.037   0.420 -0.6205 -2.1243  3.2430
  118SOL     OW  352   0.410   2.413   1.708 -0.1388 -0.0242  0.1692
  118SOL    HW1  353   0.501   2.379   1.737 -1.8510 -0.8052 -0.7764
  118SOL    HW2  354   0.418   2.499   1.659 -1.7445  1.6686  0.6903
  119SOL     OW  355   1.843   2.297   1.343 -0.6780  0.3636 -0.1324
  119SOL    HW1  356   1.939   2.333   1.365  3.4669  1.7080  1.8199
  119SOL    HW2  357   1.797   2.356   1.278  2.3621 -0.2511 -0.8814
  120SOL     OW  358   0.362   1.648   2.329 -0.1688 -0.1336  0.5567
  120SOL    HW1  359   0.361   1.604   2.418 -1.6753 -0.2365  0.1504
  120SOL    HW2  360   0.312   1.737   2.345  0.2444  0.3840  0.7029
  121SOL     OW  361   2.896   1.499   0.944  0.3794  0.0713  0.0573
  121SOL    HW1  362   2.825   1.546   0.994  0.0426 -1.1544 -2.3252
  121SOL    HW2  363   2.866   1.403   0.936  0.5589 -0.2609 -2.7025
  122SOL     OW  364   2.043   1.801   2.331  0.3223  0.3566 -0.2171
  122SOL    HW1  365   1.947   1.768   2.330  0.5854  1.9221 -0.1300
  122SOL    HW2  366   2.080   1.822   2.426  1.0940  0.4899 -0.9205
  123SOL     OW  367   2.776   0.210   0.815 -0.2756 -0.5298  0.0746
  123SOL    HW1  368   2.877   0.207   0.808  0.6791 -1.5382 -2.5464
  123SOL    HW2  369   2.749   0.126   0.869  1.3275 -2.2396  3.8901
  124SOL     OW  370   1.228   1.144   2.647  0.1323  0.1575  0.0009
  124SOL    HW1  371   1.247   1.134   2.550  1.1281 -1.7379  0.6160
  124SOL    HW2  372   1.317   1.153   2.698  0.8282 -0.4540  1.1957
  125SOL     OW  373   0.233   1.631   2.703  0.7866  0.1668 -0.7456
  125SOL    HW1  374   0.240   1.652   2.804 -0.4737  0.0433 -0.9994
  125SOL    HW2  375   0.170   1.553   2.681 -2.7338 -3.2058 -2.6369
  126SOL     OW  376   2.841   2.170   0.242  0.6205 -0.7233 -0.0031
  126SOL    HW1  377   2.890   2.255   0.259 -3.9882 -1.3969 -1.5412
  126SOL    HW2  378   2.765   2.169   0.310  0.5754 -2.4967  0.5294
  127SOL     OW  379   0.705   1.670   0.817 -0.1412 -0.2338 -0.5030
  127SOL    HW1  380   0.664   1.757   0.855  0.1306  4.6340  1.5064
  127SOL    HW2  381   0.722   1.688   0.720  1.1083  0.2165  3.1009
  128SOL     OW  382   1.414   0.738   3.042  0.1513 -0.2556 -0.0732
  128SOL    HW1  383   1.463   0.728   0.033 -1.4659 -3.9905 -1.9186
  128SOL    HW2  384   1.420   0.837   3.008 -0.0138  0.9900  0.6995
  129SOL     OW  385   2.292   1.714   1.244 -0.6912 -0.6998  0.2421
  129SOL    HW1  386   2.374   1.738   1.300  1.3642  1.6364 -0.9104
  129SOL    HW2  387   2.235   1.799   1.219  0.9054  3.0173 -0.6821
  130SOL     OW  388   1.779   1.248   0.532  0.5581  0.0623 -0.5113
  130SOL    HW1  389   1.783   1.346   0.500 -2.4238 -1.2890  0.0540
  130SOL    HW2  390   1.824   1.248   0.626  1.0043  0.0886 -0.7432
  131SOL     OW  391   2.849   1.056   2.659 -0.4697 -0.1070  0.3684
  131SOL    HW1  392   2.833   0.973   2.714  0.7329 -0.2187 -0.0483
  131SOL    HW2  393   2.764   1.108   2.637  1.9056 -0.5290 -1.2641
  132SOL     OW  394   2.108   1.477   1.610 -0.2542  0.0828  0.1303
  132SOL    HW1  395   2.136   1.478   1.508  1.3435 -1.9042 -2.5645
  132SOL    HW2  396   2.148   1.554   1.663 -3.2999 -1.4074  2.1138
  133SOL     OW  397   0.238   1.395   2.968 -0.0139 -0.7527  0.1773
  133SOL    HW1  398   0.141   1.422   2.952 -0.1640  1.1866 -0.1858
  133SOL    HW2  399   0.245   1.317   3.027  2.9443  2.5887  0.7333
  134SOL     OW  400   2.924   1.533   0.030 -0.0549  0.5758  0.0477
  134SOL    HW1  401   2.998   1.525   3.055  1.4027 -0.5388 -0.0902
  134SOL    HW2  402   2.860   1.605   0.003 -1.6719  0.8876  3.4062
  135SOL     OW  403   2.385   1.152   0.416  0.5616  0.3624 -0.2246
  135SOL    HW1  404   2.291   1.178   0.388  0.6795  0.5240  0.5799
  135SOL    HW2  405   2.448   1.231   0.437 -1.4827  0.1295 -0.4070
  136SOL     OW  406   1.959   1.212   1.315  0.3527  0.3736 -0.1646
  136SOL    HW1  407   1.960   1.147   1.397 -2.0715  0.1856  1.0166
  136SOL    HW2  408   1.889   1.283   1.335  0.5568 -1.9859 -3.0315
  137SOL     OW  409   2.652   2.196   0.438  0.0571  0.4105 -0.5227
  137SOL    HW1  410   2.552   2.194   0.432  1.2033 -1.2538 -2.0488
  137SOL    HW2  411   2.679   2.141   0.524 -0.6481 -2.6077  2.0036
  138SOL     OW  412   1.241   0.008   1.729 -0.4764 -0.0509 -0.6847
  138SOL    HW1  413   1.296   0.014   1.642  0.8193  0.0293 -0.9763
  138SOL    HW2  414   1.262   0.080   1.798 -1.9855  0.4874  2.5258
  139SOL     OW  415   2.381   0.228   0.051 -0.2467  0.0474 -0.1985
  139SOL    HW1  416   2.448   0.303   0.041  1.0635  0.5864  0.9646
  139SOL    HW2  417   2.421   0.150   0.105 -0.4327 -1.7290 -1.2490
  140SOL     OW  418   1.477   1.997   2.703 -0.3059 -0.1184  0.0260
  140SOL    HW1  419   1.568   1.955   2.684  0.8593 -1.2648  0.0522
  140SOL    HW2  420   1.405   1.933   2.678  2.2374  1.0012  0.1569
  141SOL     OW  421   0.781   1.048   1.698  0.3482 -0.1394 -0.2078
  141SOL    HW1  422   0.744   0.985   1.770  1.2304  3.6421 -0.1180
  141SOL    HW2  423   0.871   1.007   1.667  0.7011 -2.1110  0.1960
  142SOL     OW  424   2.398   2.802   0.225  0.1334  0.0534 -0.1359
  142SOL    HW1  425   2.306   2.835   0.200  0.6970 -1.6490 -1.9575
  142SOL    HW2  426   2.438   2.760   0.144  0.1661  1.3912 -0.9021
  143SOL     OW  427   0.846   2.056   2.937  0.5391 -0.0854  0.0137
  143SOL    HW1  428   0.905   2.050   2.857 -3.7346 -1.1698 -0.1352
  143SOL    HW2  429   0.892   2.109   3.012 -0.9039 -0.8695 -0.1272
  144SOL     OW  430   1.048   2.656   0.201 -0.7149  0.0503 -0.0475
  144SOL    HW1  431   1.032   2.625   0.106  0.1679  1.7253 -1.4991
  144SOL    HW2  432   0.987   2.609   0.271 -4.0357 -2.9789  3.1852
  145SOL     OW  433   2.291   1.815   0.076 -0.2154 -0.4372  0.0740
  145SOL    HW1  434   2.367   1.879   0.097  1.5019 -0.6710  5.0486
  145SOL    HW2  435   2.203   1.861   0.070 -0.5815 -0.2281  1.5754
  146SOL     OW  436   2.459   2.713   3.047 -0.0091  0.1446  0.3049
  146SOL    HW1  437   2.459   2.813   3.019 -0.5227  2.3419 -0.6972
  146SOL    HW2  438   2.529   2.651   2.999  0.6168 -2.0573 -1.5955
  147SOL     OW  439   2.871   2.002   1.352  0.3960  0.4556 -0.3514
  147SOL    HW1  440   2.834   2.039   1.269 -0.6478 -2.2948 -1.3591
  147SOL    HW2  441   2.947   1.933   1.336  2.3969 -2.2302 -2.2769
  148SOL     OW  442   1.776   0.050   0.011 -0.0759 -0.2359  0.1503
  148SOL    HW1  443   1.773   3.044   3.095 -0.3606 -0.6580  1.1754
  148SOL    HW2  444   1.699   0.074   0.071  0.6260 -1.3125 -1.7466
  149SOL     OW  445   1.184   1.437   2.667 -0.0762 -0.9416  0.6192
  149SOL    HW1  446   1.203   1.466   2.763  0.1389 -1.8721  0.6379
  149SOL    HW2  447   1.167   1.338   2.665  3.2935  1.2443 -0.3056
  150SOL     OW  448   0.656   2.196   0.722 -0.3604 -0.1830 -0.2622
  150SOL    HW1  449   0.663   2.245   0.810  2.1957  1.0123 -2.6635
  150SOL    HW2  450   0.733   2.124   0.718 -0.2010 -0.6649 -0.5131
  151SOL     OW  451   0.603   1.937   2.893  0.7895  0.0401  0.2481
  151SOL    HW1  452   0.601   1.837   2.924 -0.6518 -0.9848  0.2481
  151SOL    HW2  453   0.702   1.973   2.900  1.5381  1.3024  0.5736
  152SOL     OW  454   2.578   1.375   0.492 -0.0250  0.1555  0.5268
  152SOL    HW1  455   2.540   1.465   0.456  1.1721  0.4084 -1.1811
  152SOL    HW2  456   2.590   1.386   0.593 -0.9265  1.2615 -1.1841
  153SOL     OW  457   2.028   2.400   0.588  0.0826  0.0183  0.0822
  153SOL    HW1  458   2.092   2.416   0.507  1.4665  0.9260 -0.2451
  153SOL    HW2  459   1.957   2.476   0.587  1.0577 -1.3281  3.9001
  154SOL     OW  460   0.621   2.909   0.712 -0.1216 -0.0184  0.0850
  154SOL    HW1  461   0.693   2.982   0.717 -3.1270  0.1059 -0.1892
  154SOL    HW2  462   0.608   2.874   0.617 -0.7266 -1.0329  1.5699
  155SOL     OW  463   0.397   2.097   0.721  0.2600  0.1616  0.1865
  155SOL    HW1  464   0.491   2.130   0.731 -2.3994 -0.4673 -2.2016
  155SOL    HW2  465   0.341   2.154   0.780 -1.5609  1.4607 -1.1916
  156SOL     OW  466   2.529   2.403   0.072 -0.0278 -0.1014 -0.1237
  156SOL    HW1  467   2.552   2.436   3.076 -0.4249  0.4711  1.6536
  156SOL    HW2  468   2.594   2.434   0.146 -2.8406 -0.7822  2.8383
  157SOL     OW  469   1.092   2.040   1.477 -0.0185 -0.0851  0.4246
  157SOL    HW1  470   0.987   2.040   1.462 -1.7099 -1.3482 -2.8925
  157SOL    HW2  471   1.119   2.058   1.569  0.0730  0.2640 -1.2688
  158SOL     OW  472   1.840   0.766   3.074  0.5407 -0.9927  0.0257
  158SOL    HW1  473   1.817   0.682   3.024  0.1899  1.3672  1.4375
  158SOL    HW2  474   1.828   0.848   3.017 -1.6179  0.6466  0.4787
  159SOL     OW  475   1.013   0.521   2.891  0.1287  0.4137 -0.3358
  159SOL    HW1  476   1.108   0.529   2.876 -4.1448  1.2314  1.5987
  159SOL    HW2  477   0.995   0.522   2.992 -0.9547 -0.1699  0.7624
  160SOL     OW  478   1.253   1.450   0.051 -0.0023 -0.3282  0.3707
  160SOL    HW1  479   1.188   1.477   0.126 -2.3017  2.6274  1.2424
  160SOL    HW2  480   1.337   1.414   0.096 -2.5279  2.2778  0.7095
  161SOL     OW  481   0.033   2.032   2.686 -0.3277 -0.5580 -0.7407
  161SOL    HW1  482   0.004   2.108   2.751  0.3199 -1.7391  1.0420
  161SOL    HW2  483   0.135   2.035   2.668  3.8628  1.3099 -2.2489
  162SOL     OW  484   0.548   2.508   0.951 -0.1506  0.2802  0.1325
  162SOL    HW1  485   0.611   2.588   0.924 -0.3926  1.5424 -1.1740
  162SOL    HW2  486   0.470   2.529   1.017 -3.2921 -2.3622 -0.0950
  163SOL     OW  487   2.811   0.960   3.023  0.1926  0.2113 -0.2378
  163SOL    HW1  488   2.830   0.862   2.998 -0.3416  0.7319  0.6103
  163SOL    HW2  489   2.806   0.975   0.028 -0.1882 -0.2326 -0.4810
  164SOL     OW  490   0.254   0.111   2.743 -0.3517 -0.3209 -0.2262
  164SOL    HW1  491   0.200   0.020   2.741 -0.7642 -1.0461  0.7691
  164SOL    HW2  492   0.356   0.100   2.731  1.0843  3.1817  1.2054
  165SOL     OW  493   1.934   0.157   1.524  0.3269  0.0199  0.4191
  165SOL    HW1  494   1.988   0.123   1.603  0.6449  2.4494 -1.6259
  165SOL    HW2  495   1.925   0.259   1.529  0.6903 -3.7443  0.6060
  166SOL     OW  496   2.017   3.040   1.339  0.2459  0.1948 -0.0525
  166SOL    HW1  497   1.923   3.006   1.365  1.6722  0.6523  2.3266
  166SOL    HW2  498   2.041   0.033   1.390  0.4685  0.6055 -2.6118
  167SOL     OW  499   1.185   0.455   1.876 -0.0401  0.4316 -0.5957
  167SOL    HW1  500   1.132   0.429   1.961  0.2170 -0.9820  0.6130
  167SOL    HW2  501   1.186   0.550   1.857 -1.6994 -1.9510 -1.4199
  168SOL     OW  502   2.500   0.560   1.898  0.2147 -0.6076 -0.5803
  168SOL    HW1  503   2.573   0.505   1.946  0.8101  0.1558  1.0638
  168SOL    HW2  504   2.419   0.501   1.872  0.4893 -0.5625 -0.0817
  169SOL     OW  505   0.366   1.446   0.224  0.0851 -0.1015 -0.1459
  169SOL    HW1  506   0.277   1.494   0.241  3.6906 -3.8841 -0.6979
  169SOL    HW2  507   0.352   1.347   0.230 -1.4530  1.6754 -0.9188
  170SOL     OW  508   0.233   1.439   1.513  0.2227 -0.7432 -0.3215
  170SOL    HW1  509   0.169   1.494   1.566  0.3724 -1.9170 -2.5046
  170SOL    HW2  510   0.196   1.428   1.418  2.2277  2.5151 -0.9949
  171SOL     OW  511   1.101   2.435   2.292  0.2155 -0.6267  0.0196
  171SOL    HW1  512   1.000   2.434   2.282  2.6594  1.9327 -0.9635
  171SOL    HW2  513   1.145   2.349   2.326  0.9864  0.4108 -1.1970
  172SOL     OW  514   0.520   2.643   1.571 -0.4581 -0.4953  0.4416
  172SOL    HW1  515   0.605   2.586   1.557  2.7482 -1.0643  1.4550
  172SOL    HW2  516   0.509   2.712   1.497  1.6352  0.3715  0.3571
  173SOL     OW  517   1.454   2.322   1.077  0.3434  0.6582 -0.5224
  173SOL    HW1  518   1.491   2.258   1.146 -0.7194 -1.1986  0.2362
  173SOL    HW2  519   1.399   2.401   1.120  0.6484  1.8719 -0.2177
  174SOL     OW  520   1.080   3.087   0.639 -0.4213  0.0772 -0.2251
  174SOL    HW1  521   1.176   0.024   0.661  3.2416 -0.0237  0.4043
  174SOL    HW2  522   1.076   2.995   0.595  0.0087 -0.2677  1.2985
  175SOL     OW  523   1.123   1.222   0.215  0.4301 -0.0197 -0.1082
  175SOL    HW1  524   1.103   1.322   0.223 -0.0556  1.8254 -0.9194
  175SOL    HW2  525   1.217   1.202   0.247 -0.7497 -0.2684 -0.4282
  176SOL     OW  526   1.595   0.468   0.489  0.2980  0.7384  0.1133
  176SOL    HW1  527   1.536   0.550   0.508 -2.6189 -0.6838  1.2589
  176SOL    HW2  528   1.638   0.479   0.400 -2.6875  0.7017  3.4813
  177SOL     OW  529   1.224   0.808   1.006  0.5005  0.6392 -0.4955
  177SOL    HW1  530   1.122   0.809   0.994 -0.9501 -1.5711  0.9975
  177SOL    HW2  531   1.252   0.887   1.062 -1.1251 -1.7491 -1.5396
  178SOL     OW  532   2.684   1.648   2.862  0.1316  0.0418 -0.1388
  178SOL    HW1  533   2.686   1.749   2.861  0.5192  0.4308 -1.8105
  178SOL    HW2  534   2.590   1.624   2.885  1.0201  1.3973  0.0385
  179SOL     OW  535   0.604   2.493   2.928  0.1023 -0.5974 -0.0336
  179SOL    HW1  536   0.610   2.560   2.852  0.4853  1.9998 -0.5214
  179SOL    HW2  537   0.638   2.542   3.015  1.9901  1.6747  0.8965
  180SOL     OW  538   1.842   1.512   1.690  0.1700 -0.4309  0.2777
  180SOL    HW1  539   1.928   1.482   1.648  0.4725  0.0922 -0.3429
  180SOL    HW2  540   1.769   1.447   1.664 -0.8302  2.4453 -1.9904
  181SOL     OW  541   1.308   1.314   2.129  0.1321 -0.0450  0.3938
  181SOL    HW1  542   1.222   1.260   2.101 -0.7421  0.0274 -2.5740
  181SOL    HW2  543   1.301   1.410   2.092 -0.1795  3.0133 -1.0004
  182SOL     OW  544   0.176   0.933   2.444 -0.7474 -0.2876  0.0161
  182SOL    HW1  545   0.184   1.036   2.460  0.5310  1.3633 -0.6064
  182SOL    HW2  546   0.113   0.891   2.512 -2.2375  2.0908  0.4345
  183SOL     OW  547   1.562   0.640   2.461 -0.2247  0.4252  0.5885
  183SOL    HW1  548   1.458   0.626   2.450  0.7990  0.8587 -1.8392
  183SOL    HW2  549   1.594   0.605   2.552  1.3436  0.3316  0.6724
  184SOL     OW  550   0.198   0.550   1.430 -0.1933 -0.4683 -0.0181
  184SOL    HW1  551   0.277   0.533   1.366  2.1108  0.2430  1.7677
  184SOL    HW2  552   0.130   0.611   1.390 -0.5265 -0.6093  2.5824
  185SOL     OW  553   2.406   1.669   0.966 -0.9306  0.0141 -0.7693
  185SOL    HW1  554   2.411   1.695   1.064 -0.5930 -1.4166 -0.5911
  185SOL    HW2  555   2.478   1.718   0.910  3.7376  0.6174 -1.9294
  186SOL     OW  556   0.646   1.850   2.618 -0.3994 -0.5562 -0.4657
  186SOL    HW1  557   0.587   1.776   2.587  0.5443  1.8522  1.8191
  186SOL    HW2  558   0.616   1.875   2.710  1.1934 -0.1791 -1.4695
  187SOL     OW  559   2.526   2.077   3.093 -0.3021  0.1167  0.3726
  187SOL    HW1  560   2.610   2.138   3.087  1.2442 -0.1395  1.0234
  187SOL    HW2  561   2.505   2.060   0.095  0.5836  0.3175  2.7958
  188SOL     OW  562   0.546   2.379   0.534  0.0791 -0.4349  0.3028
  188SOL    HW1  563   0.577   2.294   0.584  1.1745  0.2497  1.3091
  188SOL    HW2  564   0.498   2.355   0.453 -0.0874  0.0949  4.1555
  189SOL     OW  565   2.146   0.751   2.909 -0.1400  0.4860  0.3779
  189SOL    HW1  566   2.157   0.794   3.006 -0.0313  0.2755  0.0559
  189SOL    HW2  567   2.148   0.819   2.832  1.6982  0.6209  1.0017
  190SOL     OW  568   1.307   1.934   2.007 -0.4100  0.1987  1.3461
  190SOL    HW1  569   1.375   2.009   2.016 -1.0255 -0.7702 -0.0796
  190SOL    HW2  570   1.311   1.891   1.915 -0.7538  0.1555  3.9879
  191SOL     OW  571   2.221   0.801   1.214 -0.4045  0.0143  0.5261
  191SOL    HW1  572   2.296   0.734   1.226  1.4675  0.4608 -1.8413
  191SOL    HW2  573   2.172   0.780   1.127  0.3258 -0.2180 -0.0742
  192SOL     OW  574   2.111   0.236   1.933  0.3244 -0.0220  0.2640
  192SOL    HW1  575   2.029   0.289   1.899 -0.2270 -2.6884 -0.7302
  192SOL    HW2  576   2.140   0.263   2.024 -1.6870 -1.1974 -3.2695
  193SOL     OW  577   0.092   0.627   0.758 -0.2298  0.2755 -0.5201
  193SOL    HW1  578   0.106   0.578   0.846 -0.1855  3.2868  2.2067
  193SOL    HW2  579   0.181   0.666   0.718  1.8024  2.7829 -0.8528
  194SOL     OW  580   1.644   2.533   1.675  0.1539 -0.4899  0.0891
  194SOL    HW1  581   1.578   2.547   1.596  1.1372  1.4939 -0.5982
  194SOL    HW2  582   1.740   2.521   1.644 -0.7976  0.1954  1.0523
  195SOL     OW  583   2.548   0.623   0.842 -0.1850  0.2565  0.1631
  195SOL    HW1  584   2.520   0.527   0.862  0.4058  0.2432 -2.2695
  195SOL    HW2  585   2.644   0.622   0.798  1.3008  0.2943  1.3624
  196SOL     OW  586   1.146   2.016   1.760 -0.8255 -0.2723  0.0839
  196SOL    HW1  587   1.199   2.109   1.763  1.9072  2.3154 -0.5442
  196SOL    HW2  588   1.213   1.939   1.765  1.2058 -1.2235 -0.1613
  197SOL     OW  589   0.204   0.232   2.496 -0.3171 -0.0858  0.1066
  197SOL    HW1  590   0.230   0.214   2.591  0.6579  1.7025 -1.0015
  197SOL    HW2  591   0.227   0.329   2.477 -0.9441 -2.6268  2.3472
  198SOL     OW  592   1.134   0.897   0.633  0.6598 -0.5010  0.6040
  198SOL    HW1  593   1.133   0.812   0.690  0.0838  2.5619  0.3674
  198SOL    HW2  594   1.124   0.877   0.532 -0.8340 -2.2169 -0.0894
  199SOL     OW  595   2.726   0.973   1.900  0.6091 -0.0289 -0.6399
  199SOL    HW1  596   2.714   0.907   1.819  0.3111 -0.8823 -3.5726
  199SOL    HW2  597   2.655   1.047   1.899 -3.3157  2.2973  0.9170
  200SOL     OW  598   2.319   2.769   2.383  0.0742  0.5100  0.1929
  200SOL    HW1  599   2.373   2.837   2.335  1.5399  0.3316 -0.4417
  200SOL    HW2  600   2.264   2.718   2.318  0.5578  1.8029  2.6362
  201SOL     OW  601   2.535   0.354   1.576  1.0590 -0.6059 -0.1423
  201SOL    HW1  602   2.603   0.283   1.585 -2.2140 -0.6263  0.0636
  201SOL    HW2  603   2.505   0.350   1.477  0.3758  0.9614  2.1810
  202SOL     OW  604   2.266   3.086   0.283  0.1870  0.6561  0.4068
  202SOL    HW1  605   2.220   3.067   0.370  0.8205  0.4112 -2.8724
  202SOL    HW2  606   2.208   3.040   0.212 -1.3274 -1.2556 -1.6011
  203SOL     OW  607   1.214   2.209   2.362  0.1824  0.1777  0.3236
  203SOL    HW1  608   1.132   2.148   2.384 -3.4397 -0.5400 -2.6041
  203SOL    HW2  609   1.283   2.220   2.435  0.0560 -0.5411  0.8177
  204SOL     OW  610   0.988   1.549   2.494 -0.3923  0.0043  0.4941
  204SOL    HW1  611   1.048   1.501   2.559  1.7387  2.3816 -0.0147
  204SOL    HW2  612   0.969   1.487   2.416 -0.0146  0.1968  1.8821
  205SOL     OW  613   1.142   1.363   1.272  0.1898 -0.1202 -0.4374
  205SOL    HW1  614   1.217   1.383   1.205  0.4174 -1.6340  0.0299
  205SOL    HW2  615   1.114   1.261   1.272 -0.2833  0.3365 -1.0584
  206SOL     OW  616   0.388   0.474   2.757  0.3638  0.4506  0.2016
  206SOL    HW1  617   0.368   0.498   2.659 -1.4998 -1.0506  1.3667
  206SOL    HW2  618   0.307   0.428   2.795 -0.0924 -1.8542  0.1011
  207SOL     OW  619   1.716   2.635   2.270 -0.0436  0.1353  0.2657
  207SOL    HW1  620   1.705   2.667   2.366 -1.6702 -2.8015 -2.3792
  207SOL    HW2  621   1.618   2.624   2.234  1.3029 -0.0737  0.1770
  208SOL     OW  622   0.863   2.314   1.345 -0.0283 -0.1953  0.6212
  208SOL    HW1  623   0.929   2.363   1.401 -4.3942 -2.3510 -1.9023
  208SOL    HW2  624   0.904   2.292   1.254  1.2880  0.0717 -0.4044
  209SOL     OW  625   1.295   1.178   2.389 -0.4542 -0.4726  0.7166
  209SOL    HW1  626   1.341   1.196   2.300  3.2692  1.7154 -2.0219
  209SOL    HW2  627   1.198   1.196   2.382  2.8407 -0.6512  1.8653
  210SOL     OW  628   2.022   1.067   0.892  0.0894  0.3697 -0.3312
  210SOL    HW1  629   2.025   1.058   0.996  0.5590 -0.1807 -3.3723
  210SOL    HW2  630   2.031   0.973   0.848  1.7541 -2.1964 -1.0249
  211SOL     OW  631   0.684   2.602   0.497 -0.2668 -0.5992 -0.3546
  211SOL    HW1  632   0.622   2.524   0.525  0.1105  0.8694  0.3750
  211SOL    HW2  633   0.771   2.575   0.452  4.0560  0.2253  0.7461
  212SOL     OW  634   1.814   1.849   0.374  0.0350 -0.0434  0.6057
  212SOL    HW1  635   1.721   1.839   0.337 -1.7331  0.9794 -0.0102
  212SOL    HW2  636   1.831   1.942   0.417  0.5963  1.6389 -0.3193
  213SOL     OW  637   1.689   0.501   2.973  0.0880 -0.7196  0.1063
  213SOL    HW1  638   1.595   0.470   3.002 -0.6358  1.3716  0.9966
  213SOL    HW2  639   1.757   0.442   3.018  1.2089  1.3911  0.1152
  214SOL     OW  640   1.209   1.566   2.042 -0.3158  0.8143 -0.4676
  214SOL    HW1  641   1.174   1.561   1.945 -1.1497 -0.9186 -0.5273
  214SOL    HW2  642   1.183   1.658   2.086 -1.3803  3.2342 -2.1030
  215SOL     OW  643   0.861   1.754   0.283 -0.0791  0.4464  0.3027
  215SOL    HW1  644   0.868   1.738   0.178  0.7506  0.2634 -1.7566
  215SOL    HW2  645   0.884   1.668   0.336  3.7444  1.2389 -0.3925
  216SOL     OW  646   0.320   2.785   2.584 -0.0361  0.4878 -0.0547
  216SOL    HW1  647   0.282   2.695   2.619 -0.8561  1.9160  0.1531
  216SOL    HW2  648   0.347   2.776   2.486 -0.1417 -1.0658 -2.1990
  217SOL     OW  649   2.573   0.744   1.089  0.3399  0.5555  0.1906
  217SOL    HW1  650   2.549   0.708   0.997 -0.2422 -1.7396 -1.4682
  217SOL    HW2  651   2.675   0.749   1.096 -0.4143 -0.3337  0.7017
  218SOL     OW  652   2.047   1.496   2.139 -0.4473  0.1229  0.1817
  218SOL    HW1  653   2.003   1.482   2.230  2.1306  0.8754  1.4354
  218SOL    HW2  654   2.127   1.563   2.149  1.7084 -0.7523 -1.1015
  219SOL     OW  655   1.999   1.663   0.311 -0.1132 -0.2192 -0.4273
  219SOL    HW1  656   1.979   1.669   0.212  1.7256  2.0313 -0.2716
  219SOL    HW2  657   1.941   1.727   0.370 -1.5154  0.9528 -0.0568
  220SOL     OW  658   1.542   1.096   0.577  0.4457 -0.1321  0.5406
  220SOL    HW1  659   1.459   1.114   0.634  1.1976 -1.8892  0.9369
  220SOL    HW2  660   1.606   1.174   0.582  1.9548 -0.5713  0.3911
  221SOL     OW  661   0.557   0.637   2.841  0.0216 -0.0414  0.0322
  221SOL    HW1  662   0.583   0.605   2.932  1.4351 -2.8811 -1.5490
  221SOL    HW2  663   0.491   0.574   2.801 -3.1435 -0.1157  2.1545
  222SOL     OW  664   1.455   1.368   0.200  0.0393  0.1927  0.1559
  222SOL    HW1  665   1.492   1.429   0.279  0.2499  1.5654  2.1166
  222SOL    HW2  666   1.418   1.277   0.234  0.5081 -4.0802  1.9398
  223SOL     OW  667   1.063   0.097   0.131  0.0437  0.1977  0.0551
  223SOL    HW1  668   0.980   0.079   0.187  1.7938  0.0508 -1.5207
  223SOL    HW2  669   1.136   0.155   0.171  1.1151 -0.2726 -0.4248
  224SOL     OW  670   2.108   0.040   1.738  0.6033 -0.4543  0.7715
  224SOL    HW1  671   2.123   0.122   1.799  1.9062 -1.2562 -0.5022
  224SOL    HW2  672   2.196   3.084   1.739  2.2374 -1.0701  0.5306
  225SOL     OW  673   0.331   2.827   1.032  0.4952  0.5185 -0.1053
  225SOL    HW1  674   0.231   2.834   1.045 -1.0765 -1.3526 -1.7054
  225SOL    HW2  675   0.354   2.903   0.967  0.3755  2.6161 -0.6977
  226SOL     OW  676   1.257   1.550   2.912 -0.2873 -0.6285 -0.0016
  226SOL    HW1  677   1.331   1.626   2.895  3.7451  1.5991 -0.9286
  226SOL    HW2  678   1.259   1.517   3.009  1.3551 -2.3121  0.1379
  227SOL     OW  679   1.309   1.465   0.928 -0.0642  0.3582 -0.0985
  227SOL    HW1  680   1.241   1.542   0.919  0.1234 -0.3221 -1.2178
  227SOL    HW2  681   1.392   1.492   0.978  1.3654  0.7532 -1.2555
  228SOL     OW  682   0.488   1.724   0.512 -0.2834  0.0585 -0.0366
  228SOL    HW1  683   0.526   1.648   0.457 -0.7812  1.5671 -0.3147
  228SOL    HW2  684   0.387   1.730   0.498 -0.5700 -0.3618 -1.5604
  229SOL     OW  685   1.354   0.304   2.961  0.2068  0.0607  0.7647
  229SOL    HW1  686   1.327   0.393   2.920 -0.3155  0.1981  1.3021
  229SOL    HW2  687   1.270   0.247   2.977 -1.2542  0.3410  0.8672
  230SOL     OW  688   1.604   0.880   2.748 -0.3055  0.1761 -0.1685
  230SOL    HW1  689   1.628   0.783   2.731 -0.5535 -3.4914  0.5379
  230SOL    HW2  690   1.680   0.928   2.799  0.4110  1.8279 -0.8319
  231SOL     OW  691   1.272   1.850   2.570 -0.3076  0.4962 -0.5151
  231SOL    HW1  692   1.226   1.852   2.661  0.3291  1.1829  2.6309
  231SOL    HW2  693   1.212   1.846   2.487  3.1368  2.2606 -0.9109
  232SOL     OW  694   2.419   2.253   0.683  0.2114 -0.1578 -0.5856
  232SOL    HW1  695   2.366   2.337   0.701  0.6093  1.7292  0.4707
  232SOL    HW2  696   2.390   2.210   0.596  2.9505 -0.5897  0.8503
  233SOL     OW  697   2.510   2.643   0.392 -0.1205 -0.1798 -0.5436
  233SOL    HW1  698   2.450   2.702   0.331 -2.1911  0.0677 -1.3113
  233SOL    HW2  699   2.484   2.650   0.493 -0.0185 -0.5004  2.1811
  234SOL     OW  700   0.741   0.633   2.622  0.0086 -0.9678  0.2300
  234SOL    HW1  701   0.692   0.612   2.709 -2.4433  1.0800 -0.8379
  234SOL    HW2  702   0.822   0.691   2.643 -0.9882  2.4319  0.9753
  235SOL     OW  703   2.821   0.408   2.550 -0.5613 -0.0482 -0.5021
  235SOL    HW1  704   2.750   0.339   2.523 -2.7863 -0.6053  1.8269
  235SOL    HW2  705   2.782   0.498   2.553  4.2713 -1.2261  1.1273
  236SOL     OW  706   2.166   2.466   1.864  0.0281  0.0651 -0.4803
  236SOL    HW1  707   2.085   2.420   1.891  3.8749  4.2376 -0.3775
  236SOL    HW2  708   2.234   2.454   1.940 -0.4070  2.1014 -0.3043
  237SOL     OW  709   0.685   1.522   2.098 -0.5338  0.3522  0.0750
  237SOL    HW1  710   0.651   1.614   2.126  4.3409 -0.7359 -1.6309
  237SOL    HW2  711   0.705   1.473   2.186  0.8980  1.1196  2.3973
  238SOL     OW  712   1.612   0.305   2.630  0.0810 -0.4890 -0.3905
  238SOL    HW1  713   1.665   0.227   2.666 -1.6832 -0.2355  2.1928
  238SOL    HW2  714   1.642   0.324   2.532  0.2477 -0.0898 -0.0257
  239SOL     OW  715   0.227   2.199   1.587  0.2275  0.8047 -0.3090
  239SOL    HW1  716   0.211   2.201   1.686 -0.3327 -1.2157 -0.3282
  239SOL    HW2  717   0.314   2.149   1.557 -0.9000 -1.1320 -2.0149
  240SOL     OW  718   2.652   2.331   0.795  0.2653 -0.0811 -0.0346
  240SOL    HW1  719   2.725   2.347   0.725  2.5542  1.4991  0.1594
  240SOL    HW2  720   2.565   2.296   0.754 -1.1098 -2.1257 -1.1691
  241SOL     OW  721   2.606   1.037   0.822  0.1232 -0.2194 -0.1067
  241SOL    HW1  722   2.564   1.027   0.910 -3.0949  0.9802 -1.4453
  241SOL    HW2  723   2.538   1.076   0.758 -0.4586  2.5075  0.7535
  242SOL     OW  724   2.140   2.362   2.570  0.1050 -0.0652  0.0762
  242SOL    HW1  725   2.129   2.273   2.621 -2.0477  1.1824 -1.0212
  242SOL    HW2  726   2.123   2.344   2.472  0.7077 -0.2150 -0.0244
  243SOL     OW  727   0.833   2.504   1.654  0.2657 -0.3206 -0.1460
  243SOL    HW1  728   0.871   2.592   1.691 -0.1656 -0.1722 -0.1967
  243SOL    HW2  729   0.903   2.471   1.587 -1.3517  2.1713 -0.4248
  244SOL     OW  730   1.935   0.181   2.875 -0.0752  0.4384 -0.0918
  244SOL    HW1  731   1.899   0.135   2.960 -0.9866 -1.0814 -2.4468
  244SOL    HW2  732   1.940   0.112   2.798 -1.0314 -1.4791 -0.5456
  245SOL     OW  733   1.167   3.090   1.336 -0.7265  0.1054  0.2763
  245SOL    HW1  734   1.074   0.012   1.301  2.1438  2.2656  1.2404
  245SOL    HW2  735   1.175   2.995   1.373  0.3946  0.6520  1.2442
  246SOL     OW  736   1.542   2.398   0.303  0.5875 -0.1877  0.3087
  246SOL    HW1  737   1.608   2.473   0.322  2.7957  0.9518  0.9442
  246SOL    HW2  738   1.506   2.406   0.205  1.3418  2.1871 -0.9314
  247SOL     OW  739   1.298   0.587   2.434 -0.4440  0.0895  0.1225
  247SOL    HW1  740   1.204   0.591   2.398  4.9964 -0.5885 -0.0321
  247SOL    HW2  741   1.304   0.507   2.497  4.0809  2.1602  0.0116
  248SOL     OW  742   0.466   1.977   1.848 -0.1108 -0.7134  0.2258
  248SOL    HW1  743   0.395   1.994   1.919 -2.1915 -1.6061  0.8891
  248SOL    HW2  744   0.475   1.876   1.834  0.8891 -0.7268 -1.0464
  249SOL     OW  745   2.187   0.206   0.597 -0.6129 -0.6545 -0.3103
  249SOL    HW1  746   2.222   0.234   0.505  0.3620 -0.6385  1.1140
  249SOL    HW2  747   2.135   0.121   0.584  1.2652  1.3173 -1.8119
  250SOL     OW  748   0.203   0.726   0.460  0.1006 -0.2288 -0.2073
  250SOL    HW1  749   0.263   0.731   0.377 -2.5890  1.0040  0.5902
  250SOL    HW2  750   0.108   0.734   0.428  3.2129  0.5309 -0.1148
  251SOL     OW  751   1.276   0.564   2.860 -0.1049  0.6218 -0.1309
  251SOL    HW1  752   1.318   0.628   2.921 -1.5990 -1.4125 -1.2871
  251SOL    HW2  753   1.310   0.569   2.766 -0.8254 -0.4004 -0.5477
  252SOL     OW  754   1.657   1.888   2.028 -0.0016  0.3071  0.0393
  252SOL    HW1  755   1.749   1.919   1.989  0.8379  1.0467  2.1287
  252SOL    HW2  756   1.643   1.784   2.015  0.0966  1.1164  0.8606
  253SOL     OW  757   2.621   2.383   1.588 -0.2215 -0.2180  0.3957
  253SOL    HW1  758   2.529   2.373   1.622  2.4767  0.8949 -1.5283
  253SOL    HW2  759   2.679   2.300   1.587 -0.6589 -0.3122  1.6329
  254SOL     OW  760   2.958   1.158   1.153 -0.1665  0.3069  0.2620
  254SOL    HW1  761   3.005   1.244   1.185 -1.9996  1.4395  0.2350
  254SOL    HW2  762   3.014   1.097   1.089 -1.2225 -0.3173 -0.8056
  255SOL     OW  763   1.030   0.418   0.987 -0.1378 -0.1239  0.4819
  255SOL    HW1  764   0.965   0.404   1.064  0.9176 -1.8507  0.6101
  255SOL    HW2  765   1.000   0.502   0.937  2.3397 -1.4111 -0.8907
  256SOL     OW  766   1.861   2.298   1.614  0.2612  0.1946 -0.4123
  256SOL    HW1  767   1.845   2.309   1.516 -0.1542  0.3281  3.9213
  256SOL    HW2  768   1.868   2.196   1.638 -1.5272 -2.6135 -2.9922
  257SOL     OW  769   0.723   2.833   2.426  0.2169 -0.5513  0.3493
  257SOL    HW1  770   0.773   2.788   2.500  0.7858  2.1807 -2.5274
  257SOL    HW2  771   0.793   2.862   2.359  0.1883 -0.4158 -1.2657
  258SOL     OW  772   0.919   2.228   0.251 -0.3404 -0.3648 -0.2345
  258SOL    HW1  773   0.816   2.226   0.226 -2.1016 -0.9688 -0.2694
  258SOL    HW2  774   0.952   2.133   0.274 -1.3813  0.6849 -2.2520
  259SOL     OW  775   1.257   3.085   2.605 -0.0952  0.1703  0.4816
  259SOL    HW1  776   1.196   3.093   2.521  0.8293  1.2354 -0.7446
  259SOL    HW2  777   1.353   3.064   2.589 -1.8181 -0.6051  1.9790
  260SOL     OW  778   1.837   0.625   1.133  0.4575  0.7819 -0.0092
  260SOL    HW1  779   1.781   0.702   1.161 -0.9121 -0.0694 -0.8611
  260SOL    HW2  780   1.789   0.566   1.068  3.2949 -1.8039 -2.2264
  261SOL     OW  781   0.618   0.356   2.413  0.0450 -0.0582  0.0770
  261SOL    HW1  782   0.520   0.351   2.382 -0.2339 -0.8283  2.4298
  261SOL    HW2  783   0.647   0.453   2.396  0.7390  2.4647 -0.2846
  262SOL     OW  784   0.233   2.052   2.046  0.0167  0.2040 -0.2460
  262SOL    HW1  785   0.313   2.084   2.101  1.8684 -0.3455  0.1023
  262SOL    HW2  786   0.209   2.120   1.975  1.0112 -1.1268  2.5305
  263SOL     OW  787   2.691   1.456   2.368 -0.6601  0.0020 -0.2362
  263SOL    HW1  788   2.762   1.482   2.437  0.2937  1.9203  0.1900
  263SOL    HW2  789   2.625   1.532   2.362 -1.0441 -0.5078  2.4234
  264SOL     OW  790   0.992   1.030   0.813 -0.1427  0.5670  0.2176
  264SOL    HW1  791   0.891   1.022   0.792 -1.5616 -1.3138  1.3091
  264SOL    HW2  792   1.041   0.968   0.755  1.4919 -1.7943  4.4311
  265SOL     OW  793   1.272   2.488   1.221 -0.2734 -0.1365 -0.0371
  265SOL    HW1  794   1.269   2.433   1.304 -1.2403  0.4141  1.3824
  265SOL    HW2  795   1.323   2.579   1.234  0.9191  3.5527  0.4464
  266SOL     OW  796   1.745   1.011   1.085 -0.0008 -0.1988 -0.0966
  266SOL    HW1  797   1.841   0.988   1.113 -0.4663 -0.7217  0.2273
  266SOL    HW2  798   1.694   0.942   1.032 -1.6168  2.4500  1.9202
  267SOL     OW  799   2.349   1.112   3.058 -0.0525  0.8832 -0.1913
  267SOL    HW1  800   2.427   1.079   2.994  2.4142  0.2028  2.4300
  267SOL    HW2  801   2.294   1.030   3.087  0.8004 -3.7764 -1.1750
  268SOL     OW  802   1.253   0.164   0.347  0.3200  0.4307 -0.0720
  268SOL    HW1  803   1.320   0.202   0.415 -0.4058  2.3369 -2.5327
  268SOL    HW2  804   1.283   0.074   0.313  2.8760  2.5482 -0.4349
  269SOL     OW  805   2.680   0.636   2.561  0.2878 -0.5040 -0.0219
  269SOL    HW1  806   2.666   0.659   2.462 -1.9986  0.1790  0.9892
  269SOL    HW2  807   2.584   0.622   2.592  1.5016 -0.0245 -0.0280
  270SOL     OW  808   0.313   1.284   2.701 -0.5446 -0.4077  0.5974
  270SOL    HW1  809   0.264   1.343   2.772  0.4383 -0.3980  1.2030
  270SOL    HW2  810   0.411   1.302   2.710  0.0366  1.7382  1.0309
  271SOL     OW  811   2.771   1.003   0.217 -0.0844  0.2566 -0.3486
  271SOL    HW1  812   2.691   0.964   0.266  0.2875 -0.8243 -1.2694
  271SOL    HW2  813   2.800   1.091   0.259  1.6677  1.3533  3.5470
  272SOL     OW  814   2.691   2.775   2.589 -0.4061 -1.1303  0.0354
  272SOL    HW1  815   2.793   2.771   2.573  1.4431  0.3174  0.7654
  272SOL    HW2  816   2.657   2.680   2.610 -0.4294 -1.6292  0.3139
  273SOL     OW  817   3.011   3.025   2.631 -0.4346 -0.3795  0.2353
  273SOL    HW1  818   3.006   0.015   2.580 -0.5300 -1.5134  1.0636
  273SOL    HW2  819   2.949   3.021   2.715 -2.2774 -0.5713 -0.1474
  274SOL     OW  820   0.794   2.384   0.924  0.1965 -0.1308  0.0649
  274SOL    HW1  821   0.695   2.414   0.937  0.6250 -1.1809  0.1227
  274SOL    HW2  822   0.830   2.437   0.844  0.7077 -1.1505  2.0882
  275SOL     OW  823   2.198   0.864   0.500  0.1360  0.4178  0.2540
  275SOL    HW1  824   2.156   0.771   0.488 -1.7483  2.2969 -1.3524
  275SOL    HW2  825   2.293   0.852   0.532 -0.6272 -2.8998 -0.8721
  276SOL     OW  826   2.917   1.330   1.538 -0.1665  0.1153  0.4816
  276SOL    HW1  827   2.848   1.329   1.463 -1.5271  0.2245  2.6183
  276SOL    HW2  828   2.870   1.356   1.627  1.0085  0.8753  0.0796
  277SOL     OW  829   2.163   2.980   1.120 -0.1731 -0.2805  0.7841
  277SOL    HW1  830   2.111   3.008   1.203  0.0232 -0.6969  1.4266
  277SOL    HW2  831   2.257   2.963   1.149  1.7129 -0.3631  0.2555
  278SOL     OW  832   1.654   2.466   2.639 -0.3012 -0.4759  0.4954
  278SOL    HW1  833   1.620   2.437   2.547  1.0828 -0.7789 -0.6104
  278SOL    HW2  834   1.655   2.391   2.704 -0.7674  1.5500 -0.8087
  279SOL     OW  835   1.730   2.047   1.294 -0.1467 -0.2425 -0.7121
  279SOL    HW1  836   1.747   1.985   1.373  1.4305  0.5949 -0.4405
  279SOL    HW2  837   1.799   2.124   1.300 -1.3142  2.1675 -0.1382
  280SOL     OW  838   0.480   1.485   0.807 -0.1105  0.0423 -0.2455
  280SOL    HW1  839   0.543   1.562   0.806 -1.8378 -0.5230  0.9466
  280SOL    HW2  840   0.446   1.475   0.899  3.2195  2.1474 -3.8539
  281SOL     OW  841   2.677   1.278   2.582  0.0700 -0.8227 -0.3104
  281SOL    HW1  842   2.601   1.302   2.643  1.5610 -1.1743 -1.9636
  281SOL    HW2  843   2.673   1.319   2.486  1.2549 -3.8099 -0.1729
  282SOL     OW  844   0.550   1.429   0.025  0.1037 -0.1701 -0.2037
  282SOL    HW1  845   0.475   1.430   0.093  0.9487 -0.6295 -0.7190
  282SOL    HW2  846   0.643   1.400   0.059 -1.5298 -0.4631  0.7623
  283SOL     OW  847   2.010   2.525   0.157 -0.3231  0.2441 -0.3865
  283SOL    HW1  848   2.099   2.544   0.111  2.3146 -0.9636 -2.9606
  283SOL    HW2  849   1.959   2.451   0.109  0.1979 -1.2743  0.4596
  284SOL     OW  850   0.868   3.019   0.974  0.0024  0.1234  0.0195
  284SOL    HW1  851   0.873   3.053   0.877  2.2948  0.6434 -0.0792
  284SOL    HW2  852   0.904   2.922   0.974 -0.3732 -1.1281 -0.3413
  285SOL     OW  853   2.215   1.365   2.658 -0.2684 -1.0171  0.0368
  285SOL    HW1  854   2.180   1.344   2.564 -2.5733 -1.4483  0.8528
  285SOL    HW2  855   2.143   1.364   2.735 -0.4880  1.9224  2.4839
  286SOL     OW  856   1.971   2.501   0.979  0.3248  0.4064 -0.0041
  286SOL    HW1  857   2.022   2.427   1.027  0.5043 -3.6489 -0.3736
  286SOL    HW2  858   2.032   2.576   0.947 -0.2231  2.1031 -2.3702
  287SOL     OW  859   1.260   0.302   1.054 -0.1674  0.4297  0.0048
  287SOL    HW1  860   1.272   0.201   1.057 -2.6731  1.6436  1.3918
  287SOL    HW2  861   1.165   0.335   1.023 -3.7473  0.7205 -1.4339
  288SOL     OW  862   0.836   2.407   2.769  0.0906  0.3861 -0.7298
  288SOL    HW1  863   0.758   2.383   2.826  1.3813  1.6120 -1.6978
  288SOL    HW2  864   0.881   2.488   2.801 -0.0685 -0.9166  2.9546
  289SOL     OW  865   0.048   1.455   0.829 -0.1731 -0.1314  0.2082
  289SOL    HW1  866   3.076   1.474   0.899  1.4708 -1.2307 -0.0383
  289SOL    HW2  867   0.075   1.544   0.786  2.9362 -1.1428  0.1341
  290SOL     OW  868   1.531   1.989   1.136 -0.1188  0.0424 -0.4904
  290SOL    HW1  869   1.628   2.006   1.171  3.6951 -2.5736  0.1310
  290SOL    HW2  870   1.455   2.032   1.190 -0.8470 -0.8588 -0.8658
  291SOL     OW  871   1.348   3.052   0.194 -0.7362  0.1637 -0.3205
  291SOL    HW1  872   1.295   2.965   0.209 -0.0288  2.6161  2.0960
  291SOL    HW2  873   1.362   3.059   0.095 -1.1027  2.6185  1.5217
  292SOL     OW  874   0.424   0.414   1.919  0.2456 -0.9447  0.1906
  292SOL    HW1  875   0.387   0.503   1.957 -1.5835  0.8964  1.3877
  292SOL    HW2  876   0.522   0.429   1.915 -2.0454  1.7147  3.6562
  293SOL     OW  877   2.560   1.896   1.388  0.0837 -0.0735  0.0295
  293SOL    HW1  878   2.657   1.892   1.368 -1.4847 -0.3453 -0.2404
  293SOL    HW2  879   2.516   1.987   1.370 -1.1784 -2.3152  0.6067
  294SOL     OW  880   0.930   0.241   2.370  1.0763  0.1966  0.3334
  294SOL    HW1  881   0.894   0.311   2.434  0.4643  1.0609  0.6300
  294SOL    HW2  882   0.855   0.191   2.324  1.8048 -1.1305  3.3573
  295SOL     OW  883   1.730   1.599   1.337  0.2813  0.1754  0.0721
  295SOL    HW1  884   1.740   1.500   1.362  3.5293  0.5788 -1.3880
  295SOL    HW2  885   1.770   1.662   1.409  0.9911  2.9294  0.2963
  296SOL     OW  886   2.495   1.951   0.235  0.2478 -0.1771  0.8867
  296SOL    HW1  887   2.468   2.008   0.313 -0.1468 -1.7663 -1.6620
  296SOL    HW2  888   2.573   1.888   0.250  1.4252 -0.3147  1.8187
  297SOL     OW  889   2.754   0.173   0.287  0.6538  0.2583 -0.1975
  297SOL    HW1  890   2.668   0.131   0.251 -1.7671 -0.0897 -1.3718
  297SOL    HW2  891   2.758   0.269   0.257  0.7258 -0.8898  0.2003
  298SOL     OW  892   0.871   0.020   2.828 -0.4581 -0.5154  0.1718
  298SOL    HW1  893   0.854   3.046   2.904 -0.0030  0.8847 -3.1745
  298SOL    HW2  894   0.862   0.116   2.858  0.2887 -2.1283  0.2507
  299SOL     OW  895   0.694   2.195   2.173 -0.4623 -0.1897 -0.3859
  299SOL    HW1  896   0.711   2.125   2.105 -1.5776  2.1858  3.4507
  299SOL    HW2  897   0.717   2.158   2.269  0.4783 -1.7452 -1.1844
  300SOL     OW  898   2.783   2.961   2.143 -0.0801  0.3883  0.1673
  300SOL    HW1  899   2.793   3.064   2.140 -1.4261  0.5928 -0.9669
  300SOL    HW2  900   2.875   2.923   2.118 -5.9601 -0.9824  0.4395
  301SOL     OW  901   1.192   0.735   1.744  0.4760 -0.4017 -0.5459
  301SOL    HW1  902   1.238   0.673   1.680 -1.7946  0.3403  2.2354
  301SOL    HW2  903   1.259   0.794   1.796 -2.1776 -1.3541 -0.3142
  302SOL     OW  904   3.065   2.026   0.274  0.4619 -0.3719  0.1816
  302SOL    HW1  905   0.028   2.104   0.307  2.2619  1.5848  0.9096
  302SOL    HW2  906   2.973   2.060   0.244  1.0745 -1.8866 -1.3605
  303SOL     OW  907   2.512   2.609   1.692 -0.4005 -0.0186 -0.2060
  303SOL    HW1  908   2.570   2.529   1.661  0.0196 -1.9538 -0.5020
  303SOL    HW2  909   2.525   2.656   1.784 -0.5436  0.6409  1.5104
  304SOL     OW  910   2.780   0.772   1.607 -0.0811  0.4901  0.1782
  304SOL    HW1  911   2.705   0.699   1.594 -1.4457  0.0512  0.3047
  304SOL    HW2  912   2.852   0.753   1.679  1.3943 -2.4122  1.2696
  305SOL     OW  913   0.977   1.865   0.917  0.5599 -0.6843 -0.7117
  305SOL    HW1  914   1.027   1.935   0.973 -0.0264  0.3179 -1.3676
  305SOL    HW2  915   0.892   1.825   0.959  0.5568  0.1428 -0.9773
  306SOL     OW  916   0.460   1.334   2.041 -0.1264  0.3596  0.0644
  306SOL    HW1  917   0.393   1.411   2.051  1.9641  3.0694 -1.2377
  306SOL    HW2  918   0.551   1.371   2.070 -2.7724  1.9865  0.0344
  307SOL     OW  919   0.986   0.351   1.658  0.0717 -0.1606 -0.1584
  307SOL    HW1  920   1.046   0.402   1.721 -0.7747  0.0425 -1.0207
  307SOL    HW2  921   1.013   0.254   1.648 -0.0537  1.4442 -0.0071
  308SOL     OW  922   3.078   0.980   0.958  0.0738 -0.2852 -0.3360
  308SOL    HW1  923   0.058   0.934   1.008 -1.2850 -0.6908  0.0668
  308SOL    HW2  924   3.080   0.959   0.857  0.4597  0.0611  1.8708
  309SOL     OW  925   2.737   1.064   1.269  0.0564 -0.0657  0.1303
  309SOL    HW1  926   2.710   1.149   1.326  0.3584  1.0776  0.2405
  309SOL    HW2  927   2.820   1.079   1.217 -1.8114  1.4295  2.0393
  310SOL     OW  928   0.108   1.776   2.431  0.1602  0.3195 -0.7068
  310SOL    HW1  929   0.114   1.743   2.528 -1.1840 -0.6624  0.6801
  310SOL    HW2  930   0.176   1.846   2.409  0.7235  1.2651 -0.6769
  311SOL     OW  931   2.601   2.624   2.216  0.0594 -0.2296 -0.2972
  311SOL    HW1  932   2.669   2.628   2.140 -0.5156  1.0518 -0.5221
  311SOL    HW2  933   2.602   2.711   2.267 -1.0322 -0.2623  1.1453
  312SOL     OW  934   2.110   2.159   3.070  0.3508  0.2948  0.2719
  312SOL    HW1  935   2.020   2.204   3.081 -1.0421 -1.3078 -3.7370
  312SOL    HW2  936   2.118   2.073   0.026 -0.6859 -0.8330  1.0391
  313SOL     OW  937   2.923   2.949   0.671  0.3097  0.3676  0.3290
  313SOL    HW1  938   2.853   3.000   0.613 -3.0827  1.6041  0.2778
  313SOL    HW2  939   3.016   2.962   0.628 -2.7188 -1.5127 -0.1634
  314SOL     OW  940   1.828   1.187   0.092 -0.1797 -0.0616  0.5208
  314SOL    HW1  941   1.833   1.143   0.183  2.3866 -0.3886 -1.1710
  314SOL    HW2  942   1.909   1.250   0.071  1.8595 -1.4237  0.3412
  315SOL     OW  943   1.500   2.961   2.500 -0.1763 -0.1693  0.0673
  315SOL    HW1  944   1.505   3.014   2.412  0.8025  0.8490 -1.8873
  315SOL    HW2  945   1.553   2.877   2.499 -2.0476  0.9935  0.2177
  316SOL     OW  946   2.996   1.480   0.292 -0.3414  0.4166  0.1446
  316SOL    HW1  947   2.968   1.381   0.303  0.7225 -0.3786  0.8703
  316SOL    HW2  948   2.960   1.519   0.203  2.7828  0.1162 -0.9751
  317SOL     OW  949   0.532   2.923   2.893 -0.1549 -0.5486  0.3543
  317SOL    HW1  950   0.540   3.020   2.869  0.8927 -3.2557 -0.5539
  317SOL    HW2  951   0.591   2.901   2.972 -0.0500  3.5483 -1.5599
  318SOL     OW  952   2.385   2.304   1.167  0.1838 -0.0925  0.0537
  318SOL    HW1  953   2.345   2.229   1.108  2.7605  2.3566  1.0107
  318SOL    HW2  954   2.329   2.389   1.168  2.9971  4.0171  0.9567
  319SOL     OW  955   1.232   1.972   3.010  0.7047 -0.1520  0.5354
  319SOL    HW1  956   1.197   1.941   2.921  0.2405 -3.3871 -0.9062
  319SOL    HW2  957   1.218   1.903   3.082 -1.4590 -0.4234 -2.4094
  320SOL     OW  958   0.639   2.108   1.056 -0.4660 -0.2006 -0.2102
  320SOL    HW1  959   0.727   2.157   1.077 -0.3159 -1.1373 -2.6035
  320SOL    HW2  960   0.559   2.164   1.078  0.0376  0.3594 -0.8696
  321SOL     OW  961   1.327   2.757   2.616 -0.3930 -0.2347  1.0738
  321SOL    HW1  962   1.361   2.840   2.560 -2.1571 -1.7464 -2.2937
  321SOL    HW2  963   1.293   2.678   2.564 -0.9999  0.8415 -5.2781
  322SOL     OW  964   2.481   1.664   1.876 -0.9112 -0.4303  0.6250
  322SOL    HW1  965   2.497   1.722   1.960 -1.8648 -1.1728 -0.4111
  322SOL    HW2  966   2.505   1.715   1.790 -1.2306 -0.2387 -1.1468
  323SOL     OW  967   2.843   0.756   1.103 -0.7195 -0.1895 -0.3081
  323SOL    HW1  968   2.871   0.684   1.037  1.4894  0.2352  1.0058
  323SOL    HW2  969   2.903   0.840   1.084  0.1714 -0.7419  2.0616
  324SOL     OW  970   2.638   2.879   2.343  0.0601 -0.1077  0.0745
  324SOL    HW1  971   2.650   2.848   2.440 -2.0953  2.1492 -3.1770
  324SOL    HW2  972   2.720   2.911   2.291 -0.5835 -0.2813 -0.1215
  325SOL     OW  973   1.041   0.667   2.363  0.2937 -0.1552 -0.0001
  325SOL    HW1  974   1.004   0.600   2.431 -0.1294 -0.5493 -1.5129
  325SOL    HW2  975   0.991   0.647   2.275 -1.0861 -0.2870 -0.9420
  326SOL     OW  976   2.028   2.818   2.026  0.2310 -0.0822 -0.2624
  326SOL    HW1  977   2.054   2.894   2.090 -3.2487  0.4171 -0.2568
  326SOL    HW2  978   1.931   2.821   2.009  3.0626  0.6757  0.0473
  327SOL     OW  979   2.144   0.358   0.092  0.0218  0.9531  0.4070
  327SOL    HW1  980   2.215   0.292   0.056 -0.8849  2.4464  0.9806
  327SOL    HW2  981   2.094   0.395   0.019  3.7057 -0.6871  2.5983
  328SOL     OW  982   0.048   1.294   2.317  0.8161 -0.0793  0.1028
  328SOL    HW1  983   0.072   1.293   2.216 -0.5894 -0.4901 -2.1564
  328SOL    HW2  984   3.083   1.377   2.331 -0.5299  0.4116  1.9824
  329SOL     OW  985   1.626   0.196   1.656  0.3704  0.1485  0.2318
  329SOL    HW1  986   1.612   0.257   1.737 -0.5389 -0.0892  1.5697
  329SOL    HW2  987   1.713   0.219   1.616 -0.8646 -0.1033  0.1917
  330SOL     OW  988   0.283   1.297   0.743  0.3367 -0.4340 -0.1428
  330SOL    HW1  989   0.190   1.328   0.751  1.3574  0.6005 -1.0987
  330SOL    HW2  990   0.342   1.378   0.749 -0.8768  1.7443 -0.2982
  331SOL     OW  991   0.310   1.536   2.091 -0.1054  0.1132 -0.0195
  331SOL    HW1  992   0.221   1.488   2.094  0.7731  0.5724  0.8813
  331SOL    HW2  993   0.331   1.574   2.181 -1.4350  0.9064 -3.5235
  332SOL     OW  994   2.917   2.603   1.727 -0.2727  0.3414  0.1033
  332SOL    HW1  995   2.893   2.631   1.634 -0.8568 -0.0564  2.8191
  332SOL    HW2  996   2.951   2.505   1.726  1.9625 -1.1815 -0.8710
  333SOL     OW  997   2.468   0.032   1.021 -0.3106 -0.3008 -0.6303
  333SOL    HW1  998   2.419   0.021   0.937  1.6577  0.4547  2.3835
  333SOL    HW2  999   2.452   3.047   1.081 -2.6183 -1.4938 -1.4647
  334SOL     OW 1000   0.743   1.795   0.554 -0.0263 -0.3598  0.0385
  334SOL    HW1 1001   0.793   1.809   0.466 -0.2424 -0.0517  0.2862
  334SOL    HW2 1002   0.640   1.778   0.537  0.5799 -0.8713  1.4730
  335SOL     OW 1003   0.204   2.563   2.694  0.6355 -0.2397 -0.0999
  335SOL    HW1 1004   0.102   2.587   2.705 -3.5458  0.1285 -0.6455
  335SOL    HW2 1005   0.233   2.509   2.775  1.2557  1.1186  2.4960
  336SOL     OW 1006   0.268   2.754   2.313  0.0140  0.2447 -0.3021
  336SOL    HW1 1007   0.286   2.844   2.265  2.9353 -1.3753 -0.3275
  336SOL    HW2 1008   0.280   2.674   2.253  0.9611  2.4600  0.9751
  337SOL     OW 1009   2.150   2.631   2.215 -0.3032 -0.1102  0.1165
  337SOL    HW1 1010   2.108   2.713   2.172 -1.7349  0.8223 -1.6077
  337SOL    HW2 1011   2.073   2.573   2.255  0.8622 -3.1805  3.3760
  338SOL     OW 1012   0.616   0.015   0.178  0.1499 -0.0145 -0.1538
  338SOL    HW1 1013   0.618   0.081   0.103 -1.3848 -0.8245  2.4350
  338SOL    HW2 1014   0.537   0.043   0.238 -2.8017  0.7240 -0.5776
  339SOL     OW 1015   0.469   1.064   2.104  0.7710  0.9649  0.3332
  339SOL    HW1 1016   0.469   1.016   2.016 -1.1114  0.6636 -0.0564
  339SOL    HW2 1017   0.447   1.162   2.087  0.4266 -0.3123 -1.7884
  340SOL     OW 1018   1.566   2.928   0.485  0.3140  0.0028 -0.2929
  340SOL    HW1 1019   1.593   2.865   0.560 -0.9801 -1.8426 -2.4762
  340SOL    HW2 1020   1.603   3.023   0.493 -1.5117 -4.7539 -1.2795
  341SOL     OW 1021   2.212   1.227   0.811  0.5966  0.1423 -0.3671
  341SOL    HW1 1022   2.138   1.165   0.845  1.2998  0.3315  1.1851
  341SOL    HW2 1023   2.221   1.307   0.876  1.1734 -2.0432  2.2292
  342SOL     OW 1024   2.541   0.045   0.186  0.1288 -0.3567 -0.3195
  342SOL    HW1 1025   2.460   3.087   0.200 -1.4748 -0.5837 -0.1387
  342SOL    HW2 1026   2.609   3.080   0.136  0.0040 -2.6740 -1.8094
  343SOL     OW 1027   1.323   2.220   1.755  0.2229  0.2412 -0.5809
  343SOL    HW1 1028   1.248   2.283   1.779  4.4862 -1.2621 -0.1671
  343SOL    HW2 1029   1.414   2.259   1.769 -0.5030 -0.5697  1.7912
  344SOL     OW 1030   2.559   2.671   1.179 -0.4188 -0.7399 -0.4074
  344SOL    HW1 1031   2.613   2.727   1.116 -1.1260 -2.8988  1.9780
  344SOL    HW2 1032   2.618   2.611   1.236  0.3406 -0.7552 -1.3931
  345SOL     OW 1033   2.764   2.207   0.004  0.0521  0.5729  0.2000
  345SOL    HW1 1034   2.781   2.307   3.086 -1.5028 -0.4286 -0.8531
  345SOL    HW2 1035   2.807   2.181   0.093 -0.3369  1.6300  0.4540
  346SOL     OW 1036   2.372   2.017   0.871 -0.5384 -0.6492 -0.1307
  346SOL    HW1 1037   2.386   2.097   0.810 -1.4312  1.7905 -0.8509
  346SOL    HW2 1038   2.459   1.972   0.905 -2.0481  1.3548  2.2304
  347SOL     OW 1039   1.585   2.036   1.744  0.5884  0.7967 -0.5540
  347SOL    HW1 1040   1.570   2.129   1.786 -1.8405  0.4022 -0.0227
  347SOL    HW2 1041   1.503   1.979   1.731  0.7603  0.1130 -3.2083
  348SOL     OW 1042   0.490   1.635   2.659 -0.1943  0.2543  0.2494
  348SOL    HW1 1043   0.390   1.641   2.658  3.8186  1.0854 -1.5388
  348SOL    HW2 1044   0.527   1.541   2.661 -0.8028 -0.1950 -0.2961
  349SOL     OW 1045   2.398   1.406   0.947  0.5238 -0.5172  0.2707
  349SOL    HW1 1046   2.480   1.381   0.895  3.2962 -0.8009 -0.4419
  349SOL    HW2 1047   2.410   1.504   0.963  0.9920 -2.0349 -1.4574
  350SOL     OW 1048   2.740   2.797   1.010 -0.3307  0.3351 -0.4594
  350SOL    HW1 1049   2.766   2.774   0.915  0.4620  0.6397  0.4423
  350SOL    HW2 1050   2.799   2.745   1.079  2.1961 -1.7811  1.7124
  351SOL     OW 1051   0.395   2.990   1.896 -0.2747  0.2444 -0.2149
  351SOL    HW1 1052   0.318   3.046   1.863  1.7016 -1.4615 -1.8268
  351SOL    HW2 1053   0.479   3.040   1.909 -0.7265  1.3578 -2.0669
  352SOL     OW 1054   0.849   1.473   0.945 -0.0840  0.2706 -0.3445
  352SOL    HW1 1055   0.816   1.541   0.879 -1.0766 -1.2541  1.0967
  352SOL    HW2 1056   0.942   1.443   0.918  0.0297 -0.0447  2.1458
  353SOL     OW 1057   1.360   1.514   2.485 -0.1130  0.0149 -0.1994
  353SOL    HW1 1058   1.275   1.512   2.540 -2.0981 -0.9523 -4.5160
  353SOL    HW2 1059   1.420   1.431   2.509 -0.5667 -3.1926  0.3824
  354SOL     OW 1060   1.469   2.980   1.321 -0.7219  0.1206 -0.1284
  354SOL    HW1 1061   1.428   2.887   1.327  1.0142 -1.0732 -0.2886
  354SOL    HW2 1062   1.449   3.031   1.407  0.6147  0.4641 -1.1932
  355SOL     OW 1063   2.190   1.444   0.651  0.2283 -0.3419 -0.0089
  355SOL    HW1 1064   2.213   1.367   0.711 -0.8725 -1.4901  0.1711
  355SOL    HW2 1065   2.142   1.419   0.561 -0.6117 -0.7022 -1.7107
  356SOL     OW 1066   2.782   1.675   2.023 -0.2040  0.3822 -0.0842
  356SOL    HW1 1067   2.788   1.742   1.948 -0.2482 -1.4721  1.8201
  356SOL    HW2 1068   2.698   1.694   2.077 -0.0881  1.2183  0.6587
  357SOL     OW 1069   0.641   2.912   1.418  0.2030  0.0092 -0.4344
  357SOL    HW1 1070   0.594   2.923   1.329 -1.8743 -0.6266 -0.5056
  357SOL    HW2 1071   0.707   2.989   1.431 -0.9862  2.0478 -2.2140
  358SOL     OW 1072   2.517   1.134   1.831 -0.2803  0.0512  0.2904
  358SOL    HW1 1073   2.533   1.239   1.848  2.0304  5.4393 -3.3177
  358SOL    HW2 1074   2.422   1.116   1.824 -0.9306 -2.2310 -3.3468
  359SOL     OW 1075   2.177   2.754   2.781 -0.1282 -0.5370 -0.1119
  359SOL    HW1 1076   2.208   2.658   2.761 -0.8039  2.9982 -1.9644
  359SOL    HW2 1077   2.130   2.752   2.870  1.0365 -1.8125 -0.8407
  360SOL     OW 1078   0.658   0.576   0.990  0.3852 -0.3873  0.0796
  360SOL    HW1 1079   0.595   0.645   1.032 -0.7619 -1.0359 -2.8041
  360SOL    HW2 1080   0.643   0.581   0.888 -1.9749  2.2597 -2.8738
  361SOL     OW 1081   1.834   2.929   1.042 -0.1886  0.2777  0.1259
  361SOL    HW1 1082   1.753   2.966   1.093 -0.9569  2.9900 -1.2789
  361SOL    HW2 1083   1.914   2.925   1.101  0.2755 -3.4577 -2.6145
  362SOL     OW 1084   1.340   1.093   0.947 -0.6339 -0.2764 -0.3422
  362SOL    HW1 1085   1.437   1.126   0.954  3.6161  0.4211 -0.8706
  362SOL    HW2 1086   1.302   1.073   1.040  1.1502 -0.2199 -2.7577
  363SOL     OW 1087   2.307   1.607   2.666  0.3405  0.3928 -0.1775
  363SOL    HW1 1088   2.337   1.615   2.764  0.6727  0.9056  2.8389
  363SOL    HW2 1089   2.251   1.512   2.666 -3.1132 -4.4736  3.2986
  364SOL     OW 1090   0.119   0.294   0.997 -0.6756  0.2193  0.6512
  364SOL    HW1 1091   0.195   0.280   1.071  0.6729  1.4233 -0.3746
  364SOL    HW2 1092   0.092   0.394   1.001 -0.9254 -3.1629 -0.3633
  365SOL     OW 1093   0.148   2.957   2.719  0.2171 -0.2257 -0.1916
  365SOL    HW1 1094   0.207   2.903   2.654 -0.7957 -0.9455 -0.6516
  365SOL    HW2 1095   0.050   2.971   2.687 -1.8946  2.5361  2.9337
  366SOL     OW 1096   2.295   2.268   0.179  0.1157 -0.4682 -0.1098
  366SOL    HW1 1097   2.218   2.240   0.117 -0.6369 -0.2929  0.2367
  366SOL    HW2 1098   2.370   2.286   0.118 -1.3242  0.7373 -1.4720
  367SOL     OW 1099   2.604   2.497   2.893  0.3270  0.3309  0.4429
  367SOL    HW1 1100   2.610   2.447   2.802 -1.4312  0.0281 -0.5091
  367SOL    HW2 1101   2.698   2.497   2.932  0.5544  1.0421 -2.4937
  368SOL     OW 1102   0.333   1.888   0.918 -0.0434 -0.3685  0.2732
  368SOL    HW1 1103   0.355   1.926   0.825 -1.2665 -0.4035 -0.6353
  368SOL    HW2 1104   0.231   1.880   0.925 -3.6510 -0.7829 -0.7596
  369SOL     OW 1105   0.638   2.668   2.716 -0.3299 -0.2856 -0.0230
  369SOL    HW1 1106   0.598   2.756   2.745 -2.6239  0.4204 -0.3048
  369SOL    HW2 1107   0.730   2.675   2.677 -5.5458  0.4279  2.7714
  370SOL     OW 1108   3.068   0.851   0.709 -0.3325 -0.1074 -0.5049
  370SOL    HW1 1109   3.065   0.868   0.608 -2.6108  0.0974  2.2029
  370SOL    HW2 1110   0.012   0.762   0.726 -0.9797  3.1597  0.0225
  371SOL     OW 1111   1.747   2.272   0.888  0.0352  0.2042  0.0255
  371SOL    HW1 1112   1.813   2.349   0.904 -0.3333 -4.8331  0.1194
  371SOL    HW2 1113   1.762   2.192   0.952 -0.2005  0.2594  0.2146
  372SOL     OW 1114   0.503   0.886   2.708 -0.6389  0.1136 -0.2478
  372SOL    HW1 1115   0.585   0.945   2.699  1.3150  0.7184  1.0481
  372SOL    HW2 1116   0.527   0.797   2.749 -0.5503  3.1243  1.4005
  373SOL     OW 1117   0.068   1.897   0.936  0.4109  1.3936  0.2726
  373SOL    HW1 1118   0.004   1.969   0.908 -0.4579  4.9715 -0.6699
  373SOL    HW2 1119   0.049   1.869   1.033 -1.6087 -1.4344  1.5430
  374SOL     OW 1120   0.080   2.771   0.051 -0.3229 -0.3550 -0.0210
  374SOL    HW1 1121   0.120   2.680   0.070 -1.4766  1.2176  0.4310
  374SOL    HW2 1122   0.134   2.813   3.071  1.0150  0.9780 -0.1787
  375SOL     OW 1123   0.173   0.335   0.309  0.2730 -0.3797 -0.1501
  375SOL    HW1 1124   0.205   0.343   0.407  1.3247 -1.2652  2.4047
  375SOL    HW2 1125   0.078   0.296   0.302 -2.9883 -1.0033 -2.2960
  376SOL     OW 1126   0.026   2.465   1.971  0.1354  0.0280 -0.0832
  376SOL    HW1 1127   3.062   2.409   1.906 -1.2258  2.0271 -0.5890
  376SOL    HW2 1128   0.029   2.563   1.935  0.4977  1.5236 -1.0551
  377SOL     OW 1129   1.866   2.506   2.866  0.0650  0.0880  0.1439
  377SOL    HW1 1130   1.842   2.577   2.936 -0.8707  1.7030  0.4920
  377SOL    HW2 1131   1.911   2.546   2.784 -0.7798 -0.7151  0.6746
  378SOL     OW 1132   0.499   0.269   0.409 -0.0265 -0.5761  0.0294
  378SOL    HW1 1133   0.545   0.342   0.358 -2.3851 -0.7422  2.9810
  378SOL    HW2 1134   0.566   0.223   0.477 -1.3090 -0.6878  1.2901
  379SOL     OW 1135   0.835   1.496   0.369 -0.3390 -0.3466  0.0717
  379SOL    HW1 1136   0.740   1.482   0.339  2.1440 -2.0765  0.5414
  379SOL    HW2 1137   0.833   1.453   0.462 -0.5433  0.7715  1.2415
  380SOL     OW 1138   0.430   1.966   1.415 -0.0400  0.2093  0.2174
  380SOL    HW1 1139   0.470   1.873   1.408  1.0538  0.0386  2.1295
  380SOL    HW2 1140   0.378   1.985   1.329  0.2150 -1.4776 -3.0897
  381SOL     OW 1141   0.467   1.298   1.768  0.3333  0.1858 -0.3861
  381SOL    HW1 1142   0.557   1.320   1.723  3.8417  2.5446  1.2988
  381SOL    HW2 1143   0.478   1.299   1.874 -0.0654 -2.6219  0.4475
  382SOL     OW 1144   2.170   1.896   0.737  0.0887  0.0135 -0.2163
  382SOL    HW1 1145   2.249   1.948   0.773  0.5212 -1.1781 -0.8036
  382SOL    HW2 1146   2.185   1.796   0.749 -1.0179 -2.2087 -1.9950
  383SOL     OW 1147   2.758   1.802   2.487  0.2821  0.3366 -0.8094
  383SOL    HW1 1148   2.826   1.869   2.454 -1.4466 -0.1296  1.0451
  383SOL    HW2 1149   2.798   1.710   2.509 -0.9175  0.9453 -1.9394
  384SOL     OW 1150   0.358   1.931   2.423 -0.6695 -0.3196 -0.3594
  384SOL    HW1 1151   0.338   1.970   2.515 -0.0559  0.4009  1.3278
  384SOL    HW2 1152   0.395   2.002   2.363 -0.0823  1.3726 -1.3054
  385SOL     OW 1153   2.597   1.885   0.998 -0.2008  0.9646 -0.0665
  385SOL    HW1 1154   2.603   1.799   1.053  2.3414  1.4546 -3.8455
  385SOL    HW2 1155   2.642   1.960   1.051  0.8392  1.5723  1.6473
  386SOL     OW 1156   1.677   0.806   0.882 -0.7763  0.5056 -0.0972
  386SOL    HW1 1157   1.670   0.707   0.915  1.9534 -2.4306  1.5496
  386SOL    HW2 1158   1.659   0.814   0.781  0.2327 -4.3448  2.2617
  387SOL     OW 1159   0.369   0.807   1.626  0.2129 -0.7057 -0.0904
  387SOL    HW1 1160   0.379   0.884   1.691 -0.2666  2.2804 -0.8911
  387SOL    HW2 1161   0.402   0.842   1.534  0.9634 -0.0740 -0.2581
  388SOL     OW 1162   2.259   0.900   2.188 -0.1338 -0.2981  0.3224
  388SOL    HW1 1163   2.302   0.826   2.138 -0.2129  0.8594  0.9382
  388SOL    HW2 1164   2.168   0.930   2.153 -1.1213  0.6839  3.0301
  389SOL     OW 1165   2.008   1.287   2.006  0.0795  0.3426  0.6074
  389SOL    HW1 1166   2.017   1.290   1.907  0.4641 -0.9201  0.7343
  389SOL    HW2 1167   2.043   1.374   2.050 -0.9337  0.0956 -1.2912
  390SOL     OW 1168   1.671   2.866   0.231 -0.3561 -0.2951 -0.0172
  390SOL    HW1 1169   1.629   2.895   0.319 -1.1744 -1.1066 -3.4861
  390SOL    HW2 1170   1.595   2.860   0.161 -0.6718  0.2251 -1.2941
  391SOL     OW 1171   2.102   1.905   1.196  0.0355 -0.1438 -0.4263
  391SOL    HW1 1172   2.022   1.927   1.129  0.0567  2.1449 -0.5205
  391SOL    HW2 1173   2.065   1.850   1.271 -0.6009  2.4012 -2.2284
  392SOL     OW 1174   0.016   2.771   1.331  0.1131  0.5496  0.2144
  392SOL    HW1 1175   3.022   2.753   1.382 -0.9398 -1.7695  3.0660
  392SOL    HW2 1176   0.054   2.684   1.290 -1.4757 -1.3564  0.8572
  393SOL     OW 1177   2.018   1.956   0.136 -0.0612 -0.7132 -0.3649
  393SOL    HW1 1178   1.974   1.906   0.216 -0.1412 -0.4297  1.8619
  393SOL    HW2 1179   1.964   1.928   0.051 -1.6351 -0.4025  0.5766
  394SOL     OW 1180   0.299   0.509   2.491  0.4807 -0.4980 -0.6017
  394SOL    HW1 1181   0.369   0.522   2.417 -0.8119  1.7375 -3.8556
  394SOL    HW2 1182   0.216   0.567   2.481 -2.8986 -1.2447 -2.5959
  395SOL     OW 1183   0.931   0.685   0.724  0.6086  0.0529 -0.4700
  395SOL    HW1 1184   0.920   0.711   0.822 -0.1367  3.0646  1.7467
  395SOL    HW2 1185   0.885   0.756   0.665 -0.0928 -0.9919 -1.5240
  396SOL     OW 1186   1.141   0.806   3.056 -0.2258 -0.2716  0.5726
  396SOL    HW1 1187   1.238   0.782   3.075  0.4093  1.2133  1.9368
  396SOL    HW2 1188   1.127   0.850   2.963  0.3026 -0.3172 -1.4450
  397SOL     OW 1189   0.361   0.672   2.031 -0.9462  0.2359  0.2064
  397SOL    HW1 1190   0.286   0.649   2.097 -1.6689 -1.3426  0.0123
  397SOL    HW2 1191   0.329   0.725   1.949 -0.9313  1.2550  0.2319
  398SOL     OW 1192   0.868   0.041   0.295  0.0407 -0.0507 -0.0076
  398SOL    HW1 1193   0.893   3.041   0.326 -2.1967 -0.0017 -2.9375
  398SOL    HW2 1194   0.772   0.042   0.256 -0.2388 -1.2979  0.5260
  399SOL     OW 1195   2.307   2.978   1.717 -0.2277  0.2684  0.8027
  399SOL    HW1 1196   2.247   2.907   1.762  0.8495 -2.1621  3.0021
  399SOL    HW2 1197   2.400   2.974   1.758  1.7276 -1.0192  0.2208
  400SOL     OW 1198   0.553   1.768   2.164  0.2861  0.1071  0.0053
  400SOL    HW1 1199   0.473   1.719   2.211 -0.3838 -2.8036  2.3280
  400SOL    HW2 1200   0.606   1.826   2.232  1.4302 -0.7230 -0.0296
  401SOL     OW 1201   0.617   0.632   2.375 -0.4528 -0.0162 -0.6920
  401SOL    HW1 1202   0.664   0.622   2.464 -1.5398 -0.1885 -1.5169
  401SOL    HW2 1203   0.542   0.701   2.394 -0.7992  0.2648  1.0134
  402SOL     OW 1204   3.027   2.083   1.732  0.4124  0.2946  0.0801
  402SOL    HW1 1205   3.032   1.998   1.789 -0.1822 -1.8422  0.2522
  402SOL    HW2 1206   3.072   2.074   1.639 -0.1736  1.4263 -0.0596
  403SOL     OW 1207   0.392   1.033   1.793  0.0054 -0.2654  0.6804
  403SOL    HW1 1208   0.295   1.030   1.767  0.9662 -0.0097 -1.3925
  403SOL    HW2 1209   0.436   1.123   1.774  0.6325  0.8896 -0.5684
  404SOL     OW 1210   3.066   2.829   1.767  0.5446 -0.3377  0.7121
  404SOL    HW1 1211   0.056   2.787   1.795  1.4992  2.4992 -4.4873
  404SOL    HW2 1212   3.001   2.758   1.737  0.1632  0.2380 -1.6937
  405SOL     OW 1213   0.373   0.321   1.663 -0.1002 -0.2296  0.2889
  405SOL    HW1 1214   0.398   0.347   1.760  0.2109 -1.7129  0.2051
  405SOL    HW2 1215   0.419   0.235   1.631 -0.4170  0.3010  0.0727
  406SOL     OW 1216   1.852   2.268   2.759  0.7979 -0.0779  0.4933
  406SOL    HW1 1217   1.837   2.365   2.798  0.4064  0.5371  0.1775
  406SOL    HW2 1218   1.943   2.231   2.785  0.7554 -0.5552  0.8567
  407SOL     OW 1219   1.400   1.598   2.231 -0.2866  0.5428  0.4065
  407SOL    HW1 1220   1.336   1.581   2.148 -0.9678 -0.7846 -3.4376
  407SOL    HW2 1221   1.369   1.548   2.316 -0.3684 -0.5828  0.4576
  408SOL     OW 1222   0.651   0.333   2.690 -0.1401 -0.5138 -0.1293
  408SOL    HW1 1223   0.674   0.332   2.593 -0.1174 -0.7618 -1.1047
  408SOL    HW2 1224   0.560   0.371   2.711  0.3549  0.5796  0.4650
  409SOL     OW 1225   0.484   1.743   0.192  0.0361  0.3387 -0.6246
  409SOL    HW1 1226   0.552   1.678   0.226 -0.5033  2.1196 -0.4000
  409SOL    HW2 1227   0.395   1.703   0.193  3.2890 -1.3063  0.8095
  410SOL     OW 1228   2.511   1.612   0.384  0.0083 -0.5878 -0.0602
  410SOL    HW1 1229   2.579   1.662   0.323 -2.2143  0.4279 -3.0194
  410SOL    HW2 1230   2.434   1.581   0.323  0.6275 -0.8168  3.2262
  411SOL     OW 1231   2.908   0.554   0.937  0.5909 -0.0089  0.2963
  411SOL    HW1 1232   2.836   0.494   0.977  1.5280 -1.5189 -2.1055
  411SOL    HW2 1233   2.888   0.566   0.836  0.8067  0.4026 -0.6541
  412SOL     OW 1234   1.277   0.981   1.207 -0.8096  0.8990  0.0084
  412SOL    HW1 1235   1.352   0.969   1.276 -1.8181  1.4304  0.0633
  412SOL    HW2 1236   1.190   0.994   1.255  0.4413  0.2426 -1.2217
  413SOL     OW 1237   0.522   2.980   1.190  0.4255  0.8372 -0.4505
  413SOL    HW1 1238   0.471   2.920   1.132 -0.3143  2.5229 -3.0522
  413SOL    HW2 1239   0.578   3.034   1.127  0.3886 -1.3895 -3.2948
  414SOL     OW 1240   2.956   1.711   2.805 -0.1034 -0.0763  0.2502
  414SOL    HW1 1241   2.866   1.721   2.857  1.6171  0.2304  1.2555
  414SOL    HW2 1242   3.026   1.782   2.822 -3.0380 -3.0001 -1.9663
  415SOL     OW 1243   0.304   2.168   3.054 -0.7540  0.4270 -0.0502
  415SOL    HW1 1244   0.385   2.126   0.002 -0.4224  1.9214 -0.4848
  415SOL    HW2 1245   0.241   2.094   3.025  1.3495 -0.4231 -1.0849
  416SOL     OW 1246   1.613   0.095   0.507  0.5440 -0.3076  0.1290
  416SOL    HW1 1247   1.706   0.107   0.550  0.0832 -1.0217 -4.7592
  416SOL    HW2 1248   1.546   0.169   0.533 -0.7793  1.4134 -0.5795
  417SOL     OW 1249   0.301   1.080   0.577  0.2560 -0.4072 -0.2715
  417SOL    HW1 1250   0.283   1.151   0.647 -3.7448 -0.3501 -0.0059
  417SOL    HW2 1251   0.216   1.074   0.519  1.5928 -2.3214 -0.4397
  418SOL     OW 1252   2.258   1.099   1.854  0.5819  0.7110 -0.0713
  418SOL    HW1 1253   2.228   1.003   1.888  1.3993 -1.4837  0.0928
  418SOL    HW2 1254   2.182   1.158   1.827  0.6980  2.2139  0.3301
  419SOL     OW 1255   3.055   0.441   0.516 -0.3272 -0.7168 -0.4121
  419SOL    HW1 1256   0.046   0.393   0.519 -0.5216 -1.6776  1.8898
  419SOL    HW2 1257   3.058   0.504   0.600 -2.2548  1.0639  1.6042
  420SOL     OW 1258   0.563   1.487   0.401 -0.1360  0.4864 -0.2140
  420SOL    HW1 1259   0.488   1.456   0.335 -4.3462 -1.2614 -0.8689
  420SOL    HW2 1260   0.571   1.433   0.490  1.3051 -0.5035  1.8982
  421SOL     OW 1261   0.869   2.538   0.719 -1.1085  0.2189 -0.1260
  421SOL    HW1 1262   0.794   2.548   0.650  2.0612 -0.8100 -0.3461
  421SOL    HW2 1263   0.957   2.518   0.667  0.9426  1.5687  0.6202
  422SOL     OW 1264   0.046   0.741   1.278 -0.6392  0.3869  0.0194
  422SOL    HW1 1265   3.075   0.789   1.331  1.8797  0.0982 -3.0286
  422SOL    HW2 1266   0.102   0.799   1.214 -1.8989 -0.8461 -1.0954
  423SOL     OW 1267   1.375   1.387   1.446  0.1194  0.3750  0.0144
  423SOL    HW1 1268   1.280   1.363   1.413 -1.1563 -3.0625 -3.5508
  423SOL    HW2 1269   1.443   1.393   1.370 -0.4180 -0.5421  0.8981
  424SOL     OW 1270   2.027   1.323   2.858 -0.0721  0.2709 -0.3078
  424SOL    HW1 1271   2.032   1.319   2.964 -1.5862  1.6769  4.7756
  424SOL    HW2 1272   1.987   1.239   2.819  1.6074 -0.2431 -0.6524
  425SOL     OW 1273   0.068   0.582   1.945 -0.7395 -0.1906  0.0054
  425SOL    HW1 1274   0.100   0.629   1.860  0.4309  0.0651 -0.8977
  425SOL    HW2 1275   3.067   0.602   1.958  4.5194 -0.5008 -0.0505
  426SOL     OW 1276   2.521   2.952   2.702  0.4841  0.0149  0.1057
  426SOL    HW1 1277   2.596   2.896   2.660  2.0270  0.3502 -1.2599
  426SOL    HW2 1278   2.441   2.966   2.640  2.3525 -1.1348 -0.1588
  427SOL     OW 1279   0.902   0.633   2.123  0.2988  0.2915  0.0565
  427SOL    HW1 1280   0.799   0.650   2.123 -0.8993 -1.0141  1.8571
  427SOL    HW2 1281   0.938   0.670   2.036 -0.1547  1.6123  2.1609
  428SOL     OW 1282   2.234   0.753   1.623 -0.2069  0.0305  0.2280
  428SOL    HW1 1283   2.285   0.841   1.610  0.7012 -0.4618  2.9234
  428SOL    HW2 1284   2.151   0.751   1.563  1.8269 -1.4211  0.9455
  429SOL     OW 1285   2.745   2.804   0.401  0.8297  0.6032 -0.2680
  429SOL    HW1 1286   2.740   2.906   0.425  0.1969 -0.1005 -1.3359
  429SOL    HW2 1287   2.658   2.756   0.430  0.2255  1.1174 -3.2608
  430SOL     OW 1288   1.703   1.838   2.585  0.3276 -0.0639 -0.1168
  430SOL    HW1 1289   1.698   1.848   2.487 -0.3735  0.6516  3.8083
  430SOL    HW2 1290   1.644   1.764   2.619  1.9375  2.0421 -0.3654
  431SOL     OW 1291   0.016   1.774   1.274  0.4760 -0.2317 -0.1552
  431SOL    HW1 1292   0.053   1.714   1.199  0.3286  0.8277 -0.4921
  431SOL    HW2 1293   0.081   1.782   1.353 -2.2601  1.9692  0.9033
  432SOL     OW 1294   1.666   2.744   2.511 -0.2923 -0.3311  0.0124
  432SOL    HW1 1295   1.648   2.671   2.571 -0.0969  3.6535 -1.8443
  432SOL    HW2 1296   1.763   2.772   2.523  1.7674  1.9650 -2.2056
  433SOL     OW 1297   1.783   0.121   2.375  0.3326 -0.0332  0.1936
  433SOL    HW1 1298   1.832   0.035   2.393  1.8604  1.1009  0.9785
  433SOL    HW2 1299   1.687   0.094   2.382 -1.4592 -0.4433 -0.0143
  434SOL     OW 1300   0.506   2.582   2.046  0.0839  0.0067  0.1174
  434SOL    HW1 1301   0.416   2.554   2.087  1.7833  0.0874 -0.6857
  434SOL    HW2 1302   0.491   2.652   1.969 -0.5462  1.2706  1.3335
  435SOL     OW 1303   3.083   2.412   0.031 -0.1486  0.8404  0.3683
  435SOL    HW1 1304   0.073   2.469   0.046  0.0196 -1.2833 -0.6153
  435SOL    HW2 1305   3.044   2.393   0.120  2.1994 -0.1026  2.6897
  436SOL     OW 1306   0.792   0.560   1.705 -0.1171  0.4924 -0.1163
  436SOL    HW1 1307   0.849   0.480   1.675 -0.7000  1.1594 -0.8212
  436SOL    HW2 1308   0.699   0.559   1.666 -2.5108 -2.0712  0.3546
  437SOL     OW 1309   0.523   2.477   2.513  0.4261  0.6500 -0.1310
  437SOL    HW1 1310   0.548   2.512   2.421 -0.8643 -0.5877 -2.5167
  437SOL    HW2 1311   0.538   2.545   2.589  1.0357  1.8216  0.6816
  438SOL     OW 1312   0.604   1.746   1.423 -0.0702 -0.9762  0.6638
  438SOL    HW1 1313   0.701   1.774   1.429 -2.8251  2.6358  0.0721
  438SOL    HW2 1314   0.579   1.696   1.505  0.6684 -4.0199  0.0085
  439SOL     OW 1315   2.175   0.978   2.741 -0.4372 -0.1149 -0.3202
  439SOL    HW1 1316   2.260   0.949   2.789 -1.3269  1.0160  0.3120
  439SOL    HW2 1317   2.205   1.023   2.656  2.0290 -1.9684  1.4420
  440SOL     OW 1318   0.648   0.582   0.005 -0.4594 -0.2047  0.0921
  440SOL    HW1 1319   0.699   0.539   0.083  1.8850  0.7265 -1.5889
  440SOL    HW2 1320   0.665   0.680   3.086  0.9234 -0.5422  2.2302
  441SOL     OW 1321   0.811   2.069   1.490 -0.2178 -0.4758  0.4220
  441SOL    HW1 1322   0.733   2.055   1.551 -0.2436 -1.8174 -0.9424
  441SOL    HW2 1323   0.825   2.164   1.464 -0.8890 -2.8142  0.7718
  442SOL     OW 1324   2.885   1.644   0.717 -0.1281  0.1652 -0.1206
  442SOL    HW1 1325   2.787   1.672   0.733 -1.9484  0.5393 -0.2484
  442SOL    HW2 1326   2.914   1.573   0.792  0.2795 -2.2440  2.9185
  443SOL     OW 1327   2.696   2.094   2.518  0.3947  0.1191  0.1684
  443SOL    HW1 1328   2.790   2.068   2.486 -0.6641  2.1211  2.3824
  443SOL    HW2 1329   2.654   2.016   2.578 -2.1821 -1.5942  2.8150
  444SOL     OW 1330   1.405   1.256   2.914  0.3286 -0.1816 -0.0672
  444SOL    HW1 1331   1.327   1.319   2.933 -1.6293 -0.7362  2.3191
  444SOL    HW2 1332   1.491   1.275   2.964  1.4773  0.2336 -0.3590
  445SOL     OW 1333   2.541   0.005   1.784 -0.0066 -0.1520 -0.3455
  445SOL    HW1 1334   2.601   0.080   1.745  0.8138 -1.5598 -0.8339
  445SOL    HW2 1335   2.493   0.048   1.866 -2.8293 -0.3928 -1.4574
  446SOL     OW 1336   0.288   1.086   0.947 -0.0144  0.0575  0.1512
  446SOL    HW1 1337   0.266   1.135   1.031 -0.5747 -1.0190 -2.3791
  446SOL    HW2 1338   0.310   1.150   0.866  0.4095  2.3127 -1.1388
  447SOL     OW 1339   1.185   1.697   0.895 -0.6481 -0.0993 -0.3383
  447SOL    HW1 1340   1.111   1.769   0.893  0.2816  2.0031 -0.5558
  447SOL    HW2 1341   1.273   1.742   0.906  2.3404 -2.3134  0.6770
  448SOL     OW 1342   1.251   1.113   1.585 -0.0535 -0.0670 -0.1268
  448SOL    HW1 1343   1.226   1.200   1.626 -3.3369 -1.9943 -1.3560
  448SOL    HW2 1344   1.184   1.044   1.611 -0.9452  2.0846  0.2628
  449SOL     OW 1345   2.861   2.106   2.118 -0.1864 -0.3180 -0.2377
  449SOL    HW1 1346   2.872   2.192   2.175 -1.3107 -0.9761  1.0072
  449SOL    HW2 1347   2.944   2.051   2.135  1.1387 -0.1949 -1.0447
  450SOL     OW 1348   0.134   1.642   1.707  0.1961 -0.1816 -0.4155
  450SOL    HW1 1349   0.037   1.673   1.701  0.8521 -0.4705 -0.3867
  450SOL    HW2 1350   0.175   1.673   1.796 -1.2811 -1.8229 -1.6339
  451SOL     OW 1351   2.078   0.709   0.992  0.2570 -0.6160  0.1627
  451SOL    HW1 1352   1.988   0.689   1.032 -0.3151 -0.1869  1.5113
  451SOL    HW2 1353   2.070   0.737   0.890 -2.2202  0.6514 -1.6234
  452SOL     OW 1354   0.680   1.284   0.818  0.2387  0.5138 -0.0173
  452SOL    HW1 1355   0.738   1.334   0.886  0.5381 -0.6262  0.4215
  452SOL    HW2 1356   0.602   1.340   0.789 -1.6785 -3.3778 -0.7507
  453SOL     OW 1357   1.179   2.288   0.870  0.0972  0.0842  0.1523
  453SOL    HW1 1358   1.163   2.262   0.773 -0.5911 -0.0468  0.6682
  453SOL    HW2 1359   1.266   2.340   0.871  1.5038  1.5736 -0.6798
  454SOL     OW 1360   0.602   1.649   2.942 -0.5177 -0.0969 -0.4342
  454SOL    HW1 1361   0.584   1.578   3.012 -1.3564 -0.3688 -1.1538
  454SOL    HW2 1362   0.602   1.602   2.846 -1.2123 -1.5959 -2.7613
  455SOL     OW 1363   1.404   0.682   0.514  0.3224  0.2334 -0.5612
  455SOL    HW1 1364   1.381   0.753   0.444 -1.6032  1.5167 -6.3956
  455SOL    HW2 1365   1.313   0.645   0.554 -1.1452 -1.0882  0.1499
  456SOL     OW 1366   2.079   2.307   1.138 -0.0541 -0.2401  0.0726
  456SOL    HW1 1367   2.100   2.334   1.234  1.6484 -0.1660  1.7586
  456SOL    HW2 1368   2.119   2.217   1.117 -2.0027  3.1980 -0.6636
  457SOL     OW 1369   1.744   2.918   2.948 -0.1506 -0.7631  0.1482
  457SOL    HW1 1370   1.645   2.917   2.913 -1.3553 -0.9163 -1.0667
  457SOL    HW2 1371   1.807   2.971   2.888 -0.9319 -2.2829  1.6105
  458SOL     OW 1372   2.311   0.534   0.343  0.3538  0.0124 -0.4327
  458SOL    HW1 1373   2.310   0.429   0.357  1.0547 -2.9756  0.9830
  458SOL    HW2 1374   2.228   0.582   0.389  3.1489  2.6614 -2.2822
  459SOL     OW 1375   0.025   0.630   2.392  0.2801  0.2154 -0.5774
  459SOL    HW1 1376   0.007   0.715   2.449  1.2423  1.7945  0.7112
  459SOL    HW2 1377   3.035   0.590   2.356 -0.9896 -0.3087  1.7010
  460SOL     OW 1378   0.159   1.156   0.016 -0.2462  0.0792 -0.4546
  460SOL    HW1 1379   0.189   1.056   0.012 -0.6761 -0.4727 -1.1963
  460SOL    HW2 1380   0.065   1.162   3.077 -1.0560  0.1852 -2.1220
  461SOL     OW 1381   2.767   2.695   0.746 -0.2150  0.1313  0.0400
  461SOL    HW1 1382   2.821   2.766   0.696  1.8882 -0.3353  4.6369
  461SOL    HW2 1383   2.670   2.686   0.719  0.0615  1.2229  1.3905
  462SOL     OW 1384   0.004   0.077   1.523 -0.2873 -0.3035  0.4223
  462SOL    HW1 1385   0.080   0.137   1.548  1.0550  1.4119  1.6827
  462SOL    HW2 1386   0.023   3.093   1.467 -2.6365 -0.2758  0.6130
  463SOL     OW 1387   1.862   2.073   2.315 -0.2728 -0.2535 -0.7097
  463SOL    HW1 1388   1.925   2.085   2.235  0.5127  2.9629  0.7632
  463SOL    HW2 1389   1.811   1.983   2.316 -1.0549  2.3159  1.0932
  464SOL     OW 1390   0.783   0.066   1.447 -0.2142  0.3905 -0.0360
  464SOL    HW1 1391   0.725   0.150   1.452  1.2055  0.4488  0.1537
  464SOL    HW2 1392   0.843   0.053   1.530 -3.1029 -0.9907  0.0285
  465SOL     OW 1393   0.603   0.045   1.879  0.2773  0.4647  0.0622
  465SOL    HW1 1394   0.659   3.089   1.813  0.6701 -0.5207 -0.3025
  465SOL    HW2 1395   0.661   0.112   1.931 -1.4030  0.8966 -0.9167
  466SOL     OW 1396   1.511   2.546   2.144 -0.0900 -0.0389 -0.5145
  466SOL    HW1 1397   1.411   2.530   2.163  0.5139 -0.6340 -2.1924
  466SOL    HW2 1398   1.519   2.615   2.076 -0.3154 -2.9650  3.6676
  467SOL     OW 1399   0.296   2.017   1.170 -0.0879  0.4740  0.8909
  467SOL    HW1 1400   0.302   1.971   1.080 -0.2239 -1.5548  3.2192
  467SOL    HW2 1401   0.347   2.106   1.168 -1.7620 -1.0088  0.4728
  468SOL     OW 1402   2.496   1.638   2.463 -0.2924  0.0212 -0.4503
  468SOL    HW1 1403   2.582   1.691   2.479 -0.5570  0.2839  1.1633
  468SOL    HW2 1404   2.438   1.626   2.546  0.2661 -1.2459 -2.1061
  469SOL     OW 1405   1.151   1.833   0.550 -0.0070 -0.1714  0.1309
  469SOL    HW1 1406   1.157   1.856   0.648  2.5137 -1.3089  0.0332
  469SOL    HW2 1407   1.093   1.899   0.495  3.3064  0.6122  0.3190
  470SOL     OW 1408   2.661   1.291   1.411  0.0533 -0.1842  0.0686
  470SOL    HW1 1409   2.609   1.344   1.337 -0.1565  0.7450 -1.6314
  470SOL    HW2 1410   2.589   1.263   1.483 -3.6292 -2.5311  0.2558
  471SOL     OW 1411   0.335   2.424   2.918 -0.7161  0.7179  0.5296
  471SOL    HW1 1412   0.333   2.328   2.957 -3.8032 -0.8562  1.2366
  471SOL    HW2 1413   0.433   2.455   2.920 -1.7440 -1.8637  1.7395
  472SOL     OW 1414   3.038   1.720   2.096  0.2058 -0.0588  0.0098
  472SOL    HW1 1415   3.089   1.706   2.013  0.9442  3.5184  0.6103
  472SOL    HW2 1416   2.941   1.726   2.080  2.1457  0.7664  1.3756
  473SOL     OW 1417   0.643   2.859   0.447 -0.4260  0.2240 -0.2343
  473SOL    HW1 1418   0.651   2.759   0.444  0.8757  0.7490 -1.2501
  473SOL    HW2 1419   0.724   2.897   0.402 -0.7481  0.2031  0.7484
  474SOL     OW 1420   2.726   0.025   1.000 -0.3577  0.3966 -0.7356
  474SOL    HW1 1421   2.621   0.032   1.000  0.8038 -0.8408  1.3700
  474SOL    HW2 1422   2.768   0.020   1.097 -0.8072 -0.0661  0.3167
  475SOL     OW 1423   1.836   3.053   1.737  0.5857  0.1970  0.0195
  475SOL    HW1 1424   1.933   3.072   1.755 -1.7447  0.5658 -0.3865
  475SOL    HW2 1425   1.800   0.026   1.670  0.5995  2.2753 -0.5773
  476SOL     OW 1426   0.578   0.599   0.703  0.0579  0.5265  0.1985
  476SOL    HW1 1427   0.611   0.617   0.608 -1.0672 -2.2226 -1.5656
  476SOL    HW2 1428   0.483   0.637   0.718 -0.7132  0.5926  0.8242
  477SOL     OW 1429   0.930   2.198   1.100  0.0159 -0.1799 -0.0995
  477SOL    HW1 1430   0.912   2.260   1.025 -0.1869 -1.9765  3.5324
  477SOL    HW2 1431   1.018   2.151   1.089 -2.2722  2.3090  1.0169
  478SOL     OW 1432   0.206   2.334   2.348  0.4524  0.1845 -0.1352
  478SOL    HW1 1433   0.107   2.300   2.340  0.0116 -1.8150  0.7257
  478SOL    HW2 1434   0.242   2.324   2.446  0.8946 -3.6645 -0.0614
  479SOL     OW 1435   0.134   0.686   1.679  0.0483  0.4129  0.8116
  479SOL    HW1 1436   0.219   0.742   1.670 -0.1269  0.0519 -0.8182
  479SOL    HW2 1437   0.139   0.618   1.601  2.9797 -4.6756 -2.4382
  480SOL     OW 1438   2.810   2.477   3.063  0.2540 -0.1543  0.4169
  480SOL    HW1 1439   2.802   2.556   0.034  1.7144 -1.1516  2.4094
  480SOL    HW2 1440   2.916   2.460   3.055  2.4716  0.2646  2.0149
  481SOL     OW 1441   1.500   2.078   2.157 -0.0664  0.1089  0.1063
  481SOL    HW1 1442   1.545   2.002   2.103 -0.5297 -4.7968  0.6987
  481SOL    HW2 1443   1.467   2.034   2.245 -1.9335 -1.1007  1.8110
  482SOL     OW 1444   1.590   2.211   2.817  0.2976  0.5234 -0.4720
  482SOL    HW1 1445   1.545   2.121   2.801 -2.3405  0.8535  0.8927
  482SOL    HW2 1446   1.691   2.207   2.792  0.6721  1.4950 -0.1880
  483SOL     OW 1447   0.684   2.048   2.426 -0.4126 -0.5807  0.2056
  483SOL    HW1 1448   0.662   1.969   2.484 -1.0938  1.8785  0.7173
  483SOL    HW2 1449   0.701   2.133   2.482 -0.2223 -0.6757 -0.2838
  484SOL     OW 1450   0.044   0.557   1.063 -0.0428 -0.4452 -0.0919
  484SOL    HW1 1451   3.051   0.559   1.014  2.0084 -0.1384 -2.0807
  484SOL    HW2 1452   0.039   0.604   1.154  0.3501 -2.2102 -0.3381
  485SOL     OW 1453   2.099   0.622   0.480 -0.1747  0.1285  0.1789
  485SOL    HW1 1454   2.118   0.551   0.547 -2.0083  5.9314 -1.4652
  485SOL    HW2 1455   2.004   0.619   0.442  1.6106  1.1798 -1.6952
  486SOL     OW 1456   1.912   2.977   2.365  0.2827 -0.2247  0.0296
  486SOL    HW1 1457   1.988   2.986   2.300 -3.3400  0.0988 -1.2176
  486SOL    HW2 1458   1.937   2.935   2.450 -1.3492  1.4158 -3.4774
  487SOL     OW 1459   1.606   1.388   0.765  0.1576 -0.3496  0.0443
  487SOL    HW1 1460   1.700   1.357   0.742  0.3258 -0.2584  0.5114
  487SOL    HW2 1461   1.613   1.477   0.810  0.2681 -2.2048 -2.7152
  488SOL     OW 1462   2.273   1.331   0.154 -0.1136  0.5067 -0.0009
  488SOL    HW1 1463   2.305   1.264   0.085  2.1411 -2.1066  1.5737
  488SOL    HW2 1464   2.320   1.421   0.140 -0.6052 -2.8067  1.8499
  489SOL     OW 1465   2.470   0.175   0.751 -0.2974  0.4401 -0.2473
  489SOL    HW1 1466   2.381   0.206   0.714 -2.0831  1.4189  0.0661
  489SOL    HW2 1467   2.518   0.248   0.798 -0.7363  0.5456 -2.4642
  490SOL     OW 1468   1.436   2.696   0.044  0.2973 -0.2220 -0.0632
  490SOL    HW1 1469   1.420   2.693   3.038  1.7420 -0.7530  1.0915
  490SOL    HW2 1470   1.358   2.736   0.100 -1.0259  1.8697  0.4242
  491SOL     OW 1471   0.790   0.886   0.559  0.4575  0.0707 -0.1579
  491SOL    HW1 1472   0.731   0.918   0.635  1.1170 -3.3805 -2.3891
  491SOL    HW2 1473   0.819   0.959   0.494 -1.0666 -1.3795  0.4806
  492SOL     OW 1474   1.533   0.347   0.063  0.0731  0.1220  0.9466
  492SOL    HW1 1475   1.566   0.255   0.089  0.8971 -1.0210  1.7530
  492SOL    HW2 1476   1.448   0.334   0.010  1.0454 -0.2749  1.6188
  493SOL     OW 1477   1.896   2.346   0.002  0.1237 -0.7116 -0.2342
  493SOL    HW1 1478   1.828   2.273   0.013  0.3314  0.6746  0.8906
  493SOL    HW2 1479   1.888   2.405   3.012  1.3448  0.9576 -0.3100
  494SOL     OW 1480   0.566   1.160   0.552 -0.0215 -0.8062 -0.6444
  494SOL    HW1 1481   0.469   1.129   0.554 -0.0701 -0.0036  2.5449
  494SOL    HW2 1482   0.611   1.133   0.638  0.8350  0.0682 -1.4853
  495SOL     OW 1483   2.929   2.639   1.123 -0.1195  0.3414 -0.5528
  495SOL    HW1 1484   2.968   2.628   1.030 -2.2181  2.1203  2.0925
  495SOL    HW2 1485   2.888   2.544   1.149 -0.5721 -2.7332 -0.6237
  496SOL     OW 1486   2.339   0.347   1.785  0.1943 -0.6448 -0.3658
  496SOL    HW1 1487   2.420   0.320   1.728  0.8068 -1.9342 -2.1648
  496SOL    HW2 1488   2.319   0.274   1.851 -0.2464  1.5856 -3.7045
  497SOL     OW 1489   1.927   1.885   2.728  0.2162 -0.1654 -0.0049
  497SOL    HW1 1490   1.844   1.870   2.668 -0.9011 -0.3182  2.5663
  497SOL    HW2 1491   2.006   1.829   2.695  1.9809  1.5320  2.3779
  498SOL     OW 1492   0.853   1.993   0.700  0.0851  0.9786 -0.1211
  498SOL    HW1 1493   0.808   1.913   0.652 -2.5586  0.8524  0.9976
  498SOL    HW2 1494   0.891   1.956   0.787 -1.5650  0.8241  1.9109
  499SOL     OW 1495   0.588   1.852   0.992  0.1456  0.0412  0.1105
  499SOL    HW1 1496   0.626   1.945   1.013  2.1086 -2.5336  2.2074
  499SOL    HW2 1497   0.486   1.867   0.972 -2.5007  1.3859  0.6031
  500SOL     OW 1498   1.242   2.188   0.541  0.0284  0.1222  0.6168
  500SOL    HW1 1499   1.237   2.158   0.443 -0.3246 -1.4030  0.3884
  500SOL    HW2 1500   1.285   2.114   0.598 -1.1242 -0.6506  2.6068
  501SOL     OW 1501   2.303   2.579   1.165  0.3055 -0.3840 -0.4889
  501SOL    HW1 1502   2.397   2.623   1.171  2.3723  0.4697 -0.4247
  501SOL    HW2 1503   2.238   2.611   1.238  1.5741 -0.1951 -0.6053
  502SOL     OW 1504   0.419   0.868   1.355 -0.0277  0.1303  0.5460
  502SOL    HW1 1505   0.443   0.772   1.335  0.8709 -1.2924  2.6195
  502SOL    HW2 1506   0.322   0.890   1.334 -2.5539  0.4108 -1.5251
  503SOL     OW 1507   1.939   0.466   1.536  0.1842 -0.3291 -0.4210
  503SOL    HW1 1508   1.880   0.532   1.487 -0.9433 -1.2800 -1.0260
  503SOL    HW2 1509   2.003   0.514   1.598 -0.0402 -1.9011  0.3127
  504SOL     OW 1510   1.647   0.825   2.175 -0.0086  0.3973 -0.0901
  504SOL    HW1 1511   1.703   0.818   2.264 -0.6915  0.9931 -0.7641
  504SOL    HW2 1512   1.546   0.813   2.190  0.9954 -1.0054 -0.9150
  505SOL     OW 1513   1.125   0.229   2.668  0.5666 -0.7306  0.1019
  505SOL    HW1 1514   1.165   0.139   2.638  1.2358  0.6246 -0.7848
  505SOL    HW2 1515   1.104   0.227   2.767  0.7518  0.1465 -2.2383
  506SOL     OW 1516   0.508   0.553   1.585 -0.0942 -0.1986 -0.0511
  506SOL    HW1 1517   0.450   0.639   1.585 -0.8033 -0.0386 -0.3851
  506SOL    HW2 1518   0.451   0.468   1.596  0.1908 -0.7157  0.7073
  507SOL     OW 1519   1.367   3.086   3.014 -0.1735  0.1189  0.2489
  507SOL    HW1 1520   1.416   3.019   2.953  0.2243  2.1253  0.7414
  507SOL    HW2 1521   1.376   0.086   2.977 -0.3443  1.2351  0.0943
  508SOL     OW 1522   2.431   0.533   2.559 -0.2583 -0.2122 -0.5819
  508SOL    HW1 1523   2.392   0.537   2.652 -0.8269  0.3723 -0.2038
  508SOL    HW2 1524   2.382   0.604   2.500 -1.4814  1.2406 -0.6103
  509SOL     OW 1525   0.703   1.499   1.833  0.1101  0.1095  0.0737
  509SOL    HW1 1526   0.759   1.581   1.799 -0.4156  0.6190  0.6774
  509SOL    HW2 1527   0.680   1.511   1.932 -0.9662  2.2966  2.8439
  510SOL     OW 1528   0.011   1.190   0.763  0.8237  0.3945  0.0052
  510SOL    HW1 1529   0.006   1.282   0.802 -0.2397 -3.5066  1.3392
  510SOL    HW2 1530   3.088   1.117   0.837 -1.0561  0.2608  1.1280
  511SOL     OW 1531   1.806   1.673   1.100  0.8065 -0.1918  0.0881
  511SOL    HW1 1532   1.768   1.658   1.190 -0.8598 -2.2313 -0.1499
  511SOL    HW2 1533   1.863   1.594   1.064  0.9377  1.4832  2.8309
  512SOL     OW 1534   0.769   1.057   0.180  0.0738 -0.3435 -0.2137
  512SOL    HW1 1535   0.773   1.100   0.275  0.5486 -0.3574  1.9838
  512SOL    HW2 1536   0.857   1.059   0.127  3.7257  1.1055 -4.5915
  513SOL     OW 1537   0.147   2.316   0.665 -0.4907 -0.0050 -0.5982
  513SOL    HW1 1538   0.138   2.244   0.734 -1.5622  0.1651 -1.6249
  513SOL    HW2 1539   0.238   2.356   0.659 -2.8995  0.9034  0.3367
  514SOL     OW 1540   2.968   1.990   2.458  0.0941  0.3831  0.0742
  514SOL    HW1 1541   3.038   2.006   2.530  3.6756  3.4985 -0.1159
  514SOL    HW2 1542   3.022   1.965   2.380 -0.7671  0.3572  4.6031
  515SOL     OW 1543   2.407   0.772   0.199 -0.6121  0.1331  1.1249
  515SOL    HW1 1544   2.475   0.825   0.260 -0.3982  0.7868  2.8592
  515SOL    HW2 1545   2.378   0.697   0.255  2.1338  0.5448 -0.1628
  516SOL     OW 1546   2.517   2.816   0.845  0.4728  0.1324  0.4825
  516SOL    HW1 1547   2.583   2.809   0.925 -0.8150 -0.3168  1.4271
  516SOL    HW2 1548   2.508   2.906   0.803  2.6946  0.6035  1.2438
  517SOL     OW 1549   1.420   1.769   2.914 -0.0667  0.0086  0.3105
  517SOL    HW1 1550   1.503   1.758   2.967 -1.8249 -1.3439 -3.1567
  517SOL    HW2 1551   1.364   1.857   2.939 -1.6807  3.7628  0.1242
  518SOL     OW 1552   1.047   0.923   1.597 -0.0874  0.7210 -0.0758
  518SOL    HW1 1553   1.009   0.877   1.511 -0.8027 -0.4888 -3.0486
  518SOL    HW2 1554   1.093   0.853   1.656 -2.6128  0.9686  1.3994
  519SOL     OW 1555   2.878   1.718   0.444  0.3636 -0.0596  0.0460
  519SOL    HW1 1556   2.844   1.693   0.533 -0.3390  1.3066 -1.7569
  519SOL    HW2 1557   2.932   1.644   0.396 -2.8785 -2.4266  0.7069
  520SOL     OW 1558   2.303   1.931   2.025 -0.3759  0.2433 -0.3897
  520SOL    HW1 1559   2.215   1.973   2.001  0.8216 -0.5176  2.2605
  520SOL    HW2 1560   2.369   1.991   2.074  2.5430  2.7088  0.8887
  521SOL     OW 1561   1.082   3.092   2.409 -0.4199  0.4370 -0.2867
  521SOL    HW1 1562   1.007   0.068   2.427 -1.6592 -0.8313 -1.4657
  521SOL    HW2 1563   1.038   3.026   2.344 -0.5585 -1.7276 -0.5467
  522SOL     OW 1564   2.185   0.507   2.150  0.1681  0.2091  0.0213
  522SOL    HW1 1565   2.261   0.576   2.158  0.0680 -1.8614 -0.9337
  522SOL    HW2 1566   2.123   0.535   2.075  1.1211  1.3344  1.3065
  523SOL     OW 1567   1.965   2.556   1.672  0.0040  0.0730  0.4373
  523SOL    HW1 1568   1.949   2.453   1.675 -1.9571  0.7873 -2.2706
  523SOL    HW2 1569   2.049   2.579   1.725 -1.1269 -1.3427 -1.1265
  524SOL     OW 1570   1.691   2.154   3.073 -0.1149 -0.1919  0.4807
  524SOL    HW1 1571   1.631   2.208   3.014  0.5519 -1.9534  2.4710
  524SOL    HW2 1572   1.749   2.084   3.025 -0.1953  1.7178 -1.8537
  525SOL     OW 1573   0.136   0.614   0.089 -0.1540 -0.0738 -0.1529
  525SOL    HW1 1574   0.233   0.581   0.104  1.8047 -0.3307  0.2971
  525SOL    HW2 1575   0.090   0.579   0.009  4.2499  0.8854 -0.7710
  526SOL     OW 1576   1.107   2.820   0.572  0.0931  0.2032 -0.4692
  526SOL    HW1 1577   1.194   2.780   0.534  2.3035 -0.3262 -2.0564
  526SOL    HW2 1578   1.085   2.792   0.669 -0.5047 -1.2866  1.3512
  527SOL     OW 1579   2.642   1.721   0.764  0.0456  0.9726 -0.0570
  527SOL    HW1 1580   2.639   1.809   0.818  0.4588  0.6182  2.3740
  527SOL    HW2 1581   2.548   1.704   0.720 -2.2635 -0.4094 -1.9091
  528SOL     OW 1582   0.734   0.898   1.919 -0.4301  0.6425  0.1187
  528SOL    HW1 1583   0.674   0.864   1.992  1.5044  0.8465  0.7231
  528SOL    HW2 1584   0.812   0.833   1.902  0.5901  1.9138 -2.1776
  529SOL     OW 1585   1.517   1.671   2.684 -0.1438 -0.1007  0.3773
  529SOL    HW1 1586   1.479   1.711   2.767 -0.1188 -0.9283 -1.6221
  529SOL    HW2 1587   1.441   1.662   2.612 -1.6950  1.0680 -0.5191
  530SOL     OW 1588   1.650   1.159   2.370  0.1169  0.0241  0.4672
  530SOL    HW1 1589   1.600   1.176   2.280 -1.8037  0.1602 -1.3493
  530SOL    HW2 1590   1.636   1.071   2.409  1.5616 -1.0587  1.2050
  531SOL     OW 1591   0.734   2.257   2.585  0.5006  0.4526 -0.1985
  531SOL    HW1 1592   0.646   2.308   2.584 -1.5792 -1.8801  0.1644
  531SOL    HW2 1593   0.803   2.316   2.634  1.8861  2.0388 -3.2584
  532SOL     OW 1594   2.456   0.814   0.617  0.3145 -0.5675 -0.1349
  532SOL    HW1 1595   2.410   0.899   0.652 -1.4473 -0.7784 -0.2221
  532SOL    HW2 1596   2.471   0.745   0.688 -1.1462 -0.5275  0.1708
  533SOL     OW 1597   0.113   0.341   1.588 -0.5496  0.4242 -0.1442
  533SOL    HW1 1598   0.200   0.333   1.640 -1.0823 -0.1573  1.0191
  533SOL    HW2 1599   0.130   0.403   1.510  3.3726 -1.1622  1.5781
  534SOL     OW 1600   0.631   0.186   3.069 -0.0972 -0.6164 -0.0335
  534SOL    HW1 1601   0.545   0.229   3.041  2.0005 -0.4391 -0.1660
  534SOL    HW2 1602   0.705   0.224   3.008 -0.3175  2.8063  1.3287
  535SOL     OW 1603   0.179   0.027   0.038 -0.5150 -0.1217 -0.2849
  535SOL    HW1 1604   0.211   3.073   3.051  0.2525  1.0738  0.8513
  535SOL    HW2 1605   0.115   3.064   0.088  0.3413 -1.3716  0.7272
  536SOL     OW 1606   0.539   1.661   1.180  0.0185 -0.0678  0.4814
  536SOL    HW1 1607   0.576   1.735   1.119  0.5701  2.3595 -2.5176
  536SOL    HW2 1608   0.542   1.696   1.277 -0.5813 -0.5226 -0.6466
  537SOL     OW 1609   0.892   2.756   1.762 -0.5307  0.0791 -0.8145
  537SOL    HW1 1610   0.988   2.787   1.733  1.4652 -0.5863 -1.6563
  537SOL    HW2 1611   0.887   2.721   1.859  0.0105 -0.2347  2.7033
  538SOL     OW 1612   0.158   1.908   3.021  0.4998 -0.4944  0.2514
  538SOL    HW1 1613   0.082   1.870   3.071  2.3093 -0.1816 -5.3557
  538SOL    HW2 1614   0.232   1.837   2.999  2.4045  0.7534 -2.7968
  539SOL     OW 1615   2.429   0.825   2.815  0.0316 -0.5051  0.2327
  539SOL    HW1 1616   2.448   0.754   2.888 -0.1721 -0.7394  1.7494
  539SOL    HW2 1617   2.474   0.914   2.839  3.7935 -0.7405  2.5812
  540SOL     OW 1618   1.663   0.612   2.715  0.8542 -0.0740  0.1008
  540SOL    HW1 1619   1.641   0.555   2.799  1.3146 -1.2355  2.2924
  540SOL    HW2 1620   1.765   0.624   2.713  0.9808 -3.0327 -0.3845
  541SOL     OW 1621   0.781   0.177   2.026  0.2271  0.0205 -0.2670
  541SOL    HW1 1622   0.775   0.189   2.126  1.1272  0.6695  0.2385
  541SOL    HW2 1623   0.783   0.273   1.986  0.0415  2.5492 -0.6285
  542SOL     OW 1624   1.777   2.683   3.071  0.0317  0.3331 -0.1516
  542SOL    HW1 1625   1.691   2.638   3.095 -0.3307  0.0091  2.1662
  542SOL    HW2 1626   1.763   2.784   3.043  0.3613  0.2737  0.1741
  543SOL     OW 1627   0.834   0.034   0.715  0.0595 -0.0347  0.0525
  543SOL    HW1 1628   0.832   0.129   0.760 -3.8636  1.5017  1.0190
  543SOL    HW2 1629   0.930   0.020   0.677  2.6888 -1.8193  2.1119
  544SOL     OW 1630   2.539   1.400   1.901 -0.0143 -0.2345  0.3348
  544SOL    HW1 1631   2.581   1.399   1.996 -1.1937  0.4547  0.7560
  544SOL    HW2 1632   2.507   1.496   1.882  0.5307  1.1919 -0.3654
  545SOL     OW 1633   2.141   1.521   1.355  0.2137  0.1345 -0.0919
  545SOL    HW1 1634   2.220   1.564   1.310  1.0370  0.5313  1.7414
  545SOL    HW2 1635   2.117   1.439   1.304  1.3955  1.7436  0.0622
  546SOL     OW 1636   3.063   0.125   2.004  0.2125  0.0921  0.0332
  546SOL    HW1 1637   0.039   0.197   1.997  1.4682  0.9986 -3.3264
  546SOL    HW2 1638   3.003   0.122   1.927 -1.3519 -1.6055 -0.2815
  547SOL     OW 1639   1.399   0.658   0.827 -0.0435  0.1300 -0.4184
  547SOL    HW1 1640   1.337   0.721   0.879 -0.6729 -0.0928 -0.0720
  547SOL    HW2 1641   1.492   0.704   0.822 -0.2285  0.5646 -0.7030
  548SOL     OW 1642   1.377   2.350   2.907  0.1022  0.3505  0.0064
  548SOL    HW1 1643   1.293   2.295   2.892 -1.6557  0.1250 -0.0773
  548SOL    HW2 1644   1.450   2.312   2.848 -0.8444  0.7038  2.7837
  549SOL     OW 1645   2.251   0.279   0.349 -0.2469  0.0251  0.6650
  549SOL    HW1 1646   2.185   0.336   0.296 -2.5365  1.1271 -0.0440
  549SOL    HW2 1647   2.258   0.190   0.300  0.2642 -0.7353  1.6678
  550SOL     OW 1648   2.721   2.084   0.698  0.0791 -0.1716 -0.2364
  550SOL    HW1 1649   2.704   2.166   0.751  0.3544 -0.7310 -2.0159
  550SOL    HW2 1650   2.813   2.050   0.720  3.5176 -1.8441 -0.0564
  551SOL     OW 1651   1.371   2.881   2.247  0.4346 -0.4367 -0.0060
  551SOL    HW1 1652   1.364   2.924   2.154  2.8008 -0.7771 -0.5620
  551SOL    HW2 1653   1.339   2.941   2.320 -1.0195  0.3633  0.2107
  552SOL     OW 1654   2.938   2.366   2.674 -0.0904 -0.0457  0.0844
  552SOL    HW1 1655   2.992   2.342   2.588 -0.2484  1.1372 -2.2147
  552SOL    HW2 1656   2.836   2.344   2.657 -1.2521  0.0758  0.7105
  553SOL     OW 1657   3.062   0.168   0.815  0.0757 -0.1929 -0.4756
  553SOL    HW1 1658   0.034   0.229   0.866  1.2653  1.4485 -0.6021
  553SOL    HW2 1659   3.042   0.084   0.867  2.0510 -0.0059 -1.9270
  554SOL     OW 1660   2.219   2.140   1.552  0.0172  0.1189  0.1277
  554SOL    HW1 1661   2.192   2.048   1.583  1.0717 -0.6175 -0.3972
  554SOL    HW2 1662   2.256   2.205   1.621  0.2595 -0.1167  0.5379
  555SOL     OW 1663   1.660   2.302   2.086 -0.0845 -0.2203  0.3511
  555SOL    HW1 1664   1.602   2.222   2.122 -0.1141  1.2895 -1.1719
  555SOL    HW2 1665   1.605   2.388   2.083  1.6061  0.7307 -0.8826
  556SOL     OW 1666   1.432   1.339   1.172 -0.3770 -0.5802 -0.6422
  556SOL    HW1 1667   1.441   1.295   1.079 -0.8908 -1.1526 -0.1648
  556SOL    HW2 1668   1.478   1.432   1.169  1.5234 -0.0311  2.2031
  557SOL     OW 1669   2.168   2.753   1.801 -0.2936  0.3039 -0.0311
  557SOL    HW1 1670   2.229   2.672   1.813 -0.0056  0.8353 -2.7396
  557SOL    HW2 1671   2.125   2.773   1.889  2.9480  0.0592 -1.7068
  558SOL     OW 1672   0.175   0.034   1.776 -0.4063  0.3067 -0.1390
  558SOL    HW1 1673   0.121   0.117   1.793  3.1120 -0.4114 -0.7149
  558SOL    HW2 1674   0.132   3.065   1.711  0.5692 -1.0046 -1.1759
  559SOL     OW 1675   2.037   3.058   0.686  0.1406 -0.2344 -0.8701
  559SOL    HW1 1676   2.118   3.053   0.751 -0.4068 -0.7673 -0.3975
  559SOL    HW2 1677   2.037   2.974   0.629  1.0392 -1.2447 -1.2983
  560SOL     OW 1678   1.629   2.757   0.676 -0.1943  0.1679 -0.7873
  560SOL    HW1 1679   1.691   2.834   0.709  1.1433  0.3472  0.3080
  560SOL    HW2 1680   1.615   2.691   0.752  1.0702  0.8603 -2.8375
  561SOL     OW 1681   0.587   0.320   0.993  0.0167  0.1512  0.1886
  561SOL    HW1 1682   0.630   0.414   1.007 -0.9452 -0.9635 -0.2797
  561SOL    HW2 1683   0.518   0.329   0.918 -2.9620 -0.3205 -1.2713
  562SOL     OW 1684   0.530   1.199   2.438 -0.1872  0.3648 -0.3268
  562SOL    HW1 1685   0.427   1.207   2.424  1.8848  0.0844  1.7115
  562SOL    HW2 1686   0.566   1.109   2.398  1.6709 -3.4235 -1.2403
  563SOL     OW 1687   1.857   2.260   2.470 -0.4231 -0.5728  0.2423
  563SOL    HW1 1688   1.869   2.188   2.403  0.4290  2.0609  0.3245
  563SOL    HW2 1689   1.851   2.220   2.563  1.2905 -2.4127  2.0548
  564SOL     OW 1690   2.790   0.915   0.660  0.0228  0.3704  0.1211
  564SOL    HW1 1691   2.879   0.874   0.693  0.5612  0.5255  0.3368
  564SOL    HW2 1692   2.746   0.967   0.738  0.1101 -1.8769  0.6037
  565SOL     OW 1693   0.738   0.824   0.007 -0.4971  0.0325  0.1898
  565SOL    HW1 1694   0.747   0.862   3.009  0.4772  0.8043 -3.1255
  565SOL    HW2 1695   0.736   0.893   0.080  0.6823  2.5847 -2.0112
  566SOL     OW 1696   2.097   0.381   2.557  0.0881 -0.3371 -0.3792
  566SOL    HW1 1697   2.084   0.314   2.632  0.9863  1.4937  3.4620
  566SOL    HW2 1698   2.162   0.451   2.586 -0.1452 -3.4332  0.1199
  567SOL     OW 1699   1.591   0.832   0.641 -0.3734 -0.5336 -0.4336
  567SOL    HW1 1700   1.517   0.783   0.592 -2.5384  0.0935 -1.3371
  567SOL    HW2 1701   1.570   0.931   0.659  0.7113  3.4993 -0.2843
  568SOL     OW 1702   1.844   1.926   2.989  0.1364  0.4214  0.6829
  568SOL    HW1 1703   1.770   1.860   3.011 -0.7451 -0.4223 -2.8031
  568SOL    HW2 1704   1.876   1.924   2.888  0.3287  0.2667 -3.0624
  569SOL     OW 1705   2.035   1.362   0.032  0.4125 -0.2761  0.5529
  569SOL    HW1 1706   2.018   1.465   0.038  0.1186  1.9174 -0.6360
  569SOL    HW2 1707   2.116   1.339   0.085 -2.8578 -0.0820 -2.8842
  570SOL     OW 1708   0.201   2.274   1.863 -0.7576  0.0231  0.5223
  570SOL    HW1 1709   0.282   2.324   1.828  0.7613 -0.0357 -0.7106
  570SOL    HW2 1710   0.135   2.342   1.900 -0.4831 -0.9320  0.4981
  571SOL     OW 1711   0.177   1.309   1.822  0.4945  0.1173  0.3675
  571SOL    HW1 1712   0.261   1.358   1.790  2.6499 -0.6067  1.1540
  571SOL    HW2 1713   0.188   1.217   1.782  2.1738  0.9651  0.2584
  572SOL     OW 1714   1.531   1.870   0.597 -0.2324 -0.1815 -0.2276
  572SOL    HW1 1715   1.604   1.809   0.636  0.2423  0.0381 -5.4495
  572SOL    HW2 1716   1.576   1.934   0.532 -0.4387 -2.4756 -3.2150
  573SOL     OW 1717   1.656   2.076   0.475  0.1408 -0.6693 -0.2129
  573SOL    HW1 1718   1.623   2.107   0.388  2.9889  0.8310 -2.2690
  573SOL    HW2 1719   1.732   2.121   0.527  1.2813  1.0128  1.7270
  574SOL     OW 1720   0.594   0.308   1.271  1.0199 -0.0005  0.1659
  574SOL    HW1 1721   0.535   0.245   1.317  1.7719  2.1075 -2.0856
  574SOL    HW2 1722   0.583   0.301   1.167 -0.0031 -0.5570 -5.7965
  575SOL     OW 1723   0.657   1.269   1.572  0.5807  0.9102  0.0696
  575SOL    HW1 1724   0.730   1.301   1.502 -0.9581  1.6088 -3.3957
  575SOL    HW2 1725   0.691   1.188   1.626  0.8395 -1.0805  0.2463
  576SOL     OW 1726   2.833   3.088   1.247  0.7806  0.0793  0.0641
  576SOL    HW1 1727   2.917   0.042   1.223 -4.0817 -0.6062  2.5364
  576SOL    HW2 1728   2.760   0.051   1.282  1.8840  0.4822 -3.1709
  577SOL     OW 1729   1.050   1.227   2.074 -0.1328 -0.1924 -0.2138
  577SOL    HW1 1730   0.988   1.253   1.998  3.4941  0.5706  3.1387
  577SOL    HW2 1731   1.031   1.126   2.087  2.9268 -0.1214  0.5753
  578SOL     OW 1732   1.929   1.270   2.331  0.0577  0.7081 -0.1507
  578SOL    HW1 1733   1.977   1.192   2.371 -4.3424  3.0641  1.6706
  578SOL    HW2 1734   1.827   1.249   2.311 -1.3878 -0.0219  0.2914
  579SOL     OW 1735   1.578   2.310   1.819  0.3562 -0.6109 -0.1872
  579SOL    HW1 1736   1.609   2.318   1.916  2.5822 -1.1950 -2.2706
  579SOL    HW2 1737   1.616   2.381   1.758 -1.5641 -2.0000  3.0736
  580SOL     OW 1738   1.311   1.721   0.338  0.3732  0.4529 -0.0358
  580SOL    HW1 1739   1.366   1.647   0.373 -1.7965  2.5335  1.7284
  580SOL    HW2 1740   1.264   1.762   0.422 -2.3637  0.2567  2.5838
  581SOL     OW 1741   1.289   0.947   1.959 -0.0823  0.1584 -0.3218
  581SOL    HW1 1742   1.195   0.971   2.001 -0.7631  0.5770  0.9832
  581SOL    HW2 1743   1.337   0.877   2.021 -0.6386  0.0602  1.7884
  582SOL     OW 1744   0.867   1.369   1.366 -0.1261  0.0717 -0.2799
  582SOL    HW1 1745   0.938   1.406   1.431  2.3713  0.0438 -0.6124
  582SOL    HW2 1746   0.833   1.445   1.303 -1.2837  1.1204 -1.7878
  583SOL     OW 1747   0.878   1.267   1.826 -0.2628 -0.2137  0.1752
  583SOL    HW1 1748   0.821   1.191   1.787  1.8212  0.3540  3.1584
  583SOL    HW2 1749   0.833   1.359   1.818  0.2706  1.3286  1.4000
  584SOL     OW 1750   2.457   2.654   0.650  0.6823  0.2155 -0.6808
  584SOL    HW1 1751   2.401   2.572   0.684  1.7292 -1.4296  1.9967
  584SOL    HW2 1752   2.461   2.729   0.716 -2.6615 -1.5070 -1.3480
  585SOL     OW 1753   2.002   0.412   2.944  0.4317 -0.5112  0.2642
  585SOL    HW1 1754   1.982   0.314   2.926  0.4500 -0.0146  2.8675
  585SOL    HW2 1755   1.975   0.474   2.871 -1.4414 -1.9167  2.2781
  586SOL     OW 1756   3.046   2.341   0.930  0.1729  1.0549 -0.6038
  586SOL    HW1 1757   3.019   2.428   0.887 -1.1363  1.4280 -2.1306
  586SOL    HW2 1758   3.027   2.354   1.031 -0.7247 -0.6428  0.7540
  587SOL     OW 1759   1.644   1.760   0.007  0.0914  0.2114  0.1404
  587SOL    HW1 1760   1.593   1.765   0.093 -0.2879 -0.0702  0.3399
  587SOL    HW2 1761   1.688   1.665   3.084  0.8755 -3.1763 -1.5202
  588SOL     OW 1762   0.255   0.277   1.245  0.0610 -0.1048 -0.4888
  588SOL    HW1 1763   0.308   0.207   1.292  0.0446 -0.2726 -0.1062
  588SOL    HW2 1764   0.157   0.282   1.284 -0.1449  0.5087  0.3986
  589SOL     OW 1765   1.332   0.400   0.797  0.3447  0.2290 -0.0534
  589SOL    HW1 1766   1.313   0.367   0.891 -1.8725 -0.6228  0.1384
  589SOL    HW2 1767   1.363   0.493   0.788  0.7098 -1.6476 -1.5735
  590SOL     OW 1768   1.017   1.019   0.091  0.7345 -0.1908  0.6678
  590SOL    HW1 1769   1.076   1.091   0.129  1.0511  0.5828 -0.4301
  590SOL    HW2 1770   1.076   0.949   0.042  1.6906  0.8452  0.1399
  591SOL     OW 1771   2.492   2.407   2.372 -0.1801 -0.4590 -0.5301
  591SOL    HW1 1772   2.474   2.474   2.448 -0.2905 -1.4214 -1.7124
  591SOL    HW2 1773   2.515   2.466   2.293  0.5071  0.9021  2.2889
  592SOL     OW 1774   2.036   1.749   1.437 -0.5217  0.0897  0.5412
  592SOL    HW1 1775   2.114   1.806   1.477  3.4933 -1.2456  2.8778
  592SOL    HW2 1776   2.068   1.656   1.410  0.1530 -3.0890  0.7225
  593SOL     OW 1777   1.187   0.683   1.371  0.2686 -0.2256 -0.4572
  593SOL    HW1 1778   1.087   0.665   1.355 -0.8519 -1.7327 -0.0631
  593SOL    HW2 1779   1.246   0.679   1.293 -2.5604  3.3727  0.6677
  594SOL     OW 1780   2.501   0.927   2.537 -0.3314  0.0992 -0.7322
  594SOL    HW1 1781   2.513   0.863   2.618  1.2642 -0.7705  1.7055
  594SOL    HW2 1782   2.586   0.983   2.526  1.3083 -0.3134  0.3375
  595SOL     OW 1783   0.098   0.141   0.598 -0.6168  0.4649  0.0119
  595SOL    HW1 1784   0.044   0.157   0.680 -1.9966  0.7173 -2.6298
  595SOL    HW2 1785   0.198   0.136   0.630 -0.9888  0.8192  2.9216
  596SOL     OW 1786   0.149   1.620   1.069 -0.1138  0.5835  0.3449
  596SOL    HW1 1787   0.241   1.581   1.058  0.7885  1.6602 -1.3121
  596SOL    HW2 1788   0.090   1.591   0.995  0.9399  1.0470  1.7313
  597SOL     OW 1789   1.801   1.530   0.485  0.3743 -0.3893  0.3219
  597SOL    HW1 1790   1.798   1.604   0.553  1.5790  0.4199  1.5318
  597SOL    HW2 1791   1.855   1.564   0.403  0.4439 -1.5700  2.2118
  598SOL     OW 1792   0.174   2.683   1.852 -0.1869 -0.0675  0.3633
  598SOL    HW1 1793   0.183   2.683   1.750 -1.1615 -2.7348 -0.0417
  598SOL    HW2 1794   0.270   2.702   1.886  4.1392 -0.9722  2.0816
  599SOL     OW 1795   2.471   1.311   2.769 -0.2332  0.6608  0.0175
  599SOL    HW1 1796   2.382   1.308   2.719 -1.5647  0.7686 -2.0713
  599SOL    HW2 1797   2.457   1.349   2.862  1.1205  0.8552  0.0256
  600SOL     OW 1798   0.479   1.004   0.118  0.1287 -0.0803  0.3792
  600SOL    HW1 1799   0.578   1.028   0.131  0.3437 -1.3974  0.2923
  600SOL    HW2 1800   0.420   1.071   0.165  0.8182  3.7233  0.3785
  601SOL     OW 1801   0.473   0.912   0.898 -0.4557  0.3097  0.1936
  601SOL    HW1 1802   0.526   0.875   0.977  3.4431  0.6874 -1.7596
  601SOL    HW2 1803   0.395   0.975   0.919 -1.2827  1.3659 -0.2303
  602SOL     OW 1804   1.359   2.432   0.517 -0.0685  0.3422  0.3539
  602SOL    HW1 1805   1.317   2.337   0.527  0.8045 -0.5818  0.3647
  602SOL    HW2 1806   1.446   2.428   0.465  2.4788 -0.3073 -1.1086
  603SOL     OW 1807   0.956   2.600   2.007  0.2762  0.0761 -0.0934
  603SOL    HW1 1808   1.025   2.613   2.076 -2.8885  3.0772 -1.0940
  603SOL    HW2 1809   0.873   2.540   2.039 -0.5269 -0.8670  1.6464
  604SOL     OW 1810   0.381   0.385   2.264 -0.6414  0.4145 -0.0024
  604SOL    HW1 1811   0.373   0.295   2.214 -1.0506  1.7344 -0.9338
  604SOL    HW2 1812   0.303   0.445   2.247  1.2549  0.3207  2.6106
  605SOL     OW 1813   3.070   1.068   1.509 -0.2856  0.8333  0.4363
  605SOL    HW1 1814   2.994   1.122   1.550  0.4126  0.2245  1.2736
  605SOL    HW2 1815   3.038   0.975   1.477 -0.9938 -0.6422 -0.7585
  606SOL     OW 1816   0.908   1.708   2.696 -0.3090  0.2556 -0.2075
  606SOL    HW1 1817   0.825   1.762   2.663 -1.6899 -0.8091  1.7320
  606SOL    HW2 1818   0.951   1.652   2.622  1.9818 -0.8253 -1.0244
  607SOL     OW 1819   0.364   0.043   0.293  0.3465 -0.7816 -0.7667
  607SOL    HW1 1820   0.283   0.030   0.230  1.9470 -0.7024 -1.1051
  607SOL    HW2 1821   0.363   0.140   0.338  2.0591 -0.6159  0.1707
  608SOL     OW 1822   2.228   1.709   2.161 -1.0573 -0.4958  0.6121
  608SOL    HW1 1823   2.275   1.771   2.091  0.1684 -0.0017 -1.7599
  608SOL    HW2 1824   2.169   1.760   2.227 -0.4515 -0.6905  2.1317
  609SOL     OW 1825   2.807   0.353   1.292  0.0749 -0.6232  0.3066
  609SOL    HW1 1826   2.791   0.354   1.190 -0.1584  0.5646 -1.2562
  609SOL    HW2 1827   2.751   0.280   1.330  2.8793  2.2185 -0.3287
  610SOL     OW 1828   0.249   2.714   0.457  0.2859  0.4216 -0.3220
  610SOL    HW1 1829   0.318   2.735   0.385 -0.2460  0.6272 -0.7772
  610SOL    HW2 1830   0.194   2.628   0.435  0.2861 -2.1518 -0.3565
  611SOL     OW 1831   1.603   1.303   3.093 -0.2342 -0.5173 -0.1542
  611SOL    HW1 1832   1.673   1.240   0.037 -1.4122 -2.4070 -0.2129
  611SOL    HW2 1833   1.536   1.335   0.068 -1.2794  1.0701 -0.2559
  612SOL     OW 1834   0.688   2.328   1.799 -1.1429 -0.1601 -0.1843
  612SOL    HW1 1835   0.710   2.376   1.886 -0.9265 -1.7470 -1.7248
  612SOL    HW2 1836   0.737   2.369   1.717  2.2666 -1.1406 -0.9434
  613SOL     OW 1837   0.379   2.470   0.724  0.2648 -0.2109 -0.5234
  613SOL    HW1 1838   0.435   2.484   0.809 -0.4030 -0.1403  0.6686
  613SOL    HW2 1839   0.439   2.428   0.656 -0.7969  1.6956  0.3374
  614SOL     OW 1840   2.255   2.643   1.571  0.7755 -0.0316 -0.1504
  614SOL    HW1 1841   2.343   2.611   1.610  0.3337  1.1052 -1.9857
  614SOL    HW2 1842   2.211   2.711   1.633  1.4812  2.5687 -0.4572
  615SOL     OW 1843   1.650   0.927   0.353  0.3951  0.0624  0.2932
  615SOL    HW1 1844   1.584   0.953   0.421 -0.2495 -0.3162 -1.1825
  615SOL    HW2 1845   1.735   0.986   0.372  2.4911  2.1419  0.8179
  616SOL     OW 1846   1.867   0.638   0.371 -0.0459 -0.2052  0.4984
  616SOL    HW1 1847   1.910   0.714   0.315 -0.3595 -1.0303  1.3988
  616SOL    HW2 1848   1.811   0.573   0.315  0.8142  0.0881 -1.5566
  617SOL     OW 1849   0.914   0.767   2.806 -0.6353  0.0125 -0.1931
  617SOL    HW1 1850   0.999   0.820   2.786  0.7481 -0.6762  0.1104
  617SOL    HW2 1851   0.940   0.673   2.828 -1.9657 -0.9125  1.2765
  618SOL     OW 1852   0.806   2.967   2.024 -0.0331  0.1658  0.4628
  618SOL    HW1 1853   0.813   2.921   1.933 -0.9630 -1.8549 -0.5304
  618SOL    HW2 1854   0.718   3.017   2.046  0.2121 -0.2832  0.4211
  619SOL     OW 1855   3.090   1.375   1.296 -0.9149  0.1780 -0.5390
  619SOL    HW1 1856   3.074   1.473   1.262  1.9427  0.6863 -3.9891
  619SOL    HW2 1857   3.048   1.356   1.389 -2.7005 -1.7343 -0.7637
  620SOL     OW 1858   0.134   1.055   2.815  0.0687  0.0219  0.3283
  620SOL    HW1 1859   0.224   1.103   2.811  1.3047 -0.5038  1.7333
  620SOL    HW2 1860   0.108   1.041   2.912  2.3077 -0.2387  0.3768
  621SOL     OW 1861   2.215   2.213   2.282  0.3206  0.3623  0.2645
  621SOL    HW1 1862   2.288   2.171   2.340  2.2869 -1.9921  1.0859
  621SOL    HW2 1863   2.175   2.142   2.218 -1.1903 -0.7877 -2.5514
  622SOL     OW 1864   1.050   0.395   2.097 -0.6449 -0.2169 -0.2616
  622SOL    HW1 1865   1.081   0.351   2.186  0.8609  1.1564 -0.3631
  622SOL    HW2 1866   0.966   0.452   2.114  0.0975  1.9218 -1.1173
  623SOL     OW 1867   1.025   0.974   2.082  0.2769  1.1528 -0.0619
  623SOL    HW1 1868   0.963   0.946   2.008  0.9314  1.1811  3.4191
  623SOL    HW2 1869   0.966   0.948   2.164 -1.6598  2.0399 -0.6246
  624SOL     OW 1870   2.550   0.940   0.378 -0.1050  0.8852 -0.7200
  624SOL    HW1 1871   2.504   1.030   0.368 -1.3212  0.0403 -3.5579
  624SOL    HW2 1872   2.517   0.887   0.457 -2.8176  1.7994  1.6827
  625SOL     OW 1873   1.061   1.319   0.869  0.7849  0.1004  0.1799
  625SOL    HW1 1874   1.154   1.316   0.918  1.1864 -0.0993  1.7517
  625SOL    HW2 1875   1.033   1.223   0.853 -1.6685  0.9766 -0.6088
  626SOL     OW 1876   1.911   1.107   2.718 -0.4312  0.6859  0.4731
  626SOL    HW1 1877   1.890   1.126   2.618  0.1283 -0.1377 -3.0929
  626SOL    HW2 1878   1.991   1.049   2.732  0.2556  0.3062  0.1387
  627SOL     OW 1879   1.021   2.931   2.695  0.1911 -0.4393 -0.3808
  627SOL    HW1 1880   1.110   2.932   2.650 -3.0639 -1.7040  1.3521
  627SOL    HW2 1881   0.987   3.024   2.716 -1.3508 -0.9922  0.9228
  628SOL     OW 1882   2.060   0.198   2.350  0.0658 -0.3063  0.2629
  628SOL    HW1 1883   2.084   0.287   2.385  0.1657 -5.5640  0.0441
  628SOL    HW2 1884   1.973   0.163   2.384 -0.2949 -1.0327 -1.7649
  629SOL     OW 1885   0.816   0.272   2.901  0.1936 -0.1463 -0.1557
  629SOL    HW1 1886   0.756   0.302   2.826 -2.7167 -0.0778  1.3550
  629SOL    HW2 1887   0.873   0.343   2.937  0.8112 -1.3726  0.8035
  630SOL     OW 1888   0.946   0.462   2.542 -0.3554  0.3496 -0.2526
  630SOL    HW1 1889   1.013   0.419   2.609 -1.3352 -0.7522 -0.0523
  630SOL    HW2 1890   0.851   0.472   2.579  2.4985  4.2704  1.0166
  631SOL     OW 1891   2.362   1.061   0.667  0.0176  0.0512 -0.7149
  631SOL    HW1 1892   2.294   1.111   0.730 -2.7166  0.6034 -0.9679
  631SOL    HW2 1893   2.359   1.089   0.569  1.9321 -1.0157  0.1970
  632SOL     OW 1894   2.055   0.793   1.444 -0.4989  0.4896  0.0968
  632SOL    HW1 1895   2.126   0.777   1.371 -2.4076  0.1060 -2.3741
  632SOL    HW2 1896   1.972   0.741   1.427  2.5756  2.0340  2.5507
  633SOL     OW 1897   1.089   1.478   0.248 -0.2216  0.1440  0.1688
  633SOL    HW1 1898   0.987   1.483   0.249  0.4576 -2.6492  2.0713
  633SOL    HW2 1899   1.123   1.492   0.344 -2.3080  2.1698 -0.1485
  634SOL     OW 1900   2.457   3.023   1.467  0.8465 -0.1639 -0.3866
  634SOL    HW1 1901   2.375   3.025   1.525  1.7308  0.8344 -1.5282
  634SOL    HW2 1902   2.532   2.983   1.513 -1.9031 -0.2348 -3.7801
  635SOL     OW 1903   1.880   0.187   0.992 -0.0343 -0.3094 -0.0309
  635SOL    HW1 1904   1.851   0.164   1.089  2.9806  1.1325  2.0535
  635SOL    HW2 1905   1.824   0.129   0.936  3.0022  1.2658  0.8182
  636SOL     OW 1906   0.801   1.139   0.441 -0.1548  0.2966 -0.2526
  636SOL    HW1 1907   0.709   1.160   0.473 -1.1340  2.0010 -0.9905
  636SOL    HW2 1908   0.863   1.207   0.486  0.6523  2.3895 -0.6803
  637SOL     OW 1909   2.902   2.042   2.919  0.4469 -0.5632  0.3628
  637SOL    HW1 1910   2.847   2.086   2.992 -0.5929  0.4694 -0.7958
  637SOL    HW2 1911   2.989   2.094   2.903 -0.6389  0.8660 -2.2632
  638SOL     OW 1912   1.352   2.622   2.888  0.1298 -0.3954  0.6052
  638SOL    HW1 1913   1.341   2.670   2.795 -1.6909 -0.5442 -1.4542
  638SOL    HW2 1914   1.360   2.521   2.873 -0.0659  1.3556 -0.9254
  639SOL     OW 1915   1.502   1.575   1.194  0.0094  0.2327 -0.1063
  639SOL    HW1 1916   1.416   1.632   1.202 -2.3665  0.9408  2.6835
  639SOL    HW2 1917   1.572   1.604   1.259 -1.6316 -1.5865 -3.1022
  640SOL     OW 1918   2.295   2.925   0.490  0.2394  0.2291  0.2799
  640SOL    HW1 1919   2.211   2.878   0.524 -0.5803 -1.2440  0.9866
  640SOL    HW2 1920   2.329   2.894   0.401 -1.2271 -1.3946 -0.0398
  641SOL     OW 1921   2.892   3.024   2.878  0.1415 -0.2498 -0.0534
  641SOL    HW1 1922   2.923   3.083   2.953 -0.0280 -2.4189 -2.0486
  641SOL    HW2 1923   2.878   2.929   2.910 -1.8706  1.5162 -1.9579
  642SOL     OW 1924   2.937   0.862   1.408 -0.3096 -0.5062 -0.1752
  642SOL    HW1 1925   2.880   0.901   1.329 -0.4259 -3.0381 -3.6499
  642SOL    HW2 1926   2.869   0.816   1.468  0.2814 -1.7821  0.2047
  643SOL     OW 1927   1.101   1.801   2.122  0.2583 -0.2538  0.1186
  643SOL    HW1 1928   1.017   1.806   2.065  1.5560 -1.9483 -0.0482
  643SOL    HW2 1929   1.167   1.873   2.099 -2.4210  1.8531 -1.9250
  644SOL     OW 1930   1.841   2.180   0.642 -0.0187 -0.1600  0.5865
  644SOL    HW1 1931   1.797   2.205   0.726  0.7975 -1.2558 -0.6089
  644SOL    HW2 1932   1.923   2.237   0.625  3.0569 -1.8842  2.0072
  645SOL     OW 1933   1.889   1.935   1.033  0.0018  0.4707  0.2462
  645SOL    HW1 1934   1.907   1.916   0.932  0.5873 -1.4029 -2.4736
  645SOL    HW2 1935   1.834   1.856   1.075 -2.3015 -2.1291  0.9751
  646SOL     OW 1936   0.964   2.537   3.056 -0.6346 -0.5758  0.1344
  646SOL    HW1 1937   1.014   2.594   2.981 -0.4053 -0.8001  1.3590
  646SOL    HW2 1938   1.016   2.453   3.088 -0.7735 -0.9880  1.0011
  647SOL     OW 1939   0.461   2.739   1.827  0.7324  0.1513 -0.0345
  647SOL    HW1 1940   0.452   2.839   1.842  0.3572 -3.6166 -1.1899
  647SOL    HW2 1941   0.482   2.705   1.734 -1.3505  0.9054  0.8577
  648SOL     OW 1942   1.688   0.392   1.314 -0.1156 -0.4411 -0.0521
  648SOL    HW1 1943   1.664   0.441   1.231  1.2521  2.1236  1.2152
  648SOL    HW2 1944   1.605   0.382   1.377 -1.2048  0.2388  2.1904
  649SOL     OW 1945   1.557   2.150   0.227 -0.2132  0.0808 -0.1020
  649SOL    HW1 1946   1.556   2.245   0.260 -2.4701 -0.1277  0.0638
  649SOL    HW2 1947   1.606   2.142   0.138 -0.6744  0.1322 -2.3617
  650SOL     OW 1948   1.993   1.640   1.912 -0.4432  0.6560  0.4852
  650SOL    HW1 1949   2.016   1.574   1.989  0.2830 -1.2036  0.5916
  650SOL    HW2 1950   1.920   1.609   1.850 -0.7969 -1.5783  0.1758
  651SOL     OW 1951   1.413   2.407   0.068  0.0637  0.3274 -0.1915
  651SOL    HW1 1952   1.400   2.381   3.064  1.6290  2.4173  0.2162
  651SOL    HW2 1953   1.406   2.510   0.070 -1.2361  0.3692 -0.1417
  652SOL     OW 1954   0.406   2.360   0.304  0.1491  0.0435  0.2627
  652SOL    HW1 1955   0.319   2.310   0.299  1.4462 -0.6334  1.4464
  652SOL    HW2 1956   0.404   2.449   0.255  0.3131 -0.1331 -1.6000
  653SOL     OW 1957   2.413   2.108   1.350  0.3370 -0.1248  0.5808
  653SOL    HW1 1958   2.403   2.181   1.279  1.0428  1.1850  0.5385
  653SOL    HW2 1959   2.348   2.123   1.428  0.4526  1.0137 -1.8462
  654SOL     OW 1960   2.862   2.649   1.462 -0.1250  0.3138  0.0327
  654SOL    HW1 1961   2.806   2.732   1.446 -2.1761 -3.4063  0.4926
  654SOL    HW2 1962   2.828   2.565   1.411  1.6027  0.7360 -0.5808
  655SOL     OW 1963   0.078   2.138   1.237  0.1194  0.6139  0.4424
  655SOL    HW1 1964   0.058   2.117   1.334 -0.0031 -0.4409  0.5188
  655SOL    HW2 1965   0.166   2.086   1.214 -0.2699 -0.4414 -0.0345
  656SOL     OW 1966   0.004   2.755   2.303 -0.1341  0.2762  0.8754
  656SOL    HW1 1967   3.089   2.818   2.226  0.8141 -1.3121 -0.2446
  656SOL    HW2 1968   0.100   2.762   2.329  0.1470  0.1790  0.4658
  657SOL     OW 1969   3.015   1.157   3.006 -0.9518  0.1269 -0.1256
  657SOL    HW1 1970   2.936   1.091   3.024 -2.1231 -2.1159  1.4432
  657SOL    HW2 1971   2.984   1.248   2.977 -1.5950 -2.0840  0.9232
  658SOL     OW 1972   1.795   1.702   0.668 -0.1879 -0.5783  0.0703
  658SOL    HW1 1973   1.844   1.785   0.704 -1.8577 -0.9699  0.5151
  658SOL    HW2 1974   1.745   1.666   0.748 -0.5854  0.0258 -1.5924
  659SOL     OW 1975   1.389   0.605   1.135 -0.2091 -0.1433  0.4894
  659SOL    HW1 1976   1.328   0.669   1.082 -1.9254 -1.1948 -1.8183
  659SOL    HW2 1977   1.397   0.517   1.083 -1.1179  0.6600 -2.5740
  660SOL     OW 1978   1.757   1.522   3.022  0.0356 -0.1181 -0.1940
  660SOL    HW1 1979   1.700   1.441   3.048 -0.5338  1.3671 -0.6352
  660SOL    HW2 1980   1.757   1.532   2.917 -0.2341  0.7513 -1.2359
  661SOL     OW 1981   0.122   2.227   0.368 -0.5214 -0.5495 -0.4957
  661SOL    HW1 1982   0.191   2.194   0.441  0.7112  0.0042 -1.2031
  661SOL    HW2 1983   0.075   2.313   0.401  1.8699  1.8584  1.5683
  662SOL     OW 1984   0.216   0.971   2.144  0.1843 -0.0225 -0.0431
  662SOL    HW1 1985   0.203   0.946   2.245 -2.2538 -0.3393  0.1746
  662SOL    HW2 1986   0.315   1.014   2.129  2.3442  0.9138  0.4374
  663SOL     OW 1987   1.853   1.279   0.796  0.1487 -0.4788 -0.1383
  663SOL    HW1 1988   1.879   1.200   0.851  0.3261 -2.9932  1.6429
  663SOL    HW2 1989   1.860   1.366   0.852 -0.8151 -0.7540 -2.1255
  664SOL     OW 1990   0.907   0.709   0.979  0.4803  0.0685 -0.4784
  664SOL    HW1 1991   0.915   0.794   1.036  0.2198  0.1216  2.3513
  664SOL    HW2 1992   0.817   0.659   0.996  0.5098 -1.9207  1.7122
  665SOL     OW 1993   0.964   2.954   3.072  0.9092 -1.0868  0.0450
  665SOL    HW1 1994   1.010   3.027   0.025  1.0036 -1.5774 -1.4879
  665SOL    HW2 1995   1.029   2.881   3.043 -3.6760  1.8222  1.2971
  666SOL     OW 1996   3.001   0.217   2.424 -0.3436  0.1701  0.2657
  666SOL    HW1 1997   0.008   0.218   2.424 -0.4130  1.2568 -1.0913
  666SOL    HW2 1998   2.960   0.279   2.496 -2.3609  1.6729 -0.7583
  667SOL     OW 1999   2.544   1.746   2.147  0.2321  0.4060 -0.4944
  667SOL    HW1 2000   2.578   1.839   2.168 -1.6658  1.1278  2.4948
  667SOL    HW2 2001   2.477   1.712   2.217 -0.5889 -0.9848  2.9874
  668SOL     OW 2002   0.574   1.374   2.675  0.0524  0.2298 -0.8640
  668SOL    HW1 2003   0.600   1.326   2.760 -0.5460 -1.1845 -1.1808
  668SOL    HW2 2004   0.575   1.303   2.601  1.6958 -2.4497  2.2128
  669SOL     OW 2005   2.273   2.507   2.749  0.4694  0.1114 -0.0339
  669SOL    HW1 2006   2.210   2.462   2.683  1.8744  1.8716  0.8546
  669SOL    HW2 2007   2.309   2.440   2.816 -0.4267 -0.0874  2.8379
  670SOL     OW 2008   2.285   1.088   2.508  0.7773  0.0833 -0.1149
  670SOL    HW1 2009   2.375   1.040   2.505  2.0013 -2.6497 -2.2528
  670SOL    HW2 2010   2.297   1.184   2.477 -1.0437  1.4801  0.4492
  671SOL     OW 2011   2.488   1.362   3.045  0.8270 -0.3253  0.5902
  671SOL    HW1 2012   2.460   1.263   3.056 -2.0549  0.1734 -0.3252
  671SOL    HW2 2013   2.586   1.374   3.079 -1.7710 -0.8717  0.9613
  672SOL     OW 2014   2.476   1.075   2.121 -0.0242 -0.4719  0.7316
  672SOL    HW1 2015   2.398   1.022   2.163  1.0511 -1.4063  1.0663
  672SOL    HW2 2016   2.464   1.083   2.020  1.2530  0.2914 -0.1387
  673SOL     OW 2017   2.567   0.923   1.457  0.1659  0.4594  0.6628
  673SOL    HW1 2018   2.648   0.949   1.398  3.1631  0.2412 -0.4484
  673SOL    HW2 2019   2.597   0.896   1.551  0.3329 -0.9699  0.5447
  674SOL     OW 2020   1.913   1.907   1.937 -0.6013 -0.1086 -0.0975
  674SOL    HW1 2021   1.943   1.812   1.931  1.3140 -1.1651  2.2636
  674SOL    HW2 2022   1.907   1.951   1.844 -1.1495  0.2956 -0.6802
  675SOL     OW 2023   0.338   0.628   0.936 -0.5245 -0.0702 -0.1574
  675SOL    HW1 2024   0.360   0.694   0.864  2.0852 -2.8239  0.4797
  675SOL    HW2 2025   0.348   0.533   0.894  0.2987  0.8326 -1.0657
  676SOL     OW 2026   2.002   0.993   1.138  0.5209  0.2284 -0.3251
  676SOL    HW1 2027   1.997   1.071   1.201  2.6373 -1.2106  2.1240
  676SOL    HW2 2028   2.070   0.924   1.168 -0.9849 -1.2740  1.0698
  677SOL     OW 2029   2.369   1.489   2.267  0.3775 -0.4511 -0.2074
  677SOL    HW1 2030   2.426   1.532   2.339  1.2281 -0.2486 -0.9095
  677SOL    HW2 2031   2.304   1.563   2.236  0.4989 -0.0781  1.2324
  678SOL     OW 2032   0.037   1.717   0.730 -0.0277  0.4341  0.5296
  678SOL    HW1 2033   0.053   1.781   0.806 -0.0150  0.3462  1.5672
  678SOL    HW2 2034   3.036   1.698   0.726  2.7556 -0.1330  0.5168
  679SOL     OW 2035   3.037   2.717   0.485 -0.5124  0.3685 -0.2707
  679SOL    HW1 2036   2.940   2.737   0.458  1.9807  0.5905 -0.8881
  679SOL    HW2 2037   3.083   2.801   0.518  1.1472 -2.6322  0.2377
  680SOL     OW 2038   0.111   2.538   1.251 -0.1899  0.1856  0.0040
  680SOL    HW1 2039   0.156   2.494   1.334  2.2237  1.2137  1.2548
  680SOL    HW2 2040   0.027   2.485   1.225 -1.1750 -3.1511  0.8679
  681SOL     OW 2041   0.483   1.248   1.177 -0.0642  0.0911 -0.1533
  681SOL    HW1 2042   0.580   1.208   1.174  1.7926  0.6706  1.7692
  681SOL    HW2 2043   0.440   1.212   1.260  0.8279 -0.9467  2.1791
  682SOL     OW 2044   1.770   2.660   1.035  0.2367  0.5691 -0.0721
  682SOL    HW1 2045   1.850   2.601   1.020 -0.3848  1.2173  3.2359
  682SOL    HW2 2046   1.799   2.759   1.046  1.5749  3.1745  1.6260
  683SOL     OW 2047   2.364   1.228   1.158 -0.1986  0.4643 -0.2426
  683SOL    HW1 2048   2.359   1.292   1.080 -0.5328  0.6816 -1.9693
  683SOL    HW2 2049   2.407   1.134   1.142 -1.7433  1.0323  2.4433
  684SOL     OW 2050   0.714   2.070   1.928  0.6562  0.3973  0.0833
  684SOL    HW1 2051   0.721   2.161   1.891 -0.1805 -0.2297  1.2566
  684SOL    HW2 2052   0.621   2.030   1.913  1.7805 -1.1708 -0.0717
  685SOL     OW 2053   2.257   1.606   0.242 -0.0715  0.7709  0.1385
  685SOL    HW1 2054   2.270   1.678   0.179  1.1110 -1.6096  2.0705
  685SOL    HW2 2055   2.162   1.593   0.274 -1.8472  0.2093 -3.1752
  686SOL     OW 2056   3.044   0.830   0.420  0.8668  0.2159  0.3943
  686SOL    HW1 2057   3.057   0.881   0.334  0.2936 -0.9249  3.0163
  686SOL    HW2 2058   2.942   0.794   0.413 -2.1534 -1.9803 -1.2171
  687SOL     OW 2059   0.921   2.882   0.364 -0.4950  0.2446  0.0401
  687SOL    HW1 2060   0.977   2.866   0.449  2.6655 -0.6014  1.5206
  687SOL    HW2 2061   0.954   2.823   0.288  1.2346 -1.3373 -2.1822
  688SOL     OW 2062   1.741   1.817   2.300 -0.7795  0.0232 -0.0881
  688SOL    HW1 2063   1.749   1.720   2.307  0.6669  3.1210  1.6970
  688SOL    HW2 2064   1.699   1.842   2.210 -1.5233 -1.4806  2.3781
  689SOL     OW 2065   2.680   0.995   2.308 -0.6760  0.4103  0.5452
  689SOL    HW1 2066   2.650   1.014   2.213  0.7656 -2.1844  2.0802
  689SOL    HW2 2067   2.771   1.027   2.330 -0.4335 -3.0519 -0.2072
  690SOL     OW 2068   1.647   0.532   0.947  0.4962  0.2668 -0.2116
  690SOL    HW1 2069   1.575   0.469   0.991 -2.2528 -2.0106 -1.4776
  690SOL    HW2 2070   1.689   0.486   0.865 -1.3871 -1.4992 -0.3219
  691SOL     OW 2071   1.050   1.623   1.307  0.2448 -0.2609 -0.1629
  691SOL    HW1 2072   1.097   1.534   1.285  0.2058  2.3501  0.0388
  691SOL    HW2 2073   0.958   1.628   1.268 -0.2565  0.1427  1.9956
  692SOL     OW 2074   1.637   0.373   1.857 -0.1443  0.3671 -0.2169
  692SOL    HW1 2075   1.661   0.472   1.866 -3.4974 -0.4743 -0.3774
  692SOL    HW2 2076   1.648   0.327   1.943 -0.4378  2.5988 -1.0967
  693SOL     OW 2077   0.382   0.961   2.943  0.0159 -0.1798 -0.2863
  693SOL    HW1 2078   0.463   0.954   3.004  1.4130 -2.0780 -0.4268
  693SOL    HW2 2079   0.411   0.950   2.847 -0.1586  1.5905  1.7655
  694SOL     OW 2080   2.262   2.479   0.754  0.1197 -0.4597  0.8006
  694SOL    HW1 2081   2.214   2.558   0.798  2.1952 -0.3278 -2.6093
  694SOL    HW2 2082   2.193   2.411   0.722  0.8096  1.0084  2.1591
  695SOL     OW 2083   1.574   1.358   2.555 -0.4791  0.0669 -0.3539
  695SOL    HW1 2084   1.632   1.344   2.637  0.8091 -0.3447  0.4596
  695SOL    HW2 2085   1.596   1.295   2.481 -1.6724  1.0678 -0.6899
  696SOL     OW 2086   1.194   0.224   1.462  0.0839  0.1202  0.5044
  696SOL    HW1 2087   1.130   0.282   1.410 -4.0168 -0.8011 -0.3628
  696SOL    HW2 2088   1.198   0.131   1.424  1.4163  1.5361 -1.0560
  697SOL     OW 2089   1.351   0.234   1.883  0.4986 -0.0926 -0.1618
  697SOL    HW1 2090   1.295   0.316   1.860  0.7314  0.1447  0.6671
  697SOL    HW2 2091   1.442   0.236   1.839  1.1769 -3.1345  0.9732
  698SOL     OW 2092   1.759   1.551   2.347  0.0450 -0.4492  0.0908
  698SOL    HW1 2093   1.731   1.497   2.268 -4.5567  0.7196  0.6221
  698SOL    HW2 2094   1.696   1.551   2.422  3.3873  2.1655 -0.0268
  699SOL     OW 2095   1.606   1.127   1.275  0.1446  0.2877  0.2870
  699SOL    HW1 2096   1.683   1.086   1.223 -0.1315 -1.3386  2.1925
  699SOL    HW2 2097   1.537   1.164   1.212 -0.9921  0.7132  0.8569
  700SOL     OW 2098   1.593   0.065   0.211  0.5553  0.4610 -0.3308
  700SOL    HW1 2099   1.604   0.085   0.309  1.5852 -1.3427 -1.9451
  700SOL    HW2 2100   1.507   0.010   0.203 -1.4680  1.4701  1.0412
  701SOL     OW 2101   0.276   2.973   1.532 -0.3322 -0.9383 -0.0758
  701SOL    HW1 2102   0.242   2.986   1.434  0.9739  1.4991  0.3041
  701SOL    HW2 2103   0.243   2.886   1.571  0.5894  0.0648  3.8470
  702SOL     OW 2104   1.440   2.761   1.040  0.1958 -0.4780 -0.2489
  702SOL    HW1 2105   1.512   2.707   0.987 -1.4331  0.5472  1.1068
  702SOL    HW2 2106   1.375   2.804   0.977  0.7799  0.1246  0.1186
  703SOL     OW 2107   2.434   0.152   2.001  0.0595  0.2612  0.2054
  703SOL    HW1 2108   2.364   0.171   2.074 -1.9523 -0.2736  1.9532
  703SOL    HW2 2109   2.511   0.218   2.015  1.3016 -0.9151 -1.4195
  704SOL     OW 2110   1.283   1.745   1.300 -0.4352  0.3219 -0.1209
  704SOL    HW1 2111   1.186   1.719   1.298  2.4215  1.5723  2.5881
  704SOL    HW2 2112   1.300   1.846   1.288 -1.8385  2.4763 -1.8499
  705SOL     OW 2113   2.885   1.420   2.032  0.2607  0.1607 -0.7521
  705SOL    HW1 2114   2.851   1.513   2.031 -0.6541 -2.5398 -0.9327
  705SOL    HW2 2115   2.822   1.356   2.082 -0.2136  2.4954 -0.0944
  706SOL     OW 2116   1.380   0.020   0.704  0.0415  0.4830 -0.5628
  706SOL    HW1 2117   1.443   0.012   0.621 -1.1377  2.3316  0.0380
  706SOL    HW2 2118   1.378   0.118   0.738  0.3523 -0.7204  2.4272
  707SOL     OW 2119   1.100   2.551   2.544 -0.4739 -0.4279 -0.6566
  707SOL    HW1 2120   1.125   2.525   2.449  1.9456 -0.4464  0.3567
  707SOL    HW2 2121   1.098   2.468   2.601  1.5471  1.8328 -0.8603
  708SOL     OW 2122   0.246   2.445   1.463  0.5061 -0.2342 -0.1173
  708SOL    HW1 2123   0.216   2.361   1.505  2.3536  1.1605 -0.0392
  708SOL    HW2 2124   0.343   2.441   1.440  0.8603  0.9299  2.4672
  709SOL     OW 2125   2.008   0.577   1.963 -0.0690  0.0161  0.1182
  709SOL    HW1 2126   1.905   0.573   1.978  1.5364 -1.7951  2.0576
  709SOL    HW2 2127   2.034   0.536   1.874 -0.1421 -1.5035 -1.3562
  710SOL     OW 2128   2.957   0.353   1.642 -0.0299 -0.3185  0.1045
  710SOL    HW1 2129   2.914   0.414   1.573  2.6728 -0.3254 -0.3923
  710SOL    HW2 2130   3.059   0.346   1.627  2.7182 -1.2574 -0.3325
  711SOL     OW 2131   0.052   2.486   0.457 -0.0205  0.0775 -0.0855
  711SOL    HW1 2132   0.059   2.434   0.545  2.0167  1.3734  0.7967
  711SOL    HW2 2133   3.092   2.572   0.476 -0.6134  1.7754  4.2313
  712SOL     OW 2134   0.325   2.300   2.598 -0.5946  0.5386 -0.0399
  712SOL    HW1 2135   0.395   2.367   2.566  1.5653  0.5182  0.9512
  712SOL    HW2 2136   0.271   2.347   2.669  0.9631  0.3178 -0.3712
  713SOL     OW 2137   1.943   0.848   0.203 -0.8728 -0.3588  0.2839
  713SOL    HW1 2138   1.899   0.936   0.243  0.3212  0.0019  1.0875
  713SOL    HW2 2139   1.896   0.830   0.116  3.4291  0.8160  1.5102
  714SOL     OW 2140   1.350   2.013   0.728 -0.2471  0.1738 -0.0363
  714SOL    HW1 2141   1.410   1.959   0.662  1.6196 -0.5139  1.8909
  714SOL    HW2 2142   1.402   2.087   0.779  2.3902  0.0049  0.3601
  715SOL     OW 2143   3.042   0.181   0.367  0.1403  0.1655 -0.9965
  715SOL    HW1 2144   2.950   0.137   0.367 -1.4344 -0.2819 -1.8824
  715SOL    HW2 2145   3.080   0.175   0.459 -2.2284 -0.2610 -2.0307
  716SOL     OW 2146   0.682   0.134   2.273  0.5433  0.0031 -0.5183
  716SOL    HW1 2147   0.662   0.212   2.333 -0.7419  2.4371 -3.3131
  716SOL    HW2 2148   0.606   0.069   2.266 -2.1268 -0.1586  0.3715
  717SOL     OW 2149   3.068   0.448   3.013  0.3490 -0.4184 -0.1455
  717SOL    HW1 2150   0.041   0.386   2.981 -3.7142  3.5755 -1.5653
  717SOL    HW2 2151   2.990   0.456   2.948 -0.9861  0.3394 -1.1044
  718SOL     OW 2152   1.124   0.404   0.409  0.0249 -0.2994  0.3874
  718SOL    HW1 2153   1.137   0.464   0.489 -1.0577 -1.6647 -0.2531
  718SOL    HW2 2154   1.183   0.322   0.403 -3.1958 -0.2559 -0.0990
  719SOL     OW 2155   2.679   2.371   2.604 -0.0638 -0.0974 -0.0469
  719SOL    HW1 2156   2.614   2.427   2.546 -2.8196  1.2911 -1.1644
  719SOL    HW2 2157   2.668   2.270   2.591 -0.0825 -0.0024 -0.6436
  720SOL     OW 2158   1.736   0.754   1.701  0.2423  0.1189 -0.6045
  720SOL    HW1 2159   1.790   0.768   1.785 -1.9908 -0.5041  0.6253
  720SOL    HW2 2160   1.638   0.787   1.712 -3.1194 -0.6920  1.9772
  721SOL     OW 2161   2.733   0.379   1.033  0.3633  0.0903 -0.1491
  721SOL    HW1 2162   2.636   0.396   1.029  3.1726  0.9729 -2.6908
  721SOL    HW2 2163   2.756   0.305   0.967 -0.6484 -0.4083 -0.4369
  722SOL     OW 2164   1.398   2.231   2.583  0.7904 -0.1485 -0.1977
  722SOL    HW1 2165   1.477   2.272   2.536 -0.7983 -1.0396  1.5011
  722SOL    HW2 2166   1.420   2.139   2.624  0.2416 -0.3934 -1.3850
  723SOL     OW 2167   0.884   0.251   0.845 -0.1059  0.1283 -0.2407
  723SOL    HW1 2168   0.857   0.305   0.761  2.7839  0.1472 -3.6928
  723SOL    HW2 2169   0.954   0.306   0.900 -0.9300  2.5476  3.4250
  724SOL     OW 2170   1.001   2.070   2.398 -0.1754  0.2016  0.0118
  724SOL    HW1 2171   0.908   2.065   2.354  0.6705 -1.1898 -0.9994
  724SOL    HW2 2172   1.044   1.974   2.405 -0.7584 -1.2348  0.9336
  725SOL     OW 2173   0.199   0.851   1.057  0.5526 -0.3023 -0.1056
  725SOL    HW1 2174   0.231   0.929   1.003 -0.1863 -0.4843 -2.1671
  725SOL    HW2 2175   0.247   0.768   1.028 -0.9208  2.9523 -0.5431
  726SOL     OW 2176   1.847   0.193   0.619  0.7582  0.4203  0.0460
  726SOL    HW1 2177   1.817   0.287   0.651  0.5119 -0.9460 -0.0112
  726SOL    HW2 2178   1.926   0.151   0.669  0.7433 -0.8544  0.0517
  727SOL     OW 2179   2.001   1.001   2.125 -0.1349  0.0002  0.5221
  727SOL    HW1 2180   1.991   1.086   2.071  0.2376  2.8569 -1.1092
  727SOL    HW2 2181   2.020   1.021   2.224 -2.3670 -1.0098  0.7703
  728SOL     OW 2182   1.818   2.793   1.648 -0.4099  0.3285 -0.4796
  728SOL    HW1 2183   1.797   2.877   1.703  0.3283  2.2131  0.1322
  728SOL    HW2 2184   1.876   2.726   1.691 -0.0406 -0.4796  1.9108
  729SOL     OW 2185   1.465   0.346   1.478  0.0778 -0.1103 -0.6282
  729SOL    HW1 2186   1.363   0.327   1.480 -1.4179  0.4214  1.5109
  729SOL    HW2 2187   1.516   0.279   1.535 -0.6222  0.0270  2.0947
  730SOL     OW 2188   0.872   1.785   1.466  0.0836 -0.8412 -0.2801
  730SOL    HW1 2189   0.865   1.889   1.479  1.0448  0.0384  1.4626
  730SOL    HW2 2190   0.934   1.762   1.389 -0.7687  0.6689 -1.0472
  731SOL     OW 2191   0.288   0.273   0.072  0.1956  0.5451 -0.2227
  731SOL    HW1 2192   0.254   0.294   0.166  1.5467 -0.3208  0.9250
  731SOL    HW2 2193   0.255   0.175   0.050 -0.7363 -3.1066 -0.0805
  732SOL     OW 2194   0.414   0.760   0.266  0.3838  0.3243 -0.1329
  732SOL    HW1 2195   0.406   0.685   0.198  1.3768 -1.8614 -1.3952
  732SOL    HW2 2196   0.412   0.847   0.214  1.2767  0.5313 -0.2292
  733SOL     OW 2197   1.472   1.638   1.850  0.5401  0.1799  0.0952
  733SOL    HW1 2198   1.537   1.628   1.927 -1.8906  0.1818  0.1623
  733SOL    HW2 2199   1.457   1.543   1.810 -2.8462 -3.1170  2.1838
  734SOL     OW 2200   3.039   2.487   2.241  0.1841  0.0523  0.5136
  734SOL    HW1 2201   3.059   2.488   2.140  0.3424 -0.2996  1.5548
  734SOL    HW2 2202   3.058   2.579   2.282  1.3760 -1.5926 -1.1939
  735SOL     OW 2203   1.093   2.767   0.835  0.1310  0.0154 -0.2132
  735SOL    HW1 2204   1.120   2.688   0.898  0.3292 -0.8637  0.3400
  735SOL    HW2 2205   1.153   2.851   0.850  0.8669 -0.5096 -0.0528
  736SOL     OW 2206   1.143   0.892   2.743 -0.3074  0.1392 -0.2707
  736SOL    HW1 2207   1.219   0.826   2.729  0.5024 -2.5095  1.2132
  736SOL    HW2 2208   1.167   0.978   2.698 -1.0900 -2.2934  3.5312
  737SOL     OW 2209   0.002   0.963   0.182 -0.8470 -0.1092 -0.2591
  737SOL    HW1 2210   0.049   0.917   0.105  1.6857 -0.8175 -2.0422
  737SOL    HW2 2211   3.001   0.945   0.178  0.7401 -1.3665 -2.7935
  738SOL     OW 2212   0.196   2.712   1.564 -0.1638 -0.3561 -0.9181
  738SOL    HW1 2213   0.235   2.618   1.549 -1.5534 -1.4080 -2.5429
  738SOL    HW2 2214   0.126   2.722   1.498  0.1198  0.4395  1.5046
  739SOL     OW 2215   1.267   2.796   0.241  0.3432  0.4590 -0.1266
  739SOL    HW1 2216   1.301   2.750   0.329  4.0151 -0.7425  3.4631
  739SOL    HW2 2217   1.175   2.753   0.218 -1.6411  0.6562 -1.0589
  740SOL     OW 2218   1.747   2.943   1.415 -0.4876 -0.6046 -0.0906
  740SOL    HW1 2219   1.651   2.931   1.380 -0.4387  0.9091 -0.7492
  740SOL    HW2 2220   1.773   2.874   1.486  1.7058 -0.8891 -0.5292
  741SOL     OW 2221   2.133   0.471   0.706 -0.0087  0.3413  0.3288
  741SOL    HW1 2222   2.179   0.483   0.798 -0.7625  0.8959  0.0347
  741SOL    HW2 2223   2.125   0.369   0.678 -1.5553 -1.1892 -2.3070
  742SOL     OW 2224   1.173   2.463   1.896 -0.2091  0.5939 -0.4515
  742SOL    HW1 2225   1.095   2.523   1.917  0.0339 -1.1119  0.6398
  742SOL    HW2 2226   1.214   2.414   1.977  1.7081  1.8381  0.2880
  743SOL     OW 2227   2.165   0.821   1.885 -0.7333  0.0542  0.2997
  743SOL    HW1 2228   2.213   0.780   1.802  0.7805 -0.4914 -0.6335
  743SOL    HW2 2229   2.114   0.747   1.928 -1.1977  0.5564 -1.1765
  744SOL     OW 2230   2.191   0.484   1.050 -0.6886 -0.1425  0.3288
  744SOL    HW1 2231   2.156   0.575   1.029  2.5444 -1.6948 -0.5347
  744SOL    HW2 2232   2.165   0.459   1.146  2.4567  1.2852  0.0319
  745SOL     OW 2233   2.038   1.256   1.732  0.0153  0.0166 -0.2510
  745SOL    HW1 2234   2.068   1.350   1.698 -0.7306  0.8557 -0.6017
  745SOL    HW2 2235   2.010   1.194   1.655 -2.4788 -1.4625 -1.6466
  746SOL     OW 2236   1.328   1.382   0.634  0.6011  0.1738  0.0368
  746SOL    HW1 2237   1.341   1.418   0.726 -0.1447 -0.6469 -0.4462
  746SOL    HW2 2238   1.315   1.279   0.635 -0.0420  2.2617 -1.0778
  747SOL     OW 2239   2.109   1.328   1.123 -0.6018 -0.1702 -0.0126
  747SOL    HW1 2240   2.037   1.277   1.175 -1.1874  0.3213  1.0929
  747SOL    HW2 2241   2.206   1.300   1.149  0.1047 -0.9155  0.8022
  748SOL     OW 2242   0.004   2.963   0.229  0.5903  0.1874 -0.0806
  748SOL    HW1 2243   3.090   2.962   0.331  2.1168 -0.0318  0.3171
  748SOL    HW2 2244   0.011   2.868   0.189 -4.1076  0.9371 -0.6939
  749SOL     OW 2245   0.197   0.573   2.196  0.4262  0.1144  0.2669
  749SOL    HW1 2246   0.127   0.606   2.267 -1.1433 -3.6796  0.9221
  749SOL    HW2 2247   0.152   0.561   2.106  3.4217  1.6973 -1.1098
  750SOL     OW 2248   1.772   2.891   1.964 -0.0893  0.0601  0.7041
  750SOL    HW1 2249   1.697   2.936   2.011  2.2709 -1.1005  0.6669
  750SOL    HW2 2250   1.808   2.953   1.889 -1.7034 -0.2759 -0.2774
  751SOL     OW 2251   2.588   0.552   0.385  0.0199 -0.2432  0.8228
  751SOL    HW1 2252   2.485   0.545   0.374 -2.0990 -0.0352  0.9270
  751SOL    HW2 2253   2.631   0.477   0.431 -0.1163  1.4385 -0.7014
  752SOL     OW 2254   0.205   2.222   0.933  0.0711 -0.2099  0.2789
  752SOL    HW1 2255   0.111   2.257   0.930  0.1295  2.7276 -1.3001
  752SOL    HW2 2256   0.228   2.248   1.028 -3.1426  1.6772 -0.6225
  753SOL     OW 2257   0.861   0.358   1.197 -0.5715 -0.5800  0.5319
  753SOL    HW1 2258   0.760   0.361   1.213 -1.2323  1.1482 -0.0770
  753SOL    HW2 2259   0.897   0.258   1.199 -0.1933 -3.6247  0.4105
  754SOL     OW 2260   0.928   2.893   2.255 -0.3518 -0.7037  0.0687
  754SOL    HW1 2261   0.879   2.897   2.166 -1.3838  1.8182 -0.2417
  754SOL    HW2 2262   1.005   2.828   2.248 -1.2277  1.3328 -0.2255
  755SOL     OW 2263   2.122   1.064   0.330 -0.2241 -0.4745 -0.3861
  755SOL    HW1 2264   2.155   1.019   0.414  1.1352  2.2277  1.6693
  755SOL    HW2 2265   2.156   1.027   0.243 -0.1138 -1.0622  0.9516
  756SOL     OW 2266   2.323   2.013   2.589 -0.4032 -0.4758 -0.4675
  756SOL    HW1 2267   2.378   2.002   2.675 -0.8360  0.5310 -0.3803
  756SOL    HW2 2268   2.380   2.056   2.514  0.5089  1.3615  0.4434
  757SOL     OW 2269   1.518   0.316   1.023 -0.0001  0.3648  0.5576
  757SOL    HW1 2270   1.420   0.297   1.049 -0.6443  2.2377 -2.7975
  757SOL    HW2 2271   1.550   0.244   0.962 -0.9882  1.0784 -0.6129
  758SOL     OW 2272   1.579   2.575   0.866 -0.5456  0.7138 -0.1364
  758SOL    HW1 2273   1.664   2.597   0.923 -0.9911 -0.5672  1.3458
  758SOL    HW2 2274   1.554   2.478   0.881 -0.9512  0.5214  0.1286
  759SOL     OW 2275   2.411   0.630   1.323 -0.0040 -0.1602 -0.3530
  759SOL    HW1 2276   2.488   0.658   1.262 -0.2574  0.0020 -0.5343
  759SOL    HW2 2277   2.412   0.680   1.409  0.8573  1.1263 -4.0453
  760SOL     OW 2278   2.511   1.021   1.098 -0.1533 -0.4213 -0.2814
  760SOL    HW1 2279   2.592   1.028   1.162 -3.2331  1.2384  1.4343
  760SOL    HW2 2280   2.464   0.934   1.102  1.0176  2.0970  0.2935
  761SOL     OW 2281   0.252   0.454   0.550  0.0979  0.5360 -0.0566
  761SOL    HW1 2282   0.347   0.436   0.526 -2.6983  0.6141  1.4274
  761SOL    HW2 2283   0.220   0.549   0.528 -1.1880  1.7692  0.5267
  762SOL     OW 2284   1.793   1.864   1.476 -0.0346  0.0985 -0.2964
  762SOL    HW1 2285   1.876   1.807   1.448  0.4719  1.4462  0.9010
  762SOL    HW2 2286   1.721   1.815   1.535  0.9873 -1.9451 -0.4456
  763SOL     OW 2287   1.148   1.314   1.769  0.4028  0.1889 -0.2887
  763SOL    HW1 2288   1.064   1.269   1.811 -0.0814  1.6270 -0.3965
  763SOL    HW2 2289   1.140   1.414   1.791  1.9188  0.4422  0.5775
  764SOL     OW 2290   3.085   1.555   2.339  0.0072 -0.6059  0.2694
  764SOL    HW1 2291   3.049   1.564   2.244 -1.6029  1.9802  0.9781
  764SOL    HW2 2292   0.032   1.639   2.382  0.5052  2.7833 -0.1570
  765SOL     OW 2293   1.502   2.508   1.431  0.1762 -0.0495 -0.3176
  765SOL    HW1 2294   1.589   2.502   1.383 -5.4683 -3.3307  0.8581
  765SOL    HW2 2295   1.445   2.586   1.392 -2.6806  1.6665  1.7355
  766SOL     OW 2296   3.047   2.611   2.743  0.3016 -0.5783  0.4523
  766SOL    HW1 2297   2.998   2.676   2.680 -0.7153  1.3689  0.1101
  766SOL    HW2 2298   3.008   2.516   2.735  0.6761  1.3385 -1.3976
  767SOL     OW 2299   1.266   0.867   2.363  0.1094 -0.5994  0.3220
  767SOL    HW1 2300   1.257   0.973   2.362 -0.5119  1.1150  2.5024
  767SOL    HW2 2301   1.178   0.823   2.342  0.5323  1.4187  0.9270
  768SOL     OW 2302   1.259   2.106   0.234  0.4445 -0.0440 -0.2291
  768SOL    HW1 2303   1.356   2.110   0.214 -0.8881  0.2154  3.0451
  768SOL    HW2 2304   1.214   2.024   0.196 -1.6918  0.3714 -0.4113
  769SOL     OW 2305   0.350   2.562   1.102  0.6498  0.1319 -0.6209
  769SOL    HW1 2306   0.260   2.537   1.145  1.2674 -1.5141  0.1174
  769SOL    HW2 2307   0.352   2.660   1.085 -0.5152 -0.4384  0.0788
  770SOL     OW 2308   1.408   0.980   2.922  0.1205  0.2067 -0.3796
  770SOL    HW1 2309   1.372   1.074   2.933  1.0420 -1.8951 -0.8682
  770SOL    HW2 2310   1.488   0.979   2.858  0.3180  0.0515 -0.2953
  771SOL     OW 2311   0.278   2.985   2.183 -0.0681 -0.3199  0.1573
  771SOL    HW1 2312   0.320   3.069   2.217 -3.6600 -3.3355  1.7163
  771SOL    HW2 2313   0.291   2.979   2.087  2.4009  0.3393  1.9690
  772SOL     OW 2314   2.146   3.015   2.186 -0.2674  0.0663 -0.0873
  772SOL    HW1 2315   2.235   3.018   2.231 -0.2022  1.4920  1.2979
  772SOL    HW2 2316   2.099   0.011   2.180 -3.3032  2.2182  0.8075
  773SOL     OW 2317   0.945   1.910   1.932  0.1979  0.5318  0.2499
  773SOL    HW1 2318   1.023   1.954   1.885  3.5369  1.2772 -3.4053
  773SOL    HW2 2319   0.862   1.967   1.933 -0.1534 -1.3301  2.0351
  774SOL     OW 2320   1.411   0.266   2.196 -0.1904 -0.3834 -0.3800
  774SOL    HW1 2321   1.366   0.215   2.117  0.2741 -0.7198 -0.1215
  774SOL    HW2 2322   1.354   0.340   2.237 -0.1810 -0.0080  0.9355
  775SOL     OW 2323   2.135   2.910   0.119 -0.4255 -0.3371 -0.1974
  775SOL    HW1 2324   2.107   2.876   0.025 -0.9149  0.6857 -0.3116
  775SOL    HW2 2325   2.065   2.886   0.192 -1.3109 -0.3198 -0.9472
  776SOL     OW 2326   2.663   0.721   2.312  0.2209 -0.2633  0.0704
  776SOL    HW1 2327   2.753   0.677   2.299 -1.6340 -0.5104 -0.8887
  776SOL    HW2 2328   2.663   0.824   2.292  1.1186  1.2148  0.8087
  777SOL     OW 2329   2.615   2.004   2.186  0.1797 -0.0093  0.3958
  777SOL    HW1 2330   2.551   2.064   2.238  1.7043 -2.9785  1.4146
  777SOL    HW2 2331   2.690   2.057   2.139  0.7715  3.3071 -0.6007
  778SOL     OW 2332   2.046   1.034   2.409 -0.1715  0.2358 -0.5922
  778SOL    HW1 2333   1.999   0.956   2.452  0.7846 -0.5636  1.3107
  778SOL    HW2 2334   2.141   1.062   2.442 -0.0571 -1.4173 -1.5695
  779SOL     OW 2335   2.945   0.256   0.041 -0.4678 -0.3009  0.2283
  779SOL    HW1 2336   2.998   0.330   3.083  1.5344  0.8811  0.6564
  779SOL    HW2 2337   2.962   0.278   0.139  0.2690  0.6140 -1.3963
  780SOL     OW 2338   2.500   0.666   3.043  0.3812  0.3875 -0.1364
  780SOL    HW1 2339   2.532   0.574   3.072  1.6411  1.4351  1.5874
  780SOL    HW2 2340   2.448   0.713   0.023  2.5872 -1.9838 -1.0794
  781SOL     OW 2341   0.099   3.020   1.313  0.1871  0.4616  0.0446
  781SOL    HW1 2342   0.050   3.081   1.245 -2.6276  0.4647 -2.9418
  781SOL    HW2 2343   0.058   2.924   1.311 -0.0479 -0.7021 -0.0073
  782SOL     OW 2344   1.843   2.593   0.553  0.8855 -0.0733  0.8098
  782SOL    HW1 2345   1.831   2.585   0.448  1.0130 -0.3829 -3.1067
  782SOL    HW2 2346   1.777   2.657   0.595 -1.8563 -0.2610 -0.0200
  783SOL     OW 2347   0.798   1.569   1.198  0.2785 -0.4067  0.2164
  783SOL    HW1 2348   0.704   1.604   1.187  1.1098  0.7847 -1.5124
  783SOL    HW2 2349   0.823   1.512   1.110 -0.9193  1.0750 -2.1827
  784SOL     OW 2350   1.356   0.759   2.659 -0.1587 -0.1092  0.0537
  784SOL    HW1 2351   1.349   0.732   2.564  1.5795  3.1777 -0.5516
  784SOL    HW2 2352   1.441   0.811   2.678 -0.3136 -0.9425  2.6658
  785SOL     OW 2353   2.428   0.377   1.331  0.4941  0.4148 -0.0216
  785SOL    HW1 2354   2.422   0.481   1.323 -1.4023  0.7860  1.0700
  785SOL    HW2 2355   2.345   0.324   1.297 -0.0825 -2.7124  1.6191
  786SOL     OW 2356   1.348   2.714   1.797  0.1315  0.1870 -0.3359
  786SOL    HW1 2357   1.436   2.712   1.849 -1.7419 -1.7403 -1.3017
  786SOL    HW2 2358   1.301   2.626   1.814  1.3494  0.1479 -0.6490
  787SOL     OW 2359   1.635   3.077   1.149 -0.1786  0.1625  0.2627
  787SOL    HW1 2360   1.566   3.040   1.210  1.7723 -0.3924 -0.8678
  787SOL    HW2 2361   1.698   0.044   1.197 -1.3468 -2.5229  2.2912
  788SOL     OW 2362   2.791   1.266   0.397 -0.3732 -0.3444  0.0057
  788SOL    HW1 2363   2.717   1.309   0.453  1.9488 -2.5186  0.6083
  788SOL    HW2 2364   2.858   1.224   0.465  1.3084  0.0324 -0.0962
  789SOL     OW 2365   0.512   2.161   1.578  0.0757 -0.4081 -0.2598
  789SOL    HW1 2366   0.501   2.076   1.518 -0.8354  0.1472  0.0291
  789SOL    HW2 2367   0.497   2.146   1.682  0.3311  1.4381  4.1925
  790SOL     OW 2368   0.632   0.660   2.102  0.4854  0.4039  0.2882
  790SOL    HW1 2369   0.631   0.659   2.206  0.3286  0.0648  2.1062
  790SOL    HW2 2370   0.535   0.673   2.068  1.0722  0.1900 -1.9105
  791SOL     OW 2371   2.164   0.222   0.964 -0.2675  0.3194  0.8069
  791SOL    HW1 2372   2.063   0.199   0.952 -0.2688  0.6654  0.4051
  791SOL    HW2 2373   2.168   0.320   0.981  0.4109 -1.3294 -2.2299
  792SOL     OW 2374   1.144   2.850   1.699  0.5729 -0.1146  0.4886
  792SOL    HW1 2375   1.154   2.949   1.719  0.1647  1.8558  1.2577
  792SOL    HW2 2376   1.230   2.803   1.731 -0.7322  1.1270 -1.0281
  793SOL     OW 2377   0.360   0.115   0.670  0.0474  0.2269 -0.2750
  793SOL    HW1 2378   0.446   0.146   0.625 -0.4329 -1.0166 -0.4936
  793SOL    HW2 2379   0.383   0.035   0.732  2.5384 -1.4382 -1.2123
  794SOL     OW 2380   0.137   1.030   1.740  0.0743 -0.3944  0.0557
  794SOL    HW1 2381   0.062   1.039   1.810 -0.7989 -0.5913  0.2535
  794SOL    HW2 2382   0.095   1.010   1.650 -0.8157  0.7113  1.9763
  795SOL     OW 2383   0.399   2.165   2.228 -0.0419  0.0105  0.0206
  795SOL    HW1 2384   0.335   2.209   2.295  2.6217 -0.5458 -1.0139
  795SOL    HW2 2385   0.483   2.221   2.220 -1.9149  0.2955  0.7912
  796SOL     OW 2386   2.402   0.685   2.123 -0.0974 -0.3984 -0.1907
  796SOL    HW1 2387   2.474   0.668   2.189 -1.1557 -0.5215 -3.3287
  796SOL    HW2 2388   2.431   0.658   2.030  0.4300  1.6289 -1.3041
  797SOL     OW 2389   2.473   2.598   2.553  0.5568  0.4734 -0.3228
  797SOL    HW1 2390   2.406   2.580   2.628 -2.0459  0.3060  1.0278
  797SOL    HW2 2391   2.432   2.675   2.501 -3.1289  0.1070 -1.3323
  798SOL     OW 2392   3.062   2.900   2.078  0.3078 -0.2363 -0.2491
  798SOL    HW1 2393   0.046   2.965   2.085  1.8229 -0.0541  1.0028
  798SOL    HW2 2394   3.043   2.869   1.984  3.3504 -0.5371 -1.7639
  799SOL     OW 2395   0.251   2.485   2.124 -0.3475  0.3205  0.2903
  799SOL    HW1 2396   0.240   2.431   2.212  1.9645 -2.7716  1.2176
  799SOL    HW2 2397   0.178   2.465   2.053 -0.0136 -2.8979 -0.8644
  800SOL     OW 2398   0.005   1.780   0.162 -0.5694 -0.1087  0.1359
  800SOL    HW1 2399   0.017   1.870   0.213  0.5262 -1.3055  0.8052
  800SOL    HW2 2400   0.052   1.707   0.211 -1.9061  3.5365 -1.0160
  801SOL     OW 2401   1.746   1.337   1.411 -0.0650 -0.0304  0.0472
  801SOL    HW1 2402   1.704   1.276   1.343  1.1913  2.3667 -1.5486
  801SOL    HW2 2403   1.716   1.316   1.507 -0.7000 -1.3219 -3.2150
  802SOL     OW 2404   0.082   1.105   0.396 -0.2447 -0.1155 -0.4809
  802SOL    HW1 2405   3.087   1.112   0.442  1.7165 -1.2134  0.1121
  802SOL    HW2 2406   0.071   1.071   0.301  0.3213 -0.0202  1.2255
  803SOL     OW 2407   1.123   1.590   1.769  0.3748 -0.7963  0.0413
  803SOL    HW1 2408   1.031   1.633   1.763  1.2597 -0.7866 -2.4690
  803SOL    HW2 2409   1.183   1.620   1.692  1.1812 -1.1863  0.2515
  804SOL     OW 2410   1.946   1.479   0.960  0.0948 -0.4429 -0.2177
  804SOL    HW1 2411   2.000   1.419   1.024  0.2100 -1.5876  1.1830
  804SOL    HW2 2412   2.003   1.546   0.916 -3.4449  1.9471  0.9197
  805SOL     OW 2413   2.844   1.359   2.851 -0.1847 -0.1300  0.0650
  805SOL    HW1 2414   2.868   1.327   2.758  0.5650  1.0939  1.0454
  805SOL    HW2 2415   2.764   1.422   2.843 -3.4079 -0.4454 -0.5693
  806SOL     OW 2416   0.234   2.548   0.027 -0.1986  0.0487  0.3638
  806SOL    HW1 2417   0.257   2.491   3.042  1.9536 -1.5461 -1.2784
  806SOL    HW2 2418   0.319   2.577   0.074 -1.9716 -0.9551 -0.8824
  807SOL     OW 2419   2.383   1.590   2.928 -0.2737 -0.5434 -0.0274
  807SOL    HW1 2420   2.415   1.513   2.988 -0.5419  1.1779 -0.3128
  807SOL    HW2 2421   2.363   1.671   2.986 -0.3837 -0.9228  0.0187
  808SOL     OW 2422   1.280   2.058   1.272 -0.0838  0.2240  0.3685
  808SOL    HW1 2423   1.207   2.044   1.337 -0.5101  3.7100 -2.8653
  808SOL    HW2 2424   1.353   2.111   1.316 -0.7076  1.2478 -0.1915
  809SOL     OW 2425   2.803   0.743   0.443  0.0832 -0.4121  0.2575
  809SOL    HW1 2426   2.747   0.816   0.489 -1.4308  3.1829  1.6515
  809SOL    HW2 2427   2.740   0.677   0.386 -2.6909 -3.6557 -3.4369
  810SOL     OW 2428   0.929   1.360   0.594  0.0355 -0.3032  0.3652
  810SOL    HW1 2429   0.972   1.312   0.671  0.4024 -2.1877 -0.9503
  810SOL    HW2 2430   0.987   1.434   0.565  1.6007 -1.3239  2.1479
  811SOL     OW 2431   1.710   2.533   1.264  0.2566 -0.1231  0.8940
  811SOL    HW1 2432   1.708   2.587   1.179  0.8910 -0.6250  1.2506
  811SOL    HW2 2433   1.785   2.557   1.331  0.7346 -0.3444 -1.1837
  812SOL     OW 2434   1.530   2.828   1.603 -0.4501 -0.3406 -0.4248
  812SOL    HW1 2435   1.618   2.778   1.606 -3.2338 -1.1386 -2.3274
  812SOL    HW2 2436   1.461   2.788   1.663 -1.4984  1.7234  0.8192
  813SOL     OW 2437   0.721   2.957   1.706  0.0803 -0.2524  0.0917
  813SOL    HW1 2438   0.653   2.939   1.635  0.8674 -1.6500  0.1119
  813SOL    HW2 2439   0.778   2.876   1.725  0.9210  2.7939 -0.3733
  814SOL     OW 2440   1.144   2.710   2.212  0.2541  0.3205 -0.2304
  814SOL    HW1 2441   1.238   2.745   2.228 -0.5427 -1.8952 -1.3074
  814SOL    HW2 2442   1.133   2.617   2.258 -1.3289 -1.5366  0.4422
  815SOL     OW 2443   0.534   0.074   2.696  0.0109  0.5802  0.3643
  815SOL    HW1 2444   0.546   0.004   2.620  0.1016 -3.2109  0.2457
  815SOL    HW2 2445   0.603   0.146   2.689 -1.9055 -1.5898 -0.7727
  816SOL     OW 2446   2.246   0.530   2.782  0.2721 -0.0127  0.0573
  816SOL    HW1 2447   2.253   0.449   2.846  1.0605 -1.3713 -0.6810
  816SOL    HW2 2448   2.215   0.613   2.833  1.3893 -1.8762 -2.1038
  817SOL     OW 2449   2.388   2.648   1.952  0.5546 -0.0265 -0.5379
  817SOL    HW1 2450   2.393   2.581   2.030  0.4762 -1.3162 -2.0224
  817SOL    HW2 2451   2.428   2.733   1.979 -1.3744 -2.2622  0.2544
  818SOL     OW 2452   1.151   0.633   0.269  0.0847 -0.4465 -0.0703
  818SOL    HW1 2453   1.084   0.617   0.192 -0.5519  0.0193 -0.6361
  818SOL    HW2 2454   1.166   0.546   0.318  0.3579  3.2684 -1.7274
  819SOL     OW 2455   1.904   1.453   2.567 -0.0012 -0.4251  0.1383
  819SOL    HW1 2456   1.987   1.393   2.572  2.4931  0.3937  0.8899
  819SOL    HW2 2457   1.876   1.484   2.472  0.2395 -0.1479 -0.3138
  820SOL     OW 2458   2.875   1.572   2.574 -0.3925  0.7710  0.3682
  820SOL    HW1 2459   2.888   1.589   2.674  0.8752  2.2907  1.6075
  820SOL    HW2 2460   2.968   1.560   2.529 -2.1289 -1.4316  0.1541
  821SOL     OW 2461   0.184   2.669   0.724 -0.5340  0.6089  0.3784
  821SOL    HW1 2462   0.250   2.598   0.758  4.2745  0.1807  2.3114
  821SOL    HW2 2463   0.215   2.712   0.632 -1.3301  0.9752 -2.4455
  822SOL     OW 2464   2.218   2.568   3.070 -0.3703 -0.1728 -0.4595
  822SOL    HW1 2465   2.244   2.477   3.033  1.6964  1.0673  1.4869
  822SOL    HW2 2466   2.300   2.622   3.084  1.4029 -0.8331 -0.9324
  823SOL     OW 2467   1.491   0.040   2.307  0.5079  0.7032 -0.1939
  823SOL    HW1 2468   1.466   0.133   2.280  0.4778 -0.3519 -1.7548
  823SOL    HW2 2469   1.514   3.073   2.227  1.4785  0.8870  3.4759
  824SOL     OW 2470   2.800   2.352   2.240 -0.6802  0.2160 -0.2116
  824SOL    HW1 2471   2.865   2.431   2.246  1.6404 -0.5700 -1.3332
  824SOL    HW2 2472   2.734   2.347   2.316 -0.5805  3.1158  1.9038
  825SOL     OW 2473   3.037   2.283   2.407 -0.0820  0.1970  0.1443
  825SOL    HW1 2474   2.991   2.203   2.366  2.9129  0.7987  0.2473
  825SOL    HW2 2475   3.031   2.371   2.349  0.6531  1.0076  0.6933
  826SOL     OW 2476   1.939   0.668   2.752 -0.1909 -0.5541  0.2609
  826SOL    HW1 2477   2.009   0.685   2.825  2.7628  3.0384  1.9864
  826SOL    HW2 2478   1.971   0.697   2.661  1.2512  0.6622  1.0559
  827SOL     OW 2479   2.987   1.732   1.658 -0.4133 -0.3205  0.0064
  827SOL    HW1 2480   2.955   1.807   1.720  0.2445  2.4306  1.6787
  827SOL    HW2 2481   2.913   1.674   1.625  2.3751  5.3176  1.0121
  828SOL     OW 2482   3.059   0.086   1.132  0.2092  0.1641 -0.1170
  828SOL    HW1 2483   3.055   0.011   1.057  1.5661 -2.5557 -1.9158
  828SOL    HW2 2484   3.089   0.168   1.083 -1.4943 -0.8263 -1.5620
  829SOL     OW 2485   1.104   1.887   2.798  0.0151  0.0044  0.4840
  829SOL    HW1 2486   1.060   1.969   2.753  0.3843  0.9923 -0.8766
  829SOL    HW2 2487   1.039   1.811   2.806 -2.3345 -0.5399 -0.1516
  830SOL     OW 2488   0.744   1.170   1.239 -0.1797  0.0831 -0.9619
  830SOL    HW1 2489   0.808   1.244   1.272 -0.2008 -0.8140  0.3246
  830SOL    HW2 2490   0.708   1.119   1.317 -0.4563  0.2310  1.5773
  831SOL     OW 2491   2.717   1.910   2.741  0.5258  0.3128  0.6042
  831SOL    HW1 2492   2.748   1.849   2.665 -3.1414  1.5591 -0.5168
  831SOL    HW2 2493   2.789   1.954   2.792 -2.8243  0.1059 -1.1669
  832SOL     OW 2494   1.929   2.521   2.581  0.2648  0.1106 -0.1067
  832SOL    HW1 2495   2.013   2.464   2.585 -2.6221  0.2724  2.0947
  832SOL    HW2 2496   1.853   2.457   2.562 -1.4407 -1.8286 -0.4218
  833SOL     OW 2497   0.727   0.445   1.940 -0.4083  0.2371  0.0773
  833SOL    HW1 2498   0.756   0.498   1.858 -0.5025  1.5346  0.0110
  833SOL    HW2 2499   0.683   0.510   2.005 -0.2310  0.3195  0.5587
  834SOL     OW 2500   3.085   0.298   1.328  0.2334 -0.0705  0.8245
  834SOL    HW1 2501   3.060   0.210   1.368 -1.1418 -1.2017 -1.4566
  834SOL    HW2 2502   2.999   0.352   1.298 -0.7130 -0.3086  1.3822
  835SOL     OW 2503   2.748   0.465   0.144  0.3332 -0.0130  1.2320
  835SOL    HW1 2504   2.679   0.497   0.212  0.0263  1.5828 -0.8240
  835SOL    HW2 2505   2.847   0.484   0.170 -0.3059 -0.7388 -1.8366
  836SOL     OW 2506   1.523   1.856   0.255  0.2249 -0.2510  0.3297
  836SOL    HW1 2507   1.524   1.955   0.240  1.3409 -0.9724  1.5455
  836SOL    HW2 2508   1.440   1.816   0.291  1.5990 -0.4951  0.6491
  837SOL     OW 2509   1.907   1.921   0.770 -0.6490 -0.3572 -0.2489
  837SOL    HW1 2510   2.011   1.920   0.778  2.2707 -1.6209  2.7684
  837SOL    HW2 2511   1.875   2.005   0.717 -1.8572  2.8197 -4.9625
  838SOL     OW 2512   1.560   0.915   2.446  0.4408  0.6517 -0.2911
  838SOL    HW1 2513   1.567   0.935   2.545 -1.0027  1.8872 -3.1223
  838SOL    HW2 2514   1.555   0.814   2.432 -1.2605 -2.4528  0.3027
  839SOL     OW 2515   0.713   1.404   2.326 -0.2080  0.3434  0.2584
  839SOL    HW1 2516   0.671   1.352   2.404  3.1541  2.7706 -2.2537
  839SOL    HW2 2517   0.810   1.378   2.320  2.2064 -0.6830 -1.0921
  840SOL     OW 2518   1.123   1.529   0.519  1.0423 -0.1709  0.4982
  840SOL    HW1 2519   1.134   1.627   0.533  2.5671 -0.6111  0.8938
  840SOL    HW2 2520   1.201   1.478   0.560 -1.1552 -3.4461  1.4378
  841SOL     OW 2521   1.495   2.209   0.844 -0.4596  0.9556 -0.4279
  841SOL    HW1 2522   1.596   2.227   0.832  0.7968 -0.2816  2.9393
  841SOL    HW2 2523   1.461   2.245   0.933 -0.6743  0.3255 -0.4859
  842SOL     OW 2524   0.392   0.536   0.069 -0.0253  0.3492 -0.7327
  842SOL    HW1 2525   0.356   0.443   0.068  1.3943  0.9018  1.5647
  842SOL    HW2 2526   0.488   0.540   0.038  0.1942 -0.1750  0.4717
  843SOL     OW 2527   0.637   0.162   0.598  0.1466 -0.5657 -0.0473
  843SOL    HW1 2528   0.677   0.249   0.627  0.1663 -0.3142 -3.4098
  843SOL    HW2 2529   0.698   0.088   0.631 -1.9771  0.5962  0.4634
  844SOL     OW 2530   2.330   0.135   2.483 -0.0068  0.1811 -0.3325
  844SOL    HW1 2531   2.242   0.127   2.534 -2.0703 -1.6883  2.4713
  844SOL    HW2 2532   2.359   0.047   2.438  1.8541 -3.0507 -0.7961
  845SOL     OW 2533   2.961   2.330   1.815 -0.2253 -0.8928  0.6582
  845SOL    HW1 2534   2.871   2.344   1.862 -1.5362  0.0276  1.9270
  845SOL    HW2 2535   2.973   2.228   1.802  3.6312  0.9835 -0.9038
  846SOL     OW 2536   2.179   1.340   2.389 -0.5082  0.0944 -0.0697
  846SOL    HW1 2537   2.258   1.371   2.333 -1.4984 -1.3697  1.1569
  846SOL    HW2 2538   2.100   1.312   2.331 -0.5401 -0.8730  0.7029
  847SOL     OW 2539   0.930   0.718   1.862 -0.4273  0.3338 -0.1948
  847SOL    HW1 2540   0.873   0.660   1.800  1.0845  0.0850  0.0275
  847SOL    HW2 2541   1.027   0.722   1.826  2.3639  0.2956  0.5234
  848SOL     OW 2542   2.254   0.048   2.984 -0.6134  0.1299  0.1778
  848SOL    HW1 2543   2.308   3.062   3.001 -1.3324 -0.0505 -1.8336
  848SOL    HW2 2544   2.297   0.129   3.025 -1.5200 -0.6988 -0.8227
  849SOL     OW 2545   0.237   2.903   2.955  0.2759  0.0889  0.2776
  849SOL    HW1 2546   0.188   2.921   2.862 -2.0220 -0.8373 -1.9438
  849SOL    HW2 2547   0.329   2.868   2.934 -1.7778  2.7100 -1.6216
  850SOL     OW 2548   1.127   2.534   0.998  0.0708  0.2640 -0.7291
  850SOL    HW1 2549   1.189   2.515   1.079 -1.1451  1.4522  0.7957
  850SOL    HW2 2550   1.077   2.445   0.978  0.9316 -0.2464 -0.6473
  851SOL     OW 2551   1.973   0.524   2.341 -1.0616 -0.2395  0.6031
  851SOL    HW1 2552   2.051   0.512   2.275  0.2035 -0.3299  1.7010
  851SOL    HW2 2553   1.990   0.464   2.425  1.6943 -1.4871  1.0553
  852SOL     OW 2554   1.352   0.372   2.594 -0.1781  0.1229  0.0532
  852SOL    HW1 2555   1.447   0.343   2.610  2.6455  2.0856 -2.6638
  852SOL    HW2 2556   1.284   0.309   2.630  1.8829 -0.5444  1.0744
  853SOL     OW 2557   2.958   2.789   2.945 -0.1585 -0.2994  0.1011
  853SOL    HW1 2558   3.021   2.799   3.020 -3.1414 -0.2176  0.8010
  853SOL    HW2 2559   2.985   2.718   2.879 -0.9421  0.4178  0.6553
  854SOL     OW 2560   2.008   0.762   2.499  0.2841 -0.5002  0.1688
  854SOL    HW1 2561   2.083   0.807   2.454 -2.2556 -0.9307  1.5398
  854SOL    HW2 2562   1.985   0.682   2.444  1.4515 -0.5576 -0.0558
  855SOL     OW 2563   0.456   2.617   0.194 -0.1183  0.0648  0.2795
  855SOL    HW1 2564   0.448   2.714   0.226  2.4101 -1.4412  2.8155
  855SOL    HW2 2565   0.545   2.593   0.148  1.5641  0.9430 -0.7788
  856SOL     OW 2566   0.388   0.093   2.314  0.1417  0.0295  0.3253
  856SOL    HW1 2567   0.439   0.023   2.369 -0.5610 -2.2098 -0.7366
  856SOL    HW2 2568   0.312   0.126   2.375  4.6484 -0.7055 -3.0069
  857SOL     OW 2569   0.939   0.085   1.216 -0.2113  0.3477  0.3730
  857SOL    HW1 2570   0.867   0.066   1.291 -2.0368  0.8699  2.1525
  857SOL    HW2 2571   0.914   0.040   1.127  0.5538 -1.2556  0.8738
  858SOL     OW 2572   2.628   2.044   1.796  0.0520 -0.2949  0.0466
  858SOL    HW1 2573   2.643   2.099   1.712  0.9625 -1.2667  1.6698
  858SOL    HW2 2574   2.583   2.098   1.869  0.4041 -0.7346 -1.7896
  859SOL     OW 2575   1.976   2.344   2.058  0.3355 -0.1034 -0.3480
  859SOL    HW1 2576   1.873   2.357   2.041  0.9916  1.0205 -2.5532
  859SOL    HW2 2577   1.997   2.392   2.145  1.8615  0.8223  3.5261
  860SOL     OW 2578   1.942   0.081   0.401  0.0400 -0.1412 -0.1005
  860SOL    HW1 2579   1.914   0.136   0.321 -0.7053 -0.0440 -0.1335
  860SOL    HW2 2580   1.897   0.110   0.487  0.9728 -2.2660  1.1433
  861SOL     OW 2581   2.768   0.382   0.548  0.1752 -0.1236 -0.5722
  861SOL    HW1 2582   2.865   0.370   0.518 -1.1633 -0.4607 -0.5971
  861SOL    HW2 2583   2.730   0.309   0.608 -2.1789  0.2945  2.8014
  862SOL     OW 2584   0.884   2.701   2.593  0.6933 -0.2103  1.1010
  862SOL    HW1 2585   0.926   2.780   2.638 -1.1969  0.2478  1.6735
  862SOL    HW2 2586   0.947   2.622   2.573 -0.6061 -0.1544 -1.5600
  863SOL     OW 2587   0.590   0.634   1.338 -0.0179 -0.2620  0.0742
  863SOL    HW1 2588   0.557   0.600   1.431  0.4753 -2.7270  0.9405
  863SOL    HW2 2589   0.536   0.583   1.268  0.0197  2.3146  1.5738
  864SOL     OW 2590   2.928   3.048   1.686 -0.1064 -0.3914 -0.4366
  864SOL    HW1 2591   2.985   3.092   1.609  2.6944  1.2238 -1.1508
  864SOL    HW2 2592   2.970   2.965   1.724  1.3024 -1.7031  1.1619
  865SOL     OW 2593   0.561   1.242   2.920 -0.9521 -1.1443 -0.1223
  865SOL    HW1 2594   0.511   1.152   2.928 -2.2016 -0.1159  1.6765
  865SOL    HW2 2595   0.546   1.320   2.989 -0.0365 -0.7613 -0.8741
  866SOL     OW 2596   2.731   0.199   2.958  0.1136  0.0093 -0.1421
  866SOL    HW1 2597   2.795   0.227   3.037  0.8670 -1.6492  2.2277
  866SOL    HW2 2598   2.723   0.100   2.947 -0.1367  0.8357  1.0907
  867SOL     OW 2599   2.471   2.975   2.966 -0.0609  0.1256  0.3460
  867SOL    HW1 2600   2.559   2.974   3.023  0.8305 -0.6328 -1.6190
  867SOL    HW2 2601   2.502   2.957   2.868  1.7930  2.0469  1.2368
  868SOL     OW 2602   1.352   0.839   0.295 -0.1376 -0.1284 -0.1504
  868SOL    HW1 2603   1.269   0.797   0.257  1.4005  0.8231  4.0756
  868SOL    HW2 2604   1.447   0.829   0.246  3.6677  0.2588 -0.2944
  869SOL     OW 2605   2.643   1.403   0.767 -0.0803 -0.4051  0.4861
  869SOL    HW1 2606   2.662   1.501   0.774 -0.8577 -1.5914  1.7535
  869SOL    HW2 2607   2.693   1.342   0.834 -1.8878  2.9710  0.5845
  870SOL     OW 2608   2.366   1.642   0.616 -0.4542  0.2074 -0.3495
  870SOL    HW1 2609   2.428   1.626   0.538 -0.3810  2.4598  0.5730
  870SOL    HW2 2610   2.294   1.571   0.619  0.0114  3.2611  0.2331
  871SOL     OW 2611   1.301   1.124   0.690  0.1033 -0.1873 -0.7778
  871SOL    HW1 2612   1.240   1.053   0.654 -1.8656 -2.0138  1.1411
  871SOL    HW2 2613   1.293   1.128   0.792 -0.5324 -1.2792  2.5173
  872SOL     OW 2614   1.324   1.824   1.761  0.3969  0.1520 -0.3642
  872SOL    HW1 2615   1.283   1.795   1.673 -1.6382  1.4843 -2.9720
  872SOL    HW2 2616   1.385   1.749   1.798 -3.8730 -2.8726  0.4599
  873SOL     OW 2617   1.094   1.821   2.382 -0.4181  0.3301  0.6698
  873SOL    HW1 2618   1.041   1.745   2.420 -0.5043  0.6045 -0.3088
  873SOL    HW2 2619   1.099   1.812   2.278 -2.0125 -0.4590 -0.4978
  874SOL     OW 2620   1.150   2.039   1.027  0.2750 -0.2945 -0.0701
  874SOL    HW1 2621   1.176   2.117   0.964 -0.4307 -0.3738 -0.3350
  874SOL    HW2 2622   1.191   2.053   1.119 -3.7108  1.1840 -2.1897
  875SOL     OW 2623   2.199   0.225   1.258 -0.1531  0.1211  0.7943
  875SOL    HW1 2624   2.111   0.280   1.271 -2.2527  0.0822  0.2952
  875SOL    HW2 2625   2.197   0.167   1.172 -1.0673 -0.6486 -0.5210
  876SOL     OW 2626   0.743   0.501   0.244  0.2556 -0.4146  0.3176
  876SOL    HW1 2627   0.706   0.570   0.307  2.9317  1.9919 -1.2132
  876SOL    HW2 2628   0.780   0.425   0.302 -1.5621  0.3044  1.0684
  877SOL     OW 2629   2.928   0.558   1.441  0.2927  0.2054  0.5147
  877SOL    HW1 2630   2.882   0.499   1.373 -0.8362 -0.5059  2.3847
  877SOL    HW2 2631   2.957   0.644   1.398  0.0241  0.9178 -0.4270
  878SOL     OW 2632   2.187   2.445   0.372 -0.3745  0.3043 -0.2921
  878SOL    HW1 2633   2.117   2.501   0.314 -1.9645  1.9049 -3.2958
  878SOL    HW2 2634   2.251   2.390   0.311  0.1625 -0.1176 -0.3893
  879SOL     OW 2635   2.751   1.659   1.559  0.0379 -0.3693 -0.4251
  879SOL    HW1 2636   2.678   1.715   1.600 -1.5718  1.0432  2.0026
  879SOL    HW2 2637   2.720   1.563   1.553 -4.1777  2.6958  1.4698
  880SOL     OW 2638   1.367   2.728   1.286 -0.0092 -0.2582 -0.2848
  880SOL    HW1 2639   1.388   2.731   1.188  1.5144  0.9745  1.7048
  880SOL    HW2 2640   1.272   2.762   1.305 -1.4633 -2.2923 -0.7083
  881SOL     OW 2641   1.101   2.330   0.088 -0.2275 -0.2469 -0.3398
  881SOL    HW1 2642   1.030   2.306   0.160 -2.9168  1.1118  1.5818
  881SOL    HW2 2643   1.190   2.331   0.135 -1.1619 -1.0660  0.4197
  882SOL     OW 2644   1.804   0.691   1.442 -0.2348  0.1609 -0.3685
  882SOL    HW1 2645   1.767   0.723   1.534 -0.2147  0.4913  3.9944
  882SOL    HW2 2646   1.725   0.676   1.373 -2.4420 -0.7847  1.4120
  883SOL     OW 2647   1.174   0.335   2.342  0.7851 -0.1406 -0.0972
  883SOL    HW1 2648   1.231   0.312   2.422 -0.7037  0.6118  0.9954
  883SOL    HW2 2649   1.085   0.292   2.355  2.0597 -1.0581 -3.3708
  884SOL     OW 2650   3.002   0.517   0.269  0.5186  0.0568  0.4738
  884SOL    HW1 2651   3.021   0.468   0.352 -3.0745  2.9583 -0.2461
  884SOL    HW2 2652   3.085   0.551   0.226  0.5926 -0.9219 -0.3974
  885SOL     OW 2653   1.004   1.338   2.980 -0.4798  0.3300  0.0855
  885SOL    HW1 2654   1.007   1.440   2.953  0.1676  1.8484 -1.5109
  885SOL    HW2 2655   1.086   1.316   3.036  0.1314 -0.0760 -1.3054
  886SOL     OW 2656   1.726   1.509   2.755 -0.1456  0.2221  0.0925
  886SOL    HW1 2657   1.647   1.554   2.714  3.5951 -1.0370  1.1823
  886SOL    HW2 2658   1.785   1.471   2.680  2.2202  0.9505  0.1311
  887SOL     OW 2659   1.382   0.606   1.555  0.0057  0.3086  0.1203
  887SOL    HW1 2660   1.317   0.644   1.489  0.1039  0.3453 -1.0932
  887SOL    HW2 2661   1.421   0.518   1.521  2.0479 -0.3712 -1.2146
  888SOL     OW 2662   2.848   0.425   1.868 -0.7746 -0.2471 -0.0609
  888SOL    HW1 2663   2.889   0.500   1.924  1.2413 -0.9442  1.2003
  888SOL    HW2 2664   2.899   0.403   1.788 -0.6571  0.0958  0.3347
  889SOL     OW 2665   3.018   2.603   0.869  0.3002 -0.4750 -0.0044
  889SOL    HW1 2666   2.931   2.626   0.816 -2.2512  4.3230 -1.6638
  889SOL    HW2 2667   0.005   2.648   0.824  3.1091  2.5454 -1.3827
  890SOL     OW 2668   2.728   2.701   0.155  0.0797 -0.0885  0.2626
  890SOL    HW1 2669   2.753   2.749   0.243 -0.8878  0.4081  1.8176
  890SOL    HW2 2670   2.653   2.632   0.170  2.7794  0.6765 -1.4916
  891SOL     OW 2671   0.991   1.599   2.925  0.4300  0.0948  0.3498
  891SOL    HW1 2672   1.092   1.602   2.899 -0.2706 -0.0469  3.3227
  891SOL    HW2 2673   0.932   1.638   2.851 -0.6934 -1.3670 -0.8342
  892SOL     OW 2674   2.970   3.035   0.910 -0.2024 -0.0880  0.0985
  892SOL    HW1 2675   2.957   3.006   0.813 -2.5750 -0.6899 -1.5275
  892SOL    HW2 2676   2.880   3.053   0.952  2.3472  0.6349  1.8773
  893SOL     OW 2677   0.629   0.042   1.007 -0.2593  0.4433 -0.4122
  893SOL    HW1 2678   0.650   0.141   0.990 -1.6054 -0.2140 -1.1260
  893SOL    HW2 2679   0.718   3.085   1.013  2.0086  1.9993 -2.8233
  894SOL     OW 2680   2.951   1.121   0.563 -0.2415  0.3230  0.0688
  894SOL    HW1 2681   2.910   1.037   0.608 -1.6599 -3.5871 -0.1424
  894SOL    HW2 2682   3.026   1.156   0.627  1.7884 -1.5377 -1.2073
  895SOL     OW 2683   2.743   2.668   1.935  0.3452  0.3886 -0.1492
  895SOL    HW1 2684   2.690   2.755   1.932 -1.2373  1.3125  2.0645
  895SOL    HW2 2685   2.808   2.668   1.855 -2.8455 -0.8990 -0.5974
  896SOL     OW 2686   0.930   0.012   1.672  0.4600 -0.6337 -0.0148
  896SOL    HW1 2687   0.969   0.054   1.754  0.4813 -3.1650 -1.6742
  896SOL    HW2 2688   0.855   3.036   1.704 -2.9466 -0.6950  3.5945
  897SOL     OW 2689   0.863   1.713   1.737  0.2848 -0.2322 -0.0744
  897SOL    HW1 2690   0.875   1.737   1.638 -0.5383  0.1785  1.3071
  897SOL    HW2 2691   0.889   1.790   1.799 -1.7085 -0.0215 -1.0113
  898SOL     OW 2692   1.591   2.677   1.903 -0.3017  0.5879 -0.1539
  898SOL    HW1 2693   1.623   2.610   1.836 -1.1286  0.5843  0.9228
  898SOL    HW2 2694   1.646   2.762   1.912  0.3921  0.3041  0.7758
  899SOL     OW 2695   0.853   0.399   0.643  0.3441  0.3808  0.3015
  899SOL    HW1 2696   0.861   0.368   0.544 -0.2787 -3.2831 -2.0754
  899SOL    HW2 2697   0.872   0.496   0.647  1.6012 -2.3687  0.0730
  900SOL     OW 2698   1.938   2.473   2.289 -0.3634  0.1850 -0.1381
  900SOL    HW1 2699   1.858   2.536   2.282 -0.5363  0.7068  2.7390
  900SOL    HW2 2700   1.913   2.396   2.349 -1.4841  0.6715 -1.0472
  901SOL     OW 2701   0.936   2.049   2.659  0.0322  0.6329 -0.4270
  901SOL    HW1 2702   0.981   2.065   2.567  1.3417  1.6275 -2.1693
  901SOL    HW2 2703   0.846   2.096   2.660 -2.7405 -1.4181 -2.4460
  902SOL     OW 2704   1.862   1.074   0.352 -0.4397 -0.0783 -0.3230
  902SOL    HW1 2705   1.964   1.081   0.347  0.4527 -0.4158 -0.6016
  902SOL    HW2 2706   1.824   1.130   0.428 -1.8675  0.5301 -1.3989
  903SOL     OW 2707   1.823   0.709   0.634  0.2230 -0.4779 -0.4655
  903SOL    HW1 2708   1.842   0.676   0.540 -0.6913  0.8425  1.2119
  903SOL    HW2 2709   1.740   0.777   0.632 -3.5799  2.0854  2.9611
  904SOL     OW 2710   0.753   0.989   2.788  0.1435 -0.0056 -1.1653
  904SOL    HW1 2711   0.821   1.055   2.759 -3.5301 -0.0916  1.6730
  904SOL    HW2 2712   0.794   0.896   2.801 -0.2579 -2.9486  3.3173
  905SOL     OW 2713   2.247   3.081   0.861  0.0039  0.1738  0.4082
  905SOL    HW1 2714   2.198   3.031   0.934  0.6736  3.4594 -0.6276
  905SOL    HW2 2715   2.232   0.082   0.875 -2.3082 -2.1011 -0.0837
  906SOL     OW 2716   3.005   2.346   1.216 -0.4094 -0.2495  0.5275
  906SOL    HW1 2717   3.071   2.264   1.223  2.0824  0.1493  1.3364
  906SOL    HW2 2718   2.931   2.359   1.281 -1.9350  0.3012 -1.4027
  907SOL     OW 2719   0.959   0.588   0.084 -0.0010 -0.2464  0.1153
  907SOL    HW1 2720   0.869   0.557   0.122 -1.2024  1.8740 -0.0048
  907SOL    HW2 2721   0.955   0.687   0.051 -0.0571 -2.6645  1.9987
  908SOL     OW 2722   2.191   2.694   0.928  0.1826 -0.2310 -0.4381
  908SOL    HW1 2723   2.243   2.651   1.005  0.4555 -1.8386 -0.5807
  908SOL    HW2 2724   2.178   2.792   0.951  3.2901  1.0904  2.5058
  909SOL     OW 2725   2.315   0.999   1.465 -0.2882 -0.2834  0.7001
  909SOL    HW1 2726   2.413   0.968   1.463  0.6179 -1.3672  0.6420
  909SOL    HW2 2727   2.283   1.011   1.371  1.2009  1.7768 -2.2604
  910SOL     OW 2728   1.314   2.971   1.981 -0.2077  0.1631 -0.2339
  910SOL    HW1 2729   1.280   2.877   1.963 -0.7595  2.4798  0.7965
  910SOL    HW2 2730   1.272   3.038   1.918  0.1111  0.5797 -0.6110
  911SOL     OW 2731   2.898   0.530   2.249  0.0473  0.1780  0.0241
  911SOL    HW1 2732   2.888   0.563   2.150 -1.3272 -2.8739 -0.8474
  911SOL    HW2 2733   2.864   0.433   2.260 -2.6748 -2.5001  0.3358
  912SOL     OW 2734   0.205   1.071   1.329  0.0179  0.3096  0.5560
  912SOL    HW1 2735   0.123   1.074   1.388  1.4413  0.6720 -1.5337
  912SOL    HW2 2736   0.268   1.142   1.355 -0.9883  1.4033 -1.8819
  913SOL     OW 2737   2.781   2.157   1.584 -0.2738  0.2742 -0.6573
  913SOL    HW1 2738   2.866   2.141   1.638  0.3296  1.3632  0.1639
  913SOL    HW2 2739   2.787   2.109   1.497  2.5327 -1.1029  1.2059
  914SOL     OW 2740   1.561   0.752   1.290 -0.0831  0.2235 -0.3473
  914SOL    HW1 2741   1.503   0.706   1.223  3.8397  1.5023  2.5232
  914SOL    HW2 2742   1.522   0.834   1.338 -0.2543 -1.2658  1.6343
  915SOL     OW 2743   1.813   0.148   1.255 -0.2638 -0.6121  0.3443
  915SOL    HW1 2744   1.859   0.111   1.340  1.2784 -0.4421 -0.7361
  915SOL    HW2 2745   1.773   0.243   1.267 -1.1412 -0.5954 -1.4132
  916SOL     OW 2746   2.749   2.433   1.351 -0.3084  0.2486 -0.0820
  916SOL    HW1 2747   2.706   2.385   1.276 -0.0804  2.0590 -0.8218
  916SOL    HW2 2748   2.690   2.420   1.437  1.4351 -0.4269 -1.3043
  917SOL     OW 2749   2.368   2.169   0.421 -0.2073 -0.3813  0.8942
  917SOL    HW1 2750   2.355   2.220   0.333  1.4963  0.0155 -0.6127
  917SOL    HW2 2751   2.296   2.095   0.432 -1.6226 -0.9593 -0.5689
  918SOL     OW 2752   1.950   2.783   2.604  0.5224 -0.2515 -0.0493
  918SOL    HW1 2753   2.034   2.801   2.662 -0.7442 -4.2581  0.1600
  918SOL    HW2 2754   1.953   2.681   2.579  1.3003 -0.0122 -0.5235
  919SOL     OW 2755   1.282   2.397   1.539  0.4836 -0.1536  0.0716
  919SOL    HW1 2756   1.310   2.306   1.573 -1.3654  0.2164 -0.3982
  919SOL    HW2 2757   1.367   2.446   1.511  0.8200 -1.4454 -3.1595
  920SOL     OW 2758   2.894   0.133   2.205 -0.0329  0.2060  0.5703
  920SOL    HW1 2759   2.936   0.150   2.295  0.3197 -1.5438 -2.8618
  920SOL    HW2 2760   2.970   0.125   2.140 -3.2387  1.3179  0.0933
  921SOL     OW 2761   2.988   0.755   1.791 -0.4431 -0.4157 -0.3592
  921SOL    HW1 2762   2.992   0.852   1.818  5.2143 -2.5390  0.2037
  921SOL    HW2 2763   3.070   0.732   1.737 -1.6907  2.2811 -0.6322
  922SOL     OW 2764   2.241   1.905   0.459 -0.2015  0.1161  0.3253
  922SOL    HW1 2765   2.215   1.890   0.553  0.9694 -1.9823  0.5631
  922SOL    HW2 2766   2.230   1.821   0.404 -0.1528 -0.7949  1.9945
  923SOL     OW 2767   0.906   1.781   0.018  0.3857 -0.2114 -0.4666
  923SOL    HW1 2768   0.914   1.717   3.035  0.6079 -2.9417 -1.7859
  923SOL    HW2 2769   0.854   1.865   3.092  0.9718 -0.4260  1.7003
  924SOL     OW 2770   0.860   0.305   0.382 -0.5280  0.2431  0.4432
  924SOL    HW1 2771   0.858   0.204   0.360  1.3103  0.4279 -1.3955
  924SOL    HW2 2772   0.957   0.338   0.382  1.5090  1.4744 -0.5330
  925SOL     OW 2773   2.459   0.383   0.992  0.0835 -0.0270  0.3112
  925SOL    HW1 2774   2.374   0.431   1.019 -1.1222 -1.0410 -0.4242
  925SOL    HW2 2775   2.440   0.283   0.977 -0.0148 -0.1574 -1.9207
  926SOL     OW 2776   0.379   0.527   1.217 -0.2323  0.6489 -0.0181
  926SOL    HW1 2777   0.383   0.554   1.116  2.7803 -0.4750 -0.7712
  926SOL    HW2 2778   0.352   0.428   1.227 -2.2938 -1.4063 -1.6523
  927SOL     OW 2779   0.071   1.454   2.594  0.1042  0.7125 -0.4051
  927SOL    HW1 2780   0.102   1.476   2.499  1.1265 -1.4301  1.3155
  927SOL    HW2 2781   0.054   1.354   2.606  0.1900  2.4210 -1.4596
  928SOL     OW 2782   2.780   0.677   2.964 -0.2192  0.3052 -0.0451
  928SOL    HW1 2783   2.681   0.663   2.957 -1.6239  1.3417  1.0506
  928SOL    HW2 2784   2.824   0.594   3.003  0.9381  1.5185  0.6668
  929SOL     OW 2785   2.612   0.149   1.343  0.0629  0.4951  0.1290
  929SOL    HW1 2786   2.544   0.220   1.308 -0.4673  4.0220  1.3446
  929SOL    HW2 2787   2.560   0.067   1.386 -1.9694 -1.4941 -0.8575
  930SOL     OW 2788   1.989   1.042   1.519  0.0599 -0.1484  0.0208
  930SOL    HW1 2789   1.901   1.024   1.561 -1.0004 -0.2107  0.5428
  930SOL    HW2 2790   2.034   0.951   1.504 -1.5048 -0.0488 -1.1784
  931SOL     OW 2791   2.142   1.352   0.400 -0.1488 -0.3363 -0.1580
  931SOL    HW1 2792   2.080   1.269   0.398 -0.6600 -1.5094  0.3931
  931SOL    HW2 2793   2.187   1.358   0.312 -0.7544 -1.4624 -0.6213
  932SOL     OW 2794   2.782   1.239   0.942 -0.3900  0.4683  0.4979
  932SOL    HW1 2795   2.729   1.158   0.903  1.9436 -2.5169 -0.6956
  932SOL    HW2 2796   2.836   1.221   1.026  1.4158  1.6793  0.8595
  933SOL     OW 2797   2.694   1.617   1.105 -0.2723 -0.3666  0.1539
  933SOL    HW1 2798   2.754   1.642   1.182 -2.3253  0.2080 -0.5676
  933SOL    HW2 2799   2.624   1.552   1.134  2.1880  2.1051  1.3732
  934SOL     OW 2800   1.695   0.488   2.258  0.0307  0.2545 -0.4118
  934SOL    HW1 2801   1.644   0.551   2.323 -0.5524  3.5653 -0.6497
  934SOL    HW2 2802   1.787   0.470   2.296 -1.1247  1.7449  0.8542
  935SOL     OW 2803   0.219   1.760   0.515 -0.5487 -0.2912  0.4149
  935SOL    HW1 2804   0.159   1.757   0.596 -1.3848  1.4475  1.4533
  935SOL    HW2 2805   0.247   1.856   0.498  0.9984 -1.3822  0.7361
  936SOL     OW 2806   0.335   0.777   0.689 -0.1802  0.1266 -0.2944
  936SOL    HW1 2807   0.296   0.778   0.594  0.0444 -0.8926  2.2292
  936SOL    HW2 2808   0.363   0.874   0.722 -2.6865  3.7338  2.2311
  937SOL     OW 2809   2.430   2.917   1.210  0.3528  0.1855 -0.1472
  937SOL    HW1 2810   2.473   2.826   1.202 -0.5181  1.0808 -1.2283
  937SOL    HW2 2811   2.439   2.951   1.306 -1.4798  1.0946  1.0592
  938SOL     OW 2812   2.952   2.421   0.269 -0.0347 -0.2186  0.4269
  938SOL    HW1 2813   3.032   2.466   0.307 -1.4333 -0.3785 -3.8677
  938SOL    HW2 2814   2.859   2.454   0.288 -4.2146 -2.9471  1.8933
  939SOL     OW 2815   0.947   1.988   0.418 -0.1972  0.3323  0.6187
  939SOL    HW1 2816   0.894   1.914   0.366 -2.9961 -0.7605 -0.7520
  939SOL    HW2 2817   0.911   2.001   0.512  0.9862 -0.1971 -1.1103
  940SOL     OW 2818   2.875   0.401   2.816  0.4408 -0.3217 -0.0286
  940SOL    HW1 2819   2.812   0.334   2.858  1.3407  2.4057 -0.5009
  940SOL    HW2 2820   2.857   0.417   2.716  1.5846  3.5220  0.6088
  941SOL     OW 2821   1.120   0.140   2.945  0.4262  0.2313  0.0749
  941SOL    HW1 2822   1.096   0.047   2.916  1.8677  1.8658 -4.4683
  941SOL    HW2 2823   1.108   0.152   3.044  0.7448  0.3487 -0.1626
  942SOL     OW 2824   1.058   1.095   1.368  0.0995 -0.6213 -0.3954
  942SOL    HW1 2825   1.095   1.115   1.463  1.0550 -0.9840  0.0201
  942SOL    HW2 2826   1.005   1.007   1.372  0.9983  1.9168  3.6150
  943SOL     OW 2827   1.538   1.016   1.885 -0.2508 -0.2075 -0.0860
  943SOL    HW1 2828   1.535   0.978   1.790 -0.6538 -0.8781 -0.7670
  943SOL    HW2 2829   1.447   1.013   1.930  1.4114  1.1135 -1.7821
  944SOL     OW 2830   1.813   1.071   1.725  0.0720  0.3938 -0.4084
  944SOL    HW1 2831   1.766   1.006   1.791  1.2153  0.6518  1.8489
  944SOL    HW2 2832   1.892   1.126   1.763  0.9912 -1.0848 -3.0311
  945SOL     OW 2833   2.950   0.005   0.045  0.7859  0.6442  0.5400
  945SOL    HW1 2834   2.991   3.050   0.120  0.1551 -1.6206 -0.2414
  945SOL    HW2 2835   2.982   0.100   0.059  3.0758 -0.4994 -0.6265
  946SOL     OW 2836   2.900   0.674   2.031 -0.2835 -0.1375  0.1413
  946SOL    HW1 2837   2.941   0.747   2.088  0.3428 -0.0287 -3.4035
  946SOL    HW2 2838   2.919   0.713   1.939  3.2531 -0.1877  0.6511
  947SOL     OW 2839   0.426   2.868   0.279 -0.1584  0.1909  0.6780
  947SOL    HW1 2840   0.507   2.879   0.338 -1.0038  0.4653 -0.9384
  947SOL    HW2 2841   0.411   2.961   0.242  1.5163 -1.1074  0.8789
  948SOL     OW 2842   2.439   1.226   1.581  0.4115 -0.1190 -0.2156
  948SOL    HW1 2843   2.495   1.186   1.660  0.9788  1.6039  0.4802
  948SOL    HW2 2844   2.361   1.167   1.549  2.8827 -0.5025 -0.7436
  949SOL     OW 2845   0.587   0.972   2.320  0.5263  0.2480  0.1962
  949SOL    HW1 2846   0.556   1.013   2.230 -0.1963 -0.7736 -3.3473
  949SOL    HW2 2847   0.518   0.907   2.347  1.0459 -2.5533  0.0302
  950SOL     OW 2848   0.433   3.020   0.878  0.1632 -0.0753  0.2838
  950SOL    HW1 2849   0.507   3.060   0.933  1.4773 -0.4460 -1.0971
  950SOL    HW2 2850   0.482   2.957   0.813 -1.1184  0.6669  1.5821
  951SOL     OW 2851   0.991   1.342   2.319  0.4250  0.0365  0.2685
  951SOL    HW1 2852   1.034   1.318   2.226  1.5535 -2.3863 -2.5537
  951SOL    HW2 2853   0.982   1.256   2.374 -0.2653  0.3486  2.2783
  952SOL     OW 2854   0.785   1.347   0.081  0.4086  0.4007  0.2844
  952SOL    HW1 2855   0.856   1.360   0.010  0.4331 -0.7961 -0.5758
  952SOL    HW2 2856   0.768   1.250   0.090 -1.5498  2.9212 -0.3941
  953SOL     OW 2857   2.557   0.283   2.518 -0.6562  0.1388  0.1539
  953SOL    HW1 2858   2.513   0.372   2.536  2.9614  0.0302 -1.1867
  953SOL    HW2 2859   2.493   0.206   2.511 -0.6150 -0.4488 -0.4151
  954SOL     OW 2860   1.582   1.215   0.962  0.4752 -0.3362 -0.0394
  954SOL    HW1 2861   1.674   1.174   0.983  1.7915 -0.4707  2.8206
  954SOL    HW2 2862   1.579   1.259   0.871 -1.4420 -2.9977  0.8741
  955SOL     OW 2863   0.295   2.025   2.669 -0.4529  0.0841  0.3165
  955SOL    HW1 2864   0.325   1.981   2.754 -0.0301 -3.5680  0.1108
  955SOL    HW2 2865   0.310   2.124   2.662  1.0499 -0.3861  0.7124
  956SOL     OW 2866   1.723   0.595   2.012 -0.1389 -0.3630  0.2080
  956SOL    HW1 2867   1.723   0.527   2.090  1.9661 -1.9736  0.1625
  956SOL    HW2 2868   1.681   0.684   2.049  1.3563  0.9068  0.3233
  957SOL     OW 2869   2.101   2.110   2.688  0.1724  0.0268 -0.1166
  957SOL    HW1 2870   2.193   2.089   2.660 -2.1389 -0.6398 -1.1313
  957SOL    HW2 2871   2.046   2.025   2.702 -0.9544  0.5819 -2.4646
  958SOL     OW 2872   1.289   1.632   1.551  0.2132 -0.0290 -0.1869
  958SOL    HW1 2873   1.355   1.555   1.569  0.4574  0.9553  2.6182
  958SOL    HW2 2874   1.292   1.655   1.453 -1.4753 -2.0548  5.2318
  959SOL     OW 2875   2.298   2.311   2.960 -0.2750 -0.4864 -0.6337
  959SOL    HW1 2876   2.387   2.277   2.994  0.1818 -0.4046 -1.9439
  959SOL    HW2 2877   2.228   2.235   2.974 -0.8694 -1.5052 -0.5949
  960SOL     OW 2878   0.023   0.852   2.643 -0.2116 -0.2387 -0.4716
  960SOL    HW1 2879   0.081   0.910   2.703 -0.8325 -0.5809 -0.2837
  960SOL    HW2 2880   3.023   0.851   2.678 -4.9932 -0.6611  0.5617
  961SOL     OW 2881   0.861   0.866   2.319  0.2335 -0.2251 -0.0025
  961SOL    HW1 2882   0.764   0.882   2.338  0.6991  0.3814 -2.6350
  961SOL    HW2 2883   0.894   0.781   2.356  1.7789  1.2722  2.5564
  962SOL     OW 2884   0.973   1.165   2.740 -0.6536  0.6600  0.3439
  962SOL    HW1 2885   0.968   1.221   2.822  1.9040  0.4818 -1.7335
  962SOL    HW2 2886   1.072   1.146   2.716 -0.9204 -3.1856  2.2892
  963SOL     OW 2887   2.678   2.442   0.307 -0.0212  0.0046  0.3369
  963SOL    HW1 2888   2.617   2.517   0.346 -0.8600  3.9792 -0.5788
  963SOL    HW2 2889   2.662   2.351   0.351 -1.7625  1.6478  1.2039
  964SOL     OW 2890   1.036   2.490   1.469 -0.4152 -0.4212  0.1142
  964SOL    HW1 2891   1.128   2.463   1.508  4.9275 -0.8922  2.4341
  964SOL    HW2 2892   1.042   2.581   1.424  0.6110  0.6436 -1.5493
  965SOL     OW 2893   1.506   1.501   0.434  0.1452 -0.7913 -0.6893
  965SOL    HW1 2894   1.598   1.540   0.463  0.7429  2.2174  0.3651
  965SOL    HW2 2895   1.457   1.467   0.515 -0.2923  1.7748 -0.4466
  966SOL     OW 2896   0.146   1.575   0.314  0.4497  0.4882  0.2965
  966SOL    HW1 2897   0.163   1.637   0.389 -0.3951  0.2686 -1.7689
  966SOL    HW2 2898   0.051   1.531   0.321 -0.4885 -1.9040  1.4896
  967SOL     OW 2899   1.685   0.228   2.084 -0.6317  0.6740  0.0014
  967SOL    HW1 2900   1.625   0.297   2.132 -2.6977  1.9287  0.1300
  967SOL    HW2 2901   1.753   0.187   2.151  1.0534  0.0177  2.6905
  968SOL     OW 2902   1.773   0.419   0.711 -0.1967  0.3417  0.3535
  968SOL    HW1 2903   1.833   0.501   0.722  2.4904  1.0487 -0.2497
  968SOL    HW2 2904   1.703   0.433   0.638  3.3874  0.3733  1.6875
  969SOL     OW 2905   0.262   1.194   2.438  0.2942  0.7654 -0.3375
  969SOL    HW1 2906   0.192   1.235   2.380 -2.1507 -0.7190  1.1651
  969SOL    HW2 2907   0.255   1.238   2.529 -0.2307 -0.8353 -0.8516
  970SOL     OW 2908   2.509   1.460   1.236  0.3161 -0.4226 -0.0056
  970SOL    HW1 2909   2.454   1.381   1.211  1.4238  4.5742 -0.6270
  970SOL    HW2 2910   2.478   1.494   1.331 -0.5735 -0.3533  2.3439
  971SOL     OW 2911   0.054   2.844   1.048  0.5481  0.1130  0.0146
  971SOL    HW1 2912   0.015   2.782   1.121  0.1321 -3.0765 -0.9889
  971SOL    HW2 2913   3.075   2.866   0.982 -1.7511  0.0668 -0.0566
  972SOL     OW 2914   0.416   0.810   2.447 -0.6112 -0.0066 -0.0390
  972SOL    HW1 2915   0.441   0.847   2.536 -0.2476  0.6261  0.6758
  972SOL    HW2 2916   0.316   0.825   2.429  0.1925 -3.1496 -1.2769
  973SOL     OW 2917   0.345   0.390   0.797  0.0301 -0.5543 -0.0066
  973SOL    HW1 2918   0.329   0.292   0.790  2.4455  1.0366 -1.9223
  973SOL    HW2 2919   0.303   0.428   0.712  1.9696 -2.0965  1.2008
  974SOL     OW 2920   2.145   0.516   1.724  0.1262 -0.4520  0.5340
  974SOL    HW1 2921   2.201   0.593   1.682  0.0506 -0.0918 -3.4396
  974SOL    HW2 2922   2.215   0.451   1.770  0.8786 -2.7755 -1.0488
  975SOL     OW 2923   2.696   2.961   0.023 -0.4253  0.1953  0.0450
  975SOL    HW1 2924   2.782   3.017   0.020 -0.7016  0.2403 -1.9237
  975SOL    HW2 2925   2.719   2.864   0.063  1.2164 -2.3689  0.0086
  976SOL     OW 2926   0.394   1.481   1.061  0.1100 -0.7577  0.8625
  976SOL    HW1 2927   0.423   1.390   1.098  2.1969  0.2375  0.7406
  976SOL    HW2 2928   0.435   1.556   1.116  1.9153  3.0817 -1.9655
  977SOL     OW 2929   1.079   2.458   0.572 -0.0874  0.7977  0.3027
  977SOL    HW1 2930   1.076   2.355   0.559 -1.0450 -2.4757 -1.9850
  977SOL    HW2 2931   1.174   2.487   0.586 -0.8296  0.1215  2.8237
  978SOL     OW 2932   0.186   0.891   0.003  0.1694  0.1577  0.2621
  978SOL    HW1 2933   0.188   0.799   0.046 -2.8905 -1.9130  0.1591
  978SOL    HW2 2934   0.269   0.903   3.039  0.9539 -2.7136 -2.5684
  979SOL     OW 2935   2.167   1.637   0.846  0.6357  0.1204 -0.4070
  979SOL    HW1 2936   2.193   1.582   0.765 -1.1598 -0.5806 -0.9072
  979SOL    HW2 2937   2.236   1.644   0.923  1.1091  0.8257  1.4632
  980SOL     OW 2938   0.464   1.713   1.888 -0.1688  0.0614  0.1177
  980SOL    HW1 2939   0.486   1.648   1.812  0.3098  0.4153  1.7210
  980SOL    HW2 2940   0.493   1.680   1.976 -1.1995 -0.1549 -0.5188
  981SOL     OW 2941   2.709   1.356   0.088 -0.4930  0.2401 -0.4060
  981SOL    HW1 2942   2.699   1.332   0.187  0.7473 -0.3999  1.0698
  981SOL    HW2 2943   2.803   1.403   0.081  1.0747  0.9357 -1.2882
  982SOL     OW 2944   2.547   2.881   1.975  0.0755  0.0125 -0.3795
  982SOL    HW1 2945   2.556   2.957   1.910 -0.5025  0.1922  0.9671
  982SOL    HW2 2946   2.604   2.901   2.054 -1.0089 -2.0772 -1.7281
  983SOL     OW 2947   1.295   0.035   1.100  0.4959 -0.2125  0.2036
  983SOL    HW1 2948   1.245   0.030   1.194 -0.1071 -1.3705  0.1192
  983SOL    HW2 2949   1.391   0.007   1.112 -0.9134 -0.0516 -1.7948
  984SOL     OW 2950   1.119   2.775   2.937  0.0424  0.8599  0.1158
  984SOL    HW1 2951   1.085   2.814   2.845  0.3855  1.3235 -1.4958
  984SOL    HW2 2952   1.214   2.743   2.926  1.7078  1.7032  0.9866
  985SOL     OW 2953   1.851   2.041   1.690  0.1006  0.0959  0.1166
  985SOL    HW1 2954   1.754   2.047   1.717  1.9154  0.8016 -0.4815
  985SOL    HW2 2955   1.866   1.972   1.615 -0.8158 -2.3619 -0.2433
  986SOL     OW 2956   2.158   0.051   2.713 -0.3170 -0.1228  0.2383
  986SOL    HW1 2957   2.215   3.081   2.653 -2.4166  1.1573 -3.6517
  986SOL    HW2 2958   2.206   0.071   2.807 -0.5564  3.2748  4.0597
  987SOL     OW 2959   2.680   1.281   2.124 -0.3332 -0.1631  0.1764
  987SOL    HW1 2960   2.615   1.200   2.119 -1.0993 -2.3651 -0.5087
  987SOL    HW2 2961   2.673   1.328   2.217 -0.3071 -0.2401 -1.8583
  988SOL     OW 2962   2.308   0.771   2.430  0.0816 -0.2106 -0.9257
  988SOL    HW1 2963   2.279   0.809   2.343  0.5678  2.5874 -0.6621
  988SOL    HW2 2964   2.390   0.817   2.468 -1.2230 -0.8339 -0.3207
  989SOL     OW 2965   1.736   1.377   2.087 -0.2386  0.0067  0.6052
  989SOL    HW1 2966   1.683   1.292   2.088  0.4039  1.4370  1.0797
  989SOL    HW2 2967   1.832   1.363   2.060 -0.7306 -1.6003 -1.5377
  990SOL     OW 2968   0.322   1.184   0.255 -0.0585  0.1033  0.0992
  990SOL    HW1 2969   0.278   1.154   0.340  0.4876  1.1480  0.1996
  990SOL    HW2 2970   0.253   1.180   0.179  1.2802  0.7509  0.0663
  991SOL     OW 2971   0.333   1.687   2.948  0.0565 -0.1022  0.5660
  991SOL    HW1 2972   0.434   1.705   2.938  0.0506  0.6822  0.0915
  991SOL    HW2 2973   0.312   1.594   2.983  1.5896  2.1418  0.4023
  992SOL     OW 2974   2.849   1.921   1.906 -0.1620 -0.0254 -0.1880
  992SOL    HW1 2975   2.851   1.965   1.996 -0.6210 -0.2741 -0.1798
  992SOL    HW2 2976   2.782   1.969   1.844  2.1389 -1.7425  2.8008
  993SOL     OW 2977   0.060   2.948   0.552  0.4357 -0.1711  0.1097
  993SOL    HW1 2978   0.072   3.045   0.576 -0.9135 -0.1005 -2.0180
  993SOL    HW2 2979   0.149   2.897   0.565  1.3348 -2.5344  3.0389
  994SOL     OW 2980   0.187   1.808   1.504  0.0859  0.2082  0.2196
  994SOL    HW1 2981   0.163   1.741   1.576 -0.3317  0.2851  0.6222
  994SOL    HW2 2982   0.288   1.812   1.492 -0.4685 -0.2536  1.3199
  995SOL     OW 2983   2.144   1.801   2.582  0.1198 -0.1772  0.1421
  995SOL    HW1 2984   2.206   1.877   2.573 -2.1264 -1.8265 -2.2390
  995SOL    HW2 2985   2.194   1.710   2.594  1.3403 -4.2541 -0.1724
  996SOL     OW 2986   1.992   1.664   3.093  0.3995 -0.4236  0.0073
  996SOL    HW1 2987   1.911   1.612   3.050 -2.4446  0.3603  0.4161
  996SOL    HW2 2988   2.030   1.724   3.023 -0.2582  1.8494  2.0948
  997SOL     OW 2989   1.419   1.406   1.719 -0.4368 -0.7153  0.1470
  997SOL    HW1 2990   1.329   1.373   1.751  3.0690  0.0441 -0.6580
  997SOL    HW2 2991   1.434   1.385   1.620  4.4501  1.6710 -0.0675
  998SOL     OW 2992   2.781   2.070   1.102 -0.1792 -0.1659  0.0143
  998SOL    HW1 2993   2.766   2.170   1.101 -0.8553 -2.7154 -2.2505
  998SOL    HW2 2994   2.853   2.044   1.036  0.6274 -2.2518 -0.1339
  999SOL     OW 2995   1.785   2.613   0.280 -0.6441 -0.4091 -0.6750
  999SOL    HW1 2996   1.752   2.707   0.271  2.2103 -3.2668  1.9975
  999SOL    HW2 2997   1.861   2.589   0.217 -0.6190 -2.4653 -0.0294
 1000SOL     OW 2998   0.690   2.898   0.021  0.1302  0.1150  0.2318
 1000SOL    HW1 2999   0.782   2.935   3.092 -1.4634 -0.0066 -0.3405
 1000SOL    HW2 3000   0.661   2.962   0.097  0.4712  2.8975  1.3691
   3.09614   3.09614   3.09614
