1000 SPC/Fw water molecules t= 159.00000 step= 159000
 3000
    1SOL     OW    1   2.418   2.758   0.622  0.1596 -0.1255 -0.2712
    1SOL    HW1    2   2.458   2.750   0.717 -1.6886 -1.6462 -1.5741
    1SOL    HW2    3   2.317   2.754   0.624  1.6719  0.3839 -0.0376
    2SOL     OW    4   1.382   1.879   2.368 -0.1390  0.1590  0.2314
    2SOL    HW1    5   1.430   1.923   2.289  0.6667 -1.3479 -1.6574
    2SOL    HW2    6   1.446   1.826   2.430  0.3711  0.9484 -0.3035
    3SOL     OW    7   1.748   2.374   1.916  0.3749 -0.2733  0.4150
    3SOL    HW1    8   1.729   2.277   1.902  2.3617 -0.6957  1.1451
    3SOL    HW2    9   1.830   2.392   1.974 -0.5721  3.1130 -0.7559
    4SOL     OW   10   1.949   2.391   2.076  0.1886 -0.0197  0.0827
    4SOL    HW1   11   1.998   2.303   2.061 -0.7221 -2.7260 -1.2707
    4SOL    HW2   12   2.011   2.457   2.112 -1.9315 -4.0119  1.2482
    5SOL     OW   13   0.823   0.542   1.668 -0.3466  0.5453  0.5027
    5SOL    HW1   14   0.858   0.630   1.704  0.8345 -0.1144 -3.2297
    5SOL    HW2   15   0.889   0.461   1.666  2.3773  0.0115  0.1009
    6SOL     OW   16   2.385   0.911   2.926 -0.5213  0.0317  0.0665
    6SOL    HW1   17   2.380   0.836   2.992 -0.0301  1.0076 -1.3195
    6SOL    HW2   18   2.390   0.873   2.826 -0.6535 -3.5619 -2.4691
    7SOL     OW   19   0.881   0.465   1.151 -0.6705  0.2306  0.3380
    7SOL    HW1   20   0.900   0.381   1.101 -1.0951  3.2927  0.4781
    7SOL    HW2   21   0.810   0.516   1.102  3.4650 -1.4043  1.8720
    8SOL     OW   22   1.229   2.340   1.303 -0.4193  1.1972 -0.4428
    8SOL    HW1   23   1.146   2.291   1.334  2.0583  2.1898 -1.5715
    8SOL    HW2   24   1.314   2.313   1.358  2.1203 -1.8705  1.1099
    9SOL     OW   25   0.702   0.891   0.224 -0.1753  0.3743 -0.6159
    9SOL    HW1   26   0.711   0.906   0.124  2.6241 -3.5662  3.4416
    9SOL    HW2   27   0.799   0.874   0.254 -0.8190  3.2293  1.2942
   10SOL     OW   28   0.442   2.727   2.882  0.3150 -0.2719 -0.2884
   10SOL    HW1   29   0.362   2.666   2.897  0.2497  0.7940  1.9194
   10SOL    HW2   30   0.521   2.681   2.832  0.1184  0.6812 -2.3820
   11SOL     OW   31   0.079   1.387   2.833  0.1458 -0.2136  0.1891
   11SOL    HW1   32   0.030   1.461   2.784 -0.0639 -0.3366 -1.8389
   11SOL    HW2   33   0.127   1.424   2.918 -1.8375 -1.2425 -0.1637
   12SOL     OW   34   0.791   0.091   1.355  0.3545  0.5302 -0.4374
   12SOL    HW1   35   0.777   0.060   1.260 -0.4684  0.0129 -1.9082
   12SOL    HW2   36   0.794   0.192   1.359  1.2769  0.3914  0.4625
   13SOL     OW   37   0.632   2.721   0.562  0.0548  0.5573  0.0969
   13SOL    HW1   38   0.714   2.664   0.575  0.7466  1.0918  0.2297
   13SOL    HW2   39   0.655   2.820   0.542  0.7236  0.3760  0.5372
   14SOL     OW   40   1.447   1.793   0.820  0.4558  0.3253  0.3302
   14SOL    HW1   41   1.482   1.893   0.806 -2.7800  0.4210  1.2307
   14SOL    HW2   42   1.423   1.784   0.918 -1.2374  1.1653  2.2951
   15SOL     OW   43   2.594   0.856   2.295  0.0842  0.6074 -0.7221
   15SOL    HW1   44   2.582   0.790   2.371  1.3954 -0.9573  2.2873
   15SOL    HW2   45   2.508   0.851   2.237  0.8734  0.1753  0.7771
   16SOL     OW   46   1.264   3.047   2.829 -0.1759 -0.2389  0.1936
   16SOL    HW1   47   1.330   2.996   2.891 -2.1938 -1.0268 -2.1498
   16SOL    HW2   48   1.313   0.047   2.784 -1.3847 -0.4498  3.0490
   17SOL     OW   49   0.716   2.454   1.764 -0.1516  0.1797  0.0182
   17SOL    HW1   50   0.646   2.492   1.826  4.3758 -1.3238 -3.4139
   17SOL    HW2   51   0.790   2.519   1.738 -1.3822 -2.3171 -1.8319
   18SOL     OW   52   1.322   0.649   0.091  0.3432 -0.6824 -0.1245
   18SOL    HW1   53   1.313   0.751   0.087 -0.5184  0.3755  0.5217
   18SOL    HW2   54   1.382   0.617   0.014 -1.7435 -1.1280 -0.5459
   19SOL     OW   55   2.158   1.848   2.893  0.1818 -0.1301 -0.0332
   19SOL    HW1   56   2.099   1.931   2.905  1.0364 -0.4931 -0.5466
   19SOL    HW2   57   2.210   1.858   2.809 -1.2307 -0.9414  2.7836
   20SOL     OW   58   2.114   1.881   1.956  0.1580 -0.1224 -0.3416
   20SOL    HW1   59   2.196   1.837   1.995  0.3820  2.7285 -0.1472
   20SOL    HW2   60   2.039   1.822   1.983 -1.2401  3.4752 -0.6693
   21SOL     OW   61   0.296   1.723   2.929 -0.1682  0.3026  0.7249
   21SOL    HW1   62   0.380   1.733   2.984 -0.3941  0.1303 -2.7807
   21SOL    HW2   63   0.321   1.702   2.830  1.3051  0.4774  1.6531
   22SOL     OW   64   2.486   0.030   1.430 -0.5133 -0.3589  0.6217
   22SOL    HW1   65   2.565   3.050   1.416 -4.2097 -0.5564 -0.3239
   22SOL    HW2   66   2.407   0.010   1.365 -0.8268 -0.7628  0.7647
   23SOL     OW   67   3.006   1.187   1.772  0.0111  0.0569  0.5059
   23SOL    HW1   68   2.972   1.118   1.703 -0.3459 -1.5369 -2.6917
   23SOL    HW2   69   3.065   1.251   1.714  0.5261  0.6933 -0.2466
   24SOL     OW   70   2.591   1.814   1.317  0.2049 -0.1599  0.0610
   24SOL    HW1   71   2.561   1.756   1.235  0.5955  0.6269  1.0696
   24SOL    HW2   72   2.609   1.751   1.398  2.2446 -3.0144  1.3267
   25SOL     OW   73   1.988   2.966   2.609 -0.2521  0.1123  0.4744
   25SOL    HW1   74   2.004   2.976   2.505  1.4667 -0.5192 -2.9070
   25SOL    HW2   75   1.897   2.973   2.644  0.3427  0.0810 -0.7010
   26SOL     OW   76   1.424   2.867   0.411 -0.0153  0.3995 -0.2815
   26SOL    HW1   77   1.362   2.928   0.465 -1.0102  0.7982 -1.9248
   26SOL    HW2   78   1.519   2.898   0.422 -0.3162  0.9917  0.1500
   27SOL     OW   79   0.764   2.025   3.031 -0.7949 -0.0876  0.0952
   27SOL    HW1   80   0.780   2.015   0.054  0.3979 -1.6146 -1.4781
   27SOL    HW2   81   0.691   1.962   3.003  0.7714  0.4627  0.9675
   28SOL     OW   82   2.793   1.637   1.250  0.6042  0.4060 -0.0957
   28SOL    HW1   83   2.710   1.679   1.296 -0.8291  0.3044  2.0677
   28SOL    HW2   84   2.768   1.562   1.182  0.2295  1.3284 -0.9878
   29SOL     OW   85   2.579   2.213   2.171 -0.9631  0.1264  0.1879
   29SOL    HW1   86   2.499   2.269   2.154  1.1940 -1.8938  0.7952
   29SOL    HW2   87   2.658   2.259   2.127 -0.1682  2.3392 -0.4368
   30SOL     OW   88   1.145   2.737   0.999 -0.0276 -0.2383  0.3712
   30SOL    HW1   89   1.213   2.815   0.996  3.2386  1.6450  2.6695
   30SOL    HW2   90   1.145   2.682   0.913 -2.7578 -0.9451 -2.2819
   31SOL     OW   91   2.920   2.251   1.845  0.1557  0.0369  0.4676
   31SOL    HW1   92   2.925   2.233   1.747  2.9041  1.5303  0.0468
   31SOL    HW2   93   3.012   2.268   1.886  1.0142  0.6131 -0.3564
   32SOL     OW   94   1.213   1.019   1.960  0.1557 -0.2411  0.3588
   32SOL    HW1   95   1.269   1.021   1.873  0.4411  0.7018 -0.1319
   32SOL    HW2   96   1.265   1.065   2.034  0.9003 -1.4807 -0.5642
   33SOL     OW   97   0.642   2.932   2.457 -0.6289 -0.1851 -0.4793
   33SOL    HW1   98   0.732   2.893   2.430 -2.5586  1.1874 -0.7281
   33SOL    HW2   99   0.641   2.958   2.555 -1.8050  1.2162  1.2020
   34SOL     OW  100   1.868   3.037   1.144  0.5199 -0.1389 -0.2920
   34SOL    HW1  101   1.937   0.028   1.179  0.6519 -1.2976 -0.2550
   34SOL    HW2  102   1.869   2.949   1.197 -0.1273 -1.7457  0.3627
   35SOL     OW  103   2.126   0.618   1.268 -0.0504 -0.4209 -0.1152
   35SOL    HW1  104   2.043   0.592   1.214  0.6172 -4.5167 -0.6156
   35SOL    HW2  105   2.125   0.719   1.282  0.0149 -3.1796 -0.6194
   36SOL     OW  106   2.059   2.671   2.167  0.0769  0.2883 -0.0109
   36SOL    HW1  107   2.098   2.600   2.233  1.3220 -0.1043 -0.9204
   36SOL    HW2  108   2.123   2.682   2.091 -0.1152 -2.6052  0.0052
   37SOL     OW  109   1.204   2.351   2.333  0.4033  0.2211 -0.2348
   37SOL    HW1  110   1.099   2.349   2.349 -3.6491  2.7636 -0.2457
   37SOL    HW2  111   1.245   2.290   2.402 -0.9717  1.9229  0.0491
   38SOL     OW  112   2.262   0.323   0.122 -0.4462 -0.0913  0.4038
   38SOL    HW1  113   2.276   0.220   0.122 -1.5484  1.8170  1.6141
   38SOL    HW2  114   2.308   0.372   0.043  0.2736 -0.3501  0.4368
   39SOL     OW  115   1.989   1.839   2.318  0.6120  0.6029  0.5749
   39SOL    HW1  116   1.913   1.900   2.350  0.5517  1.0882 -4.2495
   39SOL    HW2  117   1.954   1.783   2.238 -1.1464  2.0408  0.7956
   40SOL     OW  118   0.300   2.928   2.764  0.2685  0.8147 -0.5327
   40SOL    HW1  119   0.230   2.947   2.836  0.2172 -0.5034  1.5330
   40SOL    HW2  120   0.358   2.856   2.798 -0.0388  3.9677 -0.3437
   41SOL     OW  121   1.526   0.705   1.475  0.0589 -0.0912 -0.6157
   41SOL    HW1  122   1.452   0.633   1.470 -1.6208 -0.4236  0.3803
   41SOL    HW2  123   1.618   0.654   1.471  1.3035  0.0796 -0.2114
   42SOL     OW  124   0.523   0.135   1.687 -0.6090  0.1859 -0.2887
   42SOL    HW1  125   0.542   0.222   1.640  2.2494  1.3095  0.6219
   42SOL    HW2  126   0.609   0.092   1.726  0.4582  0.9081 -0.2644
   43SOL     OW  127   1.620   0.162   1.975  0.3395  0.2034  0.2313
   43SOL    HW1  128   1.601   0.203   2.063  0.7859 -1.4831 -1.0188
   43SOL    HW2  129   1.715   0.184   1.944  0.3208  0.5254 -0.6519
   44SOL     OW  130   0.210   2.553   2.578  0.5507  0.0026  0.0438
   44SOL    HW1  131   0.270   2.635   2.563 -1.0809 -2.9844  0.3066
   44SOL    HW2  132   0.113   2.578   2.561 -0.1747 -0.5368 -0.3112
   45SOL     OW  133   0.206   2.406   1.418 -0.1925  0.6985  0.2281
   45SOL    HW1  134   0.131   2.382   1.485  2.2612 -2.0015 -2.9672
   45SOL    HW2  135   0.296   2.384   1.459  1.8072  3.9265 -0.6317
   46SOL     OW  136   2.142   2.080   2.368 -0.6221  0.0389 -0.0361
   46SOL    HW1  137   2.246   2.067   2.378  4.2127  1.0881  0.0999
   46SOL    HW2  138   2.092   1.990   2.362 -1.3228 -1.8289 -1.5363
   47SOL     OW  139   1.628   1.930   1.826  0.4480 -0.2077  0.1446
   47SOL    HW1  140   1.650   1.988   1.907  0.2905  0.9540 -2.3583
   47SOL    HW2  141   1.701   1.860   1.814 -0.2518 -1.7195  1.3069
   48SOL     OW  142   0.312   1.775   0.284  0.0256  0.2564 -0.2449
   48SOL    HW1  143   0.299   1.784   0.385  0.3198 -0.6145  0.6917
   48SOL    HW2  144   0.232   1.719   0.254  0.5025 -0.7121  0.4548
   49SOL     OW  145   2.652   0.494   2.346 -0.0830  0.4200  0.4413
   49SOL    HW1  146   2.644   0.578   2.403  0.9990  1.0795 -0.9406
   49SOL    HW2  147   2.564   0.454   2.327  0.5833 -0.7324 -0.4390
   50SOL     OW  148   1.893   0.657   1.053  0.4057 -0.4547  0.3002
   50SOL    HW1  149   1.914   0.747   1.099 -3.8267 -0.6754  1.1102
   50SOL    HW2  150   1.794   0.625   1.065  0.7212 -0.3143 -0.0385
   51SOL     OW  151   1.261   0.666   0.932  0.0676 -0.6512  0.4650
   51SOL    HW1  152   1.172   0.708   0.962 -1.8566  1.0120 -0.5072
   51SOL    HW2  153   1.326   0.739   0.902 -1.6473 -1.5648 -0.2416
   52SOL     OW  154   1.382   1.216   3.055 -0.3792 -0.0797 -0.4888
   52SOL    HW1  155   1.351   1.141   2.993  0.3956  0.5633  2.2194
   52SOL    HW2  156   1.312   1.283   3.073  2.1385  0.0159 -0.1006
   53SOL     OW  157   1.212   2.021   2.820  0.0075 -0.0027 -0.0687
   53SOL    HW1  158   1.131   1.975   2.863  0.2938 -3.6579 -1.0774
   53SOL    HW2  159   1.186   2.119   2.814 -0.3548 -0.0019 -0.5059
   54SOL     OW  160   1.779   0.581   1.431 -0.3836 -0.3663  0.4484
   54SOL    HW1  161   1.768   0.514   1.351  0.9182 -1.8482 -1.6232
   54SOL    HW2  162   1.839   0.545   1.508 -0.9315 -0.2438 -0.5408
   55SOL     OW  163   1.829   2.781   0.668  0.2967  0.0545 -0.4353
   55SOL    HW1  164   1.898   2.795   0.595 -0.0004 -3.7582 -3.6784
   55SOL    HW2  165   1.766   2.857   0.674  0.3418  1.4631 -0.2220
   56SOL     OW  166   0.753   2.640   1.270 -0.1295  0.3607  0.2002
   56SOL    HW1  167   0.846   2.616   1.236  0.4777 -0.7990  2.0001
   56SOL    HW2  168   0.756   2.719   1.335 -1.4714 -0.8820 -2.7398
   57SOL     OW  169   1.988   1.203   0.332 -0.1652  0.2977 -0.2932
   57SOL    HW1  170   1.909   1.143   0.313 -0.0864 -2.1181 -1.9217
   57SOL    HW2  171   2.073   1.150   0.318  0.9074  2.6401 -0.3547
   58SOL     OW  172   0.246   1.081   2.091  0.0723  0.1595  0.0844
   58SOL    HW1  173   0.309   1.015   2.131 -0.1546 -0.2193 -0.6505
   58SOL    HW2  174   0.150   1.068   2.117  1.2734 -1.1534 -0.5766
   59SOL     OW  175   0.711   2.444   2.423 -0.3519 -0.3266 -0.0951
   59SOL    HW1  176   0.755   2.513   2.484 -0.3917 -1.1124 -1.8625
   59SOL    HW2  177   0.706   2.480   2.332 -1.8945  0.7153 -0.9648
   60SOL     OW  178   2.563   2.748   0.889  0.0631 -0.7531  0.1352
   60SOL    HW1  179   2.495   2.714   0.957  2.0978 -0.9517 -3.6778
   60SOL    HW2  180   2.556   2.847   0.884  0.0771  1.2022 -1.9333
   61SOL     OW  181   1.211   2.062   0.585 -0.1110  0.0079 -0.1219
   61SOL    HW1  182   1.186   2.037   0.682  3.9809 -1.2182 -1.7894
   61SOL    HW2  183   1.306   2.101   0.573 -2.2690  2.7615 -0.7252
   62SOL     OW  184   2.135   2.738   2.775 -0.4453  0.1804  0.0190
   62SOL    HW1  185   2.181   2.662   2.826  2.7575  1.5716 -0.0301
   62SOL    HW2  186   2.076   2.798   2.835 -0.2459 -3.1377 -1.5272
   63SOL     OW  187   1.899   0.446   0.041 -0.6865 -0.2003 -0.0833
   63SOL    HW1  188   1.950   0.395   0.119  0.9568 -0.0664  1.7451
   63SOL    HW2  189   1.857   0.528   0.084  1.9955  1.5103 -1.7070
   64SOL     OW  190   1.011   1.181   2.956 -0.4680  0.1653 -0.1850
   64SOL    HW1  191   1.024   1.271   2.908 -1.5141  0.3375  1.6807
   64SOL    HW2  192   0.928   1.177   3.011  1.8929 -1.8355  0.3240
   65SOL     OW  193   1.412   2.446   0.633 -0.3199  0.2486  0.3086
   65SOL    HW1  194   1.419   2.454   0.532 -1.0280  0.0660  1.0551
   65SOL    HW2  195   1.400   2.351   0.659 -0.4647  2.7955 -0.5986
   66SOL     OW  196   0.521   1.269   1.920  0.0027 -0.5607 -0.1697
   66SOL    HW1  197   0.552   1.264   2.018  0.2699  0.1965  0.2286
   66SOL    HW2  198   0.421   1.261   1.909  1.4458 -2.7279 -1.3483
   67SOL     OW  199   2.411   0.010   2.371 -0.0938 -0.1145 -0.2461
   67SOL    HW1  200   2.339   0.017   2.298  0.3334 -0.8500  1.1674
   67SOL    HW2  201   2.444   0.100   2.406  1.2256  1.2575 -0.7908
   68SOL     OW  202   0.879   1.102   1.166  0.4010 -0.5692  0.1567
   68SOL    HW1  203   0.869   1.014   1.208  0.3496  0.9683 -1.6960
   68SOL    HW2  204   0.843   1.104   1.071  2.3452 -0.2490  0.0558
   69SOL     OW  205   1.802   2.683   0.277 -0.8354  0.2638  0.1651
   69SOL    HW1  206   1.783   2.775   0.307  2.9735 -0.5794 -0.8326
   69SOL    HW2  207   1.845   2.618   0.343 -2.2115 -0.1210 -0.5610
   70SOL     OW  208   2.809   1.008   2.358  0.0492 -0.1513  0.0061
   70SOL    HW1  209   2.885   0.948   2.387  0.6172 -0.4385 -1.8412
   70SOL    HW2  210   2.721   0.954   2.349  0.0129 -0.4458 -2.9266
   71SOL     OW  211   2.975   1.550   3.005  0.1251 -0.1262 -0.3550
   71SOL    HW1  212   2.925   1.471   2.961  0.7925 -1.2942 -1.7261
   71SOL    HW2  213   3.020   1.608   2.936 -0.3591 -0.2104  0.7868
   72SOL     OW  214   3.024   2.078   0.397  0.0327  0.0952  0.6410
   72SOL    HW1  215   2.926   2.044   0.415 -1.7671 -2.0313 -3.9589
   72SOL    HW2  216   0.007   2.045   0.469 -1.5944 -1.2703 -0.1295
   73SOL     OW  217   0.713   1.422   0.419 -0.6060 -0.1751  0.0911
   73SOL    HW1  218   0.701   1.384   0.515  1.3301 -0.7393 -0.2979
   73SOL    HW2  219   0.702   1.526   0.426 -2.0799  2.8615  3.1354
   74SOL     OW  220   0.425   1.933   2.028 -0.1792 -0.4194 -0.0562
   74SOL    HW1  221   0.327   1.950   2.063 -2.7746 -0.3052  1.5266
   74SOL    HW2  222   0.493   1.938   2.102  1.1671 -1.4247  0.3704
   75SOL     OW  223   1.605   1.518   1.687 -0.4205 -0.5550 -0.4611
   75SOL    HW1  224   1.584   1.518   1.587  1.5935  1.7496 -0.8474
   75SOL    HW2  225   1.619   1.612   1.727 -3.6110  1.9729  2.6583
   76SOL     OW  226   2.032   2.658   1.350  0.3988  0.4688 -0.1323
   76SOL    HW1  227   2.039   2.555   1.366 -0.7117 -0.3566  1.6174
   76SOL    HW2  228   2.096   2.710   1.415  1.1959  1.2493  0.6321
   77SOL     OW  229   2.727   0.996   1.293 -0.0137  0.3770  0.2287
   77SOL    HW1  230   2.829   0.988   1.306  1.1573 -0.8033 -0.1019
   77SOL    HW2  231   2.683   0.904   1.301 -2.1291  1.8522 -1.4985
   78SOL     OW  232   1.218   0.917   0.555  0.4286  0.0371  0.6604
   78SOL    HW1  233   1.248   1.011   0.536  1.2282 -0.2308  1.9369
   78SOL    HW2  234   1.212   0.867   0.470  0.5852  1.9251  3.1991
   79SOL     OW  235   2.765   1.324   1.733  0.3896  0.0866 -0.1316
   79SOL    HW1  236   2.843   1.275   1.770 -0.4779  1.0133 -2.0333
   79SOL    HW2  237   2.779   1.333   1.633  0.5490 -1.1232  2.4414
   80SOL     OW  238   1.156   0.680   1.591  0.3995 -0.4554  0.0980
   80SOL    HW1  239   1.178   0.641   1.681 -1.1310 -0.1948  1.0891
   80SOL    HW2  240   1.143   0.608   1.519 -3.3064  0.2571  1.2164
   81SOL     OW  241   0.868   2.866   0.858 -0.1046 -0.0355  0.4468
   81SOL    HW1  242   0.964   2.891   0.833 -1.0957  1.3739  0.1104
   81SOL    HW2  243   0.810   2.945   0.835  1.0994  0.8374  0.6370
   82SOL     OW  244   1.337   0.120   1.588  0.1200 -0.0468  0.1963
   82SOL    HW1  245   1.409   0.090   1.522 -0.3915 -0.4873  1.6219
   82SOL    HW2  246   1.259   0.054   1.608 -3.2884 -1.1305  0.4294
   83SOL     OW  247   1.133   1.972   0.829 -0.0884  0.1828  0.5153
   83SOL    HW1  248   1.157   2.049   0.887 -1.8516 -2.3247  1.5348
   83SOL    HW2  249   1.163   1.882   0.870  0.1761 -1.6145  2.0701
   84SOL     OW  250   0.363   1.664   2.667  0.7239 -0.7381  0.0212
   84SOL    HW1  251   0.295   1.600   2.624 -2.5674 -0.4096 -1.5697
   84SOL    HW2  252   0.458   1.631   2.663 -1.7687 -0.4518 -1.0772
   85SOL     OW  253   0.154   2.241   1.181 -0.3744  0.8188  0.7176
   85SOL    HW1  254   0.060   2.230   1.210  3.2868  0.3762 -0.7909
   85SOL    HW2  255   0.206   2.286   1.253 -1.2364 -2.6786 -1.4791
   86SOL     OW  256   2.332   2.395   1.386  0.7225 -0.0818  0.0695
   86SOL    HW1  257   2.400   2.399   1.310 -4.2550  1.3866 -0.7542
   86SOL    HW2  258   2.364   2.434   1.471 -1.4591 -1.1517 -0.6333
   87SOL     OW  259   0.147   1.991   0.608  0.2846 -0.4219 -0.4224
   87SOL    HW1  260   0.214   1.914   0.588  0.3101  0.6318 -1.4640
   87SOL    HW2  261   0.184   2.078   0.575 -2.0311 -1.9747 -1.5055
   88SOL     OW  262   0.862   1.316   1.469 -0.3368 -0.3566  0.3891
   88SOL    HW1  263   0.944   1.266   1.504  2.9000  1.6597  0.3781
   88SOL    HW2  264   0.879   1.345   1.370  0.9114  0.4567 -2.6185
   89SOL     OW  265   1.122   3.070   1.896 -0.2444  0.1170 -0.5355
   89SOL    HW1  266   1.092   3.070   1.995 -0.8348 -2.5105  0.5222
   89SOL    HW2  267   1.052   3.033   1.833 -2.1630  2.5416  0.2153
   90SOL     OW  268   2.976   1.815   1.251 -0.7319  0.0687  0.0599
   90SOL    HW1  269   2.977   1.856   1.345  1.4643  2.8196  1.2025
   90SOL    HW2  270   2.912   1.733   1.243  0.5686 -0.7508  0.1934
   91SOL     OW  271   1.389   1.737   1.083 -0.4275 -0.2094  0.4041
   91SOL    HW1  272   1.302   1.720   1.131  0.2219 -2.3833  0.6327
   91SOL    HW2  273   1.469   1.751   1.149 -0.6006 -0.5982  1.8272
   92SOL     OW  274   2.474   2.513   1.603  0.1560  0.5110  0.5536
   92SOL    HW1  275   2.429   2.511   1.699 -1.7902  0.2227  0.6606
   92SOL    HW2  276   2.561   2.457   1.605 -0.3597  0.6865  0.4972
   93SOL     OW  277   2.752   1.564   2.703 -0.3488 -0.2185 -0.8919
   93SOL    HW1  278   2.682   1.525   2.640  1.2509 -0.6115  0.6915
   93SOL    HW2  279   2.751   1.504   2.787 -1.8314  3.6083 -2.9579
   94SOL     OW  280   2.782   2.995   2.265  0.3793 -0.4665  0.2866
   94SOL    HW1  281   2.759   0.017   2.260 -0.9625  1.2421 -0.0496
   94SOL    HW2  282   2.807   2.968   2.172  2.6840  1.4767  2.4071
   95SOL     OW  283   1.535   0.384   1.791 -0.6276  0.5183  0.1110
   95SOL    HW1  284   1.546   0.306   1.857  2.9654  0.9661  0.8905
   95SOL    HW2  285   1.521   0.475   1.840 -1.3159 -0.2296 -1.5117
   96SOL     OW  286   2.972   0.352   1.579  0.1304  0.4184 -0.1644
   96SOL    HW1  287   2.931   0.439   1.541  1.0706 -1.3672 -1.0958
   96SOL    HW2  288   2.997   0.361   1.677 -1.5643  0.2177 -0.1545
   97SOL     OW  289   2.061   0.378   1.414 -0.8588 -0.0286  0.1981
   97SOL    HW1  290   2.108   0.463   1.378 -2.2497  0.7281  0.2525
   97SOL    HW2  291   2.049   0.372   1.516 -1.9460 -2.3761 -0.6265
   98SOL     OW  292   1.690   2.523   1.330 -0.4580  0.9189  1.0515
   98SOL    HW1  293   1.774   2.579   1.304 -0.4502  0.0972 -2.7099
   98SOL    HW2  294   1.670   2.538   1.427  2.3007 -1.6483 -0.2340
   99SOL     OW  295   2.842   0.072   1.657  0.0815  0.3121 -0.5033
   99SOL    HW1  296   2.817   0.171   1.671 -1.1672  0.7826  2.4006
   99SOL    HW2  297   2.928   0.061   1.617 -2.8726 -0.2087  0.7176
  100SOL     OW  298   2.641   1.202   2.222 -0.0076  0.4277 -0.6945
  100SOL    HW1  299   2.652   1.301   2.226  0.3123 -0.8637  1.0197
  100SOL    HW2  300   2.721   1.149   2.256 -0.4987 -1.0926  0.8923
  101SOL     OW  301   1.414   0.656   0.669 -0.2868  0.3485  0.3647
  101SOL    HW1  302   1.459   0.588   0.731 -0.8296  0.1962 -0.3325
  101SOL    HW2  303   1.375   0.738   0.711 -0.2082 -0.5065 -0.1492
  102SOL     OW  304   0.592   0.840   1.327  0.3860 -0.1887  0.1364
  102SOL    HW1  305   0.502   0.870   1.304  3.2928 -0.5948 -3.6581
  102SOL    HW2  306   0.599   0.806   1.421 -1.0901 -0.4361  0.6579
  103SOL     OW  307   2.356   0.699   0.015 -0.0474 -0.1603 -0.0180
  103SOL    HW1  308   2.269   0.741   0.052 -0.0309 -1.4349 -1.5070
  103SOL    HW2  309   2.429   0.702   0.084  0.5731  1.8940  0.0538
  104SOL     OW  310   0.032   0.119   2.082 -0.5044  0.3467  0.0120
  104SOL    HW1  311   0.012   0.029   2.035 -1.7956  0.1370  1.4400
  104SOL    HW2  312   3.029   0.177   2.091  2.4087 -1.2013  0.8791
  105SOL     OW  313   1.877   0.779   1.715 -0.0750  0.8660  0.2736
  105SOL    HW1  314   1.824   0.858   1.732  2.9969 -3.6192 -2.1413
  105SOL    HW2  315   1.974   0.800   1.699 -0.5279 -0.9816 -2.5394
  106SOL     OW  316   1.685   0.044   0.936 -0.4903 -0.0285 -0.1775
  106SOL    HW1  317   1.742   3.072   1.005  0.9281 -0.9795  0.5342
  106SOL    HW2  318   1.670   3.072   0.852  0.0426  1.5194  3.8664
  107SOL     OW  319   0.263   1.099   0.762 -0.2134  0.1410  0.3992
  107SOL    HW1  320   0.239   1.094   0.663 -1.8387 -1.3618  1.1241
  107SOL    HW2  321   0.220   1.166   0.818 -1.9207 -0.2794 -1.6708
  108SOL     OW  322   2.893   0.263   2.056  0.5333 -0.1851 -0.4219
  108SOL    HW1  323   2.858   0.301   1.972  0.7287  1.1058  1.9926
  108SOL    HW2  324   2.824   0.237   2.125 -0.6565  0.7476 -1.7295
  109SOL     OW  325   2.456   0.375   0.576 -0.4944  0.2741 -0.0070
  109SOL    HW1  326   2.393   0.400   0.502  1.4521  0.3468  2.0343
  109SOL    HW2  327   2.442   0.278   0.608 -1.0632  0.1260  0.8901
  110SOL     OW  328   0.359   2.357   2.739 -0.3815 -0.5550  0.4437
  110SOL    HW1  329   0.308   2.433   2.695  0.2841  1.7103  0.9486
  110SOL    HW2  330   0.455   2.344   2.700  2.4894  0.8792  1.2634
  111SOL     OW  331   1.724   2.975   2.035 -0.6137 -0.0820 -0.5053
  111SOL    HW1  332   1.676   3.064   2.022  1.7272 -0.1897 -0.5841
  111SOL    HW2  333   1.789   2.962   1.957 -1.6995 -0.9702 -0.7909
  112SOL     OW  334   2.134   2.566   0.147  0.2006 -0.4715 -0.0025
  112SOL    HW1  335   2.170   2.635   0.079 -0.3840 -1.2284 -0.3882
  112SOL    HW2  336   2.210   2.528   0.207  1.0546 -1.5936  0.7923
  113SOL     OW  337   2.418   2.137   1.732  0.2754  1.0743  0.0833
  113SOL    HW1  338   2.487   2.194   1.685 -2.1926  0.1237  3.0765
  113SOL    HW2  339   2.330   2.181   1.756 -0.1332  1.0354 -1.0788
  114SOL     OW  340   2.798   1.063   0.915  0.1267  0.5533 -0.2677
  114SOL    HW1  341   2.699   1.032   0.912 -1.9858 -1.9201 -1.6005
  114SOL    HW2  342   2.855   1.033   0.835  2.6465 -0.4477 -0.2346
  115SOL     OW  343   2.898   1.778   0.055 -0.1908 -0.2154 -0.5937
  115SOL    HW1  344   2.993   1.810   0.083 -0.0788 -0.7277 -0.9943
  115SOL    HW2  345   2.907   1.700   3.063  0.5537 -0.8793 -4.8236
  116SOL     OW  346   3.043   1.285   2.231 -0.4180 -0.0502 -0.2842
  116SOL    HW1  347   3.009   1.192   2.210  0.3492  0.8570  0.0301
  116SOL    HW2  348   0.001   1.323   2.143 -0.5816  2.2983 -3.3173
  117SOL     OW  349   2.505   3.015   0.948  0.1719  0.3240  0.1799
  117SOL    HW1  350   2.410   2.976   0.934  1.2118  1.9299 -0.9523
  117SOL    HW2  351   2.512   0.020   0.890 -2.0232 -0.5865  1.4096
  118SOL     OW  352   0.447   2.116   1.530  0.4953  0.0977 -0.4847
  118SOL    HW1  353   0.469   2.099   1.628  1.4868 -1.0832 -0.0153
  118SOL    HW2  354   0.442   2.217   1.516 -0.3614 -1.0559  1.7118
  119SOL     OW  355   1.726   2.134   0.485 -0.0094 -0.1809  0.9136
  119SOL    HW1  356   1.698   2.040   0.457 -0.9762  3.2643 -1.5876
  119SOL    HW2  357   1.828   2.139   0.509  2.4001  1.5949  0.8698
  120SOL     OW  358   0.003   1.923   2.423 -0.8298  0.2304  0.2034
  120SOL    HW1  359   0.098   1.880   2.427 -0.9494  1.7088 -1.1712
  120SOL    HW2  360   0.005   2.022   2.399  2.0257  2.3762  0.4133
  121SOL     OW  361   2.164   2.074   1.346  0.6539 -0.2809 -0.3408
  121SOL    HW1  362   2.087   2.004   1.344 -1.9489 -1.8436 -0.5887
  121SOL    HW2  363   2.137   2.165   1.306  2.5972 -1.7786  1.4439
  122SOL     OW  364   2.187   1.305   2.254  0.5456  0.0527 -0.5379
  122SOL    HW1  365   2.255   1.269   2.314 -3.7232  2.2082 -3.4323
  122SOL    HW2  366   2.228   1.376   2.190 -2.1787  2.6048 -0.2897
  123SOL     OW  367   0.049   2.770   0.571  0.0288 -0.1352 -0.4802
  123SOL    HW1  368   3.058   2.830   0.518 -0.3065 -0.6215 -2.0773
  123SOL    HW2  369   3.078   2.744   0.658  0.2655 -1.0654 -0.3675
  124SOL     OW  370   1.840   0.661   2.587 -0.2679 -0.1949 -0.1361
  124SOL    HW1  371   1.897   0.739   2.610  1.1159 -0.3439  0.4432
  124SOL    HW2  372   1.743   0.689   2.591 -1.8554 -2.3958 -1.5104
  125SOL     OW  373   0.515   1.448   2.876  0.8535 -0.3134  0.4529
  125SOL    HW1  374   0.588   1.514   2.872 -1.5222  1.4669  0.8033
  125SOL    HW2  375   0.514   1.409   2.970  0.8753  1.2988  1.1112
  126SOL     OW  376   2.699   1.943   0.049 -0.3120 -0.2501  0.2900
  126SOL    HW1  377   2.710   2.043   0.042  0.8798 -1.6506  0.9386
  126SOL    HW2  378   2.788   1.890   0.045 -0.2652  2.5257  1.7711
  127SOL     OW  379   0.583   1.620   1.221  0.7380 -0.1971 -0.0023
  127SOL    HW1  380   0.531   1.706   1.240 -2.6857  3.3654  0.6357
  127SOL    HW2  381   0.547   1.541   1.276  0.3471 -4.3943  1.5395
  128SOL     OW  382   0.864   0.585   0.161 -0.8979  0.5316 -0.1824
  128SOL    HW1  383   0.828   0.615   0.068 -1.2256  1.6885 -1.3365
  128SOL    HW2  384   0.956   0.547   0.148  0.0300  2.1142  1.2266
  129SOL     OW  385   2.241   1.367   0.829 -0.4064  0.2159 -0.8111
  129SOL    HW1  386   2.179   1.380   0.752  4.1325 -2.7433  2.0612
  129SOL    HW2  387   2.338   1.394   0.804  3.0563 -0.6138 -2.0636
  130SOL     OW  388   2.126   1.809   0.910  0.8724 -0.9498 -0.1600
  130SOL    HW1  389   2.202   1.824   0.975 -1.4161 -1.5060  2.4813
  130SOL    HW2  390   2.056   1.754   0.966 -1.3425 -3.4930  0.6894
  131SOL     OW  391   2.750   1.071   2.805  0.9468 -0.3561  0.1727
  131SOL    HW1  392   2.719   1.124   2.882 -1.0761  3.0242  3.2577
  131SOL    HW2  393   2.847   1.086   2.781  0.0408 -1.1372  3.3267
  132SOL     OW  394   2.596   1.691   1.796  0.3593  0.3733 -0.1382
  132SOL    HW1  395   2.557   1.776   1.835 -1.8424  0.4179 -0.8753
  132SOL    HW2  396   2.627   1.625   1.867 -2.6420  0.8694  0.7164
  133SOL     OW  397   2.951   0.772   0.105  0.2434 -0.0278 -0.5550
  133SOL    HW1  398   2.977   0.739   0.201 -1.8415 -1.4772 -0.1356
  133SOL    HW2  399   3.030   0.800   0.053  0.0104 -0.8547  0.1146
  134SOL     OW  400   0.285   1.183   0.038 -0.3155 -0.1160  0.8738
  134SOL    HW1  401   0.292   1.278   0.001 -0.5351 -2.1404 -0.8219
  134SOL    HW2  402   0.352   1.116   3.069  2.3761 -0.9163  1.6806
  135SOL     OW  403   2.301   1.744   0.652  0.1080  0.6542  0.3409
  135SOL    HW1  404   2.238   1.748   0.730 -0.1356 -0.7289  2.4596
  135SOL    HW2  405   2.285   1.806   0.574 -0.5814  0.4719  1.0097
  136SOL     OW  406   1.991   1.468   1.321  0.4043 -0.0998 -0.0763
  136SOL    HW1  407   1.991   1.387   1.387  1.6482 -1.1658 -0.7883
  136SOL    HW2  408   2.018   1.448   1.225  0.1944 -1.2892  0.2490
  137SOL     OW  409   2.537   1.719   0.831 -0.4123  0.7817  0.0709
  137SOL    HW1  410   2.615   1.781   0.848  0.3167 -0.7568  0.6050
  137SOL    HW2  411   2.476   1.752   0.759 -1.3366  0.1498  0.8690
  138SOL     OW  412   1.014   0.318   1.421  0.2748 -0.2608  0.7720
  138SOL    HW1  413   1.077   0.391   1.386 -0.0095 -0.1089  0.5141
  138SOL    HW2  414   1.024   0.232   1.364 -2.1177 -1.3486  1.6113
  139SOL     OW  415   2.184   0.020   0.140  0.0453  0.4314 -0.2917
  139SOL    HW1  416   2.108   0.029   0.072 -0.5042 -1.3148  0.7572
  139SOL    HW2  417   2.151   0.027   0.240  1.0664  1.8947  1.8456
  140SOL     OW  418   1.452   1.998   2.702  0.1374  0.7310  0.3479
  140SOL    HW1  419   1.361   1.994   2.746  2.5084 -1.7857  1.2643
  140SOL    HW2  420   1.471   2.080   2.646 -0.2676 -0.3708  0.2455
  141SOL     OW  421   1.038   1.171   1.600  0.6856 -0.5706 -0.2089
  141SOL    HW1  422   1.004   1.218   1.686 -1.4379 -0.8192 -2.3888
  141SOL    HW2  423   1.042   1.071   1.627  0.7077 -1.4220 -1.2527
  142SOL     OW  424   2.661   0.125   0.125  0.7250 -0.3167 -0.5436
  142SOL    HW1  425   2.635   0.115   0.220  1.0653 -0.1006  0.5627
  142SOL    HW2  426   2.752   0.081   0.111  1.7148  1.3790 -1.3486
  143SOL     OW  427   0.791   2.481   3.019  0.7933 -0.2122  0.0432
  143SOL    HW1  428   0.793   2.452   0.036  0.3253  1.3845 -2.2725
  143SOL    HW2  429   0.828   2.575   3.014 -2.2877  0.1586 -0.4362
  144SOL     OW  430   1.095   2.738   2.449 -0.3568  0.3104  0.3075
  144SOL    HW1  431   1.104   2.650   2.503  0.3597 -1.5571 -1.6431
  144SOL    HW2  432   1.136   2.811   2.510  1.2755 -1.3073  0.7562
  145SOL     OW  433   2.390   1.516   0.096 -0.4845  0.2917  0.0315
  145SOL    HW1  434   2.486   1.535   0.070  0.1687  0.2790 -0.3775
  145SOL    HW2  435   2.337   1.601   0.077  0.1463  1.9756  0.2767
  146SOL     OW  436   2.636   2.781   0.044  0.4135  0.0541 -0.3491
  146SOL    HW1  437   2.639   2.822   0.139 -1.1162 -0.5020  0.7711
  146SOL    HW2  438   2.728   2.777   0.000  2.4616  0.0526 -2.0747
  147SOL     OW  439   2.501   2.458   1.189  0.1542 -0.3006  0.6320
  147SOL    HW1  440   2.460   2.557   1.188 -2.4004  1.3074  1.4384
  147SOL    HW2  441   2.511   2.415   1.095 -0.7518 -1.6582 -0.8417
  148SOL     OW  442   1.685   0.218   0.093 -0.0335 -0.6004 -0.0805
  148SOL    HW1  443   1.752   0.284   0.055  0.7000 -1.4880 -0.7145
  148SOL    HW2  444   1.590   0.254   0.111  0.0412 -0.5552 -0.9350
  149SOL     OW  445   1.075   1.408   2.782  0.0368  0.7354  0.0523
  149SOL    HW1  446   1.143   1.325   2.784  3.4173 -1.1195 -1.6267
  149SOL    HW2  447   1.013   1.392   2.699 -1.8682 -0.5822 -1.0895
  150SOL     OW  448   0.822   2.513   0.605 -0.5036 -0.5449 -0.4595
  150SOL    HW1  449   0.911   2.545   0.564  0.5586 -1.1159  0.2274
  150SOL    HW2  450   0.815   2.414   0.626  0.7980  1.2739 -1.0805
  151SOL     OW  451   0.563   1.840   2.916  0.2175 -0.4839  0.5018
  151SOL    HW1  452   0.525   1.876   2.828  0.3365 -1.9136  1.3366
  151SOL    HW2  453   0.622   1.763   2.897 -2.8608  2.2855 -1.4045
  152SOL     OW  454   2.836   1.211   0.355  0.2295 -0.2898 -0.4342
  152SOL    HW1  455   2.922   1.233   0.409 -1.5276  1.9211 -0.0456
  152SOL    HW2  456   2.754   1.203   0.413 -2.7314 -1.7198  1.2928
  153SOL     OW  457   2.411   2.495   0.228 -1.0425  0.0548  0.4925
  153SOL    HW1  458   2.448   2.522   0.321  3.4451  1.3853  1.3953
  153SOL    HW2  459   2.473   2.520   0.152 -0.2107  0.7143 -0.2313
  154SOL     OW  460   0.721   3.043   1.125  0.2807  0.2311  0.3604
  154SOL    HW1  461   0.647   2.997   1.179  0.3038  0.2668  0.7134
  154SOL    HW2  462   0.687   0.015   1.044  0.1593 -1.3602 -3.5952
  155SOL     OW  463   0.464   1.883   1.256 -0.9269  0.5551 -0.5540
  155SOL    HW1  464   0.427   1.933   1.175  2.7048 -0.7152  0.0115
  155SOL    HW2  465   0.429   1.920   1.340 -1.3412  0.4251  0.7590
  156SOL     OW  466   2.453   2.310   2.971  0.0836  0.8276 -0.3047
  156SOL    HW1  467   2.472   2.227   2.915  0.9235 -1.5088 -0.4503
  156SOL    HW2  468   2.534   2.365   2.993 -1.5719 -0.0339 -0.8992
  157SOL     OW  469   0.949   2.129   1.145 -0.0179 -0.1702  0.5239
  157SOL    HW1  470   0.907   2.207   1.101  0.6771 -1.2542 -0.7187
  157SOL    HW2  471   0.881   2.052   1.163  0.5122  1.0898 -0.7488
  158SOL     OW  472   1.759   0.796   2.869  0.5248  0.2145 -0.2655
  158SOL    HW1  473   1.735   0.701   2.878 -0.9281  2.5757  3.2387
  158SOL    HW2  474   1.675   0.855   2.863 -3.9637 -0.5846 -0.4846
  159SOL     OW  475   1.016   0.506   2.520 -0.4194 -0.2041 -0.3103
  159SOL    HW1  476   0.924   0.466   2.491 -1.0324 -0.3046 -2.7560
  159SOL    HW2  477   1.081   0.428   2.520 -0.7057 -1.9769 -1.5988
  160SOL     OW  478   1.242   1.800   0.409 -0.5016 -0.2949  0.1018
  160SOL    HW1  479   1.242   1.885   0.470  0.7662 -1.8085  0.5315
  160SOL    HW2  480   1.183   1.823   0.329 -0.2042 -3.4502  0.9840
  161SOL     OW  481   3.068   2.211   3.070 -0.0624  0.6953  0.5737
  161SOL    HW1  482   0.026   2.116   3.056  0.2985  2.6543 -1.0512
  161SOL    HW2  483   0.001   2.241   0.086 -1.1664 -0.6095 -3.6860
  162SOL     OW  484   0.570   2.625   1.080 -0.1725 -0.3261  0.1600
  162SOL    HW1  485   0.637   2.634   1.001  3.0092 -0.8632  0.5835
  162SOL    HW2  486   0.618   2.653   1.165 -0.5816 -1.0080  0.8770
  163SOL     OW  487   2.602   0.995   3.057 -0.3084 -0.0241 -0.2380
  163SOL    HW1  488   2.524   0.993   2.988 -0.5602  0.1831  1.2587
  163SOL    HW2  489   2.649   0.905   3.059  2.6618  0.8799 -1.6708
  164SOL     OW  490   0.225   2.573   2.930 -0.1654 -0.1723 -0.3264
  164SOL    HW1  491   0.239   2.535   3.023  0.8102  0.5457 -0.0354
  164SOL    HW2  492   0.164   2.527   2.869  1.7630  4.3377  2.3720
  165SOL     OW  493   2.355   0.460   1.310  0.5457  0.4408  0.1349
  165SOL    HW1  494   2.355   0.485   1.410  2.8798  2.8841  2.1975
  165SOL    HW2  495   2.295   0.529   1.262  0.7658  0.0696 -0.1465
  166SOL     OW  496   1.923   0.307   1.014 -0.0249 -0.0147  0.7483
  166SOL    HW1  497   1.977   0.381   0.968  1.3098  2.1243 -1.7114
  166SOL    HW2  498   1.899   0.235   0.943 -2.5958  0.3058 -1.4851
  167SOL     OW  499   0.739   0.481   1.973 -0.4575 -0.5593 -1.1215
  167SOL    HW1  500   0.745   0.541   1.893  1.0125  1.1699  2.1170
  167SOL    HW2  501   0.781   0.528   2.057 -0.0930  2.8803 -2.2982
  168SOL     OW  502   2.614   0.360   1.897  0.2420 -0.4085  0.4831
  168SOL    HW1  503   2.597   0.294   1.975  2.0371  2.9143  2.5661
  168SOL    HW2  504   2.573   0.329   1.810 -0.7656 -0.3376  0.5151
  169SOL     OW  505   0.229   1.349   0.438  0.2692  0.4069  0.1406
  169SOL    HW1  506   0.222   1.261   0.386 -0.0362 -2.2209 -3.4720
  169SOL    HW2  507   0.156   1.356   0.506  3.4201 -0.4400 -0.2026
  170SOL     OW  508   0.234   1.052   1.646 -0.0561  0.1894 -0.3224
  170SOL    HW1  509   0.332   1.074   1.617  0.5219  0.0130 -0.0502
  170SOL    HW2  510   0.215   0.952   1.641 -0.3187 -2.0608 -1.9646
  171SOL     OW  511   1.183   1.890   1.808 -0.1668 -0.0796  0.8030
  171SOL    HW1  512   1.141   1.856   1.888  2.5705  1.3073 -2.3554
  171SOL    HW2  513   1.120   1.899   1.729  1.2770 -1.3098  0.7676
  172SOL     OW  514   0.451   2.397   1.491  0.7228 -0.5174  0.8377
  172SOL    HW1  515   0.475   2.493   1.522  3.8834  1.5902 -0.6670
  172SOL    HW2  516   0.527   2.377   1.421  3.6536 -0.0082 -2.5893
  173SOL     OW  517   1.102   2.792   0.655 -0.0169  0.4746 -0.3560
  173SOL    HW1  518   1.025   2.808   0.591 -0.3756  0.6999  1.5943
  173SOL    HW2  519   1.109   2.693   0.673 -2.0968 -0.6229  2.3402
  174SOL     OW  520   0.844   2.709   0.192  0.4445 -0.5799  0.7660
  174SOL    HW1  521   0.757   2.766   0.195 -1.0964  2.3441  0.4562
  174SOL    HW2  522   0.892   2.729   0.106  0.4780  0.2290 -3.4567
  175SOL     OW  523   1.221   0.998   2.968  0.1349 -0.2724 -1.1054
  175SOL    HW1  524   1.237   0.964   3.064  1.1190 -2.4709  0.5001
  175SOL    HW2  525   1.145   1.061   2.960  2.1900 -1.1714 -1.1486
  176SOL     OW  526   1.511   0.616   0.297 -0.4324  0.8492  0.0004
  176SOL    HW1  527   1.417   0.635   0.254 -0.5165 -0.7096  1.8462
  176SOL    HW2  528   1.534   0.675   0.371 -0.0145 -1.7605 -0.1595
  177SOL     OW  529   1.472   1.213   0.937  0.0324  0.4638  0.1179
  177SOL    HW1  530   1.437   1.302   0.936  1.5889 -2.1321  3.7352
  177SOL    HW2  531   1.552   1.214   0.875  0.0105  0.3451 -3.4506
  178SOL     OW  532   2.733   1.819   2.604 -0.3212  0.4226 -0.0344
  178SOL    HW1  533   2.736   1.719   2.631  0.7280 -2.1149 -0.7530
  178SOL    HW2  534   2.742   1.828   2.503 -1.2832 -1.7808 -2.3176
  179SOL     OW  535   0.587   2.952   2.730 -0.1292  0.3622 -0.7269
  179SOL    HW1  536   0.490   2.974   2.756  0.4455  0.4259  1.6047
  179SOL    HW2  537   0.656   2.998   2.792 -1.9532 -0.4498  2.9009
  180SOL     OW  538   1.762   1.566   1.261 -0.3200  0.0956 -0.2555
  180SOL    HW1  539   1.858   1.546   1.290 -2.3987  0.2109 -0.2183
  180SOL    HW2  540   1.759   1.579   1.161  0.6027  1.8887 -1.1212
  181SOL     OW  541   0.958   1.221   2.343 -0.0373  0.0845  0.5303
  181SOL    HW1  542   0.922   1.165   2.267  0.1285  1.2793 -1.9522
  181SOL    HW2  543   1.065   1.211   2.362  0.3711 -1.2735 -0.4178
  182SOL     OW  544   2.712   0.815   2.748 -0.1068  0.8990 -0.1354
  182SOL    HW1  545   2.729   0.915   2.753 -0.8212 -1.4664 -1.7174
  182SOL    HW2  546   2.703   0.780   2.844  2.3406  1.5325 -0.8893
  183SOL     OW  547   1.651   0.071   2.380  0.1459 -0.7022  0.1512
  183SOL    HW1  548   1.630   0.085   2.478  0.8335  1.0511 -0.7844
  183SOL    HW2  549   1.597   3.073   2.332 -2.5933 -1.6111 -1.7608
  184SOL     OW  550   0.534   0.363   1.543 -0.1726 -0.1190 -0.0794
  184SOL    HW1  551   0.513   0.438   1.612  0.0994  0.4882 -0.7562
  184SOL    HW2  552   0.610   0.383   1.480 -1.7405  1.2303  0.9256
  185SOL     OW  553   2.506   1.435   0.767  0.1347 -0.5347  0.2626
  185SOL    HW1  554   2.509   1.531   0.806 -0.7314  1.3374  3.4829
  185SOL    HW2  555   2.581   1.385   0.814  1.5032  0.3356 -1.0676
  186SOL     OW  556   0.222   2.125   2.804  0.0873  0.5418 -0.3488
  186SOL    HW1  557   0.270   2.215   2.790 -1.9118 -1.7620  3.0775
  186SOL    HW2  558   0.248   2.081   2.896 -0.2072  1.1093  0.8836
  187SOL     OW  559   2.661   1.587   0.072  0.5885 -0.9040  0.5039
  187SOL    HW1  560   2.687   1.678   0.105  1.3346  0.6954  0.8441
  187SOL    HW2  561   2.729   1.554   0.004  1.1644 -3.7730  0.1268
  188SOL     OW  562   0.551   2.009   0.429  0.0339  0.2565  0.0338
  188SOL    HW1  563   0.613   1.928   0.408  1.7634  0.4777  0.8948
  188SOL    HW2  564   0.470   2.020   0.366 -2.5034  1.9148  2.8928
  189SOL     OW  565   2.521   1.051   0.296 -0.4728  0.6594  0.3188
  189SOL    HW1  566   2.598   0.993   0.254  0.4506 -0.4537 -1.0394
  189SOL    HW2  567   2.548   1.147   0.288 -0.1671 -1.2823 -1.7344
  190SOL     OW  568   1.189   1.594   2.094  0.5370 -0.4922  0.1296
  190SOL    HW1  569   1.109   1.638   2.140  1.5804 -1.4082  0.4287
  190SOL    HW2  570   1.154   1.539   2.013  0.0595  2.1365 -1.9782
  191SOL     OW  571   2.862   0.618   1.466  0.1798  0.2665  0.0476
  191SOL    HW1  572   2.915   0.707   1.452 -1.1744  2.0521  0.2280
  191SOL    HW2  573   2.773   0.607   1.412 -0.9138 -0.1599  0.5240
  192SOL     OW  574   2.120   0.352   1.760  0.0550  0.6495  0.0574
  192SOL    HW1  575   2.121   0.252   1.782 -0.7266  0.0627 -1.4273
  192SOL    HW2  576   2.161   0.412   1.834  3.0326  2.7128  3.7651
  193SOL     OW  577   0.353   0.625   0.474 -0.2762  0.7883 -0.0593
  193SOL    HW1  578   0.392   0.562   0.548  1.6612 -0.0651 -0.1323
  193SOL    HW2  579   0.431   0.676   0.439  0.6101 -1.3402 -1.9343
  194SOL     OW  580   1.631   2.541   1.605  0.6335 -0.5545 -0.3342
  194SOL    HW1  581   1.710   2.503   1.654 -2.2605 -1.8766 -0.4242
  194SOL    HW2  582   1.554   2.552   1.667  2.2898  2.7193 -1.7965
  195SOL     OW  583   2.367   0.615   0.732  0.0323 -0.4345 -0.1130
  195SOL    HW1  584   2.410   0.552   0.665  0.9792  0.2169  1.1380
  195SOL    HW2  585   2.317   0.694   0.692  2.7849 -2.3183 -1.0539
  196SOL     OW  586   1.797   2.199   2.265 -0.3153  0.2585  0.3521
  196SOL    HW1  587   1.808   2.111   2.315 -3.1329  1.2905 -0.1455
  196SOL    HW2  588   1.858   2.272   2.301 -1.4656 -1.3069 -2.5891
  197SOL     OW  589   0.379   3.059   3.042 -0.2423 -0.6224  0.5179
  197SOL    HW1  590   0.404   2.969   0.004 -0.1160 -0.1453 -1.1872
  197SOL    HW2  591   0.276   3.069   3.034 -1.6741 -2.0578  0.1082
  198SOL     OW  592   1.049   1.209   0.752 -0.0145 -0.0538  0.1723
  198SOL    HW1  593   1.087   1.303   0.733  1.8754 -0.1730  0.9335
  198SOL    HW2  594   1.112   1.158   0.811  1.2403 -1.3167 -0.4351
  199SOL     OW  595   2.491   0.808   1.708  0.4125 -0.4334  0.1514
  199SOL    HW1  596   2.527   0.737   1.771  0.8065 -1.0840  0.5151
  199SOL    HW2  597   2.550   0.892   1.704  0.0302  2.4350  0.1256
  200SOL     OW  598   2.552   2.584   2.286  0.1484  0.6640 -1.3068
  200SOL    HW1  599   2.547   2.686   2.269  0.3653  3.3767 -1.4451
  200SOL    HW2  600   2.552   2.563   2.390 -1.2748  1.4083 -0.9244
  201SOL     OW  601   2.860   0.225   1.180 -0.2286  0.4683  0.4606
  201SOL    HW1  602   2.796   0.302   1.153  1.8176  1.2978 -0.4080
  201SOL    HW2  603   2.803   0.140   1.202  1.1777 -2.9773  0.5942
  202SOL     OW  604   2.035   0.611   0.653 -0.0068  0.2397 -0.3081
  202SOL    HW1  605   1.939   0.636   0.672 -1.3525 -3.3205 -1.6395
  202SOL    HW2  606   2.073   0.547   0.725  0.9748 -0.9453  0.2816
  203SOL     OW  607   1.684   1.785   2.193  0.5464  0.3643 -0.0723
  203SOL    HW1  608   1.618   1.863   2.180 -1.2368  0.2052  1.6861
  203SOL    HW2  609   1.691   1.769   2.292  0.5706  1.9921  0.7432
  204SOL     OW  610   0.876   1.615   2.448 -0.2139  0.2656  0.6141
  204SOL    HW1  611   0.919   1.535   2.501 -1.6100 -0.0612  1.0488
  204SOL    HW2  612   0.948   1.669   2.402  0.8092  0.8923  0.6079
  205SOL     OW  613   0.846   1.741   1.451 -0.1080 -0.4146 -0.4090
  205SOL    HW1  614   0.851   1.694   1.361  0.9182 -1.7002 -1.2456
  205SOL    HW2  615   0.771   1.717   1.518  1.1752 -2.1410  0.5831
  206SOL     OW  616   2.875   0.434   2.985  0.0652  0.3385 -0.0496
  206SOL    HW1  617   2.863   0.483   2.896  1.3923 -0.3197 -0.0211
  206SOL    HW2  618   2.791   0.437   3.043 -0.6110  1.0744  0.4169
  207SOL     OW  619   1.604   2.571   2.027 -0.0118  0.3179 -0.6535
  207SOL    HW1  620   1.667   2.623   2.087  1.2159  2.1142 -2.4810
  207SOL    HW2  621   1.655   2.493   1.979 -1.4096 -2.8498  1.0810
  208SOL     OW  622   0.650   2.345   1.328 -0.0426  0.0870  0.1987
  208SOL    HW1  623   0.687   2.439   1.318 -2.0019  0.1945 -1.1481
  208SOL    HW2  624   0.624   2.306   1.239  1.2077  1.1626 -0.5517
  209SOL     OW  625   1.357   1.104   2.162  0.1037 -0.1268  0.1639
  209SOL    HW1  626   1.415   1.182   2.133  0.5684  0.4859 -2.5075
  209SOL    HW2  627   1.290   1.131   2.236  1.9197  0.3707 -1.7267
  210SOL     OW  628   1.785   0.883   1.355  0.4230  0.8041  0.1870
  210SOL    HW1  629   1.736   0.881   1.264  0.7072 -0.8295 -0.2966
  210SOL    HW2  630   1.763   0.798   1.410  0.0501 -0.1536 -0.5405
  211SOL     OW  631   0.703   2.971   0.488 -0.0094 -0.0571 -0.5703
  211SOL    HW1  632   0.653   2.952   0.399  2.0660  2.7876  0.3225
  211SOL    HW2  633   0.692   3.070   0.517 -1.4088 -0.1262 -0.1835
  212SOL     OW  634   1.760   1.526   0.073  0.3080  0.1023  0.3742
  212SOL    HW1  635   1.768   1.616   0.032  1.1793 -1.8286  1.9327
  212SOL    HW2  636   1.852   1.481   0.069  0.9922 -0.2884 -0.0122
  213SOL     OW  637   1.417   0.217   2.472  1.1692 -0.7085 -0.7833
  213SOL    HW1  638   1.454   0.264   2.385  1.0319  0.7323 -0.6865
  213SOL    HW2  639   1.496   0.202   2.532 -1.9086 -2.1247 -2.0321
  214SOL     OW  640   1.505   1.573   2.055 -0.2346 -0.2562 -0.1143
  214SOL    HW1  641   1.558   1.653   2.095 -0.5324  2.9453  0.8614
  214SOL    HW2  642   1.404   1.576   2.072 -0.1362  0.0650  0.7956
  215SOL     OW  643   0.698   1.761   0.199 -0.3967 -0.5821 -0.2917
  215SOL    HW1  644   0.761   1.840   0.206 -0.7719  0.9289  0.0476
  215SOL    HW2  645   0.653   1.741   0.294  0.0936  0.5866  2.7825
  216SOL     OW  646   0.364   2.901   2.226 -0.6205  0.0787  0.0152
  216SOL    HW1  647   0.451   2.944   2.202 -1.6005 -0.8989 -0.2069
  216SOL    HW2  648   0.353   2.908   2.327 -0.0007 -1.6625 -0.9337
  217SOL     OW  649   2.243   1.114   0.909  0.2026 -0.0353 -0.4456
  217SOL    HW1  650   2.240   1.221   0.909 -0.0663  2.0776 -0.9229
  217SOL    HW2  651   2.217   1.083   0.813  0.2421 -1.0927 -2.3724
  218SOL     OW  652   1.802   1.710   1.805  0.1091 -0.7790  0.1357
  218SOL    HW1  653   1.828   1.665   1.888  0.1183  1.2536 -3.5472
  218SOL    HW2  654   1.883   1.725   1.745  0.4855 -1.9186  0.4212
  219SOL     OW  655   1.924   1.381   2.868 -0.1561 -0.4074  0.1075
  219SOL    HW1  656   1.943   1.349   2.772 -2.4147 -1.8392 -0.2832
  219SOL    HW2  657   1.825   1.391   2.872  2.9257 -1.0488 -1.6251
  220SOL     OW  658   1.439   1.477   1.038 -0.4539 -0.0214 -0.2408
  220SOL    HW1  659   1.415   1.575   1.040  1.4366 -1.4112  0.1670
  220SOL    HW2  660   1.537   1.472   1.010 -1.9768  0.2452 -0.7459
  221SOL     OW  661   0.827   0.682   2.995 -0.0519 -0.3271 -0.0085
  221SOL    HW1  662   0.844   0.775   2.952  2.2826  2.4947 -0.0406
  221SOL    HW2  663   0.750   0.634   2.947 -3.0564 -1.2675  1.0320
  222SOL     OW  664   0.767   1.470   0.835 -0.5104  0.0622  0.5011
  222SOL    HW1  665   0.736   1.386   0.788  0.4165  0.6985 -4.2960
  222SOL    HW2  666   0.684   1.520   0.870 -0.5977 -0.3262  1.0695
  223SOL     OW  667   0.915   2.853   2.720  0.3576 -0.5973  0.5847
  223SOL    HW1  668   1.011   2.891   2.687  1.7203  4.0042 -1.9824
  223SOL    HW2  669   0.848   2.924   2.748  0.5658  0.8103 -2.3873
  224SOL     OW  670   2.586   0.280   1.328  0.0343 -0.4631 -0.0918
  224SOL    HW1  671   2.489   0.320   1.328  1.2392 -0.7861  0.3717
  224SOL    HW2  672   2.588   0.185   1.369 -1.9526  0.1258  0.4948
  225SOL     OW  673   0.752   0.380   1.384 -1.0936  0.1116 -0.1174
  225SOL    HW1  674   0.790   0.433   1.301  0.9219  1.4768 -2.5074
  225SOL    HW2  675   0.835   0.350   1.443  1.1313 -2.7716  3.6879
  226SOL     OW  676   1.514   1.575   2.840  0.0346  0.7090 -0.2611
  226SOL    HW1  677   1.500   1.646   2.766 -1.8162 -1.4251 -2.0731
  226SOL    HW2  678   1.431   1.554   2.895 -1.4806 -0.6591  0.4520
  227SOL     OW  679   1.128   1.740   1.216 -0.1693 -0.0852  0.2095
  227SOL    HW1  680   1.155   1.656   1.271  1.2002  1.8102 -0.7430
  227SOL    HW2  681   1.110   1.822   1.276 -1.7606 -0.0174  1.1051
  228SOL     OW  682   0.548   1.685   0.696  0.8716 -0.2029  0.1810
  228SOL    HW1  683   0.521   1.592   0.652  1.4462 -3.4946 -3.9450
  228SOL    HW2  684   0.549   1.684   0.798  2.4276 -2.3988  1.0442
  229SOL     OW  685   1.011   0.318   0.014  0.7711  0.5089 -0.0980
  229SOL    HW1  686   0.978   0.360   3.003 -0.9935 -2.9685 -2.3911
  229SOL    HW2  687   1.075   0.382   0.060  0.9349  1.0341  1.7675
  230SOL     OW  688   1.092   0.668   2.277 -0.2372  0.2377 -0.3175
  230SOL    HW1  689   0.999   0.620   2.267  0.4099 -1.7863 -0.8900
  230SOL    HW2  690   1.149   0.629   2.352 -1.1025 -0.3521 -1.8172
  231SOL     OW  691   1.127   1.730   2.400  0.0119 -0.0674  1.2295
  231SOL    HW1  692   1.112   1.790   2.482  0.1048  0.4538  0.0012
  231SOL    HW2  693   1.207   1.751   2.346 -0.3407 -0.2415  0.3691
  232SOL     OW  694   2.311   1.849   1.116 -0.0422 -0.1080 -0.1556
  232SOL    HW1  695   2.405   1.816   1.132  1.2159 -2.6855 -1.0565
  232SOL    HW2  696   2.241   1.791   1.168  1.7185 -2.2946  1.2335
  233SOL     OW  697   2.375   2.912   0.212  0.0944 -0.3903 -0.1476
  233SOL    HW1  698   2.330   3.000   0.198  2.1442 -0.5677  0.9926
  233SOL    HW2  699   2.363   2.860   0.127 -0.0151 -1.3525  0.6137
  234SOL     OW  700   0.989   0.239   2.755 -0.4207 -0.4338 -0.1235
  234SOL    HW1  701   1.032   0.260   2.661 -0.2870  1.9645 -3.0259
  234SOL    HW2  702   1.039   0.172   2.813 -1.2246 -0.1461  2.2634
  235SOL     OW  703   2.359   2.978   2.949  0.0985 -0.0140 -0.3688
  235SOL    HW1  704   2.328   3.000   3.040  0.3922 -1.5393 -1.1352
  235SOL    HW2  705   2.419   2.894   2.949  1.9878  3.4322  0.6670
  236SOL     OW  706   2.120   2.493   2.356 -0.5130  0.0199  0.0169
  236SOL    HW1  707   2.170   2.503   2.445 -0.6152 -1.8376  0.3310
  236SOL    HW2  708   2.022   2.465   2.376  1.2163  0.8685 -0.4760
  237SOL     OW  709   0.812   1.448   2.219  0.1320 -0.4164  0.1377
  237SOL    HW1  710   0.825   1.517   2.297 -1.2819  2.7061  2.2107
  237SOL    HW2  711   0.885   1.374   2.211  0.0020  0.4547 -2.0478
  238SOL     OW  712   1.958   0.230   2.446 -0.0216  0.3981  0.4336
  238SOL    HW1  713   1.898   0.152   2.481 -4.0985  0.2116 -1.5591
  238SOL    HW2  714   2.020   0.268   2.516 -1.1953 -1.1048  1.1440
  239SOL     OW  715   0.011   1.720   1.613  0.4104 -0.8836 -0.4675
  239SOL    HW1  716   0.110   1.707   1.638  1.4085 -1.9204  1.7271
  239SOL    HW2  717   3.037   1.722   1.702  1.7084 -0.5633 -0.9501
  240SOL     OW  718   2.850   2.560   0.590 -0.4638  0.2743 -0.4584
  240SOL    HW1  719   2.893   2.464   0.582  1.8773 -0.5243 -0.7926
  240SOL    HW2  720   2.830   2.593   0.496  1.1908  1.1860  2.6205
  241SOL     OW  721   2.045   1.458   0.659  0.4975 -0.2189  0.2452
  241SOL    HW1  722   2.068   1.499   0.570  1.5802  2.5923 -2.2051
  241SOL    HW2  723   2.004   1.372   0.633 -0.8915  4.1203  0.5534
  242SOL     OW  724   1.471   1.745   2.604  0.3810 -0.1217  0.4946
  242SOL    HW1  725   1.383   1.693   2.611  1.4902 -2.2350  0.4373
  242SOL    HW2  726   1.461   1.837   2.643 -1.5881 -1.2660  0.0353
  243SOL     OW  727   0.473   2.584   1.820 -0.1747 -0.2641 -0.4832
  243SOL    HW1  728   0.413   2.652   1.864  0.2835  2.9963  0.2647
  243SOL    HW2  729   0.513   2.621   1.734  1.8901  2.7940  1.8353
  244SOL     OW  730   2.147   0.012   2.794  0.3230  0.2028  0.0771
  244SOL    HW1  731   2.106   3.035   2.718  0.5322 -4.6378 -1.0395
  244SOL    HW2  732   2.240   3.055   2.816  2.1488  0.9590 -0.9230
  245SOL     OW  733   1.401   2.803   0.767  0.0162 -0.1986  0.5799
  245SOL    HW1  734   1.358   2.856   0.842 -1.3480 -2.5743 -0.1551
  245SOL    HW2  735   1.327   2.767   0.705  0.2396 -1.6964 -1.1910
  246SOL     OW  736   1.575   2.602   0.164  0.3975  0.0139  0.2220
  246SOL    HW1  737   1.650   2.643   0.218  0.6472 -2.0871 -1.7281
  246SOL    HW2  738   1.602   2.592   0.067 -0.3968  0.3852 -0.3386
  247SOL     OW  739   0.842   0.548   2.268  0.2143 -0.2226  0.2369
  247SOL    HW1  740   0.757   0.598   2.230  0.8668 -4.7484  1.0973
  247SOL    HW2  741   0.822   0.467   2.322  0.3179  0.6150 -2.5102
  248SOL     OW  742   0.646   1.664   2.153  0.8002  0.3694  0.1458
  248SOL    HW1  743   0.706   1.584   2.159 -1.3566  0.8906  0.3853
  248SOL    HW2  744   0.661   1.712   2.061  0.9615 -0.6001  0.2840
  249SOL     OW  745   2.351   0.464   0.356  0.2562 -0.4481  0.2170
  249SOL    HW1  746   2.336   0.393   0.288  0.3055 -1.4602 -0.8613
  249SOL    HW2  747   2.265   0.517   0.373  0.6591  0.8986 -0.0656
  250SOL     OW  748   0.699   0.087   0.877  0.4586 -0.5273 -0.0173
  250SOL    HW1  749   0.607   0.043   0.863 -0.0675 -1.6832  1.2816
  250SOL    HW2  750   0.729   0.146   0.798  0.6692 -3.1386 -1.3802
  251SOL     OW  751   1.626   0.180   2.631  0.0598  0.3979 -0.2991
  251SOL    HW1  752   1.694   0.259   2.644 -0.2610  1.0626 -1.4142
  251SOL    HW2  753   1.667   0.104   2.681 -1.3160  1.3047 -1.4852
  252SOL     OW  754   1.918   1.720   2.079  0.4181 -0.0338 -0.3087
  252SOL    HW1  755   1.934   1.625   2.106 -2.3498  2.5038 -0.0572
  252SOL    HW2  756   1.823   1.743   2.111  0.0428  0.7201  0.1210
  253SOL     OW  757   2.662   2.344   1.684 -0.0078 -0.3431  0.3844
  253SOL    HW1  758   2.734   2.396   1.729  1.7871 -0.1541 -0.0604
  253SOL    HW2  759   2.687   2.253   1.641  1.9920  0.3684 -1.3881
  254SOL     OW  760   3.028   1.392   1.246  0.1658  0.1486 -0.3113
  254SOL    HW1  761   2.997   1.293   1.252 -1.7416  0.3628 -1.9556
  254SOL    HW2  762   3.021   1.441   1.336 -0.3061 -3.7678 -0.8612
  255SOL     OW  763   0.870   0.878   1.324 -0.4175 -0.2637  0.0435
  255SOL    HW1  764   0.895   0.777   1.315  0.3898 -0.6474  1.7419
  255SOL    HW2  765   0.773   0.887   1.351 -0.2255 -2.0116  3.7493
  256SOL     OW  766   1.874   2.458   1.709  0.0409 -0.1306  0.2290
  256SOL    HW1  767   1.928   2.543   1.726  0.4539 -0.8072  1.6855
  256SOL    HW2  768   1.826   2.432   1.791  1.2402  4.2143 -0.3015
  257SOL     OW  769   0.609   2.674   2.691 -0.0344 -0.6472 -0.1561
  257SOL    HW1  770   0.578   2.767   2.694 -2.8864 -1.4943  0.7759
  257SOL    HW2  771   0.697   2.666   2.642 -1.4252 -1.5086  1.3077
  258SOL     OW  772   0.771   2.454   0.220 -0.0430 -0.4792 -0.1327
  258SOL    HW1  773   0.714   2.418   0.295  0.7948  0.7852  0.7684
  258SOL    HW2  774   0.783   2.555   0.231  0.6436  2.1847 -2.2423
  259SOL     OW  775   0.913   0.254   2.169  0.1684  0.2329 -0.4420
  259SOL    HW1  776   0.978   0.332   2.185  0.6870  0.9345 -0.3090
  259SOL    HW2  777   0.899   0.248   2.065  2.0947  0.4067 -3.0639
  260SOL     OW  778   1.618   0.578   1.106  0.1134  0.6549 -0.0625
  260SOL    HW1  779   1.635   0.489   1.155  0.0661 -0.5649  1.2927
  260SOL    HW2  780   1.542   0.624   1.155 -2.2853 -1.9025 -0.3990
  261SOL     OW  781   0.568   0.518   2.626  0.0640  0.9299 -0.1183
  261SOL    HW1  782   0.497   0.474   2.687 -1.8022 -3.5752 -0.8480
  261SOL    HW2  783   0.662   0.502   2.660  0.8135 -0.7097  3.7648
  262SOL     OW  784   0.051   2.359   1.988 -0.4828  0.1370 -0.1234
  262SOL    HW1  785   0.045   2.442   2.046  0.6395  1.0331  1.9864
  262SOL    HW2  786   0.075   2.283   2.050  2.4782  2.4388 -0.1829
  263SOL     OW  787   2.920   1.554   2.277  0.3836 -0.1162  0.2645
  263SOL    HW1  788   2.992   1.594   2.216 -1.0773 -0.6469 -1.5095
  263SOL    HW2  789   2.926   1.453   2.291 -0.5317  0.4331  0.8908
  264SOL     OW  790   0.425   0.930   0.878 -0.1433 -0.5251 -0.5859
  264SOL    HW1  791   0.394   0.998   0.809 -0.9603 -0.3092 -0.1867
  264SOL    HW2  792   0.355   0.871   0.929 -1.0772 -0.8379  0.7246
  265SOL     OW  793   1.112   2.333   0.880  0.2662  0.7696  0.3301
  265SOL    HW1  794   1.019   2.356   0.921  1.9938  1.3828  0.5991
  265SOL    HW2  795   1.168   2.274   0.950 -0.5067  1.5042  1.7849
  266SOL     OW  796   1.641   0.924   1.110 -0.2328  0.0842  0.3845
  266SOL    HW1  797   1.553   0.879   1.127  0.4008  0.4961 -2.3278
  266SOL    HW2  798   1.639   1.019   1.134  1.8460 -4.1698  0.1576
  267SOL     OW  799   2.732   1.233   0.033 -0.3918  0.2672  0.0873
  267SOL    HW1  800   2.820   1.200   0.069  2.2478  0.8920 -0.1099
  267SOL    HW2  801   2.667   1.156   0.012 -0.0438 -0.1512 -0.9660
  268SOL     OW  802   1.610   0.362   0.377  0.4619  0.0326  0.4980
  268SOL    HW1  803   1.670   0.365   0.457  0.8335 -1.4691  0.1659
  268SOL    HW2  804   1.581   0.455   0.343 -0.8120 -1.3074  1.2212
  269SOL     OW  805   2.133   0.622   2.884  0.3622 -0.5406  0.2139
  269SOL    HW1  806   2.201   0.624   2.959  0.0494 -2.1621  1.4770
  269SOL    HW2  807   2.089   0.711   2.870 -1.0459  2.5859 -0.8587
  270SOL     OW  808   0.085   0.915   3.052 -0.8181  0.0672  0.0729
  270SOL    HW1  809   0.108   0.991   2.992  1.0409  1.3001  1.0354
  270SOL    HW2  810   0.171   0.862   3.072  0.9306 -0.6496 -1.8075
  271SOL     OW  811   2.741   0.865   0.246  0.1121 -0.1518 -0.1665
  271SOL    HW1  812   2.779   0.863   0.341 -0.6442 -0.3713 -1.3811
  271SOL    HW2  813   2.806   0.818   0.187  0.8587 -1.5674 -0.1655
  272SOL     OW  814   3.010   2.614   0.237  0.5161  0.1505 -0.9358
  272SOL    HW1  815   3.008   2.571   0.147  2.4012 -0.9847 -0.2008
  272SOL    HW2  816   3.063   2.557   0.305 -1.6961  1.8847 -1.3310
  273SOL     OW  817   2.634   2.890   0.280  0.4425 -0.0878 -0.3184
  273SOL    HW1  818   2.661   2.980   0.321 -0.3041  0.0291  0.5253
  273SOL    HW2  819   2.533   2.891   0.263 -0.1098  3.5042 -0.1778
  274SOL     OW  820   0.547   2.327   1.078 -0.2348 -0.4310  0.2366
  274SOL    HW1  821   0.520   2.422   1.072 -1.4278  2.0315 -1.6562
  274SOL    HW2  822   0.587   2.305   0.985  0.5293  1.0994 -1.4959
  275SOL     OW  823   2.798   1.587   0.422 -0.0488  0.2617 -0.0502
  275SOL    HW1  824   2.846   1.517   0.366  1.2179 -0.8028 -0.4978
  275SOL    HW2  825   2.696   1.584   0.404 -1.1691  1.4663  1.9582
  276SOL     OW  826   2.886   1.118   1.994  0.0728  0.3044 -0.4581
  276SOL    HW1  827   2.787   1.094   1.992  1.7698 -0.0055  0.6245
  276SOL    HW2  828   2.924   1.152   1.909  0.3238  1.8668  1.5379
  277SOL     OW  829   2.280   0.011   1.264  0.1971  0.5916 -0.0394
  277SOL    HW1  830   2.240   3.000   1.231  3.3553  0.3351 -1.7590
  277SOL    HW2  831   2.213   0.081   1.276  0.6877  0.4005 -0.9410
  278SOL     OW  832   1.411   2.544   2.322  0.0026  0.1322  0.0201
  278SOL    HW1  833   1.398   2.599   2.234 -0.7077 -0.3713 -0.8555
  278SOL    HW2  834   1.334   2.491   2.349  4.6901  3.9341  0.0770
  279SOL     OW  835   1.663   1.878   0.400  0.6494 -0.4143  0.1777
  279SOL    HW1  836   1.757   1.864   0.363  1.7850  2.0907 -1.3578
  279SOL    HW2  837   1.589   1.843   0.341 -0.1303 -0.1798  0.1631
  280SOL     OW  838   0.208   1.436   1.146  0.7233  0.2250  0.3729
  280SOL    HW1  839   0.230   1.537   1.133 -1.4448  1.4897 -0.9629
  280SOL    HW2  840   0.116   1.430   1.186  0.4844 -0.1294 -2.2541
  281SOL     OW  841   3.021   0.863   2.412  0.1141 -0.2532  0.2125
  281SOL    HW1  842   3.041   0.775   2.370 -1.9257  1.0224  0.2650
  281SOL    HW2  843   3.067   0.888   2.507 -0.6961  1.2216 -0.4748
  282SOL     OW  844   0.678   1.277   0.627 -0.1165  0.1066  0.6181
  282SOL    HW1  845   0.575   1.281   0.619  0.5712 -2.5032  2.2378
  282SOL    HW2  846   0.714   1.181   0.623  0.0378 -0.6583  0.1768
  283SOL     OW  847   2.058   2.171   0.132 -0.3225  0.0303 -0.4950
  283SOL    HW1  848   2.018   2.253   0.178  2.0428  0.3312  1.3040
  283SOL    HW2  849   2.156   2.178   0.152 -1.6771 -0.4706 -0.1321
  284SOL     OW  850   1.015   3.075   0.393  0.4167 -0.1856 -0.3944
  284SOL    HW1  851   1.038   3.019   0.309 -0.3090 -0.5525  2.2591
  284SOL    HW2  852   0.953   0.072   0.367  3.2008 -0.8604  1.2146
  285SOL     OW  853   2.178   1.110   2.914  0.1132 -0.3565  0.6186
  285SOL    HW1  854   2.239   1.026   2.903  0.4645  1.3163 -1.6351
  285SOL    HW2  855   2.237   1.187   2.933 -0.7736 -2.5958  2.3795
  286SOL     OW  856   1.821   2.199   1.080 -0.2607  0.4827 -0.1361
  286SOL    HW1  857   1.744   2.262   1.066  3.1096 -1.6975  0.8626
  286SOL    HW2  858   1.785   2.116   1.133  1.4421 -0.3486 -0.2042
  287SOL     OW  859   1.214   0.643   0.434 -0.6704 -0.1425 -0.3487
  287SOL    HW1  860   1.242   0.546   0.403  0.9064 -1.6945 -0.2170
  287SOL    HW2  861   1.262   0.658   0.524  0.4472  0.1383 -0.6790
  288SOL     OW  862   1.127   2.290   2.839  0.0013 -0.2553  0.3609
  288SOL    HW1  863   1.025   2.275   2.860 -3.2288 -0.9613  3.1925
  288SOL    HW2  864   1.171   2.315   2.928  1.1671 -0.4649 -2.5604
  289SOL     OW  865   3.030   1.470   1.491  0.3003 -0.4672 -0.0118
  289SOL    HW1  866   3.048   1.561   1.535 -1.6011 -0.8961 -0.3460
  289SOL    HW2  867   0.021   1.404   1.533  2.0167 -0.6375  1.8901
  290SOL     OW  868   1.537   2.061   0.907 -0.6124 -0.0959  0.2217
  290SOL    HW1  869   1.502   2.062   1.002 -2.7714 -2.0286 -3.0912
  290SOL    HW2  870   1.635   2.035   0.900 -0.8880 -0.7610  0.7312
  291SOL     OW  871   1.680   3.069   3.011  0.4506  0.1840 -0.8852
  291SOL    HW1  872   1.709   0.083   3.039 -0.2619 -0.4683  2.0880
  291SOL    HW2  873   1.707   3.000   0.004  1.3929  0.3440  0.3007
  292SOL     OW  874   0.855   0.238   1.897  0.4339 -0.1109 -0.0882
  292SOL    HW1  875   0.909   0.241   1.813 -0.4937  1.8670 -1.0804
  292SOL    HW2  876   0.809   0.322   1.914  2.0101 -3.1964  1.5984
  293SOL     OW  877   2.490   2.358   0.936 -0.0194  0.0502  0.2043
  293SOL    HW1  878   2.399   2.333   0.905  0.8150  0.1747  1.4031
  293SOL    HW2  879   2.541   2.414   0.869  0.2433  2.9986  0.7968
  294SOL     OW  880   0.417   0.900   2.203 -0.2175  0.6969 -0.1725
  294SOL    HW1  881   0.356   0.836   2.251 -0.9385  3.2473  1.2903
  294SOL    HW2  882   0.489   0.856   2.144  0.6032  3.4000  0.2111
  295SOL     OW  883   1.708   1.472   0.976 -0.1692  0.6278  0.2431
  295SOL    HW1  884   1.765   1.392   1.012 -0.7876  0.4035  2.2574
  295SOL    HW2  885   1.750   1.523   0.895 -2.0387  0.8815  1.3341
  296SOL     OW  886   2.536   1.879   0.268  0.4139 -0.3161  0.2473
  296SOL    HW1  887   2.524   1.957   0.322 -0.5518 -0.2759 -2.7031
  296SOL    HW2  888   2.592   1.908   0.188 -0.2204 -0.1847  1.1398
  297SOL     OW  889   1.836   0.146   0.295 -0.9683 -0.3800  0.3505
  297SOL    HW1  890   1.759   0.182   0.233  1.0197 -2.1123  1.2083
  297SOL    HW2  891   1.929   0.188   0.274  2.1177  1.6865  0.5419
  298SOL     OW  892   0.854   2.620   2.592  0.2366 -0.0947  0.2035
  298SOL    HW1  893   0.928   2.557   2.612  2.3443 -1.1324 -0.8540
  298SOL    HW2  894   0.881   2.713   2.625 -0.2150  1.6433 -0.0516
  299SOL     OW  895   1.237   2.073   2.100  0.1053 -0.0051 -0.5346
  299SOL    HW1  896   1.192   2.131   2.029  0.7753 -1.2380 -1.2406
  299SOL    HW2  897   1.225   2.111   2.194 -0.8708  2.2278  0.9472
  300SOL     OW  898   2.477   0.162   3.002 -0.3994  0.0356 -0.5618
  300SOL    HW1  899   2.542   0.153   0.002 -0.3537 -1.4976  0.0719
  300SOL    HW2  900   2.449   0.262   2.994  2.9031  2.2817 -0.3415
  301SOL     OW  901   1.002   1.180   1.926  0.5334  0.3307  0.3415
  301SOL    HW1  902   1.035   1.275   1.936 -0.7323 -1.2145 -4.1188
  301SOL    HW2  903   1.079   1.116   1.924 -1.9310 -1.2072  1.4617
  302SOL     OW  904   2.660   2.323   0.495 -0.1420  0.3454 -0.1182
  302SOL    HW1  905   2.601   2.402   0.514 -3.5123 -0.2179  0.2685
  302SOL    HW2  906   2.705   2.289   0.581  0.0292  2.0527 -0.8358
  303SOL     OW  907   2.541   2.477   2.034  0.1697  0.5144  0.6901
  303SOL    HW1  908   2.626   2.421   2.014  1.6395 -4.8792  0.6571
  303SOL    HW2  909   2.528   2.499   2.133 -2.7564 -1.2919 -0.6964
  304SOL     OW  910   0.088   0.787   1.661 -0.1306 -0.0836  0.4598
  304SOL    HW1  911   0.052   0.702   1.618  0.4985 -0.8699 -0.8248
  304SOL    HW2  912   0.028   0.861   1.639  0.8622 -3.0374  0.0715
  305SOL     OW  913   0.543   1.389   1.403  0.7496 -0.2921  0.2440
  305SOL    HW1  914   0.637   1.368   1.429 -0.7007 -2.6610 -1.0695
  305SOL    HW2  915   0.514   1.344   1.319  2.0540 -1.6737 -1.0984
  306SOL     OW  916   0.158   1.421   2.050 -0.0710  0.2485  0.4455
  306SOL    HW1  917   0.169   1.362   1.966 -1.6869  0.6659 -0.0200
  306SOL    HW2  918   0.246   1.436   2.101  3.5066  1.4542 -2.6126
  307SOL     OW  919   0.892   0.792   1.815 -0.1862 -0.9256  0.0140
  307SOL    HW1  920   0.937   0.829   1.726  1.3181  1.6394 -0.5829
  307SOL    HW2  921   0.948   0.818   1.897 -0.2015  0.0165  0.0920
  308SOL     OW  922   2.967   1.127   1.143 -0.4426  0.1445 -0.1119
  308SOL    HW1  923   3.016   1.049   1.096  0.2501  0.6172 -0.2983
  308SOL    HW2  924   2.868   1.127   1.118 -0.8222  0.1340  0.1807
  309SOL     OW  925   2.574   1.166   1.129  0.1532  0.1372  0.6128
  309SOL    HW1  926   2.641   1.107   1.172  2.9789 -1.6703  0.3323
  309SOL    HW2  927   2.562   1.135   1.033 -1.7178  0.2715 -0.3652
  310SOL     OW  928   2.655   2.275   2.645 -0.0398 -0.8497 -0.1135
  310SOL    HW1  929   2.718   2.193   2.652  2.4854 -4.0988  0.3771
  310SOL    HW2  930   2.559   2.247   2.656  1.3129  0.8528 -1.5178
  311SOL     OW  931   2.675   2.733   2.651 -0.0184  0.7379 -0.6689
  311SOL    HW1  932   2.771   2.762   2.657 -0.6506  2.3027 -1.6251
  311SOL    HW2  933   2.612   2.804   2.690 -0.3785  2.1188 -0.4180
  312SOL     OW  934   2.220   1.932   0.188 -0.5517  0.5734 -0.7179
  312SOL    HW1  935   2.181   1.994   0.118 -1.5058 -0.5450  2.3686
  312SOL    HW2  936   2.215   1.831   0.156 -0.0836 -0.1232 -2.6945
  313SOL     OW  937   2.528   3.011   0.578  0.1079 -0.2985 -0.5788
  313SOL    HW1  938   2.474   2.920   0.567  1.4037  0.4164  0.5349
  313SOL    HW2  939   2.623   2.988   0.603  0.7928 -1.6266  0.1381
  314SOL     OW  940   1.542   1.125   0.159 -0.7533  0.2348  0.1510
  314SOL    HW1  941   1.481   1.157   0.081 -0.1418 -0.4368  0.9867
  314SOL    HW2  942   1.514   1.178   0.241 -1.3433  0.6630 -0.3549
  315SOL     OW  943   1.351   2.904   1.877 -0.3378  0.0833 -0.1771
  315SOL    HW1  944   1.262   2.950   1.892  0.6701  1.6952 -0.0179
  315SOL    HW2  945   1.425   2.970   1.844  3.3113  0.2294  1.2136
  316SOL     OW  946   2.711   0.722   3.005  0.2333 -0.0082  0.2106
  316SOL    HW1  947   2.813   0.728   3.014  1.6512 -1.7513  0.8360
  316SOL    HW2  948   2.661   0.667   3.076 -1.6303 -0.8637  1.3362
  317SOL     OW  949   0.413   2.818   0.060  0.5068  0.1135  0.0910
  317SOL    HW1  950   0.341   2.771   0.119  0.1552 -3.2159  1.7109
  317SOL    HW2  951   0.434   2.779   3.046 -0.0420 -1.5067 -0.3706
  318SOL     OW  952   2.149   2.725   0.614  0.3736  0.4774 -0.0635
  318SOL    HW1  953   2.106   2.634   0.622  1.6597  0.1914  0.0476
  318SOL    HW2  954   2.166   2.754   0.516  2.7018  0.9530  1.7259
  319SOL     OW  955   1.000   1.883   2.932  0.4819 -0.6317  0.3516
  319SOL    HW1  956   0.926   1.933   2.980  1.0938 -1.3716  0.5693
  319SOL    HW2  957   0.987   1.786   2.943  1.4290  1.5493  1.1035
  320SOL     OW  958   0.479   2.073   1.799 -0.5207  0.6022 -0.5781
  320SOL    HW1  959   0.431   2.163   1.808 -1.4763  0.8891 -1.4888
  320SOL    HW2  960   0.426   2.007   1.859 -2.3048 -0.5302  3.1462
  321SOL     OW  961   1.306   0.024   2.305 -0.0569  0.5157  0.1870
  321SOL    HW1  962   1.318   0.086   2.386 -0.2181 -1.1353 -1.3689
  321SOL    HW2  963   1.391   3.060   2.276 -1.6325  1.7298 -1.9348
  322SOL     OW  964   2.688   1.461   2.192 -0.1524  0.0670  0.3309
  322SOL    HW1  965   2.781   1.500   2.204 -1.4866 -3.2533 -2.4800
  322SOL    HW2  966   2.618   1.505   2.250  3.4456  0.4352  1.3778
  323SOL     OW  967   2.298   1.109   1.192 -0.2079 -0.4795  0.2043
  323SOL    HW1  968   2.276   1.113   1.094 -2.3278  0.4385  1.1465
  323SOL    HW2  969   2.392   1.142   1.206  1.8784 -1.3481  0.0022
  324SOL     OW  970   2.703   0.196   2.268 -0.0589  0.3121 -0.5786
  324SOL    HW1  971   2.671   0.228   2.359 -0.9214 -0.4943  1.4638
  324SOL    HW2  972   2.622   0.193   2.208  1.0745  1.5585 -0.2714
  325SOL     OW  973   1.059   0.756   2.628 -0.2833 -0.4713  0.3017
  325SOL    HW1  974   1.067   0.670   2.574 -0.5294 -2.0301 -0.1313
  325SOL    HW2  975   0.964   0.776   2.656  2.7128  0.0413 -1.5578
  326SOL     OW  976   1.848   2.849   1.830 -0.8221  0.5636  0.1479
  326SOL    HW1  977   1.786   2.856   1.744 -1.6212 -0.0196 -1.1187
  326SOL    HW2  978   1.914   2.771   1.817 -2.7452 -2.1597  0.0876
  327SOL     OW  979   2.032   0.324   0.247  0.0671 -0.3203  0.3606
  327SOL    HW1  980   2.041   0.402   0.312 -0.3929 -0.1619 -2.9762
  327SOL    HW2  981   2.127   0.307   0.209  0.6527  1.7024 -0.4222
  328SOL     OW  982   0.161   1.577   2.516 -0.6116 -0.3080  0.0678
  328SOL    HW1  983   0.159   1.485   2.474  3.6222  1.5804 -0.7357
  328SOL    HW2  984   0.073   1.595   2.567 -0.9367  2.6362 -1.5414
  329SOL     OW  985   2.099   0.037   1.807 -0.1346  0.3116  0.1618
  329SOL    HW1  986   2.107   3.073   1.713 -0.5017  2.6849 -0.0354
  329SOL    HW2  987   2.141   3.054   1.883 -0.5383  0.9949 -0.4389
  330SOL     OW  988   0.143   1.326   0.901  0.4579 -0.3221 -0.4014
  330SOL    HW1  989   0.180   1.348   0.993  1.0863  1.6561 -1.5712
  330SOL    HW2  990   0.039   1.331   0.904 -2.5526 -1.0804 -1.0988
  331SOL     OW  991   0.267   1.798   2.384 -0.2114  0.3139 -0.3665
  331SOL    HW1  992   0.216   1.731   2.443 -0.6711 -0.0533 -1.2091
  331SOL    HW2  993   0.369   1.790   2.401 -1.0300 -1.4888  2.2270
  332SOL     OW  994   3.038   0.029   1.491  0.6139 -0.4824  0.6943
  332SOL    HW1  995   3.048   3.023   1.440  0.8637  1.3788  0.4452
  332SOL    HW2  996   3.072   0.114   1.437  0.4420  3.2812 -1.7790
  333SOL     OW  997   2.223   0.114   0.893  0.1955  0.4542  0.4387
  333SOL    HW1  998   2.129   0.142   0.863 -0.2297  0.0670 -0.1918
  333SOL    HW2  999   2.248   0.164   0.979 -1.2998 -0.1515 -2.1891
  334SOL     OW 1000   0.565   2.001   0.700  0.3439  0.1662  0.5060
  334SOL    HW1 1001   0.660   1.963   0.703 -0.0435 -0.0707 -1.3563
  334SOL    HW2 1002   0.530   1.994   0.608  0.8102 -1.3325 -1.7952
  335SOL     OW 1003   0.211   2.476   0.112 -0.0353  0.5165  0.1364
  335SOL    HW1 1004   0.132   2.416   0.131 -1.6204  2.1588  0.5478
  335SOL    HW2 1005   0.298   2.426   0.114  2.0497  0.6932  2.0515
  336SOL     OW 1006   0.090   3.074   2.309 -0.3501  0.5122  0.0811
  336SOL    HW1 1007   0.032   2.995   2.308 -0.7206  5.3427 -0.4488
  336SOL    HW2 1008   0.074   0.032   2.215  0.9725 -1.5354  0.3500
  337SOL     OW 1009   2.189   2.388   2.697 -0.3686  0.6533  0.4255
  337SOL    HW1 1010   2.243   2.463   2.652 -3.1945 -0.9807  0.6567
  337SOL    HW2 1011   2.193   2.388   2.797 -0.0768 -0.7144 -3.3340
  338SOL     OW 1012   0.876   0.801   0.908  0.0065 -0.2125 -0.0664
  338SOL    HW1 1013   0.849   0.743   0.825 -2.5243  1.0164 -1.6541
  338SOL    HW2 1014   0.792   0.850   0.937  4.0948 -1.3186  0.8795
  339SOL     OW 1015   0.150   0.787   1.940 -0.3583 -0.5884 -0.5924
  339SOL    HW1 1016   0.098   0.848   2.001 -1.3031 -0.2098  1.4515
  339SOL    HW2 1017   0.126   0.804   1.845  1.6159 -1.1318  1.7034
  340SOL     OW 1018   1.700   2.941   0.325 -0.1487  0.0271 -0.0375
  340SOL    HW1 1019   1.772   2.977   0.383 -3.0279 -2.0256 -0.9071
  340SOL    HW2 1020   1.652   3.018   0.278 -0.5517 -1.0245  1.3024
  341SOL     OW 1021   2.012   1.022   1.071 -0.2243 -0.5571  0.0251
  341SOL    HW1 1022   2.083   1.016   0.996 -0.7186 -2.6742 -0.3601
  341SOL    HW2 1023   2.048   0.973   1.155  0.8855 -2.0092  0.3392
  342SOL     OW 1024   2.246   2.745   0.006 -0.1773  0.4278  0.4399
  342SOL    HW1 1025   2.170   2.809   3.064  0.2412 -0.1233  1.2252
  342SOL    HW2 1026   2.306   2.730   3.000  0.9654 -1.3285 -1.4264
  343SOL     OW 1027   1.373   2.068   1.765  0.1756  0.1366 -0.3925
  343SOL    HW1 1028   1.453   2.029   1.816 -0.4982  1.0020  0.7997
  343SOL    HW2 1029   1.291   2.008   1.771 -0.8400 -1.7595 -1.8970
  344SOL     OW 1030   2.371   2.697   1.063  0.4877  0.1328  0.1215
  344SOL    HW1 1031   2.322   2.615   1.032  0.5506 -1.4164 -3.5303
  344SOL    HW2 1032   2.306   2.769   1.090 -0.0812 -0.1142  2.9343
  345SOL     OW 1033   2.702   2.387   0.018 -0.0741  0.1596  0.6162
  345SOL    HW1 1034   2.749   2.306   3.053 -0.8580  1.8213  0.2953
  345SOL    HW2 1035   2.709   2.385   0.114 -0.2456  1.7985 -0.1634
  346SOL     OW 1036   2.905   1.445   0.635  0.2076  0.2816  0.0308
  346SOL    HW1 1037   2.865   1.518   0.576  2.1815  1.2670  0.4447
  346SOL    HW2 1038   2.842   1.427   0.712  2.4359 -2.0117 -0.7098
  347SOL     OW 1039   1.754   2.097   2.004 -0.6085 -0.6234 -0.0362
  347SOL    HW1 1040   1.779   2.139   2.091 -1.1762  1.2490  1.9171
  347SOL    HW2 1041   1.835   2.096   1.937 -1.6918 -2.4351  1.5550
  348SOL     OW 1042   0.725   1.621   2.821  0.1321  0.4521  0.0328
  348SOL    HW1 1043   0.717   1.668   2.733 -1.5632  0.9220  3.9755
  348SOL    HW2 1044   0.822   1.627   2.855  0.3030 -0.4436  2.0317
  349SOL     OW 1045   2.379   1.210   1.612 -0.1313 -0.5486 -0.3708
  349SOL    HW1 1046   2.384   1.302   1.561 -2.1760 -0.4283 -1.9053
  349SOL    HW2 1047   2.471   1.162   1.617  1.0354  0.6925 -2.3715
  350SOL     OW 1048   2.819   2.458   1.183 -0.0594  0.2096  0.0184
  350SOL    HW1 1049   2.863   2.375   1.223 -2.4581  1.0464  2.1528
  350SOL    HW2 1050   2.728   2.471   1.223 -2.1697 -0.6654 -0.7849
  351SOL     OW 1051   0.636   0.217   2.203  0.7227  0.6733  0.1743
  351SOL    HW1 1052   0.601   0.291   2.263  0.9153  0.1490  1.6953
  351SOL    HW2 1053   0.736   0.228   2.191  1.4461 -0.6617  0.1667
  352SOL     OW 1054   0.579   1.614   0.964 -0.2792  0.1894 -0.0951
  352SOL    HW1 1055   0.585   1.606   1.066 -0.6387 -1.0077  1.9549
  352SOL    HW2 1056   0.497   1.553   0.942 -0.5460 -1.8413  1.8856
  353SOL     OW 1057   1.326   1.492   2.349 -0.0043  0.0919  0.4248
  353SOL    HW1 1058   1.254   1.547   2.396  0.7251 -0.9128 -3.4391
  353SOL    HW2 1059   1.291   1.476   2.251  0.2734  1.3015  0.0514
  354SOL     OW 1060   1.131   0.213   0.883 -0.2872  0.5598 -0.0538
  354SOL    HW1 1061   1.186   0.168   0.957 -2.0796 -1.1907  0.6590
  354SOL    HW2 1062   1.172   0.307   0.871 -1.3983  0.4793  1.5557
  355SOL     OW 1063   2.621   1.006   0.657 -0.3868 -0.0907  0.5179
  355SOL    HW1 1064   2.648   1.097   0.615 -1.3068  0.0738 -0.2926
  355SOL    HW2 1065   2.556   0.954   0.594 -1.5074 -1.6118 -0.2433
  356SOL     OW 1066   2.403   1.828   2.328  0.1098  0.6110 -0.2770
  356SOL    HW1 1067   2.324   1.796   2.382 -0.3820  0.7291  0.4826
  356SOL    HW2 1068   2.427   1.925   2.352  1.3906  0.6324  1.9851
  357SOL     OW 1069   0.563   2.715   1.603  0.3815  0.0254 -0.6262
  357SOL    HW1 1070   0.500   2.770   1.541  0.0627 -1.0711  0.5664
  357SOL    HW2 1071   0.657   2.723   1.563 -0.5060  3.0473  2.4577
  358SOL     OW 1072   2.425   0.761   1.455  0.2588  0.2677 -0.2178
  358SOL    HW1 1073   2.442   0.773   1.561  1.7928  1.0962  0.3951
  358SOL    HW2 1074   2.514   0.745   1.403 -1.4352 -2.8250  0.3137
  359SOL     OW 1075   2.258   2.841   2.567 -0.7131 -0.4177 -0.2667
  359SOL    HW1 1076   2.199   2.879   2.488 -2.2651  0.7412 -2.5265
  359SOL    HW2 1077   2.208   2.817   2.654 -2.0482 -1.2048  0.3168
  360SOL     OW 1078   1.203   0.444   0.796 -0.8252 -0.0982 -0.4684
  360SOL    HW1 1079   1.225   0.531   0.839  0.7631 -1.4208  1.6273
  360SOL    HW2 1080   1.252   0.439   0.705  3.1325 -0.2857  0.1346
  361SOL     OW 1081   2.048   0.179   1.231 -0.2493 -0.2073  0.1614
  361SOL    HW1 1082   2.061   0.259   1.295  0.3153  3.6599  0.3182
  361SOL    HW2 1083   2.043   0.219   1.137  1.4154  0.5788 -0.2666
  362SOL     OW 1084   1.305   1.171   0.511 -0.1094  0.5842 -0.2809
  362SOL    HW1 1085   1.287   1.236   0.587 -0.7326 -1.2148 -1.0749
  362SOL    HW2 1086   1.357   1.216   0.435  2.1063 -1.8245  1.9026
  363SOL     OW 1087   2.194   1.731   2.463  0.1931 -0.8313  0.0677
  363SOL    HW1 1088   2.179   1.653   2.530 -0.8181 -1.4857 -0.6229
  363SOL    HW2 1089   2.112   1.750   2.408  1.2464  0.3848 -1.9183
  364SOL     OW 1090   0.486   0.180   1.321 -0.1898 -0.0109 -0.3947
  364SOL    HW1 1091   0.536   0.200   1.407  1.5743 -1.6940  1.1349
  364SOL    HW2 1092   0.388   0.216   1.325 -1.4802  1.6069 -1.0235
  365SOL     OW 1093   0.210   2.743   0.241  0.3108  0.2913  0.2087
  365SOL    HW1 1094   0.199   2.659   0.187 -0.4846 -0.6871 -1.1833
  365SOL    HW2 1095   0.259   2.726   0.329  0.0636  2.0138 -2.5187
  366SOL     OW 1096   2.465   1.856   3.023 -0.3852  0.1141  0.6675
  366SOL    HW1 1097   2.540   1.882   0.013 -1.4791  1.8635  2.9811
  366SOL    HW2 1098   2.378   1.853   3.067  2.0635  1.0300 -0.0524
  367SOL     OW 1099   2.591   2.520   2.537  0.7811 -0.1669 -0.2151
  367SOL    HW1 1100   2.616   2.606   2.584  0.2000 -0.6219  2.7473
  367SOL    HW2 1101   2.618   2.437   2.589 -0.1321 -0.2642 -1.4083
  368SOL     OW 1102   0.289   1.685   1.078  0.3218  0.0220 -0.4975
  368SOL    HW1 1103   0.242   1.740   1.152 -2.7159 -2.1871  1.8386
  368SOL    HW2 1104   0.330   1.739   1.004 -0.1149  2.1505 -0.6990
  369SOL     OW 1105   0.938   2.731   3.024 -0.6656  0.1838  0.2070
  369SOL    HW1 1106   0.919   2.780   2.937 -3.5897  1.7145 -1.4213
  369SOL    HW2 1107   1.039   2.713   3.042  3.2566  2.7374 -0.1438
  370SOL     OW 1108   0.176   0.793   0.595  0.5010 -0.1058  0.4373
  370SOL    HW1 1109   0.206   0.876   0.545  0.5517 -1.6945 -0.5641
  370SOL    HW2 1110   0.232   0.719   0.562 -0.9606  0.2454  0.8290
  371SOL     OW 1111   1.887   2.708   0.945 -0.5012 -0.0354 -0.2356
  371SOL    HW1 1112   1.873   2.767   0.862 -0.7234 -0.0742 -0.2856
  371SOL    HW2 1113   1.864   2.610   0.933  0.2028 -1.3010 -1.6590
  372SOL     OW 1114   0.093   0.967   2.630  0.3588  0.4604 -0.3039
  372SOL    HW1 1115   0.155   1.040   2.600  0.4242 -0.0151  1.0807
  372SOL    HW2 1116   0.140   0.883   2.662  1.5825  0.3388  0.3279
  373SOL     OW 1117   3.005   1.859   0.747 -0.0307  0.0632  0.4279
  373SOL    HW1 1118   3.043   1.811   0.823  0.6989  0.5001 -1.5099
  373SOL    HW2 1119   3.070   1.934   0.713 -0.8594 -0.1113  2.9977
  374SOL     OW 1120   0.074   2.482   0.443  0.0771 -0.4151  0.4780
  374SOL    HW1 1121   0.022   2.420   0.501  1.2342  1.1701 -2.1771
  374SOL    HW2 1122   0.107   2.564   0.497 -1.0404  3.4993  0.5074
  375SOL     OW 1123   0.509   0.487   0.092  0.4646  0.3406 -0.1491
  375SOL    HW1 1124   0.568   0.501   0.172  0.1659 -0.5433  3.0930
  375SOL    HW2 1125   0.468   0.395   0.085  0.8560 -0.2444 -2.3227
  376SOL     OW 1126   0.559   2.257   2.056  0.0231  0.5647  0.3326
  376SOL    HW1 1127   0.510   2.281   1.973  2.7966  0.7214  2.5985
  376SOL    HW2 1128   0.658   2.254   2.040  1.9888  0.7984 -1.5692
  377SOL     OW 1129   1.381   2.567   2.607 -0.1368  0.2469  0.0379
  377SOL    HW1 1130   1.455   2.504   2.624 -3.5108  1.9178 -1.9360
  377SOL    HW2 1131   1.383   2.596   2.514  1.7559 -2.4723 -0.6125
  378SOL     OW 1132   0.951   0.880   0.560  0.3962 -0.6056 -0.4871
  378SOL    HW1 1133   1.050   0.875   0.586  1.0077  1.2270  1.8022
  378SOL    HW2 1134   0.932   0.828   0.479  0.1364  3.1243  0.1805
  379SOL     OW 1135   0.685   1.752   0.474 -0.0990  0.4482 -0.3769
  379SOL    HW1 1136   0.618   1.741   0.546  1.7983  0.2998 -1.2558
  379SOL    HW2 1137   0.777   1.723   0.510  1.1549 -1.2260 -0.3804
  380SOL     OW 1138   0.230   1.977   1.444 -0.2734  0.5357 -0.3759
  380SOL    HW1 1139   0.143   2.021   1.435  2.7926 -1.1957  0.9561
  380SOL    HW2 1140   0.301   2.043   1.469  0.5662  0.2949 -2.3562
  381SOL     OW 1141   0.489   1.137   1.583 -0.0984 -0.4826 -0.4428
  381SOL    HW1 1142   0.493   1.233   1.561  0.6223  1.3156 -1.5690
  381SOL    HW2 1143   0.556   1.127   1.663  0.2486 -1.1818  3.0999
  382SOL     OW 1144   2.395   2.134   0.601  0.1664  0.0625  0.3641
  382SOL    HW1 1145   2.342   2.194   0.660  0.4111  0.4162 -0.8161
  382SOL    HW2 1146   2.429   2.194   0.526 -0.6410  0.1657  0.8296
  383SOL     OW 1147   2.688   1.947   2.112  0.8101 -0.6350 -0.1098
  383SOL    HW1 1148   2.642   2.029   2.145  1.3635 -1.8951 -3.4865
  383SOL    HW2 1149   2.733   1.891   2.184  1.2629  1.3179  0.2029
  384SOL     OW 1150   0.144   2.148   2.125  0.0513 -0.2485  0.4266
  384SOL    HW1 1151   0.210   2.186   2.195  0.7621 -0.5603  1.5317
  384SOL    HW2 1152   0.151   2.045   2.126 -1.5520  1.0692 -2.1638
  385SOL     OW 1153   2.981   2.184   0.809 -0.6205  0.2540 -0.4093
  385SOL    HW1 1154   3.033   2.103   0.841  1.8211 -2.0619 -0.3158
  385SOL    HW2 1155   2.883   2.194   0.841 -1.4695  1.4225 -1.3169
  386SOL     OW 1156   1.766   0.658   0.714 -0.4065 -0.6917 -0.1186
  386SOL    HW1 1157   1.780   0.755   0.746  0.5753  0.7244  0.8470
  386SOL    HW2 1158   1.701   0.604   0.770 -1.8680  1.3783  1.3767
  387SOL     OW 1159   0.434   0.721   1.943  0.0852  0.0279 -0.3178
  387SOL    HW1 1160   0.341   0.764   1.955 -1.2774 -1.3590 -0.0892
  387SOL    HW2 1161   0.492   0.785   1.892 -1.6501 -0.9264  1.2560
  388SOL     OW 1162   2.239   0.991   2.514 -0.2696  0.0419 -0.1759
  388SOL    HW1 1163   2.169   1.041   2.574  0.0181  0.3057  1.6242
  388SOL    HW2 1164   2.290   1.055   2.460 -1.7390  0.0082  0.4724
  389SOL     OW 1165   1.792   1.411   1.895  0.2093  0.5340  0.2746
  389SOL    HW1 1166   1.708   1.454   1.865  2.0905 -0.2266 -1.6525
  389SOL    HW2 1167   1.854   1.396   1.814 -0.4959 -0.4957  0.8989
  390SOL     OW 1168   1.772   2.808   0.022  0.0764  0.0094 -0.1043
  390SOL    HW1 1169   1.796   2.772   0.111  1.4963  1.0139 -0.9041
  390SOL    HW2 1170   1.765   2.728   3.031 -0.2279 -3.2223 -0.4538
  391SOL     OW 1171   2.062   2.384   1.332  0.5128  0.0630  0.8358
  391SOL    HW1 1172   2.041   2.334   1.245  0.3064 -5.2206 -0.3951
  391SOL    HW2 1173   2.165   2.387   1.342 -1.6282  1.9369 -0.8167
  392SOL     OW 1174   3.012   2.526   0.987 -1.0999  0.1145  0.0491
  392SOL    HW1 1175   2.932   2.500   1.042 -2.0910 -0.3850 -0.5731
  392SOL    HW2 1176   3.065   2.440   0.968 -0.7766 -0.1660  3.0346
  393SOL     OW 1177   2.194   1.687   0.052  0.1619 -0.4305 -0.1012
  393SOL    HW1 1178   2.126   1.608   0.045  0.4846  0.0215 -0.4740
  393SOL    HW2 1179   2.196   1.730   3.041 -0.3967  1.0686  0.8528
  394SOL     OW 1180   2.954   0.175   2.934 -0.1603 -0.1844  1.2031
  394SOL    HW1 1181   2.915   0.263   2.966  0.5606 -0.2407  0.9188
  394SOL    HW2 1182   2.934   0.157   2.836  0.2780 -1.0563 -0.8002
  395SOL     OW 1183   1.248   1.069   1.045 -0.0647  0.1242  0.3681
  395SOL    HW1 1184   1.337   1.105   1.012  3.2807  2.0334  0.8211
  395SOL    HW2 1185   1.196   1.009   0.979 -1.3083 -1.2690 -0.6760
  396SOL     OW 1186   1.454   0.548   2.947  0.4589 -0.2706 -0.5237
  396SOL    HW1 1187   1.552   0.567   2.927 -4.2398 -1.7041  0.7745
  396SOL    HW2 1188   1.397   0.534   2.865 -1.5629 -0.0117 -1.9309
  397SOL     OW 1189   2.970   0.356   2.569 -0.0128 -0.3343 -0.1350
  397SOL    HW1 1190   2.963   0.378   2.471 -1.5231  0.3125  2.9224
  397SOL    HW2 1191   2.913   0.282   2.593  0.4249  2.6056 -0.2878
  398SOL     OW 1192   0.739   3.069   0.110  1.0096 -0.1407  0.1563
  398SOL    HW1 1193   0.814   0.055   0.131  0.1503  5.2419 -0.0002
  398SOL    HW2 1194   0.678   0.032   0.041 -1.7350 -0.1021  0.2802
  399SOL     OW 1195   2.413   2.875   2.015  0.5969  0.7102  0.3655
  399SOL    HW1 1196   2.480   2.848   1.940  0.1935 -0.4970  1.7650
  399SOL    HW2 1197   2.462   2.859   2.101  1.1941 -0.5335 -2.3307
  400SOL     OW 1198   0.532   1.756   2.369 -0.1454  0.2659 -0.3891
  400SOL    HW1 1199   0.571   1.722   2.457  1.5968 -0.9441 -0.4037
  400SOL    HW2 1200   0.585   1.724   2.287 -0.9429 -0.1770  0.8276
  401SOL     OW 1201   0.829   0.491   2.739 -0.3332  0.3886 -0.1770
  401SOL    HW1 1202   0.877   0.407   2.772  1.5896 -1.0477 -1.4681
  401SOL    HW2 1203   0.878   0.534   2.661  0.6709  0.9609 -0.3397
  402SOL     OW 1204   3.047   2.086   1.492 -0.3706 -0.4642 -0.0939
  402SOL    HW1 1205   3.070   2.164   1.555 -0.4451  1.1830 -0.6447
  402SOL    HW2 1206   2.981   2.017   1.530 -2.2768  0.8227 -1.8204
  403SOL     OW 1207   0.678   1.127   1.774  0.1506  0.2459  0.3806
  403SOL    HW1 1208   0.770   1.160   1.740  0.1057  1.2368 -0.9177
  403SOL    HW2 1209   0.625   1.184   1.841  1.4085 -0.3002  0.8346
  404SOL     OW 1210   2.892   2.426   1.522 -0.4163  0.4347 -0.7553
  404SOL    HW1 1211   2.840   2.493   1.581  1.1524  2.9617  2.5381
  404SOL    HW2 1212   2.834   2.390   1.443  0.2171 -1.1740 -0.9548
  405SOL     OW 1213   0.442   0.469   1.824 -0.0325  0.4155 -0.0991
  405SOL    HW1 1214   0.434   0.543   1.893  0.0313  2.8802 -1.6478
  405SOL    HW2 1215   0.470   0.386   1.880  1.5957 -1.5148  2.2112
  406SOL     OW 1216   1.676   2.270   0.105  0.2175  0.1228  0.3752
  406SOL    HW1 1217   1.770   2.296   0.131  0.5748  0.0335  0.2314
  406SOL    HW2 1218   1.665   2.220   0.021  0.5696 -0.7393  1.9651
  407SOL     OW 1219   1.722   0.985   1.769  0.5402  0.0913 -0.3170
  407SOL    HW1 1220   1.633   0.943   1.777  3.3615 -1.2397 -1.1149
  407SOL    HW2 1221   1.747   1.032   1.856  1.1579 -0.2313 -1.3485
  408SOL     OW 1222   0.717   0.186   2.627 -0.0668 -0.0553 -0.2494
  408SOL    HW1 1223   0.619   0.165   2.648  2.1448 -0.0757  0.0809
  408SOL    HW2 1224   0.774   0.190   2.709  0.9428  0.8920 -1.2943
  409SOL     OW 1225   2.982   2.308   0.571  0.6125 -0.0354  0.2358
  409SOL    HW1 1226   2.969   2.245   0.497 -1.2286  0.0240  0.4184
  409SOL    HW2 1227   2.986   2.255   0.660 -0.7922 -0.2900  0.8062
  410SOL     OW 1228   2.501   1.649   0.405  0.0493 -0.1310 -0.4808
  410SOL    HW1 1229   2.462   1.679   0.496 -1.5295  2.0466  1.0768
  410SOL    HW2 1230   2.488   1.732   0.342  1.3129 -0.4871 -1.3986
  411SOL     OW 1231   3.049   0.660   0.713  0.2973 -0.8482  0.0584
  411SOL    HW1 1232   0.045   0.725   0.687 -2.0454  0.4904  1.1487
  411SOL    HW2 1233   3.078   0.565   0.709 -0.5414 -1.8470  0.4802
  412SOL     OW 1234   1.443   0.872   0.854 -0.1256  0.1029  0.1361
  412SOL    HW1 1235   1.525   0.848   0.899 -1.4874  2.1354 -2.3938
  412SOL    HW2 1236   1.450   0.957   0.800  1.3087 -0.0430  0.2150
  413SOL     OW 1237   0.915   0.210   1.046  0.8244  0.3309  0.1487
  413SOL    HW1 1238   0.862   0.122   1.053 -1.5772 -3.0879 -0.1658
  413SOL    HW2 1239   1.002   0.199   0.993 -0.7799  1.1342  3.5535
  414SOL     OW 1240   0.051   1.758   2.888 -0.1465 -0.0534  0.1673
  414SOL    HW1 1241   0.016   1.853   2.874  2.3575 -0.5765  2.0634
  414SOL    HW2 1242   0.148   1.762   2.914  0.9064 -0.3902 -0.5111
  415SOL     OW 1243   0.502   2.332   2.955 -0.2681  0.0005 -0.3977
  415SOL    HW1 1244   0.586   2.385   2.959  0.0112 -1.5784  0.6627
  415SOL    HW2 1245   0.454   2.347   2.867 -1.2578  1.2139  0.1617
  416SOL     OW 1246   1.585   0.793   0.512  0.5396 -1.0244 -0.5716
  416SOL    HW1 1247   1.545   0.726   0.582  0.5993  0.2555 -1.0389
  416SOL    HW2 1248   1.684   0.781   0.519 -1.7561 -2.6707 -1.2230
  417SOL     OW 1249   0.141   1.170   0.261  0.2858  0.1324 -0.1608
  417SOL    HW1 1250   0.203   1.192   0.182 -1.8646  2.3174  0.0006
  417SOL    HW2 1251   0.044   1.187   0.229  0.1485  0.1462  1.3807
  418SOL     OW 1252   2.583   1.419   2.545  0.4037  0.0479  0.0169
  418SOL    HW1 1253   2.551   1.453   2.459  1.2530 -3.3366  0.8626
  418SOL    HW2 1254   2.636   1.331   2.536  1.5771  1.3335  1.9361
  419SOL     OW 1255   0.222   0.440   2.873 -0.0427 -0.0056  0.2850
  419SOL    HW1 1256   0.176   0.429   2.961  1.9969 -1.1407  0.3696
  419SOL    HW2 1257   0.178   0.381   2.800 -1.0689  2.4922 -1.1805
  420SOL     OW 1258   0.407   1.417   0.893 -0.2328  0.0918 -0.0887
  420SOL    HW1 1259   0.462   1.339   0.928 -0.2306  1.8806  0.4975
  420SOL    HW2 1260   0.308   1.401   0.913  0.4426 -0.2225  1.1693
  421SOL     OW 1261   0.607   2.221   0.842 -0.3222 -0.4208  0.0919
  421SOL    HW1 1262   0.695   2.261   0.807  0.1084  0.6333  0.5931
  421SOL    HW2 1263   0.589   2.130   0.796  1.8536  0.2922  1.6073
  422SOL     OW 1264   2.996   0.845   1.389  1.0117  0.2178 -0.5445
  422SOL    HW1 1265   0.019   0.851   1.366  0.9440  1.3505 -2.4086
  422SOL    HW2 1266   2.947   0.835   1.299  1.9382 -2.5244  0.6712
  423SOL     OW 1267   1.555   1.463   1.435 -0.0470 -0.3649 -0.6088
  423SOL    HW1 1268   1.622   1.505   1.371  0.1230 -1.1123 -0.3579
  423SOL    HW2 1269   1.553   1.360   1.431  0.4211 -3.6565  0.3145
  424SOL     OW 1270   1.822   0.999   0.125  0.3026  0.0136 -0.2493
  424SOL    HW1 1271   1.732   1.046   0.139 -0.6127  0.9888  0.8424
  424SOL    HW2 1272   1.878   1.046   0.050  0.2880 -0.8753  1.4074
  425SOL     OW 1273   0.060   0.385   1.815  0.3571  0.0732  0.2370
  425SOL    HW1 1274   0.111   0.361   1.897 -1.3013  0.2424 -2.7719
  425SOL    HW2 1275   0.122   0.421   1.745  1.1019 -1.2649  0.4962
  426SOL     OW 1276   2.485   2.939   2.634  0.4592  0.2844 -0.6388
  426SOL    HW1 1277   2.391   2.907   2.609  1.0239  2.7653 -0.2705
  426SOL    HW2 1278   2.524   2.959   2.541  0.6876 -0.1504 -1.5885
  427SOL     OW 1279   1.041   0.926   2.372  0.1272  0.2613 -0.5372
  427SOL    HW1 1280   1.049   0.830   2.344 -0.4629 -0.8407  1.5201
  427SOL    HW2 1281   0.990   0.988   2.311 -0.3454  0.0713  1.0638
  428SOL     OW 1282   2.143   1.037   2.181 -0.3181 -0.0750  0.4150
  428SOL    HW1 1283   2.065   0.989   2.211  4.1113  2.6314 -1.7836
  428SOL    HW2 1284   2.141   1.132   2.213 -1.1749  0.1671  2.7596
  429SOL     OW 1285   2.802   2.983   0.646 -0.4411 -0.7720  0.3052
  429SOL    HW1 1286   2.841   3.075   0.659  1.9591  1.4057 -0.3162
  429SOL    HW2 1287   2.858   2.933   0.576 -0.0903 -1.1334 -1.1330
  430SOL     OW 1288   1.963   1.454   2.143  0.2885 -0.5921  0.2672
  430SOL    HW1 1289   2.058   1.415   2.143 -1.2120  0.5499 -0.2193
  430SOL    HW2 1290   1.904   1.448   2.061 -0.6759 -1.7201  3.3424
  431SOL     OW 1291   0.156   1.883   1.196  0.0435  0.1921 -0.2825
  431SOL    HW1 1292   0.205   1.904   1.284 -1.7593  0.0838  0.2183
  431SOL    HW2 1293   0.065   1.845   1.208 -0.5870  0.4022  1.4137
  432SOL     OW 1294   1.532   2.954   2.247  0.1103 -0.4617 -0.3084
  432SOL    HW1 1295   1.495   2.862   2.273  0.9511 -4.2438 -0.0352
  432SOL    HW2 1296   1.606   2.938   2.184 -2.4920 -0.9377  0.2313
  433SOL     OW 1297   1.513   0.005   1.767 -0.1480 -0.1987  0.5881
  433SOL    HW1 1298   1.475   0.066   1.696 -2.6100  2.6290  1.4244
  433SOL    HW2 1299   1.557   0.066   1.840  3.0558  1.7532  1.5028
  434SOL     OW 1300   0.444   2.646   2.141 -0.8484  0.0109  0.3135
  434SOL    HW1 1301   0.429   2.737   2.183 -1.0999 -0.6805 -0.3364
  434SOL    HW2 1302   0.371   2.585   2.186 -2.1281 -1.8786 -1.4694
  435SOL     OW 1303   0.363   2.026   0.245  0.0790  0.0845 -0.7086
  435SOL    HW1 1304   0.381   2.067   0.153  0.6890  1.3325 -1.0997
  435SOL    HW2 1305   0.352   1.927   0.242  0.4460  2.8101  1.3839
  436SOL     OW 1306   0.617   0.880   1.834 -0.2949 -0.1721  0.5371
  436SOL    HW1 1307   0.708   0.840   1.845  1.7393 -0.6036 -0.0323
  436SOL    HW2 1308   0.630   0.981   1.822 -1.5709 -1.7815  0.0211
  437SOL     OW 1309   0.600   3.031   2.201  0.2940  0.1298  0.3083
  437SOL    HW1 1310   0.613   0.051   2.193 -0.8962 -0.6343  0.0973
  437SOL    HW2 1311   0.623   2.996   2.294 -0.3892  2.8450  1.6608
  438SOL     OW 1312   0.602   1.706   1.600 -0.1720  0.6100  0.2608
  438SOL    HW1 1313   0.550   1.791   1.633 -1.5533  1.6207 -0.6377
  438SOL    HW2 1314   0.591   1.633   1.671  0.6592  1.5839 -0.5853
  439SOL     OW 1315   2.012   0.872   2.921 -0.1796  0.1400 -0.1731
  439SOL    HW1 1316   2.016   0.969   2.930 -0.5719 -0.6274 -1.1803
  439SOL    HW2 1317   1.918   0.845   2.913  1.3863  1.7784 -1.6314
  440SOL     OW 1318   0.621   0.221   0.326 -0.2165  0.5346 -0.0182
  440SOL    HW1 1319   0.626   0.324   0.325 -0.0491  1.3541  0.9776
  440SOL    HW2 1320   0.547   0.187   0.264  0.2133  0.0040  2.1308
  441SOL     OW 1321   1.030   2.241   1.476 -0.4055 -0.2224  0.5251
  441SOL    HW1 1322   1.067   2.243   1.568 -1.0661  2.3791 -1.4943
  441SOL    HW2 1323   0.927   2.226   1.476 -1.4297 -2.5722  0.2589
  442SOL     OW 1324   3.007   1.752   0.477 -0.2967 -0.2443  0.4762
  442SOL    HW1 1325   2.928   1.696   0.442 -0.6358  1.1166  0.0577
  442SOL    HW2 1326   2.981   1.807   0.558 -0.3202  2.4887  3.9571
  443SOL     OW 1327   2.802   2.044   2.721 -0.0229  0.8089  0.3298
  443SOL    HW1 1328   2.769   1.957   2.683 -0.9394  1.9375  1.8169
  443SOL    HW2 1329   2.903   2.030   2.738  1.1700 -1.2530  0.1493
  444SOL     OW 1330   1.303   0.913   0.148 -0.0973  0.1216  0.0772
  444SOL    HW1 1331   1.384   0.959   0.177 -1.3803 -0.9947  1.2466
  444SOL    HW2 1332   1.220   0.957   0.191 -2.0033 -0.7227 -1.0208
  445SOL     OW 1333   2.604   2.718   1.894 -0.5457  0.2093 -0.6697
  445SOL    HW1 1334   2.674   2.769   1.952  1.8023  0.1609  1.0070
  445SOL    HW2 1335   2.561   2.636   1.940 -2.0711  1.3088  1.7370
  446SOL     OW 1336   0.023   1.285   0.598 -0.0426 -0.6290  0.5297
  446SOL    HW1 1337   3.066   1.193   0.625  0.5575 -2.3812 -0.8090
  446SOL    HW2 1338   3.024   1.354   0.587 -0.3840  2.4845 -0.3507
  447SOL     OW 1339   1.036   1.723   0.963 -0.7015  0.4012  0.1826
  447SOL    HW1 1340   1.065   1.716   1.057  2.5480 -0.4941 -0.3096
  447SOL    HW2 1341   0.935   1.731   0.960 -1.1630 -1.1567 -2.4048
  448SOL     OW 1342   1.518   1.840   1.579 -0.3735 -0.2491 -0.5749
  448SOL    HW1 1343   1.588   1.887   1.640 -0.8661  1.0970  3.1609
  448SOL    HW2 1344   1.449   1.784   1.633  0.2226  1.9448 -0.0211
  449SOL     OW 1345   2.896   2.381   2.559 -0.2262 -0.6552 -0.0152
  449SOL    HW1 1346   2.818   2.328   2.608 -1.7198 -1.7504  2.3480
  449SOL    HW2 1347   2.986   2.333   2.547 -1.0905 -0.9916  0.5178
  450SOL     OW 1348   0.031   1.656   2.056 -0.9931 -0.4196 -0.3291
  450SOL    HW1 1349   3.059   1.690   1.979  0.1394 -0.8100  0.5354
  450SOL    HW2 1350   0.083   1.573   2.029 -0.0875 -0.2431 -1.0858
  451SOL     OW 1351   2.358   0.837   1.174 -0.4550 -0.2981 -0.0629
  451SOL    HW1 1352   2.305   0.925   1.168 -1.0475  0.0433 -0.3533
  451SOL    HW2 1353   2.350   0.804   1.267  0.3742  1.7477  0.4253
  452SOL     OW 1354   0.786   1.176   0.876 -0.1175  0.4313 -0.2725
  452SOL    HW1 1355   0.738   1.126   0.807 -3.2796  0.3607  2.7665
  452SOL    HW2 1356   0.885   1.182   0.858 -3.7571 -0.7239 -0.0246
  453SOL     OW 1357   1.460   2.156   0.649 -0.6972  0.1824 -0.4519
  453SOL    HW1 1358   1.477   2.124   0.743 -0.8899  3.1546 -2.4799
  453SOL    HW2 1359   1.554   2.180   0.610  0.0367  1.6122 -3.4515
  454SOL     OW 1360   0.474   1.661   0.075 -0.0507 -0.8639  0.5041
  454SOL    HW1 1361   0.570   1.686   0.093 -0.1944  0.4604  2.4507
  454SOL    HW2 1362   0.414   1.676   0.155 -0.7861 -0.3970  0.3607
  455SOL     OW 1363   1.057   0.995   0.265 -0.1036 -0.4339 -0.3104
  455SOL    HW1 1364   1.035   0.894   0.279  0.5710 -1.1773  0.0203
  455SOL    HW2 1365   1.025   1.048   0.345  2.2590 -3.7232  0.2224
  456SOL     OW 1366   2.190   2.529   0.965  0.0036  0.4797 -0.4928
  456SOL    HW1 1367   2.114   2.561   0.909 -1.8787 -0.0661 -1.0014
  456SOL    HW2 1368   2.169   2.436   1.007  0.4574 -3.5230  0.7272
  457SOL     OW 1369   1.450   2.916   3.014 -0.1632  0.1653  0.8765
  457SOL    HW1 1370   1.543   2.948   3.017 -2.6078 -2.9315  0.4046
  457SOL    HW2 1371   1.412   2.885   0.024  0.8890  1.9098 -0.3979
  458SOL     OW 1372   2.459   0.870   0.485  0.3443 -0.0212 -0.8230
  458SOL    HW1 1373   2.367   0.868   0.530 -0.1894  0.1445  0.5617
  458SOL    HW2 1374   2.464   0.944   0.418  1.0086 -1.2061 -3.1138
  459SOL     OW 1375   2.418   0.475   2.524 -0.1188  0.6827 -0.3331
  459SOL    HW1 1376   2.346   0.467   2.456  0.9763 -0.7690  1.9317
  459SOL    HW2 1377   2.460   0.566   2.514 -1.0200 -0.4940 -0.8471
  460SOL     OW 1378   2.574   0.722   2.533 -1.0382 -0.2824  0.0575
  460SOL    HW1 1379   2.658   0.754   2.581 -0.1868  0.8383 -0.1262
  460SOL    HW2 1380   2.495   0.738   2.588  2.2434  2.7031 -1.3842
  461SOL     OW 1381   0.135   2.327   0.910  0.1016  0.1257  0.0473
  461SOL    HW1 1382   0.137   2.315   1.012 -0.4038  0.7290  1.4012
  461SOL    HW2 1383   0.071   2.268   0.861 -3.2845  0.7316  0.9685
  462SOL     OW 1384   3.019   2.751   1.649  0.1775  0.1730  0.0795
  462SOL    HW1 1385   3.062   2.831   1.694 -0.3556  0.8162  0.2876
  462SOL    HW2 1386   3.035   2.748   1.553 -1.0776 -1.0134  1.4892
  463SOL     OW 1387   2.279   1.894   2.644  0.2500  0.4975 -0.8760
  463SOL    HW1 1388   2.365   1.847   2.674  1.7851 -1.3866  0.4531
  463SOL    HW2 1389   2.229   1.838   2.574  0.4346 -0.6547 -0.7176
  464SOL     OW 1390   0.817   2.775   1.522 -0.2689  0.3165 -0.3238
  464SOL    HW1 1391   0.873   2.708   1.575  1.2084 -0.6999  2.6195
  464SOL    HW2 1392   0.840   2.869   1.550 -0.4241 -1.2341  2.0146
  465SOL     OW 1393   0.861   3.035   1.582 -0.1279 -0.3557  0.3789
  465SOL    HW1 1394   0.819   3.075   1.499 -0.8705  0.3218 -1.3842
  465SOL    HW2 1395   0.803   3.062   1.661  2.2236 -0.3811  0.0399
  466SOL     OW 1396   1.456   2.631   1.803  0.4585  0.4941 -0.1041
  466SOL    HW1 1397   1.516   2.616   1.889  3.7523  0.9983  0.1760
  466SOL    HW2 1398   1.421   2.730   1.799 -0.7970  4.6575  0.0237
  467SOL     OW 1399   0.756   1.931   1.265 -0.6168 -0.0542 -0.2694
  467SOL    HW1 1400   0.792   1.871   1.340 -0.3341 -0.4835  1.3117
  467SOL    HW2 1401   0.658   1.906   1.246 -0.0590 -2.6069 -1.2826
  468SOL     OW 1402   2.847   1.823   2.305  0.3357  0.5359  0.0355
  468SOL    HW1 1403   2.936   1.856   2.341  0.9927 -1.6480  0.4098
  468SOL    HW2 1404   2.836   1.723   2.304 -3.2231 -0.5098  1.8347
  469SOL     OW 1405   0.844   1.968   0.790  0.0645  0.0784 -0.7273
  469SOL    HW1 1406   0.944   1.960   0.806 -1.2676  2.3720  0.2744
  469SOL    HW2 1407   0.797   1.903   0.856 -0.0607 -3.2966  4.0824
  470SOL     OW 1408   2.171   1.271   1.778 -0.1992 -0.0399  0.0270
  470SOL    HW1 1409   2.105   1.336   1.732 -0.4005 -0.1603 -1.3270
  470SOL    HW2 1410   2.233   1.227   1.709 -2.2159 -0.8373 -0.9555
  471SOL     OW 1411   0.416   2.324   0.121  0.0906  0.0551  0.3715
  471SOL    HW1 1412   0.484   2.282   0.185  0.1991 -1.3724 -2.8082
  471SOL    HW2 1413   0.455   2.322   0.027  1.9588 -1.0587 -0.5696
  472SOL     OW 1414   2.840   1.973   1.879 -0.2950  0.0468  0.1386
  472SOL    HW1 1415   2.768   1.975   1.954  0.1709  0.5848  0.4063
  472SOL    HW2 1416   2.894   2.056   1.881 -0.8563 -2.5561 -1.1740
  473SOL     OW 1417   1.105   2.968   0.163 -0.3803 -0.1491 -0.0696
  473SOL    HW1 1418   1.150   2.874   0.157  0.8263 -1.0849  2.7828
  473SOL    HW2 1419   1.078   3.009   0.075  0.4750  1.5450  0.8297
  474SOL     OW 1420   2.657   2.527   0.759 -0.1857  0.2702  0.5411
  474SOL    HW1 1421   2.639   2.613   0.815 -0.0750  1.2420  1.3262
  474SOL    HW2 1422   2.733   2.533   0.692 -2.2676 -1.3419 -2.8224
  475SOL     OW 1423   2.095   2.977   1.587 -0.1320  0.4125 -0.2871
  475SOL    HW1 1424   2.165   2.931   1.531 -1.4796  1.2284 -1.6591
  475SOL    HW2 1425   2.001   2.949   1.561 -0.1684  0.2735 -1.7525
  476SOL     OW 1426   0.720   1.022   0.677 -0.1101 -0.0022 -0.1772
  476SOL    HW1 1427   0.806   0.994   0.626  1.2229 -2.1599 -3.0892
  476SOL    HW2 1428   0.661   0.939   0.682  1.5572  0.5285  0.3314
  477SOL     OW 1429   0.357   1.927   0.870  0.7084 -0.8080 -0.0377
  477SOL    HW1 1430   0.359   2.006   0.934 -1.5898 -2.0718 -3.4931
  477SOL    HW2 1431   0.426   1.934   0.798  0.0736 -1.1455  1.4236
  478SOL     OW 1432   0.036   2.579   2.141 -0.8531  0.3012  0.2744
  478SOL    HW1 1433   3.032   2.578   2.205  0.4680  0.6585  3.3662
  478SOL    HW2 1434   0.059   2.672   2.111 -2.8483 -2.1812 -0.4561
  479SOL     OW 1435   0.257   0.472   1.635  0.2412  0.3081 -0.2474
  479SOL    HW1 1436   0.281   0.390   1.580  1.6964  0.0227  0.8650
  479SOL    HW2 1437   0.334   0.483   1.700 -2.4783  0.5662  0.1523
  480SOL     OW 1438   2.879   2.576   3.001 -0.3380 -0.1314  0.6031
  480SOL    HW1 1439   2.958   2.519   2.973 -0.9270  0.2601 -0.0600
  480SOL    HW2 1440   2.801   2.520   3.029 -0.4316  1.6845 -1.9181
  481SOL     OW 1441   1.953   2.076   1.834  0.1542 -0.0853 -0.2312
  481SOL    HW1 1442   2.021   2.003   1.849  2.8118  1.8218  0.7887
  481SOL    HW2 1443   1.921   2.070   1.735  0.5341 -0.4012 -3.1380
  482SOL     OW 1444   1.525   2.356   2.903 -0.2291  0.1171 -0.2484
  482SOL    HW1 1445   1.447   2.299   2.950 -1.2649 -3.4964  1.6012
  482SOL    HW2 1446   1.584   2.406   2.969  0.5114 -0.3226 -0.9349
  483SOL     OW 1447   0.605   2.039   2.227 -0.1195  0.0458  0.1287
  483SOL    HW1 1448   0.693   2.042   2.180  1.3537 -1.0978  2.6069
  483SOL    HW2 1449   0.551   2.115   2.196  0.6939  0.5666 -1.0154
  484SOL     OW 1450   2.992   0.499   1.121 -0.0191  0.1052  0.3448
  484SOL    HW1 1451   2.986   0.427   1.050 -0.2555  1.0584  1.4114
  484SOL    HW2 1452   2.977   0.462   1.215  2.5194 -1.3899  1.0435
  485SOL     OW 1453   2.120   1.070   0.677  0.1092 -0.1860  0.3139
  485SOL    HW1 1454   2.160   1.109   0.589  0.7418  0.4780  1.4605
  485SOL    HW2 1455   2.036   1.124   0.705 -0.2026 -1.7887  1.7542
  486SOL     OW 1456   1.613   0.292   2.226 -0.1838  0.4199  0.1304
  486SOL    HW1 1457   1.692   0.351   2.243  2.6596 -0.6771  0.4775
  486SOL    HW2 1458   1.630   0.203   2.275  1.1380  0.6323 -2.2636
  487SOL     OW 1459   0.845   1.616   1.202 -0.0555 -0.0537 -0.7512
  487SOL    HW1 1460   0.745   1.610   1.189  0.3084  1.1227  1.0835
  487SOL    HW2 1461   0.885   1.520   1.187 -1.3815  0.0263 -2.1596
  488SOL     OW 1462   2.319   1.338   2.971 -0.1181  0.3837 -0.0342
  488SOL    HW1 1463   2.357   1.374   2.882 -1.9577 -1.0342  0.2597
  488SOL    HW2 1464   2.340   1.410   3.043 -2.3527  1.7896  0.0433
  489SOL     OW 1465   2.151   0.085   0.415 -0.4593  0.2056  0.3404
  489SOL    HW1 1466   2.219   0.073   0.491 -0.3282 -1.4876 -4.4641
  489SOL    HW2 1467   2.080   0.159   0.425  0.2678 -1.6422  1.8061
  490SOL     OW 1468   1.380   2.467   0.351 -0.5562 -0.6978  0.5894
  490SOL    HW1 1469   1.426   2.375   0.344 -2.0043 -1.1931 -0.5139
  490SOL    HW2 1470   1.448   2.539   0.324  0.3346  3.8898 -1.5630
  491SOL     OW 1471   1.088   0.949   0.850 -0.1241 -0.1011 -0.0577
  491SOL    HW1 1472   1.000   0.900   0.873 -0.1083  1.3305  0.4281
  491SOL    HW2 1473   1.128   0.924   0.762  0.4055  0.5539  2.6515
  492SOL     OW 1474   1.404   0.208   2.794 -0.1739 -0.0741  0.6842
  492SOL    HW1 1475   1.486   0.199   2.732  2.4609 -0.2304  0.0725
  492SOL    HW2 1476   1.349   0.288   2.758 -0.5578  0.8545  0.2768
  493SOL     OW 1477   1.866   1.962   0.170 -0.2582  0.2147  0.3140
  493SOL    HW1 1478   1.927   2.041   0.151  1.1252  1.5007  2.9931
  493SOL    HW2 1479   1.913   1.912   0.252  0.9559  0.8870 -1.8775
  494SOL     OW 1480   0.465   1.035   0.334 -0.2592 -0.2879 -0.2341
  494SOL    HW1 1481   0.461   1.133   0.329 -1.3505 -2.3848 -0.6766
  494SOL    HW2 1482   0.545   0.989   0.285  2.0918  1.3200 -2.4280
  495SOL     OW 1483   2.979   2.690   0.791 -0.6067 -0.0264 -0.6618
  495SOL    HW1 1484   3.000   2.627   0.874  1.8018  0.5088  1.1168
  495SOL    HW2 1485   2.916   2.647   0.726  2.9903  0.1008  2.0959
  496SOL     OW 1486   2.418   0.066   1.706 -0.5114 -0.5855 -0.1296
  496SOL    HW1 1487   2.394   0.030   1.615  2.3364 -0.8750 -0.3281
  496SOL    HW2 1488   2.484   0.143   1.704 -0.6419 -2.5435  3.4001
  497SOL     OW 1489   1.968   1.349   2.591 -0.4142  0.2900 -0.0119
  497SOL    HW1 1490   2.032   1.425   2.617  0.4421 -1.5931 -1.1821
  497SOL    HW2 1491   1.931   1.349   2.497  0.1635 -0.2103  0.5346
  498SOL     OW 1492   0.756   1.815   0.985  0.3791 -0.3456 -0.4764
  498SOL    HW1 1493   0.773   1.816   1.090  1.3742  1.8149  3.1040
  498SOL    HW2 1494   0.706   1.730   0.953  0.5012  0.0051  0.6917
  499SOL     OW 1495   0.745   2.144   1.462 -0.3212 -0.5394  0.6330
  499SOL    HW1 1496   0.743   2.076   1.384 -0.5685 -1.1245 -0.6296
  499SOL    HW2 1497   0.704   2.234   1.430 -2.6272  1.5172 -1.3904
  500SOL     OW 1498   0.848   2.005   0.206 -0.3741 -0.3234  0.6913
  500SOL    HW1 1499   0.832   2.009   0.305  0.9206  0.8100 -2.6740
  500SOL    HW2 1500   0.905   2.086   0.195  0.5691  1.1469  0.9292
  501SOL     OW 1501   2.672   2.891   1.346 -0.1526 -0.1254 -0.0829
  501SOL    HW1 1502   2.733   2.841   1.279  2.4376  0.5630 -2.4233
  501SOL    HW2 1503   2.636   2.826   1.416 -0.2182 -0.7861 -2.4580
  502SOL     OW 1504   0.375   0.640   1.440  0.0296  0.2607  0.7058
  502SOL    HW1 1505   0.298   0.603   1.497  3.0942 -0.2249  0.7737
  502SOL    HW2 1506   0.460   0.641   1.497  2.1090  2.2144 -1.5523
  503SOL     OW 1507   2.183   0.819   1.710  0.3607  0.4334  0.2940
  503SOL    HW1 1508   2.281   0.801   1.695  1.2601 -1.5418  1.2206
  503SOL    HW2 1509   2.162   0.904   1.763  1.0997  3.1213  1.0253
  504SOL     OW 1510   1.099   0.796   2.027 -0.2508  0.8035  0.0740
  504SOL    HW1 1511   1.102   0.756   2.122 -1.2240  2.9610  0.2201
  504SOL    HW2 1512   1.151   0.883   2.022 -1.3168 -2.0033  0.1155
  505SOL     OW 1513   0.927   0.086   2.432  0.0877  0.0842 -0.0130
  505SOL    HW1 1514   0.928   3.074   2.381  2.2267 -2.2337 -1.6745
  505SOL    HW2 1515   0.858   0.085   2.509 -0.3442  0.2236  2.0194
  506SOL     OW 1516   0.105   0.417   0.762 -0.3494 -0.0991 -0.3432
  506SOL    HW1 1517   0.031   0.404   0.835  1.1476 -1.1423  1.1834
  506SOL    HW2 1518   0.139   0.324   0.731 -2.6170  0.5187 -0.5196
  507SOL     OW 1519   1.337   0.308   3.034  0.5547 -0.3064 -0.2338
  507SOL    HW1 1520   1.354   0.250   2.955 -0.1987 -2.8509 -1.3776
  507SOL    HW2 1521   1.373   0.401   3.011 -2.4996  0.0460 -0.4693
  508SOL     OW 1522   1.792   0.449   2.347  0.0356 -0.5374 -0.0285
  508SOL    HW1 1523   1.829   0.544   2.341  0.1234 -1.2596 -0.4726
  508SOL    HW2 1524   1.856   0.387   2.394  1.8314 -0.3386 -1.0612
  509SOL     OW 1525   0.588   1.299   2.193  0.0238  0.0751  0.4589
  509SOL    HW1 1526   0.680   1.344   2.193 -0.4644  1.4905 -0.3972
  509SOL    HW2 1527   0.591   1.208   2.240 -0.8987  0.0748 -2.6044
  510SOL     OW 1528   3.058   1.006   0.709 -0.0518  0.6656  0.4235
  510SOL    HW1 1529   3.037   0.993   0.808 -0.1385 -0.3305 -1.4033
  510SOL    HW2 1530   0.057   0.950   0.680 -1.2842 -0.4520  1.9892
  511SOL     OW 1531   2.095   2.060   0.790 -0.1001  0.2966 -0.7665
  511SOL    HW1 1532   2.176   2.095   0.840  2.3776  1.3046  1.0223
  511SOL    HW2 1533   2.088   1.954   0.801  0.4844 -3.7774 -0.9169
  512SOL     OW 1534   0.430   1.432   0.617  0.0047  0.4167  0.3114
  512SOL    HW1 1535   0.382   1.417   0.710  0.6085 -1.8702  0.2608
  512SOL    HW2 1536   0.368   1.430   0.541 -0.7536  2.3945 -1.2831
  513SOL     OW 1537   0.247   2.201   0.473  0.1806 -0.7993  0.3766
  513SOL    HW1 1538   0.261   2.173   0.376 -2.8735 -0.8459 -1.1878
  513SOL    HW2 1539   0.311   2.277   0.500  0.4294 -1.1310 -1.3801
  514SOL     OW 1540   2.418   2.094   2.371  0.1506 -0.6722 -0.2761
  514SOL    HW1 1541   2.397   2.168   2.445 -3.6685  2.7094 -1.2224
  514SOL    HW2 1542   2.475   2.139   2.301  0.6496  3.1369 -1.3998
  515SOL     OW 1543   2.244   1.076   0.213  0.2392  0.0839  0.5643
  515SOL    HW1 1544   2.183   1.005   0.163 -0.6795  1.5408 -3.3806
  515SOL    HW2 1545   2.337   1.042   0.225 -0.7783 -0.6263  1.7398
  516SOL     OW 1546   1.943   0.239   0.520 -0.0605  0.2611  0.0347
  516SOL    HW1 1547   1.909   0.328   0.543 -0.9373 -1.6954  0.9853
  516SOL    HW2 1548   1.892   0.192   0.443  0.7977  0.5439  1.7742
  517SOL     OW 1549   1.158   2.100   0.244 -0.1069 -0.2266  0.1021
  517SOL    HW1 1550   1.095   2.179   0.267 -2.1505 -1.0830  1.0708
  517SOL    HW2 1551   1.103   2.011   0.223 -3.9991 -2.0089 -4.7424
  518SOL     OW 1552   1.206   0.610   1.860  0.6161 -0.0457 -0.5184
  518SOL    HW1 1553   1.170   0.680   1.923  0.2595 -1.3861  1.0882
  518SOL    HW2 1554   1.304   0.591   1.860 -0.2222 -1.5052  5.3453
  519SOL     OW 1555   2.957   1.467   0.224 -0.1390  0.3457 -0.1453
  519SOL    HW1 1556   2.961   1.508   0.132  0.7529 -1.1778  1.1246
  519SOL    HW2 1557   2.934   1.367   0.217 -2.0966  2.1176 -0.5954
  520SOL     OW 1558   2.271   1.960   1.570  0.1875  0.0286  0.0094
  520SOL    HW1 1559   2.246   2.003   1.484  0.7818 -1.6155  2.9818
  520SOL    HW2 1560   2.317   2.027   1.634 -0.2464  2.5169  0.7655
  521SOL     OW 1561   0.902   2.894   2.319  0.0618  0.1375 -0.5896
  521SOL    HW1 1562   0.944   2.936   2.236 -4.5763 -0.2183  2.1909
  521SOL    HW2 1563   0.955   2.810   2.352 -0.2259 -0.5426 -0.5801
  522SOL     OW 1564   1.982   0.239   2.185 -0.7714 -0.1840  0.0140
  522SOL    HW1 1565   1.963   0.207   2.279  1.6331  0.6043 -2.6166
  522SOL    HW2 1566   2.023   0.334   2.184  0.7089 -0.2065  0.3104
  523SOL     OW 1567   1.777   1.885   1.131  0.0412 -0.0314  0.9266
  523SOL    HW1 1568   1.774   1.892   1.029 -0.5979 -0.4734 -0.9222
  523SOL    HW2 1569   1.689   1.853   1.171 -1.1346  0.7374  0.4124
  524SOL     OW 1570   1.194   2.417   0.135 -0.2299 -0.1751  0.1454
  524SOL    HW1 1571   1.124   2.358   0.176 -2.4578  2.7778 -3.6799
  524SOL    HW2 1572   1.261   2.432   0.205 -1.9427 -3.0101 -1.0776
  525SOL     OW 1573   0.057   0.414   0.020  0.5147  0.1562  0.6421
  525SOL    HW1 1574   3.042   0.419   3.054 -1.2718 -0.7302  1.4502
  525SOL    HW2 1575   0.062   0.446   0.114  2.6177 -0.4281 -0.9584
  526SOL     OW 1576   0.913   2.797   0.469  0.6140  0.3189  0.5934
  526SOL    HW1 1577   0.833   2.855   0.494  1.9874  1.2757 -1.4950
  526SOL    HW2 1578   0.910   2.772   0.366 -0.2295 -0.9213 -1.6489
  527SOL     OW 1579   2.780   1.985   0.478  0.4603 -0.3164 -0.2254
  527SOL    HW1 1580   2.751   2.052   0.550  1.3107 -0.9405 -0.3940
  527SOL    HW2 1581   2.702   1.928   0.443  0.0588 -0.4946  0.8547
  528SOL     OW 1582   3.025   0.667   2.219  0.4051  0.5838  0.2260
  528SOL    HW1 1583   2.986   0.576   2.246 -0.1732  0.5015  0.4120
  528SOL    HW2 1584   0.023   0.650   2.154 -0.6165 -0.6748  1.3937
  529SOL     OW 1585   1.276   1.546   2.638  0.0762 -0.3916 -0.0824
  529SOL    HW1 1586   1.319   1.457   2.608  0.6706  1.3286  1.3698
  529SOL    HW2 1587   1.187   1.532   2.688 -1.5656 -1.7086  2.0179
  530SOL     OW 1588   1.785   1.072   2.421  0.0546 -0.2069  0.1970
  530SOL    HW1 1589   1.709   1.059   2.355  0.9039 -0.9990  0.7489
  530SOL    HW2 1590   1.820   1.166   2.421 -1.7742 -0.5571  0.6545
  531SOL     OW 1591   0.638   2.012   2.526 -0.0058  0.2113 -0.8419
  531SOL    HW1 1592   0.627   2.018   2.427  0.0197  0.1951  2.9592
  531SOL    HW2 1593   0.550   1.993   2.576 -3.0705  1.8800  1.3262
  532SOL     OW 1594   2.274   1.171   0.464  0.4239  0.9299  0.2810
  532SOL    HW1 1595   2.265   1.145   0.363 -1.7461 -2.1215 -1.9189
  532SOL    HW2 1596   2.295   1.273   0.472 -0.3308  0.7124  0.8471
  533SOL     OW 1597   0.087   3.010   1.702 -0.5460 -0.5174  0.3464
  533SOL    HW1 1598   0.186   3.021   1.690 -2.2869  0.3223  1.5711
  533SOL    HW2 1599   0.036   3.029   1.614  0.1394  1.3533 -0.4017
  534SOL     OW 1600   0.586   0.157   2.929 -0.2460  0.3176  0.1153
  534SOL    HW1 1601   0.583   0.258   2.927  1.8669 -1.4046 -0.7906
  534SOL    HW2 1602   0.504   0.116   2.974 -1.0922 -0.3037  0.7227
  535SOL     OW 1603   0.230   0.197   0.329  0.2687  0.2152 -0.5976
  535SOL    HW1 1604   0.133   0.224   0.333  1.9971  0.7559 -0.3811
  535SOL    HW2 1605   0.273   0.235   0.415  0.1412  1.5606 -1.2200
  536SOL     OW 1606   0.343   1.498   1.590 -0.4553 -0.1773 -0.2362
  536SOL    HW1 1607   0.314   1.596   1.597  0.7968  0.6428 -1.5782
  536SOL    HW2 1608   0.400   1.482   1.510  0.9080 -1.3412  1.5847
  537SOL     OW 1609   1.230   2.530   1.687 -0.2017  0.0356  0.5016
  537SOL    HW1 1610   1.310   2.561   1.745  2.4547  1.3535 -1.9064
  537SOL    HW2 1611   1.232   2.431   1.674 -1.0731  1.0119  0.6335
  538SOL     OW 1612   0.030   1.843   0.210  0.0405  0.1829 -0.0934
  538SOL    HW1 1613   3.069   1.917   0.259  0.5398 -0.3656 -0.6194
  538SOL    HW2 1614   0.016   1.758   0.268 -2.2668 -2.3224  2.4167
  539SOL     OW 1615   2.664   1.152   2.557  0.5220 -0.4974  0.0623
  539SOL    HW1 1616   2.689   1.107   2.645  2.1107 -0.0657  0.7120
  539SOL    HW2 1617   2.718   1.101   2.483  0.4665 -2.0302 -0.1226
  540SOL     OW 1618   1.791   0.713   1.954  0.0874 -0.1764 -0.2744
  540SOL    HW1 1619   1.832   0.754   1.874 -1.8927 -1.0000  3.1397
  540SOL    HW2 1620   1.804   0.760   2.039 -1.3656  1.5512  0.1135
  541SOL     OW 1621   0.591   0.659   2.171 -0.1403  0.1888  0.0535
  541SOL    HW1 1622   0.539   0.588   2.231  0.7379 -1.1156  0.4677
  541SOL    HW2 1623   0.552   0.667   2.076  0.6530  0.6662  1.9290
  542SOL     OW 1624   1.996   0.102   3.009  0.1764 -0.2950  0.3373
  542SOL    HW1 1625   2.004   0.196   3.049  2.2523 -1.0204  1.5863
  542SOL    HW2 1626   2.057   0.090   2.929  0.6701  1.8847  1.1307
  543SOL     OW 1627   1.256   0.171   0.181 -0.1079  0.8892 -0.1011
  543SOL    HW1 1628   1.267   0.211   0.086  1.3299 -1.8220  1.9336
  543SOL    HW2 1629   1.195   0.092   0.174 -0.3905  2.2853 -2.8797
  544SOL     OW 1630   2.761   1.524   1.919  0.4729 -0.2052 -0.4456
  544SOL    HW1 1631   2.721   1.481   2.004 -0.3506  1.3532  1.0930
  544SOL    HW2 1632   2.770   1.451   1.848  0.2686 -0.7324  1.2111
  545SOL     OW 1633   2.016   2.277   1.577 -0.0271  0.0157  0.1410
  545SOL    HW1 1634   2.047   2.300   1.485  1.1827  0.3100 -2.6146
  545SOL    HW2 1635   1.958   2.349   1.619  0.1962  1.2651 -1.6934
  546SOL     OW 1636   3.024   0.018   2.566 -0.3782 -0.3337  0.1117
  546SOL    HW1 1637   3.043   0.018   2.470  0.5056  0.6037  2.9399
  546SOL    HW2 1638   0.032   0.020   2.617  0.5663 -1.0303 -0.3071
  547SOL     OW 1639   1.768   0.907   0.854 -0.2869 -0.2546 -0.5600
  547SOL    HW1 1640   1.785   0.994   0.807  1.2852 -0.4891 -0.5691
  547SOL    HW2 1641   1.755   0.917   0.956  0.3296 -1.3018  1.2022
  548SOL     OW 1642   1.779   1.985   2.442  0.3105  0.1031 -0.5776
  548SOL    HW1 1643   1.802   1.947   2.535  2.9466 -0.3192 -1.1247
  548SOL    HW2 1644   1.698   2.048   2.455  1.1310  1.1617 -2.0084
  549SOL     OW 1645   2.087   0.566   0.402  0.7683  0.0437  0.2495
  549SOL    HW1 1646   2.061   0.645   0.340 -2.6172 -0.5502 -1.8078
  549SOL    HW2 1647   2.061   0.585   0.497 -1.3613 -0.9967  1.0426
  550SOL     OW 1648   2.735   1.885   0.883 -0.4089 -0.4186  0.3300
  550SOL    HW1 1649   2.816   1.888   0.822 -1.2899 -0.5258  1.6165
  550SOL    HW2 1650   2.758   1.871   0.981 -3.1612  0.1698 -0.9958
  551SOL     OW 1651   1.136   2.724   2.154 -0.0361  0.4946 -0.4944
  551SOL    HW1 1652   1.222   2.759   2.116 -2.5445 -2.3509 -0.1994
  551SOL    HW2 1653   1.149   2.703   2.252 -0.2076  2.7854 -0.2736
  552SOL     OW 1654   0.029   2.385   2.873 -0.1371 -0.7082 -0.2880
  552SOL    HW1 1655   0.005   2.330   2.954 -2.8042 -0.9095  0.1965
  552SOL    HW2 1656   0.070   2.328   2.801 -2.3890 -2.7455  0.7254
  553SOL     OW 1657   0.133   0.111   0.716  1.2023 -0.0947  0.1033
  553SOL    HW1 1658   0.169   0.029   0.660  0.0594 -2.6713  0.0000
  553SOL    HW2 1659   0.061   0.073   0.777 -1.4438 -0.6276 -2.2138
  554SOL     OW 1660   2.366   2.473   1.834  0.6553  0.2195 -0.6573
  554SOL    HW1 1661   2.307   2.397   1.803  0.0020  0.1363  0.7941
  554SOL    HW2 1662   2.436   2.444   1.905 -1.3119 -0.4312  0.9748
  555SOL     OW 1663   1.530   2.284   2.260  0.3155 -0.5698  0.1879
  555SOL    HW1 1664   1.502   2.381   2.264 -0.8590  0.0681  0.3160
  555SOL    HW2 1665   1.628   2.265   2.266  0.0650  1.4651 -0.5779
  556SOL     OW 1666   1.300   1.503   1.393  0.1511 -0.3176  0.6022
  556SOL    HW1 1667   1.275   1.436   1.320 -0.6697  3.1079  0.1975
  556SOL    HW2 1668   1.399   1.488   1.423  0.8361 -1.5595 -0.1694
  557SOL     OW 1669   1.907   2.381   2.448 -0.5897 -0.1031 -0.3769
  557SOL    HW1 1670   1.926   2.310   2.523  1.1763 -5.4234 -1.0865
  557SOL    HW2 1671   1.870   2.475   2.482 -2.4518  1.4911 -1.1288
  558SOL     OW 1672   0.155   2.834   2.075 -0.3110  0.0330  0.8672
  558SOL    HW1 1673   0.206   2.794   1.993  3.5270 -0.5241 -0.1381
  558SOL    HW2 1674   0.215   2.891   2.134 -1.7641  0.4780 -2.5603
  559SOL     OW 1675   2.202   2.919   0.868  0.4444 -0.1259  0.7425
  559SOL    HW1 1676   2.136   2.867   0.807  0.2753  0.6538 -1.2001
  559SOL    HW2 1677   2.213   3.021   0.848  1.2790  2.7904 -0.4709
  560SOL     OW 1678   1.849   2.492   0.464  0.0359  0.2300 -0.0404
  560SOL    HW1 1679   1.773   2.503   0.530 -3.1861  0.9764  2.1390
  560SOL    HW2 1680   1.926   2.438   0.507 -0.7959 -0.0564 -0.5545
  561SOL     OW 1681   0.978   0.098   0.688  0.6736  0.0848 -0.1303
  561SOL    HW1 1682   1.020   0.084   0.598  0.6802  3.5960  0.1427
  561SOL    HW2 1683   1.049   0.131   0.756  0.9465  0.1782  0.6960
  562SOL     OW 1684   0.557   0.758   2.531 -0.2189  0.1372 -0.0125
  562SOL    HW1 1685   0.562   0.655   2.549 -2.1349 -1.9664 -2.0538
  562SOL    HW2 1686   0.491   0.762   2.450 -1.0534  0.5461 -0.7040
  563SOL     OW 1687   1.693   1.700   2.457  0.3991  0.0526  0.6160
  563SOL    HW1 1688   1.616   1.727   2.522  1.1505 -1.2415  0.7427
  563SOL    HW2 1689   1.782   1.725   2.493 -2.8148  0.2556 -1.1751
  564SOL     OW 1690   2.621   0.745   1.263 -0.1199 -0.4524  0.1939
  564SOL    HW1 1691   2.551   0.791   1.205 -0.9052  0.5214 -2.2699
  564SOL    HW2 1692   2.643   0.650   1.231  1.9080  2.3648  3.3808
  565SOL     OW 1693   1.061   0.543   2.925 -0.0525 -0.0166 -0.0171
  565SOL    HW1 1694   1.132   0.611   2.910 -1.7161 -3.9057  1.6253
  565SOL    HW2 1695   0.964   0.585   2.932 -1.3124 -0.4892  0.0847
  566SOL     OW 1696   2.092   0.268   2.696  0.2184 -0.8349  0.6485
  566SOL    HW1 1697   2.176   0.322   2.722  3.2843 -0.6779  1.2305
  566SOL    HW2 1698   2.106   0.173   2.730 -1.1620 -0.1734 -0.2054
  567SOL     OW 1699   2.114   1.486   0.389  0.4226  0.1588  0.6090
  567SOL    HW1 1700   2.208   1.487   0.431 -0.9458 -0.3543 -0.3009
  567SOL    HW2 1701   2.121   1.432   0.302 -0.5900 -0.2945 -0.0729
  568SOL     OW 1702   1.729   1.735   2.966 -0.2431  0.0530 -0.6163
  568SOL    HW1 1703   1.643   1.698   2.924  0.9580 -1.8498  0.2260
  568SOL    HW2 1704   1.710   1.821   3.010 -1.9158 -0.7619 -1.5205
  569SOL     OW 1705   1.942   1.164   3.032 -0.3013 -0.2469  0.4453
  569SOL    HW1 1706   1.912   1.245   2.987  1.5530 -2.7522  1.6713
  569SOL    HW2 1707   2.042   1.161   3.020 -0.7929 -1.6811 -5.0342
  570SOL     OW 1708   0.349   2.309   1.875 -0.4739  0.4670 -0.5421
  570SOL    HW1 1709   0.351   2.403   1.834 -0.7153  1.1029  0.4338
  570SOL    HW2 1710   0.274   2.299   1.940  0.2428  0.9654  2.7535
  571SOL     OW 1711   0.269   1.215   1.862 -0.1085  0.0236 -0.3009
  571SOL    HW1 1712   0.238   1.163   1.781 -1.3066 -0.4840 -1.9334
  571SOL    HW2 1713   0.240   1.162   1.947 -3.0402  0.2580  1.2778
  572SOL     OW 1714   0.957   1.670   0.553  0.0050  0.4473 -0.3421
  572SOL    HW1 1715   0.979   1.626   0.642 -4.5215  0.0434 -1.3365
  572SOL    HW2 1716   1.044   1.693   0.509  0.7202 -0.0981 -1.1588
  573SOL     OW 1717   1.633   2.001   0.023 -0.3555 -0.1303 -0.1869
  573SOL    HW1 1718   1.546   2.022   0.074  1.1922 -2.1606 -1.9430
  573SOL    HW2 1719   1.717   2.008   0.082  0.6168 -1.4051  0.8371
  574SOL     OW 1720   0.987   2.946   1.129  0.3815 -0.3268 -0.4200
  574SOL    HW1 1721   0.886   2.954   1.138 -1.0724  2.1608  1.9123
  574SOL    HW2 1722   1.014   2.881   1.061  0.1191 -0.8608 -0.1706
  575SOL     OW 1723   0.365   1.014   1.358  0.1715 -0.1858 -0.4568
  575SOL    HW1 1724   0.419   1.040   1.438 -3.4826 -0.9773 -2.4826
  575SOL    HW2 1725   0.370   1.094   1.294 -0.7757  3.2301  1.1292
  576SOL     OW 1726   2.611   0.029   1.171 -0.3972  0.2206  0.0325
  576SOL    HW1 1727   2.649   3.025   1.223  0.1879 -0.5960 -1.0622
  576SOL    HW2 1728   2.568   3.072   1.088 -0.8509  1.3856 -0.2492
  577SOL     OW 1729   0.849   1.056   2.150 -0.3042 -0.5086  0.2373
  577SOL    HW1 1730   0.857   1.091   2.054 -2.2735 -4.1056 -1.0873
  577SOL    HW2 1731   0.761   1.022   2.175  3.5648 -1.6806 -2.7328
  578SOL     OW 1732   1.956   0.899   2.544  0.7907  0.2331 -0.0184
  578SOL    HW1 1733   1.882   0.934   2.483 -0.7189 -0.2988  0.2811
  578SOL    HW2 1734   2.004   0.977   2.591  4.7648 -0.5133  0.4500
  579SOL     OW 1735   2.207   2.272   1.779 -0.2301 -0.3824 -0.1728
  579SOL    HW1 1736   2.144   2.281   1.860 -2.3049  0.2274 -1.1555
  579SOL    HW2 1737   2.147   2.287   1.694 -2.2656  1.4641 -1.5286
  580SOL     OW 1738   1.587   1.467   2.399 -0.2938  0.2014  0.4023
  580SOL    HW1 1739   1.623   1.546   2.448 -0.1875 -2.5047 -0.2595
  580SOL    HW2 1740   1.487   1.478   2.379 -0.2741  1.5109 -1.6418
  581SOL     OW 1741   1.210   1.180   2.425  0.3264 -0.3004  0.6456
  581SOL    HW1 1742   1.189   1.094   2.476 -0.3431 -2.0293 -0.6487
  581SOL    HW2 1743   1.266   1.247   2.476  3.7611  1.7275 -0.1205
  582SOL     OW 1744   1.082   1.456   1.901  0.4511  0.3076 -0.9004
  582SOL    HW1 1745   0.989   1.445   1.858  0.4558  0.4630 -0.2371
  582SOL    HW2 1746   1.152   1.473   1.831 -3.1829  1.2800  3.6240
  583SOL     OW 1747   1.366   1.060   1.694 -0.0980 -0.4421  0.5065
  583SOL    HW1 1748   1.330   1.047   1.600 -0.1924 -0.5089 -2.2821
  583SOL    HW2 1749   1.393   1.154   1.717 -0.4643 -2.5829 -0.1300
  584SOL     OW 1750   2.142   2.807   0.322  0.6506 -0.3023 -0.1584
  584SOL    HW1 1751   2.109   2.741   0.253  0.7751  1.8575  0.0301
  584SOL    HW2 1752   2.231   2.849   0.301 -1.7469  1.5135  3.4351
  585SOL     OW 1753   1.753   3.057   2.750  0.1992  0.3976 -0.3170
  585SOL    HW1 1754   1.730   2.963   2.714  0.8812 -3.4031 -2.2650
  585SOL    HW2 1755   1.728   3.063   2.853 -3.2226  1.2249 -0.2549
  586SOL     OW 1756   2.792   2.043   1.185  0.2771  0.0101 -0.0935
  586SOL    HW1 1757   2.853   1.964   1.197 -2.7866 -0.5615 -0.9386
  586SOL    HW2 1758   2.707   2.028   1.241 -2.0941 -2.0169  2.3417
  587SOL     OW 1759   1.292   1.823   3.069  0.0035  0.3767 -0.5663
  587SOL    HW1 1760   1.287   1.725   3.039 -0.1974  1.0076  0.6323
  587SOL    HW2 1761   1.288   1.887   2.992  1.6780 -0.8895  1.2329
  588SOL     OW 1762   0.339   0.313   1.000 -0.2823  0.3759  0.6405
  588SOL    HW1 1763   0.432   0.309   1.046  0.2123 -0.9660  0.1062
  588SOL    HW2 1764   0.349   0.255   0.920  1.4644  3.0467 -0.8259
  589SOL     OW 1765   1.226   3.027   0.557  0.3039 -0.2430  0.2192
  589SOL    HW1 1766   1.149   3.049   0.487  0.6394  0.6523  0.2996
  589SOL    HW2 1767   1.202   2.944   0.614 -1.4924 -2.1617  0.2218
  590SOL     OW 1768   1.212   0.748   2.855  0.2473  0.3317 -0.5224
  590SOL    HW1 1769   1.189   0.735   2.755  1.3753  0.4801 -1.2606
  590SOL    HW2 1770   1.195   0.843   2.879 -0.3496 -1.4593 -0.4882
  591SOL     OW 1771   2.773   2.357   2.055 -0.1996  0.0981 -0.4458
  591SOL    HW1 1772   2.820   2.413   2.126  1.4443  0.8247  2.5465
  591SOL    HW2 1773   2.839   2.332   1.982 -0.9895 -0.9327 -0.7873
  592SOL     OW 1774   2.387   1.361   1.885 -0.5166  0.1502 -0.1915
  592SOL    HW1 1775   2.300   1.320   1.855  0.0064  0.5933 -1.2481
  592SOL    HW2 1776   2.453   1.383   1.812  0.4214  0.6235 -0.2537
  593SOL     OW 1777   1.277   1.146   1.440  0.4219 -0.6413  0.2405
  593SOL    HW1 1778   1.244   1.091   1.356 -1.5220 -0.2094 -3.0487
  593SOL    HW2 1779   1.201   1.186   1.494  0.2959 -1.5702 -0.3137
  594SOL     OW 1780   2.396   1.500   2.735 -0.3627  0.5391 -0.2083
  594SOL    HW1 1781   2.429   1.597   2.745  1.1011 -0.0316  0.4055
  594SOL    HW2 1782   2.447   1.457   2.660  1.4569 -1.9700 -0.5088
  595SOL     OW 1783   2.986   0.142   0.524  0.0489  0.5049  0.3220
  595SOL    HW1 1784   3.057   0.170   0.588 -2.1526 -3.3133  0.2809
  595SOL    HW2 1785   2.906   0.208   0.513 -2.2326  0.6302 -0.6261
  596SOL     OW 1786   2.913   1.503   1.027 -0.6734 -0.3363 -0.4026
  596SOL    HW1 1787   2.957   1.455   1.106  1.1894 -1.2265  0.5687
  596SOL    HW2 1788   2.985   1.568   0.990 -0.5865  1.2177  1.1189
  597SOL     OW 1789   1.369   1.644   0.599 -0.2685  0.3958  0.3121
  597SOL    HW1 1790   1.369   1.699   0.686  0.1573  3.3336  1.8172
  597SOL    HW2 1791   1.316   1.688   0.520  1.2811 -1.7456 -1.2663
  598SOL     OW 1792   0.270   2.759   1.848 -0.3301  0.3930 -0.2093
  598SOL    HW1 1793   0.290   2.818   1.769 -0.5223  2.3424  1.3734
  598SOL    HW2 1794   0.196   2.689   1.823 -1.5902 -3.8550 -0.1560
  599SOL     OW 1795   3.033   1.604   2.703  0.1258  0.5027 -0.3081
  599SOL    HW1 1796   2.931   1.584   2.725 -3.4958 -2.3877  1.6485
  599SOL    HW2 1797   3.072   1.695   2.735  1.4389  0.6298  2.6880
  600SOL     OW 1798   0.431   1.029   2.932 -0.3157 -0.4408 -0.1057
  600SOL    HW1 1799   0.458   0.948   2.872 -0.4465 -1.8209 -0.6763
  600SOL    HW2 1800   0.385   1.099   2.879  2.0348 -1.7578  0.7822
  601SOL     OW 1801   0.649   0.881   1.043  0.1817  0.1500  0.3753
  601SOL    HW1 1802   0.553   0.874   1.011  2.7609  2.3121  0.6870
  601SOL    HW2 1803   0.650   0.886   1.143 -0.8414  2.6929 -1.2841
  602SOL     OW 1804   1.148   2.541   0.493  0.2143 -0.2501  0.0106
  602SOL    HW1 1805   1.100   2.626   0.461 -2.8333 -0.1357  2.0383
  602SOL    HW2 1806   1.238   2.524   0.451 -0.2695 -0.9757  0.1901
  603SOL     OW 1807   1.584   2.207   2.521 -0.1922 -0.7414  0.3885
  603SOL    HW1 1808   1.588   2.295   2.571 -0.6721  0.3891  0.1956
  603SOL    HW2 1809   1.536   2.222   2.432 -0.2704 -1.7630  1.9671
  604SOL     OW 1810   0.481   0.377   2.847 -0.1227  0.5408  0.4086
  604SOL    HW1 1811   0.380   0.405   2.861  0.0864 -0.3209  0.9829
  604SOL    HW2 1812   0.483   0.281   2.802  1.3327 -2.7934 -0.3144
  605SOL     OW 1813   2.623   1.041   1.756 -0.1965 -0.3886  0.4223
  605SOL    HW1 1814   2.602   1.082   1.847 -2.0094 -2.0802 -1.2653
  605SOL    HW2 1815   2.669   1.102   1.689 -1.3005  0.8608  0.3450
  606SOL     OW 1816   0.700   1.759   2.590  0.3987 -0.2794  0.2615
  606SOL    HW1 1817   0.702   1.856   2.559  1.9463  0.1786  0.6774
  606SOL    HW2 1818   0.769   1.705   2.541  0.7884  1.4765  1.5916
  607SOL     OW 1819   0.743   0.209   0.607 -0.1315 -0.1605 -0.2932
  607SOL    HW1 1820   0.700   0.213   0.515 -0.7443  1.3979  1.5694
  607SOL    HW2 1821   0.828   0.155   0.610  1.4923 -0.4290  1.1154
  608SOL     OW 1822   2.702   1.665   1.532  0.0432 -0.6985  0.0075
  608SOL    HW1 1823   2.673   1.672   1.630 -0.6776  2.9306  1.2378
  608SOL    HW2 1824   2.740   1.573   1.512  1.9682 -1.4400  1.0477
  609SOL     OW 1825   2.754   0.373   0.803  0.0151 -0.1368  0.1840
  609SOL    HW1 1826   2.681   0.325   0.858 -0.5761  1.2482  0.4622
  609SOL    HW2 1827   2.725   0.467   0.784 -2.2032 -0.3900  0.3787
  610SOL     OW 1828   0.198   2.701   1.335  0.5070  0.0773 -0.1800
  610SOL    HW1 1829   0.214   2.612   1.367 -1.3433  1.4631 -2.1415
  610SOL    HW2 1830   0.199   2.704   1.233  0.4407 -0.1497  2.9541
  611SOL     OW 1831   1.507   1.520   0.183  0.2558 -0.3070 -0.4462
  611SOL    HW1 1832   1.597   1.508   0.136 -0.3449  1.9526  0.7067
  611SOL    HW2 1833   1.494   1.612   0.229  1.0203  2.5173 -0.0029
  612SOL     OW 1834   0.697   2.682   2.023  0.1516  0.2229  0.3553
  612SOL    HW1 1835   0.608   2.644   2.065  0.6832  0.8589  1.7763
  612SOL    HW2 1836   0.677   2.758   1.958 -1.6390  2.0369 -1.6365
  613SOL     OW 1837   0.371   2.634   0.923 -0.7496 -0.0300 -0.6189
  613SOL    HW1 1838   0.380   2.546   0.870  0.6377  1.1892  0.1559
  613SOL    HW2 1839   0.444   2.632   0.993  1.6672  0.4469 -2.0498
  614SOL     OW 1840   2.177   0.030   2.189  0.0224  0.4533 -0.1846
  614SOL    HW1 1841   2.097   0.090   2.202  1.4239 -1.0581  1.6756
  614SOL    HW2 1842   2.231   0.053   2.105 -1.0467  1.8459 -3.0769
  615SOL     OW 1843   1.467   1.305   0.342 -0.1211  0.0886 -0.8665
  615SOL    HW1 1844   1.468   1.378   0.273  2.1220 -1.1320  0.3861
  615SOL    HW2 1845   1.537   1.325   0.411  0.5228  0.9242 -2.5044
  616SOL     OW 1846   1.862   1.580   0.374 -0.4151  0.0931 -0.6520
  616SOL    HW1 1847   1.823   1.579   0.284  1.8173 -0.2709  2.0012
  616SOL    HW2 1848   1.953   1.531   0.368 -0.2122 -1.0015  0.0082
  617SOL     OW 1849   1.230   0.969   2.618  0.2132 -0.2072  0.1286
  617SOL    HW1 1850   1.144   0.915   2.632 -1.5021 -2.1864  0.7468
  617SOL    HW2 1851   1.288   0.920   2.550 -0.8819  1.4226  3.0681
  618SOL     OW 1852   0.597   2.918   1.960 -0.0416 -0.1389  0.1912
  618SOL    HW1 1853   0.508   2.873   1.945  1.2871  0.2323  0.7495
  618SOL    HW2 1854   0.600   2.945   2.057 -0.8177 -1.6685  1.1087
  619SOL     OW 1855   2.765   1.408   1.465 -0.2720  0.2032  0.3048
  619SOL    HW1 1856   2.865   1.424   1.453 -1.0047 -1.1237 -0.0714
  619SOL    HW2 1857   2.715   1.412   1.374 -1.9555  0.2962  0.5506
  620SOL     OW 1858   2.352   0.352   2.749  0.0220  0.4120  0.2315
  620SOL    HW1 1859   2.359   0.416   2.670 -0.6826 -0.9634 -0.0949
  620SOL    HW2 1860   2.421   0.274   2.742  1.7295  1.2599  0.2189
  621SOL     OW 1861   2.371   2.217   2.612 -0.1731  0.2916  0.4522
  621SOL    HW1 1862   2.287   2.273   2.636  0.6698  1.7380 -2.6271
  621SOL    HW2 1863   2.368   2.130   2.664  2.1629  3.2903 -0.1809
  622SOL     OW 1864   0.831   0.930   2.578 -0.1491 -0.0101  0.1766
  622SOL    HW1 1865   0.752   0.911   2.517  1.6247  0.1098 -0.7274
  622SOL    HW2 1866   0.909   0.940   2.515  0.6095  2.1786 -0.0173
  623SOL     OW 1867   0.616   1.046   2.313 -0.5066 -0.0045 -0.3338
  623SOL    HW1 1868   0.595   1.069   2.407  0.9540  0.0517  1.9285
  623SOL    HW2 1869   0.539   1.003   2.267  0.6643  2.4579  2.9662
  624SOL     OW 1870   2.739   0.479   0.288 -0.2784  0.1054 -0.0991
  624SOL    HW1 1871   2.712   0.474   0.189  2.8047  0.5657 -3.8306
  624SOL    HW2 1872   2.817   0.543   0.301 -1.1640  0.0699 -1.1559
  625SOL     OW 1873   0.901   2.411   1.056 -0.1669 -0.3348  0.1650
  625SOL    HW1 1874   0.836   2.466   1.002 -2.0825 -1.3446  0.0013
  625SOL    HW2 1875   0.961   2.465   1.120 -0.7918  0.6215  2.8328
  626SOL     OW 1876   2.136   0.602   2.579 -0.0867  0.4045 -0.4567
  626SOL    HW1 1877   2.113   0.572   2.676  0.0821 -0.1494  1.3821
  626SOL    HW2 1878   2.102   0.696   2.550  0.4506  3.1105 -3.2340
  627SOL     OW 1879   1.526   2.694   2.821 -0.5204 -0.4493 -0.2567
  627SOL    HW1 1880   1.485   2.765   2.883  1.5285 -2.2849 -0.8996
  627SOL    HW2 1881   1.453   2.662   2.751 -1.8727  0.6324 -0.8064
  628SOL     OW 1882   2.523   2.843   2.252  0.2929 -0.2234 -0.2436
  628SOL    HW1 1883   2.624   2.845   2.260 -1.2563  1.5569 -2.7083
  628SOL    HW2 1884   2.484   2.928   2.290 -0.1195  0.3649  0.4224
  629SOL     OW 1885   1.060   0.015   2.154 -0.3602 -0.0483  0.1285
  629SOL    HW1 1886   1.145   0.024   2.216  1.4067  0.1885  0.1413
  629SOL    HW2 1887   0.985   0.076   2.181 -1.9601  0.6905 -0.4601
  630SOL     OW 1888   0.786   0.349   2.431 -0.1617 -0.5902 -0.6373
  630SOL    HW1 1889   0.744   0.323   2.515  2.0527  1.1005 -1.8673
  630SOL    HW2 1890   0.837   0.276   2.388 -2.6266 -0.9823  0.4464
  631SOL     OW 1891   1.895   1.176   0.768 -0.4876  0.1250  0.3705
  631SOL    HW1 1892   1.800   1.209   0.742 -0.9883 -0.9447  1.7790
  631SOL    HW2 1893   1.906   1.190   0.867 -1.4962 -1.2407 -0.1246
  632SOL     OW 1894   2.540   0.309   1.648  0.4324  0.7099  0.0797
  632SOL    HW1 1895   2.454   0.357   1.628  1.7696  2.1087  5.2346
  632SOL    HW2 1896   2.610   0.323   1.575 -1.6279 -0.5263  1.3008
  633SOL     OW 1897   1.106   1.836   0.192 -0.3262  0.0343 -0.2366
  633SOL    HW1 1898   1.177   1.826   0.120 -2.1690 -2.2049  0.2582
  633SOL    HW2 1899   1.031   1.770   0.178  2.3904  0.7516  0.8656
  634SOL     OW 1900   2.628   2.981   1.741 -0.0839  0.1891  0.2275
  634SOL    HW1 1901   2.546   3.044   1.747 -2.5676  1.2702 -1.1627
  634SOL    HW2 1902   2.708   3.016   1.685  3.3156  0.5035 -0.7975
  635SOL     OW 1903   1.572   0.501   0.855  0.3478 -0.0654  0.2090
  635SOL    HW1 1904   1.579   0.529   0.953 -2.0797  2.1232  0.9354
  635SOL    HW2 1905   1.566   0.399   0.848 -0.6500  0.4945 -0.0292
  636SOL     OW 1906   0.775   1.217   0.016  0.5229  0.1791  0.2297
  636SOL    HW1 1907   0.726   1.122   0.007 -1.7245 -1.6814 -0.8634
  636SOL    HW2 1908   0.699   1.285   0.010 -2.2577  2.5804  0.4724
  637SOL     OW 1909   2.817   2.161   2.983 -0.3300  0.1101  0.1103
  637SOL    HW1 1910   2.823   2.128   2.885 -0.8751 -1.2402 -0.4253
  637SOL    HW2 1911   2.906   2.182   3.018 -1.9672  0.1645 -2.7131
  638SOL     OW 1912   1.598   2.421   2.664  0.7366  0.7295  0.2005
  638SOL    HW1 1913   1.682   2.461   2.712  0.0806  1.9170 -0.5973
  638SOL    HW2 1914   1.536   2.398   2.741  0.4192 -1.7501 -0.7585
  639SOL     OW 1915   1.673   1.808   0.653  0.4460  0.2409 -0.8028
  639SOL    HW1 1916   1.579   1.772   0.681 -1.1173 -0.7007  1.0105
  639SOL    HW2 1917   1.679   1.856   0.563 -4.0153 -2.2246 -0.5747
  640SOL     OW 1918   1.978   2.942   0.479  0.3977 -0.0288  0.0656
  640SOL    HW1 1919   2.041   2.874   0.434 -0.9827  1.2691 -1.3582
  640SOL    HW2 1920   2.017   3.034   0.460 -2.1165  2.1869 -0.6625
  641SOL     OW 1921   2.640   0.401   0.041 -0.1981 -0.2154  0.2611
  641SOL    HW1 1922   2.555   0.427   3.070  0.4764 -2.5762 -0.9576
  641SOL    HW2 1923   2.635   0.307   0.075 -4.2443 -0.4097 -3.2940
  642SOL     OW 1924   0.441   0.583   1.176  0.5459 -0.7407  0.2353
  642SOL    HW1 1925   0.356   0.548   1.126  0.2679 -1.0516 -1.0028
  642SOL    HW2 1926   0.427   0.588   1.278  2.1407  1.5883 -1.0350
  643SOL     OW 1927   0.372   1.467   2.217  0.6153 -0.5721  0.1228
  643SOL    HW1 1928   0.455   1.416   2.198 -5.0573 -0.1337 -0.6071
  643SOL    HW2 1929   0.392   1.566   2.226  0.3271 -1.1374 -0.7371
  644SOL     OW 1930   2.037   2.371   0.601  0.1554 -0.5685  0.4446
  644SOL    HW1 1931   2.020   2.277   0.565  0.8866 -1.3648  0.5613
  644SOL    HW2 1932   2.001   2.375   0.700 -0.2035 -1.4644  2.1559
  645SOL     OW 1933   2.079   2.286   1.089  0.3071  0.2229 -0.4225
  645SOL    HW1 1934   2.163   2.233   1.056  1.1114 -3.0641 -0.1291
  645SOL    HW2 1935   1.992   2.242   1.064  1.8799  1.8051  1.3851
  646SOL     OW 1936   0.852   2.230   2.882  0.2068  0.1428  0.1243
  646SOL    HW1 1937   0.805   2.161   2.943 -0.9169 -0.2758 -0.2663
  646SOL    HW2 1938   0.833   2.326   2.905  0.8996 -0.1405 -0.1264
  647SOL     OW 1939   0.940   2.611   1.695 -0.2924 -0.2491  0.3022
  647SOL    HW1 1940   1.037   2.574   1.685  2.9351  0.5111 -0.5561
  647SOL    HW2 1941   0.932   2.670   1.777  2.7483  0.7282 -0.8375
  648SOL     OW 1942   1.504   0.207   1.134 -0.3674 -0.4337  0.5779
  648SOL    HW1 1943   1.535   0.178   1.225 -0.1026 -0.1478 -1.1016
  648SOL    HW2 1944   1.554   0.160   1.063 -1.0791  1.6827  1.0503
  649SOL     OW 1945   1.411   2.076   0.171 -0.3806  0.3353  0.0924
  649SOL    HW1 1946   1.314   2.068   0.196  0.7546  1.9276  0.6030
  649SOL    HW2 1947   1.446   2.149   0.235 -0.8055  3.3231  0.4930
  650SOL     OW 1948   2.377   1.464   1.506  0.3672 -0.3114 -0.3563
  650SOL    HW1 1949   2.363   1.561   1.543  0.7497  1.1672  1.8699
  650SOL    HW2 1950   2.333   1.459   1.414 -2.6712 -0.6457 -1.8377
  651SOL     OW 1951   1.702   2.586   2.983  0.3387 -0.0356  0.0575
  651SOL    HW1 1952   1.630   2.611   2.916  0.5087  2.2312 -1.7098
  651SOL    HW2 1953   1.782   2.551   2.927  1.1970  0.6130  2.6692
  652SOL     OW 1954   0.120   1.981   3.062 -0.1904 -0.1268  0.3746
  652SOL    HW1 1955   0.099   1.940   0.074 -0.1452 -0.2180 -2.3999
  652SOL    HW2 1956   0.225   1.987   3.051  1.2943  0.1816 -1.4355
  653SOL     OW 1957   2.865   2.890   0.944  0.4608 -0.4021  0.0155
  653SOL    HW1 1958   2.901   2.827   0.875 -2.2415  1.3196 -3.4842
  653SOL    HW2 1959   2.773   2.914   0.910  2.6129 -0.1271 -0.8490
  654SOL     OW 1960   2.774   2.942   1.966 -0.1817  0.1663 -0.4492
  654SOL    HW1 1961   2.879   2.960   1.954  3.9368 -0.2299 -0.8895
  654SOL    HW2 1962   2.718   2.974   1.884 -1.3181  4.8924  2.9717
  655SOL     OW 1963   0.074   1.998   0.955 -0.2562  0.1353  0.4960
  655SOL    HW1 1964   0.088   1.977   1.056  1.9269 -0.3217 -1.0858
  655SOL    HW2 1965   0.169   1.995   0.910  2.8396  2.9329 -1.4327
  656SOL     OW 1966   3.025   2.855   2.318  0.1195  0.1981  0.1617
  656SOL    HW1 1967   2.931   2.889   2.313 -0.0689 -0.7192  1.3562
  656SOL    HW2 1968   3.034   2.784   2.387 -3.6708  2.4016 -0.5578
  657SOL     OW 1969   2.839   1.351   2.888  0.7332 -0.0370 -0.1026
  657SOL    HW1 1970   2.901   1.283   2.844 -0.2864  0.5395  0.5967
  657SOL    HW2 1971   2.805   1.318   2.976  0.0044  3.1789 -0.8563
  658SOL     OW 1972   2.508   1.665   1.110 -0.6975 -0.4610  0.1504
  658SOL    HW1 1973   2.441   1.593   1.134 -0.7809 -1.3614  0.2721
  658SOL    HW2 1974   2.510   1.688   1.011  2.6581  0.0321 -1.4720
  659SOL     OW 1975   1.552   0.227   0.809  0.0675  0.0798  0.5216
  659SOL    HW1 1976   1.602   0.153   0.863  0.0135  2.0756  1.4441
  659SOL    HW2 1977   1.483   0.200   0.746  1.9315  2.8043  0.8501
  660SOL     OW 1978   1.647   1.340   2.885  0.0836 -0.4472  0.2251
  660SOL    HW1 1979   1.590   1.291   2.955 -0.7098 -0.8566  0.3435
  660SOL    HW2 1980   1.590   1.421   2.849 -1.5115  3.0564  0.5146
  661SOL     OW 1981   0.360   2.087   1.094 -0.2024  0.4210  0.3623
  661SOL    HW1 1982   0.431   2.158   1.075 -1.8608 -1.8214  1.7840
  661SOL    HW2 1983   0.279   2.137   1.125  1.2362 -0.4209 -1.5405
  662SOL     OW 1984   2.860   0.577   2.765  0.3400  0.1998 -0.2679
  662SOL    HW1 1985   2.792   0.649   2.769  0.2353 -0.4303  0.0193
  662SOL    HW2 1986   2.863   0.519   2.682  0.4921 -0.4509  1.0827
  663SOL     OW 1987   1.928   1.701   1.036  0.7018 -0.1202  0.5250
  663SOL    HW1 1988   1.905   1.679   0.935  1.7570 -0.4056 -0.7153
  663SOL    HW2 1989   1.862   1.759   1.078 -0.0629  1.2000 -2.2300
  664SOL     OW 1990   0.938   1.377   1.182 -1.1471 -0.0771  0.7178
  664SOL    HW1 1991   0.922   1.276   1.162  0.5340  0.5145  0.1287
  664SOL    HW2 1992   1.034   1.409   1.153  2.2188  2.0405  0.7485
  665SOL     OW 1993   1.679   2.683   2.407  0.4285  0.4400  0.1745
  665SOL    HW1 1994   1.612   2.611   2.379 -2.5920 -0.7616 -1.7499
  665SOL    HW2 1995   1.736   2.709   2.324  2.4150 -1.2262 -0.4107
  666SOL     OW 1996   2.929   2.847   2.670 -0.2234  0.2708  0.4854
  666SOL    HW1 1997   2.907   2.858   2.767 -0.3090 -2.2088 -3.0478
  666SOL    HW2 1998   2.950   2.942   2.632  0.6702  2.0307  1.1047
  667SOL     OW 1999   2.306   1.485   2.094 -0.1349 -0.7781 -0.1401
  667SOL    HW1 2000   2.346   1.440   2.016 -1.0261  0.8896  3.7930
  667SOL    HW2 2001   2.296   1.587   2.084  1.3949  0.8653 -1.7107
  668SOL     OW 2002   0.289   1.152   2.549 -0.5395  0.0244  0.0648
  668SOL    HW1 2003   0.306   1.181   2.646  1.3302  0.8203  0.5399
  668SOL    HW2 2004   0.247   1.223   2.487 -0.7063  1.2962 -3.6439
  669SOL     OW 2005   2.027   2.159   2.605  0.5853 -0.1731  0.3299
  669SOL    HW1 2006   2.039   2.144   2.508  0.9245  0.3136  3.2869
  669SOL    HW2 2007   2.112   2.202   2.646 -1.0584 -0.1512  0.1401
  670SOL     OW 2008   2.149   1.017   1.888  0.5923  0.1749  0.6796
  670SOL    HW1 2009   2.140   1.013   1.992  1.1773 -0.0078 -0.3174
  670SOL    HW2 2010   2.147   1.114   1.855 -1.8507 -0.6581 -0.2738
  671SOL     OW 2011   2.565   1.330   0.226  0.1565 -0.0182 -0.2979
  671SOL    HW1 2012   2.636   1.292   0.168  0.4150 -1.1909  1.7621
  671SOL    HW2 2013   2.534   1.425   0.212 -0.1690 -0.0078  0.5199
  672SOL     OW 2014   2.401   0.948   2.129 -0.2462 -0.6918  0.3264
  672SOL    HW1 2015   2.309   0.981   2.158 -0.2761 -0.8031 -0.4859
  672SOL    HW2 2016   2.463   1.018   2.089  2.2752 -1.7507 -1.2493
  673SOL     OW 2017   2.872   0.781   1.767 -0.3064 -0.1980  0.4459
  673SOL    HW1 2018   2.785   0.821   1.803  0.7961 -0.9039 -0.4527
  673SOL    HW2 2019   2.887   0.689   1.813  0.1089 -0.8947  0.6082
  674SOL     OW 2020   1.927   1.897   1.354  0.2804 -0.2291  0.3310
  674SOL    HW1 2021   1.858   1.895   1.277  0.6594 -0.3354 -0.1317
  674SOL    HW2 2022   1.880   1.922   1.439  2.5943  0.4782  0.9181
  675SOL     OW 2023   0.702   0.586   0.766  0.2183  0.0088 -0.8545
  675SOL    HW1 2024   0.675   0.544   0.857 -1.2862  0.3357  2.3481
  675SOL    HW2 2025   0.789   0.540   0.737 -1.6684 -1.0656 -1.4098
  676SOL     OW 2026   1.640   1.201   1.149  0.0965 -0.2654 -0.1508
  676SOL    HW1 2027   1.568   1.206   1.076  1.2562  0.7647  1.7102
  676SOL    HW2 2028   1.593   1.225   1.238 -3.3280 -0.4959  3.1452
  677SOL     OW 2029   2.493   1.553   2.327  0.0498  0.0127  0.1744
  677SOL    HW1 2030   2.436   1.498   2.262  1.8871  1.3526 -1.1131
  677SOL    HW2 2031   2.460   1.644   2.345  2.3654 -1.4152  1.5773
  678SOL     OW 2032   0.059   1.589   0.673  0.4170  0.4082 -0.3012
  678SOL    HW1 2033   3.063   1.522   0.676  3.3871  1.9804 -0.9368
  678SOL    HW2 2034   0.040   1.660   0.601  0.6293  1.7369 -1.3742
  679SOL     OW 2035   2.517   2.573   0.463 -0.0745  0.5386 -0.0115
  679SOL    HW1 2036   2.476   2.643   0.523  0.6890  1.4711 -1.6025
  679SOL    HW2 2037   2.618   2.591   0.458  0.3585  2.1884  1.5686
  680SOL     OW 2038   2.732   2.072   1.634  0.0459  0.5710 -0.1340
  680SOL    HW1 2039   2.779   1.997   1.582  0.2277  1.1544 -0.7204
  680SOL    HW2 2040   2.745   2.057   1.733 -2.5363 -0.0080 -0.4329
  681SOL     OW 2041   0.402   1.241   1.212  0.1531 -0.0776 -0.3974
  681SOL    HW1 2042   0.445   1.219   1.119  0.7729  0.2228 -2.5428
  681SOL    HW2 2043   0.322   1.302   1.198  1.0127  0.0460 -1.3721
  682SOL     OW 2044   1.662   2.528   0.673  0.0834  0.6340  0.1658
  682SOL    HW1 2045   1.683   2.627   0.685 -0.5093  1.9697 -0.4401
  682SOL    HW2 2046   1.559   2.509   0.671 -0.4906  1.0521 -2.2558
  683SOL     OW 2047   2.369   1.433   0.506  0.1917  0.3331  0.2267
  683SOL    HW1 2048   2.402   1.431   0.602  1.3906  1.1382 -1.0233
  683SOL    HW2 2049   2.415   1.512   0.450 -3.6758  1.5640 -1.4741
  684SOL     OW 2050   0.826   2.218   1.868 -0.5805 -0.1614 -0.3730
  684SOL    HW1 2051   0.779   2.295   1.825 -2.2121 -1.2022  1.3296
  684SOL    HW2 2052   0.797   2.130   1.826  1.9285  0.0683 -2.2665
  685SOL     OW 2053   2.019   1.474   0.014  0.5618  0.5945 -0.9324
  685SOL    HW1 2054   2.065   1.395   0.066 -1.5733 -1.5103 -0.5772
  685SOL    HW2 2055   1.987   1.455   3.000 -0.3006 -2.3560  1.2902
  686SOL     OW 2056   0.399   0.491   0.688 -0.3210  0.2498  0.0047
  686SOL    HW1 2057   0.306   0.503   0.726  0.3770 -0.6576 -0.4996
  686SOL    HW2 2058   0.472   0.492   0.758 -2.5505  1.8595  0.5258
  687SOL     OW 2059   1.107   2.503   2.608 -0.9103 -0.1166  0.2045
  687SOL    HW1 2060   1.073   2.433   2.664 -0.5637  3.0873 -0.7193
  687SOL    HW2 2061   1.207   2.511   2.626 -3.1884 -0.8457 -0.4996
  688SOL     OW 2062   2.320   1.712   1.641  0.4534 -0.5238  0.0431
  688SOL    HW1 2063   2.394   1.705   1.710 -1.7617  1.0495 -3.1154
  688SOL    HW2 2064   2.305   1.811   1.608 -0.5760  0.3101  0.1938
  689SOL     OW 2065   2.397   0.659   2.042  0.4418 -0.2618 -0.5376
  689SOL    HW1 2066   2.474   0.651   1.978  0.7646 -1.2368 -0.3719
  689SOL    HW2 2067   2.377   0.757   2.067  2.4497  3.0917 -1.2044
  690SOL     OW 2068   2.073   0.880   1.306 -0.6799  0.0265 -0.1432
  690SOL    HW1 2069   1.978   0.868   1.342 -1.7101  1.8390 -1.1234
  690SOL    HW2 2070   2.119   0.948   1.376  0.4346  1.2666 -0.1014
  691SOL     OW 2071   1.094   1.987   1.353  0.0298  0.5420 -0.4331
  691SOL    HW1 2072   1.057   2.007   1.448  0.8162  0.9996  1.1368
  691SOL    HW2 2073   1.047   2.046   1.288  1.5972  0.7818  0.5927
  692SOL     OW 2074   1.820   0.141   1.384  0.1010  1.0253 -0.2907
  692SOL    HW1 2075   1.819   0.177   1.481  0.9528  1.1488  0.5563
  692SOL    HW2 2076   1.914   0.149   1.350 -0.9971 -1.2224 -0.6354
  693SOL     OW 2077   0.555   1.088   2.590  0.6939  0.3706  0.7414
  693SOL    HW1 2078   0.558   1.010   2.651 -1.9075  1.6255 -1.4750
  693SOL    HW2 2079   0.461   1.117   2.565  2.4032 -1.9936 -0.6662
  694SOL     OW 2080   1.817   2.744   1.180 -0.4182  0.7771 -0.3712
  694SOL    HW1 2081   1.842   2.751   1.078  0.0351 -0.8794  0.4300
  694SOL    HW2 2082   1.901   2.738   1.235 -0.3788  1.2141 -0.1519
  695SOL     OW 2083   1.502   1.294   2.047 -0.6269 -0.2410 -0.3050
  695SOL    HW1 2084   1.483   1.285   1.947 -0.6163  2.9012 -2.2992
  695SOL    HW2 2085   1.523   1.394   2.061  3.3214  1.2316 -2.7652
  696SOL     OW 2086   1.770   0.377   1.233  0.2018 -0.4790  0.2118
  696SOL    HW1 2087   1.845   0.375   1.162 -0.0996  0.4825  1.1600
  696SOL    HW2 2088   1.759   0.294   1.294 -1.2785 -0.5331  0.8331
  697SOL     OW 2089   1.245   0.117   1.101 -0.2114 -0.1701 -0.0798
  697SOL    HW1 2090   1.173   0.112   1.177  0.0782  0.2718  1.3031
  697SOL    HW2 2091   1.338   0.149   1.136 -0.2790  0.3553  2.5682
  698SOL     OW 2092   1.753   1.163   1.998 -0.1850 -0.6038 -0.0248
  698SOL    HW1 2093   1.800   1.246   1.964  1.3150 -1.3051 -2.8198
  698SOL    HW2 2094   1.662   1.187   2.038 -0.4355  1.8988  1.4355
  699SOL     OW 2095   1.534   1.204   1.408 -0.0150  0.0607 -0.4569
  699SOL    HW1 2096   1.437   1.182   1.420  0.4150  1.7299  0.6378
  699SOL    HW2 2097   1.595   1.160   1.479  0.5533 -0.3669 -0.0125
  700SOL     OW 2098   1.484   0.110   0.314 -0.0908 -0.1135 -0.2966
  700SOL    HW1 2099   1.520   0.205   0.317  1.0530 -1.1630 -3.6497
  700SOL    HW2 2100   1.408   0.099   0.254  3.6172  0.3188 -0.2883
  701SOL     OW 2101   0.343   3.020   1.673  0.3756 -0.2060  0.1973
  701SOL    HW1 2102   0.403   0.028   1.694  1.8973  1.0032  0.7439
  701SOL    HW2 2103   0.377   2.981   1.584 -0.5353 -1.7571 -0.6671
  702SOL     OW 2104   1.364   2.794   0.164  0.5135 -0.0573 -0.5546
  702SOL    HW1 2105   1.378   2.836   0.253  0.7763 -1.6007  0.1117
  702SOL    HW2 2106   1.430   2.718   0.153 -0.7295 -0.3096 -0.9428
  703SOL     OW 2107   2.510   0.204   2.086  0.5284 -0.3503  0.1660
  703SOL    HW1 2108   2.467   0.294   2.121  1.7121 -0.3909  0.1834
  703SOL    HW2 2109   2.440   0.136   2.051 -0.7031 -0.5037  0.2077
  704SOL     OW 2110   1.203   2.133   1.036  0.1453  0.0275 -0.2131
  704SOL    HW1 2111   1.288   2.169   1.073 -1.3098 -0.4830 -3.0932
  704SOL    HW2 2112   1.119   2.135   1.097 -1.6985 -0.3531 -0.3207
  705SOL     OW 2113   3.071   0.978   2.152  0.2095 -0.0906 -0.5302
  705SOL    HW1 2114   3.025   0.920   2.224 -1.8990 -0.1666 -0.6834
  705SOL    HW2 2115   3.006   1.018   2.079 -1.9827  0.9166 -0.4314
  706SOL     OW 2116   1.463   0.075   0.577 -0.6059  0.2945 -0.6888
  706SOL    HW1 2117   1.369   0.046   0.589 -0.5003 -0.6162 -0.0204
  706SOL    HW2 2118   1.489   0.063   0.479  1.1586 -1.4176  2.0764
  707SOL     OW 2119   1.290   2.131   2.498 -0.0794 -0.9015 -0.2477
  707SOL    HW1 2120   1.203   2.096   2.538 -1.3968  3.6891  2.4549
  707SOL    HW2 2121   1.344   2.058   2.454 -0.5848 -0.7748 -1.5112
  708SOL     OW 2122   2.967   2.222   1.267 -0.1619 -0.4894 -0.2615
  708SOL    HW1 2123   2.877   2.194   1.242  2.3354  0.2662  0.3395
  708SOL    HW2 2124   2.990   2.183   1.357  0.8924 -1.8215 -0.3419
  709SOL     OW 2125   1.903   0.524   1.660  0.3927 -0.0371 -0.6175
  709SOL    HW1 2126   2.001   0.513   1.684 -1.5355  0.2189 -2.3527
  709SOL    HW2 2127   1.864   0.617   1.675 -0.2989 -0.6478 -1.2548
  710SOL     OW 2128   3.062   0.255   1.343 -0.0306  0.6427 -0.3413
  710SOL    HW1 2129   2.982   0.232   1.285  4.1867  3.0561  2.2304
  710SOL    HW2 2130   3.033   0.306   1.429 -0.6117  2.1328 -0.8729
  711SOL     OW 2131   0.376   2.402   0.798  0.3248 -1.0322 -0.0688
  711SOL    HW1 2132   0.449   2.342   0.837 -0.1890 -1.2582 -2.2946
  711SOL    HW2 2133   0.283   2.363   0.819  0.4155 -0.2699  1.1469
  712SOL     OW 2134   0.282   2.063   2.437  0.4027 -0.1453  0.3252
  712SOL    HW1 2135   0.306   2.134   2.365  0.2561 -0.9042  2.8836
  712SOL    HW2 2136   0.294   1.966   2.404 -0.1473 -0.6247 -1.6993
  713SOL     OW 2137   1.716   0.641   0.118  0.4662  0.2315  0.3173
  713SOL    HW1 2138   1.628   0.604   0.155 -1.2345  0.4842  0.4841
  713SOL    HW2 2139   1.698   0.698   0.036  0.5300  0.1790 -1.7222
  714SOL     OW 2140   1.465   1.790   0.257 -0.5686  0.0820 -0.2265
  714SOL    HW1 2141   1.463   1.841   0.169 -3.9401 -1.4265 -0.4779
  714SOL    HW2 2142   1.377   1.799   0.310 -0.5393 -1.5514  3.1401
  715SOL     OW 2143   2.321   0.096   0.630 -0.3821  0.7320 -0.4715
  715SOL    HW1 2144   2.409   0.042   0.626 -1.0495  0.3522  1.2857
  715SOL    HW2 2145   2.304   0.129   0.724 -2.2929  2.3242 -0.6015
  716SOL     OW 2146   0.485   0.429   2.357  0.0069  0.0990 -0.6669
  716SOL    HW1 2147   0.520   0.440   2.452  0.8692  2.1806  1.0265
  716SOL    HW2 2148   0.383   0.421   2.355 -4.0147  0.1518  1.2804
  717SOL     OW 2149   0.136   0.284   2.676 -0.0288  0.0552  0.1598
  717SOL    HW1 2150   0.183   0.264   2.588  1.2221 -1.1432 -1.6831
  717SOL    HW2 2151   0.037   0.305   2.659  1.0172 -0.2959 -3.5825
  718SOL     OW 2152   0.986   0.756   0.320 -0.1516 -0.1420 -0.1744
  718SOL    HW1 2153   1.063   0.712   0.371  0.4532  0.4060 -0.8445
  718SOL    HW2 2154   0.948   0.683   0.261  0.6047  1.8867 -0.7154
  719SOL     OW 2155   2.519   2.068   2.845 -0.1353 -0.6316  0.6117
  719SOL    HW1 2156   2.508   1.995   2.915 -1.7979 -2.7685  1.4203
  719SOL    HW2 2157   2.593   2.038   2.784 -0.4383 -0.0466  0.2579
  720SOL     OW 2158   1.201   0.897   1.251 -0.4246 -0.2919  0.0772
  720SOL    HW1 2159   1.214   0.945   1.161  0.0164 -2.6166 -1.5540
  720SOL    HW2 2160   1.138   0.820   1.226  0.1925 -2.2545 -0.9391
  721SOL     OW 2161   2.878   0.871   0.492  0.2723 -0.3922  0.3581
  721SOL    HW1 2162   2.797   0.827   0.537 -1.2694 -1.2394  1.6027
  721SOL    HW2 2163   2.943   0.899   0.564 -0.0974 -2.3559 -0.0030
  722SOL     OW 2164   1.072   1.917   2.592  0.1853  0.0631  0.0347
  722SOL    HW1 2165   1.108   1.914   2.683 -0.6235 -0.3106 -0.5273
  722SOL    HW2 2166   0.986   1.974   2.590 -0.2154 -1.6130 -2.2896
  723SOL     OW 2167   0.591   0.730   0.418  0.3953  0.2731  0.3616
  723SOL    HW1 2168   0.606   0.764   0.512 -1.8824 -0.4274 -2.0982
  723SOL    HW2 2169   0.622   0.796   0.348  2.1336  0.0852  3.3105
  724SOL     OW 2170   0.990   1.933   1.621  0.4210  0.5093  0.6786
  724SOL    HW1 2171   0.937   1.862   1.571  1.2267  0.9702  0.9986
  724SOL    HW2 2172   0.928   1.987   1.680  0.5919 -0.3252 -0.9962
  725SOL     OW 2173   0.197   0.811   1.324 -0.0274 -0.3730 -0.3766
  725SOL    HW1 2174   0.250   0.901   1.332  0.3492  0.3524  1.5885
  725SOL    HW2 2175   0.265   0.741   1.357 -1.3616  1.6465  0.2632
  726SOL     OW 2176   1.741   0.421   0.594  0.2759 -0.1137 -0.2862
  726SOL    HW1 2177   1.694   0.368   0.665  3.3701  0.5702 -0.4672
  726SOL    HW2 2178   1.784   0.508   0.631 -1.2302 -3.1794  0.3277
  727SOL     OW 2179   1.577   0.998   2.258  0.2029 -0.5015 -0.6483
  727SOL    HW1 2180   1.514   1.050   2.196  0.8804  0.2198  0.8113
  727SOL    HW2 2181   1.522   0.925   2.293  0.4092  0.6739 -1.4404
  728SOL     OW 2182   1.668   2.423   1.054  0.3972  0.0585 -0.8083
  728SOL    HW1 2183   1.688   2.494   1.121  1.6973 -0.5138 -5.8974
  728SOL    HW2 2184   1.575   2.446   1.006 -4.0439 -1.3601 -0.1057
  729SOL     OW 2185   1.191   0.508   1.385 -0.1259  0.5532  0.2413
  729SOL    HW1 2186   1.198   0.512   1.281 -1.1888 -0.2083  0.1711
  729SOL    HW2 2187   1.267   0.454   1.424 -2.3520  2.0084 -0.1333
  730SOL     OW 2188   0.747   2.028   1.713  0.1982  0.0169 -0.0113
  730SOL    HW1 2189   0.654   2.027   1.750 -0.0086  0.3252 -2.1362
  730SOL    HW2 2190   0.739   2.070   1.621 -2.2125 -0.9074 -1.2841
  731SOL     OW 2191   0.409   0.235   0.129  0.4284 -0.0996  0.3009
  731SOL    HW1 2192   0.345   0.226   0.209  0.1072 -0.1028 -1.2730
  731SOL    HW2 2193   0.405   0.148   0.074 -2.3879  0.3536  0.5789
  732SOL     OW 2194   0.561   0.629   2.947 -0.2011 -0.3525 -0.0299
  732SOL    HW1 2195   0.544   0.540   2.895 -0.4957  1.6043 -0.3528
  732SOL    HW2 2196   0.561   0.607   3.052  1.4342  1.6653  3.6403
  733SOL     OW 2197   1.356   2.026   1.414  0.0331  0.3923 -0.4046
  733SOL    HW1 2198   1.256   2.014   1.403 -1.1185  0.2200 -0.2154
  733SOL    HW2 2199   1.399   1.956   1.470 -0.5573  0.7144  1.2625
  734SOL     OW 2200   3.034   2.642   2.527  0.4273  0.5476  0.6392
  734SOL    HW1 2201   2.958   2.575   2.534  1.7024  0.2452  0.9893
  734SOL    HW2 2202   3.020   2.713   2.594 -1.1090 -0.1047 -0.4069
  735SOL     OW 2203   0.773   2.624   0.864 -0.0903 -0.5526  0.3912
  735SOL    HW1 2204   0.820   2.719   0.873  0.9480  1.2481 -0.2421
  735SOL    HW2 2205   0.794   2.586   0.775 -0.3232 -0.9713 -0.4719
  736SOL     OW 2206   1.593   0.746   2.612  0.3010 -0.0849  0.1060
  736SOL    HW1 2207   1.544   0.763   2.525  1.4097  1.1751  0.5553
  736SOL    HW2 2208   1.582   0.819   2.686 -2.0578 -1.3072  0.1964
  737SOL     OW 2209   2.972   0.620   0.324  0.6824 -0.0860  0.1119
  737SOL    HW1 2210   3.055   0.565   0.298 -0.1377  3.3606 -1.4599
  737SOL    HW2 2211   2.978   0.668   0.412  1.6143  1.8209 -1.6710
  738SOL     OW 2212   0.041   2.321   1.610  0.3747  0.0550 -0.5231
  738SOL    HW1 2213   3.025   2.346   1.575 -0.4659  0.5157 -0.4411
  738SOL    HW2 2214   0.073   2.396   1.670 -0.9948  1.2674 -0.4228
  739SOL     OW 2215   1.634   2.951   0.694 -0.2051 -0.1348  0.1388
  739SOL    HW1 2216   1.561   2.896   0.730  1.6641  0.6326  1.5607
  739SOL    HW2 2217   1.588   3.023   0.634 -1.1396  3.7441 -1.8684
  740SOL     OW 2218   1.566   2.891   1.252  0.0756 -0.5481 -0.5407
  740SOL    HW1 2219   1.660   2.847   1.241 -1.0490  0.5414 -1.3081
  740SOL    HW2 2220   1.494   2.822   1.266 -1.3486 -0.2926 -1.8862
  741SOL     OW 2221   2.054   0.522   0.896 -0.6938  0.1607  0.0219
  741SOL    HW1 2222   1.978   0.582   0.926  2.0083  0.0634 -0.3231
  741SOL    HW2 2223   2.138   0.548   0.945  2.4567  0.4571 -1.1824
  742SOL     OW 2224   1.496   2.001   2.175 -0.1903  0.5527  0.5139
  742SOL    HW1 2225   1.555   2.080   2.195  0.4650  0.3510 -1.2480
  742SOL    HW2 2226   1.404   2.030   2.146 -2.3802  0.7505  3.2935
  743SOL     OW 2227   2.316   0.461   1.608  0.2304 -0.6121 -0.2078
  743SOL    HW1 2228   2.239   0.425   1.660  2.0770  1.7742 -1.8290
  743SOL    HW2 2229   2.341   0.551   1.642  0.4902 -1.3836  1.1761
  744SOL     OW 2230   2.295   0.595   0.994 -0.1971 -0.2721  0.0340
  744SOL    HW1 2231   2.330   0.611   0.900 -1.5561 -0.8908  3.0616
  744SOL    HW2 2232   2.325   0.668   1.060  1.4088 -1.1380 -0.2554
  745SOL     OW 2233   2.018   1.717   1.634  0.0012 -0.2969 -0.2965
  745SOL    HW1 2234   2.013   1.788   1.562  0.8109 -1.5426  0.3553
  745SOL    HW2 2235   2.114   1.709   1.671 -1.8364 -1.1312 -2.1353
  746SOL     OW 2236   1.024   1.529   0.782 -0.2060  0.1938  0.1683
  746SOL    HW1 2237   0.931   1.485   0.805 -1.8626  0.4499  2.4619
  746SOL    HW2 2238   1.043   1.610   0.842 -0.7934  1.3650 -2.3307
  747SOL     OW 2239   1.887   1.252   1.059  0.0444  0.7720  0.1631
  747SOL    HW1 2240   1.796   1.243   1.100  1.0004 -2.3751 -2.1233
  747SOL    HW2 2241   1.929   1.161   1.087 -1.7731  1.8224  1.4133
  748SOL     OW 2242   0.149   3.015   0.200 -0.8397 -0.2751  0.3460
  748SOL    HW1 2243   0.183   0.016   0.255  1.3272  2.4050 -0.5262
  748SOL    HW2 2244   0.198   2.925   0.219 -0.2519 -0.0050 -1.3196
  749SOL     OW 2245   0.202   0.390   2.384  0.1893 -0.3231  0.1600
  749SOL    HW1 2246   0.151   0.399   2.299 -1.8110  1.9815 -1.7417
  749SOL    HW2 2247   0.185   0.462   2.451  3.9147 -1.3854 -0.0901
  750SOL     OW 2248   1.850   2.944   1.465 -0.2291  0.1312  0.3742
  750SOL    HW1 2249   1.823   3.038   1.434  1.4835  0.8850 -2.4186
  750SOL    HW2 2250   1.772   2.897   1.516  1.5830 -2.0634  0.6812
  751SOL     OW 2251   2.786   0.314   0.502  0.2064 -0.5094 -0.2997
  751SOL    HW1 2252   2.752   0.360   0.415 -2.0593  0.0257 -1.3771
  751SOL    HW2 2253   2.736   0.353   0.582  0.0175  2.5492 -2.8852
  752SOL     OW 2254   0.256   2.998   1.075  0.1923 -0.0360  0.2897
  752SOL    HW1 2255   0.202   2.912   1.065 -0.1012 -1.6957  0.4805
  752SOL    HW2 2256   0.200   0.004   1.093 -0.1969 -2.0898 -1.5251
  753SOL     OW 2257   1.005   0.330   1.695  0.4594  0.2248  0.1329
  753SOL    HW1 2258   1.106   0.339   1.709  1.5153  0.1193 -0.2819
  753SOL    HW2 2259   0.993   0.292   1.602  0.4364 -1.8685  1.6591
  754SOL     OW 2260   0.949   2.764   1.932 -0.0246  0.2068  0.4712
  754SOL    HW1 2261   1.029   2.737   1.979 -1.2456  1.4889 -2.4344
  754SOL    HW2 2262   0.866   2.761   1.989  0.3540  1.2875 -2.1613
  755SOL     OW 2263   2.618   1.260   0.538  0.6201  0.4653 -0.5333
  755SOL    HW1 2264   2.591   1.305   0.626 -2.2458  2.7952 -0.0183
  755SOL    HW2 2265   2.538   1.272   0.472 -0.0375  1.5964  1.2826
  756SOL     OW 2266   1.850   1.873   2.664 -0.1651 -0.1626 -0.0173
  756SOL    HW1 2267   1.814   1.949   2.716  3.3777 -3.4415 -0.8617
  756SOL    HW2 2268   1.878   1.798   2.728  0.4055 -0.0413 -2.4297
  757SOL     OW 2269   1.938   0.141   0.777  0.4660  0.0354 -0.3703
  757SOL    HW1 2270   1.840   0.119   0.772  0.1160  0.8342  1.1644
  757SOL    HW2 2271   1.968   0.172   0.681 -0.1058  1.6225 -4.7061
  758SOL     OW 2272   1.198   2.561   0.768 -0.0237  0.8357 -0.6908
  758SOL    HW1 2273   1.162   2.478   0.821 -0.5671 -0.3716  3.1852
  758SOL    HW2 2274   1.271   2.529   0.710  1.9441 -0.4315  1.8327
  759SOL     OW 2275   2.667   0.501   1.192 -0.3528 -0.4444 -0.1277
  759SOL    HW1 2276   2.662   0.491   1.088  1.0294  2.9720 -1.9212
  759SOL    HW2 2277   2.646   0.420   1.246 -1.1659 -0.3387 -0.4462
  760SOL     OW 2278   2.186   1.077   1.453  0.0659 -0.5662 -0.0972
  760SOL    HW1 2279   2.227   1.067   1.359  1.2941  2.0183 -0.5856
  760SOL    HW2 2280   2.255   1.114   1.517 -1.8957 -1.7112  1.0740
  761SOL     OW 2281   0.590   0.800   0.683  0.1482  0.1492 -0.0087
  761SOL    HW1 2282   0.526   0.826   0.760 -1.8050 -0.4208  1.4777
  761SOL    HW2 2283   0.636   0.712   0.709 -1.1343  0.9162  2.7610
  762SOL     OW 2284   2.145   1.713   1.274  0.5542  0.5931  0.2885
  762SOL    HW1 2285   2.107   1.630   1.317 -2.0161  1.1194  3.0171
  762SOL    HW2 2286   2.077   1.787   1.276 -0.0588 -1.3455  0.9209
  763SOL     OW 2287   1.272   1.490   1.692  0.2787  0.1719  0.3206
  763SOL    HW1 2288   1.245   1.494   1.594  1.3469 -0.4597 -0.9071
  763SOL    HW2 2289   1.319   1.578   1.716 -2.0053 -1.6801 -0.6478
  764SOL     OW 2290   0.180   1.879   2.137 -0.0521  0.2612 -0.0347
  764SOL    HW1 2291   0.112   1.810   2.097 -1.1203 -0.6224 -0.8088
  764SOL    HW2 2292   0.212   1.840   2.226 -0.0957  1.6162  0.5419
  765SOL     OW 2293   1.538   2.300   1.365 -0.0680 -0.1995  0.5494
  765SOL    HW1 2294   1.580   2.271   1.452 -0.9378  0.9573  0.4148
  765SOL    HW2 2295   1.588   2.377   1.317  0.2876 -1.9491  0.7786
  766SOL     OW 2296   0.252   2.529   2.305  0.5348 -0.1898 -0.3511
  766SOL    HW1 2297   0.251   2.565   2.402 -1.7100  1.6489  0.3488
  766SOL    HW2 2298   0.166   2.549   2.256  0.1865  1.3374 -2.1841
  767SOL     OW 2299   1.360   0.853   2.387  0.2527  0.3176 -0.0317
  767SOL    HW1 2300   1.372   0.780   2.321 -0.3262  1.7792  1.3028
  767SOL    HW2 2301   1.308   0.928   2.349  2.1258 -1.6007 -0.2965
  768SOL     OW 2302   1.326   2.232   3.034 -0.3734  0.0018 -0.0841
  768SOL    HW1 2303   1.283   2.296   0.018 -1.2093 -0.8246  0.8786
  768SOL    HW2 2304   1.345   2.139   3.076 -0.0634 -1.7545  0.1791
  769SOL     OW 2305   3.063   2.861   1.365 -0.3431 -0.1140  0.2456
  769SOL    HW1 2306   2.998   2.827   1.295  0.9259 -1.7202  3.4201
  769SOL    HW2 2307   0.085   2.843   1.349  0.7476  1.2836  0.1164
  770SOL     OW 2308   1.272   0.442   2.747 -0.2341  0.0441  0.0346
  770SOL    HW1 2309   1.266   0.480   2.652 -1.8661 -1.2946  0.8604
  770SOL    HW2 2310   1.183   0.443   2.800 -1.4029 -0.9466  0.5556
  771SOL     OW 2311   0.326   0.158   2.445 -0.1276 -0.1445 -0.3384
  771SOL    HW1 2312   0.306   0.076   2.388  1.2336 -1.7609  2.9695
  771SOL    HW2 2313   0.283   0.240   2.402  1.2242 -0.1343  0.7869
  772SOL     OW 2314   2.333   0.044   1.969 -0.3111  0.4658 -0.6415
  772SOL    HW1 2315   2.337   0.062   1.869  2.0784 -0.2107  0.8175
  772SOL    HW2 2316   2.362   3.025   1.987 -0.3847  0.6540  0.1695
  773SOL     OW 2317   1.071   2.236   1.964 -0.1515  0.4091  0.5712
  773SOL    HW1 2318   1.090   2.326   2.011 -0.1362 -0.5250 -0.1715
  773SOL    HW2 2319   0.979   2.225   1.924  2.3264 -1.7744 -0.9936
  774SOL     OW 2320   1.151   0.386   2.021 -0.0292 -0.4213  0.3911
  774SOL    HW1 2321   1.144   0.477   1.978 -1.4114  0.1547  0.9291
  774SOL    HW2 2322   1.177   0.319   1.951 -1.5524  1.0984  0.3339
  775SOL     OW 2323   2.019   2.894   2.983 -0.2971  0.3429  0.0970
  775SOL    HW1 2324   1.927   2.864   3.016 -0.5004  0.4399 -0.0413
  775SOL    HW2 2325   2.022   2.995   2.972  1.5776  2.6672  3.5674
  776SOL     OW 2326   2.043   0.524   2.141  0.2966  0.4234  0.2624
  776SOL    HW1 2327   1.960   0.579   2.165 -0.4041 -0.0979 -1.1976
  776SOL    HW2 2328   2.061   0.526   2.038  0.9353  1.1643 -0.6200
  777SOL     OW 2329   2.417   1.161   2.388  0.4989 -0.3899 -0.4200
  777SOL    HW1 2330   2.460   1.182   2.474 -1.2371  1.1486 -0.1061
  777SOL    HW2 2331   2.486   1.147   2.316  0.3803  2.2537  1.1703
  778SOL     OW 2332   1.866   0.695   2.308 -0.4753  0.3552  0.7322
  778SOL    HW1 2333   1.860   0.780   2.252  0.9232 -0.7060  1.4870
  778SOL    HW2 2334   1.861   0.719   2.407  2.1853 -0.4637 -1.1349
  779SOL     OW 2335   0.090   3.060   3.014 -0.3205 -0.2396  0.3785
  779SOL    HW1 2336   0.109   0.000   0.035  0.2673 -1.3783  4.4010
  779SOL    HW2 2337   0.016   0.042   2.977  0.6308  0.0808 -1.7684
  780SOL     OW 2338   2.395   0.458   2.997 -1.0635  0.6541  0.7631
  780SOL    HW1 2339   2.342   0.439   2.913 -1.2967 -1.1874  2.9423
  780SOL    HW2 2340   2.381   0.555   3.032  0.7253  1.6186  1.1750
  781SOL     OW 2341   0.404   2.869   1.438  0.6298 -0.0730 -0.5432
  781SOL    HW1 2342   0.462   2.918   1.372  1.0517 -3.5230  1.5107
  781SOL    HW2 2343   0.334   2.820   1.390 -0.0504  0.0385  2.0064
  782SOL     OW 2344   1.919   2.391   0.222 -0.3071  0.2234 -0.8924
  782SOL    HW1 2345   1.895   2.421   0.316 -2.2826 -4.9139 -1.2305
  782SOL    HW2 2346   1.959   2.474   0.177 -1.7845  0.1576  1.2861
  783SOL     OW 2347   0.851   1.440   1.717 -0.4575  0.1228 -0.3318
  783SOL    HW1 2348   0.847   1.388   1.632 -1.3071  2.6648  1.4602
  783SOL    HW2 2349   0.758   1.475   1.734  0.9591 -0.9083 -0.5445
  784SOL     OW 2350   1.442   0.671   2.191 -0.7826  0.4308 -0.1362
  784SOL    HW1 2351   1.468   0.669   2.094 -0.7208 -2.4653  0.8847
  784SOL    HW2 2352   1.410   0.581   2.215 -0.1611  0.4800  1.3147
  785SOL     OW 2353   2.571   0.245   1.002  0.3805 -0.2928 -0.4590
  785SOL    HW1 2354   2.481   0.291   1.016  0.5325  2.1453 -0.8663
  785SOL    HW2 2355   2.595   0.171   1.066  1.9275 -1.9310  1.0948
  786SOL     OW 2356   1.414   2.684   1.274 -0.1252  0.3057  0.3830
  786SOL    HW1 2357   1.490   2.615   1.275  1.0599 -1.1226 -0.1660
  786SOL    HW2 2358   1.333   2.654   1.216 -1.4520  0.5288  1.8201
  787SOL     OW 2359   1.523   0.067   1.381  0.4089  0.7089 -0.0872
  787SOL    HW1 2360   1.535   3.060   1.325 -0.2217  0.8742 -0.1917
  787SOL    HW2 2361   1.613   0.101   1.411  0.7684 -0.9462 -2.3953
  788SOL     OW 2362   2.980   1.140   0.142  0.0480 -0.3990 -0.4913
  788SOL    HW1 2363   3.016   1.060   0.096 -0.1654  3.1061  1.7369
  788SOL    HW2 2364   2.911   1.113   0.211 -1.8240 -0.9128 -0.3736
  789SOL     OW 2365   0.417   1.714   1.883  0.0877 -0.0995  0.2004
  789SOL    HW1 2366   0.446   1.805   1.925  0.3524 -0.3357  1.2424
  789SOL    HW2 2367   0.494   1.646   1.884  0.1833  1.9697 -0.2592
  790SOL     OW 2368   0.107   0.586   2.546  0.4592  0.2228  0.5491
  790SOL    HW1 2369   0.155   0.640   2.618 -0.6761 -0.6577 -1.6901
  790SOL    HW2 2370   0.036   0.524   2.589 -1.3409 -0.2734  0.8953
  791SOL     OW 2371   2.214   0.816   0.618  0.3244 -0.1325 -0.0213
  791SOL    HW1 2372   2.146   0.743   0.602 -0.2167  2.4626 -0.6656
  791SOL    HW2 2373   2.173   0.903   0.649 -0.4438  0.4256  0.1781
  792SOL     OW 2374   1.265   2.758   1.500 -0.0562 -0.2970 -0.1602
  792SOL    HW1 2375   1.249   2.673   1.554  1.6375  1.3943 -1.0849
  792SOL    HW2 2376   1.304   2.735   1.408 -0.0993 -0.0382 -0.8786
  793SOL     OW 2377   0.450   3.039   0.877 -0.2919  0.2966  0.5468
  793SOL    HW1 2378   0.376   3.025   0.946 -2.8759 -0.9213  0.2212
  793SOL    HW2 2379   0.466   2.958   0.818 -2.1412  2.7361 -0.4296
  794SOL     OW 2380   0.296   0.691   2.300  0.4777 -0.4589  0.1617
  794SOL    HW1 2381   0.225   0.706   2.374 -0.8234  2.1998  2.4911
  794SOL    HW2 2382   0.268   0.628   2.228  1.3983 -3.2790 -2.0671
  795SOL     OW 2383   0.564   2.270   2.591  0.1132  0.1389  0.0154
  795SOL    HW1 2384   0.599   2.175   2.583 -0.7266  0.8885  0.8939
  795SOL    HW2 2385   0.620   2.337   2.532  0.4742 -1.7423 -2.0309
  796SOL     OW 2386   2.190   0.465   2.345  0.4357 -0.0503  0.2377
  796SOL    HW1 2387   2.159   0.516   2.428 -1.9777  0.7339  3.2578
  796SOL    HW2 2388   2.136   0.495   2.263 -1.6168 -2.9317 -2.3667
  797SOL     OW 2389   2.321   2.573   2.556  0.3833  0.4380  0.3185
  797SOL    HW1 2390   2.419   2.548   2.542  1.9688 -0.1567  2.3832
  797SOL    HW2 2391   2.314   2.670   2.546  2.6205  0.1163 -2.4257
  798SOL     OW 2392   0.239   0.295   2.053 -0.0069 -0.3539 -1.0676
  798SOL    HW1 2393   0.335   0.270   2.021 -1.3049  1.6236  3.0365
  798SOL    HW2 2394   0.180   0.216   2.078  0.1762 -1.9648 -0.9579
  799SOL     OW 2395   0.806   2.464   2.162  0.1462 -0.1621 -0.5300
  799SOL    HW1 2396   0.900   2.452   2.126  0.9007  0.8077  2.0434
  799SOL    HW2 2397   0.755   2.536   2.112 -0.2740  1.4171 -0.5425
  800SOL     OW 2398   0.020   2.296   0.248  0.1006 -0.4004  0.0848
  800SOL    HW1 2399   0.004   2.209   0.301 -1.3794 -0.0677 -0.7059
  800SOL    HW2 2400   0.059   2.371   0.308 -0.6650  2.0421  1.1769
  801SOL     OW 2401   1.849   1.597   0.778 -0.1356  0.1501 -0.0359
  801SOL    HW1 2402   1.931   1.555   0.740  0.9707  0.1717  1.4743
  801SOL    HW2 2403   1.799   1.644   0.706 -0.7985 -2.0045  2.2673
  802SOL     OW 2404   0.332   0.277   0.563  0.5713  0.0108  0.0177
  802SOL    HW1 2405   0.358   0.366   0.606 -1.7594  1.0098 -0.0117
  802SOL    HW2 2406   0.289   0.211   0.634 -0.5211 -1.6089 -0.6574
  803SOL     OW 2407   1.473   1.295   1.762  0.2304  0.1945 -0.2578
  803SOL    HW1 2408   1.550   1.360   1.735  0.6877 -0.5249  3.3440
  803SOL    HW2 2409   1.386   1.347   1.760  0.2375 -2.5379  1.4819
  804SOL     OW 2410   1.782   1.931   0.864 -0.1471 -0.0747  0.3615
  804SOL    HW1 2411   1.874   1.971   0.850 -0.4907 -0.9364 -0.8927
  804SOL    HW2 2412   1.755   1.863   0.789 -0.2946 -2.4669 -1.4620
  805SOL     OW 2413   3.066   1.978   2.720 -0.3291  0.3856 -0.4306
  805SOL    HW1 2414   0.004   1.945   2.625 -0.0529 -2.3948 -1.9472
  805SOL    HW2 2415   0.069   2.033   2.751 -0.4350  0.3282 -1.9710
  806SOL     OW 2416   0.609   2.295   0.383  0.2291 -0.8141 -0.1836
  806SOL    HW1 2417   0.613   2.206   0.427 -0.7976  1.7952  0.6671
  806SOL    HW2 2418   0.526   2.340   0.425 -1.9000 -2.2547 -0.6708
  807SOL     OW 2419   2.121   1.551   2.646 -0.3741  0.5243 -0.1462
  807SOL    HW1 2420   2.209   1.515   2.694  2.0803  1.6522  0.2680
  807SOL    HW2 2421   2.073   1.614   2.701  1.2161 -1.9230  0.2671
  808SOL     OW 2422   1.496   2.091   1.178  0.2641  0.3089  0.8377
  808SOL    HW1 2423   1.430   2.040   1.237  0.5483  1.9365 -1.6653
  808SOL    HW2 2424   1.532   2.172   1.224 -1.3883 -0.6054  0.2874
  809SOL     OW 2425   0.176   0.554   0.255 -0.4488 -0.3051  0.6056
  809SOL    HW1 2426   0.243   0.539   0.331 -1.1717  0.0578  1.4333
  809SOL    HW2 2427   0.223   0.587   0.168 -1.9861  0.2447 -0.0674
  810SOL     OW 2428   1.314   1.552   3.040  1.0839 -0.2132 -0.5628
  810SOL    HW1 2429   1.237   1.489   3.059  0.9188 -0.7379 -0.1661
  810SOL    HW2 2430   1.381   1.551   0.035 -0.9289 -3.1159 -0.7052
  811SOL     OW 2431   1.857   2.426   0.814 -0.3627  0.2827 -1.0828
  811SOL    HW1 2432   1.813   2.399   0.903 -0.9453 -1.9203  2.1844
  811SOL    HW2 2433   1.782   2.447   0.744  0.4671  0.7407  0.5580
  812SOL     OW 2434   1.326   2.933   0.994  0.2057  0.6131 -0.2368
  812SOL    HW1 2435   1.402   2.906   1.056  1.0439  3.1452 -1.5515
  812SOL    HW2 2436   1.285   3.017   1.024  3.5955 -1.2002  0.4734
  813SOL     OW 2437   0.728   0.010   1.805 -0.3580  0.1890 -0.1766
  813SOL    HW1 2438   0.771   0.072   1.874  0.2718  0.6108 -2.1200
  813SOL    HW2 2439   0.689   3.003   1.844  1.0055 -0.1871  1.0511
  814SOL     OW 2440   1.099   2.454   2.113 -0.3791  0.0471 -0.0832
  814SOL    HW1 2441   1.158   2.407   2.183 -0.9792  2.1186 -0.9891
  814SOL    HW2 2442   1.104   2.552   2.121 -0.8238 -1.9673  0.0290
  815SOL     OW 2443   0.451   0.133   2.679 -0.6325 -0.0371  0.4272
  815SOL    HW1 2444   0.399   0.096   2.756 -0.2352  5.1379 -4.4961
  815SOL    HW2 2445   0.404   0.127   2.590  1.1650  0.9371 -1.4550
  816SOL     OW 2446   2.133   0.862   0.086 -0.0126  0.1511 -0.0900
  816SOL    HW1 2447   2.084   0.828   0.164  0.9857 -0.2546 -3.0457
  816SOL    HW2 2448   2.076   0.850   0.000 -3.1636 -0.3813  0.0575
  817SOL     OW 2449   2.837   2.525   2.304 -0.1434 -0.3566 -0.1185
  817SOL    HW1 2450   2.737   2.530   2.294 -0.4929 -1.6063  0.7118
  817SOL    HW2 2451   2.862   2.467   2.380  0.7863  1.8817 -2.2147
  818SOL     OW 2452   0.979   1.187   0.462 -0.2283  0.0941  0.1625
  818SOL    HW1 2453   1.048   1.157   0.532  0.4059 -1.9576 -0.5770
  818SOL    HW2 2454   0.903   1.239   0.510 -0.2004 -0.9535 -0.5460
  819SOL     OW 2455   1.641   1.148   2.678  0.4016 -0.5970  0.0150
  819SOL    HW1 2456   1.714   1.162   2.607 -0.3114 -3.1220  1.6535
  819SOL    HW2 2457   1.665   1.204   2.761 -0.7146 -2.0954  0.2889
  820SOL     OW 2458   0.527   1.387   0.051 -0.1325  0.0366 -0.3847
  820SOL    HW1 2459   0.521   1.490   0.041 -0.9735  1.7505  0.0513
  820SOL    HW2 2460   0.501   1.358   0.144  2.5146 -1.6297 -1.0510
  821SOL     OW 2461   0.421   2.804   0.721  0.0395  0.3171  0.1445
  821SOL    HW1 2462   0.500   2.757   0.675 -1.8232 -0.6992  0.7637
  821SOL    HW2 2463   0.375   2.739   0.783 -0.0049 -0.4279  1.4865
  822SOL     OW 2464   2.225   2.469   2.951 -0.1380 -0.3495 -0.0800
  822SOL    HW1 2465   2.317   2.432   2.965  0.0437  2.2655  0.8008
  822SOL    HW2 2466   2.180   2.471   3.044 -1.6975 -3.4280 -3.0190
  823SOL     OW 2467   1.136   0.258   2.518 -0.1261  0.3319 -0.2090
  823SOL    HW1 2468   1.238   0.279   2.505  0.5276  0.5970  2.4142
  823SOL    HW2 2469   1.105   0.182   2.457 -0.2448 -2.8588  1.0759
  824SOL     OW 2470   2.795   2.603   1.726  0.8070  0.1495 -0.0744
  824SOL    HW1 2471   2.868   2.668   1.703 -1.4091 -0.6761  1.2288
  824SOL    HW2 2472   2.723   2.654   1.783 -2.1040  1.1359  0.9698
  825SOL     OW 2473   0.114   2.261   2.557  0.0921  0.0655 -0.3101
  825SOL    HW1 2474   0.166   2.349   2.539  2.4166  0.7612 -1.4595
  825SOL    HW2 2475   0.175   2.182   2.530 -1.3674 -0.5947 -2.1114
  826SOL     OW 2476   1.724   0.527   2.900 -0.1068 -0.5111 -0.2716
  826SOL    HW1 2477   1.793   0.496   2.963 -1.6233  2.5136  1.5065
  826SOL    HW2 2478   1.754   0.494   2.811 -1.4909  2.2130  1.9038
  827SOL     OW 2479   2.936   1.722   1.860  0.0177 -0.1444 -0.1245
  827SOL    HW1 2480   2.889   1.813   1.850  1.5157 -1.0401  0.3908
  827SOL    HW2 2481   2.862   1.656   1.888 -3.0403 -1.9446  0.0598
  828SOL     OW 2482   0.132   0.152   1.087  0.1594 -0.2486  0.1869
  828SOL    HW1 2483   0.210   0.223   1.084  2.5367  1.5283 -0.0909
  828SOL    HW2 2484   0.084   0.167   1.179  0.9148 -0.6713  2.3259
  829SOL     OW 2485   0.929   2.261   2.384  0.4211  0.5934 -0.2065
  829SOL    HW1 2486   0.915   2.200   2.464 -0.6722  0.7798 -2.4936
  829SOL    HW2 2487   0.851   2.327   2.374 -1.3980  1.1064  0.4088
  830SOL     OW 2488   0.606   0.695   1.590  0.3783  0.5058  0.4163
  830SOL    HW1 2489   0.590   0.755   1.674  1.0555  2.3782  0.8048
  830SOL    HW2 2490   0.684   0.634   1.602 -1.8669  2.5563  0.3452
  831SOL     OW 2491   2.510   1.737   2.791 -0.0296 -0.3484 -0.2008
  831SOL    HW1 2492   2.603   1.775   2.768  0.8158  1.5016 -0.3684
  831SOL    HW2 2493   2.488   1.768   2.884 -1.5638 -0.3526 -1.7589
  832SOL     OW 2494   1.889   2.496   2.828  0.7391  0.2674 -0.2865
  832SOL    HW1 2495   1.882   2.397   2.807 -2.0818 -1.5523  0.8633
  832SOL    HW2 2496   1.930   2.547   2.752 -1.0325  1.2537  0.2480
  833SOL     OW 2497   0.481   0.249   1.971 -0.3167 -0.2718 -0.3209
  833SOL    HW1 2498   0.486   0.183   1.894  0.8074  0.6079  0.3777
  833SOL    HW2 2499   0.552   0.244   2.043  1.6535  0.9216  1.9971
  834SOL     OW 2500   0.179   0.550   1.045 -0.1928 -0.3226 -0.0068
  834SOL    HW1 2501   0.193   0.470   0.986  3.0901 -1.2945 -1.4171
  834SOL    HW2 2502   0.085   0.551   1.087  1.5346 -2.2288 -0.3551
  835SOL     OW 2503   2.662   0.676   0.517  0.9453  0.1270 -0.0944
  835SOL    HW1 2504   2.588   0.744   0.499 -2.1644 -2.0906 -1.8281
  835SOL    HW2 2505   2.645   0.590   0.459  0.7832  0.1068 -1.7423
  836SOL     OW 2506   1.047   2.288   0.529 -0.8560  0.4087  0.4931
  836SOL    HW1 2507   1.115   2.214   0.545 -1.1718  0.4159  0.0868
  836SOL    HW2 2508   1.091   2.381   0.516  0.4012 -1.6486 -1.0235
  837SOL     OW 2509   1.975   1.820   0.379  0.2158 -0.5330 -0.3064
  837SOL    HW1 2510   1.927   1.733   0.393 -0.7734  3.4268 -0.3811
  837SOL    HW2 2511   2.075   1.804   0.393 -1.8862 -0.9451 -2.1171
  838SOL     OW 2512   1.821   0.934   2.153  0.6670  0.3156  0.2990
  838SOL    HW1 2513   1.848   1.014   2.095  0.6654 -0.5181 -0.9100
  838SOL    HW2 2514   1.726   0.956   2.194  0.4227  3.4946  0.3415
  839SOL     OW 2515   0.920   1.369   2.561  0.8358  0.0707  0.0424
  839SOL    HW1 2516   0.826   1.344   2.595  0.7021  1.3047  0.6760
  839SOL    HW2 2517   0.937   1.327   2.472 -0.5126  1.1819 -2.9980
  840SOL     OW 2518   0.943   1.323   0.220 -0.0840 -0.6111 -0.3855
  840SOL    HW1 2519   0.960   1.263   0.302  0.5460 -2.5891  0.6171
  840SOL    HW2 2520   0.880   1.280   0.155 -0.5613  0.5099  0.5294
  841SOL     OW 2521   1.540   2.255   0.341 -0.1786  0.2524  0.6156
  841SOL    HW1 2522   1.610   2.214   0.404  0.1623 -3.1133  0.6860
  841SOL    HW2 2523   1.581   2.275   0.250 -0.7589 -0.4434 -0.3943
  842SOL     OW 2524   0.296   0.757   0.040 -0.2646 -0.8633 -0.3818
  842SOL    HW1 2525   0.343   0.710   3.043 -0.4913  2.2422  1.1453
  842SOL    HW2 2526   0.353   0.807   0.104  1.2434 -3.1886 -0.7806
  843SOL     OW 2527   0.591   0.258   1.087 -0.3406  0.6842 -0.0665
  843SOL    HW1 2528   0.559   0.221   1.172  3.9833  3.5839 -2.1795
  843SOL    HW2 2529   0.670   0.207   1.050 -0.9888  0.1276  0.4948
  844SOL     OW 2530   1.815   2.756   2.177  0.3871 -0.2524  0.1248
  844SOL    HW1 2531   1.911   2.720   2.177 -2.5055  3.6021  1.6871
  844SOL    HW2 2532   1.800   2.828   2.115  1.1625 -3.0971  0.2996
  845SOL     OW 2533   0.095   2.576   1.772 -0.4599 -0.4773  0.0694
  845SOL    HW1 2534   0.034   2.648   1.732  2.7573 -1.1208 -0.7987
  845SOL    HW2 2535   0.055   2.532   1.860 -2.3234 -0.4638  2.1297
  846SOL     OW 2536   1.833   1.328   2.352  0.0674  0.1501  0.5625
  846SOL    HW1 2537   1.764   1.386   2.397  1.0644  1.9134  1.4486
  846SOL    HW2 2538   1.887   1.382   2.278  0.4706  0.3430 -2.0035
  847SOL     OW 2539   0.181   0.559   2.094 -0.0686 -0.1141 -0.3116
  847SOL    HW1 2540   0.210   0.465   2.070 -1.8222  1.0873  1.5837
  847SOL    HW2 2541   0.188   0.622   2.014  1.4447  2.6675 -0.6319
  848SOL     OW 2542   2.486   2.725   2.904  0.2409 -0.9702 -0.6880
  848SOL    HW1 2543   2.561   2.761   2.959  1.0901 -0.3805 -1.5070
  848SOL    HW2 2544   2.510   2.636   2.863  3.0908 -0.8490  1.3575
  849SOL     OW 2545   0.361   2.692   0.462 -0.0246 -0.3534 -0.0405
  849SOL    HW1 2546   0.456   2.716   0.448 -1.7790  2.3466  0.7796
  849SOL    HW2 2547   0.324   2.738   0.545 -0.2411  0.9151  0.4633
  850SOL     OW 2548   0.841   2.248   0.705 -0.0596 -0.4680 -0.2657
  850SOL    HW1 2549   0.915   2.251   0.638 -1.9201  0.8460  3.7676
  850SOL    HW2 2550   0.856   2.168   0.764  1.2498  1.1465 -1.2441
  851SOL     OW 2551   1.823   0.379   2.681  0.0544  0.6285 -0.0170
  851SOL    HW1 2552   1.828   0.470   2.640 -1.9776 -0.2102  3.5690
  851SOL    HW2 2553   1.909   0.333   2.697 -4.8933  1.2793 -0.5267
  852SOL     OW 2554   1.715   2.806   2.658 -0.0278 -0.1415  0.4317
  852SOL    HW1 2555   1.702   2.780   2.560 -1.6994 -0.0090 -3.8889
  852SOL    HW2 2556   1.658   2.752   2.719  2.0903 -2.5815  0.8478
  853SOL     OW 2557   2.780   2.669   0.372 -0.5847 -0.5944  0.3223
  853SOL    HW1 2558   2.855   2.634   0.308 -1.6460 -0.9489  0.5218
  853SOL    HW2 2559   2.736   2.753   0.333 -0.8910  0.5180  1.4398
  854SOL     OW 2560   1.552   0.482   2.492 -0.2660  0.2145 -0.0319
  854SOL    HW1 2561   1.638   0.458   2.441  1.3637 -0.2963  0.5603
  854SOL    HW2 2562   1.568   0.567   2.544 -1.9146 -1.6059 -1.2263
  855SOL     OW 2563   0.418   2.408   0.533 -0.2709  0.6933  0.0463
  855SOL    HW1 2564   0.414   2.413   0.634 -1.2898 -0.9153 -1.9155
  855SOL    HW2 2565   0.394   2.496   0.494  0.8639 -1.7548 -0.5887
  856SOL     OW 2566   0.336   2.788   2.534 -0.1781 -1.1297 -0.0348
  856SOL    HW1 2567   0.437   2.800   2.510  0.1986  1.4667 -0.9209
  856SOL    HW2 2568   0.314   2.844   2.617  2.1461  0.3002  4.6115
  857SOL     OW 2569   1.125   3.015   1.610 -0.8986  0.1908  0.2874
  857SOL    HW1 2570   1.158   2.924   1.577 -0.1567  2.0008 -2.0032
  857SOL    HW2 2571   1.022   3.028   1.607 -0.7214  1.8307 -0.3057
  858SOL     OW 2572   2.892   1.870   1.527  0.8026 -0.2616 -0.3641
  858SOL    HW1 2573   2.969   1.806   1.543 -0.6364  0.2657 -0.2841
  858SOL    HW2 2574   2.819   1.815   1.487 -0.1457  0.2459 -1.4381
  859SOL     OW 2575   2.127   2.207   2.077 -0.4019 -0.2813 -0.2081
  859SOL    HW1 2576   2.102   2.173   2.175 -1.7383  0.3522  1.6944
  859SOL    HW2 2577   2.172   2.127   2.027  0.9331  0.6598  2.0587
  860SOL     OW 2578   1.297   0.398   0.362 -0.2232 -0.3149  0.1946
  860SOL    HW1 2579   1.397   0.404   0.369  0.0808  0.1821 -0.4066
  860SOL    HW2 2580   1.275   0.308   0.321 -4.5184  1.3701 -0.3061
  861SOL     OW 2581   2.861   0.756   0.896  0.0965 -0.0227 -0.1847
  861SOL    HW1 2582   2.778   0.701   0.877 -0.6078 -0.3480 -0.0160
  861SOL    HW2 2583   2.940   0.715   0.844  3.1400  1.4642  3.0815
  862SOL     OW 2584   1.288   0.524   2.431  0.5566  0.3427  0.2393
  862SOL    HW1 2585   1.377   0.514   2.475  0.1009  2.1037 -2.5492
  862SOL    HW2 2586   1.294   0.500   2.333 -0.3430 -1.0618  0.2004
  863SOL     OW 2587   0.658   0.505   0.997 -0.5808  0.1216 -0.1575
  863SOL    HW1 2588   0.658   0.400   1.009 -1.9006 -0.0142  0.6458
  863SOL    HW2 2589   0.581   0.539   1.049 -0.1945 -0.4650 -0.5172
  864SOL     OW 2590   3.053   2.970   1.948 -0.1715  0.1146 -0.0662
  864SOL    HW1 2591   0.042   2.915   2.006  3.4865 -1.1389  1.9648
  864SOL    HW2 2592   0.009   2.993   1.858 -1.2505 -3.8211  3.2706
  865SOL     OW 2593   0.667   1.334   2.636 -0.5505  0.3740  0.5428
  865SOL    HW1 2594   0.628   1.364   2.721  0.2608  1.5071 -0.6313
  865SOL    HW2 2595   0.630   1.244   2.618  1.3270  2.9294 -0.4166
  866SOL     OW 2596   3.016   2.867   0.161 -0.1475  0.0885 -0.1230
  866SOL    HW1 2597   0.031   2.894   0.143 -0.7850 -0.8710 -0.1194
  866SOL    HW2 2598   3.021   2.781   0.213 -1.2013  3.3228  0.5748
  867SOL     OW 2599   2.862   2.828   2.951  0.4662  0.4416  0.3631
  867SOL    HW1 2600   2.875   2.727   2.948 -1.7227  2.4539 -2.8922
  867SOL    HW2 2601   2.923   2.874   3.019 -0.0383 -0.0810 -1.6790
  868SOL     OW 2602   1.522   0.940   2.844 -0.1527 -0.8891 -0.2533
  868SOL    HW1 2603   1.537   1.022   2.790  4.0113  4.4416 -0.2287
  868SOL    HW2 2604   1.424   0.940   2.869  0.5468  1.2556  0.5877
  869SOL     OW 2605   0.296   1.728   0.558  0.7110 -0.0067  0.3924
  869SOL    HW1 2606   0.376   1.700   0.615  1.8951  2.5939  2.1868
  869SOL    HW2 2607   0.216   1.672   0.566  2.0958  3.0256 -1.1254
  870SOL     OW 2608   2.253   1.916   0.458 -0.0611 -0.5571  0.3948
  870SOL    HW1 2609   2.310   1.973   0.520  1.7204 -0.5718 -1.2582
  870SOL    HW2 2610   2.266   1.939   0.359  1.0964  1.1708  0.3715
  871SOL     OW 2611   0.519   1.191   0.981  0.0596 -0.0929 -0.3388
  871SOL    HW1 2612   0.464   1.109   0.951 -1.4869 -1.3904 -0.6411
  871SOL    HW2 2613   0.619   1.180   0.965 -0.3855 -1.1283  1.3257
  872SOL     OW 2614   1.384   1.705   1.795  0.0672 -0.2037 -0.1549
  872SOL    HW1 2615   1.305   1.770   1.804  0.5424 -3.4683 -2.2348
  872SOL    HW2 2616   1.442   1.702   1.876 -0.8768  0.6327  1.2941
  873SOL     OW 2617   0.850   2.107   2.141  0.0431 -0.1249 -1.1933
  873SOL    HW1 2618   0.897   2.141   2.224 -0.0822  3.2464  3.6790
  873SOL    HW2 2619   0.873   2.166   2.061 -1.5018  0.3917 -2.1197
  874SOL     OW 2620   1.017   2.598   1.230  0.0048  0.0900 -0.1141
  874SOL    HW1 2621   1.034   2.591   1.330 -1.2694 -0.7995 -1.6412
  874SOL    HW2 2622   1.037   2.690   1.191  1.2875 -1.8188 -0.6745
  875SOL     OW 2623   2.991   0.327   0.921 -0.0273  0.2024 -0.4244
  875SOL    HW1 2624   3.012   0.227   0.920  0.8581 -1.2134  0.2435
  875SOL    HW2 2625   2.904   0.339   0.874  2.4147 -4.1333  0.7114
  876SOL     OW 2626   0.678   0.484   0.326  0.3404 -0.4309 -0.3765
  876SOL    HW1 2627   0.638   0.574   0.363  0.4567  1.3799  0.6042
  876SOL    HW2 2628   0.760   0.507   0.270 -1.1078 -0.3173 -2.2711
  877SOL     OW 2629   2.914   0.773   1.161 -0.4314  0.0317  0.3364
  877SOL    HW1 2630   2.876   0.797   1.069  1.3119  1.3137  0.1120
  877SOL    HW2 2631   2.956   0.684   1.162 -0.2047 -0.5339 -0.9638
  878SOL     OW 2632   2.683   2.125   0.685  0.8131  0.2759 -0.4487
  878SOL    HW1 2633   2.581   2.113   0.675  1.7449 -3.5063  0.3710
  878SOL    HW2 2634   2.707   2.104   0.782 -1.1449  1.6582 -0.7986
  879SOL     OW 2635   2.601   1.407   1.235  0.2527  0.3023 -0.1745
  879SOL    HW1 2636   2.512   1.446   1.253  1.1468 -0.1972  1.1055
  879SOL    HW2 2637   2.585   1.313   1.189  0.2522  0.2409 -1.3602
  880SOL     OW 2638   1.452   2.567   0.936  0.0600  0.1667  0.6285
  880SOL    HW1 2639   1.444   2.642   0.869  2.1229  0.0883 -0.6235
  880SOL    HW2 2640   1.368   2.538   0.987  0.9763 -0.6422 -0.8726
  881SOL     OW 2641   0.980   2.274   0.279 -0.2470 -0.0930 -0.7587
  881SOL    HW1 2642   0.999   2.293   0.376  1.5061  0.9095  1.1617
  881SOL    HW2 2643   0.899   2.330   0.250  1.4370 -0.0869 -0.2602
  882SOL     OW 2644   1.450   0.758   1.211  0.7277  0.2494  0.0206
  882SOL    HW1 2645   1.347   0.763   1.210 -0.4910 -2.2432  0.7444
  882SOL    HW2 2646   1.479   0.758   1.307 -0.8237  1.1249 -0.4958
  883SOL     OW 2647   1.360   0.401   2.211  0.2862  0.1159  0.1326
  883SOL    HW1 2648   1.285   0.388   2.138 -0.5555 -0.3103 -1.5376
  883SOL    HW2 2649   1.449   0.364   2.183  1.8760  1.1087  1.5908
  884SOL     OW 2650   2.539   0.687   0.196  0.2198  0.0873  0.3944
  884SOL    HW1 2651   2.527   0.612   0.265 -2.4631  1.3424  2.4419
  884SOL    HW2 2652   2.604   0.757   0.226 -0.3018 -0.3083  0.5192
  885SOL     OW 2653   1.131   1.343   0.040 -0.2724  0.3606  0.4791
  885SOL    HW1 2654   1.090   1.276   3.054 -0.3206 -1.6094  0.6142
  885SOL    HW2 2655   1.065   1.348   0.119 -1.2813  1.1787 -0.3732
  886SOL     OW 2656   1.432   1.320   2.569 -0.5507 -0.2246 -0.1897
  886SOL    HW1 2657   1.483   1.361   2.489  1.4769 -1.2053 -2.8033
  886SOL    HW2 2658   1.493   1.252   2.611  0.8706 -1.5441 -0.6922
  887SOL     OW 2659   1.400   0.407   1.511  0.2606 -0.0406  0.1749
  887SOL    HW1 2660   1.348   0.319   1.514  3.2786  0.0271  2.2419
  887SOL    HW2 2661   1.445   0.423   1.602  0.0359  1.0662 -1.3255
  888SOL     OW 2662   2.609   0.613   1.873 -0.5583 -0.2803 -0.1607
  888SOL    HW1 2663   2.600   0.514   1.878  1.8429  2.8414 -0.3239
  888SOL    HW2 2664   2.692   0.645   1.915 -3.2402 -1.2644 -3.9110
  889SOL     OW 2665   0.140   2.731   1.058  0.2340 -0.8143  0.2403
  889SOL    HW1 2666   0.056   2.688   1.025  1.0585 -0.0049  0.9070
  889SOL    HW2 2667   0.221   2.707   1.007 -1.0610  1.5419  1.4665
  890SOL     OW 2668   2.791   2.307   0.243  0.3803  0.0402 -0.3040
  890SOL    HW1 2669   2.738   2.307   0.332  1.4807  2.2599 -1.1762
  890SOL    HW2 2670   2.888   2.285   0.260  0.5290 -2.5159 -2.0451
  891SOL     OW 2671   0.967   1.607   2.943 -0.2206 -0.2494 -0.1310
  891SOL    HW1 2672   1.000   1.526   2.894  1.2197  3.7782 -1.5832
  891SOL    HW2 2673   0.948   1.588   3.041 -1.3109  1.2009 -0.0054
  892SOL     OW 2674   3.035   0.033   0.894  0.2757 -0.4713 -0.2996
  892SOL    HW1 2675   0.014   0.061   0.972 -1.3811 -0.5413 -1.5854
  892SOL    HW2 2676   2.972   3.032   0.921 -1.4044 -2.0923  0.0549
  893SOL     OW 2677   1.112   0.081   1.339 -0.5878  0.2425 -0.1354
  893SOL    HW1 2678   1.158   0.069   1.430  0.1740 -0.1314  1.2465
  893SOL    HW2 2679   1.060   3.075   1.311 -1.5947  0.2132 -3.2398
  894SOL     OW 2680   2.662   0.623   0.772  0.2578 -0.3747 -0.6431
  894SOL    HW1 2681   2.562   0.623   0.776  0.5418  0.2378  0.7745
  894SOL    HW2 2682   2.691   0.648   0.680  0.3731 -1.7613  0.6802
  895SOL     OW 2683   2.331   2.340   2.201 -0.6805  0.1424 -0.0814
  895SOL    HW1 2684   2.259   2.308   2.135  0.5645 -0.6015 -0.5021
  895SOL    HW2 2685   2.301   2.370   2.293 -1.5215 -0.2392 -1.9274
  896SOL     OW 2686   1.243   0.213   1.826  0.1391  0.4147  0.4913
  896SOL    HW1 2687   1.274   0.193   1.728  1.7282 -1.4243 -1.5600
  896SOL    HW2 2688   1.209   0.128   1.873  0.6879  0.8595  1.1911
  897SOL     OW 2689   0.782   1.786   1.950  0.8485 -0.6907 -0.1013
  897SOL    HW1 2690   0.871   1.798   1.997 -2.8362 -1.0543 -0.5516
  897SOL    HW2 2691   0.769   1.857   1.878 -2.4534 -0.5245 -0.7994
  898SOL     OW 2692   2.051   2.668   1.744  0.1148  0.1133  0.2397
  898SOL    HW1 2693   2.086   2.737   1.678  0.5645  1.0407  0.4478
  898SOL    HW2 2694   2.117   2.663   1.822  0.6363 -1.5358 -1.5490
  899SOL     OW 2695   1.043   0.707   1.139 -0.6701 -0.1872 -0.2860
  899SOL    HW1 2696   1.007   0.611   1.137  2.5487 -1.9182 -0.2326
  899SOL    HW2 2697   0.977   0.773   1.100 -1.2132  1.0201 -0.9410
  900SOL     OW 2698   1.858   2.247   2.786  0.1917 -0.3337 -0.1680
  900SOL    HW1 2699   1.791   2.173   2.805 -0.2454  0.6032  1.5134
  900SOL    HW2 2700   1.917   2.219   2.708 -1.7850 -1.4155  0.3176
  901SOL     OW 2701   0.867   2.086   2.628 -0.2384 -0.3271  0.0309
  901SOL    HW1 2702   0.855   2.124   2.723 -3.4115 -1.1434  0.3830
  901SOL    HW2 2703   0.774   2.055   2.599  1.2032  0.1847  0.0084
  902SOL     OW 2704   2.204   1.348   0.184  0.4809  0.1925 -0.4553
  902SOL    HW1 2705   2.298   1.384   0.159  2.0907 -1.8553 -0.9697
  902SOL    HW2 2706   2.215   1.247   0.203  1.0055 -1.2052  1.2991
  903SOL     OW 2707   1.914   0.786   0.275 -0.6922  0.7228  0.6212
  903SOL    HW1 2708   1.882   0.858   0.218  1.7514  0.5721 -0.6746
  903SOL    HW2 2709   1.854   0.704   0.260  1.3226  0.3430  0.9960
  904SOL     OW 2710   0.663   0.991   3.048  0.4272  0.2377  0.1998
  904SOL    HW1 2711   0.569   0.996   3.023  3.6830  0.9768 -0.1344
  904SOL    HW2 2712   0.723   0.956   2.977 -1.0762  0.9700  4.0648
  905SOL     OW 2713   2.276   0.323   1.054  0.0183 -0.4852  0.3643
  905SOL    HW1 2714   2.297   0.328   1.153 -0.4634  0.3457 -3.7157
  905SOL    HW2 2715   2.273   0.417   1.018 -2.2244 -1.5597  0.7962
  906SOL     OW 2716   2.664   2.300   1.362 -0.5100 -0.2947  0.5819
  906SOL    HW1 2717   2.637   2.202   1.365 -0.6730  1.7663  1.2484
  906SOL    HW2 2718   2.589   2.351   1.318 -0.6888 -0.6660  0.5537
  907SOL     OW 2719   1.123   0.496   0.174  0.0695  0.0778  0.5480
  907SOL    HW1 2720   1.189   0.556   0.129  0.3940 -4.3118 -1.8897
  907SOL    HW2 2721   1.176   0.448   0.244  1.6014  2.1005  1.7144
  908SOL     OW 2722   2.276   2.834   1.444 -0.0078 -0.6272  0.0181
  908SOL    HW1 2723   2.357   2.817   1.506  1.2266  1.3695 -1.2652
  908SOL    HW2 2724   2.311   2.864   1.350  0.1616  0.3047 -1.8159
  909SOL     OW 2725   2.933   0.999   1.614  0.1438  0.1547 -0.1827
  909SOL    HW1 2726   2.957   0.965   1.518 -0.9115 -1.6741  0.5755
  909SOL    HW2 2727   2.897   0.920   1.675 -2.7612  0.9280  1.3507
  910SOL     OW 2728   1.421   2.741   2.113  0.0337  0.7096 -0.1900
  910SOL    HW1 2729   1.489   2.674   2.084 -2.2727  1.8814 -0.4617
  910SOL    HW2 2730   1.392   2.798   2.035  0.8386 -2.0443  2.4965
  911SOL     OW 2731   2.393   0.412   2.179 -0.1675  0.5452  0.4058
  911SOL    HW1 2732   2.412   0.503   2.148 -0.0569 -2.8950  0.2389
  911SOL    HW2 2733   2.327   0.412   2.251 -0.3326 -1.3751  0.8609
  912SOL     OW 2734   2.658   1.149   1.491  0.3284 -0.2975 -0.0485
  912SOL    HW1 2735   2.688   1.246   1.479  0.1429 -0.4975 -1.0455
  912SOL    HW2 2736   2.685   1.090   1.411  1.9445  1.0434 -3.2753
  913SOL     OW 2737   2.521   2.053   1.356  0.1533 -0.0708 -0.0094
  913SOL    HW1 2738   2.549   1.956   1.367 -1.2711  2.4292 -1.8694
  913SOL    HW2 2739   2.417   2.068   1.351 -0.8360  1.4600 -1.0077
  914SOL     OW 2740   1.977   1.251   1.478  0.2762  0.6336  0.4660
  914SOL    HW1 2741   2.056   1.192   1.449  0.7141 -2.3948 -0.7945
  914SOL    HW2 2742   1.894   1.192   1.500  0.7331 -0.0559  0.6984
  915SOL     OW 2743   1.026   0.905   1.633 -0.0741 -0.1802 -0.3267
  915SOL    HW1 2744   1.100   0.831   1.647  1.8712 -1.0403  0.5605
  915SOL    HW2 2745   1.004   0.914   1.533 -1.3414 -0.3500  2.0941
  916SOL     OW 2746   2.532   2.791   1.552  0.4952  0.1370  0.4156
  916SOL    HW1 2747   2.523   2.691   1.569  0.4225  0.0348  0.9059
  916SOL    HW2 2748   2.582   2.838   1.628 -1.0113  1.2979 -0.8423
  917SOL     OW 2749   2.496   2.161   0.325  0.3604  0.3501 -0.1558
  917SOL    HW1 2750   2.438   2.205   0.252  0.7639 -0.6201 -2.1211
  917SOL    HW2 2751   2.548   2.226   0.382 -4.0281  0.4370 -0.5702
  918SOL     OW 2752   1.952   2.646   2.609 -0.5845  0.0905  0.1696
  918SOL    HW1 2753   1.877   2.711   2.613 -1.5818  1.6225  2.0130
  918SOL    HW2 2754   2.030   2.685   2.667  0.4711 -0.7890  0.5158
  919SOL     OW 2755   1.581   2.141   1.568  0.0893 -0.0166 -0.1746
  919SOL    HW1 2756   1.531   2.139   1.656  0.8271  2.3865  0.1732
  919SOL    HW2 2757   1.529   2.096   1.492  1.4951 -0.2520 -0.2858
  920SOL     OW 2758   2.556   0.102   2.740 -0.0548  0.2014 -0.2109
  920SOL    HW1 2759   2.523   0.006   2.708 -1.9486 -1.7482 -0.7940
  920SOL    HW2 2760   2.542   0.112   2.840 -0.2774 -0.7718 -0.8780
  921SOL     OW 2761   2.903   0.514   1.863 -0.1785  0.7598 -0.3199
  921SOL    HW1 2762   2.999   0.477   1.864 -0.2172  0.9051 -1.4228
  921SOL    HW2 2763   2.839   0.457   1.917  0.5262  0.0519 -0.2351
  922SOL     OW 2764   2.008   2.107   0.541 -0.3210 -0.0728 -0.2449
  922SOL    HW1 2765   2.075   2.068   0.479 -2.1098 -1.7886  1.5967
  922SOL    HW2 2766   2.020   2.072   0.637 -0.5819  1.4538 -1.4789
  923SOL     OW 2767   0.380   2.067   3.013 -0.0809 -0.0312  0.0720
  923SOL    HW1 2768   0.439   1.983   2.998  1.6323 -0.3985 -1.0482
  923SOL    HW2 2769   0.419   2.145   2.963  1.5838  0.5335 -2.0239
  924SOL     OW 2770   0.882   0.186   0.250  0.6118 -0.3805  0.1980
  924SOL    HW1 2771   0.781   0.199   0.271 -0.7273  1.9423  0.7129
  924SOL    HW2 2772   0.916   0.261   0.188  0.1259 -0.9923  1.1207
  925SOL     OW 2773   2.528   1.082   0.882  0.3090  0.0380  0.0971
  925SOL    HW1 2774   2.426   1.077   0.900 -2.1821  2.4162  1.1068
  925SOL    HW2 2775   2.556   1.038   0.791  0.9922 -0.5827  0.8588
  926SOL     OW 2776   0.020   0.955   0.999  0.2637  0.0625  0.0865
  926SOL    HW1 2777   3.037   0.876   0.983 -1.8490  1.2708 -1.1034
  926SOL    HW2 2778   0.118   0.924   0.992  1.0961 -4.1488 -4.0161
  927SOL     OW 2779   3.004   1.174   2.802  0.1848 -0.4347 -0.3878
  927SOL    HW1 2780   3.036   1.115   2.722  0.7947 -0.6470 -2.9673
  927SOL    HW2 2781   3.068   1.253   2.806 -0.7138 -2.9203 -1.4575
  928SOL     OW 2782   2.898   0.426   2.291 -0.0944  0.7493  0.4777
  928SOL    HW1 2783   2.908   0.366   2.211  0.1234 -0.2735  2.7630
  928SOL    HW2 2784   2.805   0.443   2.318  3.6408 -0.4011  0.8353
  929SOL     OW 2785   2.879   2.763   1.195 -0.2356  0.5225  0.7828
  929SOL    HW1 2786   2.877   2.807   1.103 -1.1790 -1.5559  0.0591
  929SOL    HW2 2787   2.884   2.660   1.193  4.8814 -4.3996  0.9314
  930SOL     OW 2788   1.972   1.446   1.683  0.0365 -0.0044 -0.0684
  930SOL    HW1 2789   1.985   1.544   1.647  0.6743  1.9444 -1.8811
  930SOL    HW2 2790   1.946   1.384   1.606  0.4494  0.6506 -1.7831
  931SOL     OW 2791   1.625   1.448   0.502 -0.2748 -0.4358 -0.2442
  931SOL    HW1 2792   1.699   1.485   0.445 -3.1665 -1.2673  2.1685
  931SOL    HW2 2793   1.553   1.520   0.521 -3.2233 -1.2350 -0.8678
  932SOL     OW 2794   2.761   1.357   0.852  0.2807 -0.0948 -0.4908
  932SOL    HW1 2795   2.755   1.258   0.871 -1.2673 -1.0184  3.0188
  932SOL    HW2 2796   2.799   1.407   0.929 -1.0035 -1.2423  0.1971
  933SOL     OW 2797   2.341   1.504   1.235  0.1854  0.3143 -0.0120
  933SOL    HW1 2798   2.280   1.438   1.189  0.3997 -1.3797 -0.0258
  933SOL    HW2 2799   2.291   1.583   1.273  0.6549 -0.9612  0.5261
  934SOL     OW 2800   1.648   2.869   1.627 -0.2706 -0.6287 -0.0785
  934SOL    HW1 2801   1.605   2.939   1.688  0.7543 -1.3478  0.5364
  934SOL    HW2 2802   1.587   2.791   1.594 -6.0912 -1.0283 -0.8785
  935SOL     OW 2803   0.043   1.650   0.937 -0.2989 -0.3176 -0.2185
  935SOL    HW1 2804   0.042   1.638   0.836  0.4632  1.1330  2.1166
  935SOL    HW2 2805   0.139   1.665   0.971  0.4324  2.6818  2.1631
  936SOL     OW 2806   0.244   1.000   0.472  0.3692  0.1912 -0.4016
  936SOL    HW1 2807   0.175   1.051   0.420 -2.8006 -0.9699  0.2715
  936SOL    HW2 2808   0.336   0.995   0.420  1.8873 -0.2985  1.2013
  937SOL     OW 2809   2.162   2.868   1.146 -0.2001 -0.1629  0.6887
  937SOL    HW1 2810   2.073   2.830   1.174  2.0259  2.6373  1.0536
  937SOL    HW2 2811   2.157   2.902   1.049  1.4501 -0.9138 -0.4684
  938SOL     OW 2812   2.737   2.210   0.968 -0.2263  0.2640  0.4497
  938SOL    HW1 2813   2.748   2.145   1.045  0.2916  0.4992 -4.1223
  938SOL    HW2 2814   2.662   2.275   0.981 -1.2320  0.3872  0.4878
  939SOL     OW 2815   0.894   2.018   0.486  0.0644 -0.3076 -0.4242
  939SOL    HW1 2816   0.843   2.006   0.570  0.1307  3.3567  0.4315
  939SOL    HW2 2817   0.994   2.028   0.513  0.1890  0.0040  1.5285
  940SOL     OW 2818   2.896   0.007   0.092  0.5269  0.2396  0.0818
  940SOL    HW1 2819   2.927   0.043   0.005 -2.4540 -2.2894 -2.1004
  940SOL    HW2 2820   2.946   2.999   0.115  1.9282  0.5151  0.3053
  941SOL     OW 2821   1.045   0.055   2.988 -0.2273  0.3463  0.2878
  941SOL    HW1 2822   1.135   0.024   2.950 -2.1821  1.8454 -1.4818
  941SOL    HW2 2823   1.048   0.147   3.034 -1.6289 -1.2094 -3.1918
  942SOL     OW 2824   1.203   1.394   1.125  0.0157  0.5112 -0.0425
  942SOL    HW1 2825   1.300   1.431   1.098  2.1514  1.7661  0.0489
  942SOL    HW2 2826   1.197   1.295   1.112 -1.0676  2.0034 -0.5332
  943SOL     OW 2827   1.749   1.077   1.530 -0.0080 -0.2202  0.1641
  943SOL    HW1 2828   1.748   1.035   1.621  1.1757  1.9311 -1.8444
  943SOL    HW2 2829   1.779   1.010   1.457  0.2212  1.0401  2.4433
  944SOL     OW 2830   1.532   0.632   1.927  0.0619 -0.6015  0.3901
  944SOL    HW1 2831   1.510   0.711   1.867 -0.9601  1.8789  3.0078
  944SOL    HW2 2832   1.634   0.640   1.956  2.4326 -0.6640  2.5734
  945SOL     OW 2833   2.975   2.943   0.421  0.0698  0.0577 -0.5393
  945SOL    HW1 2834   2.981   3.041   0.440  0.1107  0.0486  1.7112
  945SOL    HW2 2835   3.012   2.925   0.323  3.6130  0.8975  1.9466
  946SOL     OW 2836   0.245   0.310   1.337 -0.0277 -0.4254 -0.3032
  946SOL    HW1 2837   0.258   0.391   1.285  1.3789 -1.0026  1.5426
  946SOL    HW2 2838   0.150   0.284   1.333 -0.9870 -0.1669  0.3775
  947SOL     OW 2839   0.591   2.867   0.250  0.0334 -0.4116  0.7687
  947SOL    HW1 2840   0.521   2.835   0.182 -0.3614  0.3514  0.1386
  947SOL    HW2 2841   0.631   2.950   0.207  1.3475 -2.0961 -1.8001
  948SOL     OW 2842   2.553   1.164   1.976  0.7770  0.0786  0.7469
  948SOL    HW1 2843   2.469   1.223   1.958 -0.7671 -0.1353  1.6346
  948SOL    HW2 2844   2.602   1.197   2.061 -0.0500 -1.3234  3.7499
  949SOL     OW 2845   0.499   0.826   2.780 -0.1647  0.4671 -0.2203
  949SOL    HW1 2846   0.520   0.756   2.853  1.0780 -2.4611 -1.6264
  949SOL    HW2 2847   0.525   0.794   2.684 -0.0634 -1.5425 -1.5322
  950SOL     OW 2848   0.901   0.407   0.745  0.2705  0.1863  0.1793
  950SOL    HW1 2849   0.852   0.327   0.709  2.0747 -0.8183 -0.3830
  950SOL    HW2 2850   0.995   0.388   0.778  1.2147  1.1841 -0.0968
  951SOL     OW 2851   1.021   1.913   2.054 -0.6563 -0.0920  0.0070
  951SOL    HW1 2852   1.108   1.960   2.073  1.5363  0.7393 -0.7042
  951SOL    HW2 2853   0.944   1.977   2.075 -1.9494 -0.4205  0.3982
  952SOL     OW 2854   0.912   1.582   0.155 -0.2869  0.4821  0.0027
  952SOL    HW1 2855   0.908   1.481   0.169 -0.6199  1.7260  0.3004
  952SOL    HW2 2856   0.831   1.625   0.194  0.3970  0.5167 -1.5877
  953SOL     OW 2857   2.116   2.879   2.344  1.0103  0.5560 -0.1464
  953SOL    HW1 2858   2.078   2.810   2.281 -0.6126 -2.5201  0.7521
  953SOL    HW2 2859   2.123   2.966   2.292 -1.3851 -1.7612  2.4019
  954SOL     OW 2860   1.651   1.252   0.701 -0.1769 -0.1303 -0.3863
  954SOL    HW1 2861   1.595   1.190   0.647  0.5562  0.2308  0.5138
  954SOL    HW2 2862   1.651   1.341   0.653  0.9027  0.6622 -0.8590
  955SOL     OW 2863   0.356   2.266   2.267 -0.1158  0.0396 -0.7047
  955SOL    HW1 2864   0.426   2.264   2.196  1.9315 -0.6024  0.0716
  955SOL    HW2 2865   0.323   2.360   2.285 -0.2290 -0.2713  2.3384
  956SOL     OW 2866   1.828   0.251   1.650  0.0957 -0.9252  0.5069
  956SOL    HW1 2867   1.834   0.351   1.664 -0.2888  3.3365  1.0128
  956SOL    HW2 2868   1.835   0.197   1.736  1.8485 -0.9547  1.9090
  957SOL     OW 2869   1.710   2.034   2.833 -0.2058 -0.3986  0.2226
  957SOL    HW1 2870   1.626   2.028   2.775  1.3760 -1.0284  0.6140
  957SOL    HW2 2871   1.682   2.053   2.928  0.8635 -1.2231 -2.0067
  958SOL     OW 2872   1.168   2.246   1.717  0.7533 -0.6695  0.0561
  958SOL    HW1 2873   1.129   2.249   1.814 -2.3619 -1.7114  2.4881
  958SOL    HW2 2874   1.253   2.189   1.713 -2.9263 -0.2968 -0.1371
  959SOL     OW 2875   2.029   2.094   2.942  0.0229  0.0054  0.0223
  959SOL    HW1 2876   2.040   2.123   3.039 -1.5139  0.3857  0.7814
  959SOL    HW2 2877   1.980   2.160   2.879  2.1579  0.6402 -0.0024
  960SOL     OW 2878   2.805   0.165   2.663 -0.1350 -0.0527 -0.1497
  960SOL    HW1 2879   2.854   0.093   2.607  1.2277 -3.0196  0.5662
  960SOL    HW2 2880   2.711   0.132   2.692 -2.0301 -1.1377  1.0624
  961SOL     OW 2881   0.841   0.919   2.852 -0.2481 -0.3730  0.3504
  961SOL    HW1 2882   0.887   1.006   2.866  1.2481 -0.9108 -0.7756
  961SOL    HW2 2883   0.807   0.914   2.754 -2.5352  2.0649 -0.7075
  962SOL     OW 2884   1.255   1.214   2.776 -0.5818  0.2964  0.2598
  962SOL    HW1 2885   1.252   1.118   2.744  0.3405 -1.1778  1.0121
  962SOL    HW2 2886   1.350   1.259   2.768 -0.0678  0.2552 -0.6016
  963SOL     OW 2887   2.331   2.243   0.127 -0.4067 -0.2030  0.3208
  963SOL    HW1 2888   2.360   2.242   0.030  0.5912 -0.3784 -1.0296
  963SOL    HW2 2889   2.348   2.336   0.167  2.9738 -2.4410  0.0045
  964SOL     OW 2890   1.250   2.499   1.115 -0.0468  0.1795 -0.1948
  964SOL    HW1 2891   1.157   2.515   1.094  0.5885  0.2997 -0.0515
  964SOL    HW2 2892   1.248   2.425   1.179 -2.4548  1.8350 -2.0008
  965SOL     OW 2893   1.251   1.402   0.673 -0.0767  0.1426 -0.4193
  965SOL    HW1 2894   1.304   1.474   0.619 -0.7065  1.7985 -1.7051
  965SOL    HW2 2895   1.173   1.450   0.717  0.8295  1.2282  0.0253
  966SOL     OW 2896   0.240   1.470   3.049  0.5722  0.4943 -0.2108
  966SOL    HW1 2897   0.274   1.551   2.994  1.7005  1.6658 -3.2264
  966SOL    HW2 2898   0.223   1.491   0.070  0.9067 -1.2177  1.8964
  967SOL     OW 2899   1.880   0.133   1.924 -0.3561 -0.1650 -0.1526
  967SOL    HW1 2900   1.937   0.189   1.988  0.9914 -1.5177 -0.0712
  967SOL    HW2 2901   1.942   0.075   1.870  0.0742  3.3511  1.3051
  968SOL     OW 2902   1.545   1.040   0.577  0.3953 -0.1635 -0.0638
  968SOL    HW1 2903   1.457   1.077   0.544 -0.1938 -0.6767  0.3564
  968SOL    HW2 2904   1.562   0.948   0.544 -0.8807  2.5765 -1.9114
  969SOL     OW 2905   0.192   1.336   2.384 -0.4658 -0.1611  0.3108
  969SOL    HW1 2906   0.118   1.316   2.324  2.5785 -0.2872  2.6953
  969SOL    HW2 2907   0.264   1.382   2.329  1.5774 -3.1249 -0.3148
  970SOL     OW 2908   2.163   1.380   1.087  0.0064 -0.2893  0.3135
  970SOL    HW1 2909   2.074   1.332   1.097 -1.2332 -0.1738 -4.3949
  970SOL    HW2 2910   2.196   1.374   0.991 -0.6609 -1.3389  2.0347
  971SOL     OW 2911   0.481   3.002   1.230 -0.6296 -0.2505  0.0001
  971SOL    HW1 2912   0.482   0.021   1.262  0.6171  0.4621  0.7492
  971SOL    HW2 2913   0.412   2.977   1.160  1.2254 -0.4786  1.0029
  972SOL     OW 2914   0.230   0.767   2.719 -0.2383 -0.2471  0.1394
  972SOL    HW1 2915   0.190   0.747   2.808 -0.8015  1.6843  0.8987
  972SOL    HW2 2916   0.321   0.802   2.732 -1.4294 -1.2362 -1.4057
  973SOL     OW 2917   0.242   0.811   1.049  0.6783 -0.0557 -0.3136
  973SOL    HW1 2918   0.201   0.823   1.140  0.3251  1.2196 -0.3343
  973SOL    HW2 2919   0.231   0.713   1.021  1.5356 -0.8076  1.4891
  974SOL     OW 2920   2.177   0.602   1.871 -0.4475  0.8601  0.4093
  974SOL    HW1 2921   2.167   0.687   1.816 -0.6904 -1.6282  1.8237
  974SOL    HW2 2922   2.237   0.616   1.952 -0.7241  0.0256  2.7838
  975SOL     OW 2923   2.640   0.093   0.399 -0.4063 -0.0205 -0.5337
  975SOL    HW1 2924   2.589   0.044   0.467  0.2835  0.3491 -5.4947
  975SOL    HW2 2925   2.691   0.176   0.436  0.9507 -1.0721 -2.1727
  976SOL     OW 2926   0.134   1.320   1.604 -0.0734  0.0878 -0.2906
  976SOL    HW1 2927   0.212   1.381   1.623  0.0197 -1.5210 -0.4726
  976SOL    HW2 2928   0.167   1.222   1.623  0.3253 -1.2283  2.0520
  977SOL     OW 2929   1.176   2.659   0.008 -0.2043  0.1451  0.9342
  977SOL    HW1 2930   1.244   2.702   0.064 -2.7022 -1.3099  0.2182
  977SOL    HW2 2931   1.171   2.559   0.031 -2.1766 -0.2385  0.7613
  978SOL     OW 2932   0.496   1.338   0.307  0.4343  0.3175  0.3862
  978SOL    HW1 2933   0.574   1.383   0.356  1.3046  0.8709 -0.9094
  978SOL    HW2 2934   0.409   1.365   0.347  0.0656 -0.8390 -2.6052
  979SOL     OW 2935   1.603   1.779   1.312 -0.3569 -0.5462 -0.3058
  979SOL    HW1 2936   1.562   1.808   1.396  1.1468  2.2787  1.2354
  979SOL    HW2 2937   1.676   1.705   1.328 -0.8277 -1.5926 -1.4409
  980SOL     OW 2938   0.560   1.471   1.757 -0.2094  0.1801 -0.5322
  980SOL    HW1 2939   0.562   1.390   1.820  0.5359  0.1856 -3.1396
  980SOL    HW2 2940   0.475   1.466   1.701  2.3602 -1.2911 -1.8529
  981SOL     OW 2941   0.160   1.538   0.233 -0.5814  0.4803 -0.4775
  981SOL    HW1 2942   0.192   1.460   0.294 -1.2323  0.6263  1.8840
  981SOL    HW2 2943   0.061   1.547   0.242  0.3568 -1.1826 -1.3406
  982SOL     OW 2944   2.223   2.682   1.952 -0.2584 -0.5969  0.3011
  982SOL    HW1 2945   2.284   2.610   1.916 -2.8119  1.1357  2.5330
  982SOL    HW2 2946   2.276   2.766   1.979  0.6965 -1.8634 -1.4863
  983SOL     OW 2947   1.270   0.487   1.135  0.4401 -0.1588  0.1245
  983SOL    HW1 2948   1.274   0.548   1.051 -2.4191  0.0262 -0.7229
  983SOL    HW2 2949   1.306   0.395   1.129  3.4730  2.2118  2.9451
  984SOL     OW 2950   1.148   2.959   2.598 -0.0014 -0.1489  0.1084
  984SOL    HW1 2951   1.197   2.986   2.682 -1.3000 -0.1277  1.3489
  984SOL    HW2 2952   1.114   3.039   2.541 -0.6767  1.2783 -0.2862
  985SOL     OW 2953   1.855   2.056   1.568 -0.4661 -0.0223 -0.3956
  985SOL    HW1 2954   1.760   2.088   1.570  0.9119  0.9941 -1.2215
  985SOL    HW2 2955   1.915   2.139   1.564 -2.2741  1.8023 -0.0552
  986SOL     OW 2956   2.518   0.216   2.497 -0.0324 -0.2020  0.0159
  986SOL    HW1 2957   2.553   0.182   2.587 -0.4682 -1.7056 -1.5193
  986SOL    HW2 2958   2.475   0.311   2.503 -1.6443 -0.1259 -0.5132
  987SOL     OW 2959   2.756   0.737   2.074  0.2307 -0.8741  0.4564
  987SOL    HW1 2960   2.844   0.723   2.124 -2.2776  1.3487  3.0622
  987SOL    HW2 2961   2.690   0.793   2.125 -0.8178 -0.9220  2.4047
  988SOL     OW 2962   2.346   0.799   2.675  0.0072 -0.4306 -0.4430
  988SOL    HW1 2963   2.292   0.718   2.684  1.3974  0.5857 -0.0829
  988SOL    HW2 2964   2.297   0.868   2.609 -1.1095  1.7135  0.2327
  989SOL     OW 2965   2.343   1.754   2.056 -0.2679 -0.0457  0.2723
  989SOL    HW1 2966   2.377   1.776   2.152 -1.4430 -0.3147  0.3508
  989SOL    HW2 2967   2.402   1.804   1.989  2.2481  0.6817  0.3462
  990SOL     OW 2968   0.321   1.250   2.800 -0.0187 -0.1528  0.7419
  990SOL    HW1 2969   0.223   1.279   2.815  0.1175  2.0364 -1.4469
  990SOL    HW2 2970   0.387   1.325   2.832 -1.4499  2.3111 -0.6756
  991SOL     OW 2971   0.412   1.922   2.709 -0.1216 -0.6702  0.3525
  991SOL    HW1 2972   0.368   1.829   2.693 -1.1158 -2.2221 -0.7169
  991SOL    HW2 2973   0.342   1.995   2.692 -1.9720  1.4259 -0.3754
  992SOL     OW 2974   2.514   1.913   1.924  0.5043  0.3779 -0.1225
  992SOL    HW1 2975   2.488   1.997   1.877 -1.3408 -3.7665  2.4151
  992SOL    HW2 2976   2.593   1.918   1.993  2.5571 -0.5963 -0.6746
  993SOL     OW 2977   0.245   2.964   0.625  0.2150 -0.5034 -0.2374
  993SOL    HW1 2978   0.328   2.928   0.665 -0.7536  2.5089  1.6788
  993SOL    HW2 2979   0.175   2.893   0.618 -1.9467  1.4852  0.1174
  994SOL     OW 2980   0.270   1.754   1.649 -0.3071 -0.0594  0.3288
  994SOL    HW1 2981   0.266   1.849   1.604 -0.8609 -0.1992  1.4414
  994SOL    HW2 2982   0.308   1.756   1.743  0.3773  2.2070  0.0754
  995SOL     OW 2983   1.963   1.681   2.815  0.4759 -0.6180  0.3440
  995SOL    HW1 2984   1.886   1.683   2.878  4.2429 -0.7728 -0.1246
  995SOL    HW2 2985   2.041   1.735   2.862  1.9620  0.8454  3.5026
  996SOL     OW 2986   2.061   1.112   2.656 -0.4411 -0.1799  0.6399
  996SOL    HW1 2987   2.102   1.106   2.750  0.9919 -1.7876  0.9992
  996SOL    HW2 2988   2.028   1.206   2.633 -1.6617  1.1054 -0.5624
  997SOL     OW 2989   1.468   0.833   1.741 -0.3265  0.2239  0.4698
  997SOL    HW1 2990   1.427   0.924   1.730  1.0169 -0.9586  0.5751
  997SOL    HW2 2991   1.476   0.784   1.651 -0.6679 -0.7417 -0.7080
  998SOL     OW 2992   2.307   2.130   1.011  0.2601  0.2315 -0.0227
  998SOL    HW1 2993   2.397   2.177   1.019 -0.6810  1.7073  0.8177
  998SOL    HW2 2994   2.309   2.040   1.064 -0.9515 -0.4085  0.1077
  999SOL     OW 2995   2.281   2.373   0.715 -0.1317 -0.0532 -0.1191
  999SOL    HW1 2996   2.187   2.360   0.675 -1.2826  0.2374 -0.6470
  999SOL    HW2 2997   2.322   2.462   0.691  2.3350 -0.5119 -0.1959
 1000SOL     OW 2998   0.804   3.066   2.867 -0.0878 -0.2958  0.0781
 1000SOL    HW1 2999   0.746   0.070   2.876  2.1075 -0.5360 -1.7034
 1000SOL    HW2 3000   0.882   3.062   2.940  1.3942 -2.2435  0.0353
   3.07811   3.07811   3.07811
