1000 SPC/Fw water molecules t= 348.00000 step= 348000
 3000
    1SOL     OW    1   2.478   0.131   1.399  0.4929 -0.3631 -0.2086
    1SOL    HW1    2   2.417   0.193   1.452 -0.3598 -2.2923  1.2900
    1SOL    HW2    3   2.463   0.035   1.429 -1.0893  0.8080 -2.0122
    2SOL     OW    4   2.761   2.406   1.087 -0.1645  0.2364 -0.1959
    2SOL    HW1    5   2.678   2.462   1.108 -1.2679  0.4649  2.2213
    2SOL    HW2    6   2.728   2.328   1.035  0.8752  0.6453 -0.4497
    3SOL     OW    7   1.353   2.915   2.831  0.0274 -0.6965  0.6654
    3SOL    HW1    8   1.380   3.012   2.815  0.7457 -2.1929 -1.1227
    3SOL    HW2    9   1.268   2.921   2.890  1.5943 -0.1346  0.3306
    4SOL     OW   10   1.747   2.524   2.544 -0.1623  0.2578  0.2753
    4SOL    HW1   11   1.785   2.579   2.471  0.2610 -1.3307  0.7920
    4SOL    HW2   12   1.807   2.542   2.627 -0.5018 -3.1141  0.1071
    5SOL     OW   13   1.663   0.614   1.913 -0.4786  0.0282 -0.5294
    5SOL    HW1   14   1.749   0.597   1.962 -0.4152  1.4279 -0.7217
    5SOL    HW2   15   1.651   0.708   1.885  0.6166 -1.5812  1.8360
    6SOL     OW   16   2.254   2.729   0.555 -0.0572 -0.3026  0.2437
    6SOL    HW1   17   2.189   2.760   0.482 -0.3145 -3.6921  0.1272
    6SOL    HW2   18   2.239   2.780   0.641  0.1243 -0.1015 -0.1878
    7SOL     OW   19   1.723   1.260   1.131  0.3249 -0.0063 -0.2460
    7SOL    HW1   20   1.762   1.328   1.194 -2.4162 -0.4284 -1.0557
    7SOL    HW2   21   1.639   1.287   1.087 -0.7859 -0.6657  1.4162
    8SOL     OW   22   0.710   1.935   1.270 -0.3138 -0.6275  0.0650
    8SOL    HW1   23   0.665   1.844   1.294 -2.4030 -1.5380  0.7188
    8SOL    HW2   24   0.810   1.928   1.276 -0.0928  0.8660  2.1738
    9SOL     OW   25   1.187   2.295   1.929  0.0481 -0.7083  0.6567
    9SOL    HW1   26   1.101   2.350   1.930 -0.7067  0.4350  0.2616
    9SOL    HW2   27   1.174   2.208   1.875  0.4123  0.9413  0.1444
   10SOL     OW   28   0.574   2.171   0.689  0.1431 -0.2433 -0.0836
   10SOL    HW1   29   0.607   2.187   0.786  1.3333  1.6988 -1.2448
   10SOL    HW2   30   0.621   2.236   0.627 -3.5468  0.1584  1.9841
   11SOL     OW   31   1.340   2.256   1.577 -0.2995 -0.0135  0.2414
   11SOL    HW1   32   1.376   2.316   1.498  1.9014  1.8361 -3.3119
   11SOL    HW2   33   1.344   2.154   1.554 -0.3125  0.7337  0.6854
   12SOL     OW   34   2.531   0.494   2.390  0.1143  0.3076 -0.6566
   12SOL    HW1   35   2.541   0.393   2.413  0.6623 -1.4536 -2.0744
   12SOL    HW2   36   2.458   0.508   2.324  1.5756  1.7841  3.0709
   13SOL     OW   37   2.796   2.926   0.686  0.5116  0.5745  0.0730
   13SOL    HW1   38   2.824   2.893   0.780  1.2345 -2.7107  0.4006
   13SOL    HW2   39   2.855   3.004   0.657 -1.3807 -0.1841  2.3272
   14SOL     OW   40   1.466   1.520   2.715  0.3979 -0.3693 -0.4216
   14SOL    HW1   41   1.556   1.473   2.702  1.5053 -1.8070 -4.8465
   14SOL    HW2   42   1.453   1.552   2.807 -3.7965 -3.1224 -3.5830
   15SOL     OW   43   2.555   2.777   1.475  0.4481 -0.1418  0.1937
   15SOL    HW1   44   2.628   2.770   1.547  1.8531  0.0539 -1.1065
   15SOL    HW2   45   2.537   2.682   1.437 -0.3180 -3.0527 -0.5322
   16SOL     OW   46   2.783   2.870   0.443 -0.0374  0.2553  0.3800
   16SOL    HW1   47   2.781   2.892   0.545 -0.8768 -2.0456 -0.4258
   16SOL    HW2   48   2.878   2.861   0.406 -0.8360  1.1819 -0.0801
   17SOL     OW   49   0.190   0.572   1.201 -0.4993 -0.0792 -0.0438
   17SOL    HW1   50   0.169   0.666   1.234 -0.2357 -1.5918  0.9154
   17SOL    HW2   51   0.283   0.537   1.225 -3.1104 -0.0319  1.9721
   18SOL     OW   52   2.084   0.339   0.294  0.2404  0.1605  0.6096
   18SOL    HW1   53   2.033   0.364   0.374  0.4173  0.5033 -1.8156
   18SOL    HW2   54   2.122   0.246   0.295 -1.0447 -0.2595  1.5510
   19SOL     OW   55   1.836   1.645   3.095  0.1939  0.5434  0.5279
   19SOL    HW1   56   1.786   1.731   3.116  1.5560  0.2134  1.1277
   19SOL    HW2   57   1.811   1.580   0.047 -2.2562 -2.5722  0.5466
   20SOL     OW   58   2.408   1.881   2.255  0.0382  0.1530  0.2122
   20SOL    HW1   59   2.459   1.836   2.179  0.4548  2.4816  0.4194
   20SOL    HW2   60   2.430   1.983   2.266  3.7602 -1.0890  1.6479
   21SOL     OW   61   1.776   3.031   0.575  0.0880  0.1230  0.1363
   21SOL    HW1   62   1.853   2.978   0.616 -1.8867  0.1324  1.5343
   21SOL    HW2   63   1.769   3.016   0.474 -1.4132 -1.6669 -1.4037
   22SOL     OW   64   2.797   0.510   1.883  0.0835  0.0185 -0.5347
   22SOL    HW1   65   2.777   0.527   1.789  2.4633  1.3461  0.6260
   22SOL    HW2   66   2.868   0.576   1.914 -0.8843  1.0867 -4.1105
   23SOL     OW   67   0.338   0.661   2.051 -0.1786 -0.8434  0.2483
   23SOL    HW1   68   0.289   0.651   2.138 -1.4955 -0.4473  1.6334
   23SOL    HW2   69   0.322   0.588   1.986 -2.7226 -0.8468 -1.5453
   24SOL     OW   70   2.824   2.569   0.480 -0.3047 -0.3414 -0.2060
   24SOL    HW1   71   2.916   2.586   0.521  1.2318 -0.8495  0.0770
   24SOL    HW2   72   2.788   2.668   0.465 -1.8023  4.2621 -0.4041
   25SOL     OW   73   1.033   2.682   2.727 -0.7523 -0.2885 -0.5892
   25SOL    HW1   74   0.981   2.707   2.811 -3.1087  0.4230  1.9718
   25SOL    HW2   75   1.040   2.764   2.664 -1.1768  1.7438 -0.0934
   26SOL     OW   76   1.224   2.756   0.284  0.1246 -0.0319  0.4898
   26SOL    HW1   77   1.198   2.658   0.285 -1.1884 -0.6727  0.1435
   26SOL    HW2   78   1.293   2.782   0.356  1.3042 -0.2815  1.8571
   27SOL     OW   79   2.248   0.802   0.219  0.3116 -0.1451 -0.6370
   27SOL    HW1   80   2.146   0.812   0.230 -1.0605 -1.0332  1.3428
   27SOL    HW2   81   2.299   0.862   0.282  3.6109 -1.1414  1.0616
   28SOL     OW   82   1.050   1.684   0.911 -0.4145 -0.2967  0.2434
   28SOL    HW1   83   1.009   1.594   0.889  0.3166 -3.5359  1.0547
   28SOL    HW2   84   1.156   1.686   0.906 -0.1400  1.1836  0.3766
   29SOL     OW   85   3.038   2.890   1.663 -0.6454  0.1981  0.0270
   29SOL    HW1   86   3.077   2.968   1.613  1.6981  0.4023  0.3895
   29SOL    HW2   87   2.950   2.862   1.623 -0.5161  0.6713  0.6074
   30SOL     OW   88   1.420   0.110   1.266 -0.1798 -0.3613 -0.0863
   30SOL    HW1   89   1.420   0.012   1.234  2.0840 -0.1681  1.3341
   30SOL    HW2   90   1.403   0.172   1.186  0.6949 -0.8736 -0.7527
   31SOL     OW   91   2.368   2.982   2.400 -0.1276  0.2345 -0.2238
   31SOL    HW1   92   2.337   2.926   2.478 -3.8970  0.5888  3.2096
   31SOL    HW2   93   2.295   2.968   2.322 -3.4259  0.6656  0.0131
   32SOL     OW   94   0.979   1.358   0.311  0.2641 -0.3384 -0.2238
   32SOL    HW1   95   0.937   1.434   0.254 -3.1353 -0.5053 -3.6068
   32SOL    HW2   96   0.933   1.356   0.401 -1.4323  0.8412  0.4068
   33SOL     OW   97   0.011   1.035   2.617 -0.4454  0.2485 -0.5450
   33SOL    HW1   98   3.077   0.959   2.573 -3.4539  1.4334  0.1763
   33SOL    HW2   99   0.101   1.036   2.569 -2.2875 -1.1592 -0.7633
   34SOL     OW  100   2.524   0.134   0.660 -0.1123  0.2830 -0.0255
   34SOL    HW1  101   2.496   0.045   0.699  2.3677  3.1224  0.3902
   34SOL    HW2  102   2.511   0.213   0.729 -1.2425  0.4655 -0.0415
   35SOL     OW  103   2.513   2.946   1.956  0.6268 -0.5509 -0.6254
   35SOL    HW1  104   2.448   2.877   1.992 -1.3167  1.1098  3.1978
   35SOL    HW2  105   2.571   2.972   2.032 -0.8560 -0.1846 -0.2207
   36SOL     OW  106   2.367   2.009   0.045  0.2548  0.6722  0.0708
   36SOL    HW1  107   2.388   2.059   3.082  0.3282  1.1919  0.2912
   36SOL    HW2  108   2.331   1.915   0.028 -0.2173  1.5850 -1.1736
   37SOL     OW  109   1.923   3.062   2.024  0.4236 -0.0124  0.6280
   37SOL    HW1  110   1.959   2.971   2.010  2.4472 -0.3563 -2.5473
   37SOL    HW2  111   1.827   3.070   1.987 -1.3362 -0.5623  0.4404
   38SOL     OW  112   0.287   0.473   2.984  0.1316 -0.0387  0.1151
   38SOL    HW1  113   0.369   0.406   2.982  3.0495  1.5419 -1.2459
   38SOL    HW2  114   0.281   0.514   3.076  0.7930 -0.2695 -0.7664
   39SOL     OW  115   1.896   1.282   1.550 -0.6269 -0.2948  0.2984
   39SOL    HW1  116   1.989   1.306   1.512  1.9257 -0.7241  0.0893
   39SOL    HW2  117   1.887   1.314   1.648  0.7495  1.6803  0.6236
   40SOL     OW  118   1.205   2.479   0.308 -0.1709 -0.8728  0.3270
   40SOL    HW1  119   1.117   2.436   0.281 -1.6558 -2.1160 -1.1388
   40SOL    HW2  120   1.277   2.455   0.242 -0.4357 -2.6216  1.7422
   41SOL     OW  121   2.030   1.326   0.818  0.0984 -0.3199 -0.0168
   41SOL    HW1  122   1.977   1.405   0.865 -1.8704  1.2166 -0.3855
   41SOL    HW2  123   2.082   1.361   0.738  2.5296  1.2862 -1.5192
   42SOL     OW  124   0.757   0.239   1.283  0.1156 -0.3232 -0.1542
   42SOL    HW1  125   0.768   0.278   1.192 -0.0193 -1.2701  0.9917
   42SOL    HW2  126   0.844   0.208   1.329  0.8397  2.4070  2.2894
   43SOL     OW  127   0.173   1.608   2.495  0.1673  0.2960 -0.3167
   43SOL    HW1  128   0.164   1.569   2.589 -1.6417 -1.8987  1.6223
   43SOL    HW2  129   0.267   1.645   2.484  1.0682  1.1147 -0.8448
   44SOL     OW  130   2.130   2.968   1.464  0.2818  0.2837 -0.2568
   44SOL    HW1  131   2.073   3.013   1.398 -0.2821  0.1620  2.9426
   44SOL    HW2  132   2.232   2.991   1.463  0.6801  1.2103 -1.5599
   45SOL     OW  133   1.119   0.006   2.326  0.4216 -0.0233  0.2395
   45SOL    HW1  134   1.213   3.090   2.324 -1.4693  0.0422  1.6114
   45SOL    HW2  135   1.044   3.060   2.319 -2.2837  1.7072  0.2952
   46SOL     OW  136   1.072   2.293   2.235  0.2782  0.6930 -0.0768
   46SOL    HW1  137   1.100   2.228   2.309 -2.3869  1.2727 -2.0069
   46SOL    HW2  138   1.030   2.372   2.280  0.3391  1.4694 -1.9371
   47SOL     OW  139   1.204   1.828   0.623 -0.3706  0.3989  0.4794
   47SOL    HW1  140   1.269   1.837   0.545 -2.1001  0.2860 -0.0811
   47SOL    HW2  141   1.253   1.780   0.696  1.6697 -0.1247 -0.9169
   48SOL     OW  142   1.238   2.503   0.872  0.0241 -0.4258  0.1772
   48SOL    HW1  143   1.203   2.516   0.775  1.5517 -0.3791 -1.1302
   48SOL    HW2  144   1.336   2.481   0.865 -2.5870  0.0682 -1.1688
   49SOL     OW  145   2.370   0.108   0.011  0.2270 -0.3581  0.2773
   49SOL    HW1  146   2.277   0.083   0.033 -0.0508  1.6934  0.7499
   49SOL    HW2  147   2.403   0.190   0.066 -2.0973 -1.6659 -0.6670
   50SOL     OW  148   1.533   0.104   0.138  0.3399 -0.0846 -0.1389
   50SOL    HW1  149   1.628   0.112   0.108 -2.1551  0.8398  0.4476
   50SOL    HW2  150   1.478   0.084   0.053 -0.2943  0.5445 -2.1597
   51SOL     OW  151   2.318   0.545   1.361  0.0961  0.2529 -0.3029
   51SOL    HW1  152   2.351   0.624   1.420  0.8154 -0.8529  0.3070
   51SOL    HW2  153   2.306   0.461   1.411 -1.6186  2.3316 -1.9304
   52SOL     OW  154   0.904   1.585   0.174 -0.5050  0.2327 -0.0355
   52SOL    HW1  155   0.881   1.671   0.221 -0.3089 -0.5433 -1.2303
   52SOL    HW2  156   0.952   1.602   0.082  3.3077 -3.0297 -2.4778
   53SOL     OW  157   0.124   1.474   2.739  0.0647  0.2011  0.4512
   53SOL    HW1  158   0.071   1.386   2.756 -1.1452  0.8297  0.5450
   53SOL    HW2  159   0.060   1.553   2.751 -0.7305  1.3365 -0.7198
   54SOL     OW  160   2.807   1.152   1.649 -0.3911 -1.1544  0.6936
   54SOL    HW1  161   2.808   1.052   1.665 -0.5151  1.9185 -0.7558
   54SOL    HW2  162   2.858   1.203   1.724  1.1217 -1.3340 -0.5101
   55SOL     OW  163   2.159   1.933   0.490  0.0976 -0.3802  0.6602
   55SOL    HW1  164   2.215   1.873   0.551 -1.2692  2.0325 -2.2156
   55SOL    HW2  165   2.078   1.971   0.544 -0.0655  1.4077  1.4893
   56SOL     OW  166   1.658   0.302   1.878  0.2836 -0.1058  0.3066
   56SOL    HW1  167   1.647   0.403   1.897  0.3630  2.4107  1.1476
   56SOL    HW2  168   1.594   0.267   1.800 -0.6909 -0.9621 -2.3254
   57SOL     OW  169   1.447   1.162   2.557  0.0502  0.3610  0.3020
   57SOL    HW1  170   1.484   1.233   2.496  0.4176 -0.2222 -0.4568
   57SOL    HW2  171   1.464   1.066   2.524 -1.6651 -0.2365 -1.4984
   58SOL     OW  172   3.071   0.798   1.330 -0.2354 -0.4021 -0.3246
   58SOL    HW1  173   3.063   0.772   1.429 -5.3227 -2.9257  0.0752
   58SOL    HW2  174   3.011   0.734   1.275 -0.6670  0.6189  1.3334
   59SOL     OW  175   1.539   2.857   0.018 -0.6025 -0.2563  0.1774
   59SOL    HW1  176   1.445   2.824   0.023 -1.2289 -0.1328 -0.8916
   59SOL    HW2  177   1.587   2.861   0.105 -0.0545  1.5625 -1.6330
   60SOL     OW  178   2.949   1.868   2.638 -0.5143  0.1563 -0.3500
   60SOL    HW1  179   2.931   1.959   2.601  0.4554  0.8339 -1.6059
   60SOL    HW2  180   2.864   1.814   2.644 -0.9489 -1.1621  0.4519
   61SOL     OW  181   0.782   2.655   0.841  0.1064  0.2124  0.3951
   61SOL    HW1  182   0.807   2.720   0.765  1.3022 -2.3358 -0.6544
   61SOL    HW2  183   0.826   2.669   0.931 -2.8793  0.1126 -0.9593
   62SOL     OW  184   1.717   1.422   2.611  0.1439 -0.2018  0.5645
   62SOL    HW1  185   1.649   1.402   2.531 -0.9622  2.4681 -2.4622
   62SOL    HW2  186   1.798   1.363   2.600  0.2132  1.3195 -2.7473
   63SOL     OW  187   2.404   1.898   0.338 -0.4351  0.5659  0.3074
   63SOL    HW1  188   2.398   1.939   0.242 -2.5530 -0.3444 -0.9026
   63SOL    HW2  189   2.314   1.898   0.391 -1.0071 -0.3138  2.6228
   64SOL     OW  190   1.735   0.916   2.994  0.6950 -0.1802 -0.2356
   64SOL    HW1  191   1.709   0.841   2.930  0.3155  2.0162  2.2498
   64SOL    HW2  192   1.739   1.006   2.944 -1.6520  1.1173 -0.3727
   65SOL     OW  193   2.134   1.885   2.193  0.0540  0.3186 -0.1561
   65SOL    HW1  194   2.230   1.890   2.223 -0.7757 -0.6314 -1.7161
   65SOL    HW2  195   2.116   1.813   2.119 -3.0499 -1.4140  1.1205
   66SOL     OW  196   0.474   0.920   1.382  0.4248 -0.3715 -0.8480
   66SOL    HW1  197   0.398   0.938   1.451 -0.4510 -0.9142  1.7904
   66SOL    HW2  198   0.523   1.002   1.354  1.8059 -2.0250 -0.1853
   67SOL     OW  199   2.167   3.095   2.734 -0.1184  0.6212 -0.3297
   67SOL    HW1  200   2.164   0.058   2.685  2.8659  0.0413  0.0658
   67SOL    HW2  201   2.112   3.031   2.679 -0.4227  0.3891  1.1288
   68SOL     OW  202   1.058   2.559   1.526  0.5984 -0.0983 -0.7053
   68SOL    HW1  203   1.138   2.591   1.467 -1.6116 -1.7833  1.1198
   68SOL    HW2  204   1.057   2.460   1.533 -1.8932  1.1240 -0.4883
   69SOL     OW  205   0.831   2.559   0.029  0.5109 -0.3034 -0.2959
   69SOL    HW1  206   0.781   2.635   0.076 -0.6499 -1.0299  1.0554
   69SOL    HW2  207   0.871   2.493   0.094  0.1383  1.9073 -0.6061
   70SOL     OW  208   0.215   0.628   2.285 -0.3900 -0.0472 -0.0484
   70SOL    HW1  209   0.123   0.664   2.284  3.5333 -1.7983 -0.6324
   70SOL    HW2  210   0.274   0.660   2.367  3.4184  1.5774  2.0642
   71SOL     OW  211   0.471   1.395   2.772 -0.0463  0.3284  0.1672
   71SOL    HW1  212   0.571   1.398   2.750  2.9688 -1.4649 -0.8251
   71SOL    HW2  213   0.419   1.384   2.687  0.5647 -1.4616 -0.3457
   72SOL     OW  214   2.986   1.510   2.324  0.1150 -0.3221  0.2440
   72SOL    HW1  215   3.089   1.516   2.297 -0.7852 -0.8796 -0.1741
   72SOL    HW2  216   2.933   1.561   2.255  1.9665  3.8670 -0.8468
   73SOL     OW  217   1.591   1.436   0.536 -0.0746 -0.2817  0.2046
   73SOL    HW1  218   1.689   1.462   0.542  1.8096 -2.1071 -1.3513
   73SOL    HW2  219   1.578   1.335   0.548 -2.5858 -0.6216  0.8296
   74SOL     OW  220   2.552   2.640   2.660 -0.4938 -0.4434  0.5176
   74SOL    HW1  221   2.553   2.731   2.609 -3.7215  0.0011 -2.6469
   74SOL    HW2  222   2.460   2.637   2.697 -0.6355  0.9236 -0.1504
   75SOL     OW  223   1.975   2.306   0.981 -0.1053  0.0107 -0.2336
   75SOL    HW1  224   1.978   2.343   1.076 -0.8746 -0.2643 -0.8720
   75SOL    HW2  225   2.022   2.215   0.982  0.7401 -0.3118 -0.4983
   76SOL     OW  226   2.843   2.162   2.065  0.9514  0.0649  0.2151
   76SOL    HW1  227   2.763   2.191   2.013 -1.8860  2.4495 -0.7991
   76SOL    HW2  228   2.887   2.092   2.012 -0.5171  2.1637 -3.0585
   77SOL     OW  229   3.085   0.239   2.036 -0.6954 -0.0346 -0.0584
   77SOL    HW1  230   3.032   0.246   1.953  3.1643  0.6442 -1.1253
   77SOL    HW2  231   3.028   0.187   2.102 -1.3839 -0.2615 -1.5388
   78SOL     OW  232   2.288   1.079   2.950  0.1267 -0.0492 -0.9701
   78SOL    HW1  233   2.294   1.180   2.926  0.9267  0.4153  0.4963
   78SOL    HW2  234   2.229   1.061   3.032 -1.0861  0.1188  1.0179
   79SOL     OW  235   2.831   1.416   2.516 -0.7670  0.2550 -0.0148
   79SOL    HW1  236   2.868   1.374   2.600 -0.8475  1.1360 -0.4699
   79SOL    HW2  237   2.906   1.457   2.452  0.6121  1.5208 -0.5473
   80SOL     OW  238   1.464   1.431   1.472 -0.1882 -0.2362  0.2359
   80SOL    HW1  239   1.464   1.514   1.525  2.0115  0.8333  1.8801
   80SOL    HW2  240   1.507   1.359   1.529  0.1219 -0.5102 -0.9001
   81SOL     OW  241   1.987   0.847   1.892 -0.7037  0.4498  0.7100
   81SOL    HW1  242   1.942   0.869   1.978  1.6417 -2.0076 -3.4653
   81SOL    HW2  243   2.043   0.927   1.864  2.3547 -3.5347  1.8700
   82SOL     OW  244   1.676   1.779   1.601  0.6255 -0.2605 -0.2370
   82SOL    HW1  245   1.755   1.768   1.662 -2.7481 -2.0687  1.0128
   82SOL    HW2  246   1.666   1.874   1.562 -1.1514  2.2859  0.6036
   83SOL     OW  247   0.109   0.035   0.227  0.1288  0.6162 -0.1798
   83SOL    HW1  248   0.131   3.090   0.150  0.2993 -2.3816 -1.4789
   83SOL    HW2  249   0.102   0.128   0.188 -0.7394 -0.2416 -1.3312
   84SOL     OW  250   0.376   1.075   3.117  0.2212  0.2978 -0.5579
   84SOL    HW1  251   0.402   0.981   3.116 -0.3524  1.9714 -0.4314
   84SOL    HW2  252   0.274   1.076   0.008 -0.0129 -1.3919  0.7392
   85SOL     OW  253   2.451   1.932   1.214 -0.5502  0.0383  0.7001
   85SOL    HW1  254   2.419   1.908   1.120 -0.3323 -0.8854 -0.4185
   85SOL    HW2  255   2.545   1.973   1.214  0.2043  2.1996  2.6160
   86SOL     OW  256   0.510   2.649   1.223  0.2571 -0.0742  0.0089
   86SOL    HW1  257   0.545   2.556   1.248  1.9760  1.0173  0.7820
   86SOL    HW2  258   0.508   2.669   1.123  0.3682  1.9374  0.8400
   87SOL     OW  259   0.721   2.429   2.500  0.3061 -1.0608  0.1710
   87SOL    HW1  260   0.741   2.353   2.441 -2.0434  3.0338  2.6042
   87SOL    HW2  261   0.691   2.387   2.588  2.1443  1.1614  0.1205
   88SOL     OW  262   2.951   1.831   0.345  0.1384  0.2656 -0.0833
   88SOL    HW1  263   3.029   1.894   0.365  1.9518  0.8421  0.3069
   88SOL    HW2  264   2.969   1.776   0.264  0.2667  1.7203  0.3526
   89SOL     OW  265   1.027   1.078   1.107  0.3276  0.2518 -0.9729
   89SOL    HW1  266   1.089   1.005   1.078 -1.1098  2.2605  1.8462
   89SOL    HW2  267   0.949   1.038   1.159  0.5025  0.2551  0.8035
   90SOL     OW  268   0.295   1.333   1.856  0.5594 -0.2586 -0.1848
   90SOL    HW1  269   0.198   1.303   1.877 -0.6252 -0.0717  0.0868
   90SOL    HW2  270   0.299   1.370   1.762 -1.3289 -1.2302  0.6735
   91SOL     OW  271   1.115   0.831   1.062  0.4925  0.6029 -1.0785
   91SOL    HW1  272   1.059   0.793   0.987  0.3337 -0.9286 -0.1604
   91SOL    HW2  273   1.210   0.790   1.056  0.9778 -2.4549  2.4942
   92SOL     OW  274   1.958   1.121   1.137 -0.5893 -0.1474  0.1617
   92SOL    HW1  275   1.883   1.185   1.116 -1.5526 -0.5217  2.4957
   92SOL    HW2  276   2.047   1.175   1.122  1.1096  3.9066 -2.1592
   93SOL     OW  277   2.752   1.020   2.456 -0.1535 -0.2066 -0.0104
   93SOL    HW1  278   2.693   0.940   2.443 -0.9135  1.1183  2.6434
   93SOL    HW2  279   2.850   0.996   2.449 -0.4703 -1.7362 -0.9394
   94SOL     OW  280   2.132   1.771   2.713  0.4655  0.7424  0.0907
   94SOL    HW1  281   2.189   1.825   2.646 -1.2144 -1.1668  3.6739
   94SOL    HW2  282   2.145   1.811   2.805 -0.6111  0.8656 -3.5681
   95SOL     OW  283   2.758   0.763   1.412  0.3265 -0.2673 -0.1709
   95SOL    HW1  284   2.805   0.724   1.333  1.3812  1.0919  4.2440
   95SOL    HW2  285   2.712   0.686   1.457 -0.4871  0.0410 -0.5880
   96SOL     OW  286   2.415   3.006   1.503  0.5630 -0.5839  0.2549
   96SOL    HW1  287   2.459   3.063   1.578  0.2357  3.5705  1.8027
   96SOL    HW2  288   2.475   2.925   1.484  3.6938 -1.1955 -2.2368
   97SOL     OW  289   2.571   1.171   1.501 -0.2842  0.2365  0.4716
   97SOL    HW1  290   2.559   1.083   1.454 -1.5665 -0.9847  0.3760
   97SOL    HW2  291   2.662   1.176   1.550  3.7115 -0.6059 -0.4918
   98SOL     OW  292   1.474   2.447   1.969 -0.2054 -0.2225  0.2340
   98SOL    HW1  293   1.561   2.490   1.999 -0.2449  2.3653  0.8720
   98SOL    HW2  294   1.489   2.347   1.962  0.6899  3.0162 -1.1253
   99SOL     OW  295   0.303   2.599   1.401 -0.4903 -0.3257  0.1993
   99SOL    HW1  296   0.370   2.637   1.332 -0.7449  1.8544  0.5078
   99SOL    HW2  297   0.304   2.665   1.481 -1.1179 -2.0647  1.0149
  100SOL     OW  298   1.479   0.336   2.765  0.7552 -0.3388 -0.0800
  100SOL    HW1  299   1.567   0.314   2.728 -0.3592 -1.5161 -0.6762
  100SOL    HW2  300   1.471   0.363   2.864 -2.4302  2.0697  0.4171
  101SOL     OW  301   2.551   0.250   2.546  0.0185 -0.1948  0.5219
  101SOL    HW1  302   2.457   0.267   2.581  2.0894  0.3818  0.6819
  101SOL    HW2  303   2.631   0.257   2.611  0.5247 -0.7617 -0.6354
  102SOL     OW  304   0.515   0.723   1.566  0.6559 -0.0145  0.3650
  102SOL    HW1  305   0.571   0.759   1.644 -1.5848  1.1524  0.3303
  102SOL    HW2  306   0.535   0.768   1.481  0.0903 -3.1412  0.4749
  103SOL     OW  307   0.631   0.952   2.429 -0.0524 -0.3139 -0.1138
  103SOL    HW1  308   0.580   0.895   2.361 -0.0577  2.9770 -1.8827
  103SOL    HW2  309   0.604   0.933   2.525  3.5679 -0.4644  1.5041
  104SOL     OW  310   0.512   0.903   2.677 -0.2842  0.2937  0.0848
  104SOL    HW1  311   0.560   0.836   2.735 -0.0611  1.5170 -1.9273
  104SOL    HW2  312   0.486   0.984   2.737 -1.3701 -0.3270  1.0495
  105SOL     OW  313   2.007   2.205   1.626 -0.1256 -0.6668  0.0752
  105SOL    HW1  314   2.046   2.112   1.609  0.3845  0.4765  1.1050
  105SOL    HW2  315   1.950   2.231   1.542 -0.8955 -0.8071  2.0857
  106SOL     OW  316   1.737   2.936   0.314  0.3406 -0.0196  0.3501
  106SOL    HW1  317   1.751   2.839   0.333  3.1027  3.4822 -0.5274
  106SOL    HW2  318   1.821   2.986   0.274 -1.9404  2.4860 -2.2048
  107SOL     OW  319   2.174   2.070   1.015 -0.1858 -0.1842  0.2459
  107SOL    HW1  320   2.233   2.147   0.981  1.2400  0.3542  2.1665
  107SOL    HW2  321   2.179   1.987   0.955  0.8849 -0.8493 -1.9215
  108SOL     OW  322   2.820   3.036   1.434  0.3392 -0.5278 -0.1759
  108SOL    HW1  323   2.754   3.053   1.509  0.0574  1.7817  0.4355
  108SOL    HW2  324   2.892   3.106   1.432  0.1746 -1.4420  0.0504
  109SOL     OW  325   1.972   2.461   0.779  0.1316  0.2937  0.5276
  109SOL    HW1  326   1.957   2.395   0.858 -0.6216 -1.9819  0.9049
  109SOL    HW2  327   2.067   2.482   0.769 -1.0092  0.9319 -1.5009
  110SOL     OW  328   0.933   1.801   2.165 -0.3004  0.2900 -0.4590
  110SOL    HW1  329   0.943   1.711   2.117  0.8607 -1.6823 -0.2412
  110SOL    HW2  330   0.835   1.828   2.161  0.7810 -1.0252  0.6852
  111SOL     OW  331   1.794   2.108   2.066 -0.3254 -0.3520  0.0155
  111SOL    HW1  332   1.841   2.143   1.981 -2.3532 -0.5167 -0.2674
  111SOL    HW2  333   1.708   2.157   2.080 -1.1828  1.9668  0.4513
  112SOL     OW  334   1.830   1.717   2.669  0.1315 -0.4363 -0.6262
  112SOL    HW1  335   1.829   1.614   2.667  0.5150  0.1997  1.1929
  112SOL    HW2  336   1.925   1.746   2.688  1.9072 -1.2119 -1.7372
  113SOL     OW  337   1.471   1.990   1.803 -0.1142 -0.4680 -0.4783
  113SOL    HW1  338   1.529   1.930   1.867  3.7909 -1.4855  3.6101
  113SOL    HW2  339   1.393   1.942   1.768  0.9335 -3.5102 -1.6580
  114SOL     OW  340   0.117   1.266   1.260 -0.6321 -0.2115 -0.1414
  114SOL    HW1  341   0.143   1.228   1.168  0.1114 -2.1092  0.5160
  114SOL    HW2  342   0.094   1.191   1.326 -1.1266 -1.9377  0.9383
  115SOL     OW  343   0.526   0.483   0.388 -0.4748  0.3867 -0.1523
  115SOL    HW1  344   0.541   0.560   0.454 -0.4651 -1.2053 -0.6411
  115SOL    HW2  345   0.608   0.414   0.385  3.0473 -1.7933  0.7039
  116SOL     OW  346   2.919   1.867   2.261  0.1667  0.0499 -0.0015
  116SOL    HW1  347   2.857   1.917   2.323  2.2227 -0.3982  2.1798
  116SOL    HW2  348   2.997   1.828   2.314 -0.3290  0.5610 -0.0682
  117SOL     OW  349   3.114   2.686   0.806 -0.6786 -0.3569 -0.5180
  117SOL    HW1  350   3.089   2.632   0.726  0.2203  2.5635 -0.6676
  117SOL    HW2  351   0.048   2.624   0.867 -1.6253 -0.5832  1.5004
  118SOL     OW  352   0.520   1.757   2.775  0.1701  0.4114 -0.2040
  118SOL    HW1  353   0.576   1.829   2.730  1.3700 -0.2891  1.4047
  118SOL    HW2  354   0.547   1.742   2.875  1.1301  0.5707  3.1395
  119SOL     OW  355   0.416   2.043   0.538 -0.1379  0.2755 -0.4166
  119SOL    HW1  356   0.467   2.097   0.608 -0.2975 -1.5760 -0.2672
  119SOL    HW2  357   0.389   2.111   0.469  4.0212  0.7983  0.8163
  120SOL     OW  358   1.362   0.485   0.336  0.2311 -0.2878  0.0987
  120SOL    HW1  359   1.439   0.414   0.336  0.5435  0.0992 -0.9606
  120SOL    HW2  360   1.388   0.571   0.387  2.8881  1.0265  1.8677
  121SOL     OW  361   1.532   2.464   0.825  0.0825 -0.1292 -0.5942
  121SOL    HW1  362   1.587   2.396   0.883  0.4125 -1.6617  3.2978
  121SOL    HW2  363   1.492   2.417   0.747 -0.1301  0.8931  0.6000
  122SOL     OW  364   2.465   2.555   1.823 -0.1384  0.6397  0.0254
  122SOL    HW1  365   2.408   2.619   1.874 -1.6198  0.4941  0.2355
  122SOL    HW2  366   2.560   2.590   1.800  2.1125  0.2854 -1.1094
  123SOL     OW  367   0.685   1.612   0.635  0.1238 -0.2935  0.5488
  123SOL    HW1  368   0.764   1.576   0.585 -1.6363  1.0355  2.8127
  123SOL    HW2  369   0.696   1.586   0.730  0.7095  2.8995 -3.1576
  124SOL     OW  370   2.977   0.754   0.364  0.2641  0.3140 -0.4196
  124SOL    HW1  371   2.936   0.661   0.371 -0.5052 -1.2624 -0.1259
  124SOL    HW2  372   2.915   0.828   0.328  2.4041  1.8490 -1.7081
  125SOL     OW  373   0.585   0.664   0.627 -0.1359 -0.3643  0.0164
  125SOL    HW1  374   0.495   0.646   0.673  0.9510  0.8923 -1.3262
  125SOL    HW2  375   0.607   0.767   0.622  0.5848  2.9236 -2.3182
  126SOL     OW  376   2.864   1.887   0.788  0.0716  0.1444 -0.2513
  126SOL    HW1  377   2.906   1.901   0.875 -3.3771 -2.2029 -2.4642
  126SOL    HW2  378   2.845   1.975   0.746 -2.7270 -0.4807  0.2250
  127SOL     OW  379   1.361   2.505   1.738 -0.2228 -0.6455  1.1271
  127SOL    HW1  380   1.427   2.505   1.818  2.8704  0.9879  1.2023
  127SOL    HW2  381   1.336   2.413   1.707  1.1872 -0.5270 -0.1793
  128SOL     OW  382   0.963   1.069   0.258 -0.7189 -0.4012  0.5012
  128SOL    HW1  383   0.979   1.044   0.358  1.4669  1.1179 -0.8617
  128SOL    HW2  384   0.955   1.172   0.248  0.1424 -2.0519 -1.8581
  129SOL     OW  385   1.665   2.038   1.510  1.2809  0.3471  0.1431
  129SOL    HW1  386   1.702   2.121   1.553  2.9909  2.2630 -0.5229
  129SOL    HW2  387   1.561   2.043   1.522 -0.2367  2.8910  1.3924
  130SOL     OW  388   2.265   1.609   1.497  0.1695 -0.2420 -0.6718
  130SOL    HW1  389   2.180   1.631   1.553 -2.3746 -0.7385 -0.7088
  130SOL    HW2  390   2.327   1.538   1.540 -0.5186 -0.1688 -2.6310
  131SOL     OW  391   3.017   2.740   2.936  0.1679  0.3169 -0.4245
  131SOL    HW1  392   2.984   2.787   2.847 -1.3499  0.4454 -2.4892
  131SOL    HW2  393   3.104   2.687   2.920 -2.3511 -1.3619  1.3059
  132SOL     OW  394   2.552   1.717   0.624 -0.1090 -0.0482 -0.4904
  132SOL    HW1  395   2.610   1.781   0.569  1.4974  1.0267 -1.9439
  132SOL    HW2  396   2.584   1.720   0.719 -0.4644 -0.9569 -0.6831
  133SOL     OW  397   0.526   0.056   1.866 -0.0375  0.2956  0.7582
  133SOL    HW1  398   0.483   0.051   1.960 -2.1290  1.5619  2.5883
  133SOL    HW2  399   0.572   0.151   1.853  3.1042 -0.0328 -0.6835
  134SOL     OW  400   0.024   1.847   3.117 -0.1317  0.6456 -0.0774
  134SOL    HW1  401   3.051   1.828   3.088 -1.6571 -2.4286  0.4356
  134SOL    HW2  402   0.074   1.890   3.042 -1.0032 -0.7496 -0.4166
  135SOL     OW  403   1.452   0.513   2.058  0.1876 -0.1827 -0.1713
  135SOL    HW1  404   1.535   0.555   2.021 -1.4964  0.1356  0.6648
  135SOL    HW2  405   1.447   0.528   2.157 -0.7110 -1.6343 -0.9782
  136SOL     OW  406   2.632   1.628   0.377 -0.2327 -0.5805  0.5064
  136SOL    HW1  407   2.700   1.552   0.381  2.5032  1.2565 -0.8100
  136SOL    HW2  408   2.585   1.642   0.464  0.1979  1.4994 -0.4328
  137SOL     OW  409   2.637   1.722   0.888 -0.4339  0.2762  0.8383
  137SOL    HW1  410   2.681   1.636   0.913 -0.4389  1.6116  0.3079
  137SOL    HW2  411   2.713   1.787   0.859  0.8841  1.7937  2.6480
  138SOL     OW  412   2.744   0.823   1.050  0.0148  0.1839 -0.1421
  138SOL    HW1  413   2.706   0.802   0.956  2.6155  2.0403 -2.4202
  138SOL    HW2  414   2.775   0.921   1.047  0.8266  3.5500 -2.7607
  139SOL     OW  415   0.836   2.713   2.918  0.0482  0.7220  0.5248
  139SOL    HW1  416   0.836   2.667   3.008 -2.3347  0.4131  1.9831
  139SOL    HW2  417   0.770   2.788   2.911  0.6427 -0.6327 -0.0576
  140SOL     OW  418   1.070   2.001   1.073 -0.0012  0.0619  0.0355
  140SOL    HW1  419   1.147   2.050   1.024  0.3124 -0.5345  1.5216
  140SOL    HW2  420   1.000   1.976   1.004  2.6004 -0.3974  0.6734
  141SOL     OW  421   1.427   2.299   0.645 -0.0435 -0.2830 -0.1580
  141SOL    HW1  422   1.328   2.292   0.657 -0.4936  1.7452 -0.2932
  141SOL    HW2  423   1.470   2.205   0.637  1.4178  2.6607 -1.8665
  142SOL     OW  424   0.979   0.514   1.065 -0.1731  0.1853  0.6436
  142SOL    HW1  425   0.943   0.596   1.017 -3.4929 -0.6378  0.4058
  142SOL    HW2  426   0.909   0.442   1.061  1.3928 -2.4315  1.1751
  143SOL     OW  427   0.838   1.396   2.956  0.4574  0.1025 -0.0698
  143SOL    HW1  428   0.845   1.408   2.854  2.3108 -0.0632 -1.8328
  143SOL    HW2  429   0.798   1.299   2.983  0.7093 -2.3093 -1.9532
  144SOL     OW  430   1.890   2.696   0.663 -0.3407 -0.1368 -0.1061
  144SOL    HW1  431   1.810   2.698   0.727 -1.5099  0.0258  1.7096
  144SOL    HW2  432   1.944   2.610   0.678 -0.0171  0.5916 -0.9577
  145SOL     OW  433   1.954   0.788   2.607 -0.1983 -0.1936  0.4132
  145SOL    HW1  434   1.966   0.692   2.585  1.1757 -1.4800 -2.3447
  145SOL    HW2  435   1.980   0.809   2.703 -1.9672  1.7372 -1.0913
  146SOL     OW  436   3.105   3.047   0.442  0.1914  0.2469 -0.0692
  146SOL    HW1  437   3.069   3.102   0.520  0.9654  1.4530  1.6612
  146SOL    HW2  438   0.004   3.105   0.363  0.2228 -1.2549 -2.4989
  147SOL     OW  439   2.062   0.082   2.227  0.8603 -0.2095 -0.2231
  147SOL    HW1  440   2.162   0.077   2.229 -0.6441 -0.6313  0.6722
  147SOL    HW2  441   2.032   0.059   2.135  2.7363 -3.3697  0.2703
  148SOL     OW  442   1.345   0.275   1.978  0.0670 -0.4876  0.2082
  148SOL    HW1  443   1.370   0.362   2.025 -1.0565 -1.6926 -0.5122
  148SOL    HW2  444   1.396   0.197   2.013  0.4011  0.2074  0.4937
  149SOL     OW  445   1.455   0.096   2.366 -0.3678  0.2307  0.2824
  149SOL    HW1  446   1.454   0.084   2.264 -0.0689 -0.9388  1.8881
  149SOL    HW2  447   1.413   0.019   2.421  3.2017 -0.7909 -1.9147
  150SOL     OW  448   2.963   2.908   0.035  0.1340  0.2032  0.6684
  150SOL    HW1  449   2.975   2.866   3.066  1.0450  0.3127 -1.5246
  150SOL    HW2  450   2.868   2.944   0.048 -0.9195 -1.8054  0.8502
  151SOL     OW  451   0.623   1.148   0.126  0.4359  0.0740 -0.5354
  151SOL    HW1  452   0.524   1.144   0.103  1.7478 -1.0099  0.1108
  151SOL    HW2  453   0.658   1.241   0.148  0.8147  2.9110  1.2786
  152SOL     OW  454   3.109   0.260   0.674 -0.4982  0.4781 -0.1409
  152SOL    HW1  455   0.084   0.273   0.708  0.8064  1.3093  1.1125
  152SOL    HW2  456   3.059   0.346   0.689 -1.0534 -2.0833  0.4244
  153SOL     OW  457   2.623   0.542   1.518 -0.1252 -0.0612  0.3858
  153SOL    HW1  458   2.622   0.462   1.581 -0.7862 -3.3479  1.5240
  153SOL    HW2  459   2.625   0.501   1.424 -2.5461 -0.5306  0.7064
  154SOL     OW  460   1.452   0.026   2.033  0.5051 -0.4866  0.5548
  154SOL    HW1  461   1.522   0.031   1.959  0.1287  0.3475 -1.6007
  154SOL    HW2  462   1.393   3.067   2.038 -2.9311 -1.0795  3.4146
  155SOL     OW  463   2.911   1.696   0.594 -0.3147 -0.5203  0.0894
  155SOL    HW1  464   2.904   1.761   0.669  0.8434 -0.8289 -1.5326
  155SOL    HW2  465   2.937   1.747   0.509 -0.6320 -1.4239 -0.5432
  156SOL     OW  466   2.609   1.879   2.882  0.3261 -0.1538 -0.2083
  156SOL    HW1  467   2.576   1.817   2.952  1.1268  0.2522 -0.7255
  156SOL    HW2  468   2.533   1.935   2.849  0.2233 -0.6369  0.5265
  157SOL     OW  469   0.723   0.219   0.795 -0.7483 -0.1665  0.6798
  157SOL    HW1  470   0.715   0.288   0.721  1.4309 -3.2611  1.5601
  157SOL    HW2  471   0.824   0.193   0.807  1.8806  0.4946  0.8338
  158SOL     OW  472   2.311   0.364   2.198  0.3110 -0.7558 -0.2846
  158SOL    HW1  473   2.322   0.265   2.214 -2.8047  0.4677  1.9906
  158SOL    HW2  474   2.366   0.403   2.118  0.3736  0.6822  2.0209
  159SOL     OW  475   0.346   0.291   0.490  0.0213 -0.8861 -0.1910
  159SOL    HW1  476   0.417   0.350   0.449  2.3842 -0.7600  2.0873
  159SOL    HW2  477   0.342   0.199   0.449 -0.0792  1.0923 -1.4773
  160SOL     OW  478   1.657   1.873   1.997  0.2822  0.1933 -0.0113
  160SOL    HW1  479   1.724   1.947   2.028 -1.8506  2.9781 -0.7599
  160SOL    HW2  480   1.608   1.847   2.082  0.7733  0.5527  1.3092
  161SOL     OW  481   2.761   0.305   2.718 -0.0629 -0.0461  0.9480
  161SOL    HW1  482   2.734   0.249   2.803  0.6566  0.0591 -0.0252
  161SOL    HW2  483   2.859   0.281   2.686 -0.7520  1.0557 -0.1444
  162SOL     OW  484   1.123   2.798   1.818  0.0723 -0.0104 -0.2834
  162SOL    HW1  485   1.036   2.766   1.774  0.1844  1.9420  1.8844
  162SOL    HW2  486   1.114   2.902   1.824  2.9663  1.6821  0.3705
  163SOL     OW  487   2.767   0.104   2.441 -0.1400  0.5863 -0.0329
  163SOL    HW1  488   2.758   0.002   2.445 -1.1449  0.2371  1.8905
  163SOL    HW2  489   2.679   0.157   2.453 -1.0999 -0.1391  0.4790
  164SOL     OW  490   2.336   1.619   0.234  0.1560 -0.0962  0.1865
  164SOL    HW1  491   2.280   1.681   0.176 -1.6470  1.2439  2.9303
  164SOL    HW2  492   2.418   1.667   0.268 -0.6463  1.3364  1.8430
  165SOL     OW  493   2.977   0.449   1.549  0.2465  0.5976  0.9568
  165SOL    HW1  494   3.005   0.546   1.571  1.9770  0.9014 -1.6150
  165SOL    HW2  495   3.034   0.417   1.469  0.9992 -0.5481  1.1827
  166SOL     OW  496   2.301   0.639   0.006 -0.3985  0.0433  0.2073
  166SOL    HW1  497   2.399   0.624   3.121 -2.0900 -3.3968  2.6579
  166SOL    HW2  498   2.278   0.719   0.068  0.6317  1.6027  0.6529
  167SOL     OW  499   2.772   0.847   0.062  0.6487 -0.1012  0.3777
  167SOL    HW1  500   2.689   0.893   0.035 -0.9435  0.0828  1.8673
  167SOL    HW2  501   2.833   0.914   0.109  0.9396  0.5229 -0.3908
  168SOL     OW  502   1.782   2.954   2.840  0.6429 -0.5431  0.0624
  168SOL    HW1  503   1.720   2.873   2.858 -0.5858  2.2976 -0.5435
  168SOL    HW2  504   1.733   3.034   2.798 -0.2848  0.8426  1.9631
  169SOL     OW  505   0.074   1.591   0.916  0.1468 -0.2043  0.0286
  169SOL    HW1  506   3.112   1.539   0.942 -1.2345  2.0946 -0.0465
  169SOL    HW2  507   0.115   1.550   0.835  0.4821  0.4702 -1.1377
  170SOL     OW  508   0.036   1.037   1.384  0.5563 -0.0221 -0.3462
  170SOL    HW1  509   0.116   1.038   1.450  1.8233  2.4768  0.8042
  170SOL    HW2  510   0.018   0.943   1.353 -0.6639  1.3502  2.2828
  171SOL     OW  511   2.401   2.185   1.858  0.2604 -0.2004 -0.7928
  171SOL    HW1  512   2.505   2.187   1.862 -0.4223 -0.7605 -0.4748
  171SOL    HW2  513   2.362   2.091   1.836  0.4131 -1.2535 -1.3267
  172SOL     OW  514   0.371   2.400   1.586  0.2696 -0.6325  0.7848
  172SOL    HW1  515   0.351   2.322   1.523  0.3572 -0.9436  0.0266
  172SOL    HW2  516   0.356   2.490   1.534 -1.9267  2.6866  3.0186
  173SOL     OW  517   1.214   1.017   2.987  0.8265 -0.0216 -0.8774
  173SOL    HW1  518   1.291   1.062   2.936 -0.9801  0.5041 -3.0563
  173SOL    HW2  519   1.124   1.040   2.943  0.7468  1.9889  0.1892
  174SOL     OW  520   1.196   0.250   2.738  0.1760  0.3695  0.1943
  174SOL    HW1  521   1.180   0.346   2.726 -0.1333 -2.9609 -1.4159
  174SOL    HW2  522   1.292   0.234   2.767  0.0301 -1.0683  0.2380
  175SOL     OW  523   1.570   1.850   1.045 -0.0978  0.5528 -0.1878
  175SOL    HW1  524   1.668   1.827   1.075  1.3119 -2.3584 -2.6331
  175SOL    HW2  525   1.499   1.782   1.075 -1.6605  2.7857  2.1036
  176SOL     OW  526   1.488   3.043   0.308 -0.3788 -0.0924  0.5735
  176SOL    HW1  527   1.586   3.019   0.323 -1.7739  3.0660 -0.5148
  176SOL    HW2  528   1.483   0.001   0.241 -0.0153  0.5350  0.3763
  177SOL     OW  529   0.716   1.153   2.951  0.4290 -0.5186  0.0696
  177SOL    HW1  530   0.701   1.079   3.023 -0.6913 -2.0564 -0.7316
  177SOL    HW2  531   0.636   1.139   2.891 -0.7647  0.3927  3.0106
  178SOL     OW  532   2.378   2.426   2.356 -0.0163  0.0655 -0.3379
  178SOL    HW1  533   2.347   2.370   2.278 -0.0344  2.0993 -2.0354
  178SOL    HW2  534   2.361   2.526   2.336  0.6984  0.4193 -0.0827
  179SOL     OW  535   3.091   0.136   2.839 -0.3543  0.0458 -0.1726
  179SOL    HW1  536   3.004   0.134   2.890  1.0406  2.2005 -2.0532
  179SOL    HW2  537   3.069   0.167   2.749  1.6406 -0.7508 -0.0686
  180SOL     OW  538   1.963   1.083   0.663 -0.2801 -0.6150  0.8226
  180SOL    HW1  539   1.934   1.005   0.724 -0.1120 -0.8990  2.7231
  180SOL    HW2  540   1.996   1.164   0.715  0.7160  0.2479 -0.7853
  181SOL     OW  541   2.073   1.270   2.588  0.2919  0.6011 -0.3066
  181SOL    HW1  542   2.093   1.365   2.558 -2.4774 -0.4613 -1.8124
  181SOL    HW2  543   1.994   1.232   2.540  0.3826  2.9294  0.8725
  182SOL     OW  544   2.642   2.409   2.301  0.0891  0.4104 -0.1335
  182SOL    HW1  545   2.544   2.423   2.335 -0.5619  0.0449  0.5884
  182SOL    HW2  546   2.649   2.406   2.200  2.5697 -1.3499  0.3537
  183SOL     OW  547   1.855   0.616   2.143 -0.6695 -0.1451 -0.7317
  183SOL    HW1  548   1.831   0.716   2.155  1.7052 -0.5566  3.2721
  183SOL    HW2  549   1.951   0.595   2.178  3.3797 -1.6026  0.0972
  184SOL     OW  550   0.204   1.695   1.340  0.3805 -0.1719  0.3403
  184SOL    HW1  551   0.201   1.759   1.258 -0.1481 -0.4608  1.9283
  184SOL    HW2  552   0.290   1.714   1.391 -1.9734  0.4385  1.4636
  185SOL     OW  553   1.951   0.305   0.551 -0.0546  0.1415  0.7524
  185SOL    HW1  554   1.913   0.350   0.631  1.5240 -0.9510  2.2741
  185SOL    HW2  555   2.009   0.230   0.588  0.8749  0.4546 -2.5002
  186SOL     OW  556   0.096   2.586   2.821  0.0638 -0.1652  0.5592
  186SOL    HW1  557   0.033   2.594   2.737 -0.2870  0.5376 -0.7872
  186SOL    HW2  558   0.188   2.615   2.786 -0.2087  1.1270 -0.4184
  187SOL     OW  559   2.792   1.222   0.477  0.2243 -0.1882  0.0251
  187SOL    HW1  560   2.822   1.321   0.474 -0.0589  0.6031  0.4959
  187SOL    HW2  561   2.711   1.209   0.415 -1.1140  0.2967  0.2829
  188SOL     OW  562   2.401   1.401   1.067 -0.0909 -0.0651  0.9035
  188SOL    HW1  563   2.489   1.377   1.114  0.3239 -2.3485 -0.9156
  188SOL    HW2  564   2.418   1.407   0.966  0.8014 -0.5695  1.9783
  189SOL     OW  565   2.990   0.194   2.587 -0.1705  0.2087 -0.8049
  189SOL    HW1  566   2.916   0.137   2.548 -0.1311 -0.4631 -0.6209
  189SOL    HW2  567   3.067   0.208   2.520 -0.2274 -4.0213  0.0529
  190SOL     OW  568   1.503   1.041   1.549  0.4398  0.7867 -0.3722
  190SOL    HW1  569   1.539   1.017   1.458 -1.7219  0.6992  1.8992
  190SOL    HW2  570   1.563   1.111   1.597  1.3966  3.9410 -1.6624
  191SOL     OW  571   0.872   0.395   1.900  0.3758  0.0030 -0.4523
  191SOL    HW1  572   0.961   0.346   1.913 -1.8075 -0.8147 -0.8150
  191SOL    HW2  573   0.886   0.480   1.951 -0.2074 -0.2075 -2.3101
  192SOL     OW  574   1.566   2.240   1.742 -0.2928  0.2471  0.2958
  192SOL    HW1  575   1.553   2.147   1.780  1.8677 -2.8158  2.3516
  192SOL    HW2  576   1.474   2.262   1.700 -0.3032 -0.4755 -2.2106
  193SOL     OW  577   1.754   0.631   1.092  0.0489 -0.1102  0.2952
  193SOL    HW1  578   1.711   0.547   1.128  1.5673  2.3423 -1.7207
  193SOL    HW2  579   1.695   0.719   1.092  0.9383  0.9251 -1.4619
  194SOL     OW  580   0.591   2.185   1.389  0.1067 -0.4762  0.1437
  194SOL    HW1  581   0.493   2.173   1.358 -0.9021 -1.2487 -2.8006
  194SOL    HW2  582   0.650   2.123   1.338 -2.6955 -2.0695  0.8139
  195SOL     OW  583   1.543   0.290   0.328 -0.2105  0.3427  0.1143
  195SOL    HW1  584   1.539   0.233   0.242  2.0134 -1.5198  0.3728
  195SOL    HW2  585   1.601   0.248   0.401 -0.3651 -1.5755 -0.2854
  196SOL     OW  586   0.499   1.477   1.399 -0.2896  0.5504  0.0944
  196SOL    HW1  587   0.485   1.551   1.466 -0.5275  0.4494 -3.0813
  196SOL    HW2  588   0.559   1.404   1.429 -1.4308 -1.6485 -1.3328
  197SOL     OW  589   1.065   0.137   1.649  0.3345 -0.4570  0.5334
  197SOL    HW1  590   1.142   0.147   1.586 -1.3934  0.7408  3.0340
  197SOL    HW2  591   1.079   0.198   1.724 -2.8006  1.5795 -1.3599
  198SOL     OW  592   0.727   1.410   1.106 -0.2559 -0.2336 -0.0714
  198SOL    HW1  593   0.656   1.476   1.081  1.2462  1.5022 -0.2356
  198SOL    HW2  594   0.747   1.395   1.203 -1.7278  0.7855 -1.6975
  199SOL     OW  595   0.055   2.472   1.605  0.1824 -0.6825  0.0433
  199SOL    HW1  596   0.084   2.524   1.686  0.0041 -2.3798  0.6698
  199SOL    HW2  597   0.139   2.454   1.542  2.2082  0.7858 -0.6033
  200SOL     OW  598   1.827   1.341   1.817  0.2927 -0.5611  0.0983
  200SOL    HW1  599   1.906   1.289   1.854 -0.9738 -2.0022  1.0959
  200SOL    HW2  600   1.757   1.354   1.891  0.3223 -0.7670 -1.5842
  201SOL     OW  601   0.661   1.901   2.160 -0.0680 -0.3159 -0.1466
  201SOL    HW1  602   0.634   1.935   2.254 -1.0135  0.1506 -1.5111
  201SOL    HW2  603   0.589   1.844   2.115  1.9888 -0.6563  1.4238
  202SOL     OW  604   1.414   0.411   3.020 -0.5141  0.1911  0.3670
  202SOL    HW1  605   1.508   0.456   3.021 -1.3613  0.8136 -2.7047
  202SOL    HW2  606   1.346   0.463   3.074  1.0240 -0.9166 -1.5645
  203SOL     OW  607   1.390   2.750   2.301 -0.2538 -0.3769 -0.1889
  203SOL    HW1  608   1.363   2.654   2.282 -1.9749  2.3307 -0.1160
  203SOL    HW2  609   1.368   2.765   2.400 -1.5769 -0.3146 -0.8943
  204SOL     OW  610   0.740   1.863   1.627 -0.4416 -0.5186 -0.1687
  204SOL    HW1  611   0.837   1.879   1.598  1.8626 -2.0442 -1.3753
  204SOL    HW2  612   0.718   1.767   1.637  3.7197  2.9480  1.3893
  205SOL     OW  613   1.826   1.700   1.847  0.5153 -0.0387 -0.3840
  205SOL    HW1  614   1.791   1.614   1.891  2.3511 -0.6577  1.5084
  205SOL    HW2  615   1.771   1.777   1.889  0.8535 -2.5627 -2.6120
  206SOL     OW  616   0.123   1.503   2.253  0.6348 -0.1197 -0.2624
  206SOL    HW1  617   0.211   1.479   2.210  2.1855  1.4797  0.4549
  206SOL    HW2  618   0.139   1.538   2.347 -1.1998  0.7063  0.3491
  207SOL     OW  619   0.824   2.880   2.024  0.3519 -0.1821  0.1286
  207SOL    HW1  620   0.791   2.913   1.933 -0.1643 -0.3968 -0.5564
  207SOL    HW2  621   0.743   2.875   2.095 -2.2417 -0.7051  0.0619
  208SOL     OW  622   0.570   2.694   1.750  0.1145  0.2494 -0.4122
  208SOL    HW1  623   0.632   2.625   1.796  2.0450 -0.4052 -2.1053
  208SOL    HW2  624   0.608   2.730   1.663  0.0769  1.2431 -1.5383
  209SOL     OW  625   1.383   2.842   0.449  0.4503  0.2168 -0.5396
  209SOL    HW1  626   1.432   2.856   0.540 -2.5388 -0.6929  3.6772
  209SOL    HW2  627   1.422   2.913   0.386 -0.5375  1.0442  2.3035
  210SOL     OW  628   2.667   0.671   0.807 -0.0246  0.0096 -0.4843
  210SOL    HW1  629   2.729   0.591   0.795  2.1547  1.4743 -0.0038
  210SOL    HW2  630   2.635   0.722   0.720  2.0738 -0.1840 -1.6211
  211SOL     OW  631   0.619   0.300   1.844 -0.0184 -0.0772  0.1268
  211SOL    HW1  632   0.715   0.317   1.869 -2.2573 -3.8082 -1.4188
  211SOL    HW2  633   0.581   0.372   1.781 -0.8935 -0.6313 -0.4029
  212SOL     OW  634   1.365   2.785   1.730 -0.0715 -0.2582 -0.0402
  212SOL    HW1  635   1.273   2.814   1.756  3.1275 -0.9699 -1.0478
  212SOL    HW2  636   1.366   2.682   1.736  1.5292 -0.9283 -0.9993
  213SOL     OW  637   2.957   0.254   1.782  0.2116  0.5566  0.0566
  213SOL    HW1  638   2.928   0.324   1.713 -2.1432  0.2870 -0.7534
  213SOL    HW2  639   2.883   0.187   1.800 -0.3290  2.1711  1.6893
  214SOL     OW  640   0.580   2.618   2.100 -0.9306  0.2044 -0.4127
  214SOL    HW1  641   0.660   2.596   2.041  0.5467  2.1317  3.0435
  214SOL    HW2  642   0.530   2.702   2.064  1.6056 -1.3387  0.2242
  215SOL     OW  643   2.625   1.728   1.618 -0.1612  0.0281  0.0838
  215SOL    HW1  644   2.681   1.643   1.605 -1.2266 -0.3925 -1.4857
  215SOL    HW2  645   2.562   1.726   1.540 -0.8117  0.1372  1.1335
  216SOL     OW  646   0.455   1.116   2.048  0.1735 -0.0348  0.0728
  216SOL    HW1  647   0.480   1.022   2.072  0.0923 -0.6071  3.2363
  216SOL    HW2  648   0.496   1.184   2.114 -2.4990 -0.3311  3.1108
  217SOL     OW  649   2.649   0.376   1.299 -0.1143 -0.3469  0.2810
  217SOL    HW1  650   2.600   0.290   1.282  1.9940  1.8318 -1.1070
  217SOL    HW2  651   2.702   0.404   1.215  3.4341  0.6265 -0.2216
  218SOL     OW  652   1.407   2.080   1.163  0.4282  0.3760  0.0703
  218SOL    HW1  653   1.488   2.030   1.127 -1.9724 -0.0914 -0.4627
  218SOL    HW2  654   1.345   2.108   1.088 -1.7056 -0.0763  1.3504
  219SOL     OW  655   1.776   2.683   0.418  0.4175  0.1151 -0.0459
  219SOL    HW1  656   1.829   2.676   0.502  0.6315  2.6714 -1.3205
  219SOL    HW2  657   1.690   2.634   0.433  1.0391 -0.5986  1.0883
  220SOL     OW  658   1.640   2.446   0.164  0.3285 -0.3338 -0.3411
  220SOL    HW1  659   1.560   2.501   0.125 -2.4478  1.0013  0.1025
  220SOL    HW2  660   1.717   2.427   0.097 -2.4987 -0.1614  0.4818
  221SOL     OW  661   2.658   1.786   0.161 -0.1759  0.1656  0.8059
  221SOL    HW1  662   2.652   1.887   0.173  0.5285 -0.7493 -0.6437
  221SOL    HW2  663   2.644   1.730   0.250 -0.4163  0.1876  0.4415
  222SOL     OW  664   0.805   2.399   0.892  0.0885 -0.2239  0.2554
  222SOL    HW1  665   0.793   2.495   0.853  4.3361 -0.4826  0.6312
  222SOL    HW2  666   0.887   2.381   0.946 -0.3479  0.2531 -0.8671
  223SOL     OW  667   0.904   0.037   0.310 -0.4802 -0.5050  0.2936
  223SOL    HW1  668   0.817   0.026   0.362  0.4855 -2.4879  1.7906
  223SOL    HW2  669   0.935   3.066   0.283  1.0077  0.7395  3.3926
  224SOL     OW  670   2.824   1.091   1.135  0.3115  0.2025 -0.5580
  224SOL    HW1  671   2.751   1.149   1.094 -0.6812 -1.5122 -0.1184
  224SOL    HW2  672   2.843   1.125   1.229  1.3385  0.9415  1.8726
  225SOL     OW  673   3.006   1.968   1.013  0.0909 -0.2028 -0.3543
  225SOL    HW1  674   3.080   2.040   1.003  0.3185  0.5996  2.7408
  225SOL    HW2  675   3.035   1.903   1.086  0.6091 -0.7138  0.2058
  226SOL     OW  676   0.846   2.985   1.024 -0.5219  0.4997 -0.2014
  226SOL    HW1  677   0.887   2.898   1.059  0.0771  0.2388 -0.8952
  226SOL    HW2  678   0.752   2.998   1.046  0.7147 -0.2196  0.4242
  227SOL     OW  679   1.051   1.606   1.428  0.0264  0.0234 -0.0082
  227SOL    HW1  680   1.049   1.601   1.326  2.2532  1.4682 -3.0926
  227SOL    HW2  681   0.951   1.613   1.464 -0.3643  0.2297 -0.0503
  228SOL     OW  682   1.078   0.246   1.931 -0.1807  1.2612 -0.1967
  228SOL    HW1  683   1.039   0.155   1.959  0.2413 -3.0432  1.5907
  228SOL    HW2  684   1.178   0.241   1.951 -1.5242 -0.8022  1.6337
  229SOL     OW  685   2.999   0.863   2.458 -0.0370 -0.2449 -0.4666
  229SOL    HW1  686   2.964   0.768   2.485 -0.7866 -1.5989  1.1130
  229SOL    HW2  687   3.053   0.862   2.371  0.0100 -0.3859  0.4184
  230SOL     OW  688   3.068   0.969   1.052  0.2581 -0.5277  0.4138
  230SOL    HW1  689   3.096   0.894   1.109 -1.5158  2.8302 -2.2002
  230SOL    HW2  690   2.978   1.009   1.079 -1.2767  0.6075 -0.3777
  231SOL     OW  691   1.356   3.047   2.538  0.2450  0.2846  0.0394
  231SOL    HW1  692   1.370   2.948   2.549  2.6811 -0.0005 -1.6863
  231SOL    HW2  693   1.375   3.102   2.621  1.1818 -0.7645 -1.7848
  232SOL     OW  694   0.011   1.671   0.194 -0.3692  0.1013  0.2923
  232SOL    HW1  695   0.096   1.674   0.256  2.7769  0.5620 -1.0684
  232SOL    HW2  696   0.001   1.754   0.132 -0.1496 -1.1282 -0.1565
  233SOL     OW  697   1.352   2.305   2.986  0.2421 -0.6671  0.6531
  233SOL    HW1  698   1.412   2.251   2.919  1.5065  1.1013 -3.1561
  233SOL    HW2  699   1.294   2.376   2.937  0.3265  2.4342 -0.2268
  234SOL     OW  700   0.823   1.262   1.836 -0.0576  0.2081  0.4109
  234SOL    HW1  701   0.870   1.209   1.763 -0.0004 -0.8963  0.8283
  234SOL    HW2  702   0.842   1.226   1.929  0.8838 -0.8123  1.1499
  235SOL     OW  703   0.421   2.404   2.211 -0.3251  0.1440 -0.5680
  235SOL    HW1  704   0.334   2.409   2.160  2.7581  1.2494 -0.8896
  235SOL    HW2  705   0.454   2.499   2.224  2.0240 -0.0970 -0.8273
  236SOL     OW  706   1.653   1.869   2.834  0.3323 -0.0578 -0.3763
  236SOL    HW1  707   1.698   1.798   2.772  0.0318 -1.4851 -1.3142
  236SOL    HW2  708   1.673   1.967   2.812 -0.5749 -2.3354  1.4065
  237SOL     OW  709   1.486   0.714   0.448  0.3490  0.4908  0.2574
  237SOL    HW1  710   1.570   0.694   0.502  0.9826  0.7690  1.8185
  237SOL    HW2  711   1.495   0.794   0.385  0.7327 -0.1631 -1.8162
  238SOL     OW  712   1.003   2.718   2.163  0.3244  0.3148 -0.3860
  238SOL    HW1  713   0.938   2.756   2.097 -0.6584  0.9908  1.5183
  238SOL    HW2  714   1.087   2.689   2.113 -0.9562 -0.7501  1.0657
  239SOL     OW  715   1.208   2.617   2.016  0.1340 -0.5517 -0.3492
  239SOL    HW1  716   1.178   2.674   1.939  1.0710  0.8968  0.3944
  239SOL    HW2  717   1.281   2.544   1.995  1.6385 -1.8581  0.8610
  240SOL     OW  718   2.032   2.934   0.708  0.0406  0.5833 -0.0569
  240SOL    HW1  719   1.990   2.841   0.720  0.4168  1.3480  0.9953
  240SOL    HW2  720   2.120   2.938   0.752 -1.3014 -0.4263 -1.4028
  241SOL     OW  721   1.388   1.233   2.094 -0.0428  0.7305  0.3042
  241SOL    HW1  722   1.371   1.138   2.122  0.4691  1.7226  2.0125
  241SOL    HW2  723   1.357   1.302   2.167  0.4520  1.7240  3.4292
  242SOL     OW  724   2.586   0.648   0.013  0.8975  0.8549  0.0398
  242SOL    HW1  725   2.636   0.735   0.024 -1.3917  1.2027 -1.5812
  242SOL    HW2  726   2.574   0.628   3.034 -1.9451 -1.9398 -1.6538
  243SOL     OW  727   0.875   0.851   1.238  0.4894 -0.4700  0.2640
  243SOL    HW1  728   0.960   0.848   1.181 -2.1409 -0.5559 -2.7301
  243SOL    HW2  729   0.886   0.808   1.335  0.2123 -1.6398  1.2847
  244SOL     OW  730   1.428   0.047   2.788  0.3544 -0.4988  0.0754
  244SOL    HW1  731   1.397   0.078   2.881 -2.7553  0.2918  1.8448
  244SOL    HW2  732   1.526   0.066   2.778 -0.5264 -4.0924  0.3329
  245SOL     OW  733   2.157   3.113   2.999 -0.4674 -0.0126 -0.4611
  245SOL    HW1  734   2.184   3.023   3.035  0.3898 -0.0668 -1.5024
  245SOL    HW2  735   2.170   3.115   2.898 -1.4260  0.8564  0.2411
  246SOL     OW  736   0.926   0.782   1.500 -0.4516  0.3076  0.0432
  246SOL    HW1  737   1.018   0.832   1.496  0.6005  0.9729 -0.2187
  246SOL    HW2  738   0.921   0.706   1.569  0.4010  0.7935  0.7165
  247SOL     OW  739   0.256   0.449   1.878  0.3692  0.2141 -0.2222
  247SOL    HW1  740   0.278   0.351   1.869  0.2070 -3.5291  0.1617
  247SOL    HW2  741   0.244   0.496   1.785 -4.1207 -0.3589 -1.5020
  248SOL     OW  742   0.000   1.940   2.053 -0.1291  0.2835  0.0365
  248SOL    HW1  743   0.038   1.848   2.043 -0.2845  2.7164  0.3321
  248SOL    HW2  744   3.073   1.954   2.139  0.7077  0.0596 -1.9028
  249SOL     OW  745   2.947   0.147   0.062  0.0586  0.3347 -0.3481
  249SOL    HW1  746   2.962   0.247   0.075  0.2656  0.5555 -2.6353
  249SOL    HW2  747   2.964   0.119   3.089 -0.2475  2.8625  2.8736
  250SOL     OW  748   2.810   0.160   0.309 -0.4988  0.1457 -0.4109
  250SOL    HW1  749   2.849   0.141   0.219 -1.5992 -0.1575  1.8602
  250SOL    HW2  750   2.719   0.111   0.325 -2.6270 -2.2861 -0.4571
  251SOL     OW  751   1.052   1.634   1.743 -0.6177 -0.6449 -1.0353
  251SOL    HW1  752   1.043   1.666   1.648  3.0305 -1.2431 -0.2607
  251SOL    HW2  753   0.962   1.614   1.785 -1.4033  2.1323  0.3760
  252SOL     OW  754   1.791   2.808   1.274  0.3830 -0.4566  0.0828
  252SOL    HW1  755   1.863   2.811   1.345 -2.0573  0.3000  1.2263
  252SOL    HW2  756   1.806   2.732   1.211  0.5093  0.7314  0.2042
  253SOL     OW  757   2.281   1.920   2.557 -0.4319 -0.6509  0.2511
  253SOL    HW1  758   2.258   2.014   2.518  0.9123  0.3781 -4.4827
  253SOL    HW2  759   2.344   1.872   2.495 -1.7900  1.8963  1.6887
  254SOL     OW  760   0.785   2.085   1.988  0.5744  0.0498 -0.1870
  254SOL    HW1  761   0.756   2.012   2.057  2.6208 -2.0700 -0.1595
  254SOL    HW2  762   0.727   2.078   1.905 -1.0213 -3.3354  1.2934
  255SOL     OW  763   1.239   0.215   1.444 -0.3673  0.1933  0.5177
  255SOL    HW1  764   1.328   0.184   1.398 -0.6714  1.2359  1.2544
  255SOL    HW2  765   1.159   0.189   1.389  1.0593 -0.3167 -1.1550
  256SOL     OW  766   2.301   2.142   1.351 -0.4960  0.0051 -0.5138
  256SOL    HW1  767   2.213   2.108   1.320  2.0733  1.3010  0.5497
  256SOL    HW2  768   2.370   2.071   1.375  0.4151 -1.0457 -1.2038
  257SOL     OW  769   0.551   2.188   3.078  0.4340  0.0316  0.3244
  257SOL    HW1  770   0.647   2.200   3.048  0.1646 -2.1527 -0.7097
  257SOL    HW2  771   0.501   2.276   3.064 -0.8610  1.8926 -0.1910
  258SOL     OW  772   0.426   1.354   3.073  0.2225 -0.5268 -0.7878
  258SOL    HW1  773   0.465   1.369   2.980 -0.8889  0.4418 -1.8129
  258SOL    HW2  774   0.393   1.258   3.082 -1.2479  1.6470 -1.0168
  259SOL     OW  775   0.788   1.359   2.672  0.0985 -0.2086  0.1554
  259SOL    HW1  776   0.736   1.299   2.607  2.6999 -1.3479  0.6686
  259SOL    HW2  777   0.832   1.440   2.624  0.6357  0.5377  0.2848
  260SOL     OW  778   1.988   0.931   1.321 -0.0445  0.3138 -0.0300
  260SOL    HW1  779   1.922   0.948   1.395 -1.9776  1.3502 -2.7415
  260SOL    HW2  780   1.959   0.999   1.255 -0.3731 -0.9722  0.4818
  261SOL     OW  781   1.168   0.325   0.976 -0.1429 -0.1323  0.7546
  261SOL    HW1  782   1.119   0.231   0.984 -2.7824  1.2504 -1.1463
  261SOL    HW2  783   1.106   0.393   1.011  2.8294 -2.1329 -0.0822
  262SOL     OW  784   2.198   2.170   2.485 -0.0337 -0.0778 -0.1626
  262SOL    HW1  785   2.204   2.259   2.538  2.3275  1.9943  0.2826
  262SOL    HW2  786   2.116   2.168   2.429 -1.6592 -1.9680 -1.0765
  263SOL     OW  787   2.999   1.562   2.976 -0.6883 -0.1284  0.1952
  263SOL    HW1  788   3.028   1.625   2.903  0.6105  0.2982  0.0511
  263SOL    HW2  789   3.080   1.514   3.010  0.1569  0.3774  0.5863
  264SOL     OW  790   0.342   1.898   0.976  0.5798  0.1468 -0.3150
  264SOL    HW1  791   0.441   1.925   0.965 -0.0672 -1.2640  0.4597
  264SOL    HW2  792   0.310   1.865   0.883  1.2702 -1.7949 -1.9571
  265SOL     OW  793   0.534   0.951   0.865 -0.3027  0.0346 -0.0280
  265SOL    HW1  794   0.527   1.004   0.782 -0.7669 -0.2631  0.3114
  265SOL    HW2  795   0.533   1.014   0.946  0.9220 -0.2239  0.2375
  266SOL     OW  796   1.436   1.697   2.959  0.1807  0.1677 -0.2212
  266SOL    HW1  797   1.513   1.738   2.906 -0.1692  0.8082  1.8141
  266SOL    HW2  798   1.469   1.670   3.052 -0.9400  1.5312 -0.1794
  267SOL     OW  799   0.722   1.199   2.411 -0.5253 -0.1327 -0.5929
  267SOL    HW1  800   0.822   1.182   2.399 -0.2534  1.3087 -2.1175
  267SOL    HW2  801   0.677   1.109   2.420  0.6720 -0.8809 -1.4598
  268SOL     OW  802   0.739   0.914   0.002  0.1561  0.3291  0.3708
  268SOL    HW1  803   0.829   0.870   3.106  0.9344  2.7458 -2.6150
  268SOL    HW2  804   0.739   0.977   0.084  0.9782  1.5925  2.4616
  269SOL     OW  805   1.928   2.915   2.595  0.1397 -0.3082  0.1138
  269SOL    HW1  806   1.885   2.936   2.506  0.3619  2.1137 -0.0352
  269SOL    HW2  807   1.858   2.912   2.669 -0.0654 -0.6688 -0.9777
  270SOL     OW  808   1.134   1.167   2.654 -0.5177 -0.2692  0.2863
  270SOL    HW1  809   1.222   1.117   2.639  4.8299 -0.6550 -0.0206
  270SOL    HW2  810   1.075   1.126   2.723  0.8546  0.9663 -2.6963
  271SOL     OW  811   3.011   0.406   0.059  0.2976 -0.0654 -0.2819
  271SOL    HW1  812   3.102   0.365   0.092 -2.9959 -1.4036  1.1330
  271SOL    HW2  813   3.021   0.494   0.004 -2.5141  0.5892 -0.6906
  272SOL     OW  814   2.435   0.895   2.824  0.9695  0.1156 -0.1111
  272SOL    HW1  815   2.378   0.961   2.877 -0.1905  0.7829  0.1466
  272SOL    HW2  816   2.505   0.943   2.763 -2.4549  0.4590 -0.2248
  273SOL     OW  817   0.240   0.146   1.923 -0.0802  0.4176  0.3818
  273SOL    HW1  818   0.175   0.199   1.981  2.6142 -0.5339  0.3357
  273SOL    HW2  819   0.283   0.065   1.976  1.3003 -1.1143  0.7117
  274SOL     OW  820   0.020   0.501   2.031  0.3646  0.6562 -0.4235
  274SOL    HW1  821   0.100   0.502   1.972 -1.4603  0.3618  0.3359
  274SOL    HW2  822   0.008   0.405   2.067 -0.5130 -0.3745 -2.0498
  275SOL     OW  823   1.769   1.699   0.627 -0.1146 -0.0716  0.0552
  275SOL    HW1  824   1.798   1.699   0.527 -0.6879 -0.9116  0.4262
  275SOL    HW2  825   1.686   1.751   0.642  0.5658 -2.4970  3.0491
  276SOL     OW  826   0.572   1.310   2.193 -0.0014  0.7071  0.2440
  276SOL    HW1  827   0.641   1.268   2.258 -1.2748  1.3760 -0.9550
  276SOL    HW2  828   0.537   1.389   2.245 -0.6226 -2.1025  4.0266
  277SOL     OW  829   2.152   2.788   2.510  0.6962 -0.5919 -0.4554
  277SOL    HW1  830   2.096   2.718   2.459 -0.3440  2.3020  2.3426
  277SOL    HW2  831   2.090   2.841   2.573  1.3624  0.8370  3.8980
  278SOL     OW  832   2.016   2.814   1.875  0.1420  0.2890  0.0599
  278SOL    HW1  833   1.930   2.821   1.816 -2.8915 -1.2038 -0.1736
  278SOL    HW2  834   2.083   2.758   1.821  2.3393  1.6688  1.8733
  279SOL     OW  835   1.608   1.222   3.041  0.0668  0.1929  0.5883
  279SOL    HW1  836   1.519   1.269   3.026  0.3870  0.3388 -1.0028
  279SOL    HW2  837   1.626   1.213   0.016 -0.3434 -3.7949 -1.9547
  280SOL     OW  838   0.675   1.437   0.151  0.4240  0.4187 -0.6671
  280SOL    HW1  839   0.756   1.496   0.143 -0.1499 -0.4685  0.9272
  280SOL    HW2  840   0.611   1.449   0.069  2.7958  3.4107 -2.0814
  281SOL     OW  841   3.108   3.030   1.203 -0.3263 -0.0402 -0.4281
  281SOL    HW1  842   0.079   3.008   1.243  0.3792  1.8711 -0.0395
  281SOL    HW2  843   3.058   3.093   1.266 -2.3927  1.4757  3.4281
  282SOL     OW  844   2.866   2.151   0.718  0.5441  0.0348 -0.0455
  282SOL    HW1  845   2.959   2.171   0.752 -0.7857 -0.0775 -1.2307
  282SOL    HW2  846   2.828   2.226   0.662 -0.7233  0.6357  0.4179
  283SOL     OW  847   1.175   1.929   2.034  0.1032  0.5866  0.5658
  283SOL    HW1  848   1.222   2.002   2.084 -2.9393  0.4682  0.3823
  283SOL    HW2  849   1.095   1.903   2.090  2.8753  0.9454  0.9841
  284SOL     OW  850   1.969   3.013   0.199  1.1247  0.0700 -0.2976
  284SOL    HW1  851   2.017   3.091   0.246 -0.7219 -1.4221  2.6580
  284SOL    HW2  852   1.939   3.032   0.104  0.5778 -0.6484  2.8703
  285SOL     OW  853   3.105   2.738   2.436 -0.5255 -0.0288  0.3247
  285SOL    HW1  854   3.099   2.831   2.475 -1.1321 -1.2427  0.9901
  285SOL    HW2  855   3.064   2.672   2.500  0.1665 -1.1757 -1.4615
  286SOL     OW  856   2.150   2.613   1.355  0.6983  0.9161 -0.2631
  286SOL    HW1  857   2.099   2.677   1.416  1.1101 -2.4832 -0.7396
  286SOL    HW2  858   2.203   2.543   1.406 -2.0156 -0.1674 -3.7795
  287SOL     OW  859   0.413   1.610   0.710  0.3686 -0.1753  1.0042
  287SOL    HW1  860   0.393   1.551   0.792 -1.0298 -0.9100  1.3776
  287SOL    HW2  861   0.514   1.619   0.693 -0.9356 -0.7184 -0.0091
  288SOL     OW  862   2.167   1.904   2.937  0.1930  0.0161  0.4226
  288SOL    HW1  863   2.094   1.978   2.932 -2.6974 -0.0815  1.0304
  288SOL    HW2  864   2.255   1.942   2.907  1.4971 -0.3636  0.7465
  289SOL     OW  865   0.451   1.702   2.519 -0.3659  0.1566  0.2402
  289SOL    HW1  866   0.511   1.769   2.474  0.5702  0.5678  3.2137
  289SOL    HW2  867   0.465   1.702   2.620  2.7061 -1.7126 -2.3964
  290SOL     OW  868   1.021   2.264   1.277 -0.3268 -0.4269  0.2836
  290SOL    HW1  869   1.007   2.251   1.374  0.6519 -0.2324 -3.0796
  290SOL    HW2  870   1.033   2.175   1.232  0.7527  2.9230  0.6443
  291SOL     OW  871   1.743   1.136   2.812  0.2987 -0.1877 -0.3511
  291SOL    HW1  872   1.836   1.168   2.806  0.7945  0.2558 -0.3847
  291SOL    HW2  873   1.695   1.174   2.899  1.8584 -0.3753  0.0771
  292SOL     OW  874   0.984   1.462   0.758  0.1565 -0.1841 -0.2439
  292SOL    HW1  875   0.950   1.382   0.806 -1.9817 -0.6152  3.3652
  292SOL    HW2  876   1.049   1.423   0.687  2.3707  0.1244 -0.6190
  293SOL     OW  877   1.341   2.927   1.094 -0.3057 -0.4670  0.4425
  293SOL    HW1  878   1.438   2.903   1.071 -1.9023 -3.2157 -1.5638
  293SOL    HW2  879   1.293   2.979   1.019 -0.2272 -1.0448  0.1336
  294SOL     OW  880   3.005   0.840   2.882 -0.5212 -0.4816 -0.3680
  294SOL    HW1  881   2.967   0.895   2.956 -0.4986  0.1088 -0.1430
  294SOL    HW2  882   2.930   0.799   2.828  0.5272 -1.0119 -1.5617
  295SOL     OW  883   1.753   2.129   2.728  0.8119  0.0601 -0.3222
  295SOL    HW1  884   1.808   2.198   2.786  0.1417  0.0907  2.1164
  295SOL    HW2  885   1.788   2.120   2.631  1.1950  0.6115 -1.6754
  296SOL     OW  886   1.822   0.894   2.102  0.1951  0.0710 -0.0605
  296SOL    HW1  887   1.757   0.966   2.080 -0.1606  1.5294  1.8445
  296SOL    HW2  888   1.864   0.904   2.197 -1.7942 -0.9533 -3.0331
  297SOL     OW  889   0.020   0.817   2.225 -0.4968 -0.9256 -0.2783
  297SOL    HW1  890   3.058   0.803   2.172  0.1670 -1.1975  0.0857
  297SOL    HW2  891   0.078   0.890   2.182  0.4484  0.2488 -0.6684
  298SOL     OW  892   1.299   2.152   2.134 -0.2796 -0.0656  0.0154
  298SOL    HW1  893   1.274   2.205   2.051  1.2296 -0.3058 -1.1011
  298SOL    HW2  894   1.234   2.161   2.213  0.5600  0.5240  0.6571
  299SOL     OW  895   0.632   2.845   2.554 -0.2741  0.1382  0.0143
  299SOL    HW1  896   0.720   2.890   2.538 -1.9846  0.7364  0.7619
  299SOL    HW2  897   0.609   2.777   2.480 -1.7077  1.1771 -1.5506
  300SOL     OW  898   0.123   0.789   2.736 -0.4024  0.6304  0.2756
  300SOL    HW1  899   0.084   0.694   2.737 -1.2454  2.1916 -0.3515
  300SOL    HW2  900   0.040   0.848   2.744 -0.6623  0.6778  1.3011
  301SOL     OW  901   1.809   1.013   1.499  0.1388 -0.2658 -0.4700
  301SOL    HW1  902   1.822   0.934   1.564 -0.4040 -0.5978 -3.3718
  301SOL    HW2  903   1.857   1.099   1.535  3.2321 -0.3849  0.7501
  302SOL     OW  904   2.671   1.966   2.427 -0.1007 -0.1399 -0.5930
  302SOL    HW1  905   2.657   1.878   2.470  1.1246  0.3646  1.0413
  302SOL    HW2  906   2.587   1.995   2.376 -0.2080  1.6259 -0.2586
  303SOL     OW  907   0.164   3.104   2.440  0.0573 -0.1055 -0.6780
  303SOL    HW1  908   0.257   3.068   2.451  1.7776 -1.1447 -0.5507
  303SOL    HW2  909   0.157   0.083   2.437 -1.8502  0.5462  0.3377
  304SOL     OW  910   0.249   1.005   1.551 -0.9413  0.4667  0.2069
  304SOL    HW1  911   0.285   1.104   1.546  1.4878  1.7285  1.5874
  304SOL    HW2  912   0.187   1.010   1.632  0.6659  0.7549  1.3813
  305SOL     OW  913   3.005   0.107   1.348 -0.6455  0.3281 -0.3262
  305SOL    HW1  914   2.991   0.208   1.339  1.8246 -0.8053 -1.3990
  305SOL    HW2  915   3.077   0.086   1.416 -2.5243  0.3232 -0.1287
  306SOL     OW  916   2.617   1.272   1.233 -0.2780 -0.0183  0.3118
  306SOL    HW1  917   2.599   1.253   1.330  0.7795 -0.0907 -1.0915
  306SOL    HW2  918   2.675   1.354   1.233 -2.3992  1.1510 -1.3806
  307SOL     OW  919   2.116   0.143   0.911 -0.4964 -0.2284 -0.4667
  307SOL    HW1  920   2.140   0.055   0.959 -0.4038 -1.6404 -0.3149
  307SOL    HW2  921   2.095   0.219   0.976 -0.1055  1.1059 -0.6449
  308SOL     OW  922   2.694   2.071   1.208 -0.0309 -0.0840 -0.3738
  308SOL    HW1  923   2.696   2.103   1.112  1.6816  0.5395 -1.1214
  308SOL    HW2  924   2.769   2.011   1.233 -1.8095  2.4207 -1.0477
  309SOL     OW  925   2.100   1.929   1.525  0.2287 -0.0106  0.6562
  309SOL    HW1  926   2.099   1.929   1.422 -1.0722 -1.7610  0.3705
  309SOL    HW2  927   2.084   1.832   1.557 -1.0870 -1.3871 -1.9960
  310SOL     OW  928   2.479   1.413   2.843  0.5060 -0.3679 -0.2802
  310SOL    HW1  929   2.503   1.476   2.919  1.7940 -0.3982 -0.3719
  310SOL    HW2  930   2.381   1.394   2.849  0.2879  0.6158 -0.4289
  311SOL     OW  931   2.016   1.137   2.858 -0.1603 -0.2853 -0.1221
  311SOL    HW1  932   2.043   1.172   2.763 -1.1953  1.6651  1.3115
  311SOL    HW2  933   2.055   1.049   2.886 -0.2577  2.2795  0.0955
  312SOL     OW  934   1.557   2.213   2.126  0.3459 -0.4202  1.1264
  312SOL    HW1  935   1.582   2.225   2.221  0.5806 -0.2460 -1.7782
  312SOL    HW2  936   1.464   2.182   2.120  2.1558  1.1574 -1.6837
  313SOL     OW  937   0.339   2.862   1.060 -0.2465 -0.3963  0.2481
  313SOL    HW1  938   0.266   2.857   0.995  0.9529 -1.3024  0.5596
  313SOL    HW2  939   0.417   2.812   1.023 -1.6191  1.5066  0.4024
  314SOL     OW  940   0.626   1.671   1.250  0.3916 -0.0904  0.1763
  314SOL    HW1  941   0.560   1.607   1.299  0.0710 -2.1651 -0.5709
  314SOL    HW2  942   0.605   1.678   1.151 -1.0660 -0.3964  0.9013
  315SOL     OW  943   0.545   2.892   2.186  0.3841 -0.2731 -0.2439
  315SOL    HW1  944   0.594   2.947   2.261 -1.2132  0.7854  0.7927
  315SOL    HW2  945   0.445   2.890   2.201  1.0200  3.1402  2.1007
  316SOL     OW  946   0.044   2.219   1.016  0.1216 -0.1819 -0.0287
  316SOL    HW1  947   3.094   2.252   1.086 -0.2453 -0.2057  3.1009
  316SOL    HW2  948   0.135   2.208   1.056 -0.6003  1.4438 -0.4412
  317SOL     OW  949   1.898   0.666   0.451 -0.7598 -0.1828 -0.2905
  317SOL    HW1  950   1.841   0.604   0.391  2.5267 -0.8923  0.0389
  317SOL    HW2  951   1.968   0.617   0.500 -1.1639  0.8923 -2.5435
  318SOL     OW  952   2.935   2.510   3.067  0.2775 -0.3118 -0.0504
  318SOL    HW1  953   2.918   2.515   0.041  3.3425  0.4262 -1.8092
  318SOL    HW2  954   2.944   2.601   3.023 -0.9114  1.2666  0.9983
  319SOL     OW  955   1.472   1.635   0.098 -0.1988  0.2256  0.2664
  319SOL    HW1  956   1.427   1.594   0.182 -0.0625 -2.5656 -0.1571
  319SOL    HW2  957   1.475   1.739   0.100  0.5512  2.6695 -0.3050
  320SOL     OW  958   0.689   2.318   2.761  0.2290 -0.6773  0.3235
  320SOL    HW1  959   0.610   2.252   2.768 -0.5611  1.7540  2.9634
  320SOL    HW2  960   0.749   2.314   2.844 -0.7705 -3.1030 -0.6831
  321SOL     OW  961   0.997   2.903   0.266  0.3832 -0.4179 -0.3805
  321SOL    HW1  962   0.963   2.894   0.168 -0.4599  1.7350 -3.8884
  321SOL    HW2  963   1.089   2.861   0.284  0.4378 -0.8612 -0.1913
  322SOL     OW  964   2.154   0.601   2.168  0.5894 -1.1415 -0.2911
  322SOL    HW1  965   2.126   0.629   2.076 -2.0969 -1.5449  1.3946
  322SOL    HW2  966   2.190   0.509   2.165  1.7583  3.0964 -1.0703
  323SOL     OW  967   2.773   1.027   0.652 -0.0962 -0.3430  0.1683
  323SOL    HW1  968   2.858   1.021   0.711  1.5416 -0.4420  1.2023
  323SOL    HW2  969   2.775   1.104   0.583 -0.4274 -1.1353 -1.9968
  324SOL     OW  970   0.278   0.347   2.270  0.2858  0.1527 -0.5349
  324SOL    HW1  971   0.252   0.445   2.285  2.5938  2.6983 -0.7651
  324SOL    HW2  972   0.349   0.343   2.199  0.1442 -0.1056  0.6994
  325SOL     OW  973   0.689   3.054   2.347  0.1898 -0.7765  0.2530
  325SOL    HW1  974   0.624   0.004   2.312 -2.4881  2.4266 -0.8200
  325SOL    HW2  975   0.720   3.081   2.442 -1.4675 -1.5930  0.9393
  326SOL     OW  976   2.564   2.476   0.730  0.6720  0.0633  0.3585
  326SOL    HW1  977   2.490   2.442   0.795 -1.3199  0.3033  1.3114
  326SOL    HW2  978   2.640   2.530   0.773 -1.3004 -0.5139  0.4688
  327SOL     OW  979   1.690   1.021   0.117 -0.4611 -0.0293 -0.3985
  327SOL    HW1  980   1.651   0.957   0.181  3.0764  1.8221 -1.1116
  327SOL    HW2  981   1.684   0.978   0.025 -0.4108 -0.1188  0.8166
  328SOL     OW  982   0.314   1.997   2.154  0.0242  0.0521 -0.5959
  328SOL    HW1  983   0.362   2.076   2.203  1.9203  0.6408  2.3536
  328SOL    HW2  984   0.217   1.992   2.187 -1.7234 -0.9621  0.5865
  329SOL     OW  985   2.771   2.748   1.644 -0.3687  0.0244 -0.2259
  329SOL    HW1  986   2.840   2.683   1.600 -0.2377 -1.9562 -2.0359
  329SOL    HW2  987   2.745   2.724   1.742  2.0114 -1.4533  3.1619
  330SOL     OW  988   2.586   1.387   1.819  0.0751  0.3733  0.1665
  330SOL    HW1  989   2.508   1.373   1.885 -1.1575 -0.9489  0.2434
  330SOL    HW2  990   2.678   1.386   1.868  2.9973 -1.0371  1.5115
  331SOL     OW  991   2.691   2.163   0.929 -0.0619 -0.1982  0.1367
  331SOL    HW1  992   2.759   2.142   0.863 -3.3330 -0.2945  1.3059
  331SOL    HW2  993   2.596   2.146   0.884 -1.1077  0.9877 -1.6052
  332SOL     OW  994   0.663   2.652   0.263 -0.1996 -0.4617 -0.0953
  332SOL    HW1  995   0.611   2.728   0.216  2.0328  0.0961 -0.8997
  332SOL    HW2  996   0.719   2.691   0.342  2.7005  1.3420  1.2931
  333SOL     OW  997   2.067   0.223   2.448  0.5565  0.0443 -0.3802
  333SOL    HW1  998   1.975   0.266   2.481 -0.4076 -0.8846 -0.6503
  333SOL    HW2  999   2.058   0.174   2.355 -0.0904 -1.4724 -4.7301
  334SOL     OW 1000   0.702   0.906   0.580 -0.4288 -0.7902 -0.4170
  334SOL    HW1 1001   0.743   0.957   0.661 -1.1102  0.7957  0.1088
  334SOL    HW2 1002   0.650   0.971   0.515  1.7358 -0.3330 -0.6131
  335SOL     OW 1003   0.275   2.843   2.232  0.0587 -0.2758 -0.1857
  335SOL    HW1 1004   0.272   2.798   2.321  1.1107 -0.7561 -0.4159
  335SOL    HW2 1005   0.232   2.780   2.165 -4.0149  0.1128  1.4466
  336SOL     OW 1006   2.819   2.929   2.404  0.1005  0.4603 -0.1401
  336SOL    HW1 1007   2.790   2.849   2.347 -0.3489  1.4804  0.4141
  336SOL    HW2 1008   2.914   2.958   2.381  2.0448 -0.3372 -0.6906
  337SOL     OW 1009   1.342   1.712   0.857  0.1559  0.7850  1.0780
  337SOL    HW1 1010   1.357   1.750   0.947  2.3742 -0.6964 -3.2700
  337SOL    HW2 1011   1.385   1.620   0.848  3.2671 -0.8250  0.0942
  338SOL     OW 1012   0.886   1.912   0.893  0.2150 -0.0099  0.0888
  338SOL    HW1 1013   0.957   1.840   0.911  1.3918  1.2717 -3.0608
  338SOL    HW2 1014   0.819   1.875   0.827  0.4297  3.3620  3.4521
  339SOL     OW 1015   0.320   1.265   1.556 -0.1670  0.0791  0.3675
  339SOL    HW1 1016   0.269   1.356   1.544  1.4546  0.6639 -1.8618
  339SOL    HW2 1017   0.420   1.276   1.550  1.5009 -3.3988  1.9183
  340SOL     OW 1018   1.665   2.769   2.245  0.0871  0.1980  0.6364
  340SOL    HW1 1019   1.681   2.693   2.176 -0.1550 -1.5332 -2.5176
  340SOL    HW2 1020   1.568   2.772   2.277  0.2411  1.2010 -2.2739
  341SOL     OW 1021   1.849   1.529   0.913 -0.8935  0.2973  0.0511
  341SOL    HW1 1022   1.871   1.545   1.013 -2.9177  0.3856 -1.1458
  341SOL    HW2 1023   1.752   1.499   0.892 -0.9825 -1.7314 -0.7075
  342SOL     OW 1024   2.918   1.406   0.732 -0.2859 -0.3599  0.0712
  342SOL    HW1 1025   2.891   1.437   0.638 -0.0250 -1.3119  0.6856
  342SOL    HW2 1026   2.841   1.418   0.800 -0.8040  0.8883  0.5877
  343SOL     OW 1027   2.903   1.156   1.385 -0.4741 -0.5541  0.2298
  343SOL    HW1 1028   2.856   1.151   1.477 -1.2865 -1.9570  1.6614
  343SOL    HW2 1029   2.994   1.110   1.399  2.5733 -3.1579  0.5494
  344SOL     OW 1030   2.002   0.603   0.995 -0.5767  0.2842  0.6036
  344SOL    HW1 1031   1.902   0.621   1.016  0.4685 -0.1550 -1.9699
  344SOL    HW2 1032   2.058   0.625   1.081  0.8736 -0.1956 -0.0682
  345SOL     OW 1033   0.436   3.058   2.545  0.3925  0.1436 -0.0308
  345SOL    HW1 1034   0.490   2.976   2.550 -0.6535 -0.5116 -3.4901
  345SOL    HW2 1035   0.464   3.116   2.467 -0.3159  1.8676  0.9679
  346SOL     OW 1036   2.398   1.348   0.157  0.1110  0.0857 -0.4096
  346SOL    HW1 1037   2.402   1.448   0.184  1.1588  3.3621 -0.0148
  346SOL    HW2 1038   2.314   1.305   0.196 -1.4949 -0.6382  1.7357
  347SOL     OW 1039   1.959   2.779   2.121 -0.5140 -0.3374 -0.4718
  347SOL    HW1 1040   1.856   2.764   2.131 -1.1430 -1.3392  2.1507
  347SOL    HW2 1041   1.983   2.776   2.019  1.7056 -2.2383  0.0689
  348SOL     OW 1042   0.859   1.347   1.358 -0.0346  0.4794  0.0102
  348SOL    HW1 1043   0.961   1.343   1.336 -0.4318 -1.6297  1.1011
  348SOL    HW2 1044   0.831   1.257   1.388  1.6500  4.5166 -1.2817
  349SOL     OW 1045   2.413   1.042   1.855 -0.5188  0.1928  0.3316
  349SOL    HW1 1046   2.440   0.945   1.835  0.9152  0.2400 -1.4374
  349SOL    HW2 1047   2.491   1.104   1.834 -0.2629 -0.5659 -2.8435
  350SOL     OW 1048   2.499   2.184   0.240 -0.1915  0.2137 -0.1054
  350SOL    HW1 1049   2.453   2.124   0.170 -2.1327  3.0474  1.5785
  350SOL    HW2 1050   2.449   2.269   0.246  1.1929 -1.3679  1.8886
  351SOL     OW 1051   0.326   0.277   1.513 -0.2023 -0.3732 -0.1528
  351SOL    HW1 1052   0.370   0.196   1.563  0.4691 -2.7521  1.6201
  351SOL    HW2 1053   0.223   0.265   1.511  0.5510 -1.5789  1.9489
  352SOL     OW 1054   1.945   2.429   2.019  0.0077  0.0943 -0.1181
  352SOL    HW1 1055   2.009   2.397   2.092  2.0300  1.0110 -0.8692
  352SOL    HW2 1056   1.921   2.346   1.960 -0.3124 -1.6069 -3.6909
  353SOL     OW 1057   0.880   1.513   2.081  0.7336 -1.0951  0.2254
  353SOL    HW1 1058   0.806   1.472   2.138 -1.5631 -1.1114 -2.3030
  353SOL    HW2 1059   0.964   1.454   2.083 -1.3162 -1.2820 -0.3971
  354SOL     OW 1060   1.391   1.780   0.368 -0.5845 -0.1346 -0.1919
  354SOL    HW1 1061   1.398   1.676   0.368  2.6661  2.4050 -0.5314
  354SOL    HW2 1062   1.319   1.819   0.310 -0.3025  0.0353  2.3495
  355SOL     OW 1063   1.851   0.104   0.807  0.0402 -0.0642 -0.2291
  355SOL    HW1 1064   1.874   0.039   0.736  2.0101 -0.3881  2.7606
  355SOL    HW2 1065   1.936   0.146   0.845  1.3990  1.4025 -2.5941
  356SOL     OW 1066   2.732   1.203   0.056 -0.0395 -0.5415  0.5498
  356SOL    HW1 1067   2.741   1.148   0.139 -0.1972 -1.8819 -0.6336
  356SOL    HW2 1068   2.782   1.294   0.063  0.6567 -1.4155 -2.9166
  357SOL     OW 1069   3.053   3.043   2.309 -0.6627 -0.4109  0.0725
  357SOL    HW1 1070   0.019   3.084   2.339 -0.7791 -0.2407 -3.2614
  357SOL    HW2 1071   3.012   3.094   2.236 -0.9172 -1.3054  1.4975
  358SOL     OW 1072   0.197   1.255   0.535  0.5520 -0.0330 -0.4708
  358SOL    HW1 1073   0.236   1.163   0.507 -1.9294 -1.0908 -0.7957
  358SOL    HW2 1074   0.126   1.246   0.607  2.1264 -2.0601 -1.5095
  359SOL     OW 1075   2.698   2.981   2.793 -0.5777  0.1611  0.3431
  359SOL    HW1 1076   2.618   2.979   2.731  1.3514 -0.6851  1.1181
  359SOL    HW2 1077   2.665   2.939   2.881  0.0360  0.8695  1.9378
  360SOL     OW 1078   1.351   1.012   1.194 -0.1798 -0.0003  0.5038
  360SOL    HW1 1079   1.431   1.056   1.234 -2.4018 -1.6462 -1.0323
  360SOL    HW2 1080   1.329   1.057   1.110  0.1303  0.7684  3.0129
  361SOL     OW 1081   2.330   2.337   1.166 -0.2746  0.0568  0.6025
  361SOL    HW1 1082   2.337   2.257   1.228 -0.3858 -1.5510  3.1681
  361SOL    HW2 1083   2.308   2.425   1.212 -1.1043 -1.8187 -0.0900
  362SOL     OW 1084   1.390   0.479   1.232 -0.6969  0.4563  0.6839
  362SOL    HW1 1085   1.426   0.454   1.323 -1.3212 -0.6231 -2.2376
  362SOL    HW2 1086   1.398   0.399   1.163 -1.1982 -0.8768 -0.4369
  363SOL     OW 1087   2.091   2.359   0.364 -0.3488  0.0130 -0.7580
  363SOL    HW1 1088   2.012   2.345   0.430  0.1956  0.3577 -0.6734
  363SOL    HW2 1089   2.066   2.441   0.308  0.4732 -2.7489  0.1163
  364SOL     OW 1090   0.014   0.475   1.001 -0.0592 -0.0972  0.5460
  364SOL    HW1 1091   0.024   0.376   1.000 -1.8018 -0.6798 -2.2799
  364SOL    HW2 1092   0.072   0.518   1.072 -1.4545  1.6694 -0.2678
  365SOL     OW 1093   0.344   3.028   0.647  0.4723  0.1747  0.5168
  365SOL    HW1 1094   0.257   3.011   0.698  3.2711 -0.9489 -2.0929
  365SOL    HW2 1095   0.410   3.069   0.712 -0.3774 -0.9251 -2.4414
  366SOL     OW 1096   3.009   1.449   0.228  0.6004 -0.3271 -0.0950
  366SOL    HW1 1097   3.098   1.402   0.245 -1.0436  1.6032  0.0980
  366SOL    HW2 1098   3.030   1.545   0.202 -0.8168 -1.7183 -1.8294
  367SOL     OW 1099   2.728   2.451   2.568 -0.2766 -0.2802  0.3361
  367SOL    HW1 1100   2.677   2.530   2.603  0.6093 -3.3371 -1.8397
  367SOL    HW2 1101   2.697   2.435   2.470 -0.6843 -3.1567 -1.1770
  368SOL     OW 1102   2.284   1.706   0.604  0.1365  0.3282 -0.1934
  368SOL    HW1 1103   2.236   1.636   0.546 -1.4596 -1.4142 -0.5749
  368SOL    HW2 1104   2.386   1.703   0.586  1.2858 -2.9105  0.5329
  369SOL     OW 1105   1.246   0.551   0.046  0.2362 -0.2350  0.0941
  369SOL    HW1 1106   1.152   0.583   0.076  0.7679  3.6584  0.7715
  369SOL    HW2 1107   1.309   0.546   0.124  0.0074 -0.6473 -1.9917
  370SOL     OW 1108   0.577   3.056   1.037  0.2755  0.4085 -0.5575
  370SOL    HW1 1109   0.561   3.101   1.125 -0.0292 -1.7269 -2.2222
  370SOL    HW2 1110   0.500   2.990   1.030 -3.5278 -0.3777 -0.8812
  371SOL     OW 1111   2.878   1.374   2.781 -0.0442  0.0685 -0.6250
  371SOL    HW1 1112   2.886   1.473   2.798  0.6412 -3.9247 -1.4560
  371SOL    HW2 1113   2.797   1.343   2.832  1.5723  1.4797 -0.2541
  372SOL     OW 1114   0.626   0.567   2.572 -0.5553  0.7454 -0.4125
  372SOL    HW1 1115   0.713   0.513   2.577  1.0343  0.7144  2.7374
  372SOL    HW2 1116   0.564   0.538   2.646 -1.4161 -1.0332  0.7518
  373SOL     OW 1117   0.554   0.447   3.105 -0.3289  0.2801  0.5249
  373SOL    HW1 1118   0.610   0.528   3.079  0.3555  0.8789 -0.6610
  373SOL    HW2 1119   0.607   0.362   3.115 -0.8703 -1.9663 -0.6748
  374SOL     OW 1120   1.282   1.987   3.067 -0.1222 -0.5907  0.1622
  374SOL    HW1 1121   1.219   1.961   2.994  0.6095 -1.4702  1.1198
  374SOL    HW2 1122   1.356   2.037   3.019 -2.0208  1.5129 -1.3920
  375SOL     OW 1123   0.796   0.027   1.552  0.2399  0.2003  0.3957
  375SOL    HW1 1124   0.814   3.093   1.467 -0.3682 -1.9717 -2.9518
  375SOL    HW2 1125   0.884   0.072   1.578  0.0221  1.4749 -1.7401
  376SOL     OW 1126   0.193   2.678   2.024 -0.0597 -0.5292 -0.1287
  376SOL    HW1 1127   0.204   2.581   2.022  0.2368  5.7840  0.5135
  376SOL    HW2 1128   0.269   2.726   1.982 -4.0520 -1.5777  0.5513
  377SOL     OW 1129   3.015   2.285   2.940 -0.8428 -0.3941  0.0886
  377SOL    HW1 1130   2.984   2.369   2.993  1.9177  2.1792  0.0203
  377SOL    HW2 1131   2.943   2.219   2.953 -0.6442 -1.7112  0.1732
  378SOL     OW 1132   2.302   0.343   0.553  0.2303 -0.2090 -0.0617
  378SOL    HW1 1133   2.385   0.351   0.607  0.8494 -0.2675 -0.8905
  378SOL    HW2 1134   2.248   0.260   0.585 -0.2753 -0.2636  0.8269
  379SOL     OW 1135   1.322   0.798   0.647  0.1487  0.1003 -0.1610
  379SOL    HW1 1136   1.370   0.759   0.565 -2.2086  0.2134 -0.5733
  379SOL    HW2 1137   1.255   0.866   0.619  0.9925 -2.5384  1.1715
  380SOL     OW 1138   2.672   2.175   1.856 -0.2025 -0.2472 -0.6154
  380SOL    HW1 1139   2.754   2.222   1.827  0.6845 -1.8678  2.9350
  380SOL    HW2 1140   2.654   2.098   1.786 -0.8351  3.5910 -2.0190
  381SOL     OW 1141   2.879   1.343   1.888  0.1357 -0.7422 -0.0754
  381SOL    HW1 1142   2.917   1.437   1.894 -2.0780 -1.9135 -1.9016
  381SOL    HW2 1143   2.868   1.297   1.978 -0.3966  1.9915  1.0790
  382SOL     OW 1144   3.059   2.265   2.660 -0.2341 -0.0078  0.0512
  382SOL    HW1 1145   3.034   2.272   2.761 -0.3645 -2.3313  2.7885
  382SOL    HW2 1146   2.986   2.225   2.608 -0.8963 -0.1116 -0.1618
  383SOL     OW 1147   1.235   0.759   2.542  0.1969  0.4677 -0.1357
  383SOL    HW1 1148   1.185   0.772   2.454  1.4989  0.7565  0.8600
  383SOL    HW2 1149   1.331   0.793   2.533  0.6712 -0.0046 -0.9021
  384SOL     OW 1150   1.686   1.859   2.449  0.5896 -0.8279 -0.0193
  384SOL    HW1 1151   1.754   1.811   2.509 -1.1341 -0.3779  0.3736
  384SOL    HW2 1152   1.716   1.954   2.420 -0.7230  1.7585 -0.0732
  385SOL     OW 1153   2.601   2.740   0.284  0.2971  0.1905  0.0046
  385SOL    HW1 1154   2.572   2.652   0.332  1.2793  0.9069 -1.0427
  385SOL    HW2 1155   2.649   2.804   0.345  1.2544  2.1073  2.9122
  386SOL     OW 1156   1.818   1.198   0.479 -0.1991  0.1086  0.1992
  386SOL    HW1 1157   1.885   1.128   0.516  2.2892 -0.1279  0.1430
  386SOL    HW2 1158   1.834   1.289   0.515 -1.2420 -6.0792 -2.1813
  387SOL     OW 1159   2.876   1.893   1.353 -0.4195  0.3703  0.4417
  387SOL    HW1 1160   2.973   1.917   1.359  1.4183  0.1105 -1.3147
  387SOL    HW2 1161   2.856   1.799   1.386 -0.0133 -0.1262  1.7758
  388SOL     OW 1162   0.601   1.240   1.514  0.2176 -0.1405  0.1628
  388SOL    HW1 1163   0.600   1.226   1.614 -0.2633  2.0065 -0.1628
  388SOL    HW2 1164   0.667   1.171   1.472 -0.3407 -1.9405 -1.2143
  389SOL     OW 1165   2.335   0.835   2.591 -0.1132 -0.2857 -0.3900
  389SOL    HW1 1166   2.358   0.856   2.688 -2.4661 -2.6061 -0.2913
  389SOL    HW2 1167   2.262   0.898   2.563 -0.4675  2.8675  2.5611
  390SOL     OW 1168   0.937   1.656   3.034  0.2059  0.1457 -0.2686
  390SOL    HW1 1169   1.013   1.650   2.965 -0.5411  1.4504  0.3680
  390SOL    HW2 1170   0.886   1.567   3.036 -0.7324 -0.3988  3.0210
  391SOL     OW 1171   1.178   1.898   0.167  0.3781 -0.4357  0.2740
  391SOL    HW1 1172   1.077   1.897   0.156  1.4206  1.1199  2.7032
  391SOL    HW2 1173   1.230   1.904   0.078  1.4036  0.3692  0.4857
  392SOL     OW 1174   2.819   2.692   2.225 -0.5344  0.0476  0.0205
  392SOL    HW1 1175   2.922   2.695   2.218  0.3479 -2.4659  1.5142
  392SOL    HW2 1176   2.785   2.604   2.253  0.6673  0.2423 -0.3719
  393SOL     OW 1177   1.577   2.208   0.246  0.1694  0.4243 -0.5115
  393SOL    HW1 1178   1.585   2.299   0.202 -1.1537 -2.0791 -1.6523
  393SOL    HW2 1179   1.480   2.185   0.258 -0.8693 -1.8807  0.9196
  394SOL     OW 1180   0.688   0.291   2.286 -0.1906 -0.6261  0.1097
  394SOL    HW1 1181   0.771   0.235   2.309  1.2997  0.2559  1.2139
  394SOL    HW2 1182   0.721   0.390   2.297  0.2689 -0.4676  0.4498
  395SOL     OW 1183   0.339   1.958   1.504  0.0759 -0.4121  0.0086
  395SOL    HW1 1184   0.284   1.983   1.589  0.7111 -0.6032 -2.0269
  395SOL    HW2 1185   0.325   2.021   1.426  0.1986  2.4493 -0.9483
  396SOL     OW 1186   2.220   1.345   2.898 -0.2468  0.1844 -0.3407
  396SOL    HW1 1187   2.153   1.262   2.908 -0.7527 -3.8382  2.9617
  396SOL    HW2 1188   2.163   1.428   2.928 -0.4609 -1.3632 -0.0516
  397SOL     OW 1189   0.105   0.318   0.166  0.2395  0.1992 -0.0547
  397SOL    HW1 1190   0.202   0.363   0.175 -0.0703  0.7666 -0.7328
  397SOL    HW2 1191   0.054   0.333   0.252 -0.9262 -0.3634  0.0377
  398SOL     OW 1192   0.863   2.502   0.415  0.5660  0.0144  0.1225
  398SOL    HW1 1193   0.887   2.475   0.323  0.4222  1.9864  1.1182
  398SOL    HW2 1194   0.872   2.602   0.417  0.2402 -0.4335 -1.0905
  399SOL     OW 1195   1.971   2.447   2.725 -0.2799 -0.0305 -0.5665
  399SOL    HW1 1196   1.968   2.512   2.802 -0.4467  1.7135 -1.2796
  399SOL    HW2 1197   2.050   2.386   2.739  0.8235  1.6334 -0.7314
  400SOL     OW 1198   0.162   1.490   1.545 -0.4583  0.5170 -0.0850
  400SOL    HW1 1199   0.071   1.446   1.549 -0.3072  1.1699 -0.9188
  400SOL    HW2 1200   0.160   1.562   1.473 -0.6042 -0.4634 -0.3974
  401SOL     OW 1201   0.893   0.741   0.892  0.4054  0.1181 -0.4317
  401SOL    HW1 1202   0.900   0.686   0.802  1.1659  1.1006  1.9649
  401SOL    HW2 1203   0.875   0.839   0.881 -0.8140 -0.0883  0.8211
  402SOL     OW 1204   0.722   0.039   2.585 -0.2970 -0.1788 -0.0205
  402SOL    HW1 1205   0.797   0.019   2.648 -1.8974  0.2514  1.8301
  402SOL    HW2 1206   0.656   0.110   2.616  1.0544 -0.6190 -1.9529
  403SOL     OW 1207   2.965   1.591   1.897 -0.0445  0.2036 -0.5927
  403SOL    HW1 1208   2.910   1.660   1.844 -0.2032 -0.6230  1.6344
  403SOL    HW2 1209   3.057   1.628   1.933  1.5836 -0.3281  0.5825
  404SOL     OW 1210   2.614   2.184   1.461  0.5030  0.8440 -0.5757
  404SOL    HW1 1211   2.650   2.273   1.488 -1.0837  0.7933 -1.4960
  404SOL    HW2 1212   2.647   2.156   1.368  1.0243  1.1757  0.4940
  405SOL     OW 1213   2.248   0.260   2.640 -0.2242  0.0596 -0.5875
  405SOL    HW1 1214   2.187   0.231   2.564  1.3674  1.2970 -0.3837
  405SOL    HW2 1215   2.281   0.356   2.633 -1.1516 -1.6601  0.5496
  406SOL     OW 1216   1.180   1.651   2.869  0.7189  0.1668  0.0612
  406SOL    HW1 1217   1.266   1.661   2.921 -0.1154 -1.8020  2.7675
  406SOL    HW2 1218   1.192   1.585   2.796 -0.9866  1.8723  1.4161
  407SOL     OW 1219   1.892   1.869   0.825  0.1193  0.4035 -0.7820
  407SOL    HW1 1220   1.858   1.787   0.773 -1.3586  0.1470 -3.3630
  407SOL    HW2 1221   1.909   1.949   0.764  1.1087 -0.5698 -0.4437
  408SOL     OW 1222   0.033   0.362   1.337 -0.1097 -0.9325 -0.2944
  408SOL    HW1 1223   0.080   0.446   1.302  0.4884  1.8206  0.0629
  408SOL    HW2 1224   0.094   0.280   1.324  0.9676  1.6717 -2.0781
  409SOL     OW 1225   1.870   1.437   0.570 -0.0076 -0.3699 -0.2932
  409SOL    HW1 1226   1.858   1.521   0.626  1.2565 -0.5440  0.2476
  409SOL    HW2 1227   1.968   1.431   0.545 -2.8678 -0.3062  0.1468
  410SOL     OW 1228   2.350   2.419   0.291 -0.7683 -0.2347 -0.1529
  410SOL    HW1 1229   2.272   2.385   0.348  0.4008 -1.6090 -1.4826
  410SOL    HW2 1230   2.411   2.484   0.347  1.2732  0.9473  1.9105
  411SOL     OW 1231   0.356   0.031   0.408  0.1816 -0.1008 -0.3645
  411SOL    HW1 1232   0.263   0.022   0.360 -2.4947 -1.2453  2.0137
  411SOL    HW2 1233   0.343   0.008   0.510  3.5192 -2.8088  0.3380
  412SOL     OW 1234   1.530   2.925   0.686  0.1693 -0.1883 -0.4605
  412SOL    HW1 1235   1.473   2.992   0.733  0.8728  0.4730  2.0122
  412SOL    HW2 1236   1.613   2.966   0.644 -0.2371  0.4216 -0.2632
  413SOL     OW 1237   1.706   0.094   2.465 -0.0578 -0.5815  0.5534
  413SOL    HW1 1238   1.617   0.105   2.420  0.7154  1.6825  4.5830
  413SOL    HW2 1239   1.771   0.032   2.417 -1.4571 -1.3217  0.5436
  414SOL     OW 1240   3.090   0.753   0.611  0.0076 -0.6944 -0.0834
  414SOL    HW1 1241   3.041   0.764   0.520 -1.3466 -0.7690  0.2837
  414SOL    HW2 1242   0.068   0.767   0.606 -0.9175 -0.2764 -0.2874
  415SOL     OW 1243   0.018   1.514   1.268 -0.4710  0.0266  0.3409
  415SOL    HW1 1244   0.064   1.425   1.241 -2.6519 -2.2451 -0.1589
  415SOL    HW2 1245   0.088   1.588   1.278 -0.7009 -0.3785 -0.2494
  416SOL     OW 1246   0.240   0.870   2.959  0.1649 -0.2508 -0.4381
  416SOL    HW1 1247   0.241   0.792   3.031  0.5905 -0.9861  1.5542
  416SOL    HW2 1248   0.220   0.837   2.867  2.3833  2.4036  0.8809
  417SOL     OW 1249   2.503   0.371   0.795 -0.2318 -0.8350 -0.4197
  417SOL    HW1 1250   2.602   0.390   0.775  0.4867 -0.6808 -2.1702
  417SOL    HW2 1251   2.467   0.462   0.833  1.7243  2.7921 -1.3402
  418SOL     OW 1252   0.416   0.182   2.685 -0.0234  0.4196 -0.0120
  418SOL    HW1 1253   0.445   0.179   2.782  0.9124 -1.0626 -3.0359
  418SOL    HW2 1254   0.437   0.092   2.634 -2.8910 -1.0065  0.5295
  419SOL     OW 1255   0.254   1.213   0.826  0.0881 -0.4294 -0.3926
  419SOL    HW1 1256   0.165   1.244   0.788 -0.5954 -1.1032 -1.6423
  419SOL    HW2 1257   0.236   1.159   0.913  1.4456  0.4526  1.5411
  420SOL     OW 1258   2.787   1.639   1.394 -0.0295  0.0195 -0.2390
  420SOL    HW1 1259   2.764   1.576   1.473 -0.3474 -0.6406 -1.7713
  420SOL    HW2 1260   2.705   1.699   1.383  1.4486  2.7214 -2.6363
  421SOL     OW 1261   1.135   1.914   2.847 -0.3949  0.6810 -0.1256
  421SOL    HW1 1262   1.174   1.954   2.757  1.0825 -1.7344  0.2186
  421SOL    HW2 1263   1.170   1.816   2.844  1.3447 -2.8604 -1.6041
  422SOL     OW 1264   2.497   0.642   2.874 -0.5052  0.4399  0.2911
  422SOL    HW1 1265   2.465   0.733   2.853 -1.8094 -0.0229 -1.1718
  422SOL    HW2 1266   2.499   0.582   2.791 -5.2250 -0.8377 -0.4325
  423SOL     OW 1267   1.768   1.498   0.204  0.0219 -0.0917  0.0151
  423SOL    HW1 1268   1.823   1.417   0.187  0.6304 -0.3061 -0.2390
  423SOL    HW2 1269   1.686   1.480   0.253  2.2283 -0.0712  2.0072
  424SOL     OW 1270   0.805   0.872   2.060  0.8783 -0.2631  0.8503
  424SOL    HW1 1271   0.711   0.858   2.106  0.0410 -1.0237  2.2658
  424SOL    HW2 1272   0.871   0.936   2.112 -0.8555  0.8502 -1.0078
  425SOL     OW 1273   3.080   2.733   2.173 -0.4317  0.1532 -0.2021
  425SOL    HW1 1274   0.038   2.734   2.109  1.0026 -2.3317 -2.4688
  425SOL    HW2 1275   3.095   2.763   2.269 -1.2424 -0.0496  0.2228
  426SOL     OW 1276   1.979   2.617   0.254  0.0984 -0.2043  0.2326
  426SOL    HW1 1277   2.053   2.685   0.259  0.0907  2.8108 -0.8922
  426SOL    HW2 1278   1.904   2.661   0.309 -0.3188  2.2751 -1.0086
  427SOL     OW 1279   0.650   0.691   2.967 -0.1227 -0.9788 -0.1044
  427SOL    HW1 1280   0.745   0.681   2.928 -3.5226  0.5312 -1.2544
  427SOL    HW2 1281   0.658   0.766   3.033  3.3086 -1.2978 -0.4006
  428SOL     OW 1282   2.681   1.254   2.902  0.3661  0.6646 -0.0474
  428SOL    HW1 1283   2.688   1.231   3.000 -3.5985 -1.6100 -0.7140
  428SOL    HW2 1284   2.584   1.289   2.881 -0.6852  2.1239  1.0294
  429SOL     OW 1285   2.451   0.296   0.178  0.3882  0.3316 -0.5646
  429SOL    HW1 1286   2.403   0.376   0.229 -0.9347  2.4524  0.0810
  429SOL    HW2 1287   2.547   0.320   0.161 -0.4766  1.0168 -0.3485
  430SOL     OW 1288   1.336   2.484   2.371  0.0877  0.5212  0.4564
  430SOL    HW1 1289   1.261   2.474   2.441  1.9358 -2.5583 -0.1836
  430SOL    HW2 1290   1.310   2.428   2.288 -0.3266  0.6416 -2.4588
  431SOL     OW 1291   0.035   1.916   1.424 -0.0783  0.0327 -0.1999
  431SOL    HW1 1292   0.054   1.933   1.523  0.2092 -1.0597 -1.0722
  431SOL    HW2 1293   0.098   1.848   1.387 -1.9774  1.3746  1.5057
  432SOL     OW 1294   2.342   2.734   2.001 -0.4830 -0.8228 -0.3430
  432SOL    HW1 1295   2.282   2.798   2.054  1.7784 -0.5518 -1.0455
  432SOL    HW2 1296   2.281   2.663   1.961  0.6667  2.0022 -0.3033
  433SOL     OW 1297   1.306   2.163   0.246  0.5535  0.0754  0.1651
  433SOL    HW1 1298   1.207   2.173   0.280 -1.8329  2.0253  1.7685
  433SOL    HW2 1299   1.301   2.123   0.153 -0.6630  1.7405 -1.3158
  434SOL     OW 1300   0.251   2.081   2.760  0.2333  0.2235  0.2683
  434SOL    HW1 1301   0.213   1.990   2.764  1.3137  1.5633  2.1616
  434SOL    HW2 1302   0.210   2.144   2.831  0.3200  1.9347  2.6420
  435SOL     OW 1303   0.005   1.244   0.729  0.1382  0.3330  0.0224
  435SOL    HW1 1304   3.059   1.319   0.730 -3.5169 -0.6621 -1.4978
  435SOL    HW2 1305   3.080   1.156   0.736  0.8331  3.4351 -3.5722
  436SOL     OW 1306   0.677   2.827   1.571 -0.5568  0.5735 -0.1743
  436SOL    HW1 1307   0.660   2.859   1.479 -0.3111  0.8357  2.0784
  436SOL    HW2 1308   0.702   2.907   1.631 -1.3495  1.1074 -1.1062
  437SOL     OW 1309   0.837   2.940   0.757 -0.2938  0.4626 -0.0004
  437SOL    HW1 1310   0.822   2.957   0.857  0.0934  0.1159  3.1405
  437SOL    HW2 1311   0.938   2.925   0.744  2.0647  1.3951  0.8866
  438SOL     OW 1312   0.019   2.212   0.757  0.0062  0.5917 -0.3733
  438SOL    HW1 1313   0.025   2.112   0.738 -0.1898  1.7660  0.5300
  438SOL    HW2 1314   0.023   2.221   0.864 -0.5631  0.7367 -0.1397
  439SOL     OW 1315   0.775   2.557   1.920 -0.2331  0.1927  0.4202
  439SOL    HW1 1316   0.849   2.614   1.874  1.5549  0.8764  1.7052
  439SOL    HW2 1317   0.811   2.466   1.952 -1.1138 -1.2183  0.7352
  440SOL     OW 1318   2.192   2.915   2.148 -0.4201 -0.5196 -0.2921
  440SOL    HW1 1319   2.172   3.000   2.102 -1.3081 -1.7206 -1.0366
  440SOL    HW2 1320   2.108   2.859   2.154  1.9867  1.9099 -0.6224
  441SOL     OW 1321   3.089   0.757   1.592  0.2738  0.0633  0.6055
  441SOL    HW1 1322   3.045   0.810   1.672  1.2227  0.3607 -0.8229
  441SOL    HW2 1323   0.047   0.712   1.626 -3.0821 -1.0713 -1.2458
  442SOL     OW 1324   1.882   2.327   0.562  0.2316 -0.4296  0.2311
  442SOL    HW1 1325   1.785   2.342   0.531  0.2208 -0.6702 -2.1671
  442SOL    HW2 1326   1.913   2.376   0.650  0.5734 -1.2362  0.5376
  443SOL     OW 1327   2.932   0.582   2.506  0.1903 -0.0118  0.4582
  443SOL    HW1 1328   3.007   0.553   2.567 -3.1322  1.1361  0.9586
  443SOL    HW2 1329   2.845   0.577   2.559 -1.4205 -1.4511  1.9583
  444SOL     OW 1330   1.655   1.083   2.023 -0.2430  0.1236 -0.0012
  444SOL    HW1 1331   1.580   1.044   1.960  1.2376 -0.1323 -1.4841
  444SOL    HW2 1332   1.650   1.188   2.014  2.3456 -2.5323  0.4160
  445SOL     OW 1333   2.952   2.614   1.476  0.6473 -0.5437 -0.2914
  445SOL    HW1 1334   3.032   2.566   1.522 -0.7964 -1.8395 -2.6164
  445SOL    HW2 1335   2.987   2.672   1.401  0.7018 -3.5939  2.1495
  446SOL     OW 1336   2.859   1.459   1.195  0.0676  0.2127 -0.0438
  446SOL    HW1 1337   2.839   1.523   1.274  0.8641  0.9618  2.6411
  446SOL    HW2 1338   2.960   1.437   1.186  0.0699  0.5308  2.3171
  447SOL     OW 1339   0.505   1.146   0.689  0.2093  0.0823 -0.0382
  447SOL    HW1 1340   0.422   1.171   0.744 -0.3137  0.7730 -1.6038
  447SOL    HW2 1341   0.502   1.164   0.586  0.6528 -1.5465 -2.4919
  448SOL     OW 1342   1.439   1.514   1.889  0.0889 -0.1408  0.0381
  448SOL    HW1 1343   1.354   1.567   1.911  0.0598  1.5316  2.3034
  448SOL    HW2 1344   1.417   1.424   1.845 -2.4325 -3.7192  0.4437
  449SOL     OW 1345   1.409   1.499   0.341  0.6093  0.0112 -0.4546
  449SOL    HW1 1346   1.477   1.472   0.413  0.4209 -0.3090  1.4976
  449SOL    HW2 1347   1.331   1.438   0.346  3.4628  1.3722 -2.7792
  450SOL     OW 1348   2.901   2.944   1.888  0.1092 -0.2695 -0.0996
  450SOL    HW1 1349   2.873   2.850   1.914  1.1837 -1.9408 -1.3541
  450SOL    HW2 1350   2.982   2.927   1.827 -3.2566 -1.0024  0.5122
  451SOL     OW 1351   2.381   0.495   2.673 -0.2406  0.0048 -0.6432
  451SOL    HW1 1352   2.360   0.517   2.579 -0.0316 -1.7961  5.0538
  451SOL    HW2 1353   2.328   0.544   2.746  1.9523  0.2981  0.2363
  452SOL     OW 1354   1.912   0.447   0.770 -0.4636  0.2862 -0.3390
  452SOL    HW1 1355   1.812   0.441   0.781  1.6595  0.2041  0.8597
  452SOL    HW2 1356   1.962   0.481   0.848 -1.9761 -0.6334 -0.4001
  453SOL     OW 1357   1.844   0.772   1.674  0.3570  0.0405 -0.2669
  453SOL    HW1 1358   1.870   0.802   1.769  0.2011  1.3760  0.0480
  453SOL    HW2 1359   1.926   0.723   1.629  3.1949  0.5917  2.0565
  454SOL     OW 1360   2.851   1.480   0.466  0.0544  0.4014 -0.5962
  454SOL    HW1 1361   2.917   1.474   0.394 -1.5871 -3.2018  2.3413
  454SOL    HW2 1362   2.867   1.562   0.524  3.8799 -1.4091  0.9561
  455SOL     OW 1363   2.936   0.042   0.639  0.0786 -0.1011  0.4229
  455SOL    HW1 1364   3.012   0.103   0.669  0.8331  1.7946  0.1123
  455SOL    HW2 1365   2.861   0.102   0.608  2.3819 -0.0375  3.4615
  456SOL     OW 1366   0.258   3.002   1.276  0.1424  0.0869 -0.4718
  456SOL    HW1 1367   0.302   2.942   1.208  0.0637  1.2201  2.2454
  456SOL    HW2 1368   0.280   2.972   1.369 -1.8664 -0.0899 -0.6247
  457SOL     OW 1369   1.366   0.104   0.463 -0.6656 -0.3698  0.2968
  457SOL    HW1 1370   1.417   0.044   0.399 -3.2425  0.2562  1.9981
  457SOL    HW2 1371   1.387   0.199   0.427 -3.2574 -1.3855 -2.1909
  458SOL     OW 1372   2.279   2.844   0.807  0.6232  0.2965  0.3706
  458SOL    HW1 1373   2.249   2.840   0.905 -0.3786 -0.5918  0.4241
  458SOL    HW2 1374   2.371   2.882   0.791  0.0088 -2.7398  0.5921
  459SOL     OW 1375   2.213   0.608   2.851  0.6239 -0.0554  0.3189
  459SOL    HW1 1376   2.137   0.548   2.881 -1.3629 -0.0508 -0.0614
  459SOL    HW2 1377   2.276   0.619   2.928 -4.7858 -2.8298 -2.1422
  460SOL     OW 1378   2.545   2.897   3.007  0.1221  0.6196 -0.1368
  460SOL    HW1 1379   2.492   2.971   2.959 -1.2346  1.1394 -0.6841
  460SOL    HW2 1380   2.488   2.819   3.037  1.5167  0.5289 -1.1534
  461SOL     OW 1381   0.853   1.768   0.364 -0.0034  0.1963 -0.4537
  461SOL    HW1 1382   0.908   1.729   0.443  2.1687  2.3616 -0.7364
  461SOL    HW2 1383   0.761   1.781   0.394 -0.5112 -2.6031  1.1204
  462SOL     OW 1384   2.178   2.200   0.699  0.3682 -0.0013  0.2347
  462SOL    HW1 1385   2.241   2.151   0.758 -0.6758  1.2115 -0.0667
  462SOL    HW2 1386   2.176   2.302   0.707 -1.9110 -2.5953  0.0664
  463SOL     OW 1387   2.359   0.989   0.612 -0.2471  0.1861 -0.1377
  463SOL    HW1 1388   2.353   0.994   0.716 -1.6641  0.8015  0.4878
  463SOL    HW2 1389   2.426   0.920   0.583  1.0080 -1.5649 -1.1602
  464SOL     OW 1390   0.537   0.047   1.299 -0.0695 -0.2838  0.0138
  464SOL    HW1 1391   0.458   0.078   1.355 -2.2068  1.8369 -2.6856
  464SOL    HW2 1392   0.609   0.123   1.282  1.8484  1.6342 -0.2103
  465SOL     OW 1393   2.547   1.469   3.108 -0.1055  0.3602  0.1379
  465SOL    HW1 1394   2.482   1.412   0.041 -1.5807  1.7230 -0.8513
  465SOL    HW2 1395   2.647   1.463   0.011  1.9398  0.6988 -0.9160
  466SOL     OW 1396   1.800   0.321   2.820 -0.9355 -0.0935 -0.0836
  466SOL    HW1 1397   1.899   0.343   2.849  0.6147  0.0328  1.4575
  466SOL    HW2 1398   1.738   0.376   2.875  0.4300 -0.2170  0.3660
  467SOL     OW 1399   1.188   0.489   1.546 -0.1226 -0.4270 -0.5718
  467SOL    HW1 1400   1.203   0.388   1.528 -1.8990 -0.9313 -0.3553
  467SOL    HW2 1401   1.177   0.530   1.455  1.9051 -1.2270  1.0704
  468SOL     OW 1402   0.473   1.110   2.839  0.3340  0.6301  0.3055
  468SOL    HW1 1403   0.433   1.081   2.930  1.5841 -0.9867  0.2245
  468SOL    HW2 1404   0.441   1.199   2.803 -0.2195 -1.2582  1.4272
  469SOL     OW 1405   0.367   2.187   0.252 -0.4017 -0.1906 -0.8455
  469SOL    HW1 1406   0.290   2.254   0.269  0.0897 -0.0418  0.8610
  469SOL    HW2 1407   0.454   2.236   0.240 -1.0590  1.7215 -1.0125
  470SOL     OW 1408   2.379   1.510   2.424  0.0559  0.1704  0.5793
  470SOL    HW1 1409   2.445   1.495   2.502  0.1999 -0.6763 -1.5039
  470SOL    HW2 1410   2.429   1.514   2.339 -1.0305 -0.5723 -0.1942
  471SOL     OW 1411   2.847   1.190   2.132  0.3259  0.1614 -0.4146
  471SOL    HW1 1412   2.795   1.118   2.083  2.7266 -1.2653 -1.9644
  471SOL    HW2 1413   2.795   1.222   2.218  1.7392  0.0141  1.8359
  472SOL     OW 1414   0.247   2.721   0.577  0.2811  0.6754 -0.5967
  472SOL    HW1 1415   0.238   2.724   0.476 -1.7285 -0.8589  0.2517
  472SOL    HW2 1416   0.241   2.815   0.620  0.7148  1.8855  1.2387
  473SOL     OW 1417   0.692   0.146   3.111  0.0294 -0.1601  0.0351
  473SOL    HW1 1418   0.733   0.159   0.080 -0.1620 -0.1264 -1.8326
  473SOL    HW2 1419   0.709   0.047   3.092 -1.2672 -2.8054 -0.7605
  474SOL     OW 1420   1.822   3.000   2.319  0.1649  0.6712 -0.4478
  474SOL    HW1 1421   1.754   2.939   2.273 -1.1602  1.5764 -0.4153
  474SOL    HW2 1422   1.900   3.028   2.262 -1.6172 -0.0968 -0.5682
  475SOL     OW 1423   1.642   2.422   0.458  0.2602 -0.7625 -0.6546
  475SOL    HW1 1424   1.547   2.398   0.491  0.1354  0.6510 -0.4188
  475SOL    HW2 1425   1.642   2.420   0.357 -0.5659  0.7371  1.4984
  476SOL     OW 1426   0.197   1.089   1.055 -0.1168 -0.2031  0.0944
  476SOL    HW1 1427   0.097   1.068   1.045  1.4802 -0.0599 -2.1032
  476SOL    HW2 1428   0.245   1.014   1.096 -1.2246  2.8197 -0.6655
  477SOL     OW 1429   1.501   2.323   1.133 -0.3578  0.0908  0.2125
  477SOL    HW1 1430   1.451   2.230   1.146 -3.1450 -2.7387  0.5492
  477SOL    HW2 1431   1.579   2.308   1.072 -1.0743 -1.1747  0.6308
  478SOL     OW 1432   0.570   1.938   2.434 -0.0662  0.1699  0.1613
  478SOL    HW1 1433   0.615   1.944   2.528 -1.4331 -1.6824  2.8164
  478SOL    HW2 1434   0.533   2.027   2.401  0.9837  2.6401  0.2827
  479SOL     OW 1435   2.353   0.434   1.114 -0.8405 -0.0889 -0.3161
  479SOL    HW1 1436   2.383   0.498   1.039 -0.3636  1.7225 -0.5867
  479SOL    HW2 1437   2.341   0.483   1.205  2.7579  2.1489  0.8502
  480SOL     OW 1438   3.064   2.798   0.410 -0.5264  0.2205  0.2559
  480SOL    HW1 1439   3.082   2.900   0.425  0.9140 -0.0913 -0.8217
  480SOL    HW2 1440   3.082   2.765   0.317  1.0754 -2.1622  0.6311
  481SOL     OW 1441   2.574   2.625   1.153  0.0145 -0.2408 -0.5369
  481SOL    HW1 1442   2.559   2.602   1.250  0.7743 -0.2623  0.4226
  481SOL    HW2 1443   2.631   2.710   1.141  1.6331  0.9319 -2.6098
  482SOL     OW 1444   1.481   2.145   2.775 -0.6549  0.1724 -0.1476
  482SOL    HW1 1445   1.583   2.134   2.768  0.0729 -2.0382 -0.1165
  482SOL    HW2 1446   1.440   2.210   2.703 -1.3501  1.2183 -1.3135
  483SOL     OW 1447   0.511   2.100   2.822 -0.2005 -0.2589 -0.1242
  483SOL    HW1 1448   0.510   2.108   2.919  3.4866 -1.4385 -1.7759
  483SOL    HW2 1449   0.420   2.082   2.779 -0.8843 -0.2593  0.9982
  484SOL     OW 1450   0.964   1.113   1.642 -0.3197  0.5147 -0.1607
  484SOL    HW1 1451   0.971   1.041   1.715  0.9249 -0.6898 -2.0927
  484SOL    HW2 1452   1.060   1.143   1.607  0.0855  1.5572 -0.2030
  485SOL     OW 1453   2.358   0.534   0.317  0.2754 -0.1654  0.1159
  485SOL    HW1 1454   2.293   0.479   0.376  1.8318  0.6466 -4.0806
  485SOL    HW2 1455   2.316   0.619   0.290 -0.1843  0.1862  0.9613
  486SOL     OW 1456   1.878   3.026   0.992 -0.0765  0.2570 -0.3610
  486SOL    HW1 1457   1.898   3.073   1.080  2.0557  0.2290  0.6119
  486SOL    HW2 1458   1.820   3.081   0.931 -3.0928  0.0565  0.1069
  487SOL     OW 1459   0.492   2.327   1.041  0.0666 -0.3098  0.5856
  487SOL    HW1 1460   0.433   2.400   0.995  0.8015 -2.2597 -2.6504
  487SOL    HW2 1461   0.553   2.376   1.103 -1.0391  1.3904  0.3371
  488SOL     OW 1462   2.416   1.272   0.541 -0.2063 -0.6212  0.0643
  488SOL    HW1 1463   2.469   1.272   0.456  1.6013  1.2118  2.4786
  488SOL    HW2 1464   2.424   1.188   0.595 -2.1465 -3.4959  1.0701
  489SOL     OW 1465   1.595   0.212   0.832  0.3971  0.1147  0.1798
  489SOL    HW1 1466   1.597   0.301   0.785 -0.8909 -0.7760 -0.7229
  489SOL    HW2 1467   1.692   0.175   0.836  3.1812  0.2225 -1.3766
  490SOL     OW 1468   1.145   0.456   0.659 -0.2992 -0.0371  0.3074
  490SOL    HW1 1469   1.071   0.521   0.689  0.3664  2.3974 -0.2880
  490SOL    HW2 1470   1.132   0.429   0.562 -0.3646 -0.1309  1.2856
  491SOL     OW 1471   0.374   2.489   0.605  0.2137  0.1167  0.2869
  491SOL    HW1 1472   0.475   2.472   0.592  0.5096  1.3531 -0.0923
  491SOL    HW2 1473   0.353   2.584   0.574 -0.5328  1.8990 -0.3608
  492SOL     OW 1474   1.074   1.311   2.417 -0.2718 -0.2556 -0.2588
  492SOL    HW1 1475   1.094   1.243   2.488  1.8480 -0.1734 -3.0563
  492SOL    HW2 1476   1.015   1.384   2.454 -0.2620 -1.1000  0.9888
  493SOL     OW 1477   0.096   2.486   0.976 -0.1506  0.4933 -0.2737
  493SOL    HW1 1478   0.077   2.386   0.962  0.7878  0.5779  0.4315
  493SOL    HW2 1479   0.082   2.514   1.071  0.4312 -0.5401 -1.7434
  494SOL     OW 1480   2.814   2.100   2.978  0.5068  0.2961 -0.4226
  494SOL    HW1 1481   2.775   2.014   2.956  1.5442  4.4157  1.8636
  494SOL    HW2 1482   2.801   2.103   3.078  1.1991 -0.5325 -1.3914
  495SOL     OW 1483   2.703   1.762   2.666 -0.6916 -0.3982  0.3265
  495SOL    HW1 1484   2.677   1.819   2.747  1.2729 -0.5150  1.5337
  495SOL    HW2 1485   2.644   1.685   2.641 -1.4267 -0.1700  1.3426
  496SOL     OW 1486   2.691   0.283   1.578  0.1757  0.2162  0.9583
  496SOL    HW1 1487   2.707   0.305   1.479 -0.1997 -1.0811  2.2437
  496SOL    HW2 1488   2.743   0.201   1.614  1.8122 -0.0475  0.7597
  497SOL     OW 1489   2.510   0.935   0.257  0.5515 -0.9675 -0.4776
  497SOL    HW1 1490   2.502   0.950   0.157  0.9176  1.1761  0.8785
  497SOL    HW2 1491   2.538   0.838   0.277  1.3403 -0.2469  0.6163
  498SOL     OW 1492   0.473   2.165   2.321  0.2722 -0.6427 -0.3310
  498SOL    HW1 1493   0.470   2.253   2.263 -2.7166 -0.8181 -1.4666
  498SOL    HW2 1494   0.397   2.156   2.390  0.1883  2.1362 -2.1556
  499SOL     OW 1495   0.973   2.379   0.186 -0.5289 -0.1155  0.5024
  499SOL    HW1 1496   0.958   2.298   0.245  0.3284  0.7252  2.2746
  499SOL    HW2 1497   1.028   2.354   0.099 -0.4741 -0.8544 -1.4931
  500SOL     OW 1498   1.278   2.751   3.122  0.6529 -0.3543  0.2582
  500SOL    HW1 1499   1.233   2.807   3.043 -1.4189 -1.9427 -3.1828
  500SOL    HW2 1500   1.234   2.785   0.086  1.0634 -1.0754 -2.6450
  501SOL     OW 1501   1.696   0.028   1.876 -0.7730  0.5046 -0.1826
  501SOL    HW1 1502   1.725   0.000   1.781  2.3013 -1.2664 -0.2992
  501SOL    HW2 1503   1.705   0.129   1.889  1.1840 -0.2974  0.4828
  502SOL     OW 1504   2.852   0.592   2.234 -0.5571  0.9256  0.3562
  502SOL    HW1 1505   2.869   0.592   2.333  0.1386  0.6777  0.8095
  502SOL    HW2 1506   2.844   0.498   2.203  0.2421  0.5454  0.7102
  503SOL     OW 1507   2.461   2.133   2.299  0.2822  0.2442  0.0160
  503SOL    HW1 1508   2.461   2.199   2.218  1.6410  0.3465 -1.0874
  503SOL    HW2 1509   2.432   2.169   2.388  0.1886 -0.4960 -0.0930
  504SOL     OW 1510   1.506   0.414   1.462  0.1262 -0.4410  0.1668
  504SOL    HW1 1511   1.568   0.489   1.492  0.4011 -0.0067  0.2536
  504SOL    HW2 1512   1.476   0.369   1.550 -0.8894  3.4645  2.2753
  505SOL     OW 1513   1.010   0.902   1.808  0.1701  0.5111  0.4813
  505SOL    HW1 1514   1.053   0.830   1.750 -1.6239  2.0699  0.1220
  505SOL    HW2 1515   0.950   0.853   1.877  1.5786  2.4866 -1.2855
  506SOL     OW 1516   0.292   0.763   2.532 -0.3906 -0.8325  0.1048
  506SOL    HW1 1517   0.218   0.770   2.603  0.3332 -3.3049 -1.8650
  506SOL    HW2 1518   0.387   0.771   2.564  0.2799  1.1112 -0.1669
  507SOL     OW 1519   0.310   2.857   3.068  0.2991  0.1574  0.0178
  507SOL    HW1 1520   0.232   2.922   3.080 -0.8887  1.9435  0.8175
  507SOL    HW2 1521   0.276   2.762   3.076  0.1415 -0.3979 -2.1954
  508SOL     OW 1522   1.436   0.811   1.663 -0.2427  0.5005 -0.1131
  508SOL    HW1 1523   1.482   0.735   1.613  1.8563 -1.3730 -0.1996
  508SOL    HW2 1524   1.451   0.903   1.620  0.7545  4.6340  1.3375
  509SOL     OW 1525   1.010   1.867   1.592  0.0649 -0.2629 -0.3337
  509SOL    HW1 1526   1.072   1.930   1.646  1.3866  2.4339 -0.1965
  509SOL    HW2 1527   1.029   1.890   1.490  1.0148 -1.4528 -2.0761
  510SOL     OW 1528   2.413   1.123   2.285 -0.1107 -0.2748 -0.3544
  510SOL    HW1 1529   2.484   1.194   2.308 -0.1001  1.6759  0.0358
  510SOL    HW2 1530   2.455   1.030   2.267  0.1330 -1.3648 -2.5454
  511SOL     OW 1531   0.601   1.923   1.020  0.1636  0.5606 -0.2365
  511SOL    HW1 1532   0.629   2.007   0.966 -1.0728  1.2386 -1.9932
  511SOL    HW2 1533   0.636   1.930   1.116 -1.7459 -2.1042 -1.0353
  512SOL     OW 1534   2.752   2.072   0.179 -0.5047  0.7442 -0.1797
  512SOL    HW1 1535   2.671   2.125   0.209  0.9648 -1.0574 -0.5811
  512SOL    HW2 1536   2.816   2.060   0.259  1.8148 -2.3570 -0.3458
  513SOL     OW 1537   0.008   1.828   2.440  0.1179 -0.0006  0.0728
  513SOL    HW1 1538   0.061   1.745   2.453  1.2157  0.4569 -0.8224
  513SOL    HW2 1539   3.069   1.849   2.523 -0.2434  0.0596  0.9108
  514SOL     OW 1540   0.291   2.627   2.448 -0.1301 -0.6923  0.0449
  514SOL    HW1 1541   0.233   2.546   2.470  2.4687  1.0526 -1.3023
  514SOL    HW2 1542   0.385   2.600   2.417  1.6934  1.8796 -0.6448
  515SOL     OW 1543   2.136   1.304   1.439 -0.5704 -0.2310 -0.6400
  515SOL    HW1 1544   2.126   1.353   1.349 -1.2462  0.8243 -1.5066
  515SOL    HW2 1545   2.208   1.346   1.495 -1.4095  2.9814 -1.9764
  516SOL     OW 1546   2.666   2.263   2.781 -0.0417  0.6304  0.1256
  516SOL    HW1 1547   2.721   2.273   2.695 -2.0907  0.2878  1.5853
  516SOL    HW2 1548   2.717   2.203   2.848 -1.1935  0.0653 -0.1910
  517SOL     OW 1549   1.314   0.735   2.937  0.5267 -0.0394  0.5876
  517SOL    HW1 1550   1.328   0.812   2.994 -1.7221 -5.9195  0.8496
  517SOL    HW2 1551   1.244   0.668   2.980 -0.6711 -0.2304  0.8262
  518SOL     OW 1552   0.035   2.990   2.664  0.0358 -0.4840 -0.0553
  518SOL    HW1 1553   0.050   3.039   2.576 -1.6658  1.2577  2.1761
  518SOL    HW2 1554   0.127   2.975   2.704 -0.0244  2.9957  2.0323
  519SOL     OW 1555   1.524   1.805   2.206  1.0950 -0.8505 -0.3011
  519SOL    HW1 1556   1.423   1.791   2.205 -0.5057  0.6937 -3.3843
  519SOL    HW2 1557   1.564   1.840   2.291 -2.2249 -0.3146 -0.8128
  520SOL     OW 1558   2.942   2.848   2.709  0.5264  0.1499 -0.0103
  520SOL    HW1 1559   2.852   2.883   2.675  2.4198  0.5393  0.1764
  520SOL    HW2 1560   3.024   2.911   2.680  0.6204  3.1318 -0.1821
  521SOL     OW 1561   0.521   1.706   1.815  0.4539 -0.5672  0.5203
  521SOL    HW1 1562   0.483   1.747   1.899 -1.2430 -0.5098  0.2558
  521SOL    HW2 1563   0.619   1.677   1.837  2.1496 -0.2858  0.6392
  522SOL     OW 1564   1.114   3.069   1.826  0.1177 -0.2039 -0.1856
  522SOL    HW1 1565   1.085   0.011   1.752  0.0044 -1.8745  1.6220
  522SOL    HW2 1566   1.080   3.098   1.917 -0.1956 -0.0907  1.5181
  523SOL     OW 1567   0.089   2.545   1.240 -0.1618  0.6581  0.3444
  523SOL    HW1 1568   0.019   2.617   1.260  0.6078  0.9499  1.8038
  523SOL    HW2 1569   0.174   2.553   1.294 -2.1091  0.8486 -1.8944
  524SOL     OW 1570   1.647   2.703   0.807  0.0549 -0.2246  0.4334
  524SOL    HW1 1571   1.600   2.617   0.787 -1.5957  0.2356  2.5800
  524SOL    HW2 1572   1.586   2.782   0.782  1.1887  0.7544 -0.9423
  525SOL     OW 1573   2.388   1.040   0.898 -0.2619 -0.4301 -0.0348
  525SOL    HW1 1574   2.316   1.108   0.923  2.4295  1.2886 -3.8350
  525SOL    HW2 1575   2.395   0.974   0.971  0.4914 -1.5595  0.4917
  526SOL     OW 1576   1.166   2.232   0.705 -0.0610  0.6831 -0.3061
  526SOL    HW1 1577   1.090   2.294   0.697  0.4477 -0.5409 -0.1048
  526SOL    HW2 1578   1.145   2.146   0.655  2.2379  0.4846  2.4618
  527SOL     OW 1579   2.441   2.114   0.818  0.0884  0.5824 -0.7399
  527SOL    HW1 1580   2.468   2.098   0.718  1.7285 -1.7874 -1.2690
  527SOL    HW2 1581   2.428   2.028   0.873 -1.4315  0.4067 -1.1163
  528SOL     OW 1582   2.133   0.425   0.049  0.1017 -0.0030 -0.1348
  528SOL    HW1 1583   2.205   0.496   0.043 -0.0240 -2.3132  0.2483
  528SOL    HW2 1584   2.117   0.400   0.147  0.0562 -3.4894 -0.3608
  529SOL     OW 1585   1.191   1.030   1.965  0.0102 -0.1901 -0.4789
  529SOL    HW1 1586   1.136   0.969   1.911  0.6273 -0.8163  1.6563
  529SOL    HW2 1587   1.193   1.003   2.063 -0.3085  0.5395  0.5281
  530SOL     OW 1588   2.649   1.031   2.713  0.1360 -0.1746  0.1461
  530SOL    HW1 1589   2.668   1.100   2.789  1.0395 -1.7810 -0.6264
  530SOL    HW2 1590   2.711   1.046   2.631  0.3443  0.2007 -0.6923
  531SOL     OW 1591   1.021   0.902   0.047 -0.3239  0.2152 -0.0617
  531SOL    HW1 1592   1.097   0.924   3.108  0.8404  2.1080 -1.0240
  531SOL    HW2 1593   1.011   0.971   0.126  2.4429  1.8926  0.0947
  532SOL     OW 1594   2.116   0.552   0.589  0.2284 -0.0660 -0.1802
  532SOL    HW1 1595   2.195   0.486   0.578  2.1159  2.8428  2.1109
  532SOL    HW2 1596   2.050   0.520   0.657 -1.0408  0.2773  0.7229
  533SOL     OW 1597   0.527   0.858   2.135  0.2934  0.1931 -0.0696
  533SOL    HW1 1598   0.477   0.803   2.063  1.8067 -1.0357  0.8230
  533SOL    HW2 1599   0.536   0.801   2.220 -0.6805  0.8101  0.2383
  534SOL     OW 1600   1.698   0.090   2.729 -0.1414 -0.0268 -0.1456
  534SOL    HW1 1601   1.714   0.078   2.628  3.8541 -0.1002  0.1025
  534SOL    HW2 1602   1.754   0.166   2.770 -2.6273 -1.0774 -0.6109
  535SOL     OW 1603   0.631   0.040   0.402 -0.1644  0.3167  0.2548
  535SOL    HW1 1604   0.525   0.047   0.394 -0.7637  1.5134 -1.4416
  535SOL    HW2 1605   0.655   3.091   0.472 -0.3138  0.5235 -1.9369
  536SOL     OW 1606   1.128   2.910   1.281  0.6069  0.5230  0.7369
  536SOL    HW1 1607   1.202   2.952   1.226 -2.0897 -0.9707  2.4478
  536SOL    HW2 1608   1.160   2.842   1.348  1.9775  0.4431 -0.1914
  537SOL     OW 1609   2.005   2.622   2.332  0.0448 -0.5627 -0.3507
  537SOL    HW1 1610   1.985   2.674   2.243 -0.4590 -2.1928  3.0725
  537SOL    HW2 1611   2.025   2.527   2.317  0.3576  2.6004  3.0629
  538SOL     OW 1612   0.364   2.687   2.731  0.2991 -0.0162 -0.4505
  538SOL    HW1 1613   0.457   2.656   2.769 -0.6997 -0.2807  1.5431
  538SOL    HW2 1614   0.366   2.666   2.634 -1.6024 -0.6559  2.6368
  539SOL     OW 1615   2.961   1.997   1.847 -0.0569 -0.3361 -0.0471
  539SOL    HW1 1616   3.000   2.054   1.771 -2.1286  2.7385 -0.1849
  539SOL    HW2 1617   3.033   1.990   1.917  1.0379 -0.6491 -0.6581
  540SOL     OW 1618   2.735   2.722   1.917 -0.0634  0.4664  0.0382
  540SOL    HW1 1619   2.770   2.669   1.998 -0.6401 -1.3567  0.8033
  540SOL    HW2 1620   2.663   2.784   1.944  0.7281 -1.2945  0.7481
  541SOL     OW 1621   0.070   0.002   1.510  0.7336 -0.5620  0.3207
  541SOL    HW1 1622   0.070   0.067   1.590  0.1868 -2.6312 -0.1482
  541SOL    HW2 1623   0.159   3.079   1.506 -1.9998  1.0354  0.2036
  542SOL     OW 1624   2.968   0.714   2.013  0.3041  0.4303  0.0526
  542SOL    HW1 1625   2.910   0.675   2.093  0.1972 -0.0584 -0.9077
  542SOL    HW2 1626   3.047   0.654   1.996 -3.4481  1.2580  0.3777
  543SOL     OW 1627   0.675   0.650   1.146  0.0747  0.2425 -0.0403
  543SOL    HW1 1628   0.754   0.708   1.149 -1.9764 -3.5773  0.5162
  543SOL    HW2 1629   0.685   0.588   1.228  1.6824 -2.1299  0.4109
  544SOL     OW 1630   2.069   2.009   1.254  0.2857 -0.2943 -0.0228
  544SOL    HW1 1631   2.104   2.023   1.157  2.1510  1.7143 -0.4371
  544SOL    HW2 1632   1.976   2.051   1.267  0.5974  1.8785  2.1817
  545SOL     OW 1633   0.983   1.670   0.577 -0.0330  0.3770 -0.0548
  545SOL    HW1 1634   1.072   1.723   0.574  1.2452  2.6013 -0.1681
  545SOL    HW2 1635   0.985   1.596   0.646  0.3241 -1.1089 -2.1858
  546SOL     OW 1636   2.861   0.149   2.186  0.2532  0.4599  0.0569
  546SOL    HW1 1637   2.815   0.229   2.139 -0.9858  2.9069 -2.3721
  546SOL    HW2 1638   2.853   0.157   2.287  0.5224  0.5123 -1.2637
  547SOL     OW 1639   0.121   0.241   2.461 -0.7448  0.4516 -0.2337
  547SOL    HW1 1640   0.125   0.252   2.567 -2.3914 -0.6644  2.4929
  547SOL    HW2 1641   0.188   0.292   2.404  1.7443 -0.2581  2.2011
  548SOL     OW 1642   2.391   2.260   2.809  0.3251  0.3598  0.1056
  548SOL    HW1 1643   2.495   2.259   2.804  1.5343  1.6311  0.2699
  548SOL    HW2 1644   2.353   2.324   2.740  0.3743 -1.4752 -2.5106
  549SOL     OW 1645   2.415   0.622   0.905  0.0580  0.0288  0.6507
  549SOL    HW1 1646   2.351   0.698   0.922  0.5491 -1.0013 -0.3258
  549SOL    HW2 1647   2.491   0.656   0.846  0.7982 -2.2813  2.8611
  550SOL     OW 1648   2.157   1.367   0.577  0.4336 -0.4444  0.3300
  550SOL    HW1 1649   2.137   1.448   0.511 -5.0032  2.5055 -2.1654
  550SOL    HW2 1650   2.242   1.324   0.543  2.0360  2.4078 -1.5238
  551SOL     OW 1651   1.417   2.907   1.478 -0.1477 -0.2629  0.7201
  551SOL    HW1 1652   1.387   2.872   1.570 -2.0221 -1.7769  1.5432
  551SOL    HW2 1653   1.396   2.840   1.407 -0.9651 -0.7042  1.4853
  552SOL     OW 1654   2.267   2.413   2.599  0.7804  0.1445 -0.6393
  552SOL    HW1 1655   2.230   2.497   2.642 -0.4000 -2.5098 -0.0592
  552SOL    HW2 1656   2.312   2.423   2.510 -0.7545 -0.5000  1.2992
  553SOL     OW 1657   0.642   2.937   0.546 -0.0445 -0.2080 -0.6816
  553SOL    HW1 1658   0.693   2.950   0.630 -0.2968 -0.1928 -0.6731
  553SOL    HW2 1659   0.548   2.916   0.570  0.0720  1.5368  0.4767
  554SOL     OW 1660   1.721   2.579   2.060  0.0634 -0.4853 -0.6096
  554SOL    HW1 1661   1.800   2.519   2.041 -1.0983 -1.5992  1.6099
  554SOL    HW2 1662   1.699   2.639   1.980  0.4393 -0.3456  2.6042
  555SOL     OW 1663   2.086   2.343   2.229  0.3277  0.4039 -0.9348
  555SOL    HW1 1664   2.185   2.341   2.209  0.4819  0.0796  0.1156
  555SOL    HW2 1665   2.044   2.249   2.243 -2.4600 -0.0552 -0.7791
  556SOL     OW 1666   0.996   0.209   0.754 -0.2813 -0.1668  0.6529
  556SOL    HW1 1667   1.077   0.251   0.800 -0.9691  3.5046  3.3018
  556SOL    HW2 1668   1.017   0.193   0.656 -0.2577  1.2540  2.2846
  557SOL     OW 1669   0.891   2.193   1.732 -0.3022  0.0449  0.0977
  557SOL    HW1 1670   0.866   2.251   1.814  2.5576  2.8269  4.3291
  557SOL    HW2 1671   0.804   2.188   1.680  1.1948  1.0900 -0.2217
  558SOL     OW 1672   2.674   1.254   2.339 -0.2098  0.1394 -0.3122
  558SOL    HW1 1673   2.686   1.155   2.365 -2.4861  0.1251  1.4431
  558SOL    HW2 1674   2.737   1.310   2.398  1.4317  2.1982  3.4258
  559SOL     OW 1675   2.327   2.324   2.101 -0.3940  0.3557 -0.2617
  559SOL    HW1 1676   2.358   2.247   2.040 -0.3790  1.4230 -0.5653
  559SOL    HW2 1677   2.300   2.401   2.047  0.8927 -4.4736  1.4719
  560SOL     OW 1678   0.492   0.271   2.103  0.3756  0.0343 -0.3722
  560SOL    HW1 1679   0.531   0.295   2.010 -0.8042  2.0897  1.3474
  560SOL    HW2 1680   0.561   0.294   2.174  0.9354 -0.5176 -1.5880
  561SOL     OW 1681   1.109   0.383   0.396 -0.4424 -0.2292 -0.2196
  561SOL    HW1 1682   1.195   0.411   0.359 -1.7628 -0.8599  2.8924
  561SOL    HW2 1683   1.114   0.292   0.439 -0.2588 -0.7094 -0.4404
  562SOL     OW 1684   1.140   1.382   1.664  0.0769 -0.6142 -0.3555
  562SOL    HW1 1685   1.101   1.467   1.702 -1.2807  1.1579  1.2345
  562SOL    HW2 1686   1.171   1.405   1.572  0.9057 -2.8838  0.3763
  563SOL     OW 1687   1.887   2.453   0.067 -0.1064  0.1467 -0.1314
  563SOL    HW1 1688   1.945   2.371   0.085 -0.7486  3.3270 -0.5266
  563SOL    HW2 1689   1.909   2.521   0.140  0.3076 -1.8153 -2.5725
  564SOL     OW 1690   2.857   2.130   0.434  0.1129 -0.1919 -0.0237
  564SOL    HW1 1691   2.818   2.213   0.475 -3.8028 -1.1337 -0.5569
  564SOL    HW2 1692   2.806   2.050   0.462  0.3317  2.0576  0.0114
  565SOL     OW 1693   0.462   0.144   2.374  0.5060 -1.0766  0.1295
  565SOL    HW1 1694   0.544   0.198   2.350  0.4917  1.0982 -2.2201
  565SOL    HW2 1695   0.384   0.208   2.371 -1.1062  1.6527 -0.9967
  566SOL     OW 1696   1.510   2.558   2.707  0.1354  0.1158  0.9796
  566SOL    HW1 1697   1.532   2.628   2.782  0.6504  1.8772  2.4022
  566SOL    HW2 1698   1.586   2.546   2.642  0.6193  0.2399 -0.8919
  567SOL     OW 1699   1.790   2.049   1.272  0.0023 -0.2661  0.0206
  567SOL    HW1 1700   1.815   1.969   1.207  0.9613  0.4848 -2.3661
  567SOL    HW2 1701   1.732   2.019   1.351 -1.4278 -1.6106  1.8215
  568SOL     OW 1702   2.038   0.841   2.857 -0.1037 -0.0396 -0.5068
  568SOL    HW1 1703   1.993   0.821   2.945  0.3434  3.0485 -2.5596
  568SOL    HW2 1704   2.108   0.766   2.846 -0.2244 -1.8842 -1.0626
  569SOL     OW 1705   2.533   1.777   2.056  0.2335  0.1256  0.4610
  569SOL    HW1 1706   2.632   1.794   2.058 -0.7871  0.8274  0.5083
  569SOL    HW2 1707   2.499   1.755   1.964  0.8408 -3.3078  1.5304
  570SOL     OW 1708   2.791   0.011   1.705 -0.4167  0.7446 -0.5848
  570SOL    HW1 1709   2.692   3.115   1.730 -2.8605 -2.5694  2.1120
  570SOL    HW2 1710   2.846   3.071   1.761 -4.3859 -0.9520  0.8167
  571SOL     OW 1711   0.224   0.672   1.698  0.8032 -0.3631  0.1795
  571SOL    HW1 1712   0.288   0.685   1.620 -1.4667 -0.4126  1.5853
  571SOL    HW2 1713   0.251   0.733   1.776  0.6923  0.2117  0.6196
  572SOL     OW 1714   0.018   1.911   0.703  0.3940  0.2093 -1.0346
  572SOL    HW1 1715   3.071   1.858   0.757 -0.3244 -0.0009  1.9294
  572SOL    HW2 1716   0.113   1.874   0.723  1.1988  0.3502  0.8336
  573SOL     OW 1717   0.874   0.541   0.319 -0.2204  0.9861  0.4194
  573SOL    HW1 1718   0.881   0.638   0.355 -0.5088  1.9432  0.9219
  573SOL    HW2 1719   0.934   0.476   0.367 -1.4256  0.0302 -1.7220
  574SOL     OW 1720   0.098   3.017   3.112 -0.7760  0.0408 -0.4880
  574SOL    HW1 1721   0.131   3.083   3.048  1.1042  4.2836 -0.2464
  574SOL    HW2 1722   3.120   3.009   3.120  0.7698  1.5427  0.6399
  575SOL     OW 1723   1.050   2.353   0.998 -0.2180  0.3998 -0.0438
  575SOL    HW1 1724   1.086   2.311   1.086  0.3949 -1.4869  3.4081
  575SOL    HW2 1725   1.124   2.406   0.952 -2.1580  1.2051  1.2277
  576SOL     OW 1726   3.015   2.783   1.271  0.2553 -0.0815 -0.5553
  576SOL    HW1 1727   2.922   2.775   1.233 -1.5022  1.3871  0.7509
  576SOL    HW2 1728   3.055   2.877   1.253  2.9020  2.4871  0.9699
  577SOL     OW 1729   2.782   1.785   1.845 -0.2845 -0.5357  0.0409
  577SOL    HW1 1730   2.728   1.784   1.760  0.3156  0.5423  0.3847
  577SOL    HW2 1731   2.837   1.868   1.852 -0.5841 -2.5637  2.7986
  578SOL     OW 1732   1.057   2.938   2.565 -0.2403 -0.2318  0.2247
  578SOL    HW1 1733   1.007   2.943   2.475  0.0886  0.2839 -0.8344
  578SOL    HW2 1734   1.159   2.947   2.556  0.0185 -0.7825  1.2908
  579SOL     OW 1735   2.040   1.687   2.017 -0.2791  0.8805  0.2197
  579SOL    HW1 1736   1.967   1.710   1.951 -0.7637  1.4002  1.2164
  579SOL    HW2 1737   2.110   1.630   1.973 -1.2501  0.8547  2.3421
  580SOL     OW 1738   1.917   0.378   1.990  0.0405 -0.0649 -0.4504
  580SOL    HW1 1739   1.834   0.337   1.941  1.3636  0.2931 -0.2149
  580SOL    HW2 1740   1.885   0.437   2.073 -0.3235 -0.5521  2.4639
  581SOL     OW 1741   1.097   1.363   2.030 -0.4732  0.5762  0.3168
  581SOL    HW1 1742   1.179   1.331   2.082 -0.3369  2.7235 -1.2752
  581SOL    HW2 1743   1.085   1.317   1.944  3.3045  1.5198 -1.2503
  582SOL     OW 1744   0.091   2.701   1.747 -0.0406 -0.6386 -0.2526
  582SOL    HW1 1745   0.090   2.676   1.844 -1.4881  2.4355 -2.1644
  582SOL    HW2 1746   0.018   2.767   1.728 -0.7164  1.5305  1.6190
  583SOL     OW 1747   1.342   1.453   1.226  0.1096  0.1258  0.2876
  583SOL    HW1 1748   1.375   1.462   1.319  4.2900 -0.5939  0.8125
  583SOL    HW2 1749   1.264   1.391   1.211 -1.7863  0.5010 -0.6842
  584SOL     OW 1750   1.281   1.937   2.638  0.7233  0.5086  0.5144
  584SOL    HW1 1751   1.325   1.872   2.575  0.4344 -0.5729 -0.2732
  584SOL    HW2 1752   1.354   1.999   2.678  1.3047 -1.2226 -1.7600
  585SOL     OW 1753   0.227   2.414   0.298 -0.4951  0.5979 -0.2398
  585SOL    HW1 1754   0.181   2.387   0.382 -2.5256 -4.1669 -2.3276
  585SOL    HW2 1755   0.155   2.415   0.232 -0.1190  1.1650 -0.3511
  586SOL     OW 1756   2.042   2.232   0.142 -0.3396 -0.3265  0.4262
  586SOL    HW1 1757   2.090   2.278   0.220  1.3070  2.9432 -4.1966
  586SOL    HW2 1758   2.114   2.212   0.071  1.7786  2.6669  0.1779
  587SOL     OW 1759   2.450   2.136   0.547 -0.0138  0.1351 -0.2805
  587SOL    HW1 1760   2.351   2.139   0.538  1.0697  1.5197 -0.2723
  587SOL    HW2 1761   2.494   2.150   0.454 -1.2970  1.6011 -1.7543
  588SOL     OW 1762   2.093   0.346   1.122 -0.2088 -0.4502 -0.2492
  588SOL    HW1 1763   2.022   0.421   1.106 -2.3612  3.3740  0.3902
  588SOL    HW2 1764   2.187   0.388   1.120 -1.2326  0.7415  1.4931
  589SOL     OW 1765   0.493   0.701   0.961 -0.1920 -0.3303 -0.2515
  589SOL    HW1 1766   0.575   0.678   1.022  3.1445  2.4317 -0.3309
  589SOL    HW2 1767   0.513   0.791   0.912 -0.4189  1.3334 -3.3701
  590SOL     OW 1768   2.891   2.488   0.214  0.2383  0.0118  0.0344
  590SOL    HW1 1769   2.873   2.385   0.212  0.4747 -0.1336 -3.8306
  590SOL    HW2 1770   2.863   2.523   0.305 -0.6946 -1.5886 -5.3796
  591SOL     OW 1771   0.325   2.720   1.629 -0.5845 -0.2805 -0.0307
  591SOL    HW1 1772   0.404   2.691   1.686 -0.1484 -0.6094 -0.8231
  591SOL    HW2 1773   0.238   2.708   1.678  2.3805  2.0614  0.0608
  592SOL     OW 1774   0.789   1.576   1.479 -0.0545  0.0181  0.2238
  592SOL    HW1 1775   0.709   1.615   1.429 -1.4161 -2.2100  0.1813
  592SOL    HW2 1776   0.817   1.493   1.426 -0.2039  2.7234  1.7034
  593SOL     OW 1777   1.048   1.891   1.322 -0.3156  0.1669 -0.3157
  593SOL    HW1 1778   1.024   1.804   1.280  3.2528  2.8184  1.3430
  593SOL    HW2 1779   1.089   1.956   1.256 -2.2294  2.3172  2.0111
  594SOL     OW 1780   0.240   1.782   2.855 -0.4161 -0.1022 -0.2749
  594SOL    HW1 1781   0.236   1.734   2.947  1.0722  1.0433  0.8417
  594SOL    HW2 1782   0.332   1.787   2.818 -5.1500  1.6902  1.8280
  595SOL     OW 1783   1.363   0.701   1.068 -0.1531  0.0483 -0.1967
  595SOL    HW1 1784   1.349   0.646   0.983  0.9356  0.9115  0.3961
  595SOL    HW2 1785   1.389   0.635   1.140 -0.4309 -0.5276 -0.6069
  596SOL     OW 1786   0.298   1.510   0.486 -0.3288 -0.3181 -1.3034
  596SOL    HW1 1787   0.329   1.561   0.570  2.4889 -1.8694  1.1726
  596SOL    HW2 1788   0.259   1.419   0.509 -0.9616  1.2229  1.0406
  597SOL     OW 1789   0.129   2.164   2.996  0.1776  0.5130 -0.1762
  597SOL    HW1 1790   0.053   2.215   2.952 -1.4177 -0.9980  0.3700
  597SOL    HW2 1791   0.154   2.199   3.088  0.3986  2.4147  1.6080
  598SOL     OW 1792   1.981   2.096   2.264 -0.0097  0.6272 -0.2437
  598SOL    HW1 1793   1.896   2.091   2.210 -0.2161 -2.9116  0.8207
  598SOL    HW2 1794   2.048   2.021   2.245  1.6775  0.0074 -0.4365
  599SOL     OW 1795   1.621   0.466   0.751  0.2608  0.4666  0.4481
  599SOL    HW1 1796   1.648   0.542   0.687  0.1835  0.1254  3.4360
  599SOL    HW2 1797   1.540   0.505   0.805 -1.7453  1.8332 -0.3243
  600SOL     OW 1798   0.826   2.774   0.431  0.9950 -0.4790 -0.0151
  600SOL    HW1 1799   0.748   2.832   0.471 -0.3529  0.3188  2.0392
  600SOL    HW2 1800   0.901   2.824   0.386  0.8622 -0.8725 -1.2364
  601SOL     OW 1801   0.696   0.493   1.356  0.4393  0.0854  0.3358
  601SOL    HW1 1802   0.706   0.544   1.444 -1.0381  0.6650 -0.7424
  601SOL    HW2 1803   0.723   0.396   1.356 -4.4701  0.1005  0.7372
  602SOL     OW 1804   0.148   2.912   0.799  0.1985 -0.0827  0.3587
  602SOL    HW1 1805   0.099   2.826   0.770  1.1553  0.0033 -0.1704
  602SOL    HW2 1806   0.090   2.976   0.858  0.8999  0.3407  1.9308
  603SOL     OW 1807   1.126   2.485   2.563  0.0491  0.0783 -1.1111
  603SOL    HW1 1808   1.046   2.464   2.504 -0.5315 -0.9738  0.8205
  603SOL    HW2 1809   1.105   2.566   2.617 -0.0333 -0.9116 -0.0046
  604SOL     OW 1810   0.613   2.870   2.857  0.0016 -0.5664  0.6600
  604SOL    HW1 1811   0.612   2.816   2.773 -1.3963 -0.1764  1.7707
  604SOL    HW2 1812   0.517   2.859   2.896 -1.5440 -0.5180  0.8334
  605SOL     OW 1813   0.930   0.619   2.054 -0.0178  0.1984  0.2559
  605SOL    HW1 1814   1.027   0.636   2.041 -1.1861  2.0712  2.7688
  605SOL    HW2 1815   0.883   0.709   2.051  0.4438 -3.1111  1.4937
  606SOL     OW 1816   1.815   0.334   2.527  0.4343 -0.5053  0.1689
  606SOL    HW1 1817   1.816   0.370   2.626  2.0652  0.3247  2.4630
  606SOL    HW2 1818   1.772   0.241   2.523 -2.9579  1.1890 -0.7018
  607SOL     OW 1819   0.375   1.363   1.181 -0.3020  0.5001  0.3714
  607SOL    HW1 1820   0.419   1.401   1.263 -2.0424 -1.3211  0.0045
  607SOL    HW2 1821   0.305   1.288   1.212 -2.1697 -3.1634  0.1597
  608SOL     OW 1822   3.115   2.475   2.254  0.6075 -0.1180  0.3034
  608SOL    HW1 1823   3.099   2.575   2.234  1.6869 -2.1040  1.1223
  608SOL    HW2 1824   0.034   2.459   2.346  0.9602  0.6092  0.8519
  609SOL     OW 1825   1.734   0.500   0.291 -0.3754 -0.3256 -0.1370
  609SOL    HW1 1826   1.770   0.516   0.197  3.0376  0.9581  0.7942
  609SOL    HW2 1827   1.667   0.426   0.298  0.6195  2.7870 -1.5278
  610SOL     OW 1828   0.908   2.686   1.074  0.0852  0.0569 -0.0217
  610SOL    HW1 1829   1.007   2.716   1.079  2.0410  0.9751 -2.2025
  610SOL    HW2 1830   0.880   2.629   1.154 -0.0842  0.4404  3.2763
  611SOL     OW 1831   0.902   0.763   0.456 -0.2944  0.5231 -0.2294
  611SOL    HW1 1832   0.825   0.817   0.499  1.8760  2.8284  1.0250
  611SOL    HW2 1833   0.991   0.812   0.454 -1.5282 -1.2945  2.4178
  612SOL     OW 1834   1.216   0.530   2.719  0.3224  0.9684 -0.1684
  612SOL    HW1 1835   1.242   0.598   2.647  5.2005 -2.0192  1.0173
  612SOL    HW2 1836   1.286   0.530   2.793 -1.9956  1.1774 -0.4155
  613SOL     OW 1837   1.982   0.851   0.279 -0.2578 -0.3209 -0.0676
  613SOL    HW1 1838   2.038   0.911   0.336 -1.1494 -1.1370 -0.1507
  613SOL    HW2 1839   1.943   0.774   0.340 -0.0368 -0.3430  1.3984
  614SOL     OW 1840   2.075   0.584   1.895  0.1483  0.3987 -0.5599
  614SOL    HW1 1841   2.024   0.501   1.917 -1.0922 -0.3234 -0.3412
  614SOL    HW2 1842   2.024   0.672   1.896 -0.5077 -1.5397 -0.0818
  615SOL     OW 1843   0.726   2.137   0.891  0.1101  0.1500  0.3391
  615SOL    HW1 1844   0.798   2.065   0.898 -1.2586 -0.8985 -0.2844
  615SOL    HW2 1845   0.762   2.233   0.902  0.3838  2.5353  3.4972
  616SOL     OW 1846   1.674   1.117   2.297 -0.5761  0.4769 -0.4371
  616SOL    HW1 1847   1.636   1.209   2.306  0.8772 -1.0192 -1.9894
  616SOL    HW2 1848   1.691   1.099   2.195 -0.3024 -0.5852 -1.3942
  617SOL     OW 1849   1.908   3.067   3.065 -0.3100 -0.1517  0.6039
  617SOL    HW1 1850   1.992   3.104   3.021  1.5316  1.1321  0.4984
  617SOL    HW2 1851   1.865   2.997   3.009  1.1926 -0.5092  2.1139
  618SOL     OW 1852   0.971   1.066   2.863 -0.3188 -0.0300 -0.1569
  618SOL    HW1 1853   0.967   0.968   2.831  1.1726 -1.4105 -0.8537
  618SOL    HW2 1854   0.879   1.100   2.881  0.4631  0.0145  1.6330
  619SOL     OW 1855   2.427   1.443   0.766 -0.2794 -0.6908 -0.6630
  619SOL    HW1 1856   2.405   1.393   0.679 -0.5397 -2.1970  1.2991
  619SOL    HW2 1857   2.457   1.541   0.744  0.0795  0.3462 -1.5840
  620SOL     OW 1858   2.542   2.601   3.121  0.2993  0.1709 -0.5601
  620SOL    HW1 1859   2.602   2.577   3.042 -0.4351 -0.5972  0.7969
  620SOL    HW2 1860   2.600   2.630   0.077 -2.7596 -1.9487  0.6374
  621SOL     OW 1861   2.150   1.233   0.277 -0.2173 -0.0533  0.2029
  621SOL    HW1 1862   2.057   1.249   0.238  0.7538 -0.4316  1.1145
  621SOL    HW2 1863   2.141   1.145   0.330  1.5598 -0.8269  1.7375
  622SOL     OW 1864   1.360   2.333   2.629  0.2889  0.0765 -0.1347
  622SOL    HW1 1865   1.265   2.366   2.609  3.5249  0.8447  0.3367
  622SOL    HW2 1866   1.419   2.411   2.650 -2.7804  0.4246 -1.2263
  623SOL     OW 1867   0.284   1.724   0.010 -0.1235  0.4133 -0.2013
  623SOL    HW1 1868   0.185   1.750   0.012  1.2997  1.9664 -1.8874
  623SOL    HW2 1869   0.337   1.792   0.069  0.9357  0.6052 -0.8399
  624SOL     OW 1870   0.462   0.140   2.943 -0.1740 -0.0653 -0.9465
  624SOL    HW1 1871   0.507   0.126   3.039 -2.3799  0.0466  1.2367
  624SOL    HW2 1872   0.365   0.100   2.943  0.4462  1.3865 -2.0165
  625SOL     OW 1873   0.864   1.956   0.155 -0.2954  0.1862 -0.3660
  625SOL    HW1 1874   0.876   1.891   0.234 -0.2080 -0.3222 -0.5356
  625SOL    HW2 1875   0.768   1.954   0.125  0.7263 -0.1482 -0.5173
  626SOL     OW 1876   2.854   0.490   0.344  0.1892  0.0072 -0.2455
  626SOL    HW1 1877   2.794   0.449   0.272  1.1581 -1.5012 -0.6908
  626SOL    HW2 1878   2.946   0.449   0.343 -3.8834  1.3120  1.9084
  627SOL     OW 1879   1.433   1.099   2.811  0.0213  0.1895  0.4690
  627SOL    HW1 1880   1.529   1.089   2.849 -1.9113  0.0702  1.8131
  627SOL    HW2 1881   1.433   1.141   2.714 -0.2091  1.6151 -2.0440
  628SOL     OW 1882   1.042   0.852   2.719  0.1124  0.3311  0.3321
  628SOL    HW1 1883   1.118   0.802   2.682 -1.3778  4.2094  0.6806
  628SOL    HW2 1884   0.987   0.893   2.639 -0.6350  2.6972 -1.0869
  629SOL     OW 1885   0.085   0.181   1.693  0.2118  0.4425  0.2546
  629SOL    HW1 1886   3.121   0.215   1.734 -0.9707  0.1752 -0.7874
  629SOL    HW2 1887   0.163   0.163   1.757 -3.1125  1.4213 -0.7229
  630SOL     OW 1888   2.663   0.755   2.164 -0.3386  0.2936  0.2267
  630SOL    HW1 1889   2.617   0.779   2.258 -0.9317 -0.0176  1.0657
  630SOL    HW2 1890   2.743   0.692   2.185  1.2569  2.7337 -0.1754
  631SOL     OW 1891   1.970   0.956   0.909  0.3335 -0.7455  0.7673
  631SOL    HW1 1892   1.972   1.021   0.983  2.1211 -1.8634  0.7314
  631SOL    HW2 1893   2.067   0.919   0.899  1.3481  1.0227 -0.9737
  632SOL     OW 1894   2.753   0.856   1.656  0.1448  0.8744  0.2651
  632SOL    HW1 1895   2.837   0.866   1.718  0.2025 -0.7170  1.5196
  632SOL    HW2 1896   2.784   0.807   1.570 -0.4363 -1.0294 -0.7446
  633SOL     OW 1897   0.851   2.943   0.054  0.2062 -0.4997  0.0758
  633SOL    HW1 1898   0.841   2.989   3.084  1.7043  0.9045 -1.1630
  633SOL    HW2 1899   0.769   2.962   0.116 -0.7043  2.6304 -1.3682
  634SOL     OW 1900   1.197   2.516   2.898 -0.0076 -0.0547 -0.6231
  634SOL    HW1 1901   1.192   2.581   2.976 -3.2869  0.7177 -1.7961
  634SOL    HW2 1902   1.127   2.543   2.827  0.0358  1.9806 -2.3908
  635SOL     OW 1903   3.065   0.327   0.395  0.1048 -0.9733  0.3102
  635SOL    HW1 1904   3.107   0.298   0.484  1.6780 -1.0448  0.7684
  635SOL    HW2 1905   2.990   0.265   0.362  0.3390  0.2662 -1.0779
  636SOL     OW 1906   0.561   1.066   0.411  0.0473  0.1951  0.6490
  636SOL    HW1 1907   0.607   1.084   0.320  0.8190 -1.0360 -1.8421
  636SOL    HW2 1908   0.461   1.045   0.402 -2.1692  2.9849 -2.5721
  637SOL     OW 1909   0.273   2.687   0.302  0.1578 -0.2187  0.6460
  637SOL    HW1 1910   0.263   2.596   0.335  1.6634  2.3554 -0.6514
  637SOL    HW2 1911   0.189   2.696   0.243 -0.3138 -3.7677  2.2391
  638SOL     OW 1912   3.072   2.580   0.572  0.3893  0.1720  0.2353
  638SOL    HW1 1913   3.078   2.669   0.523  0.3436 -0.0080 -0.1322
  638SOL    HW2 1914   0.019   2.521   0.535 -0.8250 -0.6511 -0.4280
  639SOL     OW 1915   1.312   1.092   0.110 -0.6250 -0.2029 -0.0752
  639SOL    HW1 1916   1.264   1.047   0.035  1.0769  0.8504  1.5503
  639SOL    HW2 1917   1.364   1.175   0.080  0.7657  1.6896  3.5825
  640SOL     OW 1918   1.455   2.419   1.379  0.6940  0.4197 -0.2320
  640SOL    HW1 1919   1.537   2.410   1.439  2.2620 -3.4409  1.2020
  640SOL    HW2 1920   1.471   2.397   1.283 -2.2284  2.0049  1.3866
  641SOL     OW 1921   3.023   2.338   1.198 -0.1374 -0.9484 -0.1498
  641SOL    HW1 1922   3.082   2.406   1.253  0.8964 -0.6299  1.6238
  641SOL    HW2 1923   2.929   2.372   1.190 -0.9124 -1.1315 -0.2846
  642SOL     OW 1924   0.736   3.011   1.761 -0.4435  0.2012  0.3027
  642SOL    HW1 1925   0.778   3.074   1.689  0.1181  1.9367 -0.8747
  642SOL    HW2 1926   0.655   3.059   1.798 -0.2464 -0.5582  1.1804
  643SOL     OW 1927   0.818   2.289   2.998  0.2408 -0.1461 -0.3509
  643SOL    HW1 1928   0.831   2.360   3.070 -0.7398  0.2877  0.9981
  643SOL    HW2 1929   0.891   2.215   3.005  1.9543  0.1942 -0.0316
  644SOL     OW 1930   1.172   2.598   0.600  0.1724 -0.0944  0.1685
  644SOL    HW1 1931   1.235   2.626   0.527  0.2390  0.9685 -0.3135
  644SOL    HW2 1932   1.114   2.519   0.566 -2.7310 -0.2650 -1.8509
  645SOL     OW 1933   1.363   1.267   1.815  0.5407 -0.6901 -0.5026
  645SOL    HW1 1934   1.268   1.283   1.778  0.2000  1.2794  0.3578
  645SOL    HW2 1935   1.365   1.241   1.915 -0.3557  1.3684  1.0908
  646SOL     OW 1936   0.275   0.998   0.453 -0.3748  0.0468 -0.3917
  646SOL    HW1 1937   0.258   0.944   0.541  0.8124  0.1920  1.7093
  646SOL    HW2 1938   0.223   0.965   0.369  1.1686 -1.9594  2.3187
  647SOL     OW 1939   1.362   0.582   0.822  0.0249  0.4693 -0.2430
  647SOL    HW1 1940   1.375   0.661   0.762  1.0805  1.3213 -2.0102
  647SOL    HW2 1941   1.289   0.517   0.784 -4.2565 -1.8994 -0.6683
  648SOL     OW 1942   2.324   2.784   1.136  0.1773 -0.3629  0.6727
  648SOL    HW1 1943   2.283   2.735   1.219 -0.0071 -0.4577  4.5739
  648SOL    HW2 1944   2.395   2.721   1.100  0.2905 -0.2904 -1.1822
  649SOL     OW 1945   0.617   1.952   0.073 -0.3258  0.3688 -0.0910
  649SOL    HW1 1946   0.583   2.045   0.046 -2.6976 -1.0708 -0.8427
  649SOL    HW2 1947   0.550   1.913   0.136  2.5660 -0.3921  1.0087
  650SOL     OW 1948   2.313   1.956   1.722  0.3527  0.5367 -0.0875
  650SOL    HW1 1949   2.231   1.930   1.668  1.3910  0.6775  0.5641
  650SOL    HW2 1950   2.390   1.987   1.670 -1.8787 -0.7273  4.7577
  651SOL     OW 1951   0.213   0.042   2.926  0.2223  1.0154 -0.2183
  651SOL    HW1 1952   0.253   3.097   2.862  1.0538 -2.4259  0.5871
  651SOL    HW2 1953   0.123   0.078   2.892 -3.3907 -1.1134 -1.4395
  652SOL     OW 1954   2.508   1.719   3.070  0.5962  0.1557  0.3359
  652SOL    HW1 1955   2.566   1.753   0.024  1.9145  0.5641 -0.8365
  652SOL    HW2 1956   2.494   1.620   3.083  0.4114  1.3988  0.9585
  653SOL     OW 1957   0.097   0.196   0.984 -0.1702  0.0373  0.0154
  653SOL    HW1 1958   0.200   0.202   0.962  2.6314  0.4976 -0.1654
  653SOL    HW2 1959   0.074   0.100   0.959 -0.1057 -1.5966 -2.3984
  654SOL     OW 1960   1.088   0.121   0.504 -0.0366  0.5666  0.1393
  654SOL    HW1 1961   1.027   0.078   0.434 -1.5007  0.8961 -2.5634
  654SOL    HW2 1962   1.183   0.087   0.511 -0.4978  3.6979 -0.2906
  655SOL     OW 1963   0.633   2.878   1.299 -0.1394  1.0452  0.3928
  655SOL    HW1 1964   0.583   2.965   1.302  0.7633 -0.4074  0.5319
  655SOL    HW2 1965   0.587   2.795   1.258  0.5879  1.4855  0.7861
  656SOL     OW 1966   0.365   3.097   2.085  0.2739 -0.0610 -0.3220
  656SOL    HW1 1967   0.320   3.017   2.133 -0.5964  1.8685  1.8511
  656SOL    HW2 1968   0.385   0.050   2.155  2.3528  2.6136  0.2133
  657SOL     OW 1969   2.058   0.508   2.607 -0.1805  0.4309  0.1063
  657SOL    HW1 1970   2.055   0.410   2.596  0.9342 -0.0171 -1.1630
  657SOL    HW2 1971   2.133   0.550   2.548 -1.2517  3.5472 -0.3360
  658SOL     OW 1972   1.952   1.585   1.169  0.1216  0.7410 -0.3829
  658SOL    HW1 1973   1.895   1.560   1.251 -1.9963  1.9088  0.7278
  658SOL    HW2 1974   2.048   1.559   1.181 -1.6661  0.5878 -3.9530
  659SOL     OW 1975   2.659   2.535   2.896 -0.1231  0.1981  0.3104
  659SOL    HW1 1976   2.643   2.580   2.807 -0.2050  0.9963  0.3586
  659SOL    HW2 1977   2.651   2.436   2.895  2.8947  4.4265  0.8915
  660SOL     OW 1978   0.991   0.641   0.088  0.5070  0.0740 -0.2994
  660SOL    HW1 1979   0.945   0.613   0.173  0.4538  2.2566 -2.2840
  660SOL    HW2 1980   0.998   0.741   0.083 -0.0389 -2.1710 -1.9366
  661SOL     OW 1981   2.540   2.964   0.776  0.1409 -0.2502  0.3822
  661SOL    HW1 1982   2.614   2.928   0.715  0.3705 -1.7017  0.2376
  661SOL    HW2 1983   2.585   3.023   0.846 -0.5069 -1.6263  2.5777
  662SOL     OW 1984   0.497   0.416   1.042  0.0265  0.4384  0.3978
  662SOL    HW1 1985   0.477   0.419   1.144 -0.3677 -1.3911 -0.2086
  662SOL    HW2 1986   0.481   0.512   1.009  1.2954  0.0186  2.8760
  663SOL     OW 1987   1.594   2.341   2.388  0.6536 -0.1279 -0.6171
  663SOL    HW1 1988   1.656   2.405   2.444  0.5656  0.1223 -1.0907
  663SOL    HW2 1989   1.496   2.372   2.395 -0.7150  0.3575  1.1580
  664SOL     OW 1990   0.622   2.420   1.272 -0.1132  0.3365 -0.1876
  664SOL    HW1 1991   0.719   2.451   1.265  0.1718 -1.7925  1.3333
  664SOL    HW2 1992   0.614   2.341   1.331  2.4422 -0.6004  1.3526
  665SOL     OW 1993   1.053   2.294   1.565 -0.0264 -0.4078 -0.3953
  665SOL    HW1 1994   0.991   2.274   1.644  0.8671  3.7529  2.9866
  665SOL    HW2 1995   1.151   2.276   1.591  1.9636 -1.6675 -0.6467
  666SOL     OW 1996   0.292   2.957   2.758  0.4330  0.2817  0.0281
  666SOL    HW1 1997   0.355   3.014   2.699  0.8945 -0.0058 -0.8539
  666SOL    HW2 1998   0.316   2.856   2.762  0.1574 -2.9209  2.1472
  667SOL     OW 1999   1.348   1.729   1.132  0.4027  0.2963  0.1940
  667SOL    HW1 2000   1.338   1.636   1.165 -3.2515  1.5718  0.2917
  667SOL    HW2 2001   1.329   1.794   1.210  0.2089  0.1607  0.0919
  668SOL     OW 2002   0.927   0.217   2.355  0.2297  0.4177  0.0920
  668SOL    HW1 2003   0.963   0.284   2.422 -0.0414  0.0100 -1.2172
  668SOL    HW2 2004   0.996   0.137   2.355  1.6620 -1.1838 -0.0740
  669SOL     OW 2005   2.220   2.345   1.730  0.3817 -0.2932  0.3882
  669SOL    HW1 2006   2.287   2.286   1.779 -0.9333  0.1310  1.6157
  669SOL    HW2 2007   2.142   2.291   1.693  0.7722  1.3460  0.6546
  670SOL     OW 2008   1.985   1.977   0.274  0.0617  0.3008  0.2698
  670SOL    HW1 2009   2.058   1.959   0.341 -1.1790  0.5479 -0.6942
  670SOL    HW2 2010   2.021   2.050   0.212  0.0632 -1.2217  0.4947
  671SOL     OW 2011   1.347   1.175   0.942 -0.2976  0.4709 -0.0176
  671SOL    HW1 2012   1.411   1.132   0.876  1.3287 -0.4641 -0.8578
  671SOL    HW2 2013   1.385   1.263   0.970 -3.9396  0.9487  0.1360
  672SOL     OW 2014   2.578   1.449   2.157 -0.0686 -0.2239  0.4104
  672SOL    HW1 2015   2.653   1.521   2.154 -0.6876 -1.1728 -2.2071
  672SOL    HW2 2016   2.607   1.380   2.227 -1.6553 -2.6613  0.2312
  673SOL     OW 2017   2.808   1.617   2.137  0.1326  0.7164 -0.4120
  673SOL    HW1 2018   2.848   1.597   2.051  0.0410  3.0027  4.4610
  673SOL    HW2 2019   2.821   1.714   2.158 -0.1771 -2.1929  2.1444
  674SOL     OW 2020   0.953   2.514   2.361 -0.6878  0.3293  0.5982
  674SOL    HW1 2021   0.938   2.571   2.282  1.4813 -2.2916 -1.6350
  674SOL    HW2 2022   0.872   2.502   2.421 -0.0216  0.0956  0.5221
  675SOL     OW 2023   0.781   1.065   1.432 -0.4060 -0.2281  0.0991
  675SOL    HW1 2024   0.803   0.994   1.364  0.4786 -0.1490  0.7564
  675SOL    HW2 2025   0.851   1.064   1.507 -0.0846 -0.1178  1.7152
  676SOL     OW 2026   2.169   0.768   0.809  0.4755 -0.4475  0.1352
  676SOL    HW1 2027   2.148   0.773   0.708 -1.7139 -1.7952  1.9047
  676SOL    HW2 2028   2.101   0.704   0.854  1.4933 -0.0267 -0.5793
  677SOL     OW 2029   2.592   1.524   2.608 -0.0205  0.0746  0.0561
  677SOL    HW1 2030   2.675   1.472   2.580  0.6278 -2.7327 -1.1981
  677SOL    HW2 2031   2.548   1.485   2.692  0.0717  0.9122 -0.0710
  678SOL     OW 2032   3.102   3.051   0.952  0.0288 -0.7566  0.3303
  678SOL    HW1 2033   3.026   2.999   0.911  2.4570  1.4017  2.3544
  678SOL    HW2 2034   3.109   3.045   1.052 -0.9864  0.6054 -1.3079
  679SOL     OW 2035   2.387   0.079   0.372 -0.2131  0.5296  0.5399
  679SOL    HW1 2036   2.399   0.177   0.348 -0.9527 -2.7981  0.5108
  679SOL    HW2 2037   2.470   0.020   0.368  1.4697  0.9603  0.9818
  680SOL     OW 2038   0.190   2.419   2.037 -0.2606 -0.2275 -0.3689
  680SOL    HW1 2039   0.181   2.361   1.949 -0.0657 -1.1785 -1.8368
  680SOL    HW2 2040   0.115   2.391   2.098  0.5581  2.5490  0.4656
  681SOL     OW 2041   2.492   1.725   1.389  0.6066 -0.0526 -0.2652
  681SOL    HW1 2042   2.475   1.785   1.307 -1.7378 -1.3553 -1.2435
  681SOL    HW2 2043   2.409   1.678   1.426 -1.8334  0.1077  0.3175
  682SOL     OW 2044   3.015   2.223   2.293 -0.2949 -0.1605 -0.3424
  682SOL    HW1 2045   2.944   2.199   2.220  0.7390 -1.5799 -1.2715
  682SOL    HW2 2046   3.049   2.317   2.277 -0.6720 -1.5294 -0.3966
  683SOL     OW 2047   0.000   2.184   1.389  0.0717  0.5526 -0.3005
  683SOL    HW1 2048   0.008   2.079   1.388 -1.8522 -3.6331  0.5033
  683SOL    HW2 2049   3.078   2.221   1.305 -0.5559 -1.4418  1.0131
  684SOL     OW 2050   2.195   1.033   2.466 -0.3222  0.6298  0.5846
  684SOL    HW1 2051   2.161   1.114   2.519  0.0588  1.8592 -2.1552
  684SOL    HW2 2052   2.271   1.065   2.403 -0.2119 -1.3298  1.1895
  685SOL     OW 2053   1.568   1.114   0.491  0.2795  0.5587 -0.3068
  685SOL    HW1 2054   1.565   1.089   0.589  0.9232  0.3306 -0.1980
  685SOL    HW2 2055   1.663   1.149   0.470  1.6302 -0.4512 -1.4253
  686SOL     OW 2056   0.557   0.022   0.796  0.6249 -0.1146 -0.4478
  686SOL    HW1 2057   0.572   3.105   0.889 -0.1024 -2.3369  1.2223
  686SOL    HW2 2058   0.614   0.109   0.792  0.5615  3.5648 -0.4128
  687SOL     OW 2059   1.537   1.366   2.367 -0.0505  0.1657  0.1015
  687SOL    HW1 2060   1.595   1.430   2.315 -2.7876 -1.4624  0.8078
  687SOL    HW2 2061   1.440   1.388   2.347 -0.4653  1.6864 -0.2555
  688SOL     OW 2062   1.289   1.748   1.417  0.4358 -0.2826  0.3868
  688SOL    HW1 2063   1.196   1.710   1.430 -0.3328  2.7896  0.4896
  688SOL    HW2 2064   1.348   1.726   1.497  0.7798  0.3737 -0.7573
  689SOL     OW 2065   2.103   0.192   1.341 -0.0967  0.2897 -0.1590
  689SOL    HW1 2066   2.106   0.252   1.258  1.5313 -1.0509 -0.2277
  689SOL    HW2 2067   2.172   0.228   1.414  0.8239  1.5964 -0.0726
  690SOL     OW 2068   0.138   1.773   1.100 -0.3766 -0.1085  0.0048
  690SOL    HW1 2069   0.213   1.824   1.053  0.5011 -1.0352 -0.5373
  690SOL    HW2 2070   0.111   1.685   1.051 -1.2347 -2.1066 -0.6726
  691SOL     OW 2071   0.521   2.703   0.957  0.4568  0.1917  0.3816
  691SOL    HW1 2072   0.615   2.700   0.915  1.4015  1.2942  2.0964
  691SOL    HW2 2073   0.459   2.627   0.923 -1.3721  0.1144  0.4718
  692SOL     OW 2074   2.309   0.540   1.683  0.1456  0.4513 -0.4016
  692SOL    HW1 2075   2.356   0.629   1.674 -2.0225 -1.2995  1.4349
  692SOL    HW2 2076   2.234   0.549   1.751  2.7722 -1.4220 -1.0133
  693SOL     OW 2077   0.336   2.074   1.883  0.4814 -0.0197  0.0674
  693SOL    HW1 2078   0.425   2.056   1.835  1.1468  0.5077 -2.6432
  693SOL    HW2 2079   0.333   2.047   1.978 -0.6590  1.5280 -3.1157
  694SOL     OW 2080   1.590   1.243   1.676 -0.0657 -0.0913 -0.2619
  694SOL    HW1 2081   1.670   1.294   1.713  1.5517 -0.7275  0.2775
  694SOL    HW2 2082   1.503   1.250   1.728 -0.2736 -1.1450 -0.7255
  695SOL     OW 2083   0.528   1.161   1.044  0.1078  0.0743 -0.1074
  695SOL    HW1 2084   0.434   1.197   1.077 -2.4318  2.1289  1.6432
  695SOL    HW2 2085   0.594   1.239   1.051  0.8714  0.6977 -0.8216
  696SOL     OW 2086   1.391   0.065   0.730  0.3612 -0.7559  0.3584
  696SOL    HW1 2087   1.380   0.091   0.631  1.9588  0.4152  1.6700
  696SOL    HW2 2088   1.461   0.114   0.783  0.0094 -1.2121  1.6214
  697SOL     OW 2089   1.465   0.274   1.699  0.7554 -0.3150  0.2401
  697SOL    HW1 2090   1.411   0.280   1.785  1.1753  0.8416 -1.4098
  697SOL    HW2 2091   1.457   0.177   1.663  0.7094  1.3004  0.6451
  698SOL     OW 2092   2.172   1.253   2.170 -0.2885 -0.2604 -0.6882
  698SOL    HW1 2093   2.246   1.201   2.214  0.1344 -1.9469 -1.4086
  698SOL    HW2 2094   2.132   1.327   2.220  3.6904 -3.1285 -3.7042
  699SOL     OW 2095   2.324   0.317   1.547 -0.5384 -0.0844  0.2194
  699SOL    HW1 2096   2.323   0.401   1.606 -0.8536  2.5642  3.1429
  699SOL    HW2 2097   2.302   0.234   1.604 -1.7666  0.6253 -1.7765
  700SOL     OW 2098   1.024   2.128   0.318 -0.3175 -0.1456  0.4258
  700SOL    HW1 2099   0.965   2.078   0.249  0.3126  1.0712  0.4989
  700SOL    HW2 2100   1.014   2.096   0.413 -0.0780 -0.5094  1.2713
  701SOL     OW 2101   2.279   2.663   2.739  0.0067  0.1122  0.2496
  701SOL    HW1 2102   2.241   2.741   2.682 -0.4686  1.9028  0.7431
  701SOL    HW2 2103   2.216   2.648   2.820  0.2299  0.9338  4.7349
  702SOL     OW 2104   1.025   0.088   1.035 -0.1448  0.0850 -0.4482
  702SOL    HW1 2105   0.940   0.039   1.054  2.5347 -0.3048 -2.1909
  702SOL    HW2 2106   1.083   0.037   0.977 -1.5223 -0.0726  3.1662
  703SOL     OW 2107   2.351   0.073   2.232 -0.0626  0.9235 -0.0728
  703SOL    HW1 2108   2.382   0.023   2.317  0.8053  2.9589  1.0420
  703SOL    HW2 2109   2.429   0.091   2.169  2.5621 -1.8669 -1.2190
  704SOL     OW 2110   3.072   2.185   0.134  0.8168  0.1478 -0.2889
  704SOL    HW1 2111   3.077   2.110   0.203  1.7499 -0.2960  0.2064
  704SOL    HW2 2112   3.038   2.151   0.041 -0.2868  0.3475 -2.1515
  705SOL     OW 2113   2.527   0.138   2.042 -0.0254 -0.3365 -0.6180
  705SOL    HW1 2114   2.515   0.192   1.954 -1.2356  0.5218 -0.4986
  705SOL    HW2 2115   2.606   0.073   2.040 -0.4287  2.0207  4.1636
  706SOL     OW 2116   2.244   3.060   1.071 -0.4041 -0.0092  0.8266
  706SOL    HW1 2117   2.289   2.970   1.106 -0.3836 -2.8277 -1.0178
  706SOL    HW2 2118   2.312   0.010   1.078 -0.9272 -1.4837  0.4126
  707SOL     OW 2119   0.948   2.924   2.328  0.0546 -0.2097  0.4256
  707SOL    HW1 2120   0.974   2.846   2.271  0.1136  0.4759 -1.0399
  707SOL    HW2 2121   0.856   2.956   2.312 -0.1808 -2.8765  1.1178
  708SOL     OW 2122   2.879   2.316   1.773  0.3733  0.4673  0.2923
  708SOL    HW1 2123   2.900   2.388   1.839  0.1288 -1.6182  1.5812
  708SOL    HW2 2124   2.969   2.272   1.737  2.9325 -2.3732  0.9036
  709SOL     OW 2125   1.678   0.595   1.567  0.3299  0.4434 -0.0358
  709SOL    HW1 2126   1.745   0.584   1.488  1.7909  2.5879  0.2331
  709SOL    HW2 2127   1.717   0.668   1.626 -0.6603  0.2794 -2.6215
  710SOL     OW 2128   0.958   0.019   2.688  0.2821 -0.1063  0.4862
  710SOL    HW1 2129   1.018   3.071   2.641  0.0532  3.8716 -0.6303
  710SOL    HW2 2130   1.016   0.101   2.708  1.4274  1.4879  0.0294
  711SOL     OW 2131   0.714   1.980   2.697  0.4001  0.2215 -0.0026
  711SOL    HW1 2132   0.657   2.049   2.749  0.0657  2.0077 -0.2740
  711SOL    HW2 2133   0.766   1.915   2.759 -1.2137 -1.6946 -1.0625
  712SOL     OW 2134   0.978   2.055   3.044  0.1068  0.1346 -0.4288
  712SOL    HW1 2135   0.939   2.015   0.004 -1.7798 -1.3562 -0.2739
  712SOL    HW2 2136   1.007   1.984   2.982 -1.1332  3.5484  1.3576
  713SOL     OW 2137   1.931   0.888   2.354  0.2537  0.4263 -0.2415
  713SOL    HW1 2138   2.011   0.956   2.358  0.3843  1.8620  2.1783
  713SOL    HW2 2139   1.916   0.846   2.445  0.9665 -1.4076 -1.0055
  714SOL     OW 2140   1.233   1.680   1.927 -0.2650  0.0393  0.3599
  714SOL    HW1 2141   1.222   1.773   1.965  3.4322  0.2105  0.1806
  714SOL    HW2 2142   1.161   1.660   1.854 -1.1230 -0.3345  0.4747
  715SOL     OW 2143   2.049   0.357   2.902  0.3744  0.5201 -0.0578
  715SOL    HW1 2144   2.075   0.377   2.999 -1.3158 -0.1172  0.0221
  715SOL    HW2 2145   2.102   0.278   2.866 -0.8844 -0.9898  0.6445
  716SOL     OW 2146   2.766   2.426   1.524  0.2084 -0.0931 -0.0506
  716SOL    HW1 2147   2.784   2.373   1.610 -0.9203 -2.0209 -0.6070
  716SOL    HW2 2148   2.834   2.501   1.505 -2.2455  0.8286  0.3184
  717SOL     OW 2149   2.632   1.229   0.844 -0.3764  0.1804 -0.6217
  717SOL    HW1 2150   2.552   1.167   0.844  3.6484  1.0680  1.8024
  717SOL    HW2 2151   2.712   1.187   0.804 -1.5720  2.8003  1.8656
  718SOL     OW 2152   1.447   1.643   1.639  0.2818  0.0694 -0.0889
  718SOL    HW1 2153   1.533   1.691   1.626 -1.1154  1.1303  0.9259
  718SOL    HW2 2154   1.449   1.595   1.730  0.7972 -0.9055 -1.1642
  719SOL     OW 2155   2.699   0.389   0.113  0.0329  0.1244  0.2095
  719SOL    HW1 2156   2.652   0.481   0.107  0.1861  1.2468 -0.8277
  719SOL    HW2 2157   2.782   0.394   0.061 -2.3331  2.2502  3.6411
  720SOL     OW 2158   0.762   0.355   1.031  0.0829 -0.5107 -0.2484
  720SOL    HW1 2159   0.683   0.417   1.047 -0.1835  2.3630 -0.3165
  720SOL    HW2 2160   0.769   0.322   0.935  1.4341  1.2298 -1.3394
  721SOL     OW 2161   2.581   0.820   0.603 -0.1751  0.4615  0.1700
  721SOL    HW1 2162   2.580   0.780   0.509  0.7042  1.1873 -2.1386
  721SOL    HW2 2163   2.644   0.905   0.608 -0.4666 -0.3870 -2.6052
  722SOL     OW 2164   0.553   2.607   2.360  0.5931 -0.1976 -0.3516
  722SOL    HW1 2165   0.608   2.542   2.417  0.5734 -0.5800  0.1403
  722SOL    HW2 2166   0.582   2.595   2.263  1.0480 -1.4753  1.5277
  723SOL     OW 2167   1.703   0.167   0.501 -0.1268  0.2682 -0.7682
  723SOL    HW1 2168   1.734   0.077   0.529  1.2158 -0.0465  1.7502
  723SOL    HW2 2169   1.784   0.230   0.517  4.0108 -0.3374  0.6344
  724SOL     OW 2170   1.026   1.797   2.463 -0.3779 -0.4006 -0.0837
  724SOL    HW1 2171   1.028   1.894   2.508  0.3956  1.9869  0.3295
  724SOL    HW2 2172   0.994   1.807   2.367  0.3383  0.4644 -2.1104
  725SOL     OW 2173   1.705   0.122   1.260 -0.1113  0.4871  0.2898
  725SOL    HW1 2174   1.605   0.099   1.276 -0.2769 -0.4921 -1.1686
  725SOL    HW2 2175   1.759   0.072   1.330 -0.6550  0.4787 -0.6940
  726SOL     OW 2176   2.368   2.879   0.199  0.0886 -0.1169 -0.2963
  726SOL    HW1 2177   2.405   2.972   0.193  0.3114 -1.7226  0.0223
  726SOL    HW2 2178   2.453   2.822   0.217  2.7567 -0.5381 -0.0360
  727SOL     OW 2179   1.285   2.098   0.922 -0.0671 -0.0524  0.4622
  727SOL    HW1 2180   1.370   2.072   0.873 -1.5814  0.0388 -3.3044
  727SOL    HW2 2181   1.232   2.173   0.869 -1.2766  0.6365 -3.6509
  728SOL     OW 2182   2.356   2.674   2.307 -0.4582  0.1025  0.0461
  728SOL    HW1 2183   2.394   2.728   2.231 -1.5298  0.3512  2.9681
  728SOL    HW2 2184   2.288   2.735   2.355 -3.4236  0.6844 -0.7647
  729SOL     OW 2185   1.836   2.294   1.410  0.2381  0.0765  0.3291
  729SOL    HW1 2186   1.883   2.358   1.343  2.9182  3.1198  1.6866
  729SOL    HW2 2187   1.804   2.212   1.368 -3.5897  0.7368  1.7719
  730SOL     OW 2188   1.573   0.723   2.860  0.3344  0.2109  0.3659
  730SOL    HW1 2189   1.474   0.730   2.879  2.4821  2.0979 -2.8659
  730SOL    HW2 2190   1.593   0.734   2.763 -0.1466 -2.8446  2.0284
  731SOL     OW 2191   1.032   0.130   1.308 -0.0307  0.1115  0.6301
  731SOL    HW1 2192   1.056   0.117   1.208 -0.2197  0.2480 -2.3723
  731SOL    HW2 2193   1.012   0.042   1.352 -0.5352  1.3527 -1.5844
  732SOL     OW 2194   1.417   0.270   1.031  0.2631 -0.1813  0.6977
  732SOL    HW1 2195   1.322   0.282   0.998  1.6055 -1.1632 -1.7780
  732SOL    HW2 2196   1.483   0.257   0.952  0.1467 -0.3285 -2.8013
  733SOL     OW 2197   0.885   1.246   0.945 -0.0358 -0.3878 -0.2517
  733SOL    HW1 2198   0.939   1.188   1.010 -0.6721  0.5953  1.8818
  733SOL    HW2 2199   0.853   1.324   1.001  0.7677 -1.2582  2.3964
  734SOL     OW 2200   2.960   2.567   2.657 -0.3241  0.4388 -0.9697
  734SOL    HW1 2201   2.884   2.507   2.629  0.6698  2.0199  0.1727
  734SOL    HW2 2202   2.941   2.663   2.668 -2.2676 -2.4408  0.3916
  735SOL     OW 2203   0.875   3.005   1.340 -0.0856  0.8356  0.0554
  735SOL    HW1 2204   0.961   2.963   1.306  1.1838  1.4191 -1.4943
  735SOL    HW2 2205   0.796   2.938   1.331  0.7161 -0.9884  3.2351
  736SOL     OW 2206   1.706   1.887   3.089 -0.6103  0.1512  0.6863
  736SOL    HW1 2207   1.689   1.861   2.986 -1.2135 -1.8691 -4.4339
  736SOL    HW2 2208   1.731   1.984   3.112 -0.9705 -2.1105  1.1290
  737SOL     OW 2209   0.303   2.234   1.368  0.1234  0.1183  0.1999
  737SOL    HW1 2210   0.302   2.215   1.268  0.4961  1.3184  1.4517
  737SOL    HW2 2211   0.202   2.247   1.385 -1.1336 -3.7843 -1.4281
  738SOL     OW 2212   1.850   2.592   2.962  0.1611 -0.5481 -0.4830
  738SOL    HW1 2213   1.797   2.684   2.957 -3.2269  4.1880 -0.5269
  738SOL    HW2 2214   1.840   2.536   3.048  2.8001 -3.4552 -0.4753
  739SOL     OW 2215   1.186   2.149   2.422  0.0467 -0.3020  0.3873
  739SOL    HW1 2216   1.261   2.164   2.491 -2.1059  0.2527 -0.4719
  739SOL    HW2 2217   1.114   2.096   2.470  0.6809  0.8645  0.3539
  740SOL     OW 2218   1.192   2.676   1.084 -0.5175 -0.4330  0.8223
  740SOL    HW1 2219   1.226   2.619   1.008 -2.4693 -1.2871 -0.4451
  740SOL    HW2 2220   1.251   2.763   1.089  1.3449 -2.1261 -1.3458
  741SOL     OW 2221   2.905   1.020   0.254  0.0663 -0.4553 -0.4094
  741SOL    HW1 2222   2.887   1.098   0.316  0.0371  0.4974 -0.6145
  741SOL    HW2 2223   2.995   1.032   0.211 -2.0749  0.7953  2.7868
  742SOL     OW 2224   0.956   1.544   2.572  0.0139  0.5591 -0.0132
  742SOL    HW1 2225   1.043   1.514   2.617  0.9210 -2.5415 -0.7329
  742SOL    HW2 2226   0.971   1.632   2.525 -0.6943  2.5178  0.6697
  743SOL     OW 2227   0.882   0.863   2.477 -0.4035 -0.4221 -0.8431
  743SOL    HW1 2228   0.783   0.884   2.498 -0.6164  0.0206 -0.0776
  743SOL    HW2 2229   0.907   0.768   2.457 -2.1588  1.9456 -1.4858
  744SOL     OW 2230   2.023   2.757   1.539 -0.4935 -0.1864 -0.0843
  744SOL    HW1 2231   1.929   2.754   1.580  0.1485 -0.8506  1.1980
  744SOL    HW2 2232   2.042   2.847   1.497 -0.6248 -1.3606 -1.5389
  745SOL     OW 2233   1.741   1.400   1.351 -0.6537  0.0005  0.3119
  745SOL    HW1 2234   1.646   1.428   1.375  2.7889  2.3521 -0.4329
  745SOL    HW2 2235   1.786   1.345   1.424 -1.4702  1.8250 -2.7330
  746SOL     OW 2236   1.727   0.847   0.845 -0.2599 -0.0641  0.0213
  746SOL    HW1 2237   1.818   0.876   0.881 -1.4587 -0.2462 -0.1114
  746SOL    HW2 2238   1.661   0.838   0.914  0.8732 -0.2340 -2.9907
  747SOL     OW 2239   2.158   1.782   0.852 -0.3196  0.4795  0.2428
  747SOL    HW1 2240   2.171   1.747   0.755 -1.7446  1.1810 -2.6681
  747SOL    HW2 2241   2.062   1.804   0.861  1.9839  0.8875  0.5463
  748SOL     OW 2242   0.342   1.488   0.167  0.4170 -0.0567 -0.2563
  748SOL    HW1 2243   0.308   1.576   0.123 -0.6830 -0.3034 -3.7314
  748SOL    HW2 2244   0.378   1.418   0.101 -0.4301  2.4321  0.1704
  749SOL     OW 2245   0.117   2.418   2.504  0.2881 -0.4143 -0.2321
  749SOL    HW1 2246   0.173   2.335   2.495 -2.9018  3.4148 -0.6066
  749SOL    HW2 2247   0.027   2.403   2.554  0.5318  1.6369  1.3704
  750SOL     OW 2248   2.129   0.699   1.211 -0.0731 -0.3561 -0.7064
  750SOL    HW1 2249   2.207   0.647   1.252 -2.6625  0.5512  1.5344
  750SOL    HW2 2250   2.072   0.748   1.282 -0.2117 -2.7620  0.1441
  751SOL     OW 2251   2.604   3.057   0.322 -0.3073  0.2978 -0.1083
  751SOL    HW1 2252   2.625   3.025   0.232 -1.4371  2.1771  1.9212
  751SOL    HW2 2253   2.644   2.999   0.395  0.1885  1.9879 -0.0919
  752SOL     OW 2254   2.461   2.572   0.480  0.3915  0.6092 -0.0136
  752SOL    HW1 2255   2.375   2.628   0.494 -0.2525  0.8975 -0.2009
  752SOL    HW2 2256   2.513   2.560   0.564 -1.8716  0.2574 -0.4217
  753SOL     OW 2257   1.950   1.569   2.288 -0.1005 -0.3776 -0.1071
  753SOL    HW1 2258   2.020   1.543   2.354 -3.3264 -1.5248 -1.1370
  753SOL    HW2 2259   1.985   1.644   2.227 -0.8370  0.3121  0.4044
  754SOL     OW 2260   2.312   2.385   1.471 -0.3142  0.3160 -0.9024
  754SOL    HW1 2261   2.321   2.293   1.428 -2.1892 -1.7740  4.0345
  754SOL    HW2 2262   2.284   2.380   1.572  0.1512  0.4226  1.9524
  755SOL     OW 2263   2.372   0.857   1.095 -0.0960  0.4598  0.4714
  755SOL    HW1 2264   2.404   0.848   1.189  0.0361 -0.5552 -1.2573
  755SOL    HW2 2265   2.278   0.826   1.088 -0.2606  1.5761  2.1322
  756SOL     OW 2266   1.142   1.406   2.993 -0.1295  0.0501 -0.4402
  756SOL    HW1 2267   1.156   1.379   2.900 -1.8936 -1.5593  1.1424
  756SOL    HW2 2268   1.043   1.399   3.018  0.9199  0.5119  1.2178
  757SOL     OW 2269   1.840   2.631   1.059 -0.2564  0.0869  0.0151
  757SOL    HW1 2270   1.905   2.705   1.038 -1.8306 -0.6108  0.1426
  757SOL    HW2 2271   1.807   2.590   0.970  1.4902 -0.8068  0.4460
  758SOL     OW 2272   0.881   2.486   1.311  0.3296 -0.1955 -0.0178
  758SOL    HW1 2273   0.935   2.522   1.391 -1.3305  1.4684 -1.1375
  758SOL    HW2 2274   0.924   2.396   1.286  0.1536 -1.2453 -1.4108
  759SOL     OW 2275   2.187   1.225   1.021  0.3771  0.3199  0.0196
  759SOL    HW1 2276   2.261   1.290   1.040  0.8123 -0.3587  1.6044
  759SOL    HW2 2277   2.123   1.264   0.950 -3.1643  0.5954 -2.6785
  760SOL     OW 2278   2.162   1.033   1.495  0.1612 -0.2638  0.4587
  760SOL    HW1 2279   2.101   0.964   1.448 -1.0327 -1.4366 -0.9856
  760SOL    HW2 2280   2.148   1.126   1.450 -2.4579 -1.3601 -0.2362
  761SOL     OW 2281   2.121   2.836   0.323  0.5043  0.1099 -0.0491
  761SOL    HW1 2282   2.062   2.914   0.289  0.0007  1.2286 -0.5252
  761SOL    HW2 2283   2.218   2.842   0.287  1.2846 -0.9935  0.3838
  762SOL     OW 2284   2.041   1.543   2.920 -0.2180  0.4827  0.1618
  762SOL    HW1 2285   2.038   1.613   2.848 -2.3531  1.1980  0.8970
  762SOL    HW2 2286   1.975   1.575   2.993 -0.3296 -0.0774  0.8846
  763SOL     OW 2287   0.487   1.705   1.557 -0.5483  0.5611  0.5951
  763SOL    HW1 2288   0.473   1.801   1.529  2.0447  0.2045  3.0729
  763SOL    HW2 2289   0.494   1.700   1.660 -1.2419  0.2911  0.2532
  764SOL     OW 2290   0.189   2.603   3.069 -0.1385  0.0277 -0.2225
  764SOL    HW1 2291   0.137   2.536   0.003  1.2111 -0.0186  0.1756
  764SOL    HW2 2292   0.157   2.594   2.972 -1.8154  1.7259 -0.2846
  765SOL     OW 2293   0.469   0.043   1.604  0.4062 -1.0615 -0.0851
  765SOL    HW1 2294   0.565   0.056   1.578 -2.0353  1.5309 -1.6023
  765SOL    HW2 2295   0.459   0.026   1.707  1.5152  1.0220  1.8815
  766SOL     OW 2296   0.095   2.052   2.338 -0.7505 -0.0546  0.0096
  766SOL    HW1 2297   0.017   2.118   2.314  0.1592  0.0640 -2.8266
  766SOL    HW2 2298   0.058   1.970   2.389  2.5771 -1.8294 -0.4667
  767SOL     OW 2299   0.036   1.290   1.918  0.3861  0.1461 -0.6814
  767SOL    HW1 2300   0.017   1.285   2.018  0.9008  2.7540 -2.1719
  767SOL    HW2 2301   3.074   1.318   1.874  1.7206 -0.6887  1.3163
  768SOL     OW 2302   0.913   0.271   3.015  0.8615  0.1889  0.3724
  768SOL    HW1 2303   0.920   0.260   3.116 -0.1372 -0.4161 -3.0801
  768SOL    HW2 2304   0.812   0.264   2.985 -1.9024  0.2628 -0.5726
  769SOL     OW 2305   2.217   2.493   0.704 -0.6338  0.1705  0.1178
  769SOL    HW1 2306   2.287   2.477   0.777 -0.7113  0.5310  1.2454
  769SOL    HW2 2307   2.236   2.577   0.646  0.1712 -0.2960 -1.1256
  770SOL     OW 2308   2.827   0.110   2.915  0.0952 -0.0330  0.1875
  770SOL    HW1 2309   2.756   0.111   2.988 -0.5822 -3.9263 -1.2730
  770SOL    HW2 2310   2.814   0.023   2.859  0.2172  0.3460 -0.9947
  771SOL     OW 2311   1.837   2.242   1.837 -0.2726  0.5299  0.5643
  771SOL    HW1 2312   1.897   2.238   1.755  0.8426  0.0436  1.4045
  771SOL    HW2 2313   1.738   2.243   1.811 -3.9732  0.4891  1.1885
  772SOL     OW 2314   1.114   0.116   2.949  0.3236  0.0742 -0.1407
  772SOL    HW1 2315   1.034   0.170   2.983  0.6245 -0.0406  1.0995
  772SOL    HW2 2316   1.162   0.167   2.871  0.7809  0.2438 -2.1869
  773SOL     OW 2317   2.981   0.908   1.816  0.5410 -0.6607  0.0450
  773SOL    HW1 2318   2.972   0.842   1.892 -1.4284  0.4619 -1.4265
  773SOL    HW2 2319   3.074   0.938   1.807  0.0029  0.0580  0.0801
  774SOL     OW 2320   1.153   1.004   0.525 -0.2905  0.5902 -0.1400
  774SOL    HW1 2321   1.183   1.065   0.453  1.1210 -0.4707  0.2450
  774SOL    HW2 2322   1.162   1.043   0.619  0.3310 -1.7599  1.1129
  775SOL     OW 2323   2.687   3.014   0.072  0.1207  0.0377  0.1576
  775SOL    HW1 2324   2.694   3.111   0.048  0.1044 -0.9387 -0.9452
  775SOL    HW2 2325   2.625   2.969   0.007 -3.9305  1.7910 -0.6540
  776SOL     OW 2326   2.666   1.002   2.044 -0.1060  0.3906  0.2953
  776SOL    HW1 2327   2.565   1.006   2.026 -2.9415  0.1548 -1.0517
  776SOL    HW2 2328   2.691   0.908   2.062 -0.7047  0.5153  0.0266
  777SOL     OW 2329   3.101   1.225   2.807 -0.3633  0.0747  0.1832
  777SOL    HW1 2330   3.099   1.145   2.742 -1.1646 -2.9025  0.6847
  777SOL    HW2 2331   3.019   1.285   2.800 -0.7500  2.0411  3.4296
  778SOL     OW 2332   0.705   0.292   0.366  0.4206 -0.6008 -0.2967
  778SOL    HW1 2333   0.758   0.309   0.283  0.7250 -1.7294  0.9417
  778SOL    HW2 2334   0.688   0.192   0.380 -0.2995 -1.1722  0.9437
  779SOL     OW 2335   0.499   0.524   2.804  0.1200 -0.0474  0.5061
  779SOL    HW1 2336   0.541   0.583   2.870 -1.1328 -3.2685 -1.6262
  779SOL    HW2 2337   0.403   0.507   2.829  6.0830  0.2105 -2.8986
  780SOL     OW 2338   1.687   0.697   2.616  0.7571  0.0655  0.3284
  780SOL    HW1 2339   1.710   0.642   2.533 -2.0468 -0.6269  1.8986
  780SOL    HW2 2340   1.768   0.754   2.643 -2.8847  0.1008 -0.8362
  781SOL     OW 2341   0.101   1.014   1.783  0.0265 -0.5262  0.0878
  781SOL    HW1 2342   0.183   0.974   1.824 -2.5343  1.4967  0.1737
  781SOL    HW2 2343   0.082   1.113   1.805 -0.7597  1.1173  0.8984
  782SOL     OW 2344   0.707   1.808   2.968  0.2247  0.0334  0.2130
  782SOL    HW1 2345   0.649   1.842   3.045 -1.2315 -0.8206  0.7924
  782SOL    HW2 2346   0.798   1.785   3.009  2.7352  2.8222  0.1358
  783SOL     OW 2347   0.911   2.696   1.692  0.3529 -0.1312  0.4688
  783SOL    HW1 2348   0.834   2.723   1.632 -0.2987  0.3414  1.8118
  783SOL    HW2 2349   0.975   2.635   1.636 -0.1483 -0.1994 -0.5631
  784SOL     OW 2350   1.355   0.139   3.032  0.6832 -0.4297  0.6676
  784SOL    HW1 2351   1.254   0.151   3.016 -1.1597 -1.3854 -0.5350
  784SOL    HW2 2352   1.400   0.230   3.043  2.0272  0.0728  2.3391
  785SOL     OW 2353   1.115   0.434   2.341  0.2534 -0.4727  0.1760
  785SOL    HW1 2354   1.196   0.395   2.382 -3.2390  1.7597 -2.0421
  785SOL    HW2 2355   1.069   0.366   2.280 -3.8241 -0.2021 -1.9882
  786SOL     OW 2356   0.563   1.843   0.456 -0.0570  0.3605 -0.2804
  786SOL    HW1 2357   0.506   1.783   0.400 -1.3272 -3.7063 -1.6911
  786SOL    HW2 2358   0.503   1.923   0.484 -0.1366  0.3181  1.9033
  787SOL     OW 2359   1.508   0.926   0.298 -0.4587  0.4158 -0.6273
  787SOL    HW1 2360   1.439   0.969   0.239  0.2418 -0.0560  2.0210
  787SOL    HW2 2361   1.538   0.992   0.371  1.0084  1.7989 -0.0584
  788SOL     OW 2362   2.202   1.486   1.244 -0.1703 -0.1119  0.8689
  788SOL    HW1 2363   2.278   1.461   1.183 -2.9603 -1.9858 -0.4194
  788SOL    HW2 2364   2.227   1.554   1.315 -0.8609  0.9543  1.1134
  789SOL     OW 2365   0.078   1.666   2.011 -0.1864 -0.6569  0.1306
  789SOL    HW1 2366   0.145   1.626   1.944  0.3901 -0.3843  1.7390
  789SOL    HW2 2367   0.089   1.608   2.099  2.1595  1.1997 -0.7633
  790SOL     OW 2368   0.632   3.026   0.168  0.3287 -0.2259 -0.2897
  790SOL    HW1 2369   0.559   2.954   0.162 -1.7784 -1.1959  1.3890
  790SOL    HW2 2370   0.621   3.081   0.255  2.6292  0.3653  1.5855
  791SOL     OW 2371   0.357   0.462   0.178  0.0103  0.5290  0.2744
  791SOL    HW1 2372   0.399   0.472   0.272 -0.7476  0.0544  2.2122
  791SOL    HW2 2373   0.432   0.440   0.109 -0.4167 -0.7576 -1.0037
  792SOL     OW 2374   1.690   0.535   2.367  0.3038  0.9728  0.5956
  792SOL    HW1 2375   1.714   0.447   2.409  1.3508 -1.4051  0.9216
  792SOL    HW2 2376   1.752   0.557   2.288 -1.7530 -0.2369 -1.9613
  793SOL     OW 2377   3.050   0.520   0.750  0.2923  0.0925 -0.5556
  793SOL    HW1 2378   3.065   0.617   0.715  0.1705 -0.4320 -0.8651
  793SOL    HW2 2379   3.091   0.510   0.840 -0.4187 -4.7475 -0.8657
  794SOL     OW 2380   0.515   0.465   1.642  0.0249 -0.0713  0.4712
  794SOL    HW1 2381   0.482   0.546   1.591 -2.9838 -0.3733  0.4782
  794SOL    HW2 2382   0.462   0.377   1.625  2.2147 -1.1960 -0.1041
  795SOL     OW 2383   0.018   1.103   0.131 -0.4894 -0.0804  0.4670
  795SOL    HW1 2384   0.074   1.176   0.169 -1.6310 -3.1078 -0.2875
  795SOL    HW2 2385   0.008   1.118   0.029 -0.1647 -1.9214  0.0040
  796SOL     OW 2386   0.199   0.659   0.072 -0.2045 -0.4061 -0.1619
  796SOL    HW1 2387   0.252   0.582   0.117 -0.1555  0.3216 -0.0270
  796SOL    HW2 2388   0.180   0.732   0.140  2.2838  0.2342 -0.8876
  797SOL     OW 2389   1.416   2.519   0.045  0.1002  0.4988  0.0856
  797SOL    HW1 2390   1.367   2.606   0.026  3.3826  0.3582 -0.2714
  797SOL    HW2 2391   1.388   2.439   3.109  0.9419 -1.8975 -0.2371
  798SOL     OW 2392   2.890   0.642   1.191  0.4332 -0.4997  0.1233
  798SOL    HW1 2393   2.900   0.558   1.136  2.8337  2.2389  2.4475
  798SOL    HW2 2394   2.825   0.707   1.145 -0.3335 -2.3215  1.5641
  799SOL     OW 2395   2.462   0.516   2.000  0.0681 -0.1987  0.3229
  799SOL    HW1 2396   2.395   0.590   2.004  1.7988 -1.7759 -1.9333
  799SOL    HW2 2397   2.556   0.550   1.988 -2.1186  3.3123  0.7368
  800SOL     OW 2398   0.028   2.023   0.452 -0.4542 -0.2226  0.2927
  800SOL    HW1 2399   0.012   1.989   0.545  2.7787  0.3697  2.3699
  800SOL    HW2 2400   0.001   2.122   0.449 -2.8719  0.6306  0.0292
  801SOL     OW 2401   1.523   2.012   0.820 -0.5908  0.1928  1.0649
  801SOL    HW1 2402   1.548   1.972   0.732 -0.8096 -0.4959  0.3820
  801SOL    HW2 2403   1.536   1.944   0.891 -1.6337  1.9496 -0.7996
  802SOL     OW 2404   1.182   1.454   2.684  0.2324  0.2349 -0.0404
  802SOL    HW1 2405   1.173   1.356   2.662  1.8491  0.9830 -0.7220
  802SOL    HW2 2406   1.277   1.479   2.673 -2.6869 -0.6152 -1.5706
  803SOL     OW 2407   3.086   2.187   1.672 -0.0303  0.1384 -0.9981
  803SOL    HW1 2408   3.089   2.180   1.571 -0.2598  0.3658 -0.2499
  803SOL    HW2 2409   0.043   2.245   1.704 -0.4013 -0.0180 -0.4924
  804SOL     OW 2410   1.255   2.639   1.360  0.1781 -0.0933  0.0365
  804SOL    HW1 2411   1.317   2.559   1.367  1.5683 -0.7064 -0.5181
  804SOL    HW2 2412   1.238   2.645   1.259 -0.2014  1.1304  1.9732
  805SOL     OW 2413   2.371   2.003   2.798 -0.1334 -0.2921 -0.2988
  805SOL    HW1 2414   2.371   2.107   2.799  1.3601 -1.6834  0.1330
  805SOL    HW2 2415   2.328   1.965   2.711  1.3875  0.2259 -1.0892
  806SOL     OW 2416   2.142   0.100   0.647 -0.5207 -0.7297 -0.2492
  806SOL    HW1 2417   2.142   0.126   0.746 -0.4053  0.0614 -1.8936
  806SOL    HW2 2418   2.197   0.013   0.640 -0.5947 -2.0951  0.4521
  807SOL     OW 2419   2.776   0.750   2.784 -0.0598 -0.0701  0.3430
  807SOL    HW1 2420   2.754   0.669   2.727  2.0236  0.1895 -1.0202
  807SOL    HW2 2421   2.705   0.823   2.791 -0.1276  2.0033  3.5814
  808SOL     OW 2422   0.767   1.330   0.549 -0.0397 -1.1853  0.7595
  808SOL    HW1 2423   0.683   1.348   0.496 -1.0507 -0.9790 -1.5183
  808SOL    HW2 2424   0.754   1.246   0.608 -1.1144 -1.1403 -0.9760
  809SOL     OW 2425   2.733   0.345   2.083  0.0611 -0.2252 -0.4492
  809SOL    HW1 2426   2.655   0.286   2.060  0.5971 -0.6897 -0.7504
  809SOL    HW2 2427   2.745   0.419   2.014  0.7925  0.9698  0.1775
  810SOL     OW 2428   1.127   0.578   1.297  0.6281  0.1280  0.4299
  810SOL    HW1 2429   1.051   0.545   1.229 -2.8168  3.3944  0.7317
  810SOL    HW2 2430   1.209   0.534   1.275 -2.6159 -0.2687  0.0730
  811SOL     OW 2431   2.509   0.001   1.742  0.1398  0.5809  0.2101
  811SOL    HW1 2432   2.478   0.099   1.749 -0.8471  1.2628 -0.0866
  811SOL    HW2 2433   2.483   3.066   1.822 -0.5646  0.5856  0.7094
  812SOL     OW 2434   1.788   2.139   0.068  0.0083  0.3992  0.9166
  812SOL    HW1 2435   1.713   2.155   0.138 -1.3925  0.7175 -1.4577
  812SOL    HW2 2436   1.872   2.172   0.105 -1.8838 -1.5944 -0.2704
  813SOL     OW 2437   1.178   0.714   1.703  0.1801 -0.0628 -0.5607
  813SOL    HW1 2438   1.173   0.639   1.634  1.0314  1.5297 -1.5056
  813SOL    HW2 2439   1.260   0.777   1.689  0.1326  4.9872  1.4961
  814SOL     OW 2440   0.423   0.462   1.309 -0.2289  0.6154 -0.1830
  814SOL    HW1 2441   0.515   0.491   1.336  0.2123 -2.8683 -0.0010
  814SOL    HW2 2442   0.397   0.371   1.347 -0.8900 -4.0160  0.3240
  815SOL     OW 2443   0.718   0.428   0.619 -0.2880 -0.2754 -0.4338
  815SOL    HW1 2444   0.729   0.385   0.526 -0.0373  0.7367 -1.8296
  815SOL    HW2 2445   0.654   0.508   0.613 -0.7998  0.2458 -0.8966
  816SOL     OW 2446   2.125   1.546   2.519  0.2854  0.0417  0.4097
  816SOL    HW1 2447   2.135   1.621   2.593  2.0064  2.5309  1.7387
  816SOL    HW2 2448   2.217   1.520   2.487  0.4286 -0.3648  2.2220
  817SOL     OW 2449   1.103   2.879   0.687 -0.6429  0.0760  0.1985
  817SOL    HW1 2450   1.124   2.779   0.684 -1.2922  0.0038  1.0683
  817SOL    HW2 2451   1.090   2.912   0.588 -2.1818  1.4557 -1.9164
  818SOL     OW 2452   1.658   0.531   2.998  0.2694 -0.2941 -0.1164
  818SOL    HW1 2453   1.731   0.548   3.068  2.4124  0.5866  2.1577
  818SOL    HW2 2454   1.642   0.615   2.937  0.5319  0.6333  3.3722
  819SOL     OW 2455   1.772   0.141   0.045 -0.1854  0.5099 -0.0797
  819SOL    HW1 2456   1.822   0.065   0.001 -2.1397  0.6779  0.1017
  819SOL    HW2 2457   1.784   0.231   3.117 -1.5920  0.4247  0.6029
  820SOL     OW 2458   1.869   0.555   0.047  0.0325  0.0106 -0.4577
  820SOL    HW1 2459   1.939   0.628   0.025  0.2518 -2.2996  1.5025
  820SOL    HW2 2460   1.918   0.472   0.063 -2.0286  1.6699 -1.9134
  821SOL     OW 2461   2.789   0.435   0.764 -0.2203  0.0576  0.0955
  821SOL    HW1 2462   2.888   0.453   0.781  0.1708 -2.1093 -0.7484
  821SOL    HW2 2463   2.776   0.378   0.678  0.1746 -0.3312  0.5329
  822SOL     OW 2464   0.888   2.314   2.041 -0.2226 -0.0812 -0.3659
  822SOL    HW1 2465   0.962   2.326   2.107 -1.7003  0.5562 -0.8948
  822SOL    HW2 2466   0.878   2.211   2.028 -1.2554 -4.1173  1.2693
  823SOL     OW 2467   0.242   1.671   1.776 -0.1684 -0.3566  0.5857
  823SOL    HW1 2468   0.341   1.662   1.773  1.2680  1.5404  0.4285
  823SOL    HW2 2469   0.199   1.607   1.712 -0.9877  1.5741  2.8979
  824SOL     OW 2470   1.357   2.765   2.576  0.1474  0.2271  0.2331
  824SOL    HW1 2471   1.427   2.691   2.588  1.2991 -1.5348  0.5486
  824SOL    HW2 2472   1.303   2.777   2.662 -2.3171  0.0889  0.4568
  825SOL     OW 2473   1.689   0.717   0.603  0.0089 -0.1108  0.2237
  825SOL    HW1 2474   1.774   0.685   0.557  1.5807  0.5704 -1.5505
  825SOL    HW2 2475   1.717   0.754   0.697  1.2705  2.6934  1.9163
  826SOL     OW 2476   1.952   0.826   3.120 -0.0478  0.2123  0.4784
  826SOL    HW1 2477   1.954   0.849   0.096  0.0742  1.3468  1.8693
  826SOL    HW2 2478   1.858   0.851   3.089 -1.2073  0.6352 -2.2216
  827SOL     OW 2479   0.458   1.765   2.059 -0.0385 -0.4250  0.3190
  827SOL    HW1 2480   0.387   1.839   2.080 -1.1189  1.4098 -0.4945
  827SOL    HW2 2481   0.418   1.675   2.083 -0.9923 -0.3038 -2.8444
  828SOL     OW 2482   2.408   1.391   1.573 -0.4028 -0.6791  0.0311
  828SOL    HW1 2483   2.443   1.404   1.668  0.0148 -2.0991  1.1334
  828SOL    HW2 2484   2.465   1.321   1.529 -3.4476 -0.5912  0.5321
  829SOL     OW 2485   0.175   1.736   0.406  0.6988 -0.1682 -0.3098
  829SOL    HW1 2486   0.221   1.649   0.434  1.6414 -2.0327 -2.3584
  829SOL    HW2 2487   0.155   1.805   0.482 -0.3117  1.7432 -0.7351
  830SOL     OW 2488   1.515   1.013   0.732  0.1755 -0.3818 -0.1758
  830SOL    HW1 2489   1.592   0.985   0.787 -0.6500  0.1849 -2.2260
  830SOL    HW2 2490   1.468   0.936   0.687 -1.5755  1.7899  0.0053
  831SOL     OW 2491   2.863   1.790   3.098  0.3981 -0.5243  0.6745
  831SOL    HW1 2492   2.880   1.700   3.056  1.8375  0.4915  2.6401
  831SOL    HW2 2493   2.788   1.787   0.042  0.1627  0.2458 -1.7167
  832SOL     OW 2494   0.897   0.263   0.165  0.1662  0.5825 -0.1487
  832SOL    HW1 2495   0.958   0.343   0.194  0.5338  1.8033  2.6462
  832SOL    HW2 2496   0.921   0.184   0.225  0.7734  0.1997 -1.0699
  833SOL     OW 2497   0.570   0.698   2.347 -0.3264 -0.7389  0.0906
  833SOL    HW1 2498   0.626   0.631   2.292 -0.1097 -0.3355 -1.8737
  833SOL    HW2 2499   0.573   0.663   2.444 -0.3353 -0.9865  0.8945
  834SOL     OW 2500   0.241   0.322   0.745 -0.3796 -0.2172 -1.0096
  834SOL    HW1 2501   0.313   0.275   0.794  1.5956 -0.4186 -5.0280
  834SOL    HW2 2502   0.259   0.314   0.649 -0.6047 -2.5934  1.1589
  835SOL     OW 2503   2.777   2.910   1.191 -0.4337 -0.1034 -0.0821
  835SOL    HW1 2504   2.785   2.948   1.287  0.3213 -0.5703 -1.3468
  835SOL    HW2 2505   2.761   2.991   1.132  2.3521  3.0359  1.1095
  836SOL     OW 2506   0.344   1.899   0.207 -0.4559  0.0249 -0.0301
  836SOL    HW1 2507   0.342   2.002   0.217  0.1424  0.0135  0.4037
  836SOL    HW2 2508   0.285   1.860   0.279  1.6528  0.2150 -2.0076
  837SOL     OW 2509   1.680   1.537   2.226  0.1339  0.0604  0.1219
  837SOL    HW1 2510   1.646   1.632   2.214 -0.1154  0.6840  0.0527
  837SOL    HW2 2511   1.774   1.541   2.260 -1.6344 -1.2693  0.6183
  838SOL     OW 2512   0.583   0.878   1.813  0.1259 -0.0280 -0.4194
  838SOL    HW1 2513   0.583   0.976   1.780 -1.5571  0.3495 -1.8852
  838SOL    HW2 2514   0.644   0.862   1.893 -0.9526  1.9263  2.5765
  839SOL     OW 2515   0.360   1.470   0.926  0.2390  0.5551  0.5169
  839SOL    HW1 2516   0.357   1.457   1.027 -0.3561 -1.1362 -1.0253
  839SOL    HW2 2517   0.353   1.378   0.879 -1.8178  0.5551  0.0385
  840SOL     OW 2518   2.222   0.114   1.667 -0.2386  0.1058 -0.2964
  840SOL    HW1 2519   2.238   0.022   1.628 -2.2013 -1.3454 -0.8304
  840SOL    HW2 2520   2.150   0.116   1.735  1.4810 -2.9659  1.9879
  841SOL     OW 2521   0.620   2.397   0.489 -0.0277  0.2382 -0.0247
  841SOL    HW1 2522   0.717   2.425   0.469 -2.0059 -0.4532 -0.1662
  841SOL    HW2 2523   0.569   2.376   0.401 -0.7522 -1.8910 -2.2468
  842SOL     OW 2524   0.378   0.193   0.934  0.2056  0.4958 -0.5663
  842SOL    HW1 2525   0.431   0.276   0.963 -1.1293  1.7109 -0.2481
  842SOL    HW2 2526   0.435   0.137   0.871  1.2098  0.9263 -2.2592
  843SOL     OW 2527   0.105   1.416   3.023 -0.2087  0.0499  0.0353
  843SOL    HW1 2528   0.147   1.453   2.935  1.4164  1.7712 -1.2681
  843SOL    HW2 2529   0.104   1.316   3.027 -0.4069 -1.2387 -1.7689
  844SOL     OW 2530   1.135   2.265   0.018  0.3045 -0.1330  0.4843
  844SOL    HW1 2531   1.083   2.187   3.098 -1.4754  2.5223 -0.2492
  844SOL    HW2 2532   1.228   2.268   3.094  3.1053 -1.2494 -1.0516
  845SOL     OW 2533   2.562   2.876   2.538 -0.2015  0.2410 -0.1090
  845SOL    HW1 2534   2.652   2.874   2.497 -2.8219 -1.0512 -0.8895
  845SOL    HW2 2535   2.505   2.946   2.496  1.1387 -1.3026  2.5398
  846SOL     OW 2536   2.166   1.747   0.067  0.2216  0.1603 -0.1425
  846SOL    HW1 2537   2.191   1.770   3.092  0.0116  0.6764 -2.5275
  846SOL    HW2 2538   2.061   1.741   0.070 -1.1224  1.3592  0.6650
  847SOL     OW 2539   2.651   0.157   3.109  0.1294 -0.0197  0.5982
  847SOL    HW1 2540   2.550   0.142   3.116  1.4637  0.9622 -1.7582
  847SOL    HW2 2541   2.683   0.243   0.038 -0.2379  1.3571  3.1927
  848SOL     OW 2542   0.318   0.620   0.775 -0.1759 -0.2053  0.0612
  848SOL    HW1 2543   0.375   0.645   0.860  1.3554 -0.5125  0.7413
  848SOL    HW2 2544   0.293   0.523   0.782  1.9781  1.8398 -0.5875
  849SOL     OW 2545   1.324   2.887   2.063 -0.3060 -0.1496  0.1547
  849SOL    HW1 2546   1.333   2.842   2.154 -0.2984  2.3917  2.1104
  849SOL    HW2 2547   1.289   2.828   1.989 -1.9200 -3.1623  2.1207
  850SOL     OW 2548   0.539   1.395   0.417 -0.0550 -0.4698 -0.4053
  850SOL    HW1 2549   0.454   1.444   0.418  2.0620 -1.6074 -0.9625
  850SOL    HW2 2550   0.576   1.398   0.322 -0.1715 -0.8262  0.9999
  851SOL     OW 2551   0.129   1.313   0.262 -0.1036 -0.4047  0.1234
  851SOL    HW1 2552   0.205   1.377   0.237 -2.3892  2.4707 -0.4796
  851SOL    HW2 2553   0.132   1.285   0.361 -2.1537 -0.2026  0.2931
  852SOL     OW 2554   1.578   2.776   1.921 -0.3000 -0.3255 -0.2072
  852SOL    HW1 2555   1.502   2.791   1.856 -0.1181  0.0933  1.2624
  852SOL    HW2 2556   1.557   2.811   2.015 -1.3791  1.3888  2.3437
  853SOL     OW 2557   2.827   1.447   0.037  0.8058  0.0667 -0.4735
  853SOL    HW1 2558   2.852   1.499   3.079 -2.3437 -0.4552 -1.1056
  853SOL    HW2 2559   2.897   1.458   0.110 -1.8001  0.9673  2.1358
  854SOL     OW 2560   1.637   1.340   2.021 -0.2815  0.4300  0.3708
  854SOL    HW1 2561   1.638   1.412   2.090  2.8452 -0.7769 -1.0090
  854SOL    HW2 2562   1.543   1.295   2.024  1.4802  1.3790 -1.4881
  855SOL     OW 2563   0.474   2.440   3.095  0.2815 -0.2241 -0.4561
  855SOL    HW1 2564   0.387   2.482   0.008 -0.2939 -0.6000  2.8268
  855SOL    HW2 2565   0.512   2.491   3.016  0.7713  0.1581 -2.1976
  856SOL     OW 2566   0.308   0.878   1.874 -0.2913  0.4347  0.0866
  856SOL    HW1 2567   0.288   0.819   1.955  0.8607 -0.1283  0.7213
  856SOL    HW2 2568   0.405   0.865   1.837  1.9892  0.0694 -3.0510
  857SOL     OW 2569   1.265   1.006   2.241  0.0340  0.0676 -0.4102
  857SOL    HW1 2570   1.265   0.904   2.239  0.3910 -3.6752  0.5601
  857SOL    HW2 2571   1.296   1.046   2.328  1.1906  1.2444 -0.9894
  858SOL     OW 2572   0.332   1.310   2.541 -0.0182 -0.2610  0.0496
  858SOL    HW1 2573   0.246   1.365   2.540 -3.0408 -0.3963 -1.0997
  858SOL    HW2 2574   0.313   1.211   2.517  3.6893  1.1507  1.3134
  859SOL     OW 2575   2.676   0.005   0.986 -0.2433 -0.2858  0.0950
  859SOL    HW1 2576   2.596   0.064   1.011 -0.6605 -0.8134 -0.8488
  859SOL    HW2 2577   2.766   0.055   0.989 -0.4659 -0.9677  0.0214
  860SOL     OW 2578   2.252   2.872   3.061 -1.1846  0.1360  0.0150
  860SOL    HW1 2579   2.274   2.872   0.035  0.6967  1.1519 -0.7391
  860SOL    HW2 2580   2.243   2.782   3.016 -1.2873 -1.5762 -0.8135
  861SOL     OW 2581   0.931   0.599   0.673 -0.3191  0.2166 -0.1826
  861SOL    HW1 2582   0.852   0.536   0.689  1.4082  0.4460 -1.7847
  861SOL    HW2 2583   0.916   0.658   0.593 -1.7297 -3.9569 -1.3495
  862SOL     OW 2584   1.353   0.320   2.460 -0.0290 -0.3387 -0.0778
  862SOL    HW1 2585   1.319   0.295   2.551  3.2377  1.0237 -2.6486
  862SOL    HW2 2586   1.416   0.249   2.417  1.5052  1.8161  1.0721
  863SOL     OW 2587   2.383   2.374   0.906 -0.1001 -0.1859 -0.3618
  863SOL    HW1 2588   2.371   2.382   1.009  0.5023  2.9791  3.2319
  863SOL    HW2 2589   2.406   2.278   0.881 -3.6297 -0.4075  3.1225
  864SOL     OW 2590   2.738   3.090   2.049 -0.0041  0.2518 -0.1425
  864SOL    HW1 2591   2.794   3.036   1.985  0.8458  0.5067  2.5403
  864SOL    HW2 2592   2.794   0.008   2.124 -1.6302  0.6018 -0.3655
  865SOL     OW 2593   1.190   0.633   1.967  0.1699 -0.1424 -0.4737
  865SOL    HW1 2594   1.275   0.585   2.001  2.1877  2.6118  0.7221
  865SOL    HW2 2595   1.194   0.673   1.872  1.0210  0.8728 -0.5997
  866SOL     OW 2596   2.054   2.808   1.028 -0.3400  0.8432 -0.3836
  866SOL    HW1 2597   2.150   2.810   1.072 -0.0817  1.8439 -1.0335
  866SOL    HW2 2598   2.003   2.894   1.020 -1.6045 -1.0456 -0.4091
  867SOL     OW 2599   2.746   2.346   0.571  0.9369  0.1790  0.5640
  867SOL    HW1 2600   2.800   2.420   0.527 -0.9089  2.5851  1.2058
  867SOL    HW2 2601   2.647   2.376   0.586  0.8727  0.5429 -0.2613
  868SOL     OW 2602   0.606   2.286   1.627 -0.0246  0.0555  0.1294
  868SOL    HW1 2603   0.510   2.326   1.633 -0.1791 -0.3668 -0.9106
  868SOL    HW2 2604   0.626   2.265   1.531  0.2051  2.2851  0.1997
  869SOL     OW 2605   2.227   2.286   3.043  0.2969  0.1001  0.1232
  869SOL    HW1 2606   2.285   2.292   2.958  1.9741 -1.2980 -2.3159
  869SOL    HW2 2607   2.251   2.365   3.104  0.4648 -2.5206 -0.1446
  870SOL     OW 2608   1.851   1.820   1.100  0.5233 -0.0982 -0.2229
  870SOL    HW1 2609   1.853   1.813   0.997 -0.7196 -1.6077 -1.2527
  870SOL    HW2 2610   1.909   1.748   1.144 -0.3709  2.5771 -1.4747
  871SOL     OW 2611   0.131   1.908   1.712  0.0493 -0.7811  0.2407
  871SOL    HW1 2612   0.163   1.817   1.743 -1.2137 -0.6469  0.4014
  871SOL    HW2 2613   0.141   1.988   1.780  0.9141  3.9026  1.2100
  872SOL     OW 2614   0.486   1.482   2.377 -0.1277 -0.3558  0.5396
  872SOL    HW1 2615   0.493   1.575   2.419 -3.5881  0.9875 -0.8607
  872SOL    HW2 2616   0.435   1.415   2.437 -2.1186 -3.5554 -0.1636
  873SOL     OW 2617   1.137   2.038   1.780  0.4369 -0.5897  0.4578
  873SOL    HW1 2618   1.144   1.972   1.855 -0.1659  2.0837 -0.6082
  873SOL    HW2 2619   1.044   2.073   1.780  2.5842  2.5933  3.0911
  874SOL     OW 2620   1.457   0.969   1.881 -0.7927  0.0125  0.0466
  874SOL    HW1 2621   1.363   0.998   1.899  1.4547  0.9836 -0.4561
  874SOL    HW2 2622   1.465   0.894   1.813 -1.5119  0.6602 -2.0542
  875SOL     OW 2623   2.897   2.835   0.908  0.4583 -0.1250  0.1376
  875SOL    HW1 2624   2.872   2.832   1.008 -0.9893 -0.8887  1.5097
  875SOL    HW2 2625   2.977   2.773   0.892  1.1793  0.4809  0.8852
  876SOL     OW 2626   1.225   1.256   0.350  0.0067 -0.1034 -0.7750
  876SOL    HW1 2627   1.259   1.199   0.273  0.3592  1.3267  0.0665
  876SOL    HW2 2628   1.132   1.294   0.328 -2.3239  0.4010 -4.0136
  877SOL     OW 2629   2.793   0.393   1.062  0.9337  0.0283  0.2142
  877SOL    HW1 2630   2.843   0.304   1.063  0.8168  1.5481 -1.8418
  877SOL    HW2 2631   2.752   0.418   0.970 -1.5171  1.7701 -2.4404
  878SOL     OW 2632   2.107   1.585   0.416 -0.6265 -0.1406  0.2404
  878SOL    HW1 2633   2.022   1.637   0.403  1.3951  2.8386  2.8833
  878SOL    HW2 2634   2.177   1.596   0.339 -0.2409  0.4918 -1.0944
  879SOL     OW 2635   2.398   1.864   0.952 -0.8383 -0.3476 -0.1173
  879SOL    HW1 2636   2.314   1.817   0.931  0.5753  2.7033 -2.1967
  879SOL    HW2 2637   2.476   1.804   0.941  1.2735 -2.5709 -1.4435
  880SOL     OW 2638   0.355   2.498   0.878 -0.2117 -1.0527  0.2986
  880SOL    HW1 2639   0.254   2.495   0.901  1.3942  1.1985  1.2866
  880SOL    HW2 2640   0.377   2.471   0.783  1.0734 -1.0755  3.1520
  881SOL     OW 2641   1.132   1.139   0.781 -0.5294  0.0416 -0.2127
  881SOL    HW1 2642   1.045   1.163   0.822  0.3228  2.8832  0.0378
  881SOL    HW2 2643   1.209   1.150   0.848 -0.7884  3.5335 -0.6489
  882SOL     OW 2644   2.547   0.970   3.095 -0.0112  0.4491 -0.1575
  882SOL    HW1 2645   2.513   0.940   3.006 -0.9548  0.9090  0.7867
  882SOL    HW2 2646   2.581   1.066   3.093 -1.9058 -0.9055 -1.3381
  883SOL     OW 2647   1.383   0.015   1.655  0.2098 -0.2793  0.4028
  883SOL    HW1 2648   1.324   3.087   1.721 -0.3238  1.7737 -0.0956
  883SOL    HW2 2649   1.405   3.073   1.582 -0.5223  2.2055  2.6769
  884SOL     OW 2650   2.901   0.139   1.037  0.0482  0.3834  0.1578
  884SOL    HW1 2651   2.908   0.099   1.129  0.6530 -1.3395 -1.4956
  884SOL    HW2 2652   2.994   0.140   0.994 -0.3961  1.1297  1.3190
  885SOL     OW 2653   1.251   1.087   1.474 -0.0131 -0.3704 -0.3907
  885SOL    HW1 2654   1.339   1.079   1.528  5.1474 -0.0731 -0.6024
  885SOL    HW2 2655   1.226   1.000   1.430  1.7092 -0.3243  0.1765
  886SOL     OW 2656   1.504   0.912   2.452 -0.0205 -0.2112 -0.1683
  886SOL    HW1 2657   1.560   0.969   2.393 -1.2017 -3.4594  1.5849
  886SOL    HW2 2658   1.557   0.834   2.489  1.4662 -2.0871 -1.1235
  887SOL     OW 2659   1.584   0.836   1.104  0.5808  0.5223 -0.6007
  887SOL    HW1 2660   1.495   0.791   1.086 -1.0764 -0.7841 -2.3707
  887SOL    HW2 2661   1.575   0.906   1.174  0.0343  1.4787 -0.5982
  888SOL     OW 2662   2.226   1.560   1.845 -0.2315  0.4153  0.9907
  888SOL    HW1 2663   2.251   1.469   1.886 -0.5732 -3.5430 -0.4501
  888SOL    HW2 2664   2.299   1.633   1.844 -0.6847 -1.5753 -0.7154
  889SOL     OW 2665   1.942   2.052   0.647 -0.0299  0.1567 -0.3939
  889SOL    HW1 2666   2.010   2.126   0.654 -0.5094 -1.6638 -3.6651
  889SOL    HW2 2667   1.863   2.078   0.590 -1.0189 -0.9401  0.9712
  890SOL     OW 2668   1.008   2.024   0.568 -0.2383  0.2996  0.2790
  890SOL    HW1 2669   1.086   1.959   0.575 -1.1059 -0.2403 -1.5651
  890SOL    HW2 2670   0.924   1.989   0.610 -1.3215  1.1650 -0.2882
  891SOL     OW 2671   2.684   0.528   2.605  0.0652  0.0265 -0.6019
  891SOL    HW1 2672   2.694   0.432   2.638 -2.0755  0.9218  1.6472
  891SOL    HW2 2673   2.638   0.528   2.515  1.5562  0.8722  1.3469
  892SOL     OW 2674   0.978   0.623   2.451 -0.7155 -0.1470  0.8183
  892SOL    HW1 2675   0.986   0.594   2.548 -2.7282 -0.4965 -2.4339
  892SOL    HW2 2676   1.031   0.557   2.388 -1.3960 -2.8417 -2.8890
  893SOL     OW 2677   1.688   0.403   1.225 -0.2402  0.3312 -0.0777
  893SOL    HW1 2678   1.720   0.308   1.235 -3.5903  0.8881  1.6759
  893SOL    HW2 2679   1.608   0.410   1.287  1.1112  0.6570  1.0240
  894SOL     OW 2680   2.762   0.275   0.553 -0.0883  0.0037 -0.4894
  894SOL    HW1 2681   2.673   0.234   0.584  0.1774 -1.9930  0.2133
  894SOL    HW2 2682   2.790   0.249   0.458  1.0435 -2.3690 -3.1651
  895SOL     OW 2683   2.153   2.608   2.989 -0.4782  0.1186  0.1183
  895SOL    HW1 2684   2.050   2.612   3.004 -0.5031  1.6136  1.4065
  895SOL    HW2 2685   2.199   2.563   3.072 -1.4339  0.3900  1.8696
  896SOL     OW 2686   1.783   3.114   1.627 -0.3835 -0.7322 -0.3119
  896SOL    HW1 2687   1.856   0.061   1.609  2.5738 -1.6261  0.5598
  896SOL    HW2 2688   1.727   3.104   1.541 -1.8980  0.3876 -2.1999
  897SOL     OW 2689   0.205   2.282   1.794  0.2145  0.2053 -0.0881
  897SOL    HW1 2690   0.272   2.333   1.737  1.0554 -1.1984  0.4836
  897SOL    HW2 2691   0.243   2.198   1.834 -1.2634  2.3476  0.1686
  898SOL     OW 2692   2.432   1.731   1.803  0.1566  0.2790 -0.3234
  898SOL    HW1 2693   2.500   1.723   1.731 -0.6133 -0.2747 -0.2084
  898SOL    HW2 2694   2.368   1.809   1.783 -4.2888 -1.9352  1.9185
  899SOL     OW 2695   1.680   2.243   0.925  0.0575 -0.3133 -0.2437
  899SOL    HW1 2696   1.784   2.242   0.919  0.8703  1.3886  1.2040
  899SOL    HW2 2697   1.640   2.155   0.886  1.0713  1.4762 -1.8296
  900SOL     OW 2698   0.825   3.051   2.936  0.0782 -0.0366  0.4854
  900SOL    HW1 2699   0.739   3.012   2.899  0.6411 -0.1818  1.6584
  900SOL    HW2 2700   0.868   3.111   2.866  0.3135  0.4461 -0.2600
  901SOL     OW 2701   1.237   1.690   2.355  0.7414 -0.2312  0.1981
  901SOL    HW1 2702   1.308   1.688   2.430 -3.9400  0.8081  1.0040
  901SOL    HW2 2703   1.151   1.724   2.393  0.0908  1.5519 -0.2977
  902SOL     OW 2704   0.017   0.545   2.761 -0.3311  0.1736 -0.1581
  902SOL    HW1 2705   3.107   0.528   2.856 -2.6009 -1.2622  0.8469
  902SOL    HW2 2706   0.058   0.460   2.729 -1.3718  1.1800  1.2856
  903SOL     OW 2707   2.240   0.606   2.459  0.0403  0.1174  0.0970
  903SOL    HW1 2708   2.286   0.692   2.490 -3.0616  0.9718 -1.2440
  903SOL    HW2 2709   2.205   0.610   2.360  2.3354  0.7636  0.7225
  904SOL     OW 2710   1.436   0.527   2.323  0.5591 -0.5415  0.7151
  904SOL    HW1 2711   1.533   0.556   2.352  4.1087 -2.0912  0.0807
  904SOL    HW2 2712   1.410   0.450   2.386  0.7306  1.7946  2.1086
  905SOL     OW 2713   2.179   2.552   1.909 -0.1338 -0.1486 -0.0206
  905SOL    HW1 2714   2.085   2.522   1.933  0.4875 -1.2628  0.4333
  905SOL    HW2 2715   2.226   2.499   1.835 -0.9286 -1.4448  1.4829
  906SOL     OW 2716   1.726   2.057   0.410  0.0742 -0.4998  0.2649
  906SOL    HW1 2717   1.815   2.046   0.364  0.0884  1.7210 -0.5561
  906SOL    HW2 2718   1.654   2.095   0.346 -0.2721 -1.1979 -2.4642
  907SOL     OW 2719   1.210   3.066   0.876 -0.0192  0.0078  0.2877
  907SOL    HW1 2720   1.277   0.003   0.826  1.0874  1.4097  1.1800
  907SOL    HW2 2721   1.162   3.001   0.802 -2.8169 -0.7607 -0.8680
  908SOL     OW 2722   1.776   2.142   2.456 -0.0599  0.1350  0.3166
  908SOL    HW1 2723   1.695   2.203   2.444 -1.1094  0.7436  0.5952
  908SOL    HW2 2724   1.843   2.156   2.377  1.1220  1.1407  1.5865
  909SOL     OW 2725   2.047   0.141   1.892  0.3182 -0.5606  0.5830
  909SOL    HW1 2726   1.991   0.063   1.932 -0.5617  1.3035 -2.3749
  909SOL    HW2 2727   2.010   0.237   1.923 -3.8329  4.5157  1.1501
  910SOL     OW 2728   0.926   0.672   2.922  0.0900 -0.1887  0.5567
  910SOL    HW1 2729   0.958   0.629   3.006 -0.2829  2.6276 -0.2036
  910SOL    HW2 2730   1.001   0.716   2.874 -0.7480 -0.3742  1.3004
  911SOL     OW 2731   0.088   0.842   0.272 -0.0781 -0.4733 -0.3888
  911SOL    HW1 2732   0.059   0.928   0.223  0.7923 -1.3529  1.0484
  911SOL    HW2 2733   0.012   0.791   0.314 -2.6962 -1.1409  0.9632
  912SOL     OW 2734   0.135   2.366   0.564  0.1475  0.3706  0.0365
  912SOL    HW1 2735   0.117   2.297   0.639 -0.7177 -0.1344 -0.3889
  912SOL    HW2 2736   0.224   2.411   0.589 -0.4094 -1.9975 -1.5234
  913SOL     OW 2737   2.610   2.382   2.026  0.0088  0.2072  0.2535
  913SOL    HW1 2738   2.604   2.306   1.953 -2.2529 -0.5643 -3.7814
  913SOL    HW2 2739   2.553   2.456   1.993 -2.8387 -2.6808  0.9099
  914SOL     OW 2740   1.370   2.019   1.444 -0.4657 -0.3590 -0.1512
  914SOL    HW1 2741   1.324   1.924   1.444  2.1821 -1.4798  1.3047
  914SOL    HW2 2742   1.396   2.056   1.356 -1.8166  1.1946  0.7345
  915SOL     OW 2743   0.422   2.810   1.938 -0.0301 -0.4072 -0.1023
  915SOL    HW1 2744   0.484   2.783   1.857 -0.7356  1.2828 -0.6997
  915SOL    HW2 2745   0.439   2.905   1.980 -1.7627  5.0554  1.9668
  916SOL     OW 2746   0.878   0.562   1.662  0.8744 -0.6399 -0.3763
  916SOL    HW1 2747   0.965   0.531   1.625  0.9628  2.8335 -1.9040
  916SOL    HW2 2748   0.842   0.494   1.724  0.2879  1.3316 -0.9622
  917SOL     OW 2749   2.616   0.686   0.352  0.1141 -0.2515 -0.4613
  917SOL    HW1 2750   2.706   0.639   0.346 -0.9108 -1.0285  0.0774
  917SOL    HW2 2751   2.543   0.620   0.325 -0.9289  1.3115  0.5450
  918SOL     OW 2752   2.001   2.154   2.967  0.0665  0.2697  0.2693
  918SOL    HW1 2753   2.077   2.216   2.990 -0.2607  0.8472  0.1424
  918SOL    HW2 2754   1.918   2.185   3.021  0.9312  1.6118  1.2289
  919SOL     OW 2755   1.604   2.906   1.030 -0.5681  0.1551 -0.0220
  919SOL    HW1 2756   1.690   2.905   1.088 -1.2846 -0.7135  0.5557
  919SOL    HW2 2757   1.606   2.829   0.970 -1.7541 -0.2298  1.5770
  920SOL     OW 2758   0.847   0.416   2.662 -0.3185  0.3718  0.3660
  920SOL    HW1 2759   0.803   0.347   2.722  1.6440 -2.3459  1.7438
  920SOL    HW2 2760   0.893   0.487   2.722 -0.4880 -0.1209  1.0226
  921SOL     OW 2761   3.085   0.638   3.040  0.2559  0.3506 -0.2050
  921SOL    HW1 2762   3.065   0.709   2.971 -2.4145 -0.7022 -0.1176
  921SOL    HW2 2763   0.055   0.647   3.083  0.8358  0.3395  1.3469
  922SOL     OW 2764   0.297   2.161   1.112 -0.0732  0.1932 -0.2500
  922SOL    HW1 2765   0.312   2.074   1.060 -0.8863 -0.0488  0.4482
  922SOL    HW2 2766   0.371   2.228   1.092  0.9552 -1.0821 -0.2691
  923SOL     OW 2767   0.765   1.563   1.828 -0.1696 -0.1747 -0.3561
  923SOL    HW1 2768   0.763   1.509   1.742 -0.6489  3.7478 -2.2638
  923SOL    HW2 2769   0.814   1.517   1.903 -1.5776  0.1838 -2.5862
  924SOL     OW 2770   1.565   2.783   2.884 -0.2212 -0.2997 -0.1220
  924SOL    HW1 2771   1.476   2.832   2.857 -2.2272  1.1723  1.4344
  924SOL    HW2 2772   1.572   2.790   2.986  3.1535  1.1187 -1.8405
  925SOL     OW 2773   2.732   1.462   0.935  0.1636  0.4313 -0.2923
  925SOL    HW1 2774   2.678   1.376   0.919 -1.1027 -2.3708  1.6827
  925SOL    HW2 2775   2.774   1.454   1.024  1.8184 -1.2823 -1.0174
  926SOL     OW 2776   2.042   0.622   1.561 -0.0211 -0.2100  0.7180
  926SOL    HW1 2777   2.127   0.582   1.592 -0.4142 -0.4313 -1.0975
  926SOL    HW2 2778   2.019   0.582   1.468  2.3183  0.3765  1.5869
  927SOL     OW 2779   2.025   3.087   1.247  0.2165 -0.3889 -0.1472
  927SOL    HW1 2780   2.019   0.052   1.293 -0.5915 -0.4484  0.9532
  927SOL    HW2 2781   2.103   3.084   1.184 -1.9145  0.4711  2.5188
  928SOL     OW 2782   0.264   1.068   2.467 -0.0787  0.6018 -0.2642
  928SOL    HW1 2783   0.225   1.056   2.375 -0.0207 -1.6399 -0.6606
  928SOL    HW2 2784   0.336   0.999   2.488  3.1268  0.0550 -1.1242
  929SOL     OW 2785   2.352   0.834   1.513 -0.3766 -0.0437  0.1245
  929SOL    HW1 2786   2.282   0.905   1.516  0.3789 -2.0017  1.4001
  929SOL    HW2 2787   2.430   0.865   1.454  0.6678  0.5827 -1.9070
  930SOL     OW 2788   2.878   2.457   1.990 -0.1418  0.0438 -0.7050
  930SOL    HW1 2789   2.942   2.447   2.064 -0.0749 -0.4800  1.0732
  930SOL    HW2 2790   2.788   2.421   2.012  0.9482  0.1521  0.6597
  931SOL     OW 2791   1.635   1.047   1.272 -0.5924 -0.5803 -0.6099
  931SOL    HW1 2792   1.687   1.049   1.359 -0.6150 -1.0879 -1.4620
  931SOL    HW2 2793   1.676   1.116   1.208 -0.4733  2.8286  2.3583
  932SOL     OW 2794   0.575   1.155   1.773  0.3822  0.3615  0.4821
  932SOL    HW1 2795   0.493   1.150   1.839 -0.4764 -2.5310  1.7419
  932SOL    HW2 2796   0.650   1.201   1.819 -2.4016  1.2976  1.5137
  933SOL     OW 2797   2.587   2.006   1.659  0.0298  0.0167 -0.0343
  933SOL    HW1 2798   2.582   2.077   1.583  1.5816 -1.1465  1.4734
  933SOL    HW2 2799   2.643   1.924   1.625  1.7485 -0.5358 -0.4007
  934SOL     OW 2800   0.580   2.043   1.766  0.1132  0.3252  0.5106
  934SOL    HW1 2801   0.643   1.973   1.724  0.7883  0.6825  0.5083
  934SOL    HW2 2802   0.588   2.134   1.724 -0.5695 -1.6541  1.3443
  935SOL     OW 2803   2.763   1.485   1.635 -0.3765  0.5199  0.3375
  935SOL    HW1 2804   2.708   1.434   1.703 -1.3508  1.7673 -1.2432
  935SOL    HW2 2805   2.856   1.439   1.627  1.1063  0.6077  0.5442
  936SOL     OW 2806   3.015   1.395   1.488 -0.2138 -0.5264  0.3063
  936SOL    HW1 2807   2.978   1.313   1.441 -0.1968  1.1774  1.5774
  936SOL    HW2 2808   3.058   1.459   1.421  0.0506 -0.4731  1.0032
  937SOL     OW 2809   1.871   0.581   1.359 -0.0258  0.2535  0.5005
  937SOL    HW1 2810   1.804   0.518   1.318 -0.4716 -0.9018 -0.7965
  937SOL    HW2 2811   1.891   0.647   1.285 -1.0175 -0.7673  0.4774
  938SOL     OW 2812   0.467   2.803   0.153 -0.7988  0.2266 -0.2901
  938SOL    HW1 2813   0.402   2.772   0.223  4.2798  1.4320 -2.3578
  938SOL    HW2 2814   0.418   2.822   0.067 -1.3826  0.0349 -1.2731
  939SOL     OW 2815   2.902   2.078   2.495 -0.0828  0.6754  0.3025
  939SOL    HW1 2816   2.939   2.131   2.416 -1.4691 -0.5098  0.1571
  939SOL    HW2 2817   2.806   2.045   2.472  1.6574 -2.2784  0.8143
  940SOL     OW 2818   1.555   1.915   0.558 -0.4132  0.5168 -0.3933
  940SOL    HW1 2819   1.490   1.867   0.499  0.1012 -0.4531  0.8594
  940SOL    HW2 2820   1.622   1.975   0.504  2.4478  2.4993 -2.8268
  941SOL     OW 2821   2.310   2.509   0.042  0.0232  0.9140  0.1799
  941SOL    HW1 2822   2.319   2.491   0.145  1.0533  0.9018  1.5437
  941SOL    HW2 2823   2.392   2.559   0.020  1.0133  2.0450 -1.9417
  942SOL     OW 2824   1.956   2.460   1.208 -0.5790 -0.5807  0.5771
  942SOL    HW1 2825   1.899   2.527   1.159 -2.1527  1.2522  1.9998
  942SOL    HW2 2826   2.027   2.510   1.263  2.0664 -1.8096  0.9270
  943SOL     OW 2827   2.154   1.017   1.776  0.2351 -0.4651 -0.3021
  943SOL    HW1 2828   2.155   1.020   1.673 -0.4444  1.4655 -1.3633
  943SOL    HW2 2829   2.249   1.014   1.820  1.5028 -2.1210 -1.7038
  944SOL     OW 2830   1.271   0.738   2.248 -0.0166 -0.1630  0.3470
  944SOL    HW1 2831   1.329   0.662   2.289  1.3388 -0.8284 -0.9922
  944SOL    HW2 2832   1.215   0.705   2.172 -0.8645  2.5039  2.5102
  945SOL     OW 2833   2.537   2.512   1.411  0.0756 -0.2354 -0.0922
  945SOL    HW1 2834   2.611   2.470   1.464 -1.6036 -0.0066  0.5475
  945SOL    HW2 2835   2.453   2.469   1.454 -2.5847  1.3897  1.0402
  946SOL     OW 2836   0.219   0.865   0.670 -0.2520  0.0037  0.5566
  946SOL    HW1 2837   0.193   0.909   0.757  0.7733  0.2041  0.0812
  946SOL    HW2 2838   0.258   0.772   0.693  2.9614  0.4135 -0.3762
  947SOL     OW 2839   1.789   2.867   1.742 -0.3198  0.3728 -0.0368
  947SOL    HW1 2840   1.714   2.830   1.797  0.6680 -1.5302  1.9151
  947SOL    HW2 2841   1.780   2.959   1.695  1.2519  2.6224 -0.2027
  948SOL     OW 2842   0.267   1.864   0.704  0.5728 -0.1334  0.4392
  948SOL    HW1 2843   0.301   1.948   0.664  1.2546 -0.2728  2.3794
  948SOL    HW2 2844   0.335   1.787   0.710 -0.5114 -0.5686  0.7391
  949SOL     OW 2845   1.123   1.263   1.307  0.1775 -0.2285 -0.0794
  949SOL    HW1 2846   1.098   1.194   1.230 -1.6493 -0.1615 -4.8473
  949SOL    HW2 2847   1.165   1.211   1.385 -0.3957  1.0775  0.4533
  950SOL     OW 2848   0.321   0.859   1.176 -0.0164  0.1880  0.0744
  950SOL    HW1 2849   0.362   0.835   1.088  0.4976  1.1679  0.8590
  950SOL    HW2 2850   0.395   0.846   1.243  0.4038 -0.7512  1.3401
  951SOL     OW 2851   0.741   2.219   2.328  0.4289  0.0051  0.0378
  951SOL    HW1 2852   0.639   2.199   2.320 -0.0783  2.8478 -2.2183
  951SOL    HW2 2853   0.782   2.229   2.238 -1.4471 -0.6001 -1.5249
  952SOL     OW 2854   1.384   1.393   0.003  0.1689 -0.3119 -0.7148
  952SOL    HW1 2855   1.430   1.483   0.012 -2.0494 -0.6861  0.2629
  952SOL    HW2 2856   1.293   1.406   3.088 -0.2774 -2.5488  1.4006
  953SOL     OW 2857   1.135   2.972   2.993 -0.4999  0.2793 -0.1557
  953SOL    HW1 2858   1.128   3.075   2.981 -1.3947  1.9919  0.9151
  953SOL    HW2 2859   1.046   2.927   3.025  0.6335 -2.0389 -1.6064
  954SOL     OW 2860   1.850   1.236   0.212  0.2459 -0.2322  0.1765
  954SOL    HW1 2861   1.794   1.170   0.160 -0.0505  1.4362  0.5838
  954SOL    HW2 2862   1.836   1.218   0.311  0.1371 -0.6868  3.9305
  955SOL     OW 2863   0.018   2.735   0.163  0.6743  0.1407 -0.3648
  955SOL    HW1 2864   3.076   2.816   0.156 -1.4267  2.3877 -1.0710
  955SOL    HW2 2865   0.029   2.706   0.066 -3.5564  1.3657  1.1606
  956SOL     OW 2866   1.191   0.841   1.353  0.1556  0.0199  0.2574
  956SOL    HW1 2867   1.263   0.880   1.295  0.0744 -3.6448  0.4325
  956SOL    HW2 2868   1.173   0.745   1.325  2.5883 -0.2289  1.5997
  957SOL     OW 2869   0.956   1.664   1.166 -0.1596 -0.2365 -0.1079
  957SOL    HW1 2870   0.855   1.667   1.169 -0.1852 -1.4679 -0.4008
  957SOL    HW2 2871   0.992   1.686   1.072  1.4298  0.9328 -0.9378
  958SOL     OW 2872   0.742   1.933   0.658 -0.3904  0.0483 -0.1115
  958SOL    HW1 2873   0.691   2.020   0.670  0.0724  0.8026  1.0639
  958SOL    HW2 2874   0.694   1.868   0.598 -0.9432  1.0178  0.6462
  959SOL     OW 2875   1.522   1.396   1.014  0.0805  0.3616 -0.4313
  959SOL    HW1 2876   1.493   1.441   0.926  0.2909  2.0894  0.1885
  959SOL    HW2 2877   1.475   1.439   1.092  1.7291 -1.3649 -2.0127
  960SOL     OW 2878   0.136   1.114   3.000  0.0279 -0.0331 -0.4144
  960SOL    HW1 2879   0.089   1.157   2.923  0.1674  0.8520 -0.2858
  960SOL    HW2 2880   0.158   1.015   2.991 -2.8006  2.2085  2.8911
  961SOL     OW 2881   0.562   1.650   0.995  0.4832  0.1346  0.1476
  961SOL    HW1 2882   0.487   1.600   0.945 -1.7594  1.5530 -0.6816
  961SOL    HW2 2883   0.559   1.753   0.996 -0.1414  0.7464 -1.8436
  962SOL     OW 2884   0.780   1.053   0.797 -0.1456 -0.5218 -0.7821
  962SOL    HW1 2885   0.806   1.146   0.845 -0.1384  1.6834  0.6903
  962SOL    HW2 2886   0.688   1.028   0.829 -1.0679  0.2966  0.9092
  963SOL     OW 2887   1.450   1.708   2.528 -0.0601 -0.1910  0.3528
  963SOL    HW1 2888   1.540   1.752   2.509  0.3977 -1.6059  1.1145
  963SOL    HW2 2889   1.462   1.642   2.603 -0.9097 -0.4981  0.2900
  964SOL     OW 2890   0.623   2.598   2.807 -0.1674 -0.0501 -0.0513
  964SOL    HW1 2891   0.717   2.628   2.840  2.5301  1.2155  0.0603
  964SOL    HW2 2892   0.636   2.502   2.781  0.7958  1.4824 -0.0707
  965SOL     OW 2893   0.577   2.377   0.217 -0.3941  0.1937  0.4005
  965SOL    HW1 2894   0.633   2.464   0.235 -0.7562  0.0239  0.4187
  965SOL    HW2 2895   0.544   2.380   0.122  2.6403  1.9477 -2.2229
  966SOL     OW 2896   3.106   1.697   2.780  0.1802 -0.5716  0.3964
  966SOL    HW1 2897   0.076   1.736   2.774 -2.4745 -3.0063 -1.3105
  966SOL    HW2 2898   3.038   1.754   2.737  2.2348 -1.3450  3.5421
  967SOL     OW 2899   2.425   3.097   2.877 -0.2493 -0.2911  0.5202
  967SOL    HW1 2900   2.363   3.096   2.798 -0.2679 -0.1004  1.1907
  967SOL    HW2 2901   2.385   0.023   2.956  0.3517 -0.7268 -0.6952
  968SOL     OW 2902   2.121   0.071   0.343 -0.0359  0.3874 -0.1782
  968SOL    HW1 2903   2.103   0.070   0.445 -3.1551  2.0417  0.6619
  968SOL    HW2 2904   2.224   0.071   0.331  1.2662  0.6310  0.4939
  969SOL     OW 2905   0.338   1.475   2.097  0.1451  0.1164  0.0030
  969SOL    HW1 2906   0.328   1.421   2.013  1.1732  0.5726  1.3240
  969SOL    HW2 2907   0.419   1.438   2.147 -3.5707 -0.2876 -0.9931
  970SOL     OW 2908   1.429   1.439   0.744  0.3926  0.2222 -0.1674
  970SOL    HW1 2909   1.502   1.466   0.682 -4.4757 -0.6214  2.9297
  970SOL    HW2 2910   1.350   1.401   0.694  2.3235 -0.4583  0.3879
  971SOL     OW 2911   2.457   0.151   1.112 -0.2618 -0.2153 -0.0773
  971SOL    HW1 2912   2.458   0.136   1.215 -1.0873 -0.1247  2.4288
  971SOL    HW2 2913   2.429   0.247   1.093  0.3374  1.8242  1.4638
  972SOL     OW 2914   0.299   2.972   1.538 -0.0618 -0.3072 -0.4613
  972SOL    HW1 2915   0.316   2.882   1.579 -1.6580  2.8040 -2.3092
  972SOL    HW2 2916   0.360   3.049   1.575  0.2962 -0.4627 -3.9252
  973SOL     OW 2917   0.664   0.305   2.852 -0.2817 -0.2732  0.1524
  973SOL    HW1 2918   0.628   0.400   2.826 -0.1153  3.2639  0.3277
  973SOL    HW2 2919   0.592   0.248   2.899  0.9598 -0.1814  1.4283
  974SOL     OW 2920   2.355   1.364   1.982 -0.1234 -0.7063 -0.0222
  974SOL    HW1 2921   2.280   1.331   2.041 -2.2772  1.9258  0.7805
  974SOL    HW2 2922   2.425   1.408   2.043  0.8553  0.5995 -0.8351
  975SOL     OW 2923   0.186   0.167   1.256 -0.6189  0.2883 -0.0495
  975SOL    HW1 2924   0.214   0.068   1.271 -0.5637 -0.2418 -0.4095
  975SOL    HW2 2925   0.194   0.190   1.157  1.4455  0.0964  1.7738
  976SOL     OW 2926   0.954   2.048   2.536 -0.8221 -0.2136  0.1491
  976SOL    HW1 2927   0.886   2.025   2.607  1.5141  1.6109  1.3379
  976SOL    HW2 2928   0.915   2.099   2.459  0.3925 -0.3759 -1.1109
  977SOL     OW 2929   0.984   2.415   0.676 -0.2522  0.2421  0.1063
  977SOL    HW1 2930   0.906   2.412   0.738  1.4703 -1.4804 -1.5715
  977SOL    HW2 2931   0.953   2.415   0.580  0.7213  0.4240  0.2789
  978SOL     OW 2932   3.102   1.210   2.210 -0.1075 -0.1593  0.2074
  978SOL    HW1 2933   3.005   1.172   2.208  2.3375 -1.1153  0.5578
  978SOL    HW2 2934   3.102   1.298   2.264 -1.0990  1.0601 -0.4622
  979SOL     OW 2935   1.676   2.999   1.396 -0.1625 -0.0402  0.3467
  979SOL    HW1 2936   1.725   2.923   1.345  0.8401 -2.4805 -0.3694
  979SOL    HW2 2937   1.577   2.975   1.403  0.6136 -1.8014 -2.2251
  980SOL     OW 2938   1.283   1.418   2.285 -0.1090  0.9926 -0.0566
  980SOL    HW1 2939   1.210   1.373   2.346 -3.1811 -2.9330  1.2829
  980SOL    HW2 2940   1.244   1.507   2.265 -2.7168 -4.4851  0.3875
  981SOL     OW 2941   2.509   0.287   1.817 -0.6663 -0.4985 -0.3101
  981SOL    HW1 2942   2.478   0.374   1.865  0.4879 -1.7923  0.1353
  981SOL    HW2 2943   2.545   0.299   1.722 -0.2405 -2.6776  0.9985
  982SOL     OW 2944   0.169   0.312   2.729 -0.1937  0.5239 -0.0263
  982SOL    HW1 2945   0.129   0.263   2.811 -3.9931  0.5584  0.4921
  982SOL    HW2 2946   0.264   0.281   2.706  0.5950 -1.3570  4.4755
  983SOL     OW 2947   2.558   0.788   2.429  0.0551 -0.1994 -0.5317
  983SOL    HW1 2948   2.493   0.826   2.495  0.7645 -1.2642  0.3419
  983SOL    HW2 2949   2.557   0.688   2.427 -0.0357  0.7674 -2.7749
  984SOL     OW 2950   1.012   0.013   2.072 -0.0221 -0.0430  0.0107
  984SOL    HW1 2951   1.062   0.013   2.161  0.2052 -0.7022  0.0104
  984SOL    HW2 2952   0.934   3.069   2.074 -1.4845  0.0061 -0.7600
  985SOL     OW 2953   2.070   1.712   1.671  0.2456 -0.7079 -0.0999
  985SOL    HW1 2954   1.981   1.710   1.719  0.0957 -0.1091  0.1061
  985SOL    HW2 2955   2.148   1.684   1.732  1.1381 -1.1989 -1.4905
  986SOL     OW 2956   2.518   0.786   1.778 -0.1335 -0.2153 -0.2126
  986SOL    HW1 2957   2.616   0.797   1.745  3.7841  2.8377  0.2324
  986SOL    HW2 2958   2.461   0.799   1.694 -0.8939 -2.0994  2.5325
  987SOL     OW 2959   2.569   0.942   1.350 -0.2353  0.3363  0.4080
  987SOL    HW1 2960   2.650   0.888   1.384  0.2771 -0.4395  0.8854
  987SOL    HW2 2961   2.604   0.997   1.271  0.8031 -2.3142 -2.9201
  988SOL     OW 2962   0.214   1.051   2.203  0.6681 -0.0669 -0.4018
  988SOL    HW1 2963   0.141   1.121   2.205 -2.3910  1.6494  0.2711
  988SOL    HW2 2964   0.295   1.078   2.145  0.5822 -0.5103 -2.3206
  989SOL     OW 2965   1.858   1.698   0.362 -0.3289  0.2373 -0.0863
  989SOL    HW1 2966   1.889   1.790   0.344  0.1164 -3.9658 -0.7494
  989SOL    HW2 2967   1.821   1.647   0.280  0.8213  0.0170  0.0081
  990SOL     OW 2968   0.783   0.547   2.285  0.4503 -0.7006  0.9458
  990SOL    HW1 2969   0.849   0.581   2.353 -0.0331  0.6314 -0.7702
  990SOL    HW2 2970   0.822   0.523   2.193 -1.6207 -1.4436 -4.1906
  991SOL     OW 2971   1.201   1.329   0.620  0.6060  0.2966 -0.2283
  991SOL    HW1 2972   1.165   1.247   0.676 -2.3010 -1.7781  2.5643
  991SOL    HW2 2973   1.222   1.311   0.521  0.0263  0.5232 -3.2292
  992SOL     OW 2974   2.129   1.014   0.462 -0.1447  0.3393 -0.2201
  992SOL    HW1 2975   2.226   1.004   0.488 -1.2164  0.2290 -1.9635
  992SOL    HW2 2976   2.069   1.037   0.541  0.7019  0.3990 -0.6538
  993SOL     OW 2977   3.052   0.989   0.759 -0.2647 -0.0483  0.0232
  993SOL    HW1 2978   3.034   0.953   0.851 -1.8723 -0.3901 -1.8216
  993SOL    HW2 2979   3.065   0.923   0.690  0.1887  2.1209  2.3795
  994SOL     OW 2980   0.254   2.181   2.507  0.0690  0.2288 -0.1096
  994SOL    HW1 2981   0.205   2.120   2.441 -1.9030  1.9626  1.3632
  994SOL    HW2 2982   0.250   2.147   2.603  2.2706 -0.7089 -1.3457
  995SOL     OW 2983   1.848   1.152   2.500  0.2549 -0.4501 -0.0328
  995SOL    HW1 2984   1.796   1.136   2.412  2.8026  0.5774  1.3763
  995SOL    HW2 2985   1.838   1.070   2.559 -0.6785 -1.0782  1.1433
  996SOL     OW 2986   2.581   1.198   0.311  0.6752  0.7017 -0.2451
  996SOL    HW1 2987   2.516   1.259   0.256 -0.7983  2.5440 -1.7243
  996SOL    HW2 2988   2.555   1.098   0.301  1.1375 -2.2408 -0.0910
  997SOL     OW 2989   2.045   1.231   1.928  0.4562 -0.2935 -0.6200
  997SOL    HW1 2990   2.097   1.166   1.872 -0.9283 -1.9131  1.2447
  997SOL    HW2 2991   2.073   1.229   2.029 -0.8168  0.1061  1.5221
  998SOL     OW 2992   2.668   1.924   0.468 -0.1338  0.2587  0.0325
  998SOL    HW1 2993   2.588   1.947   0.409 -1.4128 -2.6048 -1.1644
  998SOL    HW2 2994   2.733   1.865   0.418  1.4885 -0.9649  1.2483
  999SOL     OW 2995   0.035   2.431   0.112  0.3922  0.7056  0.5256
  999SOL    HW1 2996   3.123   2.333   0.106 -0.5215  1.3048 -1.7539
  999SOL    HW2 2997   3.085   2.491   0.147 -1.5504  0.4138 -2.6527
 1000SOL     OW 2998   0.975   0.971   2.232 -0.5928  0.3950  0.0175
 1000SOL    HW1 2999   0.957   0.910   2.311  3.7008 -0.3778 -0.9267
 1000SOL    HW2 3000   1.067   1.013   2.241 -0.3913  0.5464 -1.9388
   3.12338   3.12338   3.12338
