1000 SPC/Fw water molecules t= 383.00000 step= 383000
 3000
    1SOL     OW    1   2.537   2.818   1.649  0.5082 -0.3534 -0.1549
    1SOL    HW1    2   2.544   2.903   1.704  0.4341  0.7364  3.9901
    1SOL    HW2    3   2.501   2.744   1.712 -2.1243 -1.1393  0.6882
    2SOL     OW    4   2.405   2.491   0.504  0.2813  0.1213 -0.6250
    2SOL    HW1    5   2.306   2.468   0.529  1.9857 -1.0288  1.6980
    2SOL    HW2    6   2.410   2.551   0.420  1.6236 -0.1026  2.5772
    3SOL     OW    7   1.279   3.030   0.093 -0.8767 -0.1013  0.7589
    3SOL    HW1    8   1.179   3.061   0.090 -1.1746  0.0871  1.3816
    3SOL    HW2    9   1.324   3.072   0.016 -1.5802  0.1074  1.3626
    4SOL     OW   10   1.145   0.041   2.242  0.2464  0.7559 -0.1165
    4SOL    HW1   11   1.110   0.012   2.334 -0.9500 -0.4319  1.4392
    4SOL    HW2   12   1.128   3.062   2.171  0.9282  1.6854  1.1600
    5SOL     OW   13   2.216   0.159   1.344  0.4945  0.0871  0.9527
    5SOL    HW1   14   2.204   0.246   1.291  0.0128 -1.5961 -1.6026
    5SOL    HW2   15   2.133   0.125   1.389  3.3690 -0.3680 -1.3872
    6SOL     OW   16   2.166   2.017   0.573 -0.3775  0.0602  0.1190
    6SOL    HW1   17   2.185   1.972   0.487 -0.3905  1.6702 -0.8745
    6SOL    HW2   18   2.182   2.115   0.561  1.8200 -0.7401  1.0990
    7SOL     OW   19   2.110   0.947   1.002  0.1785  0.0956 -0.2199
    7SOL    HW1   20   2.129   1.025   1.064 -1.0722 -0.3616 -0.4495
    7SOL    HW2   21   2.017   0.914   1.030 -1.0811 -2.4267  0.6580
    8SOL     OW   22   0.659   1.413   1.063 -0.1474  0.5212 -0.2036
    8SOL    HW1   23   0.720   1.490   1.055 -0.0626  0.9872 -2.7100
    8SOL    HW2   24   0.640   1.385   1.158  0.1694 -2.4210 -1.5314
    9SOL     OW   25   0.718   2.688   1.736 -0.2743 -0.1164  0.1921
    9SOL    HW1   26   0.679   2.765   1.685  0.7176 -0.9007  1.7452
    9SOL    HW2   27   0.640   2.638   1.780  0.0571 -2.2521  0.5335
   10SOL     OW   28   1.166   2.433   0.528  0.6895 -0.2539  0.4055
   10SOL    HW1   29   1.237   2.496   0.485 -0.8816  1.0085 -0.2767
   10SOL    HW2   30   1.204   2.340   0.553 -0.7278  0.0074 -1.2832
   11SOL     OW   31   1.675   1.634   1.318 -0.0768  0.3682  0.3004
   11SOL    HW1   32   1.668   1.733   1.338  0.1206 -2.9895  0.3735
   11SOL    HW2   33   1.720   1.618   1.229  0.8429 -3.4634 -2.3200
   12SOL     OW   34   2.729   0.529   1.957  0.5141 -0.2419  0.0356
   12SOL    HW1   35   2.827   0.539   1.925  0.0209  0.5830 -1.4716
   12SOL    HW2   36   2.715   0.579   2.044 -1.8363  2.0453 -2.1762
   13SOL     OW   37   2.615   0.259   0.514 -0.7199 -0.6085  0.1632
   13SOL    HW1   38   2.529   0.213   0.485 -1.2256  1.2962  0.9988
   13SOL    HW2   39   2.665   0.205   0.588  2.1171 -2.3751 -0.8782
   14SOL     OW   40   1.776   1.364   3.080  0.3731  0.0885 -0.1783
   14SOL    HW1   41   1.804   1.294   3.014 -0.5660 -0.7124  1.7553
   14SOL    HW2   42   1.741   1.447   3.036 -1.1404 -0.9774  0.2631
   15SOL     OW   43   2.528   2.435   1.551  0.3125  0.2376  0.0629
   15SOL    HW1   44   2.479   2.447   1.460 -1.3185 -0.2650 -3.1060
   15SOL    HW2   45   2.461   2.424   1.627 -0.4772  0.5452 -3.0349
   16SOL     OW   46   2.249   2.863   1.014 -0.2502  0.4114  0.4369
   16SOL    HW1   47   2.282   2.926   1.087  0.5440 -2.9286  1.2254
   16SOL    HW2   48   2.181   2.911   0.951 -0.9920  0.1840 -1.9138
   17SOL     OW   49   1.071   0.282   1.447 -0.0649  0.0011  0.1025
   17SOL    HW1   50   1.026   0.208   1.389  1.3444 -2.8244  0.0481
   17SOL    HW2   51   1.012   0.331   1.516  1.7672  0.8967 -0.4678
   18SOL     OW   52   1.634   0.456   0.778  0.5395  0.5450  0.5659
   18SOL    HW1   53   1.590   0.547   0.799  0.3182 -2.8429 -2.0337
   18SOL    HW2   54   1.588   0.383   0.830 -0.6676  0.3173 -0.3744
   19SOL     OW   55   2.092   1.316   0.271 -0.4712  0.2918 -0.2610
   19SOL    HW1   56   2.021   1.386   0.241 -3.6231  0.3044  0.6903
   19SOL    HW2   57   2.081   1.285   0.371 -0.1179  0.6494 -0.4799
   20SOL     OW   58   2.065   1.491   2.299 -0.1361  0.4562 -0.1883
   20SOL    HW1   59   2.160   1.451   2.308  2.7026  1.6067 -0.7064
   20SOL    HW2   60   2.005   1.411   2.280 -0.8423  0.6705  1.0498
   21SOL     OW   61   1.142   0.162   0.544 -0.3254 -0.1460 -0.7732
   21SOL    HW1   62   1.176   0.179   0.450  0.4761 -2.4028 -0.4383
   21SOL    HW2   63   1.060   0.104   0.547  0.8930 -0.5186 -0.4691
   22SOL     OW   64   2.705   0.679   0.930  0.1880 -0.5635 -0.2636
   22SOL    HW1   65   2.783   0.713   0.872  2.2593  2.0642 -2.5029
   22SOL    HW2   66   2.703   0.726   1.018 -1.5246 -1.8569 -3.7546
   23SOL     OW   67   0.244   0.164   1.778  0.2632 -0.5702 -0.0342
   23SOL    HW1   68   0.325   0.221   1.768 -2.7754  0.2593  0.7753
   23SOL    HW2   69   0.254   0.124   1.868 -0.2168  1.1128 -2.3344
   24SOL     OW   70   2.440   2.725   0.335  0.2125  0.3279 -0.6207
   24SOL    HW1   71   2.365   2.719   0.267  0.6496 -1.0258 -0.8184
   24SOL    HW2   72   2.441   2.814   0.385 -1.6223 -1.8218  0.9838
   25SOL     OW   73   1.682   0.122   2.697  0.1343  0.4484 -0.6844
   25SOL    HW1   74   1.713   0.023   2.694  4.2111  2.1694  1.2400
   25SOL    HW2   75   1.718   0.160   2.780 -1.2827  0.5270 -1.1346
   26SOL     OW   76   1.610   2.512   0.097 -0.0009 -0.2212 -0.5972
   26SOL    HW1   77   1.564   2.603   0.094  0.5188 -1.4671 -1.0100
   26SOL    HW2   78   1.584   2.464   0.186  0.3216 -0.2329  0.2473
   27SOL     OW   79   1.202   0.668   1.089  0.0290  0.8553  0.1745
   27SOL    HW1   80   1.192   0.669   0.985  1.5117 -0.4635 -2.1061
   27SOL    HW2   81   1.157   0.585   1.125  0.1415  0.0851 -1.5783
   28SOL     OW   82   1.303   1.486   0.881  0.0537  0.1396  0.1420
   28SOL    HW1   83   1.315   1.508   0.782 -1.9323  1.8700  0.4342
   28SOL    HW2   84   1.354   1.410   0.919  1.1956  1.4957  0.4626
   29SOL     OW   85   2.917   0.186   1.801  0.0940 -0.3969  0.6896
   29SOL    HW1   86   2.972   0.104   1.782  1.5909  1.8825 -0.2447
   29SOL    HW2   87   2.894   0.238   1.718  0.0984  0.3041 -0.2490
   30SOL     OW   88   1.101   2.974   1.335  0.2520  0.2237  0.0620
   30SOL    HW1   89   1.138   3.000   1.428 -1.7198 -0.2238  1.6772
   30SOL    HW2   90   1.185   2.962   1.278 -3.9594 -0.8691  2.3828
   31SOL     OW   91   1.964   3.028   1.739  0.0431 -0.0405 -0.0012
   31SOL    HW1   92   1.965   2.981   1.828  0.7888 -0.5142  0.2957
   31SOL    HW2   93   1.969   2.955   1.669  0.8487 -1.2864  1.3166
   32SOL     OW   94   1.401   1.785   3.026  0.0907 -0.4862 -0.4333
   32SOL    HW1   95   1.450   1.850   2.961  0.5105  0.2499  0.2708
   32SOL    HW2   96   1.302   1.772   2.994 -0.9306 -0.9100 -0.3523
   33SOL     OW   97   2.923   0.931   2.293  0.0420 -0.4420  0.2603
   33SOL    HW1   98   2.904   1.015   2.344  2.0442 -1.3124 -1.4767
   33SOL    HW2   99   2.966   0.952   2.204  0.7667 -2.4610  2.0289
   34SOL     OW  100   2.212   0.372   0.399 -0.1079  0.5506  0.1153
   34SOL    HW1  101   2.179   0.400   0.492 -1.4423  0.1440  2.0696
   34SOL    HW2  102   2.135   0.346   0.340  2.4659  1.9833 -0.6636
   35SOL     OW  103   2.473   2.358   1.850  0.5879  0.2912 -0.2585
   35SOL    HW1  104   2.546   2.339   1.916 -0.3030  0.5074 -1.4091
   35SOL    HW2  105   2.397   2.286   1.860  0.0759 -0.1601  1.5290
   36SOL     OW  106   2.244   2.013   2.901 -0.1931 -0.0309 -0.4279
   36SOL    HW1  107   2.348   2.014   2.912  1.1218 -3.1965 -1.4041
   36SOL    HW2  108   2.220   1.938   2.840  1.8891  3.1184 -0.9668
   37SOL     OW  109   2.001   0.126   1.494  0.3611  0.1040 -0.0140
   37SOL    HW1  110   2.001   0.224   1.518 -1.0942 -0.2594 -0.5656
   37SOL    HW2  111   1.980   0.078   1.578  2.2475 -0.4173 -3.1445
   38SOL     OW  112   0.305   0.158   2.831 -0.1191  0.0750 -0.2745
   38SOL    HW1  113   0.308   0.163   2.933  2.4780 -1.5922 -0.0121
   38SOL    HW2  114   0.354   0.073   2.799  0.7164 -2.0948 -1.2166
   39SOL     OW  115   1.728   1.284   2.058  0.2140 -0.3088  0.1440
   39SOL    HW1  116   1.768   1.265   2.151  1.9588  0.1246 -0.6205
   39SOL    HW2  117   1.790   1.330   1.995  0.1837 -1.1935  1.9395
   40SOL     OW  118   1.242   1.824   0.937 -0.1322 -0.2907 -0.0172
   40SOL    HW1  119   1.314   1.829   0.863 -3.6790  0.1305  0.8972
   40SOL    HW2  120   1.153   1.792   0.901  3.3881 -0.1470  2.8904
   41SOL     OW  121   1.983   1.804   0.975  0.6966 -0.2632  0.8164
   41SOL    HW1  122   2.050   1.858   0.926 -1.2798  1.0876  1.3012
   41SOL    HW2  123   1.984   1.708   0.944  0.4862 -1.0166 -2.1224
   42SOL     OW  124   0.049   0.858   1.413 -0.0967 -0.1436 -0.0444
   42SOL    HW1  125   0.006   0.838   1.497  1.3586  1.9672 -3.4851
   42SOL    HW2  126   0.145   0.866   1.433 -3.5107 -1.1307  0.5598
   43SOL     OW  127   0.141   1.675   2.930  0.0078  0.2010  0.5591
   43SOL    HW1  128   0.095   1.725   3.003  1.3476 -3.4273 -1.7950
   43SOL    HW2  129   0.227   1.633   2.961 -0.3143  0.7724  1.4777
   44SOL     OW  130   1.497   2.703   1.390 -0.0521  0.8965  0.5921
   44SOL    HW1  131   1.402   2.688   1.427 -1.2402  2.3147  3.3022
   44SOL    HW2  132   1.513   2.803   1.389 -0.1886 -0.2715  0.6693
   45SOL     OW  133   1.037   3.026   2.466  0.0905  0.1333 -0.3057
   45SOL    HW1  134   0.962   2.997   2.404 -2.0182  0.4056  1.0070
   45SOL    HW2  135   0.999   3.079   2.544 -0.7375 -3.4604 -2.6521
   46SOL     OW  136   0.678   2.557   2.302 -0.1986  0.7813 -0.4595
   46SOL    HW1  137   0.658   2.613   2.215  1.3220  1.4788  1.7512
   46SOL    HW2  138   0.668   2.619   2.385  0.4677 -1.6904 -1.1000
   47SOL     OW  139   1.061   2.300   0.940  0.6147 -0.1246  0.2089
   47SOL    HW1  140   1.087   2.396   0.967  1.7368  1.9789  2.0705
   47SOL    HW2  141   0.998   2.256   1.008 -0.9961  0.5046 -3.5750
   48SOL     OW  142   0.883   2.187   1.116  0.2314 -0.1888  0.2886
   48SOL    HW1  143   0.799   2.243   1.098  0.0290  1.8227  1.7689
   48SOL    HW2  144   0.850   2.105   1.162 -2.6461  1.5072 -0.1603
   49SOL     OW  145   2.451   0.404   2.850 -0.7260  0.3656  0.1180
   49SOL    HW1  146   2.470   0.500   2.835  1.2635  2.1591  0.7535
   49SOL    HW2  147   2.534   0.347   2.844  2.5029 -1.3585  1.6368
   50SOL     OW  148   1.854   0.369   0.125  0.4227  0.3254 -0.2277
   50SOL    HW1  149   1.954   0.354   0.114 -2.3240  0.4560 -0.8226
   50SOL    HW2  150   1.830   0.453   0.179  0.3429 -0.6027  1.6218
   51SOL     OW  151   1.942   0.705   1.392 -0.0844 -0.5273  0.4884
   51SOL    HW1  152   2.023   0.654   1.408  0.2186  0.1618 -1.0498
   51SOL    HW2  153   1.964   0.805   1.392 -1.0874 -1.3046 -1.5438
   52SOL     OW  154   0.508   1.735   0.134 -0.5421  0.4882  0.0289
   52SOL    HW1  155   0.539   1.647   0.091 -0.3000  3.4002 -3.0511
   52SOL    HW2  156   0.497   1.811   0.068 -2.3937 -2.0534  1.6151
   53SOL     OW  157   0.276   1.300   2.982  0.3412 -0.2951 -0.5248
   53SOL    HW1  158   0.288   1.263   3.074 -1.7789 -1.9325  0.0525
   53SOL    HW2  159   0.304   1.399   2.973 -1.1309 -2.6813  0.4352
   54SOL     OW  160   2.515   1.467   2.095  0.2373 -0.4671 -0.2023
   54SOL    HW1  161   2.527   1.568   2.088 -2.9651  1.2088 -2.3810
   54SOL    HW2  162   2.596   1.422   2.137 -2.7139  2.5281 -0.4364
   55SOL     OW  163   2.442   1.812   0.473 -0.3872 -0.1516  0.0257
   55SOL    HW1  164   2.346   1.800   0.446  1.8764  2.6377  0.3070
   55SOL    HW2  165   2.451   1.848   0.567  0.6993  0.0762 -1.7591
   56SOL     OW  166   1.831   0.127   1.267 -0.4044 -0.1049 -0.0353
   56SOL    HW1  167   1.861   0.194   1.192  0.0040 -1.4147 -0.5957
   56SOL    HW2  168   1.882   0.145   1.354 -1.1343  0.5955 -0.1092
   57SOL     OW  169   1.276   1.188   0.125 -0.1298 -0.0395  0.6144
   57SOL    HW1  170   1.261   1.122   0.047 -1.1097  0.0485 -0.9845
   57SOL    HW2  171   1.345   1.153   0.192  3.6281  0.5160  1.0058
   58SOL     OW  172   2.444   0.283   1.424  0.2316  0.2338 -0.3185
   58SOL    HW1  173   2.444   0.341   1.512 -1.4836 -0.6318  1.0090
   58SOL    HW2  174   2.355   0.229   1.414 -3.6051 -2.1978  2.2191
   59SOL     OW  175   1.101   2.806   2.835  0.2722  0.0500 -0.5857
   59SOL    HW1  176   1.193   2.799   2.795 -0.2147  1.4313  1.1642
   59SOL    HW2  177   1.111   2.772   2.928  2.3195 -0.2711 -0.8830
   60SOL     OW  178   0.008   2.215   2.878  0.2838 -0.1326 -0.0118
   60SOL    HW1  179   3.005   2.212   2.915 -0.0390  0.4859 -5.8567
   60SOL    HW2  180   0.019   2.138   2.814  0.8739 -0.1884  0.5337
   61SOL     OW  181   0.631   2.330   1.123  0.0418 -0.0236 -0.3316
   61SOL    HW1  182   0.686   2.404   1.079 -2.3124 -1.7632  0.5536
   61SOL    HW2  183   0.542   2.315   1.067 -0.5838  0.2333 -2.1630
   62SOL     OW  184   1.937   1.902   2.388  0.0051 -0.0571  0.5428
   62SOL    HW1  185   1.862   1.923   2.322 -1.2913 -2.5738  1.2373
   62SOL    HW2  186   1.894   1.852   2.467  0.9857 -0.9382  2.0008
   63SOL     OW  187   1.733   1.840   0.135  0.0692  0.2796  0.1617
   63SOL    HW1  188   1.669   1.761   0.157 -0.7127 -1.7449 -0.3474
   63SOL    HW2  189   1.809   1.798   0.083 -1.7742  0.2727 -1.3543
   64SOL     OW  190   2.038   1.018   0.146  0.0749  0.4349 -0.6768
   64SOL    HW1  191   1.954   1.073   0.168 -0.5047  3.2565  1.9841
   64SOL    HW2  192   2.103   1.080   0.100 -0.5740  2.4722 -3.2771
   65SOL     OW  193   2.245   2.227   1.862 -0.5664  0.0948 -0.3320
   65SOL    HW1  194   2.258   2.135   1.915  0.1022 -3.1023 -1.5453
   65SOL    HW2  195   2.192   2.295   1.911 -0.0288  0.6917 -3.8630
   66SOL     OW  196   0.331   0.890   1.444 -0.4712  1.0589  0.5795
   66SOL    HW1  197   0.357   0.914   1.344 -0.0724 -0.4078 -0.0217
   66SOL    HW2  198   0.344   0.968   1.508  1.0113 -0.4041 -0.2506
   67SOL     OW  199   2.277   3.063   0.042 -0.1841 -0.0542  0.0308
   67SOL    HW1  200   2.206   3.081   0.115  2.5708  1.8192  2.2193
   67SOL    HW2  201   2.282   0.055   3.075 -0.4692 -1.4900  0.7649
   68SOL     OW  202   1.643   1.907   1.292 -0.2147 -0.5625 -0.5613
   68SOL    HW1  203   1.710   1.933   1.225 -2.1403 -1.1901 -1.7734
   68SOL    HW2  204   1.562   1.866   1.242 -1.0919 -1.0008 -1.7693
   69SOL     OW  205   2.949   2.579   3.054 -0.3086  0.0976 -0.3992
   69SOL    HW1  206   3.039   2.575   3.007 -1.0206 -2.3856 -0.3608
   69SOL    HW2  207   2.927   2.484   0.001  0.1207  2.8178 -1.8874
   70SOL     OW  208   2.970   0.931   1.992  0.1656  0.3271  0.5031
   70SOL    HW1  209   2.994   0.943   1.894 -0.1955  1.6954 -1.4628
   70SOL    HW2  210   2.870   0.933   2.001  1.7285  0.8179 -2.4781
   71SOL     OW  211   0.812   1.113   2.756  0.4929  0.1683  0.1848
   71SOL    HW1  212   0.889   1.153   2.811 -0.2352  0.2499 -2.3242
   71SOL    HW2  213   0.847   1.029   2.708 -1.1568 -0.2496 -0.3237
   72SOL     OW  214   2.846   1.565   2.247  0.6236  0.2639  0.3154
   72SOL    HW1  215   2.839   1.575   2.144  1.0210  0.3871  1.8940
   72SOL    HW2  216   2.788   1.483   2.283 -1.8348 -1.5680  0.2074
   73SOL     OW  217   1.024   1.732   0.168 -0.4185 -0.5881 -0.4545
   73SOL    HW1  218   1.004   1.832   0.172  0.5392 -0.2889 -0.2998
   73SOL    HW2  219   1.123   1.723   0.139  1.3567 -0.8090 -3.6430
   74SOL     OW  220   2.277   2.826   2.794 -0.0696 -0.3335  0.2642
   74SOL    HW1  221   2.359   2.871   2.749 -1.1377 -0.1830  2.8372
   74SOL    HW2  222   2.301   2.779   2.879  0.4514 -0.9701  1.3220
   75SOL     OW  223   1.600   2.391   0.748  0.0486  0.0031 -0.4928
   75SOL    HW1  224   1.525   2.338   0.791  1.4688 -0.7944 -0.1279
   75SOL    HW2  225   1.635   2.350   0.666 -0.3658 -0.1861  2.6078
   76SOL     OW  226   2.573   2.025   2.330 -0.2813  0.3652 -0.2099
   76SOL    HW1  227   2.479   2.001   2.307  1.3170  4.3716  1.9056
   76SOL    HW2  228   2.629   1.946   2.326  0.0349  2.9047 -0.2167
   77SOL     OW  229   0.166   2.511   1.822  0.2538 -0.2218  0.5996
   77SOL    HW1  230   0.084   2.566   1.839 -0.5989 -2.0410 -2.6408
   77SOL    HW2  231   0.140   2.422   1.850 -1.4688  3.4215  0.1446
   78SOL     OW  232   2.355   0.988   0.301 -0.0848 -0.2340  0.3467
   78SOL    HW1  233   2.281   0.916   0.281 -1.2793 -0.9015 -2.9100
   78SOL    HW2  234   2.337   1.072   0.245 -1.7429  0.1000  2.0199
   79SOL     OW  235   0.193   1.529   2.475 -0.3410 -0.1800  0.9425
   79SOL    HW1  236   0.174   1.601   2.546  0.2622  0.2957 -1.4788
   79SOL    HW2  237   0.247   1.450   2.514 -1.8020 -2.1400  1.5366
   80SOL     OW  238   1.882   1.431   1.881 -0.0573 -0.2896  0.0866
   80SOL    HW1  239   1.835   1.433   1.788 -2.6549  0.6040 -2.1183
   80SOL    HW2  240   1.955   1.503   1.872 -0.5631  0.8630 -1.7124
   81SOL     OW  241   1.917   1.257   2.254 -0.1504 -0.7179  0.3670
   81SOL    HW1  242   1.981   1.212   2.190  1.8051 -0.4964  0.4395
   81SOL    HW2  243   1.900   1.192   2.332 -0.6404  1.1620  1.5251
   82SOL     OW  244   1.464   1.727   1.918 -0.1153 -0.1036  0.2390
   82SOL    HW1  245   1.367   1.723   1.883 -2.0543 -3.6119  1.2416
   82SOL    HW2  246   1.497   1.635   1.922 -1.7147  3.2329 -0.0896
   83SOL     OW  247   0.306   0.321   0.409 -0.0579  0.1249  0.0371
   83SOL    HW1  248   0.314   0.364   0.319 -3.5016 -2.4887 -1.1186
   83SOL    HW2  249   0.258   0.231   0.401 -0.0568  0.9047  0.3056
   84SOL     OW  250   0.190   0.088   0.415  0.4137 -0.5722  0.0372
   84SOL    HW1  251   0.092   0.103   0.420  0.9999 -1.7940 -1.6214
   84SOL    HW2  252   0.223   3.087   0.381  1.5117  0.5530  0.4796
   85SOL     OW  253   2.240   2.088   1.137 -0.2285 -0.2402  0.6126
   85SOL    HW1  254   2.230   2.156   1.213 -0.9997 -0.2579  1.8368
   85SOL    HW2  255   2.180   2.128   1.064  2.3013 -0.1100  0.1044
   86SOL     OW  256   0.388   0.457   1.543  0.2455  0.3410  0.1429
   86SOL    HW1  257   0.345   0.396   1.478 -0.4105  2.0267  1.3372
   86SOL    HW2  258   0.433   0.397   1.612  0.4976 -1.3098 -1.3438
   87SOL     OW  259   2.976   2.361   1.926  0.3189 -0.3012  0.2362
   87SOL    HW1  260   3.040   2.287   1.894  1.9218 -1.5596 -0.8645
   87SOL    HW2  261   3.008   2.396   2.017 -0.2009 -1.6776  0.2918
   88SOL     OW  262   0.218   2.091   3.042  0.7118 -0.7338 -0.5144
   88SOL    HW1  263   0.153   2.123   2.967  1.6264 -2.9328 -0.6534
   88SOL    HW2  264   0.168   2.069   0.037  0.6171 -0.8394  0.6260
   89SOL     OW  265   1.186   0.865   0.498  0.1060  0.1154  0.0623
   89SOL    HW1  266   1.088   0.839   0.517 -0.9284  1.5975  0.1847
   89SOL    HW2  267   1.244   0.786   0.473  0.5991  0.1295 -0.6500
   90SOL     OW  268   0.080   1.393   2.269 -0.4486 -0.6351  0.2433
   90SOL    HW1  269   0.092   1.470   2.201  0.1846  0.3953  0.5296
   90SOL    HW2  270   0.110   1.428   2.357 -0.9105 -2.9439 -2.0774
   91SOL     OW  271   1.660   0.777   0.812  0.4568  0.6410  0.1150
   91SOL    HW1  272   1.567   0.736   0.805 -2.2655  1.0206 -0.7763
   91SOL    HW2  273   1.664   0.837   0.895 -0.0777 -1.2168 -0.2183
   92SOL     OW  274   2.464   1.437   0.899  0.8579  0.4933  0.2067
   92SOL    HW1  275   2.541   1.480   0.845  0.2336  2.0242  0.9682
   92SOL    HW2  276   2.504   1.374   0.969  0.7335  1.5182  1.8510
   93SOL     OW  277   0.180   1.201   2.738  0.3848 -0.0081  0.2118
   93SOL    HW1  278   0.205   1.260   2.818 -0.0824  1.2071  1.1518
   93SOL    HW2  279   0.244   1.217   2.661  0.0099  0.7077 -1.6946
   94SOL     OW  280   1.777   2.303   2.417  0.4013 -0.0227  0.2039
   94SOL    HW1  281   1.687   2.270   2.382  0.5973  0.6678  0.3751
   94SOL    HW2  282   1.857   2.257   2.375  0.0046 -3.5785 -0.4698
   95SOL     OW  283   0.250   0.333   1.314 -0.1538 -0.1446 -0.4172
   95SOL    HW1  284   0.245   0.432   1.289  0.0615 -0.6585 -2.2952
   95SOL    HW2  285   0.265   0.272   1.234 -0.3493 -2.4165 -0.0111
   96SOL     OW  286   3.037   2.819   1.288  0.0801 -0.5368  0.1785
   96SOL    HW1  287   2.960   2.819   1.222  1.1839 -1.6185  2.8141
   96SOL    HW2  288   3.014   2.868   1.373 -2.9083  3.3634 -1.0044
   97SOL     OW  289   2.299   0.797   1.382  0.4511  0.1251 -0.4437
   97SOL    HW1  290   2.262   0.890   1.399 -0.8016  2.1060 -1.3281
   97SOL    HW2  291   2.249   0.715   1.418  2.0978  1.2751 -0.7238
   98SOL     OW  292   1.988   2.533   1.538 -0.2624 -0.6417 -0.5281
   98SOL    HW1  293   1.986   2.457   1.465 -1.3995 -0.2948 -3.0026
   98SOL    HW2  294   1.890   2.566   1.555 -1.1840  1.2927  0.2090
   99SOL     OW  295   0.344   3.003   1.365 -0.2185 -0.2463 -0.0024
   99SOL    HW1  296   0.341   3.023   1.465  0.7309 -0.5676  0.0416
   99SOL    HW2  297   0.438   2.976   1.338 -0.1238  1.3573  1.3264
  100SOL     OW  298   1.823   0.289   2.473  0.3474 -0.3902 -0.1117
  100SOL    HW1  299   1.815   0.247   2.380 -0.4204  0.1937  2.6453
  100SOL    HW2  300   1.783   0.234   2.549  1.9114  1.0878 -1.7074
  101SOL     OW  301   2.873   0.297   2.215 -0.1097  0.2840 -0.2681
  101SOL    HW1  302   2.958   0.255   2.190 -3.2601  1.4743  0.0487
  101SOL    HW2  303   2.863   0.397   2.192  0.1430  0.6240 -0.8815
  102SOL     OW  304   0.504   0.687   1.506  0.1805  0.1525  0.3187
  102SOL    HW1  305   0.454   0.593   1.521 -2.8536  0.0894  2.6394
  102SOL    HW2  306   0.436   0.761   1.478 -3.3577  4.5262 -0.3987
  103SOL     OW  307   0.908   0.513   2.776 -0.0157  0.2472  0.4556
  103SOL    HW1  308   0.899   0.520   2.675 -2.4837  3.4420 -0.5303
  103SOL    HW2  309   0.955   0.595   2.810  2.5412 -1.4739  0.1240
  104SOL     OW  310   0.238   0.457   2.000 -0.0146 -0.2693  0.1671
  104SOL    HW1  311   0.167   0.447   1.928 -1.4472  2.3773  1.2988
  104SOL    HW2  312   0.201   0.487   2.091  0.2716  1.9508  3.4878
  105SOL     OW  313   2.665   2.023   1.358  0.5542 -0.1962 -0.4635
  105SOL    HW1  314   2.598   2.075   1.422 -0.8857  0.3848  1.6306
  105SOL    HW2  315   2.610   1.980   1.287  1.4002  2.0308  0.7425
  106SOL     OW  316   1.463   0.194   0.345  0.1071 -0.2944 -0.5202
  106SOL    HW1  317   1.508   0.168   0.253 -0.0652 -3.1960 -1.5383
  106SOL    HW2  318   1.367   0.215   0.329  0.2456 -1.2552  1.1058
  107SOL     OW  319   2.057   2.229   0.993  0.3621  0.2408  0.4459
  107SOL    HW1  320   1.990   2.154   0.977  0.1112  1.6096  1.3329
  107SOL    HW2  321   2.017   2.311   1.032 -0.8038 -1.4864 -2.2295
  108SOL     OW  322   0.140   2.409   1.407  0.2464 -0.6728  0.1189
  108SOL    HW1  323   0.041   2.423   1.432 -1.2706 -0.2285 -3.4486
  108SOL    HW2  324   0.153   2.432   1.311 -1.0734  1.5484  1.5447
  109SOL     OW  325   2.088   2.645   0.829  0.2524  0.3668 -0.2241
  109SOL    HW1  326   1.996   2.677   0.801 -0.7497 -1.4104  1.5941
  109SOL    HW2  327   2.088   2.611   0.926  3.4186 -1.2247 -0.4252
  110SOL     OW  328   1.178   1.716   1.875 -0.2223  0.1828  0.4771
  110SOL    HW1  329   1.165   1.615   1.861  0.4378  2.5017 -2.5676
  110SOL    HW2  330   1.159   1.777   1.793 -0.0478  4.8785 -1.7122
  111SOL     OW  331   1.812   2.414   1.961  0.1104 -0.5338  0.0568
  111SOL    HW1  332   1.854   2.345   1.896  0.8959 -0.3032 -1.0643
  111SOL    HW2  333   1.870   2.431   2.044  2.2295  1.5821  0.2814
  112SOL     OW  334   1.669   2.108   0.008 -0.6555  0.4080  0.0201
  112SOL    HW1  335   1.565   2.114   0.004 -2.2145 -0.6931 -1.5445
  112SOL    HW2  336   1.704   2.029   0.065  0.2870  0.0678  3.4774
  113SOL     OW  337   1.748   1.905   1.697 -0.3447  0.1884  0.4230
  113SOL    HW1  338   1.760   1.809   1.668 -0.2229  1.6118  3.1264
  113SOL    HW2  339   1.673   1.922   1.765  0.1259 -1.4740  0.3467
  114SOL     OW  340   0.164   1.264   1.441 -0.7910 -0.0050 -0.0530
  114SOL    HW1  341   0.189   1.215   1.355  2.5205  0.4819  0.1650
  114SOL    HW2  342   0.082   1.224   1.484  0.2699  1.2441 -0.2066
  115SOL     OW  343   0.771   0.752   0.267 -0.4720 -0.2927  0.1761
  115SOL    HW1  344   0.725   0.665   0.305  1.5431 -0.8461  2.1921
  115SOL    HW2  345   0.707   0.801   0.210  2.2473 -0.5091  1.4469
  116SOL     OW  346   2.490   1.612   2.427 -0.4385  0.2505  0.4571
  116SOL    HW1  347   2.402   1.567   2.406 -1.1161 -2.0481 -0.1986
  116SOL    HW2  348   2.568   1.546   2.411  2.0090 -4.1177  0.0664
  117SOL     OW  349   2.825   2.466   0.341 -0.6826  0.5278 -0.0170
  117SOL    HW1  350   2.872   2.555   0.355  0.1722 -0.5800 -0.9576
  117SOL    HW2  351   2.834   2.409   0.422 -3.0579 -1.7218 -4.7496
  118SOL     OW  352   0.586   2.049   2.513  0.3414 -0.0539  0.1113
  118SOL    HW1  353   0.687   2.055   2.529  0.0711  1.7087 -1.0799
  118SOL    HW2  354   0.551   2.146   2.501 -2.5694 -0.4744  1.9671
  119SOL     OW  355   0.756   2.322   0.696  0.5949 -0.2739  0.0025
  119SOL    HW1  356   0.676   2.267   0.662 -1.5818  0.4662  0.7706
  119SOL    HW2  357   0.830   2.257   0.714 -1.2012 -0.9168 -0.4642
  120SOL     OW  358   1.421   0.399   0.103 -0.1024  0.0157  0.8107
  120SOL    HW1  359   1.472   0.314   0.121  2.9858  1.4497 -1.8381
  120SOL    HW2  360   1.323   0.378   0.072 -2.3504  1.7520 -2.4620
  121SOL     OW  361   1.348   2.265   0.844  0.2264  0.4773  0.3276
  121SOL    HW1  362   1.253   2.286   0.860  1.3684  0.7165 -0.2664
  121SOL    HW2  363   1.346   2.220   0.753 -0.2938 -2.2258  1.7742
  122SOL     OW  364   2.787   2.083   1.896  0.4761 -0.0396  0.0543
  122SOL    HW1  365   2.739   2.161   1.935  0.1928 -0.1383  0.3847
  122SOL    HW2  366   2.858   2.035   1.956 -1.9415 -2.6098 -1.0511
  123SOL     OW  367   1.000   1.765   0.853 -0.4352  0.3411  0.4443
  123SOL    HW1  368   0.957   1.742   0.946 -1.4716  1.6901  1.0950
  123SOL    HW2  369   0.929   1.776   0.782 -0.5635 -0.0194  1.8609
  124SOL     OW  370   0.070   0.534   0.246 -0.6146 -0.1015  0.1965
  124SOL    HW1  371   0.002   0.611   0.240 -2.8982  0.7710 -0.2949
  124SOL    HW2  372   0.036   0.459   0.194 -1.5915 -0.0183  2.0704
  125SOL     OW  373   0.360   0.272   0.021  0.3896  0.1543 -0.1169
  125SOL    HW1  374   0.270   0.280   3.066 -0.9367 -0.4843 -1.0086
  125SOL    HW2  375   0.377   0.360   0.077 -2.3959  2.4776 -0.4790
  126SOL     OW  376   3.031   1.746   0.583 -0.4252  0.7019 -0.2404
  126SOL    HW1  377   3.077   1.838   0.598  1.2911  0.5627 -0.0741
  126SOL    HW2  378   2.932   1.756   0.565  0.3277 -1.6637 -0.1415
  127SOL     OW  379   1.162   2.396   1.490 -0.8627 -0.2639 -0.3837
  127SOL    HW1  380   1.136   2.322   1.557  2.9049 -3.3468  1.4718
  127SOL    HW2  381   1.144   2.365   1.395  1.8253  0.0687  0.9253
  128SOL     OW  382   1.265   1.461   0.192 -0.1037  0.3120 -0.1122
  128SOL    HW1  383   1.333   1.505   0.129  1.1409  0.0792  2.4609
  128SOL    HW2  384   1.254   1.361   0.177  0.1421  0.3082 -0.3764
  129SOL     OW  385   1.868   2.105   1.312  0.5247 -0.3621 -0.3598
  129SOL    HW1  386   1.867   2.056   1.226  0.8119 -1.7781  2.8549
  129SOL    HW2  387   1.779   2.154   1.325  0.1643 -1.5190 -0.8333
  130SOL     OW  388   1.937   2.028   1.561 -0.2329  0.0664  0.5340
  130SOL    HW1  389   1.856   1.997   1.618  3.3433 -0.1854 -1.3606
  130SOL    HW2  390   1.909   2.045   1.465 -1.9735  0.7275  0.7667
  131SOL     OW  391   2.811   2.670   2.477  0.0456  0.4338  0.1604
  131SOL    HW1  392   2.731   2.683   2.542 -1.7888 -0.3883 -0.6607
  131SOL    HW2  393   2.902   2.675   2.526  0.9870 -1.2851 -0.8994
  132SOL     OW  394   0.000   2.208   0.478  0.0760  0.3124  0.0167
  132SOL    HW1  395   0.028   2.125   0.529  1.6443 -1.7634  0.2955
  132SOL    HW2  396   2.998   2.230   0.518 -1.8532 -0.5854  0.8134
  133SOL     OW  397   0.479   0.293   1.749 -0.2588  0.4867  0.4143
  133SOL    HW1  398   0.500   0.338   1.837 -0.5298 -0.7467  3.7981
  133SOL    HW2  399   0.558   0.299   1.685 -1.9357 -1.6155 -0.1916
  134SOL     OW  400   2.719   1.989   0.159 -0.4351 -0.5967  0.0495
  134SOL    HW1  401   2.814   1.996   0.202  0.9697  2.2005  0.7290
  134SOL    HW2  402   2.667   2.076   0.174  0.8273  0.5752 -1.1601
  135SOL     OW  403   1.579   1.181   2.550  0.0731 -0.1747 -0.1334
  135SOL    HW1  404   1.612   1.120   2.626 -2.0416 -2.9201  0.7118
  135SOL    HW2  405   1.534   1.129   2.476 -3.1913  0.5482 -1.5343
  136SOL     OW  406   2.458   1.658   1.156  0.3449 -0.1700 -0.3059
  136SOL    HW1  407   2.406   1.661   1.071  2.0993 -1.3307  2.1761
  136SOL    HW2  408   2.554   1.624   1.144 -2.1101  0.5321  2.7774
  137SOL     OW  409   2.683   1.536   0.762  0.1711 -0.6299  0.0863
  137SOL    HW1  410   2.688   1.465   0.686 -0.1624  1.4699  2.3968
  137SOL    HW2  411   2.677   1.627   0.713 -1.9991  1.4508 -2.6425
  138SOL     OW  412   2.773   0.180   0.726  0.0631  0.0376  0.2141
  138SOL    HW1  413   2.707   0.121   0.776 -0.5725 -0.8351 -0.9289
  138SOL    HW2  414   2.783   0.273   0.770  1.8594  1.4632  1.6648
  139SOL     OW  415   0.169   2.696   2.993  0.0750  0.2070 -0.6681
  139SOL    HW1  416   0.218   2.684   2.905  1.4614 -1.2134  2.7738
  139SOL    HW2  417   0.151   2.792   3.016 -1.3582 -2.4301 -0.2149
  140SOL     OW  418   0.933   1.935   1.791  0.0688  0.3719 -0.2543
  140SOL    HW1  419   1.032   1.961   1.784 -0.1387 -2.1423 -3.1516
  140SOL    HW2  420   0.917   1.864   1.867 -0.9820 -1.2109  1.9799
  141SOL     OW  421   1.457   1.795   0.781  0.1672  0.5675 -0.3506
  141SOL    HW1  422   1.426   1.708   0.735  0.4142 -2.9125  0.0866
  141SOL    HW2  423   1.518   1.769   0.859  1.9692  0.6014 -0.9602
  142SOL     OW  424   1.154   0.649   0.815  0.0697  0.0333 -0.5179
  142SOL    HW1  425   1.125   0.571   0.759 -0.2043  1.2192  0.8497
  142SOL    HW2  426   1.107   0.738   0.801  0.3064  0.9351 -0.9271
  143SOL     OW  427   0.769   1.377   2.723 -0.2954  0.5361 -0.4050
  143SOL    HW1  428   0.747   1.274   2.717 -2.4599 -3.8485  0.3771
  143SOL    HW2  429   0.711   1.430   2.659  0.7220  0.7214  0.8984
  144SOL     OW  430   2.067   3.002   0.901  0.1729  0.2463  0.2447
  144SOL    HW1  431   1.988   3.009   0.834  0.1043 -0.7892 -0.1281
  144SOL    HW2  432   2.024   3.011   0.989  1.1254  0.4667 -2.2725
  145SOL     OW  433   2.206   0.523   2.661  0.6442 -0.0157  0.0271
  145SOL    HW1  434   2.160   0.514   2.752  1.0662 -0.8624 -1.5086
  145SOL    HW2  435   2.307   0.527   2.679  1.0567 -1.2269 -0.4731
  146SOL     OW  436   2.995   2.689   0.869  0.7575 -0.0642 -0.1009
  146SOL    HW1  437   2.915   2.629   0.837  1.6179 -1.2880 -1.9613
  146SOL    HW2  438   3.029   2.733   0.786  0.3356  1.0921  0.1860
  147SOL     OW  439   1.304   0.977   2.531 -0.0185  0.2487 -0.2852
  147SOL    HW1  440   1.244   1.053   2.505  2.5596 -1.0027  4.6236
  147SOL    HW2  441   1.370   0.972   2.456 -0.5674  1.9466 -2.7779
  148SOL     OW  442   1.168   0.622   2.403  0.3560 -0.1247  0.3823
  148SOL    HW1  443   1.202   0.649   2.313 -0.5629  0.3908  0.4993
  148SOL    HW2  444   1.227   0.543   2.431 -0.5922  1.2832 -1.4347
  149SOL     OW  445   2.106   0.166   1.998 -0.0949  0.0843  0.4812
  149SOL    HW1  446   2.179   0.109   2.040 -1.3013 -0.6111 -0.6573
  149SOL    HW2  447   2.021   0.141   2.048 -0.1678 -3.4824 -1.6426
  150SOL     OW  448   2.313   2.596   2.957  0.2398  0.1355 -0.0267
  150SOL    HW1  449   2.286   2.653   3.039 -0.3543 -0.8348 -0.0739
  150SOL    HW2  450   2.407   2.551   2.964  1.0583  1.5923 -1.6621
  151SOL     OW  451   0.393   1.555   2.986 -0.3495  0.5674  0.0145
  151SOL    HW1  452   0.473   1.520   3.034 -3.0529 -1.1382 -0.4094
  151SOL    HW2  453   0.424   1.634   2.928 -0.0193 -0.6313  1.0060
  152SOL     OW  454   0.065   0.239   1.518  0.5510 -0.4821 -0.1821
  152SOL    HW1  455   0.113   0.199   1.596  2.4692  1.0263 -2.5130
  152SOL    HW2  456   0.132   0.247   1.441 -1.2465 -0.6365  1.2509
  153SOL     OW  457   2.246   3.012   1.653 -0.3123 -0.2096 -0.1492
  153SOL    HW1  458   2.148   3.016   1.677  0.4226  0.9052  0.9577
  153SOL    HW2  459   2.255   3.025   1.553  1.4505  2.2119  0.8290
  154SOL     OW  460   1.959   0.502   2.216 -0.5139  0.3346 -0.2767
  154SOL    HW1  461   1.944   0.514   2.318  2.0940  0.9488 -0.2485
  154SOL    HW2  462   2.026   0.574   2.188 -0.1506  0.0960 -0.6054
  155SOL     OW  463   0.099   1.651   0.356  0.2310 -0.2424  0.0547
  155SOL    HW1  464   0.197   1.671   0.376 -0.0216  0.1936 -1.1955
  155SOL    HW2  465   0.043   1.684   0.430 -0.4757  1.9734 -2.5970
  156SOL     OW  466   2.853   1.478   3.090 -0.1230  0.2985  0.6331
  156SOL    HW1  467   2.879   1.536   3.013  1.9474  0.8525 -0.6848
  156SOL    HW2  468   2.808   1.523   0.078 -1.1735  1.5136 -1.4275
  157SOL     OW  469   0.648   0.324   0.777  0.2273 -0.2526 -0.2633
  157SOL    HW1  470   0.574   0.279   0.719 -4.5909 -1.3134 -0.8400
  157SOL    HW2  471   0.722   0.260   0.812  1.1396  0.9607 -1.0639
  158SOL     OW  472   2.018   0.973   1.391 -0.0462  0.0422 -0.4491
  158SOL    HW1  473   2.056   0.997   1.481  1.9560 -1.5061 -0.2386
  158SOL    HW2  474   2.033   1.049   1.323  3.1676  0.6547 -1.0311
  159SOL     OW  475   0.214   0.157   0.706  0.2206  0.0607  0.2304
  159SOL    HW1  476   0.136   0.220   0.716 -1.0748 -2.1441  0.7786
  159SOL    HW2  477   0.224   0.130   0.607  1.1409  2.3041 -1.4553
  160SOL     OW  478   2.169   2.161   1.581  0.3365 -0.2165  0.2300
  160SOL    HW1  479   2.206   2.166   1.675  0.6785 -0.8904 -0.3818
  160SOL    HW2  480   2.088   2.098   1.570 -0.6368 -0.8146  0.7278
  161SOL     OW  481   0.078   0.790   2.646 -0.2733  0.1444  0.0050
  161SOL    HW1  482   0.103   0.691   2.663 -0.9808  1.0495 -1.1136
  161SOL    HW2  483   0.054   0.843   2.735 -1.2645  3.3672  1.0471
  162SOL     OW  484   0.617   2.931   1.639 -0.1973  0.4601 -0.2383
  162SOL    HW1  485   0.523   2.961   1.663 -2.9635 -1.0776 -4.0698
  162SOL    HW2  486   0.669   2.998   1.578  1.0327 -1.1979 -1.3404
  163SOL     OW  487   2.744   0.167   2.417 -0.2668  0.1299  0.1167
  163SOL    HW1  488   2.751   0.068   2.387 -0.0175 -1.0484  0.1333
  163SOL    HW2  489   2.785   0.228   2.345  1.3221 -0.9438 -1.1143
  164SOL     OW  490   2.222   1.914   0.300 -0.6372  0.2761 -0.0936
  164SOL    HW1  491   2.132   1.957   0.281  0.3162 -1.8064 -1.8609
  164SOL    HW2  492   2.261   1.869   0.211  0.2431 -0.0770 -1.2745
  165SOL     OW  493   0.014   0.505   1.498 -0.0932 -0.6595 -0.0346
  165SOL    HW1  494   0.051   0.525   1.407 -3.0367  1.0829 -0.6625
  165SOL    HW2  495   0.028   0.408   1.520 -0.5779  0.6032  0.1275
  166SOL     OW  496   1.966   0.765   0.425 -0.7723 -0.9845  0.1381
  166SOL    HW1  497   1.916   0.850   0.417  1.3331  0.5757 -1.8524
  166SOL    HW2  498   1.965   0.732   0.520  1.8689  0.1057 -3.5413
  167SOL     OW  499   2.436   0.894   2.921 -0.0457 -0.0528 -0.2080
  167SOL    HW1  500   2.335   0.894   2.904  0.4916  0.7217 -1.7246
  167SOL    HW2  501   2.471   0.840   3.003  2.5957 -1.1854  0.1693
  168SOL     OW  502   1.797   0.253   2.978 -0.0423 -0.3255  0.1229
  168SOL    HW1  503   1.819   0.282   3.075  0.7100  0.4332 -1.9972
  168SOL    HW2  504   1.846   0.316   2.909  0.9340  2.1311  2.1919
  169SOL     OW  505   0.210   1.701   0.914 -0.3842  0.3614 -0.4120
  169SOL    HW1  506   0.192   1.693   1.013  1.5005 -0.6064 -3.2377
  169SOL    HW2  507   0.145   1.644   0.859  1.2593 -0.9350 -4.8461
  170SOL     OW  508   2.945   1.195   0.832 -0.1385  0.0111 -0.1781
  170SOL    HW1  509   2.841   1.181   0.839 -0.5168 -4.5977 -1.0087
  170SOL    HW2  510   2.978   1.184   0.737  0.4679 -2.1726  1.8393
  171SOL     OW  511   2.520   1.748   2.098 -0.4106 -0.0575  0.4602
  171SOL    HW1  512   2.494   1.781   2.006  0.5977 -1.1523 -0.8425
  171SOL    HW2  513   2.482   1.811   2.170 -0.0016  0.3434 -1.4727
  172SOL     OW  514   0.563   1.962   1.646  0.0330 -0.1132 -0.0889
  172SOL    HW1  515   0.526   2.055   1.625  1.1037 -0.3845  0.1022
  172SOL    HW2  516   0.641   1.943   1.583 -1.2610 -0.2758  1.7666
  173SOL     OW  517   1.722   1.593   2.916 -0.1004  0.4607 -0.1861
  173SOL    HW1  518   1.678   1.513   2.869 -0.3555  0.2353  0.2586
  173SOL    HW2  519   1.711   1.678   2.858  1.9491  1.1103 -0.2858
  174SOL     OW  520   1.289   0.630   2.928  0.4960  0.3096  0.0019
  174SOL    HW1  521   1.370   0.569   2.904  1.8502  1.2438  0.0991
  174SOL    HW2  522   1.256   0.670   2.841  1.0730 -0.8188 -1.1907
  175SOL     OW  523   1.313   1.345   1.306  0.3452  0.5331 -0.6018
  175SOL    HW1  524   1.304   1.424   1.365  2.2850 -1.0859 -0.0298
  175SOL    HW2  525   1.220   1.319   1.274 -2.5632 -1.1627 -1.3382
  176SOL     OW  526   1.194   0.265   0.308  0.2465  0.0360 -0.1932
  176SOL    HW1  527   1.161   0.238   0.218 -0.6763  1.6282 -0.0610
  176SOL    HW2  528   1.138   0.345   0.342  1.3695  0.1525 -1.1364
  177SOL     OW  529   0.489   1.058   0.238 -0.3391 -0.4275 -0.8566
  177SOL    HW1  530   0.499   0.985   0.173  1.8924 -0.0837  1.3650
  177SOL    HW2  531   0.565   1.064   0.304  0.6744  2.0840 -1.2001
  178SOL     OW  532   2.579   2.294   2.276 -0.0007  0.6316 -0.3218
  178SOL    HW1  533   2.625   2.337   2.353  1.3847 -1.0950 -2.5414
  178SOL    HW2  534   2.576   2.192   2.283  0.1428  1.7298  0.6773
  179SOL     OW  535   2.885   2.981   2.537  0.2782  0.8144 -0.9044
  179SOL    HW1  536   2.839   2.952   2.628 -2.0309 -1.1413  1.7082
  179SOL    HW2  537   2.817   2.963   2.465  2.1238  0.1852  3.2859
  180SOL     OW  538   2.195   0.420   1.199 -0.0699 -0.7134 -0.3295
  180SOL    HW1  539   2.128   0.384   1.133  2.7073 -0.3566 -0.3831
  180SOL    HW2  540   2.246   0.503   1.167  0.8900  0.2035  2.7226
  181SOL     OW  541   2.229   0.799   2.618  0.3963 -0.0987  0.3287
  181SOL    HW1  542   2.223   0.696   2.638 -1.0561 -2.0578  0.2154
  181SOL    HW2  543   2.190   0.855   2.696 -2.2487  2.1665 -1.3733
  182SOL     OW  544   2.689   2.313   2.016  0.1239  0.3804 -0.2750
  182SOL    HW1  545   2.786   2.340   2.028 -0.8809  2.6360 -0.7028
  182SOL    HW2  546   2.638   2.336   2.102  0.1551 -0.9769 -0.2964
  183SOL     OW  547   1.863   0.683   1.681  0.1208 -0.3569 -0.0632
  183SOL    HW1  548   1.916   0.683   1.594  0.3154 -0.6069 -1.9753
  183SOL    HW2  549   1.777   0.737   1.667  0.6003  0.9975 -2.3519
  184SOL     OW  550   0.112   1.658   1.151  0.5818  0.4853 -0.6358
  184SOL    HW1  551   0.121   1.563   1.115 -0.4362  0.0272  1.3371
  184SOL    HW2  552   0.057   1.658   1.239 -1.1410  0.2884  0.7829
  185SOL     OW  553   2.589   0.005   0.855 -0.3172 -0.0012  0.6817
  185SOL    HW1  554   2.540   0.038   0.935  0.2939  1.4145 -0.1182
  185SOL    HW2  555   2.579   2.994   0.847  1.5142 -1.6638  1.7231
  186SOL     OW  556   2.216   2.440   2.661 -0.0236 -0.3499  0.4497
  186SOL    HW1  557   2.311   2.461   2.700 -0.2302 -1.7224  0.0628
  186SOL    HW2  558   2.144   2.439   2.731  3.4546 -0.9105 -0.3341
  187SOL     OW  559   0.462   1.524   0.549 -0.5519  0.1775  0.5712
  187SOL    HW1  560   0.416   1.436   0.535  0.4936  1.7557  0.0151
  187SOL    HW2  561   0.448   1.562   0.643  1.0551 -1.5745  1.8254
  188SOL     OW  562   2.085   1.152   1.167 -0.3042  0.0042 -0.0165
  188SOL    HW1  563   2.130   1.240   1.176 -1.5757 -5.1825  0.2101
  188SOL    HW2  564   1.990   1.168   1.138  0.3978 -1.0967  0.9551
  189SOL     OW  565   0.204   0.735   2.300  0.0653 -0.0654  0.9937
  189SOL    HW1  566   0.292   0.783   2.280 -1.6156  0.9924  1.1718
  189SOL    HW2  567   0.179   0.738   2.401 -1.3419  0.2134  2.9675
  190SOL     OW  568   2.056   0.654   1.839 -0.4124  0.2195 -0.1829
  190SOL    HW1  569   1.960   0.675   1.810  0.1483  0.8334  0.5195
  190SOL    HW2  570   2.065   0.553   1.837  0.6361  0.2612 -0.3456
  191SOL     OW  571   0.963   0.253   2.223 -0.4521 -0.0661 -0.0797
  191SOL    HW1  572   0.896   0.246   2.298  2.5002  0.7927 -1.1824
  191SOL    HW2  573   1.038   0.184   2.228  0.9334  0.5098 -0.1289
  192SOL     OW  574   1.206   1.978   1.740 -0.3777  0.2623 -0.3009
  192SOL    HW1  575   1.229   1.996   1.642 -0.3214 -0.7206  1.1622
  192SOL    HW2  576   1.272   2.027   1.804  2.2505 -0.7507  0.5704
  193SOL     OW  577   1.306   0.092   0.743  0.0311 -0.3274 -0.5504
  193SOL    HW1  578   1.248   0.024   0.793 -0.2973 -0.1590  0.5766
  193SOL    HW2  579   1.249   0.134   0.667 -0.2297 -0.1268 -1.0446
  194SOL     OW  580   1.052   2.235   1.693 -0.5523 -0.6700  0.6829
  194SOL    HW1  581   0.952   2.243   1.673 -0.7895  1.4622  0.1568
  194SOL    HW2  582   1.099   2.146   1.715  0.3885  0.4958  0.7735
  195SOL     OW  583   1.441   0.409   0.505 -0.1701  0.1429  0.0775
  195SOL    HW1  584   1.447   0.324   0.448 -0.2892  0.7621  1.2699
  195SOL    HW2  585   1.495   0.412   0.590 -0.4855  0.2439 -2.7625
  196SOL     OW  586   0.784   1.358   2.175  0.2158 -0.2277 -0.0913
  196SOL    HW1  587   0.852   1.404   2.235 -1.0036 -1.8112 -2.1576
  196SOL    HW2  588   0.838   1.324   2.096 -0.5615  1.2970 -1.3093
  197SOL     OW  589   0.600   0.720   1.741  0.2640 -0.2495 -0.3429
  197SOL    HW1  590   0.701   0.698   1.732 -0.4525 -0.8224 -0.4925
  197SOL    HW2  591   0.565   0.719   1.645  0.4877  1.0123 -0.4523
  198SOL     OW  592   0.755   0.791   0.857 -0.3924  0.0687 -0.4366
  198SOL    HW1  593   0.823   0.819   0.784  2.6868  0.9396 -1.4383
  198SOL    HW2  594   0.701   0.715   0.815 -0.7302 -1.3542 -0.1394
  199SOL     OW  595   0.508   2.538   1.795 -0.6591  0.2477  0.5897
  199SOL    HW1  596   0.479   2.524   1.892  0.3737 -0.1469  0.6578
  199SOL    HW2  597   0.429   2.539   1.734 -1.6590 -0.0417  1.5892
  200SOL     OW  598   1.661   1.409   2.372  0.0691  0.5950 -0.5222
  200SOL    HW1  599   1.761   1.411   2.362  1.8689 -0.2031  1.3610
  200SOL    HW2  600   1.638   1.341   2.441  2.3570  2.8631 -1.8256
  201SOL     OW  601   0.815   2.142   1.927 -0.0454  0.3819  0.0128
  201SOL    HW1  602   0.851   2.069   1.863 -2.1822  0.7745  2.3391
  201SOL    HW2  603   0.714   2.125   1.933 -3.5588  1.7711 -3.3230
  202SOL     OW  604   1.207   2.748   3.081 -0.1372  0.1327  0.5814
  202SOL    HW1  605   1.227   2.849   3.087  0.1333  1.3397  0.0449
  202SOL    HW2  606   1.294   2.696   3.074 -1.3029 -0.0525  0.2645
  203SOL     OW  607   1.356   0.238   2.238 -0.2714  0.1361  0.5384
  203SOL    HW1  608   1.285   0.162   2.231 -0.7881  0.3948  0.8555
  203SOL    HW2  609   1.455   0.205   2.249  0.5269 -1.1001  0.6393
  204SOL     OW  610   0.624   1.563   2.062  0.0124 -0.2802  0.8171
  204SOL    HW1  611   0.639   1.511   2.147  0.4595  2.3790  1.1817
  204SOL    HW2  612   0.658   1.508   1.984 -0.7931 -0.3432 -2.7408
  205SOL     OW  613   2.097   1.132   2.662  0.2727 -0.2874  0.2871
  205SOL    HW1  614   2.041   1.121   2.578  0.2596 -0.9926  0.5705
  205SOL    HW2  615   2.178   1.184   2.646 -4.0694 -2.9179 -0.5048
  206SOL     OW  616   0.115   1.723   2.650  0.1493  0.0888 -0.6319
  206SOL    HW1  617   0.021   1.758   2.638 -2.1044 -0.9593  0.7588
  206SOL    HW2  618   0.131   1.707   2.749  0.5950  1.0789  1.1285
  207SOL     OW  619   1.120   2.839   1.696  0.4850  0.1541  0.3381
  207SOL    HW1  620   1.161   2.825   1.783 -1.7735 -0.2801 -2.0825
  207SOL    HW2  621   1.139   2.932   1.654 -0.2963 -0.5519 -2.3819
  208SOL     OW  622   0.554   2.402   1.375 -0.6248  0.5305 -0.3057
  208SOL    HW1  623   0.601   2.480   1.423 -1.6463 -1.4654  0.4336
  208SOL    HW2  624   0.588   2.386   1.278  0.3532  3.7069 -0.7146
  209SOL     OW  625   1.315   2.853   0.334 -0.1349  0.6733 -0.0446
  209SOL    HW1  626   1.232   2.863   0.398 -0.6226  1.6279  0.3044
  209SOL    HW2  627   1.282   2.892   0.246  1.4811 -1.5893  0.4387
  210SOL     OW  628   2.944   1.489   1.188  0.2355 -0.0616 -0.1726
  210SOL    HW1  629   2.868   1.542   1.132  0.4204  1.7945  0.0071
  210SOL    HW2  630   2.984   1.423   1.126 -0.1114 -1.2622  1.3908
  211SOL     OW  631   0.790   0.823   1.979 -0.0862 -0.3459 -0.1509
  211SOL    HW1  632   0.841   0.795   1.896  0.1069  1.4265 -0.2312
  211SOL    HW2  633   0.748   0.743   2.018 -2.5246  0.1473 -0.4681
  212SOL     OW  634   1.450   2.270   1.622  0.0725 -0.0735  0.3491
  212SOL    HW1  635   1.408   2.312   1.536 -0.2465  1.6699 -1.5209
  212SOL    HW2  636   1.481   2.175   1.609  2.0916 -3.2940  0.0771
  213SOL     OW  637   2.802   0.327   1.596  0.2702  0.7255 -0.2126
  213SOL    HW1  638   2.767   0.417   1.615  0.3721 -1.4378 -0.2221
  213SOL    HW2  639   2.833   0.327   1.497  3.8024 -0.9755  1.4986
  214SOL     OW  640   0.904   2.641   1.914  0.0042  0.1014 -0.3247
  214SOL    HW1  641   0.976   2.601   1.856 -1.8566  0.3610 -1.4211
  214SOL    HW2  642   0.833   2.683   1.854  1.0103  0.9948 -1.0107
  215SOL     OW  643   2.898   1.894   1.335 -0.2271  0.0289  0.3069
  215SOL    HW1  644   2.810   1.933   1.367 -1.5419  0.8586  0.9377
  215SOL    HW2  645   2.968   1.967   1.338  0.8962  1.4216  0.9491
  216SOL     OW  646   0.157   1.018   1.816 -0.3314  0.5879 -0.6343
  216SOL    HW1  647   0.213   0.939   1.844  0.1197  0.5561 -1.5127
  216SOL    HW2  648   0.061   0.988   1.791 -0.7764 -1.0213 -0.6171
  217SOL     OW  649   2.908   0.325   1.301 -0.2502  0.1053 -0.6020
  217SOL    HW1  650   2.967   0.242   1.299 -2.3411  2.1931  0.4953
  217SOL    HW2  651   2.924   0.389   1.229 -1.1580 -1.7072  1.1669
  218SOL     OW  652   1.363   2.143   1.085 -0.3294  0.6502 -0.2068
  218SOL    HW1  653   1.344   2.197   0.999  1.3218  0.6341  3.0986
  218SOL    HW2  654   1.291   2.143   1.154  2.2222  0.3745 -0.8978
  219SOL     OW  655   1.555   2.443   0.358 -0.5322  0.0427 -0.5330
  219SOL    HW1  656   1.477   2.495   0.399  0.3857 -0.6366 -1.9339
  219SOL    HW2  657   1.546   2.345   0.380  0.8575  0.2299 -1.3780
  220SOL     OW  658   1.926   2.388   0.417 -0.1246 -0.1841  0.2944
  220SOL    HW1  659   1.931   2.289   0.440  0.1764  0.1556  2.6587
  220SOL    HW2  660   1.884   2.401   0.327 -3.5208 -0.6333 -0.8596
  221SOL     OW  661   2.737   2.071   0.922 -0.0361  0.2484  0.2052
  221SOL    HW1  662   2.667   2.091   0.850 -0.0098 -0.3783 -3.0883
  221SOL    HW2  663   2.827   2.125   0.914  0.0192 -1.5810 -0.5020
  222SOL     OW  664   0.932   2.110   0.739  0.0791 -0.1528 -0.2512
  222SOL    HW1  665   1.005   2.126   0.808 -1.9324 -0.4894 -2.6111
  222SOL    HW2  666   0.863   2.040   0.771  0.1117  0.2953 -0.2456
  223SOL     OW  667   1.063   2.686   2.378  0.3451 -0.8729 -0.2072
  223SOL    HW1  668   1.163   2.708   2.376  1.4018  0.0680 -0.6045
  223SOL    HW2  669   1.000   2.750   2.329 -1.3316 -2.6336  0.4978
  224SOL     OW  670   2.525   1.076   1.037  0.1660  0.5207 -0.3838
  224SOL    HW1  671   2.562   1.110   0.950 -1.4349 -3.8960  0.5165
  224SOL    HW2  672   2.475   0.986   1.027 -0.7385  2.9098 -1.5180
  225SOL     OW  673   2.753   1.595   1.037 -0.1705 -0.8326  0.1167
  225SOL    HW1  674   2.722   1.565   0.943 -3.5423 -1.6833 -3.1069
  225SOL    HW2  675   2.789   1.693   1.038  0.4957  1.0416  0.3447
  226SOL     OW  676   1.216   2.668   0.708 -0.2725  0.0371  0.4072
  226SOL    HW1  677   1.196   2.584   0.653 -0.9194  1.1418 -0.2815
  226SOL    HW2  678   1.318   2.681   0.725  1.3840 -1.5266  3.9217
  227SOL     OW  679   1.031   1.291   1.237  0.1720 -0.2528 -0.7902
  227SOL    HW1  680   1.007   1.203   1.283 -1.3413 -0.4852  1.2627
  227SOL    HW2  681   0.970   1.297   1.157 -1.4473  1.2431 -2.6333
  228SOL     OW  682   1.429   0.427   2.043 -0.0184 -0.6625  0.0410
  228SOL    HW1  683   1.408   0.347   2.101 -0.4684  1.7188 -1.7777
  228SOL    HW2  684   1.386   0.416   1.950 -0.5387 -1.9952  0.3076
  229SOL     OW  685   2.916   0.788   2.523  0.0274  0.2676 -0.2813
  229SOL    HW1  686   2.905   0.830   2.426 -0.4858 -0.6941 -0.2664
  229SOL    HW2  687   3.009   0.801   2.560 -3.1874 -2.0615  0.8180
  230SOL     OW  688   0.534   1.350   0.827 -0.5687 -0.1982 -0.1452
  230SOL    HW1  689   0.567   1.360   0.925  1.5560 -0.2483 -0.1182
  230SOL    HW2  690   0.484   1.433   0.791 -0.9445  1.2968 -0.1037
  231SOL     OW  691   2.482   2.971   2.680  0.1493  0.2585 -0.4665
  231SOL    HW1  692   2.466   3.027   2.599  0.0307 -0.8540  1.7595
  231SOL    HW2  693   2.552   3.014   2.748  1.7337  3.0903  2.5932
  232SOL     OW  694   0.474   1.972   0.016 -0.0243  0.6843 -0.2644
  232SOL    HW1  695   0.383   2.015   3.088  1.2587  0.9024  0.5896
  232SOL    HW2  696   0.544   2.044   0.017  2.4431 -0.5719  0.0287
  233SOL     OW  697   1.453   2.607   2.610 -0.2887  0.4794  0.4245
  233SOL    HW1  698   1.471   2.520   2.658 -0.1469  1.1514 -2.2467
  233SOL    HW2  699   1.393   2.668   2.669 -0.7172 -0.3536 -2.0175
  234SOL     OW  700   1.146   1.420   1.931  0.1400  0.1882  0.7654
  234SOL    HW1  701   1.185   1.436   2.021  1.0788  0.0294 -2.0275
  234SOL    HW2  702   1.069   1.356   1.949  0.7901  1.6741 -1.1875
  235SOL     OW  703   0.564   2.032   1.914 -0.3206 -0.5506 -0.1927
  235SOL    HW1  704   0.604   2.012   1.821  0.0797  0.3693 -1.6207
  235SOL    HW2  705   0.510   1.951   1.949  0.0697 -2.4145 -2.2768
  236SOL     OW  706   1.768   2.098   2.851 -0.0266 -0.5538 -0.6103
  236SOL    HW1  707   1.738   2.117   2.945  0.7934 -1.0019 -1.1791
  236SOL    HW2  708   1.865   2.138   2.834  0.5761 -0.2495  0.3169
  237SOL     OW  709   1.453   0.280   0.860  0.6109 -0.5581 -0.0204
  237SOL    HW1  710   1.376   0.312   0.914 -1.2457  1.0363 -0.1541
  237SOL    HW2  711   1.416   0.201   0.804  0.8032 -3.2356  2.7771
  238SOL     OW  712   0.950   0.501   2.484  0.0326 -0.5830 -0.1674
  238SOL    HW1  713   0.943   0.409   2.442 -0.1148 -2.1958 -0.3779
  238SOL    HW2  714   1.032   0.554   2.451 -1.6961  1.1047 -1.3164
  239SOL     OW  715   0.671   2.952   1.905  0.0046  0.1604  0.0945
  239SOL    HW1  716   0.658   2.970   1.803 -0.5031  1.2673  1.9679
  239SOL    HW2  717   0.733   3.023   1.943 -3.1970  1.6254 -1.0965
  240SOL     OW  718   2.560   2.610   0.694  0.4944 -0.1497  0.2130
  240SOL    HW1  719   2.543   2.709   0.715 -1.4956  1.7903 -1.7335
  240SOL    HW2  720   2.510   2.591   0.605 -2.1364  0.0570 -1.2309
  241SOL     OW  721   1.091   1.503   1.666 -0.3389  0.9411  0.1332
  241SOL    HW1  722   0.995   1.532   1.642  1.2574 -3.2597  1.6263
  241SOL    HW2  723   1.084   1.475   1.767  0.8734  0.4726  2.2135
  242SOL     OW  724   2.895   0.519   0.576 -0.0447  0.7382  0.3986
  242SOL    HW1  725   2.975   0.583   0.566  0.5672 -0.1303  2.3303
  242SOL    HW2  726   2.890   0.455   0.497 -0.8505  0.4976  1.2919
  243SOL     OW  727   0.686   0.714   1.331 -0.2137  0.9475 -0.2620
  243SOL    HW1  728   0.696   0.813   1.311 -0.7079  0.0184  2.4817
  243SOL    HW2  729   0.612   0.690   1.396 -1.3818  0.1296  1.7899
  244SOL     OW  730   1.172   0.455   0.042 -0.6157  0.4787  0.9396
  244SOL    HW1  731   1.216   0.489   3.051 -1.3928 -1.7366  1.3779
  244SOL    HW2  732   1.086   0.509   0.060  1.3317 -2.0982 -0.7608
  245SOL     OW  733   2.115   0.305   0.097  0.2074 -0.0742 -0.1665
  245SOL    HW1  734   2.099   0.222   0.155  0.6731 -0.3718  2.1459
  245SOL    HW2  735   2.185   0.288   0.025 -1.0994  0.6622 -0.3451
  246SOL     OW  736   0.878   0.738   1.739 -0.1441  0.3552  0.1380
  246SOL    HW1  737   0.850   0.828   1.706  0.3639 -4.7270  0.3064
  246SOL    HW2  738   0.964   0.703   1.696 -0.1512 -1.7189 -2.5934
  247SOL     OW  739   0.652   0.059   2.176 -0.4833  0.6191 -0.2974
  247SOL    HW1  740   0.570   0.117   2.149 -3.3045  3.0090  0.8195
  247SOL    HW2  741   0.721   0.048   2.106 -1.4558  1.0904  1.7123
  248SOL     OW  742   0.072   1.582   2.061  0.2727 -0.1787 -0.0860
  248SOL    HW1  743   0.021   1.598   1.975 -0.8732 -1.7680  1.8536
  248SOL    HW2  744   0.118   1.669   2.091 -2.5319 -0.2314  2.7587
  249SOL     OW  745   3.067   3.005   2.857  0.6535 -0.1048 -0.0105
  249SOL    HW1  746   0.061   2.976   2.814 -0.8688 -0.6857  0.4506
  249SOL    HW2  747   2.991   2.947   2.823 -1.1133 -2.1449 -0.5947
  250SOL     OW  748   2.885   0.136   0.050 -0.1094 -0.4621 -0.1783
  250SOL    HW1  749   2.786   0.121   0.073 -0.1371 -0.5648  0.9382
  250SOL    HW2  750   2.935   0.045   0.057  1.4254  0.6606 -0.0208
  251SOL     OW  751   0.332   1.461   1.320  0.2859 -0.1495 -0.6622
  251SOL    HW1  752   0.314   1.461   1.222 -0.9391 -0.4784  0.6763
  251SOL    HW2  753   0.280   1.389   1.367  0.2586  2.0948 -0.7101
  252SOL     OW  754   1.726   2.952   1.526  0.1566  0.6740  0.3419
  252SOL    HW1  755   1.810   2.896   1.517 -1.2600  0.3535 -1.6922
  252SOL    HW2  756   1.735   3.011   1.610  1.0636 -2.9844  0.0189
  253SOL     OW  757   2.128   1.910   2.624  0.7539 -0.4128  0.1090
  253SOL    HW1  758   2.182   1.995   2.625 -1.2530 -0.9314  2.0606
  253SOL    HW2  759   2.043   1.920   2.570 -1.3428 -0.0792  0.8392
  254SOL     OW  760   0.450   1.763   1.978  0.6652 -0.4101  0.1348
  254SOL    HW1  761   0.398   1.749   1.889 -2.2333 -0.0741  0.2216
  254SOL    HW2  762   0.508   1.684   2.002 -0.4595 -2.5811 -2.3019
  255SOL     OW  763   1.199   3.073   1.576 -0.5884  0.3636  0.1365
  255SOL    HW1  764   1.284   0.030   1.555  1.9136 -1.6191 -1.5389
  255SOL    HW2  765   1.142   0.031   1.644  1.0750  0.6826 -1.6104
  256SOL     OW  766   2.328   2.282   0.932  0.0541  0.4068  0.3492
  256SOL    HW1  767   2.229   2.283   0.962  0.2328  0.2174  2.5420
  256SOL    HW2  768   2.351   2.369   0.886 -1.3643 -1.7464  1.0506
  257SOL     OW  769   0.392   2.190   0.266  0.0846 -0.5160  0.3293
  257SOL    HW1  770   0.453   2.261   0.222  2.3899  2.2575 -1.5035
  257SOL    HW2  771   0.430   2.158   0.356  0.3307  0.8897  1.1485
  258SOL     OW  772   0.924   2.440   2.280  0.4396  0.2994 -0.6847
  258SOL    HW1  773   0.831   2.481   2.284  0.4567 -0.3741  0.8174
  258SOL    HW2  774   0.990   2.515   2.289 -1.4040 -1.6377 -0.5858
  259SOL     OW  775   1.159   1.698   2.954 -0.4596  0.5686 -0.2483
  259SOL    HW1  776   1.173   1.741   2.864 -0.2679 -0.4851  1.8328
  259SOL    HW2  777   1.061   1.702   2.983 -0.8702  1.5040  1.6871
  260SOL     OW  778   2.470   1.059   2.110  0.3546  0.4015  1.1651
  260SOL    HW1  779   2.456   1.146   2.066 -2.0089 -1.8979 -2.0902
  260SOL    HW2  780   2.411   1.050   2.188  2.3943 -2.6805 -0.7636
  261SOL     OW  781   1.415   0.692   0.833 -0.4475  0.4213 -0.5249
  261SOL    HW1  782   1.444   0.640   0.917  1.2881 -1.3833  0.0317
  261SOL    HW2  783   1.317   0.671   0.809 -0.6474 -0.8176 -0.6067
  262SOL     OW  784   1.557   2.119   2.394 -0.1507 -0.0463  0.3079
  262SOL    HW1  785   1.617   2.055   2.339 -1.3979 -1.9803 -1.8592
  262SOL    HW2  786   1.565   2.104   2.498 -1.2396 -4.2888  3.0654
  263SOL     OW  787   0.018   1.660   0.092  0.2392  0.3396 -0.7762
  263SOL    HW1  788   3.059   1.573   0.067 -1.0703 -3.6620 -0.4415
  263SOL    HW2  789   0.059   1.651   0.188  1.7509 -0.3577  0.1024
  264SOL     OW  790   0.603   1.912   0.827 -0.2741 -0.0224  0.3487
  264SOL    HW1  791   0.575   1.995   0.774  0.2655  0.7503 -0.6113
  264SOL    HW2  792   0.548   1.909   0.912 -0.2086  0.9963  0.1239
  265SOL     OW  793   0.640   1.417   0.337 -0.5066 -0.5650  0.0496
  265SOL    HW1  794   0.581   1.450   0.415 -4.0079 -0.1709 -0.8510
  265SOL    HW2  795   0.729   1.466   0.343 -3.5416 -2.4369  1.9810
  266SOL     OW  796   0.976   1.985   2.665 -0.4178 -0.2189 -0.2464
  266SOL    HW1  797   0.984   2.025   2.758 -0.5344 -0.0513  0.9442
  266SOL    HW2  798   0.938   2.056   2.598  0.9717  1.5142  3.0092
  267SOL     OW  799   0.905   0.799   2.340  0.0711  0.0206 -0.2756
  267SOL    HW1  800   0.987   0.782   2.286 -1.1741 -0.4221  0.8756
  267SOL    HW2  801   0.847   0.716   2.347 -1.1699  0.6154  1.3528
  268SOL     OW  802   0.483   0.554   2.700 -0.1982 -0.2576 -0.0656
  268SOL    HW1  803   0.552   0.626   2.681 -2.3712 -1.8027 -0.2799
  268SOL    HW2  804   0.462   0.551   2.801  2.8377  0.3863  0.9546
  269SOL     OW  805   2.152   0.069   2.407 -0.0230 -0.1330 -0.0012
  269SOL    HW1  806   2.209   0.140   2.455  1.2757  0.2629  1.5578
  269SOL    HW2  807   2.079   0.115   2.356 -0.2422  2.6147  0.8249
  270SOL     OW  808   0.966   1.484   2.364  0.8204 -0.3799  0.2667
  270SOL    HW1  809   0.944   1.579   2.384  0.6089 -0.1872 -0.5632
  270SOL    HW2  810   0.993   1.435   2.447  1.1637 -1.0690  0.6878
  271SOL     OW  811   0.265   2.962   2.971  0.1755  0.2719  0.1928
  271SOL    HW1  812   0.335   2.993   2.907 -0.4950  0.2917  0.2662
  271SOL    HW2  813   0.264   3.018   3.055 -2.0095  0.2703 -1.3084
  272SOL     OW  814   2.445   0.644   0.356 -0.2877 -0.9220 -0.4666
  272SOL    HW1  815   2.482   0.681   0.446  1.6734 -0.3858 -0.0692
  272SOL    HW2  816   2.353   0.689   0.325 -1.0678  3.4833 -1.4604
  273SOL     OW  817   0.401   2.945   1.932 -0.0056 -0.0139 -0.1376
  273SOL    HW1  818   0.371   2.845   1.940 -0.9599 -1.6790  0.0630
  273SOL    HW2  819   0.505   2.949   1.932  2.5946  0.2397  1.1300
  274SOL     OW  820   3.007   0.555   1.923  0.3061  0.3736  0.3062
  274SOL    HW1  821   3.078   0.618   1.955 -1.8694 -0.6441 -2.8415
  274SOL    HW2  822   3.057   0.486   1.867  0.2663 -0.1598 -1.2206
  275SOL     OW  823   1.366   1.570   0.640  0.6084 -0.2367  0.2654
  275SOL    HW1  824   1.450   1.516   0.625 -0.8408  0.7226  0.2064
  275SOL    HW2  825   1.292   1.556   0.567 -0.9218  2.1125 -0.3185
  276SOL     OW  826   0.872   1.057   2.111 -0.5479 -0.1018 -0.5034
  276SOL    HW1  827   0.828   0.969   2.073  2.8527 -1.1069  0.0313
  276SOL    HW2  828   0.860   1.065   2.213  0.3094  0.3039  0.8587
  277SOL     OW  829   1.595   2.578   1.904  0.0944  0.2029 -0.4873
  277SOL    HW1  830   1.504   2.532   1.881 -3.9881  2.0716  1.0694
  277SOL    HW2  831   1.670   2.512   1.930  3.3017 -1.0271 -0.5445
  278SOL     OW  832   1.941   2.929   1.988 -0.3836  0.2954 -0.4280
  278SOL    HW1  833   1.925   2.972   2.082 -0.1435 -0.3436 -1.3156
  278SOL    HW2  834   1.996   2.847   1.990  1.4772 -0.6943 -0.4984
  279SOL     OW  835   1.788   1.130   0.167  0.2035 -0.2724  0.0773
  279SOL    HW1  836   1.762   1.205   0.101 -0.9890  0.9090 -1.1001
  279SOL    HW2  837   1.720   1.117   0.241 -0.8265 -0.1953  0.0886
  280SOL     OW  838   0.592   1.470   0.056  0.3923  0.0313 -0.0547
  280SOL    HW1  839   0.600   1.436   0.155 -0.9480 -1.2619 -0.5681
  280SOL    HW2  840   0.673   1.441   0.004 -0.9816  2.3748  2.9626
  281SOL     OW  841   0.346   3.035   1.628 -0.2194 -0.4739 -0.1087
  281SOL    HW1  842   0.270   2.968   1.633  1.6785 -0.2385  0.6643
  281SOL    HW2  843   0.325   0.020   1.694 -3.3440  1.0228 -0.3994
  282SOL     OW  844   3.080   2.424   0.800 -0.4483  0.0251  0.3266
  282SOL    HW1  845   3.058   2.509   0.847  0.0852  0.4273 -0.9786
  282SOL    HW2  846   0.017   2.447   0.702  1.5328  1.7736 -1.6228
  283SOL     OW  847   1.298   2.043   2.422  0.0634 -0.6098  0.4358
  283SOL    HW1  848   1.396   2.067   2.416 -0.3846 -1.0620  0.1972
  283SOL    HW2  849   1.283   1.943   2.437  1.9097 -2.0363  3.4965
  284SOL     OW  850   1.873   3.076   0.753 -0.1725 -0.5324  0.3956
  284SOL    HW1  851   1.795   0.019   0.814 -2.3873 -1.2098  0.2598
  284SOL    HW2  852   1.860   2.980   0.720 -1.3148 -3.4024 -2.3320
  285SOL     OW  853   0.114   2.625   2.414 -0.0735 -0.6540 -0.0667
  285SOL    HW1  854   0.083   2.720   2.405  1.7945 -1.3390 -0.4658
  285SOL    HW2  855   0.050   2.565   2.462  2.9773  1.2625  1.5806
  286SOL     OW  856   2.774   2.569   1.233 -0.1292 -0.4458 -0.1617
  286SOL    HW1  857   2.797   2.596   1.328 -1.3757 -1.1304 -0.7424
  286SOL    HW2  858   2.862   2.569   1.183  1.1049  1.1068  2.2329
  287SOL     OW  859   0.435   1.620   0.807  0.3852 -0.5324  0.6618
  287SOL    HW1  860   0.345   1.643   0.857  1.2176 -2.6544 -0.2703
  287SOL    HW2  861   0.504   1.685   0.835 -0.4751  1.1822 -0.6926
  288SOL     OW  862   2.244   2.171   2.584  0.1392  0.4036 -0.2633
  288SOL    HW1  863   2.339   2.140   2.602 -0.3623 -0.9870  2.2600
  288SOL    HW2  864   2.232   2.258   2.629 -1.5792 -0.6051  0.3314
  289SOL     OW  865   2.977   1.877   3.089  0.5360 -0.1932  0.3856
  289SOL    HW1  866   2.907   1.829   3.028  1.2648 -0.4580 -1.4296
  289SOL    HW2  867   3.028   1.803   0.045 -1.4918  0.4783 -1.2935
  290SOL     OW  868   1.403   1.852   1.180 -0.0634  0.6976 -0.0417
  290SOL    HW1  869   1.393   1.754   1.158  0.9943 -0.0890  2.6516
  290SOL    HW2  870   1.332   1.903   1.133 -0.3531 -1.5604  2.0087
  291SOL     OW  871   1.505   1.050   3.023 -0.4003  0.1586 -0.1075
  291SOL    HW1  872   1.463   1.006   2.944  0.4578 -0.0713  2.4124
  291SOL    HW2  873   1.496   0.987   0.013  0.6362  0.3322 -2.2805
  292SOL     OW  874   1.183   1.494   0.452 -0.1892 -0.0749  0.0138
  292SOL    HW1  875   1.152   1.401   0.483 -0.3430 -0.7560  0.9195
  292SOL    HW2  876   1.197   1.500   0.350 -0.1986 -2.2695  0.2828
  293SOL     OW  877   1.139   2.562   0.972 -0.8314 -0.3603  0.4912
  293SOL    HW1  878   1.205   2.640   0.972  1.3075  0.5869  1.9087
  293SOL    HW2  879   1.061   2.586   0.909 -0.9269  3.1611  1.0472
  294SOL     OW  880   2.355   1.272   2.958 -0.3552  1.3114 -0.4178
  294SOL    HW1  881   2.400   1.192   2.908  0.0734 -1.5413 -3.5738
  294SOL    HW2  882   2.414   1.353   2.960 -1.3426 -3.4053 -0.4925
  295SOL     OW  883   1.694   1.857   2.823 -0.2278 -0.0378 -0.4215
  295SOL    HW1  884   1.747   1.944   2.848  2.2018  2.5130 -1.2245
  295SOL    HW2  885   1.597   1.874   2.814  0.1651 -1.3230 -0.3816
  296SOL     OW  886   1.645   0.538   1.759 -0.7417 -0.0613 -0.1953
  296SOL    HW1  887   1.738   0.578   1.740  1.4003 -1.4988  0.1198
  296SOL    HW2  888   1.637   0.444   1.727 -0.8628  4.9342  2.0742
  297SOL     OW  889   0.078   0.743   2.034 -0.0181 -0.4370 -0.1609
  297SOL    HW1  890   0.109   0.741   2.131  0.0944  2.7045  0.9298
  297SOL    HW2  891   0.001   0.808   2.018 -1.2523  1.1785 -1.0652
  298SOL     OW  892   1.107   2.455   1.835 -0.5745  0.7360  0.1659
  298SOL    HW1  893   1.076   2.377   1.772 -1.4576  0.6297  1.4797
  298SOL    HW2  894   1.117   2.420   1.932  0.0477 -2.9837  4.8595
  299SOL     OW  895   1.308   2.956   2.523  0.0033 -0.4929 -0.0773
  299SOL    HW1  896   1.342   2.897   2.447  0.1756  0.2372  2.4513
  299SOL    HW2  897   1.205   2.979   2.513 -2.4648  0.4654  0.5274
  300SOL     OW  898   0.032   0.972   2.840  0.4273  0.4463 -0.1321
  300SOL    HW1  899   3.038   0.993   2.895 -2.5135 -1.9146  0.9173
  300SOL    HW2  900   0.076   1.047   2.794  1.3942 -2.0408  1.6198
  301SOL     OW  901   1.832   0.978   1.957 -0.7591 -0.0859  0.8115
  301SOL    HW1  902   1.739   1.009   1.943  3.4901 -0.9514  2.0396
  301SOL    HW2  903   1.886   1.046   2.012 -0.4212  2.3841 -0.1008
  302SOL     OW  904   2.496   1.808   2.606  0.0411 -0.4181  0.1750
  302SOL    HW1  905   2.495   1.739   2.528  0.5495 -1.4398 -0.1703
  302SOL    HW2  906   2.462   1.900   2.575 -1.2486  1.1865  0.4583
  303SOL     OW  907   0.277   2.370   2.556  0.1791 -0.3654  0.3443
  303SOL    HW1  908   0.256   2.293   2.499 -0.8581 -0.8295  0.8508
  303SOL    HW2  909   0.358   2.360   2.618  2.1237 -1.5813  1.8861
  304SOL     OW  910   2.933   0.972   1.251  0.4114  0.4314  0.3128
  304SOL    HW1  911   2.943   1.035   1.172  1.4883 -2.0524 -0.3692
  304SOL    HW2  912   3.017   0.967   1.311  1.9927  0.4283  0.3884
  305SOL     OW  913   2.633   0.981   1.752  0.0709  0.6961  0.1211
  305SOL    HW1  914   2.654   0.978   1.652 -2.1728 -0.0136 -1.0896
  305SOL    HW2  915   2.636   1.072   1.793 -0.2027 -0.1605  0.8846
  306SOL     OW  916   2.327   1.262   1.602  0.2157  0.4910 -0.3431
  306SOL    HW1  917   2.233   1.297   1.582 -1.0792 -0.6786  0.2331
  306SOL    HW2  918   2.363   1.320   1.679 -1.8062 -2.0117 -2.4527
  307SOL     OW  919   2.523   2.834   0.858 -0.2565 -0.1485  0.7608
  307SOL    HW1  920   2.425   2.860   0.846  0.3295  1.1380  0.5280
  307SOL    HW2  921   2.543   2.799   0.951 -1.2614  0.2456 -1.3597
  308SOL     OW  922   0.140   1.958   1.924 -0.1139  0.7806 -0.0856
  308SOL    HW1  923   0.177   1.933   2.014 -1.4036  0.9209 -2.8593
  308SOL    HW2  924   0.194   1.914   1.848  3.1632 -1.6114  0.4712
  309SOL     OW  925   2.504   2.156   1.525 -0.0262 -0.4324  0.2647
  309SOL    HW1  926   2.524   2.255   1.562 -0.8963  4.8772 -2.0191
  309SOL    HW2  927   2.409   2.129   1.497  1.5342 -3.0508  3.5706
  310SOL     OW  928   2.128   1.410   2.952  0.4255  0.0775  0.0474
  310SOL    HW1  929   2.040   1.381   2.902 -1.0553 -1.5982  1.9548
  310SOL    HW2  930   2.201   1.339   2.953 -1.6366  0.8284  0.1461
  311SOL     OW  931   1.729   1.147   2.896 -0.4401  0.1089 -0.0071
  311SOL    HW1  932   1.649   1.100   2.939  1.0972 -2.8001 -0.9707
  311SOL    HW2  933   1.757   1.092   2.814  1.2736  0.4266  2.2078
  312SOL     OW  934   1.128   2.362   2.094  0.0217 -0.0674 -0.5608
  312SOL    HW1  935   1.159   2.276   2.142 -0.3197  1.7912 -0.5962
  312SOL    HW2  936   1.037   2.388   2.136  0.4341 -0.6748  0.9400
  313SOL     OW  937   0.049   0.381   0.802 -0.0299 -0.9055 -0.0303
  313SOL    HW1  938   3.076   0.331   0.742  3.5304  3.1470  1.5352
  313SOL    HW2  939   0.075   0.324   0.883  0.3744  0.5572 -0.5664
  314SOL     OW  940   0.507   1.964   1.084 -0.4791 -0.2800  0.1409
  314SOL    HW1  941   0.472   2.058   1.064 -1.3149  1.6956 -0.0457
  314SOL    HW2  942   0.460   1.923   1.163 -2.4924  1.4717 -1.9430
  315SOL     OW  943   0.454   2.094   2.238 -0.1619 -0.5020  0.5149
  315SOL    HW1  944   0.402   2.119   2.156 -1.0553 -2.1811 -1.2547
  315SOL    HW2  945   0.501   2.175   2.279 -2.5957  1.3715  0.0326
  316SOL     OW  946   0.201   2.272   0.859 -0.4747 -0.5327 -0.6483
  316SOL    HW1  947   0.195   2.176   0.830  1.0963  0.1413  1.1311
  316SOL    HW2  948   0.118   2.325   0.841  0.9275 -1.0167 -0.7632
  317SOL     OW  949   1.917   0.453   0.813  0.3721 -0.5997 -0.0125
  317SOL    HW1  950   1.944   0.518   0.888 -0.2533  0.0742  1.0052
  317SOL    HW2  951   1.816   0.459   0.797 -1.4831 -0.3483  0.9501
  318SOL     OW  952   2.257   2.311   0.098 -0.4841 -0.3024  0.4110
  318SOL    HW1  953   2.159   2.291   0.075 -1.0374 -0.5884  1.7174
  318SOL    HW2  954   2.309   2.296   0.008  2.5327 -0.2529 -1.6641
  319SOL     OW  955   1.471   1.527   0.032 -0.1928 -0.3121 -0.0758
  319SOL    HW1  956   1.454   1.446   3.062  3.0913 -3.4206 -0.2116
  319SOL    HW2  957   1.468   1.617   3.071 -2.2196  4.1546 -0.7279
  320SOL     OW  958   0.445   2.794   2.672 -0.1511 -0.3841  0.3184
  320SOL    HW1  959   0.394   2.712   2.697 -1.7089 -0.4340  1.0857
  320SOL    HW2  960   0.536   2.775   2.619  5.6634 -0.9808 -1.9445
  321SOL     OW  961   0.925   2.737   2.613  0.0122  0.2439 -0.3499
  321SOL    HW1  962   0.995   2.761   2.685  2.0949 -1.1474  2.0665
  321SOL    HW2  963   0.972   2.728   2.524  1.5719 -1.4564  1.9320
  322SOL     OW  964   2.358   0.580   2.150  0.4105 -0.3409  0.3238
  322SOL    HW1  965   2.309   0.492   2.165 -0.6514  0.4358  2.6662
  322SOL    HW2  966   2.418   0.597   2.233  3.1164 -2.1618  2.4611
  323SOL     OW  967   3.058   1.119   0.602  0.0573  0.1658 -0.2732
  323SOL    HW1  968   3.089   1.026   0.639 -0.8070 -0.2810 -1.6419
  323SOL    HW2  969   3.019   1.103   0.507 -0.2580  1.6514 -1.0874
  324SOL     OW  970   0.337   0.813   1.809 -0.2396  0.0730  0.0851
  324SOL    HW1  971   0.282   0.736   1.773  2.3370 -0.6771  2.0923
  324SOL    HW2  972   0.434   0.790   1.797  0.8496  0.1304  0.2379
  325SOL     OW  973   0.376   0.247   2.126 -0.2856 -0.6081  1.2078
  325SOL    HW1  974   0.328   0.334   2.094 -0.9276  0.9710  2.9494
  325SOL    HW2  975   0.372   0.236   2.227  1.5959  0.3115 -0.8248
  326SOL     OW  976   2.226   2.559   0.200 -0.0437 -0.1145  0.1499
  326SOL    HW1  977   2.218   2.622   0.122  2.1790 -0.4504 -2.9205
  326SOL    HW2  978   2.255   2.470   0.163  1.8381  0.4761 -1.3535
  327SOL     OW  979   2.371   1.340   0.490 -0.2528 -0.0505  0.4382
  327SOL    HW1  980   2.384   1.243   0.522  1.1513 -1.7398  0.4398
  327SOL    HW2  981   2.365   1.348   0.386 -0.1921  1.0289 -2.8570
  328SOL     OW  982   3.000   1.804   2.325 -0.1059  0.2680  0.0008
  328SOL    HW1  983   2.981   1.705   2.314  1.5701  1.9609 -1.5710
  328SOL    HW2  984   3.047   1.857   2.251  1.8600  1.3231 -1.5867
  329SOL     OW  985   0.517   2.223   1.595  0.2696 -0.3755 -0.5123
  329SOL    HW1  986   0.418   2.218   1.590  0.6358 -0.7330 -3.6793
  329SOL    HW2  987   0.555   2.262   1.516 -3.7884 -3.0566  1.7444
  330SOL     OW  988   2.322   1.478   2.654  0.4748 -0.2740  0.4067
  330SOL    HW1  989   2.368   1.535   2.728  1.7692  2.0151  1.7756
  330SOL    HW2  990   2.238   1.532   2.617 -0.1483 -2.2470 -2.4603
  331SOL     OW  991   2.815   2.530   0.764  0.1410 -0.8367  0.2413
  331SOL    HW1  992   2.779   2.471   0.836  2.0689 -1.4376 -1.5216
  331SOL    HW2  993   2.734   2.574   0.717  0.2544 -0.1045 -1.1369
  332SOL     OW  994   0.448   2.954   0.807 -0.4514  0.3053 -0.2778
  332SOL    HW1  995   0.390   2.930   0.882  1.0386  0.0256  0.4655
  332SOL    HW2  996   0.442   2.876   0.744  0.4948 -0.6177  1.2856
  333SOL     OW  997   2.159   2.501   2.389  0.7071  0.7149 -0.2471
  333SOL    HW1  998   2.211   2.444   2.330  0.5333 -0.6441  1.1887
  333SOL    HW2  999   2.151   2.472   2.485 -0.9921  1.9601  1.0152
  334SOL     OW 1000   0.711   1.151   0.394  0.4884  0.0365 -0.3914
  334SOL    HW1 1001   0.729   1.124   0.492 -0.5840 -0.1503  1.2975
  334SOL    HW2 1002   0.686   1.250   0.378  0.3467 -1.4594 -0.5275
  335SOL     OW 1003   2.788   1.745   2.009  0.2435  0.1821 -0.6732
  335SOL    HW1 1004   2.786   1.745   1.911 -2.0558  1.5149  2.6827
  335SOL    HW2 1005   2.693   1.753   2.043 -3.2064 -0.1094 -0.0737
  336SOL     OW 1006   2.737   3.003   2.291 -0.0001  0.0281 -0.0868
  336SOL    HW1 1007   2.638   2.972   2.305 -3.5458  0.2966  0.8241
  336SOL    HW2 1008   2.775   2.982   2.198  1.3454  1.4272  1.2528
  337SOL     OW 1009   0.923   1.203   0.995  0.0341  0.1106  0.5722
  337SOL    HW1 1010   0.992   1.264   0.949  1.1317 -2.7505 -1.1638
  337SOL    HW2 1011   0.825   1.223   0.973 -1.4804 -3.0609  1.3664
  338SOL     OW 1012   1.092   1.854   1.156  0.2987 -0.6678  0.0070
  338SOL    HW1 1013   1.129   1.829   1.064 -2.7726 -2.6608 -1.3441
  338SOL    HW2 1014   0.989   1.868   1.155 -2.2553 -0.0066 -1.0762
  339SOL     OW 1015   0.229   1.475   1.599  0.2205 -0.0414 -0.4517
  339SOL    HW1 1016   0.192   1.401   1.536 -1.9088  1.7105 -1.3639
  339SOL    HW2 1017   0.153   1.537   1.626  1.9759 -1.4159  0.2729
  340SOL     OW 1018   1.594   2.826   1.820 -0.3784  0.5205 -0.2699
  340SOL    HW1 1019   1.616   2.731   1.855 -1.4384 -0.8951 -0.9731
  340SOL    HW2 1020   1.608   2.824   1.723 -0.4355 -2.4161  2.8058
  341SOL     OW 1021   1.810   1.549   1.090 -0.2712  0.2447  0.3113
  341SOL    HW1 1022   1.774   1.457   1.056  0.7900 -1.7578 -2.4727
  341SOL    HW2 1023   1.910   1.565   1.091 -0.4494  2.0188 -1.4829
  342SOL     OW 1024   3.073   1.396   0.957 -0.2027  0.6197  0.6748
  342SOL    HW1 1025   3.040   1.321   0.896 -0.9173 -0.3026  0.8223
  342SOL    HW2 1026   3.069   1.487   0.911  0.0176 -0.4042  2.0831
  343SOL     OW 1027   2.659   0.598   1.565 -0.1645 -0.2543  0.1177
  343SOL    HW1 1028   2.610   0.670   1.624 -0.4223  3.4593  1.0511
  343SOL    HW2 1029   2.629   0.616   1.472  0.7564 -1.3712  0.1166
  344SOL     OW 1030   1.633   0.073   0.904 -0.5696 -0.4432 -0.4538
  344SOL    HW1 1031   1.593   0.012   0.834 -0.3351  1.5945  0.9985
  344SOL    HW2 1032   1.575   0.158   0.917 -0.4481  1.6471  1.1013
  345SOL     OW 1033   0.647   3.025   2.420  0.5076  0.0200  0.1048
  345SOL    HW1 1034   0.680   3.061   2.508 -0.8272 -0.9379  0.4447
  345SOL    HW2 1035   0.673   3.089   2.343  2.4299  1.3492 -1.2157
  346SOL     OW 1036   2.504   1.869   0.727  0.0092  0.2418  0.0453
  346SOL    HW1 1037   2.508   1.972   0.752 -0.4877  1.1131  1.9343
  346SOL    HW2 1038   2.456   1.827   0.806  1.1116  0.4965 -0.7806
  347SOL     OW 1039   2.254   0.197   1.739 -0.9430  0.6004  0.1575
  347SOL    HW1 1040   2.259   0.104   1.697  0.2665  0.2115  0.8235
  347SOL    HW2 1041   2.217   0.202   1.832  1.4482 -0.0983 -4.1186
  348SOL     OW 1042   1.059   1.058   1.620  0.2683 -0.1905  0.0135
  348SOL    HW1 1043   0.957   1.049   1.638 -0.1999  3.8108  1.0039
  348SOL    HW2 1044   1.113   0.972   1.631 -0.8880  1.2817 -0.2674
  349SOL     OW 1045   2.493   0.770   1.703  0.0467  0.1961 -0.3396
  349SOL    HW1 1046   2.524   0.868   1.715 -1.7193 -1.6339  2.1474
  349SOL    HW2 1047   2.491   0.711   1.783 -0.7666 -1.3264 -3.4024
  350SOL     OW 1048   2.204   2.240   0.396  0.8569 -0.3098 -0.8247
  350SOL    HW1 1049   2.179   2.342   0.411  0.8147  3.8910  0.8788
  350SOL    HW2 1050   2.222   2.212   0.301  1.1868  2.7873 -0.9191
  351SOL     OW 1051   0.707   0.565   2.094  0.5617 -0.3587 -0.0752
  351SOL    HW1 1052   0.772   0.487   2.115  0.8070 -1.2818 -1.3823
  351SOL    HW2 1053   0.642   0.531   2.024 -0.3910  1.8520  2.3136
  352SOL     OW 1054   2.153   2.657   1.710  0.1452  0.2718 -0.0064
  352SOL    HW1 1055   2.104   2.669   1.803  1.1780 -0.1208  2.1218
  352SOL    HW2 1056   2.098   2.594   1.652 -0.4123  0.3846 -0.2612
  353SOL     OW 1057   0.652   0.733   2.594 -0.0441  0.3026  0.0139
  353SOL    HW1 1058   0.740   0.783   2.619  1.4341 -0.6571  0.1640
  353SOL    HW2 1059   0.646   0.733   2.491  0.4157  1.2942  0.8012
  354SOL     OW 1060   0.521   2.329   2.707 -0.2433  0.5572  0.1722
  354SOL    HW1 1061   0.593   2.264   2.727 -2.3379  1.2340  1.5400
  354SOL    HW2 1062   0.520   2.391   2.788 -0.4809  2.9580 -1.5457
  355SOL     OW 1063   1.570   2.672   1.124 -0.4377 -0.2280 -0.0984
  355SOL    HW1 1064   1.639   2.737   1.089 -0.5835 -1.8107 -0.4422
  355SOL    HW2 1065   1.562   2.677   1.226 -0.4085 -1.6098 -0.8360
  356SOL     OW 1066   2.626   0.958   0.236 -0.0442  0.9263 -0.1310
  356SOL    HW1 1067   2.528   0.973   0.265  1.4818 -1.1045 -3.2896
  356SOL    HW2 1068   2.691   0.963   0.312 -0.1783  0.4905 -0.4297
  357SOL     OW 1069   0.040   0.362   1.822  0.1097  0.4093  0.0421
  357SOL    HW1 1070   0.122   0.302   1.800  1.5909 -3.8220  0.1206
  357SOL    HW2 1071   3.043   0.309   1.806  0.9389  0.7240  1.5708
  358SOL     OW 1072   0.034   1.563   0.753 -0.2577 -0.1808  0.4280
  358SOL    HW1 1073   0.051   1.474   0.707 -0.5613 -0.5878  1.9366
  358SOL    HW2 1074   3.077   1.627   0.684 -0.3983  1.8410 -2.0553
  359SOL     OW 1075   2.763   0.337   2.961 -0.4029  0.0274  0.3555
  359SOL    HW1 1076   2.817   0.257   2.987  0.9773 -0.3095  1.9523
  359SOL    HW2 1077   2.773   0.361   2.860  0.3900 -1.7135 -1.2839
  360SOL     OW 1078   1.125   1.009   1.021 -0.1948 -0.1449  0.1513
  360SOL    HW1 1079   1.129   0.960   1.111  0.0999  0.4351 -2.1311
  360SOL    HW2 1080   1.047   1.069   1.029  1.9649 -0.1438 -0.2395
  361SOL     OW 1081   2.591   2.764   1.096  0.1047  0.2419  0.5622
  361SOL    HW1 1082   2.655   2.714   1.158 -1.4504 -0.2372 -1.6950
  361SOL    HW2 1083   2.508   2.709   1.077  1.2912  0.6973 -0.3739
  362SOL     OW 1084   1.217   0.317   1.005 -0.5999 -0.7002 -0.1140
  362SOL    HW1 1085   1.192   0.398   1.064 -2.9001  1.6949  0.9516
  362SOL    HW2 1086   1.199   0.329   0.906  2.0829  0.0071  0.0311
  363SOL     OW 1087   1.984   1.534   0.831 -0.1652 -0.1230  0.1878
  363SOL    HW1 1088   2.081   1.497   0.816 -0.5187  0.1078  0.2006
  363SOL    HW2 1089   1.925   1.452   0.832  1.1598  1.4865 -0.9157
  364SOL     OW 1090   0.756   0.422   1.351 -0.5754  0.0444 -0.0208
  364SOL    HW1 1091   0.718   0.371   1.272  0.4143  0.2131 -0.0422
  364SOL    HW2 1092   0.729   0.520   1.349 -0.1178  0.5924 -1.3418
  365SOL     OW 1093   0.117   0.229   1.030 -0.1905 -0.0915 -0.1103
  365SOL    HW1 1094   0.201   0.181   1.045  1.0482  2.0723  0.0427
  365SOL    HW2 1095   0.033   0.175   1.061  1.2521  0.4780 -2.0334
  366SOL     OW 1096   3.014   0.982   0.033 -0.1523 -0.4888  0.0002
  366SOL    HW1 1097   2.950   0.983   3.045  0.3386  2.1772 -0.6749
  366SOL    HW2 1098   2.998   1.071   0.087  1.3387  3.7388 -1.9741
  367SOL     OW 1099   2.180   2.113   2.332 -0.0020  0.4960 -0.4979
  367SOL    HW1 1100   2.194   2.132   2.434 -1.8480  0.7646 -0.7578
  367SOL    HW2 1101   2.083   2.094   2.313  1.7146 -0.7004  0.6731
  368SOL     OW 1102   2.353   1.697   0.895 -0.3254 -0.1041  0.4501
  368SOL    HW1 1103   2.288   1.766   0.866  1.0372 -2.8644 -3.1431
  368SOL    HW2 1104   2.319   1.607   0.863 -0.0974  3.1800 -1.6567
  369SOL     OW 1105   1.949   0.435   2.839  0.7941 -0.4201  0.8064
  369SOL    HW1 1106   2.018   0.491   2.898  1.3733 -1.6819  2.5414
  369SOL    HW2 1107   1.861   0.489   2.840  1.8002 -0.6987  0.5031
  370SOL     OW 1108   0.516   0.468   1.020  0.2405  0.9064  0.4629
  370SOL    HW1 1109   0.551   0.403   1.095 -2.4852 -0.4810 -0.8165
  370SOL    HW2 1110   0.586   0.478   0.944  1.6030  0.4806 -2.0518
  371SOL     OW 1111   2.978   1.257   0.123  0.3940  0.4624  0.2143
  371SOL    HW1 1112   3.036   1.303   0.191 -3.6407  0.0735 -1.8352
  371SOL    HW2 1113   2.923   1.329   0.072  0.4569  2.3749 -2.0189
  372SOL     OW 1114   0.596   0.678   2.330  0.4189 -0.0059  0.3807
  372SOL    HW1 1115   0.613   0.626   2.244 -2.8030 -0.8787  0.8279
  372SOL    HW2 1116   0.542   0.762   2.302  0.8866 -1.9368 -0.5330
  373SOL     OW 1117   0.669   2.902   2.938  0.1514  0.4629 -0.1836
  373SOL    HW1 1118   0.632   2.855   3.022  2.8798 -0.4623 -3.2551
  373SOL    HW2 1119   0.767   2.928   2.953  2.2708  0.4769 -1.9675
  374SOL     OW 1120   0.815   1.431   2.977  0.8971 -0.0539 -0.0815
  374SOL    HW1 1121   0.899   1.394   3.024 -0.5043  1.4844  0.4134
  374SOL    HW2 1122   0.786   1.370   2.902 -1.1013  0.3285  2.0971
  375SOL     OW 1123   1.022   0.451   1.974 -0.5198  0.1252  0.1656
  375SOL    HW1 1124   1.019   0.554   1.973 -0.2568  0.5855  1.8417
  375SOL    HW2 1125   1.039   0.421   2.075  0.3069  3.7146  3.6978
  376SOL     OW 1126   3.057   2.642   1.913 -0.1872 -0.3828  0.8951
  376SOL    HW1 1127   3.078   2.711   1.983 -1.9568  0.5768 -1.4490
  376SOL    HW2 1128   2.983   2.669   1.849  1.5218 -1.5385  0.5105
  377SOL     OW 1129   2.509   2.011   2.908  0.1478 -0.5027  0.4864
  377SOL    HW1 1130   2.585   2.044   2.853 -2.0367 -1.4890 -1.7340
  377SOL    HW2 1131   2.541   1.931   2.959 -1.0404  1.6642 -0.8361
  378SOL     OW 1132   2.055   0.055   0.179 -0.1201  0.5555 -0.2984
  378SOL    HW1 1133   2.029   0.003   0.265  0.2872  0.6853 -1.5127
  378SOL    HW2 1134   1.973   0.048   0.114 -2.3902 -1.7219  0.8488
  379SOL     OW 1135   1.922   0.750   0.702 -0.1649 -0.1230 -0.5099
  379SOL    HW1 1136   1.839   0.777   0.754 -1.6207  0.0558 -0.4408
  379SOL    HW2 1137   1.975   0.680   0.752 -0.4658 -1.0624 -2.3662
  380SOL     OW 1138   2.646   1.962   1.686  0.5424  0.1976 -0.2048
  380SOL    HW1 1139   2.600   2.037   1.637  1.7890  2.1479 -2.3063
  380SOL    HW2 1140   2.699   2.001   1.762  0.2412 -5.2246 -0.0625
  381SOL     OW 1141   2.310   1.406   2.283  0.2034 -0.4622  0.4684
  381SOL    HW1 1142   2.380   1.426   2.211  2.8091  0.8336 -0.0802
  381SOL    HW2 1143   2.319   1.314   2.325  0.8374  1.0564  0.3807
  382SOL     OW 1144   3.011   2.663   2.669  0.6600 -0.3025  0.4980
  382SOL    HW1 1145   3.088   2.722   2.638 -0.8071  0.9172 -0.1894
  382SOL    HW2 1146   3.033   2.567   2.672  1.0670  0.1445 -0.2849
  383SOL     OW 1147   1.030   1.205   2.881 -0.1824  0.0435  0.2768
  383SOL    HW1 1148   1.018   1.231   2.975 -1.3248 -1.4630 -2.2274
  383SOL    HW2 1149   1.095   1.272   2.840 -0.3803 -0.7005 -0.1242
  384SOL     OW 1150   1.717   1.995   2.219  0.3020 -0.5064 -0.2714
  384SOL    HW1 1151   1.648   1.923   2.197 -1.4483  2.8557  1.3592
  384SOL    HW2 1152   1.766   2.032   2.137  0.3786 -2.5043  0.6249
  385SOL     OW 1153   1.868   2.781   0.694 -0.0264 -0.6505 -0.0800
  385SOL    HW1 1154   1.780   2.786   0.746  1.0746  0.2675  0.2867
  385SOL    HW2 1155   1.853   2.734   0.603  1.5301 -2.3653  1.4389
  386SOL     OW 1156   1.953   1.297   0.531 -0.2442  0.0249 -0.4680
  386SOL    HW1 1157   1.890   1.375   0.515  0.3186  0.4536  1.0374
  386SOL    HW2 1158   1.949   1.264   0.628 -0.9943 -0.6658  3.1848
  387SOL     OW 1159   2.945   2.179   1.653  0.2591  0.0432 -0.6952
  387SOL    HW1 1160   2.878   2.194   1.728 -1.5826  1.0565 -0.6551
  387SOL    HW2 1161   2.948   2.261   1.597 -0.4437 -1.4002 -1.3295
  388SOL     OW 1162   0.327   1.117   1.623 -0.4262  0.1841  0.5125
  388SOL    HW1 1163   0.272   1.177   1.559 -1.0512  0.1985 -1.6852
  388SOL    HW2 1164   0.264   1.095   1.705  3.0399  0.1096  2.7337
  389SOL     OW 1165   2.128   0.586   2.975 -0.3804  0.4357  0.6945
  389SOL    HW1 1166   2.200   0.580   3.046  0.5129 -1.9605  0.1190
  389SOL    HW2 1167   2.090   0.682   2.979 -1.4496  0.3091  1.0625
  390SOL     OW 1168   0.760   1.699   2.901 -0.5447 -0.7364 -1.0403
  390SOL    HW1 1169   0.767   1.597   2.918 -1.7838  0.2039  2.6513
  390SOL    HW2 1170   0.666   1.727   2.913  2.0378 -0.8546 -0.1264
  391SOL     OW 1171   0.982   2.003   0.098  0.0344 -0.0827  0.2477
  391SOL    HW1 1172   1.057   2.049   0.142 -1.6866 -0.2858 -3.4953
  391SOL    HW2 1173   0.892   2.020   0.148 -0.3176  0.8016  0.0575
  392SOL     OW 1174   3.030   2.423   2.185 -0.0483 -0.5165 -0.1467
  392SOL    HW1 1175   2.952   2.484   2.160  0.9623  1.4989 -1.8646
  392SOL    HW2 1176   0.002   2.472   2.245 -0.6435 -0.6861 -3.0866
  393SOL     OW 1177   1.552   2.175   0.377 -0.3185 -0.3641  0.1940
  393SOL    HW1 1178   1.655   2.170   0.368  0.9317  2.1186 -0.1055
  393SOL    HW2 1179   1.506   2.085   0.387 -0.0557  1.3753  1.4244
  394SOL     OW 1180   0.574   0.351   2.461  0.2269  0.0294 -0.3113
  394SOL    HW1 1181   0.473   0.321   2.468 -1.7901 -0.1756 -1.1404
  394SOL    HW2 1182   0.570   0.451   2.455  0.0982  0.1090 -1.5979
  395SOL     OW 1183   0.604   1.406   1.344  0.0009 -0.2690 -0.0990
  395SOL    HW1 1184   0.660   1.464   1.403  0.3589 -2.2422  1.2861
  395SOL    HW2 1185   0.511   1.436   1.341 -0.7729 -0.4622 -0.2788
  396SOL     OW 1186   1.941   1.282   2.810 -0.1597 -0.2736  0.4372
  396SOL    HW1 1187   1.993   1.227   2.742  0.2079 -1.6133 -1.2022
  396SOL    HW2 1188   1.866   1.220   2.848 -2.4229 -2.0602  1.2756
  397SOL     OW 1189   0.409   0.505   0.162 -0.0141 -0.7918  0.3093
  397SOL    HW1 1190   0.504   0.530   0.136  0.9980  3.8812  0.1802
  397SOL    HW2 1191   0.358   0.593   0.162 -0.6324 -1.4741 -2.3313
  398SOL     OW 1192   0.923   2.560   3.038  0.3714  0.3141 -0.1841
  398SOL    HW1 1193   0.884   2.617   2.960 -0.1996 -2.2952 -2.7669
  398SOL    HW2 1194   1.014   2.523   3.013  0.4067 -0.5356 -0.1349
  399SOL     OW 1195   1.970   2.220   2.170  0.0940  0.0544 -0.3272
  399SOL    HW1 1196   1.930   2.164   2.092 -0.8570  0.5556 -0.7882
  399SOL    HW2 1197   2.047   2.268   2.128 -3.8896  2.3157  0.0678
  400SOL     OW 1198   2.428   1.348   1.366 -0.5019  0.4330  0.6357
  400SOL    HW1 1199   2.381   1.314   1.451  2.7746  1.0298 -1.8550
  400SOL    HW2 1200   2.509   1.286   1.347  1.4406 -0.4274 -1.4914
  401SOL     OW 1201   1.377   0.997   0.893  0.4423 -0.3869  0.3010
  401SOL    HW1 1202   1.372   0.899   0.861  2.0497 -3.9544  2.1183
  401SOL    HW2 1203   1.286   1.026   0.931 -3.7592  1.1789  0.4847
  402SOL     OW 1204   0.195   3.051   2.428  0.6005 -0.4109  0.2343
  402SOL    HW1 1205   0.222   0.052   2.465  1.3885 -1.8061 -0.0919
  402SOL    HW2 1206   0.274   3.015   2.376  0.0188  2.1443  0.9791
  403SOL     OW 1207   2.743   1.719   1.738 -0.0938  0.1368  0.0157
  403SOL    HW1 1208   2.724   1.637   1.678 -1.2394  1.3172  0.4194
  403SOL    HW2 1209   2.698   1.806   1.702  0.5491  2.6226  0.5616
  404SOL     OW 1210   2.337   1.667   1.652  0.2333 -0.3688 -0.5933
  404SOL    HW1 1211   2.249   1.711   1.625 -3.3385 -4.1025  0.2071
  404SOL    HW2 1212   2.394   1.650   1.574 -0.8411 -1.0616  1.8685
  405SOL     OW 1213   2.293   0.245   2.551  0.4294 -0.0042 -0.2057
  405SOL    HW1 1214   2.280   0.344   2.539 -2.5658 -0.2043  0.1866
  405SOL    HW2 1215   2.388   0.216   2.564 -0.4016  0.4506 -2.8456
  406SOL     OW 1216   1.019   1.407   2.604 -0.0539 -0.3892 -0.7040
  406SOL    HW1 1217   0.927   1.399   2.647 -1.4174  0.0199 -1.2787
  406SOL    HW2 1218   1.092   1.422   2.680  0.7427 -0.8571  2.9303
  407SOL     OW 1219   2.157   2.443   0.579  0.3767 -0.3207  0.1734
  407SOL    HW1 1220   2.118   2.462   0.671 -1.3772  2.1906  1.8458
  407SOL    HW2 1221   2.085   2.412   0.510 -0.3910  0.6225 -3.5940
  408SOL     OW 1222   0.293   2.861   0.999 -0.5967  0.0536  0.4556
  408SOL    HW1 1223   0.272   2.822   1.091  0.6404 -0.2027 -2.6727
  408SOL    HW2 1224   0.208   2.894   0.952 -1.3458 -0.1352 -2.5664
  409SOL     OW 1225   2.240   1.445   0.762 -0.0329  0.5623 -0.0016
  409SOL    HW1 1226   2.324   1.421   0.811 -2.1374 -0.0822  2.2435
  409SOL    HW2 1227   2.242   1.445   0.662  0.1934  2.2608 -0.4276
  410SOL     OW 1228   2.086   2.438   2.955 -0.0011  0.5658 -0.1004
  410SOL    HW1 1229   1.996   2.487   2.970  1.4715 -0.3173  0.8431
  410SOL    HW2 1230   2.167   2.498   2.967 -2.7150 -3.3931  1.4257
  411SOL     OW 1231   3.043   2.862   0.647  0.1380  0.2335  0.4088
  411SOL    HW1 1232   3.065   2.941   0.709  0.0078 -2.0525 -0.3273
  411SOL    HW2 1233   2.970   2.880   0.581 -0.9195 -1.4519 -0.1062
  412SOL     OW 1234   1.361   2.605   0.449 -0.1238 -0.2893 -0.0798
  412SOL    HW1 1235   1.341   2.691   0.398 -2.5518 -1.0307 -0.3044
  412SOL    HW2 1236   1.410   2.623   0.539  0.3245  0.5300 -1.1734
  413SOL     OW 1237   1.900   0.236   2.174 -0.4519 -0.3020 -0.1354
  413SOL    HW1 1238   1.831   0.231   2.099 -0.8031 -0.1302  1.1067
  413SOL    HW2 1239   1.921   0.331   2.195 -2.6090  0.4504  1.6112
  414SOL     OW 1240   0.402   0.526   0.555 -0.1882 -0.0709  0.4281
  414SOL    HW1 1241   0.360   0.452   0.500 -0.4688 -0.1113  1.3705
  414SOL    HW2 1242   0.360   0.516   0.646 -2.2901 -3.0329 -1.5747
  415SOL     OW 1243   0.202   1.121   1.210  0.0455 -0.2569  0.0070
  415SOL    HW1 1244   0.125   1.098   1.143  3.5294 -0.4633 -0.1829
  415SOL    HW2 1245   0.275   1.054   1.199 -2.6731  1.0052 -1.6412
  416SOL     OW 1246   0.249   0.020   0.097  0.1137  0.2139 -0.3496
  416SOL    HW1 1247   0.287   0.116   0.097 -1.8377 -1.2073  0.2350
  416SOL    HW2 1248   0.293   3.051   0.169  0.4508  0.4326  0.9623
  417SOL     OW 1249   2.121   0.376   0.664 -0.7178  0.3160 -1.0476
  417SOL    HW1 1250   2.188   0.369   0.741  1.7062  0.4946 -0.7054
  417SOL    HW2 1251   2.035   0.422   0.698 -3.7989  0.5988 -0.8774
  418SOL     OW 1252   0.684   0.335   2.770  0.5769  0.3365 -0.0208
  418SOL    HW1 1253   0.758   0.398   2.794  0.1666  1.7621  0.3402
  418SOL    HW2 1254   0.640   0.370   2.684  0.8985  1.9350 -1.1038
  419SOL     OW 1255   0.386   1.049   0.568 -0.6219 -0.2100 -0.2323
  419SOL    HW1 1256   0.383   0.960   0.519  2.9471  1.5416  0.9584
  419SOL    HW2 1257   0.390   1.046   0.669 -1.2589  0.5116 -1.5151
  420SOL     OW 1258   2.202   1.820   1.218  0.0856  0.1385 -0.3701
  420SOL    HW1 1259   2.195   1.916   1.180 -1.5665  1.4395 -0.3375
  420SOL    HW2 1260   2.298   1.790   1.220  2.9948  0.9137 -1.6363
  421SOL     OW 1261   1.418   1.970   2.815 -0.0460 -0.1796  0.0603
  421SOL    HW1 1262   1.456   2.036   2.747 -0.3712 -1.1069 -0.2741
  421SOL    HW2 1263   1.351   1.904   2.777  0.8123 -1.1879 -0.8695
  422SOL     OW 1264   2.800   0.570   0.010 -0.8431  0.6988  0.2901
  422SOL    HW1 1265   2.781   0.483   3.051 -0.8168  0.6498  0.2170
  422SOL    HW2 1266   2.780   0.568   0.113 -2.1704 -0.2370 -1.8976
  423SOL     OW 1267   1.725   1.897   0.591 -0.0445 -0.5440 -0.3724
  423SOL    HW1 1268   1.783   1.820   0.631  0.5275 -0.2589  2.4101
  423SOL    HW2 1269   1.660   1.867   0.517 -3.7524  0.2332 -1.1013
  424SOL     OW 1270   0.491   1.450   1.702 -0.0354 -0.1572 -0.3826
  424SOL    HW1 1271   0.550   1.528   1.666  0.3513  0.6855 -2.8797
  424SOL    HW2 1272   0.399   1.451   1.651  1.6873  1.8623  0.0495
  425SOL     OW 1273   2.412   2.620   1.783  0.4028 -0.5064 -0.0284
  425SOL    HW1 1274   2.320   2.652   1.758  0.6594  1.9909  0.8439
  425SOL    HW2 1275   2.412   2.526   1.820  0.2042 -1.7634 -1.9178
  426SOL     OW 1276   1.825   2.623   0.467 -0.3697  0.2297 -0.6050
  426SOL    HW1 1277   1.859   2.528   0.464  1.7469  2.4303 -0.7017
  426SOL    HW2 1278   1.759   2.649   0.397 -0.5305 -0.2822  1.0551
  427SOL     OW 1279   0.191   0.549   2.639 -0.6082 -0.6220  0.4927
  427SOL    HW1 1280   0.290   0.572   2.623  0.5174 -0.7849 -1.5075
  427SOL    HW2 1281   0.174   0.449   2.626  0.6515  0.7942  3.4861
  428SOL     OW 1282   2.135   0.939   2.843  0.5252 -0.3047 -0.5709
  428SOL    HW1 1283   2.096   1.021   2.794 -0.0634  0.8115 -0.7232
  428SOL    HW2 1284   2.078   0.921   2.926 -0.8608 -0.7110  2.1090
  429SOL     OW 1285   3.030   0.186   0.624  0.2911  0.5666  0.0661
  429SOL    HW1 1286   3.019   0.172   0.523  1.8901 -0.9841  1.0149
  429SOL    HW2 1287   2.936   0.166   0.663 -1.9265 -1.6020 -3.7824
  430SOL     OW 1288   1.087   2.810   2.047  0.5220 -0.2112  0.7309
  430SOL    HW1 1289   1.010   2.750   2.016  1.4142  0.9209  2.5238
  430SOL    HW2 1290   1.175   2.762   2.019 -2.2715  0.4906 -0.6575
  431SOL     OW 1291   3.035   2.136   1.330  0.3357 -0.1496  0.2903
  431SOL    HW1 1292   2.946   2.181   1.318  2.3251 -0.8799  1.4106
  431SOL    HW2 1293   3.078   2.145   1.420 -2.7364  0.3597 -0.1497
  432SOL     OW 1294   2.275   2.939   1.917  0.0496 -0.0289  0.3087
  432SOL    HW1 1295   2.288   2.958   1.819  0.6254 -1.4981  1.0596
  432SOL    HW2 1296   2.263   3.021   1.971  1.1257 -0.9373 -1.2037
  433SOL     OW 1297   1.184   2.062   0.279  0.5099 -0.1283 -0.3100
  433SOL    HW1 1298   1.137   2.048   0.368  1.6136  2.0223  0.7065
  433SOL    HW2 1299   1.221   1.971   0.243  1.7844 -1.0232  1.6846
  434SOL     OW 1300   3.085   2.412   2.601 -0.3860 -0.0580  0.0890
  434SOL    HW1 1301   3.023   2.336   2.578 -1.2661  0.7572  0.6095
  434SOL    HW2 1302   0.092   2.385   2.588  3.2512  1.1465 -1.0510
  435SOL     OW 1303   0.347   0.770   0.438 -0.7752  0.0206  0.3781
  435SOL    HW1 1304   0.349   0.758   0.336 -1.8867  0.2322 -2.0879
  435SOL    HW2 1305   0.392   0.692   0.480  0.4396 -1.8940  1.0144
  436SOL     OW 1306   0.473   2.454   2.101 -0.5496  0.6544  0.4438
  436SOL    HW1 1307   0.424   2.378   2.056  1.7674  0.7045 -2.5307
  436SOL    HW2 1308   0.571   2.459   2.076  1.5628  2.9235  1.3814
  437SOL     OW 1309   1.238   1.999   1.482  0.1675 -0.1406 -0.2183
  437SOL    HW1 1310   1.200   2.032   1.394  1.7696  0.9376 -1.2355
  437SOL    HW2 1311   1.335   2.018   1.487 -0.3103 -2.6632  0.0741
  438SOL     OW 1312   0.110   2.289   0.245 -0.2585  0.2151  0.0015
  438SOL    HW1 1313   0.193   2.245   0.215  0.0858  1.1505 -0.3802
  438SOL    HW2 1314   0.071   2.257   0.334 -0.5045  1.5051 -0.5702
  439SOL     OW 1315   0.318   0.105   1.149  0.0139 -0.6841 -0.1539
  439SOL    HW1 1316   0.374   0.060   1.080  0.4493 -0.7881  4.4102
  439SOL    HW2 1317   0.314   0.050   1.234  0.7648  2.1043  0.0084
  440SOL     OW 1318   2.802   2.548   2.208  0.3227 -0.2436  0.2071
  440SOL    HW1 1319   2.817   2.599   2.293  0.7022  1.3381 -2.0912
  440SOL    HW2 1320   2.765   2.617   2.142  1.4904 -2.8228 -0.5624
  441SOL     OW 1321   2.928   0.690   1.610 -0.4545 -0.3227  0.2225
  441SOL    HW1 1322   2.990   0.614   1.591 -3.1193 -1.0633  1.1369
  441SOL    HW2 1323   2.833   0.656   1.610  2.5888 -0.8747  0.7066
  442SOL     OW 1324   1.877   2.451   0.154  0.1663 -0.2750 -0.6164
  442SOL    HW1 1325   1.945   2.525   0.166 -0.5318 -0.5592  1.1887
  442SOL    HW2 1326   1.788   2.485   0.124 -0.3986 -1.0884 -1.4202
  443SOL     OW 1327   0.339   0.599   2.925 -0.0704 -0.1553 -0.1463
  443SOL    HW1 1328   0.250   0.559   2.902 -0.0074  1.4626  1.4840
  443SOL    HW2 1329   0.321   0.694   2.956 -1.6723 -0.8652 -0.5907
  444SOL     OW 1330   1.459   1.603   2.323  0.4233 -0.0829 -0.0272
  444SOL    HW1 1331   1.525   1.540   2.361 -1.3543  2.5091 -3.6154
  444SOL    HW2 1332   1.509   1.675   2.268 -0.9915  2.7629  0.1971
  445SOL     OW 1333   0.176   2.420   1.095  0.3906 -0.0506 -0.8042
  445SOL    HW1 1334   0.256   2.485   1.109  0.8480 -2.0873 -0.2044
  445SOL    HW2 1335   0.191   2.365   1.010 -1.1910 -1.6870  1.8882
  446SOL     OW 1336   2.677   1.509   1.581  0.1585  0.3357  0.1488
  446SOL    HW1 1337   2.740   1.445   1.528  0.0238 -3.6201 -0.5272
  446SOL    HW2 1338   2.622   1.570   1.521  2.0490  0.1197  0.3357
  447SOL     OW 1339   0.266   0.735   0.180  0.1668  0.2020 -0.2580
  447SOL    HW1 1340   0.223   0.771   0.094  1.1666  0.5836 -0.4915
  447SOL    HW2 1341   0.194   0.672   0.222 -1.4672 -0.4198 -2.5111
  448SOL     OW 1342   1.354   2.158   1.950  0.0365  0.2557  0.4557
  448SOL    HW1 1343   1.406   2.231   1.989  0.2207  0.5906 -0.8000
  448SOL    HW2 1344   1.285   2.137   2.023  0.9483  1.8865  0.1550
  449SOL     OW 1345   0.985   1.274   0.043  0.7760 -0.1903 -0.0124
  449SOL    HW1 1346   0.953   1.196   0.096  3.4834  1.1922  0.3207
  449SOL    HW2 1347   1.076   1.291   0.076 -2.3658 -1.6469 -1.3011
  450SOL     OW 1348   2.973   1.964   2.021  0.2117 -0.0970  0.5721
  450SOL    HW1 1349   3.065   1.956   1.983 -1.9718 -0.4642 -0.4573
  450SOL    HW2 1350   2.934   1.868   2.027  1.5788  0.9178  0.0770
  451SOL     OW 1351   2.473   0.896   2.547  0.3935  0.3067  0.6491
  451SOL    HW1 1352   2.372   0.870   2.561 -1.1333 -0.5865 -0.5548
  451SOL    HW2 1353   2.530   0.903   2.629 -0.1271  0.2290 -0.6818
  452SOL     OW 1354   1.480   0.588   1.087  0.5995  0.3959 -0.1374
  452SOL    HW1 1355   1.400   0.618   1.144  0.5205  3.3589 -0.4829
  452SOL    HW2 1356   1.520   0.497   1.117  0.2925  0.5152  1.6084
  453SOL     OW 1357   1.560   0.970   1.309 -0.1907  0.0412 -0.2688
  453SOL    HW1 1358   1.471   0.933   1.338 -0.7843  1.0426  0.5103
  453SOL    HW2 1359   1.564   1.072   1.310  1.9184  0.0200  0.2353
  454SOL     OW 1360   0.100   0.986   0.306 -0.2476  0.0738  0.1099
  454SOL    HW1 1361   0.174   0.934   0.352 -0.6964 -1.4908 -0.8430
  454SOL    HW2 1362   0.030   0.922   0.279  1.2214 -0.4740  0.8128
  455SOL     OW 1363   2.380   2.550   1.342  0.1096 -0.0791  0.2188
  455SOL    HW1 1364   2.346   2.625   1.400  0.7731 -0.9609 -0.6086
  455SOL    HW2 1365   2.362   2.572   1.243  3.6520 -0.8962 -1.2299
  456SOL     OW 1366   0.381   2.559   1.225  0.3988 -0.6176 -0.0355
  456SOL    HW1 1367   0.426   2.515   1.307 -0.1513  1.5181  1.9780
  456SOL    HW2 1368   0.318   2.638   1.246 -1.7865  0.5353  0.5209
  457SOL     OW 1369   1.571   3.030   0.403  0.6330 -0.4851 -0.2160
  457SOL    HW1 1370   1.495   2.961   0.419 -0.7090 -0.5652  0.5134
  457SOL    HW2 1371   1.540   0.031   0.369 -1.0603  0.6060 -0.6795
  458SOL     OW 1372   2.594   3.049   1.258  0.2352  0.0708  0.5830
  458SOL    HW1 1373   2.643   3.068   1.346 -1.2784  0.7789  0.2776
  458SOL    HW2 1374   2.613   2.959   1.221 -2.4818 -0.3591 -4.4136
  459SOL     OW 1375   2.538   0.666   2.794 -0.1946  0.1525 -0.5618
  459SOL    HW1 1376   2.509   0.752   2.840 -0.6088 -1.4052 -0.5769
  459SOL    HW2 1377   2.636   0.670   2.758 -2.5225  1.4165  0.1336
  460SOL     OW 1378   2.751   2.491   2.798  0.1638  0.1998 -0.8096
  460SOL    HW1 1379   2.848   2.494   2.779 -2.6636  0.3427 -2.3056
  460SOL    HW2 1380   2.729   2.541   2.883 -0.3083  3.2865  2.1771
  461SOL     OW 1381   0.697   1.746   0.352 -0.2088  0.2638 -0.1497
  461SOL    HW1 1382   0.769   1.680   0.343 -0.7204  3.3453  0.1081
  461SOL    HW2 1383   0.627   1.735   0.276 -0.9373  0.0662 -0.9214
  462SOL     OW 1384   2.189   1.924   0.831  0.1787  0.8591  0.6850
  462SOL    HW1 1385   2.173   1.960   0.740  2.8242 -0.7591  2.0927
  462SOL    HW2 1386   2.230   1.995   0.888 -1.5338 -1.9829  0.1747
  463SOL     OW 1387   2.888   0.759   0.765  0.1445  0.2413 -0.3398
  463SOL    HW1 1388   2.973   0.814   0.760  2.2063 -1.2003  0.1060
  463SOL    HW2 1389   2.868   0.733   0.669  2.4419 -2.4848 -2.6308
  464SOL     OW 1390   1.086   2.877   0.480 -0.2197  0.5234 -0.1620
  464SOL    HW1 1391   1.064   2.945   0.551 -3.7757 -0.0791 -1.3117
  464SOL    HW2 1392   1.036   2.790   0.494  0.6871  0.6971 -1.2384
  465SOL     OW 1393   2.409   1.082   0.547  0.0001  0.0426  0.0983
  465SOL    HW1 1394   2.334   1.035   0.600  1.3210  1.7280  2.7211
  465SOL    HW2 1395   2.421   1.044   0.455 -2.0810  1.9205  0.9568
  466SOL     OW 1396   2.268   0.217   2.953 -0.0786  0.1329  0.8633
  466SOL    HW1 1397   2.207   0.205   2.868 -0.2383  0.5519 -0.7053
  466SOL    HW2 1398   2.338   0.291   2.932  0.4857  0.5606 -2.2331
  467SOL     OW 1399   0.969   1.050   1.355 -0.3663 -0.5272 -0.3934
  467SOL    HW1 1400   1.010   1.080   1.446  0.1842  1.4464  0.5994
  467SOL    HW2 1401   1.040   0.997   1.302  1.0452 -0.4285  0.0155
  468SOL     OW 1402   0.413   0.893   2.281  0.0363  0.2246  0.5800
  468SOL    HW1 1403   0.412   0.923   2.185  0.4785  2.0159 -0.9783
  468SOL    HW2 1404   0.460   0.971   2.338  0.7457  2.5861  0.8799
  469SOL     OW 1405   0.468   2.492   0.377 -0.3836  0.4554  0.4221
  469SOL    HW1 1406   0.474   2.469   0.278 -1.3258  0.3243 -2.8308
  469SOL    HW2 1407   0.562   2.513   0.415  0.3798  0.7710 -2.0598
  470SOL     OW 1408   2.516   1.105   2.789  0.3261  0.1132 -0.6700
  470SOL    HW1 1409   2.493   1.021   2.833  1.0532  2.7567  0.9266
  470SOL    HW2 1410   2.594   1.144   2.838 -0.7548 -0.0851  0.7480
  471SOL     OW 1411   2.602   1.132   2.389 -0.0155  0.4488 -0.3910
  471SOL    HW1 1412   2.706   1.119   2.398  1.7506  1.7757 -0.0729
  471SOL    HW2 1413   2.545   1.046   2.405 -2.9543 -2.1719  1.6852
  472SOL     OW 1414   0.381   2.335   0.563 -0.4756  0.1907 -0.3494
  472SOL    HW1 1415   0.296   2.362   0.611  1.5350 -1.5193 -2.7263
  472SOL    HW2 1416   0.405   2.400   0.492 -0.7530 -5.0738  0.5840
  473SOL     OW 1417   0.582   0.199   2.977 -0.0338  0.1879 -0.0007
  473SOL    HW1 1418   0.509   0.253   3.018  1.0659  0.2226 -2.0673
  473SOL    HW2 1419   0.628   0.248   2.904 -0.0376 -3.4425  0.6712
  474SOL     OW 1420   1.707   0.308   1.999 -0.1173 -0.4667 -0.1935
  474SOL    HW1 1421   1.675   0.395   2.045  0.9748 -1.5080 -0.7912
  474SOL    HW2 1422   1.646   0.283   1.926 -0.5889 -0.4671  0.3041
  475SOL     OW 1423   0.866   2.533   0.225 -0.0729 -0.2680 -0.1201
  475SOL    HW1 1424   0.879   2.434   0.233 -2.0311  1.7480 -2.0499
  475SOL    HW2 1425   0.888   2.566   0.131 -0.5227  2.3255  0.9469
  476SOL     OW 1426   0.413   1.081   0.870  0.5170  0.6619 -0.5824
  476SOL    HW1 1427   0.446   1.050   0.962 -0.5749 -2.5233  0.4913
  476SOL    HW2 1428   0.444   1.172   0.845  2.4071 -1.8678  0.3445
  477SOL     OW 1429   1.678   2.280   1.225  0.8276 -0.2271 -0.7844
  477SOL    HW1 1430   1.580   2.279   1.245 -2.4322 -1.0916  3.2935
  477SOL    HW2 1431   1.694   2.283   1.130 -0.0982 -0.4612  4.3398
  478SOL     OW 1432   0.628   1.299   2.441  0.4025 -0.4735 -0.3676
  478SOL    HW1 1433   0.670   1.318   2.351 -0.6458 -1.1184  3.1017
  478SOL    HW2 1434   0.616   1.384   2.496  1.8758 -1.9757  0.2355
  479SOL     OW 1435   0.216   2.784   1.265 -0.5859 -0.6218  0.5075
  479SOL    HW1 1436   0.114   2.790   1.282  2.1181  0.5780  0.2889
  479SOL    HW2 1437   0.263   2.864   1.309  0.1038  1.0014  2.3108
  480SOL     OW 1438   2.697   2.885   0.220 -0.3928  0.0835 -0.6274
  480SOL    HW1 1439   2.650   2.957   0.169 -0.0932 -0.8662  1.4809
  480SOL    HW2 1440   2.633   2.826   0.272 -0.4256 -0.6149  3.2572
  481SOL     OW 1441   2.869   2.838   1.077 -0.0760  0.2776  0.0132
  481SOL    HW1 1442   2.911   2.787   0.996 -0.3569 -1.5589  0.4507
  481SOL    HW2 1443   2.769   2.825   1.076  1.1165  1.4781  1.1546
  482SOL     OW 1444   1.569   2.328   2.118  0.0217  0.1284 -0.0124
  482SOL    HW1 1445   1.553   2.244   2.175 -0.8482 -2.0237 -0.3888
  482SOL    HW2 1446   1.669   2.346   2.101  0.3208  0.4934 -1.1736
  483SOL     OW 1447   0.590   1.515   2.588 -0.7198  0.0414 -0.9118
  483SOL    HW1 1448   0.635   1.608   2.568  2.5901  3.2751 -1.7357
  483SOL    HW2 1449   0.490   1.525   2.610  0.4271 -1.1467 -1.4743
  484SOL     OW 1450   1.081   1.156   2.513 -0.0444  0.0196  0.1411
  484SOL    HW1 1451   0.995   1.123   2.471  1.8261 -0.9873  1.3767
  484SOL    HW2 1452   1.066   1.240   2.574  0.1563 -0.3299  3.2008
  485SOL     OW 1453   2.845   0.341   0.382  0.3603 -0.5025 -0.2047
  485SOL    HW1 1454   2.759   0.302   0.420  1.3322  2.2530 -0.0961
  485SOL    HW2 1455   2.914   0.270   0.374 -0.3315 -1.5135 -1.1246
  486SOL     OW 1456   1.646   2.821   0.838 -0.3037 -0.5190  0.7619
  486SOL    HW1 1457   1.661   2.863   0.928 -1.3247 -2.0462  2.0733
  486SOL    HW2 1458   1.589   2.878   0.775  1.4814 -1.0884  0.9455
  487SOL     OW 1459   0.762   2.527   1.002 -0.1759 -0.2889 -0.2938
  487SOL    HW1 1460   0.683   2.594   1.004  0.0542  0.4407  1.1654
  487SOL    HW2 1461   0.826   2.545   0.929  0.6355 -1.7849 -0.0884
  488SOL     OW 1462   2.314   1.210   0.150  0.3980  0.0716  0.5899
  488SOL    HW1 1463   2.237   1.265   0.187  0.2227 -0.4376 -1.7889
  488SOL    HW2 1464   2.322   1.208   0.046 -0.9675  2.4938 -0.7092
  489SOL     OW 1465   1.331   2.797   1.015 -0.2317 -0.2035 -0.1160
  489SOL    HW1 1466   1.305   2.863   1.090  0.8149  2.3885 -0.1759
  489SOL    HW2 1467   1.416   2.747   1.040 -0.7839 -0.6135  0.2195
  490SOL     OW 1468   0.879   1.080   0.190  0.0874  0.3247 -0.2585
  490SOL    HW1 1469   0.960   1.033   0.235  1.7728 -0.5628  1.7489
  490SOL    HW2 1470   0.812   1.106   0.260  1.6195 -0.7871  2.2063
  491SOL     OW 1471   0.959   3.034   0.907 -0.0177 -0.4915  0.4519
  491SOL    HW1 1472   1.054   2.996   0.892  0.6800  0.1368 -0.4338
  491SOL    HW2 1473   0.903   2.979   0.973 -1.2728  0.9385  1.9888
  492SOL     OW 1474   1.200   1.500   2.205  0.1488 -0.1544  1.0285
  492SOL    HW1 1475   1.116   1.518   2.256  1.4290 -1.5507 -0.6461
  492SOL    HW2 1476   1.284   1.524   2.252 -1.5794 -1.9685 -0.2107
  493SOL     OW 1477   0.065   2.453   0.552  0.5668 -0.1491  0.3130
  493SOL    HW1 1478   0.054   2.353   0.521  0.4224 -3.0476  1.2960
  493SOL    HW2 1479   0.001   2.518   0.509  0.3539 -0.0989  1.7173
  494SOL     OW 1480   2.338   1.808   0.033  0.2830  0.1938  0.3660
  494SOL    HW1 1481   2.279   1.881   3.083  0.8791  0.0132  1.1772
  494SOL    HW2 1482   2.314   1.725   3.078  2.5663  0.9042  0.0906
  495SOL     OW 1483   2.582   1.433   2.923 -0.4107 -0.2170 -0.1097
  495SOL    HW1 1484   2.640   1.367   2.864 -1.2821 -1.5652 -1.2648
  495SOL    HW2 1485   2.645   1.451   3.004  2.4565  0.3450 -1.4072
  496SOL     OW 1486   2.738   0.066   1.502  0.1306  0.3856  0.5455
  496SOL    HW1 1487   2.681   0.011   1.571 -0.3503 -3.1362  2.0617
  496SOL    HW2 1488   2.723   0.168   1.515  0.6505  0.5847  0.3727
  497SOL     OW 1489   2.804   0.911   0.449 -0.0173 -0.5793 -0.4847
  497SOL    HW1 1490   2.748   0.919   0.539 -3.3649  0.3846  2.9177
  497SOL    HW2 1491   2.866   0.992   0.433  0.6786  0.9852 -1.1118
  498SOL     OW 1492   2.861   2.228   2.585 -0.0677  0.1434  0.0066
  498SOL    HW1 1493   2.808   2.201   2.670 -1.1983  1.4634  1.6321
  498SOL    HW2 1494   2.877   2.140   2.527 -1.2138 -1.2101 -1.1717
  499SOL     OW 1495   0.991   2.308   0.315  0.4123 -0.5353  0.1249
  499SOL    HW1 1496   1.077   2.298   0.260 -0.3336  2.4441 -1.4532
  499SOL    HW2 1497   1.003   2.349   0.406  0.2063  0.4795  1.5110
  500SOL     OW 1498   0.940   0.046   2.696  0.3519  0.7420  0.3439
  500SOL    HW1 1499   0.991   0.119   2.747  1.1439 -0.6056  3.4154
  500SOL    HW2 1500   0.846   0.032   2.739  2.2772 -0.0685 -0.0037
  501SOL     OW 1501   1.322   3.016   1.190 -0.1425  0.4674 -0.0693
  501SOL    HW1 1502   1.409   3.007   1.240  0.2705 -0.8879 -2.7283
  501SOL    HW2 1503   1.285   0.020   1.204  0.4315  3.1397 -1.3479
  502SOL     OW 1504   3.041   0.096   2.080 -0.3217  0.7039 -0.4128
  502SOL    HW1 1505   0.054   0.082   2.064  2.3199 -0.7476  0.5071
  502SOL    HW2 1506   2.993   0.130   1.995  2.0124 -2.1212  0.0344
  503SOL     OW 1507   2.342   1.910   2.260 -0.6541 -0.3078  0.7585
  503SOL    HW1 1508   2.296   1.821   2.270 -2.0544  1.1564  1.9295
  503SOL    HW2 1509   2.287   1.977   2.307 -0.0286 -1.3549 -0.6406
  504SOL     OW 1510   1.408   0.669   1.834  0.2926 -0.0192  0.1136
  504SOL    HW1 1511   1.345   0.591   1.831  0.9778  2.2114  0.9976
  504SOL    HW2 1512   1.498   0.632   1.805 -0.8401  1.0239 -4.0733
  505SOL     OW 1513   2.755   0.927   1.504 -0.5341  0.4399  0.0449
  505SOL    HW1 1514   2.804   0.970   1.428 -2.5948  0.8579  0.0377
  505SOL    HW2 1515   2.794   0.836   1.511  0.5676  0.2134 -1.7089
  506SOL     OW 1516   0.549   1.043   2.457 -0.2054 -0.2249 -0.1657
  506SOL    HW1 1517   0.476   1.022   2.525 -0.0777  3.4897 -2.0371
  506SOL    HW2 1518   0.585   1.141   2.460  0.6004  1.4603  1.0275
  507SOL     OW 1519   0.415   2.916   2.309  0.3494  0.1291  0.6854
  507SOL    HW1 1520   0.509   2.955   2.300 -0.1476 -1.7313 -3.7017
  507SOL    HW2 1521   0.419   2.815   2.300  0.1272 -1.4405  0.0784
  508SOL     OW 1522   1.166   0.871   1.253  0.5583 -0.2338 -0.1918
  508SOL    HW1 1523   1.232   0.864   1.330 -1.0393 -1.4513  1.2352
  508SOL    HW2 1524   1.169   0.788   1.191 -0.3954  1.1480 -0.4268
  509SOL     OW 1525   0.869   1.816   1.566 -0.6675  0.7751 -0.2786
  509SOL    HW1 1526   0.891   1.863   1.656 -1.0134 -1.3668 -2.1965
  509SOL    HW2 1527   0.948   1.786   1.509 -1.4824  0.7613 -0.9662
  510SOL     OW 1528   2.516   0.673   2.384  0.1013  0.7686  0.4045
  510SOL    HW1 1529   2.527   0.595   2.449  0.8389  1.2404  0.3746
  510SOL    HW2 1530   2.495   0.757   2.437  0.5106  1.1172 -0.7943
  511SOL     OW 1531   0.388   1.713   1.468  0.2566  0.3629  0.4171
  511SOL    HW1 1532   0.357   1.797   1.421 -0.6327 -1.5018 -1.8086
  511SOL    HW2 1533   0.338   1.625   1.439  4.7787 -2.4296 -1.4701
  512SOL     OW 1534   2.494   2.136   0.802  1.0839  0.4740 -0.1747
  512SOL    HW1 1535   2.515   2.213   0.736  1.0986 -0.9439  1.7087
  512SOL    HW2 1536   2.428   2.178   0.868 -0.8573 -0.8322  0.0278
  513SOL     OW 1537   2.757   1.268   2.773 -0.5696 -0.0770 -0.1128
  513SOL    HW1 1538   2.732   1.226   2.684  1.0710 -2.0428  1.2341
  513SOL    HW2 1539   2.855   1.303   2.770  2.7141 -2.0206  0.5193
  514SOL     OW 1540   0.333   2.041   2.789  0.6002  0.4338  0.3343
  514SOL    HW1 1541   0.312   2.051   2.890  1.1102 -2.4105  0.8505
  514SOL    HW2 1542   0.387   2.120   2.752 -1.3695 -1.1775  0.7093
  515SOL     OW 1543   1.811   1.611   2.095  0.5771  0.6409  0.1317
  515SOL    HW1 1544   1.782   1.541   2.025 -0.0091 -0.1470 -2.0767
  515SOL    HW2 1545   1.880   1.576   2.162 -4.2983  1.1488 -1.3391
  516SOL     OW 1546   2.030   2.189   2.835  0.7817  0.0852 -0.5737
  516SOL    HW1 1547   2.057   2.281   2.867  1.2023 -0.0059  0.5888
  516SOL    HW2 1548   2.103   2.127   2.864  1.5219  1.9070 -1.3814
  517SOL     OW 1549   1.502   1.117   0.289  0.6151  0.0724 -0.3933
  517SOL    HW1 1550   1.493   1.157   0.383 -0.6581  1.4034  1.4064
  517SOL    HW2 1551   1.492   1.017   0.280  1.9779  2.2473 -2.1059
  518SOL     OW 1552   2.532   2.948   2.016  0.5435  0.4683 -0.1716
  518SOL    HW1 1553   2.547   3.040   2.064  0.8701  2.9300  1.2273
  518SOL    HW2 1554   2.431   2.930   2.010 -5.3325  0.5703  0.5802
  519SOL     OW 1555   1.866   2.196   1.770  0.0765 -0.4051 -0.2040
  519SOL    HW1 1556   1.810   2.247   1.696 -1.0545  2.7759 -0.9535
  519SOL    HW2 1557   1.919   2.121   1.727 -2.3966  2.8170  0.7031
  520SOL     OW 1558   2.596   2.728   2.631 -0.0198 -0.5884 -0.0582
  520SOL    HW1 1559   2.569   2.827   2.647  0.4612  0.4569 -0.0810
  520SOL    HW2 1560   2.526   2.690   2.566 -0.8806 -3.2971  0.6189
  521SOL     OW 1561   0.228   1.204   2.129 -0.9066  0.3106  0.4309
  521SOL    HW1 1562   0.234   1.253   2.039 -0.8505  1.5877 -0.7075
  521SOL    HW2 1563   0.177   1.259   2.196  3.5521 -1.5960 -1.0724
  522SOL     OW 1564   0.952   0.098   1.712  0.0458  0.5198 -0.1325
  522SOL    HW1 1565   0.987   0.188   1.686 -1.5029  0.4969  0.4189
  522SOL    HW2 1566   0.886   0.056   1.645 -1.2391 -1.2958 -1.3832
  523SOL     OW 1567   0.466   2.215   0.932  0.0067  0.8834 -0.1668
  523SOL    HW1 1568   0.518   2.242   0.848  1.0841  0.9353 -0.5880
  523SOL    HW2 1569   0.368   2.215   0.911  1.1706  1.1819 -1.5592
  524SOL     OW 1570   1.490   2.643   0.697 -0.8540 -0.0951  0.1749
  524SOL    HW1 1571   1.561   2.711   0.722 -0.1277 -0.6932 -1.5235
  524SOL    HW2 1572   1.516   2.550   0.725 -0.4346 -2.2201 -0.1302
  525SOL     OW 1573   2.268   0.653   1.125  0.5348  0.3726 -0.3280
  525SOL    HW1 1574   2.277   0.710   1.212  0.7581  3.2140  0.3356
  525SOL    HW2 1575   2.278   0.717   1.042 -0.6291  4.8704 -3.0739
  526SOL     OW 1576   0.929   2.579   0.782 -0.0336 -0.2356  0.0108
  526SOL    HW1 1577   0.895   2.503   0.731 -0.8647  3.4417  2.1531
  526SOL    HW2 1578   0.910   2.669   0.736 -0.0723  3.4630  2.2858
  527SOL     OW 1579   2.454   2.093   0.374 -0.3647  0.2228  0.2217
  527SOL    HW1 1580   2.435   1.993   0.367 -1.9492  0.6102 -0.6439
  527SOL    HW2 1581   2.365   2.138   0.391 -0.5106 -0.2923 -0.5450
  528SOL     OW 1582   2.231   0.626   0.581  0.7128 -0.2964  0.0475
  528SOL    HW1 1583   2.185   0.546   0.619 -1.7863 -1.9897  2.5941
  528SOL    HW2 1584   2.223   0.617   0.480  2.1426  0.1527  2.2667
  529SOL     OW 1585   1.244   1.219   2.306  0.0073 -0.0362  0.0335
  529SOL    HW1 1586   1.167   1.213   2.375 -0.8118  0.3417 -0.5580
  529SOL    HW2 1587   1.264   1.313   2.290 -0.6723  1.4961 -3.3255
  530SOL     OW 1588   2.581   0.787   0.039  0.3434  0.2038 -0.2684
  530SOL    HW1 1589   2.667   0.735   0.018  1.4334  2.3197 -4.3236
  530SOL    HW2 1590   2.593   0.829   0.132  1.9356 -2.4187  0.6041
  531SOL     OW 1591   1.134   0.953   0.238  0.5860  0.3725  0.6069
  531SOL    HW1 1592   1.167   0.882   0.168  2.1113  0.6170 -1.9258
  531SOL    HW2 1593   1.170   0.929   0.328 -1.5195  0.3790 -1.0637
  532SOL     OW 1594   2.073   0.112   0.613  0.3771  0.4715  0.3685
  532SOL    HW1 1595   1.988   0.071   0.656 -0.0738  0.4665  1.0078
  532SOL    HW2 1596   2.095   0.206   0.656 -0.0286  6.1728  3.7147
  533SOL     OW 1597   1.440   1.009   2.286  0.0480  0.4555 -0.4385
  533SOL    HW1 1598   1.385   1.094   2.278 -1.0126  1.0556  1.4369
  533SOL    HW2 1599   1.428   0.950   2.203 -0.6304  0.4470 -0.4431
  534SOL     OW 1600   1.811   2.976   2.679  0.1483  0.2326 -0.2475
  534SOL    HW1 1601   1.897   2.998   2.733  0.8694 -2.9280  1.9252
  534SOL    HW2 1602   1.831   2.930   2.594  0.7355  3.4913  2.2759
  535SOL     OW 1603   0.367   2.939   0.284 -0.4710  0.0832 -0.2404
  535SOL    HW1 1604   0.429   3.005   0.336  0.7488 -1.9996  1.9002
  535SOL    HW2 1605   0.310   2.885   0.354 -0.4666  2.0273  1.3341
  536SOL     OW 1606   0.758   2.850   0.992  0.2290  0.0913  0.3276
  536SOL    HW1 1607   0.665   2.803   1.010 -1.3998 -2.0392  2.4275
  536SOL    HW2 1608   0.822   2.828   1.069  0.2134  1.5045  1.2380
  537SOL     OW 1609   1.588   0.836   1.070 -0.3383 -0.5824 -0.3039
  537SOL    HW1 1610   1.547   0.743   1.076  0.3587  0.5976  1.5463
  537SOL    HW2 1611   1.567   0.891   1.153 -2.1855 -1.5140  0.1065
  538SOL     OW 1612   2.566   2.504   0.264  0.0398 -0.6036  0.8155
  538SOL    HW1 1613   2.668   2.488   0.266 -0.8902  1.0578 -2.4716
  538SOL    HW2 1614   2.553   2.603   0.293 -0.0780  2.6270  2.3509
  539SOL     OW 1615   2.751   1.846   2.696 -0.0065 -0.0065  0.3294
  539SOL    HW1 1616   2.657   1.829   2.666  0.9972  1.7382 -1.1139
  539SOL    HW2 1617   2.795   1.917   2.640  0.6832  0.8043 -0.1615
  540SOL     OW 1618   0.135   2.849   1.618  0.8702 -0.4609 -0.0289
  540SOL    HW1 1619   0.180   2.759   1.605  0.3537  0.2227 -0.3695
  540SOL    HW2 1620   0.040   2.854   1.579 -2.2380  0.5584 -1.3106
  541SOL     OW 1621   2.593   3.065   1.757  0.5471  0.3592 -0.1320
  541SOL    HW1 1622   2.522   0.046   1.753 -1.3828 -0.6686 -0.1115
  541SOL    HW2 1623   2.610   3.044   1.856  0.3764 -0.7938  0.2084
  542SOL     OW 1624   2.945   0.585   2.199 -0.6171  0.0295 -0.0724
  542SOL    HW1 1625   2.856   0.634   2.214 -0.2239  0.1910 -0.5046
  542SOL    HW2 1626   2.975   0.589   2.103 -0.6355  1.2654 -2.3214
  543SOL     OW 1627   1.096   0.353   0.740 -0.3061 -0.0219  0.0036
  543SOL    HW1 1628   1.018   0.409   0.708 -1.7731 -0.1197  0.4512
  543SOL    HW2 1629   1.135   0.301   0.661 -0.2858  2.1451 -0.3709
  544SOL     OW 1630   2.699   2.380   0.961 -0.0581 -0.0074 -0.0731
  544SOL    HW1 1631   2.782   2.319   0.972  0.3558 -0.1303 -1.5695
  544SOL    HW2 1632   2.625   2.346   1.022  0.5947  0.3183  1.5842
  545SOL     OW 1633   0.903   1.562   0.359  0.2515  0.3802  0.2126
  545SOL    HW1 1634   0.941   1.597   0.272 -0.0596  1.1459 -1.9412
  545SOL    HW2 1635   0.979   1.548   0.420 -0.5205 -0.1479  2.5807
  546SOL     OW 1636   2.356   0.433   1.656  0.1111  0.0296  0.1120
  546SOL    HW1 1637   2.318   0.344   1.681  2.1174  0.8751  0.6581
  546SOL    HW2 1638   2.417   0.473   1.727  0.0433  2.0482  0.7775
  547SOL     OW 1639   0.251   0.324   2.377 -0.2429  0.2033  0.2845
  547SOL    HW1 1640   0.199   0.382   2.310  0.1336  1.1562  0.9546
  547SOL    HW2 1641   0.200   0.318   2.466  0.5783 -0.4406 -3.1129
  548SOL     OW 1642   2.121   1.754   2.246 -0.5609  0.6000 -0.0473
  548SOL    HW1 1643   2.093   1.658   2.274 -0.8676 -0.0467 -0.1943
  548SOL    HW2 1644   2.059   1.816   2.294  4.0062 -2.0177  0.0859
  549SOL     OW 1645   0.050   0.869   0.682 -0.0603  0.2773  0.0663
  549SOL    HW1 1646   0.048   0.781   0.628  0.5640 -1.6367 -0.3145
  549SOL    HW2 1647   0.120   0.859   0.756 -0.6060  0.9077 -2.5960
  550SOL     OW 1648   1.620   1.430   0.616  0.5823 -0.1921 -0.3658
  550SOL    HW1 1649   1.547   1.361   0.612  2.0777 -0.0514 -0.7123
  550SOL    HW2 1650   1.662   1.455   0.528  0.0017  0.8099  3.0048
  551SOL     OW 1651   0.939   0.108   1.278 -0.2684 -0.2091  0.0244
  551SOL    HW1 1652   0.916   0.131   1.180  0.8374  0.0926  1.6567
  551SOL    HW2 1653   0.982   0.017   1.287  2.1316  1.1275  0.2050
  552SOL     OW 1654   2.141   2.408   2.045  0.3585 -0.8611 -0.1380
  552SOL    HW1 1655   2.143   2.508   2.010  1.3951  0.1466 -1.0528
  552SOL    HW2 1656   2.215   2.389   2.113  0.3359  1.9274  1.4192
  553SOL     OW 1657   3.076   3.026   0.036 -0.4342  0.4710  0.4708
  553SOL    HW1 1658   0.072   3.065   0.079  1.0422 -1.7903 -1.6898
  553SOL    HW2 1659   3.086   3.007   3.026 -2.1728  0.2170  4.8494
  554SOL     OW 1660   1.218   2.664   1.491 -0.2207  0.3206 -0.0149
  554SOL    HW1 1661   1.180   2.569   1.489 -0.7446  0.9013  2.4664
  554SOL    HW2 1662   1.185   2.707   1.573 -2.1744 -0.8082  2.7152
  555SOL     OW 1663   2.308   2.756   1.507 -0.0355  0.0133  0.1366
  555SOL    HW1 1664   2.247   2.733   1.588 -0.4810 -0.9390  1.8572
  555SOL    HW2 1665   2.397   2.794   1.544 -0.6903  2.4258 -1.7439
  556SOL     OW 1666   0.935   2.981   2.960 -0.3252  0.0136 -0.2189
  556SOL    HW1 1667   1.000   2.944   2.889 -2.5835  0.3712  1.8465
  556SOL    HW2 1668   0.959   2.948   3.056  2.4050  0.6886  0.5157
  557SOL     OW 1669   0.180   2.165   2.422  0.2930 -0.1789  0.3387
  557SOL    HW1 1670   0.265   2.141   2.371  0.6412  2.3978  0.2647
  557SOL    HW2 1671   0.093   2.161   2.365  1.4515  4.0858  0.3567
  558SOL     OW 1672   2.349   1.214   2.585 -0.2132 -0.6137 -0.2638
  558SOL    HW1 1673   2.408   1.162   2.651 -1.6040 -1.2202  0.3396
  558SOL    HW2 1674   2.341   1.314   2.607 -1.3405  1.5146 -1.4330
  559SOL     OW 1675   2.308   2.321   2.235  0.2058  0.3701 -0.1004
  559SOL    HW1 1676   2.405   2.306   2.253 -1.3961  0.6966  1.2236
  559SOL    HW2 1677   2.250   2.243   2.270  0.6791  1.6772  0.9533
  560SOL     OW 1678   0.103   0.498   2.246 -0.5934  0.2113 -0.0466
  560SOL    HW1 1679   0.154   0.564   2.302 -2.0183 -2.9176 -0.4738
  560SOL    HW2 1680   0.008   0.526   2.235  2.1646 -1.7272  0.6406
  561SOL     OW 1681   0.672   0.536   0.404  0.3739 -0.0330 -0.2781
  561SOL    HW1 1682   0.738   0.461   0.413 -0.5774  0.2996 -0.1164
  561SOL    HW2 1683   0.588   0.535   0.465 -0.5977  1.2195  0.3862
  562SOL     OW 1684   0.815   1.464   1.625  0.4107 -0.1437  0.3150
  562SOL    HW1 1685   0.738   1.532   1.621 -0.4102 -1.2431 -0.7076
  562SOL    HW2 1686   0.797   1.394   1.693 -2.9021  0.5987 -0.2138
  563SOL     OW 1687   1.492   2.758   0.066 -0.1477  0.1180 -1.3150
  563SOL    HW1 1688   1.433   2.807   0.137 -0.6753 -3.2017 -1.1096
  563SOL    HW2 1689   1.566   2.815   0.021 -2.8058  3.0030 -0.4953
  564SOL     OW 1690   0.117   1.986   0.629 -0.7404 -0.1365  0.0513
  564SOL    HW1 1691   0.197   1.992   0.562  2.8658 -1.0382 -0.8005
  564SOL    HW2 1692   0.156   1.950   0.718  2.5395  1.8032  0.3129
  565SOL     OW 1693   0.548   2.315   2.393 -0.6622 -0.3808  0.1178
  565SOL    HW1 1694   0.592   2.392   2.339 -2.3134  0.5055  1.5666
  565SOL    HW2 1695   0.510   2.345   2.485  0.7038  0.2422 -0.9698
  566SOL     OW 1696   1.329   2.696   2.364 -0.7023  0.2861 -0.3643
  566SOL    HW1 1697   1.359   2.658   2.451  1.2334  2.7781 -1.6642
  566SOL    HW2 1698   1.343   2.623   2.289 -1.8929  0.2110 -1.0754
  567SOL     OW 1699   1.851   2.033   1.057 -0.6333 -0.2431  0.3695
  567SOL    HW1 1700   1.755   2.033   1.030  0.9635  2.2706 -1.1079
  567SOL    HW2 1701   1.890   1.944   1.023  0.0641 -1.4853 -0.9750
  568SOL     OW 1702   2.204   0.741   0.279 -0.0121  0.8048 -0.1118
  568SOL    HW1 1703   2.203   0.729   0.176  1.3614  0.6066 -3.6613
  568SOL    HW2 1704   2.110   0.755   0.314 -1.0186  0.9904  0.6160
  569SOL     OW 1705   2.644   1.398   2.423 -0.2246 -0.1938  0.1615
  569SOL    HW1 1706   2.734   1.382   2.460 -0.2717  0.4576 -0.1185
  569SOL    HW2 1707   2.584   1.317   2.439 -1.2449  1.9181  1.3986
  570SOL     OW 1708   2.740   2.787   1.457 -0.0987 -0.5072 -0.1146
  570SOL    HW1 1709   2.681   2.822   1.531 -3.8015 -1.2976  0.2613
  570SOL    HW2 1710   2.754   2.686   1.475  1.8373  1.5050 -0.3790
  571SOL     OW 1711   0.207   0.627   1.659  0.3762 -0.0263  0.2525
  571SOL    HW1 1712   0.117   0.600   1.619  1.4899  1.9032  0.9473
  571SOL    HW2 1713   0.278   0.568   1.625 -1.8817  0.8719  1.6910
  572SOL     OW 1714   2.965   2.219   0.889 -0.0473 -0.6133  0.1801
  572SOL    HW1 1715   3.014   2.299   0.845  1.5529  1.0646  3.1282
  572SOL    HW2 1716   3.023   2.154   0.945 -3.0392 -0.9998 -2.0608
  573SOL     OW 1717   0.856   0.900   3.068 -0.5402  0.0567  0.0618
  573SOL    HW1 1718   0.853   0.971   0.049 -1.6756  1.4903 -0.7381
  573SOL    HW2 1719   0.761   0.882   3.034  0.8314 -2.0662 -0.2817
  574SOL     OW 1720   2.573   2.595   3.012 -0.1817 -0.1518  0.3455
  574SOL    HW1 1721   2.635   2.672   3.013 -0.4781  1.2099  0.8195
  574SOL    HW2 1722   2.565   2.547   0.012 -0.7103  1.7053 -1.8096
  575SOL     OW 1723   1.089   1.778   1.429  0.8175  0.4328  0.1547
  575SOL    HW1 1724   1.076   1.787   1.328 -1.1909  0.2259 -4.0608
  575SOL    HW2 1725   1.166   1.843   1.457  0.3740  0.6706 -0.1426
  576SOL     OW 1726   2.956   2.892   1.538 -0.0556  0.6619 -0.8048
  576SOL    HW1 1727   2.926   2.987   1.515  2.2633 -1.3406 -0.9198
  576SOL    HW2 1728   2.877   2.834   1.510  2.3988 -0.0129  1.4390
  577SOL     OW 1729   2.070   1.384   1.582  0.2848 -0.2694  0.0956
  577SOL    HW1 1730   2.050   1.425   1.672  0.9947  0.7036 -0.6879
  577SOL    HW2 1731   2.001   1.416   1.509 -2.2584  0.1599 -0.2236
  578SOL     OW 1732   1.392   0.058   2.975  0.1527 -0.3928 -0.1727
  578SOL    HW1 1733   1.461   0.016   2.913 -1.0150  0.7636  0.5256
  578SOL    HW2 1734   1.341   0.128   2.926  1.1784 -1.2614 -2.1747
  579SOL     OW 1735   2.730   1.825   2.339 -0.1459  0.2264  0.1490
  579SOL    HW1 1736   2.690   1.736   2.347  1.8878  2.5597  0.3992
  579SOL    HW2 1737   2.832   1.815   2.326  0.6836  0.7725  1.7764
  580SOL     OW 1738   1.345   0.845   1.450  0.0932 -0.6232  0.5833
  580SOL    HW1 1739   1.300   0.887   1.529 -0.5717 -0.4150 -2.6171
  580SOL    HW2 1740   1.418   0.773   1.476  1.7681 -2.5343  0.5216
  581SOL     OW 1741   0.641   1.668   1.557 -0.2810  0.6980  0.2784
  581SOL    HW1 1742   0.548   1.701   1.527 -1.1839  2.9856 -2.0714
  581SOL    HW2 1743   0.710   1.739   1.567 -1.3566 -2.1324 -0.7748
  582SOL     OW 1744   2.746   2.743   2.010 -0.5916 -0.3332 -0.2054
  582SOL    HW1 1745   2.801   2.825   2.035 -0.0570  3.4640 -1.3715
  582SOL    HW2 1746   2.654   2.778   1.981  1.6435 -0.5316 -1.2880
  583SOL     OW 1747   2.117   1.048   1.641  0.5298  0.2291 -0.2011
  583SOL    HW1 1748   2.150   0.966   1.691 -0.0521 -2.0696 -0.0635
  583SOL    HW2 1749   2.161   1.135   1.657 -2.5657 -1.5722 -2.9560
  584SOL     OW 1750   1.387   2.147   3.084 -0.4332 -0.0495 -0.4646
  584SOL    HW1 1751   1.333   2.147   2.998 -0.6252  1.0736  2.5338
  584SOL    HW2 1752   1.369   2.070   0.055 -0.0312 -2.7957 -2.4830
  585SOL     OW 1753   0.243   2.734   0.455 -0.0831  0.2275  0.3403
  585SOL    HW1 1754   0.168   2.725   0.527 -0.8712  0.8201  1.9885
  585SOL    HW2 1755   0.234   2.658   0.390 -0.4085  2.7576  0.6206
  586SOL     OW 1756   1.887   2.363   2.667 -0.0774  0.3557 -0.0107
  586SOL    HW1 1757   1.930   2.280   2.709  0.3358 -1.0484 -1.5630
  586SOL    HW2 1758   1.852   2.337   2.576  1.1674  0.5265  0.5493
  587SOL     OW 1759   2.654   1.775   0.341 -0.2115 -0.1272 -0.3869
  587SOL    HW1 1760   2.669   1.857   0.279  0.7780  0.8909  0.3735
  587SOL    HW2 1761   2.568   1.779   0.398 -1.2256 -0.0155  3.1505
  588SOL     OW 1762   1.988   0.279   1.046  0.5668 -0.0213 -0.2146
  588SOL    HW1 1763   1.955   0.323   0.957  0.2304  0.7344 -1.4911
  588SOL    HW2 1764   2.066   0.223   1.017 -2.5211  2.3460  0.2239
  589SOL     OW 1765   0.930   0.506   0.630  0.4395  0.1788  0.5168
  589SOL    HW1 1766   0.942   0.466   0.538 -0.0013  0.4636  1.2210
  589SOL    HW2 1767   0.908   0.607   0.619  0.1078  1.3105  0.7404
  590SOL     OW 1768   2.492   2.305   3.026 -0.4095  0.1216  0.2930
  590SOL    HW1 1769   2.486   2.216   2.972  0.8204 -1.4335  1.2953
  590SOL    HW2 1770   2.532   2.291   0.027 -2.4275  0.7717 -1.4241
  591SOL     OW 1771   0.278   2.611   1.597 -0.1231 -0.3336  0.4560
  591SOL    HW1 1772   0.262   2.528   1.536 -0.4123  0.2799  1.8864
  591SOL    HW2 1773   0.231   2.592   1.686  1.9635  1.7498  0.7860
  592SOL     OW 1774   0.718   0.981   1.298  0.8458 -0.0891 -0.4510
  592SOL    HW1 1775   0.638   1.031   1.338 -1.5957 -0.2743  0.0726
  592SOL    HW2 1776   0.811   1.017   1.311  0.4009  0.5146  1.0792
  593SOL     OW 1777   0.872   1.520   1.334  0.3572  0.3856  0.2128
  593SOL    HW1 1778   0.929   1.437   1.316  2.6070 -3.3855 -1.4625
  593SOL    HW2 1779   0.849   1.525   1.431 -0.6055  2.0557 -0.3273
  594SOL     OW 1780   0.445   1.778   2.825 -0.2694 -0.2572  0.4765
  594SOL    HW1 1781   0.466   1.767   2.725 -2.1606 -2.8392  1.4065
  594SOL    HW2 1782   0.409   1.872   2.835  3.2567 -2.0370 -2.0239
  595SOL     OW 1783   1.272   0.192   1.269 -0.3316  0.2950  0.0796
  595SOL    HW1 1784   1.263   0.225   1.172  1.6129 -1.9539  0.2323
  595SOL    HW2 1785   1.202   0.229   1.330 -1.0762 -1.0261 -0.4362
  596SOL     OW 1786   0.094   1.357   0.584 -0.8302 -0.2971  0.9593
  596SOL    HW1 1787   0.057   1.262   0.597  4.3984  0.4383 -2.1242
  596SOL    HW2 1788   0.189   1.355   0.547 -0.0956 -1.8516 -0.0929
  597SOL     OW 1789   0.222   2.417   2.926 -0.3808  0.1362  0.0536
  597SOL    HW1 1790   0.151   2.348   2.915 -0.1615  0.4255  3.5955
  597SOL    HW2 1791   0.264   2.417   3.019  1.7637 -1.7303  1.4220
  598SOL     OW 1792   2.265   1.974   1.984 -0.6387 -0.0074  0.1813
  598SOL    HW1 1793   2.267   1.925   2.074 -0.1254 -2.0744  1.9635
  598SOL    HW2 1794   2.343   1.948   1.921  3.0272  2.3941  0.1393
  599SOL     OW 1795   0.985   0.449   0.381  0.3938 -0.4014  0.0918
  599SOL    HW1 1796   0.971   0.512   0.300  0.9447  1.4902  2.1473
  599SOL    HW2 1797   0.924   0.363   0.372  0.5691 -0.0437 -0.4149
  600SOL     OW 1798   0.511   2.755   0.606  0.2609  0.1845 -0.0627
  600SOL    HW1 1799   0.427   2.744   0.547 -0.5043  1.4454  0.9437
  600SOL    HW2 1800   0.579   2.678   0.592  0.7043 -2.4810  0.2216
  601SOL     OW 1801   0.367   0.905   1.178  0.2343  0.1214 -0.4214
  601SOL    HW1 1802   0.445   0.934   1.117 -1.6849 -1.7791 -0.6990
  601SOL    HW2 1803   0.335   0.813   1.155  0.0477  2.7949  0.8601
  602SOL     OW 1804   0.552   2.710   1.046 -0.2590 -0.2738 -0.4804
  602SOL    HW1 1805   0.511   2.638   1.106  1.4092  1.4465  0.1312
  602SOL    HW2 1806   0.476   2.776   1.017 -1.4928  0.3224 -0.2218
  603SOL     OW 1807   0.901   2.889   2.246  0.2516 -0.0087 -0.1972
  603SOL    HW1 1808   0.804   2.906   2.225  1.0855  2.3226  1.2820
  603SOL    HW2 1809   0.951   2.861   2.160  0.0658 -0.3146 -3.0227
  604SOL     OW 1810   0.684   2.753   2.484  0.2242 -0.1586 -0.4308
  604SOL    HW1 1811   0.771   2.749   2.537 -0.0372 -1.2744 -0.7601
  604SOL    HW2 1812   0.690   2.843   2.439  0.5199  0.2022 -1.1747
  605SOL     OW 1813   1.645   0.689   2.244  0.2122 -0.4183  0.3302
  605SOL    HW1 1814   1.600   0.734   2.161  0.9818  0.8969  0.3432
  605SOL    HW2 1815   1.746   0.690   2.228  0.3402  0.3177 -2.7892
  606SOL     OW 1816   2.111   0.211   2.742 -0.5641 -0.1079 -0.1979
  606SOL    HW1 1817   2.032   0.273   2.760  0.7296  0.2314 -0.1630
  606SOL    HW2 1818   2.153   0.229   2.656  0.3169  1.9764  2.6837
  607SOL     OW 1819   0.831   0.611   1.086 -0.0688  0.0847 -0.1718
  607SOL    HW1 1820   0.805   0.682   1.018  0.7787  1.9054  0.5355
  607SOL    HW2 1821   0.778   0.619   1.174 -2.0834  1.4685 -2.5468
  608SOL     OW 1822   3.064   2.154   2.260  0.0514 -0.1560 -0.0035
  608SOL    HW1 1823   3.052   2.251   2.235 -2.4450  0.1451  0.2572
  608SOL    HW2 1824   3.010   2.099   2.190  0.2106 -1.4734  0.8945
  609SOL     OW 1825   1.763   0.719   0.019 -0.7120  0.0490 -0.0519
  609SOL    HW1 1826   1.802   0.692   0.109 -0.8960 -2.0871 -1.8538
  609SOL    HW2 1827   1.664   0.727   0.024 -2.3173 -2.0735 -0.4500
  610SOL     OW 1828   0.729   0.021   1.455  0.0211  0.4305 -0.3371
  610SOL    HW1 1829   0.644   0.001   1.404  2.1798 -0.6715  0.6206
  610SOL    HW2 1830   0.791   0.073   1.391  2.8617 -1.5465 -0.9946
  611SOL     OW 1831   1.530   0.580   0.299 -0.0247 -0.2633 -0.0192
  611SOL    HW1 1832   1.488   0.541   0.387 -4.1992 -2.9027  2.9530
  611SOL    HW2 1833   1.505   0.523   0.220 -1.1141  1.0045  0.6427
  612SOL     OW 1834   1.721   0.607   2.864  0.4893  0.4343  0.2316
  612SOL    HW1 1835   1.655   0.671   2.819  2.4662  2.2425  0.0792
  612SOL    HW2 1836   1.741   0.639   2.958 -0.5589  1.1467  1.6728
  613SOL     OW 1837   2.464   0.726   0.691 -0.1541  0.4035 -0.6763
  613SOL    HW1 1838   2.373   0.698   0.650 -1.2417 -1.1880 -0.2167
  613SOL    HW2 1839   2.520   0.641   0.719 -0.9052  0.1606  1.3140
  614SOL     OW 1840   2.554   0.119   2.104  0.2242  0.3425  0.1197
  614SOL    HW1 1841   2.584   0.174   2.021  0.4905 -0.6483 -0.2613
  614SOL    HW2 1842   2.599   0.142   2.192 -0.8804 -0.6760  0.4081
  615SOL     OW 1843   0.753   1.942   1.172  0.0502 -0.1885  0.2739
  615SOL    HW1 1844   0.740   1.989   1.266 -1.5123 -0.8179 -0.0840
  615SOL    HW2 1845   0.660   1.933   1.128  1.8927  1.9154  1.4449
  616SOL     OW 1846   1.597   1.408   2.748  0.5724 -0.2970  0.2585
  616SOL    HW1 1847   1.534   1.478   2.716  0.1804 -1.3573  3.9043
  616SOL    HW2 1848   1.636   1.348   2.673  2.2229 -2.4249 -0.4699
  617SOL     OW 1849   1.703   2.920   0.012  0.9071 -0.5306 -0.0787
  617SOL    HW1 1850   1.712   2.914   0.112  0.7614  0.4320  2.6308
  617SOL    HW2 1851   1.775   2.967   3.047  3.3880  0.0392  0.8170
  618SOL     OW 1852   1.193   1.818   2.716  0.2746  0.3205  0.2425
  618SOL    HW1 1853   1.230   1.764   2.638  1.4736  5.1603  2.9866
  618SOL    HW2 1854   1.112   1.873   2.685  1.6242  1.5891  1.4045
  619SOL     OW 1855   2.668   1.168   0.799  0.2792  0.4991  0.0276
  619SOL    HW1 1856   2.646   1.225   0.718 -0.6494 -2.3197 -0.2474
  619SOL    HW2 1857   2.662   1.066   0.773 -0.1209 -1.8075 -0.6645
  620SOL     OW 1858   2.237   2.919   2.284 -0.0670 -0.3397  0.0264
  620SOL    HW1 1859   2.172   2.843   2.256 -1.4889  0.9768  1.2161
  620SOL    HW2 1860   2.198   2.991   2.345 -1.3113 -0.4315 -0.0445
  621SOL     OW 1861   2.883   1.406   0.475 -0.2144 -0.3004  0.0813
  621SOL    HW1 1862   2.958   1.358   0.428 -0.2682  1.4776  1.1469
  621SOL    HW2 1863   2.915   1.418   0.573  0.0114  1.9454 -0.2605
  622SOL     OW 1864   1.165   2.219   2.555  0.0864 -0.0361 -0.9737
  622SOL    HW1 1865   1.069   2.213   2.526  0.3220 -0.6447  0.8996
  622SOL    HW2 1866   1.215   2.141   2.517 -0.6307 -1.6479 -0.2324
  623SOL     OW 1867   0.266   2.616   2.755 -0.2727 -0.2967  0.1835
  623SOL    HW1 1868   0.236   2.574   2.665 -0.6083  1.6549  0.2531
  623SOL    HW2 1869   0.257   2.541   2.823 -1.3187 -0.5799 -1.5962
  624SOL     OW 1870   0.764   2.676   2.832  0.2644  0.8439  0.0824
  624SOL    HW1 1871   0.809   2.684   2.736  3.0322 -0.9818 -0.6854
  624SOL    HW2 1872   0.705   2.755   2.849 -0.9210  0.7834 -1.6246
  625SOL     OW 1873   0.870   2.134   2.486 -0.0531 -0.3915  0.1882
  625SOL    HW1 1874   0.845   2.231   2.514 -0.0695 -0.9283 -1.0456
  625SOL    HW2 1875   0.865   2.127   2.385  0.3109  1.3425  1.5610
  626SOL     OW 1876   0.004   0.300   0.084  0.5196  0.0969 -0.0034
  626SOL    HW1 1877   3.016   0.233   0.074 -0.4962  0.5499 -0.3932
  626SOL    HW2 1878   3.080   0.381   0.019  3.2034  0.9175 -2.1543
  627SOL     OW 1879   1.940   1.688   3.083  0.0590 -0.8025  0.4551
  627SOL    HW1 1880   1.864   1.652   3.020 -0.2996 -1.2713  0.9350
  627SOL    HW2 1881   2.029   1.647   3.063  1.1522  0.1146 -0.8562
  628SOL     OW 1882   1.446   1.305   2.952  0.3780 -0.1514  0.8161
  628SOL    HW1 1883   1.469   1.214   2.989 -1.9671 -1.7714  0.5894
  628SOL    HW2 1884   1.515   1.335   2.883  2.0247 -1.0656  0.2901
  629SOL     OW 1885   0.214   0.032   2.025  0.1284 -0.3729 -0.8435
  629SOL    HW1 1886   0.279   3.051   1.992  0.4667  1.5610 -0.8036
  629SOL    HW2 1887   0.270   0.097   2.082  2.1346  1.5497  0.2728
  630SOL     OW 1888   2.289   0.946   1.910 -0.2394  0.3379 -0.5803
  630SOL    HW1 1889   2.349   0.961   1.993  1.2924  2.5257  2.1217
  630SOL    HW2 1890   2.277   0.852   1.885 -0.2164  0.4300  2.6355
  631SOL     OW 1891   1.522   3.010   0.689 -0.8754  0.2762 -0.2326
  631SOL    HW1 1892   1.426   3.043   0.679  0.2107  1.9575 -0.1541
  631SOL    HW2 1893   1.576   3.033   0.603  1.1540 -1.6857 -2.3359
  632SOL     OW 1894   3.004   0.948   1.711 -0.0964 -0.5754 -0.4584
  632SOL    HW1 1895   2.971   1.023   1.656  0.4871 -3.1929  1.6874
  632SOL    HW2 1896   2.969   0.860   1.671 -1.9331  1.2703 -0.3711
  633SOL     OW 1897   0.821   0.431   3.017  0.1682 -0.0000  0.6554
  633SOL    HW1 1898   0.822   0.329   3.017 -3.1455 -0.1551 -1.0116
  633SOL    HW2 1899   0.862   0.466   2.929 -0.4996  0.1092  1.3583
  634SOL     OW 1900   0.527   2.385   0.140 -0.0066  0.2919 -0.2826
  634SOL    HW1 1901   0.469   2.453   0.089 -0.5952  0.2683  1.0683
  634SOL    HW2 1902   0.613   2.378   0.090 -0.5321 -0.9404  2.5172
  635SOL     OW 1903   3.090   1.083   1.042  0.0228 -0.7843 -0.5834
  635SOL    HW1 1904   3.031   1.142   0.981  0.6865 -1.9041  2.2729
  635SOL    HW2 1905   0.051   1.017   0.987 -0.4435 -0.9241 -3.3758
  636SOL     OW 1906   0.049   1.395   0.273 -1.0790 -0.3394 -0.0284
  636SOL    HW1 1907   0.134   1.337   0.259 -0.9062 -0.8530  0.4039
  636SOL    HW2 1908   0.066   1.494   0.287 -0.4554  0.0167  0.4324
  637SOL     OW 1909   3.014   2.659   0.437  0.0627  0.3940 -0.7892
  637SOL    HW1 1910   3.034   2.715   0.357  0.0883 -1.6437  1.1356
  637SOL    HW2 1911   3.004   2.720   0.517  2.6306  0.3853  0.8469
  638SOL     OW 1912   2.849   2.302   0.563  0.6621  0.2632 -0.5587
  638SOL    HW1 1913   2.835   2.360   0.644 -0.6118 -0.9479 -1.0789
  638SOL    HW2 1914   2.764   2.246   0.549  0.1449 -1.0613  0.5863
  639SOL     OW 1915   1.480   0.762   0.061 -0.3534 -0.8387 -0.0978
  639SOL    HW1 1916   1.411   0.755   3.078  0.3260 -2.1827 -0.1999
  639SOL    HW2 1917   1.422   0.764   0.144 -0.3680 -0.8187  1.7534
  640SOL     OW 1918   1.715   2.304   1.580 -0.6092  0.6526 -0.2636
  640SOL    HW1 1919   1.722   2.384   1.520 -1.3893  1.0710  2.5379
  640SOL    HW2 1920   1.619   2.281   1.607 -0.3170  0.1763  1.1923
  641SOL     OW 1921   0.073   3.034   0.832  0.0466 -0.4724  0.2601
  641SOL    HW1 1922   0.130   0.022   0.800  1.0313  0.4487 -0.9806
  641SOL    HW2 1923   0.057   3.046   0.931  1.9179 -1.4409 -0.7198
  642SOL     OW 1924   1.264   0.891   1.717 -0.2019  0.0517  0.4090
  642SOL    HW1 1925   1.321   0.809   1.739  0.2941  1.5140  1.4478
  642SOL    HW2 1926   1.280   0.962   1.786 -0.3890 -0.8552 -0.9065
  643SOL     OW 1927   0.857   2.366   2.621 -0.0207 -0.0146  0.4329
  643SOL    HW1 1928   0.779   2.423   2.589  0.5521  1.4477  0.3668
  643SOL    HW2 1929   0.933   2.423   2.653 -0.3445 -0.3190  1.8876
  644SOL     OW 1930   1.168   2.484   2.920 -0.3731  0.1702  0.4521
  644SOL    HW1 1931   1.169   2.507   2.821 -0.9157 -1.3812 -3.1011
  644SOL    HW2 1932   1.259   2.462   2.957  0.4798 -0.8338 -0.1684
  645SOL     OW 1933   1.533   1.464   1.966 -0.2589  0.2308  0.2170
  645SOL    HW1 1934   1.587   1.392   2.016  0.5681 -0.1534  1.4165
  645SOL    HW2 1935   1.524   1.442   1.868  0.5823  1.5679  0.2012
  646SOL     OW 1936   0.672   0.123   0.212  1.1669 -0.2557 -0.4094
  646SOL    HW1 1937   0.608   0.085   0.289 -1.1372 -1.1846  0.0970
  646SOL    HW2 1938   0.624   0.120   0.122  0.8563 -0.9210  1.2257
  647SOL     OW 1939   0.937   3.083   0.604 -0.4309 -0.1815  0.1299
  647SOL    HW1 1940   0.862   3.046   0.542 -0.3402 -2.2289 -0.1999
  647SOL    HW2 1941   0.950   3.034   0.684  0.4748  2.7296 -2.4029
  648SOL     OW 1942   2.354   2.616   1.086 -0.3006 -0.0349 -0.1216
  648SOL    HW1 1943   2.287   2.693   1.078  0.4949 -0.7297 -0.2665
  648SOL    HW2 1944   2.363   2.561   1.000  1.2353 -1.2865 -0.5894
  649SOL     OW 1945   0.683   2.114   2.827  0.3765  0.4545 -0.1684
  649SOL    HW1 1946   0.785   2.132   2.845  1.0286  1.5945  1.0655
  649SOL    HW2 1947   0.648   2.048   2.899 -2.8091 -0.6490 -0.3754
  650SOL     OW 1948   2.049   1.839   1.972  0.7942 -0.1901  0.1113
  650SOL    HW1 1949   2.070   1.799   2.065 -0.5472  2.2741 -2.3178
  650SOL    HW2 1950   2.135   1.886   1.946  0.1569 -0.5014  0.2412
  651SOL     OW 1951   0.011   2.873   2.364 -0.4557 -0.3843 -0.7246
  651SOL    HW1 1952   0.082   2.953   2.354  1.7912  2.3978 -1.7710
  651SOL    HW2 1953   3.012   2.917   2.389 -0.4091  1.2393 -1.8002
  652SOL     OW 1954   2.738   1.771   0.607  0.0501 -0.1130  0.2264
  652SOL    HW1 1955   2.660   1.817   0.655  1.4064 -0.5243  0.9133
  652SOL    HW2 1956   2.718   1.772   0.506 -0.4763  1.7103 -2.2773
  653SOL     OW 1957   2.530   0.675   1.326  0.5048  0.5207 -0.4634
  653SOL    HW1 1958   2.447   0.734   1.340  0.7681 -0.0733 -2.3646
  653SOL    HW2 1959   2.525   0.630   1.234 -0.2093 -0.0191 -0.8526
  654SOL     OW 1960   0.848   0.164   3.077 -0.3127  0.2607  0.1564
  654SOL    HW1 1961   0.795   0.098   3.019  0.7945  0.4297 -1.4492
  654SOL    HW2 1962   0.811   0.169   0.082 -1.5149  0.9241  0.1713
  655SOL     OW 1963   0.575   2.921   1.267  0.0168 -0.6277  0.0018
  655SOL    HW1 1964   0.605   2.938   1.171  0.4837  3.8637 -0.3024
  655SOL    HW2 1965   0.601   2.834   1.302  2.1990  3.4419  1.9112
  656SOL     OW 1966   0.069   2.791   2.121 -0.3661  0.0106  0.1657
  656SOL    HW1 1967   0.166   2.760   2.097 -0.3459 -1.6235  1.1129
  656SOL    HW2 1968   0.060   2.815   2.217 -0.6136 -1.6095 -0.2368
  657SOL     OW 1969   2.347   0.642   0.055  0.3928  0.0360 -0.3533
  657SOL    HW1 1970   2.369   0.562   0.112  0.7135  0.5799 -2.2732
  657SOL    HW2 1971   2.429   0.699   0.039 -2.4988 -0.9163 -3.3607
  658SOL     OW 1972   2.070   1.584   1.201 -0.5352 -0.2699 -0.2659
  658SOL    HW1 1973   2.143   1.514   1.201  0.2353 -0.2001 -1.7407
  658SOL    HW2 1974   2.099   1.682   1.195 -1.3756  1.7277  1.8110
  659SOL     OW 1975   2.708   2.194   2.828  0.4086  0.3476 -0.3060
  659SOL    HW1 1976   2.680   2.292   2.830  3.1789 -1.5687 -0.2561
  659SOL    HW2 1977   2.776   2.175   2.900 -0.1088  0.3855 -0.3950
  660SOL     OW 1978   1.101   0.171   0.050  0.4703 -0.1931 -0.2061
  660SOL    HW1 1979   1.160   0.223   3.083  0.9227 -1.8821  1.0285
  660SOL    HW2 1980   1.006   0.169   0.009 -0.0294  4.2186 -0.0288
  661SOL     OW 1981   2.391   0.122   0.427  0.3331 -0.3570  0.5322
  661SOL    HW1 1982   2.315   0.179   0.468 -1.3214 -0.5118 -0.3859
  661SOL    HW2 1983   2.394   0.142   0.331  2.8571 -1.3426  2.0377
  662SOL     OW 1984   0.616   0.256   1.183  0.1627 -0.6558  0.3491
  662SOL    HW1 1985   0.672   0.217   1.104 -0.3510  2.3766 -1.5955
  662SOL    HW2 1986   0.524   0.213   1.183  0.0002  6.3007  0.2664
  663SOL     OW 1987   1.587   2.918   2.327  0.2402 -0.0182  0.0397
  663SOL    HW1 1988   1.536   2.841   2.291 -0.7927 -0.3768 -0.8844
  663SOL    HW2 1989   1.663   2.883   2.384  0.0824  0.8638 -1.6175
  664SOL     OW 1990   0.805   2.271   1.602 -0.3081  0.0657  0.0247
  664SOL    HW1 1991   0.717   2.244   1.645  2.9942 -1.3510  0.8206
  664SOL    HW2 1992   0.807   2.365   1.571  2.0444 -1.1557  1.1445
  665SOL     OW 1993   0.723   2.438   2.013  0.5550  0.4568  0.2559
  665SOL    HW1 1994   0.762   2.347   1.990 -1.2531 -1.6807 -2.9583
  665SOL    HW2 1995   0.796   2.509   2.015  0.6131  0.4183  1.0545
  666SOL     OW 1996   0.150   2.871   2.641 -0.6351  0.5723  0.6414
  666SOL    HW1 1997   0.155   2.929   2.557  1.5409 -1.0689 -2.2014
  666SOL    HW2 1998   0.241   2.842   2.668 -3.6457  0.2246 -0.5207
  667SOL     OW 1999   1.509   1.569   1.512  0.0200 -0.0638  0.4337
  667SOL    HW1 2000   1.411   1.575   1.499  2.9835  1.2714  1.4207
  667SOL    HW2 2001   1.559   1.593   1.423 -0.2636 -0.4479 -0.5496
  668SOL     OW 2002   1.249   0.416   1.823 -0.3884 -0.1184  0.6831
  668SOL    HW1 2003   1.266   0.320   1.849  1.4812  3.0837  0.0445
  668SOL    HW2 2004   1.163   0.452   1.861 -0.8933 -0.3339  0.5025
  669SOL     OW 2005   2.528   2.333   1.162  0.1452  0.3330 -0.0119
  669SOL    HW1 2006   2.439   2.302   1.118 -2.9916 -2.2000 -0.2114
  669SOL    HW2 2007   2.522   2.430   1.189 -1.8318 -0.0182 -2.6405
  670SOL     OW 2008   1.430   2.413   2.995  0.2621  0.8402 -0.2512
  670SOL    HW1 2009   1.427   2.310   3.013 -2.5789  0.6299 -2.2167
  670SOL    HW2 2010   1.478   2.466   3.066 -1.1319  0.6748  0.1209
  671SOL     OW 2011   1.259   1.085   0.634  0.4124 -0.2690  0.6101
  671SOL    HW1 2012   1.309   1.054   0.716  0.4771 -0.6317 -1.1056
  671SOL    HW2 2013   1.224   1.004   0.587  0.9929  0.4564  0.8982
  672SOL     OW 2014   3.027   1.289   2.716 -0.0225 -0.4330 -0.6959
  672SOL    HW1 2015   3.027   1.381   2.763 -0.5458  1.9298  1.1289
  672SOL    HW2 2016   0.028   1.246   2.712 -2.7847  2.5611 -0.2488
  673SOL     OW 2017   0.045   1.982   1.587  0.8094 -0.3383  0.2222
  673SOL    HW1 2018   3.062   2.047   1.623  0.5676  1.1063  0.0520
  673SOL    HW2 2019   0.022   1.885   1.612 -0.9793 -0.2810  2.6617
  674SOL     OW 2020   0.373   2.634   2.309 -0.8478  0.1093 -0.1497
  674SOL    HW1 2021   0.275   2.605   2.334 -0.3901 -1.7559  1.6670
  674SOL    HW2 2022   0.420   2.552   2.267  2.0116 -0.7980 -1.5210
  675SOL     OW 2023   0.801   0.978   1.651 -0.0343  0.1579  0.5427
  675SOL    HW1 2024   0.752   0.996   1.560  0.9863  0.6669  1.1736
  675SOL    HW2 2025   0.749   1.016   1.730  1.2056 -1.2864 -0.2089
  676SOL     OW 2026   2.557   0.463   0.966 -0.4972 -0.4033 -0.3237
  676SOL    HW1 2027   2.603   0.555   0.948 -0.6037 -0.1271  0.0512
  676SOL    HW2 2028   2.575   0.438   1.062  0.7677  0.5647  2.5629
  677SOL     OW 2029   2.212   1.658   2.948  0.0156  0.1708 -0.6205
  677SOL    HW1 2030   2.176   1.561   2.939 -0.1463 -0.5174 -0.2832
  677SOL    HW2 2031   2.310   1.661   2.908 -0.6315 -1.9273 -0.2960
  678SOL     OW 2032   2.791   0.738   1.201 -0.2500 -0.2587 -0.0936
  678SOL    HW1 2033   2.716   0.755   1.265  0.9309 -1.4861 -0.6135
  678SOL    HW2 2034   2.849   0.820   1.197 -0.3059  0.1751  2.8630
  679SOL     OW 2035   2.421   0.413   0.212  1.1937 -0.1325  0.7832
  679SOL    HW1 2036   2.495   0.462   0.257  1.6329 -0.7315  0.4594
  679SOL    HW2 2037   2.342   0.390   0.269  0.1139 -1.0411 -2.5083
  680SOL     OW 2038   0.231   1.831   2.177 -0.4539 -0.2894 -0.1818
  680SOL    HW1 2039   0.324   1.801   2.145 -0.5006  0.0945  0.6903
  680SOL    HW2 2040   0.236   1.850   2.279  1.8519 -0.5311 -0.4912
  681SOL     OW 2041   2.507   1.971   1.149 -0.1377 -0.5959  0.0785
  681SOL    HW1 2042   2.417   2.024   1.153 -2.5981  0.7578  0.3457
  681SOL    HW2 2043   2.558   1.995   1.063 -1.8741 -0.7064 -2.3635
  682SOL     OW 2044   2.947   1.960   2.542 -0.1885  0.6052  0.6395
  682SOL    HW1 2045   2.968   1.918   2.450 -0.1920 -2.6714 -1.9355
  682SOL    HW2 2046   3.029   1.970   2.599  1.5405 -0.4153  1.8957
  683SOL     OW 2047   0.240   2.200   1.599 -0.3768 -0.5189  0.4021
  683SOL    HW1 2048   0.225   2.256   1.513 -0.8413  1.5935 -0.0113
  683SOL    HW2 2049   0.231   2.100   1.580 -0.3112 -2.3705 -0.0119
  684SOL     OW 2050   2.879   1.186   2.399 -0.2711  0.1167 -0.5534
  684SOL    HW1 2051   2.914   1.217   2.313 -1.5716  0.0322  2.5707
  684SOL    HW2 2052   2.943   1.204   2.475 -1.7363  0.2130 -1.2008
  685SOL     OW 2053   1.479   1.194   0.544 -0.6597 -0.1564 -0.6277
  685SOL    HW1 2054   1.384   1.192   0.581 -1.0898 -0.2518  0.7872
  685SOL    HW2 2055   1.524   1.103   0.566 -1.3681 -0.1058 -4.0838
  686SOL     OW 2056   0.490   0.139   0.680 -0.2112 -0.4187 -0.0361
  686SOL    HW1 2057   0.511   0.045   0.716 -0.7672 -2.2072 -0.3956
  686SOL    HW2 2058   0.396   0.175   0.709 -3.3917  0.8240 -2.4012
  687SOL     OW 2059   1.503   1.619   2.597 -0.0367  0.1206  0.2799
  687SOL    HW1 2060   1.587   1.662   2.567 -0.7441 -3.6544 -0.7175
  687SOL    HW2 2061   1.443   1.608   2.518  0.4492  2.5139 -1.1182
  688SOL     OW 2062   1.482   1.362   1.697 -0.5941 -0.1269 -0.0649
  688SOL    HW1 2063   1.498   1.441   1.637 -1.9459 -0.4860  1.2018
  688SOL    HW2 2064   1.390   1.329   1.677  1.7719  1.1331 -1.3350
  689SOL     OW 2065   2.214   0.123   1.010 -0.0087 -0.6231  0.5231
  689SOL    HW1 2066   2.167   0.049   0.952 -1.0475 -1.1608 -0.7689
  689SOL    HW2 2067   2.308   0.092   1.037 -0.9721 -0.0844 -0.2444
  690SOL     OW 2068   0.216   1.379   1.074 -0.3650 -0.1612  0.2649
  690SOL    HW1 2069   0.137   1.376   1.009 -0.3751 -1.0284  1.3366
  690SOL    HW2 2070   0.231   1.290   1.118 -0.3891  1.2356 -0.9453
  691SOL     OW 2071   0.359   2.212   1.254 -0.0146  0.6728  0.2167
  691SOL    HW1 2072   0.277   2.245   1.199 -0.9782  0.8923 -0.4045
  691SOL    HW2 2073   0.418   2.287   1.290  0.0788  2.5480 -1.7851
  692SOL     OW 2074   2.182   0.546   1.438 -0.4259  0.5629  0.3814
  692SOL    HW1 2075   2.207   0.490   1.357  1.1221  0.1565  1.0710
  692SOL    HW2 2076   2.248   0.536   1.513 -0.1564  1.6852 -0.5506
  693SOL     OW 2077   0.657   1.699   2.339  0.3207  0.5849  0.0460
  693SOL    HW1 2078   0.647   1.793   2.300  1.3121 -1.3658 -0.1196
  693SOL    HW2 2079   0.745   1.658   2.309  0.1040  0.4323  0.5879
  694SOL     OW 2080   1.573   1.245   1.298  0.0884  0.1085 -0.0558
  694SOL    HW1 2081   1.622   1.234   1.387 -0.1901 -0.5939 -1.7585
  694SOL    HW2 2082   1.484   1.288   1.311  3.0139 -3.7089 -0.2753
  695SOL     OW 2083   1.056   1.382   0.834 -0.5557  0.3123  0.0649
  695SOL    HW1 2084   1.142   1.438   0.855 -1.8858  3.8857 -1.1285
  695SOL    HW2 2085   0.975   1.439   0.817  1.5386  0.1244 -0.0930
  696SOL     OW 2086   0.751   2.779   0.224 -0.1159 -0.3627 -0.0986
  696SOL    HW1 2087   0.819   2.704   0.204  1.1555 -2.6798 -2.7294
  696SOL    HW2 2088   0.666   2.761   0.177  2.8350  1.5817  0.5200
  697SOL     OW 2089   1.496   0.622   1.497  0.2729 -0.0733  0.4943
  697SOL    HW1 2090   1.561   0.651   1.570 -0.9561 -0.1999 -3.3874
  697SOL    HW2 2091   1.414   0.577   1.531  1.5296 -1.1359 -1.7450
  698SOL     OW 2092   1.601   1.775   2.160 -0.6079  0.1169  0.3235
  698SOL    HW1 2093   1.686   1.716   2.148  2.3368  1.0878  0.0179
  698SOL    HW2 2094   1.542   1.769   2.071 -3.8321 -1.9906  1.4412
  699SOL     OW 2095   2.475   0.591   1.900 -0.7372 -0.7725  0.5843
  699SOL    HW1 2096   2.418   0.603   1.984 -0.0275  0.1289  1.9264
  699SOL    HW2 2097   2.574   0.560   1.916  2.5068 -1.0469  0.8096
  700SOL     OW 2098   1.305   2.199   0.572  0.0791 -0.3489  0.0889
  700SOL    HW1 2099   1.390   2.148   0.583  0.0611 -0.3428 -0.8761
  700SOL    HW2 2100   1.231   2.136   0.551 -0.5730 -2.6682 -3.8317
  701SOL     OW 2101   2.500   2.899   2.372 -0.3590  0.0222 -0.4509
  701SOL    HW1 2102   2.532   2.798   2.376  3.0482 -2.3878  1.3028
  701SOL    HW2 2103   2.408   2.910   2.328  3.3676 -0.2529  0.1892
  702SOL     OW 2104   0.745   2.958   0.468  0.1949 -0.3861  0.4351
  702SOL    HW1 2105   0.760   2.908   0.553  2.2245  0.0598 -0.2092
  702SOL    HW2 2106   0.756   2.898   0.385  0.7521  0.2664 -3.3496
  703SOL     OW 2107   2.288   0.047   2.122 -0.5062  0.0549  0.1122
  703SOL    HW1 2108   2.270   3.069   2.198  1.5144  0.6058 -0.6790
  703SOL    HW2 2109   2.385   0.087   2.126  0.9069  1.2165  1.1742
  704SOL     OW 2110   2.584   2.247   0.195  1.0041  0.3741  0.0745
  704SOL    HW1 2111   2.513   2.200   0.251  0.0427  0.4798  0.3933
  704SOL    HW2 2112   2.576   2.349   0.218 -2.2574  1.0604  1.2130
  705SOL     OW 2113   2.447   2.617   2.426  0.1493  0.5172  0.1475
  705SOL    HW1 2114   2.487   2.530   2.403  0.4491  0.4857  1.5143
  705SOL    HW2 2115   2.345   2.609   2.412 -1.5000  0.2274  1.5080
  706SOL     OW 2116   2.484   0.150   1.063  0.7998  0.5072 -0.2721
  706SOL    HW1 2117   2.528   0.235   1.031 -0.7026  0.0177  2.0214
  706SOL    HW2 2118   2.533   0.119   1.141 -0.1963 -0.6499 -1.7977
  707SOL     OW 2119   0.836   0.257   2.470 -0.3006  0.2801 -0.4674
  707SOL    HW1 2120   0.871   0.214   2.552  1.8366 -0.2460  1.6354
  707SOL    HW2 2121   0.735   0.253   2.472  0.0306  0.2374  2.1450
  708SOL     OW 2122   0.120   2.214   1.858  0.6306  0.3319 -0.0099
  708SOL    HW1 2123   0.116   2.211   1.757  0.8634  1.9381  3.0391
  708SOL    HW2 2124   0.107   2.124   1.895  0.0660  1.3392  0.4195
  709SOL     OW 2125   1.453   0.110   1.601  0.3009 -0.1697 -0.4424
  709SOL    HW1 2126   1.485   0.159   1.516  2.3086 -0.1789  0.3281
  709SOL    HW2 2127   1.542   0.089   1.652  0.2522 -1.3057 -0.3795
  710SOL     OW 2128   1.362   2.828   2.766  0.3045  0.2992  0.0626
  710SOL    HW1 2129   1.445   2.861   2.817 -0.1152 -2.5054  3.0698
  710SOL    HW2 2130   1.334   2.891   2.686 -1.6125  1.7196 -0.6028
  711SOL     OW 2131   1.192   2.207   2.877 -0.2592 -0.4167  0.1807
  711SOL    HW1 2132   1.171   2.308   2.903 -1.3155  0.6064  0.8742
  711SOL    HW2 2133   1.209   2.191   2.778 -0.6731 -0.9054  1.0047
  712SOL     OW 2134   0.950   2.093   2.907  0.3565 -0.0966  0.1135
  712SOL    HW1 2135   1.039   2.142   2.899 -2.0562  2.3508 -1.8709
  712SOL    HW2 2136   0.945   2.051   3.000  0.3432 -0.4181 -0.5030
  713SOL     OW 2137   2.038   1.093   2.072  0.2636 -0.0305  0.0055
  713SOL    HW1 2138   2.100   1.166   2.037  0.3349 -1.1215  0.2947
  713SOL    HW2 2139   2.088   1.009   2.090 -0.4054 -0.3565  0.6665
  714SOL     OW 2140   0.919   1.263   1.928  0.5167 -0.2922  0.4710
  714SOL    HW1 2141   0.848   1.260   1.859 -0.7721 -1.3704  2.2058
  714SOL    HW2 2142   0.918   1.172   1.971  2.0344 -0.8694 -0.2332
  715SOL     OW 2143   2.736   0.567   0.274  0.7520  0.0850 -0.2597
  715SOL    HW1 2144   2.772   0.476   0.301 -1.5456 -0.3074  0.5109
  715SOL    HW2 2145   2.642   0.579   0.309  2.4677 -1.1226 -2.3338
  716SOL     OW 2146   2.757   2.552   1.567 -0.9608  0.0649 -0.2825
  716SOL    HW1 2147   2.666   2.511   1.567  3.2875 -1.8843 -0.6521
  716SOL    HW2 2148   2.793   2.566   1.666  1.3106 -0.5679  2.6239
  717SOL     OW 2149   2.374   0.843   0.959  0.4073 -0.2750  0.3426
  717SOL    HW1 2150   2.296   0.904   0.980  0.9200  1.5385 -2.1813
  717SOL    HW2 2151   2.373   0.817   0.858 -0.2065 -2.5918  0.4353
  718SOL     OW 2152   1.244   1.574   1.455  0.2587 -0.1215  0.2593
  718SOL    HW1 2153   1.200   1.535   1.537  2.0240 -1.0743  1.0985
  718SOL    HW2 2154   1.195   1.657   1.427  2.1849 -1.0712  2.4248
  719SOL     OW 2155   3.003   0.138   2.635 -0.6184 -0.5460 -0.5565
  719SOL    HW1 2156   2.941   0.098   2.566  0.7590  4.1057 -0.9396
  719SOL    HW2 2157   3.043   0.070   2.697  0.5946 -0.2810 -0.3545
  720SOL     OW 2158   0.879   0.386   0.963  0.3277  0.0447 -0.1035
  720SOL    HW1 2159   0.951   0.404   0.900 -1.4896 -0.0960  1.6471
  720SOL    HW2 2160   0.854   0.469   1.013  0.0494 -0.5400 -0.0390
  721SOL     OW 2161   2.955   0.741   0.304  0.0006  0.0763 -0.2195
  721SOL    HW1 2162   2.894   0.658   0.310 -2.2913  1.1165 -1.3508
  721SOL    HW2 2163   2.908   0.814   0.354  0.9109 -1.3384  0.6566
  722SOL     OW 2164   0.843   2.180   2.202  0.2506 -0.2143  0.0940
  722SOL    HW1 2165   0.856   2.160   2.101  1.3002 -1.4319 -1.9227
  722SOL    HW2 2166   0.887   2.269   2.226 -0.3051 -1.1589  0.0564
  723SOL     OW 2167   1.707   2.959   1.050  0.1038  0.2919  0.0154
  723SOL    HW1 2168   1.680   3.045   1.003 -0.5449  0.6442 -0.4960
  723SOL    HW2 2169   1.804   2.971   1.083  0.9834 -0.5002  0.0440
  724SOL     OW 2170   1.508   1.989   1.810 -0.0925  0.4724 -0.1923
  724SOL    HW1 2171   1.475   2.066   1.868 -3.5269  2.2213 -0.6784
  724SOL    HW2 2172   1.475   1.902   1.843  0.7203 -1.3192 -2.5379
  725SOL     OW 2173   1.148   2.415   1.218  0.5487 -0.3394 -0.2609
  725SOL    HW1 2174   1.056   2.462   1.218 -0.1793  0.9479  2.7234
  725SOL    HW2 2175   1.197   2.431   1.126 -1.7847 -2.5525 -2.3644
  726SOL     OW 2176   1.958   2.715   0.093  0.1771  0.0099 -0.1982
  726SOL    HW1 2177   1.903   2.678   0.014  1.7907 -0.6113  0.6869
  726SOL    HW2 2178   1.905   2.789   0.140 -2.7240  0.7000  1.7942
  727SOL     OW 2179   1.590   1.658   1.003 -0.0837  0.2638 -0.5098
  727SOL    HW1 2180   1.680   1.610   1.014  1.6044 -1.8740 -2.2152
  727SOL    HW2 2181   1.513   1.618   1.057  1.0072 -1.6562  0.9448
  728SOL     OW 2182   2.121   2.681   1.993  0.3738  0.1554 -0.5877
  728SOL    HW1 2183   2.096   2.683   2.093  0.3535  0.0648  0.9019
  728SOL    HW2 2184   2.185   2.753   1.968 -1.9810 -0.1337 -0.0545
  729SOL     OW 2185   2.018   2.373   1.325  0.3945 -0.5236 -0.3447
  729SOL    HW1 2186   1.958   2.292   1.339  2.7643 -0.5052  1.5857
  729SOL    HW2 2187   2.117   2.339   1.327  5.7905 -1.2756 -0.3234
  730SOL     OW 2188   1.718   0.988   2.316 -0.4718 -0.2687  0.3255
  730SOL    HW1 2189   1.737   0.888   2.323 -0.3493 -2.6618 -0.2872
  730SOL    HW2 2190   1.616   1.002   2.316  0.3265 -1.8015 -0.5327
  731SOL     OW 2191   0.916   2.804   1.220  0.2682  0.2623  0.6799
  731SOL    HW1 2192   0.976   2.875   1.263  0.3135 -0.4885  0.1465
  731SOL    HW2 2193   0.938   2.705   1.238 -2.3698 -0.8118 -0.5253
  732SOL     OW 2194   1.208   2.930   0.818  0.3638  0.7523 -0.0277
  732SOL    HW1 2195   1.193   2.848   0.756  0.3375  0.3015  2.9144
  732SOL    HW2 2196   1.281   2.901   0.884 -0.6081 -1.4144  1.7312
  733SOL     OW 2197   1.080   1.276   0.591 -0.3385 -0.5652 -0.6383
  733SOL    HW1 2198   1.068   1.313   0.684  0.9760  0.2751  1.2855
  733SOL    HW2 2199   1.147   1.202   0.599 -0.0808  1.3519  0.4427
  734SOL     OW 2200   2.512   2.083   2.615 -0.1967  0.2773  0.3965
  734SOL    HW1 2201   2.550   2.151   2.684  0.0791  0.8420  0.1345
  734SOL    HW2 2202   2.567   2.087   2.525  0.4602 -2.4675  2.6120
  735SOL     OW 2203   0.808   0.137   1.013  0.0723 -0.4670  0.0491
  735SOL    HW1 2204   0.863   0.077   0.952  2.5482  0.4298  0.8924
  735SOL    HW2 2205   0.836   0.236   1.004  1.9412 -0.1225  0.8373
  736SOL     OW 2206   1.571   2.143   2.660  0.2193  0.5426 -0.5876
  736SOL    HW1 2207   1.553   2.244   2.664 -1.1933 -0.2571  1.4257
  736SOL    HW2 2208   1.638   2.113   2.738  1.5392 -0.7658  4.3866
  737SOL     OW 2209   0.908   2.521   1.233  0.0976 -0.0426 -0.1440
  737SOL    HW1 2210   0.839   2.542   1.158  0.2367 -0.8386  0.7658
  737SOL    HW2 2211   0.851   2.488   1.309  0.7163  0.0047 -2.8272
  738SOL     OW 2212   1.878   2.809   2.469 -0.0871 -0.4021 -0.5196
  738SOL    HW1 2213   1.962   2.785   2.523  1.7458  1.0018 -2.2269
  738SOL    HW2 2214   1.801   2.749   2.485  4.4304  3.6672 -0.1302
  739SOL     OW 2215   1.351   2.506   2.164  0.8296 -0.5838  0.5699
  739SOL    HW1 2216   1.279   2.440   2.134  1.3872 -0.9279 -1.4710
  739SOL    HW2 2217   1.442   2.470   2.141 -0.3998  0.5446 -1.7629
  740SOL     OW 2218   1.427   2.418   1.394 -0.1082 -0.1979 -0.1030
  740SOL    HW1 2219   1.327   2.410   1.383  0.7074 -0.2625  1.9783
  740SOL    HW2 2220   1.453   2.516   1.399  0.1955 -0.9821  0.4963
  741SOL     OW 2221   2.667   1.102   3.060  0.3631  0.2066 -0.4290
  741SOL    HW1 2222   2.649   1.185   0.025  0.5772  1.9649  0.6025
  741SOL    HW2 2223   2.651   1.016   0.031 -1.0418  0.8473  2.0900
  742SOL     OW 2224   0.511   1.801   2.562  0.1537 -0.4019  0.2282
  742SOL    HW1 2225   0.538   1.897   2.546  0.3332 -0.1730  3.1391
  742SOL    HW2 2226   0.524   1.744   2.475  1.2129 -1.3361 -1.4190
  743SOL     OW 2227   0.322   0.868   2.553 -0.6811 -0.6027 -0.5429
  743SOL    HW1 2228   0.395   0.799   2.571  1.4996 -0.8348  1.4707
  743SOL    HW2 2229   0.231   0.842   2.586  0.3951 -1.4334  0.3678
  744SOL     OW 2230   2.336   2.527   0.832 -0.1883  0.0908  0.3727
  744SOL    HW1 2231   2.421   2.561   0.779  0.7593 -0.1475  0.8844
  744SOL    HW2 2232   2.253   2.579   0.808 -0.3668 -0.3335  1.2981
  745SOL     OW 2233   2.133   1.798   1.521 -0.4831 -0.2504  0.0120
  745SOL    HW1 2234   2.159   1.781   1.420  2.2921 -0.4294  0.3460
  745SOL    HW2 2235   2.069   1.877   1.526  0.8920 -1.0864 -0.3354
  746SOL     OW 2236   2.179   0.944   0.704 -0.0376 -0.4096  0.0554
  746SOL    HW1 2237   2.111   0.908   0.635 -1.2048  1.9211 -1.6963
  746SOL    HW2 2238   2.142   0.934   0.797  0.1167  3.0035  0.8598
  747SOL     OW 2239   1.516   2.052   0.681 -0.1143 -0.4429 -0.4775
  747SOL    HW1 2240   1.490   1.970   0.738  2.2869  2.2931  1.0497
  747SOL    HW2 2241   1.602   2.016   0.643 -1.2301  0.3950  1.6674
  748SOL     OW 2242   0.781   1.782   0.648 -0.2973 -0.1747 -0.0700
  748SOL    HW1 2243   0.769   1.760   0.547  0.4069 -1.5530 -3.0721
  748SOL    HW2 2244   0.698   1.829   0.687 -1.0390  1.6123 -1.4626
  749SOL     OW 2245   2.932   2.943   2.072  0.4613 -0.6551 -0.2512
  749SOL    HW1 2246   2.968   3.038   2.075  1.1091 -0.1755  1.5165
  749SOL    HW2 2247   3.000   2.878   2.110  1.2470  0.4814 -0.3049
  750SOL     OW 2248   1.707   0.381   1.136  0.2659 -0.3554  0.5372
  750SOL    HW1 2249   1.788   0.399   1.080 -2.6387  1.4565 -1.0673
  750SOL    HW2 2250   1.699   0.438   1.217 -3.6829  0.7251 -1.7747
  751SOL     OW 2251   1.839   2.598   2.978 -0.3764  0.4788  0.0992
  751SOL    HW1 2252   1.746   2.560   2.991  0.4928  1.0201  0.5870
  751SOL    HW2 2253   1.862   2.610   2.876 -1.5460 -1.7050  0.6808
  752SOL     OW 2254   1.975   2.004   0.237  0.0169  0.6023  0.0715
  752SOL    HW1 2255   1.920   1.936   0.192  1.2424 -1.4465 -0.4790
  752SOL    HW2 2256   1.993   2.075   0.166 -1.0065  0.0848  1.1292
  753SOL     OW 2257   1.940   1.062   2.457 -0.2074 -0.3762 -0.1560
  753SOL    HW1 2258   1.859   1.035   2.402 -2.7537 -0.0602 -1.1011
  753SOL    HW2 2259   2.010   0.991   2.442 -0.0404  1.8543 -1.0915
  754SOL     OW 2260   3.029   2.556   1.119  0.0857  0.2195  0.3068
  754SOL    HW1 2261   0.023   2.501   1.122 -0.5640  0.8759 -1.7762
  754SOL    HW2 2262   3.036   2.619   1.041 -0.1087 -0.6878  2.5570
  755SOL     OW 2263   1.982   0.640   0.993 -0.4195 -0.2881 -0.0047
  755SOL    HW1 2264   2.080   0.638   1.011 -0.0002 -1.1646 -0.2841
  755SOL    HW2 2265   1.930   0.708   1.050  1.1762  0.4446  1.9095
  756SOL     OW 2266   1.210   1.419   2.822 -0.5683 -0.1755 -0.0908
  756SOL    HW1 2267   1.207   1.509   2.869 -0.4880 -0.9345 -1.0268
  756SOL    HW2 2268   1.292   1.367   2.858  0.1354  3.6383 -1.2808
  757SOL     OW 2269   2.137   2.830   1.335 -0.1944 -0.2411  0.2104
  757SOL    HW1 2270   2.209   2.779   1.391  0.5027 -0.5544 -0.3246
  757SOL    HW2 2271   2.184   2.886   1.265 -0.4450  0.8364 -0.3324
  758SOL     OW 2272   0.839   2.528   1.535 -0.0113  0.0399  0.4899
  758SOL    HW1 2273   0.805   2.587   1.611 -0.6217 -1.2708 -2.6100
  758SOL    HW2 2274   0.925   2.565   1.500  0.8322 -0.1099  4.4879
  759SOL     OW 2275   2.270   1.388   1.158  0.4192 -0.7876  0.3657
  759SOL    HW1 2276   2.312   1.409   1.067 -0.1558  1.6862 -0.6055
  759SOL    HW2 2277   2.345   1.376   1.225 -2.1088 -2.2997 -0.8342
  760SOL     OW 2278   1.831   1.059   1.695  0.0613  0.2608 -0.2747
  760SOL    HW1 2279   1.833   1.026   1.791  0.2900 -1.4410  1.4223
  760SOL    HW2 2280   1.922   1.055   1.653  2.6672  0.9459 -2.3811
  761SOL     OW 2281   2.017   3.013   0.406 -0.1116 -0.1804 -0.2513
  761SOL    HW1 2282   2.032   3.085   0.478  0.9291 -0.3902  1.4597
  761SOL    HW2 2283   2.055   2.922   0.439 -0.3941 -3.0030  1.7318
  762SOL     OW 2284   1.990   2.199   0.077 -0.2339  0.3714  0.1610
  762SOL    HW1 2285   1.958   2.184   3.072  2.7773  0.0985 -0.7995
  762SOL    HW2 2286   1.953   2.285   0.114  1.9882 -1.9806  1.0129
  763SOL     OW 2287   0.600   0.981   1.042 -0.6134  0.3404  0.0287
  763SOL    HW1 2288   0.662   0.924   0.985  1.7468 -0.2554 -3.1846
  763SOL    HW2 2289   0.642   1.008   1.129 -2.7160  2.9112 -0.7886
  764SOL     OW 2290   2.890   2.135   3.024  0.2500 -0.7813  0.2709
  764SOL    HW1 2291   2.877   2.184   0.023  1.7201  0.1234  2.7645
  764SOL    HW2 2292   2.923   2.038   3.047  1.8023 -0.8535  0.8463
  765SOL     OW 2293   0.851   0.049   1.985  0.3609  0.1137  0.4106
  765SOL    HW1 2294   0.890   0.091   2.069 -3.3087 -1.5899  0.2527
  765SOL    HW2 2295   0.909   0.064   1.901 -1.2927 -0.1708  0.2294
  766SOL     OW 2296   2.912   1.447   2.479  0.2803 -0.4515 -0.1902
  766SOL    HW1 2297   3.000   1.448   2.528  1.4359 -3.4209 -0.9893
  766SOL    HW2 2298   2.910   1.505   2.396 -0.8027 -1.1502  4.4441
  767SOL     OW 2299   0.034   1.702   1.630 -0.3455 -0.2257 -0.3870
  767SOL    HW1 2300   3.056   1.646   1.681 -1.0250  0.1510 -1.2101
  767SOL    HW2 2301   0.035   1.675   1.534  0.1260 -2.1870  1.4337
  768SOL     OW 2302   0.987   0.760   2.859  0.4212 -0.6300 -0.1397
  768SOL    HW1 2303   0.952   0.831   2.924 -2.1223  0.9841  1.1380
  768SOL    HW2 2304   1.072   0.791   2.810  1.4939  0.1790  1.9163
  769SOL     OW 2305   2.112   2.759   0.417  0.0000  0.0710  0.0342
  769SOL    HW1 2306   2.128   2.690   0.493  1.9591  1.9568  0.3807
  769SOL    HW2 2307   2.099   2.711   0.330 -1.8697  1.9219 -1.9153
  770SOL     OW 2308   2.827   0.349   2.701 -0.0967  0.3805 -0.4539
  770SOL    HW1 2309   2.829   0.399   2.616 -0.2269 -2.7274  3.0064
  770SOL    HW2 2310   2.893   0.271   2.692  0.4343  0.3040  0.7541
  771SOL     OW 2311   1.375   2.430   1.840  0.1845 -0.2896 -0.0626
  771SOL    HW1 2312   1.272   2.442   1.846  1.4623 -0.1497  0.3365
  771SOL    HW2 2313   1.398   2.365   1.765 -0.0837 -1.9543  0.6208
  772SOL     OW 2314   0.592   0.583   3.045 -0.0932 -0.2215 -0.0290
  772SOL    HW1 2315   0.668   0.516   3.037 -1.0024  4.2683 -1.3652
  772SOL    HW2 2316   0.512   0.552   2.987 -0.1230 -0.2768  2.4668
  773SOL     OW 2317   2.996   1.230   1.554 -0.4526 -0.5648 -0.3113
  773SOL    HW1 2318   2.943   1.253   1.473  0.8984 -1.7324 -1.3576
  773SOL    HW2 2319   2.959   1.274   1.640  1.3789 -0.5956 -0.7844
  774SOL     OW 2320   1.521   0.851   0.342 -0.6238 -0.0554 -0.1414
  774SOL    HW1 2321   1.530   0.752   0.333 -1.5251 -2.1959 -0.4351
  774SOL    HW2 2322   1.534   0.876   0.439 -0.8159 -0.8393 -0.6709
  775SOL     OW 2323   2.228   2.785   0.031  0.0831 -0.1327  0.0733
  775SOL    HW1 2324   2.250   2.883   0.011 -0.1453  0.0496  1.8166
  775SOL    HW2 2325   2.130   2.771   0.048  1.5040  2.1851 -0.8568
  776SOL     OW 2326   2.702   0.667   2.181 -0.2639  0.1480  0.3320
  776SOL    HW1 2327   2.724   0.764   2.148 -1.8302  1.5539  2.4555
  776SOL    HW2 2328   2.631   0.674   2.254  2.2166 -2.1758  0.2648
  777SOL     OW 2329   0.339   1.312   2.546  0.3910  0.3744 -0.0219
  777SOL    HW1 2330   0.442   1.301   2.539  0.9339  0.1472  0.5026
  777SOL    HW2 2331   0.290   1.247   2.479 -2.3589 -1.9258  1.6116
  778SOL     OW 2332   0.816   0.253   0.392 -0.0274 -0.4686  0.3848
  778SOL    HW1 2333   0.856   0.191   0.460  0.1291  0.3465 -1.8269
  778SOL    HW2 2334   0.754   0.212   0.324  0.6884  2.9158 -0.5027
  779SOL     OW 2335   0.604   0.953   2.826 -0.1507  0.0499  0.1891
  779SOL    HW1 2336   0.686   1.006   2.791 -0.6463  0.6854 -0.3226
  779SOL    HW2 2337   0.586   0.873   2.765 -0.8373 -0.3218 -2.1128
  780SOL     OW 2338   2.131   0.883   2.391  0.2915 -0.0195 -0.3522
  780SOL    HW1 2339   2.166   0.845   2.480  2.0975  1.8715  2.7593
  780SOL    HW2 2340   2.099   0.814   2.330  3.3296  1.9499 -0.7926
  781SOL     OW 2341   2.885   1.307   1.780 -0.2302 -0.1181  0.1384
  781SOL    HW1 2342   2.958   1.265   1.842 -0.0231 -1.3239  2.7240
  781SOL    HW2 2343   2.789   1.281   1.801  0.7883  0.8614 -3.3144
  782SOL     OW 2344   0.921   1.753   2.379 -0.5782  0.1405  0.0882
  782SOL    HW1 2345   0.917   1.837   2.321  1.1072  0.7357 -2.6820
  782SOL    HW2 2346   0.879   1.773   2.473 -0.5129  1.2647  0.8579
  783SOL     OW 2347   0.477   2.733   1.441 -0.6460  0.1977  0.3388
  783SOL    HW1 2348   0.380   2.722   1.481 -2.9456  0.5366  2.0192
  783SOL    HW2 2349   0.540   2.760   1.512  2.0575  0.9656  1.2550
  784SOL     OW 2350   1.489   0.455   2.901  0.1049  0.3452 -0.1603
  784SOL    HW1 2351   1.578   0.494   2.868 -1.5011 -0.5879 -0.6118
  784SOL    HW2 2352   1.479   0.442   3.000  1.2130  0.7117 -1.6508
  785SOL     OW 2353   1.330   0.288   2.776  0.0774 -0.1848 -0.2446
  785SOL    HW1 2354   1.400   0.353   2.823  1.4302  4.0394 -0.9459
  785SOL    HW2 2355   1.380   0.222   2.715 -0.5489  2.0453  1.3972
  786SOL     OW 2356   0.362   1.671   0.353 -0.7102 -0.0293  0.2209
  786SOL    HW1 2357   0.409   1.615   0.428  0.1913 -0.0543  1.6969
  786SOL    HW2 2358   0.423   1.709   0.278 -0.9644  0.4435 -1.1594
  787SOL     OW 2359   1.821   1.549   0.452  0.1160  0.6594  0.2559
  787SOL    HW1 2360   1.854   1.633   0.500 -2.0979  1.1717  1.1172
  787SOL    HW2 2361   1.882   1.535   0.370  0.7492  3.0108 -2.1432
  788SOL     OW 2362   1.906   1.475   1.378  0.0715  0.2215 -0.1559
  788SOL    HW1 2363   1.812   1.500   1.352  1.1002 -2.1737  1.4372
  788SOL    HW2 2364   1.971   1.513   1.312 -1.3794 -0.5895  2.9712
  789SOL     OW 2365   0.235   1.399   1.930 -0.2460  0.0245  0.0793
  789SOL    HW1 2366   0.184   1.478   1.959 -0.5407  0.2331  1.4682
  789SOL    HW2 2367   0.312   1.436   1.872  1.5162 -1.1125  0.8639
  790SOL     OW 2368   0.508   2.823   0.072 -0.1321 -0.0315  0.1083
  790SOL    HW1 2369   0.460   2.740   0.044 -1.3979  1.4603 -1.0436
  790SOL    HW2 2370   0.470   2.869   0.154  2.5972 -1.9123 -0.7645
  791SOL     OW 2371   0.663   0.039   2.660  0.0542  0.4026  0.1995
  791SOL    HW1 2372   0.635   0.137   2.642  2.1886  2.4041 -0.2970
  791SOL    HW2 2373   0.594   3.079   2.710  3.0682  1.7992 -1.9276
  792SOL     OW 2374   1.948   0.528   2.484  0.5607  0.6400 -0.2283
  792SOL    HW1 2375   1.895   0.440   2.497  0.0357  0.1091 -0.2712
  792SOL    HW2 2376   2.016   0.530   2.559  0.1382 -0.0327  2.9368
  793SOL     OW 2377   0.329   0.656   1.075 -0.2911 -0.0876 -0.3925
  793SOL    HW1 2378   0.393   0.583   1.048  0.8941 -1.6425 -0.3355
  793SOL    HW2 2379   0.237   0.621   1.104  2.0252 -0.6119 -1.1701
  794SOL     OW 2380   0.521   0.522   1.901 -0.5235  0.2300  0.0607
  794SOL    HW1 2381   0.549   0.608   1.857 -1.5038 -1.0324  2.7743
  794SOL    HW2 2382   0.425   0.520   1.929  1.8291 -0.3251 -0.3165
  795SOL     OW 2383   2.973   1.118   0.351 -0.0935  0.2656  0.2612
  795SOL    HW1 2384   3.068   1.090   0.326  0.0264 -0.6473  0.6007
  795SOL    HW2 2385   2.920   1.147   0.265  0.4297 -1.5215 -0.9712
  796SOL     OW 2386   3.068   2.744   0.160  0.4065  0.0102 -0.4430
  796SOL    HW1 2387   3.070   2.837   0.122  4.1018 -2.7413 -0.1275
  796SOL    HW2 2388   3.008   2.679   0.101 -4.5904 -2.6482 -1.4641
  797SOL     OW 2389   1.706   2.598   2.466 -0.0861  0.1449  0.7258
  797SOL    HW1 2390   1.727   2.500   2.426 -1.0738 -4.1198 -3.6351
  797SOL    HW2 2391   1.615   2.602   2.511  0.4680  0.6436 -0.2803
  798SOL     OW 2392   0.054   0.633   0.557 -0.3914  0.3273 -0.2031
  798SOL    HW1 2393   0.084   0.612   0.462  0.8505  0.5206 -1.8010
  798SOL    HW2 2394   0.119   0.609   0.631 -1.5331 -0.5389  2.2692
  799SOL     OW 2395   2.544   0.469   2.544 -0.1658  0.2738  0.4398
  799SOL    HW1 2396   2.529   0.379   2.590  0.2194  0.4517 -0.3432
  799SOL    HW2 2397   2.644   0.479   2.520 -2.5516  0.0494 -0.4176
  800SOL     OW 2398   2.959   2.032   0.283 -0.1881  0.0282  0.1313
  800SOL    HW1 2399   2.964   2.102   0.354 -1.7394  0.7178 -0.0959
  800SOL    HW2 2400   3.052   2.008   0.242  1.4844 -1.8726 -0.1268
  801SOL     OW 2401   1.354   1.582   1.131  0.0791  0.6238 -0.0250
  801SOL    HW1 2402   1.329   1.506   1.193  0.7072  1.1351  0.6217
  801SOL    HW2 2403   1.336   1.555   1.034  0.8756  0.1706  0.7346
  802SOL     OW 2404   1.072   1.878   2.088 -0.0792 -0.2961 -0.6295
  802SOL    HW1 2405   0.977   1.847   2.082 -1.1225  1.6328  0.7665
  802SOL    HW2 2406   1.126   1.812   2.033  1.7608 -1.6306 -0.9233
  803SOL     OW 2407   0.205   1.972   0.917 -0.0206  0.0853 -0.6541
  803SOL    HW1 2408   0.127   2.000   0.971  0.2837 -2.5605  4.3882
  803SOL    HW2 2409   0.210   1.869   0.926  0.3847  0.0314  0.7831
  804SOL     OW 2410   1.139   2.112   1.245 -0.2367  0.7546 -0.2807
  804SOL    HW1 2411   1.073   2.178   1.210 -0.6039 -1.2193  0.7949
  804SOL    HW2 2412   1.125   2.018   1.207  1.0062 -0.8665  0.0711
  805SOL     OW 2413   1.924   1.497   0.193  0.4935  0.1460 -0.0874
  805SOL    HW1 2414   1.954   1.582   0.142 -0.0624 -0.1317  0.0379
  805SOL    HW2 2415   1.880   1.434   0.121  0.4173  0.6515  0.4997
  806SOL     OW 2416   2.003   2.521   1.063  0.8159 -0.5204 -0.3813
  806SOL    HW1 2417   1.988   2.518   1.158 -0.8209  0.5584 -4.6164
  806SOL    HW2 2418   1.916   2.517   1.012 -2.0546 -3.3106  0.1845
  807SOL     OW 2419   2.738   0.821   2.726 -0.1220  0.5655  0.5365
  807SOL    HW1 2420   2.773   0.896   2.786  1.2489  0.7849 -1.4744
  807SOL    HW2 2421   2.800   0.808   2.644  1.8024 -1.5835 -0.4744
  808SOL     OW 2422   0.332   1.295   0.455 -0.3667 -0.4779  0.6544
  808SOL    HW1 2423   0.363   1.206   0.498  0.0722 -2.0115 -0.2254
  808SOL    HW2 2424   0.311   1.280   0.359  1.5544  0.0418  3.3512
  809SOL     OW 2425   2.689   0.889   2.002  0.2086  0.2662 -0.2790
  809SOL    HW1 2426   2.623   0.951   2.044  1.4869 -2.8148 -0.2533
  809SOL    HW2 2427   2.679   0.886   1.901 -1.0315  1.2963 -0.5092
  810SOL     OW 2428   1.274   0.479   1.572 -0.4392  0.0689 -0.3728
  810SOL    HW1 2429   1.272   0.456   1.670 -1.9634 -0.9601  0.5002
  810SOL    HW2 2430   1.237   0.397   1.520  1.6128  0.3611  1.7521
  811SOL     OW 2431   1.969   2.839   1.544  0.2177 -0.0665  0.3221
  811SOL    HW1 2432   2.031   2.836   1.460  0.7962  1.6089 -0.2941
  811SOL    HW2 2433   1.962   2.750   1.588 -1.3895 -0.8621 -0.6414
  812SOL     OW 2434   1.589   2.403   2.756 -0.4677 -0.1318  0.2155
  812SOL    HW1 2435   1.555   2.422   2.849  0.1542 -1.2074  3.0115
  812SOL    HW2 2436   1.689   2.386   2.757  1.8744  1.3098 -1.9353
  813SOL     OW 2437   1.555   1.071   1.953  0.2748 -0.2947 -0.5917
  813SOL    HW1 2438   1.459   1.093   1.924  1.1044  1.5855 -3.6849
  813SOL    HW2 2439   1.610   1.159   1.959  3.6059  1.7513 -0.5040
  814SOL     OW 2440   0.953   0.378   1.681  0.3600  0.3204  0.3574
  814SOL    HW1 2441   0.852   0.372   1.673  2.8626  1.6697  1.8725
  814SOL    HW2 2442   0.972   0.394   1.777 -1.0195 -1.6547 -2.7923
  815SOL     OW 2443   0.915   0.782   0.499 -0.4713  0.2926  0.6311
  815SOL    HW1 2444   0.896   0.876   0.525 -0.5679  2.3787  0.0216
  815SOL    HW2 2445   0.870   0.760   0.411 -1.2056 -0.2633 -1.6256
  816SOL     OW 2446   2.102   1.651   2.699 -0.1387  0.1116 -0.0146
  816SOL    HW1 2447   2.094   1.743   2.650 -0.4827  1.4352 -1.4244
  816SOL    HW2 2448   2.126   1.658   2.798  0.1586 -1.4360 -0.6464
  817SOL     OW 2449   0.674   2.545   0.558 -0.3645  0.1042 -0.0767
  817SOL    HW1 2450   0.771   2.575   0.539  1.5274 -3.1776 -0.3093
  817SOL    HW2 2451   0.675   2.469   0.627  2.0844  0.6738  0.5440
  818SOL     OW 2452   1.905   0.009   3.032  0.7886  0.6907  0.3009
  818SOL    HW1 2453   1.871   0.106   3.015 -1.2461 -0.7279  2.9241
  818SOL    HW2 2454   1.964   3.073   2.953 -0.7942  1.2271 -1.4473
  819SOL     OW 2455   1.557   0.166   0.105 -0.3018  0.2836  0.1326
  819SOL    HW1 2456   1.484   0.138   0.035  0.6156  1.3419 -1.1215
  819SOL    HW2 2457   1.649   0.144   0.071 -0.3798  0.8867  0.4338
  820SOL     OW 2458   1.812   0.588   0.271  0.1713 -0.2025 -0.1861
  820SOL    HW1 2459   1.710   0.582   0.303 -2.6613 -1.5016 -0.1508
  820SOL    HW2 2460   1.861   0.648   0.340  0.2037  0.0425 -2.7909
  821SOL     OW 2461   2.606   0.255   0.079 -0.1997 -0.4758 -0.4165
  821SOL    HW1 2462   2.524   0.310   0.107  1.9240  0.9899  2.2744
  821SOL    HW2 2463   2.657   0.309   0.010  0.9191 -0.4184 -0.0301
  822SOL     OW 2464   0.318   2.657   1.982 -0.4273  0.3721 -0.5536
  822SOL    HW1 2465   0.371   2.596   2.048  0.2194  0.5210  2.2858
  822SOL    HW2 2466   0.265   2.600   1.916  2.2333  0.0430 -0.3826
  823SOL     OW 2467   3.057   1.655   1.372  0.0956  0.3067  0.7178
  823SOL    HW1 2468   3.001   1.738   1.373 -1.3259 -1.4665 -1.6231
  823SOL    HW2 2469   2.997   1.593   1.315  0.5571 -1.2515 -2.5981
  824SOL     OW 2470   1.599   0.088   2.219  0.1477 -0.1132 -0.0557
  824SOL    HW1 2471   1.600   3.089   2.263 -0.1377 -0.8643 -2.2000
  824SOL    HW2 2472   1.610   0.072   2.117 -0.3581 -2.3197  0.9487
  825SOL     OW 2473   1.892   1.172   0.784  0.3759  0.0839  0.3356
  825SOL    HW1 2474   1.930   1.092   0.828  0.8510  1.9381  1.4927
  825SOL    HW2 2475   1.833   1.229   0.842  0.6349 -1.0876 -1.4466
  826SOL     OW 2476   2.018   0.816   3.063 -0.0927 -0.3599  0.0298
  826SOL    HW1 2477   2.034   0.879   0.051 -0.1396 -1.7967  0.9755
  826SOL    HW2 2478   1.927   0.772   3.064  1.6403  0.7416  0.2459
  827SOL     OW 2479   0.535   1.165   1.422 -0.3160  0.2044  0.1392
  827SOL    HW1 2480   0.481   1.165   1.504  2.0927  0.0773 -2.0923
  827SOL    HW2 2481   0.568   1.259   1.400 -1.8735  0.6879  1.6238
  828SOL     OW 2482   2.214   1.275   2.022  0.3475  0.6736  0.0956
  828SOL    HW1 2483   2.260   1.249   1.939  0.7491  0.6283  1.0691
  828SOL    HW2 2484   2.238   1.371   2.043 -3.6242  0.9399 -0.6950
  829SOL     OW 2485   0.140   1.984   0.190  0.5941 -0.5143  0.8107
  829SOL    HW1 2486   0.122   1.887   0.185  2.1471 -0.4178  0.4194
  829SOL    HW2 2487   0.201   2.013   0.269  2.9080  0.4611  1.1576
  830SOL     OW 2488   1.596   0.928   0.589 -0.1977  0.0953  0.0936
  830SOL    HW1 2489   1.688   0.925   0.545 -2.2471  0.7825 -0.5578
  830SOL    HW2 2490   1.607   0.904   0.686 -0.0401 -0.4316  0.0152
  831SOL     OW 2491   2.614   1.804   3.075  0.4963  0.0051  0.4553
  831SOL    HW1 2492   2.519   1.790   0.012  1.1162 -1.2889 -0.6529
  831SOL    HW2 2493   2.666   1.865   0.051  0.9051  0.7866  0.6239
  832SOL     OW 2494   1.010   2.902   0.132  0.1287  0.0600  0.7317
  832SOL    HW1 2495   0.927   2.916   0.184 -0.4232 -2.5280 -2.8090
  832SOL    HW2 2496   1.056   2.809   0.134  1.7214 -1.5528 -0.4749
  833SOL     OW 2497   1.302   0.656   2.171  0.6116  0.3706 -0.1111
  833SOL    HW1 2498   1.327   0.560   2.155  2.4657 -0.5199  0.0886
  833SOL    HW2 2499   1.381   0.711   2.149 -1.1808 -1.7431  0.5306
  834SOL     OW 2500   0.061   0.581   1.235 -0.1131 -0.2735 -0.2243
  834SOL    HW1 2501   0.044   0.681   1.249  0.3185 -0.1379  0.7502
  834SOL    HW2 2502   3.081   0.531   1.179  3.4554 -0.1500 -0.4820
  835SOL     OW 2503   0.003   3.045   1.090  0.0577 -0.1897  0.4544
  835SOL    HW1 2504   3.038   2.963   1.104 -0.1659 -0.7071  0.5396
  835SOL    HW2 2505   3.088   0.011   1.174 -2.4711  0.8008  0.6468
  836SOL     OW 2506   0.605   2.011   0.418 -0.2806  0.0087  0.5662
  836SOL    HW1 2507   0.637   1.916   0.425 -0.2533  1.1209 -2.0815
  836SOL    HW2 2508   0.667   2.076   0.368 -1.5420  0.4081 -0.0111
  837SOL     OW 2509   1.778   1.748   2.592  0.0949  0.0950 -0.2288
  837SOL    HW1 2510   1.747   1.793   2.680  1.4827 -0.7661 -0.7553
  837SOL    HW2 2511   1.811   1.652   2.612 -0.8097  3.1943 -0.0973
  838SOL     OW 2512   0.400   0.987   2.029 -0.1690 -0.3998 -0.3085
  838SOL    HW1 2513   0.339   1.067   2.061  0.2940  1.9867  0.0688
  838SOL    HW2 2514   0.358   0.936   1.955 -0.9623  1.3097  1.8672
  839SOL     OW 2515   0.244   0.562   0.776  0.2785 -0.4935 -0.1713
  839SOL    HW1 2516   0.161   0.505   0.794  2.7576  1.7710 -0.8966
  839SOL    HW2 2517   0.291   0.577   0.868  0.6347 -3.2239 -1.4476
  840SOL     OW 2518   2.557   0.193   2.590  0.0163 -0.1805 -0.3317
  840SOL    HW1 2519   2.580   0.144   2.674  1.5512  1.9972  0.1597
  840SOL    HW2 2520   2.625   0.183   2.518 -0.3072 -2.3995  0.4246
  841SOL     OW 2521   0.774   2.311   3.089 -0.3167  0.0115  0.1260
  841SOL    HW1 2522   0.853   2.363   3.057 -1.9780 -2.2695  1.2178
  841SOL    HW2 2523   0.703   2.302   3.020  0.4443  2.1554 -1.0103
  842SOL     OW 2524   0.575   3.078   1.023 -0.4452 -0.4329 -0.1262
  842SOL    HW1 2525   0.669   0.032   1.012 -0.5717  0.3056 -0.1169
  842SOL    HW2 2526   0.543   3.040   0.932 -0.9371 -1.8745 -3.9961
  843SOL     OW 2527   0.247   0.825   3.007 -0.3727  0.5188  0.1738
  843SOL    HW1 2528   0.155   0.842   2.966  1.1653 -0.4112 -1.4817
  843SOL    HW2 2529   0.305   0.909   3.000 -1.2629  0.0262  0.0189
  844SOL     OW 2530   1.152   2.477   2.648 -0.8991 -0.1152 -0.1061
  844SOL    HW1 2531   1.196   2.388   2.617  2.3119  1.3919 -0.9809
  844SOL    HW2 2532   1.136   2.544   2.573  1.2995  0.3781  0.3333
  845SOL     OW 2533   2.718   0.018   2.772  0.7707 -0.0696  0.1745
  845SOL    HW1 2534   2.764   0.093   2.726 -0.5585  0.4108 -0.3259
  845SOL    HW2 2535   2.787   3.046   2.817  0.7714  3.8468 -2.6631
  846SOL     OW 2536   1.869   1.510   2.651 -0.2746  0.1081 -0.5218
  846SOL    HW1 2537   1.960   1.558   2.654  1.6541 -2.3931 -0.7176
  846SOL    HW2 2538   1.871   1.423   2.702 -0.1804  1.7939 -1.1216
  847SOL     OW 2539   2.557   0.002   0.104  0.0971 -0.0321 -0.1281
  847SOL    HW1 2540   2.461   3.061   0.079 -1.6562 -1.2173 -1.6751
  847SOL    HW2 2541   2.562   0.102   0.102 -1.6231 -2.4998  1.8204
  848SOL     OW 2542   0.603   0.590   0.758  0.5187 -0.4792  0.1034
  848SOL    HW1 2543   0.638   0.501   0.774 -1.6383  1.9617 -0.4168
  848SOL    HW2 2544   0.537   0.582   0.679  0.8056  0.4394  1.6336
  849SOL     OW 2545   1.657   0.000   1.977  0.1959 -0.1210 -0.2704
  849SOL    HW1 2546   1.652   2.993   1.945  0.7009  0.2983  0.4727
  849SOL    HW2 2547   1.687   0.063   1.901  1.0727 -0.3797  1.4109
  850SOL     OW 2548   0.685   1.101   0.765  0.1701 -0.7835 -0.4179
  850SOL    HW1 2549   0.639   1.190   0.758  0.8224  1.6862  1.1296
  850SOL    HW2 2550   0.620   1.024   0.758 -0.1326 -2.1278  1.3230
  851SOL     OW 2551   0.261   1.191   0.193 -0.2386  0.9980 -0.1290
  851SOL    HW1 2552   0.356   1.142   0.197  3.7524 -3.4437  0.1887
  851SOL    HW2 2553   0.187   1.121   0.193 -1.7922  1.6165  0.3712
  852SOL     OW 2554   1.306   0.146   1.833 -0.1248  0.2237  0.0485
  852SOL    HW1 2555   1.277   0.068   1.893  1.0222 -0.0919  0.4086
  852SOL    HW2 2556   1.358   0.119   1.751  1.3017 -0.5200 -0.2081
  853SOL     OW 2557   2.594   1.309   0.145  0.0471  0.4209  0.5172
  853SOL    HW1 2558   2.632   1.386   0.197  0.6262 -0.5449  2.8448
  853SOL    HW2 2559   2.497   1.289   0.170 -0.1484  0.2336 -2.3362
  854SOL     OW 2560   1.154   1.047   2.117 -0.6293  0.0505  0.1083
  854SOL    HW1 2561   1.059   1.062   2.084  2.8865  0.7659  2.6098
  854SOL    HW2 2562   1.178   1.104   2.199 -0.2255  1.3665 -0.1446
  855SOL     OW 2563   0.362   2.588   0.044  0.2927 -0.9170 -0.0462
  855SOL    HW1 2564   0.327   2.583   0.138  1.8553 -0.8827  0.4193
  855SOL    HW2 2565   0.285   2.629   3.075 -2.1358 -1.1098 -0.7536
  856SOL     OW 2566   1.090   0.726   2.027  0.5945  0.4190  0.0452
  856SOL    HW1 2567   1.072   0.827   2.017 -1.4327  0.3020 -1.2080
  856SOL    HW2 2568   1.176   0.710   2.080 -1.4420  1.6407 -1.3443
  857SOL     OW 2569   1.173   0.738   2.665 -0.5402 -0.2404 -0.7446
  857SOL    HW1 2570   1.212   0.830   2.633  0.3783  0.8149  1.1507
  857SOL    HW2 2571   1.159   0.675   2.587  1.4884 -0.3172  2.5795
  858SOL     OW 2572   2.957   1.261   2.155  0.5036 -0.2602 -0.1781
  858SOL    HW1 2573   3.027   1.308   2.213  1.7919 -0.7253 -0.2729
  858SOL    HW2 2574   2.996   1.248   2.063  3.7644 -1.7817 -1.3942
  859SOL     OW 2575   2.317   0.357   0.858  0.6328  0.8094 -0.0144
  859SOL    HW1 2576   2.318   0.274   0.916  0.2642 -0.5382  0.1251
  859SOL    HW2 2577   2.395   0.414   0.879 -1.6118  1.4569  1.3219
  860SOL     OW 2578   1.806   2.916   0.269  0.6833 -0.2141  0.2220
  860SOL    HW1 2579   1.878   2.930   0.338  0.7731 -1.0498 -2.0187
  860SOL    HW2 2580   1.718   2.946   0.310  1.9534 -0.7242  1.6079
  861SOL     OW 2581   1.086   0.460   1.213  0.0167  0.2001  0.3539
  861SOL    HW1 2582   1.090   0.414   1.303 -0.0856  2.6515  0.0060
  861SOL    HW2 2583   0.989   0.485   1.184 -3.5701  2.8131 -0.9746
  862SOL     OW 2584   1.431   0.116   2.579 -0.0779  0.4134  0.0512
  862SOL    HW1 2585   1.533   0.121   2.584 -0.2873  0.1445  0.4409
  862SOL    HW2 2586   1.396   0.028   2.533  0.0675 -1.1853  2.2618
  863SOL     OW 2587   2.576   2.273   0.547 -0.5222 -0.3853  0.4574
  863SOL    HW1 2588   2.528   2.362   0.532 -2.6165 -3.0778 -0.2168
  863SOL    HW2 2589   2.539   2.203   0.482  0.3227 -2.6656 -0.0107
  864SOL     OW 2590   2.646   0.260   1.899 -0.8249 -0.1191  0.3515
  864SOL    HW1 2591   2.674   0.354   1.916  1.3654  1.2133  0.3543
  864SOL    HW2 2592   2.724   0.209   1.854  1.2476 -2.3979 -2.3625
  865SOL     OW 2593   1.289   1.133   1.893  0.1940 -0.1441 -0.1030
  865SOL    HW1 2594   1.235   1.100   1.975 -0.9009  0.1753  0.1797
  865SOL    HW2 2595   1.242   1.203   1.842  0.5837 -1.7045 -0.1059
  866SOL     OW 2596   1.739   2.513   0.970  0.0640 -0.3009 -0.0732
  866SOL    HW1 2597   1.695   2.465   0.891  1.9987 -1.6518  3.2006
  866SOL    HW2 2598   1.663   2.566   1.017 -0.9468  0.2016  0.5768
  867SOL     OW 2599   2.451   2.942   0.522  0.6348  0.3583 -0.5953
  867SOL    HW1 2600   2.401   2.938   0.612 -1.3091  0.5754 -1.1457
  867SOL    HW2 2601   2.423   3.032   0.475 -2.1198  3.7467  0.1589
  868SOL     OW 2602   0.361   2.214   2.001 -0.2829 -0.1780 -0.5393
  868SOL    HW1 2603   0.440   2.158   1.965 -1.6539 -2.0469  1.7281
  868SOL    HW2 2604   0.279   2.189   1.954  2.4548 -0.5669  0.2752
  869SOL     OW 2605   2.046   2.715   2.253 -0.3529 -0.4377  0.3049
  869SOL    HW1 2606   1.974   2.764   2.302  2.3399  1.5451  0.1428
  869SOL    HW2 2607   2.081   2.640   2.315 -0.9255  0.7088 -0.7301
  870SOL     OW 2608   1.733   1.373   0.868 -0.1118  0.0787  0.1196
  870SOL    HW1 2609   1.702   1.397   0.771  1.8740  0.5018  0.4126
  870SOL    HW2 2610   1.667   1.310   0.910  2.2212  0.7587 -0.0216
  871SOL     OW 2611   0.337   1.941   1.293  0.2933  0.3633  0.3112
  871SOL    HW1 2612   0.241   1.914   1.265 -0.0128 -0.3007 -0.8496
  871SOL    HW2 2613   0.349   2.043   1.298 -0.0651 -0.2101 -0.8110
  872SOL     OW 2614   0.833   1.772   2.643 -0.1492  0.8191 -0.0019
  872SOL    HW1 2615   0.793   1.738   2.732 -1.7346  0.6090  0.1903
  872SOL    HW2 2616   0.881   1.863   2.656  2.2669 -0.3694 -2.1152
  873SOL     OW 2617   0.805   1.789   2.042  0.0076 -0.1933  0.7481
  873SOL    HW1 2618   0.764   1.864   2.101 -0.4674  2.5339  1.7576
  873SOL    HW2 2619   0.743   1.706   2.045  0.0649  1.5392  3.0686
  874SOL     OW 2620   1.481   0.813   2.048  0.0389 -0.2205  0.1082
  874SOL    HW1 2621   1.465   0.752   1.968 -0.8409 -2.5625 -0.3761
  874SOL    HW2 2622   1.516   0.898   2.015  0.8139 -3.1268  1.9424
  875SOL     OW 2623   3.006   0.081   0.349  0.3141  0.0994  0.6556
  875SOL    HW1 2624   2.999   0.100   0.249 -1.0304 -2.9510  0.8456
  875SOL    HW2 2625   2.948   0.001   0.375  0.9462 -1.2048 -0.5084
  876SOL     OW 2626   0.827   1.532   0.750  0.2624 -0.4060 -0.6454
  876SOL    HW1 2627   0.746   1.476   0.742 -1.7052  0.7502  0.9235
  876SOL    HW2 2628   0.806   1.623   0.712 -2.1406  0.4616  0.3883
  877SOL     OW 2629   2.698   2.898   0.619  0.2816 -0.0692  0.0475
  877SOL    HW1 2630   2.682   2.855   0.707  0.5779  0.5114 -1.8278
  877SOL    HW2 2631   2.611   2.937   0.580 -3.9146 -0.9136 -0.1618
  878SOL     OW 2632   1.914   1.723   0.657  0.3265 -0.1985 -0.2269
  878SOL    HW1 2633   1.993   1.792   0.662  2.8530  2.4582  0.8728
  878SOL    HW2 2634   1.918   1.657   0.735  0.9781 -1.6446  0.1084
  879SOL     OW 2635   2.489   1.629   1.426 -0.0555  0.1655 -0.5997
  879SOL    HW1 2636   2.443   1.542   1.403 -0.2508  2.4466 -1.1431
  879SOL    HW2 2637   2.486   1.684   1.341  1.4781  1.6097 -0.6801
  880SOL     OW 2638   0.564   2.148   0.637 -0.4489 -0.7081 -0.1180
  880SOL    HW1 2639   0.580   2.090   0.556  0.7387 -0.3422 -0.0137
  880SOL    HW2 2640   0.502   2.225   0.610 -1.6449  0.7877 -1.1595
  881SOL     OW 2641   1.030   0.899   0.785 -0.6056 -0.2206 -0.8252
  881SOL    HW1 2642   0.982   0.954   0.720  1.7335 -2.8908 -0.3519
  881SOL    HW2 2643   1.048   0.953   0.872  1.6563  2.3462  1.7887
  882SOL     OW 2644   2.633   0.945   0.645 -0.0404  0.4385 -0.1524
  882SOL    HW1 2645   2.572   1.011   0.597 -0.1007  0.5504 -0.8692
  882SOL    HW2 2646   2.574   0.865   0.671 -1.8106  0.4449 -1.6813
  883SOL     OW 2647   1.716   0.322   1.595  0.4290  0.4544  0.5874
  883SOL    HW1 2648   1.804   0.355   1.558 -1.5818 -0.1491  1.5547
  883SOL    HW2 2649   1.643   0.335   1.525 -1.8069  3.0753 -0.2430
  884SOL     OW 2650   3.001   0.074   1.353  0.3970 -0.1467  0.5832
  884SOL    HW1 2651   3.057   0.095   1.434 -1.7809  0.3343 -1.4063
  884SOL    HW2 2652   2.904   0.066   1.386  1.3545 -2.1332  0.0966
  885SOL     OW 2653   1.367   0.977   2.799  0.0349 -0.0151 -0.7248
  885SOL    HW1 2654   1.356   1.006   2.705 -1.1859 -3.3208 -0.0839
  885SOL    HW2 2655   1.280   0.972   2.852 -2.4854 -1.9583  0.4017
  886SOL     OW 2656   1.803   0.747   2.461  0.4971 -0.1238 -0.0129
  886SOL    HW1 2657   1.876   0.676   2.474  3.0065 -4.2973 -3.4366
  886SOL    HW2 2658   1.727   0.697   2.417  0.7115 -1.5968 -0.6511
  887SOL     OW 2659   1.569   0.226   1.382  1.0013 -0.0457 -0.1953
  887SOL    HW1 2660   1.498   0.245   1.313  3.6346 -1.0329  0.9449
  887SOL    HW2 2661   1.652   0.189   1.334 -0.8940 -0.5697 -0.0079
  888SOL     OW 2662   2.094   1.595   1.836 -0.0080  0.7418 -0.2330
  888SOL    HW1 2663   2.172   1.596   1.768  2.1820  0.5803 -1.3408
  888SOL    HW2 2664   2.059   1.688   1.862  0.1333 -1.6633  0.1939
  889SOL     OW 2665   1.861   2.096   0.468 -0.7039 -0.3572  0.5794
  889SOL    HW1 2666   1.815   2.024   0.529  0.5926  0.9726  0.2232
  889SOL    HW2 2667   1.900   2.058   0.383 -1.5104  1.7418  1.4507
  890SOL     OW 2668   1.090   2.023   0.525  0.3398  0.5013 -0.0635
  890SOL    HW1 2669   1.082   1.923   0.510  0.6088  0.6649 -0.0660
  890SOL    HW2 2670   1.022   2.039   0.603 -3.5627  2.4405 -0.0030
  891SOL     OW 2671   2.848   1.016   2.892 -0.3254  0.2430 -0.0370
  891SOL    HW1 2672   2.849   1.093   2.830 -0.2860  0.8128  2.5060
  891SOL    HW2 2673   2.766   1.036   2.955 -3.2861  0.7462  1.6271
  892SOL     OW 2674   1.475   0.647   2.469  0.6620  0.5816  0.4836
  892SOL    HW1 2675   1.427   0.554   2.484 -1.3158 -2.6044 -0.1764
  892SOL    HW2 2676   1.502   0.658   2.371 -0.8580 -0.5977  0.4995
  893SOL     OW 2677   1.582   2.957   1.300 -0.0611 -0.4453  0.0594
  893SOL    HW1 2678   1.638   2.959   1.209  2.1532 -1.7841 -4.0773
  893SOL    HW2 2679   1.645   2.955   1.381  0.0233 -1.4227  1.0697
  894SOL     OW 2680   2.868   2.944   0.425 -0.4341 -0.2490 -0.1738
  894SOL    HW1 2681   2.824   2.932   0.334  0.5588 -0.9599 -2.1457
  894SOL    HW2 2682   2.802   2.920   0.500 -1.3358 -0.9776  2.1327
  895SOL     OW 2683   1.891   2.614   2.719 -0.3922 -0.2366 -0.6379
  895SOL    HW1 2684   1.878   2.517   2.693  2.3350  1.1160  0.4981
  895SOL    HW2 2685   1.957   2.668   2.666 -2.1897  0.2470 -2.4523
  896SOL     OW 2686   2.194   0.369   2.224 -0.0871 -0.0582  0.0831
  896SOL    HW1 2687   2.201   0.269   2.214  1.5690 -2.5710  1.0114
  896SOL    HW2 2688   2.096   0.395   2.223 -0.3987  2.7956  4.1418
  897SOL     OW 2689   0.256   1.788   1.743 -0.2778  0.0462 -0.0697
  897SOL    HW1 2690   0.173   1.754   1.698  1.7432  2.2817 -2.7422
  897SOL    HW2 2691   0.334   1.807   1.678  1.3791 -0.6752 -0.1344
  898SOL     OW 2692   2.472   1.835   1.855 -0.0990  0.0508  0.2610
  898SOL    HW1 2693   2.419   1.762   1.806 -3.8802 -0.1812 -1.3009
  898SOL    HW2 2694   2.541   1.874   1.794  1.2448 -0.7304  1.7651
  899SOL     OW 2695   1.585   2.067   0.978 -0.3069 -0.2944 -0.2809
  899SOL    HW1 2696   1.499   2.084   1.034 -0.8424 -2.1986 -1.3178
  899SOL    HW2 2697   1.561   2.087   0.880 -0.6189 -1.0822  0.3499
  900SOL     OW 2698   1.068   0.283   2.756  0.0377 -0.4901 -0.3233
  900SOL    HW1 2699   1.026   0.375   2.745 -2.1163  4.2484 -2.3695
  900SOL    HW2 2700   1.168   0.283   2.763 -0.4834 -1.4792  0.7047
  901SOL     OW 2701   1.242   1.767   2.434  0.6778  0.0105 -0.0433
  901SOL    HW1 2702   1.298   1.707   2.383 -0.2101  2.0703  1.7283
  901SOL    HW2 2703   1.150   1.768   2.392 -0.3889 -2.2834 -3.4183
  902SOL     OW 2704   2.774   2.787   3.054  0.4748 -0.0311 -0.0683
  902SOL    HW1 2705   2.758   2.816   0.064 -0.4168  0.1145  1.6107
  902SOL    HW2 2706   2.858   2.739   3.046 -2.5740 -0.0362 -0.2348
  903SOL     OW 2707   2.137   0.690   2.095 -0.4585 -0.6074 -0.1912
  903SOL    HW1 2708   2.099   0.695   2.001  0.5793 -0.3622 -1.0320
  903SOL    HW2 2709   2.234   0.652   2.105  0.4192 -0.7071 -2.3650
  904SOL     OW 2710   1.357   0.402   2.460 -0.2598 -0.3328  0.3536
  904SOL    HW1 2711   1.409   0.353   2.536  0.8272 -1.3018  0.7635
  904SOL    HW2 2712   1.353   0.329   2.382 -0.0088 -2.4423 -2.6566
  905SOL     OW 2713   2.264   2.281   1.358  0.3517  0.1404  0.2924
  905SOL    HW1 2714   2.250   2.232   1.444 -1.6729  0.5773 -1.9034
  905SOL    HW2 2715   2.325   2.363   1.361  0.3148 -0.7048  1.8460
  906SOL     OW 2716   1.314   1.842   0.196 -0.4688 -0.4227 -0.3703
  906SOL    HW1 2717   1.345   1.811   0.104  0.5342 -0.6863  1.0313
  906SOL    HW2 2718   1.372   1.814   0.274 -1.9442 -0.2845 -1.4128
  907SOL     OW 2719   0.751   2.836   0.714 -0.3709  0.1479  0.2678
  907SOL    HW1 2720   0.761   2.844   0.819  0.8429  0.7720  2.8102
  907SOL    HW2 2721   0.651   2.831   0.694  2.0678  1.5763 -2.0602
  908SOL     OW 2722   1.324   2.699   1.964  0.2152 -0.2492  0.0587
  908SOL    HW1 2723   1.385   2.670   1.889 -1.5757  1.1912  2.2705
  908SOL    HW2 2724   1.341   2.642   2.045 -1.3504  3.4179 -0.5976
  909SOL     OW 2725   1.993   0.387   1.557  0.7876 -0.6776  0.3515
  909SOL    HW1 2726   2.040   0.463   1.504  1.5313 -0.9880  0.4552
  909SOL    HW2 2727   1.968   0.415   1.650 -0.6913  1.1264  0.8076
  910SOL     OW 2728   1.172   0.777   0.043 -0.4623 -0.4155 -0.4878
  910SOL    HW1 2729   1.229   0.715   3.081  1.6171  1.0135  0.0598
  910SOL    HW2 2730   1.075   0.774   0.020  0.2457  0.3224 -2.1585
  911SOL     OW 2731   3.027   0.696   3.086  0.3814 -0.2706 -0.1870
  911SOL    HW1 2732   2.934   0.649   3.085 -1.1619  0.4087  1.0350
  911SOL    HW2 2733   3.018   0.797   0.018  0.0278  0.6292  0.6779
  912SOL     OW 2734   0.199   2.557   0.252 -0.6234 -0.5040 -0.2382
  912SOL    HW1 2735   0.169   2.463   0.233  2.2178 -0.5090  0.8158
  912SOL    HW2 2736   0.120   2.622   0.253  3.8574 -2.0272 -2.4707
  913SOL     OW 2737   2.681   2.406   2.505  0.2350 -0.4619 -0.5708
  913SOL    HW1 2738   2.755   2.346   2.539  0.4805 -0.6592 -1.7988
  913SOL    HW2 2739   2.723   2.501   2.490  1.9134  1.5843 -0.8063
  914SOL     OW 2740   1.517   2.029   1.505  0.0652 -0.0295 -0.5203
  914SOL    HW1 2741   1.553   1.982   1.417  1.5786 -1.1912 -1.5242
  914SOL    HW2 2742   1.567   1.993   1.587 -0.6966  0.6142 -1.1145
  915SOL     OW 2743   0.627   2.732   2.097  0.0665  0.0612 -0.0633
  915SOL    HW1 2744   0.540   2.770   2.133  1.5263 -1.5955 -0.3807
  915SOL    HW2 2745   0.648   2.768   2.002  1.2024 -1.8243 -0.5178
  916SOL     OW 2746   0.641   1.028   1.885 -0.0853 -0.5235 -0.1056
  916SOL    HW1 2747   0.556   1.018   1.943  1.4312 -3.4261  0.9930
  916SOL    HW2 2748   0.696   0.945   1.905 -0.2858  1.6279 -2.2803
  917SOL     OW 2749   2.620   0.527   0.599 -0.1092 -0.1891  0.0671
  917SOL    HW1 2750   2.596   0.428   0.590 -2.7156  4.3132  1.9659
  917SOL    HW2 2751   2.719   0.538   0.628  0.7954  0.5366 -2.4684
  918SOL     OW 2752   1.952   3.044   2.252  0.1187  0.8127 -0.1933
  918SOL    HW1 2753   1.926   2.994   2.336  0.2935  1.6847  2.2324
  918SOL    HW2 2754   1.933   0.051   2.249 -0.2782 -1.9721 -0.3257
  919SOL     OW 2755   1.739   2.618   1.575  0.2456 -0.1797  0.0004
  919SOL    HW1 2756   1.657   2.644   1.517 -0.0330  2.6504 -0.9556
  919SOL    HW2 2757   1.722   2.584   1.668  0.6556  0.3064  1.5004
  920SOL     OW 2758   0.581   0.828   0.041  0.0866  1.1599 -0.3674
  920SOL    HW1 2759   0.523   0.865   3.060 -1.3666 -2.1850 -3.0018
  920SOL    HW2 2760   0.582   0.725   0.037 -1.1419 -2.0327  1.2634
  921SOL     OW 2761   0.074   0.485   2.933 -0.3415  0.4137 -0.3543
  921SOL    HW1 2762   0.050   0.570   2.982 -2.4348 -1.2578 -1.6437
  921SOL    HW2 2763   0.033   0.485   2.841 -0.7687  0.0151  1.0518
  922SOL     OW 2764   0.856   1.682   1.097 -0.6301  0.0197 -0.1268
  922SOL    HW1 2765   0.860   1.631   1.185  0.0587  1.5405 -3.7359
  922SOL    HW2 2766   0.804   1.769   1.114 -1.1866  1.2909  0.7265
  923SOL     OW 2767   0.676   1.283   1.808 -0.3260  0.4688 -0.1457
  923SOL    HW1 2768   0.589   1.332   1.786 -0.7163  1.3180 -0.9442
  923SOL    HW2 2769   0.645   1.199   1.856 -0.1102  0.5166  0.4355
  924SOL     OW 2770   1.575   2.945   2.850 -0.7968  0.3748  0.1071
  924SOL    HW1 2771   1.619   2.941   2.943  4.3869 -2.0497 -0.6343
  924SOL    HW2 2772   1.650   2.948   2.781 -1.5479  0.6069  1.4706
  925SOL     OW 2773   2.814   1.361   1.382 -0.6572 -0.6271 -0.6831
  925SOL    HW1 2774   2.870   1.416   1.313 -1.4904  1.5521 -0.4214
  925SOL    HW2 2775   2.744   1.303   1.343  1.9219  1.6454 -0.0363
  926SOL     OW 2776   1.711   0.604   1.311  0.0925 -0.0891  0.1740
  926SOL    HW1 2777   1.799   0.653   1.328  0.7453 -0.6734 -2.3434
  926SOL    HW2 2778   1.641   0.621   1.381 -0.8894  0.3631 -1.2668
  927SOL     OW 2779   1.973   3.007   1.150  0.3348 -0.8859  0.1107
  927SOL    HW1 2780   2.022   2.929   1.194 -1.0530 -2.6710  0.7889
  927SOL    HW2 2781   1.936   3.070   1.218 -1.0107  2.0913  1.9236
  928SOL     OW 2782   0.224   1.114   2.390  0.0515  0.4567 -0.2757
  928SOL    HW1 2783   0.234   1.131   2.289  4.2122  1.1188  0.5307
  928SOL    HW2 2784   0.235   1.016   2.412  0.6922  1.5679  0.9103
  929SOL     OW 2785   2.833   0.415   0.867  0.3687  0.2667 -0.0194
  929SOL    HW1 2786   2.905   0.464   0.809  1.1980  3.0041  0.2203
  929SOL    HW2 2787   2.744   0.463   0.871  0.9943  0.5996  0.8399
  930SOL     OW 2788   2.813   2.541   1.824 -0.4458 -0.3058 -0.3747
  930SOL    HW1 2789   2.782   2.607   1.894  0.4017 -0.0414  0.3922
  930SOL    HW2 2790   2.881   2.476   1.861  1.1352  0.2885 -0.1295
  931SOL     OW 2791   1.871   0.856   1.135 -0.4476  0.0475  0.6656
  931SOL    HW1 2792   1.772   0.835   1.135  0.2249 -3.5494  0.6525
  931SOL    HW2 2793   1.892   0.902   1.224  0.4705 -1.1500 -2.1418
  932SOL     OW 2794   0.020   1.229   1.920 -0.2756  0.2754  0.3999
  932SOL    HW1 2795   0.069   1.138   1.900  0.3411  1.3400  1.1587
  932SOL    HW2 2796   0.083   1.305   1.895  1.7877 -1.6268  1.1227
  933SOL     OW 2797   2.950   2.404   1.469  0.4197 -0.0904 -0.5465
  933SOL    HW1 2798   2.877   2.452   1.524 -2.6151  0.0039  0.6144
  933SOL    HW2 2799   2.912   2.334   1.406  1.6905  0.0296  1.1142
  934SOL     OW 2800   0.779   2.055   1.424  0.5751 -0.1412  0.7204
  934SOL    HW1 2801   0.828   1.978   1.472  1.5422  2.5205 -0.0413
  934SOL    HW2 2802   0.788   2.149   1.465 -0.5094  0.8904 -0.4279
  935SOL     OW 2803   2.981   1.562   1.830 -0.0936  0.5314  0.5145
  935SOL    HW1 2804   2.942   1.466   1.827 -2.2875 -3.0377  0.0573
  935SOL    HW2 2805   2.901   1.622   1.817  0.1185 -1.3208  1.7798
  936SOL     OW 2806   2.416   1.445   1.774 -0.4658  0.1512 -0.2804
  936SOL    HW1 2807   2.513   1.453   1.755 -1.0410  0.7334  0.7583
  936SOL    HW2 2808   2.372   1.529   1.737  1.0499  1.8854 -0.2106
  937SOL     OW 2809   1.678   0.854   1.564  0.0164 -0.0154 -1.1822
  937SOL    HW1 2810   1.632   0.889   1.481 -0.3338  1.6125  0.7018
  937SOL    HW2 2811   1.714   0.933   1.620  0.7042  0.4563  1.2463
  938SOL     OW 2812   0.535   2.493   2.923 -0.4957  0.1151  0.9408
  938SOL    HW1 2813   0.603   2.539   2.864 -2.3460 -0.8118 -1.0174
  938SOL    HW2 2814   0.523   2.531   3.012 -0.5467  1.4651 -2.0307
  939SOL     OW 2815   2.435   1.651   2.827 -0.1006 -0.3762 -0.3763
  939SOL    HW1 2816   2.516   1.605   2.869  0.0187 -0.7034  1.5774
  939SOL    HW2 2817   2.463   1.714   2.749  1.7816  2.2376  0.2172
  940SOL     OW 2818   1.485   1.797   0.428 -0.0597  0.3426 -0.3697
  940SOL    HW1 2819   1.460   1.744   0.509  0.4207  1.4197 -3.4191
  940SOL    HW2 2820   1.534   1.744   0.359 -1.5870 -0.9774  0.2071
  941SOL     OW 2821   2.100   2.734   2.591  0.3593 -0.0112  0.0810
  941SOL    HW1 2822   2.148   2.673   2.523 -1.2471 -2.4820 -0.7128
  941SOL    HW2 2823   2.154   2.736   2.677 -0.7106  1.9155  0.9595
  942SOL     OW 2824   0.954   2.619   0.491  0.0465 -0.1048 -0.2960
  942SOL    HW1 2825   1.023   2.549   0.511  0.4670  1.9233  0.4532
  942SOL    HW2 2826   0.906   2.599   0.403 -1.0415 -0.1881 -1.2298
  943SOL     OW 2827   2.222   0.738   1.646 -0.0581 -0.1289 -0.1296
  943SOL    HW1 2828   2.318   0.730   1.677  2.5114 -1.2207 -1.2428
  943SOL    HW2 2829   2.161   0.688   1.709  1.2690  0.7761 -3.6526
  944SOL     OW 2830   1.184   1.008   3.002 -0.0474  0.2411 -0.1969
  944SOL    HW1 2831   1.176   0.922   3.059  1.2087  0.5004 -3.6968
  944SOL    HW2 2832   1.090   1.049   2.972 -1.0768 -0.1828  2.4858
  945SOL     OW 2833   2.796   2.269   1.288  0.3400  0.0340  0.4037
  945SOL    HW1 2834   2.722   2.202   1.305 -0.2207  1.4453 -0.8240
  945SOL    HW2 2835   2.761   2.350   1.237 -2.6380  0.5648  0.1471
  946SOL     OW 2836   0.413   1.027   2.980  0.1600 -0.4012 -1.0109
  946SOL    HW1 2837   0.399   1.126   2.965 -0.1015 -0.8733 -1.4551
  946SOL    HW2 2838   0.487   0.995   2.919 -0.8449 -0.6025 -0.8136
  947SOL     OW 2839   1.963   0.358   1.841  0.0488  0.1338 -0.1984
  947SOL    HW1 2840   1.866   0.367   1.873  0.4083  0.3747  3.0691
  947SOL    HW2 2841   2.012   0.281   1.882 -2.0361 -1.6899 -1.9550
  948SOL     OW 2842   3.072   2.039   1.075  0.0705 -0.1104  0.8667
  948SOL    HW1 2843   3.067   2.078   1.171  1.4358  0.0499  1.4475
  948SOL    HW2 2844   3.001   1.966   1.068  1.6246  1.0308  0.4009
  949SOL     OW 2845   1.235   1.273   1.632  0.5801 -0.5885 -0.1499
  949SOL    HW1 2846   1.195   1.182   1.619  0.4934  0.4157  0.6038
  949SOL    HW2 2847   1.159   1.342   1.624  1.2340  0.4269  0.1062
  950SOL     OW 2848   0.224   0.888   0.875  0.5944  0.4386  0.0789
  950SOL    HW1 2849   0.238   0.814   0.944 -0.3217  0.8978 -0.8270
  950SOL    HW2 2850   0.307   0.946   0.879  1.4606 -2.7477 -0.2712
  951SOL     OW 2851   0.263   1.843   2.448  0.8621  0.1157 -0.4970
  951SOL    HW1 2852   0.199   1.815   2.522  1.4559 -1.2548  0.4339
  951SOL    HW2 2853   0.351   1.863   2.496  2.1604  1.8709  0.6030
  952SOL     OW 2854   1.598   1.621   0.255 -0.4165  0.3826  0.2664
  952SOL    HW1 2855   1.676   1.569   0.293 -3.0558  0.1735 -2.5063
  952SOL    HW2 2856   1.551   1.573   0.174 -2.7934 -0.8057 -2.5799
  953SOL     OW 2857   0.936   0.574   0.138 -0.6831 -0.3807  0.5197
  953SOL    HW1 2858   0.892   0.523   0.066  2.4346  1.6855  1.3015
  953SOL    HW2 2859   0.884   0.651   0.180 -0.3157 -2.6366  1.5094
  954SOL     OW 2860   1.835   1.043   0.468  0.3370  0.0102  0.0621
  954SOL    HW1 2861   1.883   1.104   0.532  2.3404 -0.8109 -1.2212
  954SOL    HW2 2862   1.847   1.069   0.371  0.9850 -0.6391  2.7655
  955SOL     OW 2863   2.475   2.426   2.768 -0.1380  0.5876  0.7346
  955SOL    HW1 2864   2.551   2.486   2.740  1.6550 -0.6244  0.1324
  955SOL    HW2 2865   2.475   2.394   2.866 -0.8268 -2.8049  0.9540
  956SOL     OW 2866   1.088   0.711   1.534 -0.7396  0.0852  0.5258
  956SOL    HW1 2867   1.021   0.674   1.464 -0.5364 -0.4347 -0.8709
  956SOL    HW2 2868   1.165   0.640   1.549  1.5703  0.5711 -0.1754
  957SOL     OW 2869   1.660   1.214   1.553 -0.3944  0.4303  0.4779
  957SOL    HW1 2870   1.729   1.176   1.615 -2.1745  0.7862  0.7351
  957SOL    HW2 2871   1.586   1.257   1.610  0.3723  2.3653  2.9820
  958SOL     OW 2872   0.331   1.926   0.454 -0.3023  0.1965  0.4929
  958SOL    HW1 2873   0.358   1.827   0.429  1.9323 -0.2772  1.6183
  958SOL    HW2 2874   0.419   1.980   0.464  1.6501 -1.2443 -1.7689
  959SOL     OW 2875   1.821   1.261   1.177 -0.0814  0.1737 -0.3489
  959SOL    HW1 2876   1.724   1.255   1.216  1.1600 -0.4958 -0.5641
  959SOL    HW2 2877   1.881   1.304   1.245 -0.2468 -2.1113 -0.6187
  960SOL     OW 2878   3.004   1.522   2.839 -0.3316  0.6278  0.0265
  960SOL    HW1 2879   3.072   1.556   2.914 -0.3315  0.4379  0.1463
  960SOL    HW2 2880   2.941   1.594   2.822  2.1532 -1.1660 -1.5144
  961SOL     OW 2881   1.109   1.750   0.565 -0.2769 -0.4330 -0.0025
  961SOL    HW1 2882   1.101   1.745   0.664 -1.0913  0.3092  0.6090
  961SOL    HW2 2883   1.139   1.662   0.521 -2.8178  0.4649 -1.4394
  962SOL     OW 2884   0.893   1.059   0.609  0.4423 -0.4108 -0.2463
  962SOL    HW1 2885   0.932   1.144   0.564  2.0094  1.8360 -0.7297
  962SOL    HW2 2886   0.817   1.075   0.676 -1.5673 -0.3545 -1.2878
  963SOL     OW 2887   1.181   2.109   2.168 -0.0757 -0.0860 -0.5591
  963SOL    HW1 2888   1.228   2.090   2.259 -0.9627  1.1250 -0.8475
  963SOL    HW2 2889   1.132   2.028   2.134  2.0341  2.2098 -1.8465
  964SOL     OW 2890   2.843   2.861   2.783 -0.4891 -0.1137 -0.1425
  964SOL    HW1 2891   2.769   2.840   2.841  3.2949  1.5792 -1.7551
  964SOL    HW2 2892   2.873   2.786   2.722 -1.2972 -2.9718  0.8513
  965SOL     OW 2893   0.775   2.156   0.212  0.1160 -0.0733 -0.3069
  965SOL    HW1 2894   0.747   2.211   0.132 -0.7651 -1.6535  1.7936
  965SOL    HW2 2895   0.848   2.207   0.261 -1.8226 -1.5503 -1.1977
  966SOL     OW 2896   2.818   1.725   2.934 -0.2793  0.1779  0.2608
  966SOL    HW1 2897   2.734   1.721   2.993 -0.0160  0.3271  1.0743
  966SOL    HW2 2898   2.793   1.778   2.844 -1.9701  4.2984 -1.4575
  967SOL     OW 2899   2.081   3.039   2.824  0.4639  0.3744  0.6819
  967SOL    HW1 2900   2.126   0.036   2.792 -1.4793 -0.1427  3.1445
  967SOL    HW2 2901   2.155   2.970   2.842  0.1010 -0.0674 -0.5761
  968SOL     OW 2902   2.265   2.857   0.700 -0.9676  0.2362  0.0487
  968SOL    HW1 2903   2.209   2.870   0.620 -0.6957 -1.0405 -1.2843
  968SOL    HW2 2904   2.202   2.826   0.773 -0.5668  0.9755 -0.5238
  969SOL     OW 2905   0.864   1.064   2.387 -0.3410 -0.6447 -0.0780
  969SOL    HW1 2906   0.865   0.964   2.395  0.6206 -1.2939 -2.4427
  969SOL    HW2 2907   0.791   1.108   2.441  0.7298  0.4575  1.7266
  970SOL     OW 2908   1.544   1.211   1.004 -0.0869 -0.4488 -0.1987
  970SOL    HW1 2909   1.491   1.129   0.980  0.1783 -0.9031  1.0915
  970SOL    HW2 2910   1.559   1.220   1.105  0.5845 -1.3416  1.4057
  971SOL     OW 2911   2.317   3.009   1.213  0.1376  0.6629 -0.1367
  971SOL    HW1 2912   2.290   0.015   1.229 -0.5407 -2.2609 -2.3420
  971SOL    HW2 2913   2.421   2.999   1.209 -0.7101  0.7243 -0.8913
  972SOL     OW 2914   3.031   3.038   1.812  0.5348 -0.1577  0.2763
  972SOL    HW1 2915   2.948   2.985   1.844 -1.1007 -0.6632  1.2900
  972SOL    HW2 2916   0.015   2.976   1.779 -2.2506  2.3418 -2.9539
  973SOL     OW 2917   0.153   0.264   2.618  0.0995  0.2613 -0.3353
  973SOL    HW1 2918   0.209   0.237   2.699 -0.2419 -2.6856 -2.2339
  973SOL    HW2 2919   0.065   0.210   2.612  2.1586  1.3999  0.3855
  974SOL     OW 2920   2.308   1.095   2.338 -0.6952 -0.1274  0.1829
  974SOL    HW1 2921   2.345   1.140   2.423 -0.2273 -0.5406  0.2901
  974SOL    HW2 2922   2.236   1.026   2.359 -1.5222  1.1419 -0.1560
  975SOL     OW 2923   0.711   0.303   1.579 -0.0108 -0.8115  0.4217
  975SOL    HW1 2924   0.714   0.205   1.561 -0.8938  2.1482 -0.9746
  975SOL    HW2 2925   0.735   0.360   1.500 -3.5056  2.3104  1.9688
  976SOL     OW 2926   0.694   1.967   2.230  0.3708  0.5784 -0.2210
  976SOL    HW1 2927   0.596   1.992   2.220 -0.4857 -0.3391 -2.3104
  976SOL    HW2 2928   0.743   2.054   2.224 -0.3190 -2.5461 -1.4424
  977SOL     OW 2929   0.530   0.031   0.419 -0.3749 -0.2804 -0.1538
  977SOL    HW1 2930   0.620   3.075   0.429  0.1984 -0.3404  0.4419
  977SOL    HW2 2931   0.509   0.093   0.498  0.1177  0.5857 -0.9976
  978SOL     OW 2932   2.673   1.263   2.162 -0.1833 -0.2270  0.1860
  978SOL    HW1 2933   2.771   1.249   2.188 -0.0083 -2.1388  1.3932
  978SOL    HW2 2934   2.612   1.217   2.228 -0.7381 -0.3544  0.9849
  979SOL     OW 2935   1.740   0.089   1.742  0.1059  0.4111  0.7539
  979SOL    HW1 2936   1.749   0.172   1.680  1.0749  1.6568  2.3646
  979SOL    HW2 2937   1.832   0.068   1.772 -0.7478  2.3224 -0.6250
  980SOL     OW 2938   1.770   1.551   1.632  0.3235  0.2955 -0.0547
  980SOL    HW1 2939   1.818   1.561   1.540  1.5792 -1.3809 -0.8136
  980SOL    HW2 2940   1.671   1.571   1.612 -0.6095  1.7787 -0.1547
  981SOL     OW 2941   2.482   1.074   1.472  0.5156  0.0191  0.3537
  981SOL    HW1 2942   2.410   1.098   1.538 -1.6987 -0.3223  0.7395
  981SOL    HW2 2943   2.504   0.975   1.482  1.6637  0.4576  0.7319
  982SOL     OW 2944   0.448   3.018   2.803 -0.1831 -0.3642  0.7122
  982SOL    HW1 2945   0.520   3.017   2.876  0.3266  2.0085 -2.3749
  982SOL    HW2 2946   0.438   2.925   2.760  1.2677  0.1001 -0.3235
  983SOL     OW 2947   2.803   0.527   2.493  0.8230 -0.4337  0.1356
  983SOL    HW1 2948   2.855   0.611   2.511 -2.9926  0.8005 -1.9574
  983SOL    HW2 2949   2.821   0.497   2.397  1.1818 -0.1701 -1.4250
  984SOL     OW 2950   1.260   3.016   1.986  0.1967  0.1035 -0.6021
  984SOL    HW1 2951   1.347   2.977   2.026  0.1160 -3.0260 -0.8141
  984SOL    HW2 2952   1.191   2.940   1.978  1.6093 -5.6107  0.4415
  985SOL     OW 2953   1.861   2.045   1.987 -0.1325  0.2324  0.1952
  985SOL    HW1 2954   1.837   2.103   1.905 -1.0292 -0.6863 -0.7418
  985SOL    HW2 2955   1.917   1.963   1.962 -0.9642  0.8535 -2.2742
  986SOL     OW 2956   2.610   0.358   1.219  0.7216  0.0290 -0.8388
  986SOL    HW1 2957   2.548   0.353   1.302 -1.1453  1.4320  2.1842
  986SOL    HW2 2958   2.707   0.327   1.241  1.1920 -0.0943 -1.2137
  987SOL     OW 2959   2.621   1.184   1.278  0.6865  0.4023 -0.1013
  987SOL    HW1 2960   2.564   1.137   1.355 -1.2227  0.1893  1.5953
  987SOL    HW2 2961   2.603   1.147   1.185 -2.0097  1.3630  1.7481
  988SOL     OW 2962   2.619   1.232   1.896  0.1890 -0.0770  0.0351
  988SOL    HW1 2963   2.660   1.230   1.988  2.7834 -0.1197 -0.1207
  988SOL    HW2 2964   2.551   1.304   1.890  1.0390 -0.6614  0.1173
  989SOL     OW 2965   1.237   2.315   0.159 -0.1369  0.1225 -0.2372
  989SOL    HW1 2966   1.289   2.308   0.076 -0.5682 -1.9087  0.8699
  989SOL    HW2 2967   1.244   2.221   0.200 -1.3322  0.3024  0.0829
  990SOL     OW 2968   1.570   0.793   2.725 -0.2368 -0.0543  0.0540
  990SOL    HW1 2969   1.539   0.745   2.638 -1.7879 -0.2703 -0.8622
  990SOL    HW2 2970   1.497   0.863   2.747 -1.0942  0.5953 -0.5429
  991SOL     OW 2971   1.234   0.610   0.425 -0.2375 -0.0441 -0.4304
  991SOL    HW1 2972   1.299   0.537   0.452  0.8778  1.1822 -0.8217
  991SOL    HW2 2973   1.159   0.566   0.373 -1.4240 -0.9410  1.1658
  992SOL     OW 2974   2.801   1.864   1.058  0.4142 -0.6800  0.2365
  992SOL    HW1 2975   2.769   1.953   1.014  1.1909  0.9019 -2.4704
  992SOL    HW2 2976   2.807   1.875   1.161  0.9592  1.2328  2.0554
  993SOL     OW 2977   2.927   0.509   1.112  0.1510  0.2266  0.8070
  993SOL    HW1 2978   2.882   0.592   1.148  4.0274  0.2847 -0.5099
  993SOL    HW2 2979   2.889   0.474   1.024 -0.0581  0.4576  0.5885
  994SOL     OW 2980   0.096   2.047   2.642 -0.3408 -0.4114  0.2147
  994SOL    HW1 2981   0.181   2.036   2.696 -0.2549  0.5172 -1.6944
  994SOL    HW2 2982   0.112   2.097   2.554  0.7503  0.8802 -0.4144
  995SOL     OW 2983   1.792   1.014   2.678 -0.2741  0.4678 -0.4143
  995SOL    HW1 2984   1.855   1.038   2.602  0.2354 -1.5257  1.0874
  995SOL    HW2 2985   1.775   0.909   2.680  1.2009 -0.5901 -0.4452
  996SOL     OW 2986   2.635   1.336   0.569  0.1235  0.0577 -0.3872
  996SOL    HW1 2987   2.541   1.361   0.540  1.5692  0.9314  2.3078
  996SOL    HW2 2988   2.696   1.354   0.497 -4.0355 -0.5350  4.0999
  997SOL     OW 2989   1.885   0.796   2.141  0.8555  0.7580  0.0537
  997SOL    HW1 2990   1.985   0.772   2.142 -0.9106 -0.3769 -1.0045
  997SOL    HW2 2991   1.868   0.871   2.073 -0.4293 -0.6084  1.1050
  998SOL     OW 2992   2.728   1.522   0.256  0.7342  0.2056 -0.5270
  998SOL    HW1 2993   2.697   1.618   0.272  1.1441 -1.0976 -0.6101
  998SOL    HW2 2994   2.789   1.490   0.334  1.6703 -2.8147  1.0105
  999SOL     OW 2995   2.947   2.331   0.126 -0.1924 -0.2158  0.1608
  999SOL    HW1 2996   3.036   2.289   0.150 -2.2116  0.0127  0.2181
  999SOL    HW2 2997   2.893   2.330   0.210  2.1725  2.5338  0.2198
 1000SOL     OW 2998   0.889   0.869   2.612 -0.8650  0.1034 -0.0797
 1000SOL    HW1 2999   0.959   0.842   2.678 -0.8853 -0.3969  1.1542
 1000SOL    HW2 3000   0.914   0.828   2.521 -2.1841  1.1125 -0.4922
   3.08974   3.08974   3.08974
