1000 SPC/Fw water molecules t= 179.00000 step= 179000
 3000
    1SOL     OW    1   2.683   3.025   1.081 -0.2624  0.4481  0.2180
    1SOL    HW1    2   2.607   3.094   1.094 -1.9608  2.5867 -0.7678
    1SOL    HW2    3   2.668   2.990   0.986 -3.9476 -2.1962  0.7073
    2SOL     OW    4   1.621   1.679   2.086  1.0218 -0.3438  0.0732
    2SOL    HW1    5   1.558   1.607   2.042 -2.4000 -5.5912 -2.4705
    2SOL    HW2    6   1.593   1.778   2.067  1.0797  0.8564 -3.3073
    3SOL     OW    7   1.752   2.379   2.075 -0.0708  0.1972  0.2516
    3SOL    HW1    8   1.838   2.417   2.033  2.7043 -1.9325  0.2204
    3SOL    HW2    9   1.770   2.298   2.135 -0.6300  0.6415  0.2287
    4SOL     OW   10   2.157   2.155   1.909 -0.1235 -0.1191 -0.0044
    4SOL    HW1   11   2.240   2.170   1.852 -1.1956 -0.6725  0.4939
    4SOL    HW2   12   2.069   2.185   1.858 -4.7538 -0.1361  0.1530
    5SOL     OW   13   1.122   0.636   1.898 -0.0187  0.0894  0.0652
    5SOL    HW1   14   1.219   0.629   1.865  1.9355 -1.0409  0.8580
    5SOL    HW2   15   1.067   0.700   1.840  2.2094 -0.3071  2.3280
    6SOL     OW   16   2.805   0.795   2.999 -0.6770 -0.0675  0.8578
    6SOL    HW1   17   2.824   0.698   2.977 -1.6366 -0.6884  0.4399
    6SOL    HW2   18   2.708   0.798   3.020  1.4735  1.6856 -1.4039
    7SOL     OW   19   1.175   0.861   1.637  0.2046  0.1412  0.0285
    7SOL    HW1   20   1.121   0.773   1.641 -0.0677 -4.2796  2.3951
    7SOL    HW2   21   1.177   0.906   1.547 -1.7629 -1.0701  0.7039
    8SOL     OW   22   1.086   0.066   1.115  0.4214  0.8054 -0.2413
    8SOL    HW1   23   1.135   0.134   1.065 -0.8619 -2.0857  1.7538
    8SOL    HW2   24   0.989   0.089   1.113  1.5424 -0.9319 -0.3935
    9SOL     OW   25   0.766   0.983   3.088 -0.0505  0.5371 -0.3296
    9SOL    HW1   26   0.681   1.039   3.070  0.4160  2.9676 -2.8314
    9SOL    HW2   27   0.805   0.999   0.078 -1.4476 -1.9636 -1.7970
   10SOL     OW   28   0.278   2.848   0.205 -0.4864  0.2844  0.1250
   10SOL    HW1   29   0.187   2.867   0.248 -0.2606  2.1980  0.0081
   10SOL    HW2   30   0.290   2.748   0.191 -0.0195  0.7102  0.1881
   11SOL     OW   31   0.336   1.442   0.043  0.2538 -0.5202 -0.0746
   11SOL    HW1   32   0.390   1.472   3.063  2.1734 -1.5907 -0.0727
   11SOL    HW2   33   0.234   1.442   0.022 -1.9701  1.3118 -0.7518
   12SOL     OW   34   0.726   0.004   1.371 -0.6572  0.5090 -0.2722
   12SOL    HW1   35   0.807   0.012   1.430 -1.2205 -1.2564  0.8630
   12SOL    HW2   36   0.660   3.028   1.390 -0.9821 -0.3502 -1.4634
   13SOL     OW   37   1.049   2.805   0.707 -0.8472 -0.1243  0.5926
   13SOL    HW1   38   1.122   2.862   0.747  1.2211 -1.0598 -0.3351
   13SOL    HW2   39   1.004   2.854   0.626 -1.9870  4.2972 -2.5277
   14SOL     OW   40   1.140   1.978   1.320 -0.1836 -0.4676  0.4761
   14SOL    HW1   41   1.092   2.021   1.405 -0.7340 -0.6792 -0.3515
   14SOL    HW2   42   1.202   1.901   1.343 -0.9132  3.5507 -0.6709
   15SOL     OW   43   2.846   0.672   2.271  0.3581  0.5824 -0.4502
   15SOL    HW1   44   2.760   0.729   2.289  1.2369  3.0750  0.1020
   15SOL    HW2   45   2.819   0.577   2.301  1.0081 -0.2003 -0.8393
   16SOL     OW   46   1.304   2.829   2.692  0.1085 -0.5791  0.4966
   16SOL    HW1   47   1.328   2.744   2.642 -0.0011  0.4051  2.5871
   16SOL    HW2   48   1.276   2.802   2.785 -1.4998  0.3378  1.6231
   17SOL     OW   49   0.976   3.048   1.513 -0.0836 -0.5648 -0.2010
   17SOL    HW1   50   1.029   0.032   1.536  1.0350 -1.3430  1.1212
   17SOL    HW2   51   0.936   3.003   1.593 -1.0211 -2.4453  0.7350
   18SOL     OW   52   1.068   0.692   0.455  0.0126  0.0482  0.3283
   18SOL    HW1   53   0.966   0.698   0.451  2.0281 -2.1797  1.4084
   18SOL    HW2   54   1.102   0.625   0.382  0.9299  0.1446 -0.6792
   19SOL     OW   55   2.206   1.633   2.862  0.1928  0.1008 -0.1524
   19SOL    HW1   56   2.144   1.652   2.785  1.0993 -1.3886  0.6094
   19SOL    HW2   57   2.304   1.651   2.840  1.1013 -1.2662 -1.2982
   20SOL     OW   58   2.052   1.549   1.841 -0.6104  0.0109 -0.3100
   20SOL    HW1   59   1.988   1.569   1.921 -0.7936  0.9809  0.7279
   20SOL    HW2   60   2.001   1.574   1.752 -0.0065  1.4643 -0.3183
   21SOL     OW   61   0.554   1.496   2.968  0.0730  0.0244 -0.7466
   21SOL    HW1   62   0.583   1.594   2.958 -1.3765  0.4183  2.1132
   21SOL    HW2   63   0.526   1.456   2.879 -0.8083 -0.3748 -1.1631
   22SOL     OW   64   2.589   3.084   1.365 -0.0054  0.5172  0.0239
   22SOL    HW1   65   2.496   3.052   1.386  2.4463  2.7677  0.2627
   22SOL    HW2   66   2.579   0.024   1.276 -1.9873 -0.9162  0.8517
   23SOL     OW   67   2.957   0.814   1.655 -0.3823  0.2779 -0.2597
   23SOL    HW1   68   2.863   0.856   1.652  0.5355  1.0608 -3.3284
   23SOL    HW2   69   2.957   0.721   1.604  1.1313 -2.7110 -0.6624
   24SOL     OW   70   2.606   2.348   1.505  0.3430  0.6387  0.2012
   24SOL    HW1   71   2.527   2.413   1.491  1.6857  0.1337 -0.5144
   24SOL    HW2   72   2.674   2.386   1.571 -0.4002 -1.0669  2.3104
   25SOL     OW   73   1.916   2.935   2.545 -0.3283  0.2970  0.3247
   25SOL    HW1   74   1.955   2.885   2.468 -2.2891  0.8381 -0.2310
   25SOL    HW2   75   1.815   2.945   2.522 -0.0202 -0.8436  2.2197
   26SOL     OW   76   1.300   2.903   0.059  0.0367 -0.0807 -0.3156
   26SOL    HW1   77   1.264   2.854   3.084  1.5203  1.1058  3.3930
   26SOL    HW2   78   1.367   2.842   0.107  1.5873 -0.9622 -0.5765
   27SOL     OW   79   0.541   2.237   2.963  0.2857  0.2124 -0.2179
   27SOL    HW1   80   0.492   2.198   3.038  1.4234 -1.2717 -2.2979
   27SOL    HW2   81   0.544   2.183   2.877 -0.1688  1.1269  1.4680
   28SOL     OW   82   0.026   1.512   1.346 -0.3055  0.3222  0.2486
   28SOL    HW1   83   0.033   1.534   1.247  1.0100  0.8784 -0.3642
   28SOL    HW2   84   0.117   1.526   1.391 -1.5082 -1.4469  0.1360
   29SOL     OW   85   2.637   1.931   2.192 -0.0497 -0.0423 -0.0295
   29SOL    HW1   86   2.605   1.866   2.260 -0.6650 -1.3391 -2.0040
   29SOL    HW2   87   2.736   1.949   2.217 -1.2245 -1.1445 -0.5848
   30SOL     OW   88   1.249   2.966   1.053 -0.0287  0.2597  0.7660
   30SOL    HW1   89   1.240   2.884   1.111  0.6836 -0.5051 -0.3274
   30SOL    HW2   90   1.188   3.039   1.089 -2.4904  0.1630  1.0367
   31SOL     OW   91   0.089   2.325   1.816  0.4747 -0.1359  0.5683
   31SOL    HW1   92   0.048   2.403   1.867  1.1777 -0.5647 -2.2005
   31SOL    HW2   93   0.190   2.337   1.797 -0.0661  1.4320 -0.1932
   32SOL     OW   94   1.332   0.925   1.871  0.1337 -0.5575 -0.4263
   32SOL    HW1   95   1.264   0.917   1.794  2.6911  0.6478  1.0921
   32SOL    HW2   96   1.324   1.010   1.917  3.4209 -1.8834 -1.9060
   33SOL     OW   97   0.158   2.655   2.281  0.1124 -0.1344  0.3259
   33SOL    HW1   98   0.066   2.624   2.315 -1.1336  0.7244  0.3409
   33SOL    HW2   99   0.155   2.702   2.192 -1.7664  0.9140 -0.9464
   34SOL     OW  100   2.114   0.205   0.821  0.2181 -0.1913 -0.4562
   34SOL    HW1  101   2.024   0.167   0.794  3.5074  1.1976  2.6128
   34SOL    HW2  102   2.183   0.159   0.761  0.2638 -1.0005 -0.0862
   35SOL     OW  103   2.292   0.787   1.461  0.1701  0.6479 -0.3232
   35SOL    HW1  104   2.258   0.883   1.457  0.8935 -0.6882  0.6088
   35SOL    HW2  105   2.394   0.786   1.469  0.7792 -1.8448  0.4795
   36SOL     OW  106   2.267   2.541   2.084 -0.8874  0.8251 -0.2419
   36SOL    HW1  107   2.169   2.555   2.051 -3.0586  1.8374 -2.3668
   36SOL    HW2  108   2.277   2.490   2.174 -0.0011  0.0212 -1.1538
   37SOL     OW  109   0.831   2.359   2.347 -0.1105 -0.4001  0.2946
   37SOL    HW1  110   0.915   2.353   2.286  2.6436 -0.2865 -1.4455
   37SOL    HW2  111   0.828   2.450   2.397 -0.0331  0.2737 -1.2406
   38SOL     OW  112   2.684   0.263   2.943 -0.1000 -0.4236 -0.2363
   38SOL    HW1  113   2.763   0.251   2.880  1.6495  0.1182  1.4108
   38SOL    HW2  114   2.605   0.213   2.903 -0.3254  0.9435 -0.1903
   39SOL     OW  115   1.877   1.579   2.040  0.2502  0.6801 -0.0133
   39SOL    HW1  116   1.802   1.648   2.052 -0.3997  0.3527 -0.7563
   39SOL    HW2  117   1.935   1.564   2.124  1.8818 -0.0004  1.0448
   40SOL     OW  118   3.099   2.909   2.650  0.2271 -0.3254 -0.4221
   40SOL    HW1  119   3.064   2.834   2.710  0.5204 -1.1900  1.3815
   40SOL    HW2  120   0.072   2.870   2.590  0.6049 -1.4051  0.7211
   41SOL     OW  121   1.851   0.504   1.306  0.3395 -0.0082  0.4362
   41SOL    HW1  122   1.948   0.486   1.285 -0.0557  2.3267 -1.4108
   41SOL    HW2  123   1.794   0.469   1.232  1.9607  1.0309 -2.3913
   42SOL     OW  124   0.981   0.095   1.773  0.4904 -0.6127  0.1704
   42SOL    HW1  125   0.995   0.191   1.796  0.5536 -2.9406  0.9407
   42SOL    HW2  126   0.895   0.063   1.819 -0.8128 -0.4829 -1.0579
   43SOL     OW  127   2.163   0.925   2.156 -0.1839  0.3185  0.3970
   43SOL    HW1  128   2.169   1.019   2.193 -1.9498 -1.4442  1.1264
   43SOL    HW2  129   2.200   0.923   2.062  1.6710  0.1642 -0.1999
   44SOL     OW  130   0.036   2.952   0.289 -0.5478 -0.2571  0.5749
   44SOL    HW1  131   3.050   2.921   0.248  0.2961  0.2505 -0.9604
   44SOL    HW2  132   0.063   3.042   0.243  1.9674  1.7461 -2.9444
   45SOL     OW  133   0.297   2.543   1.890  0.4407 -0.1038  0.3101
   45SOL    HW1  134   0.251   2.614   1.947 -0.0310  0.5417  1.1352
   45SOL    HW2  135   0.298   2.575   1.794 -1.3544 -0.6502  2.1007
   46SOL     OW  136   2.092   2.253   2.216 -0.2096 -0.4249  0.0448
   46SOL    HW1  137   2.196   2.248   2.198  2.8654  0.2316  1.7838
   46SOL    HW2  138   2.050   2.347   2.237 -2.9017  1.5123 -0.6233
   47SOL     OW  139   1.616   2.083   1.472  0.2811 -0.1044  0.2848
   47SOL    HW1  140   1.644   2.142   1.554  1.4696  1.7974  2.9800
   47SOL    HW2  141   1.568   2.137   1.399 -1.2277  2.0837  0.4118
   48SOL     OW  142   0.536   1.616   0.510  0.0164 -0.2167  0.5801
   48SOL    HW1  143   0.605   1.669   0.450  2.7945  3.4090 -1.9399
   48SOL    HW2  144   0.552   1.615   0.611  0.0291 -0.4450  1.0400
   49SOL     OW  145   2.730   0.329   2.599 -0.0037  0.7867  0.8760
   49SOL    HW1  146   2.757   0.412   2.653 -1.6746  2.4406  2.1552
   49SOL    HW2  147   2.742   0.362   2.497 -0.4179  3.2961 -0.1550
   50SOL     OW  148   2.140   0.920   0.656  0.3304  0.3537  0.0772
   50SOL    HW1  149   2.085   0.991   0.610  0.8369 -0.8988  0.5046
   50SOL    HW2  150   2.229   0.956   0.683 -2.2359 -0.6612 -1.2488
   51SOL     OW  151   1.497   0.285   0.791  0.4786 -0.2045 -0.0918
   51SOL    HW1  152   1.515   0.282   0.891 -0.6289  1.1040  1.3501
   51SOL    HW2  153   1.423   0.351   0.764  0.9336  2.3473  0.4087
   52SOL     OW  154   1.286   1.312   0.042 -0.0749  0.0331  0.0026
   52SOL    HW1  155   1.264   1.252   0.119 -0.8142 -1.8724  2.6612
   52SOL    HW2  156   1.327   1.405   0.068 -0.1802 -0.9484 -1.5756
   53SOL     OW  157   0.994   1.930   2.796 -0.3579 -0.5911 -0.5081
   53SOL    HW1  158   0.924   1.974   2.853 -0.4354  0.0867 -1.2034
   53SOL    HW2  159   0.946   1.900   2.712  1.0588  4.1586 -0.3132
   54SOL     OW  160   2.092   0.441   1.233  0.9447 -0.1403 -0.1480
   54SOL    HW1  161   2.171   0.503   1.217 -0.1033 -2.5509  1.2351
   54SOL    HW2  162   2.112   0.391   1.321 -2.3372  0.2004 -1.7357
   55SOL     OW  163   2.407   2.778   0.529  0.2328  0.5700 -0.8967
   55SOL    HW1  164   2.474   2.850   0.516 -0.4461  0.1116  0.8730
   55SOL    HW2  165   2.317   2.803   0.483 -1.0765 -0.2901  0.3624
   56SOL     OW  166   0.518   2.947   1.448 -0.2896  0.6390  0.4754
   56SOL    HW1  167   0.436   2.982   1.496  1.1480 -0.9339 -0.7374
   56SOL    HW2  168   0.527   2.847   1.472 -1.0832 -0.1644 -2.3700
   57SOL     OW  169   1.593   1.342   0.690  0.4665 -0.1979  0.6432
   57SOL    HW1  170   1.609   1.298   0.598  0.8592  0.3990 -0.7548
   57SOL    HW2  171   1.661   1.417   0.711  1.1505 -1.1908 -1.0591
   58SOL     OW  172   0.246   0.761   2.276  0.0275 -0.4292  1.0067
   58SOL    HW1  173   0.188   0.847   2.251 -2.7800 -0.6770  0.5213
   58SOL    HW2  174   0.205   0.674   2.244  0.7896 -1.0751 -0.1709
   59SOL     OW  175   0.960   2.879   2.294  0.1392 -0.0918  0.0783
   59SOL    HW1  176   1.043   2.899   2.345  1.9414  1.9939  2.7317
   59SOL    HW2  177   0.871   2.911   2.337 -0.7241  0.9509  0.4302
   60SOL     OW  178   2.578   2.691   1.001  0.4243  0.4341 -0.1637
   60SOL    HW1  179   2.498   2.745   0.959  0.6451  0.0453  0.7399
   60SOL    HW2  180   2.577   2.703   1.100 -2.6161 -1.7101  0.2787
   61SOL     OW  181   1.086   1.996   0.750 -0.1772 -0.1455  0.0329
   61SOL    HW1  182   0.997   1.997   0.698 -1.1167  2.6334 -0.3946
   61SOL    HW2  183   1.091   1.998   0.853  3.2096 -2.0517  1.4403
   62SOL     OW  184   2.233   2.342   2.647 -0.4862 -0.1173  0.3820
   62SOL    HW1  185   2.205   2.284   2.727 -0.5506 -2.4394 -1.0472
   62SOL    HW2  186   2.301   2.412   2.678  2.0625  1.1034  0.5860
   63SOL     OW  187   2.336   0.659   2.912  0.2250  0.5119  0.2238
   63SOL    HW1  188   2.245   0.651   2.962  0.3712 -1.0902 -1.0829
   63SOL    HW2  189   2.367   0.564   2.886 -0.5428  0.5698  1.4861
   64SOL     OW  190   0.907   1.088   2.873  0.4714  0.4797  0.4255
   64SOL    HW1  191   0.963   1.167   2.907  3.1841  2.6284 -1.0877
   64SOL    HW2  192   0.856   1.036   2.945 -1.0185 -0.7770  1.1388
   65SOL     OW  193   1.241   2.221   0.606 -0.6262  0.3042  0.4800
   65SOL    HW1  194   1.155   2.265   0.576 -0.0243 -1.6400  1.5517
   65SOL    HW2  195   1.285   2.151   0.542  2.3986 -0.1108  1.4319
   66SOL     OW  196   0.789   1.225   1.740 -0.3761 -0.5619  0.4571
   66SOL    HW1  197   0.824   1.130   1.752  0.2244  0.3623  0.1423
   66SOL    HW2  198   0.800   1.272   1.826 -2.7927  0.8478  0.3683
   67SOL     OW  199   2.300   2.843   2.408 -0.0069 -0.6228 -0.0604
   67SOL    HW1  200   2.205   2.814   2.387 -0.3125 -0.9739  1.0531
   67SOL    HW2  201   2.334   2.906   2.337 -1.0730 -1.2198  0.3735
   68SOL     OW  202   0.662   1.538   1.231 -0.7110  0.1530  0.0397
   68SOL    HW1  203   0.745   1.601   1.230 -1.9042 -1.1250  0.2170
   68SOL    HW2  204   0.688   1.441   1.246 -2.3493  1.9249  0.1254
   69SOL     OW  205   1.600   2.300   0.188  0.0938 -0.4612 -0.8226
   69SOL    HW1  206   1.659   2.260   0.262 -0.7384  1.5048  1.3076
   69SOL    HW2  207   1.580   2.398   0.208 -1.2051  0.5267 -0.2135
   70SOL     OW  208   0.040   0.971   2.548  0.0582  0.1774 -0.0895
   70SOL    HW1  209   3.066   1.032   2.574 -2.3246  2.6229  0.7114
   70SOL    HW2  210   0.010   0.885   2.503 -0.7767  0.9785  1.7327
   71SOL     OW  211   0.052   1.609   2.566  0.5777  0.2143 -0.1020
   71SOL    HW1  212   0.095   1.614   2.472  0.2816 -2.6341 -0.4383
   71SOL    HW2  213   0.099   1.679   2.624 -0.4436  0.5237 -1.8042
   72SOL     OW  214   2.600   2.321   0.460  0.0166  0.1768 -0.0473
   72SOL    HW1  215   2.647   2.246   0.515  1.3365  0.1370  0.2149
   72SOL    HW2  216   2.573   2.291   0.364  0.4419  0.9660 -0.5636
   73SOL     OW  217   0.687   1.804   0.365  0.5537 -0.3739 -0.1005
   73SOL    HW1  218   0.714   1.890   0.418  1.0432 -0.9826  4.2045
   73SOL    HW2  219   0.772   1.751   0.343  0.1439 -0.8762  0.0938
   74SOL     OW  220   0.038   1.342   2.641 -0.2504 -0.3142  0.3603
   74SOL    HW1  221   0.023   1.438   2.607 -0.0789  0.5189  0.3666
   74SOL    HW2  222   3.067   1.273   2.618 -0.7668 -0.7611 -0.5895
   75SOL     OW  223   1.704   1.394   1.913 -0.1293  0.1732 -0.1869
   75SOL    HW1  224   1.760   1.447   1.974  0.4125 -2.6305  0.0351
   75SOL    HW2  225   1.613   1.433   1.907  3.3656  1.3726 -3.3803
   76SOL     OW  226   1.805   2.414   1.343 -0.0157  0.3902 -0.5115
   76SOL    HW1  227   1.758   2.379   1.260 -0.0499  0.5845  0.8337
   76SOL    HW2  228   1.767   2.504   1.366  0.3810  0.4989  0.0704
   77SOL     OW  229   2.597   1.035   1.134 -0.1981 -0.2739  0.3876
   77SOL    HW1  230   2.668   0.979   1.181 -2.0092  0.7874 -0.8145
   77SOL    HW2  231   2.561   0.987   1.051 -0.3335 -2.7056 -1.1627
   78SOL     OW  232   1.375   0.939   0.649 -0.1760  0.2513 -0.1805
   78SOL    HW1  233   1.347   1.015   0.710 -2.3012 -1.3529 -0.2885
   78SOL    HW2  234   1.461   0.948   0.592  0.5592  0.8149 -0.0407
   79SOL     OW  235   0.035   1.567   1.971  0.2362  0.0786 -0.3040
   79SOL    HW1  236   0.095   1.499   1.925  0.4418 -0.3242  1.0866
   79SOL    HW2  237   3.053   1.511   1.991  0.2559  0.6238  0.5602
   80SOL     OW  238   1.592   1.012   1.584 -0.1692 -0.1127  0.1021
   80SOL    HW1  239   1.568   0.917   1.607  1.7458  4.0327 -1.5001
   80SOL    HW2  240   1.557   1.042   1.490  0.3762 -0.8223 -1.3758
   81SOL     OW  241   0.984   0.187   0.603 -0.2572  0.0883  0.2838
   81SOL    HW1  242   0.926   0.218   0.679 -0.0850  3.2949 -2.8133
   81SOL    HW2  243   0.989   0.261   0.535  0.5943 -1.5811  3.2263
   82SOL     OW  244   1.535   2.661   1.493 -0.6712 -0.3328  0.2649
   82SOL    HW1  245   1.529   2.748   1.437  1.4665  1.4695  0.2671
   82SOL    HW2  246   1.630   2.652   1.535  0.8723 -0.3326 -0.5011
   83SOL     OW  247   0.761   2.276   0.976 -0.1083  0.3483 -0.4430
   83SOL    HW1  248   0.675   2.215   0.977 -0.9220 -1.4241 -1.5124
   83SOL    HW2  249   0.826   2.250   1.052  3.4683 -0.7655  0.0811
   84SOL     OW  250   0.332   1.472   2.731 -0.5453 -0.1196 -0.2776
   84SOL    HW1  251   0.244   1.437   2.695  1.8879 -0.7415  0.4692
   84SOL    HW2  252   0.408   1.434   2.675  2.3842  0.6120  0.2810
   85SOL     OW  253   0.128   2.315   1.261 -0.2261 -0.1683  0.4379
   85SOL    HW1  254   0.093   2.267   1.342 -1.3669  1.6201  0.2758
   85SOL    HW2  255   0.165   2.405   1.280  2.5132  0.2521 -0.9181
   86SOL     OW  256   2.331   2.317   1.696 -0.4883 -0.0232  0.0449
   86SOL    HW1  257   2.339   2.341   1.794 -2.0001  0.4469 -1.8666
   86SOL    HW2  258   2.275   2.381   1.643 -0.1853  0.3887 -0.1590
   87SOL     OW  259   2.534   2.238   0.209 -0.3642 -0.4106 -0.0422
   87SOL    HW1  260   2.462   2.198   0.269  0.5497 -0.2222 -2.3774
   87SOL    HW2  261   2.611   2.176   0.197 -2.3768  4.6062 -2.8623
   88SOL     OW  262   0.514   1.608   1.028 -0.0307 -0.1705  0.1002
   88SOL    HW1  263   0.431   1.644   1.074 -0.0899  1.4412 -1.5899
   88SOL    HW2  264   0.571   1.553   1.093  0.6905  0.1184 -1.3197
   89SOL     OW  265   1.034   2.807   1.841 -0.3278  0.0067  0.4023
   89SOL    HW1  266   1.055   2.763   1.752  1.0043 -0.5224  0.0441
   89SOL    HW2  267   1.105   2.885   1.858 -2.3102  0.7741  1.4090
   90SOL     OW  268   3.009   1.772   1.506  0.3666 -0.1234  0.4420
   90SOL    HW1  269   2.934   1.702   1.510  0.8455  0.6505 -0.1946
   90SOL    HW2  270   3.086   1.730   1.455 -3.1876  0.8103 -0.6939
   91SOL     OW  271   1.491   1.887   1.141  0.3791 -0.0127  0.5764
   91SOL    HW1  272   1.403   1.860   1.181 -1.2313 -1.4923 -2.3388
   91SOL    HW2  273   1.503   1.991   1.141 -1.3967  2.0527  1.0098
   92SOL     OW  274   2.417   2.552   1.407 -0.1554 -0.0862  1.0647
   92SOL    HW1  275   2.377   2.629   1.460  1.3099 -1.4853 -0.3429
   92SOL    HW2  276   2.501   2.593   1.358  0.8398 -0.6081 -2.0110
   93SOL     OW  277   2.648   1.454   2.584  0.9311 -0.1953  0.5570
   93SOL    HW1  278   2.666   1.389   2.507  2.0234 -0.2628  3.6805
   93SOL    HW2  279   2.738   1.498   2.612 -1.0241 -0.0338  1.7711
   94SOL     OW  280   2.754   2.744   2.069  0.3496 -0.0393  0.0076
   94SOL    HW1  281   2.690   2.676   2.114  2.6760  1.4914  3.3433
   94SOL    HW2  282   2.734   2.744   1.969  0.8874 -2.7079 -0.6922
   95SOL     OW  283   1.585   0.131   1.598 -0.0508  0.1778  0.4060
   95SOL    HW1  284   1.618   0.098   1.687 -2.9484 -0.2472 -1.0186
   95SOL    HW2  285   1.643   0.097   1.525 -3.8672  1.8778  1.0548
   96SOL     OW  286   3.103   2.896   1.484 -0.5730  0.3014 -0.1100
   96SOL    HW1  287   3.015   2.942   1.484  3.6805 -1.2491 -1.1122
   96SOL    HW2  288   0.012   2.836   1.404 -1.3641  3.2293  0.8263
   97SOL     OW  289   2.160   0.310   1.450  0.6661 -0.0127 -0.2010
   97SOL    HW1  290   2.254   0.320   1.486 -0.2919 -1.9101 -2.5013
   97SOL    HW2  291   2.091   0.322   1.525  0.2374  0.5228 -3.0024
   98SOL     OW  292   1.356   2.312   1.538  0.6228 -0.5602 -0.2324
   98SOL    HW1  293   1.320   2.395   1.584 -0.0616 -1.9340 -0.1966
   98SOL    HW2  294   1.458   2.314   1.541 -0.2586  1.8561 -1.3961
   99SOL     OW  295   3.068   2.986   1.835 -0.1450 -0.2290 -0.5120
   99SOL    HW1  296   0.037   2.935   1.787  1.8881 -3.8193  2.3266
   99SOL    HW2  297   3.089   2.982   1.938  0.6522 -2.2244  0.8945
  100SOL     OW  298   2.933   1.010   2.307 -0.4755 -0.0373  0.1137
  100SOL    HW1  299   2.941   1.112   2.313  3.3265  1.7569  0.8228
  100SOL    HW2  300   2.918   0.964   2.395 -1.6499 -0.6603 -2.3486
  101SOL     OW  301   1.958   0.860   0.251  0.5634  0.2952 -0.0910
  101SOL    HW1  302   2.039   0.905   0.292 -0.8844 -0.8162  0.2131
  101SOL    HW2  303   1.976   0.831   0.158  0.4377  2.2858  2.2348
  102SOL     OW  304   3.062   0.623   1.246  0.0152  0.0290  0.0493
  102SOL    HW1  305   3.028   0.599   1.150 -0.3503  2.0324  2.1437
  102SOL    HW2  306   3.073   0.723   1.261  1.2037  0.7819 -0.5073
  103SOL     OW  307   2.428   0.863   2.720 -0.6852 -0.3075 -0.0168
  103SOL    HW1  308   2.382   0.798   2.782 -0.5614  0.4671 -0.0266
  103SOL    HW2  309   2.437   0.956   2.759  0.5859 -0.1030 -1.1030
  104SOL     OW  310   0.114   0.079   2.326  0.5590  0.1433  0.7893
  104SOL    HW1  311   0.050   0.038   2.396 -1.2246 -0.3640 -1.3516
  104SOL    HW2  312   0.209   0.046   2.347 -0.3932  0.8366 -0.2977
  105SOL     OW  313   2.154   1.027   1.739 -0.4766 -0.6449  0.6440
  105SOL    HW1  314   2.166   1.018   1.639 -0.0892 -1.4642 -0.8249
  105SOL    HW2  315   2.159   1.125   1.771 -0.1050  3.7383  2.4617
  106SOL     OW  316   1.266   2.976   0.794  0.0956 -0.2162  0.0438
  106SOL    HW1  317   1.260   3.074   0.770  1.3022 -1.2616  1.0139
  106SOL    HW2  318   1.270   2.965   0.898  0.3928 -0.3903 -1.0801
  107SOL     OW  319   0.047   1.540   1.072  0.4001 -0.4723 -0.0974
  107SOL    HW1  320   0.041   1.637   1.035 -0.6751 -0.4525 -1.4919
  107SOL    HW2  321   0.069   1.474   0.999 -2.9627  1.6624 -0.4141
  108SOL     OW  322   0.344   3.049   2.393 -0.1634 -0.3024  0.6348
  108SOL    HW1  323   0.313   2.956   2.431 -1.3790 -0.3696  2.5354
  108SOL    HW2  324   0.351   0.010   2.470  0.7778 -0.2109  2.0539
  109SOL     OW  325   2.334   0.141   0.412  0.2521 -0.2892 -0.3283
  109SOL    HW1  326   2.263   0.125   0.339 -0.2693 -0.4616  0.7338
  109SOL    HW2  327   2.431   0.138   0.374  0.2230 -1.6176 -0.5162
  110SOL     OW  328   0.253   2.353   2.765  0.1270  0.3716  0.0022
  110SOL    HW1  329   0.185   2.313   2.698 -2.7947  2.5230 -4.0546
  110SOL    HW2  330   0.327   2.393   2.707 -0.7707 -0.6200 -0.9158
  111SOL     OW  331   1.721   2.892   2.014  0.4029  0.4550  0.0299
  111SOL    HW1  332   1.657   2.891   1.937  1.3372  0.4584  0.0750
  111SOL    HW2  333   1.744   2.988   2.044  0.0928  1.8047  1.8423
  112SOL     OW  334   2.144   2.621   2.894 -0.1843 -0.0609  0.4907
  112SOL    HW1  335   2.076   2.546   2.888  0.8954  0.8311  1.2117
  112SOL    HW2  336   2.103   2.701   2.942 -2.0908  0.4069  0.2394
  113SOL     OW  337   2.761   2.112   1.869 -0.1342  0.6340 -0.2505
  113SOL    HW1  338   2.751   2.012   1.879 -0.7266  2.0889  3.2543
  113SOL    HW2  339   2.856   2.139   1.885 -0.1819  1.7508 -0.9595
  114SOL     OW  340   2.543   0.895   0.912  0.2287 -0.5589  0.1386
  114SOL    HW1  341   2.468   0.843   0.952  0.2094  1.6959 -1.6366
  114SOL    HW2  342   2.511   0.952   0.834  2.1839 -1.6862  1.2748
  115SOL     OW  343   0.149   1.803   2.732 -0.0562  0.4254 -0.0314
  115SOL    HW1  344   0.196   1.795   2.817 -0.7458  1.3835 -2.7504
  115SOL    HW2  345   0.112   1.893   2.707  2.9129 -0.2922 -0.2193
  116SOL     OW  346   0.319   1.462   2.194  0.1037  0.1870  0.5022
  116SOL    HW1  347   0.358   1.538   2.252 -0.7095 -2.1079 -0.2958
  116SOL    HW2  348   0.372   1.465   2.105 -0.2945 -2.1703  1.9577
  117SOL     OW  349   2.513   0.279   0.841  0.0239  0.2486 -0.2584
  117SOL    HW1  350   2.436   0.235   0.892  0.0748  2.5090 -0.1043
  117SOL    HW2  351   2.469   0.291   0.747 -2.5082  1.7343 -0.0061
  118SOL     OW  352   0.447   2.086   1.571  0.1240  0.0457 -0.6211
  118SOL    HW1  353   0.476   2.133   1.482  0.2197 -1.5427 -1.3363
  118SOL    HW2  354   0.517   2.023   1.613  1.3324 -1.6455 -2.3643
  119SOL     OW  355   1.610   2.166   0.484 -0.9182  0.0457  0.2673
  119SOL    HW1  356   1.664   2.250   0.465  1.4415  1.8470 -0.7162
  119SOL    HW2  357   1.655   2.077   0.461 -0.2494 -3.5234  1.5564
  120SOL     OW  358   0.434   1.649   2.346  0.3641 -0.1167  0.2256
  120SOL    HW1  359   0.406   1.705   2.425  2.1964 -2.1519 -2.2847
  120SOL    HW2  360   0.445   1.704   2.264 -2.1351  0.8257  1.6317
  121SOL     OW  361   2.183   2.192   1.313 -0.3722  0.3898 -0.3503
  121SOL    HW1  362   2.192   2.106   1.370 -0.2436  1.0668 -3.0484
  121SOL    HW2  363   2.266   2.224   1.263 -2.1552 -2.1456  2.8997
  122SOL     OW  364   2.385   1.923   2.073  0.1716 -0.2291 -0.1356
  122SOL    HW1  365   2.377   1.924   1.972 -0.0908 -0.9449 -0.1532
  122SOL    HW2  366   2.481   1.933   2.108 -3.0687  0.9364  0.8446
  123SOL     OW  367   2.912   3.022   0.727  0.1224  0.0672  0.0743
  123SOL    HW1  368   2.906   3.103   0.792 -0.7022 -3.3670  0.7881
  123SOL    HW2  369   3.005   2.989   0.744  0.4200  3.3659  0.3590
  124SOL     OW  370   1.766   0.579   2.361  0.3645  0.6458  0.2007
  124SOL    HW1  371   1.709   0.629   2.292 -1.0038  0.2124  0.8545
  124SOL    HW2  372   1.807   0.502   2.310  1.5504  1.7924 -0.0822
  125SOL     OW  373   0.253   1.319   0.270 -0.2873 -0.2520 -0.5256
  125SOL    HW1  374   0.303   1.364   0.191  1.5192 -0.0125  0.0113
  125SOL    HW2  375   0.262   1.216   0.257 -0.8757 -3.1246  1.1495
  126SOL     OW  376   2.349   2.145   0.364 -0.2418  0.3034 -0.3909
  126SOL    HW1  377   2.265   2.109   0.321 -3.6303  0.0528  0.9296
  126SOL    HW2  378   2.327   2.191   0.455 -1.0573  0.3297 -2.4081
  127SOL     OW  379   0.282   1.690   1.192 -0.3961 -0.4009  0.3929
  127SOL    HW1  380   0.224   1.610   1.167 -0.3309 -0.1907  1.0641
  127SOL    HW2  381   0.232   1.753   1.258  0.3834  2.0514 -1.1241
  128SOL     OW  382   0.720   0.728   0.022  0.2834  0.8326 -0.6901
  128SOL    HW1  383   0.662   0.695   3.050 -1.1307  0.4230  2.8416
  128SOL    HW2  384   0.748   0.827   0.000  1.7148  0.4853 -1.1841
  129SOL     OW  385   2.390   1.557   0.860 -0.0214  0.0741 -0.7280
  129SOL    HW1  386   2.444   1.494   0.802 -2.3620  1.9519  0.9905
  129SOL    HW2  387   2.291   1.530   0.876  0.3011  1.5381 -1.0612
  130SOL     OW  388   2.230   1.817   1.218 -0.0497  0.1515 -0.3122
  130SOL    HW1  389   2.220   1.852   1.123 -0.0579 -1.1384  1.8392
  130SOL    HW2  390   2.203   1.719   1.223 -0.4037  0.8864 -0.8736
  131SOL     OW  391   2.943   0.960   2.832  0.5404 -0.7242  0.1177
  131SOL    HW1  392   2.899   0.883   2.883 -0.6214  1.2138 -1.2904
  131SOL    HW2  393   3.037   0.978   2.879 -0.3011 -0.5294 -0.0761
  132SOL     OW  394   2.678   1.854   1.915 -0.2291 -0.0669 -0.2233
  132SOL    HW1  395   2.761   1.796   1.901 -4.1554 -1.7094 -3.1971
  132SOL    HW2  396   2.658   1.871   2.017  1.6248  0.8352  0.8695
  133SOL     OW  397   0.077   0.918   0.696 -0.2840  0.2780  0.2644
  133SOL    HW1  398   0.141   0.928   0.774  3.8267  1.7045 -0.8547
  133SOL    HW2  399   3.091   0.875   0.723 -0.7212 -1.8772 -0.2293
  134SOL     OW  400   0.244   1.055   0.193 -0.1165  0.1352 -0.2606
  134SOL    HW1  401   0.213   0.965   0.232 -0.1832  0.8330 -0.1896
  134SOL    HW2  402   0.311   1.041   0.118 -0.0072 -1.0185 -2.8548
  135SOL     OW  403   2.116   1.473   0.928 -0.0945 -0.1939  0.3411
  135SOL    HW1  404   2.126   1.386   0.983  1.6722  1.1674  3.3136
  135SOL    HW2  405   2.036   1.472   0.866  1.0407  0.5937  2.8631
  136SOL     OW  406   1.915   1.199   1.130  0.3393 -0.0921  0.0693
  136SOL    HW1  407   1.917   1.156   1.218  1.2552  3.2252 -2.8988
  136SOL    HW2  408   1.834   1.179   1.073  1.0183  0.6535  1.1092
  137SOL     OW  409   2.523   1.742   0.730 -0.1914  0.8300  0.1108
  137SOL    HW1  410   2.471   1.663   0.774  1.4923 -0.1487  0.9012
  137SOL    HW2  411   2.518   1.821   0.795  0.0196 -2.7905 -0.0015
  138SOL     OW  412   1.407   0.506   1.991  0.4787 -0.4298  0.1130
  138SOL    HW1  413   1.486   0.539   2.044  0.7642  0.7193 -0.8127
  138SOL    HW2  414   1.388   0.568   1.916 -3.9960 -1.3986 -2.1007
  139SOL     OW  415   2.116   0.156   2.983 -0.4687 -0.3558  0.1804
  139SOL    HW1  416   2.164   0.102   2.910 -0.4138 -0.9861 -2.0651
  139SOL    HW2  417   2.172   0.217   3.043  0.3445 -1.1174 -1.0222
  140SOL     OW  418   1.532   2.246   2.461  0.4646  0.2049  0.0154
  140SOL    HW1  419   1.537   2.306   2.547 -1.9184  0.4762  2.6813
  140SOL    HW2  420   1.531   2.150   2.486 -1.0528  2.9389  1.5372
  141SOL     OW  421   1.379   1.458   1.671 -0.1537 -0.4743  0.1687
  141SOL    HW1  422   1.411   1.360   1.675 -0.8064 -1.1343  0.5128
  141SOL    HW2  423   1.425   1.517   1.598  0.5244  0.5333 -1.3483
  142SOL     OW  424   2.475   0.089   2.873  0.2475 -0.3991  0.0365
  142SOL    HW1  425   2.515   0.025   2.939  0.3838  2.2855  1.7311
  142SOL    HW2  426   2.379   0.063   2.856  0.3464  1.2025 -1.0417
  143SOL     OW  427   0.525   2.481   2.859 -0.1162 -0.3759 -0.3290
  143SOL    HW1  428   0.519   2.398   2.922  1.1715 -2.0256  2.3439
  143SOL    HW2  429   0.499   2.565   2.914  2.7874  1.7972 -0.2078
  144SOL     OW  430   0.855   2.920   2.039  0.3351 -0.1168 -0.2743
  144SOL    HW1  431   0.883   2.914   2.138 -0.5483 -1.6438 -1.6702
  144SOL    HW2  432   0.927   2.880   1.975  1.7918  1.6791 -0.8738
  145SOL     OW  433   2.453   1.570   0.419 -0.2458 -0.2640 -0.6503
  145SOL    HW1  434   2.487   1.483   0.376  0.8807 -1.0251  1.1357
  145SOL    HW2  435   2.529   1.637   0.424 -0.6584  0.9067 -1.9966
  146SOL     OW  436   2.770   2.874   2.782 -0.3803 -0.0446 -0.7607
  146SOL    HW1  437   2.699   2.921   2.729  0.7210 -2.1459 -2.1814
  146SOL    HW2  438   2.734   2.820   2.857  1.4945  0.7985 -3.4385
  147SOL     OW  439   2.836   2.696   0.933 -0.1750  0.1759 -0.4911
  147SOL    HW1  440   2.911   2.710   1.000 -2.0734  1.5420  1.6778
  147SOL    HW2  441   2.745   2.686   0.984  0.4002 -1.4935  1.0076
  148SOL     OW  442   1.732   0.179   0.098 -0.6341  0.4504  0.1813
  148SOL    HW1  443   1.692   0.108   0.161 -0.9422 -0.1453 -1.6126
  148SOL    HW2  444   1.800   0.118   0.044  0.8031  0.6907 -0.7152
  149SOL     OW  445   0.886   1.278   2.661 -0.2273  0.0030 -0.3804
  149SOL    HW1  446   0.873   1.204   2.731 -0.7434  2.1323  0.5071
  149SOL    HW2  447   0.989   1.287   2.645  1.1131 -1.3330 -5.2041
  150SOL     OW  448   1.159   2.567   0.643 -0.0479 -0.0158  0.1001
  150SOL    HW1  449   1.108   2.655   0.663 -3.4184  3.3966  1.7170
  150SOL    HW2  450   1.097   2.496   0.612  0.0160  0.3220  0.5030
  151SOL     OW  451   0.227   2.020   0.045 -0.2983 -0.3717  0.6997
  151SOL    HW1  452   0.250   1.924   0.074  0.7380  0.2748  0.2275
  151SOL    HW2  453   0.259   2.042   3.053 -0.5134  0.7128  0.5239
  152SOL     OW  454   0.280   1.249   0.529  0.1018 -0.6668  0.2101
  152SOL    HW1  455   0.309   1.266   0.432  1.6728  0.2963  2.2428
  152SOL    HW2  456   0.180   1.250   0.536  0.6671 -0.2109  0.0105
  153SOL     OW  457   2.540   2.496   2.941 -0.1817 -0.0532  0.1575
  153SOL    HW1  458   2.589   2.472   3.027 -2.0800 -1.1844 -0.7354
  153SOL    HW2  459   2.533   2.415   2.882  1.6636  0.9454  1.3080
  154SOL     OW  460   0.575   0.265   1.114 -0.3424 -0.0755  0.1511
  154SOL    HW1  461   0.553   0.205   1.036  0.1261  3.8349 -2.7632
  154SOL    HW2  462   0.542   0.218   1.200 -1.2601 -0.0452  1.2653
  155SOL     OW  463   3.031   2.037   1.142  0.2254  0.3757  0.5282
  155SOL    HW1  464   3.083   1.980   1.074 -0.0114  0.5620 -1.1417
  155SOL    HW2  465   3.092   2.078   1.214  0.7944 -1.6995 -1.6915
  156SOL     OW  466   2.363   2.221   3.099  0.0027  0.1839  0.3125
  156SOL    HW1  467   2.328   2.123   0.004 -2.9589 -2.0262  2.6653
  156SOL    HW2  468   2.426   2.232   0.071 -1.4367 -0.2117 -0.5048
  157SOL     OW  469   0.814   2.532   1.004  0.0127 -0.2069 -0.2857
  157SOL    HW1  470   0.785   2.435   1.010 -0.6239  2.8001  2.4342
  157SOL    HW2  471   0.777   2.571   1.088  0.0232 -0.1656  0.1875
  158SOL     OW  472   2.024   0.661   2.752 -0.2397 -0.1192  0.0031
  158SOL    HW1  473   2.057   0.668   2.850  1.1471 -1.7782 -0.5911
  158SOL    HW2  474   1.921   0.652   2.738  1.6656 -1.1108 -0.5494
  159SOL     OW  475   0.761   0.315   2.641 -0.5069  0.2322  0.6362
  159SOL    HW1  476   0.775   0.252   2.722  0.6801 -2.5450  1.8023
  159SOL    HW2  477   0.837   0.385   2.636 -0.7428  2.0511  0.4106
  160SOL     OW  478   0.971   1.945   0.362 -0.0434 -0.0761  0.1266
  160SOL    HW1  479   0.958   1.959   0.461  1.0164 -1.2800 -0.6044
  160SOL    HW2  480   0.975   1.849   0.337 -0.2448  0.4107 -1.8140
  161SOL     OW  481   2.935   2.204   2.992 -0.1036  0.1336 -0.3130
  161SOL    HW1  482   2.990   2.177   3.074  0.7104  0.2486  2.0295
  161SOL    HW2  483   2.906   2.303   3.001 -1.4628  2.6659  0.1819
  162SOL     OW  484   0.470   2.541   0.873  0.0051 -0.3079 -1.0177
  162SOL    HW1  485   0.434   2.471   0.941 -1.6436 -0.2701  0.5688
  162SOL    HW2  486   0.459   2.637   0.919  0.5030  0.1625  2.6314
  163SOL     OW  487   2.531   0.773   3.092 -0.1993  0.5654  0.3842
  163SOL    HW1  488   2.519   0.731   0.079  0.5062 -1.7934  1.6364
  163SOL    HW2  489   2.454   0.756   3.029  0.5294  1.3400  1.5819
  164SOL     OW  490   3.056   2.730   0.505  0.0924 -0.1271 -0.3089
  164SOL    HW1  491   3.023   2.691   0.413 -1.4177 -1.3543  2.4454
  164SOL    HW2  492   3.033   2.826   0.511  1.0180 -1.8569 -1.0876
  165SOL     OW  493   2.464   0.395   1.281 -0.4488  0.1116 -0.3043
  165SOL    HW1  494   2.452   0.391   1.383 -0.7852  0.9185 -0.7515
  165SOL    HW2  495   2.405   0.467   1.244 -1.7847 -0.3229  0.4081
  166SOL     OW  496   2.043   0.209   1.076 -0.1794  0.2288 -0.5181
  166SOL    HW1  497   2.050   0.208   0.973 -2.6949  1.1815  1.2566
  166SOL    HW2  498   2.070   0.301   1.107  0.5634 -3.3281 -1.2175
  167SOL     OW  499   0.255   0.714   1.386 -0.1852 -0.0525 -0.0371
  167SOL    HW1  500   0.234   0.666   1.474 -1.6149 -1.5772  4.0189
  167SOL    HW2  501   0.173   0.764   1.349 -1.3049 -0.8883  0.7056
  168SOL     OW  502   2.650   2.990   2.231  0.1294  0.0501 -0.9099
  168SOL    HW1  503   2.550   3.000   2.253  2.2854 -1.1300  0.0767
  168SOL    HW2  504   2.666   2.904   2.182 -0.5962  0.7295 -1.2884
  169SOL     OW  505   0.044   1.539   0.771  0.1513  0.0988  0.1767
  169SOL    HW1  506   0.059   1.621   0.713  2.0795  0.6595 -1.6414
  169SOL    HW2  507   3.049   1.524   0.806 -4.2752 -2.2245  0.1172
  170SOL     OW  508   2.964   0.577   1.509 -0.2053 -0.0484  0.1808
  170SOL    HW1  509   3.011   0.593   1.420 -0.0188  0.5422 -0.6452
  170SOL    HW2  510   2.962   0.479   1.541 -0.3364  3.0332 -0.0814
  171SOL     OW  511   1.100   2.144   1.556  0.3630 -0.0275 -0.3711
  171SOL    HW1  512   1.192   2.174   1.574  0.9396 -0.9392  0.0477
  171SOL    HW2  513   1.045   2.170   1.638  1.5851  2.4949  0.6128
  172SOL     OW  514   0.404   2.330   1.040 -0.5178 -0.7109  0.4429
  172SOL    HW1  515   0.471   2.254   1.017  0.4761 -0.4398  0.3934
  172SOL    HW2  516   0.311   2.298   1.035  4.1019  0.9061  1.0708
  173SOL     OW  517   1.134   0.101   0.260  0.0274  0.0970 -0.2622
  173SOL    HW1  518   1.043   0.128   0.236  0.0523 -0.0725 -3.0828
  173SOL    HW2  519   1.199   0.103   0.178  2.5056  5.0504 -2.0724
  174SOL     OW  520   0.690   2.677   2.603 -0.5457  0.3777 -0.0667
  174SOL    HW1  521   0.772   2.629   2.562 -0.9032 -1.1043  0.2710
  174SOL    HW2  522   0.715   2.710   2.694 -0.7726 -0.3661 -0.9100
  175SOL     OW  523   1.302   0.649   3.061 -1.0298  0.1884 -0.2657
  175SOL    HW1  524   1.393   0.666   3.021  0.2091 -0.5730 -0.0378
  175SOL    HW2  525   1.227   0.681   2.998  4.3652 -0.7571  0.8538
  176SOL     OW  526   1.386   0.424   0.436  0.9393 -0.0053  0.0051
  176SOL    HW1  527   1.365   0.463   0.341 -1.1682  0.0347 -1.5638
  176SOL    HW2  528   1.404   0.323   0.447 -1.5709  0.1265  1.3993
  177SOL     OW  529   1.384   0.896   0.993  0.1831  0.3527  0.3385
  177SOL    HW1  530   1.363   0.998   0.994 -0.6493  0.7697 -1.0909
  177SOL    HW2  531   1.296   0.852   1.022 -1.5742  1.9007  0.7298
  178SOL     OW  532   2.402   1.672   2.541  0.3999  0.1287  0.0488
  178SOL    HW1  533   2.393   1.756   2.598 -1.3534 -1.2755 -1.8071
  178SOL    HW2  534   2.464   1.602   2.580  0.0892 -0.6458  1.6784
  179SOL     OW  535   0.450   2.718   2.520  0.1129 -0.3311 -0.0444
  179SOL    HW1  536   0.552   2.707   2.551  3.1547 -0.3227  1.1512
  179SOL    HW2  537   0.427   2.659   2.439  0.4035 -1.8782 -1.4460
  180SOL     OW  538   1.618   1.851   1.810  0.4401 -0.0220  0.2524
  180SOL    HW1  539   1.676   1.890   1.883  4.1645 -0.1027 -5.6807
  180SOL    HW2  540   1.677   1.809   1.736  0.9448  0.2590  0.5139
  181SOL     OW  541   1.443   1.396   2.378 -0.3446 -0.0908 -0.2664
  181SOL    HW1  542   1.425   1.412   2.474  2.0411  2.4896 -2.0457
  181SOL    HW2  543   1.368   1.336   2.341  0.0852 -3.3205 -0.5166
  182SOL     OW  544   3.004   0.481   2.561 -0.0741  0.5438 -0.0694
  182SOL    HW1  545   2.934   0.506   2.632 -0.2457 -0.7953 -1.2334
  182SOL    HW2  546   3.070   0.405   2.592  0.9133 -0.6838  0.2861
  183SOL     OW  547   1.325   0.181   2.716 -0.3902 -0.4177 -0.1837
  183SOL    HW1  548   1.301   0.242   2.639  4.2632  1.0888  0.4881
  183SOL    HW2  549   1.374   0.233   2.787  1.2038  0.8257  0.5512
  184SOL     OW  550   0.949   0.751   1.452  0.3473 -0.2722  0.5300
  184SOL    HW1  551   0.990   0.823   1.512 -0.9132  2.0458 -0.9932
  184SOL    HW2  552   0.881   0.802   1.393  0.3829  1.8616 -1.6866
  185SOL     OW  553   2.920   1.423   0.841 -0.0067  0.7196 -0.0805
  185SOL    HW1  554   2.856   1.436   0.918 -2.6435  0.0167  4.1525
  185SOL    HW2  555   2.931   1.321   0.831  0.8852  1.5936  1.2463
  186SOL     OW  556   0.576   1.780   2.905  0.4335  0.2267 -0.3058
  186SOL    HW1  557   0.619   1.827   2.983 -1.9625  1.7150 -4.7622
  186SOL    HW2  558   0.523   1.847   2.847 -1.5788 -1.0683 -0.6813
  187SOL     OW  559   2.559   1.329   0.252 -0.3295 -0.4980  0.3649
  187SOL    HW1  560   2.624   1.286   0.314 -0.2645 -1.3233 -2.9167
  187SOL    HW2  561   2.577   1.299   0.155 -1.6380 -1.5783  2.5568
  188SOL     OW  562   3.054   2.362   0.577 -0.4355 -0.0891 -0.3200
  188SOL    HW1  563   3.098   2.362   0.482 -0.3184  1.2508 -1.5298
  188SOL    HW2  564   2.959   2.404   0.572  1.1891 -0.5057 -1.3441
  189SOL     OW  565   2.671   0.882   0.370 -0.0124  0.2895 -0.0461
  189SOL    HW1  566   2.754   0.890   0.312  1.7051 -1.1650 -0.8796
  189SOL    HW2  567   2.694   0.878   0.464 -0.2913  1.0439 -0.7400
  190SOL     OW  568   1.303   1.626   2.244  0.2471 -0.0122  0.0034
  190SOL    HW1  569   1.349   1.541   2.274 -0.5444 -2.8278 -0.5726
  190SOL    HW2  570   1.294   1.691   2.322 -1.4468  0.9495  0.1376
  191SOL     OW  571   2.422   0.342   1.549  0.0498 -0.3303 -0.7600
  191SOL    HW1  572   2.494   0.268   1.556 -0.0467 -1.3799  0.5872
  191SOL    HW2  573   2.435   0.407   1.624 -0.2163 -3.0516 -0.7864
  192SOL     OW  574   2.030   0.138   1.841  0.0179 -0.3317 -0.2852
  192SOL    HW1  575   2.043   0.038   1.846 -0.7401  1.1946  1.6646
  192SOL    HW2  576   2.117   0.188   1.856 -1.7996 -1.6895 -0.8466
  193SOL     OW  577   0.808   0.696   0.438 -0.2650  0.2283  0.0532
  193SOL    HW1  578   0.774   0.633   0.513 -0.9628 -0.4491  0.0592
  193SOL    HW2  579   0.760   0.675   0.352 -2.7783  1.9331  2.9055
  194SOL     OW  580   1.039   2.798   1.360 -0.5867 -0.2282  0.3337
  194SOL    HW1  581   1.134   2.801   1.324 -1.2787  1.0574  2.5671
  194SOL    HW2  582   1.015   2.890   1.398 -0.6932 -0.8412  0.1659
  195SOL     OW  583   2.288   0.776   1.017 -0.1185  0.4968 -0.0034
  195SOL    HW1  584   2.271   0.721   0.932  0.8879 -0.4191 -1.4335
  195SOL    HW2  585   2.220   0.851   1.032  0.0727 -3.2381 -0.7177
  196SOL     OW  586   1.810   1.966   1.986  0.7706 -0.2777 -0.0663
  196SOL    HW1  587   1.905   1.926   1.965  2.2060 -0.6435 -0.1703
  196SOL    HW2  588   1.816   2.048   2.048 -0.3009  2.6617  2.1984
  197SOL     OW  589   0.141   0.073   0.150 -0.3755  0.5890 -0.3212
  197SOL    HW1  590   0.194   0.084   0.238 -0.0650  3.8204  0.6922
  197SOL    HW2  591   0.195   0.060   0.061  1.4260  0.6057 -2.2961
  198SOL     OW  592   1.255   1.130   0.846  0.5579 -0.5913  0.5011
  198SOL    HW1  593   1.207   1.220   0.843  1.1170  0.1814 -1.0080
  198SOL    HW2  594   1.192   1.057   0.874  0.2191  1.5787  0.0857
  199SOL     OW  595   2.930   0.933   2.027 -0.5464  0.2746 -1.5210
  199SOL    HW1  596   2.957   0.836   2.034  1.0049  0.9046 -0.1476
  199SOL    HW2  597   2.923   0.978   2.123  2.2337  2.7064  2.1941
  200SOL     OW  598   2.800   1.892   2.597  0.6387 -0.1424  0.3171
  200SOL    HW1  599   2.718   1.868   2.542  0.3054 -0.3649 -0.7269
  200SOL    HW2  600   2.783   1.972   2.654 -0.2281 -2.0195 -0.7911
  201SOL     OW  601   2.529   0.150   1.155 -0.2434 -0.7703 -0.7859
  201SOL    HW1  602   2.534   0.231   1.217  0.6354  2.0514  0.8938
  201SOL    HW2  603   2.445   0.145   1.098 -1.0474  1.0634 -1.1192
  202SOL     OW  604   2.228   0.880   0.383 -0.7556 -0.8759  0.3235
  202SOL    HW1  605   2.204   0.864   0.481 -1.0918  0.5703 -0.7374
  202SOL    HW2  606   2.298   0.956   0.368  0.7519  3.4969  0.0087
  203SOL     OW  607   1.754   2.019   2.426  0.3872 -0.7720 -0.0005
  203SOL    HW1  608   1.654   1.992   2.410 -0.1024 -1.3645  1.1151
  203SOL    HW2  609   1.818   1.971   2.361 -0.3320  0.8801  2.3552
  204SOL     OW  610   0.897   1.899   2.214  0.4312 -0.3361 -0.0639
  204SOL    HW1  611   0.911   1.799   2.222 -0.2714  2.5277 -0.9860
  204SOL    HW2  612   0.954   1.962   2.271  1.0829 -0.1728  1.2764
  205SOL     OW  613   0.930   1.799   1.612 -0.0774 -0.3442  0.1241
  205SOL    HW1  614   0.913   1.829   1.515  0.0222 -1.5042 -1.0269
  205SOL    HW2  615   1.020   1.821   1.650  1.5075 -0.8158  2.6711
  206SOL     OW  616   3.050   0.450   3.019  0.0985 -0.6338 -0.2615
  206SOL    HW1  617   3.051   0.362   3.066  0.2193  2.4438 -0.2063
  206SOL    HW2  618   2.955   0.483   3.008  1.6629  0.5421  0.8733
  207SOL     OW  619   1.911   2.726   2.126 -0.0104 -0.0028 -0.4669
  207SOL    HW1  620   1.835   2.777   2.082  0.6530 -2.4684  2.5672
  207SOL    HW2  621   1.915   2.635   2.083 -2.6723 -2.2556 -0.9329
  208SOL     OW  622   0.452   2.155   1.290 -0.3092  0.0557 -0.4458
  208SOL    HW1  623   0.401   2.228   1.238 -2.1895 -0.9634  1.2748
  208SOL    HW2  624   0.433   2.060   1.248 -0.6171 -1.9410 -0.7842
  209SOL     OW  625   1.418   0.865   2.457  0.4461  0.6026 -0.4319
  209SOL    HW1  626   1.353   0.934   2.428  0.3703 -1.3953  1.1649
  209SOL    HW2  627   1.514   0.883   2.428  0.8760  1.6258 -0.9798
  210SOL     OW  628   2.003   0.898   1.060 -0.1801  0.1098  0.1913
  210SOL    HW1  629   2.006   0.997   1.085 -0.3001  3.0722  1.0283
  210SOL    HW2  630   1.944   0.843   1.124  1.3466  0.6890  1.5464
  211SOL     OW  631   0.577   0.116   0.640  0.5510  0.4946 -0.1820
  211SOL    HW1  632   0.561   0.171   0.555  2.4738  1.5299  0.7612
  211SOL    HW2  633   0.533   0.026   0.620  0.9558 -0.0307 -2.1637
  212SOL     OW  634   1.760   1.589   0.068 -0.1720  0.0096  0.1092
  212SOL    HW1  635   1.791   1.494   0.044 -0.3526 -0.2466  0.7634
  212SOL    HW2  636   1.717   1.592   0.161  0.3512 -0.1544 -0.1782
  213SOL     OW  637   1.587   0.358   2.475 -0.3462 -0.1521  0.0592
  213SOL    HW1  638   1.539   0.353   2.565 -1.5152 -0.6233 -0.1156
  213SOL    HW2  639   1.656   0.432   2.480 -0.3533 -2.8225  0.8632
  214SOL     OW  640   1.696   1.331   2.294  0.6348  0.2891 -0.4268
  214SOL    HW1  641   1.769   1.392   2.338  1.8712  0.9246  1.1117
  214SOL    HW2  642   1.602   1.360   2.323  1.1494  0.2893  1.7574
  215SOL     OW  643   0.232   1.860   0.424  0.3813 -0.3009 -0.3686
  215SOL    HW1  644   0.295   1.790   0.389  0.8822  2.7314  1.1041
  215SOL    HW2  645   0.251   1.954   0.387  0.1785  1.0952 -0.1238
  216SOL     OW  646   0.569   2.776   2.101  0.7242  0.0613  0.0710
  216SOL    HW1  647   0.666   2.766   2.118  0.3533 -0.1559 -1.9995
  216SOL    HW2  648   0.512   2.698   2.137  1.3832  0.6907  0.1717
  217SOL     OW  649   2.496   1.164   0.509 -0.0480  0.0843  0.3381
  217SOL    HW1  650   2.597   1.143   0.513  3.0009  1.5721  0.9717
  217SOL    HW2  651   2.453   1.120   0.431 -1.4122 -2.4056  1.3475
  218SOL     OW  652   2.082   1.920   2.045  0.0958 -0.1793 -0.4437
  218SOL    HW1  653   2.111   2.013   2.016  0.0069 -0.7129 -1.3819
  218SOL    HW2  654   2.172   1.866   2.037  1.1314  1.9107 -2.5617
  219SOL     OW  655   2.011   1.382   0.033  0.3167 -0.7755  0.0650
  219SOL    HW1  656   2.089   1.437   0.073 -0.3983 -0.5859  0.1148
  219SOL    HW2  657   2.013   1.378   3.034 -1.4711 -1.0871 -2.1246
  220SOL     OW  658   1.262   1.710   1.158 -0.4792 -0.2806  0.3643
  220SOL    HW1  659   1.213   1.660   1.229  0.2580 -1.7410 -0.9939
  220SOL    HW2  660   1.348   1.665   1.132  0.0993  0.4018  0.1068
  221SOL     OW  661   0.502   0.662   2.931  0.3229 -0.7705 -0.2185
  221SOL    HW1  662   0.547   0.671   2.842  1.1439  0.2946  0.1382
  221SOL    HW2  663   0.524   0.568   2.969 -0.2088 -1.0323 -1.3548
  222SOL     OW  664   0.895   1.695   1.222  0.0417 -0.1076 -0.0097
  222SOL    HW1  665   0.968   1.633   1.258 -1.4828  0.6985 -0.7291
  222SOL    HW2  666   0.871   1.771   1.286  0.9616 -1.6412 -1.3468
  223SOL     OW  667   1.466   3.047   2.681 -0.1422 -0.1174  0.0595
  223SOL    HW1  668   1.410   2.962   2.699  0.6964 -0.1178 -0.2317
  223SOL    HW2  669   1.402   0.026   2.685 -2.2896 -1.7808  3.0942
  224SOL     OW  670   2.709   0.681   0.997  0.4682 -0.4677 -0.1728
  224SOL    HW1  671   2.643   0.602   1.009 -0.6343  1.9465 -1.8469
  224SOL    HW2  672   2.655   0.759   0.957 -0.9211 -0.0043 -0.8002
  225SOL     OW  673   1.164   0.586   1.405  0.1570  0.1508 -0.1825
  225SOL    HW1  674   1.195   0.645   1.324  0.5439  0.3029 -1.3489
  225SOL    HW2  675   1.074   0.620   1.439 -1.4616 -0.5497 -0.7764
  226SOL     OW  676   1.682   1.872   2.764  0.5323 -0.3085  0.1376
  226SOL    HW1  677   1.628   1.823   2.690 -1.1217 -0.2081 -0.5605
  226SOL    HW2  678   1.616   1.938   2.809  1.1799 -0.2949  2.5535
  227SOL     OW  679   1.274   1.785   1.477  0.2223  0.3741  0.3561
  227SOL    HW1  680   1.359   1.735   1.482 -2.7613  0.5139  1.1925
  227SOL    HW2  681   1.220   1.780   1.562 -1.4107 -1.0815 -1.1809
  228SOL     OW  682   0.569   1.613   0.764 -0.6519  0.1758 -0.5916
  228SOL    HW1  683   0.654   1.669   0.766 -3.1911 -1.1362 -1.0004
  228SOL    HW2  684   0.535   1.607   0.857 -0.9139 -1.3950 -3.1644
  229SOL     OW  685   1.574   0.651   2.993  0.4316  0.1272  0.1767
  229SOL    HW1  686   1.616   0.633   3.086  0.0016 -2.0173 -1.5552
  229SOL    HW2  687   1.585   0.560   2.945  0.1078 -0.9039 -0.4471
  230SOL     OW  688   1.007   0.470   2.273  0.0875 -0.2132  0.5234
  230SOL    HW1  689   1.040   0.385   2.230 -4.3832  1.4307  0.9603
  230SOL    HW2  690   0.976   0.454   2.372 -1.2614 -1.3816  0.6115
  231SOL     OW  691   1.226   1.806   2.445  0.3057  0.4616 -0.3462
  231SOL    HW1  692   1.201   1.738   2.518  3.5649 -0.5360 -3.3948
  231SOL    HW2  693   1.143   1.845   2.400  1.6276  1.6939 -1.2238
  232SOL     OW  694   2.238   1.939   0.983 -0.2292 -0.0724  0.1325
  232SOL    HW1  695   2.189   1.883   0.913  0.9397 -1.6308  0.1473
  232SOL    HW2  696   2.336   1.923   0.970  1.1144 -0.5105  0.1907
  233SOL     OW  697   2.031   2.797   3.057  0.3137 -0.2945  0.2402
  233SOL    HW1  698   1.979   2.759   0.036 -2.9315  0.1017 -0.3174
  233SOL    HW2  699   1.988   2.885   3.033  1.1042 -2.4866 -0.9628
  234SOL     OW  700   0.675   3.087   2.682  0.1302  0.5268 -0.6710
  234SOL    HW1  701   0.619   3.014   2.728 -1.2614 -0.2053  2.5187
  234SOL    HW2  702   0.709   3.062   2.587 -0.8650 -1.8839 -0.4367
  235SOL     OW  703   2.462   2.861   2.631  0.2747 -0.0510  0.8052
  235SOL    HW1  704   2.506   2.956   2.633  0.8848  1.6906  2.7659
  235SOL    HW2  705   2.395   2.848   2.556  0.1495  1.1630  1.1246
  236SOL     OW  706   2.603   2.291   2.274 -0.3220 -0.2894  0.9999
  236SOL    HW1  707   2.584   2.313   2.372  0.0783  0.4931 -0.0698
  236SOL    HW2  708   2.699   2.263   2.270  3.1537  3.3756  0.2868
  237SOL     OW  709   1.184   1.396   1.859 -0.2210 -0.1701  0.2989
  237SOL    HW1  710   1.225   1.424   1.770 -0.9737  0.8354 -0.3739
  237SOL    HW2  711   1.190   1.468   1.928  0.2086  0.8729  0.9167
  238SOL     OW  712   1.840   0.097   2.608  0.4720 -0.1848  0.7558
  238SOL    HW1  713   1.758   0.099   2.548 -1.3165 -1.1385  0.0403
  238SOL    HW2  714   1.888   0.008   2.610  0.8542 -1.2766 -2.4878
  239SOL     OW  715   0.227   1.851   2.039 -0.2724  0.0388 -0.2442
  239SOL    HW1  716   0.325   1.832   2.068 -0.1260 -0.7048  1.3468
  239SOL    HW2  717   0.180   1.766   2.014  2.5776  3.0824  0.0170
  240SOL     OW  718   2.668   2.943   0.816 -1.0263 -0.0279  0.5405
  240SOL    HW1  719   2.639   2.857   0.772  1.9191 -0.5310  1.5456
  240SOL    HW2  720   2.765   2.969   0.785  2.0189  0.4022 -1.5434
  241SOL     OW  721   1.956   2.048   0.584 -0.3017  0.2118 -0.2179
  241SOL    HW1  722   1.986   1.982   0.509 -0.8501  1.8387  0.5471
  241SOL    HW2  723   1.866   2.029   0.620  4.4015 -0.7222 -0.4325
  242SOL     OW  724   1.371   1.843   2.713  0.3220 -0.7784  0.0693
  242SOL    HW1  725   1.431   1.790   2.651 -2.3513 -0.5137  1.8704
  242SOL    HW2  726   1.326   1.785   2.784  2.0767 -1.2447  0.8342
  243SOL     OW  727   0.657   2.434   2.153 -0.3722  0.2503 -0.5135
  243SOL    HW1  728   0.714   2.516   2.152 -0.8253 -0.6788  0.2549
  243SOL    HW2  729   0.694   2.358   2.213  1.0976  0.2073  0.1453
  244SOL     OW  730   2.217   0.010   2.783  0.1442  0.1598  0.2662
  244SOL    HW1  731   2.246   0.060   2.696 -0.5935  3.5139 -1.7105
  244SOL    HW2  732   2.181   3.019   2.769 -0.9963  0.0342  0.0818
  245SOL     OW  733   1.401   2.846   0.586  0.4318 -0.4358 -0.5299
  245SOL    HW1  734   1.339   2.866   0.667 -0.6891  1.8704  0.3675
  245SOL    HW2  735   1.345   2.882   0.504 -0.1096  1.3753 -2.2626
  246SOL     OW  736   1.083   2.712   0.320 -0.0604  0.2625  0.0604
  246SOL    HW1  737   1.152   2.673   0.255  1.4878  1.3818 -0.5992
  246SOL    HW2  738   1.127   2.763   0.399 -0.1238 -1.6805  0.4105
  247SOL     OW  739   0.710   0.785   2.145 -0.0938 -0.6584  0.2575
  247SOL    HW1  740   0.781   0.715   2.124 -0.0779 -0.6884  1.6975
  247SOL    HW2  741   0.620   0.734   2.164 -0.3127  0.7180  0.8588
  248SOL     OW  742   1.054   1.450   2.372  0.2905 -0.0744  0.4559
  248SOL    HW1  743   1.018   1.522   2.307  0.8672  2.4599 -0.3206
  248SOL    HW2  744   1.079   1.497   2.459  0.6508 -2.2002  1.4960
  249SOL     OW  745   2.179   0.551   0.577 -0.0547 -0.0583  0.3985
  249SOL    HW1  746   2.214   0.603   0.659 -0.5439  1.7957  0.6710
  249SOL    HW2  747   2.078   0.537   0.576  0.0951  3.1827 -1.0758
  250SOL     OW  748   0.918   3.027   0.551 -0.9719 -1.1428  0.0575
  250SOL    HW1  749   0.844   3.011   0.614  4.3697 -0.2692 -0.9268
  250SOL    HW2  750   0.935   0.028   0.545  0.2823  1.5002 -0.7869
  251SOL     OW  751   1.499   0.208   3.039  0.4147 -0.1349 -0.3601
  251SOL    HW1  752   1.490   0.296   2.984 -2.8182  0.1804 -2.3231
  251SOL    HW2  753   1.590   0.214   3.092  2.8074  2.6034  4.1109
  252SOL     OW  754   1.824   1.115   1.922 -0.2456 -0.5125 -0.0699
  252SOL    HW1  755   1.847   1.102   2.021  1.8465 -2.0962  0.3943
  252SOL    HW2  756   1.767   1.197   1.910 -0.1403  0.6095  4.1878
  253SOL     OW  757   2.753   2.466   1.692  0.5874  0.8125  0.0590
  253SOL    HW1  758   2.725   2.443   1.791 -4.9279 -0.5952  4.9921
  253SOL    HW2  759   2.845   2.512   1.690  0.3224 -2.4914 -1.3665
  254SOL     OW  760   0.378   1.410   1.327  0.0088  0.2278  0.0822
  254SOL    HW1  761   0.379   1.309   1.340  1.2743  1.5011  0.9364
  254SOL    HW2  762   0.469   1.456   1.302 -0.2872  2.1034  0.3291
  255SOL     OW  763   1.155   0.736   1.177 -0.1828  0.3143 -0.5135
  255SOL    HW1  764   1.060   0.719   1.141  0.3084  1.5091  0.3072
  255SOL    HW2  765   1.152   0.817   1.242  1.0467  1.6107  0.4587
  256SOL     OW  766   1.752   2.656   1.639 -0.1135 -0.0748 -0.5811
  256SOL    HW1  767   1.723   2.609   1.729 -1.4703 -0.1700  1.3059
  256SOL    HW2  768   1.850   2.643   1.611  0.7486 -1.2555  0.7535
  257SOL     OW  769   0.346   2.726   3.033  0.7357 -0.5080 -0.2286
  257SOL    HW1  770   0.304   2.808   3.077  0.7330  2.6826 -1.4450
  257SOL    HW2  771   0.442   2.730   3.031 -3.0471  1.7965  3.1181
  258SOL     OW  772   0.844   2.639   2.182  0.2294 -0.2611  0.2890
  258SOL    HW1  773   0.882   2.690   2.261 -3.2932 -1.9920 -2.3945
  258SOL    HW2  774   0.911   2.636   2.105  0.4743  0.5987 -0.2775
  259SOL     OW  775   1.231   0.079   2.346  0.3371 -0.6802 -0.0436
  259SOL    HW1  776   1.323   0.063   2.302 -1.2809 -0.1959  2.1043
  259SOL    HW2  777   1.200   0.000   2.400  1.2352  0.0568  0.2287
  260SOL     OW  778   1.751   0.421   1.020 -0.1220 -0.3797  0.3273
  260SOL    HW1  779   1.741   0.331   1.064  3.0896  3.1719  0.2394
  260SOL    HW2  780   1.838   0.425   0.969  1.3442 -0.9390 -0.5388
  261SOL     OW  781   0.354   0.196   2.520  0.1859  1.0887  0.6256
  261SOL    HW1  782   0.297   0.279   2.501 -2.2918  1.9615 -0.7406
  261SOL    HW2  783   0.417   0.209   2.600  2.3503  0.7440 -0.3015
  262SOL     OW  784   2.905   2.468   2.135  0.0380 -0.3472  0.4320
  262SOL    HW1  785   2.939   2.527   2.207 -0.9711 -1.5870 -1.3470
  262SOL    HW2  786   2.958   2.478   2.048 -0.7520 -0.4846 -0.9514
  263SOL     OW  787   2.885   1.521   2.391 -0.1245 -0.3553  0.2805
  263SOL    HW1  788   2.930   1.575   2.315 -1.1974  0.7896 -3.9866
  263SOL    HW2  789   2.861   1.583   2.469  0.0169  0.5404  1.1379
  264SOL     OW  790   0.647   0.902   0.810  0.4158  0.4486 -0.2421
  264SOL    HW1  791   0.555   0.910   0.774  2.6605  1.5899  1.4145
  264SOL    HW2  792   0.704   0.975   0.771 -1.9176 -2.2487  2.1584
  265SOL     OW  793   0.790   2.119   0.264 -0.1212  0.4461  0.2062
  265SOL    HW1  794   0.855   2.063   0.317 -1.6277 -0.9978 -1.0531
  265SOL    HW2  795   0.702   2.121   0.316  2.5286 -0.4800  1.2064
  266SOL     OW  796   1.507   0.588   0.933  0.1886  0.4257 -1.0635
  266SOL    HW1  797   1.560   0.516   0.987 -0.5251 -0.6642 -1.2385
  266SOL    HW2  798   1.511   0.572   0.831 -1.4831 -2.2969  1.2056
  267SOL     OW  799   2.895   0.908   0.212 -0.5001  0.6023  0.2285
  267SOL    HW1  800   2.958   0.983   0.193  0.0791 -3.3804 -0.0861
  267SOL    HW2  801   2.855   0.875   0.125 -1.7062  1.6076  1.1232
  268SOL     OW  802   1.934   0.332   0.175 -0.2761 -0.0603 -0.1511
  268SOL    HW1  803   1.935   0.312   0.273  1.6136 -0.9769 -2.4189
  268SOL    HW2  804   1.841   0.322   0.134  1.2480 -0.5690 -0.7187
  269SOL     OW  805   2.045   0.922   2.825  0.1837  0.0440 -0.2778
  269SOL    HW1  806   2.055   0.828   2.783 -0.7369 -1.6561  2.6744
  269SOL    HW2  807   2.060   0.920   2.929  2.2108  0.9769  0.2391
  270SOL     OW  808   0.286   0.787   3.045  0.0191  0.0553 -0.1892
  270SOL    HW1  809   0.359   0.738   2.993  1.0154 -0.4794 -2.3314
  270SOL    HW2  810   0.227   0.721   3.101 -1.3227 -2.0316 -0.2580
  271SOL     OW  811   2.966   0.682   0.343  0.0759  0.4267  0.6560
  271SOL    HW1  812   2.968   0.776   0.303  2.4542  0.8788  2.9005
  271SOL    HW2  813   3.057   0.636   0.335  0.2923  0.5521 -1.2118
  272SOL     OW  814   3.101   2.076   2.820 -0.3172  0.0800  0.0094
  272SOL    HW1  815   3.035   2.028   2.763  3.7441  1.9946  2.0114
  272SOL    HW2  816   3.054   2.132   2.887 -0.8449  0.3186 -0.1686
  273SOL     OW  817   2.610   0.102   0.364 -0.3069  0.1242 -0.2125
  273SOL    HW1  818   2.596   0.126   0.266 -0.8286  2.0781  0.3106
  273SOL    HW2  819   2.705   0.131   0.393 -0.8541  0.5997 -0.8922
  274SOL     OW  820   0.498   2.061   0.718  0.0758 -0.0318  0.7126
  274SOL    HW1  821   0.405   2.105   0.715 -1.3707 -3.6558  0.6607
  274SOL    HW2  822   0.558   2.080   0.637  1.5941  0.1235 -1.2580
  275SOL     OW  823   2.648   1.769   0.481 -0.3752  0.1731 -0.4832
  275SOL    HW1  824   2.607   1.792   0.575  1.1023 -1.1039  1.9750
  275SOL    HW2  825   2.734   1.719   0.492  0.1985 -1.1632 -1.0351
  276SOL     OW  826   0.090   0.957   2.187  0.8023 -0.0792  0.5891
  276SOL    HW1  827   0.127   1.047   2.151  1.7627  4.4139 -0.7151
  276SOL    HW2  828   3.100   0.975   2.233 -1.0308  1.1653  1.7473
  277SOL     OW  829   2.043   2.915   1.082  0.8141 -0.5400  0.3663
  277SOL    HW1  830   2.042   2.840   1.013  0.7296 -0.4468 -0.0467
  277SOL    HW2  831   1.971   2.985   1.073 -0.2340  0.2465  2.6793
  278SOL     OW  832   1.207   2.930   2.112  0.4070  0.0172  0.5375
  278SOL    HW1  833   1.118   2.977   2.127  1.2640 -1.0389  2.4166
  278SOL    HW2  834   1.253   2.970   2.032 -3.5578 -0.1335  1.4651
  279SOL     OW  835   1.548   1.860   0.758 -0.2825  0.3194 -0.7852
  279SOL    HW1  836   1.558   1.950   0.804  1.9521  0.5380  0.1074
  279SOL    HW2  837   1.457   1.857   0.709 -1.1207 -1.4671 -1.4460
  280SOL     OW  838   0.006   1.803   0.967  0.0809 -0.1508 -0.3435
  280SOL    HW1  839   0.023   1.819   0.869  3.0350 -0.6158 -0.9897
  280SOL    HW2  840   3.011   1.812   0.988 -0.4568 -0.0707 -1.0925
  281SOL     OW  841   3.027   0.742   2.459 -0.3335 -0.6067 -0.3893
  281SOL    HW1  842   2.976   0.735   2.374  0.4831  0.1775  1.2629
  281SOL    HW2  843   3.022   0.662   2.521 -3.2934 -0.5390 -0.0332
  282SOL     OW  844   0.858   1.106   0.760  0.7681 -0.4480 -0.3547
  282SOL    HW1  845   0.785   1.175   0.746 -2.1673  0.2186  1.7254
  282SOL    HW2  846   0.932   1.110   0.686  1.2901  1.3501  2.1011
  283SOL     OW  847   1.848   2.303   0.029 -0.2634 -0.6755 -0.2629
  283SOL    HW1  848   1.748   2.317   0.053  0.2501  0.1972  1.3171
  283SOL    HW2  849   1.908   2.302   0.114 -0.8178  0.7422 -0.3942
  284SOL     OW  850   1.119   0.586   0.226 -0.3813 -0.3945 -0.1609
  284SOL    HW1  851   1.215   0.563   0.209  1.6229  2.1497 -2.0886
  284SOL    HW2  852   1.063   0.627   0.148 -1.1951 -0.7260  0.4774
  285SOL     OW  853   2.204   1.164   2.839  0.2306  0.5353  0.0158
  285SOL    HW1  854   2.146   1.245   2.857 -0.9832  1.4836 -0.4014
  285SOL    HW2  855   2.145   1.086   2.804  0.9671 -0.2786  4.1482
  286SOL     OW  856   1.509   2.454   1.265  0.3952  0.0633  0.1281
  286SOL    HW1  857   1.519   2.517   1.345  0.4275 -2.1388  0.2052
  286SOL    HW2  858   1.406   2.439   1.242 -0.0054 -0.9603 -3.4729
  287SOL     OW  859   1.018   0.923   0.913 -0.2119 -0.0912 -0.0189
  287SOL    HW1  860   1.054   0.829   0.891  3.0107  2.5619 -1.0858
  287SOL    HW2  861   0.959   0.958   0.838 -0.3501 -1.2648 -1.4898
  288SOL     OW  862   1.277   2.587   0.186  0.3875 -0.7183  1.0305
  288SOL    HW1  863   1.295   2.547   0.094  2.1687 -1.5155 -1.3695
  288SOL    HW2  864   1.359   2.573   0.244  1.1436 -4.5447  3.4805
  289SOL     OW  865   0.278   1.579   1.502 -0.6659  0.0627  0.6273
  289SOL    HW1  866   0.358   1.614   1.555 -1.2630 -2.4301 -1.3425
  289SOL    HW2  867   0.310   1.513   1.430  1.6359  1.0011 -0.4124
  290SOL     OW  868   1.688   2.420   0.809 -0.1927 -0.1896  0.1052
  290SOL    HW1  869   1.624   2.385   0.740 -0.0335 -0.7329  1.0479
  290SOL    HW2  870   1.672   2.520   0.833  1.6467  0.1718  0.9302
  291SOL     OW  871   1.876   0.005   3.066  0.6986  0.6261 -0.3446
  291SOL    HW1  872   1.961   0.043   3.023 -3.0259  1.7707 -0.1366
  291SOL    HW2  873   1.828   3.032   3.013 -0.8962  2.4947  1.9080
  292SOL     OW  874   0.924   0.624   2.085 -0.0600 -0.2694 -0.1950
  292SOL    HW1  875   1.009   0.647   2.029  0.9798 -1.6120  0.5200
  292SOL    HW2  876   0.945   0.560   2.159  0.7466  0.4325  2.4360
  293SOL     OW  877   1.923   2.416   0.680 -0.2501  0.3490  0.0317
  293SOL    HW1  878   1.998   2.357   0.703 -0.4150  0.4202  0.7833
  293SOL    HW2  879   1.856   2.410   0.759  2.3353  1.5253  5.3010
  294SOL     OW  880   0.484   0.658   2.217  0.2307 -0.0078  0.1898
  294SOL    HW1  881   0.397   0.707   2.233  2.0579 -3.6619 -0.3959
  294SOL    HW2  882   0.505   0.604   2.302 -0.2762 -2.0031 -1.0335
  295SOL     OW  883   1.460   1.566   1.045 -0.1981  0.2214  0.5292
  295SOL    HW1  884   1.468   1.475   0.996 -0.4903 -1.7369  0.0059
  295SOL    HW2  885   1.545   1.620   1.056  1.3372  1.7024  0.7028
  296SOL     OW  886   2.486   1.877   0.285 -0.4000  0.1976  0.1454
  296SOL    HW1  887   2.441   1.965   0.279 -1.6504 -0.8002  1.9980
  296SOL    HW2  888   2.539   1.861   0.368 -1.4606  0.3447 -0.8652
  297SOL     OW  889   2.187   0.152   0.191  0.1613  0.0376 -0.1214
  297SOL    HW1  890   2.090   0.177   0.183 -1.3944  0.5539  0.9533
  297SOL    HW2  891   2.248   0.209   0.134 -0.2214 -0.8848 -0.3587
  298SOL     OW  892   0.900   2.526   2.556  0.3093  0.2819  0.5676
  298SOL    HW1  893   0.865   2.463   2.632 -0.2552 -4.8471  0.0503
  298SOL    HW2  894   1.001   2.522   2.561 -0.6315  0.6078 -2.7911
  299SOL     OW  895   1.347   2.567   2.115  0.6152  0.0865  0.1907
  299SOL    HW1  896   1.340   2.654   2.168  0.2124 -2.0531 -1.5286
  299SOL    HW2  897   1.400   2.492   2.156 -0.6068  2.0325  0.2606
  300SOL     OW  898   2.610   3.095   2.653  0.1074  0.2524 -0.0328
  300SOL    HW1  899   2.576   0.042   2.732 -1.2384 -0.6922 -0.4107
  300SOL    HW2  900   2.612   0.053   2.570 -0.0451 -1.1056 -0.8607
  301SOL     OW  901   1.296   0.472   2.266 -0.3604  0.4838 -0.0841
  301SOL    HW1  902   1.199   0.490   2.244  1.1335  1.5231  0.0550
  301SOL    HW2  903   1.343   0.457   2.179 -0.2019 -0.2661  0.6224
  302SOL     OW  904   2.640   2.721   0.196  1.1451  0.3936  0.1043
  302SOL    HW1  905   2.561   2.773   0.163 -1.2827 -0.4167  2.4084
  302SOL    HW2  906   2.651   2.736   0.297 -0.6746  2.9027  0.4767
  303SOL     OW  907   2.703   2.383   1.958  0.1398 -0.6253 -0.4410
  303SOL    HW1  908   2.712   2.282   1.941 -3.9179  1.7791  1.4061
  303SOL    HW2  909   2.770   2.424   2.029  0.9885  2.0285  3.7466
  304SOL     OW  910   2.857   0.634   1.864 -0.5806 -0.2108 -0.2522
  304SOL    HW1  911   2.890   0.696   1.789  0.0030 -0.2020  0.7577
  304SOL    HW2  912   2.942   0.621   1.920  0.4678  1.9088  2.1976
  305SOL     OW  913   0.570   1.731   1.382  0.1405 -0.7903 -0.4502
  305SOL    HW1  914   0.587   1.645   1.333 -1.5447  3.5304 -1.3920
  305SOL    HW2  915   0.535   1.721   1.475  0.9218 -1.4813 -1.9519
  306SOL     OW  916   3.098   0.974   1.817  0.4028 -0.7722  0.3266
  306SOL    HW1  917   3.021   0.976   1.891 -2.0754  0.3363  0.4714
  306SOL    HW2  918   3.062   0.917   1.738 -1.8604 -1.8467  0.0726
  307SOL     OW  919   1.089   0.356   1.782  0.4659  0.5172  0.0527
  307SOL    HW1  920   1.075   0.451   1.807  0.4846 -1.9261 -1.7496
  307SOL    HW2  921   1.113   0.345   1.682 -0.6086  1.6237 -0.4686
  308SOL     OW  922   2.772   0.832   1.197 -0.0896  0.1795  0.0262
  308SOL    HW1  923   2.744   0.784   1.283 -1.5744 -1.7065 -0.2666
  308SOL    HW2  924   2.754   0.773   1.115 -0.2348 -2.4208  0.0643
  309SOL     OW  925   2.182   1.153   0.846 -0.4015  0.4359 -0.5387
  309SOL    HW1  926   2.086   1.182   0.824 -0.4909 -0.3863 -1.0690
  309SOL    HW2  927   2.200   1.180   0.943  0.0889 -0.4349  1.6478
  310SOL     OW  928   3.083   1.967   2.559 -0.0494 -0.1913 -0.2671
  310SOL    HW1  929   0.022   1.944   2.470 -2.0925 -2.7258  1.2313
  310SOL    HW2  930   2.988   1.942   2.552 -1.6143 -1.2984  0.5843
  311SOL     OW  931   2.980   2.707   2.774  0.4686  0.8416  0.0088
  311SOL    HW1  932   2.896   2.769   2.781 -0.5318  2.4438 -1.2990
  311SOL    HW2  933   2.955   2.608   2.750  0.0698 -1.9277 -1.1858
  312SOL     OW  934   2.311   1.959   3.088  0.0411  0.4277 -0.0791
  312SOL    HW1  935   2.332   1.863   3.101 -1.0523  3.7177  2.4667
  312SOL    HW2  936   2.280   1.965   2.988  0.9010 -0.8634  1.1646
  313SOL     OW  937   2.511   3.051   0.610 -0.1843 -0.1970  0.4433
  313SOL    HW1  938   2.590   3.020   0.662 -1.7613  2.9141 -2.3335
  313SOL    HW2  939   2.530   3.095   0.521 -0.8886 -1.5541  0.5732
  314SOL     OW  940   1.611   1.245   0.457  0.6052  0.1017  0.3080
  314SOL    HW1  941   1.589   1.150   0.481 -2.3652  0.9557 -0.9228
  314SOL    HW2  942   1.601   1.259   0.352  1.6506 -1.6884 -0.6764
  315SOL     OW  943   1.480   2.625   1.878  0.2658 -0.1923 -0.1323
  315SOL    HW1  944   1.420   2.604   1.960 -0.9132  1.1337 -1.1238
  315SOL    HW2  945   1.487   2.726   1.857 -0.0038  1.3986 -1.1076
  316SOL     OW  946   0.134   0.809   0.258  0.3847  0.0502 -0.4530
  316SOL    HW1  947   0.131   0.732   0.194  1.1539  2.8928  0.5435
  316SOL    HW2  948   0.164   0.786   0.351 -1.9483  0.8347  1.4127
  317SOL     OW  949   0.530   2.874   0.310 -0.7429 -0.0303 -0.1770
  317SOL    HW1  950   0.520   2.904   0.410 -0.7140  0.0228  5.1563
  317SOL    HW2  951   0.439   2.874   0.264 -2.0129 -0.3546 -0.8083
  318SOL     OW  952   2.407   2.499   0.592 -0.2866 -0.3154 -0.6173
  318SOL    HW1  953   2.492   2.455   0.553  0.9415  0.3977 -2.1566
  318SOL    HW2  954   2.414   2.600   0.586  0.5109 -0.4238  0.9697
  319SOL     OW  955   0.901   1.661   3.079  0.6659  0.1035 -0.4529
  319SOL    HW1  956   0.833   1.738   3.075  1.8078  0.7477  0.9584
  319SOL    HW2  957   0.952   1.637   2.995 -1.0173  1.4250  2.4407
  320SOL     OW  958   0.302   2.316   2.122 -0.2423 -0.0367 -0.1819
  320SOL    HW1  959   0.317   2.227   2.076 -2.9185 -2.2692  0.1170
  320SOL    HW2  960   0.302   2.394   2.058 -2.6966 -0.6289  0.9821
  321SOL     OW  961   1.643   2.897   2.535 -0.3219  0.0905  0.4928
  321SOL    HW1  962   1.603   2.895   2.442 -1.0895 -0.4358 -2.2983
  321SOL    HW2  963   1.577   2.950   2.591 -2.4014 -0.2447  1.0509
  322SOL     OW  964   3.024   1.279   2.339 -0.3876 -0.2723 -0.1895
  322SOL    HW1  965   0.018   1.252   2.339  0.5039  1.1370 -0.7316
  322SOL    HW2  966   2.997   1.363   2.388 -1.7576 -1.2655 -1.1809
  323SOL     OW  967   2.227   1.345   0.655  0.5984 -0.1805  0.5340
  323SOL    HW1  968   2.216   1.259   0.711  2.0194 -1.6073  1.0825
  323SOL    HW2  969   2.320   1.384   0.644  0.0921 -0.8934  0.9334
  324SOL     OW  970   2.978   0.023   2.486 -0.3769  0.7092  0.5845
  324SOL    HW1  971   2.960   0.096   2.547 -0.7473  0.3129 -3.8790
  324SOL    HW2  972   2.996   3.045   2.543  2.2321  1.8718  1.8238
  325SOL     OW  973   1.333   0.563   2.741 -0.2725 -0.5683 -0.2846
  325SOL    HW1  974   1.321   0.577   2.642 -0.1572 -0.5496  1.3613
  325SOL    HW2  975   1.256   0.609   2.792  0.5188  1.2887  1.6705
  326SOL     OW  976   2.102   2.714   1.798 -0.1047  0.2384 -0.1922
  326SOL    HW1  977   2.089   2.669   1.710  1.0052  2.9897 -0.2282
  326SOL    HW2  978   2.201   2.744   1.808  0.7524 -2.6394 -0.4710
  327SOL     OW  979   2.329   0.319   0.018 -0.4342  0.1767  0.1929
  327SOL    HW1  980   2.357   0.329   3.022 -0.7075 -0.1783  0.6636
  327SOL    HW2  981   2.281   0.402   0.057 -0.5888 -0.3704  2.1181
  328SOL     OW  982   0.168   1.172   2.416  0.1666 -0.1403 -0.6449
  328SOL    HW1  983   0.222   1.145   2.331  1.4165 -2.6432  0.6803
  328SOL    HW2  984   0.120   1.095   2.459 -1.1223 -0.2369  0.2771
  329SOL     OW  985   2.039   2.975   1.774 -0.3373 -0.0408 -0.1277
  329SOL    HW1  986   1.944   2.982   1.733 -0.8176 -3.3992  2.4051
  329SOL    HW2  987   2.048   2.879   1.800  0.7063  0.9963 -1.9834
  330SOL     OW  988   2.828   1.504   1.090 -0.4644 -0.1727  0.5362
  330SOL    HW1  989   2.753   1.439   1.081 -0.4949 -0.3198  3.1193
  330SOL    HW2  990   2.895   1.476   1.162  0.5126 -0.9578  2.3494
  331SOL     OW  991   0.488   1.838   2.166 -0.3187 -0.3170  0.0165
  331SOL    HW1  992   0.551   1.885   2.227  0.3884 -0.9068 -1.5735
  331SOL    HW2  993   0.548   1.827   2.082  1.8098 -1.3168  0.4986
  332SOL     OW  994   0.125   2.816   1.701  0.2692 -0.5169 -0.8513
  332SOL    HW1  995   0.215   2.775   1.671  0.2875 -2.9934 -1.8040
  332SOL    HW2  996   0.072   2.844   1.620  1.0007 -2.8811  1.9551
  333SOL     OW  997   2.156   2.687   0.903 -0.0426  0.1870  0.0458
  333SOL    HW1  998   2.144   2.599   0.956  0.9610 -2.5807  1.6389
  333SOL    HW2  999   2.118   2.690   0.812  0.0217  5.0999  0.4213
  334SOL     OW 1000   0.781   1.765   0.754 -0.3580  0.6864 -0.4823
  334SOL    HW1 1001   0.819   1.709   0.675  1.3358 -2.4843 -2.0542
  334SOL    HW2 1002   0.839   1.747   0.841  2.1286 -2.9717  2.8866
  335SOL     OW 1003   0.175   2.489   3.003 -0.5044 -0.5428  0.1209
  335SOL    HW1 1004   0.188   2.442   2.917 -1.0215  1.1101  0.8215
  335SOL    HW2 1005   0.225   2.577   2.998  0.4345  0.8717  0.1069
  336SOL     OW 1006   0.560   3.033   2.233 -0.5335 -0.4485  0.0719
  336SOL    HW1 1007   0.478   3.016   2.296  0.7647  2.5207 -1.4056
  336SOL    HW2 1008   0.591   2.941   2.203  1.5993  0.0611 -0.3988
  337SOL     OW 1009   2.517   2.064   2.917 -0.1587 -0.2761  0.3966
  337SOL    HW1 1010   2.511   2.115   3.000  3.4973 -2.9784 -1.8814
  337SOL    HW2 1011   2.501   2.120   2.833  0.7947  0.6796 -0.7150
  338SOL     OW 1012   1.002   1.314   1.130 -0.2826  0.2003  0.2057
  338SOL    HW1 1013   0.963   1.380   1.061 -1.1950  0.7925 -0.3442
  338SOL    HW2 1014   1.040   1.366   1.207 -3.4908 -0.2495 -1.4804
  339SOL     OW 1015   0.115   0.742   1.842  0.1806  0.6583 -0.1235
  339SOL    HW1 1016   0.091   0.699   1.930  0.9755  0.8292 -0.0876
  339SOL    HW2 1017   0.088   0.843   1.837 -1.9343 -0.6866 -0.2492
  340SOL     OW 1018   1.563   2.593   0.285 -0.2467 -0.2155  0.2721
  340SOL    HW1 1019   1.588   2.624   0.381 -1.2600  3.2335  0.7373
  340SOL    HW2 1020   1.552   2.677   0.222 -1.8781  2.0621 -1.6613
  341SOL     OW 1021   1.935   1.275   0.834  0.2439  0.0417 -0.3641
  341SOL    HW1 1022   1.859   1.215   0.866 -1.2962  1.5834  2.2365
  341SOL    HW2 1023   1.900   1.368   0.817  2.1045 -0.9991 -1.1880
  342SOL     OW 1024   2.540   3.003   3.080  0.3327 -0.1176 -0.1618
  342SOL    HW1 1025   2.459   2.959   0.023  1.9205  0.8078  3.4374
  342SOL    HW2 1026   2.590   2.935   3.021 -2.2964  0.7657  0.8670
  343SOL     OW 1027   1.352   2.151   1.316  0.0038 -0.1446 -0.1967
  343SOL    HW1 1028   1.339   2.196   1.407  2.4183  1.2793 -2.2937
  343SOL    HW2 1029   1.298   2.065   1.309  3.4797 -0.5990 -0.7192
  344SOL     OW 1030   2.048   2.438   1.030 -0.0861  0.1144  0.1917
  344SOL    HW1 1031   2.056   2.336   1.026 -0.4693  1.0536 -1.0390
  344SOL    HW2 1032   2.111   2.475   1.103  2.5693  0.8247 -0.3143
  345SOL     OW 1033   2.641   2.471   0.101  0.1965 -0.2415 -0.3142
  345SOL    HW1 1034   2.590   2.399   0.151 -1.8163 -1.3074 -1.2871
  345SOL    HW2 1035   2.619   2.562   0.144  0.7959  1.5079 -0.7984
  346SOL     OW 1036   2.757   1.435   0.572  0.3765  0.2054  0.1281
  346SOL    HW1 1037   2.819   1.498   0.517  0.7947  1.1444 -0.8579
  346SOL    HW2 1038   2.779   1.451   0.670 -0.4953  0.2378  0.5325
  347SOL     OW 1039   2.035   2.345   1.474  0.0699 -0.2027 -0.8279
  347SOL    HW1 1040   1.953   2.384   1.425 -0.2574 -2.7449 -0.2910
  347SOL    HW2 1041   2.085   2.273   1.415 -2.9195 -0.5565 -3.0962
  348SOL     OW 1042   0.704   1.892   0.001 -0.2282  0.2999 -0.3001
  348SOL    HW1 1043   0.745   1.974   3.061  1.5484 -1.5915 -0.5509
  348SOL    HW2 1044   0.666   1.910   0.093  0.4502  4.5158 -0.7990
  349SOL     OW 1045   2.541   1.410   1.783  0.2450 -0.4110 -0.3933
  349SOL    HW1 1046   2.502   1.441   1.873  0.1422 -1.6874 -0.6370
  349SOL    HW2 1047   2.590   1.488   1.727 -1.5612  2.9462  0.5795
  350SOL     OW 1048   2.940   2.446   0.886  0.0187  0.6122 -0.1945
  350SOL    HW1 1049   2.895   2.533   0.914  0.7700  0.6299  1.5623
  350SOL    HW2 1050   3.037   2.456   0.855 -0.7970 -2.6592 -1.4374
  351SOL     OW 1051   0.291   0.336   2.111  0.4948 -0.3862 -0.4115
  351SOL    HW1 1052   0.368   0.295   2.160 -1.8160  1.5560  0.7875
  351SOL    HW2 1053   0.256   0.277   2.033  2.4677 -1.0116 -1.8180
  352SOL     OW 1054   0.438   1.923   1.184 -0.4659  0.1471  0.1574
  352SOL    HW1 1055   0.515   1.875   1.236  1.8694 -0.4136 -0.5977
  352SOL    HW2 1056   0.360   1.856   1.181  0.7221  3.5031  0.2363
  353SOL     OW 1057   1.578   1.710   2.572 -0.0807  0.2813  0.1821
  353SOL    HW1 1058   1.619   1.718   2.481 -3.1564 -1.0653 -1.6625
  353SOL    HW2 1059   1.601   1.617   2.607  0.2338 -0.1303  1.1747
  354SOL     OW 1060   1.246   0.525   1.014  0.5185  0.0255  0.3671
  354SOL    HW1 1061   1.342   0.547   0.979  4.4944  2.3067 -1.5100
  354SOL    HW2 1062   1.231   0.576   1.101  2.0345 -0.1282 -1.9043
  355SOL     OW 1063   2.736   0.905   0.629 -0.2091 -0.9171  0.0798
  355SOL    HW1 1064   2.831   0.869   0.648  0.0167  1.3719 -1.2775
  355SOL    HW2 1065   2.718   0.965   0.709  0.7239  2.3262  4.0253
  356SOL     OW 1066   2.593   1.716   2.337  0.7300 -0.1469 -0.3980
  356SOL    HW1 1067   2.505   1.697   2.395 -3.1532  0.1834 -0.3545
  356SOL    HW2 1068   2.612   1.637   2.271 -3.1873 -1.3636  1.9238
  357SOL     OW 1069   0.443   2.497   1.244  0.3623  0.4160 -0.0110
  357SOL    HW1 1070   0.545   2.473   1.243  1.1949  0.3041 -0.7938
  357SOL    HW2 1071   0.396   2.449   1.166  1.2347 -2.2741 -3.4516
  358SOL     OW 1072   2.489   0.758   1.799 -0.2832  0.0886  0.0138
  358SOL    HW1 1073   2.505   0.719   1.703  0.4814 -0.8192 -1.6131
  358SOL    HW2 1074   2.569   0.781   1.854 -3.2447  0.3698  0.5558
  359SOL     OW 1075   2.553   2.303   2.750 -0.2384  0.0493  0.2821
  359SOL    HW1 1076   2.529   2.339   2.660  0.4752 -0.5352  3.6884
  359SOL    HW2 1077   2.644   2.260   2.749 -0.9770 -1.7687 -2.0546
  360SOL     OW 1078   2.059   0.724   0.852  0.4309 -0.0763  0.5064
  360SOL    HW1 1079   2.080   0.776   0.769  0.4409 -1.4891  0.1861
  360SOL    HW2 1080   2.058   0.785   0.938  0.5227  0.4225  3.2546
  361SOL     OW 1081   2.330   0.117   0.986  1.1791  0.0914  0.4087
  361SOL    HW1 1082   2.237   0.139   0.954 -0.3693 -1.4577 -2.7202
  361SOL    HW2 1083   2.316   0.021   1.030 -0.6372 -1.2600 -1.0485
  362SOL     OW 1084   1.189   1.347   0.524 -0.1998  0.4384 -0.3880
  362SOL    HW1 1085   1.171   1.385   0.620  0.0883  1.4883  1.1943
  362SOL    HW2 1086   1.189   1.424   0.454 -0.7143  2.0410 -1.7618
  363SOL     OW 1087   2.486   1.474   2.798 -0.1437  0.0798  0.2419
  363SOL    HW1 1088   2.490   1.574   2.828 -1.7116  1.7422  1.7378
  363SOL    HW2 1089   2.558   1.455   2.726  2.4172 -2.4180 -1.1945
  364SOL     OW 1090   0.704   0.548   1.478 -0.0085  0.1503  0.0514
  364SOL    HW1 1091   0.744   0.634   1.525  1.8997 -0.5014 -0.7656
  364SOL    HW2 1092   0.728   0.471   1.541 -1.0472 -0.9915 -0.2431
  365SOL     OW 1093   0.170   3.040   0.531 -0.4647 -0.7083 -0.6551
  365SOL    HW1 1094   0.117   3.002   0.453 -2.1771 -2.3337 -1.4758
  365SOL    HW2 1095   0.150   2.990   0.617  1.1616 -2.3597  0.4280
  366SOL     OW 1096   2.942   1.312   3.100  0.2071 -0.5872  0.1137
  366SOL    HW1 1097   2.967   1.412   0.015 -0.8152 -0.1601  1.3645
  366SOL    HW2 1098   2.995   1.257   0.064  2.5395 -1.5682  2.8964
  367SOL     OW 1099   2.866   2.455   2.765  0.2018 -0.0343  0.4297
  367SOL    HW1 1100   2.772   2.492   2.744 -1.4939 -0.2348  0.4818
  367SOL    HW2 1101   2.879   2.451   2.868  0.7492 -0.4755 -0.4619
  368SOL     OW 1102   0.031   1.838   0.700  0.2406  0.0352 -0.0411
  368SOL    HW1 1103   3.085   1.921   0.671  1.2183 -0.7738 -0.8421
  368SOL    HW2 1104   0.134   1.838   0.684  4.9022  2.0480  0.5666
  369SOL     OW 1105   0.753   3.033   0.319  0.2092  0.4888 -0.1514
  369SOL    HW1 1106   0.674   2.971   0.323  1.6111  0.6321 -0.4865
  369SOL    HW2 1107   0.825   3.004   0.389  1.7545 -1.2739  2.1399
  370SOL     OW 1108   0.498   1.147   0.656 -0.8482  0.0380  0.4607
  370SOL    HW1 1109   0.409   1.180   0.614  1.1508  2.8466 -0.2393
  370SOL    HW2 1110   0.526   1.213   0.726 -3.0083 -2.8505 -0.6286
  371SOL     OW 1111   1.903   2.924   0.678 -0.1631  0.2736  0.2217
  371SOL    HW1 1112   1.940   2.830   0.679 -0.5290  0.9935 -0.4408
  371SOL    HW2 1113   1.944   2.979   0.601 -1.8597  1.5275  0.1419
  372SOL     OW 1114   0.274   0.927   2.690 -0.4094  0.1257 -0.0311
  372SOL    HW1 1115   0.185   0.949   2.654  0.0646 -0.7855 -0.8385
  372SOL    HW2 1116   0.308   1.011   2.737 -0.0111 -0.2483 -0.3688
  373SOL     OW 1117   2.791   1.728   0.745 -0.2466 -0.3383 -0.3397
  373SOL    HW1 1118   2.811   1.752   0.843 -2.0793  1.2028  1.4943
  373SOL    HW2 1119   2.689   1.735   0.738 -0.4920 -0.7920  1.7110
  374SOL     OW 1120   0.375   2.587   0.260 -0.3874 -0.2429 -0.2039
  374SOL    HW1 1121   0.330   2.502   0.226 -0.4816  0.8552  0.2764
  374SOL    HW2 1122   0.482   2.571   0.277  4.3860 -0.0012  1.1181
  375SOL     OW 1123   0.289   0.452   0.168  0.6764  0.4396  0.0901
  375SOL    HW1 1124   0.361   0.426   0.239  1.9072  1.4567 -0.8450
  375SOL    HW2 1125   0.290   0.385   0.093 -0.1041  1.8252 -0.2378
  376SOL     OW 1126   0.470   2.839   1.839 -0.1157  0.3199  0.4901
  376SOL    HW1 1127   0.519   2.807   1.924  1.5499 -1.7480  1.8404
  376SOL    HW2 1128   0.435   2.935   1.853  3.3964 -1.1281  0.3756
  377SOL     OW 1129   1.166   2.264   2.480 -0.6472 -0.4607  0.3851
  377SOL    HW1 1130   1.156   2.360   2.510  2.8010 -1.0997 -1.3628
  377SOL    HW2 1131   1.204   2.256   2.388 -1.8554  0.3212  1.1961
  378SOL     OW 1132   1.201   0.739   0.685 -0.1464 -0.2342 -0.4075
  378SOL    HW1 1133   1.135   0.726   0.609  1.7385 -2.7645  0.5655
  378SOL    HW2 1134   1.276   0.812   0.673  2.8379  4.5548 -1.7300
  379SOL     OW 1135   0.963   1.659   0.233 -0.0338 -0.2228  0.5891
  379SOL    HW1 1136   0.924   1.653   0.140  0.2916 -1.8084  1.3583
  379SOL    HW2 1137   0.920   1.576   0.285 -0.0561 -1.7175 -0.2844
  380SOL     OW 1138   3.084   1.915   1.727 -0.2008 -0.2078  0.1702
  380SOL    HW1 1139   3.045   1.849   1.661  0.4216 -1.1501  0.2844
  380SOL    HW2 1140   0.069   1.949   1.690 -4.8091  1.3633  0.1734
  381SOL     OW 1141   0.197   1.116   1.702  0.4517 -0.4638 -0.0447
  381SOL    HW1 1142   0.097   1.094   1.720  1.5012 -1.6285  2.1282
  381SOL    HW2 1143   0.257   1.043   1.740 -0.2106  0.3236  1.0734
  382SOL     OW 1144   2.491   2.103   0.693  0.7034 -0.0069  0.1237
  382SOL    HW1 1145   2.421   2.160   0.641  0.3834  1.1320 -0.6477
  382SOL    HW2 1146   2.503   2.142   0.786  1.5698 -2.1183  0.1012
  383SOL     OW 1147   2.099   1.898   2.513 -0.1777  0.2053 -0.1935
  383SOL    HW1 1148   2.124   1.805   2.496  0.0738  1.2896 -0.4044
  383SOL    HW2 1149   2.176   1.962   2.504  1.1761 -2.5423  0.9538
  384SOL     OW 1150   0.673   1.946   2.343  0.5945 -0.0150  0.0186
  384SOL    HW1 1151   0.670   2.032   2.397  1.3944  0.9037  1.3803
  384SOL    HW2 1152   0.751   1.937   2.274  0.6966 -0.0713  0.3450
  385SOL     OW 1153   2.836   2.223   1.048  0.5917 -0.0834  0.1782
  385SOL    HW1 1154   2.857   2.291   0.973 -1.8658 -0.8251 -0.8142
  385SOL    HW2 1155   2.917   2.164   1.076 -0.6546  0.8219 -1.1374
  386SOL     OW 1156   1.662   0.841   0.241  0.8797 -0.3054 -0.2226
  386SOL    HW1 1157   1.629   0.760   0.187 -1.2319  0.1227  0.0920
  386SOL    HW2 1158   1.761   0.846   0.237 -2.8562 -3.5056 -0.5067
  387SOL     OW 1159   0.344   0.888   1.763 -0.0545  0.0313  0.0718
  387SOL    HW1 1160   0.278   0.811   1.775 -0.7489  1.2837 -0.2424
  387SOL    HW2 1161   0.429   0.888   1.822 -1.1217  0.9653  0.3590
  388SOL     OW 1162   2.421   0.826   2.276  0.1676 -0.1310  0.2308
  388SOL    HW1 1163   2.451   0.882   2.200  1.2827 -0.3187  2.0521
  388SOL    HW2 1164   2.349   0.861   2.336 -0.6673 -2.1661 -2.8185
  389SOL     OW 1165   1.636   0.932   2.279  0.6042 -0.7769  0.5676
  389SOL    HW1 1166   1.588   0.910   2.188 -1.2366 -1.2478  0.2194
  389SOL    HW2 1167   1.729   0.895   2.275 -1.1915  1.0986  0.5768
  390SOL     OW 1168   1.844   2.748   0.152  0.0615 -0.2752 -0.0424
  390SOL    HW1 1169   1.848   2.697   0.240 -0.3859 -2.0328  0.2659
  390SOL    HW2 1170   1.756   2.734   0.100 -1.7203  0.0069  2.1241
  391SOL     OW 1171   1.758   2.343   1.055 -0.0596  0.4044 -0.4953
  391SOL    HW1 1172   1.860   2.354   1.044 -1.7062 -2.0809  0.7641
  391SOL    HW2 1173   1.700   2.361   0.972  0.7075 -2.7100 -0.3853
  392SOL     OW 1174   2.974   2.539   1.434 -0.1816  0.2935 -0.0768
  392SOL    HW1 1175   3.029   2.609   1.382 -0.9344  0.1100  0.1408
  392SOL    HW2 1176   2.892   2.501   1.382  1.3221  1.9584  2.4270
  393SOL     OW 1177   1.990   1.860   3.063 -0.3336 -0.1487  0.2990
  393SOL    HW1 1178   1.984   1.785   0.030 -1.4300 -0.1151 -2.3230
  393SOL    HW2 1179   2.066   1.845   2.999 -1.4810 -1.8254  0.2308
  394SOL     OW 1180   0.216   0.031   2.993 -0.2918  0.3638 -0.3977
  394SOL    HW1 1181   0.113   0.021   2.987 -0.4324  1.0409 -0.2566
  394SOL    HW2 1182   0.260   0.001   2.906 -0.6119  1.6575 -0.7947
  395SOL     OW 1183   1.493   1.040   1.331 -0.0925  0.3527  0.1245
  395SOL    HW1 1184   1.502   1.135   1.294 -0.6350 -0.7795  1.0698
  395SOL    HW2 1185   1.523   0.968   1.260 -1.2772 -2.8619 -2.6018
  396SOL     OW 1186   1.649   1.039   0.053 -0.1275 -0.3052 -0.0287
  396SOL    HW1 1187   1.745   1.078   0.052  0.6256 -0.2814  0.5260
  396SOL    HW2 1188   1.648   0.961   0.119  2.2911  1.5663 -0.5698
  397SOL     OW 1189   0.201   0.674   2.678  0.3180  0.0461 -0.6212
  397SOL    HW1 1190   0.109   0.669   2.638  0.7004  1.9044 -0.2438
  397SOL    HW2 1191   0.222   0.771   2.693  0.2483 -1.9750 -0.3582
  398SOL     OW 1192   1.371   0.478   0.139  0.3443  0.4262 -0.1115
  398SOL    HW1 1193   1.350   0.548   0.066  1.7683  0.0148  1.2963
  398SOL    HW2 1194   1.382   0.389   0.091  1.1109  0.5611 -2.0877
  399SOL     OW 1195   2.384   2.717   1.910 -1.0659 -0.4059 -0.0915
  399SOL    HW1 1196   2.486   2.717   1.895  2.2183  1.8089 -2.7751
  399SOL    HW2 1197   2.353   2.635   1.964  2.6288 -2.1305  0.3879
  400SOL     OW 1198   0.106   1.620   2.268 -0.6165  1.6986  0.4824
  400SOL    HW1 1199   0.166   1.541   2.228  2.3309  0.1131 -0.2608
  400SOL    HW2 1200   0.025   1.632   2.207  0.7950 -0.2270 -1.1138
  401SOL     OW 1201   0.515   0.250   2.746  0.5716  0.3553 -0.1638
  401SOL    HW1 1202   0.495   0.303   2.831 -1.5251 -1.1515  0.9563
  401SOL    HW2 1203   0.603   0.274   2.701  2.2457 -0.0104 -2.6196
  402SOL     OW 1204   0.372   2.264   1.772 -0.6404 -0.3917  0.1123
  402SOL    HW1 1205   0.390   2.200   1.695 -1.1700  2.3668  1.3081
  402SOL    HW2 1206   0.457   2.312   1.796  0.7580 -0.0654 -2.5525
  403SOL     OW 1207   0.685   1.155   1.493 -0.2790 -0.2779 -0.2476
  403SOL    HW1 1208   0.696   1.055   1.466  0.5424 -1.6478 -1.2618
  403SOL    HW2 1209   0.735   1.180   1.581 -1.2088 -0.2269  2.2913
  404SOL     OW 1210   2.972   2.618   1.683 -0.6234 -0.4535 -0.6854
  404SOL    HW1 1211   2.984   2.714   1.687 -0.6445 -0.5830 -2.2700
  404SOL    HW2 1212   2.978   2.588   1.587 -0.8644  0.0059  0.1106
  405SOL     OW 1213   3.005   0.146   1.789  0.0011 -0.3436 -0.1421
  405SOL    HW1 1214   3.020   0.044   1.790 -0.4127  1.7546 -0.9339
  405SOL    HW2 1215   2.982   0.180   1.883 -1.8024 -3.0829 -0.4409
  406SOL     OW 1216   1.586   2.543   2.836 -0.3755  0.3887 -0.3807
  406SOL    HW1 1217   1.596   2.440   2.829  1.9440 -1.8009  1.2888
  406SOL    HW2 1218   1.601   2.587   2.749  3.0205 -1.2111  0.0170
  407SOL     OW 1219   1.742   1.446   1.582  0.1111 -0.3462  0.1047
  407SOL    HW1 1220   1.752   1.358   1.632  1.9687 -0.9525  0.7066
  407SOL    HW2 1221   1.815   1.516   1.600  0.6979 -1.0866  0.2285
  408SOL     OW 1222   0.774   0.234   2.197 -1.0280  0.1875 -0.4459
  408SOL    HW1 1223   0.680   0.210   2.218  2.8143  0.9477 -1.8148
  408SOL    HW2 1224   0.833   0.210   2.279  0.2114 -1.4567  0.2319
  409SOL     OW 1225   2.818   2.482   0.515 -0.2833 -0.4115  0.6075
  409SOL    HW1 1226   2.726   2.430   0.521 -2.2483 -2.1606  0.9980
  409SOL    HW2 1227   2.829   2.545   0.427 -0.7817  2.4459 -2.0051
  410SOL     OW 1228   2.244   1.737   0.565  0.1446 -0.6248 -0.1550
  410SOL    HW1 1229   2.221   1.652   0.524 -0.0846  3.0759  2.5396
  410SOL    HW2 1230   2.343   1.757   0.577  1.5024  0.5376  1.2212
  411SOL     OW 1231   0.037   0.500   0.809 -0.8566 -0.5758  0.4955
  411SOL    HW1 1232   0.112   0.453   0.863 -1.6195 -0.7452  1.1872
  411SOL    HW2 1233   0.085   0.545   0.732  0.7943 -0.3512  2.3694
  412SOL     OW 1234   1.807   0.731   0.443  0.0719  0.5768  0.0303
  412SOL    HW1 1235   1.796   0.773   0.538  1.4742 -0.4127 -0.5009
  412SOL    HW2 1236   1.879   0.778   0.383  1.5210 -0.1183 -1.9778
  413SOL     OW 1237   0.770   0.450   1.212 -0.1928  0.3311  0.2181
  413SOL    HW1 1238   0.712   0.370   1.185 -3.0101 -2.7752  1.8902
  413SOL    HW2 1239   0.759   0.471   1.307 -0.4293 -1.5701 -2.9605
  414SOL     OW 1240   0.342   1.744   0.096 -0.2388 -0.3461  0.7530
  414SOL    HW1 1241   0.341   1.704   0.004  1.5100 -1.1653  0.9308
  414SOL    HW2 1242   0.338   1.670   0.166 -0.4978 -0.8965  0.7494
  415SOL     OW 1243   0.253   2.391   0.119 -0.1715  0.1981 -0.3906
  415SOL    HW1 1244   0.325   2.327   0.105 -1.4375  2.9833  1.5734
  415SOL    HW2 1245   0.209   2.428   0.038  2.7690  0.5744  3.0316
  416SOL     OW 1246   1.597   0.959   0.481 -0.2498  0.0980 -0.1074
  416SOL    HW1 1247   1.610   0.920   0.386 -0.6369 -0.5033  1.3623
  416SOL    HW2 1248   1.678   0.948   0.537  0.9742  0.0091  1.1348
  417SOL     OW 1249   0.469   0.897   0.596 -0.0902  0.0974 -0.0195
  417SOL    HW1 1250   0.371   0.875   0.568 -2.8062  0.9687  2.3723
  417SOL    HW2 1251   0.468   1.003   0.612  0.0692  1.2751 -2.4738
  418SOL     OW 1252   2.639   1.055   2.563  0.4357 -0.0730  0.1700
  418SOL    HW1 1253   2.614   1.113   2.485 -1.3786 -0.0432  1.0301
  418SOL    HW2 1254   2.570   1.065   2.640  2.4973  0.0031 -2.2950
  419SOL     OW 1255   0.357   0.287   3.004 -0.0243 -0.4331 -0.1024
  419SOL    HW1 1256   0.288   0.214   3.010  2.0132  1.2430 -0.8972
  419SOL    HW2 1257   0.315   0.368   2.958 -1.0858 -0.6536  2.2510
  420SOL     OW 1258   0.310   1.208   1.061  0.0030 -0.1445  0.1387
  420SOL    HW1 1259   0.272   1.269   0.990 -1.4081  1.2563 -1.8809
  420SOL    HW2 1260   0.299   1.245   1.158 -0.0798 -1.7710  0.5566
  421SOL     OW 1261   0.549   2.130   0.410 -0.3532 -0.2334 -0.0931
  421SOL    HW1 1262   0.463   2.102   0.363  1.2890 -2.6723  0.3343
  421SOL    HW2 1263   0.548   2.223   0.451  0.4591 -0.8870  0.2568
  422SOL     OW 1264   2.717   0.608   1.354 -0.4234  0.2612  0.6694
  422SOL    HW1 1265   2.810   0.568   1.362 -0.4154 -3.6600 -1.9627
  422SOL    HW2 1266   2.663   0.559   1.277  1.1206  2.4177 -1.9186
  423SOL     OW 1267   1.685   1.478   1.314 -0.3448  0.4725 -0.6836
  423SOL    HW1 1268   1.702   1.447   1.410 -0.7336  1.6832  1.3795
  423SOL    HW2 1269   1.733   1.564   1.293 -2.3861  0.1504  0.5049
  424SOL     OW 1270   1.996   1.220   0.350 -0.4141  0.7770 -0.1454
  424SOL    HW1 1271   2.089   1.233   0.313 -0.3879  0.4617  2.8318
  424SOL    HW2 1272   1.976   1.309   0.400 -0.2914 -1.8126 -0.0724
  425SOL     OW 1273   0.044   3.001   2.107 -0.2634  0.6742  0.0930
  425SOL    HW1 1274   0.089   3.044   2.188 -1.1062 -0.3628 -1.2919
  425SOL    HW2 1275   3.060   2.965   2.142  0.2114  0.0418  0.0148
  426SOL     OW 1276   2.644   2.598   2.696  0.0461  0.3375  0.0203
  426SOL    HW1 1277   2.559   2.604   2.751  0.2355  0.0992 -2.5807
  426SOL    HW2 1278   2.649   2.670   2.624 -1.2443 -0.7539  0.2331
  427SOL     OW 1279   0.898   0.963   2.279  0.2535  0.6290  0.0067
  427SOL    HW1 1280   0.829   0.904   2.228 -0.2709  1.1693  1.0026
  427SOL    HW2 1281   0.974   0.912   2.332  0.1037 -0.6884  2.4073
  428SOL     OW 1282   2.105   0.747   2.526 -0.0869 -0.7912 -0.3376
  428SOL    HW1 1283   2.068   0.716   2.621  1.2115 -1.0716  1.4521
  428SOL    HW2 1284   2.145   0.843   2.525 -0.8161  2.5046 -0.1450
  429SOL     OW 1285   2.372   0.325   0.598 -0.2871 -0.2784 -0.2249
  429SOL    HW1 1286   2.362   0.258   0.522 -1.5714  0.4645 -0.4616
  429SOL    HW2 1287   2.290   0.386   0.596 -1.2585 -3.0381 -1.5521
  430SOL     OW 1288   2.093   1.270   2.146 -0.0436 -0.2092  0.2384
  430SOL    HW1 1289   2.012   1.223   2.188  0.1700  0.0271  0.7072
  430SOL    HW2 1290   2.082   1.293   2.045 -1.0137 -0.7123 -2.0889
  431SOL     OW 1291   2.975   2.056   1.462  0.4128  0.3695 -0.0597
  431SOL    HW1 1292   3.023   2.097   1.544  3.5428 -1.4154  0.0503
  431SOL    HW2 1293   2.964   1.957   1.481 -0.4591 -1.5029 -1.8946
  432SOL     OW 1294   1.590   2.923   2.259  0.3628  0.2409 -0.3193
  432SOL    HW1 1295   1.549   3.016   2.254  0.2084  1.9757  0.7625
  432SOL    HW2 1296   1.642   2.903   2.177  2.4714  0.6321  0.7512
  433SOL     OW 1297   1.473   2.883   1.844  0.0215 -0.1059  0.7492
  433SOL    HW1 1298   1.477   2.881   1.740 -0.0299  0.3925  3.0146
  433SOL    HW2 1299   1.435   2.971   1.883  0.7411  1.1146  1.3357
  434SOL     OW 1300   0.122   2.198   2.303 -0.0618  0.3233  0.0907
  434SOL    HW1 1301   0.095   2.124   2.240 -1.7766  0.1613  0.0825
  434SOL    HW2 1302   0.176   2.266   2.253 -0.3061 -1.0588  0.5664
  435SOL     OW 1303   3.088   2.102   0.087  0.1296  0.4362 -0.4661
  435SOL    HW1 1304   0.078   2.061   0.075 -2.1293 -0.9312  1.5630
  435SOL    HW2 1305   3.050   2.052   0.167 -2.3295  0.0197  2.6644
  436SOL     OW 1306   0.972   1.032   1.842  0.4530 -0.1994 -0.2992
  436SOL    HW1 1307   1.062   1.066   1.809  0.2965  1.1142 -0.0405
  436SOL    HW2 1308   0.980   1.037   1.944  1.5006  0.3405  2.9029
  437SOL     OW 1309   0.519   0.209   2.306  0.4082  0.0914  0.3470
  437SOL    HW1 1310   0.480   0.205   2.403  1.0158 -1.1364  0.6984
  437SOL    HW2 1311   0.539   0.112   2.266 -0.1334 -3.2977  0.3296
  438SOL     OW 1312   0.487   1.667   1.635  0.0920 -0.2417 -0.1364
  438SOL    HW1 1313   0.537   1.751   1.658  0.4747 -2.1821 -0.2010
  438SOL    HW2 1314   0.529   1.594   1.691  0.1987  2.9912 -0.4623
  439SOL     OW 1315   2.071   0.918   0.006  0.1131 -0.2428  0.2406
  439SOL    HW1 1316   2.008   0.986   0.045  0.5947  1.0310  1.1610
  439SOL    HW2 1317   2.160   0.963   0.009  0.6989  1.8232 -0.0541
  440SOL     OW 1318   0.880   0.993   0.248 -0.1010 -0.2353 -0.4334
  440SOL    HW1 1319   0.961   0.948   0.291  1.1906 -3.0441  0.1602
  440SOL    HW2 1320   0.790   0.976   0.297 -1.5726 -0.9421  2.5986
  441SOL     OW 1321   0.569   2.689   1.480  0.5577  0.3082 -0.1655
  441SOL    HW1 1322   0.578   2.629   1.399  0.7078  2.4130  2.4085
  441SOL    HW2 1323   0.657   2.701   1.526  0.0794 -3.2256 -2.8096
  442SOL     OW 1324   2.706   2.072   0.561  0.1212  0.5580  0.1299
  442SOL    HW1 1325   2.626   2.078   0.625  1.6508 -0.2070  0.6126
  442SOL    HW2 1326   2.714   1.982   0.513  1.4111  0.7754 -1.6253
  443SOL     OW 1327   2.888   1.612   2.645  0.0304 -0.2051  0.1692
  443SOL    HW1 1328   2.855   1.709   2.633 -0.2072 -0.4176 -1.8847
  443SOL    HW2 1329   2.991   1.600   2.638  0.1614  1.0583  0.2827
  444SOL     OW 1330   1.199   1.180   0.278 -0.0782 -0.2650  0.0944
  444SOL    HW1 1331   1.185   1.079   0.285  0.4367  1.8962 -1.7007
  444SOL    HW2 1332   1.205   1.226   0.365  1.1040 -1.0124 -5.4998
  445SOL     OW 1333   2.424   2.317   1.948  0.3418  0.1487 -0.0248
  445SOL    HW1 1334   2.505   2.375   1.966 -0.4791  0.5688  0.8027
  445SOL    HW2 1335   2.400   2.263   2.031  0.3519  1.1880  0.3013
  446SOL     OW 1336   2.911   1.639   0.525 -0.6823  0.0463  0.0303
  446SOL    HW1 1337   2.978   1.707   0.495 -1.4794 -0.2932  1.2212
  446SOL    HW2 1338   2.870   1.664   0.620  0.2654 -1.8938  0.8282
  447SOL     OW 1339   0.924   2.290   1.363  0.0422  0.1223 -0.2796
  447SOL    HW1 1340   0.981   2.231   1.424  0.9747  0.8906 -0.0601
  447SOL    HW2 1341   0.970   2.297   1.271 -0.7790  0.1379 -0.2037
  448SOL     OW 1342   1.451   1.545   1.930 -0.8356  0.1483 -0.2186
  448SOL    HW1 1343   1.383   1.598   1.987 -2.2341 -5.4611 -0.1361
  448SOL    HW2 1344   1.416   1.535   1.832 -0.8052 -1.4426 -0.8965
  449SOL     OW 1345   0.048   2.030   2.111 -0.2599 -0.1593  0.1782
  449SOL    HW1 1346   3.100   2.075   2.031 -0.6767  0.4625  0.2272
  449SOL    HW2 1347   0.104   1.950   2.080 -2.1993 -0.9663 -0.0056
  450SOL     OW 1348   2.954   1.737   2.191 -0.3578 -0.0106  0.0415
  450SOL    HW1 1349   2.943   1.826   2.235  0.4448 -0.1024  0.6916
  450SOL    HW2 1350   2.947   1.754   2.093  0.4432  0.0401  0.7236
  451SOL     OW 1351   2.121   0.638   1.649 -0.1454 -0.2633  0.0535
  451SOL    HW1 1352   2.190   0.691   1.591  0.1539 -1.0741  0.7145
  451SOL    HW2 1353   2.148   0.541   1.657 -1.5362  0.0019  0.5361
  452SOL     OW 1354   0.914   1.459   0.896 -0.2026 -0.8648  0.1838
  452SOL    HW1 1355   0.872   1.457   0.802  2.1985  1.5165  1.7429
  452SOL    HW2 1356   0.946   1.558   0.915 -1.2157  2.0981  1.6420
  453SOL     OW 1357   1.177   2.279   0.880 -0.0196 -0.3521  0.6679
  453SOL    HW1 1358   1.237   2.359   0.883 -1.8644 -0.5590 -0.5149
  453SOL    HW2 1359   1.154   2.255   0.781  0.9158 -0.4952 -2.7015
  454SOL     OW 1360   0.046   1.479   0.303 -0.3188  0.4458 -0.0509
  454SOL    HW1 1361   0.019   1.452   0.398 -0.8039 -0.1693  0.9075
  454SOL    HW2 1362   0.105   1.408   0.257  1.1886  1.4404 -2.1700
  455SOL     OW 1363   1.067   1.121   0.591 -0.0173 -0.2015 -0.5933
  455SOL    HW1 1364   1.115   1.053   0.532 -1.6508 -0.8898  0.1718
  455SOL    HW2 1365   1.107   1.212   0.562  2.1722  2.6015  0.4704
  456SOL     OW 1366   2.022   2.668   0.665  0.7824 -0.1738  0.0719
  456SOL    HW1 1367   1.972   2.575   0.684 -2.7459 -2.9265  1.0725
  456SOL    HW2 1368   2.054   2.675   0.567 -1.6558  0.1818  1.2787
  457SOL     OW 1369   1.648   3.025   2.904  0.6360 -0.7479 -0.3038
  457SOL    HW1 1370   1.648   0.013   2.954  2.3394  2.0339  1.8154
  457SOL    HW2 1371   1.609   3.039   2.807  0.1974 -0.2445 -0.4443
  458SOL     OW 1372   2.475   0.695   0.246  0.0529  0.3408  0.4291
  458SOL    HW1 1373   2.380   0.669   0.268  1.7550 -0.0264 -1.1214
  458SOL    HW2 1374   2.507   0.766   0.312 -0.8538 -1.3585  0.5472
  459SOL     OW 1375   2.151   0.157   2.211 -0.4220  0.0184  0.3188
  459SOL    HW1 1376   2.070   0.215   2.233 -0.6535  0.5356  0.3284
  459SOL    HW2 1377   2.234   0.215   2.199 -3.2856  0.3346 -2.5644
  460SOL     OW 1378   2.808   0.553   2.735  0.0934  0.3342  0.0918
  460SOL    HW1 1379   2.797   0.545   2.832 -0.4688 -1.6930 -4.3627
  460SOL    HW2 1380   2.721   0.589   2.689 -0.3203  1.7266  2.7560
  461SOL     OW 1381   0.096   2.424   0.797 -0.3865 -0.1340 -0.0320
  461SOL    HW1 1382   0.102   2.356   0.871  0.3379  0.7888  0.9774
  461SOL    HW2 1383   0.042   2.400   0.715 -1.0473  1.4928  0.6259
  462SOL     OW 1384   2.826   2.812   1.182  0.5878 -0.0617 -0.5607
  462SOL    HW1 1385   2.773   2.888   1.149  1.3923 -1.8319  2.5563
  462SOL    HW2 1386   2.903   2.844   1.230 -3.6825 -1.4620 -2.1431
  463SOL     OW 1387   2.191   1.586   0.025  0.5088 -0.1994  0.1657
  463SOL    HW1 1388   2.279   1.616   0.063 -0.4143 -1.9761  0.0208
  463SOL    HW2 1389   2.188   1.606   3.031 -1.6888 -1.2133 -2.3954
  464SOL     OW 1390   0.723   2.459   1.270 -0.3036 -0.4158 -0.1362
  464SOL    HW1 1391   0.792   2.410   1.330 -0.0761 -0.2528 -0.1367
  464SOL    HW2 1392   0.761   2.553   1.244  2.0358  0.0051 -0.6109
  465SOL     OW 1393   0.952   0.234   1.521  0.2157  0.5941 -0.1403
  465SOL    HW1 1394   0.961   0.198   1.618 -5.3098  0.3630  2.7136
  465SOL    HW2 1395   0.855   0.249   1.495  0.8483  1.6104 -1.6620
  466SOL     OW 1396   1.661   2.441   1.835 -0.0762 -0.2980 -0.0773
  466SOL    HW1 1397   1.686   2.410   1.927  1.8538 -0.1558 -1.8707
  466SOL    HW2 1398   1.588   2.515   1.847  1.3324  0.3073  1.9344
  467SOL     OW 1399   0.717   2.124   1.349 -0.0891 -0.4975 -0.0369
  467SOL    HW1 1400   0.623   2.161   1.319 -2.4278  1.9586 -1.2027
  467SOL    HW2 1401   0.785   2.195   1.327  0.9296 -2.7055  0.4819
  468SOL     OW 1402   2.697   1.519   2.172 -0.0197  0.6380 -0.3511
  468SOL    HW1 1403   2.749   1.505   2.259  0.8032 -0.1754 -0.3722
  468SOL    HW2 1404   2.758   1.493   2.097 -0.0337 -2.2392  3.7335
  469SOL     OW 1405   0.849   1.985   0.607 -0.4827  0.0422 -0.6044
  469SOL    HW1 1406   0.808   2.080   0.618 -0.3793  1.5751  1.2512
  469SOL    HW2 1407   0.811   1.926   0.675  1.7310  0.6001 -2.9096
  470SOL     OW 1408   1.867   1.142   2.205  0.1520 -0.5809 -0.0214
  470SOL    HW1 1409   1.846   1.055   2.254  0.1487  0.1501 -0.0845
  470SOL    HW2 1410   1.789   1.212   2.223 -1.2415 -2.5301  2.3066
  471SOL     OW 1411   0.655   2.413   0.107  0.2478 -0.2377 -0.3987
  471SOL    HW1 1412   0.664   2.487   0.179 -1.2881  1.3759  0.5667
  471SOL    HW2 1413   0.747   2.376   0.077  3.0968  0.0673 -1.5914
  472SOL     OW 1414   0.161   2.769   2.018  0.3457  0.0387  0.5141
  472SOL    HW1 1415   0.114   2.858   2.056 -0.3899  3.2582 -0.0502
  472SOL    HW2 1416   0.217   2.785   1.934  1.3161 -1.9453  1.0600
  473SOL     OW 1417   0.616   2.691   3.094 -0.6061  0.3338  0.5513
  473SOL    HW1 1418   0.690   2.743   0.042 -0.4701 -0.0222  1.5934
  473SOL    HW2 1419   0.616   2.597   0.018 -0.1410  5.7089 -4.7429
  474SOL     OW 1420   2.305   2.970   1.069  0.1848 -0.5999 -0.6540
  474SOL    HW1 1421   2.217   2.934   1.096  2.9798  1.2482  0.6669
  474SOL    HW2 1422   2.343   2.930   0.985 -1.0136 -0.0798 -0.4973
  475SOL     OW 1423   1.783   2.963   1.688  0.2156  0.5881  0.0506
  475SOL    HW1 1424   1.770   2.864   1.671 -1.3334  1.8473  1.7133
  475SOL    HW2 1425   1.774   3.015   1.599  2.1004  0.5357 -2.5357
  476SOL     OW 1426   0.636   1.362   0.768 -0.2120  0.6655  0.2396
  476SOL    HW1 1427   0.597   1.458   0.757  1.0397  2.5080 -1.2055
  476SOL    HW2 1428   0.647   1.334   0.865  1.4320  0.0232 -2.7479
  477SOL     OW 1429   0.291   1.899   0.686 -0.0523 -0.0935  0.1769
  477SOL    HW1 1430   0.387   1.919   0.705 -1.9477 -2.1188 -1.7027
  477SOL    HW2 1431   0.269   1.898   0.586 -0.8170  2.1770 -2.3999
  478SOL     OW 1432   3.013   2.589   2.358 -0.5724  0.0535 -0.2918
  478SOL    HW1 1433   2.954   2.666   2.392 -0.3109  1.0433  0.5916
  478SOL    HW2 1434   3.003   2.514   2.420 -1.0398 -0.4205  0.1069
  479SOL     OW 1435   2.982   0.218   1.361 -0.7003 -0.3105 -0.0113
  479SOL    HW1 1436   3.058   0.279   1.341 -1.8248 -0.8799  1.2452
  479SOL    HW2 1437   2.934   0.256   1.448 -0.7113  1.9812  1.6553
  480SOL     OW 1438   2.862   2.463   3.047 -0.4827 -0.0988  0.4937
  480SOL    HW1 1439   2.940   2.518   3.088 -0.1763  2.4180  1.8036
  480SOL    HW2 1440   2.782   2.445   0.007 -2.7041  1.1177  2.1459
  481SOL     OW 1441   2.331   1.903   1.781 -0.7948  0.3065  0.3254
  481SOL    HW1 1442   2.266   1.897   1.704  3.2357 -0.5778  1.8313
  481SOL    HW2 1443   2.387   1.989   1.769 -2.7224 -0.2401  0.5576
  482SOL     OW 1444   1.784   2.222   2.653  0.2900 -0.0496  0.3264
  482SOL    HW1 1445   1.860   2.175   2.705  0.1689  2.4048 -0.3671
  482SOL    HW2 1446   1.763   2.170   2.567 -1.4931 -1.3329 -0.1498
  483SOL     OW 1447   0.894   1.632   2.243 -0.3954 -0.4240 -0.0342
  483SOL    HW1 1448   0.837   1.605   2.327  0.0559  1.4737  1.3509
  483SOL    HW2 1449   0.844   1.593   2.161 -1.8521 -1.2731 -1.0768
  484SOL     OW 1450   0.112   0.417   1.380 -0.5766 -0.0693  0.1064
  484SOL    HW1 1451   0.066   0.491   1.328 -2.4014  0.9393  0.4768
  484SOL    HW2 1452   0.134   0.444   1.476  1.0666  0.1626 -0.2153
  485SOL     OW 1453   2.436   1.009   0.292  0.0563 -0.3141  0.2483
  485SOL    HW1 1454   2.518   0.960   0.326 -1.3941  4.2790 -0.6888
  485SOL    HW2 1455   2.455   1.046   0.199  2.7015  1.6677  2.1500
  486SOL     OW 1456   1.489   0.082   2.196 -0.4371 -0.4068  0.1314
  486SOL    HW1 1457   1.486   0.067   2.096 -0.2847 -1.6098  0.6332
  486SOL    HW2 1458   1.559   0.152   2.222 -0.4287 -1.6235  1.5660
  487SOL     OW 1459   0.805   1.882   1.391 -0.1630 -0.0780 -0.5540
  487SOL    HW1 1460   0.794   1.982   1.375 -0.5618 -2.1331 -3.4855
  487SOL    HW2 1461   0.711   1.836   1.386  0.8712 -1.9357 -0.4694
  488SOL     OW 1462   2.418   1.353   3.054 -0.1165 -0.0066  0.0470
  488SOL    HW1 1463   2.447   1.393   2.960 -1.3320  1.9762 -1.4680
  488SOL    HW2 1464   2.347   1.412   3.095 -1.8994 -0.9730  0.0505
  489SOL     OW 1465   2.256   0.032   0.651  0.1833 -0.1127  0.0734
  489SOL    HW1 1466   2.352   0.008   0.666 -3.8208  1.0030 -1.0981
  489SOL    HW2 1467   2.258   0.077   0.562  0.3172 -0.9695 -1.1232
  490SOL     OW 1468   1.204   2.762   2.935 -0.3252  0.0238  0.3405
  490SOL    HW1 1469   1.234   2.670   2.964 -2.1615 -0.0490 -0.8781
  490SOL    HW2 1470   1.102   2.765   2.949 -2.3507  0.9989 -0.0512
  491SOL     OW 1471   1.081   1.054   1.159 -0.2529  0.2889  0.2598
  491SOL    HW1 1472   1.069   1.153   1.139 -0.7825  0.8033  0.8376
  491SOL    HW2 1473   1.050   0.996   1.079  3.4472 -0.7074 -1.0653
  492SOL     OW 1474   1.233   0.319   2.513 -0.3645 -0.3602 -0.3732
  492SOL    HW1 1475   1.286   0.387   2.454 -0.5762 -2.5480 -2.3037
  492SOL    HW2 1476   1.227   0.228   2.462 -1.5985 -0.1577 -0.4423
  493SOL     OW 1477   1.791   2.049   3.075 -0.0997 -0.3216  0.4346
  493SOL    HW1 1478   1.813   2.146   3.076 -2.0971 -2.1409 -0.9984
  493SOL    HW2 1479   1.874   1.999   3.052  1.0917 -1.7479 -1.7450
  494SOL     OW 1480   0.598   1.364   0.467  0.0794 -0.0530 -0.0345
  494SOL    HW1 1481   0.572   1.451   0.517  0.5836 -2.1184 -0.5465
  494SOL    HW2 1482   0.602   1.291   0.536 -0.3096  0.7052 -0.0573
  495SOL     OW 1483   2.719   2.699   0.681  0.5880 -0.2547  0.5239
  495SOL    HW1 1484   2.776   2.705   0.764  0.4621  0.2264 -1.4979
  495SOL    HW2 1485   2.734   2.612   0.634 -1.4896  1.3835  2.4831
  496SOL     OW 1486   2.614   0.143   1.602 -0.5773  0.3461  0.5403
  496SOL    HW1 1487   2.643   0.077   1.531 -0.6403  0.6609  1.1383
  496SOL    HW2 1488   2.548   0.102   1.671  0.2334 -3.4226 -1.1954
  497SOL     OW 1489   2.314   1.257   2.537  0.9444 -0.3567  0.0621
  497SOL    HW1 1490   2.356   1.284   2.627 -0.3626  2.3564 -0.6638
  497SOL    HW2 1491   2.215   1.285   2.540 -2.7662 -0.4761 -1.1543
  498SOL     OW 1492   0.525   2.107   0.972 -0.4882  0.3668  0.7334
  498SOL    HW1 1493   0.527   2.080   0.874 -0.4185 -0.5337  0.5442
  498SOL    HW2 1494   0.494   2.028   1.031 -0.4484  1.4759 -0.1024
  499SOL     OW 1495   0.813   2.234   1.646  0.5742  0.2313  0.4260
  499SOL    HW1 1496   0.743   2.308   1.664 -1.8330 -0.2405 -1.3201
  499SOL    HW2 1497   0.808   2.216   1.547 -1.1778  1.4727  1.4850
  500SOL     OW 1498   1.135   2.140   0.277  0.3145 -0.2344  0.1950
  500SOL    HW1 1499   1.083   2.056   0.301 -1.9393  2.0718  0.7308
  500SOL    HW2 1500   1.230   2.139   0.318  5.7373 -0.2002 -0.8440
  501SOL     OW 1501   2.354   2.951   1.330  0.3962  0.4447 -0.7426
  501SOL    HW1 1502   2.293   3.020   1.378 -0.5865  0.3876  2.5546
  501SOL    HW2 1503   2.336   2.943   1.230 -0.8937 -1.4321 -1.9317
  502SOL     OW 1504   2.891   0.313   1.602  1.3222  0.1662 -0.5070
  502SOL    HW1 1505   2.958   0.260   1.659  2.6327  1.6820  0.1048
  502SOL    HW2 1506   2.792   0.288   1.626 -4.4682 -2.6478  1.6527
  503SOL     OW 1507   2.683   0.920   1.937  0.7913 -0.0312 -0.6802
  503SOL    HW1 1508   2.779   0.933   1.961 -0.3908  1.6660  1.0350
  503SOL    HW2 1509   2.624   0.960   2.010  0.2687  1.3797  2.1856
  504SOL     OW 1510   1.376   0.678   1.788  0.0491  0.0687 -0.0042
  504SOL    HW1 1511   1.466   0.693   1.751  0.4610 -0.0581  1.9077
  504SOL    HW2 1512   1.350   0.760   1.841  0.4574  0.3965 -2.0523
  505SOL     OW 1513   0.781   0.074   1.955 -0.4588  0.3950  0.3272
  505SOL    HW1 1514   0.808   3.080   1.979  1.2985 -1.0239  0.0789
  505SOL    HW2 1515   0.795   0.135   2.036 -2.0786  1.7800  0.3580
  506SOL     OW 1516   0.247   0.282   0.909  0.2898 -0.6535 -0.0895
  506SOL    HW1 1517   0.234   0.245   0.818  0.5013 -0.2507  2.3781
  506SOL    HW2 1518   0.282   0.210   0.973 -1.1965 -1.0898 -2.9269
  507SOL     OW 1519   2.130   0.493   0.098 -0.3424  0.2280 -0.3693
  507SOL    HW1 1520   2.157   0.551   0.181  1.1941  4.3414  1.1807
  507SOL    HW2 1521   2.058   0.428   0.130  0.0859  0.0696  0.2923
  508SOL     OW 1522   1.701   0.206   2.301  0.3647 -1.2183  0.0092
  508SOL    HW1 1523   1.788   0.261   2.275  2.1263 -0.4438  0.9479
  508SOL    HW2 1524   1.639   0.260   2.363 -0.8230 -1.8012  0.2102
  509SOL     OW 1525   0.929   1.365   1.924  0.8090 -0.4073 -0.1408
  509SOL    HW1 1526   1.034   1.373   1.913  2.6947  1.9037  0.6425
  509SOL    HW2 1527   0.906   1.301   2.000 -0.1213  0.3582  1.7428
  510SOL     OW 1528   2.738   1.107   0.813 -0.1296  0.0216  0.0371
  510SOL    HW1 1529   2.788   1.046   0.877 -0.3574  0.9698 -2.8275
  510SOL    HW2 1530   2.686   1.175   0.868 -2.2662 -3.1690  1.6245
  511SOL     OW 1531   1.874   2.081   1.310  0.7401 -0.3677  0.9293
  511SOL    HW1 1532   1.874   2.113   1.215 -1.7217  0.6981  1.5822
  511SOL    HW2 1533   1.780   2.068   1.344  2.0510  1.2879  0.8796
  512SOL     OW 1534   0.002   1.749   0.339  0.1081  0.1365 -0.0550
  512SOL    HW1 1535   0.023   1.649   0.331 -0.2207 -2.4462 -0.8664
  512SOL    HW2 1536   0.091   1.796   0.354  0.3865 -1.5863 -1.3187
  513SOL     OW 1537   2.950   2.346   0.271 -0.2265 -0.6799  0.5528
  513SOL    HW1 1538   2.920   2.288   0.197  0.5345  1.3971  3.9396
  513SOL    HW2 1539   2.892   2.426   0.293  0.9637  0.6437  2.4630
  514SOL     OW 1540   2.394   1.919   2.646  0.0006 -0.0912 -0.1756
  514SOL    HW1 1541   2.383   1.976   2.564  1.2560 -0.3739  0.3074
  514SOL    HW2 1542   2.332   1.950   2.717 -3.5830 -1.2661 -1.4890
  515SOL     OW 1543   2.019   1.463   0.520  0.4044  0.3695  0.0848
  515SOL    HW1 1544   2.051   1.507   0.438 -1.0786  0.1301 -0.0612
  515SOL    HW2 1545   2.094   1.428   0.580 -1.4886  2.0888 -1.2341
  516SOL     OW 1546   2.036   3.068   0.492  0.3173  0.0367 -0.0871
  516SOL    HW1 1547   2.010   0.061   0.465 -1.0026  2.8955 -1.2138
  516SOL    HW2 1548   2.099   3.068   0.573 -1.4613  0.1872  0.9974
  517SOL     OW 1549   0.834   2.092   2.946  0.4254 -0.2204  0.5054
  517SOL    HW1 1550   0.875   2.137   3.029  1.8586 -1.2249  1.7851
  517SOL    HW2 1551   0.759   2.145   2.900  1.5300 -0.3847 -0.6240
  518SOL     OW 1552   0.495   0.485   1.961  0.2917  0.0371 -0.4584
  518SOL    HW1 1553   0.588   0.448   1.960 -2.1916  0.5885  0.8376
  518SOL    HW2 1554   0.473   0.529   2.051 -0.5841 -0.3112  0.3615
  519SOL     OW 1555   3.084   1.114   0.101 -0.1501  0.3177  0.3313
  519SOL    HW1 1556   0.014   1.073   0.014  3.5606  0.9464  0.8895
  519SOL    HW2 1557   0.058   1.119   0.163 -2.1887  0.3044 -3.0676
  520SOL     OW 1558   2.604   1.755   1.658 -0.4812 -0.4723  0.1536
  520SOL    HW1 1559   2.639   1.778   1.754  1.6326 -1.3141  2.0261
  520SOL    HW2 1560   2.552   1.830   1.611 -1.4641  1.0290 -0.3285
  521SOL     OW 1561   0.418   2.587   2.283 -0.2232  0.0691 -0.8018
  521SOL    HW1 1562   0.422   2.486   2.262 -3.2292 -0.8890 -0.8193
  521SOL    HW2 1563   0.323   2.617   2.267  4.6130 -0.7135  0.1189
  522SOL     OW 1564   1.810   0.042   2.102 -0.1614  0.2080  0.2466
  522SOL    HW1 1565   1.905   0.003   2.102 -2.7222 -0.0470  0.3113
  522SOL    HW2 1566   1.778   0.070   2.197 -0.5433 -2.6278 -0.9455
  523SOL     OW 1567   1.976   1.887   1.499  0.1295  0.0048  0.2623
  523SOL    HW1 1568   2.075   1.919   1.514 -0.5919 -1.6150  0.2091
  523SOL    HW2 1569   1.940   1.952   1.422  1.9429  1.2577  0.6743
  524SOL     OW 1570   0.875   2.813   0.169  0.3887  0.2574 -0.2180
  524SOL    HW1 1571   0.814   2.867   0.234 -1.5521  2.0293  1.6063
  524SOL    HW2 1572   0.953   2.764   0.214 -0.2921 -3.1778  0.7443
  525SOL     OW 1573   2.901   0.409   0.268  0.0072  0.2526  0.2388
  525SOL    HW1 1574   2.826   0.469   0.239 -0.1111 -0.8439  0.0778
  525SOL    HW2 1575   2.992   0.456   0.263  3.1217 -0.1043 -0.7549
  526SOL     OW 1576   0.744   2.759   0.542  0.5117  0.1558 -0.2626
  526SOL    HW1 1577   0.802   2.733   0.621  0.9155 -1.3481 -0.0733
  526SOL    HW2 1578   0.644   2.745   0.561  1.6421  0.1531 -2.3799
  527SOL     OW 1579   2.520   1.922   0.958  0.3544 -1.0742  0.0522
  527SOL    HW1 1580   2.563   1.893   1.046  0.9845  2.3385 -0.8402
  527SOL    HW2 1581   2.537   2.024   0.948  0.3825  0.5194  1.7612
  528SOL     OW 1582   2.778   0.400   2.334 -0.4991  0.0652 -0.1831
  528SOL    HW1 1583   2.872   0.362   2.323 -1.1756 -0.6285 -0.9757
  528SOL    HW2 1584   2.712   0.339   2.287 -1.1217 -0.9215 -1.1007
  529SOL     OW 1585   1.177   1.605   2.618  0.1973  0.0866 -0.0806
  529SOL    HW1 1586   1.261   1.551   2.638 -1.5430  2.1224 -1.2573
  529SOL    HW2 1587   1.116   1.604   2.700 -0.8072  1.3953 -1.1324
  530SOL     OW 1588   1.910   1.095   2.685 -0.1983 -0.3150  0.3845
  530SOL    HW1 1589   1.849   1.050   2.612  1.1966  0.3951  0.5061
  530SOL    HW2 1590   1.954   1.022   2.740  1.1606 -3.2600  1.5483
  531SOL     OW 1591   0.842   1.874   2.596 -0.7143  0.5754  0.3512
  531SOL    HW1 1592   0.826   1.873   2.494  1.5947 -1.5469 -0.2075
  531SOL    HW2 1593   0.847   1.777   2.636  2.3905 -0.7943 -0.9464
  532SOL     OW 1594   1.822   1.487   0.703 -0.2144  0.2236  0.2218
  532SOL    HW1 1595   1.890   1.473   0.631 -0.6988 -0.7949  2.3461
  532SOL    HW2 1596   1.771   1.567   0.683  3.1416 -2.0134 -1.1059
  533SOL     OW 1597   0.198   0.117   1.937 -0.1449  0.1701 -0.0180
  533SOL    HW1 1598   0.247   0.055   1.866  1.2478 -1.2901 -0.6232
  533SOL    HW2 1599   0.132   0.070   1.998  2.0975 -1.0578  0.4003
  534SOL     OW 1600   0.737   2.774   2.858 -0.1068  0.0849  0.0181
  534SOL    HW1 1601   0.676   2.732   2.925 -0.1776  1.5738 -1.0993
  534SOL    HW2 1602   0.815   2.818   2.906 -0.8880 -0.0677 -1.3186
  535SOL     OW 1603   0.280   0.112   0.372 -0.3038  0.2056  0.3117
  535SOL    HW1 1604   0.382   0.139   0.383  0.5899  3.2680  2.4233
  535SOL    HW2 1605   0.259   0.037   0.439  1.2064  0.1663 -0.8243
  536SOL     OW 1606   0.174   1.412   1.776 -0.2256  0.6045 -0.3042
  536SOL    HW1 1607   0.177   1.312   1.752 -0.0918  1.6725 -1.7911
  536SOL    HW2 1608   0.138   1.465   1.696 -0.6649  0.2512 -1.4735
  537SOL     OW 1609   1.105   2.704   1.604  0.8281  0.0886  0.2379
  537SOL    HW1 1610   1.074   2.715   1.505  0.0513 -4.7185 -0.8157
  537SOL    HW2 1611   1.190   2.646   1.608  1.4145 -0.6574 -1.2242
  538SOL     OW 1612   2.959   1.983   0.314 -1.1595  0.9668  0.1605
  538SOL    HW1 1613   3.009   1.892   0.316 -0.2080 -2.0020 -1.6022
  538SOL    HW2 1614   2.980   2.025   0.408  2.5217 -0.1091  1.6664
  539SOL     OW 1615   2.914   1.086   2.611 -0.0029  0.0412  0.3463
  539SOL    HW1 1616   2.923   1.041   2.702  0.2700  1.5727 -2.6531
  539SOL    HW2 1617   2.816   1.077   2.580 -0.3577 -1.2803 -1.8894
  540SOL     OW 1618   1.529   0.867   2.052  0.3845 -0.9350  0.0797
  540SOL    HW1 1619   1.614   0.864   1.997 -1.3687 -0.2610 -0.9163
  540SOL    HW2 1620   1.451   0.893   1.989 -1.1842  0.1777 -2.9996
  541SOL     OW 1621   0.936   0.785   1.738  0.0357 -0.1865  0.5007
  541SOL    HW1 1622   0.837   0.758   1.741  1.7275 -1.2828  3.2625
  541SOL    HW2 1623   0.943   0.880   1.765  1.6770  1.1401  0.9635
  542SOL     OW 1624   2.311   0.381   2.838  0.4733  0.0025 -0.1704
  542SOL    HW1 1625   2.373   0.330   2.785 -0.4062  0.8619  1.4857
  542SOL    HW2 1626   2.235   0.404   2.778  0.8115 -1.8545  2.5826
  543SOL     OW 1627   1.011   0.052   3.022  1.1357  0.4131 -0.0489
  543SOL    HW1 1628   0.949   0.084   3.095 -0.9469 -1.1779 -3.3033
  543SOL    HW2 1629   1.109   0.068   3.038 -2.9212  0.0590  3.0649
  544SOL     OW 1630   2.929   1.396   2.060  0.2541  0.8997  0.0867
  544SOL    HW1 1631   2.939   1.334   2.139  2.1776 -1.7938 -1.7945
  544SOL    HW2 1632   2.876   1.348   1.983 -2.7269 -0.3099  0.7275
  545SOL     OW 1633   1.964   2.274   1.757  0.9970 -0.2738  0.2151
  545SOL    HW1 1634   1.869   2.248   1.781  0.0949  0.7313 -0.3179
  545SOL    HW2 1635   1.971   2.265   1.657  0.8870 -1.9979  3.2083
  546SOL     OW 1636   0.116   0.047   2.659  0.1724  0.0376 -0.4581
  546SOL    HW1 1637   0.069   3.065   2.681  1.3474  0.9534  1.3036
  546SOL    HW2 1638   0.213   0.042   2.683 -1.9677 -0.5782 -1.6957
  547SOL     OW 1639   1.732   1.122   0.925 -0.5668 -0.2447  0.1993
  547SOL    HW1 1640   1.644   1.175   0.931  1.5316  0.5910  1.6257
  547SOL    HW2 1641   1.709   1.021   0.933 -2.6985 -1.4144 -0.2024
  548SOL     OW 1642   1.706   1.723   2.326  0.0532  0.0491 -0.3916
  548SOL    HW1 1643   1.631   1.718   2.258  1.7370  0.5140 -1.7624
  548SOL    HW2 1644   1.785   1.769   2.290 -1.5853 -1.0718  0.6003
  549SOL     OW 1645   1.909   0.461   0.581  0.1675 -0.1224 -0.2749
  549SOL    HW1 1646   1.817   0.468   0.533 -2.4343 -1.3741 -1.9350
  549SOL    HW2 1647   1.907   0.478   0.680 -0.7115 -1.2069  1.1004
  550SOL     OW 1648   2.099   1.856   0.757  0.6664  0.4229  0.4729
  550SOL    HW1 1649   2.172   1.830   0.694 -1.4684  0.5549  1.3780
  550SOL    HW2 1650   2.022   1.907   0.713 -0.8190 -0.4547  1.8534
  551SOL     OW 1651   0.834   2.697   1.577 -0.0851 -0.1736  0.0480
  551SOL    HW1 1652   0.935   2.673   1.585  0.3407 -0.7580 -1.6322
  551SOL    HW2 1653   0.819   2.797   1.601 -2.6465  2.7414  0.4093
  552SOL     OW 1654   0.100   2.217   2.582 -0.0653  0.3348 -0.1359
  552SOL    HW1 1655   0.043   2.140   2.618 -1.3878  0.3642  0.4397
  552SOL    HW2 1656   0.131   2.196   2.483 -5.2359  3.8147 -0.3123
  553SOL     OW 1657   0.359   0.041   0.986 -0.1982 -0.2945 -0.0691
  553SOL    HW1 1658   0.455   0.020   0.954  1.5940 -2.7426 -0.2078
  553SOL    HW2 1659   0.345   0.003   1.081 -3.0022  1.5901  0.7127
  554SOL     OW 1660   2.496   2.110   1.773  0.9409  0.3460  0.1265
  554SOL    HW1 1661   2.592   2.120   1.802  0.3218 -1.6591 -0.0992
  554SOL    HW2 1662   2.450   2.204   1.779 -1.3968  0.0278 -0.7318
  555SOL     OW 1663   1.266   2.106   1.941  0.6456 -0.2701 -0.2036
  555SOL    HW1 1664   1.332   2.067   1.878 -2.7130  1.8435 -1.7394
  555SOL    HW2 1665   1.183   2.143   1.900  1.8820  0.2152 -0.8982
  556SOL     OW 1666   1.184   1.856   1.729 -0.3827  0.4068  0.0244
  556SOL    HW1 1667   1.268   1.913   1.721  0.2613 -0.9978  1.9185
  556SOL    HW2 1668   1.127   1.872   1.813  1.5870 -1.0014  1.9878
  557SOL     OW 1669   1.834   2.168   2.202 -0.5455  0.5488 -0.7737
  557SOL    HW1 1670   1.932   2.192   2.213 -1.1071 -1.5865 -0.3455
  557SOL    HW2 1671   1.799   2.124   2.291  1.5366 -0.3156 -0.1571
  558SOL     OW 1672   0.729   2.953   1.671  0.1793  0.5240  0.4741
  558SOL    HW1 1673   0.682   2.909   1.749  0.9196  1.4925 -0.4365
  558SOL    HW2 1674   0.675   3.038   1.649  0.5512  2.5278 -2.1444
  559SOL     OW 1675   2.376   2.824   0.842 -0.2795  0.4303 -0.0751
  559SOL    HW1 1676   2.389   2.840   0.743 -2.0575  1.1514 -1.6845
  559SOL    HW2 1677   2.284   2.786   0.865 -0.2756  1.8111  1.6232
  560SOL     OW 1678   1.804   2.362   0.422  0.2922  0.9176 -0.3924
  560SOL    HW1 1679   1.842   2.397   0.511  2.3111 -0.5166 -0.0613
  560SOL    HW2 1680   1.884   2.321   0.365  2.9691 -0.8140 -4.0262
  561SOL     OW 1681   0.866   0.386   0.287  0.0865 -0.0484 -0.2470
  561SOL    HW1 1682   0.962   0.399   0.333  0.6150 -0.7313  3.3491
  561SOL    HW2 1683   0.790   0.407   0.354 -1.1237 -1.2421 -0.9920
  562SOL     OW 1684   0.571   0.459   2.411 -0.0394  0.1696 -0.4160
  562SOL    HW1 1685   0.569   0.392   2.334 -0.9392  0.9168 -0.3866
  562SOL    HW2 1686   0.637   0.425   2.484  0.1755  0.3341  1.5126
  563SOL     OW 1687   1.804   1.659   2.862 -0.0355  0.5143 -0.6978
  563SOL    HW1 1688   1.763   1.741   2.815  0.5577  0.2642 -0.9952
  563SOL    HW2 1689   1.806   1.681   2.961 -0.0860  1.2122  2.4457
  564SOL     OW 1690   2.375   1.156   1.249 -0.0671 -0.2283  0.3306
  564SOL    HW1 1691   2.387   1.238   1.315  1.0085  3.3035  1.5927
  564SOL    HW2 1692   2.465   1.127   1.216  1.6494  0.6510 -2.5875
  565SOL     OW 1693   0.900   0.557   2.840 -0.1636  0.5239 -0.0079
  565SOL    HW1 1694   0.816   0.575   2.791  0.0501 -0.5393  1.1440
  565SOL    HW2 1695   0.889   0.537   2.939  0.2989  0.8551 -0.9410
  566SOL     OW 1696   1.943   0.256   2.800  0.0509  0.2858  0.0273
  566SOL    HW1 1697   1.910   0.185   2.729 -1.0846  1.2140 -2.9801
  566SOL    HW2 1698   2.009   0.217   2.871  0.0977  2.8349 -2.3970
  567SOL     OW 1699   2.051   1.872   0.420 -0.5361  0.5144 -0.2480
  567SOL    HW1 1700   2.126   1.811   0.461  1.3423  1.2894  0.9071
  567SOL    HW2 1701   1.976   1.823   0.367 -4.4407 -1.4299  1.7264
  568SOL     OW 1702   1.676   1.904   0.181  0.1817 -0.2202  0.0459
  568SOL    HW1 1703   1.727   1.913   0.091 -2.0606  0.2254  2.5736
  568SOL    HW2 1704   1.580   1.917   0.161 -0.6026 -0.4668  0.1676
  569SOL     OW 1705   2.281   1.100   0.008  0.4146 -0.0477 -0.2235
  569SOL    HW1 1706   2.266   1.174   3.048 -0.0572 -2.2711 -0.0251
  569SOL    HW2 1707   2.381   1.085   0.005 -0.0316  1.0159  1.1190
  570SOL     OW 1708   0.352   2.676   1.647 -0.3423 -0.3288 -0.1710
  570SOL    HW1 1709   0.400   2.735   1.717 -1.1202 -1.0388 -0.0113
  570SOL    HW2 1710   0.429   2.652   1.577  2.2849  0.2109 -0.6172
  571SOL     OW 1711   0.583   0.904   1.935 -0.4628 -0.1875 -0.2608
  571SOL    HW1 1712   0.556   0.993   1.978  0.3129  2.1889 -0.1916
  571SOL    HW2 1713   0.622   0.849   2.011 -2.8754 -2.8967 -0.6312
  572SOL     OW 1714   0.902   1.598   0.593  0.1313  1.0504  0.1821
  572SOL    HW1 1715   0.878   1.531   0.515  2.1275 -1.2249 -0.7368
  572SOL    HW2 1716   0.997   1.639   0.588  2.2774 -0.6291 -0.0474
  573SOL     OW 1717   1.558   2.023   2.924  0.0761  0.5019  0.3944
  573SOL    HW1 1718   1.466   2.047   2.959 -0.0509  1.7839  2.0236
  573SOL    HW2 1719   1.637   2.026   2.992  1.5820  3.6460  1.3741
  574SOL     OW 1720   0.955   0.343   1.041  0.5159  0.4649 -0.3419
  574SOL    HW1 1721   0.882   0.342   1.111  1.6663 -1.8074  0.1286
  574SOL    HW2 1722   0.916   0.339   0.946  0.6540  2.8802 -0.5909
  575SOL     OW 1723   0.165   1.083   1.427  0.3718 -0.3639  0.0636
  575SOL    HW1 1724   0.189   1.082   1.527 -0.4635 -0.0711 -0.0438
  575SOL    HW2 1725   0.247   1.110   1.370 -1.9144 -2.6486  0.4394
  576SOL     OW 1726   2.048   2.821   1.339 -0.1221 -0.0141  0.1427
  576SOL    HW1 1727   2.108   2.882   1.396 -2.1915 -1.6188 -0.4754
  576SOL    HW2 1728   2.038   2.849   1.241  4.0533 -0.7844  1.1511
  577SOL     OW 1729   1.068   1.062   2.084 -0.2916 -0.2963  0.6228
  577SOL    HW1 1730   1.160   1.102   2.100  3.6264  1.1040 -0.3633
  577SOL    HW2 1731   1.031   1.019   2.172  1.5448 -0.7555 -0.7676
  578SOL     OW 1732   1.801   0.650   2.625  0.5981  0.5096 -0.4341
  578SOL    HW1 1733   1.775   0.629   2.531 -3.5595  0.9718  2.5763
  578SOL    HW2 1734   1.733   0.717   2.666 -0.5416  0.1109 -0.3050
  579SOL     OW 1735   2.053   2.622   1.565 -0.0045 -0.4811  0.0659
  579SOL    HW1 1736   2.073   2.520   1.552  0.0843  0.5203 -1.1713
  579SOL    HW2 1737   2.066   2.677   1.477  2.0494  1.3094  0.7305
  580SOL     OW 1738   1.893   1.511   2.447  0.2695 -0.8754  0.3115
  580SOL    HW1 1739   1.983   1.557   2.426  0.2534  2.2573 -1.2044
  580SOL    HW2 1740   1.813   1.568   2.423 -2.2670 -2.6105  0.4588
  581SOL     OW 1741   1.380   1.415   2.660  0.3638 -0.3808  0.3599
  581SOL    HW1 1742   1.479   1.440   2.680  0.2067 -0.8083 -3.6818
  581SOL    HW2 1743   1.347   1.354   2.736 -2.0781 -0.4557 -1.4719
  582SOL     OW 1744   0.841   1.643   1.829 -0.2062 -0.3334  0.3977
  582SOL    HW1 1745   0.914   1.572   1.844 -0.8915 -1.2423 -0.7409
  582SOL    HW2 1746   0.865   1.713   1.756  2.3314 -0.3774 -2.0402
  583SOL     OW 1747   1.852   1.105   1.656  0.3101  0.2083  0.1461
  583SOL    HW1 1748   1.768   1.072   1.608  0.5355  0.4182 -0.2925
  583SOL    HW2 1749   1.839   1.103   1.759 -0.1724 -0.2229  2.8740
  584SOL     OW 1750   2.124   2.716   0.402 -0.0662 -0.0991 -0.4896
  584SOL    HW1 1751   2.028   2.712   0.363  1.0959 -1.2524  0.4012
  584SOL    HW2 1752   2.180   2.636   0.365 -0.3629 -0.3476 -2.2028
  585SOL     OW 1753   2.111   2.876   2.704  0.2360 -0.0762 -0.5958
  585SOL    HW1 1754   2.030   2.890   2.650 -0.4670  1.4019  1.3826
  585SOL    HW2 1755   2.133   2.778   2.715  2.6106  0.2802 -2.5887
  586SOL     OW 1756   2.790   2.412   1.295  0.1078  0.3482  0.3578
  586SOL    HW1 1757   2.706   2.371   1.337  1.1360  2.5582 -0.1585
  586SOL    HW2 1758   2.825   2.351   1.220 -3.2627 -2.5690 -2.3792
  587SOL     OW 1759   1.373   1.933   0.190  0.2362 -0.4370  0.3627
  587SOL    HW1 1760   1.377   2.026   0.145 -0.3450  1.8336  2.6451
  587SOL    HW2 1761   1.309   1.866   0.142  3.4314  2.1010 -1.4275
  588SOL     OW 1762   0.421   0.469   1.036 -0.0543 -0.0515 -0.0531
  588SOL    HW1 1763   0.477   0.406   1.097  1.7070 -1.6875  2.0574
  588SOL    HW2 1764   0.358   0.411   0.986  1.5237  0.3431  1.1056
  589SOL     OW 1765   1.111   0.336   0.424 -0.5189 -0.0846  0.3621
  589SOL    HW1 1766   1.208   0.355   0.457  1.0816  0.3844  1.1985
  589SOL    HW2 1767   1.114   0.253   0.368 -0.8622 -1.2836  1.6382
  590SOL     OW 1768   1.491   0.410   2.877 -0.0271  0.0690  0.5642
  590SOL    HW1 1769   1.417   0.471   2.842  1.8916 -1.8586  2.2367
  590SOL    HW2 1770   1.584   0.432   2.835 -1.2462  1.4367 -2.9863
  591SOL     OW 1771   2.904   2.020   2.252 -0.1081 -0.0987  0.0170
  591SOL    HW1 1772   2.885   2.110   2.302 -0.4735 -0.3210 -0.7757
  591SOL    HW2 1773   2.982   2.028   2.184 -1.5721  0.7481 -3.0718
  592SOL     OW 1774   2.165   1.559   2.169 -0.3868  0.0987 -0.0189
  592SOL    HW1 1775   2.155   1.458   2.155  4.4871 -3.1097  1.0564
  592SOL    HW2 1776   2.206   1.606   2.087  0.4383 -3.2651  1.1428
  593SOL     OW 1777   1.436   1.202   1.707 -0.0374 -0.3995  0.1357
  593SOL    HW1 1778   1.490   1.128   1.658 -2.4552  1.6489 -0.9183
  593SOL    HW2 1779   1.408   1.177   1.801  1.1474  0.6891 -1.5350
  594SOL     OW 1780   2.746   1.133   2.966  0.4863 -0.0978 -0.1375
  594SOL    HW1 1781   2.798   1.198   3.024  0.2770 -1.0759  1.6316
  594SOL    HW2 1782   2.809   1.092   2.898 -2.1498  0.1455  5.2023
  595SOL     OW 1783   0.508   0.600   0.637 -0.6866 -0.3947 -0.4760
  595SOL    HW1 1784   0.492   0.697   0.610 -0.2194  0.0486 -2.1226
  595SOL    HW2 1785   0.562   0.582   0.723  1.1772 -3.0614  1.4470
  596SOL     OW 1786   3.053   1.201   1.286 -0.9212 -0.1193 -0.0129
  596SOL    HW1 1787   2.985   1.268   1.311  5.2750 -2.6097 -1.0381
  596SOL    HW2 1788   0.020   1.194   1.356  0.3901 -2.1285 -0.3458
  597SOL     OW 1789   1.179   1.950   1.033  0.1851  0.3909 -0.3021
  597SOL    HW1 1790   1.235   1.868   1.060 -0.5441  1.2485 -0.0012
  597SOL    HW2 1791   1.148   2.003   1.117 -0.2135  2.6744  2.8967
  598SOL     OW 1792   0.360   3.062   1.747 -0.2127 -0.1290 -0.4360
  598SOL    HW1 1793   0.446   0.009   1.728 -0.8878 -4.0136  1.5279
  598SOL    HW2 1794   0.297   3.043   1.666 -4.4195 -3.8674 -1.2807
  599SOL     OW 1795   0.306   1.667   2.909 -0.1422  0.1567 -0.1834
  599SOL    HW1 1796   0.302   1.585   2.846  1.1083 -1.9693 -4.6274
  599SOL    HW2 1797   0.394   1.720   2.888 -0.7177  0.0571  0.6372
  600SOL     OW 1798   0.436   1.037   3.045  0.2490 -0.7332  0.0455
  600SOL    HW1 1799   0.406   1.099   2.971 -0.8245  2.9121 -2.0569
  600SOL    HW2 1800   0.391   0.944   3.043 -3.2388 -0.6213 -2.5345
  601SOL     OW 1801   0.456   0.933   1.150  0.2559 -0.0549 -0.2382
  601SOL    HW1 1802   0.558   0.919   1.127 -3.4370 -1.1841  3.2960
  601SOL    HW2 1803   0.393   0.869   1.100  0.9142 -0.6088  0.7153
  602SOL     OW 1804   0.875   0.127   0.157  0.0838  0.0048 -0.1509
  602SOL    HW1 1805   0.824   0.209   0.186  0.5550 -0.0143 -0.5356
  602SOL    HW2 1806   0.836   0.047   0.200 -1.7777  2.3206  0.5370
  603SOL     OW 1807   1.510   2.375   2.212 -0.3484  0.4157 -0.1823
  603SOL    HW1 1808   1.589   2.394   2.152 -0.2357  0.2271 -1.3306
  603SOL    HW2 1809   1.533   2.316   2.293  0.1699  0.9048  0.8352
  604SOL     OW 1810   0.476   2.877   2.759 -0.5545  0.1597 -0.0970
  604SOL    HW1 1811   0.438   2.836   2.676 -0.5338 -1.4262 -1.6281
  604SOL    HW2 1812   0.553   2.829   2.803  0.0744 -2.6084  0.0083
  605SOL     OW 1813   2.410   1.345   1.429 -0.3447  0.1725  0.0592
  605SOL    HW1 1814   2.474   1.420   1.401 -0.8264  1.7737 -1.5378
  605SOL    HW2 1815   2.417   1.328   1.528  0.6057  1.0074 -0.9719
  606SOL     OW 1816   1.004   1.539   2.837  0.0814  0.0367 -0.2446
  606SOL    HW1 1817   1.002   1.450   2.886  2.9593  1.8523 -1.4115
  606SOL    HW2 1818   0.918   1.568   2.783 -1.2301  1.9281 -1.5268
  607SOL     OW 1819   0.735   0.424   0.527  0.1821  0.0015  0.5188
  607SOL    HW1 1820   0.643   0.470   0.540 -1.5166 -1.3379 -1.5685
  607SOL    HW2 1821   0.751   0.362   0.601  1.3050  0.0699 -4.0043
  608SOL     OW 1822   2.754   1.604   1.478  0.1740 -0.2127 -0.4362
  608SOL    HW1 1823   2.702   1.655   1.543 -0.0174 -2.4154 -4.2882
  608SOL    HW2 1824   2.693   1.558   1.412  1.1326 -0.1125  1.6345
  609SOL     OW 1825   2.354   0.602   0.806  0.0590 -0.0048 -0.1620
  609SOL    HW1 1826   2.389   0.542   0.878 -2.3114 -0.3792 -1.1101
  609SOL    HW2 1827   2.431   0.652   0.753 -0.1276 -0.5013 -0.5306
  610SOL     OW 1828   0.254   2.600   1.400  0.2693 -0.2724 -0.2187
  610SOL    HW1 1829   0.279   2.630   1.497  1.2485  0.9456  1.9149
  610SOL    HW2 1830   0.340   2.571   1.348  1.2396 -1.2865  0.3599
  611SOL     OW 1831   1.648   1.548   0.303 -0.1472 -0.0655  0.2143
  611SOL    HW1 1832   1.633   1.447   0.302 -2.5791 -0.8696  1.7654
  611SOL    HW2 1833   1.660   1.581   0.401 -0.1104 -1.2287  2.2755
  612SOL     OW 1834   0.609   0.098   1.695  0.1983  0.1231 -0.1903
  612SOL    HW1 1835   0.664   0.090   1.787  1.8257 -1.2812  0.6582
  612SOL    HW2 1836   0.597   0.191   1.649 -0.7154  0.4707 -0.8374
  613SOL     OW 1837   0.625   2.379   0.526 -0.1250 -0.5295 -0.0485
  613SOL    HW1 1838   0.634   2.460   0.466 -1.1535  1.6312  2.5237
  613SOL    HW2 1839   0.533   2.382   0.576 -0.7371  0.7309  1.3357
  614SOL     OW 1840   2.068   3.028   2.108 -0.0615  0.2840  0.0906
  614SOL    HW1 1841   2.088   0.007   2.162 -0.4765  0.0410 -1.3633
  614SOL    HW2 1842   2.144   3.002   2.046  0.3533 -2.1955  1.9422
  615SOL     OW 1843   1.132   1.708   0.541  0.1566 -0.1642 -0.4144
  615SOL    HW1 1844   1.164   1.649   0.461 -1.2653  2.9830 -0.7841
  615SOL    HW2 1845   1.199   1.778   0.562 -1.3201 -2.0013 -3.3740
  616SOL     OW 1846   1.660   1.653   0.574 -0.4189  0.0995 -0.4753
  616SOL    HW1 1847   1.587   1.585   0.559  0.5931 -0.3513 -0.6303
  616SOL    HW2 1848   1.627   1.740   0.616 -2.5407  1.2997  1.2791
  617SOL     OW 1849   1.327   1.257   2.886  0.5355 -0.7695 -0.0609
  617SOL    HW1 1850   1.413   1.206   2.864  4.7943 -0.5849 -2.2488
  617SOL    HW2 1851   1.333   1.287   2.986  1.2184 -2.1898  2.2963
  618SOL     OW 1852   0.769   0.420   1.982 -0.2286  0.5934  0.6375
  618SOL    HW1 1853   0.831   0.500   1.983  1.9946  0.5732 -0.2145
  618SOL    HW2 1854   0.768   0.372   2.070  0.0282  0.1011  0.7551
  619SOL     OW 1855   2.916   1.405   1.440 -0.6456 -0.5470 -0.1069
  619SOL    HW1 1856   2.858   1.484   1.465  0.5522 -2.2513 -0.7174
  619SOL    HW2 1857   3.002   1.441   1.398 -2.6573 -0.3636 -0.0259
  620SOL     OW 1858   2.539   0.187   2.470  0.6979 -0.1321  0.4258
  620SOL    HW1 1859   2.589   0.246   2.535 -2.8021 -1.1204 -1.1599
  620SOL    HW2 1860   2.586   0.182   2.377 -1.1172 -1.3283  1.8996
  621SOL     OW 1861   2.175   2.063   2.815  0.4127 -0.1644 -0.1527
  621SOL    HW1 1862   2.173   2.150   2.874 -0.3531 -0.2275  1.9461
  621SOL    HW2 1863   2.088   2.054   2.756 -2.0304  1.1365  1.2288
  622SOL     OW 1864   1.131   0.711   2.866 -0.9414 -0.1324  0.0194
  622SOL    HW1 1865   1.054   0.648   2.871  0.7177 -0.2574  1.4973
  622SOL    HW2 1866   1.098   0.804   2.849  0.4662 -1.6213 -0.4715
  623SOL     OW 1867   0.783   1.208   2.120 -0.1176  0.7646  0.0098
  623SOL    HW1 1868   0.845   1.132   2.152  1.5791 -0.7955 -2.3490
  623SOL    HW2 1869   0.686   1.176   2.098  1.8946  0.2814 -1.5828
  624SOL     OW 1870   2.840   0.210   0.449  0.5822 -0.4218 -0.2586
  624SOL    HW1 1871   2.863   0.288   0.387 -2.6751  0.2999 -0.6156
  624SOL    HW2 1872   2.885   0.220   0.541  1.5893 -0.3559  0.2981
  625SOL     OW 1873   1.004   2.369   0.578  0.0157  0.4216  0.1195
  625SOL    HW1 1874   0.974   2.412   0.489  0.9173 -3.4614  2.9637
  625SOL    HW2 1875   0.923   2.322   0.617  1.1903  2.6619 -3.3071
  626SOL     OW 1876   2.265   0.950   2.488 -0.0899 -1.1505 -0.4373
  626SOL    HW1 1877   2.331   0.895   2.536 -2.0030 -0.2136 -2.3181
  626SOL    HW2 1878   2.301   1.047   2.465  1.8340  0.2641 -2.1556
  627SOL     OW 1879   1.336   2.125   2.693 -0.2245  0.2154 -0.6765
  627SOL    HW1 1880   1.269   2.144   2.618  0.1123  0.9794  2.5817
  627SOL    HW2 1881   1.353   2.022   2.703  1.7311 -2.4036  0.2976
  628SOL     OW 1882   2.875   2.785   2.470  0.4202 -0.0574 -0.2651
  628SOL    HW1 1883   2.778   2.766   2.458 -0.5787 -1.9254 -0.1249
  628SOL    HW2 1884   2.890   2.825   2.560  0.0327 -0.9821  0.6482
  629SOL     OW 1885   1.368   2.621   2.513 -0.6832  0.3536 -0.1206
  629SOL    HW1 1886   1.383   2.653   2.416 -0.2688 -1.6254  0.6856
  629SOL    HW2 1887   1.454   2.577   2.551  0.9288 -2.4710  1.6134
  630SOL     OW 1888   0.895   0.166   2.449  0.0591 -0.7310 -0.6355
  630SOL    HW1 1889   0.830   0.220   2.506  0.3855 -2.3525 -0.1153
  630SOL    HW2 1890   0.969   0.124   2.500 -0.5694 -2.2745  1.4548
  631SOL     OW 1891   1.973   1.121   0.604 -0.4904  0.8040  0.2655
  631SOL    HW1 1892   1.934   1.203   0.652 -0.8446  2.4057 -1.2844
  631SOL    HW2 1893   1.980   1.138   0.508  0.6026  0.3038 -0.0170
  632SOL     OW 1894   2.462   0.069   1.820  0.3643 -0.2986 -0.1326
  632SOL    HW1 1895   2.387   0.131   1.858 -0.0056  0.4068 -0.4385
  632SOL    HW2 1896   2.548   0.080   1.873 -0.0833  1.8024 -2.6706
  633SOL     OW 1897   1.218   1.548   0.330 -0.2377  0.6445 -0.1342
  633SOL    HW1 1898   1.301   1.564   0.274  0.9892 -1.6900 -3.2740
  633SOL    HW2 1899   1.132   1.564   0.280 -0.5334 -2.6432  0.5906
  634SOL     OW 1900   2.654   2.718   1.814 -0.3330  0.1410 -0.2248
  634SOL    HW1 1901   2.681   2.808   1.771 -1.5294  1.3853  1.5609
  634SOL    HW2 1902   2.635   2.651   1.742  2.2099  2.2499  0.7269
  635SOL     OW 1903   1.704   0.489   0.434 -0.0465 -0.2866 -0.4184
  635SOL    HW1 1904   1.608   0.477   0.456  0.6272 -0.6634 -1.0045
  635SOL    HW2 1905   1.729   0.591   0.427 -2.2786 -1.2796  1.3180
  636SOL     OW 1906   0.595   1.258   0.024  0.5590  0.1571 -0.2991
  636SOL    HW1 1907   0.533   1.188   3.085  2.0636  3.2084 -1.1583
  636SOL    HW2 1908   0.580   1.344   3.077 -0.8208 -0.7649  0.9267
  637SOL     OW 1909   2.783   2.122   0.165 -0.0484 -0.5567  0.4698
  637SOL    HW1 1910   2.835   2.053   0.224  0.3407 -1.0687  0.5602
  637SOL    HW2 1911   2.827   2.123   0.071  1.4036  1.0880 -3.9713
  638SOL     OW 1912   1.153   2.494   2.640  0.3646  0.0550 -0.0111
  638SOL    HW1 1913   1.237   2.535   2.603 -1.1922  1.4364  1.1834
  638SOL    HW2 1914   1.155   2.466   2.736 -0.0219  1.9999 -1.1439
  639SOL     OW 1915   1.664   1.758   0.992  0.2178  0.3503 -0.1593
  639SOL    HW1 1916   1.602   1.812   1.053  3.1507 -0.8729 -1.7619
  639SOL    HW2 1917   1.648   1.777   0.892 -1.3172 -1.0611 -0.0301
  640SOL     OW 1918   2.187   2.984   0.275  0.0591  0.3725  0.1322
  640SOL    HW1 1919   2.143   2.992   0.366  3.6679  1.1048 -1.5005
  640SOL    HW2 1920   2.204   3.076   0.236 -1.3251  0.5013 -1.0166
  641SOL     OW 1921   2.775   0.510   3.006  0.3106  0.2672  0.8036
  641SOL    HW1 1922   2.761   0.544   0.001 -0.4139  0.1192  2.5033
  641SOL    HW2 1923   2.726   0.418   2.999  0.7251 -2.0491  1.3753
  642SOL     OW 1924   0.299   0.735   1.083  0.0187 -0.2629  0.1250
  642SOL    HW1 1925   0.253   0.706   1.170  1.7841 -3.4304 -1.0129
  642SOL    HW2 1926   0.350   0.655   1.041 -2.0112  1.8173  1.1442
  643SOL     OW 1927   0.688   1.584   2.412 -0.3431  0.9501  0.0870
  643SOL    HW1 1928   0.700   1.527   2.497 -0.9645 -0.5604 -0.6316
  643SOL    HW2 1929   0.595   1.610   2.386  0.1927  0.1157  0.5589
  644SOL     OW 1930   2.086   2.211   0.776  0.1223  0.0022  0.2942
  644SOL    HW1 1931   2.050   2.141   0.707  0.2017 -0.8229 -2.9661
  644SOL    HW2 1932   2.069   2.185   0.875 -0.0338  1.5251  2.9739
  645SOL     OW 1933   1.504   2.125   0.827  0.6505  0.5721  0.4643
  645SOL    HW1 1934   1.529   2.151   0.921 -1.1291  0.9414 -0.8730
  645SOL    HW2 1935   1.405   2.151   0.816  0.4947  2.5460 -1.1870
  646SOL     OW 1936   0.245   2.122   2.897 -1.0444  0.1497  0.0300
  646SOL    HW1 1937   0.260   2.219   2.861  1.8533  2.4641 -0.4196
  646SOL    HW2 1938   0.147   2.099   2.879  1.3610  0.3240 -1.6121
  647SOL     OW 1939   1.227   0.044   1.407 -0.2067  0.0883 -0.2369
  647SOL    HW1 1940   1.150   0.099   1.369 -0.7125 -0.4970  1.5724
  647SOL    HW2 1941   1.302   0.034   1.339  1.0628 -0.9999 -0.3324
  648SOL     OW 1942   1.215   0.276   0.927 -0.0904  0.0086  0.2018
  648SOL    HW1 1943   1.128   0.277   0.978  0.2964  1.1396 -1.4333
  648SOL    HW2 1944   1.262   0.363   0.948  0.2295 -1.4112  0.1661
  649SOL     OW 1945   1.358   2.047   0.428  0.2079  0.0088 -0.1235
  649SOL    HW1 1946   1.362   1.988   0.344 -0.6908 -1.0229 -2.2437
  649SOL    HW2 1947   1.440   2.110   0.432  1.7079  2.4724 -1.5920
  650SOL     OW 1948   2.283   1.667   1.908  0.1844 -0.3802  0.3225
  650SOL    HW1 1949   2.298   1.751   1.850  0.1615 -2.3858 -0.1232
  650SOL    HW2 1950   2.199   1.610   1.876 -1.8581 -2.3870 -1.5202
  651SOL     OW 1951   1.647   2.794   3.009  0.4439 -0.1201  0.4813
  651SOL    HW1 1952   1.664   2.890   2.977  0.8392 -3.3525 -0.0891
  651SOL    HW2 1953   1.613   2.735   2.931  1.2735 -2.2646  2.4149
  652SOL     OW 1954   2.827   1.786   0.165 -0.5318  0.0426  0.4674
  652SOL    HW1 1955   2.757   1.766   0.232  3.4953  1.0007  0.4955
  652SOL    HW2 1956   2.886   1.861   0.203 -1.9632 -0.3701 -0.5928
  653SOL     OW 1957   2.964   3.072   1.105 -0.1451  0.4817  0.2533
  653SOL    HW1 1958   2.990   0.065   1.082  1.5102 -0.2161  1.4823
  653SOL    HW2 1959   2.862   3.057   1.078 -0.2314  1.1088  0.1484
  654SOL     OW 1960   2.802   2.938   1.690 -0.1530  0.1216  0.6774
  654SOL    HW1 1961   2.808   2.983   1.599  1.4640 -1.0675  0.5173
  654SOL    HW2 1962   2.889   2.954   1.743  1.6358  0.8062 -1.7118
  655SOL     OW 1963   0.401   2.393   0.662  0.0816  0.3633  0.0256
  655SOL    HW1 1964   0.438   2.456   0.733  0.5525 -1.3043  0.6490
  655SOL    HW2 1965   0.300   2.393   0.677  0.5066 -0.8336  0.3520
  656SOL     OW 1966   2.859   0.057   2.230 -0.1981  0.0340 -0.0564
  656SOL    HW1 1967   2.930   0.041   2.304 -1.2038  1.2333  2.2882
  656SOL    HW2 1968   2.805   3.073   2.221 -2.2464 -3.7860  0.4273
  657SOL     OW 1969   0.158   1.279   2.875  0.1201  0.1463 -0.7248
  657SOL    HW1 1970   0.114   1.285   2.784 -0.8630  0.3499 -3.6610
  657SOL    HW2 1971   0.136   1.359   2.937  0.2766  0.3097  1.4815
  658SOL     OW 1972   2.717   1.918   1.179 -0.0324  0.0177  0.0865
  658SOL    HW1 1973   2.800   1.973   1.202 -1.9871 -0.6496  0.4549
  658SOL    HW2 1974   2.654   1.903   1.257 -0.4670 -0.8634 -1.5340
  659SOL     OW 1975   1.561   2.844   0.158 -0.0137 -0.1151  0.0937
  659SOL    HW1 1976   1.547   2.942   0.193  0.6943  2.2663 -0.2564
  659SOL    HW2 1977   1.597   2.843   0.066  1.1384  0.6232  2.7177
  660SOL     OW 1978   1.594   1.294   0.184 -0.7075  0.2414  0.0008
  660SOL    HW1 1979   1.635   1.228   0.117 -0.3396  1.4004 -1.6039
  660SOL    HW2 1980   1.507   1.327   0.148 -2.6810  1.3982  0.1511
  661SOL     OW 1981   0.136   2.239   1.007  0.0573 -0.2685 -0.3008
  661SOL    HW1 1982   0.065   2.170   0.986  0.2698  2.5921  1.9685
  661SOL    HW2 1983   0.127   2.273   1.100  0.4368  2.4754 -1.7650
  662SOL     OW 1984   0.100   0.611   0.074  0.0372 -0.1966 -0.3060
  662SOL    HW1 1985   0.036   0.556   0.016  2.6282 -3.1991  2.5964
  662SOL    HW2 1986   0.182   0.559   0.106 -0.8571  1.1525  0.5991
  663SOL     OW 1987   2.119   1.575   1.172 -0.1789 -0.0766  0.2004
  663SOL    HW1 1988   2.106   1.541   1.078 -0.4404  0.6447  4.4678
  663SOL    HW2 1989   2.031   1.623   1.197 -3.3331 -0.9443 -0.0658
  664SOL     OW 1990   1.108   1.527   1.357 -0.2087  0.2294 -0.4538
  664SOL    HW1 1991   1.183   1.464   1.360 -1.1792 -0.7092  0.4088
  664SOL    HW2 1992   1.055   1.520   1.446  0.8315  1.2275 -0.3235
  665SOL     OW 1993   1.968   2.476   2.318  0.8136 -0.2930  0.3787
  665SOL    HW1 1994   1.901   2.540   2.278 -0.0651  1.0330 -0.3217
  665SOL    HW2 1995   1.958   2.451   2.418 -2.0788 -1.3554  2.5497
  666SOL     OW 1996   3.009   2.868   3.010 -0.4047 -0.6487 -0.6791
  666SOL    HW1 1997   3.031   2.821   2.922 -1.1603 -1.2833 -1.1009
  666SOL    HW2 1998   3.036   2.967   3.003 -1.0057 -0.5885  2.0606
  667SOL     OW 1999   2.457   1.027   2.081 -0.6229  0.0668 -0.0641
  667SOL    HW1 2000   2.392   0.981   2.020  1.3270 -2.1839  1.9944
  667SOL    HW2 2001   2.432   1.125   2.093 -1.3826 -0.0422  3.9391
  668SOL     OW 2002   0.421   0.895   2.452  0.7156  0.0632 -0.4838
  668SOL    HW1 2003   0.376   0.903   2.547 -0.4261  0.3323  1.8194
  668SOL    HW2 2004   0.368   0.827   2.396  2.1417 -2.2245  0.5057
  669SOL     OW 2005   2.290   2.117   2.469 -0.1243 -0.0742  0.2437
  669SOL    HW1 2006   2.305   2.136   2.368 -4.1267 -1.1359  0.2915
  669SOL    HW2 2007   2.270   2.199   2.521  1.0333 -0.2546 -0.4481
  670SOL     OW 2008   2.372   1.263   2.157  0.1978 -0.2578  0.2885
  670SOL    HW1 2009   2.398   1.348   2.107 -3.2855  1.1957 -2.0467
  670SOL    HW2 2010   2.272   1.270   2.176  1.6840 -0.4119 -1.2302
  671SOL     OW 2011   2.782   1.247   0.389 -0.0440  0.3765  0.0844
  671SOL    HW1 2012   2.871   1.205   0.361  1.0572  0.3835  2.2838
  671SOL    HW2 2013   2.789   1.324   0.461 -1.1769  0.2101  0.1093
  672SOL     OW 2014   2.300   0.575   2.195 -0.1473  0.2641  0.0020
  672SOL    HW1 2015   2.231   0.563   2.269  0.0679  1.4660 -0.3909
  672SOL    HW2 2016   2.349   0.663   2.198  1.9673  1.6898 -1.6908
  673SOL     OW 2017   2.672   0.053   1.989  0.2924 -0.6486  0.3247
  673SOL    HW1 2018   2.759   0.098   1.965 -1.8325  2.6157  0.2971
  673SOL    HW2 2019   2.682   3.088   2.062 -0.8864 -1.0111  1.5402
  674SOL     OW 2020   1.715   1.836   1.477  0.1178  0.4699  0.1169
  674SOL    HW1 2021   1.818   1.839   1.492 -1.2052 -0.6917  1.7903
  674SOL    HW2 2022   1.672   1.927   1.468 -0.5223  0.2294  0.3700
  675SOL     OW 2023   0.829   0.399   0.799 -0.2505  0.4768 -0.6608
  675SOL    HW1 2024   0.751   0.461   0.832 -0.8399  0.6534 -0.3310
  675SOL    HW2 2025   0.899   0.455   0.752  2.2495 -0.0397 -1.8172
  676SOL     OW 2026   1.663   0.863   0.917  0.1574 -0.2218 -0.0250
  676SOL    HW1 2027   1.562   0.880   0.889 -2.5785  3.1531 -1.0974
  676SOL    HW2 2028   1.675   0.767   0.945 -0.7205  0.8789 -0.9438
  677SOL     OW 2029   2.542   1.242   2.393 -0.3155  0.2178 -0.1861
  677SOL    HW1 2030   2.504   1.220   2.296 -1.1104 -3.1236 -0.7401
  677SOL    HW2 2031   2.469   1.281   2.454  0.1819  2.3651 -0.0656
  678SOL     OW 2032   2.848   1.760   1.009 -0.0996 -0.5072  0.5370
  678SOL    HW1 2033   2.847   1.664   1.046  1.5025 -0.8209 -2.3917
  678SOL    HW2 2034   2.798   1.824   1.072  0.5410 -1.9089 -0.9954
  679SOL     OW 2035   2.328   2.607   3.100 -0.3426  0.3972 -0.3278
  679SOL    HW1 2036   2.250   2.602   3.031 -1.1010  0.4060 -1.4259
  679SOL    HW2 2037   2.407   2.565   3.060 -1.2648  1.0074  0.9492
  680SOL     OW 2038   0.384   2.063   1.962  0.2038  0.2793 -0.0281
  680SOL    HW1 2039   0.297   2.011   1.956  0.4933  1.8422 -0.9258
  680SOL    HW2 2040   0.383   2.137   1.894 -0.0086 -1.1791 -0.9335
  681SOL     OW 2041   0.430   1.132   1.349 -0.1407  0.0968  0.1942
  681SOL    HW1 2042   0.449   1.062   1.272  0.3768  0.5885 -1.2465
  681SOL    HW2 2043   0.498   1.121   1.423  0.6994 -1.1684 -2.0457
  682SOL     OW 2044   1.337   2.548   0.833 -0.0663 -0.4205  0.0943
  682SOL    HW1 2045   1.397   2.480   0.786 -0.0506 -2.5099  0.8020
  682SOL    HW2 2046   1.259   2.572   0.771  0.7229 -0.0708  1.8377
  683SOL     OW 2047   2.513   1.399   0.660  0.6023 -0.1602 -0.1244
  683SOL    HW1 2048   2.499   1.304   0.626  0.1597 -3.5681  1.2089
  683SOL    HW2 2049   2.601   1.440   0.623  3.3026 -1.7070  1.9038
  684SOL     OW 2050   0.638   2.047   1.915  0.5334  0.0854 -0.5105
  684SOL    HW1 2051   0.701   2.112   1.966 -2.3586  0.1751 -1.4022
  684SOL    HW2 2052   0.546   2.041   1.958 -1.1964 -1.9610 -0.7182
  685SOL     OW 2053   1.986   1.705   0.196 -0.6719 -0.0605  0.2112
  685SOL    HW1 2054   2.079   1.674   0.181 -0.8575  2.3704  2.4097
  685SOL    HW2 2055   1.916   1.664   0.138  1.3864  1.4254 -0.5263
  686SOL     OW 2056   0.263   0.930   0.887  0.6140 -0.3672 -0.4557
  686SOL    HW1 2057   0.313   1.010   0.919  0.7016 -3.7709  0.1652
  686SOL    HW2 2058   0.269   0.860   0.956 -0.0715  0.8645 -1.1489
  687SOL     OW 2059   1.027   2.403   2.902 -0.1050  0.1824  0.2582
  687SOL    HW1 2060   1.011   2.410   3.002  2.2505 -0.2551 -0.2400
  687SOL    HW2 2061   0.935   2.391   2.862  0.3528  1.4760  3.3058
  688SOL     OW 2062   2.454   1.490   2.038  0.8427 -0.2947 -0.3045
  688SOL    HW1 2063   2.522   1.515   2.110 -2.0944 -1.1647 -1.0822
  688SOL    HW2 2064   2.401   1.570   2.004 -0.7288 -0.3564  0.4185
  689SOL     OW 2065   2.218   0.547   1.938 -0.7548 -0.0119  0.4671
  689SOL    HW1 2066   2.235   0.571   2.036 -1.3887  2.4863  1.4214
  689SOL    HW2 2067   2.220   0.633   1.883  0.4218 -1.5063 -0.4977
  690SOL     OW 2068   2.226   1.041   1.437 -0.2292 -0.3216 -0.2781
  690SOL    HW1 2069   2.133   1.084   1.421  0.6247  1.3554 -3.1766
  690SOL    HW2 2070   2.297   1.076   1.376 -1.9547  0.9037  0.7962
  691SOL     OW 2071   0.658   1.912   1.663  0.3298 -0.2644  0.7340
  691SOL    HW1 2072   0.654   1.971   1.742 -0.1784  0.9113 -1.2620
  691SOL    HW2 2073   0.751   1.891   1.635 -1.0148  0.5556  0.6390
  692SOL     OW 2074   2.031   0.083   1.363  0.0354 -0.5566 -0.6697
  692SOL    HW1 2075   2.071   0.181   1.394  1.0501  2.2285 -0.8169
  692SOL    HW2 2076   2.040   0.066   1.267 -0.8747 -2.6700  1.9130
  693SOL     OW 2077   0.541   1.095   2.312 -0.2311  0.3560 -0.2069
  693SOL    HW1 2078   0.629   1.111   2.367  0.0986 -0.4436  2.6757
  693SOL    HW2 2079   0.499   1.010   2.350  1.1765 -0.2821  0.2782
  694SOL     OW 2080   1.872   2.631   1.069  0.8578 -0.0855  0.4312
  694SOL    HW1 2081   1.931   2.550   1.046  2.0165 -1.3886  0.4351
  694SOL    HW2 2082   1.804   2.659   0.995  1.4430 -0.0722 -1.1982
  695SOL     OW 2083   1.305   1.175   1.978  0.6413 -0.5108  0.0039
  695SOL    HW1 2084   1.321   1.223   2.069 -0.1229  0.2577  2.8982
  695SOL    HW2 2085   1.264   1.244   1.910  0.1919  0.8763  0.6193
  696SOL     OW 2086   1.638   2.896   0.727  0.2856 -0.2052 -0.3577
  696SOL    HW1 2087   1.561   2.882   0.657 -2.0078  0.0357  0.5779
  696SOL    HW2 2088   1.729   2.883   0.677  1.4615 -0.0532  1.3283
  697SOL     OW 2089   1.258   0.138   0.685  0.4096 -0.1336 -0.2972
  697SOL    HW1 2090   1.262   0.196   0.773 -2.1797  0.9857  1.6756
  697SOL    HW2 2091   1.166   0.151   0.640 -0.0626  0.6486  2.6797
  698SOL     OW 2092   1.693   1.105   2.486  0.7115 -0.0456  0.1897
  698SOL    HW1 2093   1.688   1.035   2.415 -1.1581  0.4676  1.6001
  698SOL    HW2 2094   1.711   1.199   2.450 -3.7505  2.0578 -0.9014
  699SOL     OW 2095   1.307   1.349   1.373 -0.4689  0.2431  0.5492
  699SOL    HW1 2096   1.391   1.330   1.314 -0.7210 -1.2134  0.0328
  699SOL    HW2 2097   1.323   1.317   1.469 -0.6472 -1.7997 -1.0950
  700SOL     OW 2098   1.447   0.169   0.480  0.1827  0.1246  0.4055
  700SOL    HW1 2099   1.390   0.144   0.561  0.9325 -1.1238 -0.5198
  700SOL    HW2 2100   1.543   0.153   0.495 -1.8458  1.0362 -2.6922
  701SOL     OW 2101   0.444   0.319   1.557 -0.2146  0.5185  0.6325
  701SOL    HW1 2102   0.452   0.395   1.485  0.0972 -0.7778 -0.3129
  701SOL    HW2 2103   0.389   0.341   1.639  1.0977 -0.6478 -1.5630
  702SOL     OW 2104   1.277   2.951   0.378  0.6172 -0.6583 -0.2306
  702SOL    HW1 2105   1.224   3.038   0.380  0.9572 -0.7774  0.0628
  702SOL    HW2 2106   1.286   2.920   0.284  0.8973 -0.9927  0.0900
  703SOL     OW 2107   2.610   2.708   2.444 -0.4036  0.3088  0.1771
  703SOL    HW1 2108   2.530   2.769   2.446  0.0507 -0.2202  0.0818
  703SOL    HW2 2109   2.612   2.639   2.369  0.4636 -0.3276 -1.1114
  704SOL     OW 2110   0.789   2.250   0.690  0.5427 -0.5250 -0.1539
  704SOL    HW1 2111   0.728   2.314   0.629  0.1524 -0.1859 -1.7221
  704SOL    HW2 2112   0.777   2.269   0.792 -1.6188  0.6447  4.2613
  705SOL     OW 2113   3.056   0.653   2.097  0.1638  0.4590 -0.1318
  705SOL    HW1 2114   0.018   0.598   2.152 -0.1735 -0.5068 -0.8404
  705SOL    HW2 2115   2.975   0.657   2.160 -2.2323  0.1217  1.4106
  706SOL     OW 2116   1.572   0.016   0.265 -0.1041  0.1847  0.2227
  706SOL    HW1 2117   1.647   3.068   0.313  1.1353 -0.7521 -2.6018
  706SOL    HW2 2118   1.488   0.035   0.320  0.5441  1.1675 -2.2668
  707SOL     OW 2119   1.486   1.955   2.433  0.5380 -0.2931  0.2283
  707SOL    HW1 2120   1.514   1.892   2.504 -0.1285  1.9311 -2.1784
  707SOL    HW2 2121   1.390   1.942   2.394 -4.8360  0.5408 -0.5766
  708SOL     OW 2122   0.017   2.313   1.556 -0.4623  0.3871  0.1088
  708SOL    HW1 2123   3.067   2.385   1.511 -1.3219  1.1550 -0.5368
  708SOL    HW2 2124   0.021   2.334   1.657  1.3087  2.3901  1.1790
  709SOL     OW 2125   1.986   0.302   1.626 -0.0524  0.4183  0.2068
  709SOL    HW1 2126   1.985   0.242   1.709 -1.0506 -0.2531 -0.3889
  709SOL    HW2 2127   1.895   0.355   1.614  0.4025  1.1223  0.9707
  710SOL     OW 2128   2.857   3.055   1.454  0.2062 -0.5185  0.0173
  710SOL    HW1 2129   2.767   3.051   1.399 -2.8713  1.6347 -0.4827
  710SOL    HW2 2130   2.907   0.045   1.432  0.2249  2.4446 -0.1272
  711SOL     OW 2131   0.105   2.301   0.322 -0.1425  0.5989  0.2460
  711SOL    HW1 2132   0.174   2.341   0.255  1.1773  1.6523  0.1983
  711SOL    HW2 2133   0.009   2.313   0.283  0.6609  0.9045 -1.9757
  712SOL     OW 2134   0.650   2.202   2.475  0.4876  0.4544 -0.1834
  712SOL    HW1 2135   0.569   2.202   2.412 -1.9952 -3.6795 -1.5796
  712SOL    HW2 2136   0.728   2.251   2.441 -2.5272 -2.1700  1.8608
  713SOL     OW 2137   2.099   0.673   3.009 -0.4282 -0.0186  0.0833
  713SOL    HW1 2138   2.115   0.594   3.077  0.7569 -3.7213  3.1281
  713SOL    HW2 2139   2.057   0.758   3.045  0.2060 -1.4156 -2.5978
  714SOL     OW 2140   1.300   1.884   0.654 -0.2363 -0.0940 -0.2444
  714SOL    HW1 2141   1.218   1.924   0.706  1.9050  0.1936  2.6947
  714SOL    HW2 2142   1.332   1.953   0.590  0.0278  0.4960 -1.1674
  715SOL     OW 2143   1.921   0.221   0.443 -0.2964 -0.4132 -0.2824
  715SOL    HW1 2144   1.825   0.191   0.427 -1.5504 -1.0221  0.2229
  715SOL    HW2 2145   1.928   0.306   0.497 -1.1577 -4.1337  0.1725
  716SOL     OW 2146   0.664   0.739   1.718 -0.0557  0.0076  0.7798
  716SOL    HW1 2147   0.627   0.794   1.797 -0.2319 -0.4035 -0.0296
  716SOL    HW2 2148   0.605   0.754   1.635 -2.2616  0.9920 -1.7894
  717SOL     OW 2149   0.213   0.479   2.877 -0.4787  0.4653 -0.0814
  717SOL    HW1 2150   0.214   0.570   2.827  0.9897 -1.4039  2.2364
  717SOL    HW2 2151   0.127   0.449   2.912  0.4372  0.8664 -2.4803
  718SOL     OW 2152   1.204   0.931   0.415  0.5234  0.1545  0.2236
  718SOL    HW1 2153   1.288   0.928   0.472  1.1689  1.0173  0.9049
  718SOL    HW2 2154   1.143   0.847   0.408  0.7488 -1.1902 -1.9213
  719SOL     OW 2155   2.656   1.768   3.064 -0.4168  0.0839  0.0295
  719SOL    HW1 2156   2.713   1.701   3.014 -3.2069  0.7049  0.4563
  719SOL    HW2 2157   2.719   1.797   0.038  5.5264 -2.6394 -0.2447
  720SOL     OW 2158   1.559   0.802   1.189  0.2806 -0.0701  0.4962
  720SOL    HW1 2159   1.495   0.809   1.115  2.6490  1.9649  2.0638
  720SOL    HW2 2160   1.536   0.727   1.257  0.7050 -0.6260  2.0393
  721SOL     OW 2161   2.903   0.560   0.577  0.1022  0.1635  0.3921
  721SOL    HW1 2162   2.932   0.610   0.491  2.7669  2.1050  0.0426
  721SOL    HW2 2163   2.812   0.522   0.577  3.4824 -0.1269  0.2963
  722SOL     OW 2164   1.182   1.755   2.899 -0.2542 -0.3944  0.1908
  722SOL    HW1 2165   1.121   1.828   2.864 -0.7493  1.6551 -0.3396
  722SOL    HW2 2166   1.133   1.669   2.914 -0.0235  1.2823 -2.1772
  723SOL     OW 2167   0.625   0.923   0.367 -0.1064  0.4000 -0.4934
  723SOL    HW1 2168   0.574   1.003   0.331  2.7401 -1.9851  1.4358
  723SOL    HW2 2169   0.608   0.917   0.466  0.2140  2.1524 -3.1007
  724SOL     OW 2170   1.020   2.220   1.835 -0.1554  0.7671 -0.0226
  724SOL    HW1 2171   0.937   2.232   1.773 -0.2002  1.4071  0.4221
  724SOL    HW2 2172   1.024   2.296   1.898  0.4821  0.3631 -1.3804
  725SOL     OW 2173   2.720   0.926   1.663  0.0684  0.8678 -0.0873
  725SOL    HW1 2174   2.773   1.008   1.627  0.1634 -1.2941 -1.5536
  725SOL    HW2 2175   2.696   0.938   1.762 -0.0546 -1.3577 -1.4590
  726SOL     OW 2176   1.781   2.979   0.400 -0.5394  0.1381 -0.0127
  726SOL    HW1 2177   1.880   2.976   0.437  4.2971 -2.8482 -1.6756
  726SOL    HW2 2178   1.769   2.888   0.350 -0.7576 -0.6639 -1.3049
  727SOL     OW 2179   1.200   1.060   2.440  0.0775 -0.2768 -0.1881
  727SOL    HW1 2180   1.167   1.115   2.519  1.3465 -0.6030  0.9757
  727SOL    HW2 2181   1.167   0.967   2.447 -0.7888  1.2763  1.0065
  728SOL     OW 2182   1.278   2.791   1.243  0.3840  0.2766 -0.4325
  728SOL    HW1 2183   1.315   2.713   1.191  0.6309  0.2695  0.5701
  728SOL    HW2 2184   1.354   2.837   1.291  0.3925 -0.9618  0.8254
  729SOL     OW 2185   1.499   0.599   1.390 -0.4700  0.5769  0.0094
  729SOL    HW1 2186   1.400   0.576   1.399  1.3027 -0.8657  0.1825
  729SOL    HW2 2187   1.552   0.507   1.393 -0.1446 -0.5746 -0.1227
  730SOL     OW 2188   0.801   2.169   2.096  1.0407  0.0264  0.1630
  730SOL    HW1 2189   0.849   2.260   2.099 -3.3671  0.5079  2.9029
  730SOL    HW2 2190   0.851   2.099   2.153  1.5937 -1.7807  0.7151
  731SOL     OW 2191   0.534   0.186   0.381 -0.0073  0.1058  0.6741
  731SOL    HW1 2192   0.548   0.287   0.375 -0.7680 -3.8110  1.3174
  731SOL    HW2 2193   0.605   0.132   0.327  0.0203 -1.6672  0.3799
  732SOL     OW 2194   0.603   0.436   3.008  0.7439  0.0940 -0.4250
  732SOL    HW1 2195   0.677   0.445   3.080 -2.1008  4.8909  1.3972
  732SOL    HW2 2196   0.541   0.357   3.021  2.1876 -0.2542 -0.5167
  733SOL     OW 2197   1.272   2.387   1.199 -0.3625  0.1554  0.3364
  733SOL    HW1 2198   1.313   2.294   1.229  0.8525 -2.6072  0.8383
  733SOL    HW2 2199   1.172   2.387   1.188 -1.3418  0.8969  1.1696
  734SOL     OW 2200   3.006   2.394   2.556  0.2588 -0.2275 -0.0632
  734SOL    HW1 2201   3.084   2.334   2.569  2.2148 -0.1816 -0.4662
  734SOL    HW2 2202   2.952   2.406   2.640  0.1600 -1.1672  0.3255
  735SOL     OW 2203   0.936   2.905   1.041  0.8803  0.5249 -0.2458
  735SOL    HW1 2204   0.893   2.988   1.078  1.2487 -0.3993 -2.4923
  735SOL    HW2 2205   1.033   2.928   1.018 -1.6981 -0.0944  0.4012
  736SOL     OW 2206   1.548   1.036   2.877 -0.2079  1.0586  0.3309
  736SOL    HW1 2207   1.579   0.959   2.815 -1.3604  2.5442 -0.3922
  736SOL    HW2 2208   1.551   1.009   2.975 -1.1209 -1.1997 -2.6340
  737SOL     OW 2209   0.120   0.299   0.515  0.6284 -1.0650 -0.1010
  737SOL    HW1 2210   0.166   0.230   0.455 -1.1699  1.6820 -1.3683
  737SOL    HW2 2211   0.050   0.254   0.573 -0.8112  1.8338 -0.0582
  738SOL     OW 2212   2.638   2.642   1.297 -0.5153  0.1943  0.3323
  738SOL    HW1 2213   2.685   2.563   1.337 -0.3756  2.1722  1.6979
  738SOL    HW2 2214   2.705   2.699   1.245 -1.8293 -0.9767 -0.9277
  739SOL     OW 2215   1.618   2.637   0.544 -0.5214  0.3839  0.1259
  739SOL    HW1 2216   1.549   2.710   0.557  2.3344  1.5255 -1.1659
  739SOL    HW2 2217   1.615   2.566   0.615 -0.6830 -0.8610 -1.0003
  740SOL     OW 2218   1.804   3.067   1.018 -0.0838 -0.3765  0.0687
  740SOL    HW1 2219   1.705   3.034   1.009  0.0044 -0.9186 -1.1930
  740SOL    HW2 2220   1.835   3.099   0.923  0.6705  0.5306  2.0875
  741SOL     OW 2221   1.976   0.475   0.854 -1.0319 -0.0914  0.5757
  741SOL    HW1 2222   2.074   0.442   0.869  0.3053  1.0641  1.1368
  741SOL    HW2 2223   1.970   0.576   0.856 -0.3083 -0.0930  0.5819
  742SOL     OW 2224   1.248   2.214   2.207  0.2737 -0.2386 -0.0046
  742SOL    HW1 2225   1.333   2.269   2.204 -1.9606 -2.2314 -1.8201
  742SOL    HW2 2226   1.244   2.155   2.124 -0.9239  0.9123 -0.1851
  743SOL     OW 2227   2.265   0.245   1.890  0.1463 -0.6835  0.0168
  743SOL    HW1 2228   2.303   0.308   1.819 -1.4954 -1.5616 -1.1983
  743SOL    HW2 2229   2.303   0.279   1.979  1.0180 -1.5561  0.2031
  744SOL     OW 2230   2.316   0.632   1.231  0.0386 -0.2763  0.0721
  744SOL    HW1 2231   2.300   0.691   1.317 -1.7333  1.6068  0.5285
  744SOL    HW2 2232   2.312   0.688   1.143 -1.2357  2.6114  0.1768
  745SOL     OW 2233   2.064   1.278   1.874 -0.1726  0.0439  0.4848
  745SOL    HW1 2234   1.981   1.218   1.866 -0.8249 -0.2128  0.9063
  745SOL    HW2 2235   2.045   1.375   1.844 -0.3746  1.8555 -0.7233
  746SOL     OW 2236   1.147   1.402   0.796  0.5566 -0.3656 -0.2217
  746SOL    HW1 2237   1.201   1.488   0.822  1.0985  1.1986  1.8602
  746SOL    HW2 2238   1.047   1.408   0.824  4.3366  0.6032 -1.2253
  747SOL     OW 2239   1.520   1.289   1.230  0.4185  0.3627  0.1107
  747SOL    HW1 2240   1.510   1.290   1.128  0.7279  1.9271 -1.9435
  747SOL    HW2 2241   1.574   1.369   1.264 -2.6080 -1.2126 -0.8662
  748SOL     OW 2242   2.876   3.027   0.456  0.3543  0.2608  0.4621
  748SOL    HW1 2243   2.871   0.023   0.432 -0.9526 -2.7976  1.4731
  748SOL    HW2 2244   2.931   3.022   0.538  0.7187 -0.3325  1.1037
  749SOL     OW 2245   2.916   0.220   2.041  0.4147  0.3068 -0.5481
  749SOL    HW1 2246   2.891   0.158   2.122 -2.2998 -3.0069 -0.5631
  749SOL    HW2 2247   2.960   0.301   2.084 -0.6052  0.0798  1.8858
  750SOL     OW 2248   1.767   0.016   1.433 -0.4159  0.3605  0.1152
  750SOL    HW1 2249   1.870   0.021   1.423 -0.6971 -0.3361 -0.7029
  750SOL    HW2 2250   1.727   0.038   1.339 -1.4104  0.2825 -1.4933
  751SOL     OW 2251   3.003   0.280   0.679 -0.2514  0.2987 -0.3524
  751SOL    HW1 2252   3.039   0.373   0.694 -1.2933 -3.8794  0.1188
  751SOL    HW2 2253   2.970   0.239   0.770  0.7305 -2.3189  1.2576
  752SOL     OW 2254   0.390   2.773   1.007 -0.4828 -0.0299 -0.1113
  752SOL    HW1 2255   0.418   2.847   1.074 -0.5046 -0.7896 -1.7732
  752SOL    HW2 2256   0.288   2.764   1.014 -2.5406 -0.7324  1.8601
  753SOL     OW 2257   1.299   0.259   1.943 -0.1110 -0.2800 -0.1582
  753SOL    HW1 2258   1.223   0.262   1.873 -0.8228  0.7152  0.0187
  753SOL    HW2 2259   1.329   0.352   1.966 -0.3833 -2.7297 -2.4839
  754SOL     OW 2260   1.335   2.577   1.637  0.2829  0.0315  0.2362
  754SOL    HW1 2261   1.401   2.624   1.577  1.8663 -0.0388  1.0529
  754SOL    HW2 2262   1.368   2.576   1.734  2.0894 -0.6322 -0.6919
  755SOL     OW 2263   3.007   1.166   0.715  0.1195  0.2447 -0.1475
  755SOL    HW1 2264   2.907   1.148   0.721  1.0866 -1.3811  0.6244
  755SOL    HW2 2265   3.056   1.080   0.690 -1.9321 -0.0309  0.7724
  756SOL     OW 2266   1.998   1.624   2.694 -0.4698  0.0026 -0.3300
  756SOL    HW1 2267   1.909   1.630   2.747 -1.6104 -0.8105 -0.2844
  756SOL    HW2 2268   2.003   1.658   2.597  1.2128  0.1014  1.0390
  757SOL     OW 2269   1.870   0.097   0.771  0.4056 -0.2280 -0.0723
  757SOL    HW1 2270   1.788   0.119   0.715 -1.0775  0.5608  0.8979
  757SOL    HW2 2271   1.906   0.013   0.724 -0.5540 -0.6524 -1.3486
  758SOL     OW 2272   0.818   2.730   0.809 -0.2460 -0.1855  0.3246
  758SOL    HW1 2273   0.814   2.675   0.895 -0.3831  1.2994  1.6819
  758SOL    HW2 2274   0.907   2.778   0.796 -0.2934 -0.3175  0.3571
  759SOL     OW 2275   2.961   0.542   1.010  0.3552 -0.3357  0.0694
  759SOL    HW1 2276   3.025   0.533   0.932 -0.4027 -0.4458  0.4798
  759SOL    HW2 2277   2.871   0.574   0.974  1.0568 -0.5824 -0.7646
  760SOL     OW 2278   2.174   1.257   1.096 -0.0056 -0.0138 -0.2385
  760SOL    HW1 2279   2.227   1.213   1.171 -2.6650  3.3478  1.0493
  760SOL    HW2 2280   2.074   1.238   1.113  0.7380 -3.4401  0.0164
  761SOL     OW 2281   0.706   0.873   1.096 -0.8154  0.0537  0.0550
  761SOL    HW1 2282   0.686   0.905   1.004  1.5999  0.9093  0.7184
  761SOL    HW2 2283   0.786   0.804   1.088  0.0683 -1.5701 -3.5826
  762SOL     OW 2284   2.233   1.969   1.466 -0.2245 -0.3174 -0.4081
  762SOL    HW1 2285   2.241   1.927   1.374  0.3921  3.1463  2.6576
  762SOL    HW2 2286   2.323   1.984   1.507 -1.3177  1.5883  0.4297
  763SOL     OW 2287   1.176   1.625   2.006 -0.1636  0.2414  0.4553
  763SOL    HW1 2288   1.213   1.614   2.099 -0.4530 -0.6595 -0.7983
  763SOL    HW2 2289   1.115   1.702   1.996  3.0387 -2.4318  2.0995
  764SOL     OW 2290   0.129   1.862   2.354 -0.3361  0.7840 -0.0737
  764SOL    HW1 2291   0.144   1.924   2.274 -0.5591 -1.7545 -2.1994
  764SOL    HW2 2292   0.133   1.764   2.321 -0.0024  1.0976 -1.2189
  765SOL     OW 2293   0.824   2.706   1.218 -0.1112 -0.2232 -0.2166
  765SOL    HW1 2294   0.854   2.746   1.305  0.1778  0.6418 -0.5361
  765SOL    HW2 2295   0.858   2.765   1.145  0.9885 -2.3573  0.9998
  766SOL     OW 2296   0.781   2.398   2.782 -1.1980 -0.2062  0.0187
  766SOL    HW1 2297   0.756   2.304   2.754 -3.3087 -0.6041 -1.4976
  766SOL    HW2 2298   0.701   2.448   2.809  0.8437 -1.0243 -1.3718
  767SOL     OW 2299   1.572   0.800   2.699 -0.0076 -0.4268 -0.4007
  767SOL    HW1 2300   1.543   0.729   2.768  0.0477  0.3268 -0.6243
  767SOL    HW2 2301   1.520   0.790   2.612 -0.3312 -1.0891 -2.2046
  768SOL     OW 2302   1.336   2.518   2.975  0.1333  0.3256 -0.3371
  768SOL    HW1 2303   1.425   2.540   2.940 -4.1363  0.6373  1.4737
  768SOL    HW2 2304   1.311   2.422   2.944 -0.6775 -2.5441 -0.7737
  769SOL     OW 2305   0.033   2.704   1.292  0.0740 -0.2400 -0.3127
  769SOL    HW1 2306   0.048   2.753   1.209 -2.1111 -2.9816  1.9639
  769SOL    HW2 2307   0.123   2.660   1.323  1.4417  2.9735 -1.1719
  770SOL     OW 2308   0.853   0.117   2.825 -0.1714  0.1168 -0.3137
  770SOL    HW1 2309   0.778   0.059   2.786  1.0315 -1.4940  0.8519
  770SOL    HW2 2310   0.902   0.072   2.905 -0.7639 -1.7831  1.7111
  771SOL     OW 2311   0.768   3.028   2.399  0.1410  0.1680 -0.0153
  771SOL    HW1 2312   0.704   3.033   2.320 -0.3164 -1.0083  0.2147
  771SOL    HW2 2313   0.822   0.014   2.412  0.7656  0.3730  3.4102
  772SOL     OW 2314   2.295   2.963   1.959  0.0887  1.2657  0.5670
  772SOL    HW1 2315   2.302   3.020   1.878 -1.5374 -0.7785 -2.1525
  772SOL    HW2 2316   2.317   2.861   1.940 -0.7876 -1.7281 -1.7758
  773SOL     OW 2317   0.669   2.463   1.661 -0.3625  0.0999 -0.2122
  773SOL    HW1 2318   0.740   2.536   1.646  2.7121 -1.5668 -1.1758
  773SOL    HW2 2319   0.624   2.475   1.748 -2.3425 -0.3362 -0.4888
  774SOL     OW 2320   1.092   0.241   2.165 -0.3657  0.5794 -0.2924
  774SOL    HW1 2321   1.123   0.182   2.246  0.0712  0.3081  0.0560
  774SOL    HW2 2322   1.160   0.231   2.089  3.3095 -0.0615 -2.1413
  775SOL     OW 2323   2.343   2.616   2.681  0.1487 -0.2657 -0.2506
  775SOL    HW1 2324   2.287   2.609   2.768  0.0221  0.8144  1.4510
  775SOL    HW2 2325   2.361   2.717   2.670 -0.1480  1.5027  1.1561
  776SOL     OW 2326   1.913   0.365   2.237 -0.1270 -0.2048  0.2085
  776SOL    HW1 2327   1.978   0.419   2.293 -2.0642  2.6505 -0.6959
  776SOL    HW2 2328   1.926   0.383   2.140  1.2941 -0.4332 -0.1879
  777SOL     OW 2329   2.653   0.839   2.402 -0.0472  0.3743 -0.7455
  777SOL    HW1 2330   2.661   0.928   2.449  0.5334  0.4758  0.3834
  777SOL    HW2 2331   2.561   0.833   2.357 -0.4708  0.9440  1.1490
  778SOL     OW 2332   2.089   0.514   2.380  0.6057 -0.5417  0.0773
  778SOL    HW1 2333   2.095   0.616   2.402 -0.6444  3.2858 -2.1143
  778SOL    HW2 2334   2.115   0.462   2.464 -1.7339 -1.0541  0.3691
  779SOL     OW 2335   3.028   0.212   0.053  0.0633 -0.1545  0.1710
  779SOL    HW1 2336   2.952   0.240   0.112 -1.3922 -0.7943 -2.1903
  779SOL    HW2 2337   3.101   0.154   0.105  2.2944 -1.5797  0.6974
  780SOL     OW 2338   2.279   0.139   2.564 -0.2551  0.1585 -0.3998
  780SOL    HW1 2339   2.372   0.136   2.521 -0.4886 -3.3489 -0.1140
  780SOL    HW2 2340   2.203   0.172   2.508  5.2069  1.8234  1.5588
  781SOL     OW 2341   0.250   3.052   1.497  0.3506 -0.6044 -0.0418
  781SOL    HW1 2342   0.165   2.996   1.507 -0.7517 -0.2654 -0.5862
  781SOL    HW2 2343   0.230   0.042   1.461  0.6701 -0.6774  1.0456
  782SOL     OW 2344   1.843   2.641   0.410  0.0804  0.4591 -0.1623
  782SOL    HW1 2345   1.793   2.657   0.500  0.4173 -2.2108  1.5119
  782SOL    HW2 2346   1.814   2.553   0.368 -0.9881  1.3167  1.1689
  783SOL     OW 2347   0.631   1.447   1.771  0.3305  0.2797 -0.1507
  783SOL    HW1 2348   0.708   1.496   1.819 -1.8356 -1.7145 -1.8888
  783SOL    HW2 2349   0.667   1.367   1.723  1.5437  0.7053  0.7817
  784SOL     OW 2350   1.603   0.626   2.136  0.2718 -0.2097  0.0440
  784SOL    HW1 2351   1.559   0.717   2.111 -0.5846  1.2566  1.8354
  784SOL    HW2 2352   1.680   0.597   2.071  1.3115 -2.6423  0.3456
  785SOL     OW 2353   2.827   0.132   0.870  0.3856 -0.2184  0.0213
  785SOL    HW1 2354   2.862   0.178   0.956  1.9128 -0.4779 -1.5028
  785SOL    HW2 2355   2.734   0.169   0.844 -0.8398 -0.3343 -1.2851
  786SOL     OW 2356   1.756   0.207   1.164 -0.0633 -0.3457 -0.4418
  786SOL    HW1 2357   1.844   0.245   1.193 -0.0154 -2.5760  0.5760
  786SOL    HW2 2358   1.765   0.116   1.117 -1.9271  1.4047 -2.0190
  787SOL     OW 2359   1.469   0.030   1.236 -0.0982 -0.4861  0.1046
  787SOL    HW1 2360   1.470   0.132   1.227  0.7272  1.7395  0.1615
  787SOL    HW2 2361   1.478   0.002   1.136 -1.9485 -1.4697 -2.7713
  788SOL     OW 2362   0.246   0.797   0.510 -0.0259 -0.4330  0.0470
  788SOL    HW1 2363   0.170   0.848   0.555  0.5595 -2.6780 -1.2507
  788SOL    HW2 2364   0.241   0.699   0.541 -1.4101 -3.2424  0.1535
  789SOL     OW 2365   0.520   1.149   2.048  0.1870 -0.4596 -0.3424
  789SOL    HW1 2366   0.532   1.151   2.151  1.1064  0.8678  2.7985
  789SOL    HW2 2367   0.488   1.241   2.019  3.2421  0.3489  0.1625
  790SOL     OW 2368   0.288   0.478   2.484  0.1471 -0.2928 -0.6354
  790SOL    HW1 2369   0.387   0.486   2.463 -0.5672  1.2592 -1.6707
  790SOL    HW2 2370   0.252   0.547   2.551 -1.0827 -0.8687 -0.5183
  791SOL     OW 2371   2.228   0.623   0.329  0.1515 -0.5404 -0.4651
  791SOL    HW1 2372   2.203   0.578   0.418 -0.8697  1.8207 -0.5297
  791SOL    HW2 2373   2.216   0.725   0.327 -0.1966  2.3394 -1.1653
  792SOL     OW 2374   1.111   0.301   1.288 -0.4969 -0.3101  0.7324
  792SOL    HW1 2375   1.066   0.347   1.206 -2.4434  3.2215 -1.8716
  792SOL    HW2 2376   1.049   0.293   1.366  2.5524 -0.7499  0.5536
  793SOL     OW 2377   0.390   2.970   1.200 -0.0387  0.0160 -0.3595
  793SOL    HW1 2378   0.433   2.953   1.291  0.6893  2.0670  0.6459
  793SOL    HW2 2379   0.292   2.998   1.203 -0.8415  0.2421 -2.8213
  794SOL     OW 2380   0.152   0.513   2.249 -0.2798  0.2382  0.3823
  794SOL    HW1 2381   0.198   0.507   2.337 -1.2076 -1.0930 -1.9706
  794SOL    HW2 2382   0.204   0.463   2.178 -0.4591 -1.2445 -1.1308
  795SOL     OW 2383   0.458   2.431   2.604 -0.0359  0.0956 -0.1095
  795SOL    HW1 2384   0.542   2.411   2.551  0.7311 -1.8159 -0.4673
  795SOL    HW2 2385   0.485   2.463   2.700 -0.5999 -0.9928  0.8267
  796SOL     OW 2386   2.109   0.405   2.653 -0.7933  0.5916 -0.7294
  796SOL    HW1 2387   2.086   0.494   2.698 -2.4954  2.5617 -0.2043
  796SOL    HW2 2388   2.048   0.333   2.688  1.8498 -0.0961 -0.0679
  797SOL     OW 2389   2.761   2.087   2.793  0.1449 -0.0241 -0.0108
  797SOL    HW1 2390   2.828   2.143   2.845 -0.8671  1.1611  0.3348
  797SOL    HW2 2391   2.677   2.068   2.843 -0.1085 -1.4786 -0.0482
  798SOL     OW 2392   0.193   0.567   1.635 -0.5751 -0.0591  0.1250
  798SOL    HW1 2393   0.245   0.506   1.695  0.1649  2.1104 -0.7690
  798SOL    HW2 2394   0.133   0.620   1.698  1.8375 -0.8502 -1.0729
  799SOL     OW 2395   0.722   0.388   1.709  0.1671 -0.0677  0.0903
  799SOL    HW1 2396   0.767   0.366   1.796 -2.6356  0.2371 -0.6085
  799SOL    HW2 2397   0.648   0.454   1.725  2.2090 -1.3494 -3.5281
  800SOL     OW 2398   2.914   2.633   0.284  0.1867 -1.1741  0.2257
  800SOL    HW1 2399   2.835   2.684   0.240  0.7156 -0.9140 -1.9803
  800SOL    HW2 2400   2.994   2.640   0.224 -0.5659 -3.2103  3.2015
  801SOL     OW 2401   1.878   1.698   1.201  0.0367  0.3242 -0.6265
  801SOL    HW1 2402   1.843   1.705   1.102 -0.1814  3.8667 -3.5045
  801SOL    HW2 2403   1.832   1.771   1.248 -0.8511  0.5673  0.2625
  802SOL     OW 2404   0.478   0.455   0.375  0.3680 -0.1187  0.2642
  802SOL    HW1 2405   0.430   0.493   0.455  0.7370  0.5823 -2.4094
  802SOL    HW2 2406   0.529   0.527   0.327  0.2446 -0.5866  0.4133
  803SOL     OW 2407   1.239   1.265   2.280 -0.0023 -0.0322  0.4189
  803SOL    HW1 2408   1.249   1.178   2.328  0.7019 -0.7076 -1.4573
  803SOL    HW2 2409   1.153   1.317   2.302 -1.4322  0.7251 -0.0425
  804SOL     OW 2410   2.089   2.157   1.065 -0.3704 -0.1151 -0.6883
  804SOL    HW1 2411   2.091   2.161   1.169 -0.7065  0.0960  3.3476
  804SOL    HW2 2412   2.143   2.076   1.032 -0.2335  0.5800 -0.7726
  805SOL     OW 2413   0.432   1.954   2.758  0.4715 -0.1030  0.0491
  805SOL    HW1 2414   0.386   2.029   2.808  0.7140 -0.0073 -1.5048
  805SOL    HW2 2415   0.418   1.960   2.660  1.5980  2.0120  1.1263
  806SOL     OW 2416   0.646   2.607   0.310  0.3087 -0.5115  0.5034
  806SOL    HW1 2417   0.593   2.695   0.295  0.4285  1.8187  0.6464
  806SOL    HW2 2418   0.728   2.617   0.369 -2.3000 -1.7870  1.0842
  807SOL     OW 2419   2.477   1.116   2.767  0.1862 -0.0784 -0.3167
  807SOL    HW1 2420   2.554   1.127   2.838  1.5284  1.0019  3.1252
  807SOL    HW2 2421   2.389   1.152   2.799  0.5057  1.4580 -0.0738
  808SOL     OW 2422   1.553   2.164   1.131  0.7881  0.1355 -0.2219
  808SOL    HW1 2423   1.471   2.184   1.188 -0.6203  1.0001  0.5370
  808SOL    HW2 2424   1.617   2.242   1.134 -1.1688  0.3113 -0.3200
  809SOL     OW 2425   0.247   0.537   0.595 -0.1439  0.2551 -0.1140
  809SOL    HW1 2426   0.338   0.540   0.638  3.0231 -2.1584 -0.7604
  809SOL    HW2 2427   0.224   0.440   0.562  1.3647 -2.1681  0.5733
  810SOL     OW 2428   1.409   1.554   0.114 -0.0795  0.8648 -0.1251
  810SOL    HW1 2429   1.363   1.636   0.076  0.9597 -0.0976  2.9118
  810SOL    HW2 2430   1.494   1.582   0.168 -0.0407 -0.0301  1.0074
  811SOL     OW 2431   1.523   2.890   1.339 -0.1830 -0.0495  0.0610
  811SOL    HW1 2432   1.607   2.856   1.291  0.0187 -1.3553  2.0355
  811SOL    HW2 2433   1.503   2.990   1.317  0.7144  1.3249 -0.1623
  812SOL     OW 2434   1.542   2.970   0.983  0.0764  0.0232  0.1873
  812SOL    HW1 2435   1.566   2.961   0.886 -2.5498  0.7264  2.4157
  812SOL    HW2 2436   1.456   2.918   1.002  1.6593 -0.0546 -1.1839
  813SOL     OW 2437   1.181   3.043   1.859 -0.2493 -0.2267 -0.4767
  813SOL    HW1 2438   1.109   0.005   1.824 -0.2075  2.5408  1.0306
  813SOL    HW2 2439   1.261   3.041   1.793  1.3217 -0.4630 -2.0325
  814SOL     OW 2440   1.086   2.605   2.055  0.5272  0.4061  0.1457
  814SOL    HW1 2441   1.074   2.681   1.988 -1.1302  4.2770  0.6377
  814SOL    HW2 2442   1.184   2.601   2.087  0.6236  0.5988 -1.0000
  815SOL     OW 2443   0.361   0.009   2.769 -0.4573  0.8006  0.1853
  815SOL    HW1 2444   0.414   3.030   2.783 -1.1604  0.7426 -1.5782
  815SOL    HW2 2445   0.424   0.089   2.753  0.7812 -0.1234 -1.1766
  816SOL     OW 2446   2.545   1.035   0.022  0.0926  0.2400  0.2173
  816SOL    HW1 2447   2.615   1.071   3.064 -2.4195  0.6155 -1.1604
  816SOL    HW2 2448   2.550   0.933   0.034 -2.4646 -0.1646  2.9149
  817SOL     OW 2449   2.920   2.271   2.332 -0.6164 -0.0485  0.0856
  817SOL    HW1 2450   2.932   2.304   2.428 -0.1403  1.4269 -1.1364
  817SOL    HW2 2451   2.934   2.346   2.267  0.5691  0.3903  0.5457
  818SOL     OW 2452   0.822   1.446   0.347 -0.1594  0.3444  0.2558
  818SOL    HW1 2453   0.740   1.413   0.400 -0.0186 -1.3783  0.3563
  818SOL    HW2 2454   0.849   1.384   0.270  1.9726 -2.4623  0.2547
  819SOL     OW 2455   1.687   1.257   2.809  0.4656 -0.3195 -0.4331
  819SOL    HW1 2456   1.768   1.211   2.761 -1.6887 -1.4912 -2.0842
  819SOL    HW2 2457   1.624   1.187   2.849  0.5099  0.5626  2.6903
  820SOL     OW 2458   0.550   1.192   0.282 -0.4401 -0.1824  0.2518
  820SOL    HW1 2459   0.560   1.271   0.345 -0.4702  1.1416 -3.1953
  820SOL    HW2 2460   0.534   1.229   0.185 -3.1777  3.2438  0.1814
  821SOL     OW 2461   0.557   2.898   0.847  0.0333  0.3282  0.2362
  821SOL    HW1 2462   0.643   2.850   0.832  1.1461  0.2359 -0.6786
  821SOL    HW2 2463   0.498   2.844   0.914 -2.2641 -0.6762  4.4047
  822SOL     OW 2464   2.159   2.302   2.924 -0.6935  0.3742 -0.2564
  822SOL    HW1 2465   2.238   2.292   2.992  0.1465 -1.2781 -0.6124
  822SOL    HW2 2466   2.086   2.366   2.947  3.6046 -2.7854 -2.5684
  823SOL     OW 2467   0.983   0.459   2.606 -0.1036  0.4904 -0.0288
  823SOL    HW1 2468   1.078   0.421   2.610 -1.0554  0.3452 -0.3344
  823SOL    HW2 2469   0.956   0.509   2.691 -2.6772  2.0238  0.3325
  824SOL     OW 2470   2.378   2.782   1.569 -0.3058 -0.3064 -0.5354
  824SOL    HW1 2471   2.435   2.836   1.631  0.8055  1.7790 -0.1061
  824SOL    HW2 2472   2.341   2.844   1.498 -0.1076 -0.6491 -0.5876
  825SOL     OW 2473   0.386   1.882   2.485  0.1496  0.5516  1.0236
  825SOL    HW1 2474   0.449   1.938   2.430 -0.8372 -0.1065  1.6223
  825SOL    HW2 2475   0.288   1.909   2.471  1.7607  2.1243  0.5282
  826SOL     OW 2476   1.612   0.587   0.153 -0.5321  0.3002 -0.5483
  826SOL    HW1 2477   1.654   0.536   0.231  3.4320 -1.8096  0.3175
  826SOL    HW2 2478   1.513   0.565   0.153 -0.0728  3.5764  0.3466
  827SOL     OW 2479   2.952   1.785   1.925  0.3588  0.2747  0.1298
  827SOL    HW1 2480   2.989   1.689   1.923  2.0035  1.8042 -2.9348
  827SOL    HW2 2481   3.003   1.850   1.861  3.1828 -2.0266 -2.3386
  828SOL     OW 2482   0.240   0.178   1.325  0.3355 -0.4810 -0.0854
  828SOL    HW1 2483   0.202   0.274   1.333  1.4291 -1.6405 -0.0101
  828SOL    HW2 2484   0.342   0.183   1.333 -1.0561 -0.3888  0.9449
  829SOL     OW 2485   1.024   2.028   2.428  0.5153  0.1668 -0.2986
  829SOL    HW1 2486   1.081   2.115   2.450  1.2844  0.6271  2.1355
  829SOL    HW2 2487   1.013   1.974   2.512 -2.1882 -2.9044  0.5587
  830SOL     OW 2488   0.693   0.909   1.363  0.0176 -0.1256 -0.3107
  830SOL    HW1 2489   0.705   0.894   1.262  0.7922  1.6986 -1.1929
  830SOL    HW2 2490   0.610   0.865   1.396 -0.1715  0.6436 -0.8146
  831SOL     OW 2491   2.785   1.574   2.910  0.0560 -0.3636 -0.1282
  831SOL    HW1 2492   2.851   1.569   2.832  2.5121 -2.2768 -1.0801
  831SOL    HW2 2493   2.761   1.480   2.945 -0.3857 -2.5610 -0.2494
  832SOL     OW 2494   1.276   2.264   2.932 -0.2933 -0.2964  0.6827
  832SOL    HW1 2495   1.188   2.305   2.901  3.7923 -1.9591  1.4083
  832SOL    HW2 2496   1.310   2.200   2.863 -1.6032  0.2332 -0.5296
  833SOL     OW 2497   0.324   0.388   1.782 -0.9044  0.3892  0.7685
  833SOL    HW1 2498   0.396   0.432   1.845  0.8713  0.6244 -1.6683
  833SOL    HW2 2499   0.249   0.350   1.834  0.5151  0.5988 -0.9870
  834SOL     OW 2500   0.063   0.880   1.267  0.3202 -0.0414  0.5985
  834SOL    HW1 2501   0.093   0.956   1.328 -0.2966  0.2269 -2.0797
  834SOL    HW2 2502   0.041   0.920   1.173 -3.3477  1.5922 -0.5047
  835SOL     OW 2503   2.652   0.430   0.573 -0.4563  0.0847  0.0793
  835SOL    HW1 2504   2.714   0.352   0.560  0.9551  1.2949 -3.3356
  835SOL    HW2 2505   2.556   0.405   0.551 -2.3753 -1.2932  1.0642
  836SOL     OW 2506   0.886   2.265   0.066  0.1059 -0.1993 -0.6792
  836SOL    HW1 2507   0.980   2.303   0.060  0.0837 -0.5535 -0.4625
  836SOL    HW2 2508   0.876   2.192   0.140  1.0779 -2.8628 -2.5294
  837SOL     OW 2509   1.735   1.908   0.429 -0.2259  0.2177 -0.3963
  837SOL    HW1 2510   1.717   1.897   0.329  0.4670  0.0578 -2.3127
  837SOL    HW2 2511   1.735   1.814   0.474  0.1580 -1.3141  2.8637
  838SOL     OW 2512   1.901   0.875   2.309  0.7702 -0.5138  0.6565
  838SOL    HW1 2513   1.991   0.900   2.267  1.8140  0.8590 -0.9502
  838SOL    HW2 2514   1.901   0.781   2.348  1.0392  2.8487  3.9266
  839SOL     OW 2515   1.155   1.256   2.674 -0.3030 -0.2993 -0.1425
  839SOL    HW1 2516   1.186   1.239   2.773 -0.0436  0.1632  2.7673
  839SOL    HW2 2517   1.214   1.322   2.623 -0.4173  1.3901 -2.2239
  840SOL     OW 2518   0.874   1.267   0.142  0.5373 -0.4558 -0.5974
  840SOL    HW1 2519   0.889   1.172   0.178 -0.3184 -0.6667  2.9140
  840SOL    HW2 2520   0.774   1.277   0.109  2.4679  1.0401  0.9230
  841SOL     OW 2521   1.394   2.157   0.043 -0.2137  0.3274 -0.3356
  841SOL    HW1 2522   1.476   2.205   0.066  0.6741 -1.6883 -1.3511
  841SOL    HW2 2523   1.346   2.204   3.066 -0.8819  3.2544 -0.4869
  842SOL     OW 2524   0.080   0.503   0.344 -0.1602 -0.0909 -0.3794
  842SOL    HW1 2525   0.079   0.426   0.411 -2.0131  1.4602 -0.1288
  842SOL    HW2 2526   0.162   0.495   0.283  2.1387 -0.1741  0.8961
  843SOL     OW 2527   0.646   0.597   0.870  0.4161  0.1733 -0.0808
  843SOL    HW1 2528   0.677   0.693   0.866  2.3996 -0.6318  2.1320
  843SOL    HW2 2529   0.583   0.588   0.952 -1.6176 -0.7902  2.6436
  844SOL     OW 2530   2.249   2.474   2.369 -0.8387  0.4658 -0.4508
  844SOL    HW1 2531   2.245   2.567   2.412 -0.7970  0.0187 -2.5806
  844SOL    HW2 2532   2.227   2.400   2.437 -2.4780  0.7240  1.3558
  845SOL     OW 2533   3.078   2.558   1.930  0.2167  0.3824  0.3490
  845SOL    HW1 2534   0.042   2.625   1.971  0.7072 -0.5805 -0.2690
  845SOL    HW2 2535   3.030   2.597   1.847 -1.4161 -2.0806 -2.0987
  846SOL     OW 2536   2.046   1.310   2.557  0.7251  0.3491  0.6128
  846SOL    HW1 2537   1.983   1.233   2.582 -2.1754  1.3095 -0.1740
  846SOL    HW2 2538   1.989   1.381   2.510  2.5156 -0.9201  2.1922
  847SOL     OW 2539   2.706   0.408   1.964  0.2851  0.4004 -0.2982
  847SOL    HW1 2540   2.749   0.496   1.931 -0.2330 -2.1969 -0.6676
  847SOL    HW2 2541   2.779   0.334   1.962  1.5347 -1.3452  0.8163
  848SOL     OW 2542   2.643   2.756   2.995 -0.1002  0.2652  0.2437
  848SOL    HW1 2543   2.686   2.749   3.088 -2.1390 -0.8380 -1.9079
  848SOL    HW2 2544   2.603   2.662   2.965 -0.6516  0.4907 -0.9877
  849SOL     OW 2545   0.450   2.985   0.580 -0.2536 -0.6055  0.3149
  849SOL    HW1 2546   0.467   2.895   0.629  1.3499 -0.2865 -0.7134
  849SOL    HW2 2547   0.353   3.007   0.560 -4.0565  1.4361  0.0180
  850SOL     OW 2548   0.944   2.481   0.355 -0.0016 -0.4119 -0.5786
  850SOL    HW1 2549   1.016   2.554   0.349 -1.8036 -1.8616 -3.0580
  850SOL    HW2 2550   0.952   2.422   0.271 -1.9504  2.2838  0.5140
  851SOL     OW 2551   1.737   0.446   2.790  0.6525  0.1087 -0.0528
  851SOL    HW1 2552   1.780   0.527   2.736 -2.8942  1.2549  0.6637
  851SOL    HW2 2553   1.805   0.371   2.770  2.7427  1.8698 -0.4740
  852SOL     OW 2554   1.655   2.620   2.593 -0.1894 -0.2586 -0.1457
  852SOL    HW1 2555   1.738   2.580   2.552  0.4020 -0.1410 -1.5913
  852SOL    HW2 2556   1.649   2.722   2.568 -0.5621 -0.2975  0.4756
  853SOL     OW 2557   3.059   2.624   0.023  0.3231 -0.1349  0.2293
  853SOL    HW1 2558   0.038   2.597   3.072 -1.6967  2.6126 -0.2496
  853SOL    HW2 2559   3.028   2.720   3.101  0.8734 -0.2061 -0.6346
  854SOL     OW 2560   1.309   0.604   2.488 -0.3727 -0.1653  0.3553
  854SOL    HW1 2561   1.316   0.545   2.406 -1.3765 -0.1135  0.2821
  854SOL    HW2 2562   1.343   0.703   2.469  0.6609 -0.3958  3.4656
  855SOL     OW 2563   0.244   2.651   0.511 -0.8061  0.4194  0.3305
  855SOL    HW1 2564   0.292   2.623   0.428 -0.1618 -1.0777 -0.3552
  855SOL    HW2 2565   0.146   2.655   0.498  1.8155 -1.8360  2.1501
  856SOL     OW 2566   0.203   2.840   2.482 -0.0165 -0.8103 -0.2527
  856SOL    HW1 2567   0.165   2.772   2.421  0.5666 -1.4423  3.3369
  856SOL    HW2 2568   0.287   2.797   2.516  1.9850  1.1343 -0.3169
  857SOL     OW 2569   1.342   3.097   1.654 -0.0639 -0.0198  0.3187
  857SOL    HW1 2570   1.281   3.080   1.574 -1.4828 -2.6564 -0.0197
  857SOL    HW2 2571   1.424   0.048   1.623  1.4643 -0.5749  0.1929
  858SOL     OW 2572   0.162   2.048   1.571  0.5171  0.2878 -0.2422
  858SOL    HW1 2573   0.136   2.142   1.553 -0.3700  2.7581 -0.4567
  858SOL    HW2 2574   0.258   2.048   1.592  0.7977 -0.6198 -1.9573
  859SOL     OW 2575   1.954   2.508   1.944 -0.0565  0.2159  0.3562
  859SOL    HW1 2576   2.001   2.592   1.913 -1.8696 -4.0638  1.1687
  859SOL    HW2 2577   1.980   2.432   1.873  1.9017 -2.5653 -1.7978
  860SOL     OW 2578   1.639   0.102   0.644  0.8003  0.1918  0.5854
  860SOL    HW1 2579   1.583   0.167   0.705  2.1616  0.1959 -0.3054
  860SOL    HW2 2580   1.620   0.006   0.682 -1.0449 -1.8604  0.0016
  861SOL     OW 2581   2.939   0.761   0.741  0.2926  0.0569  0.2789
  861SOL    HW1 2582   2.937   0.680   0.681 -3.1177  0.7726  1.4900
  861SOL    HW2 2583   2.912   0.739   0.832 -1.8392 -3.3796 -3.3407
  862SOL     OW 2584   1.802   0.568   1.977  0.1607 -0.2872 -0.3962
  862SOL    HW1 2585   1.871   0.493   1.975  0.0483 -0.5663 -1.5457
  862SOL    HW2 2586   1.818   0.624   1.894 -0.4520 -2.6567  0.3040
  863SOL     OW 2587   0.885   0.675   1.061  0.0034 -0.1574 -0.1151
  863SOL    HW1 2588   0.905   0.645   0.967  1.1405  0.1627 -0.7653
  863SOL    HW2 2589   0.856   0.596   1.121 -0.2929  2.4143  0.2281
  864SOL     OW 2590   2.961   2.866   2.234  0.3424 -0.4953  0.2656
  864SOL    HW1 2591   2.902   2.825   2.162  0.1350 -0.3234  2.0508
  864SOL    HW2 2592   2.927   2.839   2.327 -0.8377  0.9482  1.6884
  865SOL     OW 2593   1.022   0.820   2.483 -0.1896 -0.1116  0.1485
  865SOL    HW1 2594   1.036   0.721   2.489 -0.1811  2.2187 -0.9089
  865SOL    HW2 2595   0.943   0.849   2.544 -0.1943 -0.3851  0.0843
  866SOL     OW 2596   2.692   2.844   0.461 -0.5424  0.6131 -0.1411
  866SOL    HW1 2597   2.771   2.909   0.449 -0.6354  2.0960 -1.5201
  866SOL    HW2 2598   2.714   2.795   0.553  0.4299 -0.9829  0.6916
  867SOL     OW 2599   2.911   2.898   0.165  0.1019  0.5674 -0.3562
  867SOL    HW1 2600   2.819   2.922   0.202  4.9106 -0.1558  0.1992
  867SOL    HW2 2601   2.930   2.940   0.073  0.2904 -1.4308  0.4510
  868SOL     OW 2602   1.897   1.149   0.100 -0.1776  0.3409 -0.4394
  868SOL    HW1 2603   1.936   1.235   0.061 -2.8777  0.8260 -1.5025
  868SOL    HW2 2604   1.930   1.140   0.196 -0.7954 -2.2368  0.3529
  869SOL     OW 2605   3.002   2.081   0.587  0.5150  0.5568  0.2802
  869SOL    HW1 2606   2.902   2.061   0.587  0.6001  0.6509 -0.2482
  869SOL    HW2 2607   3.037   2.181   0.592 -1.1833  1.0753 -0.7088
  870SOL     OW 2608   2.108   2.061   0.243  0.1045 -0.1055 -0.1491
  870SOL    HW1 2609   2.059   1.992   0.299  0.5231 -0.2554 -2.4342
  870SOL    HW2 2610   2.135   2.022   0.156 -0.8863 -0.4178 -0.9757
  871SOL     OW 2611   0.569   1.241   1.017 -0.0097 -0.4427 -0.1832
  871SOL    HW1 2612   0.486   1.189   1.047 -1.4119  1.8303 -0.6489
  871SOL    HW2 2613   0.643   1.252   1.091 -0.8679  0.6455 -3.6435
  872SOL     OW 2614   1.026   1.873   1.956 -0.1534  0.2774  0.6554
  872SOL    HW1 2615   1.064   1.966   1.946 -1.5136  0.3259  1.4500
  872SOL    HW2 2616   0.959   1.866   2.033  1.9775 -2.2568 -3.3486
  873SOL     OW 2617   0.556   2.458   1.908 -0.2090 -0.1061 -0.5467
  873SOL    HW1 2618   0.596   2.430   1.996 -1.3948 -1.1257 -1.3106
  873SOL    HW2 2619   0.466   2.507   1.915 -2.2191  2.1162 -1.2965
  874SOL     OW 2620   0.796   0.060   1.108  0.2254 -0.2663  0.4424
  874SOL    HW1 2621   0.776   0.070   1.205 -1.4749 -2.7589 -1.1901
  874SOL    HW2 2622   0.719   0.080   1.043  1.4853 -2.1746 -2.3187
  875SOL     OW 2623   2.895   0.256   1.088 -0.2336  0.3905 -0.1123
  875SOL    HW1 2624   2.949   0.346   1.074  1.3593  0.9823  0.5548
  875SOL    HW2 2625   2.898   0.228   1.186  1.1186 -0.5204 -0.1970
  876SOL     OW 2626   0.607   0.670   0.260  0.3194  0.6709 -0.5468
  876SOL    HW1 2627   0.593   0.766   0.302 -2.6034  0.0624  0.1422
  876SOL    HW2 2628   0.649   0.677   0.167  0.3754 -1.3306 -0.3103
  877SOL     OW 2629   0.449   0.513   1.365 -0.7593 -0.4396 -0.1910
  877SOL    HW1 2630   0.541   0.549   1.393  0.5474 -1.0890  0.3856
  877SOL    HW2 2631   0.373   0.578   1.369  2.6591 -1.1857 -1.6866
  878SOL     OW 2632   2.394   2.824   0.140 -0.5006 -0.5361 -0.5251
  878SOL    HW1 2633   2.334   2.759   0.083 -2.7426 -0.8348 -2.5285
  878SOL    HW2 2634   2.335   2.872   0.213 -4.7297 -1.8507  1.6394
  879SOL     OW 2635   2.575   1.532   1.303  0.4338  0.2135  0.3859
  879SOL    HW1 2636   2.520   1.496   1.229  0.5739 -0.7300  3.9430
  879SOL    HW2 2637   2.571   1.634   1.309  0.2861  2.9847 -0.3815
  880SOL     OW 2638   1.477   2.362   0.651 -0.1661  0.4507 -0.1267
  880SOL    HW1 2639   1.549   2.290   0.622  3.1576 -0.6519 -0.3499
  880SOL    HW2 2640   1.386   2.324   0.615  2.0723  0.3159 -1.6048
  881SOL     OW 2641   1.138   2.350   0.118  0.8104  0.0221  0.0894
  881SOL    HW1 2642   1.190   2.418   0.169 -1.1794 -0.1345 -1.9542
  881SOL    HW2 2643   1.162   2.256   0.153 -0.1008 -0.7225  2.0627
  882SOL     OW 2644   1.832   0.758   1.189  0.5216  0.2320 -0.2943
  882SOL    HW1 2645   1.851   0.675   1.251  0.6107 -3.7262  2.9207
  882SOL    HW2 2646   1.732   0.766   1.174  0.4086 -0.7736 -0.1416
  883SOL     OW 2647   1.591   0.729   1.615  0.5193  0.2243 -0.5044
  883SOL    HW1 2648   1.686   0.699   1.633 -2.4013  3.3682  0.4920
  883SOL    HW2 2649   1.553   0.688   1.531  0.4403 -2.9888 -1.4910
  884SOL     OW 2650   2.735   0.588   0.196 -0.4769  0.0941  0.5018
  884SOL    HW1 2651   2.641   0.625   0.214 -0.2577  1.7307 -0.9671
  884SOL    HW2 2652   2.798   0.638   0.258 -0.8799 -0.5769 -1.7823
  885SOL     OW 2653   1.208   1.746   0.058  0.1968 -0.0390 -0.2709
  885SOL    HW1 2654   1.108   1.746   0.077  2.7148 -0.1294  0.4398
  885SOL    HW2 2655   1.219   1.770   3.061  1.0181 -0.6522 -0.9471
  886SOL     OW 2656   1.623   1.503   2.724 -0.3271  0.3696 -0.1820
  886SOL    HW1 2657   1.669   1.557   2.798  0.3239 -4.2362 -1.2634
  886SOL    HW2 2658   1.634   1.404   2.751 -1.0057 -2.0082  1.9340
  887SOL     OW 2659   1.507   0.353   1.487 -0.0570  0.3744 -0.5743
  887SOL    HW1 2660   1.417   0.391   1.518 -4.9068  0.6011  0.3818
  887SOL    HW2 2661   1.525   0.259   1.517  0.7454  0.3487 -2.1292
  888SOL     OW 2662   2.461   0.445   1.807  0.1221 -0.0388 -0.2848
  888SOL    HW1 2663   2.556   0.424   1.843  0.7364 -1.5150  0.8279
  888SOL    HW2 2664   2.419   0.524   1.859  0.0905 -0.4175  0.2977
  889SOL     OW 2665   0.067   2.693   0.773  0.0755 -0.4943  0.3929
  889SOL    HW1 2666   0.083   2.596   0.786  2.7714  4.3200 -1.9603
  889SOL    HW2 2667   0.025   2.697   0.681  0.3620 -0.9791  0.1265
  890SOL     OW 2668   2.233   2.482   0.281 -0.6018 -0.7556  0.0812
  890SOL    HW1 2669   2.277   2.528   0.198 -2.8930 -0.7274 -0.9032
  890SOL    HW2 2670   2.298   2.418   0.325  2.3634  1.6196 -0.5151
  891SOL     OW 2671   0.584   1.350   2.672 -0.1918 -0.3824  0.4050
  891SOL    HW1 2672   0.678   1.309   2.650 -2.0095  1.2528 -0.7625
  891SOL    HW2 2673   0.525   1.341   2.591 -0.1234  1.6687  0.8449
  892SOL     OW 2674   0.126   3.050   1.191  0.0477  0.1031  0.5615
  892SOL    HW1 2675   0.162   0.030   1.234  3.7135 -0.5330 -0.5227
  892SOL    HW2 2676   0.025   3.054   1.164 -1.6615 -2.4395 -0.2637
  893SOL     OW 2677   1.381   0.311   1.227 -0.3424 -0.1426 -0.4439
  893SOL    HW1 2678   1.440   0.330   1.308  1.0829  0.2302  3.5876
  893SOL    HW2 2679   1.280   0.296   1.252 -3.2499 -0.9826  0.6346
  894SOL     OW 2680   2.553   0.683   0.660 -0.3274 -0.1732 -0.3583
  894SOL    HW1 2681   2.619   0.758   0.660 -0.8150  3.6602  0.9411
  894SOL    HW2 2682   2.580   0.596   0.623  0.6709  1.1412  2.3531
  895SOL     OW 2683   1.935   1.879   2.272 -0.4196  0.3361  0.1203
  895SOL    HW1 2684   1.989   1.898   2.357  1.7481 -2.1847  0.2575
  895SOL    HW2 2685   1.977   1.914   2.184  1.6743 -0.2528 -2.6961
  896SOL     OW 2686   1.451   0.035   1.937  0.1878 -0.2018 -0.2468
  896SOL    HW1 2687   1.390   0.119   1.945 -1.5824  1.2568 -2.1206
  896SOL    HW2 2688   1.540   0.056   1.899 -4.1234 -3.3414  2.2252
  897SOL     OW 2689   0.667   1.789   1.956 -0.3653  0.2303  0.3405
  897SOL    HW1 2690   0.729   1.727   1.901  1.3154  0.4643 -2.3315
  897SOL    HW2 2691   0.688   1.886   1.936 -0.9896  0.2971  1.0524
  898SOL     OW 2692   2.547   2.564   2.190  1.1137 -0.3378  0.1219
  898SOL    HW1 2693   2.569   2.468   2.210  0.4082  2.1769 -2.2967
  898SOL    HW2 2694   2.451   2.579   2.164 -0.6542  2.5397  1.3157
  899SOL     OW 2695   1.222   0.965   1.375  0.3437  0.1010 -0.3686
  899SOL    HW1 2696   1.168   1.017   1.302 -0.2482 -2.4106  1.6482
  899SOL    HW2 2697   1.322   0.981   1.362 -2.1501 -1.1941  1.8124
  900SOL     OW 2698   1.564   2.284   2.769 -0.4882 -0.0724 -0.1796
  900SOL    HW1 2699   1.489   2.213   2.748 -1.1081 -2.0556  0.5562
  900SOL    HW2 2700   1.649   2.255   2.714 -0.0055  0.4599 -2.2545
  901SOL     OW 2701   0.695   2.144   2.727 -0.1799  0.2874  0.3626
  901SOL    HW1 2702   0.722   2.047   2.737  0.9800 -0.1141  0.6843
  901SOL    HW2 2703   0.663   2.163   2.630 -4.0492 -0.6072 -1.8757
  902SOL     OW 2704   2.219   1.526   0.313  0.1027  0.2272  0.1058
  902SOL    HW1 2705   2.215   1.428   0.301  0.2553  0.7788 -0.2004
  902SOL    HW2 2706   2.310   1.550   0.347 -2.6598  1.3224 -0.4411
  903SOL     OW 2707   2.264   1.255   0.274  0.3192  0.3912  0.2930
  903SOL    HW1 2708   2.354   1.272   0.318 -1.0085 -0.2068  3.7905
  903SOL    HW2 2709   2.274   1.225   0.181  0.0763  3.7830  2.6463
  904SOL     OW 2710   0.829   0.920   2.653 -0.7991  0.4019 -0.5004
  904SOL    HW1 2711   0.785   0.980   2.583 -1.4503 -3.8064 -0.8454
  904SOL    HW2 2712   0.859   0.971   2.735  1.2001  0.0745  3.1141
  905SOL     OW 2713   2.562   0.479   1.042  0.5084 -0.4759  0.2337
  905SOL    HW1 2714   2.574   0.397   0.984  0.1511  2.1034  2.7293
  905SOL    HW2 2715   2.524   0.454   1.134  0.2408  3.4705  0.7653
  906SOL     OW 2716   2.566   2.209   0.962  0.4324  0.5079 -0.0905
  906SOL    HW1 2717   2.534   2.303   0.929 -4.1712 -1.1460 -1.2584
  906SOL    HW2 2718   2.664   2.212   0.999  0.2892  0.6819  0.7516
  907SOL     OW 2719   1.363   0.504   0.702  0.2337 -0.2919 -0.2186
  907SOL    HW1 2720   1.374   0.496   0.599  3.2219 -0.7914 -0.2772
  907SOL    HW2 2721   1.296   0.579   0.722  0.2455 -0.6096  1.0278
  908SOL     OW 2722   2.167   3.020   1.504  0.4751 -0.1180  0.1502
  908SOL    HW1 2723   2.115   3.099   1.463  0.4357 -0.3299  1.2160
  908SOL    HW2 2724   2.166   3.018   1.610  3.2433 -0.2237  2.8813
  909SOL     OW 2725   2.556   0.764   1.525  0.0134  0.1607  0.4905
  909SOL    HW1 2726   2.610   0.702   1.468 -1.2032 -2.2039  1.3443
  909SOL    HW2 2727   2.613   0.840   1.563 -0.0547 -1.6677  1.1445
  910SOL     OW 2728   1.344   2.786   2.280  0.3158  0.1638 -0.1733
  910SOL    HW1 2729   1.276   2.841   2.224  0.4239 -0.1411  0.5865
  910SOL    HW2 2730   1.437   2.836   2.272  0.9365 -0.2957 -2.9002
  911SOL     OW 2731   1.970   0.380   1.956 -0.3482 -0.1449  0.2357
  911SOL    HW1 2732   1.974   0.284   1.927  0.2411  1.6735 -1.6770
  911SOL    HW2 2733   2.059   0.421   1.944 -4.9401 -1.0571  1.3337
  912SOL     OW 2734   2.516   1.989   1.518  0.2624 -0.4336  0.1272
  912SOL    HW1 2735   2.575   2.018   1.440 -1.9990 -1.0936  2.7039
  912SOL    HW2 2736   2.531   2.052   1.595  1.6775  1.0467 -0.9451
  913SOL     OW 2737   2.716   2.104   1.383 -0.1658 -0.2074  0.2171
  913SOL    HW1 2738   2.676   2.190   1.419  2.9689 -1.2177  1.9214
  913SOL    HW2 2739   2.819   2.112   1.398  1.5198  2.7209  1.1281
  914SOL     OW 2740   2.137   1.423   1.426 -0.0866 -0.0262  0.2513
  914SOL    HW1 2741   2.235   1.402   1.442 -0.3034  0.7426  0.5625
  914SOL    HW2 2742   2.121   1.456   1.332  1.7452 -1.3654  2.0717
  915SOL     OW 2743   0.734   1.279   1.253  0.0095 -0.2712  0.2843
  915SOL    HW1 2744   0.690   1.217   1.318  0.4191  2.5031  1.7796
  915SOL    HW2 2745   0.825   1.240   1.218  1.0186 -1.8480 -2.1688
  916SOL     OW 2746   2.183   2.541   1.232  0.2407  0.0710  0.0780
  916SOL    HW1 2747   2.256   2.509   1.295  0.1988 -1.3502 -0.6479
  916SOL    HW2 2748   2.164   2.638   1.250  0.3460 -0.6873  2.5790
  917SOL     OW 2749   2.420   1.711   0.081  0.1784 -0.2095 -0.5732
  917SOL    HW1 2750   2.436   1.757   0.171 -0.1377 -1.8372  0.6231
  917SOL    HW2 2751   2.497   1.736   0.020  0.1460  4.3415 -1.2071
  918SOL     OW 2752   1.937   2.436   2.624  0.0091 -0.2680  0.0991
  918SOL    HW1 2753   1.868   2.365   2.647 -2.0485  1.2444  2.3417
  918SOL    HW2 2754   2.036   2.400   2.625  1.8459 -1.0363  0.5538
  919SOL     OW 2755   1.419   2.005   1.731 -0.1476  0.2181  0.3764
  919SOL    HW1 2756   1.495   1.944   1.763  2.4269 -1.5919  0.6853
  919SOL    HW2 2757   1.451   2.042   1.638 -1.6034 -0.0378 -0.7620
  920SOL     OW 2758   2.925   0.188   2.723  0.1733  0.0353  0.5090
  920SOL    HW1 2759   3.005   0.252   2.731 -1.1451 -2.0009  1.7304
  920SOL    HW2 2760   2.849   0.230   2.665 -3.0347  1.0398 -1.6919
  921SOL     OW 2761   2.607   0.268   2.178 -0.1661  0.3420 -0.6795
  921SOL    HW1 2762   2.626   0.176   2.147 -0.8906 -2.3163  0.7270
  921SOL    HW2 2763   2.639   0.335   2.108 -2.2703 -0.8235 -0.6772
  922SOL     OW 2764   2.006   2.308   0.268 -0.0718 -0.3011 -0.8955
  922SOL    HW1 2765   2.091   2.365   0.265  0.5570  0.0994  1.8441
  922SOL    HW2 2766   2.031   2.210   0.279 -2.2120  0.6669  1.5013
  923SOL     OW 2767   0.284   2.095   0.311  0.1068  0.1849  0.2346
  923SOL    HW1 2768   0.304   2.079   0.207 -0.0805 -1.5411 -2.5832
  923SOL    HW2 2769   0.211   2.170   0.321 -1.1595 -1.6822  1.2819
  924SOL     OW 2770   0.810   0.471   0.041  0.3472  0.0440 -0.2549
  924SOL    HW1 2771   0.837   0.439   0.132  0.2004 -0.3228 -3.7993
  924SOL    HW2 2772   0.793   0.570   0.043  2.8647  0.7525  1.5462
  925SOL     OW 2773   2.428   1.047   0.730 -0.1806 -0.4054  0.1020
  925SOL    HW1 2774   2.444   1.082   0.634 -1.0022  0.8062 -1.4960
  925SOL    HW2 2775   2.350   1.091   0.770 -1.0214 -1.0120 -1.8619
  926SOL     OW 2776   2.922   0.941   0.969 -0.0044  0.2461 -0.2332
  926SOL    HW1 2777   2.886   0.918   1.062  0.1954 -0.4099 -0.7572
  926SOL    HW2 2778   3.008   0.992   0.972 -1.1022 -1.1669 -0.8399
  927SOL     OW 2779   0.067   1.013   2.943 -0.2266 -0.0576 -0.0290
  927SOL    HW1 2780   0.142   0.943   2.973  3.7554 -0.3857  0.3467
  927SOL    HW2 2781   0.113   1.101   2.915  0.5908 -0.5913  0.5272
  928SOL     OW 2782   3.047   0.329   2.296 -0.7211 -0.4458 -0.0137
  928SOL    HW1 2783   3.087   0.415   2.334 -0.4270  0.6843 -1.7975
  928SOL    HW2 2784   0.016   0.256   2.295  2.1683 -0.4997 -0.6133
  929SOL     OW 2785   0.121   2.777   1.036 -0.2441  0.9261  0.1881
  929SOL    HW1 2786   0.130   2.878   1.033 -0.1060 -1.2918  1.5435
  929SOL    HW2 2787   0.071   2.733   0.960 -0.8191 -0.3435  1.3396
  930SOL     OW 2788   1.978   1.609   1.575 -0.1816 -0.5249  0.2057
  930SOL    HW1 2789   2.049   1.543   1.537  0.6461 -1.9805 -1.5995
  930SOL    HW2 2790   1.984   1.703   1.529 -0.0550  2.6990 -1.3180
  931SOL     OW 2791   1.272   1.643   0.833  0.2041  0.1322  0.1284
  931SOL    HW1 2792   1.329   1.666   0.916  2.0289  0.4832  0.7459
  931SOL    HW2 2793   1.256   1.721   0.767  0.4220 -0.2406 -1.2930
  932SOL     OW 2794   2.650   1.290   1.014 -0.0275  0.4041 -0.0195
  932SOL    HW1 2795   2.639   1.204   1.064 -0.5657 -0.9830 -3.6760
  932SOL    HW2 2796   2.571   1.352   1.033  1.3046 -2.2605 -0.3803
  933SOL     OW 2797   2.497   1.800   1.320 -0.0098  0.0850  0.0657
  933SOL    HW1 2798   2.415   1.782   1.268  0.7870  0.1538  3.0836
  933SOL    HW2 2799   2.487   1.865   1.398 -1.2428 -1.4825  0.3403
  934SOL     OW 2800   1.769   2.761   1.290  0.6145  0.5273  0.0498
  934SOL    HW1 2801   1.854   2.789   1.330 -3.3239 -1.9109 -0.4226
  934SOL    HW2 2802   1.781   2.692   1.217 -1.8830  0.3342 -0.9718
  935SOL     OW 2803   0.170   1.326   0.850  0.0996  0.3103  0.0027
  935SOL    HW1 2804   0.139   1.416   0.816  1.7261 -1.9457  2.0841
  935SOL    HW2 2805   0.106   1.251   0.828 -1.2077  0.2950 -0.0516
  936SOL     OW 2806   3.103   1.361   0.545 -0.1037 -0.5751  0.1956
  936SOL    HW1 2807   3.066   1.284   0.600  1.0175  1.9058 -2.4820
  936SOL    HW2 2808   0.018   1.434   0.608 -0.1438 -1.8996  1.8558
  937SOL     OW 2809   1.663   2.684   0.907  0.2582 -0.1939  0.1637
  937SOL    HW1 2810   1.596   2.675   0.988 -0.3218 -1.7245 -0.6893
  937SOL    HW2 2811   1.640   2.771   0.856  3.6281 -0.7783 -0.4994
  938SOL     OW 2812   2.490   2.453   0.868 -0.1608 -0.1988  0.3384
  938SOL    HW1 2813   2.453   2.484   0.778 -4.0045  0.3555 -0.4468
  938SOL    HW2 2814   2.532   2.535   0.918  2.3456  1.8778  0.7042
  939SOL     OW 2815   0.476   2.193   0.126  0.1402 -0.8531 -0.3773
  939SOL    HW1 2816   0.559   2.255   0.126  2.2675 -0.1637  2.9696
  939SOL    HW2 2817   0.499   2.102   0.167  1.1273  1.7035 -0.4438
  940SOL     OW 2818   3.041   0.056   2.939 -0.2244 -0.7855 -0.3554
  940SOL    HW1 2819   3.043   0.120   3.019  0.2256 -2.2481 -1.9683
  940SOL    HW2 2820   2.980   0.084   2.860  0.2302 -0.2766  1.2804
  941SOL     OW 2821   1.265   0.067   0.005  0.2000  0.0183 -0.0289
  941SOL    HW1 2822   1.283   3.071   0.014  0.2355  1.6682  3.7445
  941SOL    HW2 2823   1.350   0.112   3.071  1.3658  1.7653  0.5600
  942SOL     OW 2824   0.977   1.468   1.578  0.0754 -0.1224 -0.0142
  942SOL    HW1 2825   0.913   1.392   1.605  0.7603  0.0266 -1.8312
  942SOL    HW2 2826   0.954   1.561   1.617 -1.1610 -2.9045  1.4178
  943SOL     OW 2827   1.990   1.176   1.398 -0.4019 -0.2186 -0.1339
  943SOL    HW1 2828   1.938   1.168   1.489 -1.7653  0.7163 -0.3645
  943SOL    HW2 2829   2.046   1.261   1.394  0.8061  1.2762  0.5994
  944SOL     OW 2830   1.832   0.657   1.709 -0.3670  0.9045 -0.0873
  944SOL    HW1 2831   1.794   0.568   1.673  2.8071  0.1663 -1.2098
  944SOL    HW2 2832   1.918   0.682   1.665 -1.7566 -2.2225  0.0451
  945SOL     OW 2833   0.140   2.944   0.779 -0.3473  0.0073 -0.0900
  945SOL    HW1 2834   0.130   2.839   0.779  1.3013 -2.3563 -1.7697
  945SOL    HW2 2835   0.202   2.983   0.853 -2.2073  1.1235  2.9315
  946SOL     OW 2836   0.464   0.814   1.535 -0.2300 -0.2518 -0.3045
  946SOL    HW1 2837   0.391   0.788   1.470  3.3423 -0.1857 -0.6116
  946SOL    HW2 2838   0.430   0.860   1.619  2.0449 -0.4657 -1.3629
  947SOL     OW 2839   0.486   2.689   0.627 -0.0228 -0.1809 -0.4444
  947SOL    HW1 2840   0.395   2.676   0.579 -0.9924 -0.0677 -0.4857
  947SOL    HW2 2841   0.502   2.615   0.695 -0.0464  0.2463  0.3692
  948SOL     OW 2842   2.785   1.311   1.845  0.3377  0.6304 -0.5831
  948SOL    HW1 2843   2.684   1.325   1.822 -4.9577  0.0828 -0.2002
  948SOL    HW2 2844   2.827   1.240   1.784 -1.5807  3.5903  0.5145
  949SOL     OW 2845   0.400   1.276   2.484 -0.1298  0.2622  0.2160
  949SOL    HW1 2846   0.450   1.209   2.426 -1.2056  1.0737  0.9940
  949SOL    HW2 2847   0.297   1.256   2.477  2.2386 -0.8723 -0.4891
  950SOL     OW 2848   1.030   0.595   0.834  0.6804  0.6429  0.0104
  950SOL    HW1 2849   1.089   0.559   0.907 -1.9119  1.1101 -1.7701
  950SOL    HW2 2850   1.093   0.648   0.770 -1.6068  1.6731  1.2761
  951SOL     OW 2851   1.020   2.358   2.155 -0.0352 -0.0885 -0.1151
  951SOL    HW1 2852   1.036   2.451   2.111 -1.3410 -0.5684  2.7923
  951SOL    HW2 2853   1.108   2.306   2.175  2.2115 -2.1968  1.7942
  952SOL     OW 2854   0.514   1.929   0.201 -0.1680  0.5851  0.0116
  952SOL    HW1 2855   0.577   1.890   0.276  0.9117  2.3624  2.2432
  952SOL    HW2 2856   0.455   1.855   0.166 -2.2699 -1.4250 -1.4643
  953SOL     OW 2857   2.040   2.842   2.312  0.1421 -0.0087  0.4959
  953SOL    HW1 2858   2.055   2.923   2.246 -1.6789 -0.9962 -0.8897
  953SOL    HW2 2859   2.000   2.772   2.252  0.5450  2.4449  2.7298
  954SOL     OW 2860   1.506   1.283   0.933 -0.7845  0.2353  0.1416
  954SOL    HW1 2861   1.524   1.307   0.834  0.8389  0.5301  0.7281
  954SOL    HW2 2862   1.408   1.249   0.937  0.1328  0.4632  1.4358
  955SOL     OW 2863   0.405   2.208   2.357  0.5726 -0.6597 -0.5029
  955SOL    HW1 2864   0.355   2.239   2.270 -0.7269 -0.1044 -1.5001
  955SOL    HW2 2865   0.370   2.259   2.438  0.1538 -0.9034  2.1855
  956SOL     OW 2866   1.757   0.453   1.567 -0.1446 -0.3007  0.5123
  956SOL    HW1 2867   1.798   0.483   1.478 -0.0472 -1.9130 -1.6035
  956SOL    HW2 2868   1.658   0.419   1.555  1.0567  1.5960  0.7477
  957SOL     OW 2869   1.936   1.995   2.707  0.4010  0.5136  0.4662
  957SOL    HW1 2870   1.985   1.938   2.637 -0.6598  0.8468 -1.6321
  957SOL    HW2 2871   1.844   1.958   2.720  2.0470  0.3849  1.1372
  958SOL     OW 2872   1.019   2.335   1.113 -0.2898 -0.2607 -0.8368
  958SOL    HW1 2873   1.077   2.304   1.034  0.2038 -1.8199 -1.7587
  958SOL    HW2 2874   0.954   2.412   1.094  0.1430 -0.2154  0.0382
  959SOL     OW 2875   1.925   2.466   2.929  0.1393  0.5508 -0.2867
  959SOL    HW1 2876   1.883   2.393   2.982  2.1607 -0.6964 -3.5864
  959SOL    HW2 2877   1.858   2.498   2.860  0.6820  0.9570  0.0214
  960SOL     OW 2878   0.072   0.320   2.668  0.1227 -0.2056  0.0032
  960SOL    HW1 2879   0.108   0.229   2.648  1.8723  2.1559 -0.9101
  960SOL    HW2 2880   0.141   0.364   2.732  1.1989  1.4380 -0.3036
  961SOL     OW 2881   0.767   1.116   2.464  0.2043  1.2337  0.1156
  961SOL    HW1 2882   0.824   1.191   2.497 -1.7761 -1.2123 -3.2654
  961SOL    HW2 2883   0.822   1.069   2.393  2.7505  1.0282 -0.9007
  962SOL     OW 2884   1.025   1.316   3.021 -0.4046  0.2603  0.5315
  962SOL    HW1 2885   1.128   1.321   3.041  2.2005  1.5396  4.5672
  962SOL    HW2 2886   0.969   1.295   3.099 -0.4342 -0.0526 -1.9373
  963SOL     OW 2887   2.496   1.726   2.844  0.5478 -0.9427 -0.9100
  963SOL    HW1 2888   2.550   1.745   2.928 -0.7076 -3.1987  0.5560
  963SOL    HW2 2889   2.476   1.809   2.792 -2.5296 -1.2252 -0.7686
  964SOL     OW 2890   1.445   2.645   1.066  0.4829  0.7823 -0.6577
  964SOL    HW1 2891   1.397   2.607   0.984 -0.5904  0.9681  3.2668
  964SOL    HW2 2892   1.471   2.568   1.128  1.6466  0.4690  0.4697
  965SOL     OW 2893   0.980   1.723   0.949  0.1643  0.0121  0.5752
  965SOL    HW1 2894   0.950   1.728   1.045 -0.0958 -1.9778  0.9401
  965SOL    HW2 2895   1.076   1.757   0.947 -0.4656  0.3234 -0.6427
  966SOL     OW 2896   0.100   1.511   3.035 -0.3240  0.4981  0.3151
  966SOL    HW1 2897   0.151   1.577   2.982  1.9255 -0.9050 -1.1375
  966SOL    HW2 2898   0.017   1.546   3.079  0.7778 -1.1846 -1.2429
  967SOL     OW 2899   1.708   0.060   1.859 -0.1882 -0.1722  0.3184
  967SOL    HW1 2900   1.761   0.075   1.945  1.8203 -0.8180 -0.9816
  967SOL    HW2 2901   1.759   3.097   1.806  1.7709 -0.1011  2.0545
  968SOL     OW 2902   1.799   0.922   0.672 -0.0631  0.3893  0.3954
  968SOL    HW1 2903   1.763   0.938   0.765 -0.2453  0.4756  0.0039
  968SOL    HW2 2904   1.869   0.995   0.646  4.4444 -1.0974 -1.1745
  969SOL     OW 2905   0.235   1.211   2.165  0.2714  0.0406 -0.3974
  969SOL    HW1 2906   0.307   1.182   2.098 -1.3722  0.5226 -0.0485
  969SOL    HW2 2907   0.261   1.301   2.207 -0.3415 -3.8574  1.6299
  970SOL     OW 2908   2.404   1.440   1.105 -0.3180 -0.1477 -0.5366
  970SOL    HW1 2909   2.319   1.387   1.115  1.5577  0.9418  1.1622
  970SOL    HW2 2910   2.405   1.491   1.018 -0.1117 -1.4388 -0.0746
  971SOL     OW 2911   0.515   0.162   1.358 -0.2319  0.1311  0.5761
  971SOL    HW1 2912   0.498   0.207   1.448  2.7060  0.4532 -0.6387
  971SOL    HW2 2913   0.596   0.105   1.369 -1.4033  1.8296 -0.1249
  972SOL     OW 2914   0.635   0.610   2.702  0.0213 -0.0555  0.0082
  972SOL    HW1 2915   0.630   0.697   2.654  0.2137 -3.4231  0.5085
  972SOL    HW2 2916   0.583   0.526   2.668 -0.3556  0.1017 -1.2231
  973SOL     OW 2917   0.061   1.069   1.070 -0.3938  0.0065  0.2977
  973SOL    HW1 2918   0.022   1.135   1.138  0.1451 -2.6257 -1.3741
  973SOL    HW2 2919   0.150   1.098   1.024  4.0015  0.7020  0.8340
  974SOL     OW 2920   2.288   0.901   1.922 -0.1065 -0.3975 -0.3637
  974SOL    HW1 2921   2.237   0.954   1.852  0.5479 -0.9424  1.0790
  974SOL    HW2 2922   2.363   0.849   1.871 -1.2590 -2.2693  0.4407
  975SOL     OW 2923   2.540   0.128   0.100 -0.1969  0.1298 -0.2511
  975SOL    HW1 2924   2.541   0.046   0.036  0.9587 -1.1542 -0.7690
  975SOL    HW2 2925   2.466   0.192   0.076  1.2531 -0.2989  2.6191
  976SOL     OW 2926   2.886   1.163   1.582  0.0525 -0.2364  0.1182
  976SOL    HW1 2927   2.879   1.239   1.514 -1.8821 -1.4535  0.5811
  976SOL    HW2 2928   2.977   1.138   1.606 -1.5562 -1.0842  1.0872
  977SOL     OW 2929   0.929   2.888   3.020  0.5504  0.9018 -0.2260
  977SOL    HW1 2930   0.974   2.981   3.010  0.1805  1.3965 -3.9632
  977SOL    HW2 2931   0.902   2.866   0.011  0.8517  0.7698  0.1128
  978SOL     OW 2932   0.332   1.617   0.340 -0.2235  0.4484 -0.4999
  978SOL    HW1 2933   0.289   1.519   0.346  0.1782 -4.2703  1.8986
  978SOL    HW2 2934   0.419   1.618   0.391 -1.3424 -0.2182 -1.6854
  979SOL     OW 2935   1.551   1.621   1.559 -0.2658  0.9567  0.0041
  979SOL    HW1 2936   1.604   1.708   1.540  2.1549  1.4540 -3.9555
  979SOL    HW2 2937   1.616   1.545   1.577 -2.3439 -0.7876 -3.0713
  980SOL     OW 2938   0.414   1.419   1.935 -0.0856  0.2272  0.0393
  980SOL    HW1 2939   0.494   1.433   1.874 -1.5370 -0.3758  2.2078
  980SOL    HW2 2940   0.329   1.409   1.885 -0.2721 -0.3213  1.1851
  981SOL     OW 2941   2.997   1.572   0.075 -0.2396  0.1055  0.2394
  981SOL    HW1 2942   2.933   1.644   0.108  0.1864  2.5052  1.0121
  981SOL    HW2 2943   3.052   1.548   0.158 -0.6052 -1.6102 -1.7788
  982SOL     OW 2944   2.498   2.424   2.515  0.3641  0.1069 -0.1705
  982SOL    HW1 2945   2.427   2.454   2.448  0.0214 -3.2126 -1.4757
  982SOL    HW2 2946   2.536   2.507   2.565  3.0145  0.4270 -0.0229
  983SOL     OW 2947   1.309   0.492   1.608 -0.2139  0.0034  0.2326
  983SOL    HW1 2948   1.337   0.571   1.668 -0.5055  0.3376  0.6226
  983SOL    HW2 2949   1.241   0.521   1.542  0.3678 -0.3922  1.8666
  984SOL     OW 2950   1.063   0.097   2.655 -0.8269  0.1956 -0.1801
  984SOL    HW1 2951   1.148   0.149   2.680  0.1242  0.6229  0.5390
  984SOL    HW2 2952   0.991   0.102   2.725  0.5663  3.3602 -1.5682
  985SOL     OW 2953   1.671   2.338   1.590 -0.0202 -0.2264 -0.0693
  985SOL    HW1 2954   1.661   2.385   1.683  0.5747  2.9782  1.0419
  985SOL    HW2 2955   1.740   2.380   1.526  1.6793  1.3432 -1.7762
  986SOL     OW 2956   2.383   3.011   2.211  0.3994  0.0258  0.0865
  986SOL    HW1 2957   2.357   2.986   2.114 -3.0821 -2.1915  0.9915
  986SOL    HW2 2958   2.339   3.097   2.228 -1.5303 -0.4683  0.9443
  987SOL     OW 2959   2.341   0.320   2.152  0.5040 -0.1413  0.6022
  987SOL    HW1 2960   2.432   0.299   2.182 -4.9333 -3.8451 -2.6525
  987SOL    HW2 2961   2.325   0.423   2.155 -1.6057  1.7382 -0.2523
  988SOL     OW 2962   2.605   0.674   2.616 -0.9406  0.2826  0.0138
  988SOL    HW1 2963   2.527   0.732   2.658 -4.0478  0.0055 -0.4407
  988SOL    HW2 2964   2.635   0.722   2.529 -2.9000 -0.7440  1.9671
  989SOL     OW 2965   2.365   2.189   2.185  0.5076  0.9649 -0.7038
  989SOL    HW1 2966   2.364   2.090   2.158  0.0439  0.3751  1.8425
  989SOL    HW2 2967   2.459   2.221   2.215  2.4260  1.9200  2.7845
  990SOL     OW 2968   0.379   1.160   2.806  0.6889  0.3103 -0.0357
  990SOL    HW1 2969   0.293   1.213   2.811 -1.2926  0.8930 -0.5444
  990SOL    HW2 2970   0.449   1.211   2.755 -1.0543 -3.5402  0.2035
  991SOL     OW 2971   0.756   1.628   2.736 -0.3509  0.4127 -0.2767
  991SOL    HW1 2972   0.682   1.566   2.707  0.2455 -1.4212  0.5948
  991SOL    HW2 2973   0.726   1.695   2.803  1.8471 -0.5943 -0.8699
  992SOL     OW 2974   3.040   2.121   1.887  0.4109 -0.5799  0.7841
  992SOL    HW1 2975   3.094   2.204   1.860  0.5333  2.2873  0.3718
  992SOL    HW2 2976   3.029   2.053   1.815  0.6149  0.4585  1.6734
  993SOL     OW 2977   0.613   0.068   0.902 -0.3531  0.1231 -0.4170
  993SOL    HW1 2978   0.623   3.076   0.872  1.0498  0.5064 -1.0509
  993SOL    HW2 2979   0.615   0.118   0.814 -0.9885  0.1122 -1.4725
  994SOL     OW 2980   0.158   1.813   1.404 -0.2443 -0.5112  0.0686
  994SOL    HW1 2981   0.218   1.740   1.447 -1.1097  0.8774  1.0486
  994SOL    HW2 2982   0.161   1.895   1.461  1.0407 -1.3677 -0.9036
  995SOL     OW 2983   2.137   1.640   2.420  0.4370  0.1580 -0.1193
  995SOL    HW1 2984   2.233   1.625   2.447 -0.7246  0.8757 -0.5368
  995SOL    HW2 2985   2.129   1.644   2.320  3.6265  1.8940  1.4569
  996SOL     OW 2986   2.048   1.387   2.873  0.3012  0.3063 -0.1346
  996SOL    HW1 2987   2.108   1.472   2.861  2.4405  2.3302  2.5993
  996SOL    HW2 2988   1.996   1.370   2.788  0.1866  0.2297 -2.0887
  997SOL     OW 2989   1.749   0.844   1.901 -0.3603  0.3310  0.3729
  997SOL    HW1 2990   1.771   0.791   1.819  0.9057 -0.2572 -1.1571
  997SOL    HW2 2991   1.799   0.934   1.900  0.7940 -0.5280 -0.4061
  998SOL     OW 2992   2.471   2.132   1.218 -0.0358  0.0795 -0.2492
  998SOL    HW1 2993   2.474   2.154   1.121  0.4903  1.0227  2.0331
  998SOL    HW2 2994   2.565   2.113   1.254  1.8956 -0.0126  3.1257
  999SOL     OW 2995   2.295   2.261   0.599  0.2281  0.5470  0.2201
  999SOL    HW1 2996   2.241   2.244   0.684 -1.2269 -0.2070 -2.2266
  999SOL    HW2 2997   2.319   2.360   0.586 -1.4115 -0.8459  0.0727
 1000SOL     OW 2998   1.154   2.975   2.498 -0.8944 -0.2830 -0.0273
 1000SOL    HW1 2999   1.152   3.048   2.570  3.6613 -1.6199 -1.3935
 1000SOL    HW2 3000   1.210   2.895   2.533  0.5810  0.8210  0.9239
   3.10333   3.10333   3.10333
