1000 SPC/Fw water molecules t= 419.00000 step= 419000
 3000
    1SOL     OW    1   0.133   0.005   1.187 -0.0350  0.1136 -0.6147
    1SOL    HW1    2   0.211   0.040   1.242  0.8534 -1.1281 -1.6964
    1SOL    HW2    3   0.085   3.022   1.237 -2.1842 -0.6075  2.8609
    2SOL     OW    4   2.660   3.036   0.190 -0.4450 -0.2924 -0.2581
    2SOL    HW1    5   2.572   2.985   0.169 -1.0655  0.5112 -1.0470
    2SOL    HW2    6   2.684   0.000   0.109  0.4802  0.4578  0.0253
    3SOL     OW    7   1.594   2.587   2.990 -1.1008 -0.0934  0.0919
    3SOL    HW1    8   1.671   2.620   2.928  1.2847 -1.4272 -3.6588
    3SOL    HW2    9   1.504   2.632   2.961 -0.7006 -0.1819 -0.5066
    4SOL     OW   10   1.002   0.012   2.347  0.4794  0.0315  0.3061
    4SOL    HW1   11   0.953   3.072   2.427 -0.8018 -0.2365 -2.1122
    4SOL    HW2   12   1.020   3.040   2.274  0.9714 -0.4878 -0.1686
    5SOL     OW   13   2.262   0.090   1.863  0.1774  0.2524 -0.0092
    5SOL    HW1   14   2.200   0.009   1.875  1.8942  2.8341 -0.9493
    5SOL    HW2   15   2.210   0.176   1.843 -0.2790 -1.3405 -0.9145
    6SOL     OW   16   2.523   1.801   1.422  0.2873  0.7128  0.0648
    6SOL    HW1   17   2.529   1.777   1.321 -1.1337 -1.5511  0.5755
    6SOL    HW2   18   2.458   1.738   1.474 -3.7651 -3.0014 -1.1622
    7SOL     OW   19   2.016   1.192   0.717  0.1163  0.1191 -0.6906
    7SOL    HW1   20   2.012   1.283   0.757 -2.0871 -3.9641  0.0503
    7SOL    HW2   21   2.113   1.159   0.697  0.5069 -1.3820 -0.1989
    8SOL     OW   22   0.373   1.604   1.026 -0.9325  0.2641 -0.1124
    8SOL    HW1   23   0.467   1.641   1.051 -1.3715  2.9399  0.4700
    8SOL    HW2   24   0.320   1.588   1.109 -0.6010 -2.0324  1.1752
    9SOL     OW   25   0.025   2.898   1.308 -0.0391  0.0751 -0.2309
    9SOL    HW1   26   3.059   2.883   1.395 -3.6071  0.0609  1.8770
    9SOL    HW2   27   3.081   2.856   1.224  1.5019  0.4094  2.9852
   10SOL     OW   28   1.204   2.241   0.530  0.6351 -0.2963  0.5331
   10SOL    HW1   29   1.288   2.231   0.472  1.0460 -1.6913  2.3531
   10SOL    HW2   30   1.131   2.282   0.469 -2.1990 -0.6869 -1.8575
   11SOL     OW   31   1.723   1.954   1.088  0.6611 -0.4539  0.0013
   11SOL    HW1   32   1.788   1.880   1.119 -1.5896  0.3085  0.9007
   11SOL    HW2   33   1.730   1.962   0.987  3.9722  0.5379 -0.9232
   12SOL     OW   34   2.953   0.740   2.179 -0.1347  0.3377 -0.8233
   12SOL    HW1   35   2.960   0.819   2.118 -0.0715 -0.7538 -1.8047
   12SOL    HW2   36   2.937   0.659   2.124 -1.6824  1.2697 -0.5046
   13SOL     OW   37   2.461   2.842   0.154  0.0788 -0.3820  0.8669
   13SOL    HW1   38   2.456   2.845   0.050 -1.4393 -0.8517 -2.1911
   13SOL    HW2   39   2.492   2.751   0.182  0.1013  1.7158  0.3379
   14SOL     OW   40   1.323   1.768   0.004 -0.0853 -0.6212  0.4274
   14SOL    HW1   41   1.300   1.695   3.035 -1.4831 -2.5735  2.3024
   14SOL    HW2   42   1.426   1.773   0.020  1.7266  0.1455  0.8423
   15SOL     OW   43   2.824   2.802   1.956  0.2328 -0.2206 -0.4701
   15SOL    HW1   44   2.913   2.790   1.905  0.1064  1.5303  0.2204
   15SOL    HW2   45   2.804   2.898   1.984 -0.5793  1.2759  0.2707
   16SOL     OW   46   2.847   0.355   0.783 -0.4291  0.0771  0.0013
   16SOL    HW1   47   2.945   0.368   0.810  0.0510 -0.8891 -1.2432
   16SOL    HW2   48   2.837   0.276   0.715  0.7142 -2.5235 -0.5853
   17SOL     OW   49   1.195   0.106   0.779  0.0242  0.0717  0.4661
   17SOL    HW1   50   1.101   0.112   0.739 -1.6982 -0.0278 -1.5881
   17SOL    HW2   51   1.208   0.015   0.821 -1.4561  1.7914  2.0291
   18SOL     OW   52   1.314   0.186   1.009 -0.3101  0.4247 -0.5342
   18SOL    HW1   53   1.420   0.192   1.001  3.7203 -0.8201 -0.5280
   18SOL    HW2   54   1.272   0.162   0.920 -0.2177 -0.9975  1.9312
   19SOL     OW   55   2.237   0.851   0.596 -0.2974  0.8702 -0.1550
   19SOL    HW1   56   2.247   0.944   0.626 -0.1379 -3.7044 -2.3817
   19SOL    HW2   57   2.170   0.835   0.522  0.9374  1.0501  2.9427
   20SOL     OW   58   2.389   1.752   2.555 -0.1857  0.3340  0.1207
   20SOL    HW1   59   2.410   1.683   2.481  1.7310  0.3952 -1.0021
   20SOL    HW2   60   2.443   1.835   2.548  1.2339 -1.5440  0.1236
   21SOL     OW   61   1.337   0.074   0.184  0.0774  0.3695  0.2279
   21SOL    HW1   62   1.364   0.015   0.264 -0.0060  1.3583 -1.2904
   21SOL    HW2   63   1.234   0.072   0.179 -0.6809  0.4262  1.9268
   22SOL     OW   64   2.855   1.131   0.899 -0.0682 -0.0080  0.2289
   22SOL    HW1   65   2.797   1.102   0.975 -1.0340 -1.9214 -0.6715
   22SOL    HW2   66   2.811   1.195   0.831 -0.6866 -1.1828 -0.1137
   23SOL     OW   67   0.735   0.245   2.079  0.4247  0.3793 -0.2085
   23SOL    HW1   68   0.831   0.234   2.050 -1.5159 -0.3895 -3.3732
   23SOL    HW2   69   0.690   0.311   2.017 -1.2680  0.7258  1.0726
   24SOL     OW   70   2.365   2.159   0.906 -0.9128 -0.2298  0.4674
   24SOL    HW1   71   2.297   2.225   0.874 -0.7413 -0.0282 -0.8801
   24SOL    HW2   72   2.323   2.106   0.982  0.1275  0.5021 -2.2908
   25SOL     OW   73   1.712   3.032   2.418 -0.0029  0.1251 -0.2808
   25SOL    HW1   74   1.647   0.011   2.388 -0.6721 -0.3241 -1.0995
   25SOL    HW2   75   1.683   3.006   2.512  1.6877 -3.0411 -1.5828
   26SOL     OW   76   1.560   2.325   3.069  0.2476  0.9078  0.4247
   26SOL    HW1   77   1.591   2.420   3.049  1.2947  0.8433 -1.2405
   26SOL    HW2   78   1.554   2.269   2.982  0.4664  2.9059 -1.0950
   27SOL     OW   79   1.651   0.600   1.453  0.3507 -0.0566 -0.5411
   27SOL    HW1   80   1.693   0.579   1.365  0.6033 -0.2408  2.4493
   27SOL    HW2   81   1.704   0.675   1.498 -0.8429 -0.8544  2.3861
   28SOL     OW   82   1.119   1.473   0.602 -0.3673 -0.1805  0.0424
   28SOL    HW1   83   1.037   1.501   0.653 -2.2653 -0.4932  0.9995
   28SOL    HW2   84   1.202   1.511   0.651  1.3625 -1.4426  1.0417
   29SOL     OW   85   2.526   0.392   1.547 -0.6518 -0.1978  0.3194
   29SOL    HW1   86   2.502   0.340   1.461 -0.3279 -1.1868 -4.7491
   29SOL    HW2   87   2.535   0.323   1.621  2.0682 -1.6770 -0.6268
   30SOL     OW   88   1.268   2.344   1.485 -0.5276  0.1079  0.6573
   30SOL    HW1   89   1.363   2.305   1.494 -1.5138  0.5266  1.7337
   30SOL    HW2   90   1.270   2.416   1.411 -0.0302 -0.1349 -0.7512
   31SOL     OW   91   1.924   2.787   1.328 -0.3368  0.5025 -0.5284
   31SOL    HW1   92   1.948   2.857   1.399 -1.7953  0.7630 -2.2419
   31SOL    HW2   93   1.990   2.795   1.248  0.4774  2.0226 -3.0345
   32SOL     OW   94   1.999   1.571   2.558 -0.2940 -0.2337 -0.0614
   32SOL    HW1   95   1.959   1.483   2.593 -1.3141  0.6361 -0.4554
   32SOL    HW2   96   2.089   1.561   2.510 -0.4871  2.2917 -0.4316
   33SOL     OW   97   2.437   0.644   3.032 -0.2552 -0.0827 -0.4400
   33SOL    HW1   98   2.418   0.588   0.021  0.1300  0.7465  0.2804
   33SOL    HW2   99   2.370   0.639   2.960  1.7080  1.0211  1.0477
   34SOL     OW  100   1.805   0.175   0.188  0.0184 -0.3982 -0.0976
   34SOL    HW1  101   1.710   0.207   0.174 -1.3081 -0.3004 -0.4492
   34SOL    HW2  102   1.807   0.100   0.256 -2.1510  1.2569 -0.4984
   35SOL     OW  103   0.168   2.109   1.961 -0.6144 -0.1416  0.3724
   35SOL    HW1  104   0.142   2.197   2.012  0.1432  0.1952  0.0945
   35SOL    HW2  105   0.206   2.046   2.022 -1.9202 -0.6550 -3.3081
   36SOL     OW  106   2.582   1.693   2.826  0.1408 -0.8182  0.4261
   36SOL    HW1  107   2.625   1.774   2.880  3.4150  2.6088  3.2038
   36SOL    HW2  108   2.652   1.665   2.758 -1.5726  2.0232  1.9134
   37SOL     OW  109   1.602   2.880   1.611  0.1597  0.1969 -0.3328
   37SOL    HW1  110   1.681   2.821   1.650  2.1155 -0.2566  2.9009
   37SOL    HW2  111   1.526   2.873   1.674  3.3223  2.1439  1.9961
   38SOL     OW  112   0.211   0.567   2.426  0.3289 -0.2981  0.3828
   38SOL    HW1  113   0.169   0.660   2.400 -2.6204  1.5220  0.6663
   38SOL    HW2  114   0.316   0.570   2.429 -0.0521 -0.1563  3.1396
   39SOL     OW  115   2.083   0.881   1.337  0.3293 -0.4455  0.6758
   39SOL    HW1  116   2.046   0.797   1.385  0.8994  1.6044  1.7594
   39SOL    HW2  117   2.092   0.865   1.238  0.7474 -0.1719  3.2430
   40SOL     OW  118   1.199   2.245   0.802  0.4486 -0.1408  0.0736
   40SOL    HW1  119   1.143   2.172   0.842  0.3514 -1.2367  0.7296
   40SOL    HW2  120   1.180   2.253   0.701 -1.6593  1.4286 -0.2759
   41SOL     OW  121   2.093   2.094   1.037  0.1421  0.8923 -0.2086
   41SOL    HW1  122   2.026   2.062   0.968 -0.4996 -2.6002  1.8493
   41SOL    HW2  123   2.075   2.186   1.069  2.8849  2.3939 -1.3400
   42SOL     OW  124   2.523   0.529   0.728 -0.1413 -0.3029 -0.2079
   42SOL    HW1  125   2.588   0.539   0.814  3.1411  1.6665  0.4455
   42SOL    HW2  126   2.531   0.612   0.666 -0.0752  2.1469 -0.5376
   43SOL     OW  127   0.425   1.474   2.495 -0.2389 -0.2481 -0.2293
   43SOL    HW1  128   0.467   1.474   2.402  0.3796 -0.4709  0.4390
   43SOL    HW2  129   0.451   1.562   2.537  1.1294 -0.7018 -0.1863
   44SOL     OW  130   1.673   2.716   1.243  0.1467  0.0972 -0.0592
   44SOL    HW1  131   1.603   2.680   1.315 -0.9151 -0.4660  1.2015
   44SOL    HW2  132   1.761   2.745   1.281 -1.7066  2.5332  1.8094
   45SOL     OW  133   0.871   2.955   2.539  0.5886 -0.2745  0.1552
   45SOL    HW1  134   0.828   2.868   2.565  0.3167  2.1623 -0.0652
   45SOL    HW2  135   0.798   3.028   2.555  1.9083  0.8313 -1.0151
   46SOL     OW  136   0.704   2.726   1.994  0.3110 -0.2622 -0.0699
   46SOL    HW1  137   0.723   2.723   1.891 -1.6783  2.2096 -1.3300
   46SOL    HW2  138   0.734   2.815   2.037  0.1291 -0.2440  0.9893
   47SOL     OW  139   1.012   2.016   0.848  0.2664  0.3655 -0.0763
   47SOL    HW1  140   1.051   2.013   0.753  1.7999  0.1301  1.5325
   47SOL    HW2  141   0.979   1.923   0.872 -2.0299  1.0210 -0.6452
   48SOL     OW  142   0.941   2.401   1.427  0.1436 -0.1964 -0.0380
   48SOL    HW1  143   0.972   2.406   1.331  0.4788 -1.1428 -1.5935
   48SOL    HW2  144   0.943   2.494   1.467  0.0794 -1.7006 -0.4647
   49SOL     OW  145   2.775   0.203   2.823 -0.3055  0.0956  0.7842
   49SOL    HW1  146   2.682   0.246   2.826 -1.8963  1.9846 -2.3961
   49SOL    HW2  147   2.851   0.265   2.801 -0.9545 -1.0838 -0.0598
   50SOL     OW  148   1.600   1.084   0.485  0.1332 -0.3631  0.6010
   50SOL    HW1  149   1.575   1.008   0.538  3.1530 -0.8478  0.0093
   50SOL    HW2  150   1.521   1.129   0.434  1.4122  1.0543 -1.7888
   51SOL     OW  151   1.989   3.022   0.566 -0.0011  0.1037  0.0858
   51SOL    HW1  152   2.085   3.056   0.552  2.5357 -0.5873  0.0002
   51SOL    HW2  153   1.971   2.964   0.646 -0.7448  1.8229  0.0443
   52SOL     OW  154   1.020   1.679   0.131 -0.1693 -0.4079 -0.0090
   52SOL    HW1  155   1.047   1.679   0.031  0.6545 -0.6853  0.8754
   52SOL    HW2  156   0.918   1.689   0.143 -0.2174  2.0106 -0.2527
   53SOL     OW  157   0.067   1.018   2.687 -0.2523  0.3928 -0.2264
   53SOL    HW1  158   0.124   1.006   2.772  0.0190 -0.3551 -0.0506
   53SOL    HW2  159   0.089   1.114   2.659 -0.5866 -1.5871  2.4291
   54SOL     OW  160   2.284   1.952   2.810  0.0681 -0.3251 -0.3561
   54SOL    HW1  161   2.343   1.972   2.891  0.3644 -0.1272 -0.2676
   54SOL    HW2  162   2.246   1.856   2.823 -0.6599  2.3438  1.1624
   55SOL     OW  163   2.341   2.224   1.375 -0.0371 -0.1238 -0.3640
   55SOL    HW1  164   2.420   2.175   1.416 -2.2188  0.4144  1.2141
   55SOL    HW2  165   2.310   2.181   1.286 -1.9177  0.9327 -1.2609
   56SOL     OW  166   2.024   3.095   1.074  0.3818 -0.8506 -0.4899
   56SOL    HW1  167   1.933   3.041   1.067  0.4384 -1.5717  1.5853
   56SOL    HW2  168   2.047   0.042   0.988 -1.6549 -1.2358  1.5532
   57SOL     OW  169   1.596   1.402   0.774  0.1059  0.9403 -0.1381
   57SOL    HW1  170   1.632   1.498   0.781 -0.5435 -2.3081 -0.5260
   57SOL    HW2  171   1.673   1.354   0.720  2.5684 -1.4849 -0.7266
   58SOL     OW  172   2.575   3.036   1.519 -0.3314 -0.1008 -0.6319
   58SOL    HW1  173   2.545   0.031   1.476 -1.2471  1.0985 -0.7824
   58SOL    HW2  174   2.674   3.040   1.544  1.5324  2.2265  3.7485
   59SOL     OW  175   0.809   2.601   2.502  0.1970  0.2381  0.1115
   59SOL    HW1  176   0.898   2.602   2.451 -1.4843  0.2440 -2.1023
   59SOL    HW2  177   0.734   2.581   2.437 -1.2278  1.2228  0.9433
   60SOL     OW  178   0.320   0.291   2.490  1.0504  0.2251 -0.2856
   60SOL    HW1  179   0.235   0.241   2.514 -1.1655  2.1234  1.3976
   60SOL    HW2  180   0.346   0.353   2.566  1.2165 -2.1411 -1.8200
   61SOL     OW  181   0.825   2.185   0.975 -0.5570 -0.0827  0.1995
   61SOL    HW1  182   0.886   2.111   0.943 -1.3645 -0.8286 -1.7896
   61SOL    HW2  183   0.741   2.138   1.011 -1.1197  0.8200  0.4450
   62SOL     OW  184   0.979   2.144   2.082  0.3390 -0.4320 -0.0255
   62SOL    HW1  185   0.947   2.142   2.176  1.6718 -3.2768 -3.1167
   62SOL    HW2  186   1.071   2.114   2.074 -0.6912  1.2090 -0.9993
   63SOL     OW  187   1.503   1.872   0.597  0.0373 -0.5531 -0.0380
   63SOL    HW1  188   1.542   1.913   0.515 -0.9552  0.6525  0.9219
   63SOL    HW2  189   1.484   1.772   0.582  2.5528  0.4224  1.1415
   64SOL     OW  190   1.685   1.434   0.399 -0.3431 -0.4610 -0.1486
   64SOL    HW1  191   1.701   1.431   0.296  2.7992 -3.2768 -4.4718
   64SOL    HW2  192   1.698   1.348   0.450 -4.0688 -0.4126 -1.0080
   65SOL     OW  193   1.678   2.128   2.396  0.3391 -0.2282  0.2900
   65SOL    HW1  194   1.680   2.026   2.386 -0.8268  1.1722  1.0158
   65SOL    HW2  195   1.714   2.150   2.489 -1.8203  2.3429 -1.6392
   66SOL     OW  196   0.399   0.830   1.288 -0.2101 -0.0243  0.5077
   66SOL    HW1  197   0.306   0.816   1.244 -0.1319  0.0998 -2.4644
   66SOL    HW2  198   0.474   0.830   1.212  0.0806 -0.8426 -2.1251
   67SOL     OW  199   2.163   2.606   0.461 -0.0637  0.2459 -0.1394
   67SOL    HW1  200   2.196   2.670   0.530  0.9481 -1.5757 -0.6715
   67SOL    HW2  201   2.102   2.535   0.501 -0.5221  0.9174 -1.4502
   68SOL     OW  202   2.139   2.248   1.559  0.0233 -0.1108  0.3428
   68SOL    HW1  203   2.201   2.252   1.476  1.1269 -1.3839 -1.0302
   68SOL    HW2  204   2.143   2.155   1.603  1.5804  1.6506  0.2781
   69SOL     OW  205   2.556   2.116   2.660  0.6333  0.8737  0.3675
   69SOL    HW1  206   2.591   2.020   2.636 -1.1607 -1.6865  0.3688
   69SOL    HW2  207   2.455   2.116   2.670 -0.1862  0.3656  0.0299
   70SOL     OW  208   0.114   1.280   2.633  0.2350  0.1579 -0.1251
   70SOL    HW1  209   0.046   1.344   2.675  3.4700 -0.0136  2.2134
   70SOL    HW2  210   0.102   1.278   2.531 -2.8632 -0.4146  1.6546
   71SOL     OW  211   0.829   0.993   2.206  0.1985 -0.2588  0.2339
   71SOL    HW1  212   0.831   0.903   2.252  1.2114  0.3044  2.3694
   71SOL    HW2  213   0.735   1.015   2.169 -1.0866  0.2692 -0.0169
   72SOL     OW  214   2.285   1.373   1.834 -0.4645 -0.2673  0.0477
   72SOL    HW1  215   2.223   1.370   1.755  2.6480  0.3351  0.9369
   72SOL    HW2  216   2.324   1.277   1.840 -0.6591 -0.4457  1.5093
   73SOL     OW  217   0.832   1.809   2.882 -0.0576  0.1633  0.2608
   73SOL    HW1  218   0.801   1.893   2.841  2.4407 -2.7080  1.2429
   73SOL    HW2  219   0.755   1.742   2.913 -2.5431 -1.0747  0.6298
   74SOL     OW  220   1.884   2.655   2.181  0.3969 -0.2805  0.1027
   74SOL    HW1  221   1.963   2.657   2.117  1.0197 -0.5899 -1.7296
   74SOL    HW2  222   1.800   2.711   2.151 -0.6658  0.8798 -2.3937
   75SOL     OW  223   1.249   2.592   0.537  0.5878 -0.0996  0.6155
   75SOL    HW1  224   1.333   2.565   0.486 -0.7139 -0.8170  1.5537
   75SOL    HW2  225   1.196   2.668   0.496 -2.2943 -0.4167  0.8334
   76SOL     OW  226   3.016   2.086   2.694  0.2516 -0.2406  0.1816
   76SOL    HW1  227   3.068   2.011   2.738 -0.4305  0.3395 -1.7986
   76SOL    HW2  228   3.068   2.168   2.722 -0.3179 -0.2677 -1.0017
   77SOL     OW  229   3.081   2.488   1.275  0.5396 -0.1270  0.3863
   77SOL    HW1  230   0.036   2.405   1.246  0.0169 -0.2881  2.9257
   77SOL    HW2  231   0.022   2.512   1.369  4.2067 -1.6143 -3.1200
   78SOL     OW  232   2.596   0.821   0.248  0.7205  0.1811 -0.0409
   78SOL    HW1  233   2.602   0.911   0.298 -2.3503 -1.3941  0.9532
   78SOL    HW2  234   2.647   0.817   0.157  2.3873  0.1293 -1.3900
   79SOL     OW  235   0.072   1.911   2.859 -0.7031  0.8696  0.4087
   79SOL    HW1  236   0.039   1.813   2.862 -1.0369 -2.4557  1.2277
   79SOL    HW2  237   0.053   1.958   2.944  0.9550  0.7886 -0.6401
   80SOL     OW  238   1.634   1.354   1.522 -0.5436  0.1321 -0.1422
   80SOL    HW1  239   1.712   1.401   1.571  0.7733  0.8367 -1.8981
   80SOL    HW2  240   1.542   1.400   1.528  1.2839  0.8585 -1.2618
   81SOL     OW  241   2.035   1.043   2.258  0.0921  0.6059  0.3262
   81SOL    HW1  242   1.937   1.038   2.228 -1.3914  1.2372  0.4801
   81SOL    HW2  243   2.070   1.137   2.254 -0.2845  0.9438 -1.0247
   82SOL     OW  244   1.663   1.174   1.767  0.2874  0.0085 -0.5547
   82SOL    HW1  245   1.652   1.219   1.678 -0.5204 -0.1310 -0.4660
   82SOL    HW2  246   1.582   1.193   1.832 -1.3557  3.5970  2.8593
   83SOL     OW  247   0.107   0.306   2.974  0.3672  0.0569 -0.2511
   83SOL    HW1  248   0.081   0.275   3.065  2.1898 -0.9346 -1.9055
   83SOL    HW2  249   0.075   0.239   2.900  0.1792 -0.9747 -1.7431
   84SOL     OW  250   0.262   1.268   3.027  0.3213  0.2770 -0.4883
   84SOL    HW1  251   0.212   1.193   2.980  0.2775  1.5734 -0.1254
   84SOL    HW2  252   0.201   1.319   3.091  3.2334 -3.3238 -1.5740
   85SOL     OW  253   2.303   1.463   2.082 -0.4899 -0.1584 -0.2551
   85SOL    HW1  254   2.292   1.441   1.986  0.3113  0.5383  2.7945
   85SOL    HW2  255   2.326   1.561   2.087 -2.0726  1.6742  0.6666
   86SOL     OW  256   0.569   0.899   1.101  0.2408 -0.0979  0.3534
   86SOL    HW1  257   0.625   0.978   1.084  3.4653 -1.6890 -0.9844
   86SOL    HW2  258   0.527   0.868   1.013  1.3015 -0.6903 -1.5868
   87SOL     OW  259   2.827   1.996   2.252 -0.2351  0.3979 -0.0082
   87SOL    HW1  260   2.742   2.048   2.283 -1.6684 -1.7413  1.2034
   87SOL    HW2  261   2.911   2.002   2.308 -1.4274  0.8416  0.0888
   88SOL     OW  262   0.263   2.760   0.150 -0.5404 -0.0741  0.2696
   88SOL    HW1  263   0.308   2.731   0.236  0.6988 -0.6327  2.5854
   88SOL    HW2  264   0.329   2.793   0.077  1.0971  2.4677 -1.2252
   89SOL     OW  265   1.519   0.634   0.221 -0.3953  0.2743 -0.4973
   89SOL    HW1  266   1.452   0.615   0.149  3.2181 -0.9939 -1.9902
   89SOL    HW2  267   1.606   0.669   0.174 -1.0242  0.7980 -1.8305
   90SOL     OW  268   2.892   1.537   2.371 -0.3867 -0.8367  0.7254
   90SOL    HW1  269   2.903   1.463   2.436 -1.2518 -0.0108  0.3283
   90SOL    HW2  270   2.960   1.613   2.383 -0.5657 -0.8620 -1.6333
   91SOL     OW  271   2.295   2.994   1.254  0.3550  0.1606  0.5097
   91SOL    HW1  272   2.240   2.910   1.230 -2.8963  0.4144  0.4480
   91SOL    HW2  273   2.230   3.071   1.274 -1.9722  1.3783 -0.1741
   92SOL     OW  274   2.241   1.431   1.001 -0.3973 -0.0546 -0.2103
   92SOL    HW1  275   2.251   1.531   0.978 -1.8713  2.5655  0.1682
   92SOL    HW2  276   2.142   1.409   0.989 -1.1526  0.8322 -0.6758
   93SOL     OW  277   0.105   1.417   0.104 -0.0350 -0.1639  0.2432
   93SOL    HW1  278   0.038   1.490   0.068 -1.4364  2.3660 -0.4191
   93SOL    HW2  279   0.138   1.442   0.200 -1.5866  2.3330 -0.4869
   94SOL     OW  280   1.194   2.690   1.693 -0.2510 -0.9019  0.1077
   94SOL    HW1  281   1.156   2.695   1.785  1.1428  1.6596 -1.2159
   94SOL    HW2  282   1.272   2.626   1.686  0.3293  2.0078 -1.1673
   95SOL     OW  283   0.195   0.719   0.726  0.0803  0.5764 -1.1924
   95SOL    HW1  284   0.252   0.753   0.804  0.0216  1.6006 -1.4776
   95SOL    HW2  285   0.102   0.744   0.752  2.0929  2.0789 -0.2225
   96SOL     OW  286   3.029   2.810   1.800 -0.3942 -0.2328  0.7840
   96SOL    HW1  287   3.053   2.909   1.788 -1.7997 -1.4660 -0.6755
   96SOL    HW2  288   0.012   2.747   1.777  0.0369 -0.0978 -0.4533
   97SOL     OW  289   2.395   0.448   1.240 -0.1667  0.4022 -0.1402
   97SOL    HW1  290   2.438   0.531   1.204  1.3679  0.0137 -0.3250
   97SOL    HW2  291   2.413   0.369   1.171  0.9720 -2.6200  0.1085
   98SOL     OW  292   2.936   2.414   1.642 -0.0397 -0.0543 -0.7307
   98SOL    HW1  293   2.898   2.489   1.586  2.5092 -1.2797 -0.5548
   98SOL    HW2  294   2.991   2.351   1.586  0.5346  2.0818  1.7837
   99SOL     OW  295   0.223   0.383   1.388  0.5216 -0.3741  0.1066
   99SOL    HW1  296   0.134   0.328   1.401 -3.6469 -0.2380  2.1316
   99SOL    HW2  297   0.252   0.424   1.475  1.2476  0.8125 -2.1458
  100SOL     OW  298   2.259   0.318   2.509  0.1467  0.0782 -0.3101
  100SOL    HW1  299   2.180   0.277   2.459  2.0212 -2.9325  0.4714
  100SOL    HW2  300   2.265   0.283   2.603 -0.4725  1.3159  1.1620
  101SOL     OW  301   0.297   0.299   2.206 -0.4196  0.0125 -0.1771
  101SOL    HW1  302   0.333   0.366   2.143  0.2360 -4.2281  1.8099
  101SOL    HW2  303   0.325   0.313   2.307  1.3429 -1.6187  4.3446
  102SOL     OW  304   0.645   0.419   1.849  0.4284  0.0239 -0.4765
  102SOL    HW1  305   0.600   0.411   1.756  1.5198 -3.2506 -0.3347
  102SOL    HW2  306   0.745   0.441   1.839 -0.4747  1.3845  0.8006
  103SOL     OW  307   1.241   0.794   2.494 -0.2678 -0.9193 -0.6822
  103SOL    HW1  308   1.297   0.881   2.510  0.0631 -1.1104  3.0961
  103SOL    HW2  309   1.266   0.744   2.409 -0.8786  1.7814 -0.0997
  104SOL     OW  310   0.160   0.599   1.906 -0.0395 -0.4483 -0.3935
  104SOL    HW1  311   0.129   0.670   1.840 -1.2555 -1.9498 -2.1796
  104SOL    HW2  312   0.194   0.642   1.993  0.4674 -2.3149 -1.2259
  105SOL     OW  313   2.326   1.685   1.843  0.1225  0.2672  0.1870
  105SOL    HW1  314   2.236   1.681   1.892  2.2235 -0.3116 -0.3757
  105SOL    HW2  315   2.396   1.725   1.903 -2.2942  1.0170 -1.4826
  106SOL     OW  316   1.653   0.209   0.464 -0.2868  0.2087 -0.2042
  106SOL    HW1  317   1.575   0.178   0.524 -1.6275 -0.7950 -0.2387
  106SOL    HW2  318   1.621   0.234   0.370  0.9805 -0.0183  1.3014
  107SOL     OW  319   2.297   2.012   1.190  0.5807  0.1067  0.5473
  107SOL    HW1  320   2.207   2.027   1.142 -1.5852 -1.0949  1.2799
  107SOL    HW2  321   2.328   1.915   1.182 -1.7433 -3.4257  0.5382
  108SOL     OW  322   0.179   2.310   1.152  0.0773  0.0719  0.4933
  108SOL    HW1  323   0.196   2.355   1.062 -1.7673 -1.0211 -0.5023
  108SOL    HW2  324   0.257   2.253   1.185  0.5476  0.8460  0.2894
  109SOL     OW  325   1.715   2.545   1.023  0.6219 -0.4696  0.0763
  109SOL    HW1  326   1.629   2.537   0.968  0.4372 -0.6918  1.1324
  109SOL    HW2  327   1.708   2.621   1.094 -1.1974  1.2254 -0.0793
  110SOL     OW  328   1.843   1.720   1.109 -0.5809  0.2404  0.0097
  110SOL    HW1  329   1.927   1.721   1.173  0.6614 -0.3946  1.3725
  110SOL    HW2  330   1.787   1.639   1.123 -1.3317  4.0351 -0.0419
  111SOL     OW  331   1.377   2.258   1.915 -0.0201 -0.1038  0.3365
  111SOL    HW1  332   1.431   2.204   1.847  1.5576 -0.6728 -2.9098
  111SOL    HW2  333   1.433   2.327   1.956 -0.0340 -1.9038 -3.4372
  112SOL     OW  334   2.143   2.167   3.021 -0.2250 -0.0238  0.4653
  112SOL    HW1  335   2.075   2.096   3.036  1.2513  0.4125  0.9067
  112SOL    HW2  336   2.236   2.127   3.046  1.9147 -1.7254 -1.8837
  113SOL     OW  337   2.066   1.643   1.939  0.1134 -0.7953  0.0864
  113SOL    HW1  338   2.012   1.691   2.011  1.1543  1.5851 -1.4185
  113SOL    HW2  339   2.051   1.540   1.936 -0.4693 -1.2359 -0.2817
  114SOL     OW  340   0.042   1.232   1.835 -0.3842 -0.1647 -0.2397
  114SOL    HW1  341   3.062   1.262   1.894 -1.6296  1.0189  0.7046
  114SOL    HW2  342   0.009   1.179   1.755  1.4477 -0.1433  3.0705
  115SOL     OW  343   2.859   1.041   0.169 -0.2740  0.0397 -0.3538
  115SOL    HW1  344   2.937   1.104   0.170  1.1703  0.2849  1.4222
  115SOL    HW2  345   2.892   0.951   0.201 -1.3264  0.4501 -0.5506
  116SOL     OW  346   2.681   0.762   3.078 -0.3556 -0.0679  0.5759
  116SOL    HW1  347   2.586   0.721   3.056 -2.5752  0.6425  2.5336
  116SOL    HW2  348   2.737   0.777   2.991  2.7859 -1.4712 -1.0893
  117SOL     OW  349   2.817   2.339   2.977 -0.0542  0.1573  0.2993
  117SOL    HW1  350   2.803   2.420   2.922 -0.9922 -1.8652 -0.0657
  117SOL    HW2  351   2.788   2.256   2.926 -0.7378  2.3686 -1.8981
  118SOL     OW  352   0.423   2.260   2.874  0.4150  0.5548  0.0161
  118SOL    HW1  353   0.508   2.247   2.930  2.5723  0.3937  0.4376
  118SOL    HW2  354   0.336   2.245   2.924 -2.0667  0.8737 -1.0426
  119SOL     OW  355   0.701   2.799   0.344  0.0441  0.5800 -0.3609
  119SOL    HW1  356   0.675   2.759   0.431 -0.6150 -0.6878 -0.8294
  119SOL    HW2  357   0.624   2.839   0.291  1.9306 -0.1631 -0.9057
  120SOL     OW  358   1.277   0.807   0.116  0.2855  0.0746  0.0001
  120SOL    HW1  359   1.221   0.817   0.203 -0.6702  0.4002 -0.8119
  120SOL    HW2  360   1.363   0.856   0.118  0.9712  0.5822  0.7873
  121SOL     OW  361   1.516   2.822   0.556 -0.0376 -0.2741  0.3206
  121SOL    HW1  362   1.445   2.747   0.562 -0.0759  0.1391  1.4416
  121SOL    HW2  363   1.604   2.773   0.549 -1.2971 -1.4506 -0.0008
  122SOL     OW  364   2.510   1.575   2.356  0.1909 -0.5778 -0.4907
  122SOL    HW1  365   2.580   1.646   2.363 -3.3984 -1.7535  0.4314
  122SOL    HW2  366   2.540   1.478   2.360 -0.2927 -0.0133 -0.6893
  123SOL     OW  367   1.298   1.250   1.286  0.3934 -0.1695  0.6413
  123SOL    HW1  368   1.223   1.244   1.355 -3.4694  0.5670  0.7098
  123SOL    HW2  369   1.266   1.243   1.191 -0.1517  1.7744  0.4169
  124SOL     OW  370   0.541   0.583   0.047  0.1247 -0.6242 -0.4761
  124SOL    HW1  371   0.591   0.534   3.065 -4.1457 -1.5436 -3.2396
  124SOL    HW2  372   0.445   0.615   0.015 -1.0056  0.5235  2.6165
  125SOL     OW  373   0.775   0.137   0.395  0.2333  0.1823  0.5707
  125SOL    HW1  374   0.771   0.039   0.364 -1.2784 -0.6409  1.1969
  125SOL    HW2  375   0.678   0.173   0.396 -1.6183 -0.2505  1.8902
  126SOL     OW  376   0.220   1.756   0.517  0.1952  0.6140  0.7061
  126SOL    HW1  377   0.272   1.837   0.546 -0.4892  2.1131 -0.6436
  126SOL    HW2  378   0.199   1.704   0.603  0.2903 -0.3261  2.4239
  127SOL     OW  379   0.758   2.769   1.735 -0.2175  0.7127 -0.4284
  127SOL    HW1  380   0.680   2.770   1.669  2.3513 -0.8988  1.6838
  127SOL    HW2  381   0.796   2.864   1.755  0.0794  0.0504 -1.5533
  128SOL     OW  382   1.322   1.653   0.272  0.0625 -0.2388  0.0446
  128SOL    HW1  383   1.258   1.575   0.264 -0.7195  1.4125 -1.6534
  128SOL    HW2  384   1.314   1.721   0.199  0.5718 -0.8861 -1.4295
  129SOL     OW  385   1.774   1.491   2.042 -0.7449  0.0432  0.0666
  129SOL    HW1  386   1.702   1.512   1.974  0.4698 -2.7045 -0.2998
  129SOL    HW2  387   1.852   1.442   1.996 -2.2529 -0.3839  0.5948
  130SOL     OW  388   1.489   2.230   1.545 -0.2774 -0.0149 -0.5391
  130SOL    HW1  389   1.571   2.295   1.542  1.8425 -0.2983  1.8557
  130SOL    HW2  390   1.510   2.142   1.497 -1.2153 -1.4362 -0.7151
  131SOL     OW  391   0.117   2.339   2.084  0.0139  0.1854 -0.3286
  131SOL    HW1  392   0.063   2.354   2.001  0.7156  0.6879  0.0703
  131SOL    HW2  393   0.109   2.426   2.136  2.2329  1.2508 -0.2500
  132SOL     OW  394   2.761   1.902   0.802 -0.3988  0.4378  0.3497
  132SOL    HW1  395   2.849   1.939   0.767 -1.3772  1.3428 -0.1198
  132SOL    HW2  396   2.760   1.922   0.899  1.1023 -0.9970 -4.0656
  133SOL     OW  397   0.611   0.796   1.695 -0.2513  0.4319 -0.7615
  133SOL    HW1  398   0.670   0.754   1.622 -0.4969  2.1782  1.0937
  133SOL    HW2  399   0.657   0.774   1.784  3.0617 -0.5832  4.5090
  134SOL     OW  400   2.428   1.704   0.121  0.1355 -0.6018 -0.0451
  134SOL    HW1  401   2.376   1.750   0.198  2.7288 -0.6792  0.4816
  134SOL    HW2  402   2.366   1.689   0.039 -1.7276  1.4922 -1.4138
  135SOL     OW  403   1.781   1.088   2.653  0.1306 -0.2408  0.1081
  135SOL    HW1  404   1.807   0.997   2.691  1.6618  1.7552 -0.6352
  135SOL    HW2  405   1.678   1.099   2.659 -3.2214  3.3561 -1.8279
  136SOL     OW  406   2.784   1.770   1.515  0.4827  0.1770  0.0471
  136SOL    HW1  407   2.821   1.682   1.559 -0.0393 -1.6214 -0.4269
  136SOL    HW2  408   2.691   1.754   1.475  0.8833 -0.7038  3.8757
  137SOL     OW  409   2.344   1.822   0.568 -0.3316  0.3429  0.7195
  137SOL    HW1  410   2.377   1.729   0.587 -0.5546 -0.6310 -0.8956
  137SOL    HW2  411   2.417   1.892   0.597  1.0528  1.3633 -1.5711
  138SOL     OW  412   3.017   0.671   0.760 -0.5793 -0.0906  0.0653
  138SOL    HW1  413   2.949   0.659   0.686  0.6081  1.0213  3.9037
  138SOL    HW2  414   3.041   0.582   0.802 -1.8960  1.2335 -0.4881
  139SOL     OW  415   0.097   3.022   0.114  0.0286  0.1345 -0.6003
  139SOL    HW1  416   0.173   2.961   0.144  0.9834 -1.6695  1.1518
  139SOL    HW2  417   0.063   3.083   0.188  0.4519 -1.5037 -0.2545
  140SOL     OW  418   0.795   1.165   1.494  0.0198  0.2378 -0.6599
  140SOL    HW1  419   0.761   1.230   1.560 -2.8098  2.6604 -0.1377
  140SOL    HW2  420   0.714   1.123   1.444  0.8565  2.0046 -2.1398
  141SOL     OW  421   1.171   1.641   1.039  0.2482 -0.5559  0.5160
  141SOL    HW1  422   1.142   1.548   1.060 -0.8609  1.9460  1.1155
  141SOL    HW2  423   1.128   1.680   0.951 -0.9542 -0.3688 -0.7783
  142SOL     OW  424   1.252   0.434   1.122  0.2387  0.0316  1.2142
  142SOL    HW1  425   1.272   0.335   1.152 -0.8627  0.5074  0.9287
  142SOL    HW2  426   1.230   0.496   1.201 -0.1762  1.5827 -0.7993
  143SOL     OW  427   0.283   1.035   2.365 -0.7112 -0.2273  0.4054
  143SOL    HW1  428   0.296   1.097   2.449  1.0678  1.4021  1.6121
  143SOL    HW2  429   0.283   1.093   2.281 -1.4345 -1.3369  0.2246
  144SOL     OW  430   2.565   0.080   0.455 -0.4370  0.5074 -0.7334
  144SOL    HW1  431   2.552   0.153   0.524  0.6868  0.3727 -0.3576
  144SOL    HW2  432   2.665   0.049   0.452  1.0748 -0.2507 -0.7460
  145SOL     OW  433   2.294   0.245   2.781  0.6671 -0.9788  0.1716
  145SOL    HW1  434   2.385   0.277   2.814 -0.5607  0.8345 -5.1466
  145SOL    HW2  435   2.214   0.293   2.828 -0.3948 -0.1223 -0.9035
  146SOL     OW  436   2.983   2.816   0.479  0.5404  0.1210  0.1772
  146SOL    HW1  437   2.944   2.806   0.382  0.4913  2.1999 -3.7515
  146SOL    HW2  438   2.959   2.732   0.535  1.8322 -2.9075  0.5653
  147SOL     OW  439   0.866   1.102   2.554  0.0482 -0.3190 -0.3390
  147SOL    HW1  440   0.903   1.149   2.471  1.7270 -1.0418 -1.5213
  147SOL    HW2  441   0.910   1.011   2.573 -0.5656  1.5860  0.7577
  148SOL     OW  442   1.463   0.124   3.041  1.0207 -0.1211  0.1282
  148SOL    HW1  443   1.410   0.110   0.034 -1.9827  1.4608  1.1817
  148SOL    HW2  444   1.400   0.149   2.966  1.4051 -1.9229 -3.5390
  149SOL     OW  445   1.532   3.071   2.015  0.1159  0.4833  0.7023
  149SOL    HW1  446   1.486   3.022   2.092 -2.1703  1.3513  2.2198
  149SOL    HW2  447   1.503   0.076   2.026 -1.0021  2.0207  2.5801
  150SOL     OW  448   2.247   2.856   3.045 -0.1745 -0.0137 -0.3249
  150SOL    HW1  449   2.305   2.786   3.000  0.0073  0.0994 -0.6110
  150SOL    HW2  450   2.155   2.818   3.073 -1.7388  0.8374  2.3595
  151SOL     OW  451   0.544   1.498   0.063  0.0970 -0.4379 -1.0733
  151SOL    HW1  452   0.465   1.556   0.085 -0.6823 -0.7118  0.9616
  151SOL    HW2  453   0.532   1.403   0.093  1.0364  0.5022 -0.8497
  152SOL     OW  454   0.330   0.147   1.301 -0.5761 -0.1665  0.4087
  152SOL    HW1  455   0.428   0.143   1.333  0.6023 -0.4362  1.7723
  152SOL    HW2  456   0.281   0.236   1.315  0.1999  0.5376  1.9310
  153SOL     OW  457   2.672   2.732   1.724  0.0608 -0.2060 -0.1109
  153SOL    HW1  458   2.737   2.767   1.791  1.5132 -1.7968 -1.2684
  153SOL    HW2  459   2.577   2.765   1.737 -1.5808 -2.2955  1.2706
  154SOL     OW  460   2.372   2.768   2.602  0.4271 -0.7163 -0.3961
  154SOL    HW1  461   2.474   2.772   2.601 -1.3346 -2.3712 -2.2480
  154SOL    HW2  462   2.335   2.774   2.507 -0.6288 -0.3901 -1.4052
  155SOL     OW  463   0.236   1.235   0.592 -0.2015  0.2213  0.0384
  155SOL    HW1  464   0.140   1.244   0.566 -0.3957 -2.0977 -0.6675
  155SOL    HW2  465   0.277   1.322   0.630 -0.3150 -0.0065  0.8782
  156SOL     OW  466   2.690   1.678   0.674 -0.3450  0.4102 -0.5105
  156SOL    HW1  467   2.718   1.761   0.734  3.9600  1.2162  2.2420
  156SOL    HW2  468   2.742   1.678   0.583  0.8027 -0.4272 -0.3722
  157SOL     OW  469   1.013   0.403   0.358  0.0618  0.0479 -0.8923
  157SOL    HW1  470   0.984   0.408   0.453  1.8046 -1.6596 -3.2540
  157SOL    HW2  471   1.113   0.375   0.362  0.0851  2.7966  0.9688
  158SOL     OW  472   1.648   0.878   0.993 -0.5593 -0.3704 -0.8730
  158SOL    HW1  473   1.571   0.882   0.923  1.2299  1.5804 -2.0652
  158SOL    HW2  474   1.641   0.953   1.065 -0.1645  0.0656  3.0113
  159SOL     OW  475   0.249   0.577   0.284  0.4929 -0.3156 -0.3517
  159SOL    HW1  476   0.341   0.619   0.307 -0.8127  1.3673 -1.8750
  159SOL    HW2  477   0.252   0.532   0.192 -0.5974 -1.2366 -0.4959
  160SOL     OW  478   2.376   2.077   1.873 -0.3035  0.1057 -0.4690
  160SOL    HW1  479   2.301   2.030   1.921  2.4884  1.1038 -1.5212
  160SOL    HW2  480   2.382   2.169   1.916  0.9800 -0.9301  1.0317
  161SOL     OW  481   0.217   0.939   2.891  0.7589 -0.6502  0.4025
  161SOL    HW1  482   0.292   0.910   2.830 -0.1483  0.1316 -1.2219
  161SOL    HW2  483   0.243   0.927   2.989  0.3574  1.7936  1.6523
  162SOL     OW  484   0.484   0.483   2.052 -0.1617  0.3172 -0.4541
  162SOL    HW1  485   0.539   0.463   1.968 -0.8220 -0.9295  1.2539
  162SOL    HW2  486   0.442   0.577   2.045 -0.5133 -1.5284 -0.6111
  163SOL     OW  487   2.711   3.054   2.699  0.6815 -0.5568  0.6938
  163SOL    HW1  488   2.745   0.042   2.746  1.8368 -1.9316 -2.6854
  163SOL    HW2  489   2.687   3.067   2.598 -0.2536 -0.2799  2.9220
  164SOL     OW  490   2.188   2.125   0.265  0.6464 -0.4186 -0.1405
  164SOL    HW1  491   2.186   2.069   0.182 -1.7565 -0.3687 -0.1994
  164SOL    HW2  492   2.270   2.184   0.266 -0.1862  1.7813 -0.3550
  165SOL     OW  493   0.467   0.276   1.028 -0.4083  0.1610 -0.0749
  165SOL    HW1  494   0.548   0.327   0.997 -1.0460 -1.2605  0.1797
  165SOL    HW2  495   0.486   0.192   1.080  1.6208 -0.3021  2.6461
  166SOL     OW  496   2.524   0.376   0.400  0.0666  0.6527 -0.0911
  166SOL    HW1  497   2.562   0.290   0.360 -0.1780  1.7289 -1.1738
  166SOL    HW2  498   2.488   0.361   0.494 -2.0310  0.7741  0.9537
  167SOL     OW  499   2.276   0.812   0.166 -0.1673  0.1194 -0.3193
  167SOL    HW1  500   2.373   0.850   0.177  1.3939  0.2586  2.9049
  167SOL    HW2  501   2.279   0.710   0.162  1.6505 -0.8276  2.5926
  168SOL     OW  502   1.346   2.774   2.219 -0.0848 -0.1148 -0.3452
  168SOL    HW1  503   1.252   2.751   2.238  1.2551 -0.3492 -1.8145
  168SOL    HW2  504   1.399   2.710   2.285  1.9525 -1.0601  2.2557
  169SOL     OW  505   0.579   2.094   0.617 -0.3821  0.1274  0.0792
  169SOL    HW1  506   0.643   2.169   0.594 -0.8779 -1.6507 -2.3019
  169SOL    HW2  507   0.611   2.021   0.680  0.1049  1.8479 -0.6200
  170SOL     OW  508   2.839   0.783   1.178  0.1654  0.9707 -0.1370
  170SOL    HW1  509   2.781   0.818   1.258 -2.9166 -0.5146  2.6369
  170SOL    HW2  510   2.805   0.817   1.087 -0.8527  0.8022 -2.0121
  171SOL     OW  511   2.648   1.329   2.423 -1.1698 -0.2906 -0.3737
  171SOL    HW1  512   2.615   1.240   2.452  2.3842  1.5942  0.0871
  171SOL    HW2  513   2.688   1.327   2.331 -0.8213 -1.1518  0.1563
  172SOL     OW  514   1.088   1.891   1.185  0.4325  0.0894 -0.4407
  172SOL    HW1  515   1.163   1.891   1.256  3.3548  0.5259 -0.5873
  172SOL    HW2  516   1.096   1.817   1.115 -2.0115  0.7321  0.2883
  173SOL     OW  517   2.002   1.941   3.036  0.7992  0.3583 -0.4329
  173SOL    HW1  518   1.899   1.955   3.027 -1.4029  0.6437 -0.4221
  173SOL    HW2  519   2.034   1.869   0.008 -0.4175 -1.0053  1.4593
  174SOL     OW  520   1.838   0.823   2.708  0.6995 -0.2835  0.0819
  174SOL    HW1  521   1.869   0.777   2.627 -0.6575  2.0477 -1.4140
  174SOL    HW2  522   1.824   0.760   2.784  1.5745  1.6763  0.1963
  175SOL     OW  523   0.833   1.553   1.162 -0.2664 -0.8794  0.6684
  175SOL    HW1  524   0.909   1.501   1.120  1.5411  1.2771 -0.0770
  175SOL    HW2  525   0.834   1.542   1.265 -2.1197 -0.0304 -0.2126
  176SOL     OW  526   1.057   0.069   0.188  0.6762  0.4814 -0.1766
  176SOL    HW1  527   0.984   0.006   0.222 -2.7089  0.0289 -1.2130
  176SOL    HW2  528   1.003   0.146   0.153 -1.2044 -1.8792  1.7355
  177SOL     OW  529   0.226   1.562   0.335 -0.2222  0.0033  0.1490
  177SOL    HW1  530   0.236   1.644   0.392  1.4353 -0.0232 -4.2668
  177SOL    HW2  531   0.311   1.504   0.337  1.6109 -1.5925 -1.7530
  178SOL     OW  532   3.012   2.407   2.642 -0.2403 -0.2318 -0.0406
  178SOL    HW1  533   2.975   2.505   2.658  0.6476  0.3593  0.6179
  178SOL    HW2  534   3.068   2.365   2.716 -0.0846  2.0475  0.7359
  179SOL     OW  535   2.674   2.777   2.650  0.9365 -0.4709  0.0135
  179SOL    HW1  536   2.673   2.767   2.550  1.0238 -1.1122 -2.1975
  179SOL    HW2  537   2.684   2.872   2.682 -0.4490 -0.8121 -0.2077
  180SOL     OW  538   2.275   0.314   0.841 -0.2246 -0.4882 -0.5191
  180SOL    HW1  539   2.205   0.368   0.889  1.5737 -1.5376 -0.0545
  180SOL    HW2  540   2.272   0.337   0.743 -1.4539 -0.8295  0.8188
  181SOL     OW  541   2.648   0.443   2.681 -0.3729  0.2736  0.5422
  181SOL    HW1  542   2.749   0.431   2.659 -2.6883  1.1229 -2.3389
  181SOL    HW2  543   2.603   0.383   2.614  2.6808 -0.2008  4.3482
  182SOL     OW  544   2.373   2.101   2.358  0.1034  0.3970  0.0399
  182SOL    HW1  545   2.320   2.089   2.443  0.4573  0.0962 -3.6916
  182SOL    HW2  546   2.328   2.170   2.300  2.9817  0.9983 -0.9457
  183SOL     OW  547   2.215   0.554   1.916  0.0768  0.1592  0.3128
  183SOL    HW1  548   2.315   0.540   1.934 -2.6622 -1.3524 -0.2268
  183SOL    HW2  549   2.176   0.646   1.927 -1.3688 -0.6298 -2.8117
  184SOL     OW  550   0.258   1.639   0.802 -0.2352 -0.3833 -0.1331
  184SOL    HW1  551   0.307   1.622   0.890  0.9265 -1.4133 -1.3252
  184SOL    HW2  552   0.161   1.620   0.815  1.5880  0.2771 -1.1998
  185SOL     OW  553   2.921   0.125   0.580 -0.7909 -0.0093 -0.2576
  185SOL    HW1  554   2.958   0.066   0.654  0.4128  0.3934  0.1603
  185SOL    HW2  555   2.888   0.068   0.505 -0.8073 -0.0328 -0.7730
  186SOL     OW  556   2.335   2.470   2.728  1.1789 -0.5337  0.5153
  186SOL    HW1  557   2.244   2.432   2.716 -0.8827 -1.5760  0.0455
  186SOL    HW2  558   2.359   2.522   2.644  3.1504 -0.4283 -1.4498
  187SOL     OW  559   0.499   1.719   0.710 -0.2058  0.7348  0.0810
  187SOL    HW1  560   0.401   1.727   0.742 -1.5243 -0.5842 -0.8389
  187SOL    HW2  561   0.561   1.793   0.747  2.5926 -1.0938 -1.2995
  188SOL     OW  562   1.913   1.523   0.761  0.2993 -0.2415  0.0014
  188SOL    HW1  563   1.873   1.537   0.668  1.8245  0.3052  2.2019
  188SOL    HW2  564   1.944   1.615   0.796  3.8421  3.1988  1.2688
  189SOL     OW  565   2.769   1.475   2.988 -0.3843 -0.4542 -0.0628
  189SOL    HW1  566   2.853   1.436   2.940  0.0275 -2.7837 -5.2758
  189SOL    HW2  567   2.691   1.441   2.936 -1.5607  2.5872  1.7317
  190SOL     OW  568   2.418   0.418   2.258 -0.2839 -0.0330  0.1152
  190SOL    HW1  569   2.439   0.352   2.329  1.9120  1.6486  0.6687
  190SOL    HW2  570   2.330   0.466   2.283 -1.3847 -1.9764  2.6760
  191SOL     OW  571   1.111   0.376   2.333  0.3321  0.4360  0.3683
  191SOL    HW1  572   1.154   0.288   2.362  1.5153 -1.2070  0.5319
  191SOL    HW2  573   1.071   0.423   2.419  1.7106  0.6823  2.1810
  192SOL     OW  574   1.063   1.707   1.792  0.1953 -0.3494  0.3046
  192SOL    HW1  575   1.072   1.676   1.697 -2.1458  1.5390  4.3126
  192SOL    HW2  576   0.973   1.750   1.802 -1.9451  1.2494  0.7685
  193SOL     OW  577   1.255   2.745   1.040 -0.2263  0.2689 -0.1029
  193SOL    HW1  578   1.279   2.720   1.139  2.1520  1.0814  1.1178
  193SOL    HW2  579   1.234   2.651   1.000 -1.5466 -2.9987  1.8676
  194SOL     OW  580   0.888   1.780   2.279  0.7166 -0.4212 -0.6659
  194SOL    HW1  581   0.883   1.866   2.339 -2.1369  0.7641  1.8371
  194SOL    HW2  582   0.983   1.770   2.249 -1.3568 -0.0836  1.8875
  195SOL     OW  583   2.191   0.434   0.467 -0.4875  0.2528 -0.0823
  195SOL    HW1  584   2.117   0.496   0.427  2.4923 -2.2334 -4.7235
  195SOL    HW2  585   2.228   0.493   0.541  0.5157  1.7106 -0.3229
  196SOL     OW  586   1.286   1.575   2.187 -0.1624  0.1406  0.0737
  196SOL    HW1  587   1.309   1.665   2.224  0.8135 -3.2259  1.8077
  196SOL    HW2  588   1.189   1.553   2.210  1.7047 -0.0877 -2.3060
  197SOL     OW  589   0.079   0.348   1.920 -0.1981 -0.2752  0.1275
  197SOL    HW1  590   0.156   0.279   1.904 -0.9048  2.3202  0.4858
  197SOL    HW2  591   0.108   0.449   1.921 -1.0907 -0.4842 -0.2851
  198SOL     OW  592   0.345   1.218   1.166  0.0527  0.6352 -0.2677
  198SOL    HW1  593   0.302   1.129   1.199 -0.0212 -1.5817  2.3407
  198SOL    HW2  594   0.271   1.282   1.136 -0.0520 -1.2472 -0.5799
  199SOL     OW  595   0.327   2.480   0.915 -0.1051 -0.0338  0.4810
  199SOL    HW1  596   0.309   2.535   0.832 -2.8797  1.7751  1.4372
  199SOL    HW2  597   0.390   2.536   0.972  3.6427 -0.2655  5.7744
  200SOL     OW  598   1.752   1.679   2.698 -0.2444  0.1953 -0.1516
  200SOL    HW1  599   1.837   1.730   2.683 -1.0395 -0.2998 -1.2660
  200SOL    HW2  600   1.761   1.611   2.774 -0.5295  1.1860 -0.0660
  201SOL     OW  601   0.467   2.467   1.710 -0.1249  0.1477 -0.1656
  201SOL    HW1  602   0.540   2.468   1.636  0.3036  0.1522 -1.6446
  201SOL    HW2  603   0.415   2.381   1.716  3.1576  2.0997  0.1681
  202SOL     OW  604   0.983   3.032   2.861  0.2357  0.0642 -0.7131
  202SOL    HW1  605   0.919   0.016   2.843 -0.3233 -0.6895 -2.0138
  202SOL    HW2  606   1.036   3.021   2.775  0.5930  0.3008 -1.2182
  203SOL     OW  607   1.510   0.245   2.128 -0.4248 -0.0649  0.0752
  203SOL    HW1  608   1.437   0.317   2.102 -0.6411  0.5601 -0.7762
  203SOL    HW2  609   1.598   0.287   2.153 -0.7863  0.7403  0.1366
  204SOL     OW  610   0.657   0.991   1.343 -0.1456  0.5534 -0.2123
  204SOL    HW1  611   0.677   0.908   1.398 -1.1515 -0.1043 -2.7858
  204SOL    HW2  612   0.599   0.964   1.263 -0.1770 -0.8786 -1.6319
  205SOL     OW  613   2.072   0.970   2.738 -0.5050 -0.5131 -0.1953
  205SOL    HW1  614   1.991   0.911   2.741  0.1246 -0.2673 -1.6332
  205SOL    HW2  615   2.113   0.982   2.644  1.5669  1.0865 -1.8776
  206SOL     OW  616   0.696   1.949   0.026  0.4262  0.0481 -0.7431
  206SOL    HW1  617   0.592   1.934   0.035 -3.4150  0.2354 -2.4216
  206SOL    HW2  618   0.754   1.867   0.053  3.6177  0.4060  0.9943
  207SOL     OW  619   0.325   0.253   1.847  0.1677  0.2125 -0.1402
  207SOL    HW1  620   0.388   0.317   1.789 -0.0147 -3.1638  0.0955
  207SOL    HW2  621   0.377   0.171   1.876  3.1939  1.9305  0.9643
  208SOL     OW  622   0.616   2.561   1.490 -0.1776 -0.7969  0.0692
  208SOL    HW1  623   0.535   2.551   1.427 -0.2274 -0.2014 -0.5983
  208SOL    HW2  624   0.692   2.604   1.438 -0.3516  0.0573  0.4330
  209SOL     OW  625   1.357   2.753   2.883 -0.0593 -0.2166  0.1893
  209SOL    HW1  626   1.337   2.746   2.982  0.3245  0.8914 -0.5104
  209SOL    HW2  627   1.347   2.853   2.856  0.5847  0.2397 -0.0641
  210SOL     OW  628   2.718   1.271   1.780  0.6265  0.2096  0.3059
  210SOL    HW1  629   2.786   1.273   1.861  1.7685  1.2033  2.3191
  210SOL    HW2  630   2.699   1.364   1.752  3.1163 -2.3378  1.6383
  211SOL     OW  631   1.377   0.221   1.641 -0.4303 -0.1835  0.1105
  211SOL    HW1  632   1.458   0.283   1.639 -2.0189  0.4750  0.7693
  211SOL    HW2  633   1.399   0.129   1.598 -1.0032  0.1721  0.1961
  212SOL     OW  634   0.943   2.174   1.533  0.2630  0.0107 -0.0027
  212SOL    HW1  635   0.949   2.265   1.492  2.7772 -0.2556  0.1931
  212SOL    HW2  636   0.915   2.186   1.628  2.0314 -1.2107  0.3704
  213SOL     OW  637   2.463   0.428   1.999 -0.2121  0.3047 -0.0850
  213SOL    HW1  638   2.545   0.486   1.996 -0.6974 -0.9731  1.2456
  213SOL    HW2  639   2.444   0.421   2.100  1.0236 -3.1196 -0.6859
  214SOL     OW  640   0.783   1.806   1.789 -0.5901 -0.1331  0.3334
  214SOL    HW1  641   0.795   1.832   1.694  0.5469  1.0518  0.9563
  214SOL    HW2  642   0.788   1.888   1.852  1.2342  2.2522  1.4912
  215SOL     OW  643   2.769   1.897   1.090 -0.0828  0.4179 -0.1481
  215SOL    HW1  644   2.842   1.865   1.147 -4.1278  1.3480  1.0076
  215SOL    HW2  645   2.734   1.988   1.123  0.4571  2.6866  1.9322
  216SOL     OW  646   2.787   0.827   0.917 -0.4500 -0.2475 -0.8722
  216SOL    HW1  647   2.783   0.727   0.897 -1.6382 -1.4213  1.2768
  216SOL    HW2  648   2.760   0.893   0.843 -0.7889  1.7856 -1.3436
  217SOL     OW  649   2.533   0.153   1.363 -0.0812  0.1519 -0.6211
  217SOL    HW1  650   2.453   0.177   1.305 -0.7034  1.8445 -0.0184
  217SOL    HW2  651   2.599   0.102   1.303  1.1313 -1.3283 -0.7940
  218SOL     OW  652   1.679   2.341   1.251 -0.1626 -0.0249  0.6373
  218SOL    HW1  653   1.745   2.266   1.230  0.8369  0.4841 -1.1598
  218SOL    HW2  654   1.702   2.415   1.185 -1.6017 -0.7726 -1.0203
  219SOL     OW  655   1.669   2.231   0.233  0.3504  0.1943 -0.1083
  219SOL    HW1  656   1.765   2.258   0.224 -0.9025 -2.0211 -1.7122
  219SOL    HW2  657   1.622   2.255   0.144 -2.2004  0.6388  0.0968
  220SOL     OW  658   1.898   2.529   0.140  0.6752  0.2452  0.2421
  220SOL    HW1  659   1.810   2.581   0.153  0.2792  0.0939 -0.7619
  220SOL    HW2  660   1.896   2.441   0.194  0.6468 -0.6932 -2.3061
  221SOL     OW  661   2.975   2.310   0.907 -0.2167  0.6223 -0.1524
  221SOL    HW1  662   3.041   2.277   0.836 -0.5186  0.2211 -1.2461
  221SOL    HW2  663   2.886   2.321   0.863  0.8419 -0.4921 -0.8967
  222SOL     OW  664   1.920   2.548   0.843 -0.1205  0.2332 -0.0506
  222SOL    HW1  665   1.838   2.556   0.905 -4.4589 -1.3264  0.5888
  222SOL    HW2  666   1.907   2.466   0.782 -1.2201 -2.1082 -1.6493
  223SOL     OW  667   0.598   2.574   2.322 -0.1859  0.4906 -0.1214
  223SOL    HW1  668   0.571   2.671   2.318 -0.8677  0.8859 -0.2103
  223SOL    HW2  669   0.672   2.553   2.253  1.1044 -1.3156 -1.1507
  224SOL     OW  670   2.921   1.835   1.291  0.1505  0.3513 -0.6180
  224SOL    HW1  671   2.863   1.805   1.369  0.1773  1.8868 -1.3007
  224SOL    HW2  672   3.019   1.852   1.317  0.9387 -1.1435 -1.6865
  225SOL     OW  673   2.237   1.722   0.888 -0.0675 -0.1246  0.5473
  225SOL    HW1  674   2.293   1.691   0.809  3.0113 -2.1519 -0.0901
  225SOL    HW2  675   2.149   1.766   0.861  3.3714 -2.0908 -0.1001
  226SOL     OW  676   1.466   2.554   0.341 -0.7221 -0.8055 -0.0191
  226SOL    HW1  677   1.542   2.612   0.300  1.6590 -1.6508 -1.7678
  226SOL    HW2  678   1.417   2.496   0.274 -0.7558 -0.7654  0.7291
  227SOL     OW  679   1.889   0.714   1.068  0.0672  0.1743  0.1550
  227SOL    HW1  680   1.975   0.765   1.076 -1.7150  0.3916 -0.5049
  227SOL    HW2  681   1.805   0.774   1.051 -1.5579 -0.4996  2.1098
  228SOL     OW  682   1.465   0.675   2.038 -0.2527  0.2730  0.2801
  228SOL    HW1  683   1.546   0.697   2.099 -0.1112  2.9674  1.6740
  228SOL    HW2  684   1.468   0.719   1.947 -0.4124  3.0560  0.5853
  229SOL     OW  685   2.840   0.803   2.871  0.4093 -0.0614 -0.5747
  229SOL    HW1  686   2.916   0.835   2.929  1.7082 -0.8197 -1.3884
  229SOL    HW2  687   2.878   0.786   2.775 -0.6780 -2.4432  0.0536
  230SOL     OW  688   1.025   1.374   1.069 -0.2463 -0.1224  0.1953
  230SOL    HW1  689   1.103   1.305   1.052  4.0476 -0.1551 -0.9430
  230SOL    HW2  690   0.949   1.330   1.124  0.4964 -0.6635  1.0870
  231SOL     OW  691   2.467   2.971   2.032 -0.2639 -0.1489  0.4424
  231SOL    HW1  692   2.567   3.000   2.044  0.7002 -0.5445 -1.5173
  231SOL    HW2  693   2.410   3.049   2.065  2.9009 -0.0550 -0.0426
  232SOL     OW  694   0.418   2.024   0.351 -0.2746  0.2500  0.5877
  232SOL    HW1  695   0.377   1.999   0.439 -0.9724  1.0661 -2.3228
  232SOL    HW2  696   0.417   2.126   0.339  0.1772  0.1135  2.5334
  233SOL     OW  697   1.197   2.327   2.383  0.0638  0.6050 -0.2850
  233SOL    HW1  698   1.216   2.386   2.466 -0.0496 -0.7236  0.3802
  233SOL    HW2  699   1.102   2.353   2.355  0.6078 -0.0645  1.5975
  234SOL     OW  700   0.939   1.445   1.860 -0.1491  0.1586  0.1914
  234SOL    HW1  701   0.925   1.467   1.956 -1.8738  0.2729 -0.8944
  234SOL    HW2  702   0.994   1.516   1.817 -1.9256 -1.3375  1.8463
  235SOL     OW  703   0.687   1.532   1.809 -0.9454 -0.2915 -0.3069
  235SOL    HW1  704   0.769   1.470   1.820  1.1030 -1.9536  1.6330
  235SOL    HW2  705   0.718   1.629   1.808  2.0873  1.6902 -1.7400
  236SOL     OW  706   1.419   2.588   2.386  0.1234 -0.3727  0.6150
  236SOL    HW1  707   1.433   2.498   2.337 -2.8416  0.1564  0.3141
  236SOL    HW2  708   1.480   2.590   2.467 -1.4517  0.8220 -0.1858
  237SOL     OW  709   1.387   3.017   0.415 -0.1295  0.1770 -0.8622
  237SOL    HW1  710   1.392   0.010   0.471  2.7698  0.6987 -0.6871
  237SOL    HW2  711   1.455   2.948   0.438 -2.7910  2.0029 -1.9378
  238SOL     OW  712   0.888   0.838   2.859  0.0706  0.9454 -0.3422
  238SOL    HW1  713   0.856   0.756   2.907 -1.4945 -0.3658 -2.9824
  238SOL    HW2  714   0.847   0.921   2.904 -0.4501 -2.8393 -0.1911
  239SOL     OW  715   0.256   0.733   2.116 -0.4468  0.4777 -0.0244
  239SOL    HW1  716   0.348   0.770   2.144  2.6511 -1.5778 -1.5686
  239SOL    HW2  717   0.190   0.735   2.199 -1.0751 -0.4676  1.2756
  240SOL     OW  718   2.362   2.588   0.835 -0.0305  0.2241  0.3977
  240SOL    HW1  719   2.373   2.656   0.756  0.5521  1.0872 -0.9408
  240SOL    HW2  720   2.341   2.645   0.917 -3.4095 -0.6265 -0.1943
  241SOL     OW  721   1.473   1.044   1.310 -0.5582  0.3560 -0.0425
  241SOL    HW1  722   1.407   1.121   1.312 -0.9870 -1.2074  0.9705
  241SOL    HW2  723   1.476   1.001   1.403  0.8232 -2.9261  2.1724
  242SOL     OW  724   0.200   1.026   0.814 -0.2567  0.3600  0.9549
  242SOL    HW1  725   0.103   1.001   0.795  1.4536 -1.1482 -0.3257
  242SOL    HW2  726   0.234   1.103   0.752 -1.6765 -0.1096  1.3799
  243SOL     OW  727   0.193   0.718   1.143 -0.0808 -0.1645 -0.6252
  243SOL    HW1  728   0.120   0.681   1.204  1.9623  2.0267 -0.2151
  243SOL    HW2  729   0.253   0.638   1.126 -0.0517 -0.1224  0.9978
  244SOL     OW  730   0.953   0.601   2.986  0.3044  0.0519 -0.2316
  244SOL    HW1  731   0.899   0.624   3.072 -1.5999  1.8813  1.6414
  244SOL    HW2  732   1.006   0.515   2.995 -0.0545 -2.6043  0.3971
  245SOL     OW  733   2.020   0.771   3.090  0.3215 -0.5002  0.1222
  245SOL    HW1  734   2.103   0.765   0.050 -2.2188  1.7108 -0.8393
  245SOL    HW2  735   1.986   0.870   3.091  2.2853  0.3342 -1.0863
  246SOL     OW  736   3.095   0.953   1.990  0.2893 -0.3387  0.2474
  246SOL    HW1  737   3.030   1.015   2.039  0.1207  1.1575  1.3636
  246SOL    HW2  738   0.095   0.984   1.971  0.0714 -1.5675  0.3135
  247SOL     OW  739   0.414   0.002   1.960  0.4496 -0.2403  0.0916
  247SOL    HW1  740   0.321   3.066   1.979  2.8902 -1.1213  1.0755
  247SOL    HW2  741   0.457   0.038   2.040 -2.3122 -0.6474  0.0203
  248SOL     OW  742   0.527   1.429   2.253 -0.3782  0.2317 -0.0892
  248SOL    HW1  743   0.484   1.499   2.198  1.9302 -2.7288 -0.4537
  248SOL    HW2  744   0.495   1.334   2.228  1.2544 -2.1079 -3.2619
  249SOL     OW  745   0.369   0.279   2.911 -0.2782 -0.4178  0.6439
  249SOL    HW1  746   0.373   0.178   2.899 -0.2182 -3.7832  1.9299
  249SOL    HW2  747   0.275   0.318   2.907 -1.0578  0.2631 -0.6854
  250SOL     OW  748   0.025   0.107   2.791  0.2988 -0.1917  0.1519
  250SOL    HW1  749   3.036   0.050   2.785 -0.3132 -0.4016 -0.6462
  250SOL    HW2  750   0.047   0.158   2.701 -0.3848  0.3604 -0.3230
  251SOL     OW  751   3.081   1.649   0.854 -0.3025 -0.3198  0.1735
  251SOL    HW1  752   2.984   1.644   0.885 -0.1932  1.5041  0.8977
  251SOL    HW2  753   0.024   1.744   0.867  1.6426 -1.5573 -1.5562
  252SOL     OW  754   1.533   2.436   2.047  0.6044  0.4173  0.2964
  252SOL    HW1  755   1.626   2.432   2.002  0.3288  0.9418  1.0632
  252SOL    HW2  756   1.535   2.396   2.141 -0.0453  1.9370  0.6094
  253SOL     OW  757   1.656   1.931   2.741 -0.3872 -0.7293 -0.2137
  253SOL    HW1  758   1.688   1.834   2.718 -3.2946  0.4791 -1.3618
  253SOL    HW2  759   1.642   1.984   2.654 -2.3060 -1.1184 -1.9030
  254SOL     OW  760   0.424   1.519   1.912  0.0391  0.5301  1.1423
  254SOL    HW1  761   0.374   1.452   1.853  0.8118  3.8143  0.2424
  254SOL    HW2  762   0.518   1.527   1.875 -0.1223  0.9964 -2.2642
  255SOL     OW  763   0.941   3.000   1.493  0.1637  0.0790  0.4702
  255SOL    HW1  764   1.037   3.029   1.476 -1.9751  2.2293 -1.0727
  255SOL    HW2  765   0.927   2.985   1.596 -0.1457 -0.0597 -0.1484
  256SOL     OW  766   2.910   2.521   1.067  0.2924 -0.3102  0.1022
  256SOL    HW1  767   2.961   2.508   1.159 -0.3984 -0.2788  0.8696
  256SOL    HW2  768   2.923   2.439   1.007 -0.1084  2.5132 -1.0301
  257SOL     OW  769   0.113   2.878   2.754 -0.0905 -0.2724 -0.6214
  257SOL    HW1  770   0.175   2.959   2.738  2.7152  0.4203  0.1709
  257SOL    HW2  771   0.027   2.909   2.793 -0.8372 -2.5075  0.5912
  258SOL     OW  772   0.999   2.367   1.961  0.0709  0.1260  0.7086
  258SOL    HW1  773   0.994   2.272   2.009  1.2291 -0.9414 -0.0555
  258SOL    HW2  774   1.090   2.375   1.916 -1.3141  2.0406 -0.1812
  259SOL     OW  775   1.070   1.818   2.539 -0.0724 -0.3792  0.2903
  259SOL    HW1  776   1.126   1.862   2.612 -1.7097 -0.0223 -1.7615
  259SOL    HW2  777   1.011   1.740   2.569  1.3783  0.5354 -2.7519
  260SOL     OW  778   2.239   0.698   2.397 -0.2801 -0.0303 -0.1243
  260SOL    HW1  779   2.251   0.645   2.485  0.9286 -1.7452  0.9274
  260SOL    HW2  780   2.191   0.640   2.327  0.3639  0.0087 -0.0667
  261SOL     OW  781   1.191   0.827   0.856  0.5543 -0.6163 -0.0208
  261SOL    HW1  782   1.194   0.730   0.834 -0.9960  0.8986  1.6141
  261SOL    HW2  783   1.286   0.871   0.846 -0.9211  0.5650  2.6901
  262SOL     OW  784   2.269   2.108   2.605  0.5048 -0.4182  0.2956
  262SOL    HW1  785   2.259   2.032   2.679  1.7601 -2.8361 -0.6610
  262SOL    HW2  786   2.200   2.182   2.625  0.0699  1.1408 -1.1982
  263SOL     OW  787   0.482   2.263   0.903 -0.2213 -0.0090  0.5292
  263SOL    HW1  788   0.407   2.335   0.900  1.3569  0.1041  1.1880
  263SOL    HW2  789   0.549   2.279   0.831  2.4744  0.9336  2.4076
  264SOL     OW  790   0.072   2.539   0.535 -0.2190 -0.6799  0.0883
  264SOL    HW1  791   0.100   2.568   0.442 -0.3562 -0.4989 -1.0844
  264SOL    HW2  792   0.124   2.455   0.553 -0.9814  2.7344  0.7322
  265SOL     OW  793   0.618   1.238   0.181 -0.2773 -0.0428  0.2040
  265SOL    HW1  794   0.575   1.177   0.108 -0.4121  1.5374  0.3557
  265SOL    HW2  795   0.720   1.247   0.176  2.9312  1.3757 -1.7617
  266SOL     OW  796   0.722   2.139   2.322 -0.1614  0.4802 -0.8345
  266SOL    HW1  797   0.805   2.086   2.333 -0.9500  4.0169 -0.1079
  266SOL    HW2  798   0.657   2.106   2.396  1.7764 -1.0782  2.0022
  267SOL     OW  799   1.731   0.470   2.355 -0.1773 -0.4533  0.1567
  267SOL    HW1  800   1.765   0.412   2.430 -0.2808  1.4622 -3.2938
  267SOL    HW2  801   1.644   0.516   2.386  0.7583  0.5502 -1.1037
  268SOL     OW  802   0.762   0.934   0.175 -0.0665 -0.5934  0.5062
  268SOL    HW1  803   0.820   1.014   0.194 -3.5108 -2.5984 -0.5172
  268SOL    HW2  804   0.689   0.938   0.242  3.6561  0.2048 -2.2935
  269SOL     OW  805   2.396   1.722   2.167  0.1972 -0.0556  0.0255
  269SOL    HW1  806   2.440   1.665   2.235 -1.7395 -0.2628 -0.3813
  269SOL    HW2  807   2.459   1.797   2.142 -2.7907  1.2036  1.6374
  270SOL     OW  808   1.181   1.973   2.971  0.1075 -0.5156  0.4404
  270SOL    HW1  809   1.079   1.985   2.988 -1.5370  2.0656  3.2008
  270SOL    HW2  810   1.215   1.900   3.031 -1.9439  0.6661 -0.2793
  271SOL     OW  811   0.229   0.539   0.004  0.0436 -0.3556  0.2047
  271SOL    HW1  812   0.281   0.545   3.013 -1.6509 -3.3060  0.2502
  271SOL    HW2  813   0.131   0.522   3.082 -1.6212  0.0931  0.0933
  272SOL     OW  814   2.973   0.335   0.422 -0.4123 -0.1649  0.6432
  272SOL    HW1  815   2.938   0.260   0.473  1.6271  3.4707 -1.8342
  272SOL    HW2  816   3.058   0.376   0.469  0.3262  0.4690  2.1351
  273SOL     OW  817   0.458   3.060   1.678 -0.2341  0.1138  0.1819
  273SOL    HW1  818   0.469   3.059   1.778  1.6080 -2.1635  0.7260
  273SOL    HW2  819   0.363   3.087   1.660  1.9687  0.5377  1.1290
  274SOL     OW  820   2.783   0.435   1.442  0.0898  0.3713 -0.5378
  274SOL    HW1  821   2.849   0.500   1.490  1.4059  2.8677  1.4732
  274SOL    HW2  822   2.688   0.434   1.483  2.1143  2.1015 -1.5786
  275SOL     OW  823   0.889   1.756   0.900 -0.1244  0.2046  0.1684
  275SOL    HW1  824   0.844   1.735   0.987  0.1852 -1.4532 -0.3145
  275SOL    HW2  825   0.911   1.664   0.854  1.7146 -2.2732 -1.4055
  276SOL     OW  826   0.575   1.150   1.941  0.8763  0.2309  0.2810
  276SOL    HW1  827   0.543   1.149   1.844  0.6350  2.3567  0.9840
  276SOL    HW2  828   0.578   1.054   1.973 -0.0201  3.1364  2.4059
  277SOL     OW  829   1.046   2.696   1.926 -0.4904 -0.3208  0.3896
  277SOL    HW1  830   1.100   2.623   1.970 -2.2358 -1.0980 -2.0666
  277SOL    HW2  831   0.951   2.665   1.930  0.0069 -1.9338  0.3298
  278SOL     OW  832   2.106   2.745   1.988  0.4194 -0.4553 -0.3341
  278SOL    HW1  833   2.196   2.734   2.029 -1.6667 -2.8728 -0.9955
  278SOL    HW2  834   2.097   2.693   1.904  0.2250 -0.8214 -1.0375
  279SOL     OW  835   1.797   1.381   0.164 -0.6150  0.0396 -0.1723
  279SOL    HW1  836   1.868   1.447   0.137 -0.8842 -2.0778 -1.2459
  279SOL    HW2  837   1.723   1.375   0.092  1.3629  1.2155 -0.9830
  280SOL     OW  838   1.502   0.946   0.129 -0.3942  0.1764  0.0081
  280SOL    HW1  839   1.472   1.028   0.185 -0.4053 -0.2668  1.3542
  280SOL    HW2  840   1.592   0.905   0.160 -1.8868 -2.9398 -0.3946
  281SOL     OW  841   0.536   0.416   1.582  0.2248  0.1518  0.0185
  281SOL    HW1  842   0.573   0.457   1.497  1.0608  0.3210  2.0335
  281SOL    HW2  843   0.448   0.460   1.605 -2.5414  0.7614 -0.7638
  282SOL     OW  844   0.317   2.618   0.674  0.8999 -0.0467  0.4458
  282SOL    HW1  845   0.232   2.581   0.626 -1.5354 -0.9465 -0.1168
  282SOL    HW2  846   0.303   2.707   0.714 -0.0390 -0.8202  0.1238
  283SOL     OW  847   1.231   2.078   2.070  0.2372 -0.3299 -0.3423
  283SOL    HW1  848   1.288   2.005   2.027 -0.5603  1.8891  4.8083
  283SOL    HW2  849   1.267   2.168   2.033  1.2902  0.3092  0.1455
  284SOL     OW  850   2.979   2.785   1.100 -0.1414  0.2278 -0.3811
  284SOL    HW1  851   2.891   2.827   1.127 -1.7243  1.7060  2.2089
  284SOL    HW2  852   2.954   2.692   1.072 -0.7375  1.1790  0.1395
  285SOL     OW  853   0.322   2.294   0.282  0.5687  0.3896  0.0131
  285SOL    HW1  854   0.271   2.381   0.261  0.7788  2.4279  1.1169
  285SOL    HW2  855   0.420   2.315   0.308  3.7191  0.4554  0.8363
  286SOL     OW  856   0.434   2.925   1.001  0.7041  0.5922  0.0408
  286SOL    HW1  857   0.498   2.987   1.057  1.0330  0.1602 -0.2903
  286SOL    HW2  858   0.358   2.981   0.962 -0.7274 -0.1326  2.9032
  287SOL     OW  859   0.709   1.416   0.638 -0.5915 -0.8065  0.4759
  287SOL    HW1  860   0.732   1.326   0.601 -2.3425  0.3937  1.7740
  287SOL    HW2  861   0.672   1.481   0.567  0.1506  1.2045  0.0266
  288SOL     OW  862   1.966   1.865   2.754  0.2987  0.0879  0.0978
  288SOL    HW1  863   2.046   1.805   2.755  1.3974  0.3995  0.4717
  288SOL    HW2  864   1.976   1.920   2.836  1.2961  0.5335 -1.2050
  289SOL     OW  865   2.974   2.065   0.338 -0.0832 -0.0172 -0.5790
  289SOL    HW1  866   2.957   2.112   0.250 -2.5749  3.8513  0.7514
  289SOL    HW2  867   3.027   1.978   0.327  0.1688  0.3255  2.7574
  290SOL     OW  868   1.387   1.439   1.452 -0.1668 -0.4906  0.5283
  290SOL    HW1  869   1.319   1.508   1.432  2.0139  0.5833  0.6346
  290SOL    HW2  870   1.385   1.359   1.391  2.4434  0.9230  2.9297
  291SOL     OW  871   1.089   1.313   2.991 -0.2533  0.1996  0.4674
  291SOL    HW1  872   1.058   1.409   3.013 -0.2884 -1.6330  1.1230
  291SOL    HW2  873   1.024   1.267   2.920 -1.2838 -1.7257 -0.9240
  292SOL     OW  874   1.105   1.446   0.280  0.4047 -0.2036 -0.1976
  292SOL    HW1  875   1.054   1.419   0.365  0.2216 -0.0331 -1.2224
  292SOL    HW2  876   1.066   1.525   0.234 -0.2029  0.2433  0.3138
  293SOL     OW  877   1.209   2.936   0.859  0.3035 -0.2310  0.0026
  293SOL    HW1  878   1.125   2.909   0.819  3.7866  1.1932  3.0340
  293SOL    HW2  879   1.239   2.867   0.933 -1.5251  0.0598 -0.7827
  294SOL     OW  880   1.867   1.306   2.464 -0.0835  0.3214 -0.5351
  294SOL    HW1  881   1.838   1.302   2.364 -2.1617  1.9397  1.0787
  294SOL    HW2  882   1.835   1.223   2.516 -3.8049  0.9306 -1.4506
  295SOL     OW  883   1.731   1.971   2.998  0.2340 -0.4594  0.4321
  295SOL    HW1  884   1.709   1.939   2.905 -2.1441 -1.7099 -0.9763
  295SOL    HW2  885   1.751   2.072   3.004  0.0777 -1.4976 -0.3625
  296SOL     OW  886   1.363   0.767   1.723 -1.0848 -0.1851 -0.1849
  296SOL    HW1  887   1.350   0.693   1.651 -1.4864 -2.0682  1.2049
  296SOL    HW2  888   1.297   0.842   1.705  1.2095  1.3511 -0.3282
  297SOL     OW  889   2.944   0.779   1.793 -0.2755  0.0134  0.4602
  297SOL    HW1  890   2.843   0.806   1.784  0.4010  0.9963  2.1211
  297SOL    HW2  891   2.985   0.846   1.861  0.0287  1.8660 -0.0674
  298SOL     OW  892   1.247   1.649   1.339 -0.0181 -0.1611  0.1065
  298SOL    HW1  893   1.236   1.641   1.237  2.4670  0.2453  0.4314
  298SOL    HW2  894   1.305   1.729   1.364 -1.0491  0.5776 -1.1959
  299SOL     OW  895   1.151   2.954   2.607  0.0501 -0.1405 -0.1199
  299SOL    HW1  896   1.227   2.984   2.540 -0.4641  4.4197 -0.4673
  299SOL    HW2  897   1.071   2.905   2.565 -3.0832 -1.7724  0.3739
  300SOL     OW  898   2.577   1.465   0.099  0.1120 -0.0244  0.1276
  300SOL    HW1  899   2.644   1.459   0.023  0.7180 -2.8691 -0.4491
  300SOL    HW2  900   2.509   1.541   0.093  2.1936 -2.3811  3.5243
  301SOL     OW  901   1.969   0.681   2.532  0.1913 -1.1661  0.3702
  301SOL    HW1  902   1.962   0.659   2.435  0.9726  0.5786 -0.2212
  301SOL    HW2  903   2.039   0.628   2.582 -0.5588 -0.0309 -0.7970
  302SOL     OW  904   2.684   1.887   2.591  0.1294 -0.5129  0.7984
  302SOL    HW1  905   2.691   1.842   2.496 -0.0909  0.3478 -1.6057
  302SOL    HW2  906   2.768   1.879   2.655 -1.1756 -2.1930  4.0845
  303SOL     OW  907   0.257   2.256   0.003 -0.1917  0.5999  0.5076
  303SOL    HW1  908   0.269   2.248   0.104  0.8087 -1.1239  0.6310
  303SOL    HW2  909   0.207   2.336   3.070 -0.5341 -2.2324 -1.0749
  304SOL     OW  910   0.355   1.813   1.320 -0.1290  0.5731  0.0285
  304SOL    HW1  911   0.405   1.880   1.381  0.9496  0.3168  0.4018
  304SOL    HW2  912   0.423   1.746   1.292 -1.0373  2.1526  0.5116
  305SOL     OW  913   2.688   0.801   1.769 -0.0434 -0.1882 -0.1808
  305SOL    HW1  914   2.660   0.750   1.847 -0.8097 -0.9134  0.7131
  305SOL    HW2  915   2.612   0.803   1.704 -0.1992  2.0772  1.4557
  306SOL     OW  916   1.728   1.479   1.135 -0.1803  0.4467 -0.1525
  306SOL    HW1  917   1.651   1.451   1.074 -0.6832 -2.2373 -1.4203
  306SOL    HW2  918   1.727   1.423   1.217  1.6164  0.2625  0.1952
  307SOL     OW  919   0.015   0.427   0.879 -0.1171  0.2847 -0.9101
  307SOL    HW1  920   0.093   0.370   0.853  0.0508  0.3983  0.0960
  307SOL    HW2  921   0.002   0.435   0.980 -1.1202 -1.8168 -0.3533
  308SOL     OW  922   0.270   1.363   1.722  0.3813  0.1770 -0.8669
  308SOL    HW1  923   0.250   1.400   1.627  2.1600 -1.3960 -3.7432
  308SOL    HW2  924   0.196   1.302   1.758  0.7745  0.8726  0.7580
  309SOL     OW  925   2.732   2.063   1.980 -0.2480  0.6007 -0.2172
  309SOL    HW1  926   2.804   2.083   2.051  1.7370 -1.1835 -2.3135
  309SOL    HW2  927   2.759   2.117   1.898  1.2457 -0.2152 -1.6350
  310SOL     OW  928   2.271   1.221   2.578 -0.4037  0.1573 -0.0119
  310SOL    HW1  929   2.337   1.212   2.499  1.2756  0.8682 -1.1895
  310SOL    HW2  930   2.253   1.130   2.619 -1.9294 -0.5062  0.1994
  311SOL     OW  931   1.623   1.325   3.051 -0.2888  0.5356  0.7161
  311SOL    HW1  932   1.521   1.336   3.047  1.6300 -0.8477  2.3785
  311SOL    HW2  933   1.659   1.229   3.033  1.0242 -0.1852 -0.8713
  312SOL     OW  934   1.421   2.090   2.588  0.4646 -0.1175  0.2238
  312SOL    HW1  935   1.454   2.189   2.586 -0.1952  1.1374 -1.2245
  312SOL    HW2  936   1.392   2.067   2.492 -0.4011 -3.0614 -1.6224
  313SOL     OW  937   0.333   0.476   0.690  0.1148  0.0119 -0.1909
  313SOL    HW1  938   0.408   0.482   0.620 -0.5360 -1.6089 -1.3847
  313SOL    HW2  939   0.303   0.573   0.701  2.0212  1.9550 -0.2593
  314SOL     OW  940   0.778   1.928   1.219 -0.4160 -0.3506 -0.3246
  314SOL    HW1  941   0.750   2.029   1.228  0.6936  1.2547  0.7258
  314SOL    HW2  942   0.878   1.916   1.234  1.1483  1.3121  1.2787
  315SOL     OW  943   0.564   2.129   2.114  0.1436 -0.0866  0.7243
  315SOL    HW1  944   0.526   2.215   2.074  2.7511  0.7435 -0.3218
  315SOL    HW2  945   0.619   2.148   2.194 -3.5325 -1.6994 -0.4147
  316SOL     OW  946   0.599   2.677   0.578 -0.0674 -0.5376  0.0312
  316SOL    HW1  947   0.564   2.596   0.630  0.3295 -3.5215  0.0170
  316SOL    HW2  948   0.592   2.761   0.634 -0.6680  0.6383  2.9679
  317SOL     OW  949   2.712   0.051   1.178 -0.2311  0.2295 -0.4722
  317SOL    HW1  950   2.707   0.109   1.096 -1.8856 -0.0415  1.6854
  317SOL    HW2  951   2.731   3.052   1.155 -0.9602 -0.3908  0.2650
  318SOL     OW  952   2.238   2.627   0.217  1.1199  0.4026 -0.2928
  318SOL    HW1  953   2.201   2.717   0.189 -0.1834 -0.6036  0.3771
  318SOL    HW2  954   2.206   2.608   0.314 -0.2582 -0.8390  0.9396
  319SOL     OW  955   1.620   0.856   2.499 -0.1228  0.2498  0.0210
  319SOL    HW1  956   1.708   0.861   2.551  0.1202  0.9725  2.2161
  319SOL    HW2  957   1.578   0.765   2.491 -0.6515  2.3979 -2.0227
  320SOL     OW  958   0.171   2.160   2.315 -0.3722 -0.6107 -0.0188
  320SOL    HW1  959   0.134   2.208   2.233  2.4992  1.2309 -0.3562
  320SOL    HW2  960   0.204   2.066   2.284 -0.8078 -1.9550  1.0740
  321SOL     OW  961   0.673   2.410   0.112 -0.2687  0.1028 -0.1142
  321SOL    HW1  962   0.741   2.472   0.162  2.6973  1.1062  1.6396
  321SOL    HW2  963   0.604   2.462   0.054 -0.6078 -1.4720 -0.5834
  322SOL     OW  964   2.504   0.680   2.625 -0.6329 -0.2044 -0.5465
  322SOL    HW1  965   2.560   0.598   2.649  1.5254 -0.2597  1.4109
  322SOL    HW2  966   2.407   0.653   2.619  1.3578  0.2118 -0.4682
  323SOL     OW  967   2.463   1.121   0.819  0.2335  0.1723  0.1080
  323SOL    HW1  968   2.482   1.207   0.867  0.1485 -2.3318 -0.0060
  323SOL    HW2  969   2.544   1.073   0.783 -1.0617  1.8915  0.0195
  324SOL     OW  970   3.023   0.400   1.148 -0.2709  0.2744 -0.1079
  324SOL    HW1  971   3.054   0.471   1.214 -0.2540  0.2797  1.8455
  324SOL    HW2  972   2.945   0.352   1.198 -2.0517  0.4240  0.2815
  325SOL     OW  973   0.034   3.043   1.740  0.0945  0.0842 -0.1921
  325SOL    HW1  974   3.076   0.029   1.772  0.4009 -0.9499 -1.0598
  325SOL    HW2  975   0.104   3.079   1.682 -1.4400 -1.0264  0.9185
  326SOL     OW  976   2.191   2.931   0.230 -0.0532 -0.0505 -0.4084
  326SOL    HW1  977   2.285   2.937   0.195  0.2860 -1.7401 -0.4684
  326SOL    HW2  978   2.121   2.916   0.158  0.1369  0.7576 -0.1669
  327SOL     OW  979   1.817   1.626   0.537  0.4446 -0.0393 -0.0832
  327SOL    HW1  980   1.817   1.721   0.494 -0.3303  1.0732  0.3896
  327SOL    HW2  981   1.767   1.559   0.478  1.3541  0.3619 -1.1898
  328SOL     OW  982   0.093   2.267   2.791 -0.1622 -0.3309 -1.0049
  328SOL    HW1  983   0.120   2.348   2.852 -1.5777  0.9576  0.1729
  328SOL    HW2  984   0.170   2.252   2.728  0.4194  2.3659  1.4733
  329SOL     OW  985   0.227   2.255   1.491 -0.3666 -0.2820  0.2906
  329SOL    HW1  986   0.298   2.248   1.419 -1.3981 -1.2596 -1.1407
  329SOL    HW2  987   0.259   2.255   1.587  1.8290  3.5890 -0.1868
  330SOL     OW  988   2.361   0.975   2.809  0.4742  0.2287 -0.1545
  330SOL    HW1  989   2.333   0.894   2.751 -0.3050 -1.1204 -1.9637
  330SOL    HW2  990   2.296   0.994   2.879  0.1456  1.4576 -0.4120
  331SOL     OW  991   2.634   2.250   0.877 -0.1734  0.2076  0.8015
  331SOL    HW1  992   2.685   2.267   0.965  1.3092  1.4378  0.4870
  331SOL    HW2  993   2.533   2.226   0.898 -2.4732 -0.5443  0.1991
  332SOL     OW  994   0.549   2.903   0.734  0.0839 -0.0548  0.2281
  332SOL    HW1  995   0.535   2.996   0.689  0.7926 -0.0032 -0.0169
  332SOL    HW2  996   0.518   2.905   0.833  0.0289 -1.3817 -0.9531
  333SOL     OW  997   2.200   1.888   2.252 -0.1086 -0.5101 -0.1574
  333SOL    HW1  998   2.254   1.959   2.307  2.1383 -0.1590  1.1047
  333SOL    HW2  999   2.269   1.813   2.230 -0.1055 -2.7066 -2.0080
  334SOL     OW 1000   0.447   1.388   0.719  0.7500 -0.0034  1.3864
  334SOL    HW1 1001   0.440   1.484   0.752  0.5391 -0.4353 -0.7682
  334SOL    HW2 1002   0.530   1.372   0.669  0.1730  0.1630  1.9489
  335SOL     OW 1003   3.037   2.028   2.438 -0.0437 -0.0192  0.2638
  335SOL    HW1 1004   0.021   2.083   2.410 -3.3371 -0.1381 -2.3461
  335SOL    HW2 1005   3.009   2.039   2.538  2.6165 -0.3655  1.4985
  336SOL     OW 1006   2.362   2.747   2.147 -0.3433 -0.0158 -0.5135
  336SOL    HW1 1007   2.420   2.666   2.121 -0.7131 -0.4453  1.5100
  336SOL    HW2 1008   2.401   2.833   2.105 -1.2050  0.4421  0.8867
  337SOL     OW 1009   0.578   0.828   0.662  0.1942  0.1384  0.6985
  337SOL    HW1 1010   0.608   0.730   0.658 -0.5128  1.9092 -1.1317
  337SOL    HW2 1011   0.645   0.884   0.718 -0.4149  3.4077 -0.3441
  338SOL     OW 1012   1.397   1.901   0.976 -0.4386  0.3470 -0.2086
  338SOL    HW1 1013   1.498   1.914   0.967  0.2958 -0.7123  0.1559
  338SOL    HW2 1014   1.355   1.966   1.046 -4.6507  0.4081  2.7673
  339SOL     OW 1015   0.107   1.729   1.579 -0.0012 -0.0928 -0.7648
  339SOL    HW1 1016   0.093   1.790   1.496  1.2655  0.9426 -0.3188
  339SOL    HW2 1017   0.120   1.783   1.663  1.1285 -0.5995  0.5608
  340SOL     OW 1018   1.160   3.070   1.808  0.8579  0.6095 -0.2983
  340SOL    HW1 1019   1.195   0.052   1.865 -1.2000 -1.8542 -1.3962
  340SOL    HW2 1020   1.229   2.997   1.789 -0.7652 -4.8815 -0.2095
  341SOL     OW 1021   1.465   1.629   1.034  0.2625 -0.7670 -0.3559
  341SOL    HW1 1022   1.372   1.663   1.019  2.0286  0.9295  2.1061
  341SOL    HW2 1023   1.537   1.673   0.979  1.7062 -3.4861 -3.3659
  342SOL     OW 1024   2.482   1.374   0.922 -0.5611 -0.6019  0.1194
  342SOL    HW1 1025   2.550   1.413   0.993  0.5930  2.3815  1.8880
  342SOL    HW2 1026   2.388   1.396   0.952 -0.4276 -1.7526  1.3427
  343SOL     OW 1027   2.082   0.112   0.841 -0.4535 -0.3155 -0.2977
  343SOL    HW1 1028   2.159   0.179   0.862  3.4512  0.0515 -0.1962
  343SOL    HW2 1029   2.114   0.046   0.772 -1.8082 -0.2278  1.0802
  344SOL     OW 1030   2.224   0.170   0.526 -0.0494 -0.2014 -0.1842
  344SOL    HW1 1031   2.198   0.270   0.518 -2.6140 -0.6404 -0.7818
  344SOL    HW2 1032   2.324   0.167   0.535 -0.8438 -0.4130 -2.2885
  345SOL     OW 1033   0.905   3.003   1.788  0.3389  0.3444 -0.4927
  345SOL    HW1 1034   0.845   3.018   1.875 -5.5469 -0.0282  4.5231
  345SOL    HW2 1035   0.996   3.046   1.800  1.0129 -1.2861  0.6623
  346SOL     OW 1036   2.516   2.004   0.665 -0.2120  0.2934  0.2879
  346SOL    HW1 1037   2.591   1.950   0.711 -1.3185  0.0072 -0.1145
  346SOL    HW2 1038   2.451   2.052   0.732  0.4202 -0.5510 -2.3962
  347SOL     OW 1039   2.493   2.855   1.356  0.0564 -0.1649 -0.3997
  347SOL    HW1 1040   2.533   2.926   1.417 -1.3918 -0.3921  1.1114
  347SOL    HW2 1041   2.413   2.900   1.311 -2.5372  1.9267 -2.6332
  348SOL     OW 1042   0.977   0.978   1.574  0.2570  0.2201 -0.1812
  348SOL    HW1 1043   0.911   1.048   1.555 -0.8907 -1.6460  0.3633
  348SOL    HW2 1044   0.983   0.911   1.496 -1.3685  0.2386  0.2717
  349SOL     OW 1045   2.218   0.574   2.637 -0.5392 -0.4244  0.0492
  349SOL    HW1 1046   2.239   0.477   2.614  0.1941  1.0257 -0.9090
  349SOL    HW2 1047   2.199   0.578   2.739 -1.8238 -1.1264  2.2315
  350SOL     OW 1048   1.966   2.264   0.286  0.1152  0.0573 -0.0092
  350SOL    HW1 1049   1.952   2.318   0.373 -0.0664  1.0533  0.4477
  350SOL    HW2 1050   2.058   2.220   0.278 -0.4426 -1.0126  2.4481
  351SOL     OW 1051   1.226   0.376   0.114 -0.2322  0.8278  1.0291
  351SOL    HW1 1052   1.164   0.327   0.053  1.2412 -0.7937  0.9689
  351SOL    HW2 1053   1.295   0.428   0.059 -1.3734  1.9656 -0.4602
  352SOL     OW 1054   2.028   2.229   2.370  0.3376  0.3103 -0.2830
  352SOL    HW1 1055   2.028   2.184   2.456  0.3967  0.4072 -1.5132
  352SOL    HW2 1056   1.996   2.328   2.373 -0.5167  1.6205 -1.8640
  353SOL     OW 1057   0.378   1.218   2.587  0.3075  0.5855 -0.4826
  353SOL    HW1 1058   0.288   1.249   2.619  1.5052  0.9617  1.1096
  353SOL    HW2 1059   0.424   1.294   2.545 -2.7259 -0.2672 -0.4056
  354SOL     OW 1060   0.514   2.797   2.563 -0.1982  0.4757 -0.0077
  354SOL    HW1 1061   0.501   2.803   2.459 -1.4269 -3.0565 -1.2923
  354SOL    HW2 1062   0.552   2.704   2.589  1.7867 -1.8658 -0.6814
  355SOL     OW 1063   2.336   2.644   1.424 -0.5946 -0.6756 -0.5265
  355SOL    HW1 1064   2.411   2.705   1.463  1.8620  1.3204  2.6048
  355SOL    HW2 1065   2.250   2.679   1.463  3.1231 -0.1643  1.6355
  356SOL     OW 1066   3.035   0.942   0.783 -0.0425  0.2122 -0.3256
  356SOL    HW1 1067   2.963   0.999   0.832 -0.6583 -0.0664 -1.4368
  356SOL    HW2 1068   3.024   0.841   0.801  1.8989 -0.8357 -0.2224
  357SOL     OW 1069   0.018   0.226   1.500  0.0240 -0.1449  0.2689
  357SOL    HW1 1070   0.002   0.237   1.599  0.4438 -0.8305 -0.1846
  357SOL    HW2 1071   3.026   0.217   1.454 -0.0878  0.5881  1.4735
  358SOL     OW 1072   2.848   1.515   1.599  0.0596  0.1914 -0.0238
  358SOL    HW1 1073   2.878   1.518   1.696 -0.2148 -0.0056  2.1790
  358SOL    HW2 1074   2.919   1.466   1.538 -0.3934 -0.9938 -1.2292
  359SOL     OW 1075   2.591   2.606   2.416 -0.0668  0.6478 -0.0924
  359SOL    HW1 1076   2.608   2.515   2.466  0.8551 -1.2340  3.3347
  359SOL    HW2 1077   2.568   2.585   2.318 -1.2419  1.2992  0.9252
  360SOL     OW 1078   1.123   0.530   1.361  0.1446 -0.3382 -0.1692
  360SOL    HW1 1079   1.107   0.431   1.387  0.7345 -5.4924 -2.6305
  360SOL    HW2 1080   1.219   0.565   1.392  2.8216  2.3942  0.7005
  361SOL     OW 1081   2.529   2.461   1.174 -0.1185 -0.1306  0.5468
  361SOL    HW1 1082   2.559   2.368   1.170 -2.4464  0.1011  0.8696
  361SOL    HW2 1083   2.430   2.455   1.155  5.0358  1.1660  0.6824
  362SOL     OW 1084   1.376   0.170   0.537 -0.6371  0.4472  0.1156
  362SOL    HW1 1085   1.342   0.263   0.513 -2.0832  1.8070  0.2619
  362SOL    HW2 1086   1.320   0.134   0.620 -0.3527  0.3965 -0.3809
  363SOL     OW 1087   1.511   1.337   1.018  0.1552 -0.8929 -0.1816
  363SOL    HW1 1088   1.531   1.349   0.917  1.6953  1.1605  3.7371
  363SOL    HW2 1089   1.447   1.412   1.041 -0.4525 -1.4277  0.1457
  364SOL     OW 1090   0.391   0.773   1.537 -0.0067 -0.1778 -0.1140
  364SOL    HW1 1091   0.473   0.798   1.590 -0.3672  0.1694  2.3511
  364SOL    HW2 1092   0.395   0.790   1.436 -1.0702  0.6299 -0.2945
  365SOL     OW 1093   2.729   0.569   0.916  0.2727 -0.0117  0.3301
  365SOL    HW1 1094   2.757   0.498   0.846  0.7297 -0.8433 -1.3251
  365SOL    HW2 1095   2.742   0.529   1.009 -0.1152  2.8453  0.3044
  366SOL     OW 1096   2.835   1.565   0.906 -0.2083 -0.0027  0.5752
  366SOL    HW1 1097   2.771   1.591   0.831 -2.5266  1.2309  0.3371
  366SOL    HW2 1098   2.797   1.486   0.961 -0.2939 -2.4105  1.8760
  367SOL     OW 1099   2.156   1.994   2.003  0.2262 -0.2693 -1.0114
  367SOL    HW1 1100   2.083   2.065   2.013 -1.9728 -1.6130  1.3301
  367SOL    HW2 1101   2.157   1.940   2.092 -1.5039  2.2949 -1.7407
  368SOL     OW 1102   2.539   2.066   1.449  0.2738  0.0518 -0.6617
  368SOL    HW1 1103   2.569   2.074   1.549 -0.9105  0.9198  4.2049
  368SOL    HW2 1104   2.527   1.965   1.433 -0.9916 -0.0356 -0.2912
  369SOL     OW 1105   2.203   2.889   2.782 -0.4475  0.2701  0.0976
  369SOL    HW1 1106   2.254   2.839   2.712  0.9252  2.1933  0.7212
  369SOL    HW2 1107   2.264   2.903   2.863  1.1909 -0.9057  1.2888
  370SOL     OW 1108   0.804   0.441   1.162  0.4495 -0.2128 -0.5329
  370SOL    HW1 1109   0.763   0.424   1.071  0.1268  2.7395  1.4394
  370SOL    HW2 1110   0.892   0.390   1.178 -3.4584  0.3209  0.2174
  371SOL     OW 1111   0.595   1.663   0.449  0.0280 -0.3652  0.2714
  371SOL    HW1 1112   0.629   1.752   0.401 -0.3196  5.2605 -0.8503
  371SOL    HW2 1113   0.556   1.680   0.543 -1.3473  0.9727 -1.2648
  372SOL     OW 1114   0.616   1.097   2.712  0.1069  0.2554  0.2790
  372SOL    HW1 1115   0.699   1.094   2.651 -1.7391  0.7516  1.8279
  372SOL    HW2 1116   0.543   1.155   2.669  2.8991  1.1078  0.4558
  373SOL     OW 1117   1.071   2.659   2.793  0.4163  0.3321 -0.4112
  373SOL    HW1 1118   0.966   2.669   2.776  0.4392 -0.0592 -0.5027
  373SOL    HW2 1119   1.117   2.736   2.845  0.5448  2.7989 -0.4232
  374SOL     OW 1120   0.904   1.983   0.435 -0.0302 -0.3339 -0.6140
  374SOL    HW1 1121   0.982   1.958   0.501  1.4017  0.0076  0.9252
  374SOL    HW2 1122   0.939   1.992   0.338 -0.7384  1.1014 -0.0247
  375SOL     OW 1123   0.779   0.718   1.889  0.0587  0.4411  0.1349
  375SOL    HW1 1124   0.824   0.627   1.878  0.2161  0.8047  1.1601
  375SOL    HW2 1125   0.861   0.781   1.881  1.1183 -1.2495 -0.2649
  376SOL     OW 1126   0.081   2.494   1.535  0.2441 -0.0587 -0.2447
  376SOL    HW1 1127   0.141   2.412   1.530  1.1116 -0.5403 -0.3224
  376SOL    HW2 1128   0.112   2.564   1.600 -1.3367  1.0939  0.0878
  377SOL     OW 1129   2.839   1.736   3.088  0.0753 -0.1232  0.3398
  377SOL    HW1 1130   2.785   1.804   3.032  1.8611  0.8614  0.2124
  377SOL    HW2 1131   2.814   1.641   3.063 -0.6458 -0.0729  1.9653
  378SOL     OW 1132   1.738   2.908   3.073 -0.0843 -0.0373  0.1984
  378SOL    HW1 1133   1.654   2.926   0.029  1.2785  0.4063  1.2487
  378SOL    HW2 1134   1.792   2.991   3.072 -0.7743  1.3159 -2.7189
  379SOL     OW 1135   1.864   0.552   0.601  0.2457 -0.1756 -0.4736
  379SOL    HW1 1136   1.877   0.450   0.602  5.8835 -2.0687  2.6392
  379SOL    HW2 1137   1.951   0.593   0.641  0.6929  0.5802 -0.6937
  380SOL     OW 1138   2.926   1.801   1.849  0.7721  0.2681 -0.0623
  380SOL    HW1 1139   2.906   1.852   1.760 -1.1479 -1.5985 -1.7765
  380SOL    HW2 1140   2.968   1.853   1.926 -1.5246 -0.4772  0.0365
  381SOL     OW 1141   2.217   1.462   2.438  0.0906  0.0797  0.5718
  381SOL    HW1 1142   2.310   1.480   2.405 -2.9777  0.5091 -0.4548
  381SOL    HW2 1143   2.214   1.368   2.482  1.2867 -2.0099  3.1557
  382SOL     OW 1144   2.951   2.970   2.828 -0.3140 -0.3743  0.2352
  382SOL    HW1 1145   2.963   2.949   2.926  0.0666  0.2785  0.8492
  382SOL    HW2 1146   2.851   2.987   2.801 -0.1104 -0.2713  0.2440
  383SOL     OW 1147   1.191   1.224   0.133  0.2744  0.2340 -0.0479
  383SOL    HW1 1148   1.166   1.253   0.040  3.0968 -1.1825  1.2970
  383SOL    HW2 1149   1.186   1.298   0.197 -1.6316 -1.5108 -3.6010
  384SOL     OW 1150   1.387   1.892   1.422 -0.1401 -0.6274 -0.3038
  384SOL    HW1 1151   1.306   1.944   1.451  0.5367  1.1390  0.5693
  384SOL    HW2 1152   1.460   1.966   1.400  1.7858 -0.9904 -1.3778
  385SOL     OW 1153   2.009   2.806   0.876  0.2843  0.8476  0.1371
  385SOL    HW1 1154   1.912   2.832   0.855 -2.3801  0.8009  1.4521
  385SOL    HW2 1155   2.012   2.707   0.869 -0.8959 -1.6620  0.0143
  386SOL     OW 1156   1.633   1.664   0.795  0.0022  0.4303 -0.4941
  386SOL    HW1 1157   1.601   1.754   0.764 -2.3782  0.7059  0.8141
  386SOL    HW2 1158   1.727   1.642   0.751  1.7145 -2.8321 -0.2016
  387SOL     OW 1159   2.643   2.207   1.213 -0.0500 -0.6050 -0.6569
  387SOL    HW1 1160   2.730   2.243   1.247 -1.2722 -1.8768 -1.5403
  387SOL    HW2 1161   2.596   2.165   1.298 -3.3114 -0.6850  2.9268
  388SOL     OW 1162   3.075   1.038   1.640 -0.5420 -0.4721 -0.3570
  388SOL    HW1 1163   0.021   1.088   1.563  1.6729 -0.8401  1.4809
  388SOL    HW2 1164   0.029   0.952   1.661 -3.4594 -2.8075 -0.6356
  389SOL     OW 1165   2.118   0.362   0.098  0.6131  0.2653 -0.4886
  389SOL    HW1 1166   2.036   0.405   0.137  1.9891 -1.5808 -0.9912
  389SOL    HW2 1167   2.138   0.274   0.144 -0.0006 -1.2639  1.1299
  390SOL     OW 1168   1.245   1.647   2.759 -0.6087  0.7093 -0.5021
  390SOL    HW1 1169   1.270   1.744   2.744  3.9160 -2.0139  2.4322
  390SOL    HW2 1170   1.268   1.589   2.679  2.0461 -1.1017  1.3816
  391SOL     OW 1171   1.204   2.199   0.144  0.1858 -0.3376  0.1501
  391SOL    HW1 1172   1.240   2.151   0.226 -1.1943 -0.3318 -1.6770
  391SOL    HW2 1173   1.232   2.152   0.060  0.4090  3.0012  1.6021
  392SOL     OW 1174   0.157   2.687   1.696  0.4352 -0.0944 -0.1314
  392SOL    HW1 1175   0.224   2.684   1.774  3.8597  0.8313  0.1192
  392SOL    HW2 1176   0.198   2.721   1.610  0.6880  2.9698  2.9388
  393SOL     OW 1177   1.342   2.437   0.115 -0.6845  0.4321 -0.0146
  393SOL    HW1 1178   1.279   2.360   0.133  2.2166 -0.3895 -1.9217
  393SOL    HW2 1179   1.416   2.397   0.055  2.6028 -0.4750  0.4688
  394SOL     OW 1180   0.460   0.833   2.260  0.4628 -0.1778 -0.6551
  394SOL    HW1 1181   0.393   0.898   2.302  1.0410  1.1113 -0.8575
  394SOL    HW2 1182   0.472   0.748   2.315  2.8379  0.1950  0.1797
  395SOL     OW 1183   0.505   1.211   0.924  0.0684 -0.3018  0.0868
  395SOL    HW1 1184   0.474   1.279   0.852  1.3498 -0.8180 -2.7788
  395SOL    HW2 1185   0.462   1.209   1.015  0.0526 -1.4196 -1.9514
  396SOL     OW 1186   1.765   1.041   2.148  0.2567  0.1265 -0.0101
  396SOL    HW1 1187   1.689   0.974   2.139  1.9116  1.8197  0.7854
  396SOL    HW2 1188   1.731   1.126   2.190  2.1839  1.7250  2.6172
  397SOL     OW 1189   0.911   0.290   0.137 -0.1367  0.2130 -0.5974
  397SOL    HW1 1190   0.830   0.249   0.182 -0.5938  1.0811  2.0965
  397SOL    HW2 1191   0.970   0.334   0.209 -1.6451 -0.6232  0.0353
  398SOL     OW 1192   0.723   2.334   2.815  0.4476  0.6179  0.2667
  398SOL    HW1 1193   0.814   2.373   2.829 -3.0266  0.9087  1.2180
  398SOL    HW2 1194   0.687   2.294   2.906 -1.4511  0.8878  1.4573
  399SOL     OW 1195   1.699   1.863   2.396  0.1438  0.2786  0.6683
  399SOL    HW1 1196   1.642   1.800   2.454 -0.9754  1.1706  1.2401
  399SOL    HW2 1197   1.795   1.838   2.404  0.7414  3.4998 -1.5917
  400SOL     OW 1198   2.124   1.506   1.403 -0.3137  0.2265  0.0472
  400SOL    HW1 1199   2.101   1.599   1.370 -2.0076 -0.7967 -1.8725
  400SOL    HW2 1200   2.169   1.449   1.328  3.1099  0.0430 -0.6001
  401SOL     OW 1201   1.215   1.195   1.022  0.5217 -0.3494 -0.1719
  401SOL    HW1 1202   1.165   1.108   1.050 -1.7304 -0.7902  0.3862
  401SOL    HW2 1203   1.292   1.176   0.959  2.2984 -0.2059  0.6234
  402SOL     OW 1204   3.090   2.483   1.875 -0.0158  0.1867  0.0696
  402SOL    HW1 1205   3.023   2.465   1.800 -1.4033  0.2280 -1.7888
  402SOL    HW2 1206   0.065   2.553   1.851 -2.4874 -3.8700  0.0262
  403SOL     OW 1207   0.003   1.579   1.809 -0.4815 -0.1673  0.6004
  403SOL    HW1 1208   3.030   1.653   1.828 -0.8561  1.6868  1.7976
  403SOL    HW2 1209   0.082   1.610   1.752  2.5275 -0.5755  0.0741
  404SOL     OW 1210   2.117   1.964   1.417  0.0369 -0.2044 -0.1011
  404SOL    HW1 1211   2.174   1.965   1.503  0.3719  0.6046  2.3700
  404SOL    HW2 1212   2.168   2.011   1.344 -1.0983 -0.9128  0.7459
  405SOL     OW 1213   2.555   0.350   2.912 -0.0539  0.2108 -0.6776
  405SOL    HW1 1214   2.584   0.402   2.995  3.2426  1.2079 -0.3740
  405SOL    HW2 1215   2.583   0.401   2.825 -0.7914  0.4935  2.7032
  406SOL     OW 1216   0.894   1.419   2.525  0.0548  0.2095  0.1164
  406SOL    HW1 1217   0.853   1.419   2.434  0.5491  1.8969  1.4374
  406SOL    HW2 1218   0.930   1.329   2.552  0.0639  2.1403  1.0648
  407SOL     OW 1219   1.972   2.795   0.079 -0.2477 -0.6374  0.2629
  407SOL    HW1 1220   1.956   2.703   0.122 -0.6748  2.2589  1.3195
  407SOL    HW2 1221   1.890   2.834   0.027  0.3002  2.2819  0.0813
  408SOL     OW 1222   0.479   0.066   0.661 -0.0364 -0.2674  0.1470
  408SOL    HW1 1223   0.450   0.068   0.562  0.2840 -2.6478  1.5380
  408SOL    HW2 1224   0.419   0.132   0.709  2.1132  0.0503  1.8268
  409SOL     OW 1225   2.317   1.713   1.133 -0.3508  0.0274  0.4166
  409SOL    HW1 1226   2.292   1.729   1.038  0.0338 -0.0034  4.6239
  409SOL    HW2 1227   2.416   1.681   1.141  1.2928 -3.7701  0.0818
  410SOL     OW 1228   2.396   2.101   3.095  0.2424  0.2400  0.4060
  410SOL    HW1 1229   2.466   2.118   0.071 -2.5516 -1.2952 -2.3052
  410SOL    HW2 1230   2.427   2.146   3.009  1.2421 -0.8987 -2.4525
  411SOL     OW 1231   0.078   0.908   0.480 -0.3435 -0.5751 -0.6524
  411SOL    HW1 1232   0.133   0.825   0.507  1.3628  0.9988 -1.8670
  411SOL    HW2 1233   0.023   0.940   0.562  0.6350 -0.3782 -2.6021
  412SOL     OW 1234   1.661   2.689   0.181 -0.7378 -0.3356  0.7527
  412SOL    HW1 1235   1.669   2.772   0.244  0.2929  2.3986  1.1736
  412SOL    HW2 1236   1.617   2.718   0.094  0.8643 -0.3962 -1.1442
  413SOL     OW 1237   2.055   0.239   2.304  0.9490  0.1946 -0.2978
  413SOL    HW1 1238   2.044   0.202   2.209 -0.2343 -0.4631  0.3330
  413SOL    HW2 1239   2.033   0.172   2.377 -2.4293 -0.4280 -0.5883
  414SOL     OW 1240   0.159   0.217   0.514  0.0756 -0.3282 -0.1533
  414SOL    HW1 1241   0.144   0.320   0.517 -0.5655 -1.1192  0.7695
  414SOL    HW2 1242   0.141   0.171   0.605  3.0680  1.2189 -0.7819
  415SOL     OW 1243   0.766   1.585   1.437 -0.2604 -0.0887  0.5513
  415SOL    HW1 1244   0.695   1.656   1.414 -0.0706 -0.7710 -1.2735
  415SOL    HW2 1245   0.723   1.508   1.487 -1.7177  1.8629  1.1960
  416SOL     OW 1246   0.518   2.967   0.261 -0.7253  0.0721  0.4377
  416SOL    HW1 1247   0.498   3.033   0.184  2.6612  0.5376 -1.7492
  416SOL    HW2 1248   0.435   2.927   0.302 -0.7137  0.5575  0.1641
  417SOL     OW 1249   2.728   2.878   1.128  0.1254  0.0593  0.1193
  417SOL    HW1 1250   2.683   2.837   1.208  2.9605 -1.3275 -1.0939
  417SOL    HW2 1251   2.691   2.839   1.042  0.7500  2.4576  0.7837
  418SOL     OW 1252   0.654   0.691   2.625 -0.1363  0.1550  0.2807
  418SOL    HW1 1253   0.697   0.763   2.568  1.5919  2.2323 -0.6390
  418SOL    HW2 1254   0.719   0.618   2.656  0.5378  2.2334 -2.2885
  419SOL     OW 1255   0.180   1.595   1.219  0.2595  0.3071 -0.1065
  419SOL    HW1 1256   0.112   1.517   1.198 -2.2023 -0.6209 -0.2592
  419SOL    HW2 1257   0.131   1.689   1.231 -1.8716  1.1629 -2.3949
  420SOL     OW 1258   1.628   2.002   0.815  0.3625  0.2269 -0.1976
  420SOL    HW1 1259   1.596   2.091   0.851  1.6411  2.3369 -0.0839
  420SOL    HW2 1260   1.590   1.988   0.722  3.1831 -0.4060 -0.5172
  421SOL     OW 1261   1.701   1.862   2.026  0.0652  0.5605  0.4532
  421SOL    HW1 1262   1.750   1.854   1.939  2.9925  3.8125  1.9318
  421SOL    HW2 1263   1.752   1.813   2.101  1.7716 -0.9920  0.4714
  422SOL     OW 1264   3.005   0.607   3.045 -0.1523  0.6225  0.3265
  422SOL    HW1 1265   2.908   0.584   3.028  2.9005  2.5653  2.8611
  422SOL    HW2 1266   3.028   0.590   0.048 -2.5470  0.6497 -0.6401
  423SOL     OW 1267   1.531   2.207   0.948 -0.5408 -0.4816 -0.1329
  423SOL    HW1 1268   1.573   2.301   0.971 -1.3410  2.1504  0.6624
  423SOL    HW2 1269   1.443   2.193   0.996  0.9902  1.3493  1.7809
  424SOL     OW 1270   0.659   1.399   1.587 -0.2635  0.7540 -0.2508
  424SOL    HW1 1271   0.570   1.372   1.538  2.0388 -0.8482  0.1611
  424SOL    HW2 1272   0.644   1.438   1.681 -0.9393 -0.6223 -0.4060
  425SOL     OW 1273   2.907   2.677   2.173 -0.3559 -0.0353 -0.2010
  425SOL    HW1 1274   2.864   2.721   2.097  3.6891 -1.0301  2.1247
  425SOL    HW2 1275   2.856   2.595   2.204 -0.4288  1.5495  0.3570
  426SOL     OW 1276   2.346   2.745   0.626 -0.5120 -0.2658  0.1846
  426SOL    HW1 1277   2.299   2.828   0.672  1.6851  2.2760 -0.1887
  426SOL    HW2 1278   2.417   2.772   0.552  1.3268  1.1310 -2.6304
  427SOL     OW 1279   0.490   0.852   2.804 -0.8753  0.7287 -0.2576
  427SOL    HW1 1280   0.507   0.948   2.805 -2.0883  1.6316 -5.0317
  427SOL    HW2 1281   0.567   0.800   2.766  1.7652 -1.9722  2.3851
  428SOL     OW 1282   1.991   1.202   0.381  0.2610  0.1990 -0.0304
  428SOL    HW1 1283   1.915   1.153   0.335  1.2723 -0.7620  0.8783
  428SOL    HW2 1284   1.997   1.172   0.477 -1.4644  0.6837  1.1537
  429SOL     OW 1285   3.055   0.091   0.287  0.0312  0.4941  0.6744
  429SOL    HW1 1286   3.085   0.133   0.373 -0.0747 -0.9530  2.3359
  429SOL    HW2 1287   2.960   0.055   0.297  2.1690 -1.5017  0.6109
  430SOL     OW 1288   0.502   2.838   2.295  0.4558  0.0798 -0.0987
  430SOL    HW1 1289   0.559   2.893   2.231 -1.2030 -1.4777 -0.1982
  430SOL    HW2 1290   0.412   2.885   2.302  1.1021 -1.5003 -1.8262
  431SOL     OW 1291   2.656   1.176   1.386  0.0541  0.3083  0.3433
  431SOL    HW1 1292   2.575   1.231   1.412  3.5286 -0.7532 -0.1180
  431SOL    HW2 1293   2.705   1.139   1.472 -0.0163  0.3182  2.8219
  432SOL     OW 1294   1.943   2.351   1.878  0.3905 -0.0151  0.3660
  432SOL    HW1 1295   2.023   2.360   1.819  2.1087  2.6537  0.1809
  432SOL    HW2 1296   1.966   2.295   1.963 -0.3037 -0.9062  0.1357
  433SOL     OW 1297   1.034   1.964   0.188  0.1927 -0.5738 -0.4549
  433SOL    HW1 1298   1.012   1.864   0.163 -1.6911 -3.1503 -1.4818
  433SOL    HW2 1299   1.031   2.023   0.109  0.3848 -3.3801  2.8982
  434SOL     OW 1300   0.311   2.214   2.636 -0.2198  0.3561  0.0110
  434SOL    HW1 1301   0.342   2.234   2.731  2.6994 -0.4691  1.0804
  434SOL    HW2 1302   0.356   2.266   2.561 -0.6039 -1.7842 -0.1574
  435SOL     OW 1303   0.503   0.643   0.319  0.5761  0.2281 -0.2976
  435SOL    HW1 1304   0.563   0.607   0.243 -1.1002  1.2550 -2.3930
  435SOL    HW2 1305   0.499   0.742   0.320 -1.8103 -2.9383 -0.4380
  436SOL     OW 1306   0.284   2.795   1.426 -0.1147  0.0779 -0.1542
  436SOL    HW1 1307   0.320   2.707   1.390  1.9520  0.5565 -1.7354
  436SOL    HW2 1308   0.196   2.824   1.383  1.6697  1.8108 -0.8282
  437SOL     OW 1309   1.195   2.073   1.506  0.0154  0.1010 -0.0282
  437SOL    HW1 1310   1.098   2.080   1.527  0.5068 -2.2248 -1.2032
  437SOL    HW2 1311   1.229   2.169   1.509  1.1327 -0.2939 -0.7836
  438SOL     OW 1312   0.014   1.926   0.923 -0.1224  0.5185  0.1365
  438SOL    HW1 1313   3.088   1.976   1.009 -0.2466 -0.6763  1.5671
  438SOL    HW2 1314   3.069   1.977   0.845 -0.3051  3.1329 -1.7935
  439SOL     OW 1315   0.368   0.506   1.175 -0.3683 -0.7681  0.1522
  439SOL    HW1 1316   0.320   0.486   1.265 -1.8626 -0.3685  3.6761
  439SOL    HW2 1317   0.375   0.423   1.117  2.4590 -2.6207  2.5183
  440SOL     OW 1318   0.139   2.787   2.453 -0.1636  0.2519 -0.5437
  440SOL    HW1 1319   0.142   2.685   2.457  0.4379 -0.8059  0.8189
  440SOL    HW2 1320   0.142   2.830   2.546 -0.8978  0.3114  0.1790
  441SOL     OW 1321   3.046   0.639   1.281 -0.2505 -0.8667 -0.0883
  441SOL    HW1 1322   2.974   0.688   1.227 -3.0805 -1.7865 -1.0518
  441SOL    HW2 1323   3.024   0.651   1.380  2.4077 -0.4669 -1.6556
  442SOL     OW 1324   1.853   2.231   2.971  0.1833  0.5890  0.1860
  442SOL    HW1 1325   1.945   2.249   3.011  0.2332  2.6123  0.6594
  442SOL    HW2 1326   1.819   2.311   2.922 -0.1417  1.1080 -2.1570
  443SOL     OW 1327   0.517   1.097   3.074  0.7829  0.0783 -0.3910
  443SOL    HW1 1328   0.488   1.000   3.069 -1.7826  1.0038 -2.1927
  443SOL    HW2 1329   0.456   1.146   3.014  0.7814 -1.5056 -1.5967
  444SOL     OW 1330   1.298   1.675   1.921  0.2778  0.2907  0.0649
  444SOL    HW1 1331   1.206   1.700   1.881  0.4616 -1.6133  0.7669
  444SOL    HW2 1332   1.286   1.622   2.006 -0.1760 -0.8578 -1.1147
  445SOL     OW 1333   0.236   3.086   0.917 -0.3579  0.4601  0.2682
  445SOL    HW1 1334   0.216   0.070   0.855 -0.1602 -0.2089 -0.2545
  445SOL    HW2 1335   0.199   3.089   1.011 -0.2219 -2.2663 -1.2089
  446SOL     OW 1336   2.481   0.679   1.137 -0.0716 -0.1317 -0.2176
  446SOL    HW1 1337   2.492   0.763   1.188  1.1023 -0.5513  0.3637
  446SOL    HW2 1338   2.440   0.694   1.042 -1.0655  0.0867 -2.4738
  447SOL     OW 1339   0.283   0.884   0.043  0.1772  0.0347 -0.2688
  447SOL    HW1 1340   0.259   0.791   0.069 -0.5037  1.2570  1.2781
  447SOL    HW2 1341   0.256   0.947   0.119 -2.1399  1.3982 -0.8850
  448SOL     OW 1342   1.162   2.354   1.724  0.1603  0.3328  0.2501
  448SOL    HW1 1343   1.234   2.307   1.777 -0.1039 -0.1632 -1.0687
  448SOL    HW2 1344   1.173   2.355   1.620  1.3436  0.5001 -3.4108
  449SOL     OW 1345   1.229   1.237   0.512 -0.2537 -0.1807 -0.0157
  449SOL    HW1 1346   1.187   1.316   0.558 -1.1215 -1.1715  0.1432
  449SOL    HW2 1347   1.153   1.171   0.496  2.0284  1.7344 -0.4321
  450SOL     OW 1348   2.675   1.741   1.823  0.0551  0.4247  0.5308
  450SOL    HW1 1349   2.772   1.762   1.851  2.1894 -0.2328  0.7824
  450SOL    HW2 1350   2.610   1.779   1.893  0.9860  2.0848 -0.7466
  451SOL     OW 1351   2.667   1.381   2.745  0.5707 -0.0427  0.0005
  451SOL    HW1 1352   2.640   1.290   2.772 -0.6591  2.5377  0.1265
  451SOL    HW2 1353   2.596   1.425   2.687 -2.7092 -0.5768 -0.5833
  452SOL     OW 1354   1.734   0.530   1.193 -0.0784  0.2385  0.3213
  452SOL    HW1 1355   1.640   0.518   1.161  0.0681 -0.9093 -0.8355
  452SOL    HW2 1356   1.785   0.606   1.152 -1.9265 -0.7014  2.5064
  453SOL     OW 1357   1.918   1.099   1.012 -0.2164  0.0928 -0.4806
  453SOL    HW1 1358   1.826   1.086   1.050 -0.2184 -0.6526  0.0899
  453SOL    HW2 1359   1.935   1.198   1.006  1.6523 -0.1366  1.1292
  454SOL     OW 1360   2.950   0.842   0.324 -0.1011  0.0533  0.1932
  454SOL    HW1 1361   3.032   0.891   0.360 -1.1975 -0.3404  1.2918
  454SOL    HW2 1362   2.923   0.766   0.386  2.8295  0.8356  0.9853
  455SOL     OW 1363   2.591   1.707   1.163 -0.2226  0.2467 -0.0328
  455SOL    HW1 1364   2.667   1.651   1.202 -2.1142  0.6717  1.8869
  455SOL    HW2 1365   2.638   1.782   1.117 -1.4289  1.0401  2.0703
  456SOL     OW 1366   0.748   0.084   1.300 -0.1813 -0.0140 -0.4022
  456SOL    HW1 1367   0.686   0.094   1.381  1.0045  2.0403 -1.3989
  456SOL    HW2 1368   0.808   0.005   1.308  1.3445 -0.8327  0.2506
  457SOL     OW 1369   1.772   2.825   0.782  0.3779 -0.0577 -0.1744
  457SOL    HW1 1370   1.767   2.757   0.703  0.8879  0.1305 -0.8561
  457SOL    HW2 1371   1.702   2.901   0.775  0.5022  2.4717 -4.5446
  458SOL     OW 1372   2.513   0.245   0.651 -0.0443  0.6043 -0.3550
  458SOL    HW1 1373   2.526   0.170   0.721  1.8934 -0.6688  1.1421
  458SOL    HW2 1374   2.536   0.332   0.691 -1.4579 -1.7079  1.8248
  459SOL     OW 1375   1.781   0.656   2.932 -0.0647 -0.3469 -0.9286
  459SOL    HW1 1376   1.858   0.704   2.981 -1.3549  0.3958 -2.2029
  459SOL    HW2 1377   1.729   0.590   2.995 -1.5973 -1.7703  5.7033
  460SOL     OW 1378   2.936   2.681   2.573 -0.2157 -0.0770  0.1157
  460SOL    HW1 1379   3.000   2.750   2.536  1.6809  1.8026 -0.0455
  460SOL    HW2 1380   2.851   2.725   2.615 -1.9065  0.1879 -1.3485
  461SOL     OW 1381   0.754   1.705   0.139 -0.0008  0.8239 -0.0087
  461SOL    HW1 1382   0.731   1.745   0.227  1.7280 -3.5481 -0.5953
  461SOL    HW2 1383   0.680   1.648   0.105 -0.2969  0.4691  0.6288
  462SOL     OW 1384   2.172   2.355   0.852  0.3073 -0.2987 -0.0076
  462SOL    HW1 1385   2.230   2.438   0.839 -0.9668 -1.3807 -0.7275
  462SOL    HW2 1386   2.146   2.351   0.952  1.9712  2.8461  2.6554
  463SOL     OW 1387   0.094   0.481   0.489 -0.0949  0.7197  0.2954
  463SOL    HW1 1388   0.135   0.501   0.579  0.4473  0.6469  0.0469
  463SOL    HW2 1389   0.148   0.516   0.409 -2.8766 -0.5285 -0.4113
  464SOL     OW 1390   0.841   2.507   0.530  0.2593  0.2157  0.0332
  464SOL    HW1 1391   0.742   2.528   0.543  1.4253  3.3271  0.6955
  464SOL    HW2 1392   0.874   2.534   0.439 -2.9509  0.6206 -0.7506
  465SOL     OW 1393   2.492   0.821   0.627  0.2649 -0.0354 -0.4419
  465SOL    HW1 1394   2.395   0.850   0.626  1.0324  2.1882 -1.4257
  465SOL    HW2 1395   2.509   0.750   0.554 -1.7567  0.9837  1.3206
  466SOL     OW 1396   2.199   0.028   3.014  0.2653 -0.5546 -0.0085
  466SOL    HW1 1397   2.274   0.095   3.028  0.1015  0.9018  0.8753
  466SOL    HW2 1398   2.226   3.023   3.011  1.1626  0.1779 -1.8911
  467SOL     OW 1399   1.317   0.424   2.028  0.0888 -0.2824  0.4623
  467SOL    HW1 1400   1.218   0.450   2.036 -0.8245  0.4967 -1.1691
  467SOL    HW2 1401   1.375   0.503   1.993  1.9423  0.6020  0.3419
  468SOL     OW 1402   2.925   0.556   1.955 -0.3895 -0.5369 -0.5986
  468SOL    HW1 1403   2.991   0.480   1.937  0.8256 -2.6078  0.6693
  468SOL    HW2 1404   2.933   0.635   1.887 -0.4945 -0.7257 -0.0010
  469SOL     OW 1405   0.659   0.030   2.621 -0.3831 -0.3200 -0.2975
  469SOL    HW1 1406   0.606   3.069   2.685 -1.8874  1.9425 -3.1401
  469SOL    HW2 1407   0.600   0.072   2.549 -2.2263 -0.0556 -1.6468
  470SOL     OW 1408   1.685   1.302   2.238  0.1098  0.2751 -0.3757
  470SOL    HW1 1409   1.582   1.309   2.239  0.0286 -0.6319  0.3080
  470SOL    HW2 1410   1.724   1.376   2.180 -1.5152 -0.4694 -0.7489
  471SOL     OW 1411   2.645   1.042   0.016 -0.4630 -0.1438  0.5296
  471SOL    HW1 1412   2.641   0.941   0.001  1.3056 -1.3064  1.6458
  471SOL    HW2 1413   2.729   1.058   0.076  0.6858 -0.9775  2.5708
  472SOL     OW 1414   0.362   2.739   0.403  0.3219  0.6334  0.1850
  472SOL    HW1 1415   0.282   2.781   0.444  2.1176 -0.9224  0.1479
  472SOL    HW2 1416   0.423   2.690   0.466  2.7473 -0.9597  1.6205
  473SOL     OW 1417   0.815   0.136   2.820 -1.2037 -0.0493 -0.6616
  473SOL    HW1 1418   0.739   0.157   2.890 -2.2274  2.7723  2.7196
  473SOL    HW2 1419   0.776   0.100   2.732  0.5028  0.1141  1.9525
  474SOL     OW 1420   1.681   2.871   2.164  0.2651 -0.7498  0.5655
  474SOL    HW1 1421   1.670   2.948   2.094  1.5331 -0.5327  0.2595
  474SOL    HW2 1422   1.694   2.906   2.259  1.9399  3.3467  1.0635
  475SOL     OW 1423   0.852   2.588   0.236 -0.3156  0.4687  0.0082
  475SOL    HW1 1424   0.938   2.630   0.197  1.3764  0.5581  0.7812
  475SOL    HW2 1425   0.791   2.666   0.257  1.7449  0.4253  1.4593
  476SOL     OW 1426   0.407   0.856   0.892  0.0183 -0.2619  0.3106
  476SOL    HW1 1427   0.333   0.922   0.861 -1.8496 -0.8715 -1.4238
  476SOL    HW2 1428   0.473   0.826   0.818  0.5364 -3.0761  0.9311
  477SOL     OW 1429   1.850   2.025   1.467  0.3965  0.1544 -0.0521
  477SOL    HW1 1430   1.949   2.005   1.446  2.2711  1.3977 -0.4828
  477SOL    HW2 1431   1.834   1.978   1.557  0.2624 -2.1484 -1.3750
  478SOL     OW 1432   0.390   1.215   2.129 -0.2910  0.3601 -0.2145
  478SOL    HW1 1433   0.449   1.189   2.046  2.9581 -0.6892 -3.3121
  478SOL    HW2 1434   0.298   1.252   2.102 -1.3399 -1.4668  0.5244
  479SOL     OW 1435   0.681   0.131   0.828  0.0476 -0.4507  0.3268
  479SOL    HW1 1436   0.777   0.089   0.828  2.5564  0.6967  2.8113
  479SOL    HW2 1437   0.620   0.093   0.752  1.4050 -2.0672 -3.6366
  480SOL     OW 1438   2.363   2.631   2.957 -0.3053  0.3534  0.2999
  480SOL    HW1 1439   2.320   2.566   3.017 -1.4560  0.7764 -0.0665
  480SOL    HW2 1440   2.361   2.594   2.861  0.1924  0.7869  0.3524
  481SOL     OW 1441   2.710   0.455   1.176 -0.1821  0.1213  0.7206
  481SOL    HW1 1442   2.633   0.521   1.179 -0.1675  0.6604 -2.2966
  481SOL    HW2 1443   2.759   0.454   1.265 -1.2099  0.9158 -3.8727
  482SOL     OW 1444   1.430   2.556   1.710 -0.0842 -0.5176  0.0992
  482SOL    HW1 1445   1.401   2.459   1.712 -0.4838 -2.0045  0.9104
  482SOL    HW2 1446   1.438   2.589   1.810  0.2964 -0.6154  2.2810
  483SOL     OW 1447   0.015   1.626   2.889 -0.3792 -0.8634  0.0502
  483SOL    HW1 1448   3.071   1.539   2.847  0.2986 -2.1573  0.4849
  483SOL    HW2 1449   0.112   1.613   2.922  0.0343  0.3640  0.6595
  484SOL     OW 1450   1.315   2.069   2.337  0.2981  0.0209  0.1434
  484SOL    HW1 1451   1.322   2.078   2.235  1.0448  1.1715  0.6709
  484SOL    HW2 1452   1.238   2.128   2.368 -1.5845  1.7610 -0.2846
  485SOL     OW 1453   0.052   0.155   2.508  0.1074  0.1601  0.1586
  485SOL    HW1 1454   0.041   0.233   2.442 -0.1637  0.9117 -3.3024
  485SOL    HW2 1455   0.001   0.075   2.462  0.7821 -1.6354 -0.8015
  486SOL     OW 1456   1.795   3.074   0.371 -0.1292 -0.1973 -0.1994
  486SOL    HW1 1457   1.727   0.050   0.399 -1.6594 -1.7281  0.5565
  486SOL    HW2 1458   1.845   3.049   0.459 -0.4386  0.9432  3.1516
  487SOL     OW 1459   1.180   2.503   0.933 -0.2123 -0.4194  0.8810
  487SOL    HW1 1460   1.215   2.418   0.888 -1.0534 -0.3190 -0.3660
  487SOL    HW2 1461   1.106   2.545   0.870 -0.8101  2.3249 -1.9360
  488SOL     OW 1462   1.847   0.925   0.748 -0.0269 -0.2369  0.4144
  488SOL    HW1 1463   1.807   0.912   0.840  0.7280  0.1905 -4.9152
  488SOL    HW2 1464   1.902   1.013   0.753  1.0037  1.0523  1.3657
  489SOL     OW 1465   1.066   2.758   1.294 -0.0726 -0.3410 -0.3008
  489SOL    HW1 1466   0.974   2.741   1.339 -1.4090 -0.4902  2.6118
  489SOL    HW2 1467   1.130   2.797   1.361 -1.6401 -0.7682 -2.1607
  490SOL     OW 1468   0.880   0.657   0.591  0.1332 -0.4014 -0.3234
  490SOL    HW1 1469   0.910   0.733   0.652  0.4978 -1.8666 -1.0465
  490SOL    HW2 1470   0.880   0.687   0.497  0.9430 -1.5781 -0.4985
  491SOL     OW 1471   1.486   2.923   0.102 -0.9727 -0.2840 -0.1583
  491SOL    HW1 1472   1.440   3.010   0.109  0.4587 -1.3507 -0.4362
  491SOL    HW2 1473   1.423   2.850   0.080  0.5126 -1.1340  0.0808
  492SOL     OW 1474   1.419   1.319   2.195 -0.3815  0.6710  0.3993
  492SOL    HW1 1475   1.346   1.388   2.201  3.1849  0.0868 -2.6580
  492SOL    HW2 1476   1.377   1.229   2.217 -2.0397 -0.3204 -0.4954
  493SOL     OW 1477   0.051   1.851   0.295 -0.2450  0.0029 -0.1447
  493SOL    HW1 1478   0.025   1.762   0.250 -0.5554 -0.2416 -1.5405
  493SOL    HW2 1479   0.108   1.828   0.377  0.6103 -0.3402 -2.9151
  494SOL     OW 1480   2.074   1.501   0.467 -0.1176  0.0013  0.0916
  494SOL    HW1 1481   2.000   1.556   0.507  2.1696 -1.1800 -0.9798
  494SOL    HW2 1482   2.036   1.411   0.447 -2.4422  0.4254 -1.4301
  495SOL     OW 1483   3.027   0.778   2.670 -0.6151  0.3083 -0.8213
  495SOL    HW1 1484   2.967   0.772   2.588 -0.3394  2.0544  0.2660
  495SOL    HW2 1485   3.083   0.870   2.672  0.7182  1.7848 -1.5861
  496SOL     OW 1486   2.636   3.067   2.424  0.3518  0.0467 -0.2922
  496SOL    HW1 1487   2.631   0.045   2.357  1.5454 -3.7215  0.0194
  496SOL    HW2 1488   2.668   2.976   2.382  0.5279 -1.1033 -0.4580
  497SOL     OW 1489   2.694   0.997   0.691 -0.7572 -0.0930  0.7166
  497SOL    HW1 1490   2.650   0.911   0.658 -0.3308 -1.4589  0.3531
  497SOL    HW2 1491   2.755   1.032   0.618  0.7167 -1.0822 -1.7206
  498SOL     OW 1492   0.072   2.791   3.047 -0.0636 -0.1679  0.7847
  498SOL    HW1 1493   0.131   2.750   0.022  0.0990  1.7888 -0.0475
  498SOL    HW2 1494   0.098   2.887   3.038  2.3074 -0.1678  1.6172
  499SOL     OW 1495   1.451   2.478   0.839  0.7007  0.3521  0.2549
  499SOL    HW1 1496   1.365   2.493   0.894 -3.5828  3.1502  3.9013
  499SOL    HW2 1497   1.439   2.418   0.761  0.6728  0.4710  0.6305
  500SOL     OW 1498   1.020   0.460   2.563  0.3112 -0.2740 -0.3599
  500SOL    HW1 1499   0.938   0.457   2.629  0.6430 -0.4946 -1.7467
  500SOL    HW2 1500   1.100   0.511   2.602  0.8077 -1.0429  1.7764
  501SOL     OW 1501   1.074   0.260   1.448 -0.4276 -0.4592  0.7622
  501SOL    HW1 1502   1.153   0.193   1.426  3.2262 -1.5438  0.4034
  501SOL    HW2 1503   0.990   0.213   1.467  1.0209  1.6455  0.0810
  502SOL     OW 1504   2.909   0.127   2.201  0.4428  0.2204  0.3061
  502SOL    HW1 1505   3.010   0.102   2.206  3.8866 -0.9111 -2.1393
  502SOL    HW2 1506   2.908   0.230   2.185 -1.7852 -0.4990  1.5734
  503SOL     OW 1507   1.677   2.153   2.101  0.7501  0.5897  0.1762
  503SOL    HW1 1508   1.645   2.065   2.062  1.0031 -0.8775 -1.4520
  503SOL    HW2 1509   1.676   2.145   2.197  0.2498 -1.6565 -2.0569
  504SOL     OW 1510   2.212   2.822   1.617 -0.6466  0.4209 -0.2601
  504SOL    HW1 1511   2.288   2.883   1.653 -0.4322  1.6333 -1.7094
  504SOL    HW2 1512   2.135   2.874   1.573  3.3671  1.0052  2.6047
  505SOL     OW 1513   2.788   1.059   1.584  0.4343 -0.3280  0.3852
  505SOL    HW1 1514   2.882   1.027   1.605 -0.8624  1.3169 -2.0040
  505SOL    HW2 1515   2.756   1.129   1.650  1.2253  0.5997 -0.6152
  506SOL     OW 1516   0.151   1.554   2.453 -0.7732  0.2364 -0.2804
  506SOL    HW1 1517   0.107   1.464   2.425 -1.9036  0.4903  1.0469
  506SOL    HW2 1518   0.248   1.535   2.482  2.3643 -3.3325 -0.9507
  507SOL     OW 1519   0.235   0.070   1.566 -0.1080 -0.1814 -0.1670
  507SOL    HW1 1520   0.157   0.123   1.526  0.3051 -1.1174 -0.0807
  507SOL    HW2 1521   0.301   0.049   1.491 -0.2199 -2.6500 -2.1710
  508SOL     OW 1522   1.345   0.647   1.463 -0.2123  0.0853 -0.3502
  508SOL    HW1 1523   1.317   0.734   1.423 -1.5790 -1.2870  1.9917
  508SOL    HW2 1524   1.442   0.621   1.436 -0.3106  1.6528 -1.1640
  509SOL     OW 1525   1.302   2.109   1.123 -0.1739 -1.0465  0.6103
  509SOL    HW1 1526   1.326   2.201   1.156 -1.1737  1.3834 -0.0707
  509SOL    HW2 1527   1.202   2.085   1.142 -1.5510  1.1177 -0.7113
  510SOL     OW 1528   2.565   1.149   2.841  0.2504 -0.2299  0.2412
  510SOL    HW1 1529   2.489   1.082   2.819 -2.8823 -2.4043  2.0881
  510SOL    HW2 1530   2.589   1.130   2.939 -0.4153  1.0299 -2.2576
  511SOL     OW 1531   0.566   1.443   1.226 -0.7251 -0.7977 -1.0486
  511SOL    HW1 1532   0.528   1.378   1.299 -0.2350  0.1138 -2.3170
  511SOL    HW2 1533   0.520   1.426   1.138 -3.6204  1.6942  0.0889
  512SOL     OW 1534   2.742   2.538   0.364  0.7086 -0.1089  0.1621
  512SOL    HW1 1535   2.743   2.484   0.454  2.3070 -2.8522 -1.1540
  512SOL    HW2 1536   2.652   2.528   0.313  0.9851  1.8159 -2.1602
  513SOL     OW 1537   0.292   1.556   2.962  1.3217 -0.1956 -0.0137
  513SOL    HW1 1538   0.291   1.599   3.057 -0.9389  2.3330 -2.1926
  513SOL    HW2 1539   0.298   1.452   2.960  0.2735 -0.3632 -1.2045
  514SOL     OW 1540   0.108   2.477   2.966 -0.7432  0.0202 -0.1397
  514SOL    HW1 1541   0.156   2.542   2.910  0.2169 -0.7811  1.2943
  514SOL    HW2 1542   0.011   2.509   2.983 -2.7858  2.7445  1.2740
  515SOL     OW 1543   1.511   0.948   2.160 -0.1974  0.1437  0.3182
  515SOL    HW1 1544   1.428   0.926   2.105  1.6884  1.6504 -0.6500
  515SOL    HW2 1545   1.491   1.031   2.224  0.1032  1.6320  0.9919
  516SOL     OW 1546   2.031   2.197   0.674  0.2043 -0.0152 -0.1945
  516SOL    HW1 1547   2.071   2.140   0.600  1.1896 -1.9838 -3.0529
  516SOL    HW2 1548   2.100   2.243   0.734 -1.1908  0.8154  2.4934
  517SOL     OW 1549   1.344   1.520   0.710 -0.5552  0.1611  0.2705
  517SOL    HW1 1550   1.421   1.519   0.771 -1.3926  1.5155 -3.3819
  517SOL    HW2 1551   1.373   1.512   0.610  2.0962 -0.9162 -0.2939
  518SOL     OW 1552   2.271   2.328   2.235 -0.0939  0.0951 -0.2267
  518SOL    HW1 1553   2.178   2.301   2.198  0.6543  1.4450 -0.9315
  518SOL    HW2 1554   2.257   2.394   2.308 -0.8997 -1.7861 -0.5945
  519SOL     OW 1555   1.862   2.151   1.234  0.3079 -0.0666 -0.1679
  519SOL    HW1 1556   1.874   2.078   1.160 -1.5309  0.3890 -1.6942
  519SOL    HW2 1557   1.872   2.124   1.332  0.6639  1.1566  1.5030
  520SOL     OW 1558   2.645   2.364   2.533  0.2657  0.4388 -0.0853
  520SOL    HW1 1559   2.709   2.317   2.469 -4.0031  2.3350  0.9589
  520SOL    HW2 1560   2.574   2.298   2.569  2.9204 -0.8440 -2.0804
  521SOL     OW 1561   0.168   1.370   2.033  0.1687 -0.0189 -0.1796
  521SOL    HW1 1562   0.162   1.311   1.953  0.3415  0.9085  0.7380
  521SOL    HW2 1563   0.155   1.465   2.001 -2.1909 -0.2139  0.8220
  522SOL     OW 1564   0.592   0.382   2.297  0.1737  0.4498  0.1457
  522SOL    HW1 1565   0.529   0.406   2.224 -2.4810  0.1985  2.0805
  522SOL    HW2 1566   0.676   0.342   2.263  0.2043  0.6917 -0.8301
  523SOL     OW 1567   0.579   2.036   1.023 -0.7157  0.6366  0.3360
  523SOL    HW1 1568   0.507   1.965   1.053 -1.8556 -2.4233  3.7626
  523SOL    HW2 1569   0.532   2.120   0.983 -0.0090  0.9365  1.7548
  524SOL     OW 1570   1.882   2.804   0.359 -0.2370 -0.4568 -0.3704
  524SOL    HW1 1571   1.982   2.796   0.336 -0.2852 -1.3353  0.9459
  524SOL    HW2 1572   1.858   2.902   0.379  1.4172 -1.5141  0.3275
  525SOL     OW 1573   2.316   0.593   1.476  0.0228  0.1156  0.3436
  525SOL    HW1 1574   2.341   0.601   1.379 -2.3323  0.1505 -3.6865
  525SOL    HW2 1575   2.372   0.519   1.515  1.8883  0.6777 -1.4591
  526SOL     OW 1576   1.047   2.564   0.697 -0.7435  0.1898 -0.4356
  526SOL    HW1 1577   1.122   2.567   0.629 -0.9183 -0.8940  1.1232
  526SOL    HW2 1578   0.960   2.546   0.651 -0.2223  1.8047  0.6949
  527SOL     OW 1579   2.514   2.570   0.203  0.6017 -0.0240 -0.0339
  527SOL    HW1 1580   2.414   2.569   0.227 -0.0125  1.3894  1.1062
  527SOL    HW2 1581   2.533   2.500   0.128  0.7995  0.0504 -0.4768
  528SOL     OW 1582   2.432   0.144   0.221 -0.3999  0.1576  0.5066
  528SOL    HW1 1583   2.483   0.103   0.301  0.7259  0.0475 -0.8699
  528SOL    HW2 1584   2.332   0.147   0.227 -2.5240  0.2683 -2.0072
  529SOL     OW 1585   1.358   1.560   2.511  0.4416  0.4829 -0.0080
  529SOL    HW1 1586   1.456   1.536   2.504  0.1417  1.1248  1.3298
  529SOL    HW2 1587   1.343   1.647   2.461  0.9786  1.6315  1.9980
  530SOL     OW 1588   2.369   0.508   0.168 -0.8383 -0.5910  0.7473
  530SOL    HW1 1589   2.302   0.444   0.127 -0.6603  2.2500 -0.1419
  530SOL    HW2 1590   2.416   0.452   0.235  0.9164  0.7502 -1.6547
  531SOL     OW 1591   1.648   1.058   3.012  0.1897  0.2078 -0.5618
  531SOL    HW1 1592   1.603   1.014   3.093  2.2321  0.6666  2.2284
  531SOL    HW2 1593   1.595   1.035   2.932  0.7893  1.5641  0.0787
  532SOL     OW 1594   1.603   0.617   0.479 -0.1626  0.2224 -0.1028
  532SOL    HW1 1595   1.694   0.581   0.497  0.1437  0.8562  0.4312
  532SOL    HW2 1596   1.578   0.609   0.379 -1.2596 -1.8769 -3.4955
  533SOL     OW 1597   1.043   0.787   2.119  0.1456 -0.3528 -0.6364
  533SOL    HW1 1598   1.007   0.807   2.211 -0.5661  1.0775  2.9012
  533SOL    HW2 1599   0.994   0.845   2.045 -0.8447  1.9990 -1.8081
  534SOL     OW 1600   1.439   0.360   2.611  0.0668 -0.5569  0.3918
  534SOL    HW1 1601   1.487   0.281   2.643  0.9057  1.5153  0.5162
  534SOL    HW2 1602   1.336   0.359   2.622  1.1569  0.1712  2.2819
  535SOL     OW 1603   0.476   0.201   0.327  0.4981 -0.7027  0.0967
  535SOL    HW1 1604   0.425   0.134   0.377 -1.9033  0.2276 -0.1981
  535SOL    HW2 1605   0.421   0.244   0.250  0.0275  0.4956  0.2179
  536SOL     OW 1606   1.003   0.157   0.567  0.2855 -0.0455  0.1383
  536SOL    HW1 1607   0.923   0.156   0.505  2.2937 -1.1928  0.7855
  536SOL    HW2 1608   1.015   0.257   0.586 -0.2167 -1.3933 -1.3363
  537SOL     OW 1609   1.598   0.853   0.619 -0.3673 -0.4386  0.1130
  537SOL    HW1 1610   1.686   0.880   0.665 -2.6373  2.2274  0.3113
  537SOL    HW2 1611   1.618   0.780   0.552  0.4184  0.3884  0.0612
  538SOL     OW 1612   2.946   2.187   0.084 -0.1499  0.4742  0.0851
  538SOL    HW1 1613   2.921   2.254   0.012 -1.3390  1.9626 -1.0904
  538SOL    HW2 1614   2.996   2.107   0.047 -1.8686 -0.2294 -0.2899
  539SOL     OW 1615   2.070   1.766   0.118 -0.1012  0.1044  0.0411
  539SOL    HW1 1616   2.129   1.741   0.196  1.4442  1.3667 -0.5709
  539SOL    HW2 1617   2.046   1.678   0.066  1.3131 -0.7798  0.1360
  540SOL     OW 1618   0.397   2.553   1.319 -0.0121  0.0419  0.7506
  540SOL    HW1 1619   0.313   2.499   1.310  1.9406  3.2788 -0.7946
  540SOL    HW2 1620   0.433   2.592   1.230  2.2252 -0.9937 -1.7649
  541SOL     OW 1621   1.934   2.844   2.410  0.3286 -0.3557 -0.3056
  541SOL    HW1 1622   1.867   2.920   2.406 -0.5265 -0.6725  0.6101
  541SOL    HW2 1623   1.910   2.783   2.337 -0.0803  1.2928  1.3798
  542SOL     OW 1624   3.048   0.537   2.768  0.5320 -0.1155 -0.1211
  542SOL    HW1 1625   3.053   0.527   2.870  0.4153 -3.4536  1.4356
  542SOL    HW2 1626   3.051   0.634   2.734  0.9004 -2.7313  3.2728
  543SOL     OW 1627   0.075   1.297   1.089  0.5011 -0.3576  0.2056
  543SOL    HW1 1628   0.040   1.320   0.997  3.3468 -1.6975  0.0745
  543SOL    HW2 1629   0.033   1.219   1.139  0.0516  0.1198 -1.2291
  544SOL     OW 1630   2.693   0.245   1.005  0.4491 -0.4754  0.0486
  544SOL    HW1 1631   2.718   0.316   1.074 -0.9241  2.0212 -0.4043
  544SOL    HW2 1632   2.739   0.267   0.917 -0.1839  0.2657  3.1022
  545SOL     OW 1633   1.699   2.402   0.501  0.1613  0.2818  0.2928
  545SOL    HW1 1634   1.654   2.393   0.410 -0.5142 -2.5677  0.9336
  545SOL    HW2 1635   1.631   2.364   0.569 -1.1928  0.3612 -0.2473
  546SOL     OW 1636   2.097   2.612   1.740 -0.3314 -0.1016 -0.2708
  546SOL    HW1 1637   2.159   2.529   1.727 -2.1672  0.1456  1.9342
  546SOL    HW2 1638   2.132   2.692   1.692 -0.8774 -0.5456 -0.4853
  547SOL     OW 1639   0.103   0.055   2.193 -0.2634  0.4955  0.6062
  547SOL    HW1 1640   0.144   0.149   2.171  1.9558  0.4524 -0.3346
  547SOL    HW2 1641   0.103   0.004   2.108  0.2458  1.2417  0.5120
  548SOL     OW 1642   1.779   1.488   2.894 -0.0423  0.2076  0.4975
  548SOL    HW1 1643   1.707   1.446   2.955  1.3755 -3.9210 -1.0237
  548SOL    HW2 1644   1.838   1.413   2.860 -1.5197  1.5930 -0.0488
  549SOL     OW 1645   2.844   1.095   0.477 -0.5091  0.8788 -0.7373
  549SOL    HW1 1646   2.789   1.178   0.475  0.5894 -0.5496  1.3615
  549SOL    HW2 1647   2.864   1.059   0.384 -2.5446 -0.4266 -0.5553
  550SOL     OW 1648   1.898   2.022   0.827 -0.1657  0.0734  0.8604
  550SOL    HW1 1649   1.935   2.105   0.785 -1.6389  0.1314 -3.0655
  550SOL    HW2 1650   1.795   2.021   0.823  2.0436  2.4363  2.2790
  551SOL     OW 1651   1.224   0.560   0.764  0.2549  0.0146 -0.2319
  551SOL    HW1 1652   1.150   0.490   0.788 -1.8007 -1.5419 -0.6575
  551SOL    HW2 1653   1.316   0.513   0.760  2.8599 -0.5725  0.6358
  552SOL     OW 1654   2.732   2.834   2.354  0.2140 -0.5309  0.4856
  552SOL    HW1 1655   2.820   2.823   2.301  1.1194 -2.0114 -0.7984
  552SOL    HW2 1656   2.682   2.741   2.350 -1.5740 -2.4100  0.5755
  553SOL     OW 1657   2.970   3.058   2.431  0.0052 -0.7414  0.2803
  553SOL    HW1 1658   2.938   3.083   2.339  0.9627 -0.5950 -1.3953
  553SOL    HW2 1659   2.898   3.029   2.492  0.4313  0.8591  0.6040
  554SOL     OW 1660   0.916   2.899   1.072 -0.0791 -0.3805  0.3726
  554SOL    HW1 1661   0.831   2.897   1.129 -0.9684  0.3125 -0.3340
  554SOL    HW2 1662   1.003   2.891   1.126  0.3685  0.1898 -0.9815
  555SOL     OW 1663   2.568   2.575   2.109  0.5630 -0.8255 -0.0878
  555SOL    HW1 1664   2.566   2.548   2.012 -1.7499  1.0588  2.0066
  555SOL    HW2 1665   2.647   2.528   2.158  0.1467 -0.9266 -0.9102
  556SOL     OW 1666   1.172   0.225   2.626  0.0333 -0.2058 -0.6236
  556SOL    HW1 1667   1.084   0.276   2.619 -1.0639 -1.3939  1.0637
  556SOL    HW2 1668   1.205   0.191   2.536  1.8535 -2.9643 -0.1329
  557SOL     OW 1669   0.239   1.874   2.398  0.5066  0.0925  0.3946
  557SOL    HW1 1670   0.203   1.898   2.489 -0.3950  1.3756 -0.5899
  557SOL    HW2 1671   0.303   1.795   2.405  3.0510 -0.1900 -0.4061
  558SOL     OW 1672   2.180   0.952   2.496  0.6056 -0.2643  0.8902
  558SOL    HW1 1673   2.194   0.854   2.470  1.4320  1.0346 -0.1782
  558SOL    HW2 1674   2.120   1.000   2.429  0.0225 -1.7593  0.4115
  559SOL     OW 1675   2.616   2.147   2.276  0.1608 -0.1926  0.0332
  559SOL    HW1 1676   2.513   2.133   2.288 -3.1557  1.5886 -0.3172
  559SOL    HW2 1677   2.633   2.233   2.228 -1.2250 -0.6906  1.4549
  560SOL     OW 1678   2.467   0.756   2.264 -0.1194 -0.4486  0.2910
  560SOL    HW1 1679   2.377   0.749   2.313 -2.9602  0.6630  4.7739
  560SOL    HW2 1680   2.460   0.834   2.197 -0.8353  2.1622 -2.5765
  561SOL     OW 1681   0.312   0.289   0.142 -0.5673  0.3878 -0.4492
  561SOL    HW1 1682   0.212   0.294   0.170 -1.5370 -0.2732 -0.0761
  561SOL    HW2 1683   0.325   0.307   0.041  2.2549 -1.3514 -3.1063
  562SOL     OW 1684   1.079   1.281   1.464 -0.3440 -0.0338 -0.2162
  562SOL    HW1 1685   1.126   1.285   1.556  2.1012 -1.3241  1.4416
  562SOL    HW2 1686   0.994   1.229   1.469 -0.4015  0.8276  0.0320
  563SOL     OW 1687   1.572   2.979   2.655 -0.8619  0.3232  0.3605
  563SOL    HW1 1688   1.476   2.988   2.696 -1.7174 -0.3961  1.3142
  563SOL    HW2 1689   1.638   2.935   2.720 -3.5224 -0.6080  0.4986
  564SOL     OW 1690   0.024   2.070   1.181  0.4477  0.1230 -0.5463
  564SOL    HW1 1691   3.026   2.093   1.215 -0.7582  1.1917 -0.8093
  564SOL    HW2 1692   0.089   2.144   1.151  2.2636 -0.2004  0.4837
  565SOL     OW 1693   0.813   2.534   2.123 -0.4441  0.1956  0.5620
  565SOL    HW1 1694   0.765   2.617   2.077  0.1150  0.7216 -0.5270
  565SOL    HW2 1695   0.843   2.472   2.051 -1.7349  0.7491 -0.8367
  566SOL     OW 1696   1.173   2.509   2.129 -0.7052  0.3620 -0.1218
  566SOL    HW1 1697   1.090   2.448   2.117  3.2039 -2.5816 -1.5934
  566SOL    HW2 1698   1.254   2.460   2.089  1.7226  1.1652 -2.6706
  567SOL     OW 1699   2.034   2.382   1.081 -0.3622 -0.2589 -0.4983
  567SOL    HW1 1700   2.030   2.435   1.169  2.5433 -0.3064  1.4893
  567SOL    HW2 1701   2.009   2.444   1.004 -0.7709  0.6208 -0.1268
  568SOL     OW 1702   1.959   0.595   0.360 -0.2748 -0.1537  0.3437
  568SOL    HW1 1703   2.000   0.686   0.348 -2.2695 -0.6857 -0.8714
  568SOL    HW2 1704   1.917   0.580   0.456 -0.6783  0.1247  0.8991
  569SOL     OW 1705   2.871   1.722   2.736 -0.1886 -0.4127  0.4198
  569SOL    HW1 1706   2.917   1.718   2.647  1.1375 -2.4999  0.0009
  569SOL    HW2 1707   2.931   1.667   2.804  0.3451 -2.3639 -1.0018
  570SOL     OW 1708   3.057   0.133   1.008  0.5453 -0.1015 -0.3443
  570SOL    HW1 1709   0.020   0.078   1.072 -2.8390 -1.1716 -0.3796
  570SOL    HW2 1710   3.023   0.216   1.054 -0.0960  0.1624  1.0651
  571SOL     OW 1711   2.984   0.618   1.558  0.1995 -0.0959 -0.0400
  571SOL    HW1 1712   2.977   0.676   1.639 -0.0150 -0.6982  1.3096
  571SOL    HW2 1713   3.065   0.556   1.569  0.5860  1.9800 -1.1893
  572SOL     OW 1714   2.787   2.381   0.697 -0.1202 -0.0433 -0.0840
  572SOL    HW1 1715   2.711   2.350   0.761  0.2840  1.7964  1.1676
  572SOL    HW2 1716   2.812   2.302   0.634  0.7453 -2.3630 -0.3950
  573SOL     OW 1717   0.785   0.689   0.073  0.6517  0.0388 -0.2942
  573SOL    HW1 1718   0.692   0.647   0.068  2.6478  4.8094 -0.1046
  573SOL    HW2 1719   0.774   0.790   0.097  0.5229  0.5777 -1.8569
  574SOL     OW 1720   2.938   2.998   0.004 -0.3470  0.2837 -0.2878
  574SOL    HW1 1721   2.886   2.915   0.016  2.8017  5.0122 -2.9818
  574SOL    HW2 1722   3.031   2.986   0.047  2.1520 -1.1861  0.7732
  575SOL     OW 1723   1.405   2.350   1.194 -0.6565 -0.9118  1.2261
  575SOL    HW1 1724   1.357   2.435   1.228  1.7035 -0.5955 -0.5966
  575SOL    HW2 1725   1.486   2.321   1.245 -0.1490  1.2283  0.1227
  576SOL     OW 1726   0.745   2.593   1.182  0.3041 -0.2672  0.0286
  576SOL    HW1 1727   0.757   2.661   1.253  1.6716 -0.3911 -0.8522
  576SOL    HW2 1728   0.831   2.540   1.171  0.2963 -1.0106 -0.9917
  577SOL     OW 1729   2.070   1.730   1.276 -0.2238 -0.9126  0.3941
  577SOL    HW1 1730   2.069   1.826   1.321 -1.3095  3.8116  0.1170
  577SOL    HW2 1731   2.149   1.721   1.215 -2.6403 -0.9293  1.2362
  578SOL     OW 1732   1.556   0.266   0.220  0.0426 -0.0192  0.1889
  578SOL    HW1 1733   1.543   0.350   0.164 -2.4970  1.2242 -2.1857
  578SOL    HW2 1734   1.473   0.209   0.214 -0.2845 -0.1347 -1.4131
  579SOL     OW 1735   2.207   1.248   2.878  0.5604 -0.3090 -0.0367
  579SOL    HW1 1736   2.293   1.237   2.818  1.7922 -2.1111  0.7572
  579SOL    HW2 1737   2.205   1.165   2.940  2.7039 -0.0523 -0.5639
  580SOL     OW 1738   1.800   0.520   1.834  0.3780 -0.2853 -0.2162
  580SOL    HW1 1739   1.808   0.616   1.866 -1.2155 -1.5734 -0.0721
  580SOL    HW2 1740   1.804   0.451   1.912  2.2253 -0.5620  2.4645
  581SOL     OW 1741   0.727   1.122   1.039 -0.0520  0.3153  0.0258
  581SOL    HW1 1742   0.651   1.168   0.990  2.4342  0.6193 -0.2072
  581SOL    HW2 1743   0.772   1.187   1.105 -1.2147 -0.1233 -0.4175
  582SOL     OW 1744   2.625   0.181   2.239  0.0961  0.2516  0.0131
  582SOL    HW1 1745   2.535   0.155   2.196 -1.1205 -0.0568  2.4485
  582SOL    HW2 1746   2.684   0.226   2.174 -0.6566 -1.2291 -0.5015
  583SOL     OW 1747   2.655   0.629   2.000  0.1314  0.4170 -0.4430
  583SOL    HW1 1748   2.740   0.602   1.957 -1.6226 -0.3821  0.1881
  583SOL    HW2 1749   2.674   0.645   2.098 -1.7262 -2.7568 -2.8504
  584SOL     OW 1750   1.249   1.906   2.728 -0.3275 -0.6503  0.0115
  584SOL    HW1 1751   1.220   1.938   2.819  1.8337 -0.1843 -2.1230
  584SOL    HW2 1752   1.313   1.980   2.684  1.6739  3.0052 -2.1645
  585SOL     OW 1753   0.429   0.048   0.056 -0.2263  0.7587  0.1911
  585SOL    HW1 1754   0.373   3.092   3.082  1.1561 -2.1255 -0.2946
  585SOL    HW2 1755   0.380   0.132   0.094 -2.3220  0.4854  1.1588
  586SOL     OW 1756   1.808   2.152   2.640 -0.1082 -0.2941  0.0612
  586SOL    HW1 1757   1.803   2.241   2.689  0.9296  0.4513  0.7714
  586SOL    HW2 1758   1.832   2.071   2.696 -0.3157 -0.5962  0.2792
  587SOL     OW 1759   2.386   2.435   0.604  0.3346  0.0217 -0.1162
  587SOL    HW1 1760   2.333   2.495   0.543  2.7034 -0.9739  1.3678
  587SOL    HW2 1761   2.380   2.468   0.698  3.3079 -0.6801 -1.3566
  588SOL     OW 1762   2.432   0.242   1.061  0.0134  0.1580  0.1953
  588SOL    HW1 1763   2.528   0.238   1.025 -0.4657 -2.1145  0.6295
  588SOL    HW2 1764   2.366   0.243   0.981 -0.0469 -2.0392 -1.6346
  589SOL     OW 1765   0.656   0.566   0.703 -0.1312  0.1383  0.1017
  589SOL    HW1 1766   0.748   0.595   0.671  1.3247  2.0193 -0.1674
  589SOL    HW2 1767   0.605   0.509   0.636 -3.2557  1.1654 -1.0472
  590SOL     OW 1768   2.114   1.989   0.496  0.0051  0.2541 -0.1459
  590SOL    HW1 1769   2.192   1.933   0.534  0.0189  1.0079 -0.4372
  590SOL    HW2 1770   2.140   2.044   0.417  0.9050  0.9033  0.0509
  591SOL     OW 1771   0.606   2.351   1.131  0.1088 -0.1051  0.2978
  591SOL    HW1 1772   0.576   2.328   1.039  2.7532 -0.2863  3.6673
  591SOL    HW2 1773   0.654   2.443   1.132  2.8388 -0.1151 -0.7496
  592SOL     OW 1774   0.981   0.773   1.369 -0.3143  0.2263 -0.6995
  592SOL    HW1 1775   0.950   0.812   1.276  0.2420  1.0040  0.4745
  592SOL    HW2 1776   1.028   0.689   1.355 -3.4461  2.2110  0.0618
  593SOL     OW 1777   0.814   1.285   1.251 -0.1700 -0.2520 -0.0268
  593SOL    HW1 1778   0.827   1.230   1.331  1.0882 -1.2151 -2.5916
  593SOL    HW2 1779   0.754   1.365   1.270 -0.3227 -0.7809  1.0957
  594SOL     OW 1780   0.786   2.228   0.498  0.1730 -0.2670  0.1161
  594SOL    HW1 1781   0.848   2.306   0.474  0.8845 -0.1890  0.3743
  594SOL    HW2 1782   0.827   2.138   0.466 -1.7007 -1.7306 -0.2448
  595SOL     OW 1783   1.600   0.226   1.061 -0.3312 -0.0627  0.0780
  595SOL    HW1 1784   1.682   0.232   1.000  0.9878 -0.7601 -1.2644
  595SOL    HW2 1785   1.560   0.321   1.071 -1.5879  1.6776  0.9144
  596SOL     OW 1786   2.995   1.562   1.172  0.1339  0.3207  0.5379
  596SOL    HW1 1787   2.951   1.638   1.220  1.6329 -1.3717  0.9505
  596SOL    HW2 1788   2.999   1.573   1.071 -0.7802 -0.2465  1.1262
  597SOL     OW 1789   0.149   2.518   2.466  0.0258  0.3236 -0.2093
  597SOL    HW1 1790   0.243   2.480   2.456  2.6108 -0.0922  0.1812
  597SOL    HW2 1791   0.083   2.463   2.521 -0.1517 -1.7523 -0.8522
  598SOL     OW 1792   2.891   2.344   1.999 -0.1293 -0.2961 -0.3368
  598SOL    HW1 1793   2.969   2.400   1.971 -0.2485 -0.2021 -2.2598
  598SOL    HW2 1794   2.839   2.313   1.916 -1.4550 -1.4890 -1.0148
  599SOL     OW 1795   0.989   0.303   2.989  0.0287 -0.1437 -0.2928
  599SOL    HW1 1796   0.947   0.314   3.081  2.7764  0.3874  1.0289
  599SOL    HW2 1797   0.921   0.260   2.925  0.1139  2.6792 -0.0843
  600SOL     OW 1798   0.459   2.520   0.013  0.3086 -0.1849  0.2907
  600SOL    HW1 1799   0.447   2.614   3.069  1.4701  2.1308  0.2896
  600SOL    HW2 1800   0.376   2.471   3.075 -1.0809  0.0503 -0.4075
  601SOL     OW 1801   0.718   0.727   1.437 -0.2484  0.8489 -0.2543
  601SOL    HW1 1802   0.815   0.733   1.411  2.4957 -0.8655  1.3089
  601SOL    HW2 1803   0.665   0.646   1.404  0.2574 -0.2104  1.2734
  602SOL     OW 1804   0.957   2.856   0.797 -0.1299 -0.5012 -0.0651
  602SOL    HW1 1805   1.001   2.764   0.776 -3.2929 -2.7620 -3.3500
  602SOL    HW2 1806   0.896   2.858   0.883 -0.9473 -1.7838  3.1081
  603SOL     OW 1807   0.497   0.625   2.406  0.2650  0.3910 -0.3965
  603SOL    HW1 1808   0.532   0.532   2.380  1.8111 -2.3038  2.2120
  603SOL    HW2 1809   0.541   0.650   2.497 -2.0074  1.4778  0.3372
  604SOL     OW 1810   0.544   2.861   1.527  0.6543  0.4263  0.5906
  604SOL    HW1 1811   0.513   2.937   1.583  0.3381 -0.7822 -1.2705
  604SOL    HW2 1812   0.464   2.809   1.496  0.6578  0.8899 -0.3733
  605SOL     OW 1813   1.818   0.767   1.951 -0.2230 -0.2952 -0.3634
  605SOL    HW1 1814   1.741   0.811   1.904 -1.4014 -0.0732  1.2388
  605SOL    HW2 1815   1.796   0.751   2.048  2.0660 -0.4177 -0.2107
  606SOL     OW 1816   2.553   2.822   2.979 -0.2654  0.0201  0.2927
  606SOL    HW1 1817   2.499   2.747   2.943  1.0430  0.5006  1.8861
  606SOL    HW2 1818   2.528   2.905   2.921  0.1868  1.8163 -2.4373
  607SOL     OW 1819   0.833   0.737   1.134  0.0387 -0.1994 -0.4206
  607SOL    HW1 1820   0.841   0.640   1.161 -1.4883 -0.1643 -0.1279
  607SOL    HW2 1821   0.735   0.764   1.126  2.1165  0.3186  4.1865
  608SOL     OW 1822   0.249   1.932   2.660  0.1022 -0.2659 -0.0970
  608SOL    HW1 1823   0.291   2.023   2.650 -2.8461 -0.0677 -2.1043
  608SOL    HW2 1824   0.187   1.925   2.745 -0.0867 -0.5115 -0.6625
  609SOL     OW 1825   1.386   1.140   0.309  0.0652  0.0423  0.4332
  609SOL    HW1 1826   1.326   1.171   0.386  2.1295 -0.1058 -1.1621
  609SOL    HW2 1827   1.338   1.159   0.222  1.2445  1.0894  0.0649
  610SOL     OW 1828   0.590   0.508   1.326  0.0045 -0.1325  0.1195
  610SOL    HW1 1829   0.664   0.477   1.266 -1.5588  1.8536  0.3323
  610SOL    HW2 1830   0.502   0.517   1.267 -0.6427  1.1591  1.0717
  611SOL     OW 1831   1.410   0.950   0.798  0.4749 -0.9464 -0.2051
  611SOL    HW1 1832   1.392   1.044   0.779  1.6787 -4.1766  0.3981
  611SOL    HW2 1833   1.476   0.909   0.732 -1.4511  0.7613  0.2062
  612SOL     OW 1834   1.827   0.934   0.368  0.3578  0.1870  0.1667
  612SOL    HW1 1835   1.755   0.933   0.439 -0.3691  1.4056 -4.0790
  612SOL    HW2 1836   1.800   0.999   0.291  2.0382  1.8889 -2.0731
  613SOL     OW 1837   1.849   0.435   0.185  0.1736  0.7261 -0.1653
  613SOL    HW1 1838   1.833   0.335   0.204  0.9612  2.2522 -0.5875
  613SOL    HW2 1839   1.880   0.488   0.270  1.4973  1.4588  2.2411
  614SOL     OW 1840   2.541   0.260   2.494 -0.0465  0.1899 -0.2296
  614SOL    HW1 1841   2.590   0.232   2.412 -2.4499 -1.4032 -0.2774
  614SOL    HW2 1842   2.442   0.252   2.482  1.4680 -2.7843  0.1257
  615SOL     OW 1843   0.665   1.901   0.797 -0.1235  0.5352  0.8105
  615SOL    HW1 1844   0.742   1.836   0.813 -0.6671  0.0187 -0.7519
  615SOL    HW2 1845   0.637   1.943   0.887 -0.7152  0.9099  2.2377
  616SOL     OW 1846   1.471   1.032   2.807  0.1162  0.4065 -0.0130
  616SOL    HW1 1847   1.489   1.134   2.795  1.5179 -1.2859  2.0020
  616SOL    HW2 1848   1.372   1.017   2.812  0.1709  5.1864 -2.5470
  617SOL     OW 1849   1.427   0.507   3.084  0.2610  0.2378 -0.0015
  617SOL    HW1 1850   1.399   0.573   3.005  0.3184 -1.5931  1.0007
  617SOL    HW2 1851   1.518   0.468   3.066 -3.6030 -0.5887 -2.2291
  618SOL     OW 1852   1.523   2.356   2.633 -0.0333 -0.1394  0.2328
  618SOL    HW1 1853   1.620   2.361   2.662  0.2533  1.3551  0.5125
  618SOL    HW2 1854   1.479   2.447   2.653  1.0681  3.0598 -1.9922
  619SOL     OW 1855   2.410   1.584   0.660 -0.4991  0.3375 -0.4635
  619SOL    HW1 1856   2.513   1.590   0.681  2.7319  0.2865  0.3921
  619SOL    HW2 1857   2.391   1.498   0.609  0.5128 -1.5417 -1.4557
  620SOL     OW 1858   2.216   2.770   2.373  0.8091  0.2107 -0.4095
  620SOL    HW1 1859   2.258   2.780   2.280  0.0155  1.9550 -0.2877
  620SOL    HW2 1860   2.119   2.794   2.375  1.5663 -2.3181 -1.8505
  621SOL     OW 1861   3.027   1.355   0.864 -0.3270 -0.6169  0.4476
  621SOL    HW1 1862   2.993   1.266   0.897  4.0111  3.6040 -0.0082
  621SOL    HW2 1863   2.960   1.433   0.853 -0.6894  1.2077 -0.7544
  622SOL     OW 1864   1.491   1.295   2.713 -0.4858 -0.0759  0.2305
  622SOL    HW1 1865   1.562   1.353   2.665  0.9452 -0.8671 -0.7637
  622SOL    HW2 1866   1.405   1.295   2.659  1.1321  1.3268  0.2648
  623SOL     OW 1867   0.101   2.576   2.203  0.0465 -0.4435 -0.3469
  623SOL    HW1 1868   0.119   2.578   2.304  2.9597 -0.3833 -2.4692
  623SOL    HW2 1869   0.015   2.625   2.184 -0.5553 -1.1252  1.0876
  624SOL     OW 1870   0.614   2.897   2.883 -0.1113 -0.2117  0.0166
  624SOL    HW1 1871   0.664   2.835   2.827 -1.2692  0.4375  2.5848
  624SOL    HW2 1872   0.664   2.922   2.967  0.7207 -1.3725 -0.8492
  625SOL     OW 1873   0.420   2.351   2.054 -0.0046  0.2060 -0.1262
  625SOL    HW1 1874   0.434   2.448   2.026  0.4213  0.1667 -0.7012
  625SOL    HW2 1875   0.319   2.328   2.048 -2.4164  1.5946 -0.4720
  626SOL     OW 1876   0.278   0.001   2.911  0.1012  0.3628  1.1702
  626SOL    HW1 1877   0.185   0.031   2.912 -0.3534  0.0600 -2.8451
  626SOL    HW2 1878   0.307   3.080   2.814  1.9696  0.7475 -1.1955
  627SOL     OW 1879   1.971   1.544   3.084 -0.0720 -0.4749  0.2956
  627SOL    HW1 1880   2.054   1.490   3.068 -1.5139 -1.3961  0.4066
  627SOL    HW2 1881   1.897   1.528   3.013  1.6015 -1.9550 -4.7654
  628SOL     OW 1882   1.280   1.983   0.316 -0.0275  0.1890  0.0945
  628SOL    HW1 1883   1.300   1.902   0.379  0.9031  1.1572  0.2722
  628SOL    HW2 1884   1.186   1.970   0.274  0.1892 -0.9537 -0.5573
  629SOL     OW 1885   3.039   0.185   1.768 -0.0665 -0.1956  0.8048
  629SOL    HW1 1886   3.093   0.247   1.834 -0.8383  3.6310  1.1611
  629SOL    HW2 1887   2.937   0.185   1.782  0.6269  0.3501 -4.6379
  630SOL     OW 1888   2.074   0.800   1.919 -0.2376  0.1281 -0.2692
  630SOL    HW1 1889   1.973   0.797   1.931 -1.2587 -0.3183  0.0463
  630SOL    HW2 1890   2.092   0.884   1.864 -1.5881 -0.4580 -1.0819
  631SOL     OW 1891   1.588   0.202   0.765  0.7112 -0.2263 -0.4522
  631SOL    HW1 1892   1.673   0.213   0.824 -0.0788 -0.4139  0.9251
  631SOL    HW2 1893   1.589   0.106   0.734  1.5784 -0.1200  3.2109
  632SOL     OW 1894   2.724   0.977   1.965  0.1052  0.5102  0.0542
  632SOL    HW1 1895   2.715   0.909   1.891 -0.3281 -1.1309  3.5240
  632SOL    HW2 1896   2.634   1.009   2.009 -0.2036  2.7560  2.8137
  633SOL     OW 1897   0.961   0.836   2.593  0.2458 -0.4949 -0.0516
  633SOL    HW1 1898   1.059   0.816   2.584 -1.9063  0.8748  1.5711
  633SOL    HW2 1899   0.935   0.830   2.697 -0.2473 -1.8195  1.8007
  634SOL     OW 1900   0.338   3.053   2.646 -0.7658 -0.7370  0.3603
  634SOL    HW1 1901   0.353   0.026   2.566  2.5608 -0.0533 -2.4488
  634SOL    HW2 1902   0.389   2.966   2.630  2.3001 -0.4161 -0.6710
  635SOL     OW 1903   3.040   1.435   1.420  0.0201 -0.1272  0.0528
  635SOL    HW1 1904   3.007   1.451   1.325 -0.4665 -2.4983  0.4197
  635SOL    HW2 1905   0.037   1.472   1.439 -0.2985 -0.5194 -1.6504
  636SOL     OW 1906   0.371   1.698   0.103  0.1930  0.1758 -0.1075
  636SOL    HW1 1907   0.335   1.677   0.199  0.8324  0.4411 -2.0788
  636SOL    HW2 1908   0.391   1.796   0.091  0.4025 -0.1218  0.1835
  637SOL     OW 1909   2.993   2.446   0.254 -0.1923  0.6830  0.7127
  637SOL    HW1 1910   2.961   2.367   0.199  1.1736  0.4628  0.6831
  637SOL    HW2 1911   2.913   2.489   0.297  1.4266 -1.8589 -2.8233
  638SOL     OW 1912   2.828   2.768   0.261  0.0357 -0.3436 -0.4584
  638SOL    HW1 1913   2.813   2.765   0.158  1.6527 -0.0975  0.2892
  638SOL    HW2 1914   2.792   2.687   0.308  1.8529  0.4668  0.5137
  639SOL     OW 1915   1.155   0.795   2.985 -0.6724 -0.4511 -0.0265
  639SOL    HW1 1916   1.086   0.725   2.986  0.6725 -2.1122 -1.0592
  639SOL    HW2 1917   1.209   0.796   3.077 -1.2564  1.3578  0.6004
  640SOL     OW 1918   2.059   1.786   1.705 -0.3643 -0.5297  0.5054
  640SOL    HW1 1919   1.961   1.781   1.674  2.0605  1.4204 -0.6830
  640SOL    HW2 1920   2.080   1.739   1.795 -0.6183 -0.1295  2.3499
  641SOL     OW 1921   3.040   3.074   0.785 -0.1096  0.2748 -0.1820
  641SOL    HW1 1922   3.051   0.045   0.865 -2.0300  0.5769 -0.1775
  641SOL    HW2 1923   3.071   2.981   0.814  2.2065  0.3873 -0.8881
  642SOL     OW 1924   1.237   0.998   1.729  0.2404 -0.7896  0.2735
  642SOL    HW1 1925   1.275   1.090   1.714  2.7526 -0.7182  1.8262
  642SOL    HW2 1926   1.161   0.972   1.666 -1.5787  0.0029  1.2376
  643SOL     OW 1927   0.636   1.822   2.631  0.4428 -0.5193 -0.3642
  643SOL    HW1 1928   0.717   1.765   2.651 -1.7582  1.3150  0.4733
  643SOL    HW2 1929   0.553   1.797   2.687 -1.4069  0.3253 -2.8934
  644SOL     OW 1930   1.196   2.537   2.568 -0.1070  0.5145 -0.4095
  644SOL    HW1 1931   1.276   2.584   2.532 -2.5976  3.6531  0.1733
  644SOL    HW2 1932   1.146   2.579   2.648 -0.1009  2.8047  0.0278
  645SOL     OW 1933   1.607   0.885   1.826 -0.4470  0.3794 -0.2744
  645SOL    HW1 1934   1.616   0.984   1.801 -1.1425  0.9134 -0.9500
  645SOL    HW2 1935   1.526   0.834   1.785 -1.2982 -1.6440 -1.1050
  646SOL     OW 1936   0.992   2.391   2.851  0.5119  0.1089  0.1163
  646SOL    HW1 1937   1.023   2.488   2.828 -3.0647  0.5073 -0.3820
  646SOL    HW2 1938   1.071   2.332   2.864 -2.9109  5.6978 -2.7203
  647SOL     OW 1939   1.174   2.840   0.407  0.1213 -0.2745 -0.6492
  647SOL    HW1 1940   1.258   2.904   0.397  2.0872  1.8849  0.7112
  647SOL    HW2 1941   1.099   2.884   0.459 -2.5402 -1.6949 -1.6423
  648SOL     OW 1942   2.661   2.648   1.304 -0.0951 -0.2283  0.3085
  648SOL    HW1 1943   2.621   2.584   1.237  0.2400  1.7521  0.8409
  648SOL    HW2 1944   2.593   2.716   1.324  2.7719  0.3165  1.6160
  649SOL     OW 1945   0.524   2.518   2.641  0.1798  0.9165  0.6852
  649SOL    HW1 1946   0.577   2.458   2.706 -0.9951  0.5551  0.6841
  649SOL    HW2 1947   0.481   2.465   2.564  2.2344 -1.1738 -2.4265
  650SOL     OW 1948   2.713   1.744   2.352  0.1132 -0.1741  0.4161
  650SOL    HW1 1949   2.783   1.675   2.365  0.1181  1.6454 -0.2504
  650SOL    HW2 1950   2.739   1.799   2.273  0.0351 -0.1032 -0.5643
  651SOL     OW 1951   2.777   2.447   2.222 -0.5144  0.6364  0.4742
  651SOL    HW1 1952   2.805   2.401   2.135  0.1391  0.7305  0.7845
  651SOL    HW2 1953   2.821   2.396   2.299  0.5057 -1.2551 -1.4641
  652SOL     OW 1954   2.528   2.212   0.519 -0.4153 -0.1536  0.4489
  652SOL    HW1 1955   2.523   2.132   0.582 -1.2355 -0.3857 -1.4242
  652SOL    HW2 1956   2.474   2.294   0.553  1.3235 -0.6875  1.8711
  653SOL     OW 1957   2.693   1.102   1.112 -0.0724  0.2181  0.3566
  653SOL    HW1 1958   2.618   1.033   1.110  0.7755 -1.7124  0.0960
  653SOL    HW2 1959   2.710   1.123   1.207  0.3823  0.1054 -1.6908
  654SOL     OW 1960   0.821   0.476   2.756 -0.1065 -0.1862  0.0690
  654SOL    HW1 1961   0.755   0.426   2.816 -0.8591  0.5490 -1.9685
  654SOL    HW2 1962   0.880   0.541   2.807  3.1976  1.2717  0.3095
  655SOL     OW 1963   1.019   0.157   1.147  0.3492 -0.1792  0.1993
  655SOL    HW1 1964   1.100   0.155   1.204 -1.9459  0.7161 -0.1576
  655SOL    HW2 1965   0.935   0.136   1.204  1.4448 -0.1769  2.4738
  656SOL     OW 1966   0.465   2.611   1.952  0.0324 -0.7982  0.4802
  656SOL    HW1 1967   0.475   2.581   1.853 -0.0295 -1.6606  0.1337
  656SOL    HW2 1968   0.555   2.655   1.987 -1.1399 -0.8089 -1.6732
  657SOL     OW 1969   2.621   0.636   0.441 -0.1653 -0.0620  0.0329
  657SOL    HW1 1970   2.604   0.543   0.412  1.7951 -1.2740 -2.8022
  657SOL    HW2 1971   2.623   0.698   0.362 -0.5568 -1.4999  3.7759
  658SOL     OW 1972   1.963   1.773   0.864 -0.3315 -0.2435 -0.0140
  658SOL    HW1 1973   1.937   1.864   0.827 -1.3053  0.9569  0.9954
  658SOL    HW2 1974   1.910   1.753   0.952 -2.9773 -0.2119  0.1219
  659SOL     OW 1975   2.644   1.924   2.973  0.0961 -0.0637  0.2155
  659SOL    HW1 1976   2.717   1.990   2.939  1.8392 -0.5429  1.0976
  659SOL    HW2 1977   2.600   1.965   3.052  0.6758 -3.4466 -0.9685
  660SOL     OW 1978   1.274   0.386   0.363 -0.1870 -0.2221  0.5584
  660SOL    HW1 1979   1.332   0.465   0.388  1.2668  1.2088  0.8329
  660SOL    HW2 1980   1.261   0.374   0.263  0.5481 -1.1516  0.0417
  661SOL     OW 1981   1.933   0.009   3.064 -0.4714  0.3467 -0.0550
  661SOL    HW1 1982   1.919   0.063   0.050 -2.4915 -1.7160  0.5964
  661SOL    HW2 1983   2.032   0.012   3.036 -1.9265 -2.0519 -2.2386
  662SOL     OW 1984   1.000   2.969   0.569 -0.1871 -0.9116  0.2881
  662SOL    HW1 1985   1.006   3.071   0.568 -3.5942 -2.4401  1.2452
  662SOL    HW2 1986   0.970   2.939   0.663  0.3169  1.4728 -0.0970
  663SOL     OW 1987   1.568   0.140   2.375 -0.2264 -0.3398  0.0295
  663SOL    HW1 1988   1.537   0.173   2.286  0.4561 -1.7754  4.3951
  663SOL    HW2 1989   1.602   0.207   2.443 -2.2142 -0.7177  1.5226
  664SOL     OW 1990   0.770   2.820   1.380  0.0515  0.1850  0.3002
  664SOL    HW1 1991   0.677   2.840   1.423 -1.7197  3.0428  0.7171
  664SOL    HW2 1992   0.841   2.882   1.421  2.3746  1.4912  2.9633
  665SOL     OW 1993   0.828   2.310   1.750 -0.0927  0.8660  0.1933
  665SOL    HW1 1994   0.825   2.387   1.691 -0.1269 -1.8419 -3.6424
  665SOL    HW2 1995   0.895   2.330   1.829  0.7532 -1.2302  2.7629
  666SOL     OW 1996   0.457   0.066   2.413  0.2655 -0.0933  0.2282
  666SOL    HW1 1997   0.422   0.163   2.434 -2.8950  0.9413  2.4315
  666SOL    HW2 1998   0.381   0.014   2.370 -1.4591 -0.0713  2.3603
  667SOL     OW 1999   1.868   1.497   1.584 -0.3840 -0.4974 -0.3639
  667SOL    HW1 2000   1.879   1.503   1.482 -0.5815  0.4698 -3.0493
  667SOL    HW2 2001   1.950   1.441   1.615  3.3211 -2.2648  0.9633
  668SOL     OW 2002   1.821   3.075   1.680  0.3139 -0.1431 -0.3866
  668SOL    HW1 2003   1.724   3.046   1.685 -2.0512 -0.5570  2.1467
  668SOL    HW2 2004   1.829   0.064   1.621 -0.6676  0.2846  0.1306
  669SOL     OW 2005   2.708   2.674   0.942 -0.0427  0.0971  0.1228
  669SOL    HW1 2006   2.664   2.669   0.854  3.5298 -0.8566  1.1082
  669SOL    HW2 2007   2.766   2.591   0.966  0.7772 -1.6701  0.2116
  670SOL     OW 2008   1.210   2.228   2.856 -0.2379 -0.2685 -0.5937
  670SOL    HW1 2009   1.203   2.139   2.904  0.7185  3.7881  2.5207
  670SOL    HW2 2010   1.305   2.263   2.851  0.0182 -0.1612  0.3021
  671SOL     OW 2011   0.774   1.181   0.503 -0.2022 -0.0202  0.2163
  671SOL    HW1 2012   0.863   1.132   0.505  0.0261 -2.7541 -2.1711
  671SOL    HW2 2013   0.705   1.147   0.439 -0.0883  0.5632 -2.0470
  672SOL     OW 2014   2.602   1.092   2.539  0.4999  0.1181 -0.1388
  672SOL    HW1 2015   2.559   1.100   2.634  0.9092 -0.0279 -2.9931
  672SOL    HW2 2016   2.627   0.994   2.526 -3.0833  0.7913 -0.8842
  673SOL     OW 2017   2.588   2.015   1.709 -0.4301 -0.3981  0.1277
  673SOL    HW1 2018   2.591   1.915   1.700 -0.0524  0.4631  0.1470
  673SOL    HW2 2019   2.522   2.047   1.778 -0.2184 -2.5264 -0.3757
  674SOL     OW 2020   0.380   2.387   2.415 -0.2959  0.3572 -0.3019
  674SOL    HW1 2021   0.464   2.413   2.360  0.1182 -0.6333  0.9383
  674SOL    HW2 2022   0.323   2.317   2.367 -0.8914  0.1192  0.9353
  675SOL     OW 2023   1.002   0.650   1.637  0.0662 -0.2287  0.7588
  675SOL    HW1 2024   1.024   0.698   1.552 -0.8513  0.9203  3.1166
  675SOL    HW2 2025   1.053   0.561   1.653 -0.0779 -0.4765 -1.6954
  676SOL     OW 2026   2.084   0.069   1.336  0.2578 -0.0954 -0.4696
  676SOL    HW1 2027   2.036   0.061   1.243  1.5153 -1.1449  0.9208
  676SOL    HW2 2028   2.099   0.165   1.367 -0.4304 -2.4100  0.7108
  677SOL     OW 2029   2.217   1.414   3.079  0.0617 -0.3953  0.0858
  677SOL    HW1 2030   2.267   1.497   3.045  2.4348  2.1935 -2.1979
  677SOL    HW2 2031   2.215   1.349   3.002 -2.0964  0.9483 -0.7228
  678SOL     OW 2032   2.700   1.380   1.099 -0.5340  0.0329 -0.0533
  678SOL    HW1 2033   2.697   1.276   1.093 -2.2043 -0.8037  0.1918
  678SOL    HW2 2034   2.699   1.415   1.195  1.2680 -0.0782 -0.6401
  679SOL     OW 2035   2.716   0.459   0.002  0.7561 -0.5226  0.0944
  679SOL    HW1 2036   2.724   0.414   0.092 -2.0622 -0.3283  1.2525
  679SOL    HW2 2037   2.700   0.559   0.017 -1.0101  1.4205  0.0531
  680SOL     OW 2038   0.168   1.887   1.796  0.6497  0.3078 -0.2191
  680SOL    HW1 2039   0.146   1.980   1.828  1.8729 -1.5682  0.1442
  680SOL    HW2 2040   0.238   1.848   1.859 -0.4379  0.1162 -1.6869
  681SOL     OW 2041   2.229   1.989   1.651  0.1708 -0.2194 -0.1310
  681SOL    HW1 2042   2.302   2.012   1.719 -1.1812  0.2567  0.3506
  681SOL    HW2 2043   2.169   1.908   1.687  0.1158  0.7190  1.2630
  682SOL     OW 2044   0.415   1.963   0.083  0.1143 -0.4673 -0.2847
  682SOL    HW1 2045   0.344   2.023   0.042 -1.1290  0.3789  2.4401
  682SOL    HW2 2046   0.411   1.969   0.185  1.2351  2.1659  2.9758
  683SOL     OW 2047   3.045   2.182   1.509  0.2994  0.6374  0.4776
  683SOL    HW1 2048   3.006   2.100   1.558 -1.7445 -0.2587  0.0471
  683SOL    HW2 2049   0.054   2.173   1.512  3.0382 -3.7272  0.1874
  684SOL     OW 2050   2.922   1.122   2.110 -0.1860  0.0291 -0.0236
  684SOL    HW1 2051   2.879   1.213   2.133  0.7614  0.3590 -0.4045
  684SOL    HW2 2052   2.855   1.055   2.080  1.0278 -1.1248 -0.2324
  685SOL     OW 2053   1.321   0.663   0.493 -0.4466 -0.4166 -0.3981
  685SOL    HW1 2054   1.421   0.642   0.507  1.4069  0.6749  0.4933
  685SOL    HW2 2055   1.269   0.640   0.577 -0.2125 -1.4201  2.0622
  686SOL     OW 2056   0.716   0.381   0.919  0.3915 -0.0027  0.2261
  686SOL    HW1 2057   0.700   0.449   0.847 -0.5758 -0.9460  0.5259
  686SOL    HW2 2058   0.721   0.284   0.883 -1.0184 -0.2689 -1.5450
  687SOL     OW 2059   0.552   2.053   2.515 -0.0653  0.5915  0.2069
  687SOL    HW1 2060   0.586   1.969   2.565  1.7244 -1.4771  1.6186
  687SOL    HW2 2061   0.491   2.107   2.571  1.3764 -2.1535  0.3706
  688SOL     OW 2062   2.062   0.649   1.480  0.2640  0.4720  0.0508
  688SOL    HW1 2063   2.163   0.657   1.484 -1.3318  0.1481  1.7915
  688SOL    HW2 2064   2.033   0.561   1.521 -1.5956  0.0556 -1.4801
  689SOL     OW 2065   1.461   0.441   0.750  0.3323 -0.2831 -0.2893
  689SOL    HW1 2066   1.487   0.342   0.757 -1.2172  1.2525 -1.0151
  689SOL    HW2 2067   1.518   0.483   0.678  1.3787 -0.0284 -0.6526
  690SOL     OW 2068   2.706   1.510   1.368 -0.6450 -0.4347 -0.2158
  690SOL    HW1 2069   2.615   1.476   1.395  1.3881  2.0631 -0.6778
  690SOL    HW2 2070   2.763   1.524   1.451 -2.9370 -3.1087  3.3630
  691SOL     OW 2071   0.421   2.189   1.273  0.1747 -0.1959 -0.2916
  691SOL    HW1 2072   0.495   2.228   1.211  2.6339  1.6950  1.3742
  691SOL    HW2 2073   0.470   2.123   1.334 -1.6520 -0.3404  1.8243
  692SOL     OW 2074   1.484   3.088   1.475  0.0911 -0.5242  0.0295
  692SOL    HW1 2075   1.531   3.012   1.527  0.4708  0.4639  1.8786
  692SOL    HW2 2076   1.540   0.030   1.399 -2.1011 -0.0947 -1.0289
  693SOL     OW 2077   0.592   1.842   2.162  0.3049  0.0339 -0.1729
  693SOL    HW1 2078   0.541   1.932   2.164  2.5396 -0.8457 -0.0223
  693SOL    HW2 2079   0.691   1.852   2.177 -0.0626  0.2764  0.0210
  694SOL     OW 2080   1.976   1.422   1.005  0.9426  0.0599  0.0263
  694SOL    HW1 2081   1.965   1.453   0.912 -1.3172  0.0905  3.2199
  694SOL    HW2 2082   1.896   1.450   1.063 -0.1951 -0.6894  0.6015
  695SOL     OW 2083   1.066   0.951   1.060 -0.4126  0.0214  0.6233
  695SOL    HW1 2084   1.105   0.901   0.980 -2.7004 -1.0294  0.8196
  695SOL    HW2 2085   0.972   0.913   1.077 -0.6908 -0.6890  1.2472
  696SOL     OW 2086   0.296   3.091   0.408  0.2306  0.3881  0.0176
  696SOL    HW1 2087   0.239   0.079   0.430 -0.5118 -0.9215 -0.6610
  696SOL    HW2 2088   0.245   3.011   0.439 -1.2455  1.8675  1.5689
  697SOL     OW 2089   2.052   0.481   0.962 -0.1585  0.3178 -0.1542
  697SOL    HW1 2090   1.999   0.564   0.989 -1.5774  0.6877 -1.2559
  697SOL    HW2 2091   2.028   0.412   1.032  0.3187  1.6641  1.1868
  698SOL     OW 2092   1.459   1.299   1.894 -0.0287  0.0488 -0.0766
  698SOL    HW1 2093   1.484   1.391   1.862 -0.4690 -1.6724  1.9452
  698SOL    HW2 2094   1.446   1.293   1.997 -0.1903 -2.4950  1.6847
  699SOL     OW 2095   2.847   0.382   2.166  0.0669 -0.1696  0.1765
  699SOL    HW1 2096   2.762   0.423   2.201 -0.2128 -0.2539 -1.5822
  699SOL    HW2 2097   2.900   0.451   2.115 -0.3712 -1.9755  0.3069
  700SOL     OW 2098   1.745   2.677   0.534  0.5364 -0.1870  0.1762
  700SOL    HW1 2099   1.815   2.720   0.475 -0.8802 -1.0668 -1.2840
  700SOL    HW2 2100   1.742   2.577   0.519 -2.1000 -0.6239 -0.0276
  701SOL     OW 2101   3.064   1.732   2.509 -0.3275  0.0973  0.3106
  701SOL    HW1 2102   3.089   1.824   2.472  1.4679 -1.9414 -0.4010
  701SOL    HW2 2103   0.041   1.661   2.488  4.6688  0.2798 -0.2332
  702SOL     OW 2104   0.868   2.994   0.335 -0.0401 -0.2068 -0.5101
  702SOL    HW1 2105   0.913   2.992   0.424 -1.8144  1.6894 -2.5062
  702SOL    HW2 2106   0.802   2.916   0.324 -2.5187  1.5327  2.1569
  703SOL     OW 2107   1.879   2.649   2.603  0.8123  0.4806 -0.2770
  703SOL    HW1 2108   1.925   2.665   2.691  1.2368 -1.5179  1.0558
  703SOL    HW2 2109   1.908   2.728   2.541  1.2984  1.8595 -1.6674
  704SOL     OW 2110   2.692   2.084   0.139  0.1893  0.4962  0.1931
  704SOL    HW1 2111   2.786   2.127   0.138  0.3750  0.7883 -1.6726
  704SOL    HW2 2112   2.689   2.000   0.194 -2.6481  1.5191  1.2395
  705SOL     OW 2113   2.924   2.299   2.419  0.5158  0.0652  0.2407
  705SOL    HW1 2114   2.980   2.212   2.402  2.4524 -0.2569 -0.7963
  705SOL    HW2 2115   2.949   2.341   2.505 -2.1411 -3.4794 -1.6056
  706SOL     OW 2116   2.827   3.044   0.391  0.4468 -0.4745  0.5211
  706SOL    HW1 2117   2.773   3.035   0.307 -1.2305 -0.8661  0.8094
  706SOL    HW2 2118   2.854   2.951   0.425  1.2493  1.5836  1.6578
  707SOL     OW 2119   1.208   0.162   2.889  0.1504  0.5463  0.0287
  707SOL    HW1 2120   1.190   0.164   2.790  1.6011 -2.7482  1.5223
  707SOL    HW2 2121   1.132   0.209   2.937  0.7472 -2.9682 -1.0742
  708SOL     OW 2122   0.321   2.236   1.737  0.2834 -0.1798 -0.5528
  708SOL    HW1 2123   0.267   2.187   1.805 -1.0856  0.4783  0.4006
  708SOL    HW2 2124   0.421   2.211   1.735  1.1676 -1.0632  1.7114
  709SOL     OW 2125   1.410   2.898   1.812 -0.2105  0.1054 -0.1321
  709SOL    HW1 2126   1.453   2.978   1.853 -5.4871 -0.1147 -2.0324
  709SOL    HW2 2127   1.403   2.818   1.877 -1.1911  0.0545 -0.1191
  710SOL     OW 2128   1.513   2.637   2.694  0.1851  0.0508 -0.0191
  710SOL    HW1 2129   1.584   2.708   2.702 -0.4748 -0.5854  0.6835
  710SOL    HW2 2130   1.421   2.661   2.730  0.0737  1.4477 -1.6571
  711SOL     OW 2131   0.788   2.658   2.779 -0.4230  0.1815  0.2158
  711SOL    HW1 2132   0.769   2.631   2.680 -0.8367  2.0582 -1.4691
  711SOL    HW2 2133   0.729   2.615   2.852  0.1195  0.8501  2.7917
  712SOL     OW 2134   0.935   2.068   3.033 -0.7014  0.1580  0.3194
  712SOL    HW1 2135   0.849   2.021   3.054  0.5435 -0.4092  2.9417
  712SOL    HW2 2136   0.918   2.168   3.015 -2.8527  1.1857 -2.8247
  713SOL     OW 2137   1.986   1.086   1.513  0.1196  1.2771  0.3461
  713SOL    HW1 2138   2.019   1.037   1.425 -0.8483 -0.1822 -1.3512
  713SOL    HW2 2139   1.930   1.171   1.487 -0.4618  0.4615  0.6820
  714SOL     OW 2140   1.118   1.213   2.071 -0.2163 -0.2498  0.8035
  714SOL    HW1 2141   1.050   1.162   2.020  0.4205  0.5986 -0.2619
  714SOL    HW2 2142   1.210   1.173   2.080 -0.4091  1.5393  2.2028
  715SOL     OW 2143   2.746   0.305   0.228  0.2316 -0.6205  0.4762
  715SOL    HW1 2144   2.820   0.332   0.295  0.5613 -3.5230 -2.3357
  715SOL    HW2 2145   2.781   0.232   0.162 -0.5372 -0.5494 -1.4440
  716SOL     OW 2146   0.480   2.656   1.071  0.3899  0.2781  0.0025
  716SOL    HW1 2147   0.580   2.643   1.062  2.2629 -1.2555 -0.6675
  716SOL    HW2 2148   0.453   2.754   1.059 -4.2541 -0.3118  0.6100
  717SOL     OW 2149   2.886   0.635   0.488 -0.0894  0.4286  0.4274
  717SOL    HW1 2150   2.931   0.551   0.458  2.0604  2.2697 -0.0469
  717SOL    HW2 2151   2.783   0.631   0.476 -0.1676  2.4119 -0.8204
  718SOL     OW 2152   1.819   1.237   1.360 -0.1146  0.0928  0.4095
  718SOL    HW1 2153   1.745   1.287   1.395  2.0588  1.2488 -1.1308
  718SOL    HW2 2154   1.790   1.180   1.284  0.5604  2.7225  1.0114
  719SOL     OW 2155   2.807   2.742   3.088  0.2647 -0.4532 -0.5069
  719SOL    HW1 2156   2.713   2.752   3.044  2.1383  0.9096 -0.6855
  719SOL    HW2 2157   2.856   2.669   3.044 -1.4149  0.2433  0.3036
  720SOL     OW 2158   1.051   0.364   0.897 -0.6030 -0.1022  0.1744
  720SOL    HW1 2159   1.124   0.386   0.966  0.5170 -1.1806 -0.3091
  720SOL    HW2 2160   1.011   0.271   0.911  1.2394  3.3849 -2.9274
  721SOL     OW 2161   1.820   0.265   0.898  0.0089  0.3377 -0.0765
  721SOL    HW1 2162   1.879   0.254   0.816  1.3735  0.5456 -1.6864
  721SOL    HW2 2163   1.877   0.287   0.981 -0.3404 -1.5075 -0.5736
  722SOL     OW 2164   0.583   2.186   1.745  0.7686 -0.3509  0.0364
  722SOL    HW1 2165   0.629   2.103   1.783 -0.0248  0.7870  0.2643
  722SOL    HW2 2166   0.655   2.258   1.729  2.5064  0.5957 -0.0384
  723SOL     OW 2167   1.261   0.128   1.274 -0.0300 -0.1249  0.1096
  723SOL    HW1 2168   1.287   0.146   1.174 -0.1405  0.6791 -0.5299
  723SOL    HW2 2169   1.328   0.078   1.328  0.1777 -0.8236 -1.1563
  724SOL     OW 2170   1.784   1.760   1.639 -0.1354  0.1370  0.3118
  724SOL    HW1 2171   1.681   1.761   1.651 -1.6820 -0.3210 -0.5634
  724SOL    HW2 2172   1.812   1.675   1.596 -1.6516  0.9841 -0.0500
  725SOL     OW 2173   1.296   2.559   1.304 -0.2601  0.2768  0.5438
  725SOL    HW1 2174   1.357   2.627   1.358  1.5289  2.6581  0.8552
  725SOL    HW2 2175   1.205   2.604   1.300 -1.2424  2.7826 -0.2531
  726SOL     OW 2176   1.709   0.197   2.959 -0.5082  0.4241  0.0858
  726SOL    HW1 2177   1.789   0.129   2.967 -1.0959 -1.2950 -0.3590
  726SOL    HW2 2178   1.619   0.158   2.995  0.1551  1.4927 -0.3056
  727SOL     OW 2179   1.434   2.203   0.395  0.4664 -0.4138 -0.1051
  727SOL    HW1 2180   1.400   2.110   0.379  1.1711 -0.6743  2.5601
  727SOL    HW2 2181   1.529   2.213   0.355 -0.6193  1.4897 -2.6201
  728SOL     OW 2182   1.928   2.476   2.371 -0.3017  0.0998  0.2040
  728SOL    HW1 2183   1.887   2.517   2.291 -1.0560 -0.8576  3.5003
  728SOL    HW2 2184   1.899   2.532   2.450 -0.8029  1.7316  0.0951
  729SOL     OW 2185   2.243   2.393   1.783 -0.3788  0.1521  0.0802
  729SOL    HW1 2186   2.245   2.318   1.711  0.7628 -0.8244  1.0525
  729SOL    HW2 2187   2.294   2.368   1.868 -0.1905  2.8784 -0.1053
  730SOL     OW 2188   1.510   0.595   2.463  0.8577 -0.0217 -0.0720
  730SOL    HW1 2189   1.478   0.505   2.505  1.0853 -1.3892  0.9809
  730SOL    HW2 2190   1.452   0.634   2.388 -1.7281 -0.0687  0.5405
  731SOL     OW 2191   0.613   0.028   1.064 -0.3802  0.2459 -0.1852
  731SOL    HW1 2192   0.644   0.074   0.975  0.6853 -0.2713 -1.2272
  731SOL    HW2 2193   0.678   0.045   1.143 -1.7833 -2.0031 -1.8605
  732SOL     OW 2194   1.753   2.985   1.146  0.2741  0.5033  0.5835
  732SOL    HW1 2195   1.714   2.906   1.193  0.9370  0.5057 -3.8055
  732SOL    HW2 2196   1.710   2.992   1.053 -2.8881 -0.9658  0.5878
  733SOL     OW 2197   1.280   0.821   1.263  0.0158  0.0640 -0.1317
  733SOL    HW1 2198   1.202   0.850   1.211  0.2137  2.2262  0.7736
  733SOL    HW2 2199   1.361   0.875   1.227  1.3970 -2.1781 -1.0197
  734SOL     OW 2200   2.456   2.219   0.246 -0.0121 -0.6394  0.0221
  734SOL    HW1 2201   2.529   2.248   0.182  0.0463 -0.2144  0.3141
  734SOL    HW2 2202   2.491   2.204   0.342  1.0564 -0.9690 -1.5692
  735SOL     OW 2203   0.521   0.435   0.499  0.1476 -0.3850  0.3313
  735SOL    HW1 2204   0.541   0.511   0.438 -0.3326 -1.2201 -0.7194
  735SOL    HW2 2205   0.492   0.356   0.443 -2.7375 -0.3978 -2.1860
  736SOL     OW 2206   2.078   2.268   2.757 -0.1134  0.1525 -0.1464
  736SOL    HW1 2207   2.003   2.335   2.759  1.5413  2.3784  0.1483
  736SOL    HW2 2208   2.112   2.238   2.848  1.2512 -1.6359 -0.9748
  737SOL     OW 2209   0.971   2.382   1.099  0.3927  0.3251  0.0909
  737SOL    HW1 2210   1.041   2.421   1.039 -2.1415 -1.1671  1.7500
  737SOL    HW2 2211   0.935   2.290   1.063  0.5671 -1.9157 -0.9770
  738SOL     OW 2212   1.446   2.674   1.959 -0.0717  0.3209 -0.1456
  738SOL    HW1 2213   1.443   2.723   2.049  1.9473  0.4252  0.5149
  738SOL    HW2 2214   1.474   2.580   1.985 -0.0340 -1.3371 -0.7726
  739SOL     OW 2215   0.770   2.025   1.945  0.2005 -0.4307 -0.0492
  739SOL    HW1 2216   0.854   2.074   1.977 -0.2678  0.2188  0.0919
  739SOL    HW2 2217   0.688   2.059   1.993 -0.8411  1.5252 -3.5711
  740SOL     OW 2218   1.689   2.421   1.513 -0.2367  0.5810  0.4522
  740SOL    HW1 2219   1.681   2.401   1.418 -0.3236 -0.4025  3.3382
  740SOL    HW2 2220   1.791   2.432   1.538  1.1908 -0.9393  0.4813
  741SOL     OW 2221   2.333   1.651   2.949  0.0821 -0.2127 -0.7166
  741SOL    HW1 2222   2.281   1.642   2.866 -1.8633  1.3852 -2.2631
  741SOL    HW2 2223   2.428   1.676   2.918  0.0270  2.6268 -1.6381
  742SOL     OW 2224   0.795   1.498   2.287  0.4681  0.1110 -0.3070
  742SOL    HW1 2225   0.788   1.593   2.316 -0.3022  0.5585  0.1082
  742SOL    HW2 2226   0.704   1.473   2.245 -2.9737 -0.5577 -2.2445
  743SOL     OW 2227   2.986   1.096   2.378 -0.3444  0.3080 -0.0525
  743SOL    HW1 2228   2.971   1.001   2.404  0.5758 -0.5926  0.1486
  743SOL    HW2 2229   2.974   1.097   2.278 -2.0008  0.9404 -1.0019
  744SOL     OW 2230   2.401   2.329   1.985 -0.3329  0.0935 -0.4223
  744SOL    HW1 2231   2.404   2.338   2.089  0.5540  1.1458  2.7066
  744SOL    HW2 2232   2.459   2.399   1.936  0.0726  2.2232 -1.8871
  745SOL     OW 2233   2.333   1.644   1.560  0.1885  0.3535  0.0953
  745SOL    HW1 2234   2.318   1.659   1.660  1.7006  2.9512  0.0888
  745SOL    HW2 2235   2.244   1.616   1.520  0.9460  0.8524  1.9579
  746SOL     OW 2236   2.733   1.312   0.758 -0.2230  0.2771 -0.4482
  746SOL    HW1 2237   2.705   1.266   0.666 -3.2041  0.3477  1.3094
  746SOL    HW2 2238   2.655   1.342   0.804  2.4930  0.2776 -4.5204
  747SOL     OW 2239   1.955   2.403   0.520 -0.1023  0.4204  0.1174
  747SOL    HW1 2240   1.983   2.323   0.583  2.1367 -1.0608  3.1543
  747SOL    HW2 2241   1.853   2.414   0.514 -0.3119  4.0383 -0.3184
  748SOL     OW 2242   1.000   2.311   0.300 -0.1734 -0.6511  0.1134
  748SOL    HW1 2243   1.042   2.251   0.231 -1.1336  2.8765 -2.4360
  748SOL    HW2 2244   0.975   2.400   0.258  1.1671  0.1519  2.6374
  749SOL     OW 2245   2.696   0.595   2.270  0.1100 -0.0668  0.0384
  749SOL    HW1 2246   2.723   0.684   2.319 -0.5293 -0.3980 -3.2000
  749SOL    HW2 2247   2.597   0.597   2.265  0.6736  0.0266  1.4604
  750SOL     OW 2248   1.658   0.085   1.294 -0.1519 -0.3495  0.6296
  750SOL    HW1 2249   1.636   0.165   1.237 -0.7139 -0.6945 -1.7896
  750SOL    HW2 2250   1.710   0.011   1.240 -0.4239 -1.4661 -0.6923
  751SOL     OW 2251   1.855   2.419   2.756  0.4158 -0.0424 -0.3821
  751SOL    HW1 2252   1.845   2.491   2.689  0.5114  0.0414  1.8540
  751SOL    HW2 2253   1.919   2.450   2.827  1.6726 -1.3456  0.7670
  752SOL     OW 2254   1.653   1.986   0.340 -0.0925 -0.2435 -0.5078
  752SOL    HW1 2255   1.660   2.073   0.283  1.1977 -0.1933 -1.5464
  752SOL    HW2 2256   1.744   1.941   0.348  2.1508 -2.3966  2.8129
  753SOL     OW 2257   1.711   0.705   2.196 -0.0452  0.1445 -0.1070
  753SOL    HW1 2258   1.707   0.614   2.243  0.3596  0.5150 -1.3025
  753SOL    HW2 2259   1.702   0.780   2.263 -1.4061 -2.5922  0.7378
  754SOL     OW 2260   0.208   2.852   0.765  0.1802  0.4301 -0.5057
  754SOL    HW1 2261   0.221   2.926   0.842  0.7577  0.5733 -1.7721
  754SOL    HW2 2262   0.107   2.822   0.770 -2.4562 -1.2953  0.2499
  755SOL     OW 2263   2.017   2.973   1.512  0.4545 -0.6960  0.1151
  755SOL    HW1 2264   2.043   3.044   1.445  2.2181 -0.4052  0.3988
  755SOL    HW2 2265   1.943   3.004   1.573 -0.4314 -1.2233 -0.8557
  756SOL     OW 2266   1.408   1.034   2.519  0.4238 -0.2689  0.0475
  756SOL    HW1 2267   1.486   0.971   2.538  3.8021  0.7896  1.0338
  756SOL    HW2 2268   1.363   1.063   2.607 -2.4358 -0.7283  1.4842
  757SOL     OW 2269   2.996   2.839   1.527  0.1555 -0.0384 -0.4439
  757SOL    HW1 2270   3.004   2.830   1.629  1.5296 -0.4245 -5.1063
  757SOL    HW2 2271   2.956   2.753   1.495  1.2395  1.8416  0.1502
  758SOL     OW 2272   0.552   0.134   1.488 -0.2054 -0.1142  0.1986
  758SOL    HW1 2273   0.529   0.064   1.558 -0.6430  0.6028 -1.4149
  758SOL    HW2 2274   0.550   0.229   1.529  0.3498 -0.8184  0.7953
  759SOL     OW 2275   2.268   1.131   0.640  0.0411  0.1882 -0.2305
  759SOL    HW1 2276   2.285   1.203   0.569 -0.0348 -0.4261 -0.9625
  759SOL    HW2 2277   2.339   1.130   0.713 -2.7329 -1.9180 -0.6787
  760SOL     OW 2278   2.140   0.353   1.353  0.4150  0.7991 -0.2775
  760SOL    HW1 2279   2.114   0.415   1.431 -0.4136  1.7879 -0.0309
  760SOL    HW2 2280   2.236   0.366   1.322 -3.6273 -2.2429 -1.6896
  761SOL     OW 2281   2.153   0.123   0.232 -0.0854 -0.1760 -0.6378
  761SOL    HW1 2282   2.165   0.151   0.328  3.7103  1.0314 -1.1281
  761SOL    HW2 2283   2.109   0.032   0.220 -4.0768 -2.2638  1.4617
  762SOL     OW 2284   2.589   2.384   0.022 -0.2044 -0.1364 -0.5769
  762SOL    HW1 2285   2.532   2.352   3.039 -0.7067  0.4573 -0.0922
  762SOL    HW2 2286   2.688   2.383   3.092  1.2154 -1.3376  0.7041
  763SOL     OW 2287   0.732   1.016   0.787  0.2108 -0.3800 -0.3063
  763SOL    HW1 2288   0.747   1.103   0.737 -0.7510 -0.5302 -0.5339
  763SOL    HW2 2289   0.715   1.038   0.883 -0.1897  1.2695 -0.1163
  764SOL     OW 2290   2.454   2.264   2.896 -0.3828  0.0644  0.4590
  764SOL    HW1 2291   2.413   2.348   2.849 -0.3202  1.0784 -3.3588
  764SOL    HW2 2292   2.496   2.202   2.828 -1.7390 -0.8758  0.8721
  765SOL     OW 2293   0.605   0.874   2.028 -0.0931 -0.0928 -0.2565
  765SOL    HW1 2294   0.546   0.842   2.103  0.7002  0.0449  1.6911
  765SOL    HW2 2295   0.670   0.800   1.994  1.2085 -1.5388 -0.5845
  766SOL     OW 2296   2.900   1.327   2.537  0.4797  0.2699 -0.2084
  766SOL    HW1 2297   2.799   1.331   2.543  0.2738 -1.1034 -0.3858
  766SOL    HW2 2298   2.923   1.231   2.512  1.4176 -1.8344 -0.2191
  767SOL     OW 2299   0.208   1.910   2.156 -0.2592 -0.5839 -0.1158
  767SOL    HW1 2300   0.271   1.848   2.107 -1.3252  2.6926  0.9232
  767SOL    HW2 2301   0.218   1.895   2.255  2.3053  2.7661 -3.4455
  768SOL     OW 2302   0.945   1.155   2.803 -0.1150  0.4147  0.3633
  768SOL    HW1 2303   0.896   1.092   2.865  2.3873  0.8536  0.0058
  768SOL    HW2 2304   0.910   1.144   2.707 -2.7643  1.8348 -0.4175
  769SOL     OW 2305   1.717   2.816   2.826 -0.1350 -0.7612  0.2184
  769SOL    HW1 2306   1.808   2.777   2.807 -0.3818 -0.6073  2.1249
  769SOL    HW2 2307   1.710   2.834   2.927 -1.8421  0.2167 -1.2485
  770SOL     OW 2308   0.014   0.381   2.346  0.3458  0.5247 -0.4992
  770SOL    HW1 2309   0.097   0.435   2.371  1.1846 -0.0638  1.7410
  770SOL    HW2 2310   3.028   0.440   2.358  1.1439 -1.8765  1.2406
  771SOL     OW 2311   0.727   2.183   1.312  0.2951 -0.4420  0.0899
  771SOL    HW1 2312   0.789   2.235   1.373  0.3261  0.3137 -2.9109
  771SOL    HW2 2313   0.686   2.246   1.240  1.4744  2.1979 -1.9933
  772SOL     OW 2314   0.372   0.612   2.880  0.2445 -0.2046 -0.8004
  772SOL    HW1 2315   0.322   0.567   2.806  0.1077  0.1019  3.9423
  772SOL    HW2 2316   0.417   0.697   2.842  0.9387  1.2829 -1.9406
  773SOL     OW 2317   2.323   1.030   1.591  0.3440  0.1016  0.5472
  773SOL    HW1 2318   2.388   1.093   1.639 -0.1484 -0.9475 -1.3242
  773SOL    HW2 2319   2.233   1.028   1.641  0.4295  2.3577  2.2112
  774SOL     OW 2320   1.046   1.016   0.475 -0.2318 -0.3110 -0.0604
  774SOL    HW1 2321   1.044   0.972   0.568 -1.2808  0.5595  1.3748
  774SOL    HW2 2322   1.065   0.945   0.403 -0.6474  0.5885  1.2592
  775SOL     OW 2323   1.971   2.732   2.844  0.3558  0.2548 -0.2402
  775SOL    HW1 2324   2.049   2.796   2.828  0.3825  0.4042 -0.1840
  775SOL    HW2 2325   1.990   2.676   2.924  0.5897  0.6793 -0.3215
  776SOL     OW 2326   2.366   0.046   2.410  0.2174 -0.1336  0.1692
  776SOL    HW1 2327   2.310   3.069   2.455 -0.9854  2.5953 -2.1820
  776SOL    HW2 2328   2.467   0.038   2.434  0.8133  0.1273  0.1103
  777SOL     OW 2329   0.639   1.645   2.946 -0.1778  0.3997 -0.0543
  777SOL    HW1 2330   0.579   1.648   2.863 -0.0990 -0.0533 -1.1351
  777SOL    HW2 2331   0.599   1.586   3.018  2.9015  0.0515  0.2987
  778SOL     OW 2332   0.769   2.965   0.033  0.4245 -1.0572  0.5069
  778SOL    HW1 2333   0.863   2.945   0.012 -0.8894  0.5667  2.2389
  778SOL    HW2 2334   0.741   2.952   0.128  0.6566 -1.8415 -1.3406
  779SOL     OW 2335   3.052   1.176   2.949 -0.2255 -0.2426 -0.6272
  779SOL    HW1 2336   3.087   1.179   3.046  0.1799 -0.3967  0.0719
  779SOL    HW2 2337   3.034   1.080   2.927 -0.4694  1.0722 -0.5998
  780SOL     OW 2338   1.799   0.350   2.590 -0.2137  0.1641  0.0440
  780SOL    HW1 2339   1.804   0.383   2.688 -2.3395  0.0623  0.1952
  780SOL    HW2 2340   1.834   0.254   2.587  0.7709  2.5310 -0.0642
  781SOL     OW 2341   2.230   0.910   2.117  0.3145  0.1738  0.4505
  781SOL    HW1 2342   2.152   0.946   2.174  0.1519 -2.3214  0.6785
  781SOL    HW2 2343   2.201   0.855   2.039  3.7005  3.1708  4.2227
  782SOL     OW 2344   1.285   1.792   2.351 -0.0125 -0.2653 -0.6213
  782SOL    HW1 2345   1.340   1.877   2.339  0.9520 -3.5150 -1.3163
  782SOL    HW2 2346   1.202   1.815   2.410 -0.4689  1.3738 -1.3141
  783SOL     OW 2347   1.474   2.982   1.006 -0.5290  0.0272  0.0315
  783SOL    HW1 2348   1.457   3.017   1.096 -1.5092 -1.7585 -0.7970
  783SOL    HW2 2349   1.402   2.922   0.977  0.4115 -0.4344  2.1473
  784SOL     OW 2350   1.379   0.675   2.881  0.1899  0.3343  0.2050
  784SOL    HW1 2351   1.425   0.763   2.865 -0.4746  1.0163  1.5417
  784SOL    HW2 2352   1.288   0.690   2.917  1.1062 -0.5556 -1.2345
  785SOL     OW 2353   1.850   0.401   2.840  0.3815  0.1562  0.1109
  785SOL    HW1 2354   1.823   0.494   2.872 -0.7794 -1.4215  1.4810
  785SOL    HW2 2355   1.815   0.325   2.896 -0.8852  2.0732 -0.1922
  786SOL     OW 2356   3.061   1.284   0.594  0.0996  0.0641 -0.0789
  786SOL    HW1 2357   2.989   1.214   0.564 -1.0210  0.2498  1.8995
  786SOL    HW2 2358   3.043   1.317   0.690  1.7972 -1.7821  1.1949
  787SOL     OW 2359   1.558   1.843   0.097 -0.1577 -0.1371 -0.0922
  787SOL    HW1 2360   1.626   1.868   0.025 -0.8867 -0.0039 -3.2105
  787SOL    HW2 2361   1.577   1.878   0.189  0.4439 -1.5270  0.4873
  788SOL     OW 2362   1.595   2.036   1.383  0.1561 -0.3069 -0.3784
  788SOL    HW1 2363   1.605   2.027   1.282 -0.3160  0.3471 -1.6604
  788SOL    HW2 2364   1.685   2.022   1.430 -0.5423 -2.2288 -0.4499
  789SOL     OW 2365   0.123   1.281   2.347  0.1358 -0.3248  0.2932
  789SOL    HW1 2366   0.091   1.189   2.320 -0.9185 -0.5701 -0.7884
  789SOL    HW2 2367   0.142   1.342   2.268 -2.3517  2.4766 -0.1572
  790SOL     OW 2368   0.665   0.128   3.040 -0.0920  0.1342 -0.6096
  790SOL    HW1 2369   0.569   0.102   3.058  2.4322 -3.3082 -0.6659
  790SOL    HW2 2370   0.717   0.045   3.070 -2.0324  1.2742  2.0816
  791SOL     OW 2371   0.637   0.018   2.200  0.0564  0.0966  0.4392
  791SOL    HW1 2372   0.684   0.102   2.164  2.4578  2.0860  2.9629
  791SOL    HW2 2373   0.576   0.049   2.279 -3.4864  0.3000  0.6867
  792SOL     OW 2374   1.781   0.370   2.073 -0.7262  0.2121  0.1746
  792SOL    HW1 2375   1.787   0.417   2.161 -0.5109 -0.8202 -2.2683
  792SOL    HW2 2376   1.832   0.278   2.078  1.8818 -1.1458  1.7144
  793SOL     OW 2377   2.692   0.868   1.388  0.3265 -0.0290  0.2290
  793SOL    HW1 2378   2.614   0.839   1.447 -4.4963  1.9443 -0.5740
  793SOL    HW2 2379   2.760   0.920   1.443  1.5581 -0.7502 -0.8816
  794SOL     OW 2380   0.302   0.508   1.628  0.0301  0.8323 -0.7435
  794SOL    HW1 2381   0.321   0.602   1.605 -0.2865 -3.8532  2.1279
  794SOL    HW2 2382   0.229   0.496   1.695 -1.0186 -0.6877 -1.1972
  795SOL     OW 2383   3.027   1.498   0.449  0.0771 -0.4864  0.2776
  795SOL    HW1 2384   0.020   1.513   0.399  1.4438 -2.5892 -1.2575
  795SOL    HW2 2385   3.030   1.416   0.510 -1.4550 -1.0851  2.9083
  796SOL     OW 2386   0.167   2.502   0.217  0.6425  0.0374  0.0976
  796SOL    HW1 2387   0.200   2.584   0.172  2.6049 -0.7281  3.0611
  796SOL    HW2 2388   0.067   2.490   0.204  3.9144 -0.4885  0.9561
  797SOL     OW 2389   1.999   2.476   2.968 -0.3860 -0.3628 -0.2541
  797SOL    HW1 2390   2.091   2.434   2.990  2.5411 -1.5345  1.2243
  797SOL    HW2 2391   1.951   2.482   3.056  0.9127 -0.2238 -3.3175
  798SOL     OW 2392   0.068   1.184   1.430 -0.2063 -0.6134  0.3073
  798SOL    HW1 2393   0.031   1.152   1.341 -0.9477  0.4138  2.0444
  798SOL    HW2 2394   0.036   1.280   1.443  1.8895  1.2639 -0.4081
  799SOL     OW 2395   3.080   0.870   2.992 -0.3099  0.3535 -0.2665
  799SOL    HW1 2396   0.078   0.873   2.955 -4.1020  1.7795  1.4376
  799SOL    HW2 2397   3.057   0.781   3.039 -1.2333  2.9248 -1.3748
  800SOL     OW 2398   2.779   1.618   0.414 -0.5558 -0.4040  0.1388
  800SOL    HW1 2399   2.770   1.703   0.351  3.4649  2.8222 -2.3939
  800SOL    HW2 2400   2.873   1.578   0.419  1.3606  0.7241 -2.1161
  801SOL     OW 2401   1.667   1.108   1.128  0.2742  0.3137 -0.3720
  801SOL    HW1 2402   1.615   1.165   1.063 -0.8337  0.5681 -2.5753
  801SOL    HW2 2403   1.608   1.080   1.204 -0.6687  1.3102 -2.3530
  802SOL     OW 2404   0.851   1.919   1.528  0.5605 -0.0162  0.2202
  802SOL    HW1 2405   0.879   1.869   1.448 -0.2392  7.4790  0.6928
  802SOL    HW2 2406   0.889   2.012   1.520  2.5662 -0.7807  1.7702
  803SOL     OW 2407   0.338   1.988   0.596  0.1329  0.0553  0.1891
  803SOL    HW1 2408   0.433   2.025   0.591  1.4995  0.6087 -0.0813
  803SOL    HW2 2409   0.305   2.004   0.689  1.0129  0.9120 -5.5301
  804SOL     OW 2410   0.957   2.629   1.575 -0.1813 -0.3678  0.3928
  804SOL    HW1 2411   1.050   2.652   1.605  2.1257  0.4146 -1.8858
  804SOL    HW2 2412   0.894   2.674   1.635  3.3938  0.5355 -1.3292
  805SOL     OW 2413   1.786   1.121   0.181 -0.6866  0.1256 -0.0410
  805SOL    HW1 2414   1.852   1.092   0.101  1.6738 -1.4544 -0.9801
  805SOL    HW2 2415   1.792   1.224   0.190  0.0390  1.4881  1.6274
  806SOL     OW 2416   1.605   3.025   0.749 -0.4568  0.0540  0.2317
  806SOL    HW1 2417   1.576   2.958   0.677  2.0391 -0.9616  1.4406
  806SOL    HW2 2418   1.552   3.022   0.837  0.0434  0.6040 -1.4890
  807SOL     OW 2419   2.467   3.040   2.857 -0.2456  0.2527 -0.1277
  807SOL    HW1 2420   2.444   0.006   2.938  0.7261 -0.0641 -1.9117
  807SOL    HW2 2421   2.525   3.081   2.785 -0.3669 -2.2873  0.5173
  808SOL     OW 2422   0.002   1.174   0.115 -0.0126 -0.7399 -0.0793
  808SOL    HW1 2423   0.062   1.107   0.164 -1.4251 -0.1502  0.5732
  808SOL    HW2 2424   0.032   1.272   0.129 -1.8818  2.7837  2.0660
  809SOL     OW 2425   2.644   0.833   2.452  0.0625  0.1800  0.0903
  809SOL    HW1 2426   2.606   0.780   2.532  0.1899  0.4402  0.2182
  809SOL    HW2 2427   2.587   0.817   2.372 -0.1053  2.3124  2.6493
  810SOL     OW 2428   2.059   3.016   1.911  0.4851 -0.0848  0.7165
  810SOL    HW1 2429   1.998   3.024   1.830  1.2222  2.0324 -2.7894
  810SOL    HW2 2430   2.064   2.921   1.947  1.8151  1.9841 -0.4765
  811SOL     OW 2431   2.600   2.482   1.827  0.1648 -0.0755 -1.0103
  811SOL    HW1 2432   2.677   2.547   1.817  2.4331 -4.2624  1.1715
  811SOL    HW2 2433   2.565   2.447   1.737  0.1016 -2.2457 -1.7320
  812SOL     OW 2434   1.575   0.155   2.702 -0.0105  0.4058 -0.0080
  812SOL    HW1 2435   1.658   0.191   2.745 -2.8863  0.3689  0.3415
  812SOL    HW2 2436   1.589   0.061   2.673  0.4360  2.5456 -0.0292
  813SOL     OW 2437   2.014   0.185   2.048 -0.5761 -0.2359 -0.1742
  813SOL    HW1 2438   2.021   0.089   2.033 -0.9834  3.9793  1.6495
  813SOL    HW2 2439   2.058   0.235   1.969  2.1780  0.6953  0.0467
  814SOL     OW 2440   1.893   1.134   1.918  0.0496  0.2903  0.5328
  814SOL    HW1 2441   1.842   1.108   2.004 -2.3530 -1.3361 -1.9766
  814SOL    HW2 2442   1.826   1.168   1.848  1.3061  0.6514 -1.2334
  815SOL     OW 2443   0.540   0.944   0.389 -0.2559  1.0015  0.3537
  815SOL    HW1 2444   0.486   1.030   0.383 -0.5285 -0.9533 -3.7817
  815SOL    HW2 2445   0.547   0.906   0.481  1.2276 -0.9747 -1.5569
  816SOL     OW 2446   2.184   1.701   2.722 -0.3998  0.0147 -0.0747
  816SOL    HW1 2447   2.110   1.643   2.686  0.6828 -1.2434  1.7894
  816SOL    HW2 2448   2.263   1.717   2.654  1.0537 -0.4773  1.0393
  817SOL     OW 2449   0.144   2.880   0.488  0.8488 -0.3798  0.4557
  817SOL    HW1 2450   0.176   2.877   0.585 -1.2401  0.4085 -1.0655
  817SOL    HW2 2451   0.044   2.853   0.479 -0.7197  3.2432  0.3406
  818SOL     OW 2452   1.918   0.097   2.555  0.0143 -0.0539  0.1069
  818SOL    HW1 2453   2.012   0.070   2.591  3.1954  2.7282  0.2750
  818SOL    HW2 2454   1.871   0.025   2.498 -0.6789  2.8015  0.3164
  819SOL     OW 2455   1.152   0.788   0.350  0.2736 -0.4877  0.5079
  819SOL    HW1 2456   1.214   0.736   0.412 -2.1323  0.5873  0.5405
  819SOL    HW2 2457   1.077   0.730   0.314  2.0901  0.7220  1.4817
  820SOL     OW 2458   2.112   0.622   0.692  0.0432  0.3926  0.4555
  820SOL    HW1 2459   2.168   0.707   0.684 -1.2228  1.1594 -1.2349
  820SOL    HW2 2460   2.094   0.595   0.790 -5.0234 -1.0241  1.3807
  821SOL     OW 2461   2.532   2.901   0.461 -0.5592  0.1138 -0.4433
  821SOL    HW1 2462   2.511   2.999   0.472  2.0769 -0.2452 -1.5087
  821SOL    HW2 2463   2.554   2.879   0.362 -1.6270  2.4696 -1.0649
  822SOL     OW 2464   0.261   2.998   2.334 -0.2565 -0.1013  0.4397
  822SOL    HW1 2465   0.192   3.061   2.292 -1.7864 -0.3930  0.9067
  822SOL    HW2 2466   0.208   2.926   2.383  0.3391  1.6157 -1.4454
  823SOL     OW 2467   2.766   2.231   1.756 -0.2486 -0.1501  0.1608
  823SOL    HW1 2468   2.819   2.314   1.724  2.2663  0.2473  0.4400
  823SOL    HW2 2469   2.678   2.223   1.706  3.0517 -0.8773  2.5969
  824SOL     OW 2470   0.810   2.976   2.030  0.3785 -0.1718 -0.2770
  824SOL    HW1 2471   0.757   3.040   2.095 -0.3926  1.4391  1.8541
  824SOL    HW2 2472   0.898   2.956   2.078 -0.9705  1.6248 -0.3958
  825SOL     OW 2473   1.484   1.595   0.481  0.2778 -0.0893  0.0813
  825SOL    HW1 2474   1.555   1.532   0.441 -1.2329 -0.0626 -2.6885
  825SOL    HW2 2475   1.419   1.618   0.403 -2.6188 -1.6604  0.1161
  826SOL     OW 2476   1.694   0.438   3.074 -0.3202 -0.5258 -0.1221
  826SOL    HW1 2477   1.688   0.349   3.025 -2.0303 -2.7638  2.1436
  826SOL    HW2 2478   1.771   0.439   0.049  2.8732  0.5684  0.8813
  827SOL     OW 2479   0.234   1.503   1.479 -0.4873  0.1019 -0.2997
  827SOL    HW1 2480   0.213   1.586   1.537 -1.2360  1.2107  0.1344
  827SOL    HW2 2481   0.233   1.529   1.379 -0.4537  1.7916  1.1536
  828SOL     OW 2482   2.084   1.035   1.760  0.0984  0.2450 -0.2132
  828SOL    HW1 2483   2.050   1.065   1.668 -2.6568 -1.8853 -0.7244
  828SOL    HW2 2484   2.007   1.056   1.828 -1.3331  0.4641 -0.1994
  829SOL     OW 2485   0.146   2.253   0.490 -0.4970  0.4148 -0.4390
  829SOL    HW1 2486   0.112   2.155   0.482  0.3038 -1.2937  0.1968
  829SOL    HW2 2487   0.189   2.283   0.403 -0.3070  0.6516  0.4472
  830SOL     OW 2488   0.974   0.886   0.710 -0.1592  0.3636 -0.4260
  830SOL    HW1 2489   1.051   0.849   0.771 -0.6490  0.3669  0.3387
  830SOL    HW2 2490   0.899   0.923   0.769 -2.9459 -2.1992  2.4515
  831SOL     OW 2491   2.674   1.817   0.196 -0.0512 -0.0476  0.1232
  831SOL    HW1 2492   2.747   1.801   0.131  0.2948 -0.3127 -0.8070
  831SOL    HW2 2493   2.587   1.771   0.164  1.9778 -0.3906  2.9056
  832SOL     OW 2494   1.056   2.756   0.176 -0.1745  0.2234  0.5871
  832SOL    HW1 2495   1.049   2.838   0.115  2.7149 -1.3499  0.1787
  832SOL    HW2 2496   1.096   2.789   0.265  1.1679  0.1285  2.6803
  833SOL     OW 2497   1.080   0.506   2.082  0.2004  0.1309 -0.2984
  833SOL    HW1 2498   1.078   0.460   2.170  0.4953 -0.5787 -0.3796
  833SOL    HW2 2499   1.063   0.604   2.094  1.8620  0.0357 -2.5381
  834SOL     OW 2500   0.204   0.983   1.113  0.1293  0.4289  0.1983
  834SOL    HW1 2501   0.225   1.008   1.014 -0.6278 -1.8625 -0.9713
  834SOL    HW2 2502   0.205   0.879   1.123 -0.0212  0.7672 -0.1317
  835SOL     OW 2503   2.501   0.233   1.778 -0.4854 -0.3656  0.5993
  835SOL    HW1 2504   2.497   0.333   1.813 -1.2312 -0.1034 -1.8117
  835SOL    HW2 2505   2.434   0.175   1.825  1.5047  1.3061 -0.6645
  836SOL     OW 2506   0.274   2.064   0.838 -0.5764 -0.1762 -0.0006
  836SOL    HW1 2507   0.330   2.145   0.870 -0.6537  0.2082 -0.0353
  836SOL    HW2 2508   0.276   1.990   0.904  0.1653  1.2061  0.0267
  837SOL     OW 2509   1.957   1.770   2.390 -0.2036 -0.1101 -0.0548
  837SOL    HW1 2510   1.973   1.692   2.452  0.3692  1.6587  0.0481
  837SOL    HW2 2511   2.045   1.801   2.351  0.7336  0.9261 -1.5205
  838SOL     OW 2512   0.306   1.082   1.475  0.0119  0.1657  0.2809
  838SOL    HW1 2513   0.327   0.998   1.417  2.3228 -2.6065  0.1311
  838SOL    HW2 2514   0.211   1.108   1.465 -1.4906 -1.4164 -0.1831
  839SOL     OW 2515   0.287   0.250   0.818  0.1696  0.6774  0.0333
  839SOL    HW1 2516   0.313   0.341   0.772  2.0632  1.9452 -1.7421
  839SOL    HW2 2517   0.349   0.239   0.900 -0.6812  0.5422 -1.6211
  840SOL     OW 2518   2.926   0.329   2.624  0.2191  0.3133 -0.7294
  840SOL    HW1 2519   2.946   0.308   2.531 -1.1871  3.0009  3.4483
  840SOL    HW2 2520   2.979   0.406   2.669 -2.7666 -1.0952  0.4721
  841SOL     OW 2521   0.387   2.786   3.031  0.3133 -0.5531 -0.0093
  841SOL    HW1 2522   0.454   2.841   2.980 -4.5823 -0.6449  2.4154
  841SOL    HW2 2523   0.337   2.727   2.966  1.4951  1.2345  1.0882
  842SOL     OW 2524   0.940   0.043   0.887 -0.1754  0.3858  0.1859
  842SOL    HW1 2525   0.944   3.037   0.865 -0.5584  2.6975  0.1465
  842SOL    HW2 2526   0.978   0.064   0.977 -0.5530 -0.8518 -2.8822
  843SOL     OW 2527   2.984   1.405   2.825  0.1360 -0.4155  0.0058
  843SOL    HW1 2528   3.022   1.321   2.874  0.8104 -0.1945  1.0987
  843SOL    HW2 2529   2.927   1.380   2.743 -1.2628 -0.8833  1.3450
  844SOL     OW 2530   0.938   2.374   2.309  0.4717  0.0476 -0.4319
  844SOL    HW1 2531   0.900   2.302   2.368  1.3576  2.4815 -1.8923
  844SOL    HW2 2532   0.876   2.429   2.255  0.8483  1.0554  2.4632
  845SOL     OW 2533   2.186   2.512   2.434 -0.5697 -0.0092 -0.0102
  845SOL    HW1 2534   2.216   2.610   2.439 -0.4228 -1.2595 -0.9647
  845SOL    HW2 2535   2.089   2.509   2.402  0.3964  3.0715 -0.6855
  846SOL     OW 2536   1.628   1.488   2.550 -0.1081  0.0962 -0.3614
  846SOL    HW1 2537   1.657   1.566   2.607  1.2436  0.0670 -2.8597
  846SOL    HW2 2538   1.712   1.441   2.518  1.0867  0.0794  0.3979
  847SOL     OW 2539   2.775   0.103   3.093  0.0008 -0.1981  0.6466
  847SOL    HW1 2540   2.854   0.037   3.095 -0.2713  0.8920 -1.3548
  847SOL    HW2 2541   2.763   0.140   2.996 -0.3861  1.4039 -3.4033
  848SOL     OW 2542   0.175   1.039   0.272 -0.0675 -0.3063  0.0016
  848SOL    HW1 2543   0.141   0.976   0.346 -0.8463  1.2869  0.9699
  848SOL    HW2 2544   0.244   1.102   0.310 -1.3392  2.0439  1.2477
  849SOL     OW 2545   1.242   0.160   2.369 -0.5829  0.3433  0.1474
  849SOL    HW1 2546   1.147   0.121   2.350 -2.9628 -3.0748  0.2253
  849SOL    HW2 2547   1.315   0.084   2.368  0.8414 -0.5523 -2.5083
  850SOL     OW 2548   0.391   1.174   0.389 -0.3895  0.5078 -0.1964
  850SOL    HW1 2549   0.448   1.256   0.370  2.8032  0.1163 -0.1585
  850SOL    HW2 2550   0.344   1.186   0.483 -0.5185 -2.2333  3.3930
  851SOL     OW 2551   0.478   1.435   0.344 -0.2813  0.1339 -0.0782
  851SOL    HW1 2552   0.500   1.515   0.401 -1.3819 -0.4522  1.9317
  851SOL    HW2 2553   0.566   1.403   0.303 -0.1985  0.3100 -1.6188
  852SOL     OW 2554   1.322   1.263   1.677  0.0660 -0.1283  0.1204
  852SOL    HW1 2555   1.365   1.276   1.771 -1.6310 -0.3365  2.5825
  852SOL    HW2 2556   1.343   1.336   1.609  1.9007  1.3176 -0.1451
  853SOL     OW 2557   2.532   1.506   0.377  0.4047 -0.1291 -0.2181
  853SOL    HW1 2558   2.616   1.558   0.405 -1.5484  1.3431  0.1811
  853SOL    HW2 2559   2.530   1.471   0.284  0.3756  1.6770  2.9656
  854SOL     OW 2560   1.313   1.085   2.284  0.2610  0.3354 -0.4932
  854SOL    HW1 2561   1.324   1.076   2.389 -0.4696  1.3099  1.5943
  854SOL    HW2 2562   1.276   1.006   2.237 -0.5948  2.6261  1.8123
  855SOL     OW 2563   0.250   2.654   2.810 -0.8429 -0.3355 -0.3103
  855SOL    HW1 2564   0.317   2.683   2.744 -3.1033 -0.0939  1.4154
  855SOL    HW2 2565   0.174   2.719   2.804  4.1407  0.8568 -0.1376
  856SOL     OW 2566   1.279   0.925   2.046 -0.3883 -0.4546  0.1071
  856SOL    HW1 2567   1.279   0.948   1.948  1.7844 -1.1563 -1.4493
  856SOL    HW2 2568   1.204   0.861   2.070 -2.1283 -1.3048 -1.3030
  857SOL     OW 2569   1.316   0.649   2.272  1.1360  0.6938  0.3996
  857SOL    HW1 2570   1.275   0.555   2.269  0.0707 -2.2576 -1.9117
  857SOL    HW2 2571   1.350   0.682   2.181  0.2232  0.7561  1.4059
  858SOL     OW 2572   0.175   0.851   1.706  0.5084  0.0092  0.9093
  858SOL    HW1 2573   0.200   0.903   1.791 -0.1480  1.7165  2.0015
  858SOL    HW2 2574   0.250   0.839   1.637 -2.4059 -2.7191 -4.3562
  859SOL     OW 2575   2.769   3.027   0.810 -0.2187 -0.2433  0.2592
  859SOL    HW1 2576   2.870   3.029   0.824 -1.4643  0.1251 -0.1052
  859SOL    HW2 2577   2.742   2.940   0.764 -0.7456 -0.8959  1.0963
  860SOL     OW 2578   1.889   0.268   0.593 -0.3750 -0.5189 -0.0657
  860SOL    HW1 2579   1.794   0.262   0.556 -0.5429  0.7015  0.5052
  860SOL    HW2 2580   1.934   0.182   0.610  1.7198  1.4584  0.7391
  861SOL     OW 2581   1.502   0.489   1.036  0.1981  0.7864 -0.3349
  861SOL    HW1 2582   1.405   0.471   1.065 -1.5262 -1.4035  0.3356
  861SOL    HW2 2583   1.496   0.501   0.935  1.2280 -2.2597 -0.3232
  862SOL     OW 2584   1.368   2.980   2.415  0.2270  0.0783 -0.4368
  862SOL    HW1 2585   1.376   2.908   2.343 -2.1699 -0.3777  0.6381
  862SOL    HW2 2586   1.456   2.993   2.461 -1.8573 -0.0950  0.0008
  863SOL     OW 2587   3.047   2.803   0.829 -0.5833  0.1654 -0.7074
  863SOL    HW1 2588   3.035   2.797   0.933  1.2227  1.6495  0.1461
  863SOL    HW2 2589   2.979   2.749   0.776  0.0769  0.3533  2.9495
  864SOL     OW 2590   2.370   0.110   2.131  0.4149  0.1115  0.2540
  864SOL    HW1 2591   2.318   0.102   2.218 -0.6410 -2.5061  0.5356
  864SOL    HW2 2592   2.311   0.157   2.059 -1.6635 -0.5843 -3.4907
  865SOL     OW 2593   1.016   1.483   2.147 -0.6190 -0.5283 -0.3992
  865SOL    HW1 2594   1.056   1.402   2.105  0.7407  2.0490 -1.0874
  865SOL    HW2 2595   0.936   1.468   2.206  1.1853  0.7693 -1.1456
  866SOL     OW 2596   2.155   2.777   1.154  0.3248  0.1016  0.1282
  866SOL    HW1 2597   2.100   2.809   1.073 -0.3556  0.0531  1.0433
  866SOL    HW2 2598   2.181   2.682   1.138 -0.6858 -0.9149  1.9255
  867SOL     OW 2599   2.225   2.936   0.759 -0.2593 -0.1354 -0.1525
  867SOL    HW1 2600   2.307   2.934   0.824  0.0699  0.3567  0.0747
  867SOL    HW2 2601   2.144   2.895   0.802  1.7768  1.1130 -1.8860
  868SOL     OW 2602   2.888   1.990   1.653  0.8918  0.1835  0.7650
  868SOL    HW1 2603   2.841   1.935   1.578 -0.4421 -2.9452 -2.2285
  868SOL    HW2 2604   2.829   2.069   1.681  0.7848  0.4199  0.9333
  869SOL     OW 2605   1.952   2.194   2.109 -0.4032 -0.0322  0.4036
  869SOL    HW1 2606   1.973   2.187   2.211  0.5304 -2.2425  2.4899
  869SOL    HW2 2607   1.855   2.171   2.095 -1.8763  1.0144  3.9639
  870SOL     OW 2608   1.365   1.213   0.762 -0.0154 -0.1118  0.1160
  870SOL    HW1 2609   1.292   1.214   0.694 -2.6692  0.9273  1.1900
  870SOL    HW2 2610   1.425   1.286   0.731  3.2897 -0.5585  3.5640
  871SOL     OW 2611   3.051   1.892   2.105  0.0564  0.0321 -0.0952
  871SOL    HW1 2612   2.978   1.942   2.157  1.3011  1.5266  0.7284
  871SOL    HW2 2613   0.052   1.913   2.139  2.7974  1.5889 -0.5169
  872SOL     OW 2614   1.244   1.317   2.587 -0.0663  0.3991 -0.2579
  872SOL    HW1 2615   1.172   1.267   2.531 -3.4765 -0.2981 -2.9207
  872SOL    HW2 2616   1.267   1.413   2.552 -1.5174  0.6218  1.3470
  873SOL     OW 2617   0.851   1.162   1.946 -0.0634  0.0510  0.3255
  873SOL    HW1 2618   0.879   1.255   1.905  2.5367  0.6079 -0.9303
  873SOL    HW2 2619   0.752   1.153   1.974  1.1116 -0.8177  1.2207
  874SOL     OW 2620   1.826   0.774   1.583  0.8816  0.4137  0.4137
  874SOL    HW1 2621   1.912   0.724   1.566  1.0205  1.8766 -0.2140
  874SOL    HW2 2622   1.834   0.826   1.670  2.7193  0.8770 -1.9807
  875SOL     OW 2623   0.051   0.325   0.161 -0.2891 -0.0862 -0.3746
  875SOL    HW1 2624   0.026   0.233   0.193 -3.7313  2.6286  1.1023
  875SOL    HW2 2625   3.083   0.392   0.199  2.1448 -0.5423 -0.2223
  876SOL     OW 2626   0.914   1.166   0.215  0.4045 -0.6646 -0.3493
  876SOL    HW1 2627   0.888   1.230   0.290  3.2398  1.1862  0.0059
  876SOL    HW2 2628   1.011   1.179   0.189 -0.3450  0.9331 -3.0673
  877SOL     OW 2629   2.457   2.711   1.050 -0.2110  0.4549  0.3698
  877SOL    HW1 2630   2.446   2.700   1.149  1.2807 -1.1120 -3.0592
  877SOL    HW2 2631   2.525   2.644   1.016 -0.9622 -0.8659 -1.5195
  878SOL     OW 2632   1.899   1.875   0.359  0.0588  0.0969 -0.3819
  878SOL    HW1 2633   1.977   1.905   0.424  3.4460  1.5238 -0.0614
  878SOL    HW2 2634   1.937   1.882   0.265  1.7569 -0.0026 -0.3191
  879SOL     OW 2635   2.928   1.396   1.921  0.1344 -0.6484 -0.2660
  879SOL    HW1 2636   2.992   1.467   1.884 -0.4879  1.0325  0.9496
  879SOL    HW2 2637   2.926   1.398   2.024 -0.7432  0.9039  0.9171
  880SOL     OW 2638   0.330   1.905   1.035 -0.5323  0.6660 -0.6931
  880SOL    HW1 2639   0.344   1.902   1.136 -0.5999 -1.4137  1.3762
  880SOL    HW2 2640   0.311   1.808   1.003  1.6450 -0.4444  3.6960
  881SOL     OW 2641   1.260   0.191   1.917 -0.0655 -0.0602 -0.2479
  881SOL    HW1 2642   1.321   0.177   1.836  1.6624  2.7060 -3.2463
  881SOL    HW2 2643   1.277   0.280   1.964 -2.6974 -1.0440  1.0072
  882SOL     OW 2644   2.364   0.918   0.992  0.2099  0.2071  0.3909
  882SOL    HW1 2645   2.391   0.982   0.920 -0.2031 -0.3733 -1.2889
  882SOL    HW2 2646   2.430   0.920   1.072  1.5510  0.3510  0.7609
  883SOL     OW 2647   1.770   0.211   1.498  0.0189  0.5886 -0.2340
  883SOL    HW1 2648   1.732   0.168   1.417  0.8933 -1.5655  2.4858
  883SOL    HW2 2649   1.698   0.254   1.558  0.5056  2.3138 -0.2959
  884SOL     OW 2650   2.747   3.041   2.039 -0.1215 -0.3138 -0.8421
  884SOL    HW1 2651   2.756   3.088   2.129  1.2879  0.5059 -2.3143
  884SOL    HW2 2652   2.747   0.015   1.965  1.8748 -0.3770  2.5348
  885SOL     OW 2653   1.355   1.365   2.981  0.4918 -0.0649  0.6150
  885SOL    HW1 2654   1.407   1.352   2.891  2.4327 -1.0186 -3.5429
  885SOL    HW2 2655   1.257   1.341   2.967 -1.1497 -0.9199  3.2779
  886SOL     OW 2656   2.107   0.368   2.922  0.1935 -0.6240  0.2191
  886SOL    HW1 2657   2.126   0.323   3.010 -0.9464  1.3719 -2.9036
  886SOL    HW2 2658   2.013   0.363   2.891 -1.0359 -1.6787 -0.6958
  887SOL     OW 2659   1.226   2.889   1.468 -0.0709 -0.0451 -0.2387
  887SOL    HW1 2660   1.315   2.937   1.483 -0.0486 -0.7840  2.7031
  887SOL    HW2 2661   1.194   2.844   1.554  0.4134  1.0273 -0.4440
  888SOL     OW 2662   1.901   1.710   2.133  0.1989 -0.0329  0.5302
  888SOL    HW1 2663   1.856   1.618   2.132  2.5474  0.2309 -2.3598
  888SOL    HW2 2664   1.910   1.743   2.229 -1.3995 -1.7796  0.3238
  889SOL     OW 2665   2.004   2.503   1.309 -0.4541 -0.2208 -0.7766
  889SOL    HW1 2666   2.020   2.470   1.403 -0.8029  1.6747  0.3508
  889SOL    HW2 2667   1.972   2.602   1.324 -3.4539 -0.1636  0.2403
  890SOL     OW 2668   1.268   1.796   0.761 -0.3576  0.7985 -0.2129
  890SOL    HW1 2669   1.306   1.829   0.846  0.4908  1.3412 -1.0760
  890SOL    HW2 2670   1.295   1.698   0.744 -0.4010  1.1345 -0.6442
  891SOL     OW 2671   2.471   1.099   0.266  0.1437  0.2475  0.5467
  891SOL    HW1 2672   2.384   1.130   0.222  1.6851 -2.7568  1.0200
  891SOL    HW2 2673   2.547   1.131   0.206 -3.8118  1.1601  0.7570
  892SOL     OW 2674   2.193   1.207   0.175  0.1383 -0.3325  0.2014
  892SOL    HW1 2675   2.119   1.217   0.249 -0.6002 -1.0990  1.2130
  892SOL    HW2 2676   2.210   1.298   0.136 -1.4066 -1.3926  1.3137
  893SOL     OW 2677   1.962   2.432   1.562 -0.2833  0.0157 -0.2798
  893SOL    HW1 2678   1.989   2.501   1.631  2.5301 -3.0053 -0.8366
  893SOL    HW2 2679   2.019   2.341   1.577  3.4687 -4.9621 -0.9072
  894SOL     OW 2680   2.711   2.785   0.658 -0.2432 -0.3383 -0.1614
  894SOL    HW1 2681   2.639   2.811   0.587 -0.6912  2.9948 -1.9878
  894SOL    HW2 2682   2.790   2.745   0.617 -3.2628  0.2802  2.3789
  895SOL     OW 2683   2.730   2.508   2.756  0.3811 -0.1373  0.5597
  895SOL    HW1 2684   2.686   2.599   2.736 -0.8637  1.5471  0.2102
  895SOL    HW2 2685   2.735   2.457   2.668  0.7635 -0.1933  0.5411
  896SOL     OW 2686   2.157   0.032   2.655 -0.2192  0.3994 -0.2391
  896SOL    HW1 2687   2.214   0.103   2.703  1.5111  0.6710 -1.3530
  896SOL    HW2 2688   2.159   3.036   2.700 -2.3993 -2.1089 -0.1363
  897SOL     OW 2689   0.382   1.778   1.978 -0.6059  0.2861 -0.3587
  897SOL    HW1 2690   0.383   1.683   1.948 -0.9763  2.9919  0.0166
  897SOL    HW2 2691   0.474   1.808   2.009  1.2812 -0.1461 -0.4735
  898SOL     OW 2692   2.570   1.498   1.775  0.7472 -0.4401  0.2146
  898SOL    HW1 2693   2.610   1.593   1.762  1.9791  3.9549 -1.1562
  898SOL    HW2 2694   2.470   1.504   1.787  0.7852  0.3300 -3.5828
  899SOL     OW 2695   1.472   2.697   1.455 -0.1759  0.4061 -0.0441
  899SOL    HW1 2696   1.463   2.623   1.529  1.6963 -3.9186  2.3500
  899SOL    HW2 2697   1.527   2.775   1.491  2.7975  1.1120  0.5802
  900SOL     OW 2698   1.190   1.005   2.818  0.4411 -0.3052 -0.4526
  900SOL    HW1 2699   1.107   1.065   2.819  1.5778 -1.1848  0.5537
  900SOL    HW2 2700   1.158   0.919   2.869  0.9217 -2.9333  0.5942
  901SOL     OW 2701   0.968   1.202   2.309 -0.1536  0.0318 -0.5725
  901SOL    HW1 2702   0.934   1.113   2.274 -2.5657 -1.3758  0.5016
  901SOL    HW2 2703   1.029   1.237   2.234 -1.1184 -1.0861 -0.3835
  902SOL     OW 2704   2.798   2.161   0.529  0.0504  0.4042 -0.3037
  902SOL    HW1 2705   2.696   2.176   0.510 -1.3476 -1.1415 -0.6502
  902SOL    HW2 2706   2.850   2.137   0.443  0.2649 -2.6490 -1.6845
  903SOL     OW 2707   2.469   1.177   1.848 -0.2384 -0.3867  0.2494
  903SOL    HW1 2708   2.556   1.229   1.826 -1.8608  1.1276 -0.5551
  903SOL    HW2 2709   2.480   1.113   1.928 -0.7742 -0.2094 -0.2962
  904SOL     OW 2710   1.764   0.761   0.167  0.0529  0.5998  0.0824
  904SOL    HW1 2711   1.849   0.742   0.111  1.3054 -1.6293 -0.5785
  904SOL    HW2 2712   1.784   0.776   0.264 -0.2311 -1.4582 -1.1429
  905SOL     OW 2713   2.277   2.521   1.189 -0.1699 -0.1734 -0.0035
  905SOL    HW1 2714   2.306   2.562   1.279  2.2359 -0.7710 -1.1290
  905SOL    HW2 2715   2.202   2.459   1.204  0.2395  3.0196 -0.3222
  906SOL     OW 2716   1.496   2.139   2.864  0.1549  0.5024 -0.2200
  906SOL    HW1 2717   1.461   2.129   2.768 -1.7656  0.2667 -0.3717
  906SOL    HW2 2718   1.554   2.058   2.890  0.6710  0.0984 -3.7189
  907SOL     OW 2719   0.717   2.348   0.775  0.3329 -0.0275  0.8567
  907SOL    HW1 2720   0.771   2.294   0.843 -1.8288 -3.5396 -1.0222
  907SOL    HW2 2721   0.759   2.326   0.682 -0.5117  0.8785 -1.5290
  908SOL     OW 2722   1.040   2.881   2.164 -0.4440 -0.2635 -0.6160
  908SOL    HW1 2723   1.043   2.800   2.224  0.1964  0.8780  2.0451
  908SOL    HW2 2724   1.091   2.861   2.080 -0.0168 -0.6761 -0.6417
  909SOL     OW 2725   1.962   0.409   1.623  0.1254 -0.8207  0.1457
  909SOL    HW1 2726   1.906   0.340   1.570  2.4920  1.6499 -1.4994
  909SOL    HW2 2727   1.907   0.453   1.697 -2.5560 -0.8580  3.7280
  910SOL     OW 2728   1.171   0.623   2.692  0.0375  0.1082  0.1234
  910SOL    HW1 2729   1.241   0.599   2.759 -2.1194  1.7738  0.9027
  910SOL    HW2 2730   1.199   0.683   2.614 -0.3095 -0.4582  1.3240
  911SOL     OW 2731   3.073   0.598   0.211  0.3407 -0.0714 -0.3110
  911SOL    HW1 2732   3.019   0.651   0.279 -1.6518 -2.0064  1.0199
  911SOL    HW2 2733   0.070   0.592   0.244 -3.5893 -0.9082  1.6457
  912SOL     OW 2734   2.960   2.614   2.864 -0.3209 -0.3487 -0.5741
  912SOL    HW1 2735   2.882   2.591   2.798 -3.8813 -1.7544 -1.2715
  912SOL    HW2 2736   3.018   2.686   2.827 -0.2043 -1.3824  1.2980
  913SOL     OW 2737   2.780   2.119   2.823  0.4928  0.3353 -1.0936
  913SOL    HW1 2738   2.702   2.091   2.762  0.2685 -1.8853  1.3688
  913SOL    HW2 2739   2.863   2.125   2.763  0.4646 -1.4813 -1.4073
  914SOL     OW 2740   1.505   1.765   1.668 -0.0766  0.5957  1.0364
  914SOL    HW1 2741   1.448   1.794   1.739  2.0230  2.7557 -2.2303
  914SOL    HW2 2742   1.475   1.800   1.580  0.9809  1.5431  0.1596
  915SOL     OW 2743   0.211   2.674   1.970 -0.1572  0.1337 -0.1956
  915SOL    HW1 2744   0.176   2.649   2.063 -0.7841 -0.2155  2.1590
  915SOL    HW2 2745   0.315   2.674   1.977  0.3884  0.2804  1.4183
  916SOL     OW 2746   0.444   1.333   1.452  0.0909 -0.1087  0.3526
  916SOL    HW1 2747   0.361   1.392   1.450 -3.3796  0.4382 -1.7622
  916SOL    HW2 2748   0.412   1.233   1.461  0.5051 -1.6676  0.0416
  917SOL     OW 2749   2.449   0.145   3.049  0.2530 -0.0494 -0.5822
  917SOL    HW1 2750   2.460   0.137   0.057  0.3685  0.8807 -0.6885
  917SOL    HW2 2751   2.501   0.226   3.011 -0.2915  2.1044 -1.5876
  918SOL     OW 2752   1.482   2.325   2.299  0.1295 -0.3640  0.2514
  918SOL    HW1 2753   1.548   2.258   2.339  0.5258  0.1323 -0.5388
  918SOL    HW2 2754   1.386   2.298   2.320  2.3170  0.3183  1.8820
  919SOL     OW 2755   1.705   2.468   1.823 -0.1015 -0.6714  0.5575
  919SOL    HW1 2756   1.672   2.471   1.727 -1.4186 -1.3158 -0.3746
  919SOL    HW2 2757   1.794   2.423   1.837 -1.5275 -0.5319 -1.0284
  920SOL     OW 2758   0.792   1.032   2.998 -0.0097 -0.0720  0.1748
  920SOL    HW1 2759   0.692   1.052   3.003 -0.8281 -2.4590 -1.2516
  920SOL    HW2 2760   0.836   1.017   3.089  0.0877 -0.3216 -2.4828
  921SOL     OW 2761   2.905   0.805   2.428  0.3904 -0.4383 -0.8817
  921SOL    HW1 2762   2.800   0.827   2.441 -5.4871  3.4196  0.7634
  921SOL    HW2 2763   2.933   0.765   2.335  2.9510 -0.5021  0.3553
  922SOL     OW 2764   0.678   1.900   0.332  0.1688  0.4650 -0.7869
  922SOL    HW1 2765   0.761   1.937   0.374  0.4069 -0.5886 -1.4707
  922SOL    HW2 2766   0.596   1.960   0.345 -1.0069 -1.8414 -0.3569
  923SOL     OW 2767   0.438   1.012   1.701 -0.1546 -0.5457 -0.2163
  923SOL    HW1 2768   0.524   0.960   1.693  1.9190  0.1410 -0.2794
  923SOL    HW2 2769   0.405   1.039   1.608  3.2037  0.1659  0.9604
  924SOL     OW 2770   1.335   3.006   2.808 -0.2397 -0.3688 -0.3366
  924SOL    HW1 2771   1.262   2.986   2.735 -1.3785  1.8048 -1.1680
  924SOL    HW2 2772   1.306   3.091   2.854 -1.9780 -1.7996 -1.5974
  925SOL     OW 2773   2.444   1.382   1.458 -0.1316 -0.6907 -0.2921
  925SOL    HW1 2774   2.391   1.392   1.374  0.6085  0.3356  1.3695
  925SOL    HW2 2775   2.417   1.450   1.526 -1.9157 -0.4743 -0.6822
  926SOL     OW 2776   2.115   0.322   1.839 -0.2102  0.3134 -0.4896
  926SOL    HW1 2777   2.155   0.410   1.866 -4.4011 -1.8402 -0.2060
  926SOL    HW2 2778   2.072   0.337   1.748  4.1473  1.1192  0.6417
  927SOL     OW 2779   2.539   2.378   1.564  0.2294  0.1216 -0.2834
  927SOL    HW1 2780   2.572   2.464   1.517  1.7952  1.2041  0.1626
  927SOL    HW2 2781   2.466   2.333   1.509 -2.4267 -0.3793  1.5625
  928SOL     OW 2782   0.113   0.800   2.355 -0.3886  0.0321  0.1548
  928SOL    HW1 2783   0.023   0.814   2.400  0.5524 -0.9816 -1.1671
  928SOL    HW2 2784   0.171   0.881   2.379  1.3990 -0.5219  2.3665
  929SOL     OW 2785   2.527   0.065   0.838 -0.1281 -0.0454 -0.7665
  929SOL    HW1 2786   2.614   0.013   0.833 -4.0272 -1.1172 -1.9246
  929SOL    HW2 2787   2.455   0.005   0.882 -1.7181 -1.2879  0.2964
  930SOL     OW 2788   2.841   3.056   1.584  0.3040 -0.3888 -0.0245
  930SOL    HW1 2789   2.896   2.974   1.582 -2.0189  2.8019 -0.8789
  930SOL    HW2 2790   2.882   0.032   1.528 -0.3008  1.5337 -0.3127
  931SOL     OW 2791   2.084   0.827   0.377 -0.1096  0.5195  0.2228
  931SOL    HW1 2792   1.998   0.881   0.385 -0.5632 -0.2539  0.5921
  931SOL    HW2 2793   2.154   0.864   0.311 -1.3043  0.4965  0.5033
  932SOL     OW 2794   2.111   1.355   1.615  0.4124 -0.2784 -0.0200
  932SOL    HW1 2795   2.072   1.263   1.598  1.9486 -0.1830  2.4681
  932SOL    HW2 2796   2.134   1.411   1.524 -1.0139  1.5741  1.6886
  933SOL     OW 2797   2.874   2.263   1.324 -0.3587 -0.0137 -0.0023
  933SOL    HW1 2798   2.902   2.361   1.315 -2.7957 -0.8037  0.8307
  933SOL    HW2 2799   2.935   2.221   1.395  0.7172  1.0258  0.4803
  934SOL     OW 2800   0.543   1.985   1.469  0.2795  0.2168 -0.0744
  934SOL    HW1 2801   0.644   1.973   1.466 -0.3220  1.1086 -0.3590
  934SOL    HW2 2802   0.505   2.013   1.559  2.0967  2.7207  0.0560
  935SOL     OW 2803   2.812   1.362   2.176 -0.0173 -0.3311  0.1668
  935SOL    HW1 2804   2.729   1.406   2.137  1.2469  0.3370  1.9743
  935SOL    HW2 2805   2.849   1.432   2.243  1.2045  0.6090 -0.1479
  936SOL     OW 2806   2.576   1.449   2.063  0.2327  0.1271 -0.2469
  936SOL    HW1 2807   2.476   1.468   2.048  1.8835 -0.9236  1.4951
  936SOL    HW2 2808   2.623   1.442   1.971  0.1230  3.1494  0.4312
  937SOL     OW 2809   2.100   1.298   2.257 -0.7308 -0.1343  0.6075
  937SOL    HW1 2810   2.123   1.361   2.334  1.2571 -0.9580  1.1882
  937SOL    HW2 2811   2.106   1.347   2.166  1.3208  1.1549 -1.6018
  938SOL     OW 2812   0.917   2.222   2.596  0.5310  0.3413  0.1891
  938SOL    HW1 2813   0.821   2.237   2.634 -5.2732 -1.6981  0.0344
  938SOL    HW2 2814   0.988   2.272   2.653  0.9945  0.5747 -0.5555
  939SOL     OW 2815   2.208   1.039   3.047 -0.5343  0.0843  0.1437
  939SOL    HW1 2816   2.242   0.950   3.083  1.6376 -1.2594  1.4199
  939SOL    HW2 2817   2.191   1.105   0.027 -0.5446 -2.9074 -0.6549
  940SOL     OW 2818   1.137   1.954   0.578 -0.6912  0.1530  0.1305
  940SOL    HW1 2819   1.200   2.031   0.546 -3.6706  0.5680 -0.0785
  940SOL    HW2 2820   1.184   1.904   0.652 -1.9330  1.7411 -1.2303
  941SOL     OW 2821   1.047   2.652   2.360  0.2544 -0.1968  0.3517
  941SOL    HW1 2822   1.106   2.627   2.432 -3.3802  3.5608 -5.1310
  941SOL    HW2 2823   1.008   2.573   2.306 -0.2901 -0.9967 -3.6798
  942SOL     OW 2824   0.576   2.297   0.345  0.2177 -0.4637 -0.1022
  942SOL    HW1 2825   0.617   2.331   0.261  1.1868  1.6204  2.8698
  942SOL    HW2 2826   0.644   2.260   0.411  0.8769  2.4781 -1.2285
  943SOL     OW 2827   1.785   2.737   1.754 -0.0426 -0.0505  0.0128
  943SOL    HW1 2828   1.732   2.687   1.828 -3.2910  0.4607  0.2247
  943SOL    HW2 2829   1.882   2.715   1.756 -0.0658  1.4415 -1.5947
  944SOL     OW 2830   1.051   1.611   2.972  0.3444 -0.4466  0.1587
  944SOL    HW1 2831   1.114   1.596   2.889  1.1940 -1.5170 -0.6018
  944SOL    HW2 2832   0.978   1.681   2.951 -1.0186 -1.7633  2.0050
  945SOL     OW 2833   2.931   2.623   0.652 -0.1438 -0.1712 -0.0734
  945SOL    HW1 2834   2.864   2.551   0.685 -2.3278 -1.3792 -1.2095
  945SOL    HW2 2835   3.023   2.583   0.624  0.7234 -2.6681 -0.5487
  946SOL     OW 2836   0.862   1.653   2.653 -0.4281  0.0806 -0.4129
  946SOL    HW1 2837   0.912   1.643   2.742 -0.9315  1.2636  3.1041
  946SOL    HW2 2838   0.862   1.559   2.615  0.7838 -0.7394  1.2185
  947SOL     OW 2839   2.740   0.089   1.811 -0.1337 -0.1336 -0.5245
  947SOL    HW1 2840   2.784   0.041   1.728  2.6171 -3.1164 -1.4113
  947SOL    HW2 2841   2.650   0.131   1.791 -1.5536 -0.2734 -0.4771
  948SOL     OW 2842   0.094   1.851   1.334  0.6310 -0.4663 -0.5542
  948SOL    HW1 2843   0.070   1.932   1.275 -1.6601 -1.2491  2.4932
  948SOL    HW2 2844   0.196   1.839   1.341  0.2111 -0.8799  0.2718
  949SOL     OW 2845   0.962   0.905   1.847  0.0840 -0.0583 -0.0264
  949SOL    HW1 2846   0.973   0.907   1.743  0.3829 -0.9620 -2.3068
  949SOL    HW2 2847   0.903   0.983   1.878  0.1745 -3.4377  0.4230
  950SOL     OW 2848   3.072   1.092   1.216  0.3825 -0.1403  0.1014
  950SOL    HW1 2849   0.056   1.041   1.174  2.5012 -1.2795  1.7948
  950SOL    HW2 2850   2.978   1.056   1.192 -1.4817 -0.6596 -1.0971
  951SOL     OW 2851   0.474   1.738   2.401 -0.3385 -0.0881 -0.1713
  951SOL    HW1 2852   0.535   1.776   2.475 -1.3176  3.1069  0.4572
  951SOL    HW2 2853   0.515   1.748   2.307  0.0994  0.7127 -4.5151
  952SOL     OW 2854   1.510   2.269   0.645  0.4020  0.3447 -0.0873
  952SOL    HW1 2855   1.466   2.225   0.560 -1.5490  1.7653 -0.6328
  952SOL    HW2 2856   1.468   2.231   0.729 -0.2329 -0.9422 -2.3171
  953SOL     OW 2857   0.931   0.652   0.297 -0.0361 -0.0007 -0.2507
  953SOL    HW1 2858   0.971   0.557   0.313  2.5148 -2.5314 -0.0938
  953SOL    HW2 2859   0.886   0.660   0.204 -0.4738  0.8627 -1.3882
  954SOL     OW 2860   2.080   0.888   1.064  0.0991  0.6869  0.2623
  954SOL    HW1 2861   2.171   0.902   1.016  0.0506  1.8368 -1.0526
  954SOL    HW2 2862   2.018   0.969   1.048  4.1549  0.5145  0.4581
  955SOL     OW 2863   2.309   1.383   0.478 -0.3493  0.1567 -0.3469
  955SOL    HW1 2864   2.226   1.438   0.493 -1.4403  0.7020  3.7118
  955SOL    HW2 2865   2.385   1.435   0.430  1.3492 -1.4441 -0.5422
  956SOL     OW 2866   0.918   0.467   1.865 -0.3570 -0.1298  0.1348
  956SOL    HW1 2867   0.976   0.468   1.951 -0.9822 -1.5695  1.7197
  956SOL    HW2 2868   0.980   0.448   1.784  0.5660 -0.3256  0.9811
  957SOL     OW 2869   1.952   0.346   1.155  0.6335 -0.6384  0.1571
  957SOL    HW1 2870   1.878   0.416   1.175 -1.8390  1.1990  0.4630
  957SOL    HW2 2871   2.009   0.327   1.237 -1.5579  2.0970  1.9265
  958SOL     OW 2872   0.055   2.191   0.728 -0.2407 -0.8806  0.5194
  958SOL    HW1 2873   0.097   2.248   0.651  1.3207  1.7208  2.9977
  958SOL    HW2 2874   0.126   2.128   0.757 -2.3750  1.4414  1.1310
  959SOL     OW 2875   2.043   1.365   1.956  0.2829  0.5840  0.0734
  959SOL    HW1 2876   2.132   1.370   1.906  0.0106  1.7889 -2.7609
  959SOL    HW2 2877   2.005   1.274   1.933  2.9790 -1.0328  0.2676
  960SOL     OW 2878   3.055   1.927   0.026 -0.0559 -0.1626 -0.5967
  960SOL    HW1 2879   0.002   1.897   0.113  1.3371 -0.7631 -0.7607
  960SOL    HW2 2880   2.969   1.871   0.011 -1.0439 -1.3697 -2.7438
  961SOL     OW 2881   0.599   1.725   1.127 -0.4483  0.2403  0.1668
  961SOL    HW1 2882   0.646   1.635   1.133 -2.5224 -0.3343 -2.5469
  961SOL    HW2 2883   0.656   1.801   1.169  0.0110  2.1627  0.5284
  962SOL     OW 2884   0.920   1.514   0.794 -0.4656  0.1544  0.4304
  962SOL    HW1 2885   0.841   1.480   0.744  0.4373  1.1713  0.4554
  962SOL    HW2 2886   0.948   1.442   0.860  0.9445  1.7872 -0.8130
  963SOL     OW 2887   0.947   2.027   2.399 -0.5343 -0.0204 -0.4272
  963SOL    HW1 2888   0.997   1.955   2.453  0.9662  1.6390  0.2952
  963SOL    HW2 2889   0.935   2.108   2.464  2.1783  2.6742  1.7709
  964SOL     OW 2890   0.172   2.973   1.980 -0.0870  0.5696 -0.1856
  964SOL    HW1 2891   0.134   2.989   1.887  1.8360 -3.7856 -1.3562
  964SOL    HW2 2892   0.204   2.877   1.985 -1.8517 -2.6276  1.3577
  965SOL     OW 2893   0.647   2.207   3.036 -0.1906  0.0007  0.3383
  965SOL    HW1 2894   0.647   2.277   0.014 -1.0578  0.8368  0.0786
  965SOL    HW2 2895   0.661   2.111   3.073 -0.5470  1.6412 -0.4103
  966SOL     OW 2896   3.029   1.637   0.184  0.3096  0.4701  0.1568
  966SOL    HW1 2897   2.973   1.579   0.250 -1.8497 -1.2030  0.5094
  966SOL    HW2 2898   2.995   1.635   0.087 -0.1164  1.1237 -2.1386
  967SOL     OW 2899   2.249   2.435   0.017 -0.1433  0.1698 -0.3480
  967SOL    HW1 2900   2.298   2.347   0.025 -0.5766  2.4312 -2.2189
  967SOL    HW2 2901   2.225   2.472   0.107  1.2012 -0.0547 -1.9692
  968SOL     OW 2902   2.385   2.960   0.968 -0.1484  0.7094 -0.4382
  968SOL    HW1 2903   2.376   3.024   1.046 -2.6982  1.0355  1.7857
  968SOL    HW2 2904   2.427   2.873   1.001 -0.9376 -0.8692  1.5292
  969SOL     OW 2905   0.275   1.013   1.917 -0.6042  0.3019  0.2512
  969SOL    HW1 2906   0.308   0.939   1.987  0.0713 -0.6699  2.4518
  969SOL    HW2 2907   0.342   1.028   1.841 -2.3239 -0.1228 -0.5458
  970SOL     OW 2908   1.771   1.258   0.612 -0.6622  0.2521  0.2155
  970SOL    HW1 2909   1.845   1.209   0.667 -0.4253 -0.8160  0.7214
  970SOL    HW2 2910   1.712   1.190   0.567  1.3604  0.5497 -0.9165
  971SOL     OW 2911   2.827   2.623   1.505  0.8792  0.2516  0.3386
  971SOL    HW1 2912   2.769   2.673   1.567  1.0827 -1.1663 -2.7671
  971SOL    HW2 2913   2.772   2.616   1.421 -1.0611  1.3940  0.7986
  972SOL     OW 2914   2.876   0.183   1.362  0.3903  0.5340 -0.4924
  972SOL    HW1 2915   2.827   0.125   1.288  0.1717  0.5876 -2.3219
  972SOL    HW2 2916   2.813   0.251   1.401 -1.8457 -0.8206 -0.6520
  973SOL     OW 2917   0.234   0.478   2.681  0.2045  0.1929  0.3211
  973SOL    HW1 2918   0.229   0.522   2.587 -0.1830  0.4322 -0.7358
  973SOL    HW2 2919   0.139   0.466   2.708 -0.9637 -0.8588 -0.5084
  974SOL     OW 2920   2.473   1.009   2.089  0.0357 -0.3224  0.0959
  974SOL    HW1 2921   2.376   0.972   2.091 -2.9508  0.0799  1.7342
  974SOL    HW2 2922   2.478   1.084   2.161  0.1250 -0.8248  2.3190
  975SOL     OW 2923   1.117   0.370   1.699  0.0849  0.0187 -0.5522
  975SOL    HW1 2924   1.078   0.301   1.639 -2.0643 -1.3059 -0.6719
  975SOL    HW2 2925   1.203   0.337   1.738 -0.5229  1.3977  2.1316
  976SOL     OW 2926   1.028   1.652   1.528  0.4642 -0.1572 -0.4201
  976SOL    HW1 2927   1.100   1.645   1.457 -1.3656 -1.0310 -2.1459
  976SOL    HW2 2928   0.937   1.620   1.496 -2.0560 -0.5521  0.2310
  977SOL     OW 2929   1.048   2.956   0.029  0.7065 -0.7006  0.1461
  977SOL    HW1 2930   1.039   2.977   3.023  0.0917 -2.4366 -1.1002
  977SOL    HW2 2931   1.062   3.039   0.074 -0.9275 -3.9257 -2.0490
  978SOL     OW 2932   2.410   1.227   2.258  0.3123  0.1834 -0.6800
  978SOL    HW1 2933   2.430   1.312   2.210 -1.4663 -1.7554 -1.3360
  978SOL    HW2 2934   2.309   1.209   2.252  0.0260  1.9127 -2.3305
  979SOL     OW 2935   1.615   0.387   1.632  0.0734  0.2752 -0.6336
  979SOL    HW1 2936   1.674   0.418   1.707  0.9204 -1.0573 -1.1601
  979SOL    HW2 2937   1.610   0.457   1.556  0.9937  0.4041 -1.5530
  980SOL     OW 2938   1.554   1.559   1.853  0.2807 -0.0086 -0.1723
  980SOL    HW1 2939   1.578   1.611   1.767 -1.9740  2.8298 -0.1205
  980SOL    HW2 2940   1.467   1.594   1.895 -0.6686 -0.1425 -0.8059
  981SOL     OW 2941   2.261   1.102   1.344  0.6819  0.0015  0.3971
  981SOL    HW1 2942   2.199   1.022   1.323  0.3754 -1.9074 -0.2591
  981SOL    HW2 2943   2.299   1.091   1.435  0.0488  1.2875 -1.5104
  982SOL     OW 2944   0.640   0.391   2.978 -0.1759  0.3033  0.3291
  982SOL    HW1 2945   0.545   0.365   2.951 -0.4949 -1.4685  1.3774
  982SOL    HW2 2946   0.679   0.308   3.030  1.6076 -1.5908 -0.0594
  983SOL     OW 2947   2.187   0.614   2.896  0.4707  0.6230 -0.1472
  983SOL    HW1 2948   2.152   0.524   2.921 -0.9217  1.5438  3.1179
  983SOL    HW2 2949   2.111   0.680   2.913 -0.8870 -0.2492  0.3120
  984SOL     OW 2950   1.010   0.217   2.084  0.1874  0.3567  0.3555
  984SOL    HW1 2951   1.016   0.195   2.185 -1.1578  0.4868 -0.4229
  984SOL    HW2 2952   1.096   0.204   2.034  1.7683  3.9355  0.2840
  985SOL     OW 2953   1.428   1.900   1.977  0.9392 -0.3203 -0.4023
  985SOL    HW1 2954   1.528   1.878   1.978  2.6486  0.2052  0.0032
  985SOL    HW2 2955   1.372   1.814   1.962 -0.8539 -1.3769  1.0596
  986SOL     OW 2956   2.454   2.920   1.746 -0.1129 -0.0581 -0.4019
  986SOL    HW1 2957   2.493   2.974   1.665  2.5803 -2.2598  0.9647
  986SOL    HW2 2958   2.449   2.967   1.839 -2.3625 -0.9885  1.3838
  987SOL     OW 2959   2.270   1.352   1.253  0.0929 -0.4313  0.2332
  987SOL    HW1 2960   2.254   1.379   1.156 -0.4278  0.5746  0.0777
  987SOL    HW2 2961   2.284   1.253   1.270  1.5796 -1.0380 -0.3154
  988SOL     OW 2962   2.528   1.898   2.013  0.2903  0.3373 -0.1331
  988SOL    HW1 2963   2.624   1.938   2.028 -0.6887 -0.9452 -1.1121
  988SOL    HW2 2964   2.477   1.960   1.952  0.6179 -0.8485 -0.4687
  989SOL     OW 2965   1.310   2.719   0.060 -0.2177  0.6486  0.2551
  989SOL    HW1 2966   1.220   2.746   0.099 -1.5379  2.8183  1.0671
  989SOL    HW2 2967   1.335   2.621   0.080 -0.2983  0.3825  0.5277
  990SOL     OW 2968   1.920   1.013   3.050  0.0841  0.0422  0.7311
  990SOL    HW1 2969   1.982   1.028   2.968 -1.1436  1.2224 -0.1379
  990SOL    HW2 2970   1.822   1.004   3.014  1.3850 -0.6745 -2.8046
  991SOL     OW 2971   0.949   0.414   0.637 -0.0222  0.5090 -0.1322
  991SOL    HW1 2972   0.945   0.512   0.614  1.7696 -1.3409  0.3422
  991SOL    HW2 2973   0.955   0.399   0.738 -0.9700  1.4864  0.4883
  992SOL     OW 2974   2.496   0.961   1.232 -0.5700  0.3932 -0.0151
  992SOL    HW1 2975   2.575   0.948   1.298 -2.9293  0.8034  1.5098
  992SOL    HW2 2976   2.433   1.032   1.279  1.1727  0.0710  1.0853
  993SOL     OW 2977   2.474   0.792   1.556  0.1348  0.2986 -0.4356
  993SOL    HW1 2978   2.419   0.709   1.538 -0.1452 -1.1147  0.2198
  993SOL    HW2 2979   2.412   0.873   1.571  0.1107 -0.9731 -1.3915
  994SOL     OW 2980   0.418   1.716   2.756  0.1822  0.2591 -0.1218
  994SOL    HW1 2981   0.346   1.778   2.718  4.1111 -1.6116 -0.8051
  994SOL    HW2 2982   0.377   1.663   2.835  0.3974  0.3164  1.3364
  995SOL     OW 2983   1.941   1.284   2.805  0.4989 -0.6364 -0.3928
  995SOL    HW1 2984   2.034   1.244   2.816  1.8013  1.8731 -0.0739
  995SOL    HW2 2985   1.883   1.224   2.744 -1.7122  0.1391 -1.6858
  996SOL     OW 2986   2.238   1.724   0.335  0.3529  0.6903  0.5294
  996SOL    HW1 2987   2.183   1.649   0.379 -3.1321 -0.0201  0.1436
  996SOL    HW2 2988   2.277   1.788   0.401 -1.8887  1.4363  0.9999
  997SOL     OW 2989   2.130   0.505   2.215 -0.2448  0.0111  0.2510
  997SOL    HW1 2990   2.080   0.530   2.127 -1.6526 -0.7023 -0.6874
  997SOL    HW2 2991   2.097   0.413   2.246  1.1435 -0.1203  0.3469
  998SOL     OW 2992   2.630   1.267   0.488  0.0051  0.1293  0.5161
  998SOL    HW1 2993   2.565   1.189   0.488  2.4208 -0.9120 -0.1739
  998SOL    HW2 2994   2.588   1.350   0.437  3.1684  0.3825 -1.1491
  999SOL     OW 2995   2.989   1.997   0.677 -0.7256 -0.3700 -0.2658
  999SOL    HW1 2996   2.905   2.035   0.628 -0.8246  1.5110 -0.3059
  999SOL    HW2 2997   3.046   2.080   0.690 -0.9238 -0.3680  1.5321
 1000SOL     OW 2998   0.884   0.752   2.357  0.0990 -0.0936 -0.1917
 1000SOL    HW1 2999   0.914   0.793   2.445 -2.4881 -0.1145 -0.3759
 1000SOL    HW2 3000   0.859   0.654   2.371  1.9219 -1.1397  1.8789
   3.09525   3.09525   3.09525
