1000 SPC/Fw water molecules t= 397.00000 step= 397000
 3000
    1SOL     OW    1   3.037   2.953   1.854  0.4317 -0.4715 -0.2225
    1SOL    HW1    2   2.985   2.925   1.770 -2.1755  0.0164 -0.4004
    1SOL    HW2    3   0.029   2.902   1.859  3.9502 -1.6293 -0.7172
    2SOL     OW    4   2.451   2.483   0.350 -0.7681 -0.3520  0.3765
    2SOL    HW1    5   2.530   2.481   0.282 -0.0217  2.9193  3.0518
    2SOL    HW2    6   2.402   2.570   0.337  1.2507 -2.4940  0.6746
    3SOL     OW    7   1.410   2.838   0.224  0.0177  0.0911 -0.0432
    3SOL    HW1    8   1.425   2.905   0.304 -0.6971  0.1375  1.5365
    3SOL    HW2    9   1.314   2.838   0.197  0.8923  1.3629  1.4422
    4SOL     OW   10   1.132   3.037   2.428  0.2167 -0.2899  0.0015
    4SOL    HW1   11   1.190   2.953   2.436 -1.9072 -2.5342  0.1374
    4SOL    HW2   12   1.047   3.013   2.379  0.3126  2.0234 -0.3481
    5SOL     OW   13   2.196   2.919   1.538 -0.4204 -0.1675 -0.2173
    5SOL    HW1   14   2.159   2.852   1.611 -0.5525 -1.5489  0.0682
    5SOL    HW2   15   2.299   2.905   1.533  0.7217 -1.7758 -0.2173
    6SOL     OW   16   2.213   2.094   0.513  0.8163  0.5582 -0.0612
    6SOL    HW1   17   2.168   2.038   0.438 -2.8740 -1.6694  0.4462
    6SOL    HW2   18   2.151   2.173   0.532  0.0192  0.3763  0.5105
    7SOL     OW   19   2.336   1.271   0.808  0.7174  0.3381 -0.1256
    7SOL    HW1   20   2.430   1.307   0.798 -0.9567 -2.7628 -1.2598
    7SOL    HW2   21   2.291   1.295   0.722  0.7748 -1.8559  1.5998
    8SOL     OW   22   0.476   1.357   0.994 -0.2375 -0.5096 -0.2327
    8SOL    HW1   23   0.542   1.373   1.071  0.3670  1.3583 -0.1451
    8SOL    HW2   24   0.521   1.350   0.903  2.0935  2.6811  2.8415
    9SOL     OW   25   0.328   2.761   1.797 -0.1494 -0.5197  0.0839
    9SOL    HW1   26   0.300   2.811   1.709 -1.7986  0.8793 -0.8251
    9SOL    HW2   27   0.312   2.662   1.790 -1.4881 -1.1480 -0.0221
   10SOL     OW   28   1.064   2.313   0.568 -0.6575  0.1292  0.0819
   10SOL    HW1   29   1.045   2.315   0.666 -2.3156  0.4657 -0.0981
   10SOL    HW2   30   1.154   2.276   0.546 -1.9447 -0.0042  2.3683
   11SOL     OW   31   1.692   2.088   0.964  0.0517 -0.0589  0.2931
   11SOL    HW1   32   1.791   2.097   0.943  2.0414 -1.7426  1.7417
   11SOL    HW2   33   1.664   2.158   1.029  0.3812 -1.8465 -1.2445
   12SOL     OW   34   2.609   0.599   2.128 -0.4835 -0.7400  0.3630
   12SOL    HW1   35   2.682   0.646   2.182  1.0652  0.3115  2.2881
   12SOL    HW2   36   2.566   0.535   2.193  0.2459 -0.0294 -0.3729
   13SOL     OW   37   2.570   2.749   0.318  0.1472  0.0436  0.0773
   13SOL    HW1   38   2.671   2.731   0.322  0.9969  2.4528  2.3194
   13SOL    HW2   39   2.545   2.823   0.250 -2.0645  0.8381  0.7984
   14SOL     OW   40   1.880   1.358   0.009 -0.1602 -0.3839 -0.7794
   14SOL    HW1   41   1.810   1.320   3.043  0.0160  0.8427  0.4028
   14SOL    HW2   42   1.854   1.336   0.106  0.6831  2.9874  1.4716
   15SOL     OW   43   2.782   2.435   1.947 -0.5758 -0.8019 -0.2872
   15SOL    HW1   44   2.688   2.430   1.990 -1.4270 -0.3147 -0.2563
   15SOL    HW2   45   2.852   2.408   2.014 -1.2931  1.6248  0.3595
   16SOL     OW   46   2.841   2.950   0.769 -0.4944  0.3947 -0.0673
   16SOL    HW1   47   2.855   2.972   0.870 -0.4750  0.0806  1.5170
   16SOL    HW2   48   2.743   2.944   0.741 -1.0932 -0.2100 -2.6025
   17SOL     OW   49   1.136   0.240   1.083 -0.0553  0.4581 -0.2196
   17SOL    HW1   50   1.032   0.249   1.081  0.9017 -1.1133  0.8665
   17SOL    HW2   51   1.168   0.234   1.179 -0.7519  0.0621 -2.1994
   18SOL     OW   52   1.434   0.026   1.213  0.0542  0.0756 -0.1206
   18SOL    HW1   53   1.513   3.072   1.242 -0.9926 -0.0525 -4.0453
   18SOL    HW2   54   1.440   0.128   1.222  0.3499 -0.0891  0.2988
   19SOL     OW   55   2.374   1.337   0.304  0.6418  0.0346 -0.3680
   19SOL    HW1   56   2.279   1.358   0.268 -2.4082 -0.8410  0.1432
   19SOL    HW2   57   2.436   1.416   0.287  1.0311 -0.5938 -1.6621
   20SOL     OW   58   2.381   1.613   2.292 -0.0909  0.3158  0.1134
   20SOL    HW1   59   2.381   1.560   2.381  1.2672 -1.5301 -1.3560
   20SOL    HW2   60   2.302   1.669   2.269 -1.3461  1.5100 -1.1096
   21SOL     OW   61   1.391   2.978   0.525 -0.2362  0.2697  0.3364
   21SOL    HW1   62   1.344   3.052   0.478  1.1163 -0.3962  2.2108
   21SOL    HW2   63   1.325   2.918   0.571 -0.6606 -1.0717  0.0046
   22SOL     OW   64   2.898   1.000   0.948 -0.4197  0.3662  0.6591
   22SOL    HW1   65   2.874   0.953   1.035 -1.6829  0.1369 -0.8775
   22SOL    HW2   66   2.809   1.023   0.900 -1.4883  1.0378 -1.8997
   23SOL     OW   67   0.514   0.018   1.933  0.6503 -0.4639 -0.0245
   23SOL    HW1   68   0.520   0.117   1.922 -1.2032 -1.1742 -0.2892
   23SOL    HW2   69   0.425   3.085   1.891 -0.8102 -0.1207 -0.1122
   24SOL     OW   70   2.303   2.621   0.681 -0.6097 -0.0251  0.7427
   24SOL    HW1   71   2.309   2.693   0.610  3.5012 -2.1446  1.5249
   24SOL    HW2   72   2.210   2.592   0.699 -0.2447 -0.0828  0.6016
   25SOL     OW   73   1.926   3.049   2.743  0.1630 -0.1537  0.0910
   25SOL    HW1   74   1.997   3.025   2.810 -0.5531  1.3040 -2.0989
   25SOL    HW2   75   1.925   0.048   2.721  0.1411 -0.9367  2.6753
   26SOL     OW   76   1.478   2.465   3.086 -0.7596 -0.5956 -0.0015
   26SOL    HW1   77   1.483   2.568   3.094  1.1393 -1.0283 -0.3557
   26SOL    HW2   78   1.381   2.437   3.065  0.4153  2.5010  0.5482
   27SOL     OW   79   1.482   0.552   0.972  0.6549 -0.4570 -0.2263
   27SOL    HW1   80   1.409   0.525   1.038  0.3982 -2.6552 -0.9299
   27SOL    HW2   81   1.522   0.466   0.937 -3.5852 -2.6854  0.6545
   28SOL     OW   82   0.863   1.340   0.557  0.0715  0.6373  0.3230
   28SOL    HW1   83   0.830   1.249   0.516  2.3141 -1.0291 -0.1172
   28SOL    HW2   84   0.920   1.321   0.640  0.2403  1.2982  3.0829
   29SOL     OW   85   2.645   0.451   1.587 -0.1826 -0.3669  0.2932
   29SOL    HW1   86   2.605   0.354   1.605 -1.1626  1.7339 -0.0118
   29SOL    HW2   87   2.581   0.519   1.624  1.2729  0.9417 -0.3554
   30SOL     OW   88   1.273   2.648   1.479  0.2843  0.0823  1.1644
   30SOL    HW1   89   1.253   2.734   1.531  0.2691 -1.1511  0.1338
   30SOL    HW2   90   1.212   2.577   1.516  4.1797  2.8630 -0.8805
   31SOL     OW   91   1.799   2.977   1.628 -1.1499  0.5585 -0.8407
   31SOL    HW1   92   1.753   2.931   1.704  0.7649 -1.5872 -0.7549
   31SOL    HW2   93   1.824   2.914   1.553  0.8922  0.6754  2.6807
   32SOL     OW   94   1.561   1.888   2.666 -0.1388  0.2130 -0.5559
   32SOL    HW1   95   1.473   1.890   2.617 -0.2353  0.6286 -0.3555
   32SOL    HW2   96   1.591   1.791   2.677  3.6696  0.5338  1.1903
   33SOL     OW   97   2.581   0.659   2.535  0.6898 -0.6736 -0.3615
   33SOL    HW1   98   2.531   0.701   2.457  0.9382  0.3415  0.2265
   33SOL    HW2   99   2.511   0.639   2.610 -0.2413 -0.7387  1.3486
   34SOL     OW  100   1.881   0.500   0.571  0.2347  0.1009 -0.3484
   34SOL    HW1  101   1.864   0.486   0.671  2.3700  1.5767 -0.4163
   34SOL    HW2  102   1.801   0.541   0.528  1.5643  0.1671  2.6156
   35SOL     OW  103   3.064   2.100   2.270  0.0470 -0.0186 -0.2102
   35SOL    HW1  104   2.961   2.082   2.289 -2.3795 -0.5224 -2.9336
   35SOL    HW2  105   0.002   2.170   2.340  1.7165  1.2598 -0.5916
   36SOL     OW  106   2.420   1.831   2.938  0.4383  0.4444  0.1144
   36SOL    HW1  107   2.495   1.788   2.885  0.5539  1.3244 -2.5060
   36SOL    HW2  108   2.398   1.919   2.897  0.9205 -1.2312  0.6573
   37SOL     OW  109   1.805   0.468   1.612  0.0292  0.1886 -0.4193
   37SOL    HW1  110   1.847   0.425   1.692  1.4822  2.0307  2.6659
   37SOL    HW2  111   1.868   0.491   1.538 -1.9354  1.8223  1.0855
   38SOL     OW  112   0.310   0.380   2.624  0.3628  0.4042  0.0594
   38SOL    HW1  113   0.393   0.428   2.598  0.2391 -2.6096  2.2026
   38SOL    HW2  114   0.330   0.318   2.704 -1.7178 -1.0453 -0.0106
   39SOL     OW  115   1.775   1.272   1.539 -0.2408 -0.3048 -0.0178
   39SOL    HW1  116   1.701   1.290   1.477  2.0553  0.1356 -1.5824
   39SOL    HW2  117   1.863   1.327   1.504  0.0792  0.2008 -0.9076
   40SOL     OW  118   1.177   1.727   1.074  0.0539  0.2556 -0.6409
   40SOL    HW1  119   1.093   1.784   1.068  2.0210  2.3355  0.1463
   40SOL    HW2  120   1.197   1.686   0.982  1.4006 -0.7244 -0.1563
   41SOL     OW  121   2.117   1.969   1.140 -0.1335 -0.0002 -0.0961
   41SOL    HW1  122   2.096   1.874   1.168 -3.9466 -0.6748  0.8102
   41SOL    HW2  123   2.058   2.031   1.200 -0.1458  2.0496  0.8190
   42SOL     OW  124   2.766   0.587   1.203  0.0466 -0.2622 -1.0153
   42SOL    HW1  125   2.856   0.538   1.218  0.1782 -2.8221 -0.4839
   42SOL    HW2  126   2.765   0.669   1.260 -1.8465 -1.9703  2.7264
   43SOL     OW  127   0.565   1.824   3.021  0.2736  0.3286 -0.1399
   43SOL    HW1  128   0.556   1.871   0.015  0.1655  0.3053 -0.8252
   43SOL    HW2  129   0.626   1.744   3.029 -0.5286  1.3765 -0.6742
   44SOL     OW  130   1.599   2.512   1.509  0.1527 -0.2174  0.0392
   44SOL    HW1  131   1.550   2.545   1.595 -1.0845  0.5562 -0.0506
   44SOL    HW2  132   1.610   2.593   1.449 -1.8809 -0.5439  0.5408
   45SOL     OW  133   0.728   3.037   2.580 -0.0262 -0.4788 -0.0621
   45SOL    HW1  134   0.660   3.010   2.514  0.6445 -0.2818 -0.4315
   45SOL    HW2  135   0.754   0.032   2.558  0.2973 -1.8909  1.1038
   46SOL     OW  136   0.879   2.468   2.291  0.2601  0.0374  0.4310
   46SOL    HW1  137   0.912   2.407   2.218  0.3505 -1.4138 -1.2101
   46SOL    HW2  138   0.910   2.566   2.271  2.1184  1.9986 -0.6058
   47SOL     OW  139   0.837   2.257   0.953 -0.3222 -0.1071  0.2375
   47SOL    HW1  140   0.837   2.355   0.987 -0.7320  2.8524 -0.5427
   47SOL    HW2  141   0.757   2.203   0.985  3.2302 -0.1643 -1.6898
   48SOL     OW  142   0.577   2.386   1.324 -0.3715  0.1582  0.0591
   48SOL    HW1  143   0.569   2.431   1.233 -0.8479  1.0241  0.9205
   48SOL    HW2  144   0.587   2.284   1.313  0.2174 -1.0942 -0.5328
   49SOL     OW  145   2.488   0.055   3.088  0.3220 -0.1610 -0.3920
   49SOL    HW1  146   2.438   0.135   0.024 -0.8900 -1.0758  2.0408
   49SOL    HW2  147   2.578   0.086   3.052 -1.7612 -1.1393  0.7121
   50SOL     OW  148   1.727   0.515   0.309  0.2254 -0.9005 -0.1790
   50SOL    HW1  149   1.806   0.549   0.257 -1.4267  0.2118  2.0144
   50SOL    HW2  150   1.668   0.591   0.341  1.3417  0.5948 -1.5470
   51SOL     OW  151   1.956   0.678   1.004 -0.1145 -0.0999  0.0721
   51SOL    HW1  152   2.013   0.594   1.028  2.1020 -0.7868 -1.1867
   51SOL    HW2  153   1.975   0.758   1.066  0.6478  0.5855 -0.3416
   52SOL     OW  154   0.624   1.617   0.254 -0.6391 -0.3064 -0.0877
   52SOL    HW1  155   0.660   1.612   0.160  0.6647  2.2456  1.6535
   52SOL    HW2  156   0.634   1.524   0.297 -1.1818  0.7941  0.8059
   53SOL     OW  157   0.434   1.387   2.989  0.5332  0.1809 -0.3159
   53SOL    HW1  158   0.423   1.349   3.084  0.2721 -1.0700 -0.9040
   53SOL    HW2  159   0.444   1.305   2.932 -1.8784 -0.7398  0.1582
   54SOL     OW  160   2.306   1.403   2.129  0.1162 -0.0221  0.4248
   54SOL    HW1  161   2.339   1.479   2.180 -0.5923 -1.2189 -1.1772
   54SOL    HW2  162   2.339   1.407   2.033 -0.1348 -0.3654  3.7487
   55SOL     OW  163   2.597   2.231   0.658 -0.3894  0.5831  0.1987
   55SOL    HW1  164   2.592   2.333   0.668 -0.4726 -1.5204  1.9273
   55SOL    HW2  165   2.522   2.187   0.716  0.6513  0.2531  1.7567
   56SOL     OW  166   1.677   2.977   1.246 -0.4709 -0.6412  0.4676
   56SOL    HW1  167   1.769   3.011   1.268 -1.3667 -0.0105 -1.1778
   56SOL    HW2  168   1.673   2.940   1.151 -0.3519 -1.0850 -2.3599
   57SOL     OW  169   1.555   1.297   0.199  0.3007  0.0349 -0.0976
   57SOL    HW1  170   1.525   1.311   0.104  0.0910  0.3342 -0.3910
   57SOL    HW2  171   1.498   1.343   0.272  0.9347 -1.8756  0.4434
   58SOL     OW  172   2.146   0.273   1.462 -0.4373 -0.2249 -0.0892
   58SOL    HW1  173   2.130   0.192   1.518 -0.0531  0.4468 -0.4428
   58SOL    HW2  174   2.148   0.362   1.510  0.6916 -0.5213 -0.9806
   59SOL     OW  175   1.147   2.713   2.677 -0.3251 -0.6450 -0.1172
   59SOL    HW1  176   1.185   2.722   2.586 -1.9968 -1.2372  1.5067
   59SOL    HW2  177   1.055   2.763   2.685 -3.5109  2.4025 -1.2165
   60SOL     OW  178   2.900   2.509   2.672 -0.4969 -0.3838 -0.5600
   60SOL    HW1  179   2.888   2.534   2.771  1.4390  1.6147 -0.6626
   60SOL    HW2  180   2.861   2.583   2.610  0.0177 -0.1855 -0.2067
   61SOL     OW  181   0.558   2.479   1.088 -0.2415  0.4133  0.0002
   61SOL    HW1  182   0.657   2.499   1.065  1.0655 -0.7927 -0.1026
   61SOL    HW2  183   0.512   2.439   1.006  0.9644  0.3642 -1.4351
   62SOL     OW  184   1.670   1.832   2.225  0.0405 -0.0701  0.7731
   62SOL    HW1  185   1.697   1.861   2.132 -0.7150 -0.0128  0.2970
   62SOL    HW2  186   1.753   1.805   2.285  0.6854 -1.0678  2.7572
   63SOL     OW  187   1.792   1.644   0.137  0.4146  0.5200  0.0849
   63SOL    HW1  188   1.794   1.746   0.156  0.6743  2.5077  2.2917
   63SOL    HW2  189   1.864   1.619   0.066  2.4076 -2.3166  0.1933
   64SOL     OW  190   1.902   1.022   0.201 -0.2762 -0.1236 -0.2488
   64SOL    HW1  191   1.883   1.120   0.235  0.3778  0.5004 -3.1334
   64SOL    HW2  192   1.814   0.983   0.159 -0.2301 -1.3068 -1.2337
   65SOL     OW  193   2.061   2.293   1.876  0.0280  0.7495  0.0986
   65SOL    HW1  194   2.031   2.233   1.954 -1.4521 -4.3308  1.8889
   65SOL    HW2  195   1.982   2.290   1.810  0.0081 -0.3790 -1.1674
   66SOL     OW  196   0.294   0.942   1.564  0.1163 -0.2240 -0.1886
   66SOL    HW1  197   0.369   0.913   1.503 -0.5148  1.6692 -1.6686
   66SOL    HW2  198   0.317   1.037   1.593 -0.4283 -1.0749  1.4646
   67SOL     OW  199   2.067   2.840   0.217  0.1972  0.0702 -0.6235
   67SOL    HW1  200   2.163   2.809   0.194  3.2046 -0.3147  0.5444
   67SOL    HW2  201   2.011   2.836   0.132  1.7341 -0.4804 -0.1478
   68SOL     OW  202   1.922   2.372   1.146 -0.4753  0.5177  0.1578
   68SOL    HW1  203   1.981   2.341   1.070 -2.5920 -1.1206 -1.0757
   68SOL    HW2  204   1.844   2.432   1.116 -0.9321 -0.6763 -2.1676
   69SOL     OW  205   2.891   1.945   2.966 -0.3684  0.5953 -0.2885
   69SOL    HW1  206   2.867   1.902   2.878  1.3665  1.4811  0.0355
   69SOL    HW2  207   2.888   1.871   3.039 -2.9116 -2.6838 -0.6760
   70SOL     OW  208   0.137   1.000   2.106  0.3743  0.4171  0.1372
   70SOL    HW1  209   0.105   1.058   2.031  1.8318  0.6414 -2.1503
   70SOL    HW2  210   0.086   1.020   2.187  2.8978 -2.0406 -4.0777
   71SOL     OW  211   0.928   1.044   2.407  0.1419 -0.2535  0.2038
   71SOL    HW1  212   0.836   1.087   2.391 -1.2228  2.5376  0.2533
   71SOL    HW2  213   0.925   0.946   2.434 -0.6056 -0.3429 -1.0395
   72SOL     OW  214   2.648   1.434   2.137  0.2224  0.1664 -0.0928
   72SOL    HW1  215   2.557   1.402   2.116  1.1280 -0.9212  1.5051
   72SOL    HW2  216   2.697   1.458   2.050 -0.7787  0.6815  1.4511
   73SOL     OW  217   1.195   1.817   3.008 -0.5199 -0.0079  0.6830
   73SOL    HW1  218   1.212   1.904   2.958  0.6057  0.0891 -0.4228
   73SOL    HW2  219   1.175   1.842   0.005 -1.9438  2.9903 -2.0997
   74SOL     OW  220   2.025   3.046   2.479 -0.0764 -0.6221 -0.7218
   74SOL    HW1  221   1.979   3.025   2.570  1.8131 -2.2737 -0.4267
   74SOL    HW2  222   2.070   0.039   2.483  1.1096 -0.9955 -1.1328
   75SOL     OW  223   1.542   2.343   0.759 -0.3633  0.2025  0.2550
   75SOL    HW1  224   1.512   2.375   0.851  0.8118  1.3323 -0.6348
   75SOL    HW2  225   1.639   2.323   0.758 -3.0821  1.1070  1.6703
   76SOL     OW  226   2.841   1.752   2.790 -0.3172 -0.2319  0.5752
   76SOL    HW1  227   2.746   1.721   2.814  2.7483  1.5352 -0.4973
   76SOL    HW2  228   2.905   1.675   2.799 -1.1465  1.1683  2.5877
   77SOL     OW  229   2.970   2.545   1.706  0.3272 -0.6020 -0.2112
   77SOL    HW1  230   2.997   2.575   1.801 -1.4520 -1.8436  0.0206
   77SOL    HW2  231   2.925   2.456   1.703 -1.2765  1.0594  0.4652
   78SOL     OW  232   2.532   0.968   0.096 -0.7638 -0.3582  0.1578
   78SOL    HW1  233   2.451   0.999   0.149  0.4738 -0.7705  0.0674
   78SOL    HW2  234   2.495   0.938   0.008 -1.6683 -1.4072  0.6360
   79SOL     OW  235   0.313   1.489   2.647  0.0996 -0.2468 -0.0148
   79SOL    HW1  236   0.345   1.469   2.551 -0.7108 -0.3612  1.4210
   79SOL    HW2  237   0.209   1.483   2.648 -0.6323 -1.3635  0.6449
   80SOL     OW  238   1.893   1.537   2.171 -0.2438 -0.1434  0.3150
   80SOL    HW1  239   1.857   1.612   2.221  3.0030 -0.3671 -0.1006
   80SOL    HW2  240   1.970   1.500   2.221 -2.7099  2.2062  2.2368
   81SOL     OW  241   2.067   1.393   2.317 -0.1538  0.4949  0.1708
   81SOL    HW1  242   2.050   1.297   2.352  1.1330 -1.0773  2.5837
   81SOL    HW2  243   2.154   1.390   2.270 -0.9521  1.4033 -0.4444
   82SOL     OW  244   1.533   1.526   1.860  0.3419 -0.0111  0.2557
   82SOL    HW1  245   1.443   1.580   1.867 -1.8261  3.1432 -0.5354
   82SOL    HW2  246   1.524   1.459   1.786  2.4325  2.1203 -1.0944
   83SOL     OW  247   2.974   0.296   0.072  0.4595  0.0292  0.4425
   83SOL    HW1  248   2.978   0.319   0.173  2.6180 -2.1281  2.9196
   83SOL    HW2  249   2.888   0.341   0.031  0.4138  2.7334  0.1606
   84SOL     OW  250   0.080   0.784   0.127 -0.4436  0.0959  0.1335
   84SOL    HW1  251   3.075   0.772   0.138 -3.2242  1.0169  1.2973
   84SOL    HW2  252   0.118   0.801   0.221  2.4080 -1.3495 -1.1640
   85SOL     OW  253   2.152   1.988   1.602 -0.5100 -0.3265  0.4493
   85SOL    HW1  254   2.109   2.039   1.524  2.0560  0.8542 -3.1446
   85SOL    HW2  255   2.204   2.057   1.655  0.1442  0.3955  1.8097
   86SOL     OW  256   0.345   0.467   1.335  0.0745 -0.3607  0.4035
   86SOL    HW1  257   0.357   0.558   1.290 -2.1005 -2.4960 -0.8461
   86SOL    HW2  258   0.435   0.422   1.363  4.3776  3.4781  0.9707
   87SOL     OW  259   2.815   2.144   2.073 -0.0403  0.3481 -0.5283
   87SOL    HW1  260   2.912   2.119   2.099  2.6380  2.5823  5.3917
   87SOL    HW2  261   2.749   2.140   2.154 -1.7618 -0.2239  2.5018
   88SOL     OW  262   0.283   2.089   3.082  0.1101 -0.0713  0.2194
   88SOL    HW1  263   0.334   2.153   3.027 -1.0880  2.3930 -1.1055
   88SOL    HW2  264   0.236   2.022   3.021 -1.5049 -2.7327  1.2959
   89SOL     OW  265   1.357   0.901   0.215  0.1649  0.3186  0.4266
   89SOL    HW1  266   1.428   0.833   0.241  1.1811  4.4245  0.9610
   89SOL    HW2  267   1.360   0.926   0.118 -0.5412 -2.6041  0.8441
   90SOL     OW  268   0.198   1.525   2.281 -0.3276  0.4160 -0.2443
   90SOL    HW1  269   0.143   1.609   2.292 -0.7493  0.4758  0.5434
   90SOL    HW2  270   0.259   1.528   2.199  0.1535 -2.6436 -1.4545
   91SOL     OW  271   1.899   0.060   1.346 -0.0633 -0.1475  0.5657
   91SOL    HW1  272   1.830   0.134   1.337  0.9176  0.4131 -2.1633
   91SOL    HW2  273   1.917   0.032   1.440  0.8200  0.5712 -0.5260
   92SOL     OW  274   2.441   1.361   1.293 -0.1688  0.2308  0.3518
   92SOL    HW1  275   2.494   1.292   1.238  0.8620  2.0297 -1.1089
   92SOL    HW2  276   2.427   1.330   1.390  2.8674  0.2716  0.4643
   93SOL     OW  277   0.280   1.042   2.876  0.1288  0.4312 -0.1827
   93SOL    HW1  278   0.273   1.049   2.978 -0.1095 -0.3382  1.0343
   93SOL    HW2  279   0.340   1.109   2.831 -0.0140  1.8613 -2.5298
   94SOL     OW  280   1.432   2.397   2.176  0.4052 -0.3776 -0.1635
   94SOL    HW1  281   1.464   2.311   2.219  0.7471  0.7148  1.6896
   94SOL    HW2  282   1.506   2.449   2.134  2.6477 -0.8432 -1.3163
   95SOL     OW  283   0.387   0.692   1.154  0.2238 -0.0259  0.2528
   95SOL    HW1  284   0.472   0.716   1.106  1.7142  0.2994 -0.1559
   95SOL    HW2  285   0.310   0.690   1.081  0.5659  1.2402  0.6291
   96SOL     OW  286   2.720   3.015   1.500 -0.4296  0.2854  0.0603
   96SOL    HW1  287   2.757   2.933   1.559  5.3817 -2.9216  3.2762
   96SOL    HW2  288   2.783   3.028   1.421 -2.0733  1.1340  0.5988
   97SOL     OW  289   2.513   0.664   1.698  0.0585  0.2371  0.3762
   97SOL    HW1  290   2.461   0.700   1.619  1.3611 -0.0369 -0.8387
   97SOL    HW2  291   2.467   0.681   1.785  2.0025  3.8693  0.6714
   98SOL     OW  292   2.403   2.618   1.370  0.3589  0.1510 -0.1700
   98SOL    HW1  293   2.427   2.713   1.395 -0.4851 -0.3043  2.9502
   98SOL    HW2  294   2.446   2.592   1.284  0.3443  2.2556  1.9612
   99SOL     OW  295   0.616   3.055   1.490  0.1577  0.1841 -0.3272
   99SOL    HW1  296   0.525   3.090   1.518 -0.4918  0.0153 -0.8973
   99SOL    HW2  297   0.667   0.023   1.429 -0.7730 -0.3378 -1.6241
  100SOL     OW  298   2.213   0.221   2.124  0.1714 -0.2099  0.0286
  100SOL    HW1  299   2.188   0.317   2.115 -0.0084 -2.0906  3.6327
  100SOL    HW2  300   2.309   0.202   2.089  0.4350 -1.0139 -1.2371
  101SOL     OW  301   0.027   0.080   2.262  0.6881 -0.0339  0.8772
  101SOL    HW1  302   3.089   0.002   2.317  0.9048 -0.7677  1.5625
  101SOL    HW2  303   0.104   0.128   2.310  2.9361  0.3876  0.6287
  102SOL     OW  304   0.768   0.482   1.727 -0.1833 -0.6766 -0.2197
  102SOL    HW1  305   0.832   0.431   1.662  0.8297 -0.7918  0.9601
  102SOL    HW2  306   0.790   0.458   1.822 -1.9386  0.4514 -1.9740
  103SOL     OW  307   0.877   0.732   2.765 -0.0388  0.4338 -0.7530
  103SOL    HW1  308   0.974   0.709   2.784 -2.0023  0.2417 -0.8337
  103SOL    HW2  309   0.850   0.816   2.816 -2.6406 -1.9663 -1.4556
  104SOL     OW  310   0.108   0.544   2.152  0.6512  0.3183 -0.1916
  104SOL    HW1  311   0.206   0.552   2.178 -1.6170  1.2280 -0.6007
  104SOL    HW2  312   0.080   0.625   2.099 -1.6855  2.5512 -0.5225
  105SOL     OW  313   2.524   1.978   1.297  0.4503  0.1880  0.0114
  105SOL    HW1  314   2.494   1.979   1.393  1.1742  2.3294 -0.9268
  105SOL    HW2  315   2.537   2.075   1.268  0.9384 -0.6089  2.2283
  106SOL     OW  316   1.921   0.091   0.447 -0.7821 -0.2504 -0.4188
  106SOL    HW1  317   1.991   0.112   0.521  0.2392  0.6193 -0.6684
  106SOL    HW2  318   1.839   0.149   0.463 -0.5827 -1.6674 -1.0114
  107SOL     OW  319   1.801   2.275   0.777 -0.0529 -0.4335 -0.4196
  107SOL    HW1  320   1.823   2.371   0.792 -2.7378 -1.3692 -1.0454
  107SOL    HW2  321   1.881   2.218   0.790 -0.9861  1.1714 -0.7211
  108SOL     OW  322   0.160   2.356   1.252  0.2777  0.3157  0.2980
  108SOL    HW1  323   0.072   2.312   1.228  0.7731 -0.4073  1.3949
  108SOL    HW2  324   0.171   2.449   1.212  1.0813 -0.5192  0.2565
  109SOL     OW  325   1.815   2.548   0.824  0.2960 -0.4085 -0.0001
  109SOL    HW1  326   1.769   2.611   0.757 -1.2567  0.5355 -1.6413
  109SOL    HW2  327   1.771   2.550   0.915 -0.4874  0.1231 -0.4689
  110SOL     OW  328   1.546   1.549   1.564  0.0500 -0.4558  0.0266
  110SOL    HW1  329   1.517   1.461   1.602  0.3717  2.1203 -3.2410
  110SOL    HW2  330   1.468   1.587   1.509  1.4449 -0.7412  3.4645
  111SOL     OW  331   1.606   2.324   1.887  0.0490  0.1553 -0.1336
  111SOL    HW1  332   1.683   2.331   1.821 -2.8221 -0.0713 -0.4356
  111SOL    HW2  333   1.607   2.406   1.952 -1.7798  0.4637 -1.2193
  112SOL     OW  334   1.829   2.156   2.889 -0.4611 -0.0847 -0.0886
  112SOL    HW1  335   1.785   2.190   2.977  0.5377  1.3373  0.9926
  112SOL    HW2  336   1.918   2.202   2.872  1.2652  1.9226  0.2637
  113SOL     OW  337   1.871   1.990   1.699 -1.3955 -0.4896  0.4631
  113SOL    HW1  338   1.937   1.965   1.624 -2.8154  2.7367  0.6447
  113SOL    HW2  339   1.855   1.917   1.769 -2.2751 -1.4644 -0.3169
  114SOL     OW  340   3.023   1.528   1.573  0.3142  0.5258 -0.3578
  114SOL    HW1  341   3.098   1.582   1.530  0.6729 -1.5700 -2.3756
  114SOL    HW2  342   3.029   1.428   1.554  1.4288  2.5794  1.1265
  115SOL     OW  343   0.158   0.820   0.380 -0.4782  0.3252  0.1095
  115SOL    HW1  344   0.112   0.822   0.472 -1.3928 -0.4015  1.4616
  115SOL    HW2  345   0.233   0.883   0.377 -4.0734  0.4058 -0.6584
  116SOL     OW  346   2.625   1.269   2.801  0.4866  0.4149  0.1532
  116SOL    HW1  347   2.583   1.181   2.783 -1.2636  0.0771 -2.0172
  116SOL    HW2  348   2.562   1.327   2.859  0.7762  3.5646  1.9859
  117SOL     OW  349   2.857   2.400   0.354 -0.1313  0.5212 -0.2967
  117SOL    HW1  350   2.766   2.394   0.306  2.9201  1.5637 -1.5268
  117SOL    HW2  351   2.849   2.422   0.457 -0.4752 -0.2287  2.4401
  118SOL     OW  352   0.653   2.028   2.856  0.4134  0.2640  0.2128
  118SOL    HW1  353   0.577   2.083   2.824  0.6381 -0.9643  0.4837
  118SOL    HW2  354   0.617   1.957   2.923  2.1839  0.8065  0.4064
  119SOL     OW  355   0.477   2.192   0.689  0.3538  0.0323  0.1979
  119SOL    HW1  356   0.568   2.181   0.650  0.5553  0.2643  0.7541
  119SOL    HW2  357   0.440   2.094   0.706 -1.1351 -2.3784 -0.6622
  120SOL     OW  358   1.399   0.211   0.410  0.4485  0.0958  0.3190
  120SOL    HW1  359   1.393   0.306   0.370  3.8405  0.0840 -1.5980
  120SOL    HW2  360   1.332   0.145   0.372  2.8221 -1.5043  2.2436
  121SOL     OW  361   1.464   2.479   0.987  0.0491 -0.3980 -0.2220
  121SOL    HW1  362   1.458   2.583   0.994  0.3027  0.4185 -1.3743
  121SOL    HW2  363   1.377   2.434   1.022 -0.8397 -1.5921 -1.2655
  122SOL     OW  364   2.538   2.019   2.138  0.0222  0.1350 -0.1985
  122SOL    HW1  365   2.587   1.939   2.093 -3.2705 -0.8093  0.0931
  122SOL    HW2  366   2.508   2.086   2.070  2.3535 -0.0996 -0.2668
  123SOL     OW  367   0.845   1.586   0.985 -0.3042  0.0239  0.2390
  123SOL    HW1  368   0.884   1.615   1.073  0.1415 -2.1687 -0.8706
  123SOL    HW2  369   0.751   1.629   0.975  1.9603  0.4121 -1.4371
  124SOL     OW  370   0.130   0.416   3.044  0.2810 -0.0391  0.0031
  124SOL    HW1  371   0.032   0.412   3.072  3.2296 -2.2281  0.1146
  124SOL    HW2  372   0.145   0.342   2.976 -0.4254  0.6262 -0.0175
  125SOL     OW  373   0.259   0.327   0.146 -0.0048 -0.6932  0.5376
  125SOL    HW1  374   0.191   0.373   0.084  1.9811  1.2116  0.2162
  125SOL    HW2  375   0.294   0.242   0.101 -0.5267 -1.6469  1.3824
  126SOL     OW  376   3.090   1.636   0.492 -0.4770 -0.0514  0.1320
  126SOL    HW1  377   0.084   1.651   0.450  0.2502  1.2623  1.6253
  126SOL    HW2  378   3.043   1.723   0.497  1.0515 -1.1880 -0.6911
  127SOL     OW  379   1.066   2.502   1.594  0.9684 -0.3869 -0.5765
  127SOL    HW1  380   1.019   2.575   1.647 -1.0697  0.8144  1.0820
  127SOL    HW2  381   0.998   2.454   1.536 -0.2075  0.3938 -1.6611
  128SOL     OW  382   1.312   1.470   0.050 -0.4187 -0.0789 -0.3676
  128SOL    HW1  383   1.402   1.510   0.009  2.5532 -1.9869 -0.5642
  128SOL    HW2  384   1.235   1.474   3.084  1.3053  2.9864 -1.5465
  129SOL     OW  385   1.943   2.107   1.312 -0.3928  0.3331 -0.1098
  129SOL    HW1  386   1.961   2.199   1.264  1.1597 -0.7660 -0.0790
  129SOL    HW2  387   1.842   2.081   1.304 -1.5406 -1.8006 -2.1786
  130SOL     OW  388   1.831   2.274   1.730  0.5698  0.4354 -0.0257
  130SOL    HW1  389   1.852   2.175   1.733 -0.0984  1.7045  2.0552
  130SOL    HW2  390   1.825   2.300   1.631  0.9238 -0.9900 -0.7590
  131SOL     OW  391   2.733   2.326   2.496  0.5693  0.2145 -0.2805
  131SOL    HW1  392   2.649   2.383   2.501  1.0063 -0.4525  0.1725
  131SOL    HW2  393   2.810   2.373   2.543 -1.7510 -5.2034  0.1082
  132SOL     OW  394   3.078   2.067   0.664 -0.6491  0.0121 -0.0002
  132SOL    HW1  395   0.017   2.044   0.753 -1.6764  0.0816 -0.9401
  132SOL    HW2  396   2.995   2.122   0.677  0.3635 -2.8820  0.6353
  133SOL     OW  397   0.875   0.347   1.972  0.4758 -0.3899 -0.0539
  133SOL    HW1  398   0.942   0.311   1.907 -0.2598 -2.4201  1.7420
  133SOL    HW2  399   0.925   0.376   2.053 -2.6997 -2.1898 -3.5441
  134SOL     OW  400   2.851   1.763   0.059  0.1203  0.5407  0.3770
  134SOL    HW1  401   2.920   1.791   0.130  0.1451  1.8747  0.6821
  134SOL    HW2  402   2.753   1.749   0.088  0.9569 -1.8690 -0.3932
  135SOL     OW  403   1.599   1.150   2.495  0.0763  0.4279 -0.1841
  135SOL    HW1  404   1.537   1.181   2.572 -0.7213 -0.3768  0.9117
  135SOL    HW2  405   1.594   1.049   2.472 -1.8168 -0.8554  0.3677
  136SOL     OW  406   2.684   1.982   1.003  0.0196  0.0448 -0.0062
  136SOL    HW1  407   2.711   1.957   1.102  0.0081 -0.4895  3.1926
  136SOL    HW2  408   2.698   1.897   0.945 -0.3519 -1.5951  0.2540
  137SOL     OW  409   2.739   1.764   0.857  0.0005  0.3474  0.0532
  137SOL    HW1  410   2.832   1.740   0.888 -0.5913  1.3086 -2.8216
  137SOL    HW2  411   2.723   1.741   0.764  2.7818 -0.7823  0.2644
  138SOL     OW  412   2.790   0.381   0.796  0.8998  0.2392 -0.0218
  138SOL    HW1  413   2.862   0.321   0.833  0.3236  1.9819 -0.7924
  138SOL    HW2  414   2.742   0.432   0.870 -0.1722 -1.3766 -1.9952
  139SOL     OW  415   3.009   2.852   0.158  0.0465 -0.4193 -0.3491
  139SOL    HW1  416   2.981   2.872   0.062  1.6940 -1.7383  0.0732
  139SOL    HW2  417   3.057   2.931   0.203 -0.4826 -0.6529  0.8246
  140SOL     OW  418   0.669   1.656   1.635 -0.0679  0.1032 -0.0827
  140SOL    HW1  419   0.703   1.576   1.680 -3.8684  1.8189 -1.8576
  140SOL    HW2  420   0.746   1.718   1.604 -0.9911  1.0714 -1.7144
  141SOL     OW  421   1.311   1.731   0.823  0.1011 -0.3396  0.5398
  141SOL    HW1  422   1.347   1.662   0.763 -1.5392  1.8606  2.5498
  141SOL    HW2  423   1.371   1.811   0.836  0.0983 -1.9953  0.1343
  142SOL     OW  424   1.211   0.632   0.852  0.8150  0.3154  0.2595
  142SOL    HW1  425   1.114   0.607   0.875 -0.1095  0.5566 -1.0044
  142SOL    HW2  426   1.279   0.588   0.911  1.2118 -1.4005 -0.3151
  143SOL     OW  427   0.701   1.354   2.620 -0.7043 -0.4019 -0.2801
  143SOL    HW1  428   0.774   1.418   2.591 -2.0535 -1.6529  0.9787
  143SOL    HW2  429   0.619   1.358   2.560 -0.6412 -1.1040  2.1966
  144SOL     OW  430   2.353   3.018   0.779 -0.2238  0.1282  0.1498
  144SOL    HW1  431   2.362   0.020   0.804 -2.1153  3.8980  1.6480
  144SOL    HW2  432   2.261   2.983   0.802 -0.3284  0.8375  0.0329
  145SOL     OW  433   2.219   0.296   2.690  0.0967  0.5536 -0.0239
  145SOL    HW1  434   2.160   0.240   2.751 -0.8538 -0.1604  0.1959
  145SOL    HW2  435   2.298   0.324   2.745 -0.1331 -1.1948  0.2965
  146SOL     OW  436   3.085   2.659   0.592 -0.4779 -0.5393 -0.2454
  146SOL    HW1  437   3.012   2.588   0.600  2.3777  0.5210  2.1483
  146SOL    HW2  438   0.023   2.685   0.686 -0.2811 -0.8710  1.4584
  147SOL     OW  439   1.008   1.207   2.620  0.0429  0.0806  0.0314
  147SOL    HW1  440   0.971   1.133   2.561  3.1436  0.3192  1.2325
  147SOL    HW2  441   1.064   1.267   2.565 -0.3855 -2.5308 -0.2501
  148SOL     OW  442   1.602   0.219   2.797 -0.0932  0.0713  0.0403
  148SOL    HW1  443   1.590   0.138   2.858  0.3802  0.4816 -0.9516
  148SOL    HW2  444   1.589   0.191   2.700  0.8999  1.6027 -1.9165
  149SOL     OW  445   2.011   0.156   1.992  0.6884  0.4509  0.0619
  149SOL    HW1  446   1.976   0.060   2.010  1.4236  0.9823  0.5724
  149SOL    HW2  447   2.082   0.191   2.055  1.2999  0.2317  0.6713
  150SOL     OW  448   2.292   2.654   0.114  0.3837  0.3707  0.1180
  150SOL    HW1  449   2.352   2.604   0.051  0.2435 -3.3237 -0.3841
  150SOL    HW2  450   2.230   2.584   0.156 -0.8248  2.3281  0.3721
  151SOL     OW  451   0.719   1.602   3.088  0.1880  0.2913  0.3052
  151SOL    HW1  452   0.804   1.652   3.062  1.2110  0.7821  2.5491
  151SOL    HW2  453   0.694   1.528   3.021 -0.6512  2.3053  1.4095
  152SOL     OW  454   0.353   0.039   1.568 -0.1876  0.1380 -0.1739
  152SOL    HW1  455   0.388   0.133   1.554  0.0501 -0.2818 -2.4340
  152SOL    HW2  456   0.325   0.030   1.665 -2.2912 -2.6777 -2.8692
  153SOL     OW  457   2.572   2.917   1.715  0.2166  0.3937  0.2284
  153SOL    HW1  458   2.628   2.992   1.670 -0.0382  0.0784 -0.9134
  153SOL    HW2  459   2.484   2.957   1.741 -0.4813  2.8627  0.3659
  154SOL     OW  460   2.449   0.115   2.543 -0.4854  0.0178  0.6419
  154SOL    HW1  461   2.423   0.203   2.589 -0.2982  1.2098  1.6338
  154SOL    HW2  462   2.540   0.124   2.504 -0.4026  2.2617 -0.4268
  155SOL     OW  463   3.093   1.164   0.410  0.3065  0.1906 -0.5781
  155SOL    HW1  464   0.073   1.139   0.466 -2.1689  1.1884 -3.6911
  155SOL    HW2  465   3.037   1.239   0.448 -1.0660  1.4585  1.5513
  156SOL     OW  466   0.231   1.554   0.324 -0.2133 -0.4529 -0.0731
  156SOL    HW1  467   0.272   1.610   0.251 -1.1350 -0.7723  0.5754
  156SOL    HW2  468   0.219   1.459   0.289 -0.6394  0.1404 -0.1122
  157SOL     OW  469   0.640   0.032   0.696  0.4981  0.4740 -0.1998
  157SOL    HW1  470   0.633   3.053   0.627 -0.3327 -1.1734 -0.3493
  157SOL    HW2  471   0.724   0.026   0.749 -2.1478 -0.5666 -0.7462
  158SOL     OW  472   1.777   1.333   0.910 -0.0826 -0.0149  0.2478
  158SOL    HW1  473   1.809   1.251   0.961  0.0312 -1.0474  0.7626
  158SOL    HW2  474   1.743   1.406   0.973 -0.6226 -2.3560  2.5328
  159SOL     OW  475   3.037   0.298   0.337 -0.0130  0.4167  0.1369
  159SOL    HW1  476   3.074   0.388   0.315 -0.6892 -2.4976 -0.0393
  159SOL    HW2  477   0.009   0.248   0.396  1.4085 -1.8087 -0.9138
  160SOL     OW  478   2.258   2.255   1.685  0.2029 -0.5342 -0.2730
  160SOL    HW1  479   2.187   2.283   1.752 -1.6954  0.8397  1.8451
  160SOL    HW2  480   2.247   2.313   1.603  1.9951  1.2119  1.2308
  161SOL     OW  481   0.302   0.786   2.856  0.3208 -0.2795  0.1009
  161SOL    HW1  482   0.218   0.737   2.889 -1.1488 -1.4921  0.1347
  161SOL    HW2  483   0.287   0.890   2.855 -0.2290 -0.1076  0.3529
  162SOL     OW  484   0.891   0.046   1.673 -0.1037 -0.2902  0.4660
  162SOL    HW1  485   0.965   0.083   1.737  1.6040 -0.7049  1.8742
  162SOL    HW2  486   0.818   0.114   1.659  0.6148 -0.7625  0.5165
  163SOL     OW  487   2.682   0.036   2.383  0.1084 -0.0790 -0.5237
  163SOL    HW1  488   2.702   3.039   2.355 -0.8965 -0.7961  0.3054
  163SOL    HW2  489   2.731   0.113   2.338  0.4843  2.0822  0.0341
  164SOL     OW  490   2.005   1.884   0.417  0.8750 -0.5115  0.3265
  164SOL    HW1  491   1.912   1.886   0.372 -3.3357  1.5393 -1.5754
  164SOL    HW2  492   2.074   1.832   0.362  0.2155 -0.1445 -0.1976
  165SOL     OW  493   0.119   0.415   1.495 -0.1863  0.3970 -0.1593
  165SOL    HW1  494   0.071   0.359   1.425  1.5034 -1.7827  0.1706
  165SOL    HW2  495   0.208   0.441   1.451 -0.8620 -0.4798 -1.4618
  166SOL     OW  496   2.095   0.850   0.577  0.4376 -0.5486  0.3120
  166SOL    HW1  497   2.038   0.920   0.622  2.4322 -0.5988 -0.2949
  166SOL    HW2  498   2.105   0.776   0.641 -1.2454  0.6259  1.9250
  167SOL     OW  499   2.315   0.715   2.983  0.2611 -0.0975  0.1655
  167SOL    HW1  500   2.382   0.669   3.040 -4.2201 -1.0007 -0.8726
  167SOL    HW2  501   2.220   0.688   3.003  3.2199 -0.4208  2.2945
  168SOL     OW  502   1.737   3.039   2.404  0.0093  0.1619 -0.5593
  168SOL    HW1  503   1.706   2.980   2.480 -0.8114 -3.3951 -2.1425
  168SOL    HW2  504   1.834   3.057   2.417 -1.3409 -3.9369  0.9219
  169SOL     OW  505   0.607   1.692   0.926 -0.1904 -0.4422 -0.2799
  169SOL    HW1  506   0.540   1.647   0.865  0.1363 -0.6029  4.0617
  169SOL    HW2  507   0.564   1.706   1.019 -0.3457  0.8030  1.8987
  170SOL     OW  508   3.033   0.866   1.395  0.0955 -0.8180 -0.3504
  170SOL    HW1  509   3.080   0.954   1.373  2.9648  4.0468  1.3667
  170SOL    HW2  510   3.022   0.859   1.497 -0.9790  0.2725  1.2288
  171SOL     OW  511   2.632   1.756   2.328 -0.1191  0.4213 -0.1109
  171SOL    HW1  512   2.707   1.757   2.264 -0.4183 -0.3278  4.9826
  171SOL    HW2  513   2.556   1.700   2.291  3.9372 -0.2024  1.3441
  172SOL     OW  514   0.588   1.764   1.404 -0.1826 -0.0532 -0.0957
  172SOL    HW1  515   0.546   1.854   1.429 -1.4183  0.0024 -0.5734
  172SOL    HW2  516   0.617   1.716   1.487  1.6833  0.8581 -1.7819
  173SOL     OW  517   1.956   1.693   3.030  0.6553 -0.1655 -0.2271
  173SOL    HW1  518   1.905   1.616   2.987  0.8819 -1.4466  0.2799
  173SOL    HW2  519   1.925   1.784   3.001  1.4201  1.4544 -1.2080
  174SOL     OW  520   1.417   0.940   2.794  0.0356 -0.2012  0.5593
  174SOL    HW1  521   1.499   0.908   2.846 -4.3514  0.0141 -1.6217
  174SOL    HW2  522   1.415   0.906   2.697  2.7097  0.4479  0.1580
  175SOL     OW  523   1.148   1.426   1.197 -0.0051 -0.2940  0.3032
  175SOL    HW1  524   1.186   1.513   1.159 -1.7516  1.0607 -3.4035
  175SOL    HW2  525   1.219   1.349   1.192  0.3472 -2.6699  1.7261
  176SOL     OW  526   1.213   0.029   0.321 -0.3339  0.8826  0.2442
  176SOL    HW1  527   1.130   3.070   0.332  1.1534 -1.3738  1.3019
  176SOL    HW2  528   1.239   0.032   0.223  1.1937 -2.8103  1.2194
  177SOL     OW  529   0.390   0.968   0.402 -0.0663 -1.0366 -0.0749
  177SOL    HW1  530   0.429   0.878   0.370  0.6793 -0.7933  0.7182
  177SOL    HW2  531   0.428   1.002   0.494 -1.9969 -0.0510  0.5574
  178SOL     OW  532   3.012   2.237   2.683  0.3162  0.4670  0.1935
  178SOL    HW1  533   3.018   2.186   2.776  1.5325 -1.2968  2.3444
  178SOL    HW2  534   2.967   2.328   2.699  1.4031  0.8939 -0.9017
  179SOL     OW  535   2.542   2.827   2.382 -0.1873 -0.1974  0.1926
  179SOL    HW1  536   2.574   2.844   2.474  1.4043 -0.2934  1.5817
  179SOL    HW2  537   2.602   2.762   2.326  0.5907 -5.2358  1.7106
  180SOL     OW  538   2.107   0.990   1.075  0.0908 -0.1905 -0.2448
  180SOL    HW1  539   2.130   1.014   1.173  0.2886  0.6507 -1.7403
  180SOL    HW2  540   2.179   0.932   1.039  0.4468  0.1068  4.9294
  181SOL     OW  541   2.184   0.630   2.585  0.4948  0.1606  0.3322
  181SOL    HW1  542   2.253   0.607   2.654 -0.3726 -3.3820 -0.8469
  181SOL    HW2  543   2.209   0.584   2.494 -3.0951 -2.1677 -3.1797
  182SOL     OW  544   2.892   2.422   2.212 -0.0758 -0.0916  0.2438
  182SOL    HW1  545   2.967   2.488   2.239  0.9930  2.1852 -0.7854
  182SOL    HW2  546   2.894   2.334   2.263  1.6653  0.2503  2.4619
  183SOL     OW  547   2.033   0.885   1.941 -0.2107  0.1705  0.0452
  183SOL    HW1  548   2.119   0.915   1.903 -2.1813  1.2803 -1.0089
  183SOL    HW2  549   1.957   0.938   1.897  2.2317 -0.7461 -1.1152
  184SOL     OW  550   0.139   1.672   1.107  0.6477  0.0797 -0.5727
  184SOL    HW1  551   0.149   1.573   1.122 -0.3309  1.1773 -0.8829
  184SOL    HW2  552   0.054   1.691   1.057  2.2376 -1.4918 -3.0639
  185SOL     OW  553   2.960   0.180   0.896  0.0690  0.1102 -0.3277
  185SOL    HW1  554   2.885   0.114   0.904 -0.2403 -1.7745 -0.0417
  185SOL    HW2  555   3.004   0.190   0.990  0.6480 -0.0264  0.4046
  186SOL     OW  556   2.282   2.556   2.517 -0.4418 -0.5343 -0.3007
  186SOL    HW1  557   2.197   2.515   2.551  2.3393  2.8057  0.1470
  186SOL    HW2  558   2.265   2.652   2.490  0.4499  0.9577  0.9908
  187SOL     OW  559   0.524   1.313   0.564 -0.0643  0.0054  0.0950
  187SOL    HW1  560   0.529   1.212   0.568  0.4382 -1.0562  1.3895
  187SOL    HW2  561   0.578   1.350   0.642 -0.8718 -2.4541 -1.6039
  188SOL     OW  562   2.136   1.284   0.977  0.1194  0.0466  0.0241
  188SOL    HW1  563   2.081   1.201   0.990  0.6199 -0.1074 -1.1465
  188SOL    HW2  564   2.227   1.271   0.928  1.9962 -0.0821  1.5430
  189SOL     OW  565   3.022   1.145   2.568  0.3336  0.4493 -0.4896
  189SOL    HW1  566   3.063   1.098   2.650 -1.5008 -2.7238 -0.9017
  189SOL    HW2  567   2.919   1.161   2.582 -3.3075 -1.4177 -1.1571
  190SOL     OW  568   2.275   0.533   2.365 -0.0247  0.4301  0.2703
  190SOL    HW1  569   2.212   0.510   2.287  1.6348 -0.4868 -0.7064
  190SOL    HW2  570   2.359   0.477   2.358 -0.8385 -0.1188 -2.0993
  191SOL     OW  571   1.200   0.188   2.148  0.5590  0.1068  0.3442
  191SOL    HW1  572   1.213   0.246   2.068 -1.8905 -0.8679  0.9002
  191SOL    HW2  573   1.106   0.197   2.187  1.1517 -0.1123  0.6922
  192SOL     OW  574   0.884   1.844   1.604 -0.0471 -0.6907 -0.4114
  192SOL    HW1  575   0.915   1.852   1.504  0.8113  0.5709 -1.2875
  192SOL    HW2  576   0.900   1.936   1.650  1.5743  0.1322 -0.8867
  193SOL     OW  577   1.254   2.822   0.914  0.1225  0.3377 -0.0700
  193SOL    HW1  578   1.169   2.839   0.960 -0.1289 -1.8441 -0.3838
  193SOL    HW2  579   1.239   2.823   0.812  0.1289 -0.3899 -0.0170
  194SOL     OW  580   0.694   2.011   2.034 -0.6476 -0.5918 -0.5057
  194SOL    HW1  581   0.608   2.053   2.065  1.6542  0.6770 -0.3750
  194SOL    HW2  582   0.727   2.044   1.941  0.1733 -1.1445 -1.9289
  195SOL     OW  583   1.549   0.297   0.891 -0.1717  0.0928 -0.9672
  195SOL    HW1  584   1.612   0.216   0.896  3.3306 -1.6397 -2.6307
  195SOL    HW2  585   1.497   0.302   0.806  0.0151  1.5285  0.1777
  196SOL     OW  586   1.254   1.581   1.882  0.4723  0.2021 -0.0289
  196SOL    HW1  587   1.205   1.576   1.972  1.9420 -0.6109 -0.6019
  196SOL    HW2  588   1.234   1.662   1.827  0.0802 -0.2932 -1.2603
  197SOL     OW  589   0.467   0.455   1.738  0.2295  0.2440 -0.0359
  197SOL    HW1  590   0.549   0.514   1.740 -0.7249  0.3028 -0.7879
  197SOL    HW2  591   0.384   0.511   1.764 -2.7114  1.0537  1.8212
  198SOL     OW  592   0.582   0.776   0.773  0.1940 -0.1775  0.2182
  198SOL    HW1  593   0.582   0.684   0.735 -2.1715 -0.5810 -2.8746
  198SOL    HW2  594   0.658   0.841   0.743  0.5339  0.0828  1.2203
  199SOL     OW  595   0.096   2.525   1.576  0.1373 -0.1118  0.0186
  199SOL    HW1  596   0.115   2.428   1.554 -0.5110  0.9348  2.1602
  199SOL    HW2  597   0.007   2.542   1.623 -0.0190 -0.1889 -0.6688
  200SOL     OW  598   1.665   1.408   2.382 -0.0481  0.3007  0.1837
  200SOL    HW1  599   1.746   1.438   2.434 -6.1281  1.7724 -0.4913
  200SOL    HW2  600   1.630   1.325   2.428 -1.7141 -2.0183 -0.5220
  201SOL     OW  601   0.650   2.441   1.724 -0.0958  0.4296 -0.0624
  201SOL    HW1  602   0.634   2.493   1.640 -0.3335 -1.7202 -0.7380
  201SOL    HW2  603   0.624   2.340   1.711  0.0438 -3.9121  0.0074
  202SOL     OW  604   1.264   2.849   2.908 -0.2114  0.2807 -0.0962
  202SOL    HW1  605   1.230   2.801   2.824 -3.1263 -1.5321  0.4141
  202SOL    HW2  606   1.192   2.912   2.946 -1.5966  0.1357  2.2906
  203SOL     OW  607   1.655   0.450   2.570 -0.5451  0.1739 -0.3110
  203SOL    HW1  608   1.614   0.431   2.479 -0.4538  0.1948  1.9411
  203SOL    HW2  609   1.758   0.456   2.568  3.0173 -0.9105 -0.1596
  204SOL     OW  610   0.771   1.412   1.711  0.1813  0.1289 -0.1936
  204SOL    HW1  611   0.835   1.422   1.788 -2.2288 -1.4831 -3.8193
  204SOL    HW2  612   0.710   1.334   1.732  0.3170  2.3586 -0.3999
  205SOL     OW  613   2.046   1.020   2.867  0.3305 -0.0618 -0.2746
  205SOL    HW1  614   2.054   0.926   2.828 -0.9094 -1.4505 -1.3558
  205SOL    HW2  615   2.065   1.088   2.797  2.9663 -0.1416 -0.0370
  206SOL     OW  616   0.354   1.719   2.816  0.0273 -0.0500 -0.4245
  206SOL    HW1  617   0.330   1.640   2.753 -1.3957  1.4414 -2.6774
  206SOL    HW2  618   0.426   1.690   2.882  2.1213 -0.5384 -0.4746
  207SOL     OW  619   0.935   2.706   1.738  0.0156  0.0004  0.4143
  207SOL    HW1  620   0.911   2.637   1.808 -1.0935 -0.2357 -2.8306
  207SOL    HW2  621   0.868   2.782   1.727  1.1862 -3.6923  0.0895
  208SOL     OW  622   0.536   2.588   1.482  0.3587  0.2285 -0.4361
  208SOL    HW1  623   0.462   2.644   1.443  0.9675 -4.2159  0.1577
  208SOL    HW2  624   0.553   2.503   1.424  0.6625  0.3530 -0.8143
  209SOL     OW  625   1.144   2.846   0.164  0.5126 -0.1386  0.3928
  209SOL    HW1  626   1.077   2.902   0.217  0.6952 -1.9641 -0.5638
  209SOL    HW2  627   1.127   2.868   0.065 -2.5989 -2.7525 -1.5736
  210SOL     OW  628   2.836   1.706   1.666  0.2632 -0.1389 -0.5211
  210SOL    HW1  629   2.784   1.641   1.722 -2.1687  3.8140  1.4870
  210SOL    HW2  630   2.903   1.656   1.616 -2.8498  0.3883  2.4169
  211SOL     OW  631   1.146   0.488   1.763 -0.3432  0.6887 -0.3536
  211SOL    HW1  632   1.090   0.561   1.813 -0.0443  0.0946  1.8824
  211SOL    HW2  633   1.172   0.520   1.668 -2.4843  2.6752 -0.8816
  212SOL     OW  634   1.287   2.185   1.560  0.1651 -0.1053 -0.3426
  212SOL    HW1  635   1.323   2.239   1.481 -0.1244 -0.3804 -0.6706
  212SOL    HW2  636   1.299   2.086   1.548 -0.0490  1.0774 -0.0094
  213SOL     OW  637   2.511   0.184   1.581 -0.6240 -0.0679  0.6677
  213SOL    HW1  638   2.429   0.152   1.631  0.1822 -2.4090 -2.8520
  213SOL    HW2  639   2.596   0.144   1.615  0.3290  2.0506 -0.8722
  214SOL     OW  640   0.813   2.055   1.790  0.1846 -0.3415 -0.1335
  214SOL    HW1  641   0.898   2.005   1.822 -0.9807  2.0153 -1.7239
  214SOL    HW2  642   0.845   2.133   1.735 -0.6596  0.4536 -0.9110
  215SOL     OW  643   2.775   1.909   1.270  0.2051  0.1925 -0.0076
  215SOL    HW1  644   2.680   1.928   1.288  2.9511 -2.7520  0.9160
  215SOL    HW2  645   2.816   1.896   1.362  1.0916 -3.1285  1.9706
  216SOL     OW  646   0.042   0.851   1.641 -0.4351 -0.4299 -0.0181
  216SOL    HW1  647   0.137   0.873   1.620 -0.7751  0.1040  0.8208
  216SOL    HW2  648   0.029   0.753   1.655 -1.4837  2.4435 -0.4129
  217SOL     OW  649   2.615   0.146   1.312 -0.4726 -0.0581 -0.1084
  217SOL    HW1  650   2.709   0.129   1.350  0.4449  1.2236 -0.1333
  217SOL    HW2  651   2.547   0.152   1.388  1.0530 -0.2655 -1.9624
  218SOL     OW  652   1.260   2.131   1.092  0.3633 -0.1933 -0.2163
  218SOL    HW1  653   1.352   2.139   1.130 -1.4100 -1.1457 -2.8667
  218SOL    HW2  654   1.266   2.070   1.013 -0.1680  1.9083  3.3385
  219SOL     OW  655   1.452   2.342   0.356  0.1802  0.0223 -0.4716
  219SOL    HW1  656   1.439   2.444   0.354 -0.8111  1.7526 -1.6298
  219SOL    HW2  657   1.407   2.302   0.441 -0.0288  0.5445  0.6987
  220SOL     OW  658   1.711   2.309   0.276 -0.4396 -0.2437  0.4445
  220SOL    HW1  659   1.612   2.326   0.290 -2.1705 -3.0569 -0.1205
  220SOL    HW2  660   1.749   2.256   0.351  1.0110  0.6444 -3.3191
  221SOL     OW  661   2.955   1.975   1.082 -0.2027  0.2617  0.2117
  221SOL    HW1  662   2.948   1.923   0.998 -0.1046  0.4528 -0.0785
  221SOL    HW2  663   2.901   1.936   1.161  3.6509  2.4511  0.3010
  222SOL     OW  664   1.071   2.241   0.827  0.1181 -0.1985  0.1519
  222SOL    HW1  665   1.116   2.153   0.847 -1.6111 -3.4336 -3.3471
  222SOL    HW2  666   0.986   2.257   0.883  1.5611  1.1928  1.2742
  223SOL     OW  667   0.971   2.708   2.263 -0.5577  0.2687 -0.0266
  223SOL    HW1  668   1.068   2.673   2.262  1.5246 -2.2043 -2.4340
  223SOL    HW2  669   0.958   2.804   2.232 -1.3110 -1.8439  0.5711
  224SOL     OW  670   2.751   1.451   1.045 -0.0625  0.0630  0.0860
  224SOL    HW1  671   2.674   1.516   1.024 -0.1598  2.1350 -0.9165
  224SOL    HW2  672   2.797   1.489   1.129  0.7510 -1.7509  0.3593
  225SOL     OW  673   2.342   1.667   0.861  0.4366  0.1621  0.2160
  225SOL    HW1  674   2.322   1.764   0.832 -3.8164 -1.6349 -0.4796
  225SOL    HW2  675   2.403   1.625   0.793  0.9337  0.3983  0.8217
  226SOL     OW  676   1.170   2.579   0.652 -0.2935 -0.0980 -0.4631
  226SOL    HW1  677   1.272   2.571   0.668  1.0274 -1.0579  2.5108
  226SOL    HW2  678   1.138   2.501   0.590  0.1494 -2.8234 -0.6811
  227SOL     OW  679   1.315   1.171   1.257  0.1700 -0.5408  0.2188
  227SOL    HW1  680   1.235   1.148   1.315  2.5785 -1.2978 -1.3086
  227SOL    HW2  681   1.309   1.109   1.179 -1.6288 -3.3878  2.2659
  228SOL     OW  682   1.234   0.596   2.175 -0.5598 -0.5812 -0.3105
  228SOL    HW1  683   1.239   0.655   2.092 -2.5693  1.9948 -0.7055
  228SOL    HW2  684   1.285   0.510   2.162  2.8296  0.1448  0.3176
  229SOL     OW  685   2.400   0.976   2.933 -0.4173  0.2670 -0.3801
  229SOL    HW1  686   2.451   0.963   2.844 -0.8992  0.2553  1.8285
  229SOL    HW2  687   2.346   0.893   2.960 -2.1580  0.6260  2.0629
  230SOL     OW  688   1.136   1.299   0.724 -0.0462 -0.1903  0.3374
  230SOL    HW1  689   1.207   1.317   0.799  3.0060 -1.2664  1.6898
  230SOL    HW2  690   1.142   1.378   0.657 -1.8377  2.1996  0.1925
  231SOL     OW  691   2.412   3.045   2.261  0.2129  0.0838  0.1224
  231SOL    HW1  692   2.455   2.971   2.315  0.0199  0.8696 -0.1682
  231SOL    HW2  693   2.399   0.025   2.334 -1.6651  2.0978  3.5899
  232SOL     OW  694   0.526   1.974   0.148 -0.2286 -0.1029  0.4402
  232SOL    HW1  695   0.512   1.963   0.246 -0.8333 -2.6632 -3.4664
  232SOL    HW2  696   0.469   2.047   0.107  3.7289 -0.7276 -0.9205
  233SOL     OW  697   1.554   2.517   2.555 -0.7549  0.2597  0.5707
  233SOL    HW1  698   1.584   2.487   2.646  0.9161  0.3245 -1.8301
  233SOL    HW2  699   1.580   2.443   2.490 -1.1422 -0.4893  0.6676
  234SOL     OW  700   1.191   1.299   1.848  0.3134 -0.3355 -0.5581
  234SOL    HW1  701   1.216   1.401   1.857 -2.0099 -1.7123  1.1647
  234SOL    HW2  702   1.092   1.291   1.842  1.2911 -0.7019  0.0962
  235SOL     OW  703   0.541   2.175   1.704  0.1162  0.1891  0.6504
  235SOL    HW1  704   0.610   2.101   1.703 -0.8332  0.7788  2.0557
  235SOL    HW2  705   0.443   2.138   1.689 -2.3642 -0.6767 -0.2026
  236SOL     OW  706   1.888   2.679   2.633 -0.6644 -0.0446 -0.1006
  236SOL    HW1  707   1.840   2.594   2.662 -0.9828 -2.3014 -1.7899
  236SOL    HW2  708   1.834   2.764   2.640 -0.4788  0.3228  1.2814
  237SOL     OW  709   1.373   3.067   0.945 -0.3039  0.1454 -0.2370
  237SOL    HW1  710   1.312   2.982   0.950 -2.5514 -1.7209 -1.7475
  237SOL    HW2  711   1.409   3.095   1.038  1.5128  0.1365  3.5464
  238SOL     OW  712   1.161   0.698   2.779 -0.1250  0.7069  0.2551
  238SOL    HW1  713   1.161   0.690   2.878  1.8028 -1.6699 -0.2461
  238SOL    HW2  714   1.236   0.764   2.754  2.2908  1.5351 -1.4276
  239SOL     OW  715   0.766   0.081   2.094 -0.0766 -0.0252 -0.3975
  239SOL    HW1  716   0.698   0.026   2.046  1.6782  0.8758 -1.3282
  239SOL    HW2  717   0.774   0.180   2.071  0.9540 -0.5274  2.1688
  240SOL     OW  718   2.054   2.580   0.701 -0.5462 -0.1467  0.2729
  240SOL    HW1  719   1.971   2.561   0.757  0.7013  3.3013  0.3383
  240SOL    HW2  720   2.058   2.671   0.664  1.6713 -0.1815  0.2596
  241SOL     OW  721   1.315   1.599   1.448  0.9558 -0.1685  0.2025
  241SOL    HW1  722   1.226   1.553   1.471 -2.3663 -2.3160  0.0320
  241SOL    HW2  723   1.317   1.693   1.480 -2.1675 -0.7113 -2.9985
  242SOL     OW  724   0.239   0.716   0.938 -0.0486 -0.3111 -0.3906
  242SOL    HW1  725   0.143   0.761   0.929 -2.1385 -2.0283 -0.2630
  242SOL    HW2  726   0.267   0.683   0.846  0.2565  0.4113 -0.3153
  243SOL     OW  727   0.723   0.633   1.519 -0.1447 -0.1145 -0.3167
  243SOL    HW1  728   0.642   0.597   1.479  0.2331  0.7042 -1.0588
  243SOL    HW2  729   0.752   0.580   1.603  1.8435 -1.2972 -0.2709
  244SOL     OW  730   1.332   0.411   0.231  0.2467 -0.2492 -0.5810
  244SOL    HW1  731   1.248   0.442   0.283  1.0719 -1.6989  1.2503
  244SOL    HW2  732   1.374   0.487   0.180 -1.7127  1.8127  1.4977
  245SOL     OW  733   2.042   0.264   0.051  0.3016 -0.0831 -0.3487
  245SOL    HW1  734   2.027   0.176   0.098  0.2237  1.1038  1.1386
  245SOL    HW2  735   2.062   0.342   0.115 -0.2242 -0.0623 -0.0580
  246SOL     OW  736   0.653   0.956   1.842 -0.4476 -0.0949  0.1211
  246SOL    HW1  737   0.553   0.930   1.838 -0.4370 -1.2797 -0.5149
  246SOL    HW2  738   0.708   0.897   1.773 -0.6922 -3.1409 -4.8300
  247SOL     OW  739   0.400   3.066   2.251 -0.4496 -0.4680  0.5793
  247SOL    HW1  740   0.389   0.051   2.188 -0.2340  0.6905 -1.9228
  247SOL    HW2  741   0.416   0.000   2.345  0.2816 -1.6388  1.6100
  248SOL     OW  742   0.341   1.543   2.059  0.6889  0.1688  0.3738
  248SOL    HW1  743   0.336   1.646   2.066 -0.1344  0.0066  3.0314
  248SOL    HW2  744   0.434   1.517   2.042  1.0348  2.3317 -0.6747
  249SOL     OW  745   0.150   0.089   2.863  0.3377 -0.2307  0.1179
  249SOL    HW1  746   0.121   0.182   2.831  0.8559  2.9440 -2.2875
  249SOL    HW2  747   0.193   0.047   2.783 -0.7603 -0.2819 -1.5905
  250SOL     OW  748   2.920   2.921   2.990  0.2342  0.0176 -0.1795
  250SOL    HW1  749   2.961   3.010   3.012 -2.0784 -2.6482  1.0023
  250SOL    HW2  750   2.986   2.859   2.945 -0.1849  0.5780 -0.6293
  251SOL     OW  751   0.255   1.360   1.149  0.4175 -0.3420  0.1417
  251SOL    HW1  752   0.172   1.326   1.102 -1.5023 -0.1509  1.8215
  251SOL    HW2  753   0.336   1.366   1.084 -0.2802  1.1421 -1.4080
  252SOL     OW  754   1.509   2.863   2.019  0.4287 -0.1430  0.3407
  252SOL    HW1  755   1.461   2.953   2.035 -2.3197  0.1992 -0.6025
  252SOL    HW2  756   1.578   2.845   2.088 -1.1169  0.9803 -0.0223
  253SOL     OW  757   1.978   1.959   2.595 -0.0426 -0.0267  0.3654
  253SOL    HW1  758   2.063   2.017   2.591 -0.4219 -0.4751  0.4731
  253SOL    HW2  759   1.892   2.020   2.596 -2.1542  3.2508  1.0343
  254SOL     OW  760   0.588   1.447   1.942 -0.3580  0.3892  0.0469
  254SOL    HW1  761   0.593   1.353   1.894  0.3688 -1.8379  1.9595
  254SOL    HW2  762   0.676   1.501   1.928  2.6997  3.3929 -1.4041
  255SOL     OW  763   1.229   0.267   1.366 -0.5592  0.1545 -0.2376
  255SOL    HW1  764   1.283   0.225   1.439 -1.7978 -0.2634 -1.9748
  255SOL    HW2  765   1.228   0.366   1.382 -1.5588 -2.3002 -0.4305
  256SOL     OW  766   2.846   2.396   1.268 -0.3888  0.5354  0.1890
  256SOL    HW1  767   2.845   2.478   1.326  0.4023  1.4340  2.2500
  256SOL    HW2  768   2.771   2.398   1.201  1.9164  0.2223  0.9597
  257SOL     OW  769   0.369   2.520   3.074 -0.4232 -0.3217 -0.4356
  257SOL    HW1  770   0.442   2.568   3.019 -1.2573  1.4795 -2.1089
  257SOL    HW2  771   0.409   2.464   0.052  2.8432 -1.8254  2.4326
  258SOL     OW  772   1.008   1.974   2.404 -0.1614 -0.5861 -0.1571
  258SOL    HW1  773   0.999   2.012   2.308 -0.2982  0.7805  0.9019
  258SOL    HW2  774   0.995   2.050   2.468  0.9649  0.8751  0.5505
  259SOL     OW  775   0.910   1.732   2.748 -0.0193 -0.5004  0.1011
  259SOL    HW1  776   0.920   1.827   2.726 -0.1878 -4.2600  0.7088
  259SOL    HW2  777   0.919   1.716   2.843  2.3222 -0.3681 -0.6028
  260SOL     OW  778   2.414   0.762   2.363  0.4184 -0.6989 -0.0363
  260SOL    HW1  779   2.353   0.840   2.346 -0.8579  1.6689  1.7407
  260SOL    HW2  780   2.368   0.670   2.359  3.6704  0.9149 -0.6774
  261SOL     OW  781   1.230   0.848   0.704 -0.1029 -0.1404 -0.6240
  261SOL    HW1  782   1.220   0.752   0.748 -1.1286 -1.9836  0.0981
  261SOL    HW2  783   1.190   0.917   0.772  1.5158  2.1412  1.0240
  262SOL     OW  784   1.880   2.411   2.332 -0.2777 -0.0441  0.2989
  262SOL    HW1  785   1.784   2.395   2.362 -0.2500 -0.6182 -2.3065
  262SOL    HW2  786   1.902   2.512   2.343  0.4416  1.0142 -1.7429
  263SOL     OW  787   0.301   2.107   0.354  0.4327  0.3064  0.1904
  263SOL    HW1  788   0.264   2.028   0.299  0.6580 -2.4538 -0.6837
  263SOL    HW2  789   0.396   2.086   0.382  1.1310 -0.3263 -0.8418
  264SOL     OW  790   0.082   2.303   0.913 -0.3988  0.5713  0.0086
  264SOL    HW1  791   0.112   2.213   0.870 -1.1475 -3.4364 -2.1075
  264SOL    HW2  792   0.018   2.285   0.994  0.2676 -0.6682  2.9937
  265SOL     OW  793   0.650   1.363   0.318  0.4251  0.1908 -0.3853
  265SOL    HW1  794   0.614   1.366   0.418 -1.5502  3.0853  2.3833
  265SOL    HW2  795   0.723   1.293   0.303  1.2169 -0.3066 -1.8079
  266SOL     OW  796   0.714   1.988   2.440 -0.1084  0.3769 -0.1732
  266SOL    HW1  797   0.652   2.041   2.494  0.1246 -1.3245  0.3892
  266SOL    HW2  798   0.810   2.024   2.434 -0.5967 -1.0263  0.3521
  267SOL     OW  799   1.196   0.670   2.439  0.3646 -0.0380  0.4271
  267SOL    HW1  800   1.199   0.583   2.495 -0.3320 -0.0096 -1.9796
  267SOL    HW2  801   1.215   0.650   2.342 -0.2052  1.1077  2.9861
  268SOL     OW  802   0.504   0.849   3.063 -0.1101 -0.6860  0.1009
  268SOL    HW1  803   0.429   0.800   3.016 -0.6823 -1.5344 -1.0447
  268SOL    HW2  804   0.461   0.921   0.026 -0.4558 -0.9945  1.3591
  269SOL     OW  805   2.475   2.417   2.370  0.6764  0.5667  0.0954
  269SOL    HW1  806   2.485   2.318   2.377 -1.2450  0.1754 -0.0700
  269SOL    HW2  807   2.406   2.450   2.438 -1.1415 -3.0226  2.1103
  270SOL     OW  808   1.755   1.564   2.895  0.2738 -0.0403  0.0271
  270SOL    HW1  809   1.698   1.609   2.824  3.1758 -0.3464  3.3496
  270SOL    HW2  810   1.735   1.463   2.893  1.4083  0.5443  1.3575
  271SOL     OW  811   0.330   0.106   3.092  0.2266  0.6973 -0.2031
  271SOL    HW1  812   0.357   0.023   0.043 -2.5993  0.5829 -2.3529
  271SOL    HW2  813   0.300   0.096   2.996 -2.1397  0.3256 -2.5572
  272SOL     OW  814   2.763   0.603   0.388  0.1574 -0.0069  0.3208
  272SOL    HW1  815   2.818   0.607   0.478  1.5417 -0.5175  2.4677
  272SOL    HW2  816   2.679   0.658   0.396  1.0236  0.3542 -2.8386
  273SOL     OW  817   0.535   2.840   1.969 -0.6909  0.5358  0.1853
  273SOL    HW1  818   0.543   2.941   1.967 -0.8753  0.0084 -0.5118
  273SOL    HW2  819   0.472   2.813   1.894  2.1304 -0.6843  1.0743
  274SOL     OW  820   0.269   0.623   1.810  0.3217 -0.3198 -0.5697
  274SOL    HW1  821   0.222   0.678   1.886 -0.9341  0.6528 -3.0251
  274SOL    HW2  822   0.194   0.593   1.747  0.1757 -0.0029  0.0889
  275SOL     OW  823   0.794   1.586   0.663  0.3806 -0.5773 -0.9282
  275SOL    HW1  824   0.820   1.506   0.607 -0.8083 -0.7377  1.7266
  275SOL    HW2  825   0.875   1.643   0.680 -0.9858 -1.9449  0.2299
  276SOL     OW  826   0.776   0.726   2.031 -0.0728 -0.0287  0.1106
  276SOL    HW1  827   0.721   0.799   1.989  0.2786  1.1138 -2.3377
  276SOL    HW2  828   0.780   0.740   2.131 -0.8685 -2.0181  0.7588
  277SOL     OW  829   1.214   2.503   1.814  0.0892  0.0239 -0.3131
  277SOL    HW1  830   1.170   2.478   1.728  0.0835  1.0928  1.0790
  277SOL    HW2  831   1.219   2.424   1.882  1.6073  1.2647  1.4180
  278SOL     OW  832   1.739   2.825   1.856 -0.0277  0.3034 -0.0168
  278SOL    HW1  833   1.648   2.828   1.898  0.7541  1.2514  1.1816
  278SOL    HW2  834   1.812   2.876   1.910  1.6810  2.5797  0.2700
  279SOL     OW  835   1.211   1.395   0.278 -0.2150 -0.1790  0.3517
  279SOL    HW1  836   1.266   1.424   0.193 -1.4983 -0.7483 -1.7551
  279SOL    HW2  837   1.265   1.338   0.337 -2.8069  1.4095 -4.0434
  280SOL     OW  838   1.040   1.210   0.177  0.8219  0.1092  0.4624
  280SOL    HW1  839   1.018   1.264   0.090  0.0318  3.2066 -0.6077
  280SOL    HW2  840   1.108   1.266   0.224  1.2979 -0.9299  2.3133
  281SOL     OW  841   0.469   0.283   1.524  0.1675  0.3228 -0.2003
  281SOL    HW1  842   0.497   0.349   1.596  0.3444 -0.0303 -1.3933
  281SOL    HW2  843   0.537   0.278   1.448  0.1873 -0.8881  2.8946
  282SOL     OW  844   0.208   2.502   0.585  0.2750 -0.3074 -0.3369
  282SOL    HW1  845   0.138   2.562   0.546  0.9174  2.8324  2.6774
  282SOL    HW2  846   0.184   2.401   0.569 -0.5220 -1.2945 -2.2441
  283SOL     OW  847   1.519   2.140   2.233 -0.1635  0.3076 -0.1771
  283SOL    HW1  848   1.605   2.134   2.181 -1.0370  0.4467  0.9921
  283SOL    HW2  849   1.464   2.053   2.230  2.3059 -1.0743  2.2481
  284SOL     OW  850   2.098   2.966   0.886  0.3534  0.2608 -0.1491
  284SOL    HW1  851   2.051   3.047   0.922 -2.9918 -1.4169 -1.5963
  284SOL    HW2  852   2.062   2.879   0.924 -1.2889 -0.3501  0.0425
  285SOL     OW  853   0.539   2.443   2.643 -0.7893  0.4987 -0.0565
  285SOL    HW1  854   0.521   2.393   2.558  0.3706  1.0595 -0.7050
  285SOL    HW2  855   0.619   2.499   2.631  0.5696  0.3334  1.1574
  286SOL     OW  856   3.086   2.846   0.815  0.5044 -0.0969  0.1812
  286SOL    HW1  857   2.992   2.866   0.776 -1.5105 -0.8963 -1.7260
  286SOL    HW2  858   3.079   2.818   0.912 -0.8546  0.7996 -2.2562
  287SOL     OW  859   0.675   1.344   0.784  0.1094 -0.3459  0.2104
  287SOL    HW1  860   0.720   1.430   0.767 -0.3101 -0.2163  0.2129
  287SOL    HW2  861   0.739   1.282   0.831  0.5853  0.4326  2.6454
  288SOL     OW  862   2.226   2.212   2.605 -0.2433 -0.5064  0.2025
  288SOL    HW1  863   2.259   2.176   2.512  0.4336  0.1113 -1.7101
  288SOL    HW2  864   2.164   2.292   2.589 -3.7389  0.9381  1.9096
  289SOL     OW  865   3.059   2.158   2.918  1.0674 -0.3305  0.3570
  289SOL    HW1  866   3.094   2.185   3.011 -0.1251 -2.6791 -0.9488
  289SOL    HW2  867   3.010   2.064   2.921 -0.2725 -2.9959 -0.8192
  290SOL     OW  868   1.370   1.838   1.245 -0.4096 -0.1463 -0.2268
  290SOL    HW1  869   1.461   1.846   1.200 -0.6427 -1.8112 -0.3443
  290SOL    HW2  870   1.307   1.793   1.180 -2.7821  1.5670 -2.7398
  291SOL     OW  871   1.457   1.249   3.044 -0.4640  0.0835  0.5070
  291SOL    HW1  872   1.385   1.308   3.002  1.1244  2.4382 -0.5543
  291SOL    HW2  873   1.424   1.156   3.043 -2.0833  1.9128 -0.8892
  292SOL     OW  874   0.965   1.487   0.332 -0.1751 -0.1017  0.1073
  292SOL    HW1  875   0.913   1.423   0.392 -4.6618  0.5022  0.5077
  292SOL    HW2  876   1.052   1.441   0.306 -0.0777 -1.4513  0.6058
  293SOL     OW  877   1.488   2.764   0.989  0.2591 -0.6925 -0.4163
  293SOL    HW1  878   1.474   2.763   1.089 -1.6552  0.4731 -0.4530
  293SOL    HW2  879   1.409   2.796   0.936  1.0553  2.2146 -0.2544
  294SOL     OW  880   2.087   1.335   2.914 -0.2006 -0.0780 -0.3047
  294SOL    HW1  881   2.150   1.283   2.975 -0.0943 -1.5848 -2.8420
  294SOL    HW2  882   2.002   1.370   2.957 -0.2911 -1.6158  1.1686
  295SOL     OW  883   1.840   1.911   2.971  0.5595  0.6820  0.0791
  295SOL    HW1  884   1.757   1.883   3.025  0.5709 -0.5632  1.8250
  295SOL    HW2  885   1.836   2.010   2.944 -0.0104 -2.9133 -1.0893
  296SOL     OW  886   1.857   0.575   1.965  0.0850  0.0253 -0.0051
  296SOL    HW1  887   1.838   0.651   1.905  1.1676 -2.8308  2.7626
  296SOL    HW2  888   1.921   0.601   2.043 -2.3896  1.5968  3.9794
  297SOL     OW  889   0.106   0.761   1.990 -0.3438 -0.2827 -0.0339
  297SOL    HW1  890   0.009   0.736   1.977 -0.4763  0.9614 -0.9697
  297SOL    HW2  891   0.110   0.855   2.033 -3.1437 -0.1970  0.0514
  298SOL     OW  892   1.016   1.922   1.860  0.3627 -0.1730 -0.3381
  298SOL    HW1  893   1.075   1.890   1.785  0.7856 -0.8755 -0.2040
  298SOL    HW2  894   1.069   1.985   1.925  1.4529 -3.2695  1.3989
  299SOL     OW  895   1.297   0.055   2.599 -0.2738  0.4420 -0.2314
  299SOL    HW1  896   1.392   0.079   2.577 -2.7834  0.8685  2.0265
  299SOL    HW2  897   1.247   0.009   2.520 -2.3929  0.5667  0.6554
  300SOL     OW  898   0.014   1.018   2.786  0.1613 -0.8420 -0.3988
  300SOL    HW1  899   3.062   0.931   2.798  1.3967  0.1940 -0.4960
  300SOL    HW2  900   0.113   1.006   2.802  0.4442 -0.3359 -1.4385
  301SOL     OW  901   1.786   0.875   2.629 -0.3118  0.5064  0.2324
  301SOL    HW1  902   1.727   0.866   2.544  0.7270 -1.2452 -1.4828
  301SOL    HW2  903   1.762   0.947   2.696  1.0436  0.2885  0.4045
  302SOL     OW  904   2.562   1.804   2.597 -0.6905  0.5805  0.1465
  302SOL    HW1  905   2.568   1.769   2.502 -0.0366 -3.6277 -0.7507
  302SOL    HW2  906   2.595   1.902   2.602  0.7107  0.2426 -1.1419
  303SOL     OW  907   0.426   2.201   2.772 -0.2564 -0.1185  0.0350
  303SOL    HW1  908   0.438   2.295   2.739  0.5146  0.2730  1.2861
  303SOL    HW2  909   0.335   2.170   2.739 -0.7163  0.0219 -0.9712
  304SOL     OW  910   3.034   1.204   1.521 -0.0153 -0.2987 -0.1670
  304SOL    HW1  911   0.007   1.157   1.470  0.8169  2.6597  0.7922
  304SOL    HW2  912   3.029   1.167   1.617  0.6965  4.0840 -2.0100
  305SOL     OW  913   2.365   0.720   1.963 -0.0798 -0.2674  0.1551
  305SOL    HW1  914   2.298   0.654   1.998 -0.9871  1.1664  0.4560
  305SOL    HW2  915   2.460   0.688   1.991  2.6533  0.5966  0.4818
  306SOL     OW  916   2.038   1.188   1.759  0.2591 -0.0660  1.0101
  306SOL    HW1  917   2.080   1.240   1.838  2.2662  1.5908  0.9002
  306SOL    HW2  918   1.956   1.134   1.786 -1.7952 -0.3279  0.1838
  307SOL     OW  919   2.800   3.061   1.041 -0.0138 -0.0102  0.2067
  307SOL    HW1  920   2.724   3.002   1.063  2.0050  3.0012  1.4532
  307SOL    HW2  921   2.841   0.003   1.128  1.1308  0.8670 -0.9852
  308SOL     OW  922   0.207   1.770   1.706  0.4366 -0.2627 -0.2556
  308SOL    HW1  923   0.164   1.766   1.799  1.0989  0.6291  0.5264
  308SOL    HW2  924   0.305   1.737   1.710  1.2234 -0.3113 -0.9186
  309SOL     OW  925   2.465   2.444   1.739 -0.2940  0.3305  0.5394
  309SOL    HW1  926   2.459   2.461   1.839 -2.3358  0.4121  0.0283
  309SOL    HW2  927   2.386   2.387   1.716 -0.4313  1.4468  0.3682
  310SOL     OW  928   2.244   1.545   2.737  0.2494 -0.2110  0.8750
  310SOL    HW1  929   2.154   1.595   2.725 -2.1233 -0.9028 -0.8725
  310SOL    HW2  930   2.221   1.469   2.802  0.2606  0.2248 -0.7972
  311SOL     OW  931   1.694   1.306   2.894 -0.8594 -0.4086 -0.4559
  311SOL    HW1  932   1.610   1.276   2.949  0.1416 -0.2989  1.5068
  311SOL    HW2  933   1.738   1.223   2.851  2.1922 -2.7274 -0.1204
  312SOL     OW  934   1.174   2.048   2.094 -0.4396 -0.0929  0.0502
  312SOL    HW1  935   1.235   1.975   2.140  0.7614 -5.5222 -0.6129
  312SOL    HW2  936   1.092   2.076   2.150 -0.3798 -2.5771 -3.4841
  313SOL     OW  937   0.227   0.127   0.959 -0.4195 -0.0035 -0.0831
  313SOL    HW1  938   0.195   0.202   0.898  0.2446 -0.0525 -2.1003
  313SOL    HW2  939   0.235   0.156   1.055  0.3100  0.4333 -1.0885
  314SOL     OW  940   0.420   1.941   1.039  0.4211 -0.5053 -0.5419
  314SOL    HW1  941   0.380   2.013   1.095 -0.8084 -1.2435  0.0300
  314SOL    HW2  942   0.443   1.861   1.097  0.3009 -0.3964 -0.0081
  315SOL     OW  943   0.479   2.167   2.114 -0.2776 -0.5400  0.1150
  315SOL    HW1  944   0.382   2.156   2.142 -1.4582  3.9282 -0.0335
  315SOL    HW2  945   0.500   2.261   2.080 -3.1312  1.2146 -0.2036
  316SOL     OW  946   0.170   2.546   0.846 -0.1953  0.2574 -0.3851
  316SOL    HW1  947   0.136   2.451   0.870 -0.6205 -0.8083  1.7622
  316SOL    HW2  948   0.191   2.561   0.750  0.7027 -1.5522  0.4718
  317SOL     OW  949   2.324   3.028   1.131  0.7254 -0.7819  0.3381
  317SOL    HW1  950   2.234   2.991   1.107 -0.8500 -0.2106 -0.3611
  317SOL    HW2  951   2.324   0.031   1.135 -0.4359 -0.3269 -2.7850
  318SOL     OW  952   2.227   2.374   0.235 -0.4430  0.3397  0.1861
  318SOL    HW1  953   2.259   2.322   0.150 -0.1147 -0.5845 -0.1770
  318SOL    HW2  954   2.304   2.370   0.304  2.0734  0.6511  2.6362
  319SOL     OW  955   1.322   1.621   2.846  0.1043 -0.0204 -0.0641
  319SOL    HW1  956   1.272   1.678   2.920 -1.6105  1.5749  0.8015
  319SOL    HW2  957   1.330   1.674   2.757 -0.9026  0.2451 -0.3112
  320SOL     OW  958   0.395   2.647   2.401  0.6082 -0.2456 -0.1777
  320SOL    HW1  959   0.490   2.682   2.377  0.7074  1.1644 -1.2203
  320SOL    HW2  960   0.353   2.602   2.318 -0.5288  0.7167 -1.2669
  321SOL     OW  961   0.786   2.406   3.008 -0.3277 -0.7783  0.1184
  321SOL    HW1  962   0.766   2.305   3.017  0.9504  2.4876  1.4384
  321SOL    HW2  963   0.811   2.442   3.094  0.5584  0.7420 -2.3314
  322SOL     OW  964   2.515   0.372   2.254  0.2622  0.2071  0.3851
  322SOL    HW1  965   2.492   0.290   2.194 -2.8762 -0.8675 -1.5163
  322SOL    HW2  966   2.600   0.349   2.304 -0.7690 -1.1133 -0.7207
  323SOL     OW  967   2.823   1.357   0.803 -0.1439 -0.1676 -0.0224
  323SOL    HW1  968   2.790   1.389   0.897 -4.8302  0.7216 -2.4284
  323SOL    HW2  969   2.910   1.312   0.816 -1.6601  1.4257 -0.7673
  324SOL     OW  970   0.401   0.883   1.829  0.4456 -0.5027  0.4272
  324SOL    HW1  971   0.382   0.782   1.844 -1.6134 -0.3445  3.0748
  324SOL    HW2  972   0.351   0.917   1.745 -2.8879  0.6044  1.4103
  325SOL     OW  973   0.504   0.304   1.958 -0.7214 -0.0641 -0.6271
  325SOL    HW1  974   0.464   0.347   1.875  2.1150  0.8270 -1.4375
  325SOL    HW2  975   0.441   0.306   2.036  0.4954 -0.4693  1.1046
  326SOL     OW  976   2.019   2.523   0.115 -0.1166  0.0392  0.5277
  326SOL    HW1  977   1.944   2.561   0.171  1.1523 -2.2743 -1.1127
  326SOL    HW2  978   2.068   2.454   0.171 -1.6933 -0.3067 -0.1519
  327SOL     OW  979   2.274   1.370   0.568  0.5736  0.3925 -0.4377
  327SOL    HW1  980   2.255   1.471   0.570 -1.7316  0.7785 -2.4123
  327SOL    HW2  981   2.352   1.350   0.504  2.9996 -1.8171  0.6264
  328SOL     OW  982   3.046   1.782   2.614  0.0074 -0.1625  0.4281
  328SOL    HW1  983   2.989   1.811   2.695 -0.2700  0.8558  2.6623
  328SOL    HW2  984   0.051   1.796   2.636  3.0434  3.7479 -0.0186
  329SOL     OW  985   0.448   2.003   1.402  0.2191 -0.3420 -0.1413
  329SOL    HW1  986   0.409   2.058   1.324  1.7481  3.7686 -1.9141
  329SOL    HW2  987   0.396   2.010   1.492 -0.8356 -4.0426  2.0110
  330SOL     OW  988   2.386   1.434   2.527  0.3493  0.0460  0.3379
  330SOL    HW1  989   2.327   1.483   2.587 -1.2912 -1.0425  0.1544
  330SOL    HW2  990   2.386   1.336   2.551  1.1428 -2.9668 -1.0162
  331SOL     OW  991   2.249   2.620   0.982 -0.2657 -0.2475  0.1678
  331SOL    HW1  992   2.179   2.693   1.002  0.5412  1.4704  0.2695
  331SOL    HW2  993   2.268   2.613   0.881 -1.6250 -0.4135 -1.6748
  332SOL     OW  994   0.384   2.815   0.660 -0.3385 -0.0487  0.1219
  332SOL    HW1  995   0.327   2.873   0.724 -0.4075  0.1054 -0.5480
  332SOL    HW2  996   0.457   2.756   0.703 -0.4878 -0.2922 -0.5876
  333SOL     OW  997   2.040   2.403   2.551 -0.5062  0.1531  0.8825
  333SOL    HW1  998   1.983   2.384   2.472  4.7397  0.1694  1.6480
  333SOL    HW2  999   1.978   2.439   2.624  1.1200 -0.2049 -2.3667
  334SOL     OW 1000   0.495   1.059   0.655 -0.0585  0.0803  0.3590
  334SOL    HW1 1001   0.428   1.010   0.714 -2.0447  3.3476  1.4624
  334SOL    HW2 1002   0.583   1.014   0.668 -0.6927 -1.1775  0.4805
  335SOL     OW 1003   2.889   1.856   2.421 -0.0578 -0.0015  0.3299
  335SOL    HW1 1004   2.951   1.832   2.504  0.4529  0.6361  1.8315
  335SOL    HW2 1005   2.805   1.796   2.407 -2.4466 -1.6535 -2.1254
  336SOL     OW 1006   2.357   2.889   2.058 -0.4736 -0.0164 -0.1221
  336SOL    HW1 1007   2.362   2.951   2.138 -0.9651 -0.1447 -3.2209
  336SOL    HW2 1008   2.327   2.798   2.089  0.7185 -1.5246  0.4327
  337SOL     OW 1009   0.859   1.161   0.902 -0.0039  0.1029 -0.1776
  337SOL    HW1 1010   0.946   1.106   0.896  2.6926 -2.0833 -0.2345
  337SOL    HW2 1011   0.879   1.246   0.963  1.0358  2.3566 -0.2707
  338SOL     OW 1012   0.935   1.878   1.076  0.0613  0.5973 -0.3080
  338SOL    HW1 1013   0.867   1.829   1.138 -1.9129 -2.0297 -2.0536
  338SOL    HW2 1014   0.891   1.877   0.983 -2.4534 -1.8322  0.2426
  339SOL     OW 1015   0.109   1.679   1.463  0.1266  0.1261 -0.3952
  339SOL    HW1 1016   0.133   1.742   1.538  2.1058 -2.4792  0.6651
  339SOL    HW2 1017   0.189   1.627   1.426  0.6065  1.5821  0.3307
  340SOL     OW 1018   1.176   2.873   1.634  0.0950 -0.2528  0.1061
  340SOL    HW1 1019   1.193   2.946   1.707  0.7914  1.7872  2.2009
  340SOL    HW2 1020   1.112   2.799   1.666 -1.0326 -1.9222  1.9292
  341SOL     OW 1021   1.600   1.845   1.097 -0.0850  0.0318  0.0133
  341SOL    HW1 1022   1.637   1.923   1.037  0.3912  1.2638 -0.8478
  341SOL    HW2 1023   1.681   1.791   1.133  1.4214 -1.4763 -2.2386
  342SOL     OW 1024   2.559   1.651   1.013  0.3243 -0.3878  0.1719
  342SOL    HW1 1025   2.623   1.710   0.966  2.9292 -1.5458  0.3288
  342SOL    HW2 1026   2.465   1.654   0.977  0.1246  0.3089  0.5535
  343SOL     OW 1027   2.515   0.552   1.342  0.0942 -0.1178 -0.7061
  343SOL    HW1 1028   2.553   0.489   1.414 -0.7019  1.7400  3.6286
  343SOL    HW2 1029   2.584   0.582   1.279 -1.1294  0.4829  1.2688
  344SOL     OW 1030   2.145   0.229   0.863  0.6956  0.7191 -0.3473
  344SOL    HW1 1031   2.106   0.262   0.775 -1.3166 -0.0613 -1.4050
  344SOL    HW2 1032   2.247   0.213   0.849 -0.5000  1.3835  1.0350
  345SOL     OW 1033   0.641   2.966   2.309 -0.3081 -0.3758 -0.3501
  345SOL    HW1 1034   0.546   3.001   2.291  0.0762 -1.7388 -1.2037
  345SOL    HW2 1035   0.703   2.975   2.230  1.4264  1.9621  3.4728
  346SOL     OW 1036   2.854   2.189   0.753 -0.3075  0.2283 -0.4490
  346SOL    HW1 1037   2.872   2.185   0.853 -1.7042  1.1521  0.3286
  346SOL    HW2 1038   2.760   2.206   0.741  2.6956  0.2487  2.1649
  347SOL     OW 1039   2.018   0.016   1.580 -0.2824 -0.1465 -0.0694
  347SOL    HW1 1040   2.094   3.046   1.549  1.9863  0.5642 -2.0455
  347SOL    HW2 1041   1.943   3.062   1.623 -1.2266 -1.5073 -0.7086
  348SOL     OW 1042   1.105   1.156   1.436  0.0456  0.4048 -0.2809
  348SOL    HW1 1043   1.069   1.065   1.406 -2.7050  1.7591 -3.4543
  348SOL    HW2 1044   1.025   1.222   1.451 -2.9017  2.3003  0.7844
  349SOL     OW 1045   2.156   0.468   1.738  0.5560  0.7240  0.0588
  349SOL    HW1 1046   2.071   0.431   1.780 -0.2311  0.6028  0.2421
  349SOL    HW2 1047   2.237   0.422   1.777 -1.9195  0.6100  0.3164
  350SOL     OW 1048   2.086   2.342   0.513 -0.3071  0.5148  0.3637
  350SOL    HW1 1049   2.095   2.402   0.593  3.4069  0.3303  1.3272
  350SOL    HW2 1050   2.106   2.393   0.426 -1.8335  2.1322 -2.5396
  351SOL     OW 1051   1.173   0.446   2.594 -0.3045  0.2718  0.1252
  351SOL    HW1 1052   1.183   0.354   2.641 -0.9715 -0.9697  0.2780
  351SOL    HW2 1053   1.160   0.517   2.664 -0.9168 -4.0644 -0.5679
  352SOL     OW 1054   2.034   2.548   2.013 -0.3846 -0.2037  0.4148
  352SOL    HW1 1055   2.033   2.447   1.993  0.2435 -0.5602  1.3177
  352SOL    HW2 1056   2.013   2.603   1.930 -0.8948  2.1541 -0.5397
  353SOL     OW 1057   0.529   0.898   2.307  0.1479 -0.4090  0.5342
  353SOL    HW1 1058   0.464   0.900   2.225 -2.2142  1.2156  0.1349
  353SOL    HW2 1059   0.595   0.820   2.299 -1.0445  0.8755  0.2125
  354SOL     OW 1060   0.304   2.770   2.634 -0.4145 -1.1709 -0.2989
  354SOL    HW1 1061   0.368   2.728   2.559 -1.0712  0.3724 -2.6478
  354SOL    HW2 1062   0.218   2.716   2.657 -1.2980 -0.7987  1.2011
  355SOL     OW 1063   1.998   2.776   1.065  0.2796 -0.4536 -0.4346
  355SOL    HW1 1064   2.028   2.822   1.152  0.4188  1.5414  1.0533
  355SOL    HW2 1065   1.913   2.822   1.036 -0.2367  2.7659  0.8968
  356SOL     OW 1066   2.494   0.685   0.385  0.3011  0.3934  0.0738
  356SOL    HW1 1067   2.447   0.775   0.403 -2.5617 -0.1638  1.9509
  356SOL    HW2 1068   2.458   0.620   0.454 -1.0596 -0.6423 -1.5065
  357SOL     OW 1069   0.259   0.030   1.818 -0.4484 -0.1048 -0.2618
  357SOL    HW1 1070   0.216   0.119   1.792 -0.6618  0.4166 -1.5767
  357SOL    HW2 1071   0.216   0.003   1.906  0.6093  4.9797  1.3860
  358SOL     OW 1072   2.888   1.584   1.275 -0.2092  0.2307 -0.2429
  358SOL    HW1 1073   2.947   1.665   1.263  0.8567  0.7815  2.5372
  358SOL    HW2 1074   2.793   1.600   1.309 -0.6354  0.5458 -1.3278
  359SOL     OW 1075   2.713   0.129   2.733 -0.2407  0.3419  0.0861
  359SOL    HW1 1076   2.775   0.063   2.686  1.2241 -0.4514  0.7931
  359SOL    HW2 1077   2.727   0.122   2.833  0.7221 -3.6057 -0.5454
  360SOL     OW 1078   1.310   1.028   1.020 -0.2548 -0.2176  0.8111
  360SOL    HW1 1079   1.382   1.063   0.954  0.2529  0.9363  0.6080
  360SOL    HW2 1080   1.330   0.935   1.056  3.6799 -2.6515 -2.3805
  361SOL     OW 1081   2.775   2.590   1.494  0.3204 -0.3587  0.4062
  361SOL    HW1 1082   2.839   2.568   1.570 -0.6548  0.1213 -3.9815
  361SOL    HW2 1083   2.704   2.521   1.494  0.5496  1.3603  1.0218
  362SOL     OW 1084   1.153   0.147   0.819  0.2663 -0.3741  0.2590
  362SOL    HW1 1085   1.247   0.120   0.811 -3.4507 -0.5025  1.7840
  362SOL    HW2 1086   1.142   0.193   0.916  0.4480  1.5010  3.1385
  363SOL     OW 1087   1.935   1.589   0.739 -0.0402 -0.0964 -0.0149
  363SOL    HW1 1088   2.015   1.574   0.794 -0.8536  1.9287  1.7668
  363SOL    HW2 1089   1.908   1.508   0.681 -1.9445  3.8906 -1.0795
  364SOL     OW 1090   0.842   0.828   1.676 -0.2748  0.0610  0.4436
  364SOL    HW1 1091   0.887   0.763   1.737  1.8118 -0.4570 -0.2626
  364SOL    HW2 1092   0.796   0.783   1.591 -1.9015  0.2440 -2.6494
  365SOL     OW 1093   3.051   0.207   1.133  0.3079  0.2765 -0.0913
  365SOL    HW1 1094   0.051   0.212   1.156 -2.3076  0.4052 -1.2555
  365SOL    HW2 1095   3.001   0.291   1.160  1.0354  0.2772 -1.8902
  366SOL     OW 1096   2.902   0.954   0.359 -0.1041 -0.3269 -0.4217
  366SOL    HW1 1097   2.812   0.995   0.347  3.4154 -3.0537  0.9477
  366SOL    HW2 1098   2.974   1.025   0.357  0.9851 -1.8883 -0.5526
  367SOL     OW 1099   2.200   2.077   2.196  0.1967 -0.3332 -0.2412
  367SOL    HW1 1100   2.121   2.143   2.187 -0.8696 -1.3056  3.3400
  367SOL    HW2 1101   2.261   2.107   2.270 -1.1249  0.6062  0.3043
  368SOL     OW 1102   2.471   2.074   0.849 -0.1771  0.0619  0.1773
  368SOL    HW1 1103   2.544   2.035   0.907 -2.0019 -1.2839 -1.3617
  368SOL    HW2 1104   2.399   2.001   0.830  0.5766 -2.9413 -3.6754
  369SOL     OW 1105   2.122   0.181   2.903  0.4208  0.3342  0.2183
  369SOL    HW1 1106   2.108   0.211   3.000 -0.8173  0.9862  1.5226
  369SOL    HW2 1107   2.190   0.106   2.904 -2.0123 -0.1178  2.5843
  370SOL     OW 1108   0.668   0.516   1.110 -0.0443  0.5038  0.5434
  370SOL    HW1 1109   0.575   0.482   1.086 -0.3436  2.5308  1.5348
  370SOL    HW2 1110   0.676   0.609   1.068 -1.9651  0.0795 -2.4152
  371SOL     OW 1111   0.360   1.692   0.125  0.5204 -0.3737  0.6988
  371SOL    HW1 1112   0.355   1.679   0.022 -2.9685 -1.0812 -1.3647
  371SOL    HW2 1113   0.449   1.676   0.156 -2.2565  0.5381  1.7547
  372SOL     OW 1114   0.735   0.727   2.312  0.3053 -0.0618 -0.4709
  372SOL    HW1 1115   0.731   0.623   2.318  0.4689  0.4121  0.2210
  372SOL    HW2 1116   0.799   0.764   2.380  0.2754  1.2767 -2.2556
  373SOL     OW 1117   0.904   2.831   2.665 -0.2319  0.3732 -0.0559
  373SOL    HW1 1118   0.876   2.834   2.763 -1.7822  0.6095 -0.9516
  373SOL    HW2 1119   0.840   2.894   2.618 -1.7797  0.5670  2.0698
  374SOL     OW 1120   0.957   1.771   0.382 -0.4325 -0.7162 -0.2753
  374SOL    HW1 1121   0.934   1.808   0.475 -0.0070  0.3422 -0.6826
  374SOL    HW2 1122   0.944   1.670   0.369  1.8638  0.6270  0.3876
  375SOL     OW 1123   0.993   0.686   1.862 -0.2389  0.9028 -0.7278
  375SOL    HW1 1124   0.915   0.683   1.929 -0.6958  0.4550  1.6082
  375SOL    HW2 1125   1.067   0.749   1.900  2.3895  2.7129  1.4659
  376SOL     OW 1126   3.038   2.645   1.943  0.2020 -0.2117 -0.0275
  376SOL    HW1 1127   2.954   2.679   1.992  1.2656 -0.6202 -0.5390
  376SOL    HW2 1128   0.023   2.685   1.985 -1.2677 -0.8320 -1.0684
  377SOL     OW 1129   2.593   1.666   2.818  0.2400 -0.4588  0.4726
  377SOL    HW1 1130   2.570   1.705   2.728 -1.7967  0.0457  0.8290
  377SOL    HW2 1131   2.556   1.574   2.830 -1.3112 -0.4681  1.0284
  378SOL     OW 1132   2.287   3.080   2.915  0.1449 -0.3278 -0.2903
  378SOL    HW1 1133   2.220   3.011   2.950  1.4078  0.0118  2.6256
  378SOL    HW2 1134   2.366   3.086   2.975 -0.7972  2.1315  0.9986
  379SOL     OW 1135   1.812   0.511   0.831  0.5198  0.0879  0.2417
  379SOL    HW1 1136   1.838   0.594   0.886  0.4516 -1.5694 -0.7039
  379SOL    HW2 1137   1.732   0.461   0.874 -1.6406  0.5369  1.3125
  380SOL     OW 1138   2.447   1.968   1.566  0.3213 -0.9041  0.0921
  380SOL    HW1 1139   2.365   1.930   1.612  3.3738  1.8983 -1.1180
  380SOL    HW2 1140   2.514   1.892   1.557  0.9668 -1.8846 -0.3493
  381SOL     OW 1141   2.642   1.477   2.435 -0.0673 -0.0300 -0.1171
  381SOL    HW1 1142   2.643   1.492   2.337  0.0418 -0.9142  2.1845
  381SOL    HW2 1143   2.554   1.454   2.482 -2.1268  1.3579 -2.4201
  382SOL     OW 1144   2.796   2.698   2.526  0.5496  0.2295  0.6410
  382SOL    HW1 1145   2.713   2.726   2.580  0.5000 -1.7507 -0.5079
  382SOL    HW2 1146   2.781   2.735   2.431  0.8222 -1.2200 -0.6750
  383SOL     OW 1147   0.992   1.419   0.001 -0.2076 -0.0589  0.2958
  383SOL    HW1 1148   0.986   1.394   3.003  1.1248  1.0371  0.1588
  383SOL    HW2 1149   0.911   1.459   0.034  3.6674 -0.9441  0.1839
  384SOL     OW 1150   1.591   1.960   1.600  0.5150  0.0299  0.9760
  384SOL    HW1 1151   1.677   1.948   1.652  0.2034  2.8585 -0.4778
  384SOL    HW2 1152   1.537   2.038   1.645 -1.0001 -0.1391  1.1061
  385SOL     OW 1153   1.657   2.780   0.657 -0.5610 -0.1274 -0.1813
  385SOL    HW1 1154   1.617   2.860   0.706 -2.5726 -0.1207  0.5777
  385SOL    HW2 1155   1.658   2.787   0.556  0.6755 -0.3526 -1.4794
  386SOL     OW 1156   2.030   1.260   0.606 -0.7063  0.3878  0.0792
  386SOL    HW1 1157   2.123   1.304   0.604  0.5723  1.2198 -1.8699
  386SOL    HW2 1158   1.961   1.323   0.566  0.1701  2.3672  0.6725
  387SOL     OW 1159   2.930   2.219   1.430 -0.0490 -0.3351 -0.0336
  387SOL    HW1 1160   2.900   2.259   1.519 -1.8569  2.4740  0.4947
  387SOL    HW2 1161   2.898   2.279   1.354  2.4913  1.0007  0.6902
  388SOL     OW 1162   3.017   1.077   1.758 -0.1043 -0.0477  0.3956
  388SOL    HW1 1163   3.070   1.122   1.834  2.6243 -1.6712 -1.2276
  388SOL    HW2 1164   3.058   0.998   1.716 -0.3240  1.1283 -1.5936
  389SOL     OW 1165   1.707   0.363   0.103 -0.3634  0.0751  0.2037
  389SOL    HW1 1166   1.686   0.267   0.118 -0.9790  0.6457 -3.1296
  389SOL    HW2 1167   1.720   0.417   0.188  1.7933  0.3616 -2.8609
  390SOL     OW 1168   0.929   1.782   3.030  0.2203  0.8891 -0.3092
  390SOL    HW1 1169   0.900   1.828   0.016  0.1505  2.2218  0.3191
  390SOL    HW2 1170   1.026   1.786   3.004 -2.1131 -0.4997  1.4440
  391SOL     OW 1171   1.406   2.149   0.174  0.0373  0.1331 -0.0043
  391SOL    HW1 1172   1.417   2.218   0.248  1.4002  0.7872  1.5821
  391SOL    HW2 1173   1.436   2.191   0.086  1.1749  0.6344 -2.2418
  392SOL     OW 1174   0.021   2.539   2.311  0.1068  0.2464  0.1526
  392SOL    HW1 1175   0.108   2.517   2.264  0.4758  0.9962  1.4200
  392SOL    HW2 1176   0.004   2.464   2.374  2.1006  0.7485  0.0716
  393SOL     OW 1177   1.399   1.934   0.325 -0.3695 -0.2529  0.5142
  393SOL    HW1 1178   1.469   1.948   0.396 -0.0161 -1.6441 -0.6460
  393SOL    HW2 1179   1.412   2.004   0.252  1.4952 -2.7571  0.7117
  394SOL     OW 1180   0.688   0.451   2.349 -0.1066 -0.0063 -0.6862
  394SOL    HW1 1181   0.664   0.463   2.253  1.7319 -0.4920  2.2078
  394SOL    HW2 1182   0.618   0.482   2.413 -0.5254  0.1888  0.4404
  395SOL     OW 1183   0.647   1.188   1.393 -0.1464  0.4920 -0.2051
  395SOL    HW1 1184   0.721   1.233   1.449 -1.9161 -0.5873  4.3449
  395SOL    HW2 1185   0.619   1.248   1.315  1.2275 -0.3236 -0.1979
  396SOL     OW 1186   1.907   1.127   2.450  0.0740 -0.4270 -0.3450
  396SOL    HW1 1187   1.809   1.147   2.470 -1.4560 -1.7012  0.6481
  396SOL    HW2 1188   1.965   1.172   2.521  0.6105  1.1405  0.6704
  397SOL     OW 1189   0.620   0.285   0.022  0.2127 -0.3048 -0.2470
  397SOL    HW1 1190   0.570   0.338   3.048 -0.0915  0.1689  0.7319
  397SOL    HW2 1191   0.565   0.209   0.058  1.7800  1.8633  0.4071
  398SOL     OW 1192   1.210   2.425   3.091 -0.1026  0.2307 -0.1505
  398SOL    HW1 1193   1.171   2.332   0.016 -2.0797  0.3524  0.6952
  398SOL    HW2 1194   1.184   2.505   0.052 -1.2683  0.7410 -1.9330
  399SOL     OW 1195   1.703   2.127   2.040  0.0540  0.5249 -0.3395
  399SOL    HW1 1196   1.727   2.042   1.991 -0.1328  1.8684  2.0060
  399SOL    HW2 1197   1.646   2.184   1.979  1.1357  1.1287 -1.1559
  400SOL     OW 1198   2.182   1.421   1.244  0.1674  0.1113 -0.2003
  400SOL    HW1 1199   2.152   1.382   1.154 -4.7644 -0.5385  1.8839
  400SOL    HW2 1200   2.280   1.405   1.267  2.2503  0.7044 -1.3952
  401SOL     OW 1201   1.384   1.340   0.851 -0.9354 -0.5745  0.2270
  401SOL    HW1 1202   1.387   1.432   0.896  1.4770 -1.1967 -1.5237
  401SOL    HW2 1203   1.463   1.281   0.877  0.5512 -2.6003  0.3086
  402SOL     OW 1204   3.048   2.941   2.401 -0.6216  0.2673  0.2138
  402SOL    HW1 1205   3.014   2.943   2.496 -0.1356  0.8172  2.7915
  402SOL    HW2 1206   0.047   2.912   2.391  1.1423  0.4969 -2.0227
  403SOL     OW 1207   2.616   1.766   1.508  0.2336  0.4554 -0.0206
  403SOL    HW1 1208   2.683   1.736   1.572 -0.9453 -0.9488  3.0778
  403SOL    HW2 1209   2.619   1.702   1.427 -0.1774  1.4515 -0.6389
  404SOL     OW 1210   2.274   1.740   1.584  0.6315  0.2018 -0.4696
  404SOL    HW1 1211   2.302   1.725   1.486 -1.9685  0.5555  0.2610
  404SOL    HW2 1212   2.212   1.825   1.597  2.6483  3.0763 -1.3552
  405SOL     OW 1213   2.533   0.339   2.734 -0.2151  0.1252  0.5703
  405SOL    HW1 1214   2.566   0.244   2.751 -1.3677 -1.7702  2.5750
  405SOL    HW2 1215   2.611   0.397   2.734 -4.4808  0.2063 -0.4598
  406SOL     OW 1216   0.831   1.512   2.419 -0.3641  0.4152 -0.2196
  406SOL    HW1 1217   0.761   1.579   2.447  1.5067 -1.2634  0.5185
  406SOL    HW2 1218   0.915   1.535   2.461 -0.9123  1.6955 -0.0186
  407SOL     OW 1219   1.817   2.558   0.287  0.1276 -0.2134 -0.2980
  407SOL    HW1 1220   1.789   2.606   0.374 -0.4363 -0.2219 -0.6131
  407SOL    HW2 1221   1.779   2.466   0.303  1.3175 -1.5785  2.1520
  408SOL     OW 1222   0.224   2.938   0.907 -0.0021 -0.0550  0.1345
  408SOL    HW1 1223   0.225   3.036   0.910  0.5096 -2.2057 -1.2984
  408SOL    HW2 1224   0.136   2.906   0.861 -1.1947  0.1342  0.4204
  409SOL     OW 1225   2.281   1.915   0.713  0.2733 -0.2460 -0.6663
  409SOL    HW1 1226   2.176   1.896   0.708 -3.2661  0.3583  2.1727
  409SOL    HW2 1227   2.303   1.992   0.649 -0.3722 -0.4116  0.1450
  410SOL     OW 1228   2.394   2.096   2.835 -0.3259  0.2764 -0.1965
  410SOL    HW1 1229   2.493   2.087   2.818  0.2436 -2.4627 -0.1442
  410SOL    HW2 1230   2.346   2.133   2.751  0.6362  0.3881 -2.2408
  411SOL     OW 1231   0.141   0.151   0.460 -0.5609 -0.2174 -0.1306
  411SOL    HW1 1232   0.236   0.183   0.443  0.1751 -0.9264 -0.0112
  411SOL    HW2 1233   0.136   0.100   0.549  0.4314  1.5154  0.0343
  412SOL     OW 1234   1.399   2.603   0.369  0.5252  0.8752  0.0244
  412SOL    HW1 1235   1.426   2.684   0.315 -1.4316 -0.0600  1.5072
  412SOL    HW2 1236   1.400   2.615   0.472  1.1676  0.0450  0.8611
  413SOL     OW 1237   2.129   0.476   2.132  0.0815  0.3376 -0.2402
  413SOL    HW1 1238   2.115   0.577   2.138 -1.3524  2.0650 -0.5214
  413SOL    HW2 1239   2.043   0.426   2.155 -1.5500  1.5097  0.8316
  414SOL     OW 1240   0.069   0.504   0.597  0.0348 -0.4883  0.1068
  414SOL    HW1 1241   0.154   0.545   0.638  2.6034  1.8153  0.4153
  414SOL    HW2 1242   0.074   0.514   0.495 -2.2677  0.1988 -0.6942
  415SOL     OW 1243   0.292   1.508   1.371  0.2856  0.3320 -0.1120
  415SOL    HW1 1244   0.264   1.452   1.287 -0.4374 -2.8423 -0.0906
  415SOL    HW2 1245   0.282   1.458   1.460  0.9844 -0.5923  1.0669
  416SOL     OW 1246   0.054   3.065   0.241  0.1616 -0.5480 -0.2434
  416SOL    HW1 1247   0.070   0.014   0.151  0.2468  1.7217  0.9062
  416SOL    HW2 1248   0.038   0.035   0.314 -0.8398  0.5314  1.3584
  417SOL     OW 1249   2.022   0.053   1.097  0.0011 -0.4916  0.1862
  417SOL    HW1 1250   1.975   0.057   1.191  0.8886  0.0474 -0.2322
  417SOL    HW2 1251   2.070   0.140   1.068  1.1249  0.8991 -0.4842
  418SOL     OW 1252   0.531   0.525   2.552  0.0527  0.1551 -0.2497
  418SOL    HW1 1253   0.608   0.510   2.617 -0.0604 -0.8569 -0.8258
  418SOL    HW2 1254   0.488   0.615   2.558 -0.2874 -1.7839  0.0438
  419SOL     OW 1255   0.274   0.978   0.816  0.1929 -0.2552  0.7338
  419SOL    HW1 1256   0.204   0.906   0.832 -1.1705  1.9389 -1.3749
  419SOL    HW2 1257   0.341   0.989   0.887 -1.3802  2.4013  0.1183
  420SOL     OW 1258   1.967   2.082   0.874 -0.2941  0.2700  0.5653
  420SOL    HW1 1259   1.970   1.996   0.822  1.4064 -0.6097 -0.1052
  420SOL    HW2 1260   2.030   2.077   0.950 -0.0503 -1.8474  0.6180
  421SOL     OW 1261   1.723   2.111   2.651  0.3024  0.6285 -0.5587
  421SOL    HW1 1262   1.771   2.120   2.742 -0.3153 -0.1242  1.7148
  421SOL    HW2 1263   1.643   2.042   2.653 -1.0744 -0.9357 -2.6020
  422SOL     OW 1264   2.741   0.391   0.012 -0.2785 -0.1921 -0.6377
  422SOL    HW1 1265   2.714   0.473   3.057 -0.0132 -0.5688 -0.0463
  422SOL    HW2 1266   2.710   0.399   0.108 -0.6510 -1.5399 -0.1966
  423SOL     OW 1267   1.507   1.962   0.794 -0.0897  0.3348  0.3592
  423SOL    HW1 1268   1.565   2.037   0.827 -2.2933 -0.4719 -1.4548
  423SOL    HW2 1269   1.553   1.891   0.740 -0.9834  3.7822  1.0271
  424SOL     OW 1270   0.248   1.417   1.632  0.2077  0.2582 -0.3522
  424SOL    HW1 1271   0.315   1.477   1.682  0.1161 -0.5366  0.8657
  424SOL    HW2 1272   0.169   1.402   1.694  1.6702  0.2957 -2.4954
  425SOL     OW 1273   2.723   2.648   1.775  0.0904 -0.1370  0.1952
  425SOL    HW1 1274   2.770   2.568   1.801 -1.1539  1.9150 -0.7717
  425SOL    HW2 1275   2.623   2.634   1.756 -0.9830  0.0829 -0.4608
  426SOL     OW 1276   1.874   2.762   0.442 -0.2551  0.4659  0.3980
  426SOL    HW1 1277   1.921   2.815   0.517  1.7987 -0.8447 -1.7269
  426SOL    HW2 1278   1.922   2.770   0.356 -0.2412  3.2358  1.7982
  427SOL     OW 1279   0.385   0.747   2.599  0.0348  0.0722 -0.8052
  427SOL    HW1 1280   0.433   0.838   2.580 -0.7807  2.2698 -0.0090
  427SOL    HW2 1281   0.358   0.736   2.702 -0.4429  0.0269  1.8204
  428SOL     OW 1282   2.115   1.063   0.032  0.4020  0.3874 -0.3180
  428SOL    HW1 1283   2.036   1.048   0.097 -0.2256  0.5938 -0.2572
  428SOL    HW2 1284   2.088   1.025   3.041 -1.1219 -0.7476  2.4340
  429SOL     OW 1285   2.818   0.138   0.386  0.3614  0.5836  0.0320
  429SOL    HW1 1286   2.863   0.060   0.437 -0.8240 -2.8380  0.4681
  429SOL    HW2 1287   2.885   0.207   0.371 -1.3901 -1.2679  1.7864
  430SOL     OW 1288   1.068   2.880   1.954 -0.0255  0.2954 -0.7315
  430SOL    HW1 1289   1.004   2.837   1.885 -0.5449  1.0703 -0.5653
  430SOL    HW2 1290   1.147   2.816   1.967 -2.5052 -1.2895  0.7165
  431SOL     OW 1291   3.029   1.789   1.312  0.0916  0.0463 -0.6620
  431SOL    HW1 1292   2.975   1.855   1.364  2.0746 -0.4394 -0.5044
  431SOL    HW2 1293   0.007   1.751   1.366  1.5001  0.4516  0.3485
  432SOL     OW 1294   2.106   2.850   1.799 -0.2085  0.3458  0.1910
  432SOL    HW1 1295   2.204   2.827   1.791 -1.1745 -2.1477  2.4377
  432SOL    HW2 1296   2.040   2.767   1.780 -2.2717 -1.9398  1.0418
  433SOL     OW 1297   1.165   1.839   0.186  0.4995 -0.0675  0.4039
  433SOL    HW1 1298   1.097   1.787   0.245 -2.5569 -2.3705 -1.0712
  433SOL    HW2 1299   1.230   1.887   0.244 -0.9677 -3.4663  1.1874
  434SOL     OW 1300   0.031   2.286   2.437 -0.0246 -0.2453 -0.4445
  434SOL    HW1 1301   0.127   2.321   2.458  0.3680 -0.7458 -2.4974
  434SOL    HW2 1302   3.080   2.274   2.528  1.8210  1.0914  1.5869
  435SOL     OW 1303   0.315   0.610   0.665 -0.2628 -0.0107  0.0115
  435SOL    HW1 1304   0.356   0.528   0.714  1.0853 -1.5350  3.1809
  435SOL    HW2 1305   0.383   0.651   0.601  0.4326  2.9050 -1.8612
  436SOL     OW 1306   0.313   2.474   1.750 -0.5573  0.2081 -0.1012
  436SOL    HW1 1307   0.228   2.517   1.705 -3.8422  0.6802 -0.7363
  436SOL    HW2 1308   0.389   2.455   1.682 -0.5698 -1.2232  1.3511
  437SOL     OW 1309   1.035   1.913   1.382  0.4274  0.1471 -0.1933
  437SOL    HW1 1310   1.006   1.983   1.315  1.3656  0.1159  1.0074
  437SOL    HW2 1311   1.132   1.886   1.372  0.3262 -2.1681 -1.5958
  438SOL     OW 1312   0.135   2.256   0.509 -0.2300  0.1394  0.2263
  438SOL    HW1 1313   0.203   2.197   0.462 -0.3457  0.4485  0.8162
  438SOL    HW2 1314   0.073   2.194   0.560 -1.6028  0.0260 -0.5188
  439SOL     OW 1315   0.216   0.262   1.197 -0.3263 -0.7233 -0.1750
  439SOL    HW1 1316   0.214   0.186   1.267 -0.9457 -2.2570 -2.7895
  439SOL    HW2 1317   0.251   0.357   1.224  1.5035  2.2821  2.3855
  440SOL     OW 1318   2.785   2.731   2.059 -0.0289 -0.3504  0.1448
  440SOL    HW1 1319   2.743   2.673   2.129  0.8800 -0.3543 -2.3549
  440SOL    HW2 1320   2.754   2.704   1.968  0.6069  2.4549 -0.4431
  441SOL     OW 1321   2.952   0.669   1.947  0.0790 -0.0053  0.1261
  441SOL    HW1 1322   2.896   0.585   1.961  3.0660  1.8601 -0.5785
  441SOL    HW2 1323   2.890   0.746   1.949 -0.7270 -0.3218 -2.2473
  442SOL     OW 1324   1.698   2.297   3.096 -0.3415  0.1498 -0.1902
  442SOL    HW1 1325   1.713   2.284   0.098 -1.2173 -1.9678 -0.6900
  442SOL    HW2 1326   1.608   2.349   3.084 -1.0984 -0.3764  1.2671
  443SOL     OW 1327   0.296   1.023   0.075  0.0397  0.1401 -0.3885
  443SOL    HW1 1328   0.211   0.979   0.106  0.3723 -1.1246 -2.4625
  443SOL    HW2 1329   0.341   1.070   0.151  0.0539 -2.8092 -0.0604
  444SOL     OW 1330   1.565   1.662   2.389 -0.0050  0.1446  0.3772
  444SOL    HW1 1331   1.592   1.564   2.363  1.8038 -1.0277  0.8447
  444SOL    HW2 1332   1.619   1.721   2.318  3.2208  0.7342 -3.3526
  445SOL     OW 1333   0.138   2.616   1.131 -0.1293  0.8496 -0.1833
  445SOL    HW1 1334   0.066   2.686   1.123  2.0366 -0.3301 -0.6604
  445SOL    HW2 1335   0.197   2.623   1.046  1.0353 -0.7240 -1.9619
  446SOL     OW 1336   2.349   1.353   1.554 -0.0909 -0.6078  0.7379
  446SOL    HW1 1337   2.282   1.416   1.605  0.1278  1.7973 -1.3125
  446SOL    HW2 1338   2.404   1.302   1.620  0.1694 -1.8820  1.8072
  447SOL     OW 1339   0.100   0.667   2.986 -0.4979  0.3484  0.5875
  447SOL    HW1 1340   0.094   0.721   3.070 -1.7627 -1.7786 -1.2084
  447SOL    HW2 1341   0.131   0.572   3.007 -1.4868 -0.8198  0.5623
  448SOL     OW 1342   1.471   2.144   1.737 -0.3701  0.0854 -0.3801
  448SOL    HW1 1343   1.392   2.166   1.679  2.7612 -0.2531 -1.0445
  448SOL    HW2 1344   1.482   2.218   1.806 -0.1505  0.8668  0.9373
  449SOL     OW 1345   1.231   1.495   0.553 -0.0924  0.2377 -0.7010
  449SOL    HW1 1346   1.326   1.517   0.590  1.9381  1.8988  1.3106
  449SOL    HW2 1347   1.223   1.523   0.458  1.2666 -1.8819  2.2158
  450SOL     OW 1348   2.741   2.044   1.821 -0.3299 -0.1412  0.1989
  450SOL    HW1 1349   2.803   1.964   1.842 -0.1291 -0.5373 -0.4080
  450SOL    HW2 1350   2.749   2.099   1.903  1.0021 -3.7047 -1.1161
  451SOL     OW 1351   2.841   1.395   2.943 -0.0272 -0.0732 -0.0519
  451SOL    HW1 1352   2.888   1.468   2.888 -0.8662 -0.1998  1.9118
  451SOL    HW2 1353   2.765   1.353   2.889  0.6144  0.7928 -2.1393
  452SOL     OW 1354   1.673   0.785   0.883  0.5252 -0.0098  0.5602
  452SOL    HW1 1355   1.590   0.730   0.911 -1.0935  2.5452  0.7174
  452SOL    HW2 1356   1.736   0.801   0.966  0.2245 -3.1892  2.5507
  453SOL     OW 1357   1.869   1.085   0.993  0.3929  0.4328 -0.0415
  453SOL    HW1 1358   1.960   1.041   1.021  3.3441  1.0174  1.7261
  453SOL    HW2 1359   1.788   1.064   1.059  1.2172 -0.9807 -0.1212
  454SOL     OW 1360   3.059   0.852   0.581 -0.4582 -0.3956 -0.0463
  454SOL    HW1 1361   3.042   0.753   0.606 -0.2113  1.1430  0.2853
  454SOL    HW2 1362   2.989   0.886   0.518  0.3565  0.2408 -0.4695
  455SOL     OW 1363   2.506   2.607   1.072  0.4706  0.1487  0.3791
  455SOL    HW1 1364   2.581   2.648   1.012  1.4813  1.5387  0.3500
  455SOL    HW2 1365   2.416   2.613   1.035  0.6406 -1.8423  1.7379
  456SOL     OW 1366   0.576   2.857   0.997  0.1941 -0.1011  0.1995
  456SOL    HW1 1367   0.606   2.836   1.092 -0.5379  2.1402 -0.3861
  456SOL    HW2 1368   0.487   2.909   1.006 -1.0241 -0.4060  1.2149
  457SOL     OW 1369   1.827   3.079   0.704  0.3386 -0.3198  1.2920
  457SOL    HW1 1370   1.726   3.067   0.682 -2.0587 -1.5146 -1.0900
  457SOL    HW2 1371   1.879   0.004   0.623  2.3498 -0.3407  0.9881
  458SOL     OW 1372   2.588   0.191   1.036 -0.0097 -0.7954 -0.1315
  458SOL    HW1 1373   2.633   0.112   0.992 -1.1880 -0.2947 -0.3140
  458SOL    HW2 1374   2.575   0.176   1.136  0.8743  0.6900 -0.3619
  459SOL     OW 1375   2.041   0.664   2.971  0.5009 -0.0975 -0.3485
  459SOL    HW1 1376   2.017   0.725   2.895 -0.5495  1.2623  1.6266
  459SOL    HW2 1377   2.004   0.573   2.952  1.3307  1.7839  2.2325
  460SOL     OW 1378   2.632   2.419   2.811  0.1568 -0.2871 -0.1158
  460SOL    HW1 1379   2.588   2.453   2.725  1.9463  2.5469 -0.8515
  460SOL    HW2 1380   2.684   2.495   2.857  1.0134 -1.5242 -1.3973
  461SOL     OW 1381   0.617   1.749   0.540 -0.5962  0.1555 -0.1742
  461SOL    HW1 1382   0.691   1.700   0.588 -0.7323  2.6367  1.3987
  461SOL    HW2 1383   0.617   1.719   0.442  1.3018 -0.6635 -2.7198
  462SOL     OW 1384   2.545   2.489   0.608  0.6935  0.3849  0.8936
  462SOL    HW1 1385   2.462   2.529   0.652 -0.3248 -0.3913  2.5562
  462SOL    HW2 1386   2.516   2.476   0.508  0.4420  2.0787  1.5700
  463SOL     OW 1387   2.912   0.582   0.627 -0.3395  0.1861 -0.4334
  463SOL    HW1 1388   2.877   0.519   0.696 -0.1565  1.5119 -1.0498
  463SOL    HW2 1389   2.995   0.537   0.594 -1.4537 -2.7433  1.6652
  464SOL     OW 1390   1.195   2.852   0.662 -0.3875 -0.5257 -0.1876
  464SOL    HW1 1391   1.098   2.881   0.635 -3.3049  0.0295  0.0417
  464SOL    HW2 1392   1.190   2.750   0.658 -2.8209  2.3478  0.2157
  465SOL     OW 1393   2.351   0.925   0.465  0.4854  0.1899 -0.0846
  465SOL    HW1 1394   2.262   0.909   0.513  0.2405 -1.8736  0.0191
  465SOL    HW2 1395   2.338   0.973   0.378 -0.6840  0.5632  0.2082
  466SOL     OW 1396   2.503   2.862   0.078 -0.3408 -0.3975 -0.1577
  466SOL    HW1 1397   2.467   2.958   0.069 -0.7328 -2.7668 -0.6943
  466SOL    HW2 1398   2.426   2.798   0.096 -2.5225  0.3690 -0.2664
  467SOL     OW 1399   1.094   0.898   1.351 -0.0007  0.4082  0.6070
  467SOL    HW1 1400   1.092   0.859   1.440 -1.2565 -1.9653  0.1523
  467SOL    HW2 1401   1.169   0.861   1.291  1.8100  0.9939  2.2931
  468SOL     OW 1402   0.360   0.609   2.212  0.2905 -0.2493 -0.2703
  468SOL    HW1 1403   0.460   0.593   2.198  2.0971 -2.2000  0.6003
  468SOL    HW2 1404   0.333   0.707   2.217 -0.3772 -1.6315 -0.2483
  469SOL     OW 1405   0.535   3.064   2.766  1.0286  0.5359 -0.2832
  469SOL    HW1 1406   0.510   2.968   2.798  1.3168 -2.9369  0.1289
  469SOL    HW2 1407   0.615   3.060   2.704 -0.1438 -1.2747  2.8532
  470SOL     OW 1408   2.058   1.202   2.661 -0.6588 -0.2901 -0.1258
  470SOL    HW1 1409   2.072   1.274   2.735 -3.3984 -1.5849  1.5450
  470SOL    HW2 1410   2.145   1.192   2.608 -1.4850 -1.6207 -1.8116
  471SOL     OW 1411   2.766   1.272   2.580 -0.1213 -0.5149  0.0840
  471SOL    HW1 1412   2.711   1.312   2.502 -1.9743  2.1391  0.0131
  471SOL    HW2 1413   2.714   1.273   2.673  0.1836  2.8729  0.6103
  472SOL     OW 1414   0.445   2.366   0.207  0.4741 -0.1519  0.2772
  472SOL    HW1 1415   0.443   2.379   0.310  1.7076  1.3255 -0.7133
  472SOL    HW2 1416   0.525   2.309   0.176  1.0168 -4.4316 -0.5766
  473SOL     OW 1417   0.756   0.038   2.935 -0.1265 -0.2530  0.1884
  473SOL    HW1 1418   0.667   0.007   2.892 -0.4515  1.0386  1.2727
  473SOL    HW2 1419   0.731   0.105   3.004  1.7817  0.1282 -2.6473
  474SOL     OW 1420   1.589   0.365   2.294 -0.3092  0.4823 -0.2821
  474SOL    HW1 1421   1.491   0.348   2.310 -0.6200  1.7571 -0.1396
  474SOL    HW2 1422   1.610   0.377   2.197 -1.0294  0.5607  2.3164
  475SOL     OW 1423   0.877   2.537   0.148 -0.0756  0.2928  0.7066
  475SOL    HW1 1424   0.830   2.520   0.231  2.0991  0.8356 -1.1771
  475SOL    HW2 1425   0.975   2.571   0.154  0.1746  0.8344  0.0071
  476SOL     OW 1426   0.418   1.057   1.024  0.4018  0.0058 -0.2096
  476SOL    HW1 1427   0.513   1.046   1.065  0.5773 -0.2019 -0.1244
  476SOL    HW2 1428   0.403   1.156   1.000  0.6550  4.0664  0.5594
  477SOL     OW 1429   1.513   2.173   1.197 -0.5189 -0.2079 -0.0052
  477SOL    HW1 1430   1.468   2.233   1.266 -0.0882 -1.6462  1.1947
  477SOL    HW2 1431   1.560   2.092   1.241  1.3024  0.6163 -0.1464
  478SOL     OW 1432   0.954   1.390   2.210  0.8393  0.1227 -0.7110
  478SOL    HW1 1433   1.000   1.309   2.228  1.1031  0.0361  1.6090
  478SOL    HW2 1434   0.897   1.411   2.295 -2.3997 -1.3293  0.1190
  479SOL     OW 1435   0.309   2.956   1.187  0.7211 -0.4293 -0.4793
  479SOL    HW1 1436   0.265   3.033   1.241 -0.8027  1.2960  2.4040
  479SOL    HW2 1437   0.277   2.949   1.091  0.4277  3.1118  2.7416
  480SOL     OW 1438   2.630   2.450   0.146 -1.0121 -0.0788  0.1473
  480SOL    HW1 1439   2.715   2.493   0.108  0.3075  2.2302 -0.3055
  480SOL    HW2 1440   2.574   2.417   0.067 -2.4156  0.6031 -4.2120
  481SOL     OW 1441   2.893   0.056   1.298  0.3983 -0.2815 -0.0584
  481SOL    HW1 1442   2.961   0.119   1.253  1.7653  3.4117  1.1687
  481SOL    HW2 1443   2.947   3.088   1.348 -4.1236  3.4030  1.3579
  482SOL     OW 1444   1.605   2.555   2.015  0.3676 -0.0680  0.4703
  482SOL    HW1 1445   1.631   2.631   2.077 -1.4740  2.8184  1.1555
  482SOL    HW2 1446   1.591   2.596   1.921  0.8427  1.1804 -2.1032
  483SOL     OW 1447   0.670   1.455   2.874  0.1631  0.1758  0.0724
  483SOL    HW1 1448   0.681   1.406   2.781  0.0906 -0.1646 -1.0174
  483SOL    HW2 1449   0.578   1.438   2.912 -1.3075 -0.9458 -1.5156
  484SOL     OW 1450   1.174   1.587   2.147  0.3581  0.1446 -0.1609
  484SOL    HW1 1451   1.267   1.540   2.165 -0.3770 -0.8230  1.1676
  484SOL    HW2 1452   1.096   1.524   2.158  0.3208  0.4934 -1.0290
  485SOL     OW 1453   2.737   0.136   3.007  0.0492  0.0738 -0.1625
  485SOL    HW1 1454   2.709   0.230   3.036 -1.6588 -1.5737 -1.6186
  485SOL    HW2 1455   2.792   0.082   3.077 -0.1190 -0.3271 -1.6764
  486SOL     OW 1456   1.557   3.041   0.736  0.0692  0.6642  0.1027
  486SOL    HW1 1457   1.493   3.022   0.659  0.2346  1.0618  0.6553
  486SOL    HW2 1458   1.496   3.067   0.815 -0.8730  1.6409 -1.6363
  487SOL     OW 1459   1.184   2.440   1.020 -0.3712  0.2068  0.2814
  487SOL    HW1 1460   1.158   2.339   0.996  1.5168 -4.5732 -3.1724
  487SOL    HW2 1461   1.128   2.511   0.970  0.2619 -1.6263  1.5472
  488SOL     OW 1462   2.318   1.072   0.227  0.0439  0.4533 -0.3175
  488SOL    HW1 1463   2.361   1.161   0.252  0.0472 -1.2028 -1.8356
  488SOL    HW2 1464   2.238   1.070   0.164  1.1683  0.3285  2.7618
  489SOL     OW 1465   1.396   2.802   1.259 -0.1403  0.2079 -0.0204
  489SOL    HW1 1466   1.377   2.739   1.338 -0.2390 -0.9339  1.0429
  489SOL    HW2 1467   1.323   2.868   1.263 -1.3919 -2.0717  2.5727
  490SOL     OW 1468   0.737   0.889   0.179  0.0139 -0.2144  0.2625
  490SOL    HW1 1469   0.708   0.832   0.262  0.0501 -2.4695  1.1267
  490SOL    HW2 1470   0.759   0.835   0.096 -0.2205  0.8567 -0.7350
  491SOL     OW 1471   0.908   0.021   0.796  0.4005  0.2460 -0.5897
  491SOL    HW1 1472   1.000   0.057   0.804 -0.8304 -0.1541  2.0277
  491SOL    HW2 1473   0.882   3.056   0.868  0.3798 -0.0885 -2.4332
  492SOL     OW 1474   1.370   1.404   2.195  0.1204 -0.1566  0.2609
  492SOL    HW1 1475   1.464   1.393   2.160  2.2857  0.4978 -1.9757
  492SOL    HW2 1476   1.320   1.320   2.170 -1.0059 -0.4251  2.5300
  493SOL     OW 1477   0.232   2.551   0.234 -0.7115  0.5459 -0.2941
  493SOL    HW1 1478   0.151   2.491   0.251  0.0837  2.2997 -0.1160
  493SOL    HW2 1479   0.310   2.494   0.208  2.1535  0.0777  0.1982
  494SOL     OW 1480   2.198   1.776   0.268  0.2252  0.0281 -0.4594
  494SOL    HW1 1481   2.252   1.730   0.340  3.6257 -0.5003 -0.7302
  494SOL    HW2 1482   2.206   1.729   0.180  1.6344 -1.5046  1.3474
  495SOL     OW 1483   2.783   0.867   2.826 -0.2038  0.4096  0.1487
  495SOL    HW1 1484   2.864   0.819   2.784 -1.2324  0.9746  0.3240
  495SOL    HW2 1485   2.782   0.863   2.927 -1.7256 -0.5877  0.0117
  496SOL     OW 1486   2.713   2.955   1.949 -0.3151 -0.5907 -0.3141
  496SOL    HW1 1487   2.749   2.880   2.006  3.1092  1.2668  1.1120
  496SOL    HW2 1488   2.663   2.918   1.866  2.1570  1.1255  0.7030
  497SOL     OW 1489   2.650   1.045   0.878  0.4225 -0.2045  0.8477
  497SOL    HW1 1490   2.580   0.988   0.921  1.3989  2.8242 -0.3702
  497SOL    HW2 1491   2.618   1.074   0.786 -0.0156  0.3410  1.8095
  498SOL     OW 1492   0.168   2.153   2.697 -0.1151  0.2630  0.3357
  498SOL    HW1 1493   0.102   2.156   2.774  1.6278  0.4986 -0.2764
  498SOL    HW2 1494   0.140   2.210   2.618 -2.0229  2.3314  0.1929
  499SOL     OW 1495   0.691   2.133   0.548 -0.2926  0.2950  0.2350
  499SOL    HW1 1496   0.731   2.195   0.477  1.5073  2.2077 -1.3154
  499SOL    HW2 1497   0.770   2.074   0.583 -0.5247 -1.7993 -0.7398
  500SOL     OW 1498   0.686   0.217   2.505  0.3165  0.0381  0.5521
  500SOL    HW1 1499   0.746   0.266   2.573  0.2681 -1.6947 -0.9067
  500SOL    HW2 1500   0.697   0.265   2.418  0.4861  1.0736  0.3704
  501SOL     OW 1501   1.046   0.030   1.440  0.0497  0.6328 -0.2333
  501SOL    HW1 1502   0.995   0.020   1.529 -0.1240 -1.7879  1.1526
  501SOL    HW2 1503   1.139   0.075   1.451  0.1049  0.4620  0.9232
  502SOL     OW 1504   0.050   0.368   1.919  0.1232 -0.1439  0.5967
  502SOL    HW1 1505   0.118   0.328   1.853  0.4305  0.4653 -0.8886
  502SOL    HW2 1506   0.090   0.451   1.964  1.1095 -2.9637 -1.8992
  503SOL     OW 1507   2.171   1.803   2.299  0.4576  0.1488  0.1374
  503SOL    HW1 1508   2.188   1.889   2.247  1.9013  0.5078 -0.1720
  503SOL    HW2 1509   2.215   1.815   2.392 -2.5715 -0.6206  0.8826
  504SOL     OW 1510   1.803   0.723   1.742 -0.3959  0.4399 -0.2387
  504SOL    HW1 1511   1.838   0.790   1.677 -0.9792 -2.4200 -1.2200
  504SOL    HW2 1512   1.804   0.630   1.697 -1.5081  1.0027  1.1275
  505SOL     OW 1513   2.753   1.044   1.784 -0.1943 -0.0491  0.4153
  505SOL    HW1 1514   2.851   1.058   1.795 -0.8569  2.3686 -0.9267
  505SOL    HW2 1515   2.736   0.969   1.713 -0.1591 -0.7707 -1.1359
  506SOL     OW 1516   0.462   1.395   2.434 -0.0581 -0.0872 -0.3061
  506SOL    HW1 1517   0.386   1.353   2.383  0.3242 -2.0796 -3.4975
  506SOL    HW2 1518   0.515   1.460   2.375 -1.2074 -2.3484 -1.3151
  507SOL     OW 1519   0.225   2.885   2.357  0.1874  0.0539  0.4273
  507SOL    HW1 1520   0.295   2.949   2.317  5.4932 -0.0196  1.4174
  507SOL    HW2 1521   0.268   2.793   2.379  0.3853 -0.5711  2.5664
  508SOL     OW 1522   1.326   0.810   1.200 -0.1318 -0.1297 -0.2702
  508SOL    HW1 1523   1.403   0.854   1.246  0.7993  1.6161 -0.0566
  508SOL    HW2 1524   1.336   0.712   1.189 -1.8519  0.1932  2.5688
  509SOL     OW 1525   0.823   1.670   1.235  0.2470  0.0471  0.0160
  509SOL    HW1 1526   0.731   1.710   1.238  1.6506  1.7001  0.5844
  509SOL    HW2 1527   0.877   1.683   1.322 -0.0404  2.6911  1.8179
  510SOL     OW 1528   2.579   1.004   2.715  0.1853  0.1716  0.2573
  510SOL    HW1 1529   2.584   0.993   2.613  0.7131 -0.3108  0.5606
  510SOL    HW2 1530   2.663   0.961   2.758 -2.5819  1.0724 -0.2649
  511SOL     OW 1531   0.479   1.702   1.174 -0.2739  0.2372  0.3543
  511SOL    HW1 1532   0.387   1.662   1.195  0.2844 -1.7388 -2.3015
  511SOL    HW2 1533   0.518   1.730   1.265  0.3949 -2.3131 -1.0730
  512SOL     OW 1534   2.700   2.355   1.036  0.0656  0.1423 -0.1874
  512SOL    HW1 1535   2.658   2.440   1.004 -2.5814  0.5358  0.2154
  512SOL    HW2 1536   2.634   2.295   1.079 -2.4057 -1.7652 -3.6056
  513SOL     OW 1537   0.156   1.400   3.059 -0.2999  0.1553  0.0946
  513SOL    HW1 1538   0.087   1.351   2.998 -1.9160 -2.3397  1.5030
  513SOL    HW2 1539   0.248   1.403   3.014 -3.6444  0.3592 -0.9357
  514SOL     OW 1540   0.104   2.500   2.977 -0.6857  0.2747 -0.1302
  514SOL    HW1 1541   0.062   2.419   3.019  0.2329  1.1591  0.9777
  514SOL    HW2 1542   0.204   2.505   3.012  0.9884  0.4656  1.4420
  515SOL     OW 1543   1.623   1.115   2.215 -0.1255  0.2341 -0.0538
  515SOL    HW1 1544   1.622   1.190   2.142 -1.0852  0.1703 -2.9437
  515SOL    HW2 1545   1.586   1.148   2.301  2.2269 -1.5773 -1.2956
  516SOL     OW 1546   2.178   2.027   0.200  0.8874 -0.1601 -0.0193
  516SOL    HW1 1547   2.173   1.928   0.225 -0.3875  2.7766  0.5012
  516SOL    HW2 1548   2.249   2.045   0.125  3.0052 -0.3472  0.6432
  517SOL     OW 1549   1.332   1.197   0.405 -0.6370 -0.0167  0.2067
  517SOL    HW1 1550   1.402   1.194   0.481  2.1018  0.3376 -0.8508
  517SOL    HW2 1551   1.247   1.151   0.433  0.2468  0.2829  1.1565
  518SOL     OW 1552   2.292   2.660   2.154 -0.4522  0.0877  0.7731
  518SOL    HW1 1553   2.307   2.600   2.235 -0.8884  0.2476  1.1148
  518SOL    HW2 1554   2.220   2.617   2.099  1.4725  2.5580 -0.5176
  519SOL     OW 1555   1.809   2.356   1.459 -0.3456  0.6091  0.2582
  519SOL    HW1 1556   1.803   2.342   1.356  1.6745 -2.3499 -1.3699
  519SOL    HW2 1557   1.727   2.405   1.494  2.4232  0.2371  1.6697
  520SOL     OW 1558   2.531   2.571   2.616 -0.3071 -0.0091  0.8355
  520SOL    HW1 1559   2.540   2.666   2.653  1.5442  2.5295 -0.0875
  520SOL    HW2 1560   2.449   2.571   2.558  0.9481  1.5056 -0.4019
  521SOL     OW 1561   0.311   1.234   2.047 -0.1270  0.0979 -0.1615
  521SOL    HW1 1562   0.300   1.191   2.136  1.2729 -0.8157  0.1996
  521SOL    HW2 1563   0.331   1.331   2.062 -1.2670 -0.2942  0.8555
  522SOL     OW 1564   1.069   0.226   1.804  1.5965  0.3705 -0.1866
  522SOL    HW1 1565   1.142   0.176   1.854 -0.2213  0.1366  1.4635
  522SOL    HW2 1566   1.105   0.313   1.768  1.2927  0.0701  0.6508
  523SOL     OW 1567   0.459   2.421   0.841 -0.5425  0.6950  0.3197
  523SOL    HW1 1568   0.476   2.332   0.795  1.6466  1.0491 -1.1399
  523SOL    HW2 1569   0.366   2.455   0.824  0.9446  0.0115  2.2741
  524SOL     OW 1570   1.443   2.600   0.650  0.0194  0.1589  0.1054
  524SOL    HW1 1571   1.521   2.661   0.672  1.4226 -0.4788  2.0555
  524SOL    HW2 1572   1.464   2.508   0.691  1.1052 -3.2106  0.7835
  525SOL     OW 1573   2.141   1.054   1.327 -0.2368 -0.1515 -0.5018
  525SOL    HW1 1574   2.227   1.010   1.373  1.3952  0.1185  0.5073
  525SOL    HW2 1575   2.121   1.153   1.347 -0.7814 -0.6056  0.9708
  526SOL     OW 1576   0.937   2.545   0.804 -0.0013 -0.5843 -0.0430
  526SOL    HW1 1577   0.864   2.593   0.744 -0.7947 -1.7801  0.0812
  526SOL    HW2 1578   1.025   2.552   0.753 -2.1332  0.8568  0.3052
  527SOL     OW 1579   2.460   2.175   0.393  0.0128  0.6467 -0.1898
  527SOL    HW1 1580   2.515   2.206   0.471  0.9959 -3.4686 -1.9410
  527SOL    HW2 1581   2.367   2.140   0.425 -0.2383 -1.0833 -3.3618
  528SOL     OW 1582   2.155   0.576   0.434 -0.5912 -0.2503 -0.5791
  528SOL    HW1 1583   2.141   0.660   0.383 -0.7052 -1.8338  1.1333
  528SOL    HW2 1584   2.068   0.544   0.471 -1.5118  2.7360  2.6378
  529SOL     OW 1585   1.224   1.312   2.469  0.3807 -0.1064  0.3438
  529SOL    HW1 1586   1.290   1.268   2.530 -3.1433 -0.3247  1.2976
  529SOL    HW2 1587   1.260   1.403   2.439  1.4761  2.4290  0.6397
  530SOL     OW 1588   2.452   0.600   0.118  0.1792  0.4133  0.2412
  530SOL    HW1 1589   2.527   0.605   0.049  1.1434  1.7394  0.0850
  530SOL    HW2 1590   2.484   0.617   0.213 -3.0616 -2.4830 -0.3909
  531SOL     OW 1591   1.066   0.945   3.081 -0.9158 -0.2397 -0.1363
  531SOL    HW1 1592   1.024   1.006   0.048  1.9404 -2.4283  0.0013
  531SOL    HW2 1593   1.041   0.971   2.979 -1.2164 -0.0431 -1.2934
  532SOL     OW 1594   1.806   0.356   1.091  0.6060 -0.0846  0.5414
  532SOL    HW1 1595   1.909   0.369   1.093  1.0766 -0.5923 -0.2993
  532SOL    HW2 1596   1.781   0.278   1.031 -0.8470  1.2990  0.4834
  533SOL     OW 1597   1.310   0.959   2.175  0.0702  0.8045 -0.0591
  533SOL    HW1 1598   1.259   0.995   2.256 -1.1808 -0.1054  4.3084
  533SOL    HW2 1599   1.332   1.032   2.111 -0.2633 -0.3790  0.4362
  534SOL     OW 1600   1.942   0.449   2.549  0.4772  0.1419  0.3995
  534SOL    HW1 1601   2.017   0.508   2.586 -0.0034  0.4364  0.9702
  534SOL    HW2 1602   1.946   0.359   2.589  2.5069  0.6542 -4.2397
  535SOL     OW 1603   0.427   0.256   0.336 -0.0867 -0.0120  0.1997
  535SOL    HW1 1604   0.367   0.308   0.272  0.4338  1.9100  1.2625
  535SOL    HW2 1605   0.480   0.179   0.289  1.2114 -0.3546  0.4198
  536SOL     OW 1606   0.831   2.951   0.991  0.4483 -0.6685 -0.0104
  536SOL    HW1 1607   0.744   2.909   0.974  0.2578 -0.1406 -0.7658
  536SOL    HW2 1608   0.903   2.891   1.031 -0.1039 -0.8120 -1.0689
  537SOL     OW 1609   1.553   1.075   0.892 -0.2607 -0.2800 -0.0992
  537SOL    HW1 1610   1.602   1.004   0.845 -1.1768 -0.9966  1.4534
  537SOL    HW2 1611   1.583   1.077   0.989 -1.9680 -1.3779  0.6627
  538SOL     OW 1612   2.858   2.148   0.074 -0.1857 -0.8668  0.2388
  538SOL    HW1 1613   2.856   2.058   0.027  0.7859 -2.2830  0.3040
  538SOL    HW2 1614   2.953   2.179   0.080 -1.6707  0.3732  3.6690
  539SOL     OW 1615   2.560   1.780   0.096 -0.1597  0.2606 -0.3694
  539SOL    HW1 1616   2.510   1.750   0.013  0.4934  2.0065 -0.1134
  539SOL    HW2 1617   2.547   1.881   0.109 -0.0553 -0.4951 -3.4818
  540SOL     OW 1618   0.253   2.889   1.565 -0.8185 -0.4085  0.0519
  540SOL    HW1 1619   0.272   2.826   1.491  2.2933  0.4069  0.8427
  540SOL    HW2 1620   0.302   2.980   1.558 -0.9850  2.4521  1.7362
  541SOL     OW 1621   2.350   3.033   1.826 -0.0110  0.4822  0.5021
  541SOL    HW1 1622   2.348   2.986   1.917 -1.2234 -1.8741  0.4750
  541SOL    HW2 1623   2.260   3.083   1.818 -0.7608 -1.8967 -1.8966
  542SOL     OW 1624   2.785   0.297   2.308  0.1220  0.3528  0.1834
  542SOL    HW1 1625   2.856   0.291   2.379 -0.0833 -1.9848 -1.6623
  542SOL    HW2 1626   2.819   0.281   2.217 -1.4394 -0.2454  3.7351
  543SOL     OW 1627   0.718   0.538   0.694  0.3887  0.0125  0.0305
  543SOL    HW1 1628   0.718   0.593   0.607 -2.4096 -0.0786 -1.2044
  543SOL    HW2 1629   0.697   0.435   0.682  2.6334  0.0668  0.7215
  544SOL     OW 1630   2.987   2.759   1.080  0.6982 -0.2956  0.1655
  544SOL    HW1 1631   2.920   2.800   1.145  1.2878 -1.4711  0.6006
  544SOL    HW2 1632   2.953   2.673   1.043 -1.2435 -0.3774  3.8127
  545SOL     OW 1633   1.242   2.018   0.841  0.0089 -0.0716  0.0219
  545SOL    HW1 1634   1.197   2.006   0.750 -0.6619 -1.4169  0.8447
  545SOL    HW2 1635   1.344   2.003   0.832  1.6961 -2.2226  0.4587
  546SOL     OW 1636   2.159   0.113   1.771 -0.1227 -0.1019 -0.1950
  546SOL    HW1 1637   2.099   0.133   1.847  0.9418 -1.1795  0.9669
  546SOL    HW2 1638   2.103   0.077   1.697  0.9691 -1.6366  1.3943
  547SOL     OW 1639   0.332   0.308   2.172  0.2679  0.3629 -0.9109
  547SOL    HW1 1640   0.355   0.407   2.182 -2.2448 -3.5662  0.1894
  547SOL    HW2 1641   0.270   0.279   2.253  1.9947  2.2089  0.6707
  548SOL     OW 1642   2.062   1.742   2.727 -0.7565 -0.0688  0.2445
  548SOL    HW1 1643   2.042   1.749   2.830  1.0164 -1.2777  0.1604
  548SOL    HW2 1644   2.033   1.825   2.678  1.8935  0.3499 -3.5381
  549SOL     OW 1645   0.024   0.890   0.859 -0.2362 -0.2542 -0.2259
  549SOL    HW1 1646   0.023   0.893   0.756  1.1734 -1.3995 -0.2718
  549SOL    HW2 1647   3.027   0.919   0.894 -2.2675  1.2500 -0.1728
  550SOL     OW 1648   1.631   1.796   0.580  0.5075  0.1513  0.4576
  550SOL    HW1 1649   1.671   1.739   0.504  2.5001  1.8221 -0.2871
  550SOL    HW2 1650   1.615   1.898   0.560  2.0684  2.7957  0.0425
  551SOL     OW 1651   0.837   0.333   1.031  0.1043 -0.3838 -0.2723
  551SOL    HW1 1652   0.787   0.243   1.020 -1.3262  1.2613 -0.1493
  551SOL    HW2 1653   0.766   0.403   1.055  0.8870  0.0058  0.0953
  552SOL     OW 1654   2.475   2.467   2.025  0.4227  0.2475 -0.0830
  552SOL    HW1 1655   2.421   2.546   2.056  1.2694  1.7824  0.8373
  552SOL    HW2 1656   2.457   2.387   2.084  1.5938  0.8948 -2.3035
  553SOL     OW 1657   3.009   3.098   2.700 -0.0982  0.2294 -0.4482
  553SOL    HW1 1658   2.993   2.999   2.721  2.1826  0.4946 -0.6865
  553SOL    HW2 1659   3.096   0.021   2.738 -0.8579 -0.9764 -1.2525
  554SOL     OW 1660   0.982   2.614   1.281  0.3549 -0.1003  0.1030
  554SOL    HW1 1661   0.957   2.641   1.374  2.5591  2.7027 -1.6390
  554SOL    HW2 1662   1.058   2.539   1.283  1.1242 -1.9514  0.5629
  555SOL     OW 1663   2.354   2.746   1.723  0.3347 -0.0571 -0.0907
  555SOL    HW1 1664   2.381   2.661   1.669  1.7523  2.5273 -1.2743
  555SOL    HW2 1665   2.441   2.778   1.763  0.2737 -1.2849 -0.9718
  556SOL     OW 1666   1.152   0.200   2.767 -0.4662  0.1473  0.0517
  556SOL    HW1 1667   1.222   0.138   2.718  2.0129 -3.2200 -0.8080
  556SOL    HW2 1668   1.152   0.173   2.864  0.0793  1.9499 -0.5430
  557SOL     OW 1669   0.072   1.784   2.303 -0.3374  0.3791 -0.1573
  557SOL    HW1 1670   0.142   1.766   2.379 -1.0104 -0.0874  0.5964
  557SOL    HW2 1671   0.031   1.873   2.307  3.3976  0.5481 -2.3092
  558SOL     OW 1672   2.294   1.142   2.558  0.2928  0.1626 -0.5069
  558SOL    HW1 1673   2.316   1.094   2.473  2.8994  1.4566 -1.1078
  558SOL    HW2 1674   2.343   1.092   2.633 -0.1022  0.0062 -1.0284
  559SOL     OW 1675   2.458   2.122   1.880 -0.4029 -0.6174 -0.0753
  559SOL    HW1 1676   2.520   2.055   1.837 -1.5525  3.1585  0.0206
  559SOL    HW2 1677   2.417   2.177   1.808  1.6979 -1.7367  1.2702
  560SOL     OW 1678   3.029   0.614   2.370 -0.2266 -0.6640  0.6316
  560SOL    HW1 1679   2.935   0.650   2.345  0.0779 -1.4040  0.1862
  560SOL    HW2 1680   3.082   0.586   2.285  0.5449 -2.0243  1.0645
  561SOL     OW 1681   0.678   0.473   0.239  0.7701 -0.4941  0.3063
  561SOL    HW1 1682   0.649   0.397   0.179 -2.0520  0.4447  1.8151
  561SOL    HW2 1683   0.771   0.476   0.264 -2.4747 -0.1988 -1.3128
  562SOL     OW 1684   1.083   1.506   1.522  0.1928  0.1547 -0.3607
  562SOL    HW1 1685   1.041   1.548   1.606  0.8233 -1.6578  2.3433
  562SOL    HW2 1686   1.019   1.447   1.466  2.1121  1.3235  0.6781
  563SOL     OW 1687   1.494   2.740   3.061 -0.2010 -0.0539  0.6241
  563SOL    HW1 1688   1.474   2.779   0.057 -1.6147 -1.3544 -1.7549
  563SOL    HW2 1689   1.410   2.762   3.008  1.0614  0.3957  2.2424
  564SOL     OW 1690   0.134   2.041   0.889  0.3071  0.0479  0.0626
  564SOL    HW1 1691   0.127   2.008   0.985 -1.9120  1.7465 -3.2643
  564SOL    HW2 1692   0.213   2.002   0.838  0.5974 -0.0778  3.5431
  565SOL     OW 1693   0.701   2.289   2.409  0.3801 -0.2612 -0.8618
  565SOL    HW1 1694   0.639   2.252   2.332 -2.2968 -0.2704 -0.7542
  565SOL    HW2 1695   0.764   2.362   2.379  1.4944 -0.6050 -0.3037
  566SOL     OW 1696   1.235   2.592   2.259 -0.3234 -0.1970  0.4737
  566SOL    HW1 1697   1.294   2.509   2.251  0.1523 -1.7937 -0.1296
  566SOL    HW2 1698   1.244   2.653   2.174  1.9308  3.8651 -0.4348
  567SOL     OW 1699   2.246   2.266   0.797 -0.3749  0.2376 -0.3384
  567SOL    HW1 1700   2.184   2.196   0.757  1.2012  1.3305 -3.0434
  567SOL    HW2 1701   2.331   2.215   0.823 -1.3102  0.0701  0.6506
  568SOL     OW 1702   2.048   0.833   0.318 -0.1067  0.2803 -0.5431
  568SOL    HW1 1703   1.982   0.900   0.272  0.2832 -3.4147 -0.0351
  568SOL    HW2 1704   2.054   0.862   0.420 -0.3095  2.5629  0.6494
  569SOL     OW 1705   0.053   1.436   2.643 -0.4200 -0.2963  0.2549
  569SOL    HW1 1706   3.077   1.473   2.585 -1.2572 -0.1850 -1.3539
  569SOL    HW2 1707   0.051   1.339   2.633  1.1065  3.0755 -1.2430
  570SOL     OW 1708   3.033   3.014   1.470  0.4243  0.0102 -0.1186
  570SOL    HW1 1709   3.022   3.053   1.563 -0.5305  2.7969  0.4979
  570SOL    HW2 1710   3.042   2.914   1.474 -1.4221  1.1969  1.0605
  571SOL     OW 1711   0.039   0.593   1.686 -0.1548 -0.0817  0.0836
  571SOL    HW1 1712   0.049   0.519   1.613  0.4080 -3.5439 -2.5214
  571SOL    HW2 1713   3.046   0.590   1.729  0.5986 -0.7996  0.4464
  572SOL     OW 1714   2.938   2.499   0.959 -0.2261  0.1132 -0.6527
  572SOL    HW1 1715   2.876   2.423   0.987 -0.7757  2.7692  0.1412
  572SOL    HW2 1716   3.034   2.474   0.939  2.7901  0.9760  0.3248
  573SOL     OW 1717   0.716   0.665   0.004 -0.2305  0.8198 -0.4414
  573SOL    HW1 1718   0.683   0.585   0.059  1.3518 -1.7489  2.1924
  573SOL    HW2 1719   0.641   0.719   3.066 -0.1302  0.2864 -0.2138
  574SOL     OW 1720   2.835   2.575   2.934  1.1313  0.0392  0.0085
  574SOL    HW1 1721   2.790   2.669   2.940  0.2416 -0.7591 -0.0769
  574SOL    HW2 1722   2.856   2.544   3.028 -2.0694  1.5714  1.3520
  575SOL     OW 1723   0.992   2.116   1.220  0.5807  0.4190 -0.0923
  575SOL    HW1 1724   0.975   2.027   1.172 -0.5676  0.5955 -1.7101
  575SOL    HW2 1725   1.067   2.174   1.178  2.0104  0.2435  0.4997
  576SOL     OW 1726   0.170   0.049   1.356  0.7772  0.2061 -0.3405
  576SOL    HW1 1727   0.232   0.063   1.434 -2.1410  0.0741  0.0232
  576SOL    HW2 1728   0.093   3.085   1.384 -3.4905 -2.2948 -0.0158
  577SOL     OW 1729   2.109   1.537   0.920 -0.2026 -0.6183 -0.2976
  577SOL    HW1 1730   2.103   1.438   0.948  1.0390  1.3015  1.6158
  577SOL    HW2 1731   2.205   1.575   0.910  0.2286  1.0040 -0.9103
  578SOL     OW 1732   1.624   0.078   0.092  0.0973 -0.7180 -0.1885
  578SOL    HW1 1733   1.635   0.030   0.005  1.4408  2.4579  1.2889
  578SOL    HW2 1734   1.645   0.018   0.169 -0.2820  0.3495  1.9867
  579SOL     OW 1735   2.961   1.527   2.497  0.3179  0.1669 -0.3881
  579SOL    HW1 1736   2.972   1.628   2.505  0.0664 -1.2739 -0.0870
  579SOL    HW2 1737   2.866   1.491   2.488 -1.1001  0.8423 -2.1964
  580SOL     OW 1738   1.539   0.892   1.380  0.1505  0.1122  0.4248
  580SOL    HW1 1739   1.492   0.949   1.447  0.7835  0.0393  1.3324
  580SOL    HW2 1740   1.523   0.789   1.390  1.7174 -0.9475  0.4256
  581SOL     OW 1741   0.889   1.306   1.492  1.0428  0.1841  0.1579
  581SOL    HW1 1742   0.842   1.382   1.540  1.9709 -1.0581 -0.5086
  581SOL    HW2 1743   0.907   1.233   1.558  1.4651 -0.2163 -2.6137
  582SOL     OW 1744   0.118   3.074   2.033  0.1389 -0.2519 -0.4414
  582SOL    HW1 1745   0.090   0.006   2.129 -0.5427  2.6173  2.2447
  582SOL    HW2 1746   0.037   3.041   1.977 -2.0858 -0.5845  1.5456
  583SOL     OW 1747   2.120   0.683   1.580  0.5007  0.3227  0.0196
  583SOL    HW1 1748   2.122   0.630   1.669  1.5367 -0.9609  0.3681
  583SOL    HW2 1749   2.218   0.697   1.554  0.3176 -0.0653  2.3688
  584SOL     OW 1750   1.489   2.011   2.916 -0.5244 -0.1054  0.5045
  584SOL    HW1 1751   1.552   1.976   2.844  0.5500 -1.2642 -4.2635
  584SOL    HW2 1752   1.444   2.099   2.896  0.0419  0.5330 -2.2610
  585SOL     OW 1753   0.594   2.853   0.236 -0.3565 -0.0500  0.7172
  585SOL    HW1 1754   0.503   2.813   0.260  1.6336  0.6972 -0.8577
  585SOL    HW2 1755   0.609   2.861   0.133  1.3656  2.1043 -1.0349
  586SOL     OW 1756   1.639   2.294   2.433  0.5789  0.4321 -0.0720
  586SOL    HW1 1757   1.666   2.248   2.521 -0.4944  1.4525 -0.2658
  586SOL    HW2 1758   1.581   2.237   2.370 -1.7613  1.7508 -0.1044
  587SOL     OW 1759   2.726   1.992   0.457  0.3450 -0.2119  0.4362
  587SOL    HW1 1760   2.679   2.032   0.376 -0.2757  0.1579 -0.1103
  587SOL    HW2 1761   2.719   2.061   0.531 -0.7315 -0.5049  2.0090
  588SOL     OW 1762   2.294   0.199   1.212  0.0855  0.0749 -0.6874
  588SOL    HW1 1763   2.276   0.193   1.311 -2.0815 -1.6502 -0.3100
  588SOL    HW2 1764   2.304   0.292   1.178 -0.0622 -0.6681 -0.0682
  589SOL     OW 1765   0.954   0.535   0.293  0.2787 -0.5207  0.4629
  589SOL    HW1 1766   1.042   0.536   0.348 -2.5797  1.4928  1.8720
  589SOL    HW2 1767   0.973   0.547   0.196 -1.3001 -2.3651 -1.4629
  590SOL     OW 1768   2.334   1.644   0.458  0.1388  0.1694  0.2228
  590SOL    HW1 1769   2.405   1.636   0.383 -0.4600  0.0284  0.1792
  590SOL    HW2 1770   2.384   1.634   0.550  3.1104  0.9021  0.9169
  591SOL     OW 1771   0.336   2.707   1.331  0.4988 -0.1997  0.7626
  591SOL    HW1 1772   0.339   2.791   1.272  0.4547  1.0081 -0.7812
  591SOL    HW2 1773   0.270   2.632   1.299 -0.4652 -2.8727  1.1138
  592SOL     OW 1774   0.833   0.920   1.318  0.4109 -0.0058  0.0122
  592SOL    HW1 1775   0.808   0.980   1.396  1.0566  1.4925  1.1922
  592SOL    HW2 1776   0.932   0.891   1.316  0.8615 -0.4900 -2.0557
  593SOL     OW 1777   0.665   1.382   1.195  0.4492 -0.4304 -0.0595
  593SOL    HW1 1778   0.759   1.361   1.169 -2.4204 -0.1591  1.8138
  593SOL    HW2 1779   0.652   1.480   1.222  2.3620 -1.5927  1.5490
  594SOL     OW 1780   0.788   1.908   0.167 -0.0368 -0.0335 -0.1380
  594SOL    HW1 1781   0.701   1.951   0.187  1.5842  0.4575 -2.2261
  594SOL    HW2 1782   0.814   1.855   0.248  1.2766 -2.9958 -2.4191
  595SOL     OW 1783   1.561   0.319   1.229  0.2844 -0.2132 -0.5172
  595SOL    HW1 1784   1.485   0.381   1.198 -2.2256  0.4803 -1.5802
  595SOL    HW2 1785   1.646   0.334   1.179  2.1797  1.8561 -0.0678
  596SOL     OW 1786   2.997   1.694   0.946 -0.0161 -0.2943  0.0460
  596SOL    HW1 1787   2.952   1.619   0.996  3.9395 -0.6663 -0.3688
  596SOL    HW2 1788   3.045   1.661   0.861  0.6038 -2.3725 -0.0571
  597SOL     OW 1789   0.102   2.565   2.699 -0.7028 -0.1344 -0.2843
  597SOL    HW1 1790   0.007   2.541   2.671 -2.6693  0.4937  3.8432
  597SOL    HW2 1791   0.105   2.558   2.798  1.3756  0.6876 -0.8871
  598SOL     OW 1792   2.801   2.104   2.347 -0.3258 -0.7731 -0.2717
  598SOL    HW1 1793   2.826   2.018   2.395  1.1247  2.8867  0.4686
  598SOL    HW2 1794   2.772   2.181   2.410 -0.4147  0.3271  1.3022
  599SOL     OW 1795   0.922   0.283   0.037  0.5369 -0.1073  0.0082
  599SOL    HW1 1796   0.824   0.282   0.037  1.4377  1.4335  0.9593
  599SOL    HW2 1797   0.966   0.374   0.034 -2.6315 -0.0776 -0.9653
  600SOL     OW 1798   0.674   2.574   0.379 -0.1511 -0.2742  0.3394
  600SOL    HW1 1799   0.648   2.652   0.320  2.8537  0.3452  0.9402
  600SOL    HW2 1800   0.589   2.525   0.396 -0.6161 -2.0364 -3.4230
  601SOL     OW 1801   0.466   0.853   1.359  0.0609 -0.2314 -0.0717
  601SOL    HW1 1802   0.556   0.887   1.338 -0.2042 -3.4468 -1.8420
  601SOL    HW2 1803   0.420   0.806   1.281  0.4022 -0.2038  1.2170
  602SOL     OW 1804   0.577   2.677   0.795  0.4824  0.5054  0.3129
  602SOL    HW1 1805   0.547   2.588   0.831 -0.0045 -0.5225  0.6975
  602SOL    HW2 1806   0.585   2.747   0.867 -1.0930  1.2030 -0.6340
  603SOL     OW 1807   0.995   3.009   2.197 -0.5841  0.5566  0.0042
  603SOL    HW1 1808   1.038   2.965   2.119  0.6347  1.1162 -1.3363
  603SOL    HW2 1809   0.932   3.083   2.163  0.9993 -0.5139 -2.0782
  604SOL     OW 1810   0.832   2.532   1.917  0.1995 -0.1972  0.1266
  604SOL    HW1 1811   0.773   2.467   1.859  2.4129 -2.1360 -1.8569
  604SOL    HW2 1812   0.769   2.589   1.978  0.9128  2.7653 -1.4073
  605SOL     OW 1813   2.032   0.731   2.153 -0.0525  0.0596  0.7052
  605SOL    HW1 1814   2.027   0.804   2.077 -0.0400  2.6327 -2.0366
  605SOL    HW2 1815   2.011   0.775   2.245 -0.8130  1.2428  1.0207
  606SOL     OW 1816   2.398   3.004   2.691 -0.3879 -0.1657  0.6265
  606SOL    HW1 1817   2.351   3.048   2.767  2.9887  1.2709 -2.0407
  606SOL    HW2 1818   2.439   3.071   2.625 -1.4050 -0.1586  0.6780
  607SOL     OW 1819   0.898   0.578   1.295  0.6402  0.1785  0.1230
  607SOL    HW1 1820   0.840   0.577   1.214 -0.4018 -1.7400  2.5409
  607SOL    HW2 1821   0.840   0.604   1.376 -0.5867 -1.5659  0.6883
  608SOL     OW 1822   0.212   1.885   2.630  0.1633 -0.0976 -0.2787
  608SOL    HW1 1823   0.181   1.974   2.670 -0.7546 -3.8133  1.9128
  608SOL    HW2 1824   0.299   1.852   2.669 -2.9008  1.9783  0.6949
  609SOL     OW 1825   1.585   1.039   0.218 -0.0724 -0.0155 -0.1728
  609SOL    HW1 1826   1.499   1.011   0.268 -1.3636 -1.0513  1.0036
  609SOL    HW2 1827   1.588   1.138   0.201 -1.2207 -3.2832 -2.2098
  610SOL     OW 1828   0.648   0.339   1.326  0.1381  0.0491  0.4568
  610SOL    HW1 1829   0.705   0.255   1.307 -3.2714 -1.3167 -2.4957
  610SOL    HW2 1830   0.668   0.413   1.258  1.9219  0.2118  1.3412
  611SOL     OW 1831   1.428   0.316   0.652 -0.0383  0.3067  0.6763
  611SOL    HW1 1832   1.423   0.419   0.646 -1.0718  0.9250  1.3030
  611SOL    HW2 1833   1.402   0.273   0.563 -2.8891 -1.2005 -0.4247
  612SOL     OW 1834   1.656   0.793   0.092  0.5906  0.2806  0.2098
  612SOL    HW1 1835   1.648   0.879   0.151 -1.6851  2.5916  0.6797
  612SOL    HW2 1836   1.746   0.747   0.099  1.2476 -0.6431 -0.6897
  613SOL     OW 1837   2.366   0.525   0.596 -0.1631  1.0634  0.2095
  613SOL    HW1 1838   2.276   0.550   0.551 -0.5232 -1.3736 -0.2508
  613SOL    HW2 1839   2.398   0.438   0.553  0.3253  2.2087  0.3804
  614SOL     OW 1840   2.754   0.126   1.997  0.0413 -0.2376 -0.4437
  614SOL    HW1 1841   2.749   0.026   1.995 -0.3746  1.3108 -3.2071
  614SOL    HW2 1842   2.846   0.158   2.036  0.3089 -0.7593  0.4340
  615SOL     OW 1843   0.637   2.098   1.043 -0.0518  0.0635 -0.2371
  615SOL    HW1 1844   0.667   2.104   1.140  0.7867 -1.5943  0.2310
  615SOL    HW2 1845   0.552   2.042   1.038  0.5029 -0.6821 -0.1516
  616SOL     OW 1846   1.644   1.643   2.643  0.5693 -0.1790  0.4567
  616SOL    HW1 1847   1.732   1.595   2.636 -1.4122 -0.7741 -0.8372
  616SOL    HW2 1848   1.614   1.679   2.549 -0.7673 -2.0559 -0.3669
  617SOL     OW 1849   1.662   3.026   2.953 -0.3545 -0.3129 -0.7097
  617SOL    HW1 1850   1.588   3.038   2.885  1.6597 -1.4511 -2.2164
  617SOL    HW2 1851   1.695   2.931   2.952  3.2603 -0.8072 -1.4611
  618SOL     OW 1852   1.339   2.247   2.797 -0.2861  0.1104 -0.1949
  618SOL    HW1 1853   1.262   2.181   2.799 -0.7485  2.0884 -0.9414
  618SOL    HW2 1854   1.295   2.337   2.811 -2.2914  0.0842  0.8205
  619SOL     OW 1855   2.516   1.565   0.677  0.2074  0.2089 -0.2995
  619SOL    HW1 1856   2.583   1.612   0.617 -1.4985 -0.8546  0.5513
  619SOL    HW2 1857   2.549   1.473   0.702 -1.6788  0.4075 -0.5540
  620SOL     OW 1858   2.069   2.937   2.211  0.2329 -0.1443 -0.0835
  620SOL    HW1 1859   2.056   2.958   2.307 -0.7117 -0.1431 -1.4113
  620SOL    HW2 1860   2.159   2.973   2.177 -0.6695  1.4683  1.2445
  621SOL     OW 1861   2.966   1.396   0.514  0.5636 -0.1394 -0.4961
  621SOL    HW1 1862   2.924   1.409   0.605 -0.5403  2.3161  1.2466
  621SOL    HW2 1863   3.028   1.474   0.497 -0.4775 -1.4010  4.3475
  622SOL     OW 1864   1.393   1.893   2.201  0.1670  0.3844 -0.0108
  622SOL    HW1 1865   1.324   1.853   2.260  1.2447  0.5424 -0.9602
  622SOL    HW2 1866   1.490   1.859   2.227  0.9943  2.2811  1.3137
  623SOL     OW 1867   0.657   2.695   2.352 -0.0963 -0.1301  0.0897
  623SOL    HW1 1868   0.654   2.798   2.333  0.6196  2.5173  3.2866
  623SOL    HW2 1869   0.732   2.676   2.419  0.9988 -0.6333  0.8278
  624SOL     OW 1870   0.600   2.578   2.899  0.3710  0.1310 -0.1967
  624SOL    HW1 1871   0.696   2.545   2.923  0.1360  2.8575  1.3530
  624SOL    HW2 1872   0.571   2.539   2.809 -1.2658  0.0217 -1.3892
  625SOL     OW 1873   0.200   2.081   2.132  0.4637 -0.5041  0.2179
  625SOL    HW1 1874   0.202   2.161   2.066 -3.4987 -1.0863 -1.3811
  625SOL    HW2 1875   0.101   2.070   2.161  0.6253 -0.5641 -0.8439
  626SOL     OW 1876   3.086   0.046   3.081  0.5116  0.0017 -0.4439
  626SOL    HW1 1877   3.022   0.123   0.010 -0.8627 -1.2627  0.5717
  626SOL    HW2 1878   0.041   0.070   3.002 -1.7120  0.7195 -3.4950
  627SOL     OW 1879   2.220   1.668   0.002 -0.2786 -0.1078 -0.0571
  627SOL    HW1 1880   2.282   1.723   3.045  1.2671 -0.4063  0.1521
  627SOL    HW2 1881   2.131   1.668   3.053 -0.7467 -1.1272  0.2655
  628SOL     OW 1882   1.549   1.561   0.002  0.2384  0.3625 -0.3982
  628SOL    HW1 1883   1.588   1.564   3.006  0.4474 -1.1809 -1.4389
  628SOL    HW2 1884   1.618   1.530   0.074 -1.2900 -0.9450 -2.2066
  629SOL     OW 1885   0.227   0.273   1.717 -0.0756  0.6874  0.6136
  629SOL    HW1 1886   0.317   0.319   1.701  1.0806  0.0349  2.1803
  629SOL    HW2 1887   0.150   0.300   1.653 -0.8162  1.2690  1.0616
  630SOL     OW 1888   2.280   1.055   1.684 -0.2058 -0.1564  0.3202
  630SOL    HW1 1889   2.189   1.105   1.691  0.2506  0.6774 -0.0659
  630SOL    HW2 1890   2.301   1.005   1.771  2.1852  0.8550  0.5745
  631SOL     OW 1891   1.802   0.111   0.944  0.2557  0.1475  0.1624
  631SOL    HW1 1892   1.887   0.111   0.992 -1.9259 -2.2997 -2.7847
  631SOL    HW2 1893   1.806   0.067   0.854 -1.5733  1.1916  2.8400
  632SOL     OW 1894   2.765   0.854   2.002 -0.0196  0.6067 -0.1830
  632SOL    HW1 1895   2.764   0.929   1.935 -0.9036 -1.9514 -2.1998
  632SOL    HW2 1896   2.721   0.881   2.089  0.6782  0.1425 -1.8882
  633SOL     OW 1897   0.747   0.493   2.737 -0.1220 -0.5073 -0.1193
  633SOL    HW1 1898   0.804   0.413   2.731 -2.3390  1.6618 -0.7714
  633SOL    HW2 1899   0.795   0.586   2.738  0.8181  0.8317  1.1730
  634SOL     OW 1900   0.475   2.822   2.838 -0.1839  0.0035 -0.5175
  634SOL    HW1 1901   0.531   2.737   2.848 -1.6762 -0.4382 -0.4945
  634SOL    HW2 1902   0.400   2.798   2.775 -1.2799 -0.9755  0.2553
  635SOL     OW 1903   0.125   1.060   1.394 -0.1668  0.0887 -0.1913
  635SOL    HW1 1904   0.190   1.004   1.449 -2.5987 -0.4391  1.0534
  635SOL    HW2 1905   0.140   1.049   1.294  1.0382  0.8942  0.9691
  636SOL     OW 1906   3.064   1.230   2.945  0.2775 -0.5836 -0.3313
  636SOL    HW1 1907   2.968   1.263   2.931  0.4760  1.7744 -0.3760
  636SOL    HW2 1908   3.086   1.140   2.900  0.5720 -0.2542  0.0570
  637SOL     OW 1909   0.203   2.811   0.105  0.6166  0.1750 -0.3096
  637SOL    HW1 1910   0.209   2.724   0.154  0.6034  1.7798 -0.6705
  637SOL    HW2 1911   0.139   2.874   0.153  2.4690 -0.0961  0.6795
  638SOL     OW 1912   2.812   2.449   0.607  0.4188 -0.5447 -1.0055
  638SOL    HW1 1913   2.835   2.371   0.668  0.8644  0.0861  1.1868
  638SOL    HW2 1914   2.710   2.463   0.616 -2.7168 -0.4469  0.3510
  639SOL     OW 1915   1.135   0.995   0.325 -0.3307 -0.1958  0.7145
  639SOL    HW1 1916   1.067   1.045   0.274  1.9666 -1.3932 -1.0086
  639SOL    HW2 1917   1.222   0.978   0.268  1.4230  1.4993 -2.5564
  640SOL     OW 1918   1.983   2.553   1.521 -0.2917  0.2870  0.3665
  640SOL    HW1 1919   1.930   2.465   1.508  2.0253 -0.4039  0.0898
  640SOL    HW2 1920   2.085   2.525   1.508  1.0892 -1.4166 -1.0987
  641SOL     OW 1921   0.112   0.290   0.774 -0.1757 -0.6344 -0.4545
  641SOL    HW1 1922   0.076   0.356   0.705 -1.1079  0.6725  0.7384
  641SOL    HW2 1923   0.024   0.248   0.809 -0.2565  0.2635 -0.6150
  642SOL     OW 1924   1.322   0.912   1.714 -0.1437  0.0362 -0.1876
  642SOL    HW1 1925   1.415   0.897   1.760 -0.9024 -1.2580  1.0040
  642SOL    HW2 1926   1.315   1.008   1.677 -0.1967  0.9243 -0.4074
  643SOL     OW 1927   0.899   2.203   2.586 -0.2025 -0.0333 -0.1898
  643SOL    HW1 1928   0.959   2.284   2.609  1.5597 -0.3125  0.1366
  643SOL    HW2 1929   0.819   2.238   2.533 -1.4456  0.0526  1.5955
  644SOL     OW 1930   1.185   2.483   2.823 -0.2544  0.1986  0.3814
  644SOL    HW1 1931   1.205   2.489   2.921 -0.0269 -0.8417 -0.3695
  644SOL    HW2 1932   1.196   2.574   2.774 -4.6179  1.5175 -0.3311
  645SOL     OW 1933   1.552   1.288   1.708  0.2447 -0.3208  0.0977
  645SOL    HW1 1934   1.644   1.268   1.672 -1.2784 -3.2281 -1.0983
  645SOL    HW2 1935   1.491   1.215   1.674  0.5211  0.3479  1.5794
  646SOL     OW 1936   0.830   2.884   2.910 -0.0920 -0.0006 -0.5273
  646SOL    HW1 1937   0.773   2.838   2.980 -1.4983 -2.6803  1.6341
  646SOL    HW2 1938   0.807   2.984   2.905  0.0530 -1.3625 -0.5208
  647SOL     OW 1939   0.939   2.923   0.578 -0.1083  0.1856 -0.5215
  647SOL    HW1 1940   0.872   2.849   0.601 -0.1226 -1.1319  0.3187
  647SOL    HW2 1941   0.936   3.001   0.644 -0.8608  0.3736  0.6653
  648SOL     OW 1942   2.788   2.765   1.287  0.8976  0.0177  0.1968
  648SOL    HW1 1943   2.700   2.789   1.237  0.3802 -2.7866  1.5066
  648SOL    HW2 1944   2.771   2.709   1.367 -1.2150 -0.1773 -1.5686
  649SOL     OW 1945   0.819   2.113   3.061  0.2436 -0.5985  0.2005
  649SOL    HW1 1946   0.747   2.089   2.993 -1.1679  2.5636 -0.3308
  649SOL    HW2 1947   0.824   2.037   0.029 -1.5708  2.0567  0.6538
  650SOL     OW 1948   2.237   1.953   1.956 -0.8215  0.2509 -0.1793
  650SOL    HW1 1949   2.211   1.983   2.053  1.2934  1.2358  2.9141
  650SOL    HW2 1950   2.275   2.036   1.916  0.7592  2.5218  0.0036
  651SOL     OW 1951   2.814   2.887   2.285 -0.0315 -0.3923  0.0233
  651SOL    HW1 1952   2.898   2.931   2.311 -0.9462 -4.2116 -0.5023
  651SOL    HW2 1953   2.814   2.856   2.188  1.6880 -1.2216 -1.3559
  652SOL     OW 1954   2.982   1.894   0.495 -0.7930  0.3339  0.1884
  652SOL    HW1 1955   3.034   1.954   0.560 -1.5754  1.0053 -0.6693
  652SOL    HW2 1956   2.887   1.935   0.482  1.6755 -0.8170 -1.9099
  653SOL     OW 1957   2.476   0.996   1.112 -0.3089 -0.2508 -0.2488
  653SOL    HW1 1958   2.455   0.987   1.213  0.5841 -2.7674  0.0509
  653SOL    HW2 1959   2.419   0.930   1.054  0.5514  0.5453 -0.5063
  654SOL     OW 1960   0.857   0.236   2.728  0.0122 -0.0617  0.2077
  654SOL    HW1 1961   0.951   0.221   2.697 -4.3038  1.0413  0.3859
  654SOL    HW2 1962   0.834   0.189   2.811  0.3924  1.0904 -1.1232
  655SOL     OW 1963   0.926   0.379   1.543 -0.3169  0.3136 -0.4245
  655SOL    HW1 1964   0.882   0.396   1.454  0.2624 -0.8690  2.5831
  655SOL    HW2 1965   1.013   0.329   1.531  1.3112 -0.2955  0.8089
  656SOL     OW 1966   0.292   2.534   2.175 -0.5795 -0.1348  0.8056
  656SOL    HW1 1967   0.358   2.473   2.125 -1.0623 -0.4950  2.3637
  656SOL    HW2 1968   0.243   2.596   2.109 -0.9874  1.4964  0.5064
  657SOL     OW 1969   2.257   0.429   0.200 -0.0215 -0.6940 -0.1876
  657SOL    HW1 1970   2.226   0.476   0.283  1.6596  0.8819 -0.5619
  657SOL    HW2 1971   2.326   0.490   0.149  3.4131  1.2839  0.5673
  658SOL     OW 1972   2.067   1.673   1.187 -0.3726 -0.3022 -0.0869
  658SOL    HW1 1973   2.140   1.713   1.244 -1.0394 -0.3210 -0.8250
  658SOL    HW2 1974   2.087   1.578   1.165 -1.1411  1.2868 -0.5943
  659SOL     OW 1975   2.680   2.127   2.857  0.2756  0.2771  0.2325
  659SOL    HW1 1976   2.683   2.227   2.841 -1.7565  0.2699  0.3588
  659SOL    HW2 1977   2.749   2.101   2.925  0.0278 -0.4663  0.4168
  660SOL     OW 1978   1.134   0.148   3.020  0.2118  0.2664 -0.0814
  660SOL    HW1 1979   1.218   0.147   3.076 -2.4576 -2.1475 -2.2057
  660SOL    HW2 1980   1.056   0.195   3.065 -3.3680 -0.0648  0.6537
  661SOL     OW 1981   2.296   0.138   0.313 -0.7179  0.1854 -0.0260
  661SOL    HW1 1982   2.210   0.111   0.265  1.6179 -1.7269 -1.0093
  661SOL    HW2 1983   2.365   0.167   0.242 -3.7694  1.0771 -1.3854
  662SOL     OW 1984   0.502   0.101   0.919 -0.2336  0.0767  0.3949
  662SOL    HW1 1985   0.525   0.084   0.822 -3.1795 -1.0798  0.1833
  662SOL    HW2 1986   0.400   0.096   0.925 -0.1994 -1.4691  1.7821
  663SOL     OW 1987   1.353   0.292   2.347  0.0055 -0.4567 -0.2495
  663SOL    HW1 1988   1.284   0.253   2.281 -1.1398  3.9705 -1.2969
  663SOL    HW2 1989   1.318   0.301   2.442 -1.2132 -1.4846 -2.9556
  664SOL     OW 1990   0.789   2.704   1.470  0.5192  0.0729 -0.1370
  664SOL    HW1 1991   0.691   2.657   1.465 -1.9997 -1.2720 -0.8288
  664SOL    HW2 1992   0.787   2.764   1.550 -2.4286 -2.2392  0.1539
  665SOL     OW 1993   0.984   2.342   2.068  0.1659 -0.0295 -0.2871
  665SOL    HW1 1994   0.932   2.411   2.010 -1.7465  1.1200 -1.4963
  665SOL    HW2 1995   1.084   2.354   2.041  3.9038  1.1450 -1.8332
  666SOL     OW 1996   0.218   3.053   2.643 -0.2840 -0.3485  0.1301
  666SOL    HW1 1997   0.253   2.956   2.637  0.2658 -0.9657 -1.0273
  666SOL    HW2 1998   0.173   3.071   2.553 -0.5625  0.0461 -2.5434
  667SOL     OW 1999   1.799   1.596   1.461  0.1405 -0.9316  0.2808
  667SOL    HW1 2000   1.717   1.561   1.502  1.8692  1.5626 -0.8143
  667SOL    HW2 2001   1.873   1.524   1.466  0.3457 -1.1712 -0.7710
  668SOL     OW 2002   1.424   0.434   1.593  0.1282  0.2108  0.3743
  668SOL    HW1 2003   1.475   0.344   1.596 -1.0770 -3.7014 -0.7631
  668SOL    HW2 2004   1.454   0.494   1.669 -1.0632  0.6671 -0.0319
  669SOL     OW 2005   2.576   2.383   1.446 -0.0474  0.1643 -0.4366
  669SOL    HW1 2006   2.609   2.301   1.496  0.4495 -0.5342 -2.0187
  669SOL    HW2 2007   2.507   2.433   1.502 -0.8129  0.9023  0.4432
  670SOL     OW 2008   1.576   2.396   2.799  0.6367  0.5355  0.3496
  670SOL    HW1 2009   1.519   2.315   2.773 -1.0896 -0.3616  0.4292
  670SOL    HW2 2010   1.542   2.436   2.889  0.2036  0.6031  4.0463
  671SOL     OW 2011   1.002   0.878   0.530 -0.3767 -0.2235 -0.2181
  671SOL    HW1 2012   1.076   0.866   0.601 -0.0064 -0.5874  0.3564
  671SOL    HW2 2013   1.037   0.918   0.445 -0.9965 -0.3046  1.9813
  672SOL     OW 2014   0.083   1.034   2.367 -0.0828 -0.2429  0.3766
  672SOL    HW1 2015   0.028   1.070   2.444  0.0181  0.3520  1.7194
  672SOL    HW2 2016   0.110   0.936   2.385  0.4408 -0.1691  0.6987
  673SOL     OW 2017   2.895   1.962   1.506 -0.2991 -0.2967 -0.6996
  673SOL    HW1 2018   2.907   2.060   1.485 -0.3982 -0.2041  1.7845
  673SOL    HW2 2019   2.881   1.938   1.606  2.4173 -0.7383  1.2344
  674SOL     OW 2020   0.499   2.434   2.003  0.6415  0.2002  0.2191
  674SOL    HW1 2021   0.481   2.432   1.902 -0.9746  1.2301 -3.7179
  674SOL    HW2 2022   0.578   2.492   2.035  2.5749  1.0226  0.1186
  675SOL     OW 2023   0.909   1.116   1.691  0.1702 -0.2491 -0.1357
  675SOL    HW1 2024   0.884   1.017   1.678 -1.5231  2.4188  1.0477
  675SOL    HW2 2025   0.911   1.139   1.789  1.5876  2.2811 -0.3752
  676SOL     OW 2026   2.332   0.474   1.141  0.8723  0.0870  0.3359
  676SOL    HW1 2027   2.381   0.522   1.066 -0.4291 -0.5284  1.6332
  676SOL    HW2 2028   2.381   0.486   1.227  5.1043  1.8880 -3.6545
  677SOL     OW 2029   2.456   1.442   2.963  0.6643  0.1238 -0.1408
  677SOL    HW1 2030   2.400   1.356   2.986  1.4263 -1.2697  0.6441
  677SOL    HW2 2031   2.442   1.512   3.033 -1.8439 -0.7065 -1.5215
  678SOL     OW 2032   2.774   0.829   1.325 -0.2046  0.0437 -0.4426
  678SOL    HW1 2033   2.874   0.840   1.348 -1.1514  1.2091  0.1543
  678SOL    HW2 2034   2.729   0.919   1.332  0.2532  0.5406  0.3575
  679SOL     OW 2035   2.451   0.286   0.107  0.0233 -0.8508  0.4718
  679SOL    HW1 2036   2.534   0.319   0.156  0.7382  1.7217 -0.8630
  679SOL    HW2 2037   2.362   0.325   0.144 -1.4110  0.8354  0.9357
  680SOL     OW 2038   0.112   1.727   1.950  0.2737  0.2802  0.2568
  680SOL    HW1 2039   0.183   1.766   2.010  1.0758  0.3929  3.2656
  680SOL    HW2 2040   0.035   1.688   2.007  0.4551  1.2436 -1.7553
  681SOL     OW 2041   2.261   2.226   1.222 -0.3370  0.5440  0.5308
  681SOL    HW1 2042   2.253   2.127   1.212  0.2373  0.7750  0.6583
  681SOL    HW2 2043   2.248   2.272   1.131  1.6086 -2.4841  0.1510
  682SOL     OW 2044   0.170   1.888   2.939  0.2106  0.0099 -0.2719
  682SOL    HW1 2045   0.112   1.814   2.972  0.1618  1.0726 -2.1908
  682SOL    HW2 2046   0.251   1.847   2.891 -0.0827  3.2330  0.1159
  683SOL     OW 2047   0.129   2.269   1.501  0.3832 -0.0969  0.0503
  683SOL    HW1 2048   0.172   2.298   1.414  0.9659  1.2597  0.3723
  683SOL    HW2 2049   0.049   2.208   1.481 -1.3398  2.2420  0.6037
  684SOL     OW 2050   3.011   1.290   2.327  0.0603 -0.0852  0.2884
  684SOL    HW1 2051   3.041   1.375   2.378  1.1942  0.7190 -0.5647
  684SOL    HW2 2052   2.993   1.217   2.393  0.4558  1.5980  1.4526
  685SOL     OW 2053   1.503   1.131   0.618 -0.9327  0.3065 -0.2396
  685SOL    HW1 2054   1.469   1.131   0.715  3.6873  1.1849  1.0314
  685SOL    HW2 2055   1.556   1.049   0.598  1.4215 -1.7332 -0.7712
  686SOL     OW 2056   0.582   0.309   0.584  0.0055  0.1835 -0.4187
  686SOL    HW1 2057   0.616   0.217   0.609  0.2334  2.5644 -0.0570
  686SOL    HW2 2058   0.553   0.305   0.487 -1.0457 -4.5738 -1.8194
  687SOL     OW 2059   1.158   2.075   2.882  0.0699  0.1163 -0.0007
  687SOL    HW1 2060   1.135   2.115   2.974  1.7065  0.5445 -2.5296
  687SOL    HW2 2061   1.074   2.048   2.831  2.2760 -0.0477  0.6698
  688SOL     OW 2062   1.578   1.273   1.315 -0.1499  0.1478  0.2480
  688SOL    HW1 2063   1.586   1.375   1.298  2.6536  0.2389 -2.8728
  688SOL    HW2 2064   1.481   1.249   1.308  0.3289  0.7646  2.9351
  689SOL     OW 2065   2.086   0.275   0.582 -0.4024 -0.2882 -0.2212
  689SOL    HW1 2066   2.166   0.330   0.551 -0.2087 -2.5121  2.3181
  689SOL    HW2 2067   2.004   0.333   0.587 -1.5329 -0.7707  0.3635
  690SOL     OW 2068   0.038   1.409   1.003 -0.1169  0.2887  0.0497
  690SOL    HW1 2069   3.096   1.327   0.956  4.4493 -2.9392 -1.1979
  690SOL    HW2 2070   0.066   1.473   0.932 -0.6825 -0.7678  0.7850
  691SOL     OW 2071   0.335   2.146   1.204 -0.7301 -0.2838 -0.1134
  691SOL    HW1 2072   0.238   2.113   1.203 -0.3029 -1.4906  0.4413
  691SOL    HW2 2073   0.329   2.245   1.214  0.2933 -2.3426  0.6624
  692SOL     OW 2074   1.974   0.523   1.411 -0.1996 -0.8273 -0.4426
  692SOL    HW1 2075   2.031   0.568   1.485  0.6663 -2.0024 -0.0774
  692SOL    HW2 2076   2.046   0.486   1.345 -0.9086 -0.0418 -2.1649
  693SOL     OW 2077   0.639   1.832   2.231  0.8875  0.1330  0.3056
  693SOL    HW1 2078   0.661   1.879   2.145  0.8948  0.5056 -0.5672
  693SOL    HW2 2079   0.655   1.881   2.316 -1.9183 -2.4789 -2.8686
  694SOL     OW 2080   1.748   1.613   0.943 -0.3035  0.3122  0.2507
  694SOL    HW1 2081   1.808   1.641   1.023  1.8618  1.9006 -0.5753
  694SOL    HW2 2082   1.795   1.630   0.853 -0.9073 -0.6682  0.6315
  695SOL     OW 2083   1.307   0.764   0.453  0.3874  1.0577  0.4334
  695SOL    HW1 2084   1.286   0.830   0.383  1.0287 -0.4841  3.2458
  695SOL    HW2 2085   1.282   0.792   0.550 -1.2273  3.8849  2.3621
  696SOL     OW 2086   0.552   0.050   0.223 -0.8367  0.3357 -0.4006
  696SOL    HW1 2087   0.542   3.047   0.207  1.3408 -0.0898 -0.3963
  696SOL    HW2 2088   0.647   0.071   0.239 -2.1086 -0.0033 -1.2498
  697SOL     OW 2089   1.770   0.798   1.164 -0.0619  0.4316 -0.0890
  697SOL    HW1 2090   1.740   0.711   1.209  1.4808  1.6237  1.3819
  697SOL    HW2 2091   1.833   0.849   1.224  0.9504 -0.0573 -1.2406
  698SOL     OW 2092   1.627   1.349   2.059 -0.0654 -0.1534 -0.0922
  698SOL    HW1 2093   1.607   1.405   1.980 -0.1642 -2.5221  3.4143
  698SOL    HW2 2094   1.686   1.407   2.129  4.4848  0.9437  2.2654
  699SOL     OW 2095   2.773   0.433   1.986 -0.5591 -0.1857 -0.1714
  699SOL    HW1 2096   2.710   0.495   2.039  0.1420  2.0954 -1.0383
  699SOL    HW2 2097   2.736   0.338   1.979 -4.3753 -1.5490 -0.3130
  700SOL     OW 2098   1.333   2.215   0.571  0.1816 -0.0395 -0.2151
  700SOL    HW1 2099   1.381   2.241   0.655 -0.0305 -2.1701 -3.6026
  700SOL    HW2 2100   1.287   2.125   0.583 -0.5102 -0.1127 -0.7296
  701SOL     OW 2101   2.435   2.107   2.370  0.3160  0.1298 -0.4881
  701SOL    HW1 2102   2.466   2.069   2.279  0.4357  1.6662 -1.8129
  701SOL    HW2 2103   2.477   2.057   2.447 -2.1593  0.1463 -0.9915
  702SOL     OW 2104   0.567   2.947   0.514  0.0573 -0.0594  0.8390
  702SOL    HW1 2105   0.500   2.880   0.559  2.0815  0.6432 -0.6179
  702SOL    HW2 2106   0.578   2.924   0.413  1.6254 -0.9741  0.2760
  703SOL     OW 2107   1.954   2.979   1.974 -0.5342 -0.1843  0.2868
  703SOL    HW1 2108   2.004   2.932   1.901 -1.7999  2.6503  1.1035
  703SOL    HW2 2109   2.000   2.956   2.063 -0.2378 -0.6805  0.2981
  704SOL     OW 2110   2.563   2.067   0.159  0.4769  0.1834 -0.0310
  704SOL    HW1 2111   2.522   2.105   0.242  0.6223  0.4505 -0.1408
  704SOL    HW2 2112   2.632   2.128   0.118 -0.5535 -2.0476  2.8538
  705SOL     OW 2113   2.665   2.565   2.251 -0.5543 -0.6000 -0.1406
  705SOL    HW1 2114   2.747   2.511   2.229 -2.1571  0.5731 -1.3709
  705SOL    HW2 2115   2.594   2.510   2.297 -0.8671 -0.9435  0.4331
  706SOL     OW 2116   2.624   0.218   0.648  0.5540  0.0206  0.4057
  706SOL    HW1 2117   2.686   0.283   0.697  1.8914 -0.6154 -1.1073
  706SOL    HW2 2118   2.679   0.150   0.597  0.6417  0.8398 -0.6183
  707SOL     OW 2119   1.022   0.247   2.434  0.0469 -0.2582  0.0076
  707SOL    HW1 2120   1.079   0.164   2.429 -0.1056  1.1240 -0.4765
  707SOL    HW2 2121   1.072   0.329   2.468 -0.6304  0.6022 -1.0401
  708SOL     OW 2122   0.294   2.046   1.631 -0.4519 -0.0271 -0.3245
  708SOL    HW1 2123   0.218   2.116   1.622 -4.3436  0.8128 -1.6932
  708SOL    HW2 2124   0.256   1.957   1.653 -0.7939 -1.5415  1.2348
  709SOL     OW 2125   1.281   0.100   1.579  0.4136  1.1631  0.2799
  709SOL    HW1 2126   1.378   0.066   1.560  3.2257 -0.8117  1.1634
  709SOL    HW2 2127   1.247   0.108   1.677 -0.2491 -0.5382  0.0847
  710SOL     OW 2128   1.535   2.773   2.484 -0.0983 -0.0000 -0.2801
  710SOL    HW1 2129   1.525   2.675   2.507  0.0102  3.1168 -0.5051
  710SOL    HW2 2130   1.585   2.828   2.556 -0.3378  0.8667  2.0031
  711SOL     OW 2131   0.899   1.991   2.740  0.4283  0.1435 -0.4114
  711SOL    HW1 2132   0.824   2.001   2.806 -0.9163 -2.9926  1.2864
  711SOL    HW2 2133   0.911   2.075   2.677  1.0305  3.8911 -3.0494
  712SOL     OW 2134   1.089   2.177   0.029  0.1901 -0.1508  0.0132
  712SOL    HW1 2135   0.989   2.177   0.005  0.8943 -1.2353 -1.0582
  712SOL    HW2 2136   1.114   2.123   0.111 -0.3751 -0.1344  0.0673
  713SOL     OW 2137   1.965   1.215   2.056  0.3827  0.7255  0.7158
  713SOL    HW1 2138   1.883   1.171   2.015 -3.1215 -3.1724 -3.9521
  713SOL    HW2 2139   1.939   1.300   2.099 -1.7340  1.5582 -0.1786
  714SOL     OW 2140   0.887   1.149   1.972  0.3742 -0.0008  0.0643
  714SOL    HW1 2141   0.811   1.199   2.018 -2.2043  0.3881  2.1714
  714SOL    HW2 2142   0.971   1.143   2.031  3.1159 -0.6403  0.6377
  715SOL     OW 2143   2.686   0.363   0.260  0.2773  0.0979  0.1278
  715SOL    HW1 2144   2.701   0.273   0.305 -1.9573  1.0134  0.6817
  715SOL    HW2 2145   2.720   0.437   0.320 -0.1780 -0.0616 -1.9121
  716SOL     OW 2146   3.054   2.745   1.451 -0.3833  0.3028  0.4643
  716SOL    HW1 2147   0.030   2.676   1.473 -1.6963  1.5886 -0.7653
  716SOL    HW2 2148   3.007   2.714   1.368 -0.2885  0.2299  2.1294
  717SOL     OW 2149   2.319   0.836   0.960 -0.6497 -0.4738  0.3131
  717SOL    HW1 2150   2.304   0.888   0.874 -1.3300 -0.7403 -0.7469
  717SOL    HW2 2151   2.340   0.737   0.939  2.2934  0.1647 -2.9333
  718SOL     OW 2152   1.474   1.518   1.239  0.2215 -0.2328 -0.1802
  718SOL    HW1 2153   1.398   1.549   1.302  1.1525 -1.8145  0.3988
  718SOL    HW2 2154   1.467   1.545   1.141 -2.1990 -1.9324 -1.6619
  719SOL     OW 2155   2.597   2.823   2.693 -0.2838 -0.0881  0.5374
  719SOL    HW1 2156   2.617   2.797   2.791 -0.1633 -2.5794  3.9684
  719SOL    HW2 2157   2.535   2.902   2.684  3.2945 -1.1051 -0.9905
  720SOL     OW 2158   0.949   0.514   0.849 -0.4353  0.7213  0.2530
  720SOL    HW1 2159   0.874   0.525   0.781  3.0138  0.2166 -0.3422
  720SOL    HW2 2160   0.927   0.442   0.913  0.3095  2.3087  1.4821
  721SOL     OW 2161   2.433   0.599   0.865 -0.0421 -0.6669 -0.4317
  721SOL    HW1 2162   2.514   0.545   0.896  1.3372 -3.5412 -0.4894
  721SOL    HW2 2163   2.396   0.588   0.771 -2.6155 -0.9240  0.6489
  722SOL     OW 2164   0.934   2.100   2.184 -0.0809 -0.6952 -0.1884
  722SOL    HW1 2165   0.847   2.070   2.150  1.9903 -0.5770  2.0384
  722SOL    HW2 2166   0.953   2.189   2.143  0.7852  1.0624 -1.6864
  723SOL     OW 2167   1.191   2.998   1.240  0.7201  0.2558 -0.0541
  723SOL    HW1 2168   1.118   3.053   1.286 -0.3613  1.5205  1.0038
  723SOL    HW2 2169   1.285   3.036   1.253 -2.4311  2.0691 -0.3209
  724SOL     OW 2170   1.665   2.005   1.344 -0.1104  0.5157 -0.5027
  724SOL    HW1 2171   1.647   1.996   1.443  1.3583 -0.3289  1.7290
  724SOL    HW2 2172   1.710   1.924   1.309 -2.5724  0.3746  1.7885
  725SOL     OW 2173   1.162   2.401   1.282 -0.4739  0.2104 -0.3916
  725SOL    HW1 2174   1.189   2.417   1.184  0.1368 -1.0372 -1.0926
  725SOL    HW2 2175   1.184   2.307   1.312  0.6964  0.1341 -0.7841
  726SOL     OW 2176   1.850   2.825   0.025  0.2974 -0.4103 -0.8939
  726SOL    HW1 2177   1.797   2.737   0.031 -2.5669 -1.5936  1.1181
  726SOL    HW2 2178   1.799   2.899   0.080  0.0572  0.3432  4.0171
  727SOL     OW 2179   1.673   1.636   0.375  0.0916  0.1836 -0.6831
  727SOL    HW1 2180   1.571   1.627   0.362 -1.7504 -1.0340 -1.1046
  727SOL    HW2 2181   1.729   1.642   0.295 -2.5274 -0.9789  2.9587
  728SOL     OW 2182   1.928   2.638   1.780  0.1759 -0.0794  0.5279
  728SOL    HW1 2183   1.938   2.592   1.689 -0.0672 -0.6269  0.8920
  728SOL    HW2 2184   1.844   2.695   1.795  1.2731 -1.7270  1.9512
  729SOL     OW 2185   2.218   2.427   1.440  0.5525 -0.8345  0.0223
  729SOL    HW1 2186   2.211   2.359   1.362  0.0152 -0.3738  1.9523
  729SOL    HW2 2187   2.270   2.511   1.408 -2.9181 -1.7247  0.9431
  730SOL     OW 2188   1.403   1.172   2.679  0.0333 -0.8558 -0.5783
  730SOL    HW1 2189   1.393   1.078   2.723 -1.1004 -1.7368  0.3655
  730SOL    HW2 2190   1.374   1.251   2.743 -0.9697 -0.0170 -0.0639
  731SOL     OW 2191   0.778   0.103   1.343 -0.2453 -0.4056  0.3762
  731SOL    HW1 2192   0.754   0.074   1.248 -0.5764  2.9425 -0.6983
  731SOL    HW2 2193   0.875   0.079   1.357  0.3866  2.1596  1.2377
  732SOL     OW 2194   1.027   2.818   1.118  0.1575 -0.4305 -0.1952
  732SOL    HW1 2195   0.993   2.745   1.182  0.3915  0.1490  0.0606
  732SOL    HW2 2196   1.091   2.883   1.169  1.4066  1.0485  1.3125
  733SOL     OW 2197   1.110   1.047   0.855  0.2300  0.4544 -0.0518
  733SOL    HW1 2198   1.112   1.130   0.796  0.0478 -1.2272 -0.6309
  733SOL    HW2 2199   1.182   1.051   0.928  0.4968  3.4928  1.9364
  734SOL     OW 2200   2.329   2.126   0.011  0.0542 -0.0237 -0.1669
  734SOL    HW1 2201   2.346   2.124   3.006  0.3234  2.3731 -4.2349
  734SOL    HW2 2202   2.409   2.106   0.071  0.2708 -1.4179  0.1387
  735SOL     OW 2203   0.461   0.365   1.020 -0.2595  0.1388  0.3513
  735SOL    HW1 2204   0.484   0.272   0.984 -1.9312  0.0997 -2.0217
  735SOL    HW2 2205   0.418   0.408   0.939 -2.0913  0.0635  1.2386
  736SOL     OW 2206   1.831   2.433   2.736  0.6388  0.3991  0.2994
  736SOL    HW1 2207   1.894   2.393   2.806  2.2094  0.6765 -0.5306
  736SOL    HW2 2208   1.732   2.414   2.758 -0.7348 -0.2429  0.2535
  737SOL     OW 2209   0.827   2.518   1.043 -0.3845  0.7891 -0.6989
  737SOL    HW1 2210   0.864   2.531   0.949  0.3318  1.7641 -1.8118
  737SOL    HW2 2211   0.894   2.549   1.115 -1.5414  1.6478  1.4459
  738SOL     OW 2212   1.655   0.021   2.131 -0.5440  0.2354 -0.5204
  738SOL    HW1 2213   1.735   3.085   2.080  0.3776  0.6570  0.6015
  738SOL    HW2 2214   1.670   0.021   2.232 -0.2356  1.3092  1.3301
  739SOL     OW 2215   1.234   2.313   1.997 -0.4528  0.3950 -0.0929
  739SOL    HW1 2216   1.311   2.342   2.060 -0.1676  2.3830  0.5359
  739SOL    HW2 2217   1.238   2.211   1.993 -0.3693 -0.7734 -3.0229
  740SOL     OW 2218   1.410   2.353   1.390 -0.2202 -0.0009  0.5502
  740SOL    HW1 2219   1.343   2.421   1.356 -1.1153  0.3943 -0.9869
  740SOL    HW2 2220   1.492   2.395   1.436 -0.3931 -0.8857  1.6145
  741SOL     OW 2221   2.661   1.106   0.328 -0.3646  0.1974  0.0131
  741SOL    HW1 2222   2.637   1.201   0.314 -0.1954 -1.5801  3.5587
  741SOL    HW2 2223   2.635   1.039   0.254 -1.0111 -1.0823 -1.7906
  742SOL     OW 2224   0.617   1.555   2.269  0.5598 -0.3015 -0.0949
  742SOL    HW1 2225   0.616   1.654   2.246  0.3080 -2.0659 -0.2839
  742SOL    HW2 2226   0.707   1.515   2.294  0.1036 -1.5875  3.2512
  743SOL     OW 2227   0.185   0.784   2.405  0.2245 -0.2265  0.1872
  743SOL    HW1 2228   0.271   0.773   2.457 -0.8504  0.2787  0.6964
  743SOL    HW2 2229   0.116   0.716   2.439  1.1707 -0.0979 -0.2344
  744SOL     OW 2230   2.532   2.240   1.223  0.2482 -0.0378  0.0129
  744SOL    HW1 2231   2.429   2.249   1.218 -3.8235 -0.7775  1.0919
  744SOL    HW2 2232   2.572   2.309   1.288  0.9133  1.5410 -2.7228
  745SOL     OW 2233   2.336   1.772   1.318  0.0977  0.2817  0.3430
  745SOL    HW1 2234   2.398   1.693   1.321 -1.3262 -0.5087  2.2544
  745SOL    HW2 2235   2.392   1.853   1.286  1.1555 -2.9533  0.3947
  746SOL     OW 2236   2.280   1.030   0.749 -0.2023 -0.0606 -0.1417
  746SOL    HW1 2237   2.219   1.046   0.670  1.1557  0.8693 -1.2217
  746SOL    HW2 2238   2.313   1.117   0.788 -1.0722 -0.5160 -1.0515
  747SOL     OW 2239   1.601   2.058   0.519  0.3525  0.0125  0.1964
  747SOL    HW1 2240   1.691   2.104   0.518 -0.0063 -1.5526  1.8315
  747SOL    HW2 2241   1.518   2.122   0.512 -0.2185 -1.0920  1.0314
  748SOL     OW 2242   0.855   1.923   0.585 -0.4931  0.2416 -0.2851
  748SOL    HW1 2243   0.777   1.877   0.547  0.4957  0.7828  1.4637
  748SOL    HW2 2244   0.852   1.920   0.688  1.0494 -0.7877 -0.6246
  749SOL     OW 2245   2.986   0.228   2.080  0.0149 -0.1449  0.6716
  749SOL    HW1 2246   3.055   0.293   2.039 -0.2460  1.0628  3.0084
  749SOL    HW2 2247   3.033   0.174   2.152 -1.8639 -0.8275 -1.2984
  750SOL     OW 2248   1.661   0.289   1.493 -0.2072  0.7140 -0.3472
  750SOL    HW1 2249   1.716   0.358   1.544  0.0019  0.7036  0.2758
  750SOL    HW2 2250   1.627   0.318   1.403  1.3626  1.0494  2.1305
  751SOL     OW 2251   1.694   2.741   2.871  0.0514 -0.1842 -0.6009
  751SOL    HW1 2252   1.620   2.750   2.939 -0.7222  1.6767 -0.4399
  751SOL    HW2 2253   1.755   2.672   2.918 -1.5359 -0.8174  0.9174
  752SOL     OW 2254   1.800   1.910   0.242  0.5999 -0.9734 -0.1303
  752SOL    HW1 2255   1.717   1.877   0.195 -0.0816  1.6472  0.1626
  752SOL    HW2 2256   1.841   1.994   0.196  0.9064  1.5637 -1.5954
  753SOL     OW 2257   2.076   0.863   2.424 -0.2650 -0.4072 -0.0785
  753SOL    HW1 2258   2.107   0.820   2.514  0.8578  1.5957 -3.0670
  753SOL    HW2 2259   1.993   0.925   2.436 -2.8482 -0.3656  2.1148
  754SOL     OW 2260   0.378   2.724   0.377 -0.0756  0.2089 -0.6335
  754SOL    HW1 2261   0.326   2.651   0.327  1.1074  1.8426 -3.5865
  754SOL    HW2 2262   0.359   2.731   0.477  0.0170 -0.7902 -0.2466
  755SOL     OW 2263   2.074   0.419   1.057  0.3980 -0.1893 -0.4101
  755SOL    HW1 2264   2.166   0.445   1.102 -1.2069  0.6388  1.4736
  755SOL    HW2 2265   2.093   0.359   0.975 -0.4986 -2.0475 -0.4155
  756SOL     OW 2266   1.073   1.563   2.582 -0.3240 -0.1617  0.2408
  756SOL    HW1 2267   1.004   1.603   2.648  3.9696 -0.1016  2.4747
  756SOL    HW2 2268   1.160   1.617   2.588  1.0986  2.2845 -0.0504
  757SOL     OW 2269   2.568   2.871   1.118  0.2347 -0.0346  0.5906
  757SOL    HW1 2270   2.527   2.774   1.119  0.0460 -0.9862  2.2166
  757SOL    HW2 2271   2.487   2.933   1.105  0.2821  0.7521  1.5555
  758SOL     OW 2272   0.755   2.911   1.677  0.0740  0.3454 -0.7475
  758SOL    HW1 2273   0.674   2.952   1.629  0.5327  1.1438  1.1276
  758SOL    HW2 2274   0.833   2.981   1.677  2.1977  0.1561  0.7104
  759SOL     OW 2275   2.582   1.313   0.692  0.2616 -0.6921  0.3438
  759SOL    HW1 2276   2.556   1.234   0.634 -2.4493  2.2640 -1.1377
  759SOL    HW2 2277   2.679   1.313   0.728  1.8982  2.1609  1.7429
  760SOL     OW 2278   1.960   0.846   1.362  0.4314  0.2202 -0.0906
  760SOL    HW1 2279   1.992   0.760   1.412 -1.2937  0.0401  1.8813
  760SOL    HW2 2280   2.020   0.928   1.369  1.0700  0.6214 -2.2765
  761SOL     OW 2281   2.058   0.026   0.207  0.0665  0.9327  0.2006
  761SOL    HW1 2282   2.006   0.053   0.292 -2.8998  3.0464 -1.2005
  761SOL    HW2 2283   2.075   3.020   0.207  1.8209 -2.2863 -2.1404
  762SOL     OW 2284   1.917   2.121   0.159 -0.0987 -0.5866 -0.0987
  762SOL    HW1 2285   2.011   2.092   0.153 -2.3515 -0.3477 -0.3122
  762SOL    HW2 2286   1.912   2.202   0.224 -1.9765 -2.5078  2.2672
  763SOL     OW 2287   0.683   1.034   1.116 -0.4784  0.3778  0.4973
  763SOL    HW1 2288   0.754   1.050   1.046 -0.0502 -1.1160  3.1328
  763SOL    HW2 2289   0.726   1.006   1.200 -1.7063 -0.1399 -3.3858
  764SOL     OW 2290   2.445   2.446   3.039  0.1017 -0.0540 -0.9079
  764SOL    HW1 2291   2.498   2.393   2.970 -1.3849 -0.5660  3.0290
  764SOL    HW2 2292   2.355   2.476   2.999  1.1293  2.5378 -1.5770
  765SOL     OW 2293   1.008   0.396   2.189  0.6112  0.0112 -0.0373
  765SOL    HW1 2294   1.002   0.346   2.280  1.2219 -3.6531  3.7661
  765SOL    HW2 2295   1.057   0.481   2.197  0.3599 -3.9855  0.2890
  766SOL     OW 2296   0.230   1.243   2.328  0.5348 -0.4378 -0.3186
  766SOL    HW1 2297   0.165   1.174   2.362  3.8527  2.2688 -2.0419
  766SOL    HW2 2298   0.190   1.330   2.300 -0.8626 -1.2753 -0.9182
  767SOL     OW 2299   3.017   1.652   2.126  0.3696  0.2451 -0.5971
  767SOL    HW1 2300   3.076   1.703   2.190  1.2008 -5.2122  0.3224
  767SOL    HW2 2301   2.922   1.692   2.121 -4.2070  0.8812 -1.8449
  768SOL     OW 2302   0.978   1.026   2.844 -0.2739 -0.0558  0.2916
  768SOL    HW1 2303   0.879   1.025   2.870 -1.1982  1.2294  0.4286
  768SOL    HW2 2304   0.997   1.091   2.767  0.5344  3.2057  1.3573
  769SOL     OW 2305   2.067   2.900   2.958  0.0483 -0.2878  0.4162
  769SOL    HW1 2306   2.093   2.823   2.895 -0.3343  0.1371  3.0537
  769SOL    HW2 2307   2.002   2.865   3.024 -1.3079 -1.4614 -3.7344
  770SOL     OW 2308   2.979   0.485   2.608  0.2303  0.1516  0.5519
  770SOL    HW1 2309   2.988   0.523   2.514 -2.6071 -0.8262  0.4974
  770SOL    HW2 2310   2.940   0.393   2.602  2.8423  1.8489  2.1398
  771SOL     OW 2311   0.983   2.176   1.605 -0.0535 -0.0967 -0.1396
  771SOL    HW1 2312   1.081   2.181   1.589 -2.5922  1.2573  0.0425
  771SOL    HW2 2313   0.941   2.244   1.543 -1.6512  3.1998  1.5539
  772SOL     OW 2314   0.533   0.440   2.919  0.5871 -0.4280 -0.1004
  772SOL    HW1 2315   0.617   0.461   2.865 -2.2507 -1.7006 -0.0726
  772SOL    HW2 2316   0.459   0.507   2.905 -0.9464  4.2448 -0.2822
  773SOL     OW 2317   2.535   1.197   1.704  0.1137 -0.1002 -0.6864
  773SOL    HW1 2318   2.454   1.135   1.697 -0.8230 -0.0130  0.5470
  773SOL    HW2 2319   2.618   1.147   1.735 -2.2615  0.9845  0.2756
  774SOL     OW 2320   1.183   0.515   0.452 -0.2319 -0.0886 -0.3279
  774SOL    HW1 2321   1.143   0.455   0.530 -0.8654 -0.6868  4.0949
  774SOL    HW2 2322   1.220   0.604   0.492  0.2727  1.7698  1.4744
  775SOL     OW 2323   2.169   2.518   2.978 -0.3116  0.2433 -0.1278
  775SOL    HW1 2324   2.144   2.584   2.904  2.1194 -0.6760  0.2756
  775SOL    HW2 2325   2.110   2.526   3.057  2.5796  0.6737  0.4838
  776SOL     OW 2326   2.354   0.288   1.829 -0.4141 -0.6644 -0.3003
  776SOL    HW1 2327   2.272   0.235   1.810  0.4120  0.7392  3.0731
  776SOL    HW2 2328   2.401   0.230   1.900 -0.1879  1.6227  3.4321
  777SOL     OW 2329   0.390   1.244   2.736 -0.5166  0.1087  0.6106
  777SOL    HW1 2330   0.357   1.337   2.703 -2.4673  0.6685  0.0428
  777SOL    HW2 2331   0.427   1.191   2.658  0.8365  0.9233  0.1830
  778SOL     OW 2332   0.974   2.981   0.322  0.3086 -0.4269 -0.0812
  778SOL    HW1 2333   0.882   3.013   0.281 -0.2877  0.4327 -0.0797
  778SOL    HW2 2334   0.960   2.966   0.422 -0.0971 -0.1518  2.7828
  779SOL     OW 2335   0.388   1.042   2.500  0.2175  0.4176 -0.4451
  779SOL    HW1 2336   0.339   1.121   2.464  3.1814  0.9766  0.8368
  779SOL    HW2 2337   0.422   0.977   2.435 -2.0159 -0.6842  2.4414
  780SOL     OW 2338   2.021   0.801   2.739 -0.7332 -0.7268 -0.0545
  780SOL    HW1 2339   2.069   0.725   2.691 -0.0825  1.0625  2.0738
  780SOL    HW2 2340   1.936   0.828   2.687 -2.2013  0.3876  0.5825
  781SOL     OW 2341   2.394   1.379   1.885 -0.3489 -0.0975 -0.4964
  781SOL    HW1 2342   2.436   1.298   1.843  1.4875 -0.7292  2.4463
  781SOL    HW2 2343   2.410   1.462   1.832 -0.8898 -0.2362  1.2056
  782SOL     OW 2344   1.189   1.782   2.342 -0.3427  0.4303 -0.1632
  782SOL    HW1 2345   1.156   1.711   2.277  0.2881  3.2830 -1.1116
  782SOL    HW2 2346   1.117   1.844   2.374 -0.7428  0.3321 -3.3538
  783SOL     OW 2347   0.652   2.846   1.276 -0.2655  0.6197 -0.4747
  783SOL    HW1 2348   0.720   2.787   1.330  3.3507  0.8812  1.6677
  783SOL    HW2 2349   0.602   2.899   1.350 -0.1691  1.1054  0.8102
  784SOL     OW 2350   1.444   0.614   0.078 -0.2895  0.4463 -0.2450
  784SOL    HW1 2351   1.489   0.574   3.097 -1.1299 -0.7487  0.7229
  784SOL    HW2 2352   1.510   0.675   0.124  1.6626 -0.5082 -1.4851
  785SOL     OW 2353   1.349   0.169   0.089 -0.2030  0.2809 -0.1590
  785SOL    HW1 2354   1.332   0.257   0.138 -0.7246  1.4247  0.9840
  785SOL    HW2 2355   1.449   0.146   0.069 -1.0852 -3.0332  1.1299
  786SOL     OW 2356   0.313   1.477   0.600 -0.3076  0.2258 -0.0049
  786SOL    HW1 2357   0.382   1.400   0.591  1.7848 -1.7146  0.9503
  786SOL    HW2 2358   0.247   1.483   0.526 -1.5951 -0.2394  3.9422
  787SOL     OW 2359   1.850   1.285   0.271  0.6572 -0.3428  0.0216
  787SOL    HW1 2360   1.879   1.354   0.343  0.4881 -0.0584 -0.5731
  787SOL    HW2 2361   1.751   1.258   0.279 -0.4822  0.5540 -1.2538
  788SOL     OW 2362   1.814   1.778   1.242  0.1484 -0.0545  0.0938
  788SOL    HW1 2363   1.788   1.729   1.325  0.6356  1.3481  1.4835
  788SOL    HW2 2364   1.898   1.747   1.194  0.5911  0.2886 -0.3568
  789SOL     OW 2365   2.989   1.402   2.050  0.1008  0.3236 -0.0043
  789SOL    HW1 2366   3.000   1.503   2.074  1.2960  2.3687 -0.5327
  789SOL    HW2 2367   2.977   1.349   2.139  0.7516  0.3060  0.9664
  790SOL     OW 2368   0.427   2.927   0.027 -0.1441  0.2735  0.3523
  790SOL    HW1 2369   0.347   2.878   0.060 -0.0991 -0.1872 -1.1618
  790SOL    HW2 2370   0.450   2.894   3.033  3.3800 -2.5663  0.1463
  791SOL     OW 2371   0.441   0.058   2.509 -0.3534 -0.2280  0.5360
  791SOL    HW1 2372   0.510   0.131   2.518 -1.2182  3.3559  1.3202
  791SOL    HW2 2373   0.401   0.050   2.602  0.5522  0.8983 -1.4820
  792SOL     OW 2374   1.925   0.359   2.265 -0.0694  0.1556 -0.4367
  792SOL    HW1 2375   1.943   0.342   2.363  2.3973  1.1573 -1.9438
  792SOL    HW2 2376   1.840   0.311   2.245  1.4909 -0.0791  0.3709
  793SOL     OW 2377   3.011   0.493   1.264  0.5757  0.1683 -0.2416
  793SOL    HW1 2378   2.970   0.488   1.357 -0.1201 -1.6860  0.3683
  793SOL    HW2 2379   3.084   0.562   1.253 -1.3619 -1.0690  1.0878
  794SOL     OW 2380   0.621   0.515   2.088 -0.1388  0.5199  0.3152
  794SOL    HW1 2381   0.694   0.572   2.054 -1.7068 -1.8033 -0.4686
  794SOL    HW2 2382   0.608   0.433   2.026  2.7553 -1.5472  0.1343
  795SOL     OW 2383   0.158   1.311   0.231  0.7070 -0.7570  0.4411
  795SOL    HW1 2384   0.132   1.314   0.132 -1.4936 -2.1946 -0.2740
  795SOL    HW2 2385   0.091   1.256   0.284  1.3334  0.0244 -1.0268
  796SOL     OW 2386   2.846   2.779   0.363  0.0116  0.2198  0.3684
  796SOL    HW1 2387   2.900   2.721   0.428  1.4856 -1.9561  0.2313
  796SOL    HW2 2388   2.904   2.810   0.283  0.0158  0.7719 -3.0127
  797SOL     OW 2389   1.923   2.709   2.190 -0.0299  0.2104 -0.1992
  797SOL    HW1 2390   1.953   2.650   2.114 -3.6381  1.5102  2.3418
  797SOL    HW2 2391   1.969   2.799   2.209 -2.5706 -2.7826  0.1577
  798SOL     OW 2392   3.047   1.208   0.867  0.3468 -0.2033 -0.0949
  798SOL    HW1 2393   0.021   1.191   0.806 -2.8542  1.3352 -0.7238
  798SOL    HW2 2394   2.995   1.123   0.886  1.0999  0.3106 -2.3797
  799SOL     OW 2395   2.723   0.538   2.725  0.6489  0.3071  0.2535
  799SOL    HW1 2396   2.820   0.516   2.695 -0.7768  0.2986 -0.2960
  799SOL    HW2 2397   2.668   0.577   2.647 -1.7747  0.5196 -2.1446
  800SOL     OW 2398   3.049   1.837   0.223  0.0568 -0.2010 -0.2361
  800SOL    HW1 2399   0.035   1.856   0.185 -2.9083  1.5834  2.0914
  800SOL    HW2 2400   3.052   1.855   0.323 -0.0154 -3.3599  0.1894
  801SOL     OW 2401   1.473   1.578   0.990  0.1625  0.3135  0.3240
  801SOL    HW1 2402   1.569   1.597   0.961  0.4052  1.0732 -1.4961
  801SOL    HW2 2403   1.408   1.650   0.961  1.5434  0.3054  2.5656
  802SOL     OW 2404   1.222   1.822   1.743  0.1454  0.1252 -0.4460
  802SOL    HW1 2405   1.291   1.852   1.812 -0.3419  3.5566  0.4444
  802SOL    HW2 2406   1.256   1.837   1.653 -0.2028 -0.1685  0.8396
  803SOL     OW 2407   0.065   1.583   0.778  0.6076 -0.2401  0.0200
  803SOL    HW1 2408   0.034   1.609   0.686 -1.0563 -2.4804  0.2137
  803SOL    HW2 2409   0.159   1.555   0.774 -2.3621  0.5671  1.0791
  804SOL     OW 2410   0.885   2.377   1.429 -0.4457 -0.7943 -0.0610
  804SOL    HW1 2411   0.925   2.357   1.338  0.6687 -0.8803  0.1437
  804SOL    HW2 2412   0.805   2.438   1.411 -0.5180  2.8119  0.4029
  805SOL     OW 2413   2.148   1.387   0.146 -0.8584 -0.1320  0.2933
  805SOL    HW1 2414   2.183   1.471   0.109  0.8482 -2.3064 -0.6612
  805SOL    HW2 2415   2.047   1.377   0.118 -2.6493 -0.2869  0.9863
  806SOL     OW 2416   1.657   2.700   1.317  0.2783  0.7099  0.4184
  806SOL    HW1 2417   1.746   2.729   1.363 -0.1598  1.4893  1.8986
  806SOL    HW2 2418   1.604   2.776   1.273 -0.9339  0.9026 -0.4504
  807SOL     OW 2419   2.636   0.622   3.010  0.0011  0.4305  0.5527
  807SOL    HW1 2420   2.670   0.711   3.030 -2.9785 -1.6114 -0.9192
  807SOL    HW2 2421   2.654   0.607   2.908 -0.8540 -0.1401 -0.3114
  808SOL     OW 2422   0.137   1.190   0.689  0.3145 -0.2338 -0.2156
  808SOL    HW1 2423   0.200   1.132   0.738 -1.1236  2.3546  0.7699
  808SOL    HW2 2424   0.177   1.281   0.665 -0.2306  1.5414  0.8009
  809SOL     OW 2425   2.750   0.741   2.342  0.0697 -0.4136 -0.2502
  809SOL    HW1 2426   2.707   0.826   2.304  1.4746 -0.4069 -0.4075
  809SOL    HW2 2427   2.696   0.699   2.417 -1.0216 -0.4766 -1.5841
  810SOL     OW 2428   1.486   0.596   1.393  0.2273  0.0587  0.3946
  810SOL    HW1 2429   1.449   0.538   1.471 -2.2619  0.9062  3.1056
  810SOL    HW2 2430   1.568   0.552   1.353 -1.1227  1.2500  3.4654
  811SOL     OW 2431   1.881   2.792   1.442 -0.2255  0.3697 -0.3708
  811SOL    HW1 2432   1.924   2.714   1.492 -1.9882  1.2336 -1.3066
  811SOL    HW2 2433   1.950   2.856   1.398  1.5548  0.5324 -0.0993
  812SOL     OW 2434   1.804   2.546   3.060 -0.4109  0.6306  0.5095
  812SOL    HW1 2435   1.900   2.531   0.000  3.1477 -1.7840 -0.8324
  812SOL    HW2 2436   1.750   2.461   3.046 -1.6886  1.4604  1.8656
  813SOL     OW 2437   1.708   0.890   2.069  0.3547  0.7108 -0.6518
  813SOL    HW1 2438   1.714   0.977   2.121 -0.4179 -0.1227  2.2370
  813SOL    HW2 2439   1.748   0.821   2.135 -0.1189 -0.1770 -1.8111
  814SOL     OW 2440   1.500   0.571   1.801 -0.3112  0.0336  0.3120
  814SOL    HW1 2441   1.543   0.525   1.883  0.7523 -1.5495  0.4272
  814SOL    HW2 2442   1.502   0.672   1.815 -2.3331 -0.2434 -0.3525
  815SOL     OW 2443   0.501   0.698   0.440  0.2030  0.8310  0.0743
  815SOL    HW1 2444   0.599   0.702   0.456  0.2655  0.9857 -0.3541
  815SOL    HW2 2445   0.484   0.626   0.370  1.1566 -1.2703 -1.0621
  816SOL     OW 2446   2.272   1.824   2.546 -0.9246  0.4495 -0.9397
  816SOL    HW1 2447   2.220   1.784   2.623 -0.7655  1.5592  0.3591
  816SOL    HW2 2448   2.371   1.805   2.558  1.1207 -1.6066  0.9201
  817SOL     OW 2449   0.453   2.410   0.477  0.1093  0.5707  0.0691
  817SOL    HW1 2450   0.466   2.350   0.563  1.2093 -1.6788 -0.7854
  817SOL    HW2 2451   0.370   2.462   0.490  3.0746 -3.1169 -2.6565
  818SOL     OW 2452   1.895   0.229   2.719  0.5567 -0.3281 -0.1205
  818SOL    HW1 2453   1.955   0.242   2.804  2.5550  0.0435  0.2031
  818SOL    HW2 2454   1.792   0.242   2.742 -1.8797 -2.6600 -1.1061
  819SOL     OW 2455   1.669   0.261   0.430 -0.2046  0.0562 -0.4713
  819SOL    HW1 2456   1.571   0.237   0.437  3.0831  1.3390 -0.1912
  819SOL    HW2 2457   1.686   0.360   0.405 -0.6390 -0.5504  1.6193
  820SOL     OW 2458   1.614   0.739   0.434 -0.6381  0.1706  0.1723
  820SOL    HW1 2459   1.517   0.745   0.465 -2.8409 -0.5163  0.2118
  820SOL    HW2 2460   1.676   0.796   0.494 -0.2087  0.0594  2.2786
  821SOL     OW 2461   2.363   2.795   0.487 -0.2955 -0.1693  0.7532
  821SOL    HW1 2462   2.327   2.889   0.464 -0.0147 -2.6173 -1.4314
  821SOL    HW2 2463   2.446   2.771   0.425  1.1847  1.2884 -0.2186
  822SOL     OW 2464   0.184   2.745   2.043 -0.1745 -0.2348 -0.8693
  822SOL    HW1 2465   0.195   2.810   2.122 -2.5938 -1.0675 -1.1251
  822SOL    HW2 2466   0.243   2.770   1.960  1.6833  2.2094 -2.3501
  823SOL     OW 2467   2.639   2.143   1.600  0.0250  0.0099  0.0311
  823SOL    HW1 2468   2.699   2.098   1.667 -0.3237 -2.0365 -3.8556
  823SOL    HW2 2469   2.558   2.089   1.584  1.9163 -1.2007 -1.4602
  824SOL     OW 2470   1.270   2.787   2.454 -0.4934  0.4560  0.1565
  824SOL    HW1 2471   1.241   2.713   2.391 -0.9683 -0.7601  0.5502
  824SOL    HW2 2472   1.375   2.782   2.459 -3.1181 -0.6457 -0.5360
  825SOL     OW 2473   1.843   1.434   0.510 -0.0996  0.4906  0.6371
  825SOL    HW1 2474   1.774   1.402   0.577  1.3445  0.5048 -0.1908
  825SOL    HW2 2475   1.792   1.495   0.451 -0.4133 -0.1720  0.5019
  826SOL     OW 2476   1.909   0.645   0.150  0.0062 -1.0381 -0.5930
  826SOL    HW1 2477   1.963   0.702   0.216 -0.9282  0.9254 -0.6209
  826SOL    HW2 2478   1.943   0.657   0.059 -0.7361  1.7967  2.8466
  827SOL     OW 2479   0.391   1.195   1.596  0.2862  0.2434  0.4051
  827SOL    HW1 2480   0.332   1.282   1.607 -0.0490  1.2872 -0.7130
  827SOL    HW2 2481   0.452   1.192   1.517 -0.1062  3.6215 -1.0338
  828SOL     OW 2482   1.963   1.536   1.904 -0.1449  0.0550 -0.4917
  828SOL    HW1 2483   1.894   1.576   1.843  0.8811 -1.2421  0.4116
  828SOL    HW2 2484   1.930   1.539   2.000  0.8773 -1.5038 -1.3910
  829SOL     OW 2485   0.218   1.920   0.161  0.2712  0.3674 -0.3202
  829SOL    HW1 2486   0.226   1.994   0.091 -1.3558  1.8988  1.7282
  829SOL    HW2 2487   0.270   1.834   0.144  1.1250  0.3034  0.0654
  830SOL     OW 2488   1.076   0.362   0.655  0.4343 -0.2101  0.4186
  830SOL    HW1 2489   1.104   0.270   0.689  1.9037  0.9488  1.1147
  830SOL    HW2 2490   1.049   0.417   0.735  0.7206 -1.7417  0.0945
  831SOL     OW 2491   2.876   1.496   0.115 -0.0757 -0.1068 -0.2732
  831SOL    HW1 2492   2.880   1.430   0.039 -1.3351  0.2368  1.1014
  831SOL    HW2 2493   2.880   1.591   0.077 -5.4483 -0.1263  0.3690
  832SOL     OW 2494   1.080   2.985   3.018 -0.1322 -0.2992  0.2472
  832SOL    HW1 2495   0.988   2.949   2.982 -1.6557 -0.5527  1.6067
  832SOL    HW2 2496   1.097   3.085   3.001  2.5309  1.1546  3.3251
  833SOL     OW 2497   1.219   0.798   1.963  0.2280  0.2464  0.1677
  833SOL    HW1 2498   1.266   0.842   1.886 -2.6981  1.6947  2.0971
  833SOL    HW2 2499   1.237   0.840   2.054 -0.5979  0.7062 -3.2982
  834SOL     OW 2500   0.109   0.686   1.250  0.5000  0.1627  0.4555
  834SOL    HW1 2501   0.064   0.766   1.296  0.8438  0.7220 -0.5448
  834SOL    HW2 2502   0.214   0.689   1.250  1.9193 -0.1559  1.6848
  835SOL     OW 2503   2.901   0.453   1.508  0.3446 -0.2211  0.2602
  835SOL    HW1 2504   2.943   0.411   1.589  1.7298 -0.4733  0.3145
  835SOL    HW2 2505   2.799   0.463   1.520 -1.8889 -0.8436  0.0773
  836SOL     OW 2506   0.540   1.980   0.412  0.5462  0.9179  0.3287
  836SOL    HW1 2507   0.544   1.891   0.463  1.1598  0.5196 -1.3984
  836SOL    HW2 2508   0.573   2.057   0.469 -0.8858  1.0179  1.7765
  837SOL     OW 2509   1.898   1.794   2.358 -0.2581 -0.3055  0.0890
  837SOL    HW1 2510   1.884   1.836   2.450  1.1521 -1.1556 -3.8267
  837SOL    HW2 2511   1.996   1.795   2.329  0.2090 -0.1630 -0.4195
  838SOL     OW 2512   0.054   1.206   1.945  0.2577 -0.0521  0.1592
  838SOL    HW1 2513   0.153   1.237   1.955  1.3996  1.6885 -1.5523
  838SOL    HW2 2514   3.083   1.277   1.978 -3.1303  0.2596  1.1855
  839SOL     OW 2515   0.378   0.374   0.761  0.0867 -0.1946  0.6138
  839SOL    HW1 2516   0.275   0.344   0.757 -1.0769 -0.8304  1.6292
  839SOL    HW2 2517   0.441   0.337   0.694  2.1072  0.7761  0.3655
  840SOL     OW 2518   2.896   0.220   2.556 -0.0449 -0.0750 -0.4055
  840SOL    HW1 2519   2.959   0.144   2.588  1.0996 -0.9203  1.2167
  840SOL    HW2 2520   2.817   0.236   2.619  2.2951  0.0888  0.4016
  841SOL     OW 2521   0.698   2.742   0.002 -0.1393 -0.2060  0.4924
  841SOL    HW1 2522   0.651   2.674   3.036  2.5059  0.0334 -2.0569
  841SOL    HW2 2523   0.771   2.700   0.060 -0.1663  0.4167 -1.0992
  842SOL     OW 2524   0.701   0.084   1.079  0.7185  0.1939 -0.3650
  842SOL    HW1 2525   0.614   0.087   1.023  1.5715 -1.1047 -0.2488
  842SOL    HW2 2526   0.741   3.092   1.063 -0.3940  1.5716  1.6874
  843SOL     OW 2527   3.033   0.733   2.790  0.1467  0.0169  0.3047
  843SOL    HW1 2528   3.037   0.647   2.729 -1.5192 -1.5627 -0.2311
  843SOL    HW2 2529   3.097   0.721   2.870 -2.1742  1.4287  0.5942
  844SOL     OW 2530   1.012   2.460   2.602  0.0144  0.3213  0.0248
  844SOL    HW1 2531   1.087   2.468   2.672  0.1264 -1.6782 -0.7462
  844SOL    HW2 2532   1.039   2.516   2.519  2.1761  1.9344 -1.8820
  845SOL     OW 2533   2.217   2.833   2.548  0.1071 -0.3273  0.4135
  845SOL    HW1 2534   2.285   2.889   2.595 -2.0919 -2.8071  0.0308
  845SOL    HW2 2535   2.144   2.895   2.511  1.0156 -1.2484  0.4449
  846SOL     OW 2536   1.892   1.517   2.498 -0.2715 -0.5265 -0.1591
  846SOL    HW1 2537   1.964   1.455   2.451  1.3438 -2.3359  1.3282
  846SOL    HW2 2538   1.932   1.600   2.549 -1.0746  2.7067 -0.5900
  847SOL     OW 2539   2.671   2.815   2.957 -0.2925 -0.1228 -0.0003
  847SOL    HW1 2540   2.610   2.844   3.035  1.6757  0.8673  1.4558
  847SOL    HW2 2541   2.745   2.884   2.951 -1.4394  1.4057  1.2033
  848SOL     OW 2542   0.105   0.538   0.334 -0.0377  0.2891  0.2916
  848SOL    HW1 2543   0.184   0.490   0.296 -2.4455 -0.3789  1.1933
  848SOL    HW2 2544   0.116   0.641   0.330 -2.5385 -0.1099 -2.2303
  849SOL     OW 2545   1.397   0.017   2.052  0.0744 -0.6904 -0.3771
  849SOL    HW1 2546   1.484   0.048   2.104  1.0714  3.8170  0.0241
  849SOL    HW2 2547   1.310   0.057   2.094  0.2566 -0.3686  0.4211
  850SOL     OW 2548   0.780   0.979   0.653 -0.1977  0.4423 -0.2752
  850SOL    HW1 2549   0.864   0.952   0.597  1.7717 -1.6308 -0.3105
  850SOL    HW2 2550   0.801   1.028   0.736  1.5277 -1.5839 -3.0909
  851SOL     OW 2551   0.419   1.274   0.160 -0.2018 -0.5337  0.1004
  851SOL    HW1 2552   0.495   1.298   0.226  3.1055  1.1393  1.1311
  851SOL    HW2 2553   0.329   1.302   0.193  2.8845  0.3703 -0.7660
  852SOL     OW 2554   1.298   0.349   1.930 -0.4366 -0.5617 -0.5401
  852SOL    HW1 2555   1.239   0.420   1.877  0.1635  1.3354 -2.2320
  852SOL    HW2 2556   1.388   0.330   1.886 -2.2181  0.4806 -0.4928
  853SOL     OW 2557   2.769   1.521   0.349  0.2401 -0.2090  0.2969
  853SOL    HW1 2558   2.826   1.466   0.411 -2.7091  3.2703 -1.7556
  853SOL    HW2 2559   2.816   1.520   0.257  2.6034  0.9726  0.2794
  854SOL     OW 2560   1.117   1.154   2.270 -0.4210 -0.7666 -0.2625
  854SOL    HW1 2561   1.045   1.107   2.327 -3.5443 -2.2238  2.3899
  854SOL    HW2 2562   1.176   1.208   2.331 -1.5332  2.2567 -2.0261
  855SOL     OW 2563   0.035   2.785   2.936 -0.2061 -0.0254 -0.3328
  855SOL    HW1 2564   0.096   2.846   2.982  0.2564 -2.6145  0.8215
  855SOL    HW2 2565   0.028   2.693   2.985  0.0152 -0.6090  0.2478
  856SOL     OW 2566   1.580   0.887   2.418 -0.2518 -0.3127 -0.0034
  856SOL    HW1 2567   1.546   0.900   2.324 -1.1192  0.0459  3.2991
  856SOL    HW2 2568   1.506   0.847   2.477  0.4726  1.5325 -0.1366
  857SOL     OW 2569   1.389   0.777   2.595 -0.2887  0.1785 -0.0512
  857SOL    HW1 2570   1.443   0.718   2.666  3.7221 -0.4974  6.1995
  857SOL    HW2 2571   1.313   0.717   2.559 -1.2231  2.5165  1.6055
  858SOL     OW 2572   2.724   1.210   2.278  0.1056 -0.3346 -0.0752
  858SOL    HW1 2573   2.675   1.296   2.243  0.4735  2.4974  0.2662
  858SOL    HW2 2574   2.824   1.234   2.291 -1.2400  1.1156  1.8746
  859SOL     OW 2575   2.419   0.166   0.831  0.2501  0.0213  0.3581
  859SOL    HW1 2576   2.457   0.178   0.925 -2.4630  2.3217  1.7163
  859SOL    HW2 2577   2.478   0.197   0.755 -0.9416 -0.6736  0.8236
  860SOL     OW 2578   1.748   3.021   0.282 -0.5939 -0.0803  0.1933
  860SOL    HW1 2579   1.817   3.092   0.297 -1.8301 -0.3124  0.4705
  860SOL    HW2 2580   1.785   2.936   0.318  2.6966 -0.6782  0.2025
  861SOL     OW 2581   1.275   0.475   1.121  0.2139 -0.4343 -0.2599
  861SOL    HW1 2582   1.219   0.409   1.075 -1.5502  1.8705  1.6231
  861SOL    HW2 2583   1.235   0.494   1.214 -0.0834 -2.0599 -1.7684
  862SOL     OW 2584   1.554   0.119   2.520  0.4327  0.3914 -0.2147
  862SOL    HW1 2585   1.598   0.041   2.468 -1.1573 -0.5924 -3.2824
  862SOL    HW2 2586   1.564   0.204   2.467  0.6563  1.0337  2.0326
  863SOL     OW 2587   2.710   2.665   0.907 -0.1682  0.0177  0.2868
  863SOL    HW1 2588   2.717   2.754   0.854  2.3750  0.0439 -0.1305
  863SOL    HW2 2589   2.800   2.625   0.918  0.5122 -2.4372 -0.3782
  864SOL     OW 2590   2.480   0.157   2.077  0.2912 -0.0188  0.0093
  864SOL    HW1 2591   2.471   0.073   2.133  1.5151 -1.8481  1.6078
  864SOL    HW2 2592   2.569   0.149   2.022  0.9746 -0.8096 -2.5589
  865SOL     OW 2593   1.374   1.175   2.005  0.0899 -0.2587  0.3722
  865SOL    HW1 2594   1.305   1.194   1.934  3.6823 -0.8908 -1.1086
  865SOL    HW2 2595   1.466   1.193   1.967 -3.7124 -2.3426 -1.8230
  866SOL     OW 2596   1.764   2.883   0.946  0.0969 -0.3429  0.1322
  866SOL    HW1 2597   1.683   2.824   0.959  4.4044  2.6906 -0.6701
  866SOL    HW2 2598   1.749   2.940   0.859  0.7033  2.4958 -3.5465
  867SOL     OW 2599   2.276   3.046   0.490 -0.7161 -0.2292 -0.6586
  867SOL    HW1 2600   2.327   3.060   0.578  2.0589  0.5124  3.6566
  867SOL    HW2 2601   2.283   0.031   0.430  1.4882 -0.8963 -0.7249
  868SOL     OW 2602   0.206   2.298   1.979 -0.3643 -0.3735 -0.4569
  868SOL    HW1 2603   0.210   2.309   1.878  1.0307  2.6185  0.8754
  868SOL    HW2 2604   0.176   2.382   2.030  1.5185 -2.7837 -0.5126
  869SOL     OW 2605   1.939   2.210   2.142  0.0490 -0.2230  0.5506
  869SOL    HW1 2606   1.849   2.184   2.100  1.5560  0.7386 -1.0374
  869SOL    HW2 2607   1.929   2.287   2.211  1.7831  2.0670 -0.5637
  870SOL     OW 2608   1.474   1.572   0.667  0.0312 -0.3809  0.1827
  870SOL    HW1 2609   1.537   1.646   0.635 -0.6875 -0.6094 -1.1162
  870SOL    HW2 2610   1.532   1.489   0.681  4.5025 -0.6674 -0.4491
  871SOL     OW 2611   2.940   1.825   1.884 -0.1686 -1.0411  0.0650
  871SOL    HW1 2612   3.037   1.801   1.900  0.6431 -3.1726  1.1103
  871SOL    HW2 2613   2.901   1.773   1.806  2.3678  1.3884 -1.8128
  872SOL     OW 2614   0.694   1.695   2.556  0.2785 -0.1570  0.0900
  872SOL    HW1 2615   0.747   1.725   2.639  1.8655  0.3989 -0.8487
  872SOL    HW2 2616   0.675   1.777   2.497 -0.0150  1.0408 -3.2403
  873SOL     OW 2617   0.938   1.476   1.932  0.0805 -0.2673 -0.4711
  873SOL    HW1 2618   0.922   1.578   1.914  3.1773  0.4695 -0.8723
  873SOL    HW2 2619   0.933   1.452   2.030 -0.6665  2.5383  0.3601
  874SOL     OW 2620   1.554   0.839   1.836 -0.1851  0.0679 -0.0388
  874SOL    HW1 2621   1.640   0.823   1.784 -0.2199  2.0978  1.2889
  874SOL    HW2 2622   1.562   0.864   1.930 -1.6598 -0.8231 -2.9306
  875SOL     OW 2623   2.809   3.084   0.153  0.2614  0.3421  0.0816
  875SOL    HW1 2624   2.851   2.995   0.162  0.6558 -1.2110 -2.1982
  875SOL    HW2 2625   2.839   0.046   0.226  0.4035 -0.1656 -1.5262
  876SOL     OW 2626   0.832   1.118   0.337 -0.1030  0.0271  0.4449
  876SOL    HW1 2627   0.783   1.043   0.283 -3.3219 -3.2305 -2.2292
  876SOL    HW2 2628   0.912   1.157   0.285 -0.3930  2.5415  0.5699
  877SOL     OW 2629   2.591   2.870   0.718  0.5095 -0.0241 -0.9833
  877SOL    HW1 2630   2.502   2.913   0.738  1.3181  0.9715  0.5454
  877SOL    HW2 2631   2.580   2.786   0.661  0.8382 -0.8569  1.9133
  878SOL     OW 2632   2.010   1.858   0.682 -0.2625  0.6382 -0.0703
  878SOL    HW1 2633   2.016   1.862   0.580  0.4848 -2.4881  4.6842
  878SOL    HW2 2634   1.962   1.769   0.711 -1.2087 -1.9613  0.9246
  879SOL     OW 2635   2.579   1.595   1.298  0.1264  0.0270  0.2791
  879SOL    HW1 2636   2.534   1.510   1.322 -1.2303  0.4885  0.8821
  879SOL    HW2 2637   2.564   1.616   1.199 -1.7944  0.2118  0.2027
  880SOL     OW 2638   0.351   1.934   0.782  0.1074  0.8726  0.5181
  880SOL    HW1 2639   0.383   1.937   0.881  1.1185  0.6577  0.2601
  880SOL    HW2 2640   0.367   1.840   0.752  0.4612  2.1312  1.7507
  881SOL     OW 2641   0.629   0.768   1.034  0.3727 -0.1671 -0.0890
  881SOL    HW1 2642   0.626   0.851   1.093  2.4768 -2.3006  0.8812
  881SOL    HW2 2643   0.632   0.792   0.934 -0.7785  4.1560 -0.8830
  882SOL     OW 2644   2.635   1.206   1.161  0.7615  0.1486 -0.5562
  882SOL    HW1 2645   2.602   1.131   1.105  0.2364  4.8075  1.3833
  882SOL    HW2 2646   2.678   1.282   1.107 -2.1689  2.3633  1.5381
  883SOL     OW 2647   1.587   0.200   1.858  0.2390  0.3241 -0.1609
  883SOL    HW1 2648   1.558   0.124   1.916 -3.1523  0.2473 -2.1706
  883SOL    HW2 2649   1.588   0.173   1.759 -1.6481 -2.8052  2.2635
  884SOL     OW 2650   2.918   0.336   1.769 -0.0782  0.0433 -0.7781
  884SOL    HW1 2651   3.000   0.340   1.826 -2.1622  0.2326 -0.6197
  884SOL    HW2 2652   2.838   0.373   1.825 -0.5339 -0.5825 -1.1042
  885SOL     OW 2653   1.304   1.366   2.826  0.6327 -0.4194  0.2312
  885SOL    HW1 2654   1.228   1.339   2.765  0.4008 -1.8378 -1.1958
  885SOL    HW2 2655   1.312   1.471   2.832  1.4997  1.2204  1.0894
  886SOL     OW 2656   1.914   0.438   2.968 -0.2388 -0.1099 -0.6861
  886SOL    HW1 2657   1.818   0.458   2.980  1.1422  0.2528  1.2238
  886SOL    HW2 2658   1.944   0.361   3.028 -0.6964  2.3116  0.6129
  887SOL     OW 2659   1.594   0.067   1.607 -0.3834 -0.2246  0.2245
  887SOL    HW1 2660   1.625   0.144   1.551  1.5150  1.5743  2.6666
  887SOL    HW2 2661   1.667   3.096   1.611 -0.5823  2.3910  1.8166
  888SOL     OW 2662   2.001   1.835   1.931  0.2928  0.0847 -0.3463
  888SOL    HW1 2663   2.019   1.739   1.942 -1.0317  4.7980 -2.1766
  888SOL    HW2 2664   2.087   1.890   1.942  2.1964  0.2757  1.8598
  889SOL     OW 2665   1.876   2.178   0.450  0.2369 -0.2944 -0.4174
  889SOL    HW1 2666   1.912   2.084   0.470  0.1310 -0.4602 -0.5433
  889SOL    HW2 2667   1.939   2.248   0.490  1.8983 -0.7593  1.8588
  890SOL     OW 2668   1.118   1.979   0.603 -0.6096  0.4117 -0.0381
  890SOL    HW1 2669   1.028   2.026   0.614  1.2303 -0.3600  0.6434
  890SOL    HW2 2670   1.107   1.879   0.581 -1.6396 -0.6973  2.7444
  891SOL     OW 2671   2.770   0.840   3.096  0.0393 -0.4172  0.6547
  891SOL    HW1 2672   2.818   0.791   0.071  1.4278  0.2931  2.3548
  891SOL    HW2 2673   2.694   0.897   0.038 -0.4586  0.3648 -1.2248
  892SOL     OW 2674   1.512   0.587   2.752 -0.3859  0.1011  0.0263
  892SOL    HW1 2675   1.523   0.534   2.836 -1.1598  1.9594 -0.8517
  892SOL    HW2 2676   1.564   0.535   2.681 -1.5338 -1.2581  0.0576
  893SOL     OW 2677   1.497   2.880   1.590  0.6501 -0.4518 -0.0674
  893SOL    HW1 2678   1.431   2.870   1.508 -0.0058 -1.0735 -3.5140
  893SOL    HW2 2679   1.513   2.982   1.614 -0.0197  2.8984 -1.7578
  894SOL     OW 2680   2.921   3.026   0.520 -0.3655 -0.5759  0.3690
  894SOL    HW1 2681   2.897   2.960   0.451  1.1734  0.4174  0.7739
  894SOL    HW2 2682   2.897   2.999   0.615 -0.8418 -1.2263 -1.8958
  895SOL     OW 2683   2.067   2.289   2.844  0.5469  0.5708  0.2141
  895SOL    HW1 2684   2.150   2.249   2.805 -0.7870  0.7764  2.3883
  895SOL    HW2 2685   2.108   2.374   2.891 -2.8627  0.9217  1.5313
  896SOL     OW 2686   2.159   0.173   2.445 -0.0635  0.2464 -0.3731
  896SOL    HW1 2687   2.186   0.234   2.529  1.6978  0.6463  3.5617
  896SOL    HW2 2688   2.150   0.218   2.356  0.5780 -1.5685  2.6973
  897SOL     OW 2689   0.431   1.584   1.734 -0.1845  0.0320 -0.6410
  897SOL    HW1 2690   0.445   1.567   1.833  1.5094  1.5856 -1.7784
  897SOL    HW2 2691   0.519   1.604   1.687  0.2719  0.8661  0.2806
  898SOL     OW 2692   2.472   1.626   1.745 -0.4493 -0.0977 -0.2565
  898SOL    HW1 2693   2.404   1.659   1.680  0.6458 -2.0989 -2.4535
  898SOL    HW2 2694   2.528   1.550   1.712 -0.3024  2.8437  2.5649
  899SOL     OW 2695   1.710   2.529   1.078  0.0730 -0.0830  0.2612
  899SOL    HW1 2696   1.616   2.504   1.047 -0.7109 -1.0432  0.5594
  899SOL    HW2 2697   1.699   2.591   1.160 -0.5719 -2.8349 -0.4390
  900SOL     OW 2698   1.185   0.703   3.059 -0.2347  0.3042  0.0137
  900SOL    HW1 2699   1.273   0.685   0.012  0.8830  3.3081 -0.5456
  900SOL    HW2 2700   1.152   0.800   3.076 -1.3722 -0.1040 -0.6291
  901SOL     OW 2701   1.339   1.684   2.536  0.0194  0.1697 -0.4287
  901SOL    HW1 2702   1.423   1.654   2.492 -3.7687 -0.7206  2.4789
  901SOL    HW2 2703   1.274   1.719   2.467  1.5393 -0.2315  0.7321
  902SOL     OW 2704   2.904   2.550   0.108 -0.0882 -0.0710 -0.5776
  902SOL    HW1 2705   2.965   2.627   0.131  0.6468  0.7607 -0.3637
  902SOL    HW2 2706   2.884   2.503   0.193 -1.5416  2.9318 -1.4230
  903SOL     OW 2707   2.303   0.978   1.947 -0.1164  0.4827  0.1043
  903SOL    HW1 2708   2.335   0.887   1.977  1.2423 -1.3920 -0.3506
  903SOL    HW2 2709   2.324   1.051   2.014 -0.6753  1.8850  1.4008
  904SOL     OW 2710   1.582   0.444   2.972  0.1280 -0.0324  0.0866
  904SOL    HW1 2711   1.589   0.364   2.909 -1.3534  1.1968 -3.8865
  904SOL    HW2 2712   1.623   0.416   3.063  0.7502 -3.4496  2.2552
  905SOL     OW 2713   2.141   2.360   0.998  0.5977  0.0424 -0.0120
  905SOL    HW1 2714   2.153   2.460   0.986 -2.0316 -1.1330  0.4110
  905SOL    HW2 2715   2.182   2.321   0.911  1.5538 -0.0224  0.2509
  906SOL     OW 2716   1.593   1.855   0.034  0.0229 -0.3689  0.1342
  906SOL    HW1 2717   1.548   1.767   0.036  1.1130  5.5633  3.7561
  906SOL    HW2 2718   1.551   1.926   3.073  0.4978  1.6457  1.2096
  907SOL     OW 2719   0.779   2.678   0.618 -0.2093 -0.0402  0.3448
  907SOL    HW1 2720   0.705   2.672   0.684  2.9642  0.7296  1.0837
  907SOL    HW2 2721   0.753   2.651   0.524 -1.2815  2.8152  0.8052
  908SOL     OW 2722   1.287   2.713   1.984 -0.3805  0.3455 -0.4420
  908SOL    HW1 2723   1.277   2.627   1.936  1.6185  0.2516  1.2094
  908SOL    HW2 2724   1.379   2.753   1.983 -0.9041  0.5034 -1.0047
  909SOL     OW 2725   1.730   0.548   1.261  0.3709  0.0770  0.0753
  909SOL    HW1 2726   1.814   0.552   1.316  0.1440  1.4709 -0.4558
  909SOL    HW2 2727   1.743   0.490   1.180  1.1812 -1.9336  0.7861
  910SOL     OW 2728   1.320   1.016   3.036 -0.1171 -0.1914  0.6784
  910SOL    HW1 2729   1.219   1.023   3.042  0.3197 -0.4583  1.5879
  910SOL    HW2 2730   1.357   0.975   2.950 -1.2914  2.2725  1.1584
  911SOL     OW 2731   2.902   0.744   0.206 -0.0885  1.0098  0.0167
  911SOL    HW1 2732   2.868   0.658   0.258  1.2366 -0.1162  0.2918
  911SOL    HW2 2733   2.895   0.821   0.269  0.1307 -0.7265 -1.7958
  912SOL     OW 2734   0.047   2.250   0.050 -0.0488 -0.2198  0.9850
  912SOL    HW1 2735   0.145   2.229   0.063 -0.0897  0.3342 -1.8344
  912SOL    HW2 2736   0.008   2.301   0.132 -1.3639 -0.7754  1.3823
  913SOL     OW 2737   2.629   2.055   2.594  0.7732  0.0479 -0.3941
  913SOL    HW1 2738   2.668   2.069   2.687  1.9564 -3.4483 -0.8573
  913SOL    HW2 2739   2.668   2.127   2.536  2.0279  0.0232  0.6550
  914SOL     OW 2740   1.342   1.894   1.484  0.0662  0.3577 -0.1382
  914SOL    HW1 2741   1.364   1.873   1.387 -2.4378  1.6163 -0.5190
  914SOL    HW2 2742   1.426   1.915   1.534  0.7014 -0.5106 -0.5986
  915SOL     OW 2743   0.673   2.635   2.080 -0.3115 -0.6577  0.0667
  915SOL    HW1 2744   0.635   2.717   2.037  2.6383 -0.5783  1.3991
  915SOL    HW2 2745   0.669   2.634   2.181 -0.1127  2.4680 -1.3421
  916SOL     OW 2746   0.612   1.218   1.800 -0.1176  0.0570  0.2477
  916SOL    HW1 2747   0.649   1.125   1.822  0.1240 -0.7253 -1.0012
  916SOL    HW2 2748   0.525   1.211   1.751 -3.3144  0.5306 -3.9249
  917SOL     OW 2749   2.452   0.310   0.451 -0.0072 -0.5369 -0.4180
  917SOL    HW1 2750   2.382   0.244   0.417  0.0209 -0.0946  0.3215
  917SOL    HW2 2751   2.517   0.263   0.516 -1.4239  2.1032  0.1421
  918SOL     OW 2752   1.640   2.770   2.230 -0.4458  0.1003  0.2070
  918SOL    HW1 2753   1.738   2.780   2.256 -2.4300 -0.4577 -1.6584
  918SOL    HW2 2754   1.587   2.775   2.313  0.0311 -0.5394 -1.7956
  919SOL     OW 2755   1.506   2.611   1.744 -0.1377 -0.0424 -0.0826
  919SOL    HW1 2756   1.496   2.704   1.710  0.6964 -1.2837  1.4954
  919SOL    HW2 2757   1.419   2.558   1.731 -0.9039 -1.7528 -1.3575
  920SOL     OW 2758   0.706   0.957   2.884 -0.3491  0.3869  0.5435
  920SOL    HW1 2759   0.683   0.981   2.787  1.7808 -0.8563 -0.6437
  920SOL    HW2 2760   0.625   0.931   2.944  0.9772  0.1177 -0.7309
  921SOL     OW 2761   0.076   0.344   2.761 -0.3043 -0.3155  0.0255
  921SOL    HW1 2762   3.097   0.396   2.717  0.2070  3.4678 -1.1945
  921SOL    HW2 2763   0.155   0.344   2.697  1.1699  1.9321 -1.0808
  922SOL     OW 2764   0.749   1.932   0.817 -0.2945 -0.0393 -0.2431
  922SOL    HW1 2765   0.704   1.843   0.834  5.5527  0.0056 -1.3521
  922SOL    HW2 2766   0.713   2.011   0.875 -2.6260  0.9833 -0.8659
  923SOL     OW 2767   0.584   1.132   2.083 -0.7856  0.5559  0.1469
  923SOL    HW1 2768   0.602   1.055   2.024 -1.7678 -0.3509  1.0845
  923SOL    HW2 2769   0.496   1.174   2.061  0.6983  0.6607 -0.9526
  924SOL     OW 2770   1.435   3.029   2.799 -0.0880  0.0994 -0.1261
  924SOL    HW1 2771   1.378   3.072   2.727  2.0712  1.0992  1.9828
  924SOL    HW2 2772   1.395   2.939   2.827  1.7361  1.4198 -0.2850
  925SOL     OW 2773   2.667   1.422   1.640  0.6660  0.6843 -0.0572
  925SOL    HW1 2774   2.618   1.335   1.644  2.1781  1.2157 -1.9530
  925SOL    HW2 2775   2.734   1.429   1.563  0.8690  0.3333  0.3355
  926SOL     OW 2776   1.809   0.978   1.578 -0.6526 -0.2126 -0.3178
  926SOL    HW1 2777   1.819   1.081   1.564  2.2343  0.2651 -0.7785
  926SOL    HW2 2778   1.779   0.935   1.498  1.2374  1.2257  0.7785
  927SOL     OW 2779   2.075   2.918   1.286 -0.9955 -0.0208 -0.1725
  927SOL    HW1 2780   2.112   2.923   1.380 -1.0959 -1.6625 -0.7499
  927SOL    HW2 2781   2.064   3.009   1.242 -4.6935  0.4422 -1.4414
  928SOL     OW 2782   0.377   0.877   2.096 -0.0088 -0.1724 -0.0946
  928SOL    HW1 2783   0.282   0.913   2.121 -1.9319 -0.0233  0.4618
  928SOL    HW2 2784   0.403   0.873   1.997  2.1663 -0.0220  0.7566
  929SOL     OW 2785   2.628   0.468   1.002 -0.2507  0.2676 -0.5706
  929SOL    HW1 2786   2.632   0.365   1.013  1.4791  0.3023 -3.3294
  929SOL    HW2 2787   2.669   0.515   1.080 -0.6609 -0.6767 -3.3913
  930SOL     OW 2788   2.868   2.857   1.652 -0.0133 -0.1957  0.0047
  930SOL    HW1 2789   2.820   2.789   1.711 -4.3767  2.4655  0.8299
  930SOL    HW2 2790   2.909   2.808   1.577 -2.7833 -0.0841  3.0614
  931SOL     OW 2791   1.680   0.907   0.652 -0.1373 -0.0449  0.3485
  931SOL    HW1 2792   1.673   0.849   0.738 -3.0868  0.6419  2.3795
  931SOL    HW2 2793   1.766   0.968   0.650  0.6224 -0.2058  0.5774
  932SOL     OW 2794   2.758   1.449   1.890  0.1145 -0.0224 -0.2284
  932SOL    HW1 2795   2.742   1.435   1.792 -1.1336 -0.0280  0.7326
  932SOL    HW2 2796   2.841   1.412   1.925 -3.7308  1.5858  2.7394
  933SOL     OW 2797   2.842   2.309   1.711  0.2917 -0.2173  0.2360
  933SOL    HW1 2798   2.827   2.340   1.805  1.8594  0.6743  0.4566
  933SOL    HW2 2799   2.756   2.257   1.688 -1.6465 -2.2760 -0.7305
  934SOL     OW 2800   0.716   2.131   1.319 -0.0534  0.0438  0.5334
  934SOL    HW1 2801   0.814   2.134   1.335  0.2403 -0.5267  0.8329
  934SOL    HW2 2802   0.665   2.063   1.374 -1.4573 -1.6226 -0.7119
  935SOL     OW 2803   2.771   1.752   2.095 -0.2337 -0.1748  0.2329
  935SOL    HW1 2804   2.676   1.745   2.057  1.2519  0.4410  0.5717
  935SOL    HW2 2805   2.819   1.827   2.043 -2.7081 -1.8327 -0.4039
  936SOL     OW 2806   2.504   1.762   1.983  0.0090  0.5946  0.8873
  936SOL    HW1 2807   2.486   1.706   1.898 -0.7836 -1.0951  0.7284
  936SOL    HW2 2808   2.435   1.833   1.997 -2.5324  2.1536  0.0836
  937SOL     OW 2809   1.834   1.039   1.849  0.1637  0.7106 -0.5692
  937SOL    HW1 2810   1.783   0.987   1.919  1.6085  0.9964 -1.5039
  937SOL    HW2 2811   1.807   1.007   1.761  1.4295 -0.0915  1.8751
  938SOL     OW 2812   0.773   2.593   2.632 -0.5139 -0.7608  0.4914
  938SOL    HW1 2813   0.839   2.513   2.616 -1.1230 -2.0947  1.8798
  938SOL    HW2 2814   0.814   2.682   2.664  0.5228  5.7404  2.3783
  939SOL     OW 2815   2.326   1.214   3.031 -0.2047 -0.4720  0.3352
  939SOL    HW1 2816   2.240   1.190   3.084 -2.7805  0.5760  0.1308
  939SOL    HW2 2817   2.359   1.126   2.999 -0.1655  0.1147  3.9280
  940SOL     OW 2818   1.054   1.705   0.679 -0.0178  0.1203  0.3928
  940SOL    HW1 2819   1.091   1.618   0.641  0.3895 -0.7288 -1.7709
  940SOL    HW2 2820   1.107   1.739   0.755 -2.2694 -3.8207  0.0025
  941SOL     OW 2821   1.712   2.896   2.661 -0.1856 -0.1947 -0.5126
  941SOL    HW1 2822   1.769   2.968   2.707  0.2683 -0.6222 -2.0954
  941SOL    HW2 2823   1.665   2.838   2.730  1.6704 -0.3037 -0.4553
  942SOL     OW 2824   0.825   2.319   0.383 -0.2476 -0.3825 -0.2865
  942SOL    HW1 2825   0.762   2.392   0.418 -1.8300 -0.9387  0.5713
  942SOL    HW2 2826   0.911   2.311   0.440  0.6167  0.2976 -1.0868
  943SOL     OW 2827   1.933   0.353   1.829 -0.0026 -0.1948 -0.0616
  943SOL    HW1 2828   1.956   0.280   1.901 -0.3933 -1.0257  0.2900
  943SOL    HW2 2829   1.894   0.432   1.880 -0.3453  0.8636  1.4720
  944SOL     OW 2830   0.948   1.372   2.845  0.1756  0.2799  0.1104
  944SOL    HW1 2831   0.847   1.377   2.855  2.5255  0.0935 -1.8922
  944SOL    HW2 2832   0.970   1.327   2.756 -0.0062  1.3851  2.9691
  945SOL     OW 2833   3.018   2.237   1.129 -0.5841  0.1003  0.0950
  945SOL    HW1 2834   2.944   2.288   1.176  2.3340  0.3437 -1.0575
  945SOL    HW2 2835   2.993   2.138   1.134  0.3839  0.9539 -1.4698
  946SOL     OW 2836   0.650   1.071   2.641 -0.8425  0.1354  0.0976
  946SOL    HW1 2837   0.685   1.165   2.661  0.3072  1.0947  1.0991
  946SOL    HW2 2838   0.636   1.060   2.542  1.7519  0.7378 -0.3760
  947SOL     OW 2839   2.720   0.100   1.738 -0.4058 -0.0351 -0.2290
  947SOL    HW1 2840   2.747   0.131   1.832 -0.7125  0.1231  0.1192
  947SOL    HW2 2841   2.802   0.073   1.686  0.9933  2.1604  1.5298
  948SOL     OW 2842   0.137   1.947   1.153 -0.1320 -0.0683 -0.4081
  948SOL    HW1 2843   0.157   1.848   1.150  0.1771 -1.4947 -0.2498
  948SOL    HW2 2844   0.038   1.958   1.150  2.9115 -1.3370 -0.0154
  949SOL     OW 2845   1.299   1.161   1.635  0.0888 -0.4917 -0.2319
  949SOL    HW1 2846   1.238   1.152   1.557  0.7044  2.4457 -1.3105
  949SOL    HW2 2847   1.248   1.206   1.711  0.0773  0.5858  0.5036
  950SOL     OW 2848   0.140   0.993   1.112  0.4267  0.5545  0.0375
  950SOL    HW1 2849   0.096   0.944   1.036 -1.2221 -1.4562  2.7103
  950SOL    HW2 2850   0.238   0.986   1.096 -2.3594 -1.5055 -2.9440
  951SOL     OW 2851   0.317   1.839   2.100  0.3526 -0.0099 -0.4325
  951SOL    HW1 2852   0.261   1.913   2.142  0.9958 -1.9882  0.1051
  951SOL    HW2 2853   0.414   1.854   2.130  2.8129 -0.4768 -0.0442
  952SOL     OW 2854   1.401   1.655   0.330  0.0687 -0.1802 -0.6061
  952SOL    HW1 2855   1.406   1.756   0.350 -1.6632  0.7346  1.1397
  952SOL    HW2 2856   1.325   1.635   0.263 -1.1636  2.3506 -3.2503
  953SOL     OW 2857   0.984   0.561   0.026  0.1502  0.5099  0.1277
  953SOL    HW1 2858   1.068   0.622   0.012  2.1657  0.0708 -0.2278
  953SOL    HW2 2859   0.898   0.603   3.093 -1.8738  1.4915  1.5862
  954SOL     OW 2860   1.933   1.019   0.713 -0.5105 -0.2613 -0.1335
  954SOL    HW1 2861   1.974   1.099   0.672 -1.9725 -2.0591 -0.4591
  954SOL    HW2 2862   1.897   1.038   0.805  0.3045  2.4109  0.4345
  955SOL     OW 2863   2.514   1.565   0.256 -0.0377 -0.3314  0.7121
  955SOL    HW1 2864   2.533   1.636   0.185 -0.1741  1.7766 -0.9231
  955SOL    HW2 2865   2.607   1.540   0.290 -0.2596  1.7648 -2.0652
  956SOL     OW 2866   1.151   0.734   1.591 -0.7250  1.0408 -0.0667
  956SOL    HW1 2867   1.231   0.783   1.639  3.6056  2.1809  1.4887
  956SOL    HW2 2868   1.074   0.722   1.657  0.8559 -1.1325 -2.8007
  957SOL     OW 2869   1.636   1.088   1.150  0.2950  0.1805 -0.2407
  957SOL    HW1 2870   1.607   1.171   1.202  1.2822 -0.7947  1.8519
  957SOL    HW2 2871   1.613   1.007   1.198  0.0415  2.8282 -1.1887
  958SOL     OW 2872   0.435   1.686   0.729  0.0444  0.3183 -0.1763
  958SOL    HW1 2873   0.371   1.609   0.693  0.3135 -0.5239 -2.1444
  958SOL    HW2 2874   0.486   1.728   0.655 -2.2600 -1.0008 -1.8253
  959SOL     OW 2875   1.992   1.403   1.466 -0.0281 -0.9132  0.4525
  959SOL    HW1 2876   2.051   1.403   1.550 -2.8668 -1.2653  1.5151
  959SOL    HW2 2877   2.051   1.403   1.383 -1.1415  2.6404  2.2366
  960SOL     OW 2878   3.017   1.575   2.838 -0.7341 -0.4025  0.0566
  960SOL    HW1 2879   3.054   1.645   2.902  0.3332  1.5176 -0.2154
  960SOL    HW2 2880   3.092   1.526   2.792 -3.0446  1.4702  0.2418
  961SOL     OW 2881   0.924   1.342   1.087  0.5735  0.1518 -0.2717
  961SOL    HW1 2882   0.887   1.424   1.035  1.4066  0.8231  1.1045
  961SOL    HW2 2883   1.007   1.374   1.138 -0.9797  0.2175 -0.2533
  962SOL     OW 2884   0.776   0.710   0.454  0.1220  0.1398  0.2147
  962SOL    HW1 2885   0.849   0.646   0.430 -1.4063  2.5104  1.8731
  962SOL    HW2 2886   0.816   0.789   0.498 -0.2744 -1.7872 -1.6341
  963SOL     OW 2887   1.433   1.853   1.934 -0.7152 -0.2514  0.4599
  963SOL    HW1 2888   1.526   1.886   1.914  1.7918  0.3201 -0.0893
  963SOL    HW2 2889   1.398   1.850   2.028  2.6118 -1.5695 -1.1553
  964SOL     OW 2890   3.002   2.817   2.678 -0.7773 -0.0110  0.6260
  964SOL    HW1 2891   3.060   2.758   2.733 -3.0719 -2.0601 -2.0981
  964SOL    HW2 2892   2.938   2.776   2.607 -1.6067  2.5499 -1.6177
  965SOL     OW 2893   0.707   2.242   0.151 -0.1493  0.7289  0.0162
  965SOL    HW1 2894   0.768   2.204   0.079  2.1483  0.6179 -2.4149
  965SOL    HW2 2895   0.765   2.282   0.225 -0.4960  4.5144 -3.1277
  966SOL     OW 2896   0.058   1.679   3.076 -0.0272  0.7307  0.2927
  966SOL    HW1 2897   0.029   1.704   0.071  1.1628  0.5091 -2.0421
  966SOL    HW2 2898   0.085   1.580   3.073 -0.2108  0.3566  2.1563
  967SOL     OW 2899   2.102   2.693   2.769 -0.6191 -0.1348 -0.2056
  967SOL    HW1 2900   2.163   2.751   2.707  2.1143  2.7207  0.8616
  967SOL    HW2 2901   2.019   2.665   2.718 -0.3310  0.3961 -1.4114
  968SOL     OW 2902   2.068   2.885   0.613 -0.1542 -0.0151 -0.1693
  968SOL    HW1 2903   2.126   2.932   0.545 -1.5895 -3.9915 -1.4897
  968SOL    HW2 2904   2.063   2.936   0.703 -0.1067  0.2478  0.3410
  969SOL     OW 2905   0.677   1.126   2.341  0.3711  0.4578  0.0661
  969SOL    HW1 2906   0.621   1.041   2.348 -2.3091  1.3999  0.5096
  969SOL    HW2 2907   0.652   1.182   2.260  2.3785  1.4805 -0.9949
  970SOL     OW 2908   1.642   1.366   0.656  0.1633 -0.3726 -0.0284
  970SOL    HW1 2909   1.602   1.269   0.643  0.4599 -1.0183 -1.1786
  970SOL    HW2 2910   1.697   1.363   0.745 -2.2858 -2.1661  0.7509
  971SOL     OW 2911   2.430   2.884   1.398  0.1986  0.0468  0.3790
  971SOL    HW1 2912   2.518   2.920   1.433 -0.3821  1.4607 -1.1449
  971SOL    HW2 2913   2.388   2.945   1.324 -2.2861  0.7145 -3.2818
  972SOL     OW 2914   3.010   0.084   1.689  0.5852  0.0709 -0.0016
  972SOL    HW1 2915   3.005   0.023   1.771 -0.6959 -2.8172  1.6360
  972SOL    HW2 2916   2.981   0.178   1.715 -0.3058 -3.9335 -1.2771
  973SOL     OW 2917   0.217   0.198   2.403  0.6070 -0.2185  0.3978
  973SOL    HW1 2918   0.301   0.139   2.401 -0.6981 -2.1397 -2.7740
  973SOL    HW2 2919   0.214   0.265   2.484  0.6435  0.0338  0.6659
  974SOL     OW 2920   2.220   1.169   2.137  0.0692 -0.1292  0.0272
  974SOL    HW1 2921   2.122   1.156   2.098 -2.2103  0.3442  1.1412
  974SOL    HW2 2922   2.252   1.263   2.119  0.4639  0.6451 -0.7571
  975SOL     OW 2923   1.158   0.549   1.367 -0.0196  0.0554  0.2806
  975SOL    HW1 2924   1.166   0.618   1.439 -2.4812 -2.3777  0.6874
  975SOL    HW2 2925   1.065   0.542   1.328 -0.6615  0.3001  0.0680
  976SOL     OW 2926   0.848   1.738   1.953  0.1859  0.3387 -0.0613
  976SOL    HW1 2927   0.794   1.786   2.019  0.7641 -1.1469 -3.1437
  976SOL    HW2 2928   0.909   1.806   1.904 -0.0602  1.2451 -1.0546
  977SOL     OW 2929   0.809   0.121   0.310  0.2024 -0.0612  0.1084
  977SOL    HW1 2930   0.887   0.167   0.265 -0.9030 -0.9203 -1.9597
  977SOL    HW2 2931   0.828   0.116   0.412  0.5610  0.2798 -2.5161
  978SOL     OW 2932   2.632   0.962   2.222  0.3086  0.1151 -0.5583
  978SOL    HW1 2933   2.532   0.984   2.221 -1.1891 -2.8757  0.0651
  978SOL    HW2 2934   2.682   1.046   2.242 -1.5627  1.1976  0.8708
  979SOL     OW 2935   1.656   0.398   2.017 -0.3739  0.0644  0.3304
  979SOL    HW1 2936   1.648   0.315   1.955 -1.5819 -0.5110 -0.9664
  979SOL    HW2 2937   1.732   0.458   1.988 -0.0273  0.9536 -3.2950
  980SOL     OW 2938   1.779   1.677   1.735 -0.1884  0.1483 -0.4803
  980SOL    HW1 2939   1.698   1.620   1.754 -0.3856 -0.2474  1.2732
  980SOL    HW2 2940   1.787   1.687   1.634  1.4779  1.6594  1.1065
  981SOL     OW 2941   2.419   1.003   1.445 -0.2191 -0.1942  0.3455
  981SOL    HW1 2942   2.514   1.050   1.439 -0.2329  2.5381  0.8090
  981SOL    HW2 2943   2.381   1.011   1.535  2.2090 -2.2323  0.2593
  982SOL     OW 2944   0.419   0.205   2.800 -0.2682  0.5759  0.1058
  982SOL    HW1 2945   0.464   0.260   2.869  1.9842 -2.0790 -1.3641
  982SOL    HW2 2946   0.465   0.108   2.798  2.0210 -1.2690 -1.8894
  983SOL     OW 2947   2.413   0.605   2.730 -1.0141 -0.2144 -0.1920
  983SOL    HW1 2948   2.385   0.644   2.818 -0.0676 -1.5637 -0.1199
  983SOL    HW2 2949   2.431   0.505   2.739 -1.9493 -1.9048  0.9684
  984SOL     OW 2950   1.219   3.077   1.840  0.0447 -0.2282  0.0042
  984SOL    HW1 2951   1.305   3.082   1.890 -1.4910 -2.0964 -0.0429
  984SOL    HW2 2952   1.155   3.013   1.886 -0.6685  0.3171 -0.4415
  985SOL     OW 2953   1.747   1.868   1.950  0.0839 -0.0387 -0.3152
  985SOL    HW1 2954   1.848   1.843   1.946  2.9248 -1.8594 -2.1700
  985SOL    HW2 2955   1.697   1.810   1.884  2.7992 -0.6413 -0.0291
  986SOL     OW 2956   2.380   0.738   1.465 -0.1308  0.0901  0.1253
  986SOL    HW1 2957   2.413   0.833   1.454  1.3417 -1.0298  1.3598
  986SOL    HW2 2958   2.432   0.669   1.407  2.4812 -0.4628 -2.8142
  987SOL     OW 2959   2.699   1.087   1.380 -0.1980 -0.2070 -0.0447
  987SOL    HW1 2960   2.663   1.114   1.288 -1.8770  0.6165 -1.2236
  987SOL    HW2 2961   2.754   1.165   1.419  1.3850 -0.4657  0.9004
  988SOL     OW 2962   2.136   1.502   1.680  0.4150  0.8132  0.0334
  988SOL    HW1 2963   2.072   1.498   1.759 -2.4418  2.5579  0.9433
  988SOL    HW2 2964   2.165   1.599   1.661  2.0611 -0.8454  1.1918
  989SOL     OW 2965   1.139   2.582   0.206  0.9179 -0.1181 -0.2360
  989SOL    HW1 2966   1.132   2.682   0.185  0.8356  0.1222 -1.1948
  989SOL    HW2 2967   1.210   2.559   0.273  0.0044 -0.5434  0.6231
  990SOL     OW 2968   1.629   0.818   2.911 -0.4746 -0.7267 -0.5829
  990SOL    HW1 2969   1.602   0.723   2.877 -0.4147 -1.4070 -0.8229
  990SOL    HW2 2970   1.610   0.839   3.013 -0.1357 -1.2613  2.2472
  991SOL     OW 2971   0.866   0.176   0.566  0.0194 -0.2366  0.2738
  991SOL    HW1 2972   0.881   0.124   0.653  1.0910  2.7888  0.7083
  991SOL    HW2 2973   0.941   0.244   0.557 -0.1600  0.6390 -1.2834
  992SOL     OW 2974   2.828   1.336   1.436  0.1302  0.1532  0.6884
  992SOL    HW1 2975   2.867   1.404   1.373 -3.9881  0.5469  1.2328
  992SOL    HW2 2976   2.902   1.280   1.475 -2.3552 -3.4818 -2.7126
  993SOL     OW 2977   2.704   0.845   1.608  0.0442  0.3811 -0.0347
  993SOL    HW1 2978   2.644   0.777   1.647  0.1569  1.6170  1.1492
  993SOL    HW2 2979   2.722   0.826   1.510 -0.8922 -3.0388  0.3013
  994SOL     OW 2980   0.249   2.426   2.500 -0.2498 -0.1079  0.1834
  994SOL    HW1 2981   0.323   2.477   2.458 -2.0504  2.1536 -0.2356
  994SOL    HW2 2982   0.207   2.490   2.567 -0.4566  0.3012  1.0444
  995SOL     OW 2983   1.762   1.029   2.849  0.2658 -0.3184 -0.9393
  995SOL    HW1 2984   1.859   1.021   2.880  0.4361  0.4958 -2.3910
  995SOL    HW2 2985   1.708   0.947   2.871  0.5372  1.5873 -1.3359
  996SOL     OW 2986   2.718   1.714   0.558  0.0934 -0.1247  0.6974
  996SOL    HW1 2987   2.692   1.808   0.544 -0.9685 -0.7489  3.0514
  996SOL    HW2 2988   2.785   1.684   0.486  3.5372  0.4158  1.5132
  997SOL     OW 2989   2.291   0.995   2.335  0.2341 -0.0946 -0.3678
  997SOL    HW1 2990   2.279   1.070   2.268  0.2799 -0.3171 -0.0678
  997SOL    HW2 2991   2.204   0.946   2.367 -0.0587 -0.8739 -0.7095
  998SOL     OW 2992   2.563   1.031   0.597  0.4290 -0.6760 -0.4219
  998SOL    HW1 2993   2.487   0.971   0.566  1.0666 -2.1254 -1.1198
  998SOL    HW2 2994   2.613   1.059   0.513 -0.5618 -1.0874  0.0660
  999SOL     OW 2995   0.038   2.372   0.305 -0.5747  0.4149 -0.3875
  999SOL    HW1 2996   0.089   2.324   0.375 -0.8472  2.2281 -1.0241
  999SOL    HW2 2997   3.042   2.378   0.338  1.5216  1.5554 -1.4518
 1000SOL     OW 2998   0.946   0.767   2.508 -0.5081 -0.1027 -0.0098
 1000SOL    HW1 2999   0.914   0.751   2.606  0.4938  1.5244 -0.8970
 1000SOL    HW2 3000   1.040   0.726   2.496  1.2892  0.9912 -2.6508
   3.09831   3.09831   3.09831
