1000 SPC/Fw water molecules t= 338.00000 step= 338000
 3000
    1SOL     OW    1   2.504   0.211   1.401 -0.3965 -0.9145  0.0818
    1SOL    HW1    2   2.544   0.119   1.413  0.0938  1.7594  0.0748
    1SOL    HW2    3   2.486   0.261   1.491 -1.0216  0.9531 -0.3119
    2SOL     OW    4   2.747   2.521   1.055 -0.6192 -0.2368 -0.0955
    2SOL    HW1    5   2.753   2.571   1.140  0.4147 -2.2748 -2.0421
    2SOL    HW2    6   2.704   2.432   1.076  2.9511 -0.5044  0.3102
    3SOL     OW    7   1.110   3.072   2.745 -0.9846 -0.2851 -0.5891
    3SOL    HW1    8   1.138   3.021   2.830  0.1609 -0.4577  1.0249
    3SOL    HW2    9   1.010   3.093   2.748  0.4517 -2.1838 -1.6475
    4SOL     OW   10   1.802   2.656   2.013  0.0420  0.6453 -0.4494
    4SOL    HW1   11   1.882   2.700   2.060  0.3232 -0.0422  0.4419
    4SOL    HW2   12   1.819   2.666   1.913  0.6623 -1.4002 -0.8422
    5SOL     OW   13   1.534   1.153   1.801  0.0499 -0.0140  0.3199
    5SOL    HW1   14   1.588   1.097   1.732 -1.6016 -1.9530 -2.2444
    5SOL    HW2   15   1.462   1.099   1.837  3.1768  2.8878  0.5935
    6SOL     OW   16   1.958   2.793   0.726 -0.2140 -0.6538  0.2780
    6SOL    HW1   17   1.890   2.720   0.705  2.2380 -1.7973 -0.0043
    6SOL    HW2   18   1.989   2.784   0.823 -0.9824 -0.3689 -2.3463
    7SOL     OW   19   2.071   1.229   1.187 -0.2111 -0.2748 -0.1457
    7SOL    HW1   20   2.004   1.302   1.216 -3.4162 -1.4997  2.6610
    7SOL    HW2   21   2.025   1.156   1.136  0.8678  2.2814  0.6423
    8SOL     OW   22   0.739   1.835   1.313  0.3969  0.1192  0.1892
    8SOL    HW1   23   0.676   1.758   1.336  0.2445 -1.0212 -1.5883
    8SOL    HW2   24   0.718   1.930   1.347  1.9141  0.1965  0.5380
    9SOL     OW   25   1.202   2.373   2.055  0.0047 -0.0139  0.6358
    9SOL    HW1   26   1.130   2.381   2.125 -0.3776  0.0599 -0.3938
    9SOL    HW2   27   1.165   2.319   1.979  1.0698  0.5692 -1.3353
   10SOL     OW   28   0.290   2.141   0.841 -0.0527  0.0062 -0.2289
   10SOL    HW1   29   0.371   2.081   0.842  0.9653  1.6191 -0.6899
   10SOL    HW2   30   0.263   2.149   0.938  0.9250  0.2365 -1.8888
   11SOL     OW   31   1.528   2.089   1.098 -0.4837  0.0658 -1.0593
   11SOL    HW1   32   1.492   2.183   1.116 -1.3117  2.0060  3.5344
   11SOL    HW2   33   1.459   2.016   1.116 -1.4359  1.0366  3.0075
   12SOL     OW   34   2.408   0.409   2.166  0.5187  0.1963 -0.1005
   12SOL    HW1   35   2.502   0.440   2.151  0.0963 -1.5758  0.5055
   12SOL    HW2   36   2.393   0.314   2.139 -1.3290  3.4639  2.0293
   13SOL     OW   37   2.795   2.809   0.594  0.9095 -0.1673  0.1092
   13SOL    HW1   38   2.762   2.772   0.685  1.6378 -0.4625 -2.3242
   13SOL    HW2   39   2.894   2.799   0.596 -4.1509  2.7307  1.1821
   14SOL     OW   40   1.596   1.601   2.961 -0.0619  0.0291 -0.4258
   14SOL    HW1   41   1.624   1.501   2.980 -2.8474 -0.8511  1.5637
   14SOL    HW2   42   1.654   1.634   2.890  1.3674 -2.2669  3.4190
   15SOL     OW   43   2.853   2.697   1.563  0.1564 -0.1375 -0.0470
   15SOL    HW1   44   2.931   2.762   1.573 -1.0638 -0.7417  1.6418
   15SOL    HW2   45   2.765   2.752   1.545 -2.1509  2.0137 -0.2573
   16SOL     OW   46   2.704   2.880   0.217  0.4713  0.4131  0.6434
   16SOL    HW1   47   2.661   2.812   0.283 -1.3145 -0.5736  0.8482
   16SOL    HW2   48   2.800   2.886   0.242  0.6765 -0.8280  2.7890
   17SOL     OW   49   0.314   0.281   1.069 -0.5708  0.0919  0.2325
   17SOL    HW1   50   0.350   0.375   1.092 -0.5933  0.6999  0.3215
   17SOL    HW2   51   0.378   0.207   1.084 -1.9605 -2.8148  1.0301
   18SOL     OW   52   2.319   0.643   0.535  0.0167  0.7632 -0.2206
   18SOL    HW1   53   2.307   0.741   0.538 -0.3539 -1.9273 -0.5231
   18SOL    HW2   54   2.399   0.618   0.591 -1.1047 -0.4805  1.5445
   19SOL     OW   55   1.782   1.710   0.241  0.2122 -0.1839  0.2901
   19SOL    HW1   56   1.792   1.802   0.197 -1.3994 -0.9792  1.9792
   19SOL    HW2   57   1.861   1.654   0.213  0.0372  1.7948  2.1438
   20SOL     OW   58   2.485   2.091   2.249 -0.5206  0.5847  0.2454
   20SOL    HW1   59   2.458   1.996   2.224  1.4484  1.1279  0.5462
   20SOL    HW2   60   2.397   2.138   2.274  1.3865 -0.9370 -1.9184
   21SOL     OW   61   1.859   0.078   0.447 -0.1831 -0.5841 -0.3659
   21SOL    HW1   62   1.893   3.098   0.473 -1.6417 -0.1244  0.2794
   21SOL    HW2   63   1.938   0.143   0.438 -0.1920 -1.1494  1.3296
   22SOL     OW   64   2.498   0.306   1.644 -0.2065 -0.4902 -0.0821
   22SOL    HW1   65   2.422   0.248   1.688  1.2411 -1.5249  3.0075
   22SOL    HW2   66   2.513   0.388   1.702  0.4228  1.9921 -0.6509
   23SOL     OW   67   0.487   0.786   1.740 -0.0063  0.4956 -0.3992
   23SOL    HW1   68   0.432   0.847   1.794  0.1558 -1.3277 -1.8784
   23SOL    HW2   69   0.583   0.818   1.744 -1.1302 -0.6150  0.3289
   24SOL     OW   70   2.645   2.682   0.396 -0.5723 -0.0967  0.4427
   24SOL    HW1   71   2.699   2.599   0.372 -1.1902  0.4726 -0.7535
   24SOL    HW2   72   2.693   2.738   0.467  0.0582  0.1264  1.7123
   25SOL     OW   73   1.268   2.729   2.723  0.5190 -0.0096  0.0325
   25SOL    HW1   74   1.337   2.741   2.647  0.5709  1.5860 -0.7008
   25SOL    HW2   75   1.274   2.794   2.801 -2.5173 -0.9439 -0.8791
   26SOL     OW   76   1.217   2.509   0.180 -0.0368  0.4759 -0.1689
   26SOL    HW1   77   1.234   2.574   0.101 -0.0600 -0.6576  0.5942
   26SOL    HW2   78   1.209   2.556   0.272  0.8590  0.6872  1.6681
   27SOL     OW   79   2.281   0.823   3.077 -0.5862 -0.0824  0.0991
   27SOL    HW1   80   2.279   0.821   0.066  1.1428  0.8661  0.7352
   27SOL    HW2   81   2.365   0.874   3.048 -0.1782  0.9966  1.7752
   28SOL     OW   82   0.938   1.619   0.978 -0.4504  0.6669  0.3160
   28SOL    HW1   83   0.993   1.528   0.979 -2.1155 -0.9472  1.6634
   28SOL    HW2   84   0.850   1.596   1.022 -1.2351 -3.4506  0.6874
   29SOL     OW   85   3.063   2.712   1.917 -0.2122 -0.5824  0.1669
   29SOL    HW1   86   0.036   2.709   1.855  1.5861  1.1652 -1.6990
   29SOL    HW2   87   2.982   2.664   1.875 -3.2449 -3.5090 -2.4486
   30SOL     OW   88   1.332   0.061   1.295 -0.4244  0.3770 -0.3968
   30SOL    HW1   89   1.418   0.050   1.346  2.5959  0.5179 -0.9291
   30SOL    HW2   90   1.344   0.117   1.208 -0.6431  0.0393  1.1173
   31SOL     OW   91   2.184   3.087   2.382 -0.3814  0.5380  0.4396
   31SOL    HW1   92   2.214   3.040   2.470  0.5160  0.9921 -0.4379
   31SOL    HW2   93   2.083   3.069   2.361 -3.3066 -0.9917  1.0536
   32SOL     OW   94   0.704   1.558   0.475  0.2004  0.1170  0.0369
   32SOL    HW1   95   0.804   1.567   0.499 -0.1876  1.0392  0.0489
   32SOL    HW2   96   0.645   1.572   0.557 -2.9869 -1.2322 -0.2042
   33SOL     OW   97   0.103   0.964   2.425 -0.1278 -0.1660  0.0713
   33SOL    HW1   98   0.187   0.907   2.440 -0.4921  0.4558 -0.2898
   33SOL    HW2   99   0.113   1.030   2.348  0.6172  0.0547 -1.1486
   34SOL     OW  100   2.538   2.937   0.584 -0.4467  0.3494 -0.1933
   34SOL    HW1  101   2.451   2.893   0.625 -3.6277 -0.8180  0.9101
   34SOL    HW2  102   2.626   2.888   0.598  2.3652  3.0116 -3.0078
   35SOL     OW  103   2.434   2.829   2.026  0.0453 -0.1687  0.1467
   35SOL    HW1  104   2.366   2.768   1.977 -0.0559 -2.1208 -1.1290
   35SOL    HW2  105   2.398   2.896   2.093 -1.9171  1.3451  0.7945
   36SOL     OW  106   2.152   2.185   3.093 -0.0366  0.2862  0.0468
   36SOL    HW1  107   2.210   2.247   3.039  2.7255 -2.2078  0.8159
   36SOL    HW2  108   2.074   2.150   3.040 -0.3532 -1.0272  2.5538
   37SOL     OW  109   1.363   0.374   2.225  0.2234 -0.1973 -0.6199
   37SOL    HW1  110   1.376   0.397   2.326  0.5135  0.4956  2.0566
   37SOL    HW2  111   1.383   0.278   2.209  0.0932  0.8346 -0.7313
   38SOL     OW  112   0.237   0.580   2.615  0.0301 -0.0504  0.5206
   38SOL    HW1  113   0.247   0.544   2.713 -0.6268 -1.3193  0.1873
   38SOL    HW2  114   0.327   0.604   2.582 -2.4954 -1.5969  3.3381
   39SOL     OW  115   1.945   1.320   1.641  0.7497 -0.7274 -0.1811
   39SOL    HW1  116   2.017   1.261   1.600 -0.8773 -0.0696 -1.8673
   39SOL    HW2  117   1.943   1.326   1.745 -2.7847 -2.6669 -0.5245
   40SOL     OW  118   1.213   2.649   0.410  0.1381  0.2930  0.3735
   40SOL    HW1  119   1.273   2.731   0.415  1.1195  1.1770 -0.4274
   40SOL    HW2  120   1.255   2.571   0.471  1.3427 -0.0960  0.5646
   41SOL     OW  121   2.306   1.240   0.820 -0.3170  0.5851  0.2151
   41SOL    HW1  122   2.364   1.223   0.903 -2.0515 -2.3856 -0.5787
   41SOL    HW2  123   2.361   1.294   0.748 -0.3054  1.3557 -1.2903
   42SOL     OW  124   0.980   0.278   1.245 -0.0080 -0.2001  0.3968
   42SOL    HW1  125   1.027   0.254   1.160 -1.4057 -2.7434  2.6758
   42SOL    HW2  126   1.000   0.207   1.317 -0.0822  0.6971  0.2045
   43SOL     OW  127   3.096   1.426   2.281  0.0637 -0.6166  0.0249
   43SOL    HW1  128   3.065   1.333   2.317 -2.7986 -3.5213 -2.7849
   43SOL    HW2  129   0.050   1.465   2.351 -0.3735  0.8364 -0.3215
   44SOL     OW  130   2.420   3.081   1.734 -0.0810  0.1076 -0.1562
   44SOL    HW1  131   2.394   0.058   1.778 -1.3448 -0.4998 -0.7753
   44SOL    HW2  132   2.498   3.023   1.780  2.8703 -3.6796 -0.6665
   45SOL     OW  133   1.228   3.006   2.063 -0.4416  0.3292 -0.3628
   45SOL    HW1  134   1.288   3.086   2.063 -1.5286  0.0789  0.3527
   45SOL    HW2  135   1.278   2.920   2.042 -0.2237  2.5254  0.1404
   46SOL     OW  136   1.055   2.571   2.653 -0.0935  0.1023 -0.1714
   46SOL    HW1  137   1.136   2.618   2.694  0.3493 -0.6304 -1.1767
   46SOL    HW2  138   0.998   2.627   2.588 -0.7915  2.5294  0.7098
   47SOL     OW  139   1.444   1.570   0.745  0.1423 -0.0212  0.4852
   47SOL    HW1  140   1.432   1.526   0.654  1.1188 -2.4733 -1.0237
   47SOL    HW2  141   1.518   1.516   0.792  0.7360 -1.4971 -0.5782
   48SOL     OW  142   1.169   2.320   0.751  0.7138 -0.1138 -0.4221
   48SOL    HW1  143   1.093   2.296   0.688  1.1321 -0.7460  2.9666
   48SOL    HW2  144   1.146   2.340   0.843  0.9043 -1.0000  0.2400
   49SOL     OW  145   2.023   0.057   2.729 -0.2669 -0.6078 -0.1373
   49SOL    HW1  146   2.039   3.070   2.709  0.0957 -0.8546  3.8490
   49SOL    HW2  147   2.018   0.114   2.646 -4.1502 -1.7102 -1.3297
   50SOL     OW  148   1.816   3.080   2.996  0.0589  0.6338 -0.3437
   50SOL    HW1  149   1.886   3.105   3.065  1.1528 -2.2478 -0.2385
   50SOL    HW2  150   1.751   0.048   2.991 -1.2980  2.0893 -2.0238
   51SOL     OW  151   2.380   0.607   1.479  0.2738  0.3744 -0.9584
   51SOL    HW1  152   2.423   0.681   1.531 -2.4912 -2.3738  0.7118
   51SOL    HW2  153   2.440   0.570   1.406  1.8466  1.7328  0.1501
   52SOL     OW  154   0.964   1.592   0.609  0.3606  0.3028  0.4998
   52SOL    HW1  155   0.999   1.669   0.549  1.7802 -0.0951  1.9655
   52SOL    HW2  156   1.041   1.574   0.675  0.1398  0.5260  0.2402
   53SOL     OW  157   0.173   1.666   2.663  0.4921  0.4253  0.3606
   53SOL    HW1  158   0.229   1.752   2.678  1.5497 -1.4179  0.6961
   53SOL    HW2  159   0.101   1.655   2.737 -1.6246 -0.2546  0.9709
   54SOL     OW  160   2.620   1.493   1.762 -0.0360  0.0131  0.2696
   54SOL    HW1  161   2.664   1.553   1.691 -1.1427 -1.8479 -1.6987
   54SOL    HW2  162   2.680   1.472   1.839  2.8335  0.8567 -0.3830
   55SOL     OW  163   2.397   2.015   0.626  0.6348 -0.1958 -0.4093
   55SOL    HW1  164   2.402   1.923   0.668 -2.0799  0.5374 -0.8843
   55SOL    HW2  165   2.350   2.079   0.691 -1.6289  0.7359  1.1112
   56SOL     OW  166   1.383   0.258   1.695  0.1947  0.5901  0.3429
   56SOL    HW1  167   1.473   0.303   1.677 -0.2442 -2.9292 -0.9029
   56SOL    HW2  168   1.303   0.304   1.653 -0.9816 -0.8153  2.1252
   57SOL     OW  169   1.668   1.057   2.811  0.0871 -0.1525 -0.2398
   57SOL    HW1  170   1.702   1.010   2.727 -0.0807  0.0901 -2.8202
   57SOL    HW2  171   1.587   1.111   2.783  0.5405 -0.6418  0.0114
   58SOL     OW  172   0.058   0.394   1.074  0.2533  0.0545  0.0597
   58SOL    HW1  173   0.152   0.351   1.080  2.3985 -2.5979  0.0753
   58SOL    HW2  174   0.066   0.495   1.052 -0.8038  0.7145  1.9615
   59SOL     OW  175   1.589   2.583   0.099 -0.1652 -0.7214  0.4011
   59SOL    HW1  176   1.616   2.653   0.169  0.2202 -1.2265  3.7096
   59SOL    HW2  177   1.566   2.501   0.153 -1.0905 -0.7121  0.7183
   60SOL     OW  178   2.940   1.823   2.967 -0.1034 -0.2168  0.2323
   60SOL    HW1  179   3.001   1.806   3.046 -0.5543  1.2907 -0.1196
   60SOL    HW2  180   2.847   1.830   3.002 -0.4341  0.5339 -1.9169
   61SOL     OW  181   0.854   2.585   0.853  0.2684  0.1529  0.2622
   61SOL    HW1  182   0.836   2.646   0.932 -0.2691  0.7781 -2.0716
   61SOL    HW2  183   0.821   2.489   0.868  0.3706 -1.0891 -1.0730
   62SOL     OW  184   1.870   1.505   2.692  0.3376 -0.6763  0.5191
   62SOL    HW1  185   1.864   1.580   2.758  0.2516 -1.0193 -1.1054
   62SOL    HW2  186   1.865   1.412   2.731  1.3120  3.2275 -1.3301
   63SOL     OW  187   2.302   2.273   0.235 -0.2693  0.0681  0.3215
   63SOL    HW1  188   2.345   2.368   0.219 -1.7738  2.9511 -0.3012
   63SOL    HW2  189   2.248   2.241   0.153  0.8906 -0.4865 -1.1137
   64SOL     OW  190   1.798   1.020   0.086 -0.3515 -0.0408  0.2753
   64SOL    HW1  191   1.717   0.966   0.055  1.4079  1.6267 -0.4672
   64SOL    HW2  192   1.878   0.985   0.032  1.6842 -2.4179 -0.4584
   65SOL     OW  193   1.982   1.904   2.279 -0.2365  0.4463  0.2409
   65SOL    HW1  194   2.070   1.861   2.285 -1.4313  2.8165  0.5807
   65SOL    HW2  195   1.929   1.877   2.195  0.5421 -3.8145 -1.7899
   66SOL     OW  196   0.314   0.964   1.014  0.0954 -0.0853 -0.3781
   66SOL    HW1  197   0.282   0.959   0.914 -1.2837  1.3586 -1.0474
   66SOL    HW2  198   0.295   1.059   1.051 -0.6081  1.6730 -1.6115
   67SOL     OW  199   2.091   2.911   2.658 -1.0267  0.3656 -0.2889
   67SOL    HW1  200   2.032   2.856   2.593 -0.9323 -0.4882  2.2145
   67SOL    HW2  201   2.175   2.856   2.680 -1.2471  0.0603  2.5999
   68SOL     OW  202   1.150   2.483   1.469  0.1181 -0.1982  0.3749
   68SOL    HW1  203   1.206   2.492   1.385 -2.2710  1.1777  1.2653
   68SOL    HW2  204   1.207   2.444   1.547 -1.6187 -2.3321 -1.0432
   69SOL     OW  205   0.613   2.502   3.040 -0.4910  0.2394 -0.7940
   69SOL    HW1  206   0.567   2.442   3.107  1.2808  1.0538 -0.6515
   69SOL    HW2  207   0.692   2.548   3.094  1.7713 -0.4128 -0.8555
   70SOL     OW  208   2.946   0.590   2.321 -0.0479  0.0430  0.1659
   70SOL    HW1  209   2.975   0.614   2.222 -0.1913  2.6556 -2.3458
   70SOL    HW2  210   2.946   0.682   2.366  3.2552 -0.1075 -0.0773
   71SOL     OW  211   0.876   1.665   2.934  0.1253  0.0828 -0.5437
   71SOL    HW1  212   0.804   1.608   2.900  3.8927  4.0764  0.8611
   71SOL    HW2  213   0.867   1.684   3.033 -0.1491 -0.0460 -0.8953
   72SOL     OW  214   3.017   1.724   2.288 -0.5218  0.0370 -0.4251
   72SOL    HW1  215   3.068   1.642   2.271 -2.5462 -1.0490  0.2323
   72SOL    HW2  216   3.079   1.807   2.278  2.9745  2.2504  0.1521
   73SOL     OW  217   1.658   1.289   0.466  0.2491 -0.0408  0.1538
   73SOL    HW1  218   1.702   1.298   0.377  0.2210 -2.3452  0.8206
   73SOL    HW2  219   1.713   1.220   0.516  3.6920  0.3285 -0.3477
   74SOL     OW  220   2.350   2.755   2.672  0.1337  0.4623 -0.4414
   74SOL    HW1  221   2.388   2.723   2.586  0.2499 -0.9644 -1.2147
   74SOL    HW2  222   2.320   2.670   2.721  1.0030  0.8637  0.1103
   75SOL     OW  223   2.132   1.986   0.887 -0.1763  0.1204  0.2675
   75SOL    HW1  224   2.063   2.059   0.894  3.0578 -1.5942 -1.2543
   75SOL    HW2  225   2.099   1.894   0.910 -0.2545  2.4614 -2.2186
   76SOL     OW  226   2.680   2.153   2.080  0.0181 -0.2723  0.3277
   76SOL    HW1  227   2.592   2.131   2.130  1.6178 -2.7179 -0.0942
   76SOL    HW2  228   2.668   2.244   2.042 -1.6291 -0.2658  0.5546
   77SOL     OW  229   2.691   0.110   2.135 -0.2046 -0.4124  0.1187
   77SOL    HW1  230   2.598   0.133   2.097  2.4303 -0.7322 -1.9409
   77SOL    HW2  231   2.724   0.187   2.195  0.6957  0.8970 -0.0772
   78SOL     OW  232   2.112   1.088   0.093 -0.2454  0.5185  0.2147
   78SOL    HW1  233   2.153   1.113   0.004  2.6446 -2.9393 -0.2319
   78SOL    HW2  234   2.063   1.162   0.132  2.0222 -2.3601 -3.6344
   79SOL     OW  235   2.546   1.665   2.673  0.7310 -0.4520  0.8408
   79SOL    HW1  236   2.503   1.602   2.600  1.0667 -1.0575 -4.1788
   79SOL    HW2  237   2.603   1.731   2.627 -1.4934 -0.5128 -0.1047
   80SOL     OW  238   1.300   1.659   1.642 -0.3563  1.1332  0.2983
   80SOL    HW1  239   1.269   1.746   1.683 -2.9344  0.6383 -0.4794
   80SOL    HW2  240   1.305   1.588   1.713  0.0273  1.9983 -0.7604
   81SOL     OW  241   1.749   0.727   1.884 -0.0287 -0.5910 -0.0309
   81SOL    HW1  242   1.732   0.744   1.986 -1.4030 -0.9526  2.9295
   81SOL    HW2  243   1.842   0.756   1.850  2.4144  0.3550 -0.9151
   82SOL     OW  244   1.801   1.776   1.515 -0.3685  0.4043 -0.3887
   82SOL    HW1  245   1.832   1.688   1.558 -0.4668 -1.3306 -0.9142
   82SOL    HW2  246   1.850   1.791   1.426  0.4246 -2.3054  1.6379
   83SOL     OW  247   0.048   0.159   0.203  0.3817 -0.2915 -0.4026
   83SOL    HW1  248   0.075   0.203   0.118 -0.3709  2.2936  0.3129
   83SOL    HW2  249   3.065   0.125   0.202  2.2736  0.7824 -1.0138
   84SOL     OW  250   0.746   0.801   0.101 -0.2255 -0.3281 -0.4426
   84SOL    HW1  251   0.687   0.783   0.185 -0.6433 -2.0575  1.3691
   84SOL    HW2  252   0.711   0.883   0.048  2.2147 -0.4859 -0.6512
   85SOL     OW  253   2.486   2.095   1.480 -0.0305  0.1953  0.4483
   85SOL    HW1  254   2.460   2.025   1.416 -0.3947 -0.3896  0.5172
   85SOL    HW2  255   2.547   2.164   1.431  0.8403  0.7370  1.9992
   86SOL     OW  256   0.574   2.733   1.279 -0.1174  0.0836  0.0588
   86SOL    HW1  257   0.675   2.736   1.299  2.2330  2.1763  2.8828
   86SOL    HW2  258   0.544   2.733   1.181 -2.2990 -2.4403  0.2859
   87SOL     OW  259   0.558   2.489   2.371 -0.0056 -0.5327  0.0664
   87SOL    HW1  260   0.641   2.459   2.318  0.0448  1.3897 -3.6449
   87SOL    HW2  261   0.483   2.423   2.361  2.4439  2.9893  0.4335
   88SOL     OW  262   0.163   2.337   0.364 -0.2166 -0.2133 -0.3090
   88SOL    HW1  263   0.117   2.258   0.321  0.1039  0.5643 -0.8836
   88SOL    HW2  264   0.220   2.311   0.447  1.3279  2.6316  3.7567
   89SOL     OW  265   0.946   0.885   0.895  0.1866 -0.5998 -0.1217
   89SOL    HW1  266   1.022   0.825   0.863  0.6214 -0.5053  1.6831
   89SOL    HW2  267   0.968   0.921   0.984 -2.6976 -2.0740 -1.9234
   90SOL     OW  268   0.214   1.104   1.643  0.2909  0.3970 -0.8011
   90SOL    HW1  269   0.197   1.198   1.599 -1.0200  1.3759  1.1051
   90SOL    HW2  270   0.303   1.099   1.696  3.6894 -0.0839  1.3665
   91SOL     OW  271   1.149   0.739   0.809 -0.4577 -0.3737 -0.6522
   91SOL    HW1  272   1.150   0.691   0.719 -0.7501 -1.6321 -0.1505
   91SOL    HW2  273   1.185   0.681   0.885  0.0904  1.9048 -1.9210
   92SOL     OW  274   1.920   1.043   1.051 -0.1613  0.0240  0.1897
   92SOL    HW1  275   1.954   0.972   1.115 -1.3645  2.2091  0.0998
   92SOL    HW2  276   1.978   1.047   0.968  0.5305  1.6983 -0.6734
   93SOL     OW  277   2.583   1.054   2.210  0.0820  0.2153  0.5240
   93SOL    HW1  278   2.641   0.974   2.230 -0.5063  0.3648 -0.8601
   93SOL    HW2  279   2.522   1.085   2.286  0.9466 -1.0737 -1.0373
   94SOL     OW  280   2.107   1.756   2.675 -0.4352  0.8818 -0.2580
   94SOL    HW1  281   2.063   1.769   2.584  0.1799 -1.4093 -3.2943
   94SOL    HW2  282   2.159   1.841   2.700 -1.0014  2.6040 -3.2723
   95SOL     OW  283   2.733   0.624   1.486 -0.0817  0.1165 -0.0160
   95SOL    HW1  284   2.813   0.669   1.444 -2.6671 -1.5343 -2.6235
   95SOL    HW2  285   2.690   0.552   1.426 -1.6106  0.6353 -0.0129
   96SOL     OW  286   2.609   2.905   1.818 -0.2704 -0.1175 -0.5487
   96SOL    HW1  287   2.707   2.899   1.854  1.6484 -1.1435  3.0703
   96SOL    HW2  288   2.547   2.860   1.887 -0.5541 -2.7394 -4.3837
   97SOL     OW  289   2.509   1.107   1.455  0.3400 -0.4925 -1.1854
   97SOL    HW1  290   2.514   1.173   1.531  1.9005  0.0393  0.8691
   97SOL    HW2  291   2.451   1.135   1.379 -1.7176  0.3610  1.6080
   98SOL     OW  292   1.677   2.224   1.643  0.1278  0.4286  0.5925
   98SOL    HW1  293   1.696   2.122   1.646  0.9675 -0.0485 -1.4278
   98SOL    HW2  294   1.619   2.250   1.723 -1.5842  0.6264 -0.7054
   99SOL     OW  295   0.450   2.422   1.638  0.3311 -0.0704  0.6388
   99SOL    HW1  296   0.536   2.428   1.579  0.2559  2.4727 -1.1104
   99SOL    HW2  297   0.425   2.519   1.665  1.3902 -1.7763  0.0982
  100SOL     OW  298   1.107   0.489   2.842 -0.8710  0.4693  0.2483
  100SOL    HW1  299   1.019   0.461   2.886 -2.4944  1.5955  1.7253
  100SOL    HW2  300   1.160   0.409   2.820 -4.1623  2.3137 -1.7528
  101SOL     OW  301   2.453   0.205   2.519  0.2782 -0.6589 -0.1420
  101SOL    HW1  302   2.422   0.107   2.524 -0.2801 -0.4355 -0.4730
  101SOL    HW2  303   2.426   0.259   2.599 -0.6250  0.3747 -0.1147
  102SOL     OW  304   0.560   0.646   1.313 -0.1739 -0.0176  0.3984
  102SOL    HW1  305   0.488   0.603   1.254 -1.4906 -3.6081  1.2151
  102SOL    HW2  306   0.568   0.598   1.402  1.7495 -0.0756 -2.0574
  103SOL     OW  307   0.865   0.430   2.456 -0.3694 -0.6951 -0.4888
  103SOL    HW1  308   0.935   0.383   2.510 -0.8944 -0.8718  1.1211
  103SOL    HW2  309   0.820   0.357   2.403  0.6498 -0.2123  2.6415
  104SOL     OW  310   0.979   0.865   2.716  0.4708  0.0659  0.0453
  104SOL    HW1  311   0.972   0.909   2.811  2.1430 -2.0713  1.4742
  104SOL    HW2  312   1.052   0.794   2.712 -3.3348  0.3298 -1.3732
  105SOL     OW  313   2.109   2.136   1.716 -0.3178  0.1650 -0.0058
  105SOL    HW1  314   2.059   2.139   1.803  0.9233  0.7952  0.1370
  105SOL    HW2  315   2.190   2.200   1.720 -0.0522  2.6797  0.9789
  106SOL     OW  316   1.939   2.944   0.486  0.4338  0.2929 -0.5792
  106SOL    HW1  317   1.952   2.894   0.573 -0.6122 -2.8117 -1.2266
  106SOL    HW2  318   1.967   2.881   0.408  0.0140  0.7886 -2.9847
  107SOL     OW  319   2.388   1.945   0.982  0.6788  0.0380 -0.8560
  107SOL    HW1  320   2.293   1.969   0.958  0.4366 -1.2474 -0.3265
  107SOL    HW2  321   2.427   1.888   0.902  1.8683 -2.1533 -1.7792
  108SOL     OW  322   2.649   3.072   1.467  0.1170 -0.2265 -0.2566
  108SOL    HW1  323   2.622   2.975   1.478 -1.8606 -0.8625 -1.2354
  108SOL    HW2  324   2.712   3.100   1.536 -0.9548 -0.3178  0.0838
  109SOL     OW  325   1.986   2.440   1.013 -0.0381 -0.1538 -0.6280
  109SOL    HW1  326   1.964   2.437   1.112 -1.8135 -1.5654 -0.0372
  109SOL    HW2  327   1.980   2.535   0.980  0.2877 -0.9374  2.2923
  110SOL     OW  328   0.669   1.675   1.953  0.2700  0.6905 -0.0007
  110SOL    HW1  329   0.628   1.635   1.866  1.1890  1.3145 -0.4157
  110SOL    HW2  330   0.613   1.742   2.003 -1.1672  0.0608 -0.6564
  111SOL     OW  331   1.685   2.193   2.266 -0.3083 -0.3950  0.2470
  111SOL    HW1  332   1.732   2.259   2.202 -0.6904  1.4084  1.3002
  111SOL    HW2  333   1.661   2.106   2.222  1.7487 -1.2741 -2.3500
  112SOL     OW  334   1.630   1.699   2.463  0.1866  0.3817  0.0896
  112SOL    HW1  335   1.557   1.726   2.394 -1.0499  3.0334 -2.4683
  112SOL    HW2  336   1.719   1.743   2.440  0.7603 -1.5878 -0.0649
  113SOL     OW  337   1.739   1.955   1.702  0.6207  0.3149  0.1346
  113SOL    HW1  338   1.639   1.938   1.720  0.6501 -0.8872  0.0097
  113SOL    HW2  339   1.772   1.883   1.640 -0.7521  1.2021 -1.5263
  114SOL     OW  340   2.921   1.134   0.783  0.6328  0.2822  0.4092
  114SOL    HW1  341   2.966   1.136   0.876 -0.4598 -0.3191 -0.2270
  114SOL    HW2  342   2.819   1.114   0.793  1.1140  2.6006  0.2491
  115SOL     OW  343   0.632   0.699   0.357 -0.2075 -0.3029 -0.5160
  115SOL    HW1  344   0.593   0.775   0.414 -0.3335 -2.1399  0.2136
  115SOL    HW2  345   0.559   0.639   0.316 -1.0038 -0.1103 -1.2791
  116SOL     OW  346   2.754   1.810   2.605 -0.1371  0.3788  0.0768
  116SOL    HW1  347   2.722   1.903   2.578  0.2448 -0.9823  3.3063
  116SOL    HW2  348   2.855   1.804   2.627 -3.1404  0.2473  2.4586
  117SOL     OW  349   3.069   2.797   0.687 -0.0945  0.0006 -0.1512
  117SOL    HW1  350   0.030   2.733   0.647  2.4260 -0.3595 -0.0192
  117SOL    HW2  351   3.067   2.785   0.789 -1.3745 -0.4404 -1.5351
  118SOL     OW  352   0.980   1.580   2.611  0.0090  0.1196  0.0933
  118SOL    HW1  353   0.930   1.663   2.621  4.8226 -2.1472 -1.5953
  118SOL    HW2  354   1.072   1.601   2.573 -1.2344 -2.8047  0.5819
  119SOL     OW  355   0.536   2.019   0.312 -0.2161 -0.3810 -0.2637
  119SOL    HW1  356   0.461   1.958   0.335  2.0628 -0.8490 -0.7691
  119SOL    HW2  357   0.526   2.114   0.352 -1.7881  1.2736  1.8937
  120SOL     OW  358   1.438   0.533   0.395 -0.2349  0.2188  0.2811
  120SOL    HW1  359   1.501   0.581   0.334 -1.1477 -1.0971  0.3977
  120SOL    HW2  360   1.473   0.528   0.494  2.3648 -0.2181  2.5833
  121SOL     OW  361   1.355   2.413   0.467  0.1938 -0.0425 -0.0992
  121SOL    HW1  362   1.403   2.412   0.376 -0.2492  0.0828 -0.3384
  121SOL    HW2  363   1.324   2.319   0.503 -1.5957  1.1456  1.2310
  122SOL     OW  364   2.394   2.376   1.841 -0.1021 -0.0501 -0.2295
  122SOL    HW1  365   2.352   2.399   1.751 -2.2069 -0.1863 -0.3425
  122SOL    HW2  366   2.498   2.362   1.842  1.1466  2.3238 -0.2578
  123SOL     OW  367   0.680   1.866   0.690 -0.1745 -0.1399  0.2082
  123SOL    HW1  368   0.722   1.857   0.598  2.7464  0.3504 -2.3257
  123SOL    HW2  369   0.756   1.877   0.756  2.5887 -0.9241 -1.3869
  124SOL     OW  370   3.021   0.792   0.184 -0.2458  0.1235  0.2550
  124SOL    HW1  371   3.093   0.721   0.172  1.6658 -3.2015  0.0978
  124SOL    HW2  372   2.953   0.754   0.243  0.0660  1.9641 -0.3116
  125SOL     OW  373   0.524   0.940   0.491  0.1559  0.1359 -0.0645
  125SOL    HW1  374   0.471   0.854   0.496  2.4450  0.4582  2.0278
  125SOL    HW2  375   0.532   0.982   0.585  0.1633 -1.9890 -1.1146
  126SOL     OW  376   2.954   1.937   0.661 -0.1312 -0.0997  0.1353
  126SOL    HW1  377   2.961   1.901   0.759  0.4026 -0.9468 -0.6961
  126SOL    HW2  378   3.033   1.998   0.641 -0.2239  1.4061  1.6968
  127SOL     OW  379   1.484   1.872   1.758  0.1221 -0.0003 -0.7632
  127SOL    HW1  380   1.501   1.796   1.822 -1.9757  0.8710 -1.5286
  127SOL    HW2  381   1.385   1.893   1.767 -0.4829  1.4801  0.2120
  128SOL     OW  382   0.971   1.183   0.147  0.2163  0.2932 -0.1537
  128SOL    HW1  383   1.012   1.098   0.103 -1.6186 -3.7004  1.3464
  128SOL    HW2  384   1.042   1.246   0.186 -1.6974 -0.8984 -1.1663
  129SOL     OW  385   1.629   1.523   1.185  0.0320  0.0376  0.3088
  129SOL    HW1  386   1.600   1.604   1.127  0.1207 -0.0590  0.8859
  129SOL    HW2  387   1.585   1.526   1.275 -1.1649 -1.7120  3.6794
  130SOL     OW  388   2.286   1.720   1.560  0.1747  0.0214 -0.3664
  130SOL    HW1  389   2.205   1.786   1.553  0.4612 -0.6212  2.9804
  130SOL    HW2  390   2.309   1.702   1.659 -1.6110 -0.6607  0.2776
  131SOL     OW  391   0.104   2.882   2.838  0.2565  0.4342 -0.5491
  131SOL    HW1  392   0.044   2.902   2.761  2.6864  0.0723 -1.8014
  131SOL    HW2  393   0.172   2.810   2.824 -0.2995 -0.0019  4.0271
  132SOL     OW  394   2.757   1.740   0.608  0.3752 -0.0949  0.4218
  132SOL    HW1  395   2.807   1.808   0.656  3.3086 -0.3852 -0.4372
  132SOL    HW2  396   2.710   1.682   0.676  0.1172  0.8050 -0.7280
  133SOL     OW  397   0.384   0.024   2.025  0.1946  0.0660 -0.1225
  133SOL    HW1  398   0.355   3.037   2.041 -0.6870 -2.6500 -0.7643
  133SOL    HW2  399   0.358   0.072   2.112 -2.6577  0.8784  2.0927
  134SOL     OW  400   0.195   1.726   2.964  0.9323  0.4550 -0.0005
  134SOL    HW1  401   0.125   1.704   3.041  0.3590  0.0474  3.4542
  134SOL    HW2  402   0.181   1.824   2.940 -3.3302 -1.3294  2.7134
  135SOL     OW  403   1.442   0.777   1.976 -0.1707 -0.1705 -0.4106
  135SOL    HW1  404   1.385   0.858   2.009 -0.7651  2.2363 -0.5344
  135SOL    HW2  405   1.478   0.779   1.879  1.6692  0.9980  0.5448
  136SOL     OW  406   2.947   1.482   0.380 -0.9124 -0.9146  0.6128
  136SOL    HW1  407   2.991   1.567   0.418 -0.2612  2.0035  2.0365
  136SOL    HW2  408   2.893   1.503   0.296 -0.0679  3.3464  1.0763
  137SOL     OW  409   2.953   1.879   0.930  0.2742  0.2743  0.2804
  137SOL    HW1  410   3.034   1.836   0.981 -1.3156  3.6552  0.4007
  137SOL    HW2  411   2.975   1.977   0.923  1.2538 -2.8200  0.7205
  138SOL     OW  412   2.583   0.570   1.067 -0.0351  0.2755 -0.0643
  138SOL    HW1  413   2.672   0.622   1.045  3.8260  3.2084 -0.2789
  138SOL    HW2  414   2.590   0.530   1.161  0.3732  0.9202 -2.4209
  139SOL     OW  415   1.225   2.564   3.030 -0.0294  0.1332  0.1303
  139SOL    HW1  416   1.306   2.513   2.994 -0.2871 -2.5104 -0.3312
  139SOL    HW2  417   1.144   2.546   2.977  1.1308 -0.8007  0.8740
  140SOL     OW  418   1.214   1.747   1.046 -0.2277 -0.1369 -0.0446
  140SOL    HW1  419   1.161   1.679   0.990 -1.0234 -3.3498 -3.0742
  140SOL    HW2  420   1.214   1.841   1.005  0.9609  0.4095  0.1741
  141SOL     OW  421   1.282   2.141   0.490  0.1810 -0.2706  0.1449
  141SOL    HW1  422   1.193   2.133   0.442 -1.5661 -0.6370  1.6611
  141SOL    HW2  423   1.286   2.089   0.576 -1.4931  1.3473  0.0179
  142SOL     OW  424   0.960   0.358   0.794  0.2369 -0.8147 -0.1830
  142SOL    HW1  425   0.920   0.435   0.745  0.9279  0.6400  1.5913
  142SOL    HW2  426   0.968   0.270   0.742  3.2317 -1.8188 -2.9994
  143SOL     OW  427   0.702   1.444   2.936  0.3331  0.1631  0.4272
  143SOL    HW1  428   0.756   1.402   2.858 -0.7973  1.7329 -2.4824
  143SOL    HW2  429   0.718   1.417   3.033  1.0346  0.4824 -1.5526
  144SOL     OW  430   1.800   2.573   0.715 -0.0821  0.2021 -0.2643
  144SOL    HW1  431   1.702   2.574   0.684  0.8345 -0.2249  1.2995
  144SOL    HW2  432   1.848   2.486   0.689 -0.4186 -0.0385 -0.1517
  145SOL     OW  433   1.967   0.508   2.705  0.5642 -0.3833  0.7392
  145SOL    HW1  434   1.904   0.522   2.622 -1.1350  1.3838 -1.9973
  145SOL    HW2  435   2.064   0.500   2.680 -1.3913  3.4383 -1.6129
  146SOL     OW  436   0.238   2.944   0.431 -0.6116  0.5759 -0.4930
  146SOL    HW1  437   0.141   2.949   0.457  2.1376  0.7947  0.8744
  146SOL    HW2  438   0.264   3.017   0.362 -1.4773 -2.2023  0.2918
  147SOL     OW  439   1.860   0.368   2.067  0.2752  0.6308 -0.3195
  147SOL    HW1  440   1.810   0.366   2.158 -1.1342  4.2444  0.3183
  147SOL    HW2  441   1.929   0.440   2.061 -2.0290 -1.5941 -0.9682
  148SOL     OW  442   1.020   0.148   1.856 -0.8507  0.0256 -0.1848
  148SOL    HW1  443   1.082   0.228   1.854 -1.2758  2.8182 -1.2878
  148SOL    HW2  444   1.019   0.110   1.953  2.2258 -1.4153 -2.8117
  149SOL     OW  445   1.446   0.498   2.017  0.6361 -0.2456 -0.0496
  149SOL    HW1  446   1.465   0.602   2.009  1.2759  2.9359 -0.0456
  149SOL    HW2  447   1.423   0.466   2.112  1.7350 -0.0544  0.5046
  150SOL     OW  448   0.023   0.286   2.965  0.0689 -0.1401  0.2248
  150SOL    HW1  449   3.046   0.337   2.974 -1.7709 -0.4806  1.1356
  150SOL    HW2  450   0.042   0.267   2.867 -1.8403  0.5385 -0.7726
  151SOL     OW  451   0.582   1.374   0.325 -0.4565  0.2684  0.1320
  151SOL    HW1  452   0.625   1.335   0.239  2.6784 -1.6626 -1.1295
  151SOL    HW2  453   0.633   1.458   0.357 -1.0401 -0.2937  0.7153
  152SOL     OW  454   2.825   0.336   0.495  0.0483  0.1424  0.0070
  152SOL    HW1  455   2.849   0.331   0.398  1.7816 -4.6458  1.3144
  152SOL    HW2  456   2.899   0.395   0.541  2.6233 -1.3793  0.8411
  153SOL     OW  457   2.637   0.427   1.333  0.1275 -0.7146  0.2152
  153SOL    HW1  458   2.581   0.345   1.345 -0.8251  1.4132 -0.3492
  153SOL    HW2  459   2.719   0.405   1.275  2.0988 -0.4475 -0.3806
  154SOL     OW  460   1.538   2.950   2.151 -0.0665 -0.0438  0.0285
  154SOL    HW1  461   1.565   2.944   2.056 -1.6494 -0.9470  1.3614
  154SOL    HW2  462   1.473   2.874   2.176  0.9184 -2.3513  2.1178
  155SOL     OW  463   0.142   1.992   0.637 -0.0137 -0.3739  0.3583
  155SOL    HW1  464   0.185   2.063   0.695 -0.6073 -0.7123  0.1632
  155SOL    HW2  465   0.203   1.908   0.637  0.6431  0.7994  0.7819
  156SOL     OW  466   2.318   1.927   3.107 -0.9128 -0.3743 -0.4115
  156SOL    HW1  467   2.352   1.912   3.011 -0.8155 -2.7917 -2.4968
  156SOL    HW2  468   2.245   1.998   0.006  0.3085 -1.7821  0.4011
  157SOL     OW  469   0.959   0.150   0.625 -0.9218  0.5134  0.3742
  157SOL    HW1  470   0.914   0.221   0.566  1.7980  1.5683  1.8989
  157SOL    HW2  471   1.040   0.117   0.573 -2.3641 -0.0927 -1.3864
  158SOL     OW  472   2.270   0.658   2.214 -0.0505  0.6857  0.0253
  158SOL    HW1  473   2.300   0.566   2.203 -1.0853  3.3015 -1.4804
  158SOL    HW2  474   2.343   0.721   2.183 -1.1266  0.1692 -0.1787
  159SOL     OW  475   0.215   0.265   0.416  0.9043 -0.4590 -0.3644
  159SOL    HW1  476   0.155   0.213   0.349  1.0386 -1.3248  0.2021
  159SOL    HW2  477   0.297   0.214   0.439 -1.0685  1.6480 -0.0068
  160SOL     OW  478   1.563   1.954   2.075  0.2525  0.0449 -0.1553
  160SOL    HW1  479   1.471   1.999   2.090  0.6425  1.2786  0.6029
  160SOL    HW2  480   1.551   1.863   2.030 -1.7517  3.2110  0.3203
  161SOL     OW  481   2.751   0.668   2.644  0.0288 -0.5119  0.2051
  161SOL    HW1  482   2.825   0.726   2.685  0.9445  0.8746  1.6021
  161SOL    HW2  483   2.794   0.576   2.644  1.8185  1.2539  1.6747
  162SOL     OW  484   0.907   2.581   1.786 -0.1070 -0.2114  0.0828
  162SOL    HW1  485   0.930   2.647   1.708 -0.5657  0.9543 -0.7677
  162SOL    HW2  486   0.832   2.622   1.839  2.0235  1.9811  0.2502
  163SOL     OW  487   2.721   0.254   2.532  0.0592 -0.1713  0.2736
  163SOL    HW1  488   2.765   0.268   2.437  1.2490 -1.2460 -1.4766
  163SOL    HW2  489   2.621   0.242   2.524  0.8027 -2.1332  3.8379
  164SOL     OW  490   2.010   1.605   0.152  0.1467  0.0102  0.0310
  164SOL    HW1  491   2.028   1.581   0.054  0.1278  3.3147  0.9135
  164SOL    HW2  492   2.091   1.652   0.187  0.1797 -3.0299  1.4626
  165SOL     OW  493   2.951   0.388   1.555 -0.0139  0.1959 -0.1576
  165SOL    HW1  494   2.961   0.487   1.559  0.5240 -3.3906  1.3154
  165SOL    HW2  495   2.985   0.350   1.466  3.7454 -3.3341  1.5456
  166SOL     OW  496   2.400   0.553   3.063  0.2298 -0.6293  0.1102
  166SOL    HW1  497   2.464   0.584   2.987 -0.5035  1.4368 -1.9637
  166SOL    HW2  498   2.337   0.627   3.078  0.9763 -1.0068  3.0073
  167SOL     OW  499   2.797   0.761   3.094  0.2325 -0.6456  0.0906
  167SOL    HW1  500   2.862   0.814   0.040 -0.1529 -2.4674  1.4474
  167SOL    HW2  501   2.845   0.677   3.058  2.0660  0.3036  0.0869
  168SOL     OW  502   1.802   2.809   2.854 -0.6138  0.5171  0.4544
  168SOL    HW1  503   1.902   2.785   2.853 -0.2983  0.3917 -0.3001
  168SOL    HW2  504   1.785   2.906   2.877  1.9934  0.3886 -1.5866
  169SOL     OW  505   0.188   1.540   0.884  0.3297 -0.4038 -0.3136
  169SOL    HW1  506   0.086   1.527   0.877  2.3138 -1.8919  0.2316
  169SOL    HW2  507   0.233   1.452   0.868 -0.8347  1.4241 -0.9007
  170SOL     OW  508   2.988   0.711   1.260 -0.0801  0.6528 -0.1465
  170SOL    HW1  509   2.956   0.619   1.235 -1.4922 -0.0537 -0.5730
  170SOL    HW2  510   3.085   0.727   1.251 -0.9675  0.4579  0.1455
  171SOL     OW  511   2.025   2.138   1.973  0.1454  0.2656 -0.3626
  171SOL    HW1  512   1.946   2.078   1.963  1.1726 -0.6341 -0.1637
  171SOL    HW2  513   2.105   2.078   2.003 -1.2291 -1.1998  0.5821
  172SOL     OW  514   0.222   2.344   1.518  0.0946  0.0247 -0.3827
  172SOL    HW1  515   0.221   2.242   1.494 -0.3256  0.2259  0.2607
  172SOL    HW2  516   0.312   2.373   1.556  1.7878 -1.5516 -0.3025
  173SOL     OW  517   1.469   1.009   0.222  0.2044 -0.6992  0.2469
  173SOL    HW1  518   1.515   0.967   0.298 -1.5537  1.6635 -0.2454
  173SOL    HW2  519   1.436   0.942   0.151  0.7606 -2.2440 -1.4878
  174SOL     OW  520   1.390   0.053   2.479  0.0526 -0.1623 -0.1897
  174SOL    HW1  521   1.426   0.018   2.567 -3.5126  1.6996 -2.7307
  174SOL    HW2  522   1.288   0.051   2.482  1.0604  1.9404  1.0442
  175SOL     OW  523   1.743   1.776   0.865 -0.8884 -0.7736 -0.0073
  175SOL    HW1  524   1.823   1.727   0.910  2.3641  0.8168 -0.2927
  175SOL    HW2  525   1.652   1.755   0.908 -1.4877  0.1910 -0.2786
  176SOL     OW  526   1.426   0.092   0.154 -1.0323 -0.0668  0.0194
  176SOL    HW1  527   1.502   0.103   0.221  1.0595 -2.4959  0.4766
  176SOL    HW2  528   1.411   0.176   0.098  0.8317  3.3533  1.8367
  177SOL     OW  529   0.687   1.041   3.037  0.1058 -0.0120 -0.1037
  177SOL    HW1  530   0.689   1.055   2.935 -1.6040 -0.6755  2.8611
  177SOL    HW2  531   0.596   1.048   3.080  1.8559  0.9612 -1.5211
  178SOL     OW  532   2.717   2.393   2.569  0.3375  0.5020  0.1464
  178SOL    HW1  533   2.774   2.307   2.553  1.8946 -0.3854 -0.4772
  178SOL    HW2  534   2.616   2.376   2.566 -1.2361  3.0469 -2.6949
  179SOL     OW  535   2.635   0.236   2.824 -0.0319 -0.4649 -0.1490
  179SOL    HW1  536   2.698   0.223   2.749  1.9027 -0.0784  0.1806
  179SOL    HW2  537   2.590   0.148   2.854  0.3391 -2.3343  1.8715
  180SOL     OW  538   1.786   1.135   0.644 -0.2442 -1.0903  0.8347
  180SOL    HW1  539   1.707   1.100   0.693  2.3927 -0.1139 -0.5323
  180SOL    HW2  540   1.863   1.072   0.648 -0.1435 -1.3193 -2.2966
  181SOL     OW  541   2.076   1.453   2.489 -0.2646  0.4174 -0.3626
  181SOL    HW1  542   2.166   1.479   2.527 -1.4415 -0.5078 -1.4255
  181SOL    HW2  543   2.008   1.464   2.563 -0.4813  2.3657  1.4077
  182SOL     OW  544   2.820   2.642   2.527 -0.1046 -0.4660 -0.3756
  182SOL    HW1  545   2.845   2.674   2.432 -1.6813 -0.4520  0.5903
  182SOL    HW2  546   2.773   2.552   2.523  1.5505 -0.8948  0.1318
  183SOL     OW  547   1.777   0.753   2.184 -0.1907  0.2886  0.1457
  183SOL    HW1  548   1.755   0.853   2.169 -1.4031 -0.7010  2.7581
  183SOL    HW2  549   1.869   0.751   2.227  1.4172 -0.8996 -3.8173
  184SOL     OW  550   0.150   1.339   1.529 -0.4590  0.0079  0.7138
  184SOL    HW1  551   0.179   1.337   1.430 -1.1322  0.5935 -0.5338
  184SOL    HW2  552   0.052   1.365   1.527  0.0232  0.8730  0.7776
  185SOL     OW  553   1.725   0.317   0.963  0.1493 -0.0296  0.1243
  185SOL    HW1  554   1.661   0.363   1.029 -1.3714  2.2381  2.0155
  185SOL    HW2  555   1.676   0.298   0.877  1.3265  0.1675  0.6405
  186SOL     OW  556   0.278   2.429   2.760 -0.6040  0.0506  0.3578
  186SOL    HW1  557   0.188   2.395   2.733 -0.0779  0.8973 -1.0724
  186SOL    HW2  558   0.288   2.528   2.764 -0.2420  0.1747  2.6584
  187SOL     OW  559   2.818   1.233   0.437 -0.5050 -0.1214 -0.2319
  187SOL    HW1  560   2.833   1.333   0.435 -0.7577 -1.3080  2.8991
  187SOL    HW2  561   2.718   1.205   0.439 -1.4804 -1.6003 -0.8506
  188SOL     OW  562   2.471   1.457   1.187 -0.3142 -0.0343 -0.4186
  188SOL    HW1  563   2.537   1.380   1.184  0.6144  0.2566 -2.1120
  188SOL    HW2  564   2.516   1.542   1.165 -1.4460 -1.6785 -0.7655
  189SOL     OW  565   2.854   0.426   2.703  0.4153  0.0013  0.1901
  189SOL    HW1  566   2.800   0.357   2.651 -1.3287  1.1562 -0.4841
  189SOL    HW2  567   2.944   0.451   2.660 -0.4847  0.8025 -0.2909
  190SOL     OW  568   1.198   1.028   1.627 -0.3339 -0.5299  0.6948
  190SOL    HW1  569   1.269   1.102   1.634 -2.4454 -0.0757  0.6902
  190SOL    HW2  570   1.106   1.063   1.649  3.4738 -0.5181  0.2934
  191SOL     OW  571   0.516   0.481   2.070  0.1056 -0.3700  0.6464
  191SOL    HW1  572   0.433   0.466   2.021  1.8258  2.1004  4.1351
  191SOL    HW2  573   0.564   0.394   2.060 -1.9803 -0.9422 -0.3720
  192SOL     OW  574   1.656   1.911   1.251  0.1132 -0.2753 -0.3760
  192SOL    HW1  575   1.627   1.991   1.199  1.3633 -1.2551  1.5154
  192SOL    HW2  576   1.595   1.910   1.338 -0.5905  0.9720 -0.2190
  193SOL     OW  577   1.715   0.725   1.361 -0.2950  0.1746 -0.3344
  193SOL    HW1  578   1.660   0.655   1.405 -0.3218  3.8400 -0.7031
  193SOL    HW2  579   1.656   0.768   1.293  2.0140 -1.6994  1.2961
  194SOL     OW  580   0.536   2.269   1.268 -0.0939  0.0247 -0.0520
  194SOL    HW1  581   0.435   2.298   1.264 -1.3282 -1.6231 -2.9933
  194SOL    HW2  582   0.563   2.233   1.175  1.4989 -2.0730 -2.2445
  195SOL     OW  583   1.659   0.127   0.277 -0.2793  0.1975  0.4060
  195SOL    HW1  584   1.734   0.107   0.344  2.2011 -0.0669  0.9348
  195SOL    HW2  585   1.684   0.207   0.220  0.0128  0.0935  0.4869
  196SOL     OW  586   0.320   1.347   1.308  0.0520 -0.2412  0.0552
  196SOL    HW1  587   0.351   1.437   1.269 -1.1841 -0.0322 -1.4968
  196SOL    HW2  588   0.375   1.304   1.382 -0.8742 -0.0941  3.7079
  197SOL     OW  589   0.774   0.209   1.731  0.1286 -0.0330  0.0909
  197SOL    HW1  590   0.861   0.164   1.766  0.6739 -5.7370 -0.1192
  197SOL    HW2  591   0.793   0.301   1.689  1.5085  2.6365 -1.5138
  198SOL     OW  592   0.610   1.173   1.147 -0.2502  0.0340 -0.0938
  198SOL    HW1  593   0.591   1.223   1.235 -0.6524  0.9530  2.3375
  198SOL    HW2  594   0.609   1.070   1.155  0.7883  1.1773 -3.8999
  199SOL     OW  595   0.029   2.502   1.632 -1.0131  0.0833 -0.3123
  199SOL    HW1  596   0.074   2.565   1.699  0.1164  3.0050 -0.6483
  199SOL    HW2  597   0.091   2.437   1.582  0.2193  0.2834 -1.9603
  200SOL     OW  598   1.644   1.500   1.824  0.3393 -0.1015 -0.7749
  200SOL    HW1  599   1.714   1.542   1.765 -0.5498 -1.4478 -0.0753
  200SOL    HW2  600   1.675   1.423   1.875 -1.1172  2.7941 -2.0007
  201SOL     OW  601   0.533   1.919   2.057 -0.5094  0.2005  0.7508
  201SOL    HW1  602   0.588   1.977   2.126 -1.5202 -0.4954  2.2818
  201SOL    HW2  603   0.437   1.909   2.088 -0.0416  0.0196 -1.4387
  202SOL     OW  604   1.558   0.504   0.027 -0.1835  0.5054 -0.2996
  202SOL    HW1  605   1.594   0.539   3.046  1.8154  1.0324  1.6502
  202SOL    HW2  606   1.580   0.574   0.104  2.6049  1.8187  1.4762
  203SOL     OW  607   1.349   2.781   1.951  0.4524 -0.4093 -0.0694
  203SOL    HW1  608   1.426   2.726   1.979  1.2885 -0.9704 -0.3196
  203SOL    HW2  609   1.265   2.718   1.947 -2.5011  0.1199  1.1777
  204SOL     OW  610   0.630   1.892   1.587 -0.2548 -0.2280 -0.1761
  204SOL    HW1  611   0.630   1.970   1.519  0.7320  0.7878 -0.0101
  204SOL    HW2  612   0.602   1.802   1.543 -1.4885  0.7976  0.4522
  205SOL     OW  613   1.523   1.724   1.962  0.0988 -0.2630 -0.0709
  205SOL    HW1  614   1.576   1.640   1.935 -0.4055  2.0438  0.0923
  205SOL    HW2  615   1.425   1.710   1.985 -0.2869  0.8951 -1.0720
  206SOL     OW  616   0.117   1.417   2.019 -0.7758 -0.5422 -0.2098
  206SOL    HW1  617   0.194   1.346   2.026  4.2811 -0.6096  1.3312
  206SOL    HW2  618   0.066   1.420   2.106 -0.2641  0.5789 -1.3399
  207SOL     OW  619   0.794   2.923   2.116 -0.4144 -0.6517 -0.2693
  207SOL    HW1  620   0.758   2.924   2.218 -2.6112  2.4306  4.1171
  207SOL    HW2  621   0.744   2.986   2.056 -1.9240 -1.4516 -1.6100
  208SOL     OW  622   0.663   2.428   1.967 -0.2987 -0.0733 -0.4365
  208SOL    HW1  623   0.627   2.523   1.948 -0.0876  2.6756 -0.4553
  208SOL    HW2  624   0.606   2.347   1.932 -2.4623 -4.5266 -3.2827
  209SOL     OW  625   1.400   2.846   0.379  0.2307 -0.0355 -0.6993
  209SOL    HW1  626   1.501   2.819   0.370  2.1559 -2.9191 -0.9328
  209SOL    HW2  627   1.391   2.910   0.460 -1.9328  2.4513 -1.4780
  210SOL     OW  628   2.573   0.620   0.694 -0.0231 -0.0376 -0.0105
  210SOL    HW1  629   2.588   0.517   0.701 -2.7215 -1.1871  0.3870
  210SOL    HW2  630   2.647   0.679   0.643  0.9220 -0.8186 -1.1655
  211SOL     OW  631   0.523   0.561   1.568  0.3873  0.0490 -0.2231
  211SOL    HW1  632   0.532   0.646   1.621 -0.1169 -0.0443 -0.9195
  211SOL    HW2  633   0.602   0.500   1.584 -0.4711 -0.6541  0.5423
  212SOL     OW  634   1.381   2.176   1.373  0.2681 -0.4599  0.3700
  212SOL    HW1  635   1.428   2.097   1.421  0.4948 -0.3414  0.0135
  212SOL    HW2  636   1.439   2.258   1.365 -2.1888  0.9319 -0.0923
  213SOL     OW  637   2.756   0.330   1.889  0.1567  0.0571  0.4988
  213SOL    HW1  638   2.748   0.250   1.829  0.0699 -0.1151 -0.9155
  213SOL    HW2  639   2.849   0.369   1.868  1.0216  0.6551 -0.0849
  214SOL     OW  640   0.802   2.476   2.223  0.4322 -0.1168  0.0917
  214SOL    HW1  641   0.749   2.464   2.137 -0.9625 -1.5788  0.0371
  214SOL    HW2  642   0.871   2.549   2.216 -0.5618  0.3201  0.8128
  215SOL     OW  643   2.737   1.653   1.561 -0.0464  0.0092  0.0058
  215SOL    HW1  644   2.837   1.671   1.573  2.7503  0.4276 -0.2831
  215SOL    HW2  645   2.698   1.715   1.488  1.7699 -0.5838 -1.9469
  216SOL     OW  646   0.753   1.061   2.046 -0.2469 -0.8330 -0.0547
  216SOL    HW1  647   0.786   1.141   1.989  2.1784 -1.0838 -1.4784
  216SOL    HW2  648   0.730   1.094   2.140  1.1889 -1.4540  1.5477
  217SOL     OW  649   2.859   0.476   1.129 -0.3987 -0.7929 -0.3597
  217SOL    HW1  650   2.846   0.521   1.039 -2.5340 -0.3894  0.9761
  217SOL    HW2  651   2.891   0.378   1.116 -0.0347  0.5641  1.6712
  218SOL     OW  652   1.238   1.993   0.944  0.1185  0.0690  0.2683
  218SOL    HW1  653   1.305   1.991   0.867  1.7075 -0.0111  0.6617
  218SOL    HW2  654   1.214   2.092   0.948 -0.5453 -1.7501 -0.1772
  219SOL     OW  655   2.148   2.679   0.542 -0.2965  0.2300 -0.4290
  219SOL    HW1  656   2.113   2.623   0.619  0.3729 -2.7504 -0.3825
  219SOL    HW2  657   2.079   2.700   0.474  2.4091  0.5096  0.6843
  220SOL     OW  658   1.839   2.430   0.042  0.2280  0.0409 -0.6416
  220SOL    HW1  659   1.763   2.393   3.095 -1.9700  3.2316  1.1940
  220SOL    HW2  660   1.897   2.362   0.091 -0.5947  0.9073 -2.1587
  221SOL     OW  661   3.034   1.886   0.241 -0.0005 -0.1734 -0.3668
  221SOL    HW1  662   2.940   1.925   0.249  0.2884 -0.3228 -0.1794
  221SOL    HW2  663   3.064   1.841   0.324  1.4767  1.1576 -0.0081
  222SOL     OW  664   0.576   2.376   0.839 -0.2067  0.0848 -0.6879
  222SOL    HW1  665   0.560   2.412   0.744  0.7542 -1.6471 -0.5285
  222SOL    HW2  666   0.678   2.351   0.845  3.2070 -0.5111 -0.5253
  223SOL     OW  667   1.154   0.057   0.465  0.0759  0.1067  0.2029
  223SOL    HW1  668   1.249   0.016   0.481  2.8173  1.4980  1.6926
  223SOL    HW2  669   1.096   3.110   0.407  0.5151 -1.1628  1.1726
  224SOL     OW  670   2.879   1.341   1.023 -0.0119 -0.3273  0.2305
  224SOL    HW1  671   2.793   1.314   1.069  0.3187 -0.9091 -2.1836
  224SOL    HW2  672   2.949   1.265   1.034 -1.5400 -0.8787 -1.5350
  225SOL     OW  673   0.071   1.850   1.088  0.1017 -0.0701  0.1739
  225SOL    HW1  674   0.131   1.915   1.139  0.2948 -1.3540  0.4023
  225SOL    HW2  675   0.082   1.767   1.144  0.3325  1.1734 -0.2985
  226SOL     OW  676   0.853   2.928   0.968 -0.2104 -0.4208  0.0676
  226SOL    HW1  677   0.885   2.949   0.871  0.7818 -1.2718 -0.9227
  226SOL    HW2  678   0.912   2.971   1.037  0.7203 -1.1811 -3.3020
  227SOL     OW  679   1.126   1.432   1.595  0.5042 -0.4519  0.3566
  227SOL    HW1  680   1.081   1.473   1.675 -1.4223  0.0353 -2.3982
  227SOL    HW2  681   1.197   1.495   1.550  2.8118  0.0691 -0.7728
  228SOL     OW  682   0.684   0.256   2.056  0.3593  0.1039 -0.2143
  228SOL    HW1  683   0.689   0.173   2.000 -0.2605  1.4876 -1.0661
  228SOL    HW2  684   0.739   0.324   2.008 -0.1917  2.1966  2.3646
  229SOL     OW  685   2.974   0.844   2.458  0.1533  0.7733 -0.5960
  229SOL    HW1  686   2.951   0.853   2.558  1.4656 -0.6811  3.0238
  229SOL    HW2  687   3.068   0.883   2.440 -0.0526  0.0647 -1.2883
  230SOL     OW  688   0.115   0.661   0.988  0.0969  0.6380 -0.2789
  230SOL    HW1  689   0.038   0.689   0.926  0.2018  1.4757 -0.0635
  230SOL    HW2  690   0.132   0.735   1.059  1.5753  1.6480  0.5493
  231SOL     OW  691   1.425   0.087   2.195 -0.2567 -0.7711  0.2878
  231SOL    HW1  692   1.462   3.108   2.160  1.5514 -1.8341  0.4692
  231SOL    HW2  693   1.410   0.073   2.294  3.1394 -0.3288 -2.0651
  232SOL     OW  694   0.064   2.138   0.230 -0.3013  0.0043  0.0346
  232SOL    HW1  695   0.052   2.042   0.265  1.9817 -0.2453  2.3054
  232SOL    HW2  696   3.086   2.167   0.195  1.3817 -1.8939 -0.6059
  233SOL     OW  697   1.330   2.457   2.723  0.0425  0.2777  0.9405
  233SOL    HW1  698   1.305   2.455   2.626 -0.0259 -2.3825  2.5038
  233SOL    HW2  699   1.322   2.550   2.762 -0.7611  0.9734 -1.8447
  234SOL     OW  700   0.684   1.164   1.678  0.3334  0.3211 -0.2507
  234SOL    HW1  701   0.741   1.086   1.644 -1.6373 -0.6519 -0.3984
  234SOL    HW2  702   0.730   1.223   1.752  0.4471  2.0503  1.4085
  235SOL     OW  703   0.067   2.453   2.469  0.3532 -0.4824 -0.1921
  235SOL    HW1  704   0.153   2.420   2.430  0.2423  2.8394  0.7332
  235SOL    HW2  705   0.061   2.418   2.566  0.1395  0.1307  2.3345
  236SOL     OW  706   1.715   1.764   2.753  0.5581 -0.6122  0.3220
  236SOL    HW1  707   1.737   1.735   2.657 -2.0725 -1.1202  2.2170
  236SOL    HW2  708   1.715   1.867   2.764  1.1799 -0.0371 -1.1725
  237SOL     OW  709   1.499   0.564   0.734 -0.2046  0.0605  0.5130
  237SOL    HW1  710   1.583   0.601   0.684 -0.7666  0.8948  0.5705
  237SOL    HW2  711   1.478   0.620   0.813 -2.1821 -3.5122 -0.8418
  238SOL     OW  712   0.951   2.718   2.161 -0.5264  0.4807  0.3793
  238SOL    HW1  713   0.890   2.797   2.155  0.9284  3.5695  0.3705
  238SOL    HW2  714   1.015   2.714   2.082 -0.6481  0.1989  0.3387
  239SOL     OW  715   1.131   2.618   1.936 -0.2111  0.5579  0.1354
  239SOL    HW1  716   1.057   2.600   1.866 -4.0183 -1.7863 -2.6368
  239SOL    HW2  717   1.125   2.548   2.008 -1.4664  1.9042 -1.0293
  240SOL     OW  718   1.937   3.054   0.882  0.0479 -0.1640 -0.2547
  240SOL    HW1  719   1.878   3.000   0.817  2.4616 -0.2890 -0.1803
  240SOL    HW2  720   2.036   3.054   0.848  0.6349  0.0371 -1.9115
  241SOL     OW  721   1.249   1.249   2.546  0.7877 -0.0595  0.0098
  241SOL    HW1  722   1.210   1.150   2.544  1.1362 -2.4720 -1.5740
  241SOL    HW2  723   1.179   1.322   2.540  0.4811  1.5281  0.4743
  242SOL     OW  724   2.577   0.661   2.886  0.1705  0.1197  0.0569
  242SOL    HW1  725   2.625   0.714   2.961 -2.1085 -1.0437 -2.8441
  242SOL    HW2  726   2.637   0.656   2.799  0.2469 -1.0933 -1.5028
  243SOL     OW  727   0.957   0.530   1.328 -0.3988  1.0545 -0.2540
  243SOL    HW1  728   0.949   0.431   1.299  1.0341  0.1161  2.2888
  243SOL    HW2  729   1.049   0.569   1.314  0.3138  1.6872  1.2109
  244SOL     OW  730   1.396   2.913   2.895  0.2653 -0.0417  0.5740
  244SOL    HW1  731   1.309   2.946   2.932  2.8869 -1.4983 -1.7140
  244SOL    HW2  732   1.464   2.893   2.970  2.0412 -2.1982  0.0656
  245SOL     OW  733   2.068   2.680   2.953 -0.2083  0.1167  0.5801
  245SOL    HW1  734   1.986   2.693   3.013  0.4934 -2.1934  1.2931
  245SOL    HW2  735   2.152   2.700   3.010 -0.3296 -0.7826  1.2593
  246SOL     OW  736   0.811   0.755   1.301 -0.3382  0.3205 -0.2756
  246SOL    HW1  737   0.715   0.723   1.287  0.3194  1.4009  2.6007
  246SOL    HW2  738   0.874   0.677   1.317 -0.6380  0.0734  1.1329
  247SOL     OW  739   0.282   0.356   1.949  0.4150 -0.2768 -0.5007
  247SOL    HW1  740   0.182   0.377   1.959  1.2576  0.7491 -0.5958
  247SOL    HW2  741   0.309   0.339   1.851 -0.1957 -0.5501 -2.5151
  248SOL     OW  742   3.023   1.276   1.896 -0.2254  0.3481 -0.2752
  248SOL    HW1  743   2.942   1.336   1.911 -1.4097  0.4618  0.2027
  248SOL    HW2  744   3.106   1.329   1.920  0.7095  2.0589 -0.8780
  249SOL     OW  745   0.211   0.364   0.015 -0.5267 -0.4268 -0.4169
  249SOL    HW1  746   0.294   0.305   0.016 -1.8843 -0.3940  1.7850
  249SOL    HW2  747   0.152   0.333   3.047  1.7619 -2.7932  1.4046
  250SOL     OW  748   2.876   0.145   0.205 -0.1840 -0.5699  0.4557
  250SOL    HW1  749   2.822   0.230   0.226  2.4073 -0.6926 -1.7765
  250SOL    HW2  750   2.823   0.092   0.136 -1.7448 -0.2946  0.4721
  251SOL     OW  751   0.891   1.773   1.661 -0.2937 -0.3513  0.4346
  251SOL    HW1  752   0.934   1.862   1.676 -1.7431  1.3995 -0.6453
  251SOL    HW2  753   0.795   1.796   1.646  1.6410 -0.3553  3.1655
  252SOL     OW  754   1.944   2.179   0.896 -0.3382  0.2086 -0.1049
  252SOL    HW1  755   1.854   2.134   0.894  0.3007  0.5784  0.3791
  252SOL    HW2  756   1.931   2.268   0.945 -0.3521 -1.5281  2.5611
  253SOL     OW  757   1.834   1.871   2.494  0.4873 -0.3350  0.1767
  253SOL    HW1  758   1.894   1.879   2.413 -1.7161 -1.3700  1.6160
  253SOL    HW2  759   1.809   1.968   2.514 -0.1566  0.9559  0.6041
  254SOL     OW  760   0.812   2.095   2.005  0.0145  0.4033  0.5048
  254SOL    HW1  761   0.746   2.074   1.931 -0.3252 -0.8242 -0.3758
  254SOL    HW2  762   0.893   2.040   1.987  0.9250  0.5054 -0.5455
  255SOL     OW  763   1.063   0.116   1.438 -0.2749  0.1484  0.1622
  255SOL    HW1  764   1.150   0.076   1.396 -1.4198  2.6555  0.1717
  255SOL    HW2  765   1.025   0.063   1.512  0.8347  3.9085 -3.0182
  256SOL     OW  766   2.267   2.244   1.440 -0.4223  0.0471 -0.3017
  256SOL    HW1  767   2.201   2.191   1.390  0.4464  1.2373  1.7296
  256SOL    HW2  768   2.342   2.184   1.483 -0.7349 -0.1949 -2.9625
  257SOL     OW  769   0.737   2.261   2.694  0.4084 -0.1473 -0.1166
  257SOL    HW1  770   0.655   2.282   2.750 -0.2074 -1.6760 -0.0195
  257SOL    HW2  771   0.816   2.241   2.758 -1.9272  0.6695  1.3156
  258SOL     OW  772   0.481   1.095   2.480  0.2636 -0.1356  0.8563
  258SOL    HW1  773   0.407   1.161   2.507  2.2197 -0.6847 -0.0510
  258SOL    HW2  774   0.440   1.004   2.460 -0.7710 -4.1908  2.2747
  259SOL     OW  775   0.643   1.554   2.195 -0.2313  0.5206  0.1804
  259SOL    HW1  776   0.666   1.580   2.097 -0.7137  1.3908 -0.9228
  259SOL    HW2  777   0.721   1.499   2.238  0.0685 -4.0863 -1.7738
  260SOL     OW  778   1.862   0.930   1.413  0.0548 -0.9357  0.0704
  260SOL    HW1  779   1.795   1.002   1.382 -0.7659  0.8715  1.1767
  260SOL    HW2  780   1.824   0.838   1.389  1.2863  2.8040 -0.7984
  261SOL     OW  781   1.308   3.012   0.787  0.0348  0.3129 -0.5443
  261SOL    HW1  782   1.371   2.928   0.797  0.7868 -3.4067 -2.9013
  261SOL    HW2  783   1.220   2.977   0.751 -0.3759  1.4545  0.0539
  262SOL     OW  784   2.171   2.204   2.646 -0.0168  0.3531 -0.3044
  262SOL    HW1  785   2.125   2.177   2.558  0.8437  0.3001 -0.8991
  262SOL    HW2  786   2.170   2.303   2.654 -2.8470 -0.7989 -0.7044
  263SOL     OW  787   0.317   1.466   2.966  0.2542  0.4234 -0.3952
  263SOL    HW1  788   0.273   1.548   2.935 -0.3403 -1.9732 -0.1163
  263SOL    HW2  789   0.359   1.485   3.054 -0.1943  1.5325  0.4428
  264SOL     OW  790   0.228   1.967   1.262  0.8745  0.3636  0.0331
  264SOL    HW1  791   0.292   1.886   1.271  3.3672 -1.8794  0.4157
  264SOL    HW2  792   0.213   1.999   1.355  0.9795  3.0734  1.2910
  265SOL     OW  793   0.704   0.852   0.765  0.1078 -0.8432  0.2873
  265SOL    HW1  794   0.781   0.866   0.831 -1.5812  2.2693  0.2171
  265SOL    HW2  795   0.638   0.933   0.766 -0.0441  1.6570 -0.3128
  266SOL     OW  796   1.524   1.640   0.095  0.1831 -0.1919  0.2193
  266SOL    HW1  797   1.561   1.624   0.002  3.6648  0.2458  2.2948
  266SOL    HW2  798   1.598   1.662   0.156  0.7796 -0.8454  0.5582
  267SOL     OW  799   0.718   0.803   2.657  0.1654 -0.3541  0.2309
  267SOL    HW1  800   0.801   0.859   2.675  1.9260  2.3309 -1.7914
  267SOL    HW2  801   0.712   0.755   2.564 -1.8717 -1.7704  0.0651
  268SOL     OW  802   0.967   0.671   3.082  0.5021 -0.1102 -0.2681
  268SOL    HW1  803   0.891   0.720   0.019 -0.8150 -0.3980  1.8366
  268SOL    HW2  804   1.056   0.676   0.021 -0.8029  1.0568 -1.4871
  269SOL     OW  805   1.866   2.851   2.521 -0.4865  0.1326 -0.0699
  269SOL    HW1  806   1.833   2.925   2.455  3.3425  0.0535 -2.7272
  269SOL    HW2  807   1.798   2.827   2.592 -0.4119 -1.3743 -0.6146
  270SOL     OW  808   1.083   1.210   2.889 -0.1784 -0.1088  0.0609
  270SOL    HW1  809   1.181   1.184   2.886  0.9049 -1.7195 -1.4534
  270SOL    HW2  810   1.026   1.136   2.927 -1.0991  0.7436  1.6616
  271SOL     OW  811   0.109   0.593   0.191  0.9304  0.8239  0.2706
  271SOL    HW1  812   0.173   0.663   0.159  2.3536 -2.0168  4.4868
  271SOL    HW2  813   0.128   0.504   0.142 -1.8738 -0.9299  1.0482
  272SOL     OW  814   2.433   1.254   2.615  0.3527  0.1826 -0.2798
  272SOL    HW1  815   2.376   1.288   2.692 -2.8344  2.6321 -2.2509
  272SOL    HW2  816   2.502   1.186   2.643 -1.1641 -2.2675 -0.6819
  273SOL     OW  817   0.052   0.251   2.263 -0.2587 -0.6791  0.0518
  273SOL    HW1  818   0.155   0.266   2.252  0.5422  1.7128 -1.9070
  273SOL    HW2  819   0.016   0.286   2.353 -5.6077  1.3008  0.8445
  274SOL     OW  820   0.012   0.303   1.996 -0.5619  0.2208  0.1095
  274SOL    HW1  821   0.027   0.226   1.931 -1.1690  1.0356 -0.1413
  274SOL    HW2  822   0.006   0.269   2.092  1.0963 -0.2440 -0.8538
  275SOL     OW  823   1.835   1.412   0.676 -0.2849  0.3461  0.1301
  275SOL    HW1  824   1.824   1.317   0.636  0.7193 -1.6226 -0.5586
  275SOL    HW2  825   1.806   1.482   0.601  0.3478  1.3762 -2.0956
  276SOL     OW  826   0.315   0.877   2.806  0.2960  0.1298 -0.3048
  276SOL    HW1  827   0.330   0.878   2.706  1.5129 -2.0093 -0.5300
  276SOL    HW2  828   0.385   0.821   2.858 -0.2548  0.6999  1.6616
  277SOL     OW  829   2.095   2.681   2.482 -0.4318  0.4219 -0.0231
  277SOL    HW1  830   2.172   2.710   2.421  1.0177 -0.3556 -2.1915
  277SOL    HW2  831   2.007   2.724   2.448 -0.5757  0.0807  1.7516
  278SOL     OW  832   1.724   0.112   1.791 -0.1662 -0.2947  0.3510
  278SOL    HW1  833   1.718   0.214   1.775 -1.1958 -0.4453 -1.1095
  278SOL    HW2  834   1.793   0.065   1.735  1.8773 -1.8732  1.0180
  279SOL     OW  835   1.472   1.208   3.094 -0.0040 -0.1829  0.1097
  279SOL    HW1  836   1.417   1.296   3.110  0.0736  2.8985 -0.1417
  279SOL    HW2  837   1.465   1.137   0.055 -1.2862  0.6126 -3.1265
  280SOL     OW  838   0.725   1.293   0.088 -0.0654 -0.1988  0.4404
  280SOL    HW1  839   0.829   1.278   0.105 -0.9340 -1.9359  1.6338
  280SOL    HW2  840   0.679   1.208   0.061  2.7198  0.6576 -1.4638
  281SOL     OW  841   3.061   2.874   1.588  0.3905 -0.3246  0.1008
  281SOL    HW1  842   0.053   2.885   1.582 -1.2496 -0.5681  1.8791
  281SOL    HW2  843   3.022   2.951   1.641  0.8497  0.7501 -3.4592
  282SOL     OW  844   3.092   2.278   0.681 -0.2226  0.1825  0.9402
  282SOL    HW1  845   0.075   2.269   0.637  4.0033  1.0939 -1.2459
  282SOL    HW2  846   3.026   2.313   0.609 -1.4494 -0.5951 -1.8377
  283SOL     OW  847   1.058   1.957   2.001  0.0168 -0.9542  0.4555
  283SOL    HW1  848   1.025   1.982   2.096  2.7293 -0.8790  1.4203
  283SOL    HW2  849   1.053   1.857   1.991  0.0443  0.5820 -1.2678
  284SOL     OW  850   2.119   0.506   0.424 -0.1760  0.3434 -0.2951
  284SOL    HW1  851   2.141   0.409   0.416 -0.8965  3.0377  1.7062
  284SOL    HW2  852   2.202   0.558   0.459 -2.5991 -4.3478  1.6446
  285SOL     OW  853   0.245   2.923   2.520 -0.1300 -0.2963  0.2643
  285SOL    HW1  854   0.179   2.846   2.515  0.9301 -0.6804  3.6371
  285SOL    HW2  855   0.276   2.925   2.618  0.8337  1.7599  0.9156
  286SOL     OW  856   2.139   2.543   1.314  0.3396 -0.0935 -0.2919
  286SOL    HW1  857   2.219   2.494   1.287 -1.4764  2.5750  0.0444
  286SOL    HW2  858   2.166   2.636   1.335 -1.1263  1.8770  1.0624
  287SOL     OW  859   0.671   1.569   1.000 -0.7606  0.0896  0.5206
  287SOL    HW1  860   0.628   1.478   0.976 -1.0999 -0.7259 -3.6952
  287SOL    HW2  861   0.610   1.638   1.049  0.9731  0.2000  0.3482
  288SOL     OW  862   1.966   2.131   2.927 -0.0768 -0.2773 -0.0700
  288SOL    HW1  863   1.867   2.154   2.949 -2.8907  1.4069  1.2934
  288SOL    HW2  864   1.973   2.113   2.828  0.4494 -0.6118 -0.2040
  289SOL     OW  865   0.446   1.934   2.340 -0.2739 -0.2256 -0.2506
  289SOL    HW1  866   0.482   2.013   2.288 -2.1320 -0.5531  2.5131
  289SOL    HW2  867   0.461   1.945   2.440 -0.5872  0.7532 -1.2617
  290SOL     OW  868   1.172   2.245   1.031 -0.5510  0.5289  0.1739
  290SOL    HW1  869   1.216   2.317   1.089 -0.7227  0.3059 -3.5677
  290SOL    HW2  870   1.099   2.194   1.089 -1.8958 -0.8055 -0.0443
  291SOL     OW  871   1.697   1.354   3.011  0.6589 -0.1978 -0.4775
  291SOL    HW1  872   1.757   1.336   2.933 -0.0210 -0.9982  0.0286
  291SOL    HW2  873   1.627   1.283   3.012 -2.0133 -0.6544 -0.9348
  292SOL     OW  874   1.255   1.264   0.855  0.0468 -0.3567  0.1004
  292SOL    HW1  875   1.283   1.273   0.760  0.3372 -1.5926 -1.5862
  292SOL    HW2  876   1.318   1.314   0.915  2.0763  3.3615  1.7149
  293SOL     OW  877   1.411   2.768   1.039 -0.3900 -0.0096  0.2882
  293SOL    HW1  878   1.484   2.784   1.106 -2.3292  1.7012 -0.3757
  293SOL    HW2  879   1.448   2.761   0.945  0.8487 -0.9891  0.8635
  294SOL     OW  880   2.886   1.135   2.685  0.6345 -0.0184  0.5271
  294SOL    HW1  881   2.892   1.166   2.781 -0.4083  0.4575 -2.6455
  294SOL    HW2  882   2.979   1.149   2.640  2.7790 -0.4375 -2.3434
  295SOL     OW  883   1.645   2.047   2.759  0.2499 -0.0588  0.1299
  295SOL    HW1  884   1.667   2.091   2.844  2.2860 -3.8437 -0.7374
  295SOL    HW2  885   1.695   2.090   2.675 -0.2928 -0.3483 -1.6194
  296SOL     OW  886   1.998   1.030   2.173  0.0723  0.0068  0.0646
  296SOL    HW1  887   1.900   1.023   2.139 -3.4075  0.7812 -0.5239
  296SOL    HW2  888   1.993   1.091   2.256  0.0580  0.8340  0.1739
  297SOL     OW  889   0.285   0.837   2.132 -0.2421  0.6022 -0.4018
  297SOL    HW1  890   0.214   0.774   2.092 -1.4340 -2.7033  2.3653
  297SOL    HW2  891   0.248   0.933   2.138 -0.4052  0.4461 -1.4903
  298SOL     OW  892   0.990   2.024   2.271  0.1255  0.0617 -0.3253
  298SOL    HW1  893   0.982   2.123   2.278 -0.9844 -1.7243 -2.8937
  298SOL    HW2  894   0.905   1.984   2.315  1.1871 -0.8566 -0.8509
  299SOL     OW  895   0.597   3.038   2.643  0.0447 -0.6977 -0.1877
  299SOL    HW1  896   0.619   2.974   2.565 -0.6436 -0.9485 -0.5189
  299SOL    HW2  897   0.662   3.038   2.718 -2.5119  1.5486 -4.1485
  300SOL     OW  898   0.070   0.899   2.954 -0.0177  0.0132  0.4286
  300SOL    HW1  899   0.071   0.981   3.013  2.1001  0.9641  1.5601
  300SOL    HW2  900   0.135   0.908   2.878 -2.7612 -1.7652  1.0854
  301SOL     OW  901   1.357   1.265   1.638 -0.1256  0.0864 -0.0531
  301SOL    HW1  902   1.449   1.233   1.675  2.3188 -0.8638  2.7382
  301SOL    HW2  903   1.319   1.339   1.698  0.0169  1.2604 -0.7691
  302SOL     OW  904   2.644   2.033   2.518 -0.0910 -0.2402 -0.7138
  302SOL    HW1  905   2.723   2.099   2.488 -2.5373  3.3963 -0.9090
  302SOL    HW2  906   2.569   2.048   2.448  0.4467  0.2596 -4.0912
  303SOL     OW  907   0.027   0.252   2.697 -0.0813 -0.1642 -0.8770
  303SOL    HW1  908   0.087   0.186   2.648 -0.2667  0.4095  2.1298
  303SOL    HW2  909   0.005   0.331   2.638 -1.7812 -1.4318 -0.8285
  304SOL     OW  910   3.050   0.628   1.628  0.6306  0.1300 -0.3027
  304SOL    HW1  911   0.041   0.644   1.621 -0.3661  1.0845  1.4014
  304SOL    HW2  912   3.000   0.722   1.636 -0.0654  1.0486 -2.0373
  305SOL     OW  913   2.923   3.087   1.689  0.3841 -0.4398  0.3600
  305SOL    HW1  914   2.895   3.033   1.773  2.5883 -1.7097 -1.6521
  305SOL    HW2  915   2.853   0.044   1.657  0.4188  1.2707  0.8457
  306SOL     OW  916   2.670   1.260   1.203 -0.3034  0.2485 -0.4898
  306SOL    HW1  917   2.679   1.160   1.215 -0.0509  4.2929  0.3999
  306SOL    HW2  918   2.732   1.311   1.270 -0.1361  1.3086  0.3199
  307SOL     OW  919   2.141   0.344   1.177 -0.1354  0.0046 -0.1051
  307SOL    HW1  920   2.085   0.301   1.102  0.9864 -0.2655  0.7203
  307SOL    HW2  921   2.114   0.440   1.204  1.2526  0.5474 -1.8178
  308SOL     OW  922   2.905   1.976   1.203 -0.0853 -0.1821 -0.3184
  308SOL    HW1  923   2.897   2.056   1.141 -1.0277  1.0502  4.3446
  308SOL    HW2  924   2.911   1.897   1.145  3.2479  1.6792  4.2342
  309SOL     OW  925   2.096   1.916   1.526  0.1468  0.0721  0.8174
  309SOL    HW1  926   2.015   1.920   1.470  2.0760 -1.4977  3.0150
  309SOL    HW2  927   2.089   1.984   1.603  1.0172  2.1965 -0.2113
  310SOL     OW  928   2.421   1.543   0.053 -0.0177 -0.1346  0.0504
  310SOL    HW1  929   2.349   1.576   0.117  0.6267 -0.8113  1.7661
  310SOL    HW2  930   2.424   1.597   3.078 -0.6555  0.4417 -0.2543
  311SOL     OW  931   2.286   1.302   2.853 -0.1184 -0.1610  0.1106
  311SOL    HW1  932   2.316   1.298   2.949  1.1295  3.1204  1.3842
  311SOL    HW2  933   2.251   1.396   2.825 -0.0790 -0.4761 -0.6281
  312SOL     OW  934   1.274   2.380   1.715  0.4466 -0.3058  0.1484
  312SOL    HW1  935   1.332   2.347   1.789 -0.1356  2.6927 -1.5358
  312SOL    HW2  936   1.176   2.383   1.746  0.8667 -2.6535  0.3151
  313SOL     OW  937   0.423   2.739   1.035  0.5564  0.2131 -0.4815
  313SOL    HW1  938   0.325   2.763   1.058  1.3858  1.7344 -0.0610
  313SOL    HW2  939   0.428   2.643   1.000 -2.9031 -0.0485  0.7987
  314SOL     OW  940   1.004   1.665   1.345  0.2026  0.0472  0.0825
  314SOL    HW1  941   0.945   1.730   1.294 -2.7009 -0.3888  0.7331
  314SOL    HW2  942   0.975   1.664   1.445  1.1657 -0.2658 -0.3446
  315SOL     OW  943   0.455   2.954   2.346  0.3159  0.0462  0.0759
  315SOL    HW1  944   0.381   2.936   2.419  0.8090 -0.2300  1.1450
  315SOL    HW2  945   0.432   2.943   2.251 -2.1079  3.4320  0.2251
  316SOL     OW  946   3.078   2.129   0.924 -0.5615  0.1193 -0.1198
  316SOL    HW1  947   3.096   2.199   0.850 -1.4826 -0.8668 -1.2998
  316SOL    HW2  948   0.040   2.138   0.992 -1.2218 -0.1018 -0.2859
  317SOL     OW  949   1.838   0.482   0.378  0.3166  0.2788 -0.2414
  317SOL    HW1  950   1.820   0.404   0.313 -0.0032  1.6298 -0.7628
  317SOL    HW2  951   1.940   0.482   0.398 -0.4539 -0.8548  0.0871
  318SOL     OW  952   3.056   2.613   3.104  0.1486  0.1971 -0.1159
  318SOL    HW1  953   3.002   2.661   3.031  1.0111 -2.8348  0.5949
  318SOL    HW2  954   3.023   2.630   0.085  1.7499  0.0721 -0.1972
  319SOL     OW  955   1.676   1.599   0.503 -0.2387 -0.3918  0.9033
  319SOL    HW1  956   1.599   1.531   0.519  0.6050 -1.1291 -0.4922
  319SOL    HW2  957   1.717   1.608   0.406  0.7216  1.3421 -1.7574
  320SOL     OW  958   0.679   2.514   2.627 -0.1596 -0.3056 -0.1118
  320SOL    HW1  959   0.613   2.487   2.550  0.3744 -0.3536 -1.7726
  320SOL    HW2  960   0.727   2.435   2.669 -1.3680  0.7074  0.4507
  321SOL     OW  961   1.026   2.990   0.260 -0.1928  0.1271  0.4029
  321SOL    HW1  962   1.002   2.902   0.306  0.8025 -2.1576  1.8197
  321SOL    HW2  963   1.114   2.989   0.210 -3.6728 -2.6483  0.3490
  322SOL     OW  964   2.277   0.982   2.145  0.0172  0.9933 -0.5577
  322SOL    HW1  965   2.178   0.986   2.174  0.4856  0.2326 -2.4486
  322SOL    HW2  966   2.342   1.039   2.202  1.9398 -0.7329  3.4026
  323SOL     OW  967   2.914   0.995   0.551 -0.1523  0.3022  0.2953
  323SOL    HW1  968   2.919   1.028   0.644 -2.1866 -0.1220  0.8183
  323SOL    HW2  969   2.891   1.069   0.490 -0.0095 -1.4910  2.8474
  324SOL     OW  970   3.078   0.470   2.543 -0.1782  0.1611 -0.3206
  324SOL    HW1  971   3.037   0.492   2.451  1.3225  0.0128  2.0403
  324SOL    HW2  972   0.047   0.526   2.563 -0.3279  0.1050  0.1141
  325SOL     OW  973   0.881   0.024   2.471  0.0490 -0.3032 -0.5252
  325SOL    HW1  974   0.982   0.010   2.468  3.5730  0.8305  1.6977
  325SOL    HW2  975   0.848   0.038   2.568  0.9291  1.1966  1.0024
  326SOL     OW  976   2.391   2.800   1.169 -0.0466 -0.3923  0.5345
  326SOL    HW1  977   2.476   2.767   1.207 -1.0517  2.2619 -1.6086
  326SOL    HW2  978   2.379   2.765   1.072 -1.7208  0.6946 -1.3995
  327SOL     OW  979   1.660   0.659   0.260 -0.1146  0.3466  0.5274
  327SOL    HW1  980   1.747   0.610   0.264  1.8542 -2.4315  3.6829
  327SOL    HW2  981   1.650   0.738   0.325 -0.6085  2.1102  1.7807
  328SOL     OW  982   2.858   1.660   2.079  0.0537  0.2789 -0.0467
  328SOL    HW1  983   2.911   1.680   2.167  2.0746 -1.3830  1.4183
  328SOL    HW2  984   2.826   1.743   2.036  2.1757 -1.9618  2.9432
  329SOL     OW  985   2.215   2.678   1.939  0.2945  0.1969 -0.2101
  329SOL    HW1  986   2.174   2.583   1.928  0.7694 -0.4709 -2.7587
  329SOL    HW2  987   2.174   2.741   1.871 -1.8814  0.3683  2.8734
  330SOL     OW  988   2.330   1.558   1.859 -0.6836  0.9461 -0.0135
  330SOL    HW1  989   2.304   1.465   1.890  3.3143 -1.5930 -0.3779
  330SOL    HW2  990   2.429   1.566   1.839 -2.0936 -2.0266 -2.0241
  331SOL     OW  991   2.835   2.184   1.016  0.0736 -0.0504  0.0601
  331SOL    HW1  992   2.938   2.177   1.001  1.5044 -2.6995 -0.8186
  331SOL    HW2  993   2.786   2.191   0.926  1.7012 -0.0341 -2.0390
  332SOL     OW  994   0.798   2.662   0.133 -0.1772  0.1330  0.0167
  332SOL    HW1  995   0.725   2.736   0.124 -1.0735  1.0738 -0.7782
  332SOL    HW2  996   0.844   2.668   0.224 -0.1419 -0.7943  0.9001
  333SOL     OW  997   1.760   0.129   2.531 -0.1495 -0.0982  0.4363
  333SOL    HW1  998   1.728   0.157   2.629 -1.1357  0.1108  2.0331
  333SOL    HW2  999   1.862   0.130   2.510  1.0336  2.6295 -0.7307
  334SOL     OW 1000   0.601   1.296   0.590 -0.4436 -0.0883 -0.2036
  334SOL    HW1 1001   0.683   1.348   0.626 -4.2472  0.6954 -0.6736
  334SOL    HW2 1002   0.577   1.326   0.496 -0.0124 -0.7707 -1.1664
  335SOL     OW 1003   0.075   3.097   2.115 -0.0654 -0.4165 -0.1739
  335SOL    HW1 1004   0.098   0.071   2.174  0.3153  1.4872  2.7687
  335SOL    HW2 1005   0.032   0.006   2.024 -2.0347  0.4633 -0.7809
  336SOL     OW 1006   2.898   3.041   2.152  0.0734 -0.0116 -0.3643
  336SOL    HW1 1007   2.952   3.057   2.238 -3.9884  1.3305 -1.8222
  336SOL    HW2 1008   2.808   3.097   2.150 -1.3723  1.2705  1.7005
  337SOL     OW 1009   1.637   1.421   0.855 -0.0343  0.0299  0.2425
  337SOL    HW1 1010   1.644   1.353   0.927  0.5102  1.3709  0.6461
  337SOL    HW2 1011   1.719   1.417   0.793  0.4600  1.3385  2.4947
  338SOL     OW 1012   0.885   1.882   0.883  0.2044 -0.0968  0.0572
  338SOL    HW1 1013   0.911   1.784   0.912  0.5129 -4.0015  2.5795
  338SOL    HW2 1014   0.852   1.934   0.965  0.3257 -0.9121 -0.0933
  339SOL     OW 1015   3.052   1.127   1.034 -0.1525 -0.6238  0.4249
  339SOL    HW1 1016   0.027   1.152   1.074 -1.7997 -1.0595  1.1071
  339SOL    HW2 1017   3.001   1.062   1.093 -0.7659  2.0799  0.7183
  340SOL     OW 1018   1.536   2.614   2.012  0.4115 -0.6979 -0.4806
  340SOL    HW1 1019   1.499   2.556   2.085  0.4347  1.4589  0.9602
  340SOL    HW2 1020   1.630   2.646   2.040  1.0743 -0.3856  1.4820
  341SOL     OW 1021   2.100   1.500   0.762 -0.2403 -0.1831 -0.0389
  341SOL    HW1 1022   2.169   1.433   0.797  1.5760 -0.3532  0.2230
  341SOL    HW2 1023   2.006   1.455   0.751 -0.4544  0.0901  0.6244
  342SOL     OW 1024   3.028   1.497   0.863  0.5866  0.7713 -0.0691
  342SOL    HW1 1025   2.958   1.441   0.913 -1.6308  4.2688 -2.5721
  342SOL    HW2 1026   2.979   1.560   0.807  1.5275 -1.5989  1.5262
  343SOL     OW 1027   2.491   1.259   1.686 -0.3648  0.0718  0.1221
  343SOL    HW1 1028   2.514   1.190   1.759  1.3288 -0.9960  0.8757
  343SOL    HW2 1029   2.518   1.354   1.707 -0.3144 -0.8002  0.5114
  344SOL     OW 1030   2.036   0.630   1.173  0.1475 -0.3241 -0.2180
  344SOL    HW1 1031   1.937   0.618   1.152  0.1878 -0.0704  1.3309
  344SOL    HW2 1032   2.069   0.694   1.247  1.6562 -1.4322  0.3553
  345SOL     OW 1033   0.165   0.076   2.538 -0.2780  0.2519 -0.2680
  345SOL    HW1 1034   0.190   3.086   2.528  0.0663  1.9845  1.0969
  345SOL    HW2 1035   0.246   0.139   2.534  1.8282 -0.7389  0.9896
  346SOL     OW 1036   2.685   1.558   0.201 -0.3560 -0.7309 -0.1721
  346SOL    HW1 1037   2.672   1.632   0.267  1.1597  0.4702 -1.9830
  346SOL    HW2 1038   2.603   1.543   0.146  1.5458 -0.0096 -1.7666
  347SOL     OW 1039   1.890   2.714   1.759  0.2017 -0.7020  0.3222
  347SOL    HW1 1040   1.930   2.654   1.683 -1.5395  0.5465 -3.3505
  347SOL    HW2 1041   1.834   2.778   1.700 -0.0171  1.4526 -0.3943
  348SOL     OW 1042   0.988   1.188   1.645  0.0634  0.0121  0.3122
  348SOL    HW1 1043   1.067   1.254   1.640 -0.5254  1.6137  0.9675
  348SOL    HW2 1044   0.911   1.220   1.585 -0.9067 -1.1763  0.3112
  349SOL     OW 1045   2.194   0.972   1.897  0.3293 -0.1164  0.0021
  349SOL    HW1 1046   2.221   0.978   1.994 -0.1851 -0.4253  1.3603
  349SOL    HW2 1047   2.274   0.964   1.840 -2.4375 -2.1243  3.0432
  350SOL     OW 1048   2.451   2.428   0.606  1.0233 -0.3923 -0.8258
  350SOL    HW1 1049   2.456   2.344   0.543 -1.1008  0.0732 -0.3654
  350SOL    HW2 1050   2.540   2.469   0.638 -0.9227 -0.2688 -0.3734
  351SOL     OW 1051   0.226   0.268   1.484 -0.0126 -0.1447  0.3446
  351SOL    HW1 1052   0.267   0.188   1.436 -0.1973  3.0535 -1.5801
  351SOL    HW2 1053   0.149   0.302   1.429 -1.3883  1.5426  3.0996
  352SOL     OW 1054   1.568   2.328   1.867 -0.1094  0.1030 -0.0938
  352SOL    HW1 1055   1.581   2.426   1.890 -0.7055 -3.6834 -2.1121
  352SOL    HW2 1056   1.575   2.268   1.949  0.3403  1.1981 -1.4212
  353SOL     OW 1057   0.898   1.266   2.482 -0.1729  0.7162 -1.0123
  353SOL    HW1 1058   0.869   1.289   2.576 -0.2019  1.8151  1.0024
  353SOL    HW2 1059   0.967   1.192   2.490 -1.2785 -3.7573 -0.8876
  354SOL     OW 1060   1.363   1.505   0.498 -0.1361  0.2740 -0.0862
  354SOL    HW1 1061   1.356   1.428   0.429  1.5964 -0.1099 -2.2448
  354SOL    HW2 1062   1.322   1.590   0.461 -0.7740 -0.1050 -0.2942
  355SOL     OW 1063   1.972   0.234   0.977  0.2913  0.3131  0.1481
  355SOL    HW1 1064   1.992   0.148   0.925  2.5488  0.0802  0.0849
  355SOL    HW2 1065   1.877   0.270   0.957 -0.7478  0.8120 -0.4567
  356SOL     OW 1066   2.924   1.143   3.002  0.1865 -0.1679  0.1392
  356SOL    HW1 1067   2.973   1.228   2.966 -2.0008  0.5563  0.3733
  356SOL    HW2 1068   2.980   1.103   3.078 -0.3010 -0.2794 -1.2327
  357SOL     OW 1069   0.008   0.087   1.841  0.4791 -0.4887 -0.0996
  357SOL    HW1 1070   0.092   0.081   1.791 -1.4051 -0.0287 -1.5723
  357SOL    HW2 1071   3.048   0.037   1.786 -0.7041  0.1913 -0.2333
  358SOL     OW 1072   0.473   1.405   2.751 -0.0259  0.0680 -0.3548
  358SOL    HW1 1073   0.397   1.408   2.816  0.0015  2.3430  3.7499
  358SOL    HW2 1074   0.562   1.387   2.800 -0.4665 -1.3566  0.8449
  359SOL     OW 1075   2.739   2.886   2.617 -0.2243 -0.0962  0.4464
  359SOL    HW1 1076   2.773   2.791   2.592  2.0679 -1.5154  0.2737
  359SOL    HW2 1077   2.735   2.906   2.715  0.4078  0.4556 -0.8788
  360SOL     OW 1078   1.699   1.137   1.278 -0.0543  0.4563  0.1791
  360SOL    HW1 1079   1.703   1.201   1.358  0.1828 -3.0846  1.2079
  360SOL    HW2 1080   1.709   1.187   1.193 -2.7908 -0.1016  2.3929
  361SOL     OW 1081   1.932   2.389   1.295  0.1794  0.5903  0.2165
  361SOL    HW1 1082   1.921   2.337   1.381 -2.1539 -0.9947  1.2515
  361SOL    HW2 1083   1.998   2.469   1.305  0.3017  0.2343  1.7400
  362SOL     OW 1084   1.584   0.909   1.178  0.4579  0.3732 -0.6820
  362SOL    HW1 1085   1.496   0.961   1.193  0.6387 -1.0918  0.6547
  362SOL    HW2 1086   1.663   0.967   1.195 -1.8151 -1.5197 -1.9636
  363SOL     OW 1087   2.194   2.440   0.709  0.1428 -0.3544  0.2933
  363SOL    HW1 1088   2.287   2.440   0.667 -0.9829  0.0230  1.5130
  363SOL    HW2 1089   2.199   2.474   0.804  3.1767 -1.2831 -2.1485
  364SOL     OW 1090   0.004   0.253   0.757  0.3369 -0.6309 -0.1133
  364SOL    HW1 1091   0.045   0.165   0.722 -0.3697 -0.6675  1.3992
  364SOL    HW2 1092   0.060   0.296   0.830  1.6231  1.8430  0.5083
  365SOL     OW 1093   0.342   2.865   0.671  0.0541  0.2866  0.1209
  365SOL    HW1 1094   0.299   2.881   0.579  0.3946 -1.5502  1.0196
  365SOL    HW2 1095   0.399   2.944   0.695 -0.6142  0.2953 -3.1919
  366SOL     OW 1096   0.125   1.515   0.417 -0.0097 -0.1663  0.7187
  366SOL    HW1 1097   0.102   1.443   0.485  1.8546  2.3680  1.1860
  366SOL    HW2 1098   0.223   1.540   0.424  0.0546 -0.5885 -1.1542
  367SOL     OW 1099   2.784   2.274   2.887 -0.5172 -0.2280  0.3785
  367SOL    HW1 1100   2.863   2.258   2.948 -4.3777  0.7457 -0.3001
  367SOL    HW2 1101   2.811   2.338   2.811 -0.8911  0.7016  1.1236
  368SOL     OW 1102   2.397   1.778   0.762  0.2742  0.6932 -0.1448
  368SOL    HW1 1103   2.338   1.716   0.704 -1.1761 -1.5301 -3.1244
  368SOL    HW2 1104   2.483   1.730   0.793 -1.8150  1.7155 -1.4177
  369SOL     OW 1105   1.153   0.835   0.318 -0.2226  0.4920 -0.2693
  369SOL    HW1 1106   1.115   0.840   0.415 -1.4947  0.2888  0.6291
  369SOL    HW2 1107   1.256   0.833   0.318 -2.6925 -0.3453  1.0484
  370SOL     OW 1108   0.578   2.964   0.961 -0.0689 -0.0057 -0.6080
  370SOL    HW1 1109   0.529   2.883   0.998 -2.3077 -1.2009  0.3623
  370SOL    HW2 1110   0.675   2.947   0.964 -0.3813 -0.9934 -0.0745
  371SOL     OW 1111   2.779   1.465   2.773  0.5391  0.1780  0.2059
  371SOL    HW1 1112   2.702   1.524   2.746  0.5456 -2.9291  0.2827
  371SOL    HW2 1113   2.748   1.422   2.858 -0.6916 -0.8097  0.8718
  372SOL     OW 1114   0.725   0.650   2.402  0.4179  0.4022 -0.2371
  372SOL    HW1 1115   0.729   0.664   2.298 -3.3070  1.5370 -0.3526
  372SOL    HW2 1116   0.769   0.564   2.437 -0.4866 -2.4192  1.3791
  373SOL     OW 1117   0.598   0.464   3.092 -0.6566  0.4416 -0.1095
  373SOL    HW1 1118   0.608   0.533   3.018  0.8278 -1.9983  1.5221
  373SOL    HW2 1119   0.685   0.434   0.020 -1.6850 -3.1559  0.4935
  374SOL     OW 1120   1.240   2.017   0.130  0.1019 -0.5941  0.0194
  374SOL    HW1 1121   1.267   2.118   0.127 -0.2740  0.2609  1.6954
  374SOL    HW2 1122   1.305   1.961   0.078 -0.1018  0.2430  1.5996
  375SOL     OW 1123   0.764   2.954   1.705  0.0687 -0.0198 -0.1676
  375SOL    HW1 1124   0.863   2.984   1.695  5.7403  1.8694 -0.0990
  375SOL    HW2 1125   0.710   2.973   1.624 -0.3310  0.4893  1.2944
  376SOL     OW 1126   0.206   2.620   2.075 -1.2506 -0.2406  0.4114
  376SOL    HW1 1127   0.290   2.577   2.114 -0.3871  0.2295  1.2107
  376SOL    HW2 1128   0.119   2.601   2.123  0.9531 -0.4991  1.4385
  377SOL     OW 1129   2.594   2.022   0.058  0.1179 -0.2020 -0.3339
  377SOL    HW1 1130   2.496   2.017   0.080  1.3708  1.6821 -0.1266
  377SOL    HW2 1131   2.615   1.963   3.087 -0.5017 -1.7368  0.4127
  378SOL     OW 1132   2.229   0.173   0.671 -0.0512 -0.6043  0.0951
  378SOL    HW1 1133   2.228   0.262   0.714  0.9226  0.6664  0.9848
  378SOL    HW2 1134   2.326   0.138   0.657 -1.9545  3.7019 -0.9101
  379SOL     OW 1135   1.119   0.618   0.551  0.1525  0.1731 -0.8102
  379SOL    HW1 1136   1.162   0.536   0.507  0.3470 -1.2475  0.3707
  379SOL    HW2 1137   1.027   0.592   0.582 -0.7268  0.6749  3.4138
  380SOL     OW 1138   2.665   2.348   1.885  0.7565  0.2361 -0.2012
  380SOL    HW1 1139   2.737   2.419   1.868  0.1417  0.6044  0.4925
  380SOL    HW2 1140   2.669   2.275   1.810  0.0003  1.0380 -1.8093
  381SOL     OW 1141   2.798   1.431   1.957  0.8684 -0.5303 -0.7351
  381SOL    HW1 1142   2.822   1.526   1.990 -3.2704  1.7828  1.2477
  381SOL    HW2 1143   2.758   1.376   2.031 -1.3285  3.8040 -2.6547
  382SOL     OW 1144   3.044   2.066   2.913  0.1108 -0.1105 -0.0382
  382SOL    HW1 1145   3.039   2.141   2.978  3.9853 -0.6306  1.3988
  382SOL    HW2 1146   2.992   1.985   2.942  1.7084  2.5554  0.8994
  383SOL     OW 1147   1.413   0.838   2.663  0.2086  0.0690 -0.9508
  383SOL    HW1 1148   1.367   0.899   2.728  1.3895  0.1103 -0.6964
  383SOL    HW2 1149   1.388   0.865   2.562  0.2677  0.4651 -3.1095
  384SOL     OW 1150   1.310   2.070   2.132 -0.3410  0.5768  0.3598
  384SOL    HW1 1151   1.266   2.160   2.127  1.8279 -2.1702  0.3882
  384SOL    HW2 1152   1.284   2.023   2.213  0.4532  0.6941 -0.8921
  385SOL     OW 1153   2.664   2.728   3.107 -0.7276 -0.9985  0.8939
  385SOL    HW1 1154   2.667   2.630   0.030  1.7464  1.6101  0.8942
  385SOL    HW2 1155   2.659   2.795   0.073 -2.0350 -1.1575 -0.9009
  386SOL     OW 1156   1.558   1.041   0.763  0.2358  0.6270 -0.7262
  386SOL    HW1 1157   1.471   1.086   0.738  0.6728 -1.0117 -0.1602
  386SOL    HW2 1158   1.542   0.954   0.812 -1.0665  2.5885 -0.8728
  387SOL     OW 1159   3.033   1.895   1.736 -0.4058  0.3951  0.5127
  387SOL    HW1 1160   3.022   1.978   1.797 -2.8169  0.1882 -1.8574
  387SOL    HW2 1161   3.049   1.933   1.642 -0.6637  0.9156  0.5499
  388SOL     OW 1162   0.530   1.210   1.452 -0.1102  0.3580  0.1082
  388SOL    HW1 1163   0.600   1.192   1.525 -0.5434  0.3634 -1.1682
  388SOL    HW2 1164   0.499   1.122   1.413  1.4440 -0.4128  1.1700
  389SOL     OW 1165   2.083   0.955   2.550  0.5002  0.5784  0.2788
  389SOL    HW1 1166   2.159   0.890   2.579  0.1087 -0.7862  0.1095
  389SOL    HW2 1167   2.108   1.044   2.590  0.0717 -2.6349  0.4105
  390SOL     OW 1168   1.108   1.675   0.040  0.4201  0.1088 -0.1148
  390SOL    HW1 1169   1.015   1.701   0.072  3.6574 -1.3153 -0.8635
  390SOL    HW2 1170   1.106   1.621   3.066 -0.8612  1.5996 -1.3465
  391SOL     OW 1171   1.151   1.611   0.314  0.2011  0.3706 -0.1712
  391SOL    HW1 1172   1.112   1.688   0.368  4.0514  0.5267 -0.3105
  391SOL    HW2 1173   1.140   1.632   0.215  1.7006  1.2237  2.9261
  392SOL     OW 1174   2.601   3.020   2.407 -0.6131  0.0516  0.8056
  392SOL    HW1 1175   2.661   3.042   2.324  1.9147 -2.1511 -2.2894
  392SOL    HW2 1176   2.657   2.985   2.483 -0.4231  0.9612  0.6033
  393SOL     OW 1177   1.572   2.162   0.108  0.1451  0.3261  0.6830
  393SOL    HW1 1178   1.554   2.095   0.185 -2.7667 -1.2341  0.5954
  393SOL    HW2 1179   1.481   2.212   0.091 -1.2510  1.1476 -0.8123
  394SOL     OW 1180   0.750   0.209   2.327  0.2167 -0.0091  0.3613
  394SOL    HW1 1181   0.811   0.136   2.369  2.0194 -1.2173  1.4901
  394SOL    HW2 1182   0.740   0.198   2.223 -1.1326  0.2081 -1.6142
  395SOL     OW 1183   0.273   1.687   1.348 -0.5971 -0.1592 -0.5373
  395SOL    HW1 1184   0.241   1.745   1.424  1.6322 -0.7512  0.1889
  395SOL    HW2 1185   0.202   1.636   1.299  0.4908 -1.2635  0.7755
  396SOL     OW 1186   2.184   1.556   2.842 -0.3080  0.0238  0.0472
  396SOL    HW1 1187   2.136   1.614   2.772  0.7055  2.7416 -0.0065
  396SOL    HW2 1188   2.115   1.541   2.918 -1.8599 -0.2139 -0.3924
  397SOL     OW 1189   0.435   0.704   2.976 -0.1971  0.1698  0.6252
  397SOL    HW1 1190   0.535   0.720   2.979 -0.5785  0.2880  1.7281
  397SOL    HW2 1191   0.395   0.739   3.061  0.4773  0.8967  1.3818
  398SOL     OW 1192   0.951   2.437   0.130  0.4682 -0.2792  0.0875
  398SOL    HW1 1193   1.039   2.481   0.131 -3.9672 -0.1258 -0.4237
  398SOL    HW2 1194   0.879   2.510   0.111 -1.5718  0.3218  1.3154
  399SOL     OW 1195   1.967   2.375   2.375  0.4721  0.2209  0.5665
  399SOL    HW1 1196   1.910   2.409   2.452  2.8002  2.5377 -0.0620
  399SOL    HW2 1197   2.019   2.447   2.329 -2.1740 -2.6659  2.1733
  400SOL     OW 1198   0.006   1.026   1.800 -0.0615  0.3193 -0.0878
  400SOL    HW1 1199   3.073   1.110   1.839  0.5482 -0.8032  2.3361
  400SOL    HW2 1200   0.075   1.057   1.729 -1.7268 -2.4050 -2.1816
  401SOL     OW 1201   0.846   0.614   0.665 -0.1993  0.2020  0.1044
  401SOL    HW1 1202   0.767   0.553   0.652  0.8985  2.6288  1.5547
  401SOL    HW2 1203   0.819   0.705   0.705  1.2844  1.2677 -2.1248
  402SOL     OW 1204   0.850   0.018   2.754  0.6391  0.4829 -0.6089
  402SOL    HW1 1205   0.815   0.110   2.786 -1.5418  1.5596 -0.9120
  402SOL    HW2 1206   0.814   3.049   2.803 -0.3213  1.4341 -2.4032
  403SOL     OW 1207   2.614   1.829   1.834  0.9735 -0.4124 -0.0506
  403SOL    HW1 1208   2.678   1.875   1.898  2.0615  1.4788  2.7033
  403SOL    HW2 1209   2.653   1.806   1.742 -0.7516 -1.6918 -0.8826
  404SOL     OW 1210   2.658   2.348   1.418 -0.1721  0.2176 -0.2430
  404SOL    HW1 1211   2.754   2.376   1.407 -3.5733 -2.4441  1.7942
  404SOL    HW2 1212   2.612   2.359   1.327  0.9135 -0.9663  0.5487
  405SOL     OW 1213   1.901   0.267   2.882 -0.6483 -0.1029  0.3681
  405SOL    HW1 1214   1.932   0.183   2.832 -0.9693 -0.5505 -2.2801
  405SOL    HW2 1215   1.922   0.352   2.831  0.1730  1.0862  0.2635
  406SOL     OW 1216   1.347   1.796   3.047 -0.5278 -0.1158 -0.2148
  406SOL    HW1 1217   1.417   1.757   0.000  1.2943 -0.7823 -0.3363
  406SOL    HW2 1218   1.252   1.764   3.070  1.5403 -0.4528 -0.6089
  407SOL     OW 1219   1.796   1.811   0.615 -0.0373  0.2712 -0.0099
  407SOL    HW1 1220   1.780   1.809   0.715 -0.7085  0.4835 -0.2968
  407SOL    HW2 1221   1.738   1.740   0.568  0.2862  0.4069  1.1282
  408SOL     OW 1222   3.079   0.310   1.320 -0.1868 -0.0664  0.3988
  408SOL    HW1 1223   0.007   0.341   1.232  2.2072 -0.1120  1.1176
  408SOL    HW2 1224   3.048   0.213   1.305 -1.0425 -0.5819  2.4792
  409SOL     OW 1225   2.400   1.268   3.088  0.0122 -0.4283 -0.5877
  409SOL    HW1 1226   2.411   1.189   0.040  1.4725 -0.8769  0.1175
  409SOL    HW2 1227   2.424   1.356   0.026  1.7334  0.2138 -0.4248
  410SOL     OW 1228   2.277   2.430   1.009 -0.2817  0.0205 -0.5134
  410SOL    HW1 1229   2.176   2.414   1.015  0.3432  0.2243 -0.2490
  410SOL    HW2 1230   2.325   2.341   1.028  0.2631  1.1011 -1.3202
  411SOL     OW 1231   0.279   0.031   0.259 -0.3278 -0.0342  0.0179
  411SOL    HW1 1232   0.199   0.077   0.222  0.9245  1.2235  2.2120
  411SOL    HW2 1233   0.340   0.009   0.178  4.0215 -0.3888 -0.0708
  412SOL     OW 1234   1.670   2.793   0.352 -0.1215  0.5020  0.2444
  412SOL    HW1 1235   1.695   2.860   0.280 -0.7586  0.0410 -0.3973
  412SOL    HW2 1236   1.737   2.786   0.429  0.9195  0.1770  2.1879
  413SOL     OW 1237   1.712   0.358   2.296 -0.0505 -0.5421 -0.1850
  413SOL    HW1 1238   1.736   0.295   2.376  2.0556 -1.7549  1.1275
  413SOL    HW2 1239   1.618   0.337   2.268  1.3312 -2.2555  2.3267
  414SOL     OW 1240   0.064   0.555   0.470  0.1956  0.2750  0.0624
  414SOL    HW1 1241   0.075   0.555   0.366  0.3753  0.8785  1.1694
  414SOL    HW2 1242   0.148   0.516   0.513  1.7355  0.0450 -1.3835
  415SOL     OW 1243   0.005   1.337   0.615  0.1669  0.1709  0.1150
  415SOL    HW1 1244   3.054   1.328   0.531  1.7177  0.8237 -0.2373
  415SOL    HW2 1245   3.076   1.389   0.696  1.3623  0.7418  0.4275
  416SOL     OW 1246   0.012   0.670   2.842 -0.0945 -0.2472  0.2241
  416SOL    HW1 1247   0.098   0.617   2.833 -3.7932  0.0111  1.9626
  416SOL    HW2 1248   0.032   0.757   2.896 -0.0159 -1.0762  0.1130
  417SOL     OW 1249   2.548   0.141   0.961  0.6661  0.0566  0.0798
  417SOL    HW1 1250   2.467   0.160   1.017 -1.0034  1.6816 -1.5639
  417SOL    HW2 1251   2.627   0.196   0.998  2.5258  1.9802  0.9615
  418SOL     OW 1252   0.796   2.868   2.836  0.7031 -0.0670  0.2543
  418SOL    HW1 1253   0.870   2.838   2.894  0.7723  2.1942 -1.9987
  418SOL    HW2 1254   0.729   2.790   2.827 -0.4824 -1.1221  1.6424
  419SOL     OW 1255   0.194   1.031   0.767 -0.5999  0.9133  0.4943
  419SOL    HW1 1256   0.107   1.025   0.817 -0.2204  0.1898  1.9247
  419SOL    HW2 1257   0.186   0.984   0.676 -1.4112 -1.5101  2.2779
  420SOL     OW 1258   2.864   1.343   1.391  0.1091  0.1900  0.7142
  420SOL    HW1 1259   2.868   1.380   1.487  2.2547 -1.4374  2.6123
  420SOL    HW2 1260   2.923   1.261   1.389 -1.9721  0.5503  1.4241
  421SOL     OW 1261   1.282   1.994   2.852  0.1130  0.4253 -0.1141
  421SOL    HW1 1262   1.317   1.966   2.758  0.4890 -0.1244 -0.1700
  421SOL    HW2 1263   1.311   1.921   2.918  0.9811 -3.4774 -1.4165
  422SOL     OW 1264   2.468   0.848   2.515  0.3666 -0.3089 -0.0130
  422SOL    HW1 1265   2.390   0.827   2.578 -2.7085  0.0867 -1.1610
  422SOL    HW2 1266   2.515   0.758   2.489  1.1711 -1.4102  0.6506
  423SOL     OW 1267   2.002   1.353   0.265  0.7098  0.1783  0.0094
  423SOL    HW1 1268   2.001   1.441   0.221  1.9612 -0.7494 -0.1919
  423SOL    HW2 1269   1.913   1.313   0.240 -0.2391  4.5176  0.0252
  424SOL     OW 1270   0.870   0.825   1.974  0.5686  0.8388  0.0633
  424SOL    HW1 1271   0.853   0.919   2.012 -0.0739  1.4801 -0.1983
  424SOL    HW2 1272   0.965   0.798   1.964 -1.0801  2.4799 -0.0180
  425SOL     OW 1273   3.104   2.818   2.156  0.2289 -0.3301  0.0285
  425SOL    HW1 1274   0.017   2.761   2.072 -2.2897  1.1577 -0.8274
  425SOL    HW2 1275   3.102   2.916   2.128  0.1174  3.4127  1.4816
  426SOL     OW 1276   2.353   2.630   0.341  0.0687  0.0816  0.1460
  426SOL    HW1 1277   2.449   2.647   0.366 -0.2720 -0.6876 -1.0050
  426SOL    HW2 1278   2.291   2.632   0.424  0.9242 -1.0128  0.2786
  427SOL     OW 1279   0.710   0.679   2.925 -0.0403 -0.2202 -0.5803
  427SOL    HW1 1280   0.697   0.715   2.827 -1.1677  0.4361  1.3359
  427SOL    HW2 1281   0.799   0.690   2.971  0.0759 -2.0541 -0.6055
  428SOL     OW 1282   2.715   1.331   3.007  0.1498  0.0369  0.1538
  428SOL    HW1 1283   2.621   1.308   3.029  2.0134 -1.7487 -2.5702
  428SOL    HW2 1284   2.769   1.247   2.986  0.9254  0.4505  2.6695
  429SOL     OW 1285   2.465   0.437   0.201  0.1379 -0.3563  0.2712
  429SOL    HW1 1286   2.501   0.522   0.243  1.4943 -1.7215  1.8406
  429SOL    HW2 1287   2.435   0.455   0.105 -0.0042 -1.0118  1.3912
  430SOL     OW 1288   1.427   2.465   2.210  0.7964  0.9049 -1.1697
  430SOL    HW1 1289   1.414   2.557   2.259 -0.5953  0.0141  1.6969
  430SOL    HW2 1290   1.344   2.423   2.173 -0.3245 -0.7857 -1.3878
  431SOL     OW 1291   0.198   2.056   1.509  0.6581 -0.0420  0.9490
  431SOL    HW1 1292   0.104   2.025   1.480  0.8617  1.2409  0.0626
  431SOL    HW2 1293   0.194   2.095   1.604  1.4967  3.9984  0.7016
  432SOL     OW 1294   1.971   2.813   2.135  0.0284  0.4381 -0.3304
  432SOL    HW1 1295   1.951   2.903   2.181  1.0907  0.8779 -0.6492
  432SOL    HW2 1296   2.047   2.831   2.071 -1.0920 -0.8187 -0.3817
  433SOL     OW 1297   1.052   2.067   0.335  0.7219  0.2275  0.1170
  433SOL    HW1 1298   1.024   1.971   0.352 -2.8073  2.7390  1.7313
  433SOL    HW2 1299   1.122   2.058   0.259 -0.6222 -0.9665  0.4714
  434SOL     OW 1300   0.259   1.926   2.679  0.1360  0.4499  0.0590
  434SOL    HW1 1301   0.351   1.956   2.640 -2.5944  2.1242  2.0174
  434SOL    HW2 1302   0.254   1.949   2.779 -1.5122 -0.5192 -1.5960
  435SOL     OW 1303   0.111   1.015   0.457 -0.0386  0.2203  0.0814
  435SOL    HW1 1304   0.052   1.094   0.435  0.0316 -0.5129 -0.5030
  435SOL    HW2 1305   0.063   0.947   0.511 -0.2759 -1.8950 -0.8098
  436SOL     OW 1306   0.448   2.690   1.734 -0.5888  0.4403 -0.6548
  436SOL    HW1 1307   0.451   2.746   1.654 -0.6764 -1.5673  2.8188
  436SOL    HW2 1308   0.533   2.708   1.787  1.6694 -0.0265  0.3911
  437SOL     OW 1309   0.847   3.006   0.708  0.2846 -0.2564 -0.0865
  437SOL    HW1 1310   0.881   3.099   0.689 -0.6783  0.0174 -0.1691
  437SOL    HW2 1311   0.757   2.992   0.662  0.5151  1.3638  1.8421
  438SOL     OW 1312   0.297   2.276   0.619  0.0030 -0.1833  0.2130
  438SOL    HW1 1313   0.388   2.320   0.607  1.9722  0.6643 -2.7280
  438SOL    HW2 1314   0.285   2.246   0.715 -2.6303 -0.0593 -1.2531
  439SOL     OW 1315   0.859   2.312   1.709 -0.4700  0.2060  0.3871
  439SOL    HW1 1316   0.828   2.300   1.614  3.0084 -4.1981 -1.6640
  439SOL    HW2 1317   0.848   2.409   1.738 -1.6443  2.5319 -0.3722
  440SOL     OW 1318   1.931   3.094   2.253  0.2475 -0.1856 -0.3918
  440SOL    HW1 1319   1.928   0.044   2.171  3.1911 -1.5745  1.2935
  440SOL    HW2 1320   1.835   3.074   2.291  0.6225 -0.0724 -1.1349
  441SOL     OW 1321   2.971   0.468   1.848 -0.3326 -0.2800 -0.8157
  441SOL    HW1 1322   3.041   0.420   1.897  0.5528 -0.9379  0.8392
  441SOL    HW2 1323   2.992   0.518   1.762 -0.0801  1.2028 -2.3459
  442SOL     OW 1324   1.961   2.313   0.656 -0.8668  0.1772 -0.1506
  442SOL    HW1 1325   2.055   2.356   0.667 -0.3560 -0.5553 -1.9675
  442SOL    HW2 1326   1.946   2.250   0.737 -1.4737 -0.2951  5.7286
  443SOL     OW 1327   2.731   0.847   2.288  0.2971 -0.2332 -0.2117
  443SOL    HW1 1328   2.665   0.768   2.312 -3.7711 -1.0127  2.3130
  443SOL    HW2 1329   2.814   0.845   2.348  0.8827  0.6072 -1.3140
  444SOL     OW 1330   1.703   1.005   2.174  0.3699 -0.2201 -0.5252
  444SOL    HW1 1331   1.635   1.071   2.132 -1.1948  2.0215 -0.3095
  444SOL    HW2 1332   1.700   1.016   2.275  2.6476 -0.4659 -0.5146
  445SOL     OW 1333   3.086   2.426   1.201  0.0387 -0.1274 -0.0021
  445SOL    HW1 1334   0.076   2.427   1.219  0.2570  0.2883  1.6030
  445SOL    HW2 1335   3.056   2.459   1.108  1.3924  0.0036  0.0741
  446SOL     OW 1336   2.709   1.652   1.169  0.0927  0.2862  0.2666
  446SOL    HW1 1337   2.701   1.725   1.242  0.3646 -0.7215  1.1823
  446SOL    HW2 1338   2.801   1.616   1.162 -0.2048  1.0357  0.0753
  447SOL     OW 1339   0.532   1.060   0.731 -0.0345 -0.6073  0.1836
  447SOL    HW1 1340   0.445   1.079   0.773  1.6826  1.6229  0.6196
  447SOL    HW2 1341   0.582   1.149   0.715 -1.7861  0.0291  0.2993
  448SOL     OW 1342   1.266   1.684   2.045 -0.7974 -0.3073 -0.2314
  448SOL    HW1 1343   1.179   1.706   1.997  0.7320  0.1608 -0.0278
  448SOL    HW2 1344   1.285   1.585   2.066  0.5871 -0.4778 -0.3865
  449SOL     OW 1345   1.410   1.237   0.362 -0.1584 -0.3825 -0.1705
  449SOL    HW1 1346   1.501   1.254   0.410  2.4010 -3.0135  0.0897
  449SOL    HW2 1347   1.434   1.170   0.288 -0.2919 -1.4416  1.2392
  450SOL     OW 1348   2.866   2.707   2.267 -0.3026  0.4326  0.1811
  450SOL    HW1 1349   2.936   2.772   2.222  0.3849  1.5094 -3.2435
  450SOL    HW2 1350   2.784   2.697   2.212  1.8184  2.2426 -0.5555
  451SOL     OW 1351   2.259   0.358   2.383 -0.2965  0.3073 -0.0273
  451SOL    HW1 1352   2.302   0.378   2.293 -3.1225  0.4730  2.9860
  451SOL    HW2 1353   2.311   0.285   2.435  1.5909 -2.6102 -1.0434
  452SOL     OW 1354   1.577   0.396   1.200 -0.5144 -0.4354 -0.2528
  452SOL    HW1 1355   1.619   0.308   1.233  0.1973  0.3723  1.9797
  452SOL    HW2 1356   1.555   0.450   1.286 -0.5213  0.7667  0.2839
  453SOL     OW 1357   1.730   0.970   1.674  0.3690 -0.4182  0.6189
  453SOL    HW1 1358   1.791   0.933   1.599 -0.8551  0.4730  1.5739
  453SOL    HW2 1359   1.784   1.016   1.752  0.2667  1.6424  0.9981
  454SOL     OW 1360   3.062   1.739   0.492 -0.5326  0.6231  0.2093
  454SOL    HW1 1361   0.048   1.725   0.521 -1.1231 -1.6801 -0.1334
  454SOL    HW2 1362   3.024   1.811   0.551  1.0533 -3.2037  1.4264
  455SOL     OW 1363   2.816   0.042   0.548  0.0894  0.2390  0.2807
  455SOL    HW1 1364   2.842   0.133   0.510  2.0341  0.1545 -0.6331
  455SOL    HW2 1365   2.717   0.021   0.530  0.3638  2.5352  1.8723
  456SOL     OW 1366   0.169   2.768   1.164  0.5234 -0.1995  0.0360
  456SOL    HW1 1367   0.104   2.829   1.211  2.5867  1.2040 -0.4167
  456SOL    HW2 1368   0.213   2.702   1.226  0.9542  0.9196  1.2235
  457SOL     OW 1369   1.387   3.098   0.530  0.1849 -0.1629 -0.2205
  457SOL    HW1 1370   1.381   3.065   0.628  1.4755 -1.3409  1.7295
  457SOL    HW2 1371   1.477   0.015   0.505 -0.3950 -1.0298 -0.7520
  458SOL     OW 1372   2.506   0.101   0.700 -0.3108  0.0773 -0.2555
  458SOL    HW1 1373   2.541   0.114   0.796  0.0652 -2.1045 -0.1606
  458SOL    HW2 1374   2.509   0.003   0.669 -0.6416 -0.0599 -0.4441
  459SOL     OW 1375   2.233   0.484   2.673 -0.2656  0.1150 -0.3386
  459SOL    HW1 1376   2.243   0.471   2.571  1.4675  0.5387  0.4782
  459SOL    HW2 1377   2.317   0.444   2.718  1.9636  1.1559 -0.7956
  460SOL     OW 1378   2.850   2.993   2.868 -0.1673  0.4564 -0.1934
  460SOL    HW1 1379   2.810   3.036   2.951  2.9032 -2.0528 -1.2942
  460SOL    HW2 1380   2.872   3.066   2.799  0.3609  0.0594 -0.4162
  461SOL     OW 1381   0.996   1.806   0.458  0.2173 -0.8699  0.3333
  461SOL    HW1 1382   1.034   1.859   0.540  0.7782  0.3668  0.5104
  461SOL    HW2 1383   0.896   1.826   0.448  0.1452 -0.3695 -0.0027
  462SOL     OW 1384   2.348   2.198   1.113  0.1446  0.6321 -0.1312
  462SOL    HW1 1385   2.277   2.194   1.185  1.3033  3.2580 -0.0787
  462SOL    HW2 1386   2.370   2.101   1.082 -0.9967  0.3917  0.0604
  463SOL     OW 1387   2.571   0.978   0.592 -0.8406  0.2072 -0.4770
  463SOL    HW1 1388   2.486   0.932   0.617  0.0931 -1.3843  0.7524
  463SOL    HW2 1389   2.641   0.910   0.566 -2.9208 -1.2638  0.6395
  464SOL     OW 1390   0.354   0.074   1.351 -0.0654 -0.6406 -0.1220
  464SOL    HW1 1391   0.379   0.046   1.257  1.6100 -1.8757  0.4843
  464SOL    HW2 1392   0.416   0.039   1.417 -0.0635  0.3241 -0.5408
  465SOL     OW 1393   2.918   1.527   0.062 -0.3306  0.6413 -0.3038
  465SOL    HW1 1394   2.835   1.544   0.114  0.4859  3.6513  0.2315
  465SOL    HW2 1395   2.902   1.461   3.097 -1.2231 -1.0562 -0.7153
  466SOL     OW 1396   1.658   0.156   2.802  0.4302 -0.0032 -0.0886
  466SOL    HW1 1397   1.742   0.196   2.842  1.6006  2.3007  1.2182
  466SOL    HW2 1398   1.574   0.199   2.844  0.4211  0.4517  1.8742
  467SOL     OW 1399   0.802   0.481   1.537 -0.0016 -0.3021 -0.5126
  467SOL    HW1 1400   0.880   0.488   1.605  0.1569  0.6521  0.7754
  467SOL    HW2 1401   0.834   0.505   1.446  1.6818 -2.3685  2.2736
  468SOL     OW 1402   0.638   1.055   2.684 -0.0022  0.5107 -0.3738
  468SOL    HW1 1403   0.578   1.082   2.606 -0.7525  0.0846  0.9194
  468SOL    HW2 1404   0.656   0.955   2.685  0.8114 -2.0179  2.2001
  469SOL     OW 1405   0.285   2.185   0.067  0.1902 -0.4475 -0.8547
  469SOL    HW1 1406   0.255   2.275   0.032 -1.1173 -0.1598  0.5744
  469SOL    HW2 1407   0.202   2.150   0.114  0.4228  0.1856  0.5520
  470SOL     OW 1408   2.395   1.869   2.535 -0.3292  0.1067 -0.4307
  470SOL    HW1 1409   2.433   1.781   2.570  1.2734  0.2336  3.1999
  470SOL    HW2 1410   2.396   1.939   2.612  1.2081  1.4624 -2.0127
  471SOL     OW 1411   2.699   1.304   2.204  0.0593 -0.1206 -0.1912
  471SOL    HW1 1412   2.677   1.203   2.206 -0.8874 -5.7210  0.2226
  471SOL    HW2 1413   2.723   1.334   2.304  0.6090  0.2732  2.3754
  472SOL     OW 1414   0.523   2.733   0.535 -0.1805 -0.3693 -0.0033
  472SOL    HW1 1415   0.496   2.745   0.437  1.2073  0.2258 -0.2286
  472SOL    HW2 1416   0.456   2.785   0.602 -1.9341 -0.7617  0.8834
  473SOL     OW 1417   0.594   0.099   2.961  0.0125 -0.2048  0.0378
  473SOL    HW1 1418   0.628   0.067   3.054 -1.2253 -0.4915 -1.3325
  473SOL    HW2 1419   0.664   0.152   2.911 -0.0799  0.7832  1.1370
  474SOL     OW 1420   1.719   3.030   2.385 -0.4878  0.4751  0.2940
  474SOL    HW1 1421   1.688   3.098   2.457 -0.3939  1.7728  1.0529
  474SOL    HW2 1422   1.650   3.015   2.310  1.5861  1.9364 -1.4006
  475SOL     OW 1423   1.580   2.373   0.288  0.2672  0.6081 -0.3674
  475SOL    HW1 1424   1.648   2.363   0.362  1.0771 -0.0763 -1.1199
  475SOL    HW2 1425   1.589   2.290   0.233 -1.3737  0.0832  1.2784
  476SOL     OW 1426   0.247   0.438   0.840 -0.3791  0.6092 -0.2390
  476SOL    HW1 1427   0.201   0.520   0.883 -1.3738  3.8249  0.9291
  476SOL    HW2 1428   0.266   0.369   0.913 -0.8028 -0.0239  1.1046
  477SOL     OW 1429   1.462   2.346   0.789 -0.7124 -0.2797  0.2451
  477SOL    HW1 1430   1.504   2.272   0.739 -0.6779 -0.5933  2.0125
  477SOL    HW2 1431   1.362   2.342   0.780  1.3608  1.8443  0.3775
  478SOL     OW 1432   0.322   2.307   2.359  0.1499 -0.2653  0.1181
  478SOL    HW1 1433   0.321   2.215   2.408 -2.2567  0.4570 -0.8633
  478SOL    HW2 1434   0.256   2.297   2.283 -0.0198 -1.7402  0.4730
  479SOL     OW 1435   2.399   0.709   0.913 -0.2977  0.2560  0.0652
  479SOL    HW1 1436   2.401   0.700   0.809  0.3170  1.1933 -6.3895
  479SOL    HW2 1437   2.469   0.653   0.963 -0.5144  0.1642  1.0872
  480SOL     OW 1438   2.992   2.890   0.250  0.3866 -0.2605 -0.7077
  480SOL    HW1 1439   3.012   2.951   0.328  0.2354  0.6200  0.2494
  480SOL    HW2 1440   3.054   2.902   0.168  3.9861  2.2227 -2.1614
  481SOL     OW 1441   2.624   2.739   1.286  0.1028 -0.0830  0.1433
  481SOL    HW1 1442   2.638   2.677   1.365 -0.9720  1.2216  1.7113
  481SOL    HW2 1443   2.688   2.822   1.295  0.5786  0.7821 -0.4261
  482SOL     OW 1444   1.336   2.252   2.917 -0.0938 -0.2979  0.0918
  482SOL    HW1 1445   1.302   2.162   2.876 -3.8472 -0.0337 -1.2168
  482SOL    HW2 1446   1.319   2.327   2.854 -0.0370 -3.1324 -0.6875
  483SOL     OW 1447   0.540   1.940   2.616  0.2785  0.4099  0.3458
  483SOL    HW1 1448   0.513   1.847   2.650  0.0579 -1.0380  0.1753
  483SOL    HW2 1449   0.637   1.960   2.644  3.7601 -0.1831  1.7647
  484SOL     OW 1450   1.005   0.952   1.222 -0.1231 -0.1449 -1.1782
  484SOL    HW1 1451   0.921   0.896   1.241  1.9205 -0.7219 -0.4044
  484SOL    HW2 1452   1.087   0.918   1.270  0.4397  4.5945  0.2209
  485SOL     OW 1453   2.529   0.707   0.228  0.0072  0.1495 -0.3992
  485SOL    HW1 1454   2.427   0.697   0.202 -1.9157  0.0124 -0.5341
  485SOL    HW2 1455   2.574   0.763   0.161 -1.7052 -2.0366  2.5832
  486SOL     OW 1456   1.712   0.156   1.244  0.5305 -0.0925 -0.5109
  486SOL    HW1 1457   1.674   0.097   1.321  0.3278 -0.4977 -1.7910
  486SOL    HW2 1458   1.803   0.197   1.268  0.4371  2.9827  0.2593
  487SOL     OW 1459   0.305   2.401   1.205 -0.1049 -0.2243  0.3774
  487SOL    HW1 1460   0.321   2.430   1.107  1.5729 -0.8572 -0.3874
  487SOL    HW2 1461   0.303   2.480   1.267 -0.3990 -0.4230 -2.9286
  488SOL     OW 1462   2.546   1.203   0.436  0.7551 -0.0745  0.3950
  488SOL    HW1 1463   2.523   1.198   0.334 -1.7220  0.1909  0.7153
  488SOL    HW2 1464   2.551   1.111   0.482 -2.9238 -0.2933 -1.1670
  489SOL     OW 1465   1.751   3.059   1.067  0.1141  0.0959  0.3275
  489SOL    HW1 1466   1.824   3.072   0.994 -1.2693 -0.6116  0.8034
  489SOL    HW2 1467   1.743   0.034   1.123  1.7048  0.5703 -0.0448
  490SOL     OW 1468   0.854   0.308   0.439 -0.3775 -0.4974 -0.4932
  490SOL    HW1 1469   0.754   0.324   0.433 -0.0844 -1.2325  1.3097
  490SOL    HW2 1470   0.897   0.386   0.389  2.2023 -0.1621 -2.0376
  491SOL     OW 1471   0.528   2.474   0.588  0.7337 -0.2039  0.0776
  491SOL    HW1 1472   0.572   2.429   0.508  0.5011  0.4902  1.4528
  491SOL    HW2 1473   0.497   2.570   0.571 -0.2470 -0.2045  0.2584
  492SOL     OW 1474   1.218   1.617   2.536 -0.1318 -0.4891  0.0782
  492SOL    HW1 1475   1.264   1.602   2.627  1.6533 -3.5328 -1.6482
  492SOL    HW2 1476   1.285   1.665   2.475 -0.1670  0.3139 -0.7252
  493SOL     OW 1477   0.014   2.740   0.947  0.0065  0.3519 -0.8580
  493SOL    HW1 1478   3.068   2.657   0.942 -2.1454  0.6568  0.3390
  493SOL    HW2 1479   0.067   2.747   1.035  2.1829 -0.7656 -0.5961
  494SOL     OW 1480   2.922   2.206   0.159  0.1833  0.0737 -0.3936
  494SOL    HW1 1481   2.888   2.303   0.194 -1.6550  7.1645  1.3340
  494SOL    HW2 1482   2.869   2.134   0.211 -0.9756 -0.9189  0.5950
  495SOL     OW 1483   2.644   1.865   2.948 -0.3899  0.1620  0.4806
  495SOL    HW1 1484   2.630   1.935   2.876  3.0756  0.7902  2.1272
  495SOL    HW2 1485   2.572   1.790   2.941  1.1408  0.2088  1.1997
  496SOL     OW 1486   2.747   0.198   1.656 -0.1523 -0.5335 -0.0567
  496SOL    HW1 1487   2.802   0.265   1.607 -1.8409 -0.8708 -0.3725
  496SOL    HW2 1488   2.652   0.237   1.669  0.8524 -0.5039 -0.4600
  497SOL     OW 1489   2.599   0.917   0.015  0.1004 -0.3370 -0.4959
  497SOL    HW1 1490   2.575   0.953   3.033 -2.0776 -0.2829 -0.9995
  497SOL    HW2 1491   2.689   0.867   0.017 -0.6741 -0.9674  0.8749
  498SOL     OW 1492   0.036   1.965   2.255 -0.2315 -0.6643 -0.1577
  498SOL    HW1 1493   3.069   2.028   2.235  1.6456 -0.2835  0.9803
  498SOL    HW2 1494   0.081   2.005   2.334  1.8129 -0.3482 -1.0039
  499SOL     OW 1495   0.926   2.165   2.875 -0.2472  0.8565  0.4174
  499SOL    HW1 1496   0.956   2.164   2.973  1.7816  1.6975  2.0104
  499SOL    HW2 1497   0.940   2.070   2.841 -0.7678  0.9158  1.4906
  500SOL     OW 1498   1.747   2.972   0.183 -0.1653 -0.1725 -0.1526
  500SOL    HW1 1499   1.787   2.995   0.096 -1.7730 -0.4572  0.8708
  500SOL    HW2 1500   1.702   3.052   0.226 -1.4660  1.2344 -0.5356
  501SOL     OW 1501   1.498   0.014   1.698 -0.2611 -0.3248  0.5216
  501SOL    HW1 1502   1.586   0.021   1.752  1.6721  0.8913  0.3855
  501SOL    HW2 1503   1.447   0.103   1.716  0.8865 -0.3163  1.8942
  502SOL     OW 1504   2.836   0.857   2.032  0.1707 -0.5283 -0.3204
  502SOL    HW1 1505   2.898   0.774   2.028 -1.4177 -1.2540 -1.9561
  502SOL    HW2 1506   2.790   0.871   2.125 -0.2936 -2.2610  0.7073
  503SOL     OW 1507   2.277   2.225   2.336  0.4334  0.1355 -0.6289
  503SOL    HW1 1508   2.229   2.306   2.297 -2.6555 -0.5089 -0.8573
  503SOL    HW2 1509   2.209   2.159   2.375  0.1882 -1.0885 -0.8376
  504SOL     OW 1510   1.550   0.787   1.717  0.0905 -0.1859  0.4449
  504SOL    HW1 1511   1.601   0.871   1.688 -1.0973 -1.3138 -0.7991
  504SOL    HW2 1512   1.615   0.714   1.738 -1.1869 -0.3937  0.9662
  505SOL     OW 1513   0.737   0.935   1.512  0.0872 -0.0990  0.8520
  505SOL    HW1 1514   0.779   0.899   1.427  0.3866  1.0820 -1.7783
  505SOL    HW2 1515   0.769   0.889   1.596 -0.8666  0.7244 -0.5954
  506SOL     OW 1516   0.347   0.812   2.389  0.1265 -0.2135  0.1204
  506SOL    HW1 1517   0.320   0.813   2.290  2.0823  0.2165  0.1564
  506SOL    HW2 1518   0.389   0.720   2.408  2.0946  1.7759  2.1432
  507SOL     OW 1519   0.303   3.039   3.103 -0.1718  0.4060 -0.0278
  507SOL    HW1 1520   0.361   2.978   3.045 -0.4649 -0.7286 -0.1275
  507SOL    HW2 1521   0.241   3.095   3.042 -0.1518 -0.1349 -0.5718
  508SOL     OW 1522   1.271   0.790   1.716  0.7810 -0.2831  0.0736
  508SOL    HW1 1523   1.370   0.791   1.721 -1.1968 -1.6734 -1.1140
  508SOL    HW2 1524   1.234   0.877   1.683  0.5479  0.3988  0.0368
  509SOL     OW 1525   1.157   2.003   1.347 -0.3700 -0.5151  0.4739
  509SOL    HW1 1526   1.199   1.910   1.350  2.4440  0.8622 -1.8068
  509SOL    HW2 1527   1.225   2.075   1.379 -0.8943 -0.3812  1.2100
  510SOL     OW 1528   2.416   1.305   2.250  0.2745  0.5226  0.2451
  510SOL    HW1 1529   2.412   1.224   2.315 -1.9363  0.8285  0.4366
  510SOL    HW2 1530   2.511   1.335   2.239 -0.8097  0.6889 -0.5789
  511SOL     OW 1531   0.770   2.035   1.080 -0.1882 -0.6425  0.3824
  511SOL    HW1 1532   0.695   2.089   1.037  0.2014 -1.4080 -0.2097
  511SOL    HW2 1533   0.740   1.945   1.115  0.7462  3.1520 -0.8049
  512SOL     OW 1534   2.465   2.222   0.455 -0.0078  0.3297  0.2735
  512SOL    HW1 1535   2.399   2.215   0.380  0.1940  2.4056  0.9892
  512SOL    HW2 1536   2.454   2.143   0.511 -3.2083  1.8078 -3.2984
  513SOL     OW 1537   3.011   1.814   2.566 -0.3883  0.4986  0.2769
  513SOL    HW1 1538   3.031   1.767   2.478 -0.5491 -0.2776 -0.5816
  513SOL    HW2 1539   3.043   1.752   2.640 -0.6846  0.2547 -1.6260
  514SOL     OW 1540   0.053   2.736   2.451 -0.5174  0.4160 -0.4483
  514SOL    HW1 1541   0.051   2.630   2.466 -3.1990 -3.8574  1.8160
  514SOL    HW2 1542   0.027   2.761   2.358  1.7553 -0.4708  1.3836
  515SOL     OW 1543   2.144   1.225   1.451  0.2481  0.2597 -0.3898
  515SOL    HW1 1544   2.132   1.222   1.351 -0.5894 -1.7631  2.9621
  515SOL    HW2 1545   2.198   1.304   1.486 -2.4498 -1.0332 -1.3983
  516SOL     OW 1546   2.571   2.268   3.052  0.7710 -0.4732 -0.4698
  516SOL    HW1 1547   2.648   2.296   2.988  0.4819  0.2719 -0.7474
  516SOL    HW2 1548   2.590   2.178   3.097 -0.0390 -1.0255 -3.8555
  517SOL     OW 1549   1.376   0.876   0.010  0.0618  0.0904  0.0499
  517SOL    HW1 1550   1.469   0.859   3.082  0.9908  0.3104  0.0466
  517SOL    HW2 1551   1.317   0.794   0.013 -1.3315 -0.4385  0.7777
  518SOL     OW 1552   2.996   0.005   2.400 -0.3115 -0.0582 -0.0813
  518SOL    HW1 1553   3.033   0.087   2.354  0.2110  1.5948 -2.5322
  518SOL    HW2 1554   3.061   3.081   2.473  0.8820  1.1834 -3.5368
  519SOL     OW 1555   1.418   1.763   2.309  0.4415 -0.2183 -0.1709
  519SOL    HW1 1556   1.409   1.716   2.215  1.6914  1.0158 -1.7928
  519SOL    HW2 1557   1.342   1.831   2.322  0.7926  1.9359 -0.8648
  520SOL     OW 1558   3.063   2.908   2.618  0.5319 -0.0967 -1.1712
  520SOL    HW1 1559   3.098   2.830   2.556  0.5028 -0.9298 -0.1976
  520SOL    HW2 1560   2.965   2.894   2.647 -2.8576 -1.4500 -1.7120
  521SOL     OW 1561   0.220   1.661   2.051 -0.0703 -0.1398  0.1511
  521SOL    HW1 1562   0.270   1.644   2.141  0.8623 -0.8284  1.6851
  521SOL    HW2 1563   0.164   1.581   2.029 -0.8151  1.1337  0.6690
  522SOL     OW 1564   0.701   2.767   1.881  0.0063  0.0343  0.9629
  522SOL    HW1 1565   0.714   2.834   1.802  0.0618 -2.1671  0.0055
  522SOL    HW2 1566   0.735   2.808   1.965  0.0795 -2.9886 -1.0094
  523SOL     OW 1567   0.326   2.623   1.347 -0.0055 -0.4614  0.2883
  523SOL    HW1 1568   0.301   2.630   1.448 -0.6651  0.1321 -0.0823
  523SOL    HW2 1569   0.411   2.672   1.329 -1.4856 -1.9951 -0.8205
  524SOL     OW 1570   1.541   2.545   0.618 -0.1271  0.4236  0.4780
  524SOL    HW1 1571   1.481   2.520   0.538  0.1365 -0.7878 -1.8555
  524SOL    HW2 1572   1.517   2.475   0.686  1.9803  0.7718 -1.4785
  525SOL     OW 1573   2.453   1.046   1.004 -0.5503 -0.1745 -0.2522
  525SOL    HW1 1574   2.423   1.113   1.082  0.9855 -0.6239  1.2530
  525SOL    HW2 1575   2.392   0.962   1.012 -1.0960  0.3951 -0.2494
  526SOL     OW 1576   0.941   2.193   0.609 -0.4990 -0.6195 -0.0231
  526SOL    HW1 1577   0.917   2.225   0.513 -3.9941  1.0029  2.2919
  526SOL    HW2 1578   0.990   2.106   0.612 -0.4212  0.8671  1.5977
  527SOL     OW 1579   2.658   2.230   0.784  0.7225 -0.0825  0.5839
  527SOL    HW1 1580   2.688   2.178   0.700  1.5698  0.4473  0.7699
  527SOL    HW2 1581   2.555   2.235   0.790 -1.7930 -1.1278 -1.7984
  528SOL     OW 1582   2.135   0.404   3.094 -0.4237 -0.6145 -0.6517
  528SOL    HW1 1583   2.215   0.458   3.064  1.6616 -1.8050  0.3979
  528SOL    HW2 1584   2.169   0.320   0.026  1.8980  1.6646 -0.8873
  529SOL     OW 1585   1.062   1.156   1.907  0.4243 -0.6006 -0.0003
  529SOL    HW1 1586   1.058   1.220   1.986  2.7284 -3.4846 -0.4733
  529SOL    HW2 1587   1.021   1.182   1.816  0.2216  0.4928  0.4957
  530SOL     OW 1588   2.629   1.028   2.665 -0.0534 -0.2347 -0.1572
  530SOL    HW1 1589   2.719   1.081   2.650  0.0804  1.3302  1.0055
  530SOL    HW2 1590   2.639   0.931   2.626 -0.7238 -2.0544 -0.4302
  531SOL     OW 1591   1.098   0.961   0.061 -0.1646  0.0833 -0.3249
  531SOL    HW1 1592   1.184   0.958   0.008 -1.6550 -0.3935  1.6079
  531SOL    HW2 1593   1.108   0.941   0.160 -2.0782  0.5804 -0.0391
  532SOL     OW 1594   1.990   0.630   0.666 -0.5271  0.2418  0.0570
  532SOL    HW1 1595   2.014   0.569   0.746 -1.2377 -1.6006  1.2069
  532SOL    HW2 1596   2.031   0.592   0.579 -0.1829 -4.0784 -1.8905
  533SOL     OW 1597   0.498   0.926   1.985 -0.8370  0.5216  0.2092
  533SOL    HW1 1598   0.455   0.873   2.064  0.3141 -2.9911  1.0603
  533SOL    HW2 1599   0.598   0.952   2.009 -2.4435  0.8059 -1.1575
  534SOL     OW 1600   1.517   3.061   2.696  0.4805  0.4135 -0.8937
  534SOL    HW1 1601   1.563   0.033   2.736 -4.4167 -0.7305  0.8592
  534SOL    HW2 1602   1.484   3.002   2.775 -1.1073 -2.0461  2.4640
  535SOL     OW 1603   0.833   0.088   0.263 -0.6999  0.3349 -0.4168
  535SOL    HW1 1604   0.839   0.142   0.356 -2.0362  6.0664  6.1651
  535SOL    HW2 1605   0.912   0.022   0.252  1.4699  1.4896  0.0331
  536SOL     OW 1606   1.210   2.926   1.242  1.2038 -0.1360  0.6126
  536SOL    HW1 1607   1.279   2.993   1.272 -1.1950 -4.7763  0.3419
  536SOL    HW2 1608   1.246   2.867   1.164  2.3902  0.8746 -2.0426
  537SOL     OW 1609   1.670   2.892   1.904  0.3975 -0.3486  0.2881
  537SOL    HW1 1610   1.716   2.818   1.945  0.4997 -0.2240  1.4342
  537SOL    HW2 1611   1.706   2.903   1.812 -0.4669  1.9302  0.5917
  538SOL     OW 1612   0.315   2.700   2.739  0.1942  0.0882  0.3027
  538SOL    HW1 1613   0.405   2.677   2.777 -0.7587  1.5055 -2.1457
  538SOL    HW2 1614   0.318   2.684   2.636  0.3123 -0.5837 -0.4738
  539SOL     OW 1615   2.964   1.635   1.786  0.4120 -0.4874 -0.4499
  539SOL    HW1 1616   2.984   1.732   1.757  0.5235 -0.1008  0.9062
  539SOL    HW2 1617   2.952   1.612   1.885 -0.7362 -1.3974  1.6914
  540SOL     OW 1618   2.508   2.419   2.143 -0.1316 -0.0137  0.0979
  540SOL    HW1 1619   2.425   2.442   2.194  2.5472 -1.7645  1.2583
  540SOL    HW2 1620   2.484   2.377   2.054  0.3549 -3.6591  2.3709
  541SOL     OW 1621   0.216   2.924   1.617 -0.7446  0.4715 -0.0227
  541SOL    HW1 1622   0.226   3.000   1.684 -1.6017 -0.2289  1.6677
  541SOL    HW2 1623   0.304   2.902   1.576 -2.4550  0.9552 -0.3603
  542SOL     OW 1624   3.014   0.645   2.052  0.2137 -0.5381  0.2427
  542SOL    HW1 1625   3.102   0.681   2.010  2.8170  0.4494 -1.0279
  542SOL    HW2 1626   2.971   0.571   2.000 -0.7360  0.3009  0.4978
  543SOL     OW 1627   0.748   0.421   1.002 -0.6305  0.1466  0.4997
  543SOL    HW1 1628   0.752   0.328   1.040  0.1046  3.0295 -0.8135
  543SOL    HW2 1629   0.842   0.445   0.970 -2.7539  1.6412  0.8486
  544SOL     OW 1630   2.069   2.149   1.273  0.9726 -0.3832 -0.6111
  544SOL    HW1 1631   2.031   2.059   1.301  1.5662 -0.1473  1.6527
  544SOL    HW2 1632   1.999   2.216   1.248  0.5717  1.3276  0.2236
  545SOL     OW 1633   1.169   1.545   0.770  0.2286 -0.3734 -0.0462
  545SOL    HW1 1634   1.262   1.585   0.740  2.0228 -0.8485 -0.2578
  545SOL    HW2 1635   1.181   1.472   0.840  1.1516 -1.7551 -0.6829
  546SOL     OW 1636   2.780   0.371   2.280  0.0984 -0.7816 -0.0759
  546SOL    HW1 1637   2.733   0.413   2.203  0.9816 -0.9775  1.1174
  546SOL    HW2 1638   2.848   0.439   2.319 -1.9588 -0.2175  1.4375
  547SOL     OW 1639   2.916   0.531   2.957 -0.1816 -0.5908  0.2085
  547SOL    HW1 1640   2.882   0.508   2.865  0.1226  1.3836 -2.8187
  547SOL    HW2 1641   3.003   0.576   2.935 -2.9533 -0.7910 -3.1964
  548SOL     OW 1642   2.596   2.096   2.793  0.4593 -0.0363 -0.6851
  548SOL    HW1 1643   2.664   2.167   2.810 -2.1209 -2.5752 -0.0587
  548SOL    HW2 1644   2.607   2.057   2.699 -0.3203  0.3812 -1.2355
  549SOL     OW 1645   2.325   0.380   0.803  0.6297 -0.0802  0.0528
  549SOL    HW1 1646   2.269   0.462   0.822  5.1080 -0.7504  1.1005
  549SOL    HW2 1647   2.408   0.388   0.863  1.9481  0.2121 -0.2916
  550SOL     OW 1648   2.421   1.388   0.618 -0.6582  0.4627  0.8545
  550SOL    HW1 1649   2.355   1.427   0.552  2.3058 -0.5447  1.4715
  550SOL    HW2 1650   2.489   1.331   0.564  1.6921 -1.1652 -0.7961
  551SOL     OW 1651   1.446   2.612   1.616 -0.2034 -0.2259  0.7471
  551SOL    HW1 1652   1.378   2.557   1.667  3.6883 -0.0839 -1.2078
  551SOL    HW2 1653   1.451   2.706   1.651 -0.0264 -2.7043 -1.0684
  552SOL     OW 1654   2.429   2.375   2.502 -0.5566  0.2076 -0.1081
  552SOL    HW1 1655   2.402   2.299   2.441 -0.1214  0.3495  0.6125
  552SOL    HW2 1656   2.350   2.408   2.550  1.4305 -1.8646  0.8868
  553SOL     OW 1657   0.787   2.719   0.599 -0.3080 -0.0873  0.3324
  553SOL    HW1 1658   0.807   2.706   0.697  2.3206  2.9343 -0.2950
  553SOL    HW2 1659   0.686   2.729   0.591  1.7401 -0.6992  0.7041
  554SOL     OW 1660   2.015   2.567   1.572 -0.6562 -0.0207 -0.1324
  554SOL    HW1 1661   1.966   2.481   1.546 -2.0053 -0.2643 -0.8779
  554SOL    HW2 1662   2.034   2.624   1.490 -0.0093 -1.7468 -1.3337
  555SOL     OW 1663   1.797   2.369   2.075  0.1021  0.2355  0.0600
  555SOL    HW1 1664   1.893   2.346   2.070  0.7993  1.2036  0.2242
  555SOL    HW2 1665   1.787   2.469   2.065 -0.9239  0.2555  1.6169
  556SOL     OW 1666   1.269   0.373   0.778 -0.5805 -0.2778 -0.7292
  556SOL    HW1 1667   1.180   0.422   0.777 -3.4484  0.2525 -0.5251
  556SOL    HW2 1668   1.342   0.442   0.760 -0.5981 -0.4000 -0.8918
  557SOL     OW 1669   0.999   2.032   1.639  0.1997  0.1689  0.1128
  557SOL    HW1 1670   1.062   2.048   1.571 -1.9817 -1.9487  1.5178
  557SOL    HW2 1671   0.940   2.113   1.662 -2.9550  1.2764 -0.9190
  558SOL     OW 1672   2.755   1.375   2.484  0.1697  0.1357  0.0950
  558SOL    HW1 1673   2.741   1.476   2.479  0.3537 -0.1278  0.7138
  558SOL    HW2 1674   2.802   1.351   2.569  0.3679  0.0700  2.5321
  559SOL     OW 1675   2.194   2.459   2.198  0.5124 -0.0030 -0.0853
  559SOL    HW1 1676   2.163   2.429   2.108 -0.5142  0.9210 -0.4240
  559SOL    HW2 1677   2.203   2.558   2.202  3.0089 -0.3697  0.6590
  560SOL     OW 1678   0.497   0.304   2.385  0.1459 -0.2748  0.1224
  560SOL    HW1 1679   0.595   0.298   2.370 -1.0346  0.0890  2.7135
  560SOL    HW2 1680   0.477   0.250   2.469  0.5220  1.4061  2.8081
  561SOL     OW 1681   1.208   0.397   0.417 -0.8419 -0.0232 -0.9970
  561SOL    HW1 1682   1.291   0.454   0.403  0.7222 -1.1728 -1.5318
  561SOL    HW2 1683   1.239   0.300   0.417  0.5761  1.7880 -0.5605
  562SOL     OW 1684   0.795   1.306   1.861  0.2296 -0.2256 -0.0779
  562SOL    HW1 1685   0.715   1.371   1.878 -1.7746 -1.3784 -1.8034
  562SOL    HW2 1686   0.872   1.363   1.826  0.2324  2.0996  0.2755
  563SOL     OW 1687   1.959   2.186   0.190 -0.0203 -0.2151 -0.1009
  563SOL    HW1 1688   2.030   2.180   0.124 -1.1456 -2.4847  0.5460
  563SOL    HW2 1689   1.993   2.178   0.283 -2.4098 -1.7674 -2.2572
  564SOL     OW 1690   2.841   2.319   0.534 -0.0676  0.0365  0.2953
  564SOL    HW1 1691   2.804   2.397   0.582 -0.0874 -2.9807 -4.3371
  564SOL    HW2 1692   2.784   2.231   0.552  1.5564 -2.5438  0.9393
  565SOL     OW 1693   0.438   0.154   2.599  0.1384 -0.1579  0.4393
  565SOL    HW1 1694   0.422   0.173   2.699 -3.0943  1.5970 -3.9027
  565SOL    HW2 1695   0.491   0.069   2.590 -2.3360 -1.5330  0.2387
  566SOL     OW 1696   1.466   2.825   2.562 -0.0600  0.0529  0.2854
  566SOL    HW1 1697   1.539   2.753   2.567  0.6079  0.4171 -1.9266
  566SOL    HW2 1698   1.493   2.917   2.587 -0.7923 -0.7101 -0.0022
  567SOL     OW 1699   1.928   1.913   1.314  0.3131  0.0815  0.2409
  567SOL    HW1 1700   1.968   1.840   1.253 -1.7264  0.3202  0.3238
  567SOL    HW2 1701   1.838   1.945   1.274 -0.3272  2.0407 -1.6924
  568SOL     OW 1702   2.064   0.821   2.891  0.5451  0.4638 -0.4672
  568SOL    HW1 1703   1.998   0.743   2.904 -1.3245 -1.5276 -1.9197
  568SOL    HW2 1704   2.129   0.828   2.968  1.3599  1.0569  0.1000
  569SOL     OW 1705   2.212   1.977   2.061 -0.6371 -0.1324  0.3394
  569SOL    HW1 1706   2.301   1.922   2.041 -0.3660  1.6134  1.0591
  569SOL    HW2 1707   2.187   1.964   2.159  0.4423 -3.4148  0.8994
  570SOL     OW 1708   2.888   2.937   1.902 -0.5244 -0.4966  0.0230
  570SOL    HW1 1709   2.887   2.980   1.995  0.1964 -1.8015  0.0057
  570SOL    HW2 1710   2.962   2.863   1.895  1.4468 -1.7173 -1.1046
  571SOL     OW 1711   0.130   0.845   1.195  0.4975 -0.7950 -0.2459
  571SOL    HW1 1712   0.197   0.886   1.128  0.7384  3.2826 -3.9825
  571SOL    HW2 1713   0.154   0.879   1.294  3.1021 -0.5881 -0.6486
  572SOL     OW 1714   0.115   1.577   1.161  0.6400  0.5088  0.7535
  572SOL    HW1 1715   0.030   1.528   1.187  3.4250  2.5687 -0.4907
  572SOL    HW2 1716   0.156   1.547   1.069 -0.0627 -0.7027 -0.4063
  573SOL     OW 1717   0.876   0.576   0.331  0.3757 -0.3753 -0.3995
  573SOL    HW1 1718   0.792   0.627   0.326  1.5792 -2.1159 -0.4107
  573SOL    HW2 1719   0.944   0.623   0.393  0.5147  3.6640  2.6294
  574SOL     OW 1720   0.449   0.275   0.087  0.5867  0.1279  0.1269
  574SOL    HW1 1721   0.515   0.338   0.041 -3.0590 -1.2089 -0.9256
  574SOL    HW2 1722   0.476   0.179   0.072  2.3478  0.3393 -1.3259
  575SOL     OW 1723   0.835   2.308   0.863 -0.2135 -0.1085  0.2542
  575SOL    HW1 1724   0.877   2.255   0.786  1.6360 -1.4618 -2.2111
  575SOL    HW2 1725   0.861   2.261   0.950 -1.3603  1.1817  0.6366
  576SOL     OW 1726   3.048   2.886   1.295 -0.1677 -0.1471  0.4344
  576SOL    HW1 1727   2.952   2.888   1.271  2.5478 -0.7385 -2.3738
  576SOL    HW2 1728   3.064   2.861   1.393  1.6639  0.0388  0.5461
  577SOL     OW 1729   2.805   1.930   2.004  0.4091 -0.3104 -0.4248
  577SOL    HW1 1730   2.750   1.991   2.067 -0.1932 -0.0555 -1.3037
  577SOL    HW2 1731   2.869   1.977   1.944 -0.7420  0.3085 -0.6894
  578SOL     OW 1732   1.126   3.012   2.467 -0.3617  0.1689 -0.3527
  578SOL    HW1 1733   1.138   2.921   2.424  0.0228  1.2944  0.8965
  578SOL    HW2 1734   1.139   3.009   2.567 -2.3204  0.3740  0.1408
  579SOL     OW 1735   1.904   1.749   2.074  0.2553  0.2779 -0.3053
  579SOL    HW1 1736   1.880   1.837   2.025  4.1088 -0.2661  2.9840
  579SOL    HW2 1737   1.952   1.695   2.000 -2.6414 -0.5656 -1.9225
  580SOL     OW 1738   1.500   0.745   2.249  0.1211 -0.3790  0.5515
  580SOL    HW1 1739   1.461   0.761   2.155  1.2796  1.0981  2.7812
  580SOL    HW2 1740   1.598   0.724   2.240 -0.8452  2.9047  2.0444
  581SOL     OW 1741   0.885   1.449   2.259 -0.3242 -0.2503  0.2345
  581SOL    HW1 1742   0.949   1.523   2.293  2.6929  0.1349  1.3447
  581SOL    HW2 1743   0.854   1.392   2.336  1.5209  1.5716  1.7239
  582SOL     OW 1744   0.187   2.650   1.807  0.0135 -0.5527 -0.2244
  582SOL    HW1 1745   0.198   2.611   1.901 -1.8313  2.3901  0.2721
  582SOL    HW2 1746   0.279   2.685   1.780  1.6376 -3.0094 -0.7896
  583SOL     OW 1747   1.325   1.252   1.333 -0.0570 -0.2215 -0.0801
  583SOL    HW1 1748   1.358   1.251   1.430  1.4488 -0.5657 -0.8905
  583SOL    HW2 1749   1.270   1.333   1.310  0.1010  1.3798 -1.5867
  584SOL     OW 1750   1.457   1.947   2.600  0.1351  0.2098  0.0942
  584SOL    HW1 1751   1.470   1.858   2.555 -1.6276 -0.0147 -0.3002
  584SOL    HW2 1752   1.526   1.972   2.666 -2.1366  2.9774 -1.3179
  585SOL     OW 1753   0.298   2.519   0.217  0.0535 -0.1137 -0.0085
  585SOL    HW1 1754   0.269   2.512   0.118  0.6234  0.1979 -0.4674
  585SOL    HW2 1755   0.254   2.453   0.280 -0.4577  2.8135 -0.2774
  586SOL     OW 1756   2.050   1.960   0.627 -0.5358  0.8966 -0.4640
  586SOL    HW1 1757   1.962   1.910   0.631 -0.5288 -2.7876 -0.9278
  586SOL    HW2 1758   2.090   1.962   0.726  1.0248  0.8004  4.5217
  587SOL     OW 1759   2.736   2.084   0.584 -0.1425 -0.6027 -0.5725
  587SOL    HW1 1760   2.810   2.026   0.617  1.1700  0.7970  1.2488
  587SOL    HW2 1761   2.711   2.061   0.488 -0.4209  0.8547 -0.3951
  588SOL     OW 1762   2.360   0.191   1.176  0.3743 -0.0104 -0.4438
  588SOL    HW1 1763   2.406   0.210   1.263 -3.9014  0.3916 -0.8519
  588SOL    HW2 1764   2.287   0.264   1.167 -0.1557  3.0824  0.0611
  589SOL     OW 1765   0.610   0.636   0.926 -0.1380 -0.2029  1.0134
  589SOL    HW1 1766   0.670   0.557   0.950 -2.5227  0.5517 -1.4050
  589SOL    HW2 1767   0.632   0.676   0.836 -0.3974  1.1597  1.7888
  590SOL     OW 1768   2.678   2.495   0.076 -0.1965 -0.0924 -0.7700
  590SOL    HW1 1769   2.612   2.424   0.047 -0.4635  1.7254 -0.6189
  590SOL    HW2 1770   2.740   2.466   0.156 -1.3712 -1.1088 -0.8612
  591SOL     OW 1771   0.502   2.246   1.838 -0.3815 -0.2536 -0.6806
  591SOL    HW1 1772   0.580   2.192   1.803 -1.1435 -0.6636  0.6162
  591SOL    HW2 1773   0.470   2.318   1.770  1.0473  1.8755 -2.5225
  592SOL     OW 1774   0.657   1.463   1.483 -0.1646 -0.2107  0.2405
  592SOL    HW1 1775   0.754   1.432   1.466  1.0848 -1.2144  1.9946
  592SOL    HW2 1776   0.594   1.387   1.458  0.2978 -0.7440  2.1018
  593SOL     OW 1777   0.979   2.143   1.190  0.3225 -0.2416 -0.7246
  593SOL    HW1 1778   1.048   2.099   1.251  0.1325 -0.3811  1.3447
  593SOL    HW2 1779   0.914   2.081   1.142  0.6420 -0.3568 -1.9305
  594SOL     OW 1780   0.889   1.346   2.744 -0.2819  0.1143  0.7005
  594SOL    HW1 1781   0.953   1.289   2.798  2.0564  0.3222  0.3127
  594SOL    HW2 1782   0.941   1.426   2.706 -0.9527 -1.1153  1.6503
  595SOL     OW 1783   1.292   0.651   1.042 -0.3600 -0.2767 -0.0050
  595SOL    HW1 1784   1.378   0.703   1.036  0.6118 -0.3142 -0.1542
  595SOL    HW2 1785   1.254   0.645   1.136  0.2495 -2.5642 -0.6338
  596SOL     OW 1786   0.338   1.310   0.883  0.0660  0.0436  0.0942
  596SOL    HW1 1787   0.439   1.306   0.891  0.5351 -0.1910 -2.0916
  596SOL    HW2 1788   0.306   1.280   0.791  0.8139  0.2745  1.8944
  597SOL     OW 1789   0.205   1.993   2.930  0.0634 -0.0097  0.3673
  597SOL    HW1 1790   0.120   2.044   2.906 -0.7251 -0.6545  2.0192
  597SOL    HW2 1791   0.268   2.043   2.990  0.9870  0.8169  1.0755
  598SOL     OW 1792   2.033   2.116   2.434 -0.2520  0.3271  0.2736
  598SOL    HW1 1793   1.992   2.197   2.386 -0.0728 -1.0891 -1.5992
  598SOL    HW2 1794   2.000   2.034   2.379 -1.9693 -1.0318 -0.2715
  599SOL     OW 1795   1.605   0.286   0.710  0.2664  0.3021  0.1357
  599SOL    HW1 1796   1.595   0.377   0.658  1.4904  2.8465 -0.7358
  599SOL    HW2 1797   1.521   0.241   0.741  1.0867 -0.5504  2.1616
  600SOL     OW 1798   0.945   2.746   0.367 -0.2271 -0.9196  0.5460
  600SOL    HW1 1799   0.891   2.744   0.454  0.1844  0.1491 -1.6629
  600SOL    HW2 1800   1.041   2.714   0.386  2.0432  2.0555 -1.1184
  601SOL     OW 1801   0.727   0.147   1.196 -0.1687 -0.3513  0.5263
  601SOL    HW1 1802   0.740   0.081   1.273  4.0638  0.1474  2.4673
  601SOL    HW2 1803   0.811   0.199   1.174 -2.5330 -0.1143 -0.2741
  602SOL     OW 1804   3.057   3.001   0.499 -0.0304  0.3815  0.4160
  602SOL    HW1 1805   3.058   2.935   0.578  2.1318 -2.6928 -1.4854
  602SOL    HW2 1806   2.980   3.067   0.508  0.8939 -0.0049  0.6511
  603SOL     OW 1807   0.861   2.716   2.532 -0.1110 -0.0770  0.2031
  603SOL    HW1 1808   0.811   2.794   2.493  1.0497 -0.7669 -1.1132
  603SOL    HW2 1809   0.794   2.645   2.558 -1.6241  0.3755  0.1087
  604SOL     OW 1810   0.969   2.478   2.913 -0.0076 -0.0890  0.2840
  604SOL    HW1 1811   0.957   2.377   2.910  0.8879  2.3428  0.1546
  604SOL    HW2 1812   0.982   2.520   2.820  0.2470  0.4332  1.7845
  605SOL     OW 1813   0.790   0.768   1.728 -0.3129 -0.0229  0.3957
  605SOL    HW1 1814   0.839   0.679   1.707  0.2887  0.1961 -1.0287
  605SOL    HW2 1815   0.820   0.799   1.819 -0.1341 -4.3779 -1.7095
  606SOL     OW 1816   1.475   0.477   2.717 -0.2370  0.3759 -0.0139
  606SOL    HW1 1817   1.496   0.565   2.762  0.1474 -0.1978  0.1433
  606SOL    HW2 1818   1.473   0.398   2.787 -0.9288 -1.9526  1.5215
  607SOL     OW 1819   0.206   1.204   1.089 -0.1670  0.1232 -0.5512
  607SOL    HW1 1820   0.253   1.229   1.177  0.3372 -1.1518  2.5455
  607SOL    HW2 1821   0.257   1.241   1.007 -1.5415  2.5823 -1.5795
  608SOL     OW 1822   3.074   2.531   2.227  0.2487 -0.1948 -0.5358
  608SOL    HW1 1823   2.999   2.604   2.241  1.5413  2.0593 -0.1480
  608SOL    HW2 1824   3.093   2.493   2.320  0.6816  1.9754  0.5262
  609SOL     OW 1825   1.760   0.327   0.123 -0.5698  0.2686 -0.5200
  609SOL    HW1 1826   1.824   0.267   0.069 -2.9606  0.0473 -1.6294
  609SOL    HW2 1827   1.689   0.377   0.066  0.8676 -0.1335 -0.6289
  610SOL     OW 1828   0.914   2.708   1.103 -0.3169  0.4713 -0.4611
  610SOL    HW1 1829   0.900   2.798   1.057  0.5408  1.6237  1.1335
  610SOL    HW2 1830   1.012   2.678   1.086 -0.4337  0.8888 -0.1526
  611SOL     OW 1831   0.780   1.089   0.379  0.4482  0.2284  0.0039
  611SOL    HW1 1832   0.706   1.028   0.411  1.1733 -1.8693 -2.6721
  611SOL    HW2 1833   0.779   1.107   0.279 -0.8750  3.4643  0.4538
  612SOL     OW 1834   1.060   0.605   2.416 -0.0919  0.1447  0.0735
  612SOL    HW1 1835   0.984   0.537   2.409  0.4365  0.3811 -0.3322
  612SOL    HW2 1836   1.079   0.626   2.513 -1.3377  2.5893 -2.7085
  613SOL     OW 1837   2.259   0.903   0.588 -0.0631 -0.3739  0.1354
  613SOL    HW1 1838   2.167   0.922   0.634  0.7506  1.8786  0.8470
  613SOL    HW2 1839   2.271   0.964   0.501 -1.4079  0.8987 -3.6113
  614SOL     OW 1840   1.656   0.389   1.856  0.3399 -0.2691 -0.0641
  614SOL    HW1 1841   1.571   0.423   1.908 -1.3643 -0.1699 -0.5853
  614SOL    HW2 1842   1.724   0.377   1.925 -3.3756  1.7765 -3.2746
  615SOL     OW 1843   0.548   2.144   1.003  0.0486  0.2164  0.0522
  615SOL    HW1 1844   0.519   2.057   0.952 -1.7848  0.9824 -0.0713
  615SOL    HW2 1845   0.522   2.225   0.953  1.8303 -1.3254  0.0693
  616SOL     OW 1846   1.653   1.078   2.424  0.3507  0.1615  0.6099
  616SOL    HW1 1847   1.667   1.178   2.424 -0.7784  1.8360 -1.5117
  616SOL    HW2 1848   1.733   1.032   2.477 -1.0989 -0.4488  1.3524
  617SOL     OW 1849   1.885   2.707   0.063  0.0265  0.0638  0.3576
  617SOL    HW1 1850   1.806   2.769   0.059  1.1925  2.3767  1.3004
  617SOL    HW2 1851   1.856   2.610   0.052 -1.3453  2.2417  0.3808
  618SOL     OW 1852   0.932   0.974   2.951 -0.2629  0.3466 -0.4429
  618SOL    HW1 1853   0.834   0.998   2.964 -1.0437  1.1274 -0.3604
  618SOL    HW2 1854   0.978   0.941   3.038  0.4190 -2.1176  0.5473
  619SOL     OW 1855   2.643   1.426   0.789  0.2048  0.1959 -0.5090
  619SOL    HW1 1856   2.685   1.338   0.828 -1.7706 -0.3060  1.6657
  619SOL    HW2 1857   2.550   1.406   0.756 -0.7017  1.4744  1.8994
  620SOL     OW 1858   2.502   2.875   2.915 -0.2852  0.1962 -0.6421
  620SOL    HW1 1859   2.464   2.826   2.834  0.6443 -0.1846  1.2532
  620SOL    HW2 1860   2.578   2.817   2.954  1.1270  2.6429  0.1080
  621SOL     OW 1861   2.241   1.016   0.328 -0.0380  0.1822 -0.4095
  621SOL    HW1 1862   2.187   1.014   0.242 -0.5975 -0.0930  1.5723
  621SOL    HW2 1863   2.190   1.078   0.387  1.0266 -1.1348  0.2705
  622SOL     OW 1864   1.116   2.348   2.483  0.1654  0.0677  0.0885
  622SOL    HW1 1865   1.104   2.404   2.568  1.6577 -0.2939  1.9211
  622SOL    HW2 1866   1.186   2.274   2.499  1.2319  0.9088  0.1340
  623SOL     OW 1867   0.459   1.768   2.998 -0.3796 -0.0806 -0.0534
  623SOL    HW1 1868   0.364   1.743   3.013  0.4156 -1.6872  0.6635
  623SOL    HW2 1869   0.482   1.852   3.051  0.1686  1.4233  1.5554
  624SOL     OW 1870   0.376   0.221   2.865 -0.1632 -0.0247  0.2491
  624SOL    HW1 1871   0.457   0.186   2.914  0.1293 -1.9460  0.0519
  624SOL    HW2 1872   0.304   0.158   2.889  0.3457 -0.7807  1.7478
  625SOL     OW 1873   0.859   1.699   0.106  0.6277 -0.0910 -0.3803
  625SOL    HW1 1874   0.835   1.800   0.108 -0.0633 -0.3822  0.5151
  625SOL    HW2 1875   0.775   1.642   0.117  1.9896 -0.8191  0.0222
  626SOL     OW 1876   2.446   0.166   0.233  0.2775 -0.1123 -0.0559
  626SOL    HW1 1877   2.533   0.134   0.197  0.1694  0.7028 -1.3824
  626SOL    HW2 1878   2.439   0.265   0.217 -0.8374 -0.7497  0.5847
  627SOL     OW 1879   1.314   1.073   2.852 -0.0711  0.7686  0.0653
  627SOL    HW1 1880   1.361   1.044   2.939  0.3341 -1.8206 -0.3966
  627SOL    HW2 1881   1.356   1.158   2.825 -0.0554 -2.1796 -1.1575
  628SOL     OW 1882   1.171   0.698   2.671 -0.1742  0.2294  0.4666
  628SOL    HW1 1883   1.161   0.631   2.748 -3.2752  2.6649  1.7735
  628SOL    HW2 1884   1.269   0.701   2.638  0.4333  0.9552 -1.6849
  629SOL     OW 1885   0.274   0.047   1.768 -0.4907  0.1674  0.0677
  629SOL    HW1 1886   0.297   0.034   1.864 -1.0962  3.2695  0.1267
  629SOL    HW2 1887   0.332   0.123   1.731 -2.0285  2.7311  0.1172
  630SOL     OW 1888   2.552   1.096   1.926 -0.1528 -0.1456 -0.2370
  630SOL    HW1 1889   2.562   1.069   2.026 -1.0606 -0.4851 -0.1975
  630SOL    HW2 1890   2.598   1.030   1.861  0.5572  0.3290 -0.4894
  631SOL     OW 1891   2.139   1.031   0.870 -0.6449 -0.7557  0.5930
  631SOL    HW1 1892   2.206   1.099   0.839  1.8630 -1.1338 -0.6064
  631SOL    HW2 1893   2.180   0.963   0.932  2.6402 -0.4174  0.1158
  632SOL     OW 1894   2.642   0.582   1.742  0.1094  0.4890  0.6512
  632SOL    HW1 1895   2.703   0.510   1.775  0.0516  2.6828 -1.3609
  632SOL    HW2 1896   2.659   0.605   1.642 -0.0039 -0.1707  0.2058
  633SOL     OW 1897   0.981   2.745   3.040 -0.1583  0.0505 -0.1061
  633SOL    HW1 1898   0.997   2.651   3.015 -2.2161 -0.9905 -2.5690
  633SOL    HW2 1899   0.927   2.746   0.017  2.3094 -2.4851 -2.3233
  634SOL     OW 1900   1.676   2.581   2.951 -0.7404 -0.3596 -0.0223
  634SOL    HW1 1901   1.645   2.586   3.053 -2.1289 -1.7673  3.3215
  634SOL    HW2 1902   1.731   2.660   2.919 -2.3351 -1.3720  0.4841
  635SOL     OW 1903   2.745   0.388   0.231  0.4128 -0.2702  0.6706
  635SOL    HW1 1904   2.729   0.389   0.129 -0.7175 -0.5981  0.1991
  635SOL    HW2 1905   2.658   0.388   0.284  0.0032 -2.4515 -0.6677
  636SOL     OW 1906   0.381   1.538   0.572 -0.2111  0.4406  0.0607
  636SOL    HW1 1907   0.470   1.552   0.622 -0.4197  1.4812 -0.6532
  636SOL    HW2 1908   0.343   1.445   0.593  0.4612 -1.2285 -0.0631
  637SOL     OW 1909   0.384   2.768   0.303  0.1740  0.2977  0.9377
  637SOL    HW1 1910   0.344   2.683   0.267  0.5992  2.2321  0.1230
  637SOL    HW2 1911   0.318   2.829   0.349 -1.5406  2.0596 -0.7568
  638SOL     OW 1912   3.016   2.633   0.311  0.7337  0.3490 -0.5185
  638SOL    HW1 1913   3.011   2.735   0.301  0.6472 -1.7749 -2.2760
  638SOL    HW2 1914   3.080   2.611   0.386  3.9506 -2.3204  0.4146
  639SOL     OW 1915   1.151   1.345   0.298 -0.0827  0.6869 -0.4224
  639SOL    HW1 1916   1.248   1.313   0.312 -2.7672  0.6622 -1.6611
  639SOL    HW2 1917   1.147   1.440   0.316  1.5188 -1.0083 -0.5274
  640SOL     OW 1918   1.455   2.348   1.062 -0.5218  0.1695 -0.4920
  640SOL    HW1 1919   1.535   2.411   1.092  1.9137  1.4702  0.5470
  640SOL    HW2 1920   1.444   2.335   0.960  0.0934 -1.2361 -0.9816
  641SOL     OW 1921   2.983   2.530   0.931 -0.0859 -0.5011  0.3895
  641SOL    HW1 1922   2.993   2.460   0.864  1.0758  3.1708 -0.1368
  641SOL    HW2 1923   2.889   2.516   0.968 -2.1328 -1.7638 -0.4056
  642SOL     OW 1924   0.645   0.014   1.941  0.0416 -0.0228 -0.6482
  642SOL    HW1 1925   0.665   3.076   1.856 -0.6165  2.9086  3.1557
  642SOL    HW2 1926   0.545   0.014   1.961  3.3088  2.8463  0.7203
  643SOL     OW 1927   0.813   2.198   2.442  0.3723  0.0257  0.3381
  643SOL    HW1 1928   0.912   2.217   2.433  1.8211 -0.9751  2.5009
  643SOL    HW2 1929   0.780   2.225   2.531 -2.7944  2.0582  0.4611
  644SOL     OW 1930   1.074   2.625   0.696  0.5295  0.5711 -0.2568
  644SOL    HW1 1931   1.095   2.536   0.656  2.0452 -0.7856 -0.9673
  644SOL    HW2 1932   0.985   2.622   0.746 -2.8696 -1.1359 -0.0388
  645SOL     OW 1933   1.298   1.412   2.101 -0.5693  0.1803  1.0390
  645SOL    HW1 1934   1.204   1.383   2.111 -0.9731  1.2272 -1.3084
  645SOL    HW2 1935   1.341   1.382   2.186 -1.2540  2.0880  1.3263
  646SOL     OW 1936   0.459   1.106   0.039 -0.0631  0.0352  0.1387
  646SOL    HW1 1937   0.391   1.137   3.077  1.0072  0.9631 -0.1565
  646SOL    HW2 1938   0.410   1.073   0.124 -1.5211  1.8043  2.1081
  647SOL     OW 1939   1.403   0.159   0.816 -0.6483 -0.5749 -0.0937
  647SOL    HW1 1940   1.332   0.236   0.801 -2.3064  1.1355 -2.1646
  647SOL    HW2 1941   1.360   0.068   0.796 -2.4984  1.2692  0.7726
  648SOL     OW 1942   2.593   2.799   1.571 -0.2484  0.0628  0.1564
  648SOL    HW1 1943   2.587   2.840   1.668 -0.8338  0.8586 -0.1302
  648SOL    HW2 1944   2.540   2.714   1.551 -0.5785 -1.6904 -1.2324
  649SOL     OW 1945   0.793   1.958   0.049  0.3446 -0.3487 -0.4705
  649SOL    HW1 1946   0.858   2.040   0.053  1.7376  0.4513  2.7153
  649SOL    HW2 1947   0.702   1.996   0.023  0.3566 -1.2852  0.3823
  650SOL     OW 1948   2.939   2.224   1.599  0.4327  0.0233 -0.5456
  650SOL    HW1 1949   2.931   2.296   1.526  2.9529  1.0688 -0.1044
  650SOL    HW2 1950   2.854   2.202   1.648 -2.8544 -0.3662  0.5581
  651SOL     OW 1951   0.161   0.029   2.916 -0.3405 -0.2139  0.7666
  651SOL    HW1 1952   0.149   3.045   2.881 -3.7408  0.0253 -0.7731
  651SOL    HW2 1953   0.077   0.081   2.930  1.1031 -1.7361 -1.4505
  652SOL     OW 1954   2.212   1.753   0.206 -0.1905 -0.6749 -0.1883
  652SOL    HW1 1955   2.252   1.804   0.127  1.8261 -1.3148  1.5625
  652SOL    HW2 1956   2.237   1.798   0.295 -0.8596 -0.6873 -2.5995
  653SOL     OW 1957   0.113   0.034   0.665  0.2081  0.0619 -0.5273
  653SOL    HW1 1958   0.175   3.070   0.695 -1.6623  0.6332  0.0047
  653SOL    HW2 1959   0.062   0.002   0.582  0.1943 -0.4845 -0.3319
  654SOL     OW 1960   1.268   2.993   0.162  0.3618 -0.4571 -0.2685
  654SOL    HW1 1961   1.299   2.934   0.239  0.9571 -0.6704 -0.6040
  654SOL    HW2 1962   1.326   3.076   0.157  2.0491  1.5701 -0.6080
  655SOL     OW 1963   0.835   2.778   1.340 -0.2382 -0.0062  0.2718
  655SOL    HW1 1964   0.886   2.742   1.258  0.8250 -0.5288 -0.6262
  655SOL    HW2 1965   0.887   2.759   1.427 -1.3096  0.9852  0.2418
  656SOL     OW 1966   0.317   0.253   2.204  0.2123  0.3083 -0.2868
  656SOL    HW1 1967   0.386   0.272   2.276  0.5553 -0.1796 -0.5143
  656SOL    HW2 1968   0.319   0.307   2.120 -0.9511 -0.6535  1.7614
  657SOL     OW 1969   1.794   0.571   2.446  0.2478 -0.0776  0.0093
  657SOL    HW1 1970   1.767   0.503   2.372  1.6228 -0.5655  3.2816
  657SOL    HW2 1971   1.883   0.614   2.418 -0.7571  1.6292  0.3402
  658SOL     OW 1972   2.016   1.666   1.205 -0.0914  0.1370  0.0954
  658SOL    HW1 1973   1.982   1.569   1.194 -2.4453 -2.3230 -1.7813
  658SOL    HW2 1974   2.109   1.664   1.249  0.1622 -1.3904 -3.2579
  659SOL     OW 1975   2.868   2.728   2.939 -0.1449 -0.1956  0.1288
  659SOL    HW1 1976   2.882   2.825   2.899  0.9523  0.5702  0.3161
  659SOL    HW2 1977   2.788   2.716   2.995  2.5935  2.2558 -1.3271
  660SOL     OW 1978   1.220   0.660   0.078 -0.3623 -0.1535  0.2579
  660SOL    HW1 1979   1.234   0.557   0.084 -1.2799  0.9042 -0.0747
  660SOL    HW2 1980   1.205   0.699   0.167 -0.6364 -2.0919 -0.2030
  661SOL     OW 1981   2.292   2.703   0.946  0.3948 -0.6884  0.8931
  661SOL    HW1 1982   2.326   2.736   0.854 -0.6823  0.9358 -1.0060
  661SOL    HW2 1983   2.308   2.604   0.958 -2.3280  2.2409 -0.6075
  662SOL     OW 1984   0.619   0.484   0.601 -1.0116  0.5499 -0.3363
  662SOL    HW1 1985   0.523   0.517   0.614 -1.0855  0.9132 -0.9052
  662SOL    HW2 1986   0.625   0.428   0.512  1.7087  0.9687  1.5262
  663SOL     OW 1987   1.569   2.384   2.425  0.2707  0.9738 -0.4129
  663SOL    HW1 1988   1.641   2.323   2.388 -2.3894  0.4615 -1.9378
  663SOL    HW2 1989   1.517   2.425   2.349  1.1403  0.9312  0.9082
  664SOL     OW 1990   0.670   2.426   1.473 -0.2975  0.0229 -0.4880
  664SOL    HW1 1991   0.771   2.435   1.478 -0.6430 -0.6253  0.6075
  664SOL    HW2 1992   0.635   2.394   1.379  0.6168  1.9828 -1.6995
  665SOL     OW 1993   1.479   1.928   1.472  0.1090 -0.5123  0.3060
  665SOL    HW1 1994   1.508   1.912   1.569  0.4922  2.0891  2.9629
  665SOL    HW2 1995   1.409   1.857   1.448 -0.9696 -1.2082  0.1288
  666SOL     OW 1996   0.466   2.894   2.957  0.4333 -0.1349  0.3704
  666SOL    HW1 1997   0.507   2.982   2.934  0.5878  2.7539  0.8458
  666SOL    HW2 1998   0.486   2.825   2.883  1.2781 -3.1044  0.4759
  667SOL     OW 1999   1.555   1.569   1.442 -0.1087 -0.3326  0.4319
  667SOL    HW1 2000   1.630   1.637   1.455 -1.4327  1.0067  0.5582
  667SOL    HW2 2001   1.481   1.580   1.508 -1.8324 -1.3898  0.1432
  668SOL     OW 2002   1.074   0.244   2.239 -0.2728 -0.1631 -0.2467
  668SOL    HW1 2003   1.027   0.162   2.201  1.7111 -0.2699 -0.6676
  668SOL    HW2 2004   1.165   0.250   2.194  2.7673 -0.3079  1.2991
  669SOL     OW 2005   2.135   2.391   1.949  0.3248  0.0394  0.0786
  669SOL    HW1 2006   2.226   2.347   1.920 -1.3341  1.4788  0.2912
  669SOL    HW2 2007   2.079   2.307   1.958  1.2547 -0.8562  1.7345
  670SOL     OW 2008   2.299   1.822   0.445 -0.3693 -0.4819 -0.0532
  670SOL    HW1 2009   2.327   1.907   0.493  0.7444 -0.1455 -0.3408
  670SOL    HW2 2010   2.206   1.793   0.477 -1.8726  1.1003  1.3606
  671SOL     OW 2011   1.324   1.034   1.188  0.1733  0.9211 -0.0628
  671SOL    HW1 2012   1.279   1.042   1.099  1.3229 -0.1066  3.6733
  671SOL    HW2 2013   1.327   1.124   1.235  0.9444  0.7048  0.6092
  672SOL     OW 2014   2.335   1.582   2.220  0.1157  0.0669  0.0337
  672SOL    HW1 2015   2.431   1.614   2.218 -0.3222 -0.6803 -0.7934
  672SOL    HW2 2016   2.311   1.534   2.135  1.6218 -1.5756  1.7832
  673SOL     OW 2017   2.593   1.697   2.197 -0.0897 -0.1658  0.1028
  673SOL    HW1 2018   2.671   1.691   2.134  0.7696 -0.0544  1.4701
  673SOL    HW2 2019   2.624   1.685   2.291 -1.7306  2.1806 -1.3823
  674SOL     OW 2020   1.084   2.758   2.389  0.2951 -0.3251 -0.1504
  674SOL    HW1 2021   1.012   2.757   2.461 -1.5921  2.0776 -0.7716
  674SOL    HW2 2022   1.036   2.737   2.297 -2.0030  0.0060 -1.5100
  675SOL     OW 2023   0.481   0.948   1.370  0.0296 -0.4403  0.3528
  675SOL    HW1 2024   0.470   0.901   1.280  0.9651 -1.4518 -0.7438
  675SOL    HW2 2025   0.571   0.922   1.416  1.5414 -1.7054  0.7036
  676SOL     OW 2026   2.075   0.529   0.906  0.1378  0.0141 -0.6059
  676SOL    HW1 2027   2.026   0.451   0.936  2.4270  1.6781 -4.9678
  676SOL    HW2 2028   2.079   0.607   0.973 -0.5396  2.2635 -1.1320
  677SOL     OW 2029   2.424   1.663   2.912 -0.3965  0.4705  0.7539
  677SOL    HW1 2030   2.474   1.682   2.825  0.6227  0.2297 -2.4640
  677SOL    HW2 2031   2.329   1.625   2.898 -0.6112  0.1769  3.0902
  678SOL     OW 2032   0.124   0.068   1.011 -0.0691  0.2556  0.2719
  678SOL    HW1 2033   0.178   0.146   1.043 -2.5639 -1.3740 -0.3641
  678SOL    HW2 2034   0.179   3.092   0.985  0.3067 -3.9166 -3.0607
  679SOL     OW 2035   2.368   3.087   0.411  0.3403 -0.6522  0.3618
  679SOL    HW1 2036   2.392   0.046   0.335  0.3413 -0.3604 -1.0082
  679SOL    HW2 2037   2.444   3.036   0.457 -2.0723 -0.8628 -0.8383
  680SOL     OW 2038   0.130   2.294   2.178  0.2260 -0.3828  0.0379
  680SOL    HW1 2039   0.177   2.258   2.091  2.3459 -0.9582 -1.1202
  680SOL    HW2 2040   0.062   2.364   2.155  0.2630  1.1003 -0.0116
  681SOL     OW 2041   2.701   1.846   1.350  0.2956 -0.1238  0.0069
  681SOL    HW1 2042   2.768   1.912   1.308 -2.1491  1.7207  0.8844
  681SOL    HW2 2043   2.603   1.875   1.328 -0.3630 -0.4221 -2.3247
  682SOL     OW 2044   2.990   2.369   2.020  0.4230  0.3725 -0.2157
  682SOL    HW1 2045   2.929   2.413   1.952 -0.5656  1.9543  3.7952
  682SOL    HW2 2046   3.015   2.430   2.095 -1.4215 -1.0103  2.1011
  683SOL     OW 2047   2.966   2.129   1.875  0.5295 -0.3140  0.0391
  683SOL    HW1 2048   2.983   2.208   1.936 -0.5512  1.3305  0.5811
  683SOL    HW2 2049   2.992   2.159   1.781 -2.4023  2.7137  0.0021
  684SOL     OW 2050   2.461   1.491   2.488  0.2301 -0.1867  0.1709
  684SOL    HW1 2051   2.426   1.483   2.391 -1.9883  3.1345 -0.1452
  684SOL    HW2 2052   2.448   1.404   2.542  0.5962 -2.0660 -1.5865
  685SOL     OW 2053   1.617   0.902   0.437 -0.0765  0.0021  0.0031
  685SOL    HW1 2054   1.540   0.874   0.495 -2.2361  0.0865 -0.3244
  685SOL    HW2 2055   1.704   0.915   0.485 -0.0785 -1.2343 -2.6852
  686SOL     OW 2056   0.527   3.099   0.734 -0.3017  0.1875  0.7093
  686SOL    HW1 2057   0.545   0.089   0.747  1.3041 -1.6252 -3.0393
  686SOL    HW2 2058   0.545   3.050   0.822 -2.2100  3.1484  0.4239
  687SOL     OW 2059   1.427   1.323   2.319  0.5657  0.2482 -0.3760
  687SOL    HW1 2060   1.521   1.341   2.356 -3.1824  2.1037 -4.6508
  687SOL    HW2 2061   1.353   1.291   2.387 -2.8219  0.2987  0.4281
  688SOL     OW 2062   1.281   1.756   1.316 -0.3458 -0.0272  0.1095
  688SOL    HW1 2063   1.260   1.752   1.217  0.7540  2.2504 -2.4976
  688SOL    HW2 2064   1.214   1.702   1.364  1.5231  3.2012 -1.9621
  689SOL     OW 2065   1.932   0.258   1.381  0.7750 -0.4621  0.7294
  689SOL    HW1 2066   2.011   0.253   1.318 -0.4377  1.4645  0.1602
  689SOL    HW2 2067   1.902   0.354   1.407 -1.1503 -2.4039 -0.6488
  690SOL     OW 2068   2.965   1.513   1.221  0.5501 -0.4759  0.0873
  690SOL    HW1 2069   2.924   1.449   1.289  3.8179  2.3852 -2.3617
  690SOL    HW2 2070   2.949   1.470   1.127 -0.6879  0.5565  0.2337
  691SOL     OW 2071   0.356   2.472   0.944  0.0657 -0.1070 -0.5671
  691SOL    HW1 2072   0.437   2.437   0.893 -1.4973 -1.0981  0.5038
  691SOL    HW2 2073   0.295   2.514   0.876  1.3644  0.6535 -0.3055
  692SOL     OW 2074   2.243   0.462   1.854 -0.0646  0.2046  0.1719
  692SOL    HW1 2075   2.300   0.547   1.845  2.3273  1.0793 -3.1793
  692SOL    HW2 2076   2.167   0.479   1.926 -1.7104  0.1247 -0.5889
  693SOL     OW 2077   0.256   1.928   2.074  0.2328 -0.3695  0.0362
  693SOL    HW1 2078   0.258   1.831   2.039 -2.0810  1.2416 -2.1087
  693SOL    HW2 2079   0.177   1.937   2.135  0.3687 -1.0913 -0.1483
  694SOL     OW 2080   1.365   1.477   1.831 -0.3761 -0.0556  0.2576
  694SOL    HW1 2081   1.465   1.471   1.825  0.3406 -1.0742  1.2290
  694SOL    HW2 2082   1.342   1.435   1.921  1.4384  1.4142 -1.4168
  695SOL     OW 2083   0.532   0.862   1.093  0.2252  0.0979 -0.2335
  695SOL    HW1 2084   0.442   0.895   1.055 -2.4191 -1.3768  0.4564
  695SOL    HW2 2085   0.575   0.790   1.040  1.4782  1.4990 -0.4172
  696SOL     OW 2086   1.680   2.947   0.785 -0.4964 -0.1689  0.3473
  696SOL    HW1 2087   1.656   3.029   0.731  0.6645 -1.7723  3.6249
  696SOL    HW2 2088   1.670   2.978   0.885 -0.6078  1.2737  1.3608
  697SOL     OW 2089   1.132   0.367   1.617 -0.1659 -0.1406  0.3766
  697SOL    HW1 2090   1.049   0.387   1.676 -0.4765 -0.5473 -1.3756
  697SOL    HW2 2091   1.108   0.288   1.559  0.6573  2.1031 -0.2978
  698SOL     OW 2092   1.771   1.315   2.064  0.4651  0.4250  0.3697
  698SOL    HW1 2093   1.672   1.274   2.071 -2.0855  0.1685 -0.5557
  698SOL    HW2 2094   1.795   1.378   2.141 -3.1223  1.8260  2.1163
  699SOL     OW 2095   2.155   0.475   1.596  0.3705  0.0254  1.1070
  699SOL    HW1 2096   2.240   0.516   1.555 -0.0737  3.2321  1.9520
  699SOL    HW2 2097   2.175   0.435   1.686  0.3124  0.6686  0.5724
  700SOL     OW 2098   0.973   2.162   0.041  0.4032 -0.4572  0.2540
  700SOL    HW1 2099   0.963   2.258   0.076  0.1804 -0.1600  0.4536
  700SOL    HW2 2100   1.055   2.130   0.083 -0.1963  2.0966  0.5587
  701SOL     OW 2101   2.207   2.491   2.632  0.4520  0.2225  0.5033
  701SOL    HW1 2102   2.162   2.543   2.559  0.4833  1.2754 -1.2198
  701SOL    HW2 2103   2.144   2.492   2.711  1.9100  1.2678  0.7480
  702SOL     OW 2104   1.010   3.079   1.110 -0.4250  0.0257  0.1256
  702SOL    HW1 2105   1.054   0.056   1.091 -0.6248  1.3052 -1.2865
  702SOL    HW2 2106   1.073   3.013   1.150 -3.7001  0.8328 -2.7841
  703SOL     OW 2107   2.022   0.194   2.472 -0.0690 -0.2144 -0.0863
  703SOL    HW1 2108   2.103   0.253   2.459 -0.4964 -0.8205 -0.2917
  703SOL    HW2 2109   2.024   0.128   2.396  2.7336 -2.0903  1.6606
  704SOL     OW 2110   2.834   2.453   0.286  0.0916  0.4856  0.2618
  704SOL    HW1 2111   2.897   2.535   0.286 -0.3647  0.3604  1.1927
  704SOL    HW2 2112   2.850   2.391   0.364 -0.3991  2.8588 -1.3183
  705SOL     OW 2113   2.404   0.157   2.099  0.5237 -0.3862 -0.2420
  705SOL    HW1 2114   2.366   0.174   2.004  0.4936 -0.5556 -3.6770
  705SOL    HW2 2115   2.378   0.064   2.133 -0.4678 -0.6403 -0.2002
  706SOL     OW 2116   2.179   2.811   1.343  0.0089  0.1479 -0.3959
  706SOL    HW1 2117   2.264   2.808   1.284 -1.7688 -3.1568  0.4501
  706SOL    HW2 2118   2.114   2.876   1.298  0.1773 -0.8176  1.2160
  707SOL     OW 2119   0.741   2.902   2.387 -0.1003 -0.0475  0.5664
  707SOL    HW1 2120   0.647   2.924   2.377  0.4038 -1.1092  0.5299
  707SOL    HW2 2121   0.807   2.980   2.401  1.1212 -0.0604  0.2251
  708SOL     OW 2122   2.896   2.511   1.776 -0.2867 -0.2737 -0.1096
  708SOL    HW1 2123   2.860   2.584   1.715 -0.0910  0.1318  1.5411
  708SOL    HW2 2124   2.975   2.461   1.730  1.2540 -1.9092 -0.2028
  709SOL     OW 2125   1.704   0.418   1.598  0.1986  0.2045 -0.0590
  709SOL    HW1 2126   1.797   0.443   1.563  1.7104 -0.8514 -0.5687
  709SOL    HW2 2127   1.709   0.427   1.700  0.7618 -0.7489  0.4751
  710SOL     OW 2128   1.195   0.249   2.754  0.0013 -0.3109 -0.1601
  710SOL    HW1 2129   1.149   0.283   2.671  1.2801  0.6921  0.7465
  710SOL    HW2 2130   1.139   0.174   2.794 -1.1361 -2.3406  0.4412
  711SOL     OW 2131   0.835   1.805   2.633 -0.4638 -0.2526  0.7559
  711SOL    HW1 2132   0.911   1.850   2.686  0.1672  0.2646 -1.9118
  711SOL    HW2 2133   0.764   1.768   2.696 -2.1783 -1.5750 -0.2275
  712SOL     OW 2134   1.001   1.880   2.823  0.4164  0.1764 -0.6599
  712SOL    HW1 2135   0.966   1.815   2.892 -1.2681  0.0411 -0.1239
  712SOL    HW2 2136   1.100   1.878   2.829 -1.6360 -1.8248 -2.3213
  713SOL     OW 2137   2.092   1.206   2.676 -0.5294  0.1646  0.5798
  713SOL    HW1 2138   2.100   1.262   2.590 -0.3934 -1.3034 -1.0595
  713SOL    HW2 2139   2.163   1.240   2.739 -1.3328  2.5691  1.3138
  714SOL     OW 2140   0.974   1.536   1.788  0.4286 -0.3397  0.3929
  714SOL    HW1 2141   0.999   1.571   1.880 -1.1291  1.2187 -3.8802
  714SOL    HW2 2142   0.933   1.613   1.732 -0.4127 -0.5922 -1.9724
  715SOL     OW 2143   1.962   0.150   0.026 -0.6390  0.3464 -0.3135
  715SOL    HW1 2144   2.052   0.166   0.077  4.1622  0.7826  1.2801
  715SOL    HW2 2145   1.966   0.197   3.043  2.5381  3.1137 -1.5554
  716SOL     OW 2146   2.912   2.451   1.434 -0.1045  0.0982  0.1109
  716SOL    HW1 2147   2.925   2.535   1.488  0.4271 -0.4180 -0.2933
  716SOL    HW2 2148   2.988   2.442   1.361  1.0158 -2.0594 -1.7545
  717SOL     OW 2149   2.649   1.098   0.826  0.4905  0.0061  0.8703
  717SOL    HW1 2150   2.592   1.056   0.899 -0.2260 -1.7560  0.0735
  717SOL    HW2 2151   2.615   1.061   0.738  1.4090  1.0863  1.9877
  718SOL     OW 2152   1.228   1.922   1.781  0.4980 -0.3057 -0.5259
  718SOL    HW1 2153   1.150   1.947   1.722  3.5957 -2.7458  0.7150
  718SOL    HW2 2154   1.204   1.952   1.877  0.4034 -0.1419 -1.2778
  719SOL     OW 2155   2.480   0.432   2.751  0.2408 -0.5561  0.1897
  719SOL    HW1 2156   2.511   0.497   2.819  2.1137  0.0569  2.0350
  719SOL    HW2 2157   2.529   0.344   2.766 -0.0860  1.9503  0.8404
  720SOL     OW 2158   1.118   0.208   1.003  0.1008  0.4329 -0.0133
  720SOL    HW1 2159   1.218   0.212   1.004 -1.0870 -0.4241  2.0433
  720SOL    HW2 2160   1.075   0.239   0.914  1.3255  1.0356 -2.8974
  721SOL     OW 2161   2.776   0.737   0.573 -0.2006 -0.2345  0.3066
  721SOL    HW1 2162   2.793   0.695   0.480  1.0935 -1.7370 -1.6223
  721SOL    HW2 2163   2.836   0.821   0.581  2.9592  1.4463 -1.3033
  722SOL     OW 2164   0.391   2.660   2.481 -0.1921 -0.4785 -0.1406
  722SOL    HW1 2165   0.446   2.581   2.442 -0.0434 -1.4392  0.8713
  722SOL    HW2 2166   0.382   2.737   2.418  1.0635 -1.2555  0.6361
  723SOL     OW 2167   1.659   0.048   0.616  0.6961  0.4007 -0.1080
  723SOL    HW1 2168   1.739   0.041   0.551 -1.1858  1.7538 -0.5488
  723SOL    HW2 2169   1.648   0.144   0.653  0.8252  0.7114  0.4415
  724SOL     OW 2170   0.979   1.666   2.010 -0.0822  0.2088  0.1640
  724SOL    HW1 2171   0.980   1.666   2.114  1.5101  0.3263  0.3256
  724SOL    HW2 2172   0.883   1.667   1.975 -3.7452 -1.3854 -3.5627
  725SOL     OW 2173   1.575   3.098   1.427 -0.0120  0.5092 -0.2159
  725SOL    HW1 2174   1.538   0.011   1.517  3.3979  0.0366 -3.1486
  725SOL    HW2 2175   1.583   2.996   1.418  1.8782 -1.2526  0.7376
  726SOL     OW 2176   2.269   2.879   0.263 -0.0136  0.9341  0.2555
  726SOL    HW1 2177   2.298   2.956   0.325  0.7137  1.4738 -1.3646
  726SOL    HW2 2178   2.297   2.792   0.305  0.5463  1.2508 -0.7473
  727SOL     OW 2179   1.401   1.912   0.730 -0.5805 -0.2230 -0.1140
  727SOL    HW1 2180   1.475   1.957   0.676  0.1899 -1.2060  0.0240
  727SOL    HW2 2181   1.423   1.814   0.746 -1.3932  2.2516  0.4178
  728SOL     OW 2182   2.286   2.751   2.314  0.2398 -0.6911  0.1634
  728SOL    HW1 2183   2.309   2.840   2.270 -2.4577 -0.5695 -0.9183
  728SOL    HW2 2184   2.366   2.694   2.341  0.9696  4.1181  0.8831
  729SOL     OW 2185   1.939   2.285   1.549  0.3205  0.0704  0.2990
  729SOL    HW1 2186   2.001   2.213   1.585  0.7988  0.1967  1.5223
  729SOL    HW2 2187   1.843   2.277   1.589 -0.7560 -4.1158 -0.7363
  730SOL     OW 2188   1.628   0.875   3.019  0.1334 -0.1592 -0.9441
  730SOL    HW1 2189   1.644   0.780   2.984 -0.8454 -2.4199 -1.4621
  730SOL    HW2 2190   1.622   0.938   2.941 -0.6588  1.1759  0.4181
  731SOL     OW 2191   0.817   3.050   1.319  0.1772 -0.5811 -0.4536
  731SOL    HW1 2192   0.840   3.072   1.225  1.7126 -1.7471  2.0667
  731SOL    HW2 2193   0.824   2.948   1.336 -0.8194  0.6065  1.5436
  732SOL     OW 2194   1.410   0.214   1.086 -0.1111  0.0892 -0.2247
  732SOL    HW1 2195   1.468   0.288   1.122 -3.1497  1.8117  1.9180
  732SOL    HW2 2196   1.429   0.196   0.987  2.0981 -0.9939  1.8624
  733SOL     OW 2197   0.948   1.199   1.229 -0.2590  0.2728  0.3890
  733SOL    HW1 2198   0.978   1.099   1.228  0.8064  0.9557 -1.2172
  733SOL    HW2 2199   0.845   1.207   1.226 -2.1914 -0.9803 -1.6311
  734SOL     OW 2200   2.934   2.530   2.762  0.0247 -0.0558  0.1497
  734SOL    HW1 2201   2.932   2.569   2.671  1.2360 -0.7232  2.8402
  734SOL    HW2 2202   2.883   2.601   2.818  1.0310  1.8098  1.1723
  735SOL     OW 2203   1.189   2.892   1.530  0.5345  0.2985 -0.3877
  735SOL    HW1 2204   1.197   2.904   1.433  0.7832 -3.0052 -1.4685
  735SOL    HW2 2205   1.277   2.893   1.583  2.6013  2.0127 -0.7254
  736SOL     OW 2206   1.780   1.965   0.103  0.3869  0.1645 -0.1141
  736SOL    HW1 2207   1.687   1.997   0.085  1.1307  0.4593  1.0909
  736SOL    HW2 2208   1.829   2.038   0.157  2.1835 -2.7315  1.9641
  737SOL     OW 2209   3.040   2.007   1.464  0.1595 -0.3016  0.1784
  737SOL    HW1 2210   3.017   1.996   1.365  0.1834  2.7577 -1.4005
  737SOL    HW2 2211   3.010   2.097   1.505 -2.5691  0.1752  0.4649
  738SOL     OW 2212   1.847   2.445   2.619  0.2674 -0.0356  0.3979
  738SOL    HW1 2213   1.760   2.404   2.648  1.3107 -0.1955  0.4505
  738SOL    HW2 2214   1.911   2.418   2.693 -2.8634  1.3100 -1.5908
  739SOL     OW 2215   1.354   2.187   2.503  0.7078  0.7333  0.1922
  739SOL    HW1 2216   1.412   2.255   2.462 -5.2240 -2.5284  1.4512
  739SOL    HW2 2217   1.402   2.115   2.553 -0.1961  1.4753 -1.3714
  740SOL     OW 2218   1.170   2.642   1.002 -0.3651  0.2684  0.0617
  740SOL    HW1 2219   1.263   2.683   1.006  0.5441 -1.8351  0.6352
  740SOL    HW2 2220   1.139   2.621   0.911  2.2662 -0.5026  1.3146
  741SOL     OW 2221   3.076   1.214   0.318  0.1320  0.3026  0.0652
  741SOL    HW1 2222   2.983   1.229   0.358  0.4094 -0.7427  0.5229
  741SOL    HW2 2223   3.108   1.290   0.257 -0.6738 -0.6515 -1.4532
  742SOL     OW 2224   1.013   1.698   2.270  0.3968 -0.9437  0.0933
  742SOL    HW1 2225   1.106   1.730   2.298  0.1725  2.6756  0.2577
  742SOL    HW2 2226   0.936   1.752   2.311  0.8682 -0.0106  0.3577
  743SOL     OW 2227   1.064   1.055   2.517 -0.2002 -0.2350 -0.4639
  743SOL    HW1 2228   1.049   0.997   2.600  0.3870 -1.1557 -0.1770
  743SOL    HW2 2229   1.070   0.995   2.434 -2.6458  3.0013  1.3724
  744SOL     OW 2230   2.184   2.963   1.588 -0.0608  0.0461  0.0094
  744SOL    HW1 2231   2.268   3.021   1.595  1.2627 -0.2914 -0.2005
  744SOL    HW2 2232   2.170   2.902   1.507 -2.3537 -0.3813  0.2698
  745SOL     OW 2233   1.870   1.419   1.289  0.0600 -0.6261 -0.6428
  745SOL    HW1 2234   1.786   1.457   1.241  0.8879  1.3897 -0.7566
  745SOL    HW2 2235   1.845   1.350   1.360 -1.1018  3.5334  1.9036
  746SOL     OW 2236   1.978   0.933   0.694 -0.2573 -0.5171  0.0243
  746SOL    HW1 2237   2.038   0.974   0.770  0.2822 -0.2484  3.6508
  746SOL    HW2 2238   1.959   0.834   0.704  0.9851  0.1971  1.8528
  747SOL     OW 2239   2.033   1.668   0.553  0.2466  0.1657 -0.7468
  747SOL    HW1 2240   2.062   1.598   0.622  0.1742 -1.2646  0.7974
  747SOL    HW2 2241   1.948   1.712   0.578  0.3743  0.7820  3.5588
  748SOL     OW 2242   0.428   1.728   0.342 -0.2429  0.1410  0.2530
  748SOL    HW1 2243   0.421   1.652   0.412 -1.5008  1.7204  0.8675
  748SOL    HW2 2244   0.464   1.697   0.248  1.5841 -0.0496 -1.4187
  749SOL     OW 2245   0.029   2.353   2.718  0.4375 -0.1312  0.1114
  749SOL    HW1 2246   3.106   2.258   2.732 -1.4737 -2.3262 -1.3000
  749SOL    HW2 2247   3.074   2.423   2.740  3.0022 -2.1213 -3.1217
  750SOL     OW 2248   2.252   0.870   1.069  0.3189  0.6058  0.8332
  750SOL    HW1 2249   2.300   0.796   1.011  1.2755  0.5635 -0.8669
  750SOL    HW2 2250   2.228   0.828   1.159 -0.2984 -0.3205  0.4187
  751SOL     OW 2251   2.686   0.004   0.046 -0.0085 -0.0625 -0.6398
  751SOL    HW1 2252   2.595   0.014   3.108  0.3881 -0.2523  0.6375
  751SOL    HW2 2253   2.671   3.053   0.125  1.8300  1.9181 -1.1738
  752SOL     OW 2254   2.308   2.830   0.681 -0.2620 -0.0032 -0.5088
  752SOL    HW1 2255   2.256   2.909   0.717  0.3581  2.3429 -0.1233
  752SOL    HW2 2256   2.256   2.779   0.611  2.7416 -2.1705 -2.1760
  753SOL     OW 2257   1.891   1.477   2.273  0.0044  0.1325  0.0584
  753SOL    HW1 2258   1.972   1.469   2.334 -0.4750 -1.5496 -0.6619
  753SOL    HW2 2259   1.883   1.568   2.228 -0.9402  0.3890 -0.6617
  754SOL     OW 2260   2.254   2.433   1.615 -0.1557  0.1746  0.3920
  754SOL    HW1 2261   2.246   2.365   1.538  0.5812 -2.1708 -2.2983
  754SOL    HW2 2262   2.171   2.490   1.628 -0.6961 -2.0939 -1.1463
  755SOL     OW 2263   2.663   0.975   1.262  0.3623  0.3269 -0.5631
  755SOL    HW1 2264   2.616   0.882   1.253 -0.8370 -1.3982 -0.7381
  755SOL    HW2 2265   2.619   1.024   1.340 -1.3788 -0.0670 -0.6537
  756SOL     OW 2266   1.105   1.500   2.923  0.0844  0.0205 -0.2213
  756SOL    HW1 2267   1.100   1.403   2.907  0.4399  3.5502  0.8042
  756SOL    HW2 2268   1.015   1.542   2.888  2.1973  3.2137 -1.6603
  757SOL     OW 2269   1.703   2.661   0.982 -0.0803  0.3723  0.0841
  757SOL    HW1 2270   1.768   2.641   0.905 -1.4898 -0.2247  1.5303
  757SOL    HW2 2271   1.671   2.576   1.028  1.7585 -3.1374  0.5505
  758SOL     OW 2272   0.941   2.303   1.403 -0.6698 -0.1150 -0.1067
  758SOL    HW1 2273   1.026   2.356   1.407 -1.7758  1.6662  1.0039
  758SOL    HW2 2274   0.933   2.257   1.317  1.9392  1.7368  2.6470
  759SOL     OW 2275   2.341   1.232   1.140 -0.3604 -0.2781 -0.0047
  759SOL    HW1 2276   2.371   1.330   1.140 -0.3860 -0.4952 -1.2385
  759SOL    HW2 2277   2.238   1.229   1.130  1.1344 -3.0374  1.5121
  760SOL     OW 2278   2.116   0.958   1.505  0.1254  0.0584 -0.4553
  760SOL    HW1 2279   2.028   0.941   1.453  0.2797  2.5466 -0.8521
  760SOL    HW2 2280   2.123   1.057   1.522  1.2203  0.4806  0.4172
  761SOL     OW 2281   2.037   2.759   0.302 -0.4507  0.4452  0.0937
  761SOL    HW1 2282   1.991   2.723   0.219 -2.1935  0.6735  0.8229
  761SOL    HW2 2283   2.122   2.815   0.282  3.1018  0.4399 -2.7414
  762SOL     OW 2284   1.952   1.525   3.005 -0.1503 -0.6097 -0.3250
  762SOL    HW1 2285   1.883   1.448   2.987  0.1991 -2.1002  0.8588
  762SOL    HW2 2286   1.904   1.617   3.015 -0.4892  0.3656  1.5272
  763SOL     OW 2287   0.549   1.695   1.423  0.2141  0.3399  0.8648
  763SOL    HW1 2288   0.447   1.682   1.415 -1.3437 -0.6555  1.0127
  763SOL    HW2 2289   0.592   1.608   1.459 -2.3887 -2.4794 -0.3109
  764SOL     OW 2290   0.219   2.418   3.067  0.0699 -0.4213  0.3353
  764SOL    HW1 2291   0.133   2.474   3.071 -0.0272 -0.7837  0.2835
  764SOL    HW2 2292   0.260   2.423   2.979  0.4030 -0.9157  0.5217
  765SOL     OW 2293   0.573   3.099   1.514 -0.0231  0.0335 -0.3871
  765SOL    HW1 2294   0.658   0.011   1.469 -1.4604 -0.0279  0.1720
  765SOL    HW2 2295   0.557   0.057   1.589 -2.7359  1.3208 -2.3847
  766SOL     OW 2296   2.934   2.148   2.213 -0.0615 -0.2169  0.0697
  766SOL    HW1 2297   2.985   2.220   2.161  1.7372  2.3618 -1.5095
  766SOL    HW2 2298   2.834   2.155   2.177 -2.4447  1.2211  1.4133
  767SOL     OW 2299   2.968   1.093   2.094 -0.0580  0.1530  0.2477
  767SOL    HW1 2300   2.928   0.999   2.084  0.9626 -1.4163 -1.3343
  767SOL    HW2 2301   2.939   1.147   2.012 -0.2292  0.3630  1.8479
  768SOL     OW 2302   0.741   0.264   2.823  0.6989  0.4364 -0.3304
  768SOL    HW1 2303   0.656   0.303   2.780 -1.9533 -1.0950  1.0452
  768SOL    HW2 2304   0.795   0.338   2.870  0.3293 -3.8040 -0.7270
  769SOL     OW 2305   2.025   2.718   0.997  0.1830 -0.4912 -0.0417
  769SOL    HW1 2306   2.120   2.706   0.972 -1.2469 -0.8790  3.5136
  769SOL    HW2 2307   2.012   2.772   1.079 -1.2248  1.1601 -1.3655
  770SOL     OW 2308   2.880   0.091   2.708  0.0779  0.0706  0.0917
  770SOL    HW1 2309   2.848   0.089   2.610  1.2591  1.8094 -1.9086
  770SOL    HW2 2310   2.972   0.143   2.709  2.6648  1.4823  0.7885
  771SOL     OW 2311   1.810   1.967   1.972  0.2868 -0.0720  0.1294
  771SOL    HW1 2312   1.791   1.958   1.870  2.4549  1.1369  0.0502
  771SOL    HW2 2313   1.719   1.973   2.018  2.1822 -0.8953 -0.8159
  772SOL     OW 2314   1.133   0.401   0.159  0.1453  0.5779 -0.8978
  772SOL    HW1 2315   1.159   0.399   0.257 -2.0195 -0.9368 -2.0786
  772SOL    HW2 2316   1.031   0.402   0.147  0.7670 -1.1692  0.7974
  773SOL     OW 2317   2.700   0.888   1.795  0.1465  0.0642  0.1004
  773SOL    HW1 2318   2.729   0.882   1.890  1.9980  0.6761 -3.0868
  773SOL    HW2 2319   2.725   0.801   1.747  1.1974 -1.2405 -1.5910
  774SOL     OW 2320   1.058   1.017   0.673  0.5233 -0.1958 -0.1605
  774SOL    HW1 2321   1.000   1.085   0.627 -0.5863 -1.0104 -0.1001
  774SOL    HW2 2322   1.007   0.972   0.748  0.8509 -1.0732 -0.4243
  775SOL     OW 2323   2.491   0.038   2.943  0.0621  0.2523 -0.3104
  775SOL    HW1 2324   2.395   0.067   2.915  0.3310  1.2822 -1.4250
  775SOL    HW2 2325   2.497   3.045   2.938  1.8546 -2.0177  0.0800
  776SOL     OW 2326   2.264   1.323   2.024 -0.0384  0.1973  0.3873
  776SOL    HW1 2327   2.310   1.329   2.115  1.1878 -1.9230 -0.1623
  776SOL    HW2 2328   2.304   1.248   1.965  0.3861 -1.1603  0.2038
  777SOL     OW 2329   0.326   1.320   2.553  0.3460 -1.0272  0.2792
  777SOL    HW1 2330   0.278   1.394   2.506  1.8564 -0.4434  1.3028
  777SOL    HW2 2331   0.373   1.357   2.637 -0.1582 -0.6872 -1.0184
  778SOL     OW 2332   0.454   0.552   0.214  0.5645 -0.2316  0.3259
  778SOL    HW1 2333   0.483   0.488   0.137 -0.5392 -1.8651 -0.3903
  778SOL    HW2 2334   0.355   0.572   0.205  2.1216 -1.9749 -3.2600
  779SOL     OW 2335   0.472   0.563   2.469 -0.0019  0.2856 -0.3297
  779SOL    HW1 2336   0.563   0.600   2.442 -0.8601  1.4085  0.7747
  779SOL    HW2 2337   0.463   0.466   2.439  2.4635  0.7841 -1.6186
  780SOL     OW 2338   2.248   0.772   2.661 -0.2769 -0.7845 -0.0691
  780SOL    HW1 2339   2.170   0.804   2.721 -3.7109  1.5875  1.1322
  780SOL    HW2 2340   2.236   0.673   2.646  0.7319  0.6675 -0.2419
  781SOL     OW 2341   2.928   0.879   1.654 -0.3247 -0.0160  0.2108
  781SOL    HW1 2342   2.842   0.896   1.707 -0.8931  0.0479  2.2005
  781SOL    HW2 2343   3.006   0.925   1.692 -0.8489 -2.8027 -1.7919
  782SOL     OW 2344   0.572   1.701   2.749 -0.2734  0.2685  0.2535
  782SOL    HW1 2345   0.530   1.715   2.842 -2.0835 -2.0529  0.0813
  782SOL    HW2 2346   0.552   1.602   2.724 -0.8251 -2.1079  0.8115
  783SOL     OW 2347   1.003   2.695   1.557 -0.1616  0.0972 -0.3775
  783SOL    HW1 2348   1.069   2.775   1.554  0.5863  1.2787 -2.3795
  783SOL    HW2 2349   1.048   2.617   1.514  0.6420  1.5512  0.2440
  784SOL     OW 2350   1.356   0.323   0.035 -0.3336 -0.3634 -0.3665
  784SOL    HW1 2351   1.267   0.340   0.078  1.6214 -0.1184  1.0059
  784SOL    HW2 2352   1.420   0.408   0.042 -0.1633  1.3479 -0.2950
  785SOL     OW 2353   0.905   0.417   2.006 -0.3042  0.7776 -0.1083
  785SOL    HW1 2354   0.843   0.482   2.057  0.4628  0.0813  0.6778
  785SOL    HW2 2355   0.980   0.388   2.075 -3.9385  1.9366  1.7662
  786SOL     OW 2356   0.735   1.875   0.434  0.3568 -0.0618  0.0028
  786SOL    HW1 2357   0.699   1.781   0.411 -0.1994  0.7489  0.3899
  786SOL    HW2 2358   0.679   1.952   0.392 -0.4966 -1.9666 -0.2758
  787SOL     OW 2359   1.369   0.827   0.542 -0.2224  0.4091  0.4960
  787SOL    HW1 2360   1.362   0.928   0.565  0.1221  1.6273  1.4327
  787SOL    HW2 2361   1.301   0.778   0.601  0.1050 -1.8825  0.2826
  788SOL     OW 2362   2.280   1.658   1.300  0.3337  0.1122  0.2442
  788SOL    HW1 2363   2.345   1.589   1.265  0.8024  2.1079 -2.2337
  788SOL    HW2 2364   2.265   1.654   1.401 -0.0013  0.6445  0.9510
  789SOL     OW 2365   2.964   1.215   2.370  0.2079  0.3235 -0.2290
  789SOL    HW1 2366   2.944   1.192   2.271  0.7625 -1.2553 -2.4739
  789SOL    HW2 2367   2.891   1.182   2.434 -0.7220 -0.6168  0.9291
  790SOL     OW 2368   0.610   3.104   0.113 -0.1878  0.0777 -0.1946
  790SOL    HW1 2369   0.594   3.003   0.110  1.1405 -2.5943  0.3297
  790SOL    HW2 2370   0.695   0.014   0.168 -0.9538  0.3449  0.6713
  791SOL     OW 2371   0.250   0.792   0.089  0.4645 -0.3359  1.3653
  791SOL    HW1 2372   0.284   0.865   0.150 -0.1758 -2.5235 -1.6920
  791SOL    HW2 2373   0.180   0.823   0.016 -4.8067 -0.5221  0.3138
  792SOL     OW 2374   1.680   0.719   2.657  0.4417  0.4159  0.3352
  792SOL    HW1 2375   1.588   0.756   2.641 -0.3667 -0.1760  1.4087
  792SOL    HW2 2376   1.706   0.662   2.577 -0.9132 -0.3032  2.3655
  793SOL     OW 2377   2.978   0.486   0.651  0.3171  0.7772 -0.0739
  793SOL    HW1 2378   3.047   0.533   0.589 -1.0678 -2.4740 -2.0813
  793SOL    HW2 2379   3.020   0.410   0.709  2.4015 -2.2020  2.0461
  794SOL     OW 2380   0.348   0.381   1.695 -0.0896 -0.2329 -0.0903
  794SOL    HW1 2381   0.399   0.460   1.655  0.4231 -1.8923 -0.5657
  794SOL    HW2 2382   0.289   0.351   1.617 -2.1230  2.3740 -1.0278
  795SOL     OW 2383   0.362   1.466   0.183 -0.2606  0.4110 -0.0555
  795SOL    HW1 2384   0.426   1.412   0.242 -0.3126  0.7093 -0.9951
  795SOL    HW2 2385   0.265   1.439   0.198 -3.5810  0.2310  1.0838
  796SOL     OW 2386   0.177   1.156   3.043  0.9204 -0.1245 -0.0339
  796SOL    HW1 2387   0.148   1.166   0.029  1.0890 -0.5065  1.9509
  796SOL    HW2 2388   0.177   1.254   3.003 -0.7676  0.6740 -2.0598
  797SOL     OW 2389   1.621   2.369   2.787 -0.1335 -0.2184  0.1251
  797SOL    HW1 2390   1.632   2.457   2.835  0.9690 -2.2530 -2.7287
  797SOL    HW2 2391   1.532   2.369   2.737 -0.8538  0.7827  1.3734
  798SOL     OW 2392   3.008   0.745   0.875  0.2151  0.9845 -0.0361
  798SOL    HW1 2393   2.949   0.662   0.851 -1.3339 -3.1906 -0.9655
  798SOL    HW2 2394   2.964   0.811   0.933  2.3131  0.1681 -0.4898
  799SOL     OW 2395   2.501   0.777   2.062  0.5025  0.6264 -0.5549
  799SOL    HW1 2396   2.469   0.870   2.085  0.0032  2.3586 -1.1807
  799SOL    HW2 2397   2.475   0.752   1.965 -2.0516 -2.1398 -2.6871
  800SOL     OW 2398   0.232   1.914   0.352 -0.6868  0.2892 -0.0448
  800SOL    HW1 2399   0.231   1.967   0.436 -1.3911  0.1159  0.9167
  800SOL    HW2 2400   0.277   1.821   0.351  0.9571 -1.7674 -1.1093
  801SOL     OW 2401   1.584   2.127   0.652 -1.2198 -0.3860 -0.0996
  801SOL    HW1 2402   1.643   2.187   0.593  0.4887  2.1472  1.3472
  801SOL    HW2 2403   1.626   2.074   0.728  0.4464  1.7965  2.1970
  802SOL     OW 2404   1.345   1.590   2.798  0.6963 -0.1747 -0.1787
  802SOL    HW1 2405   1.263   1.570   2.855  1.6303  1.0909  0.2539
  802SOL    HW2 2406   1.428   1.601   2.855  2.3046  0.2638 -0.2383
  803SOL     OW 2407   0.196   2.067   1.769 -0.2361 -0.2309 -0.5675
  803SOL    HW1 2408   0.131   2.005   1.822  0.7900 -1.3993  1.7991
  803SOL    HW2 2409   0.248   2.128   1.838 -1.6307 -0.4406 -0.8086
  804SOL     OW 2410   1.257   2.468   1.205 -0.1891  0.0728 -0.1317
  804SOL    HW1 2411   1.342   2.415   1.178  4.4993 -2.1059 -0.7224
  804SOL    HW2 2412   1.231   2.540   1.135  0.5134  0.1311 -0.5675
  805SOL     OW 2413   2.330   2.016   2.762  0.5005  0.7880  0.2246
  805SOL    HW1 2414   2.259   2.083   2.729  1.1721 -1.1644  0.7006
  805SOL    HW2 2415   2.416   2.061   2.784 -4.5280 -0.5558 -0.1779
  806SOL     OW 2416   2.202   3.077   0.832 -0.4907  0.1546  0.3429
  806SOL    HW1 2417   2.250   3.092   0.921  1.3888 -2.0079 -0.2073
  806SOL    HW2 2418   2.216   0.046   0.769  0.2160  0.9537  0.3354
  807SOL     OW 2419   0.075   1.177   2.651  0.2426 -0.5349 -0.5117
  807SOL    HW1 2420   0.150   1.240   2.615  2.9940  0.0803  0.5009
  807SOL    HW2 2421   0.089   1.078   2.629 -1.3562 -0.1815  0.7632
  808SOL     OW 2422   0.596   1.605   0.719 -0.9830  0.1052 -0.3334
  808SOL    HW1 2423   0.620   1.558   0.807  1.5595  1.4400  1.3404
  808SOL    HW2 2424   0.647   1.696   0.703  0.9266 -3.2719 -3.5048
  809SOL     OW 2425   2.654   0.507   2.085 -0.3808 -0.2320 -0.3798
  809SOL    HW1 2426   2.635   0.601   2.054 -1.1496  1.6773 -0.9537
  809SOL    HW2 2427   2.689   0.451   2.010  0.8516  1.3256  1.1522
  810SOL     OW 2428   1.292   0.579   1.576 -0.3384 -0.2872  0.3166
  810SOL    HW1 2429   1.209   0.516   1.585  0.1855 -1.5334 -0.8670
  810SOL    HW2 2430   1.284   0.653   1.644  0.6946 -0.4018 -0.4814
  811SOL     OW 2431   2.160   0.009   1.911  0.4333  0.4436 -0.4104
  811SOL    HW1 2432   2.066   0.048   1.915  3.0471  0.2121 -1.3220
  811SOL    HW2 2433   2.148   3.019   1.915 -0.6205  2.4934  2.6579
  812SOL     OW 2434   1.748   1.982   0.414 -0.2437  0.5068 -0.7010
  812SOL    HW1 2435   1.844   1.991   0.392 -0.9264 -0.7505 -0.0637
  812SOL    HW2 2436   1.738   1.917   0.489 -0.2356  0.0684 -0.9819
  813SOL     OW 2437   1.099   0.703   1.927  0.7846  0.6635 -0.0995
  813SOL    HW1 2438   1.115   0.632   1.996 -4.0156  1.8955 -2.0210
  813SOL    HW2 2439   1.181   0.718   1.869  1.1127  0.4334 -1.3670
  814SOL     OW 2440   0.476   0.063   1.122  0.2575  0.3877 -0.2547
  814SOL    HW1 2441   0.494   0.002   1.046  1.4501 -0.4789  0.2764
  814SOL    HW2 2442   0.562   0.104   1.164 -2.1023 -0.2893  0.4415
  815SOL     OW 2443   0.436   0.109   0.488 -0.1446 -0.5551 -0.0418
  815SOL    HW1 2444   0.478   0.061   0.567 -0.8673 -0.3737 -0.0735
  815SOL    HW2 2445   0.428   0.050   0.411 -0.0595  1.1930  2.5768
  816SOL     OW 2446   2.234   1.820   2.322  0.1835  0.4974 -0.0217
  816SOL    HW1 2447   2.248   1.728   2.278  0.9371 -1.1047 -1.0361
  816SOL    HW2 2448   2.301   1.824   2.396 -0.5975 -1.5464 -1.3419
  817SOL     OW 2449   1.107   2.887   0.670  0.6000 -0.6960  0.0164
  817SOL    HW1 2450   1.105   2.784   0.657  0.3334 -0.6897 -0.1555
  817SOL    HW2 2451   1.010   2.919   0.679 -2.3910 -2.1957  0.2823
  818SOL     OW 2452   1.658   0.628   2.920  0.2873 -0.5302  0.0649
  818SOL    HW1 2453   1.669   0.680   2.833  1.6010  0.9699 -0.8578
  818SOL    HW2 2454   1.746   0.602   2.954 -1.6898  0.2675  0.2937
  819SOL     OW 2455   2.239   0.199   0.081 -0.2049  0.0875  0.0564
  819SOL    HW1 2456   2.309   0.181   0.153  1.1670  1.3824 -0.1347
  819SOL    HW2 2457   2.266   0.169   3.097 -0.8573  2.8927  2.2902
  820SOL     OW 2458   1.927   0.591   2.954  0.1440  0.2212 -0.4534
  820SOL    HW1 2459   1.961   0.534   3.027  0.3802  0.6065  0.5278
  820SOL    HW2 2460   1.925   0.557   2.860  2.8533 -0.2009  1.2972
  821SOL     OW 2461   2.810   0.562   0.876  0.1894 -0.3614 -0.2571
  821SOL    HW1 2462   2.840   0.506   0.798 -1.8136  0.8679 -0.8013
  821SOL    HW2 2463   2.721   0.605   0.844 -0.7543  0.5281  0.0186
  822SOL     OW 2464   1.003   2.288   2.247  0.0216  0.3172  0.1967
  822SOL    HW1 2465   1.033   2.322   2.337  3.3738 -0.5394 -1.0969
  822SOL    HW2 2466   0.924   2.339   2.216 -0.9186 -2.8423  0.3335
  823SOL     OW 2467   0.304   1.548   1.763 -0.3826 -0.6716  0.4502
  823SOL    HW1 2468   0.271   1.554   1.858 -0.4552  2.0529  0.7328
  823SOL    HW2 2469   0.238   1.500   1.710  2.9186  2.6416  0.7972
  824SOL     OW 2470   1.397   2.732   2.296  0.1803  0.3113 -0.0469
  824SOL    HW1 2471   1.452   2.770   2.370  1.7304  0.7515 -1.1285
  824SOL    HW2 2472   1.297   2.731   2.310 -1.9372 -0.6674  0.9386
  825SOL     OW 2473   1.728   0.605   0.611 -0.1493 -0.0707 -0.2422
  825SOL    HW1 2474   1.823   0.635   0.636  0.6049 -0.3326  1.9147
  825SOL    HW2 2475   1.732   0.556   0.518 -0.6700  0.5943 -0.5366
  826SOL     OW 2476   2.244   0.741   0.232  0.1174 -0.3937  0.2411
  826SOL    HW1 2477   2.223   0.825   0.281 -0.0200 -3.0006 -2.5106
  826SOL    HW2 2478   2.202   0.657   0.273  3.7080 -0.4050  0.3087
  827SOL     OW 2479   0.388   1.667   2.273  0.0025 -0.2700 -0.1172
  827SOL    HW1 2480   0.413   1.764   2.290 -1.6154  2.6597  3.5382
  827SOL    HW2 2481   0.466   1.605   2.268 -1.7299 -0.7913  0.9952
  828SOL     OW 2482   2.288   1.439   1.530 -0.3827  0.1543  0.3619
  828SOL    HW1 2483   2.293   1.541   1.548  3.1897  3.2945  0.5863
  828SOL    HW2 2484   2.383   1.399   1.555 -0.3838 -1.5114  1.7602
  829SOL     OW 2485   0.205   1.736   0.630 -0.4095  0.1552 -0.4907
  829SOL    HW1 2486   0.183   1.729   0.731 -0.1189 -0.8909  2.0967
  829SOL    HW2 2487   0.270   1.662   0.606 -3.0765  0.2709  0.9783
  830SOL     OW 2488   1.494   0.831   0.947  0.5429 -0.2861  0.1105
  830SOL    HW1 2489   1.420   0.898   0.944  1.2685 -0.0204 -0.6822
  830SOL    HW2 2490   1.544   0.834   1.035 -1.7067  0.5354 -1.9349
  831SOL     OW 2491   3.109   1.723   0.043 -0.4569  0.0757 -0.4192
  831SOL    HW1 2492   3.095   1.791   0.117  1.2311  1.6706 -1.5604
  831SOL    HW2 2493   3.039   1.647   0.049 -1.4528  0.5477 -0.9140
  832SOL     OW 2494   0.834   0.361   0.142  0.5741 -0.0167  0.0267
  832SOL    HW1 2495   0.832   0.440   0.207  0.1925 -2.3417 -0.5084
  832SOL    HW2 2496   0.818   0.274   0.195  0.5900 -3.7475  3.0795
  833SOL     OW 2497   0.753   0.609   2.126  0.3418  0.6104 -0.1422
  833SOL    HW1 2498   0.788   0.688   2.067  0.1439 -0.1280 -1.2480
  833SOL    HW2 2499   0.654   0.595   2.104 -0.2606  2.3201  0.0095
  834SOL     OW 2500   0.321   0.461   0.570 -0.5087  0.1564 -0.1626
  834SOL    HW1 2501   0.277   0.470   0.662 -0.9459 -0.0217 -1.2570
  834SOL    HW2 2502   0.280   0.380   0.522  0.6520 -1.7510 -0.2345
  835SOL     OW 2503   2.783   2.969   1.255  0.4322  0.6918 -0.1070
  835SOL    HW1 2504   2.750   3.037   1.323  1.6358  0.0223  0.8459
  835SOL    HW2 2505   2.777   2.994   1.157 -0.2131  1.1446  1.9842
  836SOL     OW 2506   0.498   1.995   0.034  0.3182  0.4902  0.2529
  836SOL    HW1 2507   0.415   2.054   0.030 -0.4491 -2.8092  0.6827
  836SOL    HW2 2508   0.530   1.988   0.132  1.6307  1.8578  2.8986
  837SOL     OW 2509   1.691   1.347   2.452 -0.0677  0.1911  0.0225
  837SOL    HW1 2510   1.637   1.395   2.529 -1.8387  1.0226  1.9232
  837SOL    HW2 2511   1.766   1.410   2.430  0.3604 -1.7483 -0.4848
  838SOL     OW 2512   0.227   0.927   1.441  0.2098 -0.2209  0.6315
  838SOL    HW1 2513   0.321   0.937   1.402 -0.1699  1.6129  0.8477
  838SOL    HW2 2514   0.208   0.986   1.523 -0.8126  0.6345  0.5797
  839SOL     OW 2515   0.614   1.322   0.924  0.2681  0.1604 -0.0309
  839SOL    HW1 2516   0.607   1.255   1.006 -1.0525  2.1640 -0.7816
  839SOL    HW2 2517   0.689   1.304   0.861 -1.7595  1.8170  0.8630
  840SOL     OW 2518   1.893   0.113   2.011  0.5026 -0.2886  0.0653
  840SOL    HW1 2519   1.805   0.087   1.966 -2.0434 -1.3264 -2.9827
  840SOL    HW2 2520   1.886   0.216   2.027 -0.3210  2.9900  0.4806
  841SOL     OW 2521   0.605   2.310   0.387 -0.2453 -0.5942  0.2371
  841SOL    HW1 2522   0.705   2.303   0.393 -2.1422  1.6601 -3.4445
  841SOL    HW2 2523   0.576   2.302   0.291 -1.0010  2.5318 -1.1285
  842SOL     OW 2524   0.561   0.246   0.768 -0.4769 -0.0300  0.2854
  842SOL    HW1 2525   0.588   0.325   0.707  1.1238  3.8323  1.8054
  842SOL    HW2 2526   0.472   0.257   0.805  2.0515 -2.1261 -1.0745
  843SOL     OW 2527   0.701   1.137   2.316 -0.3436 -0.0465  0.0751
  843SOL    HW1 2528   0.616   1.124   2.370 -0.3385 -0.6268 -0.4469
  843SOL    HW2 2529   0.778   1.165   2.384  2.4525 -1.2054 -1.0762
  844SOL     OW 2530   1.297   2.262   0.097  0.4453  0.4320  0.1158
  844SOL    HW1 2531   1.310   2.273   3.104 -1.4177  0.4486  1.4230
  844SOL    HW2 2532   1.273   2.351   0.139 -0.1556  1.1555 -2.6657
  845SOL     OW 2533   2.497   2.614   2.404 -0.4125  0.3967 -0.4445
  845SOL    HW1 2534   2.577   2.609   2.343 -0.8107  2.7199  3.8404
  845SOL    HW2 2535   2.488   2.531   2.463 -1.9292  2.3352 -0.1412
  846SOL     OW 2536   1.852   1.779   3.023  0.2601  0.9662  0.3581
  846SOL    HW1 2537   1.783   1.797   2.946 -1.7509  1.1446 -2.4723
  846SOL    HW2 2538   1.851   1.859   3.086 -0.1499  0.1329 -1.6896
  847SOL     OW 2539   2.230   0.058   2.922 -0.6151 -0.0322  0.3277
  847SOL    HW1 2540   2.218   3.093   2.990 -1.2079 -1.8337 -1.9499
  847SOL    HW2 2541   2.171   0.055   2.841 -2.4284  0.3482 -1.8771
  848SOL     OW 2542   0.321   0.755   0.542  0.5326  0.2150  0.0376
  848SOL    HW1 2543   0.223   0.776   0.553  0.9439  1.6043  0.2327
  848SOL    HW2 2544   0.341   0.662   0.565  0.6683  1.1249 -2.6981
  849SOL     OW 2545   1.408   2.872   1.699 -0.3364 -0.4306 -0.0281
  849SOL    HW1 2546   1.452   2.960   1.697 -0.9593 -0.4823  2.8546
  849SOL    HW2 2547   1.369   2.852   1.788 -1.9263  0.0505  1.0179
  850SOL     OW 2548   0.559   1.649   0.105 -0.0618 -0.6091  0.6678
  850SOL    HW1 2549   0.537   1.688   0.008 -1.3350 -0.8641 -1.2833
  850SOL    HW2 2550   0.491   1.576   0.126  0.1505  0.2215 -1.2445
  851SOL     OW 2551   0.272   1.275   0.597  0.3493 -0.0414  0.0472
  851SOL    HW1 2552   0.172   1.270   0.617  0.2385  0.4243 -0.2858
  851SOL    HW2 2553   0.303   1.180   0.572 -1.1080  0.6038 -1.6324
  852SOL     OW 2554   1.543   2.414   1.445 -0.1981  0.2128 -0.0486
  852SOL    HW1 2555   1.598   2.347   1.492 -1.2668 -0.5374 -1.3963
  852SOL    HW2 2556   1.493   2.471   1.514 -1.2083  0.1274 -1.3449
  853SOL     OW 2557   0.067   1.438   0.167 -0.0853  0.0287  0.3145
  853SOL    HW1 2558   3.098   1.481   0.121  1.3532 -0.7052  1.6393
  853SOL    HW2 2559   0.076   1.481   0.262 -0.7963  2.6298 -0.5112
  854SOL     OW 2560   1.545   1.213   2.087 -0.4759  0.5167  0.2349
  854SOL    HW1 2561   1.500   1.247   2.176 -0.5853  0.9495 -1.1120
  854SOL    HW2 2562   1.471   1.176   2.028  2.9832  0.1676  1.5590
  855SOL     OW 2563   0.529   2.312   2.852 -0.5250  0.0389 -0.2633
  855SOL    HW1 2564   0.431   2.330   2.832  0.0178  0.7241 -1.6802
  855SOL    HW2 2565   0.561   2.368   2.931  1.1605 -2.1727  1.9632
  856SOL     OW 2566   0.201   0.719   1.621  0.4890  0.5753 -0.0436
  856SOL    HW1 2567   0.300   0.700   1.644  0.2433 -0.1090 -0.2506
  856SOL    HW2 2568   0.189   0.778   1.543  0.1013 -2.4947  0.4240
  857SOL     OW 2569   1.063   1.286   2.128 -0.2129  0.4054 -0.1879
  857SOL    HW1 2570   1.095   1.209   2.191 -0.6014 -1.9910  0.2021
  857SOL    HW2 2571   1.002   1.346   2.183  1.0230 -3.0732 -2.7021
  858SOL     OW 2572   0.216   1.542   2.427  0.2683 -0.3307 -0.1307
  858SOL    HW1 2573   0.201   1.593   2.515 -0.0192  0.7761  1.6688
  858SOL    HW2 2574   0.282   1.596   2.369 -0.1502  2.3651  2.3446
  859SOL     OW 2575   2.707   3.003   0.970  0.0623 -0.4953 -0.2181
  859SOL    HW1 2576   2.642   3.073   1.013  0.2488 -0.2895 -3.2735
  859SOL    HW2 2577   2.787   3.046   0.921  2.8989 -0.5561  3.8588
  860SOL     OW 2578   2.258   2.913   3.106  0.9295  0.4837 -0.0502
  860SOL    HW1 2579   2.258   2.906   0.094 -0.3350  0.1984 -0.9248
  860SOL    HW2 2580   2.332   2.860   3.062 -1.1527  1.1565 -0.3420
  861SOL     OW 2581   0.620   0.358   0.352 -0.3557  0.0729  0.1801
  861SOL    HW1 2582   0.589   0.266   0.325  0.5392  1.4480 -0.7993
  861SOL    HW2 2583   0.551   0.431   0.338  0.7947 -0.3015  0.4704
  862SOL     OW 2584   1.252   0.307   1.937  0.2999  0.6269 -0.5904
  862SOL    HW1 2585   1.291   0.242   1.864  1.2598 -2.4472  0.0342
  862SOL    HW2 2586   1.322   0.377   1.959 -1.2479  2.7646  1.1487
  863SOL     OW 2587   2.608   2.301   1.133  0.2452  0.4774  0.2489
  863SOL    HW1 2588   2.511   2.269   1.123  2.6336  0.1198  0.3798
  863SOL    HW2 2589   2.671   2.222   1.114  0.2556 -1.6753  0.0996
  864SOL     OW 2590   2.379   3.014   2.217  0.1247  0.3667  0.1233
  864SOL    HW1 2591   2.299   3.048   2.272 -0.3498 -2.5498  0.3019
  864SOL    HW2 2592   2.466   3.022   2.267  0.0124  1.9498 -2.1223
  865SOL     OW 2593   0.939   0.547   1.765 -0.4108 -0.3848 -0.3877
  865SOL    HW1 2594   0.901   0.506   1.845  0.9137  1.4190 -1.5630
  865SOL    HW2 2595   1.013   0.609   1.803 -0.7849 -2.3981  1.5364
  866SOL     OW 2596   2.049   2.993   1.183 -0.1727  0.0386 -0.3991
  866SOL    HW1 2597   2.134   3.041   1.144 -2.0141 -1.3079  0.3399
  866SOL    HW2 2598   1.966   3.024   1.142  2.9654 -0.3730 -0.0546
  867SOL     OW 2599   2.726   2.486   0.701 -0.0595  0.3412  0.6709
  867SOL    HW1 2600   2.713   2.392   0.743  0.7755 -2.0959  0.9328
  867SOL    HW2 2601   2.729   2.561   0.772 -0.1004 -1.9430  0.0394
  868SOL     OW 2602   0.691   2.094   1.415 -0.1188 -0.2248  0.5991
  868SOL    HW1 2603   0.780   2.142   1.396 -0.0383  2.0445  1.2726
  868SOL    HW2 2604   0.610   2.148   1.383  2.2433 -3.3987  0.7047
  869SOL     OW 2605   2.318   2.361   3.001 -0.1161 -0.5094  0.1104
  869SOL    HW1 2606   2.415   2.338   2.989 -2.8808  1.9119  1.1827
  869SOL    HW2 2607   2.308   2.445   3.057  1.1757  0.1842  0.4211
  870SOL     OW 2608   2.026   1.727   0.929  0.3805  0.5946  0.0867
  870SOL    HW1 2609   2.063   1.639   0.889  0.0100  1.8506 -1.4559
  870SOL    HW2 2610   2.035   1.727   1.031  0.3105  1.0236 -0.5982
  871SOL     OW 2611   0.265   1.765   1.611  1.5805 -0.2129 -0.2286
  871SOL    HW1 2612   0.268   1.858   1.651 -0.6160 -0.1075  0.6457
  871SOL    HW2 2613   0.300   1.691   1.674 -0.3218  1.5000 -1.5806
  872SOL     OW 2614   0.543   1.305   2.146  0.3719  0.4740 -0.1594
  872SOL    HW1 2615   0.558   1.403   2.169  0.9749 -0.2490 -0.0435
  872SOL    HW2 2616   0.599   1.243   2.201 -1.5695  2.8087  2.0697
  873SOL     OW 2617   1.056   2.237   1.876  0.1804 -0.0519  0.3727
  873SOL    HW1 2618   1.040   2.138   1.902 -2.0936  1.0325 -0.4802
  873SOL    HW2 2619   0.965   2.270   1.841  0.6687 -0.5117  1.2444
  874SOL     OW 2620   1.311   1.067   2.017 -0.0380 -0.0893  0.0398
  874SOL    HW1 2621   1.237   1.099   1.954 -0.1097  1.5227  0.5302
  874SOL    HW2 2622   1.284   1.072   2.116  2.5470  0.8741  1.4260
  875SOL     OW 2623   2.716   2.744   0.852 -0.7637  0.1122 -0.0213
  875SOL    HW1 2624   2.699   2.666   0.921  3.1966  1.5203  0.5860
  875SOL    HW2 2625   2.699   2.833   0.899 -0.2177 -2.3694 -0.4773
  876SOL     OW 2626   0.951   1.231   0.519  0.0190 -0.7900 -0.3379
  876SOL    HW1 2627   1.007   1.277   0.449  1.8876 -2.1344  0.0370
  876SOL    HW2 2628   0.877   1.178   0.476 -0.3133 -0.4913  1.9779
  877SOL     OW 2629   2.869   0.188   1.065  0.1443 -0.8443 -0.0539
  877SOL    HW1 2630   2.888   0.158   0.968  0.8584  0.1827 -1.5228
  877SOL    HW2 2631   2.924   0.149   1.139 -0.9079  0.3156 -3.9821
  878SOL     OW 2632   2.624   1.765   0.360 -0.3835 -0.4178 -0.1484
  878SOL    HW1 2633   2.674   1.737   0.444  2.1101 -2.6709 -0.5097
  878SOL    HW2 2634   2.524   1.761   0.371 -1.3511 -1.3905 -1.3631
  879SOL     OW 2635   2.432   1.922   1.261  0.4262 -0.2820 -0.0020
  879SOL    HW1 2636   2.356   1.874   1.309 -1.7042 -0.4187  4.0767
  879SOL    HW2 2637   2.422   1.912   1.158  2.8260 -0.3139 -0.9353
  880SOL     OW 2638   0.200   2.627   0.775 -0.1367  0.1214  0.5081
  880SOL    HW1 2639   0.123   2.641   0.840  0.6911  1.4839  0.0810
  880SOL    HW2 2640   0.264   2.705   0.779  0.3383 -2.1502  0.4413
  881SOL     OW 2641   1.280   0.992   0.926  0.5258 -0.1496  0.2261
  881SOL    HW1 2642   1.251   1.082   0.886  1.0121  1.4899 -0.0068
  881SOL    HW2 2643   1.219   0.925   0.886  2.3146 -2.4372  0.8648
  882SOL     OW 2644   2.437   0.950   2.888 -0.5453 -0.3715 -0.1099
  882SOL    HW1 2645   2.356   0.897   2.856  0.0384  1.2508  4.1162
  882SOL    HW2 2646   2.493   0.971   2.806 -0.5822  0.9090 -0.4503
  883SOL     OW 2647   1.010   3.054   1.651  0.0422  0.3458 -0.4991
  883SOL    HW1 2648   1.030   0.010   1.730 -1.0443  3.0839  2.6473
  883SOL    HW2 2649   1.087   3.005   1.613 -3.6473  1.5293  0.0506
  884SOL     OW 2650   2.892   3.105   0.812  0.3600 -0.5747  0.6651
  884SOL    HW1 2651   2.991   3.105   0.800 -2.0326  0.9449  0.3871
  884SOL    HW2 2652   2.842   0.011   0.726  0.2521 -0.5536 -1.1217
  885SOL     OW 2653   1.209   0.895   1.389  0.2683 -0.1813  0.0426
  885SOL    HW1 2654   1.209   0.946   1.479 -0.5053 -1.7254  1.5557
  885SOL    HW2 2655   1.272   0.938   1.328 -2.7527  2.8859  1.7912
  886SOL     OW 2656   1.820   0.943   2.589 -0.0848 -0.1650  0.0484
  886SOL    HW1 2657   1.775   0.854   2.612 -0.6878 -2.4719 -2.6395
  886SOL    HW2 2658   1.919   0.936   2.573 -1.2945 -0.3450 -0.7416
  887SOL     OW 2659   1.779   0.626   1.076 -0.0788 -0.0599  0.0272
  887SOL    HW1 2660   1.750   0.638   0.977  1.5487  1.2681 -0.7358
  887SOL    HW2 2661   1.706   0.582   1.131  0.2130 -1.8219  1.9990
  888SOL     OW 2662   2.070   1.625   1.885 -0.5647  0.1809 -0.4122
  888SOL    HW1 2663   2.038   1.530   1.873  0.5830 -0.3429 -0.9489
  888SOL    HW2 2664   2.175   1.629   1.884  1.8625  1.3167 -0.5041
  889SOL     OW 2665   2.280   2.196   0.797 -0.5972  0.0179 -0.0819
  889SOL    HW1 2666   2.246   2.281   0.755 -0.7596 -0.5633  2.0202
  889SOL    HW2 2667   2.206   2.139   0.835  2.3398 -1.2705 -1.3139
  890SOL     OW 2668   1.047   1.952   0.675  0.0082 -1.1874  0.8173
  890SOL    HW1 2669   1.145   1.957   0.705  2.3878  0.5478  0.6469
  890SOL    HW2 2670   0.985   1.948   0.760 -0.5810 -0.6081 -1.1828
  891SOL     OW 2671   2.564   0.624   2.419  0.5270 -0.6597  0.4263
  891SOL    HW1 2672   2.599   0.590   2.509 -1.6951 -5.4870 -0.5213
  891SOL    HW2 2673   2.510   0.558   2.365  0.3420  2.0001 -1.0473
  892SOL     OW 2674   1.155   0.553   2.131  0.4479  0.4324  0.5444
  892SOL    HW1 2675   1.202   0.466   2.134 -2.9284  2.6586  0.8271
  892SOL    HW2 2676   1.146   0.591   2.221  1.6687  0.4637 -3.0584
  893SOL     OW 2677   1.529   0.540   1.427  0.0779 -0.1721 -0.2715
  893SOL    HW1 2678   1.582   0.481   1.489 -0.4786 -0.2720 -0.7071
  893SOL    HW2 2679   1.446   0.576   1.484 -1.6925  2.6567  2.2601
  894SOL     OW 2680   2.636   0.377   0.674  0.1378  0.3444 -0.3521
  894SOL    HW1 2681   2.572   0.299   0.667  0.8349 -2.4863 -0.9341
  894SOL    HW2 2682   2.711   0.372   0.603 -0.5328  3.2339  1.0303
  895SOL     OW 2683   2.024   2.428   2.830  0.4692  0.2164  0.1688
  895SOL    HW1 2684   2.038   2.510   2.886 -0.0851 -0.4149 -1.6802
  895SOL    HW2 2685   2.041   2.342   2.883  0.4183 -0.0731  2.6177
  896SOL     OW 2686   1.740   2.921   1.631  0.0114  0.0075 -0.3724
  896SOL    HW1 2687   1.794   2.995   1.585  0.6028  1.0501 -0.4456
  896SOL    HW2 2688   1.663   2.886   1.571  4.3185  0.9710 -1.0703
  897SOL     OW 2689   0.272   2.195   1.991 -0.5350  0.4903  0.5719
  897SOL    HW1 2690   0.365   2.218   1.947  1.5460  1.5753 -1.7752
  897SOL    HW2 2691   0.281   2.105   2.034 -2.4441  1.0014  0.2275
  898SOL     OW 2692   2.447   1.861   2.054 -0.3092  0.0611  0.0841
  898SOL    HW1 2693   2.499   1.847   1.966  0.4481  1.5401 -2.2179
  898SOL    HW2 2694   2.495   1.805   2.132  1.9861 -0.3923 -1.8525
  899SOL     OW 2695   1.758   2.261   0.490 -0.5399 -0.2315  0.0866
  899SOL    HW1 2696   1.842   2.305   0.523 -3.0519 -0.4205 -0.5830
  899SOL    HW2 2697   1.780   2.161   0.469  0.4130  0.1693 -0.6497
  900SOL     OW 2698   0.884   0.421   2.976  0.1995 -0.6100  0.7465
  900SOL    HW1 2699   0.917   0.517   2.995  2.6690  0.2860  0.4739
  900SOL    HW2 2700   0.895   0.360   3.055  1.0010 -0.5259 -1.1760
  901SOL     OW 2701   1.221   1.933   2.343 -0.8886 -0.2580  0.1134
  901SOL    HW1 2702   1.123   1.957   2.325  1.7755  1.3752  1.2433
  901SOL    HW2 2703   1.264   1.994   2.416  1.7226 -0.4258  0.8883
  902SOL     OW 2704   2.716   0.365   3.080  0.1299 -0.2583  0.2433
  902SOL    HW1 2705   2.775   0.436   3.037 -0.4912 -1.6448 -1.4256
  902SOL    HW2 2706   2.696   0.301   3.002  3.0458 -0.8066 -0.2557
  903SOL     OW 2707   2.012   0.720   2.343 -0.4714  0.1428  0.2164
  903SOL    HW1 2708   2.025   0.809   2.387  1.2495 -1.1946 -1.4745
  903SOL    HW2 2709   2.094   0.703   2.277  3.3295  1.4451 -1.3459
  904SOL     OW 2710   1.424   0.928   2.413 -0.4424 -0.4154  0.4766
  904SOL    HW1 2711   1.506   0.984   2.442 -0.5181  1.1034 -1.4402
  904SOL    HW2 2712   1.453   0.852   2.349  2.4671  0.6374 -4.2494
  905SOL     OW 2713   2.083   2.885   1.827  0.1530 -0.3982  0.3855
  905SOL    HW1 2714   2.123   2.928   1.741  0.6142 -0.5014 -1.4492
  905SOL    HW2 2715   1.994   2.836   1.801 -3.1894 -1.9163 -2.0469
  906SOL     OW 2716   2.082   2.113   0.419 -0.4004 -0.1877  0.6489
  906SOL    HW1 2717   2.153   2.181   0.411 -1.5893 -0.0766 -0.3659
  906SOL    HW2 2718   2.076   2.064   0.510  1.3801 -2.0905 -0.0433
  907SOL     OW 2719   1.470   2.781   0.768  0.4124  0.0056  0.3175
  907SOL    HW1 2720   1.549   2.847   0.780 -1.7462 -1.1406 -2.7519
  907SOL    HW2 2721   1.505   2.697   0.721  1.8418  1.8182  2.5522
  908SOL     OW 2722   1.778   2.135   2.547  0.4357 -0.2615  0.2307
  908SOL    HW1 2723   1.879   2.134   2.523  1.9538 -0.4198 -0.4697
  908SOL    HW2 2724   1.725   2.178   2.468  1.5185 -1.1572  0.1592
  909SOL     OW 2725   2.067   0.572   2.027 -0.3155  0.1579  0.2591
  909SOL    HW1 2726   2.022   0.636   1.958 -0.4253 -3.0177  0.0128
  909SOL    HW2 2727   2.134   0.623   2.090  0.6627 -1.7930  2.2077
  910SOL     OW 2728   1.401   0.253   2.899  0.2670  0.3514 -0.3927
  910SOL    HW1 2729   1.377   0.286   2.990 -2.1430 -0.7437  0.8897
  910SOL    HW2 2730   1.314   0.253   2.841 -3.2085 -2.4126 -0.9010
  911SOL     OW 2731   3.061   1.042   0.107  0.2251  1.1935 -0.6007
  911SOL    HW1 2732   3.067   1.097   0.195  0.1727  0.3568  0.3643
  911SOL    HW2 2733   3.041   0.943   0.136  0.8865 -2.0302 -2.5631
  912SOL     OW 2734   0.097   2.561   0.522  0.2309  0.1640  0.0292
  912SOL    HW1 2735   0.113   2.480   0.460  0.5493 -4.4795 -2.6365
  912SOL    HW2 2736   0.145   2.535   0.611  2.4688  1.7731  2.4018
  913SOL     OW 2737   2.861   2.194   2.471  0.1544  0.4501 -0.0386
  913SOL    HW1 2738   2.903   2.179   2.379 -0.3825 -0.5769 -0.7776
  913SOL    HW2 2739   2.916   2.144   2.540  0.1098 -0.2090  0.3352
  914SOL     OW 2740   1.488   1.714   0.999 -0.5078  0.1421  0.0306
  914SOL    HW1 2741   1.449   1.629   0.958 -0.1528  1.5099 -0.3255
  914SOL    HW2 2742   1.417   1.753   1.062  2.4271  0.4751  0.0276
  915SOL     OW 2743   0.295   2.899   2.102  0.2124  0.1607 -0.3041
  915SOL    HW1 2744   0.254   2.802   2.080  0.4702 -2.9456  0.0584
  915SOL    HW2 2745   0.215   2.959   2.125 -1.8098  1.0196 -0.8133
  916SOL     OW 2746   0.501   0.178   1.668 -0.2346 -0.1116 -0.0406
  916SOL    HW1 2747   0.588   0.186   1.728  2.3477  0.2775  2.4317
  916SOL    HW2 2748   0.447   0.263   1.693 -0.2184  0.3198  1.7793
  917SOL     OW 2749   2.805   0.651   0.308  0.0460  0.7292  0.6154
  917SOL    HW1 2750   2.813   0.548   0.286 -1.3177 -0.5329 -0.7573
  917SOL    HW2 2751   2.713   0.683   0.281  1.1103 -0.1681  1.3245
  918SOL     OW 2752   1.710   2.191   2.978 -0.7421  0.0494  0.0471
  918SOL    HW1 2753   1.651   2.237   2.903 -1.7490 -0.5410 -2.4734
  918SOL    HW2 2754   1.652   2.178   3.065 -0.4158 -0.2282 -0.3758
  919SOL     OW 2755   1.628   2.831   1.179 -0.2014  0.2289 -0.5863
  919SOL    HW1 2756   1.658   2.921   1.143 -0.6353  0.2205 -1.4748
  919SOL    HW2 2757   1.673   2.760   1.121  0.6177  1.7743  0.8597
  920SOL     OW 2758   1.439   0.351   2.491  0.2757  0.1011  0.2698
  920SOL    HW1 2759   1.428   0.256   2.523 -1.1207  1.7488  0.5119
  920SOL    HW2 2760   1.476   0.414   2.562  0.6225 -1.1053 -0.0927
  921SOL     OW 2761   2.927   0.841   2.739  0.3457 -0.3186 -0.3580
  921SOL    HW1 2762   2.895   0.930   2.781 -0.1332  1.7179  0.9046
  921SOL    HW2 2763   3.010   0.804   2.784  1.6278  0.7680  0.9127
  922SOL     OW 2764   0.171   2.171   1.099 -0.1317  0.0356 -0.0379
  922SOL    HW1 2765   0.181   2.096   1.165 -1.3992  0.9024 -1.1052
  922SOL    HW2 2766   0.206   2.254   1.146 -1.5423 -1.9042 -0.1911
  923SOL     OW 2767   0.582   1.528   1.756  0.1724 -0.3217 -0.0690
  923SOL    HW1 2768   0.620   1.475   1.671  1.9486 -1.2193 -4.6142
  923SOL    HW2 2769   0.482   1.552   1.742 -1.9725 -1.4860 -2.1684
  924SOL     OW 2770   1.682   2.668   2.653 -0.4692  0.8614 -0.1645
  924SOL    HW1 2771   1.735   2.583   2.630  2.9587  0.0324 -2.2511
  924SOL    HW2 2772   1.694   2.703   2.749  1.6002 -1.4047  1.5014
  925SOL     OW 2773   2.659   1.673   0.885 -0.3728 -0.0301  0.0500
  925SOL    HW1 2774   2.640   1.575   0.851 -1.6118  0.5803  0.3186
  925SOL    HW2 2775   2.655   1.681   0.987 -1.6721  1.4283  0.1604
  926SOL     OW 2776   2.185   0.762   1.337  0.6404 -0.2636  0.3006
  926SOL    HW1 2777   2.249   0.697   1.377 -0.3824  1.5209 -1.3003
  926SOL    HW2 2778   2.170   0.843   1.397 -2.2762  0.4454 -2.1055
  927SOL     OW 2779   1.965   0.011   1.607 -0.3723  0.6224  0.1547
  927SOL    HW1 2780   1.964   0.091   1.547 -1.3479 -0.3652  0.8485
  927SOL    HW2 2781   2.050   3.063   1.601  4.6167  0.2147 -0.1037
  928SOL     OW 2782   0.142   1.081   2.165 -0.2038 -0.6149 -0.2817
  928SOL    HW1 2783   0.196   1.150   2.113  3.4452 -0.9705 -0.6033
  928SOL    HW2 2784   0.042   1.078   2.143  2.6477 -0.5923 -2.1907
  929SOL     OW 2785   2.363   0.894   1.598  0.8901 -0.4794 -0.1845
  929SOL    HW1 2786   2.265   0.926   1.574 -0.0657 -0.1993 -2.2123
  929SOL    HW2 2787   2.439   0.949   1.556 -0.4213 -0.6641 -0.0510
  930SOL     OW 2788   2.648   2.663   2.108  0.1458  0.4921  0.1034
  930SOL    HW1 2789   2.581   2.731   2.078  0.6411 -0.7686  2.7243
  930SOL    HW2 2790   2.611   2.565   2.112 -2.1588 -0.6231 -0.5299
  931SOL     OW 2791   1.692   1.285   1.506 -0.3880 -0.1901 -0.0971
  931SOL    HW1 2792   1.644   1.373   1.492  1.3272  1.6685 -0.0071
  931SOL    HW2 2793   1.757   1.300   1.583  1.5859  1.2970 -0.9953
  932SOL     OW 2794   0.440   1.099   1.792 -0.1525  0.7125 -0.3592
  932SOL    HW1 2795   0.456   1.040   1.876  0.2704  1.6299 -1.3877
  932SOL    HW2 2796   0.527   1.122   1.748 -1.0538  0.7480 -0.5871
  933SOL     OW 2797   2.669   2.143   1.719 -0.1777  0.0445 -0.6410
  933SOL    HW1 2798   2.632   2.165   1.627  1.0463 -2.4841  0.8363
  933SOL    HW2 2799   2.639   2.050   1.754  2.2269 -0.0230 -1.1710
  934SOL     OW 2800   0.652   2.016   1.825  0.3976 -0.6777  0.3027
  934SOL    HW1 2801   0.614   1.951   1.897 -2.5414 -0.2623  0.5582
  934SOL    HW2 2802   0.640   1.964   1.740  2.7667  0.1022  1.5628
  935SOL     OW 2803   3.001   1.412   1.633 -0.6807  0.0730 -0.1285
  935SOL    HW1 2804   2.991   1.497   1.690 -1.8408  2.3290  1.3232
  935SOL    HW2 2805   3.019   1.332   1.697 -0.4365  2.6951  0.9485
  936SOL     OW 2806   2.973   1.081   1.420 -0.3243  0.0552 -0.0221
  936SOL    HW1 2807   2.990   1.046   1.327  1.2443  0.8074 -0.1374
  936SOL    HW2 2808   2.961   1.009   1.493 -0.4500 -0.4528  1.1806
  937SOL     OW 2809   1.914   0.518   1.430  0.0291 -0.6629  0.0066
  937SOL    HW1 2810   2.014   0.516   1.433 -0.2145 -2.8211 -0.5968
  937SOL    HW2 2811   1.873   0.597   1.384 -0.9257 -0.3382  2.8670
  938SOL     OW 2812   0.569   2.846   0.111  0.0068 -0.4001  0.2426
  938SOL    HW1 2813   0.491   2.822   0.171  2.3105  0.4847 -2.0890
  938SOL    HW2 2814   0.524   2.864   0.017 -1.4756  0.9728 -1.8400
  939SOL     OW 2815   3.030   2.068   2.644  0.2754 -0.2842  0.6858
  939SOL    HW1 2816   3.031   1.970   2.620  0.5190  2.0230  3.4091
  939SOL    HW2 2817   3.020   2.072   2.748  1.7375  1.2251  1.7021
  940SOL     OW 2818   1.489   2.067   0.337 -0.1493  0.0392 -0.1232
  940SOL    HW1 2819   1.423   2.084   0.411  2.2610 -0.4793 -0.4435
  940SOL    HW2 2820   1.585   2.049   0.374  1.6343  1.3988  0.7259
  941SOL     OW 2821   2.365   2.602   0.041 -0.1056  0.1203  0.4471
  941SOL    HW1 2822   2.320   2.619   0.130 -2.4301  0.1130 -2.9000
  941SOL    HW2 2823   2.460   2.641   0.034  0.8210  1.3662  1.3591
  942SOL     OW 2824   1.683   2.032   0.878  0.4398  0.4445  0.7905
  942SOL    HW1 2825   1.708   1.935   0.873 -1.8813 -0.7458  0.9714
  942SOL    HW2 2826   1.639   2.054   0.969  1.7797  0.1535 -1.2033
  943SOL     OW 2827   2.019   0.749   1.840 -0.2319 -0.3957  0.2122
  943SOL    HW1 2828   2.016   0.721   1.742 -0.3427 -1.5615  1.0188
  943SOL    HW2 2829   2.087   0.821   1.861  2.5637 -3.6630 -1.3633
  944SOL     OW 2830   1.210   1.073   2.262  0.2910 -0.0926 -0.0030
  944SOL    HW1 2831   1.292   1.052   2.318 -1.4737 -1.8908 -1.9465
  944SOL    HW2 2832   1.138   0.999   2.255 -0.6655  0.4744 -2.4551
  945SOL     OW 2833   2.493   2.556   1.535  0.0558  0.2017 -0.0373
  945SOL    HW1 2834   2.560   2.489   1.499  0.7833  0.5863 -0.6086
  945SOL    HW2 2835   2.421   2.515   1.593  0.4147 -0.9014 -4.3784
  946SOL     OW 2836   0.336   1.000   0.281 -0.1928  0.1673 -0.5743
  946SOL    HW1 2837   0.253   1.037   0.332 -2.0655  0.6575  0.0725
  946SOL    HW2 2838   0.409   0.974   0.351  0.9751 -2.6817 -1.0109
  947SOL     OW 2839   1.640   2.503   1.206  0.3657  0.1221 -0.2508
  947SOL    HW1 2840   1.584   2.484   1.292 -1.6165 -1.4145  0.4259
  947SOL    HW2 2841   1.731   2.470   1.228 -2.3236 -0.3733  0.2159
  948SOL     OW 2842   0.264   1.771   0.931 -0.8864  0.3088  0.3998
  948SOL    HW1 2843   0.186   1.808   0.980  2.1564  0.5536  2.3550
  948SOL    HW2 2844   0.250   1.676   0.907 -0.2909  1.1830 -1.6941
  949SOL     OW 2845   1.034   1.370   1.029  0.0166  0.2256 -0.1925
  949SOL    HW1 2846   1.002   1.308   1.105 -2.3113 -0.1602  2.7623
  949SOL    HW2 2847   1.043   1.320   0.940 -0.7911 -0.9717 -0.6142
  950SOL     OW 2848   0.390   0.555   1.114 -0.2614 -0.4300  0.3776
  950SOL    HW1 2849   0.469   0.589   1.062  1.2177  0.9903  4.4418
  950SOL    HW2 2850   0.306   0.598   1.082  1.0574 -1.8549  2.4728
  951SOL     OW 2851   0.676   2.075   2.225 -0.5102  0.4945  0.4236
  951SOL    HW1 2852   0.728   2.098   2.137 -2.2704 -0.6520  0.9462
  951SOL    HW2 2853   0.693   2.147   2.298  1.5546 -0.3103  4.1526
  952SOL     OW 2854   1.343   1.458   3.103 -0.4071 -0.3356 -0.0237
  952SOL    HW1 2855   1.406   1.526   0.035 -1.2320 -0.9161 -0.3779
  952SOL    HW2 2856   1.245   1.474   3.106 -0.0140 -1.5561 -0.5919
  953SOL     OW 2857   1.155   2.968   3.007 -0.1982  0.6375  0.2901
  953SOL    HW1 2858   1.197   2.982   3.096  1.0148 -0.8993 -0.8824
  953SOL    HW2 2859   1.084   2.894   3.011  0.8925 -1.2912  1.5057
  954SOL     OW 2860   1.754   1.267   0.202  0.2169  0.6535 -0.2417
  954SOL    HW1 2861   1.762   1.166   0.172 -0.2973  0.1676  0.1102
  954SOL    HW2 2862   1.700   1.317   0.132 -2.5666 -2.2251 -0.7354
  955SOL     OW 2863   0.056   2.933   0.033  0.0890 -0.1846 -0.2384
  955SOL    HW1 2864   0.152   2.966   0.038 -3.1215  0.1209 -0.0969
  955SOL    HW2 2865   0.036   2.899   3.049  2.7904  1.8067 -1.3798
  956SOL     OW 2866   1.207   0.645   1.296  0.5687  0.0616 -0.7653
  956SOL    HW1 2867   1.198   0.741   1.337 -0.8915  0.5118  1.7432
  956SOL    HW2 2868   1.259   0.586   1.359 -1.2585  0.1404  0.6507
  957SOL     OW 2869   1.181   1.463   1.232  0.3578  0.2593 -0.0637
  957SOL    HW1 2870   1.112   1.508   1.288  1.8800 -1.3522 -0.8244
  957SOL    HW2 2871   1.124   1.425   1.159  1.1516 -2.8195 -0.7387
  958SOL     OW 2872   0.469   1.934   0.856 -0.9690  0.3109 -0.1972
  958SOL    HW1 2873   0.407   1.866   0.897  1.1613  0.9408 -0.9010
  958SOL    HW2 2874   0.518   1.886   0.781 -0.2611 -1.3712  1.2749
  959SOL     OW 2875   1.390   1.431   1.042 -0.1562 -0.0400 -0.5440
  959SOL    HW1 2876   1.485   1.426   1.072 -1.0071  1.1455 -1.4684
  959SOL    HW2 2877   1.325   1.443   1.122 -0.4857 -0.8283  1.7215
  960SOL     OW 2878   3.055   1.349   2.866 -0.3064  0.6364 -0.1947
  960SOL    HW1 2879   3.066   1.452   2.859  2.2378  3.1855 -0.8135
  960SOL    HW2 2880   3.093   1.303   2.783  2.3463 -0.3473  0.2748
  961SOL     OW 2881   0.908   1.389   1.442  0.1824 -0.1471 -0.6582
  961SOL    HW1 2882   0.922   1.327   1.363 -1.7722 -1.5201 -0.8089
  961SOL    HW2 2883   0.998   1.405   1.491 -1.2169 -3.2143 -0.7948
  962SOL     OW 2884   0.852   1.346   0.747 -0.0048 -0.0497  0.9475
  962SOL    HW1 2885   0.881   1.443   0.728 -0.0037  0.6344  1.9164
  962SOL    HW2 2886   0.899   1.284   0.682 -3.2618  2.3817 -0.9780
  963SOL     OW 2887   1.525   1.501   2.602  0.1384  0.1255 -0.3858
  963SOL    HW1 2888   1.568   1.576   2.546  0.2142  0.4124 -0.3620
  963SOL    HW2 2889   1.466   1.541   2.674 -1.3058 -1.2491 -1.5395
  964SOL     OW 2890   0.561   2.654   2.821 -0.1931 -0.1377  0.4509
  964SOL    HW1 2891   0.614   2.613   2.743 -0.2896  3.4741 -1.0297
  964SOL    HW2 2892   0.578   2.595   2.897  0.9543  1.1826  1.1620
  965SOL     OW 2893   0.498   2.329   0.123  0.0363 -0.3214  0.0833
  965SOL    HW1 2894   0.437   2.250   0.107  2.2565 -0.4479  1.5239
  965SOL    HW2 2895   0.444   2.403   0.169  0.9438 -1.5096 -1.0071
  966SOL     OW 2896   3.002   1.618   2.789 -0.8030 -0.2248  0.1102
  966SOL    HW1 2897   2.925   1.554   2.807 -3.2794  0.3472  0.2115
  966SOL    HW2 2898   2.988   1.693   2.852 -1.0663 -0.6263 -0.3340
  967SOL     OW 2899   2.372   3.025   2.591 -0.0678  0.3945 -0.3854
  967SOL    HW1 2900   2.449   3.021   2.528  0.2833 -0.6113  0.4458
  967SOL    HW2 2901   2.358   2.927   2.619  2.0668 -1.4082 -0.1922
  968SOL     OW 2902   2.119   0.233   0.435  0.4357 -0.0847 -0.7529
  968SOL    HW1 2903   2.174   0.161   0.388  2.1409  1.8745 -1.7951
  968SOL    HW2 2904   2.145   0.228   0.532  0.3021  1.7349 -1.9039
  969SOL     OW 2905   0.315   1.243   2.013 -0.2317 -0.0682  0.3066
  969SOL    HW1 2906   0.357   1.183   1.936  0.0511 -0.9242 -1.1323
  969SOL    HW2 2907   0.392   1.274   2.075  0.3203  0.7179 -2.2080
  970SOL     OW 2908   1.678   1.186   1.001 -0.7230  0.1384  0.2988
  970SOL    HW1 2909   1.769   1.135   1.013  0.9007 -0.1328 -0.9138
  970SOL    HW2 2910   1.615   1.150   0.926  1.2188  1.1628  0.8664
  971SOL     OW 2911   2.302   3.055   1.084 -0.9886 -0.1797 -0.2025
  971SOL    HW1 2912   2.354   2.978   1.122 -2.7429  0.3106  2.5548
  971SOL    HW2 2913   2.322   0.037   1.129  2.1576  2.4625 -0.0661
  972SOL     OW 2914   0.479   2.846   1.519  0.3471  0.2794  0.1550
  972SOL    HW1 2915   0.523   2.802   1.440 -0.9215 -3.0072  0.0875
  972SOL    HW2 2916   0.511   2.941   1.527 -1.6062 -0.0230 -0.6461
  973SOL     OW 2917   0.549   0.428   2.722 -0.0819  0.3155  0.0300
  973SOL    HW1 2918   0.547   0.492   2.643 -1.1962  0.0395 -2.1886
  973SOL    HW2 2919   0.459   0.420   2.765 -0.0060  1.5794  2.0843
  974SOL     OW 2920   1.993   1.370   1.918 -0.0146 -0.3713 -0.1391
  974SOL    HW1 2921   1.910   1.352   1.979 -0.6696 -1.2001 -0.2007
  974SOL    HW2 2922   2.082   1.336   1.958  3.8388  0.0882 -0.5833
  975SOL     OW 2923   3.056   0.059   1.225  0.0744  0.0969  0.5751
  975SOL    HW1 2924   3.051   3.073   1.258 -2.2762 -1.0929 -2.5015
  975SOL    HW2 2925   3.108   0.065   1.137 -0.4298 -1.9783 -2.5634
  976SOL     OW 2926   0.806   1.850   2.352  0.0640  0.5864  0.1205
  976SOL    HW1 2927   0.808   1.848   2.456  1.6405  1.0544  0.5238
  976SOL    HW2 2928   0.717   1.886   2.321  0.3664 -0.2223  0.1109
  977SOL     OW 2929   0.887   2.287   0.363  0.2656  0.1399  0.5103
  977SOL    HW1 2930   0.921   2.346   0.289 -1.3671  2.2882 -1.6352
  977SOL    HW2 2931   0.920   2.194   0.339  0.7190 -0.0621  1.8546
  978SOL     OW 2932   2.765   1.640   2.413 -0.0566 -0.0593  0.2425
  978SOL    HW1 2933   2.857   1.641   2.359  2.8610  1.9001  0.6163
  978SOL    HW2 2934   2.766   1.697   2.494 -4.6062 -2.0892  0.3576
  979SOL     OW 2935   1.569   2.819   1.441 -0.5768  0.0662  0.0046
  979SOL    HW1 2936   1.587   2.805   1.339  5.0258  2.4377 -2.8205
  979SOL    HW2 2937   1.512   2.744   1.479 -0.7073  0.7343  1.8335
  980SOL     OW 2938   1.477   1.230   2.684  0.4345  0.2920  0.1792
  980SOL    HW1 2939   1.390   1.217   2.629 -0.2888  1.4807 -0.8255
  980SOL    HW2 2940   1.517   1.319   2.660 -0.3441 -1.1799  2.3284
  981SOL     OW 2941   2.333   0.222   1.866  0.0331  0.5199 -0.1889
  981SOL    HW1 2942   2.286   0.311   1.868  2.9346 -1.9775  1.1235
  981SOL    HW2 2943   2.269   0.143   1.858 -0.0996 -2.3301 -0.5345
  982SOL     OW 2944   0.252   0.525   2.891 -0.6943  0.6824 -0.3554
  982SOL    HW1 2945   0.240   0.458   2.968 -1.0428 -1.9924 -1.8620
  982SOL    HW2 2946   0.317   0.596   2.924  0.1861  1.0651 -3.5610
  983SOL     OW 2947   2.375   1.088   2.393 -0.2513 -0.1732  0.0186
  983SOL    HW1 2948   2.388   1.163   2.463 -0.3504  0.8487 -0.9929
  983SOL    HW2 2949   2.390   0.993   2.436 -0.1754 -0.8414  2.0971
  984SOL     OW 2950   0.971   0.014   2.133 -0.0411  0.3330 -0.0501
  984SOL    HW1 2951   1.061   3.074   2.135  0.4757 -1.0516  0.7995
  984SOL    HW2 2952   0.890   3.064   2.115 -3.3062  0.9325 -0.9954
  985SOL     OW 2953   1.875   1.582   1.670 -0.4163 -0.5783 -0.8561
  985SOL    HW1 2954   1.912   1.488   1.643  2.1366 -1.7606  0.4538
  985SOL    HW2 2955   1.947   1.623   1.730 -0.0083  0.3756 -0.6034
  986SOL     OW 2956   2.407   0.698   1.820  0.0193  0.1954  0.7185
  986SOL    HW1 2957   2.496   0.652   1.800 -0.8508  0.0443  1.0697
  986SOL    HW2 2958   2.382   0.753   1.741  0.8447 -3.8106 -0.0570
  987SOL     OW 2959   2.897   0.939   1.137 -0.1578  0.2009 -0.3536
  987SOL    HW1 2960   2.934   0.848   1.163 -1.9392  2.0792 -0.7017
  987SOL    HW2 2961   2.813   0.963   1.195 -3.1220  1.8358  1.2568
  988SOL     OW 2962   0.088   0.781   1.908  0.6577  0.2916 -0.3438
  988SOL    HW1 2963   0.082   0.883   1.910  2.4430  3.2087 -0.4448
  988SOL    HW2 2964   0.098   0.745   1.812 -0.9323 -0.6007  1.2909
  989SOL     OW 2965   2.213   1.470   0.450  0.0158  0.4483  0.2086
  989SOL    HW1 2966   2.176   1.564   0.429 -1.3388 -1.5892 -0.6023
  989SOL    HW2 2967   2.164   1.407   0.389 -0.2654  0.4718 -0.7604
  990SOL     OW 2968   1.141   0.338   2.505 -0.3333  0.1043 -0.7524
  990SOL    HW1 2969   1.231   0.379   2.472  0.2539  0.4591 -0.2492
  990SOL    HW2 2970   1.093   0.297   2.426 -0.2628  2.0816  1.1602
  991SOL     OW 2971   1.314   1.088   0.612 -0.1493  0.0004  0.5022
  991SOL    HW1 2972   1.323   1.124   0.517  3.8466  0.6830  1.3171
  991SOL    HW2 2973   1.218   1.086   0.641  1.9083 -1.5833 -4.6474
  992SOL     OW 2974   2.097   1.195   0.455 -0.5328 -0.2432 -0.2161
  992SOL    HW1 2975   2.046   1.249   0.387  0.5636 -0.2666  1.4395
  992SOL    HW2 2976   2.148   1.251   0.522 -0.3790 -0.6418 -1.1242
  993SOL     OW 2977   0.034   0.787   0.626  0.0508  0.3512 -0.0260
  993SOL    HW1 2978   3.086   0.778   0.708 -0.2405 -0.1265  1.8362
  993SOL    HW2 2979   0.024   0.716   0.552  0.2509 -0.0294  0.6566
  994SOL     OW 2980   0.126   2.074   2.478 -0.0974  0.0401 -0.9322
  994SOL    HW1 2981   0.035   2.084   2.524 -1.4267  0.8454  1.4752
  994SOL    HW2 2982   0.193   2.031   2.543 -1.3214  2.0725  0.2602
  995SOL     OW 2983   1.843   1.252   2.818 -0.5519  0.5132  0.3359
  995SOL    HW1 2984   1.925   1.208   2.776  0.5405 -0.8126 -1.2434
  995SOL    HW2 2985   1.780   1.171   2.834  0.2443 -1.4364  0.6991
  996SOL     OW 2986   2.485   1.099   0.205 -0.2990  0.6625 -0.1102
  996SOL    HW1 2987   2.398   1.064   0.248  0.4409  0.5196 -2.0366
  996SOL    HW2 2988   2.528   1.033   0.142 -0.2971 -0.2548  1.0260
  997SOL     OW 2989   1.937   1.056   1.844  0.8825  0.3346  0.4470
  997SOL    HW1 2990   2.034   1.025   1.857 -1.5944 -1.3560  1.0590
  997SOL    HW2 2991   1.921   1.130   1.909  1.7068 -3.2222 -0.9725
  998SOL     OW 2992   2.777   1.982   0.252 -0.1275  0.0819  0.3888
  998SOL    HW1 2993   2.717   1.994   0.173  3.5000  1.4376  2.9128
  998SOL    HW2 2994   2.743   1.910   0.309  0.2462  2.5550 -1.9262
  999SOL     OW 2995   3.000   2.304   3.042 -0.0175 -0.1677 -0.1191
  999SOL    HW1 2996   2.967   2.269   0.024 -1.5198  0.0840 -0.0694
  999SOL    HW2 2997   3.022   2.405   3.036  0.4103 -0.9086 -2.9391
 1000SOL     OW 2998   1.026   0.878   2.286 -0.0343 -0.2156  0.2565
 1000SOL    HW1 2999   1.041   0.776   2.287 -1.2420 -1.0029 -1.7888
 1000SOL    HW2 3000   0.926   0.893   2.298 -2.6346  1.3453 -0.8241
   3.11025   3.11025   3.11025
