1000 SPC/Fw water molecules t= 147.00000 step= 147000
 3000
    1SOL     OW    1   2.415   2.762   0.661  0.4037 -0.1133  0.3828
    1SOL    HW1    2   2.513   2.783   0.660  0.2971  1.9768 -0.0222
    1SOL    HW2    3   2.403   2.662   0.680 -1.1249  1.6807 -0.4177
    2SOL     OW    4   1.657   1.868   2.181 -0.1672  0.6857  0.3961
    2SOL    HW1    5   1.741   1.912   2.150 -3.0947  0.2408 -0.3870
    2SOL    HW2    6   1.664   1.847   2.280  1.3295  3.1892 -2.2152
    3SOL     OW    7   1.766   2.515   2.307  0.1738  0.4572  0.5102
    3SOL    HW1    8   1.778   2.484   2.402  3.5419  0.2677  2.4339
    3SOL    HW2    9   1.858   2.524   2.262 -0.2542  0.6170 -2.4101
    4SOL     OW   10   1.664   2.535   1.970 -0.3865 -0.1714 -0.2025
    4SOL    HW1   11   1.652   2.516   2.072  0.0172  0.1573  1.3932
    4SOL    HW2   12   1.731   2.611   1.957 -0.7448 -1.1800 -2.2239
    5SOL     OW   13   0.490   0.563   1.346  0.5057 -0.3285  0.0167
    5SOL    HW1   14   0.557   0.511   1.285  0.4929  1.4037 -0.9453
    5SOL    HW2   15   0.406   0.509   1.359 -0.1898  3.5665 -1.6709
    6SOL     OW   16   2.518   0.920   2.797  0.2200  0.0925  0.0998
    6SOL    HW1   17   2.474   0.855   2.862 -0.1202  1.4352 -0.9793
    6SOL    HW2   18   2.496   0.898   2.699 -0.5964 -2.1361  0.6202
    7SOL     OW   19   0.686   0.447   1.194 -0.3738 -0.1416 -0.2193
    7SOL    HW1   20   0.722   0.356   1.167  1.0742 -1.4413 -1.7880
    7SOL    HW2   21   0.710   0.519   1.129 -2.7413 -1.2051 -1.7240
    8SOL     OW   22   1.225   2.466   1.490  0.0762 -0.5182 -0.5959
    8SOL    HW1   23   1.123   2.458   1.518 -0.4163 -0.2101  2.9324
    8SOL    HW2   24   1.269   2.379   1.517 -2.1570  1.9563 -1.3881
    9SOL     OW   25   0.840   1.144   0.297  0.2165 -0.1396  0.6165
    9SOL    HW1   26   0.846   1.097   0.204 -0.2889 -0.3834 -0.1179
    9SOL    HW2   27   0.751   1.183   0.329  2.0075  0.8916 -0.0981
   10SOL     OW   28   0.711   2.456   2.833  0.1725  0.0553  0.4252
   10SOL    HW1   29   0.661   2.504   2.759  0.5459 -1.2994 -1.0093
   10SOL    HW2   30   0.784   2.506   2.871 -0.6767  0.8407 -1.6995
   11SOL     OW   31   0.123   1.708   3.076  0.2822 -0.2916 -0.3761
   11SOL    HW1   32   0.071   1.783   3.028 -0.6540  1.1192 -1.3627
   11SOL    HW2   33   0.196   1.670   3.014 -0.8656 -2.0672  0.0962
   12SOL     OW   34   0.629   2.906   1.376  0.3904 -0.0097 -0.6480
   12SOL    HW1   35   0.530   2.920   1.376  4.5307 -1.4055  2.4601
   12SOL    HW2   36   0.660   2.887   1.280  2.5024  0.4244 -0.3188
   13SOL     OW   37   0.856   2.764   0.452  0.4390 -0.7193  0.1146
   13SOL    HW1   38   0.851   2.673   0.492  2.3361  3.6647 -0.2822
   13SOL    HW2   39   0.768   2.784   0.400 -0.6829 -2.3891 -2.8862
   14SOL     OW   40   1.413   1.846   0.981  0.1366 -0.2053  0.4738
   14SOL    HW1   41   1.493   1.907   0.974 -0.6619 -0.8720  0.1794
   14SOL    HW2   42   1.360   1.867   1.066 -0.5668 -2.5192  0.5779
   15SOL     OW   43   2.529   0.822   2.245  0.3330  0.0634 -0.1941
   15SOL    HW1   44   2.587   0.766   2.309 -0.2436  1.1504 -1.4621
   15SOL    HW2   45   2.450   0.868   2.296  1.4267  0.4771 -0.0271
   16SOL     OW   46   1.662   2.957   2.922 -0.3004  0.2370  0.2813
   16SOL    HW1   47   1.698   2.980   3.011 -1.3052  2.2026 -1.3568
   16SOL    HW2   48   1.749   2.958   2.866 -0.2021  1.1491  0.3104
   17SOL     OW   49   0.683   2.461   2.022  0.3139  0.0232 -1.2045
   17SOL    HW1   50   0.738   2.524   2.076 -3.3107 -1.4286  1.4744
   17SOL    HW2   51   0.593   2.505   2.006 -1.4295  0.8341  3.0938
   18SOL     OW   52   1.830   0.898   0.090 -0.0814  0.0144  0.0890
   18SOL    HW1   53   1.781   0.877   0.002  0.6919 -0.7973 -1.1526
   18SOL    HW2   54   1.851   0.997   0.093  0.1157 -1.7925 -0.2239
   19SOL     OW   55   2.387   2.229   2.721  0.5368 -0.1516  0.1634
   19SOL    HW1   56   2.371   2.150   2.784  0.9947  1.2632  0.3553
   19SOL    HW2   57   2.489   2.249   2.726 -2.3149 -1.1698  1.1900
   20SOL     OW   58   2.000   1.774   2.327  0.4284 -0.6577 -0.1403
   20SOL    HW1   59   2.051   1.714   2.271 -4.1477  1.8464  1.6018
   20SOL    HW2   60   1.916   1.718   2.354 -1.5710 -0.2933  0.4032
   21SOL     OW   61   0.259   2.216   2.937 -0.0929  0.0922 -0.2204
   21SOL    HW1   62   0.274   2.211   3.041  1.6302 -0.7930  0.7145
   21SOL    HW2   63   0.252   2.124   2.899  0.7123  2.0846 -1.0091
   22SOL     OW   64   2.276   2.954   1.412  0.2348 -0.1072 -0.1390
   22SOL    HW1   65   2.339   2.922   1.492  1.7147 -2.8446  1.7771
   22SOL    HW2   66   2.324   3.021   1.349 -0.0186  0.0394 -1.6020
   23SOL     OW   67   3.070   1.328   1.645  0.2197 -0.0697 -0.5293
   23SOL    HW1   68   0.054   1.341   1.707  1.4701  0.8527  2.4879
   23SOL    HW2   69   0.005   1.273   1.570 -1.4129  0.7637  2.0281
   24SOL     OW   70   2.421   1.889   1.734 -0.0705  0.2456  0.0466
   24SOL    HW1   71   2.430   1.795   1.688 -0.6107 -0.6731 -0.1164
   24SOL    HW2   72   2.325   1.910   1.760 -2.6525 -0.2778  0.8267
   25SOL     OW   73   2.095   2.909   2.704  0.3535 -0.0945  0.0290
   25SOL    HW1   74   2.179   2.869   2.670 -1.0825 -0.2211 -2.0948
   25SOL    HW2   75   2.021   2.862   2.655 -2.4262 -2.4706 -1.2685
   26SOL     OW   76   1.248   2.941   0.623  0.2319 -0.3110 -0.3684
   26SOL    HW1   77   1.327   2.922   0.560 -1.3287  0.6304 -0.8719
   26SOL    HW2   78   1.240   3.042   0.649  2.2366  1.2915 -1.8457
   27SOL     OW   79   1.058   2.067   3.050  0.0768  0.4780  0.7609
   27SOL    HW1   80   1.032   2.121   0.033  2.2852 -0.3585 -1.5288
   27SOL    HW2   81   0.977   2.042   2.990 -0.6088 -0.3819  0.4279
   28SOL     OW   82   2.911   1.658   1.295  0.2739 -0.2889  0.2517
   28SOL    HW1   83   2.928   1.585   1.222  1.0198 -0.8630 -1.3295
   28SOL    HW2   84   2.904   1.746   1.249 -1.6079 -2.2111  2.6539
   29SOL     OW   85   2.469   2.253   2.240  0.0561  0.0912  0.8659
   29SOL    HW1   86   2.477   2.356   2.253  1.0431 -2.7457 -0.6681
   29SOL    HW2   87   2.415   2.201   2.307 -0.6377  2.4822  2.0469
   30SOL     OW   88   0.986   2.686   1.237  0.1708  0.3133  0.3909
   30SOL    HW1   89   1.035   2.774   1.261 -0.1658 -1.5347  1.6884
   30SOL    HW2   90   0.954   2.694   1.141  1.2857 -0.1227  1.2376
   31SOL     OW   91   3.001   2.056   2.047  0.1585 -0.4671 -0.0712
   31SOL    HW1   92   2.947   1.976   2.009 -1.1762 -0.0556  0.0800
   31SOL    HW2   93   0.002   2.039   2.037  0.3250  2.8609  0.3214
   32SOL     OW   94   1.282   1.018   2.147 -0.2227  0.3412 -0.2694
   32SOL    HW1   95   1.263   1.093   2.082 -2.8407  0.8719 -2.5463
   32SOL    HW2   96   1.328   1.057   2.229  3.4603 -1.6679  2.5072
   33SOL     OW   97   0.513   3.011   2.617  0.0175 -0.2908 -0.2571
   33SOL    HW1   98   0.424   3.014   2.669 -0.3326 -1.0992  0.0248
   33SOL    HW2   99   0.539   2.913   2.605 -2.6441 -1.2718 -1.7683
   34SOL     OW  100   1.553   0.040   1.354 -0.5251  0.2335  0.1060
   34SOL    HW1  101   1.484   3.059   1.359  0.5570 -1.5069 -1.6990
   34SOL    HW2  102   1.600   0.045   1.260  2.6533 -0.9876 -4.1290
   35SOL     OW  103   2.020   0.450   1.032  0.0122 -0.6218 -0.2149
   35SOL    HW1  104   2.026   0.383   0.954 -0.4774  0.6099  1.7145
   35SOL    HW2  105   1.977   0.406   1.112  0.3209  2.7007 -0.5558
   36SOL     OW  106   1.995   2.856   2.331 -0.7394 -0.0558 -0.4990
   36SOL    HW1  107   2.082   2.889   2.369  1.6880  1.8993  1.1097
   36SOL    HW2  108   2.016   2.834   2.232 -0.4353  0.2294 -0.8553
   37SOL     OW  109   1.321   2.328   2.524  0.2707  0.1330  0.4615
   37SOL    HW1  110   1.273   2.395   2.583  1.3746 -3.2828 -1.3265
   37SOL    HW2  111   1.345   2.373   2.436  0.8507 -0.5055  3.1721
   38SOL     OW  112   2.353   0.462   2.843 -0.2952 -0.2281  0.1572
   38SOL    HW1  113   2.310   0.543   2.886 -0.8130 -0.7285 -2.0599
   38SOL    HW2  114   2.448   0.444   2.877  0.5704  0.2375 -0.1184
   39SOL     OW  115   1.797   2.161   2.355 -0.2847  0.6150 -0.3302
   39SOL    HW1  116   1.781   2.101   2.435  0.3735 -0.8552  0.6513
   39SOL    HW2  117   1.833   2.112   2.271  0.9991  0.4162 -1.9168
   40SOL     OW  118   0.223   0.198   2.921  0.3632  0.0216  0.0405
   40SOL    HW1  119   0.291   0.253   2.872  0.8279 -1.3575 -0.1582
   40SOL    HW2  120   0.264   0.112   2.963 -0.7531 -0.0138  4.1533
   41SOL     OW  121   1.531   0.891   1.552 -0.0422  0.2344  0.1257
   41SOL    HW1  122   1.536   0.936   1.458 -0.6665  0.9638 -0.8820
   41SOL    HW2  123   1.442   0.907   1.594  0.2544 -0.6223 -1.5472
   42SOL     OW  124   0.245   0.274   1.598 -0.2081 -0.3848  0.3157
   42SOL    HW1  125   0.217   0.176   1.583  1.4943  2.7704 -2.0911
   42SOL    HW2  126   0.341   0.279   1.631 -1.1461 -0.3822 -3.1665
   43SOL     OW  127   1.628   0.745   2.050  0.0095 -0.3872 -0.4267
   43SOL    HW1  128   1.651   0.699   2.137 -0.0032  1.5257 -0.3792
   43SOL    HW2  129   1.719   0.749   2.004 -0.8629  0.3621  0.8709
   44SOL     OW  130   0.118   2.871   2.508 -0.0775 -0.4724  0.3111
   44SOL    HW1  131   0.183   2.901   2.578 -1.3107 -0.4653  0.3550
   44SOL    HW2  132   0.133   2.934   2.431  1.6969 -0.3109 -2.0481
   45SOL     OW  133   0.196   2.373   1.182 -1.2194 -0.2055 -0.4813
   45SOL    HW1  134   0.108   2.417   1.202  1.7875 -3.1242  0.7470
   45SOL    HW2  135   0.258   2.372   1.263  1.4086  0.2539  0.0003
   46SOL     OW  136   2.328   2.324   1.983  0.5720  0.0281  0.2913
   46SOL    HW1  137   2.235   2.367   2.008 -1.5191  1.3958 -0.0193
   46SOL    HW2  138   2.388   2.319   2.062 -0.7387  0.7089 -3.8460
   47SOL     OW  139   1.862   2.031   1.569 -0.4723  0.3843  0.1494
   47SOL    HW1  140   1.784   2.011   1.627 -2.8500  0.5096 -1.3144
   47SOL    HW2  141   1.858   1.969   1.486 -1.3568 -0.6539 -0.5367
   48SOL     OW  142   0.324   1.917   0.383 -0.8078 -0.1965 -0.5793
   48SOL    HW1  143   0.368   1.828   0.407  1.4442 -0.3416  0.8392
   48SOL    HW2  144   0.378   1.996   0.419  0.5050  2.8294 -0.2293
   49SOL     OW  145   2.805   0.588   2.090  0.3607  0.3482 -0.6046
   49SOL    HW1  146   2.896   0.581   2.048 -1.0302  2.2067  0.0607
   49SOL    HW2  147   2.740   0.607   2.014 -0.2676 -2.6892  2.4441
   50SOL     OW  148   2.126   0.592   0.833  0.6776 -0.1506 -0.5505
   50SOL    HW1  149   2.063   0.540   0.896 -2.8290 -0.5524 -0.7893
   50SOL    HW2  150   2.223   0.555   0.841  0.6710 -0.8103 -0.2763
   51SOL     OW  151   1.218   0.635   0.862 -0.1856  0.1140 -0.3192
   51SOL    HW1  152   1.144   0.599   0.923  1.6139  2.2269  0.1500
   51SOL    HW2  153   1.298   0.592   0.898 -0.3774  2.6776  1.9143
   52SOL     OW  154   1.263   1.236   0.146 -0.5898 -0.8258 -0.1130
   52SOL    HW1  155   1.329   1.203   0.072  0.7584  1.1246  1.2159
   52SOL    HW2  156   1.252   1.172   0.221 -1.1408  0.0068 -3.7669
   53SOL     OW  157   1.221   2.071   2.505  0.5888 -0.1656 -0.6107
   53SOL    HW1  158   1.174   2.019   2.582 -1.3187 -2.6883  3.0767
   53SOL    HW2  159   1.263   2.161   2.530  0.5916  1.8937  0.1986
   54SOL     OW  160   1.787   0.866   1.610 -0.0031 -0.1448 -0.0931
   54SOL    HW1  161   1.857   0.796   1.571  2.7655  0.3540  1.2932
   54SOL    HW2  162   1.690   0.845   1.578 -3.4793 -1.3317 -2.0360
   55SOL     OW  163   1.990   2.933   0.641 -0.6793 -0.4749  0.3484
   55SOL    HW1  164   2.060   2.865   0.610 -1.3895 -2.5073  0.9506
   55SOL    HW2  165   1.926   2.890   0.705 -0.1345  2.2917 -0.9904
   56SOL     OW  166   0.837   2.515   1.375  0.4533  0.2450  0.2695
   56SOL    HW1  167   0.899   2.581   1.327 -0.1483 -2.0533  0.7833
   56SOL    HW2  168   0.764   2.560   1.424  0.2968 -2.0638 -0.7186
   57SOL     OW  169   2.125   1.005   0.196 -0.2057  0.4111  0.1560
   57SOL    HW1  170   2.216   1.045   0.204 -3.4529 -2.0050 -2.1254
   57SOL    HW2  171   2.055   1.082   0.189 -1.2489  3.0892 -0.0755
   58SOL     OW  172   3.059   1.212   2.230  0.2619 -0.1287 -0.2886
   58SOL    HW1  173   0.031   1.239   2.303  2.4845  0.4330  1.3661
   58SOL    HW2  174   3.032   1.290   2.169 -0.6180 -1.1935 -2.7914
   59SOL     OW  175   1.031   2.435   2.413  0.2861  0.2055  0.1151
   59SOL    HW1  176   1.089   2.484   2.480 -2.3771  1.7573 -0.4092
   59SOL    HW2  177   0.938   2.420   2.453 -1.0729  0.6744  1.4463
   60SOL     OW  178   2.640   2.710   1.028  0.4189  0.5736 -0.1236
   60SOL    HW1  179   2.546   2.673   1.049  3.6227  1.7334 -1.0803
   60SOL    HW2  180   2.650   2.735   0.932 -1.8272  0.5335 -1.1386
   61SOL     OW  181   1.363   1.988   0.435  0.2272 -0.1394  0.1725
   61SOL    HW1  182   1.271   1.951   0.467 -2.8136 -1.2385 -0.6038
   61SOL    HW2  183   1.419   2.006   0.519  2.8511 -1.2382  1.8106
   62SOL     OW  184   2.180   2.708   2.995 -0.0337  0.2538  0.0803
   62SOL    HW1  185   2.269   2.685   3.039 -1.1584 -0.5233  2.2434
   62SOL    HW2  186   2.158   2.807   2.998 -0.0096 -1.9746 -0.7435
   63SOL     OW  187   1.924   0.190   0.389 -0.1658 -0.1548  0.3363
   63SOL    HW1  188   1.944   0.266   0.452 -0.4668 -1.5645 -3.1410
   63SOL    HW2  189   1.842   0.216   0.333 -2.1389  4.0334 -0.4486
   64SOL     OW  190   0.865   1.076   2.493  0.4457 -0.1060  0.4006
   64SOL    HW1  191   0.943   1.091   2.425  2.5999 -0.9302 -0.3690
   64SOL    HW2  192   0.832   0.981   2.472 -0.6754 -1.3882  0.8595
   65SOL     OW  193   1.259   2.397   0.594 -0.1097 -0.2607  0.1572
   65SOL    HW1  194   1.350   2.441   0.598 -2.7689 -1.6829  2.0353
   65SOL    HW2  195   1.250   2.316   0.660 -0.3246 -1.0826  0.5493
   66SOL     OW  196   0.670   1.312   1.739 -0.1835 -0.0459  0.2130
   66SOL    HW1  197   0.744   1.324   1.807 -2.1813 -1.3213 -2.0083
   66SOL    HW2  198   0.598   1.379   1.769  3.4514  1.1769  1.4532
   67SOL     OW  199   2.528   0.124   2.442 -0.1239  0.5567  0.5924
   67SOL    HW1  200   2.547   0.131   2.344 -2.8730 -0.1529  2.0317
   67SOL    HW2  201   2.598   0.179   2.493  0.7011 -0.5847  0.9434
   68SOL     OW  202   1.017   0.624   1.395  0.2996 -0.4727  0.0066
   68SOL    HW1  203   1.039   0.552   1.330 -1.6086  2.6152 -0.0292
   68SOL    HW2  204   1.012   0.588   1.491 -0.1549 -4.0389  1.3254
   69SOL     OW  205   1.875   2.731   0.440  0.3676  0.1186  0.1026
   69SOL    HW1  206   1.849   2.817   0.391  1.9216 -0.4654 -0.4206
   69SOL    HW2  207   1.961   2.737   0.492 -1.8216 -2.2133  0.8305
   70SOL     OW  208   2.930   1.007   2.337 -1.0982 -0.1885 -0.4743
   70SOL    HW1  209   2.873   0.973   2.266  2.4378 -0.2414  0.8239
   70SOL    HW2  210   2.983   1.088   2.300 -0.2593 -0.8397 -0.0041
   71SOL     OW  211   2.794   1.569   3.045 -0.2363 -0.2144 -0.1156
   71SOL    HW1  212   2.778   1.494   2.981 -1.3956 -0.2704  2.0032
   71SOL    HW2  213   2.854   1.637   3.001  0.9478 -0.9501  0.5381
   72SOL     OW  214   0.006   1.700   0.332  0.4986  0.2224 -0.4691
   72SOL    HW1  215   0.045   1.645   0.409 -0.5497 -3.5514  0.0838
   72SOL    HW2  216   0.015   1.799   0.358  0.9628  2.4339  2.5731
   73SOL     OW  217   0.933   1.399   0.627 -0.5312  0.5506  0.3550
   73SOL    HW1  218   0.985   1.316   0.660 -1.2933 -0.0247 -1.0970
   73SOL    HW2  219   0.959   1.434   0.536  3.2879 -0.1473 -0.6424
   74SOL     OW  220   0.341   1.829   2.016 -0.4993  0.1468  0.0337
   74SOL    HW1  221   0.339   1.744   2.064  2.1236  2.6874  0.3201
   74SOL    HW2  222   0.394   1.828   1.930 -0.9981 -0.0599  1.9278
   75SOL     OW  223   1.668   1.450   1.697 -0.3622 -0.0064  0.2036
   75SOL    HW1  224   1.617   1.361   1.694  0.6975  1.2385  0.6254
   75SOL    HW2  225   1.699   1.467   1.791 -0.1930 -0.3232  1.0630
   76SOL     OW  226   2.151   2.674   1.463 -0.4919  0.0826  0.2520
   76SOL    HW1  227   2.141   2.641   1.556  0.4160  0.6347 -2.3997
   76SOL    HW2  228   2.199   2.762   1.463 -2.5756  0.3042 -1.7211
   77SOL     OW  229   2.646   1.325   1.340  0.2878 -0.3135 -0.0762
   77SOL    HW1  230   2.710   1.342   1.419  0.3895 -2.4879  2.9177
   77SOL    HW2  231   2.623   1.229   1.332 -0.0416  1.5266  0.1384
   78SOL     OW  232   1.518   0.946   0.328 -0.3015  0.1406 -0.5126
   78SOL    HW1  233   1.515   1.043   0.296  1.0353 -0.9809  0.1547
   78SOL    HW2  234   1.446   0.938   0.399  0.2857  0.4819  1.0194
   79SOL     OW  235   2.402   1.440   1.446 -0.0795 -0.0030 -0.0771
   79SOL    HW1  236   2.335   1.487   1.382  0.1647 -1.9796  0.8425
   79SOL    HW2  237   2.486   1.407   1.394  0.0871 -0.3631 -1.1469
   80SOL     OW  238   0.710   0.396   1.535 -0.1525  0.0302 -0.0321
   80SOL    HW1  239   0.644   0.428   1.468 -1.4793 -1.3279  0.1148
   80SOL    HW2  240   0.796   0.373   1.483 -0.8759  1.7860 -0.7637
   81SOL     OW  241   1.114   2.827   0.953  0.2898  0.2426 -0.0510
   81SOL    HW1  242   1.195   2.781   0.914 -2.0658  2.4638  2.9008
   81SOL    HW2  243   1.142   2.911   1.003 -1.1606 -0.2067  0.9912
   82SOL     OW  244   1.399   0.002   1.679 -0.0322  0.5568 -0.3479
   82SOL    HW1  245   1.474   3.039   1.643  1.8985 -0.2536 -2.0623
   82SOL    HW2  246   1.319   3.091   1.618  0.5738 -1.0902 -0.4184
   83SOL     OW  247   1.223   2.183   0.747 -0.3897  0.2590  0.0060
   83SOL    HW1  248   1.207   2.219   0.841 -1.4705 -0.1996  3.1273
   83SOL    HW2  249   1.148   2.119   0.713 -1.6972  2.6427 -0.6288
   84SOL     OW  250   0.250   1.631   2.865  0.6428  0.3307 -0.7872
   84SOL    HW1  251   0.207   1.608   2.776 -0.1262  0.2159  0.8666
   84SOL    HW2  252   0.307   1.557   2.906 -0.6360  0.0771  0.6521
   85SOL     OW  253   0.144   2.137   1.065 -0.0967 -0.3814 -0.0816
   85SOL    HW1  254   0.052   2.097   1.099  0.0015 -0.4989 -0.0363
   85SOL    HW2  255   0.149   2.235   1.071  1.4264 -3.1063 -0.7847
   86SOL     OW  256   2.376   2.529   1.440  0.3995 -0.1822 -0.3354
   86SOL    HW1  257   2.407   2.496   1.531  0.6298  0.3703  1.1634
   86SOL    HW2  258   2.284   2.576   1.449  1.2782  1.2567 -0.2319
   87SOL     OW  259   0.007   1.853   0.660  0.2410 -0.0640 -0.1919
   87SOL    HW1  260   3.086   1.754   0.646  2.5594  0.5092 -1.2208
   87SOL    HW2  261   0.064   1.874   0.740 -0.6672 -0.9693 -2.2379
   88SOL     OW  262   0.925   1.127   1.317  0.0896 -0.2266 -0.8213
   88SOL    HW1  263   0.854   1.194   1.315 -1.6606 -1.1711 -2.2301
   88SOL    HW2  264   0.905   1.057   1.249  0.6202 -1.1794  0.1797
   89SOL     OW  265   1.063   2.862   2.159  0.1996 -0.4081 -0.1870
   89SOL    HW1  266   1.021   2.936   2.109  0.3736 -0.6636  1.6902
   89SOL    HW2  267   1.112   2.893   2.241  0.2360  0.5724 -1.1394
   90SOL     OW  268   3.085   1.740   1.501  0.2683  0.3497  0.4763
   90SOL    HW1  269   3.093   1.696   1.592  2.2009 -0.8611  0.7468
   90SOL    HW2  270   3.021   1.691   1.438  0.1710 -0.0560  1.1420
   91SOL     OW  271   1.345   1.797   1.599 -0.0933 -0.8606  0.4482
   91SOL    HW1  272   1.372   1.741   1.681 -0.3445  2.4956 -0.4671
   91SOL    HW2  273   1.380   1.761   1.511 -1.4121 -1.1004  2.2940
   92SOL     OW  274   2.376   2.772   1.632  0.4247 -0.3520 -0.0814
   92SOL    HW1  275   2.388   2.676   1.672  1.0975 -1.2448 -1.2970
   92SOL    HW2  276   2.442   2.842   1.664 -2.9112 -1.8253  0.0427
   93SOL     OW  277   2.868   1.426   2.692 -0.7676  0.5751  0.0762
   93SOL    HW1  278   2.890   1.374   2.606  4.2557 -0.1273 -0.5311
   93SOL    HW2  279   2.823   1.367   2.760 -1.4670  0.0968 -1.8447
   94SOL     OW  280   2.647   2.745   2.100 -0.4468 -0.4041  0.1600
   94SOL    HW1  281   2.728   2.796   2.138  0.2179 -0.4082 -0.6064
   94SOL    HW2  282   2.672   2.710   2.006 -0.8730  1.7302 -3.2133
   95SOL     OW  283   1.234   0.575   1.853 -0.1624  0.3153  0.4444
   95SOL    HW1  284   1.328   0.604   1.826  0.5072 -1.4746  1.8076
   95SOL    HW2  285   1.172   0.654   1.869  0.8561  0.1854  2.3434
   96SOL     OW  286   2.553   0.692   1.505 -0.4473  0.3364 -0.0668
   96SOL    HW1  287   2.578   0.664   1.407 -3.4566  0.0914 -2.0172
   96SOL    HW2  288   2.477   0.637   1.542 -1.4354  1.5910 -0.1870
   97SOL     OW  289   2.059   0.436   1.469  0.7226 -0.4417  0.2089
   97SOL    HW1  290   2.094   0.490   1.388 -1.8177  2.3545 -0.4335
   97SOL    HW2  291   2.019   0.495   1.538 -2.0368 -1.3444 -1.0780
   98SOL     OW  292   1.745   2.832   1.126 -0.4353 -0.5025  0.1837
   98SOL    HW1  293   1.804   2.919   1.142  1.6015  4.8604  0.8748
   98SOL    HW2  294   1.770   2.776   1.044  1.6752 -3.9638  0.5790
   99SOL     OW  295   2.605   0.242   1.731 -0.3366 -0.0714 -0.0042
   99SOL    HW1  296   2.520   0.270   1.686  2.1005 -2.1143 -0.4577
   99SOL    HW2  297   2.672   0.321   1.729 -0.1264 -1.4006 -0.7539
  100SOL     OW  298   2.675   1.433   1.953 -0.2773  0.2598 -0.4572
  100SOL    HW1  299   2.707   1.456   2.049  1.7822  1.8752 -0.8021
  100SOL    HW2  300   2.679   1.330   1.936  1.0458 -2.3102  0.1337
  101SOL     OW  301   1.424   0.631   0.674 -0.6165  0.1884  0.0539
  101SOL    HW1  302   1.472   0.541   0.699 -0.5061 -1.0371 -0.5817
  101SOL    HW2  303   1.345   0.652   0.736 -1.3713 -0.6086 -1.0536
  102SOL     OW  304   0.535   1.038   1.290 -0.0899 -0.3700  0.4938
  102SOL    HW1  305   0.449   1.096   1.267 -0.8028  3.2421 -3.0092
  102SOL    HW2  306   0.514   0.973   1.366 -2.7894 -2.5120  1.2818
  103SOL     OW  307   2.626   0.589   0.032 -0.0623  0.7007  0.1240
  103SOL    HW1  308   2.698   0.660   0.026  1.1118  0.8691 -1.1623
  103SOL    HW2  309   2.615   0.554   0.129 -0.4604 -2.7618 -0.6461
  104SOL     OW  310   2.775   0.031   1.666 -0.0461 -0.3087 -0.0868
  104SOL    HW1  311   2.873   0.055   1.641  0.7155 -2.3337 -0.2956
  104SOL    HW2  312   2.713   0.114   1.675 -1.5305  0.1788  0.5099
  105SOL     OW  313   1.853   0.784   1.912 -0.1165  0.5179 -0.0971
  105SOL    HW1  314   1.832   0.842   1.833 -0.9786  1.1698 -1.4987
  105SOL    HW2  315   1.892   0.693   1.890 -0.9338  1.3603 -0.0113
  106SOL     OW  316   1.683   0.197   0.777 -0.2329  0.0346  0.2087
  106SOL    HW1  317   1.754   0.156   0.720 -0.5340 -0.5794 -1.5208
  106SOL    HW2  318   1.592   0.153   0.755  1.7988  1.0184  2.1922
  107SOL     OW  319   0.512   1.048   0.798 -0.4109  0.5338  0.6512
  107SOL    HW1  320   0.515   0.983   0.721 -1.4017  0.7542  2.6550
  107SOL    HW2  321   0.455   1.008   0.871  0.3583  0.4250  0.1773
  108SOL     OW  322   2.661   0.362   2.006 -0.1475  0.1859 -0.5755
  108SOL    HW1  323   2.726   0.424   2.057  0.2438  2.0744  1.1247
  108SOL    HW2  324   2.707   0.270   1.981  0.0232 -0.7238 -1.7771
  109SOL     OW  325   2.269   0.779   0.273 -0.6357 -0.0400 -0.2795
  109SOL    HW1  326   2.216   0.855   0.236  0.0104 -3.6831 -1.4872
  109SOL    HW2  327   2.338   0.815   0.335 -2.9170  0.1262 -1.8028
  110SOL     OW  328   0.230   2.580   2.636 -0.0466 -0.5853 -0.1067
  110SOL    HW1  329   0.274   2.635   2.561  2.9539  1.0873 -2.1519
  110SOL    HW2  330   0.133   2.556   2.616  0.1086  0.2993  1.0886
  111SOL     OW  331   1.954   0.053   2.175  0.1465  0.2102  0.1662
  111SOL    HW1  332   2.028   0.120   2.158  0.8504  0.5574 -1.6080
  111SOL    HW2  333   1.860   0.081   2.138 -2.2668  1.0570 -2.3046
  112SOL     OW  334   2.280   2.617   0.318 -0.6395  0.2144 -0.1389
  112SOL    HW1  335   2.233   2.548   0.257 -1.9711  0.8879 -0.1320
  112SOL    HW2  336   2.355   2.661   0.262  1.2751  1.0674  0.5910
  113SOL     OW  337   2.305   2.135   1.515  0.4060  0.7736 -0.6330
  113SOL    HW1  338   2.401   2.150   1.489  0.1957 -0.5468 -1.5218
  113SOL    HW2  339   2.275   2.176   1.605  0.8656  0.5750 -2.0910
  114SOL     OW  340   2.676   1.012   0.914  0.3175  0.2834  0.1014
  114SOL    HW1  341   2.579   1.006   0.941  1.1804  0.9916  0.8692
  114SOL    HW2  342   2.712   0.915   0.909  2.2057  0.7939 -1.4198
  115SOL     OW  343   2.867   1.796   0.151 -0.4008 -0.1063  0.1436
  115SOL    HW1  344   2.958   1.755   0.174 -0.1473  0.1812 -0.6304
  115SOL    HW2  345   2.825   1.735   0.080  0.4345  0.5310 -5.0734
  116SOL     OW  346   0.175   1.468   2.014 -0.1379  0.3161 -0.3874
  116SOL    HW1  347   0.084   1.427   2.026 -0.4482  0.5951 -1.0637
  116SOL    HW2  348   0.218   1.511   2.097  2.6537  2.2739 -0.3645
  117SOL     OW  349   2.441   0.049   0.498  0.0638 -0.6708  0.0983
  117SOL    HW1  350   2.450   0.076   0.596  0.0749  1.2638 -0.1856
  117SOL    HW2  351   2.450   3.045   0.482  0.5157 -1.7353  0.5911
  118SOL     OW  352   0.244   2.216   1.557  0.0383 -0.9251  0.1587
  118SOL    HW1  353   0.179   2.270   1.608 -0.6721 -0.7891 -0.3619
  118SOL    HW2  354   0.290   2.271   1.486 -2.6493 -0.5024  2.5693
  119SOL     OW  355   1.642   1.972   1.031 -0.1699 -0.1811 -0.3472
  119SOL    HW1  356   1.711   1.929   0.973 -1.7545  0.6988  1.5252
  119SOL    HW2  357   1.631   1.934   1.122 -2.3250  1.1441 -0.7838
  120SOL     OW  358   0.278   1.737   2.501 -0.1480  0.2665  0.0360
  120SOL    HW1  359   0.366   1.696   2.532 -0.2471 -5.0852  0.6344
  120SOL    HW2  360   0.272   1.833   2.530  0.5658 -1.2139 -0.2530
  121SOL     OW  361   2.832   1.944   1.384  0.0739  0.1411 -1.1414
  121SOL    HW1  362   2.753   2.007   1.399  0.8551  0.5793 -2.1496
  121SOL    HW2  363   2.877   1.917   1.470  0.5110 -0.0819  0.5374
  122SOL     OW  364   2.240   1.349   2.428 -0.1278 -0.4103  0.3100
  122SOL    HW1  365   2.305   1.379   2.353  1.0758  1.6531 -3.6733
  122SOL    HW2  366   2.281   1.272   2.480  0.1220 -1.1373  2.4104
  123SOL     OW  367   0.087   3.025   0.681  0.0290 -0.3950 -0.8068
  123SOL    HW1  368   0.004   2.989   0.733 -4.5016  2.8603  1.2128
  123SOL    HW2  369   0.164   2.959   0.688 -1.4825 -0.9499 -3.8477
  124SOL     OW  370   1.626   0.882   2.740  0.3440 -0.2166  0.2281
  124SOL    HW1  371   1.722   0.890   2.708 -1.7735  2.4720 -0.5360
  124SOL    HW2  372   1.561   0.941   2.688 -0.8411 -3.0746 -3.5974
  125SOL     OW  373   0.593   1.631   2.782 -0.6564  0.4510 -0.2044
  125SOL    HW1  374   0.602   1.709   2.853  0.4077  1.7928  0.8607
  125SOL    HW2  375   0.637   1.545   2.818 -1.0416  0.5481 -1.8554
  126SOL     OW  376   2.784   2.028   0.054 -0.0001  0.6084 -0.1152
  126SOL    HW1  377   2.832   2.098   0.109  3.1351  0.8300  0.2883
  126SOL    HW2  378   2.810   1.932   0.085 -1.6853  0.3555  0.8828
  127SOL     OW  379   0.684   1.445   1.039  0.0986  0.0660 -0.3141
  127SOL    HW1  380   0.758   1.486   0.983 -2.5871  1.8254 -1.1553
  127SOL    HW2  381   0.601   1.442   0.984 -1.7275  0.8541 -0.9417
  128SOL     OW  382   1.352   0.736   0.254  1.1292 -0.4297  0.2283
  128SOL    HW1  383   1.413   0.813   0.279 -0.8416 -0.3407 -0.7871
  128SOL    HW2  384   1.359   0.663   0.324 -0.5612  0.0344  1.3119
  129SOL     OW  385   2.306   1.784   1.125  0.0658  0.1794  0.2694
  129SOL    HW1  386   2.259   1.839   1.057  2.8203  0.1813  1.5215
  129SOL    HW2  387   2.399   1.762   1.090 -1.2653  2.8167  0.4574
  130SOL     OW  388   2.001   1.623   0.881 -0.2145 -0.2130 -0.8062
  130SOL    HW1  389   2.099   1.627   0.909  0.6165  0.5463  1.1986
  130SOL    HW2  390   1.947   1.562   0.944 -0.9575  0.2223 -0.3413
  131SOL     OW  391   3.038   1.044   2.775  0.1120  0.7068 -0.1990
  131SOL    HW1  392   3.064   1.102   2.852  1.0824 -0.4163  0.7160
  131SOL    HW2  393   3.091   0.958   2.785 -2.1393 -2.9806 -2.7235
  132SOL     OW  394   2.525   1.805   2.060  0.0097 -0.9994  0.4776
  132SOL    HW1  395   2.489   1.904   2.061 -3.0784  1.9440 -1.1013
  132SOL    HW2  396   2.527   1.751   1.969  2.8180 -2.8849 -0.1505
  133SOL     OW  397   3.055   1.019   0.068 -0.6921  0.4360  0.5290
  133SOL    HW1  398   3.065   1.030   0.172 -0.5121 -0.1260  0.7536
  133SOL    HW2  399   3.062   1.113   0.027 -0.9737  1.9056  1.5687
  134SOL     OW  400   0.278   1.394   0.142  0.6486 -0.0578  0.0644
  134SOL    HW1  401   0.299   1.298   0.160  2.9160  1.4311 -0.0988
  134SOL    HW2  402   0.185   1.398   0.098  2.0190  0.7429  1.4364
  135SOL     OW  403   2.065   1.540   0.649 -0.1170 -0.8921  0.0539
  135SOL    HW1  404   2.037   1.564   0.740  0.1926 -2.4963 -0.5660
  135SOL    HW2  405   2.170   1.526   0.651  3.5860  0.2470 -0.8789
  136SOL     OW  406   1.960   1.574   1.281 -0.0497  0.6859 -0.3389
  136SOL    HW1  407   1.917   1.516   1.208 -0.3599  2.9107 -0.3007
  136SOL    HW2  408   2.060   1.558   1.285 -1.2799 -1.2284 -3.5460
  137SOL     OW  409   2.549   2.109   0.749 -0.3331  0.3707  0.0735
  137SOL    HW1  410   2.468   2.122   0.811 -0.9627 -0.8502  1.0783
  137SOL    HW2  411   2.527   2.111   0.651  1.7951  0.5222  1.0726
  138SOL     OW  412   1.327   0.214   1.408 -0.0750 -0.1951 -0.9837
  138SOL    HW1  413   1.412   0.155   1.403  0.5621  2.0716 -2.1995
  138SOL    HW2  414   1.241   0.170   1.432 -0.1557  1.5335 -0.5482
  139SOL     OW  415   2.370   3.012   0.052 -0.2477  0.6465  0.2383
  139SOL    HW1  416   2.348   3.057   3.059 -1.1411 -0.6107 -1.5958
  139SOL    HW2  417   2.424   3.079   0.106 -0.3982 -0.3875 -1.1291
  140SOL     OW  418   1.448   2.054   2.768 -0.1811 -0.2897 -0.1418
  140SOL    HW1  419   1.419   1.997   2.689  1.5378 -0.1246  1.1196
  140SOL    HW2  420   1.545   2.031   2.800  2.7265  0.4339 -0.8233
  141SOL     OW  421   0.721   0.839   1.620  0.3509  0.0113  0.4831
  141SOL    HW1  422   0.726   0.933   1.584  0.4920  0.1014  2.8621
  141SOL    HW2  423   0.808   0.820   1.669  1.1619  1.0043 -0.2182
  142SOL     OW  424   2.625   0.033   0.128  0.3838 -0.1754 -0.5111
  142SOL    HW1  425   2.646   0.128   0.155 -0.7674  1.6154  1.1983
  142SOL    HW2  426   2.689   3.089   0.067 -0.3620  1.5240  1.6991
  143SOL     OW  427   0.606   2.200   2.937  0.4099  0.3027  0.2023
  143SOL    HW1  428   0.610   2.288   2.885 -0.8821 -0.0416 -0.6131
  143SOL    HW2  429   0.508   2.174   2.953  1.0441  1.4826 -2.0548
  144SOL     OW  430   1.174   2.807   3.085 -0.4765  0.4336  0.4106
  144SOL    HW1  431   1.221   2.829   0.074  1.2725 -2.0889 -3.0719
  144SOL    HW2  432   1.075   2.826   3.097  1.0080 -2.7295 -1.3925
  145SOL     OW  433   2.433   1.699   0.016 -0.0087 -0.5061 -0.6463
  145SOL    HW1  434   2.495   1.780   0.010  1.8902  0.2577  1.0814
  145SOL    HW2  435   2.340   1.742   0.017 -1.8105  0.9005 -0.0973
  146SOL     OW  436   2.820   2.743   3.061  0.4708 -0.1475 -0.2450
  146SOL    HW1  437   2.807   2.840   3.082 -0.9055  1.1986 -0.2464
  146SOL    HW2  438   2.914   2.738   3.011  4.8671  3.6193 -1.4990
  147SOL     OW  439   2.617   2.122   1.436  0.8553 -0.3982  0.1312
  147SOL    HW1  440   2.660   2.200   1.480  4.3571  0.5828  0.5126
  147SOL    HW2  441   2.621   2.135   1.332  0.0113  2.9235  0.3611
  148SOL     OW  442   1.757   0.333   0.186  0.0008  0.4008  0.1335
  148SOL    HW1  443   1.857   0.313   0.172  3.1707  1.9439  0.8834
  148SOL    HW2  444   1.689   0.309   0.115 -0.3952  1.4802  1.5483
  149SOL     OW  445   1.089   1.426   2.583  0.4185 -0.5182  0.2259
  149SOL    HW1  446   1.104   1.374   2.669 -1.6235  0.4488  0.6430
  149SOL    HW2  447   1.008   1.484   2.591  3.0545  2.4594 -1.7083
  150SOL     OW  448   0.851   2.459   0.481  0.3961  0.2273 -0.0352
  150SOL    HW1  449   0.825   2.368   0.439 -1.1495 -2.2642 -1.0714
  150SOL    HW2  450   0.908   2.444   0.565 -0.6452 -1.1937 -1.8264
  151SOL     OW  451   0.716   1.801   3.005  0.1677  0.2396 -0.0955
  151SOL    HW1  452   0.793   1.737   2.992 -3.4191  1.4322  2.6537
  151SOL    HW2  453   0.737   1.884   2.952  0.3308 -2.7739  0.7408
  152SOL     OW  454   2.957   1.286   0.507 -0.2725 -0.5757 -0.5867
  152SOL    HW1  455   2.892   1.354   0.552 -0.1285  0.2086  2.1699
  152SOL    HW2  456   2.981   1.212   0.572 -1.7754  0.1778 -0.5489
  153SOL     OW  457   2.385   2.402   0.483  0.2351 -0.5922  0.3199
  153SOL    HW1  458   2.379   2.432   0.580 -1.6626  1.6667 -2.4208
  153SOL    HW2  459   2.349   2.472   0.417  0.2170 -0.5727  0.1282
  154SOL     OW  460   0.729   3.080   0.846 -0.1157 -1.0034 -0.0520
  154SOL    HW1  461   0.710   0.082   0.811 -0.7375  2.4429  2.0485
  154SOL    HW2  462   0.822   3.047   0.822  1.7077  1.9086 -1.1792
  155SOL     OW  463   0.161   1.924   0.878 -0.3841 -0.2242  0.1603
  155SOL    HW1  464   0.212   1.993   0.817  1.4045  3.3093  0.1926
  155SOL    HW2  465   0.123   1.971   0.960  0.5480  1.4004 -1.0437
  156SOL     OW  466   2.639   2.447   0.065  0.0155  0.1653  0.0811
  156SOL    HW1  467   2.701   2.431   3.085  0.5617  1.1978 -0.1296
  156SOL    HW2  468   2.668   2.537   0.104 -1.3028 -0.5501  0.7380
  157SOL     OW  469   1.119   2.141   1.311  0.4346  0.0572  0.0249
  157SOL    HW1  470   1.079   2.206   1.382 -0.9741 -0.3721  0.9196
  157SOL    HW2  471   1.056   2.062   1.305  1.3306  0.9994 -0.8934
  158SOL     OW  472   1.727   0.592   3.041  0.0068  0.6398  0.2131
  158SOL    HW1  473   1.752   0.523   2.967 -0.1048 -4.0724 -1.6890
  158SOL    HW2  474   1.795   0.597   0.018  1.9133  1.0010  1.3313
  159SOL     OW  475   1.079   0.421   2.777  0.7760  0.1362  0.2388
  159SOL    HW1  476   1.083   0.505   2.834 -0.9295 -1.0833 -0.6481
  159SOL    HW2  477   1.130   0.439   2.690  3.0371 -2.9614  2.7158
  160SOL     OW  478   1.357   1.676   0.344  0.2626 -0.2249 -0.0693
  160SOL    HW1  479   1.295   1.741   0.293  2.2210 -1.0122 -0.9944
  160SOL    HW2  480   1.312   1.620   0.416  0.9679  1.2016 -0.5762
  161SOL     OW  481   3.086   2.329   2.900  0.3600 -0.5588  0.0325
  161SOL    HW1  482   3.063   2.315   2.797 -2.5245 -0.7901 -2.8824
  161SOL    HW2  483   0.082   2.305   2.920 -0.2172 -1.0427 -1.3138
  162SOL     OW  484   0.649   2.741   0.955  0.5701 -0.1455 -0.0969
  162SOL    HW1  485   0.748   2.716   0.971 -0.8319 -1.2484  2.0930
  162SOL    HW2  486   0.635   2.833   0.998  0.4506  1.5907  1.5840
  163SOL     OW  487   2.684   1.027   2.979  0.0584  0.5440  0.2721
  163SOL    HW1  488   2.625   0.980   2.910  0.1687  0.2959 -1.4872
  163SOL    HW2  489   2.746   0.954   3.021 -1.5147 -2.5217 -1.7411
  164SOL     OW  490   0.099   2.911   2.898 -0.4603  0.0641 -0.1204
  164SOL    HW1  491   0.157   2.836   2.938 -1.1744 -1.5340 -0.9247
  164SOL    HW2  492   0.020   2.875   2.849 -0.0225 -3.1984  0.8342
  165SOL     OW  493   2.256   0.287   1.235 -0.6737  0.0770 -0.1855
  165SOL    HW1  494   2.198   0.364   1.263 -0.6031  1.9438 -2.2427
  165SOL    HW2  495   2.199   0.217   1.191  0.2688 -1.1880  2.6839
  166SOL     OW  496   1.843   0.381   1.290  0.2621  0.8913 -0.5506
  166SOL    HW1  497   1.913   0.369   1.360 -2.3828 -1.0335 -0.1867
  166SOL    HW2  498   1.767   0.318   1.306  0.1179 -2.0865 -0.9434
  167SOL     OW  499   0.931   0.356   1.869  0.0399  0.2925 -0.2153
  167SOL    HW1  500   0.853   0.419   1.862 -1.8158 -2.9205 -0.0636
  167SOL    HW2  501   0.919   0.294   1.950  0.6395 -1.3200  0.2959
  168SOL     OW  502   2.444   0.486   1.886 -0.0425 -0.6739  0.7045
  168SOL    HW1  503   2.524   0.437   1.922 -0.0431  2.5508 -1.8764
  168SOL    HW2  504   2.371   0.489   1.953  1.2563  1.7803 -2.1704
  169SOL     OW  505   0.508   1.471   0.300 -0.2930  0.0412 -0.2623
  169SOL    HW1  506   0.468   1.540   0.363  0.2913 -3.0582 -2.0344
  169SOL    HW2  507   0.429   1.425   0.251  0.6114  0.4512 -1.0827
  170SOL     OW  508   0.192   1.325   1.797  0.1103 -0.6507 -0.0043
  170SOL    HW1  509   0.234   1.234   1.807  1.1706 -0.7269 -0.3791
  170SOL    HW2  510   0.199   1.370   1.886 -1.9979  1.7383 -0.0145
  171SOL     OW  511   1.319   2.088   1.958  0.5622 -0.2854 -0.2059
  171SOL    HW1  512   1.286   2.186   1.980  0.2538  2.3479 -1.0214
  171SOL    HW2  513   1.250   2.055   1.887 -1.7097 -1.2147 -2.7437
  172SOL     OW  514   0.373   2.380   1.379 -0.2378  0.1960 -0.5723
  172SOL    HW1  515   0.376   2.454   1.449  0.8358 -0.9145 -0.7996
  172SOL    HW2  516   0.459   2.376   1.323  3.1542 -1.4601  0.3256
  173SOL     OW  517   1.354   2.770   0.798 -0.0549 -0.6442  0.4033
  173SOL    HW1  518   1.324   2.839   0.731  1.4682  0.7571  0.8305
  173SOL    HW2  519   1.398   2.692   0.746  0.3894 -2.0562  0.4102
  174SOL     OW  520   1.257   2.895   0.237 -0.5515 -0.2653  0.3443
  174SOL    HW1  521   1.344   2.919   0.279 -0.5509 -1.9186 -1.9669
  174SOL    HW2  522   1.200   2.842   0.301  1.9795  1.6281 -3.0801
  175SOL     OW  523   1.010   1.133   2.721  0.3853 -0.2042 -0.0368
  175SOL    HW1  524   1.000   1.217   2.783 -1.2665  0.5380  2.9811
  175SOL    HW2  525   0.950   1.135   2.638  1.0988  0.2643 -1.6416
  176SOL     OW  526   1.776   0.839   0.344  0.2485 -0.4964  0.5458
  176SOL    HW1  527   1.812   0.865   0.247  1.1152 -0.9115  1.2205
  176SOL    HW2  528   1.676   0.859   0.350  0.2363 -0.1856  1.7676
  177SOL     OW  529   1.351   1.003   0.810  0.6261  0.2351 -0.1113
  177SOL    HW1  530   1.274   0.970   0.873  0.3480 -2.4184 -0.2003
  177SOL    HW2  531   1.430   1.052   0.853 -2.0098  0.2362 -1.6523
  178SOL     OW  532   2.625   1.590   2.748  0.7104  0.5114  0.1823
  178SOL    HW1  533   2.721   1.617   2.728 -1.1474 -1.3268 -0.2811
  178SOL    HW2  534   2.591   1.550   2.664  3.0118 -0.4145 -0.4378
  179SOL     OW  535   0.866   2.782   0.051  0.4864  0.1299  0.0878
  179SOL    HW1  536   0.860   2.751   3.049  0.0087 -3.1635 -0.4024
  179SOL    HW2  537   0.895   2.698   0.103 -0.0247 -0.5087 -2.2971
  180SOL     OW  538   1.904   1.562   1.572 -0.6758  0.1746  0.1276
  180SOL    HW1  539   1.929   1.558   1.470 -0.2952 -3.7411 -3.7104
  180SOL    HW2  540   1.807   1.536   1.582 -2.2029  0.0310 -1.0151
  181SOL     OW  541   0.962   1.252   2.206 -0.1814  0.3716 -0.0946
  181SOL    HW1  542   0.948   1.171   2.137  1.0456 -2.8838 -1.6336
  181SOL    HW2  543   1.042   1.241   2.263 -0.6308  1.1480  2.4364
  182SOL     OW  544   3.081   0.773   2.434  0.0943  0.0942 -0.1291
  182SOL    HW1  545   0.042   0.806   2.510  4.3169  0.5932 -1.1513
  182SOL    HW2  546   3.017   0.850   2.404  0.4480  1.4373 -2.1505
  183SOL     OW  547   1.329   0.299   2.471  0.1904  0.8548 -0.1946
  183SOL    HW1  548   1.400   0.338   2.534  1.5898  2.0414  2.7163
  183SOL    HW2  549   1.318   0.199   2.489  0.4661 -1.3334 -1.0362
  184SOL     OW  550   0.017   0.507   1.335  0.1799 -0.1348  0.0270
  184SOL    HW1  551   3.036   0.544   1.278  1.6200  0.0676  0.8098
  184SOL    HW2  552   3.079   0.434   1.399  0.6774  0.3293 -1.3348
  185SOL     OW  553   2.526   1.661   0.989 -0.9677 -0.1199 -0.0822
  185SOL    HW1  554   2.575   1.725   0.932 -0.2003 -0.6235  2.1797
  185SOL    HW2  555   2.585   1.585   1.021  1.7454 -4.5605  0.3734
  186SOL     OW  556   0.258   2.007   2.554  0.7027 -0.0417 -0.3864
  186SOL    HW1  557   0.352   2.047   2.547 -0.3124  0.0284 -2.7985
  186SOL    HW2  558   0.206   2.054   2.482  1.1318  0.2193 -0.7261
  187SOL     OW  559   2.552   1.927   3.042 -0.5868 -0.1553 -0.0256
  187SOL    HW1  560   2.633   1.966   3.088  1.8078 -3.5001 -2.6801
  187SOL    HW2  561   2.498   2.008   3.010  2.6854 -1.3772 -0.0209
  188SOL     OW  562   0.807   2.201   0.357  0.5197 -0.6119  0.3220
  188SOL    HW1  563   0.814   2.126   0.428 -1.9057 -2.5235  0.5983
  188SOL    HW2  564   0.738   2.166   0.288  3.5730  0.0591 -0.2025
  189SOL     OW  565   2.349   1.134   0.218 -0.2624  0.7550  0.0183
  189SOL    HW1  566   2.351   1.195   0.302 -2.4380  0.3294  0.2248
  189SOL    HW2  567   2.444   1.121   0.180  3.7390 -1.3275  0.8545
  190SOL     OW  568   0.829   1.815   2.074 -0.3560 -0.4710  0.6864
  190SOL    HW1  569   0.771   1.900   2.051  0.3215  0.8505  0.5769
  190SOL    HW2  570   0.908   1.806   2.017 -1.6875  2.0671  2.1601
  191SOL     OW  571   2.383   0.523   1.616  0.1057 -0.0066  0.3398
  191SOL    HW1  572   2.388   0.515   1.717 -3.5775 -0.4808 -0.7906
  191SOL    HW2  573   2.378   0.439   1.560  1.1178  2.1099  3.2521
  192SOL     OW  574   2.049   0.133   1.815  1.0136  0.6189 -0.3465
  192SOL    HW1  575   2.046   0.227   1.855  1.2307 -1.3350  1.5578
  192SOL    HW2  576   1.982   0.117   1.739  2.0064 -1.7338  0.7326
  193SOL     OW  577   0.154   0.667   0.869 -0.4714  0.0676  0.8283
  193SOL    HW1  578   0.083   0.718   0.915  1.2447  0.1495 -1.6256
  193SOL    HW2  579   0.119   0.614   0.787  0.5822  0.6890  1.4874
  194SOL     OW  580   1.619   2.620   1.699 -0.7070 -0.6142 -0.1189
  194SOL    HW1  581   1.708   2.572   1.707 -2.2289  0.3498 -2.4127
  194SOL    HW2  582   1.554   2.568   1.754 -0.2750  2.0800 -0.2705
  195SOL     OW  583   2.442   0.502   0.830 -0.0171 -0.7595 -0.0019
  195SOL    HW1  584   2.535   0.518   0.793  3.2049 -0.5048 -1.0030
  195SOL    HW2  585   2.409   0.581   0.888 -0.8857  0.2568  2.8376
  196SOL     OW  586   1.584   2.167   1.967  0.0652 -0.3120 -0.1969
  196SOL    HW1  587   1.588   2.226   2.052 -0.6832  2.3562  1.4826
  196SOL    HW2  588   1.492   2.133   1.946  2.1061 -1.2608  1.0644
  197SOL     OW  589   0.284   3.058   3.036  0.1957  0.7312  0.3288
  197SOL    HW1  590   0.223   3.006   2.976  2.9277 -0.0932 -0.9842
  197SOL    HW2  591   0.257   3.053   0.037 -0.9985 -0.0378 -0.4612
  198SOL     OW  592   1.043   1.182   0.727  0.2961 -0.1098 -0.0182
  198SOL    HW1  593   1.134   1.205   0.690 -6.1521 -1.1841 -2.9934
  198SOL    HW2  594   1.018   1.079   0.729 -1.5106 -2.3985  0.3127
  199SOL     OW  595   2.369   0.938   1.663  0.0685 -0.1344  0.3959
  199SOL    HW1  596   2.448   0.997   1.638  2.7154  1.4902  0.7154
  199SOL    HW2  597   2.290   0.999   1.699  3.0733 -2.6058 -0.3495
  200SOL     OW  598   2.265   2.616   2.368  0.4321  0.2859 -0.3625
  200SOL    HW1  599   2.277   2.716   2.373 -0.2438 -1.6628  1.3220
  200SOL    HW2  600   2.261   2.573   2.461  0.0935  1.2470 -2.4827
  201SOL     OW  601   2.625   0.114   1.396 -0.0692  0.2394  0.3972
  201SOL    HW1  602   2.638   0.017   1.406  0.7084  0.7743  3.2379
  201SOL    HW2  603   2.641   0.145   1.301  0.6490 -0.5149 -0.3987
  202SOL     OW  604   1.975   0.080   0.118  0.2720  0.2450  0.1784
  202SOL    HW1  605   2.031   3.090   0.104  2.1070  2.4478  2.6415
  202SOL    HW2  606   1.998   0.110   0.212 -0.6202  1.5222  1.9468
  203SOL     OW  607   1.388   1.873   2.100  0.4336 -0.1157 -0.1596
  203SOL    HW1  608   1.366   1.962   2.055  0.8396 -0.0988 -0.9380
  203SOL    HW2  609   1.485   1.881   2.137  0.6400 -0.4857  0.0114
  204SOL     OW  610   0.862   1.591   2.495  0.1160  0.1711 -0.0761
  204SOL    HW1  611   0.810   1.505   2.501 -2.7545  0.3317 -1.0711
  204SOL    HW2  612   0.883   1.617   2.400  2.5818 -1.4306 -1.8375
  205SOL     OW  613   0.948   1.786   1.360  0.2315  0.2498 -0.8301
  205SOL    HW1  614   0.962   1.689   1.328  1.3134  1.2262  0.5152
  205SOL    HW2  615   0.867   1.796   1.422  0.6076 -0.0547 -2.7458
  206SOL     OW  616   2.984   0.668   2.928  0.1949  0.4723  0.6074
  206SOL    HW1  617   3.020   0.671   2.833  0.3961  1.0685  1.1834
  206SOL    HW2  618   2.947   0.570   2.945  1.2921 -1.1844 -0.3465
  207SOL     OW  619   1.708   2.782   2.334  0.0535 -0.0503 -0.3942
  207SOL    HW1  620   1.801   2.823   2.311  1.6605  0.4333  1.2895
  207SOL    HW2  621   1.719   2.683   2.327  1.7923  3.8644  0.3562
  208SOL     OW  622   0.602   2.426   1.244 -0.4052 -0.4415 -0.1488
  208SOL    HW1  623   0.693   2.439   1.282 -2.4083 -0.4564  0.0394
  208SOL    HW2  624   0.605   2.445   1.149  3.0137 -1.1493  1.5431
  209SOL     OW  625   1.457   1.220   2.285 -0.3274 -0.1332 -0.1484
  209SOL    HW1  626   1.438   1.263   2.195 -2.6187 -1.6343  1.3329
  209SOL    HW2  627   1.496   1.291   2.349  2.4896  1.3549  0.7415
  210SOL     OW  628   1.950   0.831   1.246 -0.3113 -0.0869 -0.1778
  210SOL    HW1  629   2.021   0.822   1.174  0.7212  0.5737 -1.4844
  210SOL    HW2  630   1.865   0.775   1.235 -0.1875  0.5670 -2.0671
  211SOL     OW  631   0.949   2.972   0.719  0.0671 -0.2646  0.2009
  211SOL    HW1  632   0.913   2.925   0.635  0.1326  1.7315  1.6158
  211SOL    HW2  633   1.047   2.954   0.730  0.3189 -0.9805  1.1286
  212SOL     OW  634   1.794   1.677   0.329  0.6809  0.0819  0.2323
  212SOL    HW1  635   1.725   1.737   0.288  1.6816  0.5139  0.8954
  212SOL    HW2  636   1.821   1.716   0.421 -0.1742  1.8347 -0.4791
  213SOL     OW  637   1.489   0.307   2.741 -0.5267 -0.4207 -0.3440
  213SOL    HW1  638   1.420   0.299   2.814  0.8594 -1.3782 -0.1138
  213SOL    HW2  639   1.569   0.358   2.782  2.2789 -1.1679  1.0547
  214SOL     OW  640   1.141   1.526   2.035  0.1833 -0.4110 -0.1821
  214SOL    HW1  641   1.069   1.470   1.996  0.2159  2.1971 -0.2317
  214SOL    HW2  642   1.217   1.474   2.071 -1.8030  1.6363 -0.0469
  215SOL     OW  643   0.801   1.729   0.275 -0.1242  0.0511  0.4987
  215SOL    HW1  644   0.722   1.788   0.251  1.1809  0.3651  0.8940
  215SOL    HW2  645   0.786   1.695   0.376 -3.1318 -1.1132  2.6513
  216SOL     OW  646   0.174   2.839   2.031 -0.0881 -0.0508  0.7758
  216SOL    HW1  647   0.134   2.934   2.041  2.1003 -0.4003  0.2229
  216SOL    HW2  648   0.252   2.826   2.095  1.0126 -0.7989  1.0830
  217SOL     OW  649   2.409   0.930   0.973 -0.5595  0.2726  0.2776
  217SOL    HW1  650   2.386   0.985   1.053 -0.2296 -0.3875 -1.6170
  217SOL    HW2  651   2.378   0.975   0.891 -1.1760 -2.8231  3.7046
  218SOL     OW  652   1.771   1.474   1.959 -0.3868 -0.1661  0.1353
  218SOL    HW1  653   1.726   1.491   2.051  1.7645 -0.1169 -0.8014
  218SOL    HW2  654   1.871   1.468   1.964  0.8782 -0.9553 -0.7788
  219SOL     OW  655   2.005   1.589   0.190 -0.3606  0.1540  0.6026
  219SOL    HW1  656   1.950   1.539   0.119  0.4578 -0.5912 -1.4772
  219SOL    HW2  657   1.945   1.654   0.241 -1.7063  1.0429  2.3913
  220SOL     OW  658   1.337   1.355   1.022  0.2331  0.2475 -0.0651
  220SOL    HW1  659   1.351   1.383   0.930  1.3742 -0.4840  3.2210
  220SOL    HW2  660   1.424   1.339   1.067  1.8319 -4.1567 -0.9765
  221SOL     OW  661   0.860   0.677   2.806 -0.3143  0.8842 -0.1519
  221SOL    HW1  662   0.837   0.773   2.786 -3.1491 -2.0610  3.2183
  221SOL    HW2  663   0.804   0.652   2.888 -0.0887  1.2634  0.0901
  222SOL     OW  664   1.215   1.513   0.513  0.4029  0.4654 -0.4503
  222SOL    HW1  665   1.246   1.498   0.612  1.4157 -0.0173  2.6590
  222SOL    HW2  666   1.172   1.433   0.478  2.6421  1.6519 -0.0325
  223SOL     OW  667   0.943   3.020   2.820 -1.0162 -0.0497  0.3278
  223SOL    HW1  668   1.040   3.016   2.834 -2.0846 -0.7562 -2.1316
  223SOL    HW2  669   0.888   3.049   2.898 -2.8100 -0.2092 -2.4073
  224SOL     OW  670   2.418   0.262   1.493 -0.1626  0.2519  0.4751
  224SOL    HW1  671   2.360   0.269   1.409 -0.8580  2.9958  1.8377
  224SOL    HW2  672   2.497   0.197   1.477 -0.7046 -0.4761  0.7411
  225SOL     OW  673   0.655   0.110   1.205 -0.2827  0.0807 -0.0262
  225SOL    HW1  674   0.575   0.164   1.242  0.6127  0.4229  0.1703
  225SOL    HW2  675   0.729   0.171   1.164  0.3929  0.5693 -1.1401
  226SOL     OW  676   1.226   1.674   3.016 -0.2564 -0.0647 -0.3029
  226SOL    HW1  677   1.292   1.664   2.935  3.1429  0.9810 -1.1515
  226SOL    HW2  678   1.263   1.620   0.001 -0.3912  0.3457  1.0363
  227SOL     OW  679   1.021   1.558   1.258 -0.2475 -0.2617 -0.1371
  227SOL    HW1  680   1.044   1.502   1.177 -0.1214 -0.8891  0.8522
  227SOL    HW2  681   1.098   1.550   1.331  1.5479  1.2080  3.8574
  228SOL     OW  682   0.526   1.683   0.719  0.0469  0.2672  0.2849
  228SOL    HW1  683   0.515   1.601   0.783 -1.2976 -1.3272  3.3890
  228SOL    HW2  684   0.502   1.772   0.764  0.6091  1.7468 -1.2303
  229SOL     OW  685   1.264   0.529   0.025 -0.5817  0.0477 -0.1563
  229SOL    HW1  686   1.197   0.599   0.025  0.3561  0.0507 -2.8670
  229SOL    HW2  687   1.351   0.580   0.003  1.2803 -1.0420 -2.3816
  230SOL     OW  688   1.181   0.408   2.079 -0.2583 -0.4467 -0.6411
  230SOL    HW1  689   1.237   0.451   2.006  0.6050 -2.1313  1.1241
  230SOL    HW2  690   1.229   0.333   2.123  1.0828  0.7069 -0.7526
  231SOL     OW  691   1.195   1.758   2.347  0.1812  0.4325  0.3187
  231SOL    HW1  692   1.111   1.810   2.359  1.2860 -1.8100 -1.2978
  231SOL    HW2  693   1.230   1.767   2.250 -3.0195 -1.1184  0.4436
  232SOL     OW  694   2.354   2.138   0.995  0.4851  0.1616 -0.2755
  232SOL    HW1  695   2.359   2.202   1.073  0.2935  0.0351 -1.8143
  232SOL    HW2  696   2.286   2.062   0.997 -1.3550 -1.7093 -2.6287
  233SOL     OW  697   2.679   2.897   0.301 -0.1736 -0.1947  0.0080
  233SOL    HW1  698   2.676   2.838   0.222 -0.8321  1.3866  0.4409
  233SOL    HW2  699   2.668   2.990   0.271 -0.2641 -5.1645 -3.2659
  234SOL     OW  700   0.922   0.189   2.720 -0.3698 -0.5615 -0.5477
  234SOL    HW1  701   0.967   0.273   2.759 -0.5728  2.3704 -3.2848
  234SOL    HW2  702   0.959   0.107   2.771 -0.5830 -1.2468  1.3033
  235SOL     OW  703   2.562   0.104   2.853 -0.8507  0.3147  0.3725
  235SOL    HW1  704   2.480   0.075   2.902  3.0616  0.7839  2.1979
  235SOL    HW2  705   2.582   0.201   2.871 -1.2093 -0.7739 -0.1135
  236SOL     OW  706   2.080   2.438   2.038 -0.1346 -0.0544  0.3763
  236SOL    HW1  707   2.072   2.470   2.135 -1.1482 -0.2736 -1.0312
  236SOL    HW2  708   1.995   2.387   2.012  1.7359 -3.5218 -0.2552
  237SOL     OW  709   0.759   1.436   2.224 -0.1604  0.3405  0.6093
  237SOL    HW1  710   0.821   1.517   2.231  0.3924  0.4734  1.9676
  237SOL    HW2  711   0.813   1.355   2.251  0.8484 -1.1956  0.2958
  238SOL     OW  712   1.616   0.164   2.520 -0.3163  0.3845 -0.4125
  238SOL    HW1  713   1.605   0.220   2.609  0.5902 -0.0746  3.5016
  238SOL    HW2  714   1.715   0.134   2.513  2.3451 -2.1027  1.0487
  239SOL     OW  715   0.036   1.902   1.795  0.3536  0.0581  0.0482
  239SOL    HW1  716   0.059   1.969   1.867  1.0938 -0.6984  2.1048
  239SOL    HW2  717   0.062   1.814   1.827 -0.6060  2.1451  0.0720
  240SOL     OW  718   2.997   2.501   0.754  0.2588 -0.3151  0.4426
  240SOL    HW1  719   2.965   2.436   0.823 -0.8559  2.2969 -4.5390
  240SOL    HW2  720   3.012   2.458   0.662 -0.5123 -0.2007 -1.0165
  241SOL     OW  721   2.229   1.351   1.045 -0.2764  0.2993 -0.2167
  241SOL    HW1  722   2.236   1.406   0.961 -1.6134 -3.2041  0.6244
  241SOL    HW2  723   2.178   1.269   1.021  0.2712  2.8498 -0.0830
  242SOL     OW  724   1.819   1.964   2.610 -0.1708  0.8540 -0.0287
  242SOL    HW1  725   1.919   1.952   2.627  0.0420 -0.9011 -1.2800
  242SOL    HW2  726   1.764   1.975   2.696 -0.6356  0.3755  0.8918
  243SOL     OW  727   0.606   2.415   1.710 -0.3106 -0.5824 -0.2382
  243SOL    HW1  728   0.569   2.469   1.630  0.6092  1.2059  0.1055
  243SOL    HW2  729   0.633   2.471   1.793  3.1883  0.4441  1.9329
  244SOL     OW  730   2.317   3.085   2.908  0.0249  0.4250  0.1096
  244SOL    HW1  731   2.265   0.058   2.856 -0.7138  0.1248 -1.8704
  244SOL    HW2  732   2.355   3.015   2.851 -3.4696  0.3468  0.2769
  245SOL     OW  733   1.520   2.924   0.938  0.6021  0.3808 -0.0003
  245SOL    HW1  734   1.495   2.889   1.030  0.3151 -1.9024  0.3495
  245SOL    HW2  735   1.471   2.868   0.867 -3.7581  3.2016 -0.4608
  246SOL     OW  736   1.636   2.463   0.223 -0.0587 -0.5410 -0.1911
  246SOL    HW1  737   1.738   2.467   0.232 -0.7308 -0.0919  1.6808
  246SOL    HW2  738   1.605   2.382   0.166 -1.3045 -4.7704 -0.7145
  247SOL     OW  739   0.825   0.261   2.095 -0.4437 -0.0375 -0.5418
  247SOL    HW1  740   0.764   0.320   2.155 -3.2322  0.3612 -1.3836
  247SOL    HW2  741   0.879   0.188   2.149 -0.2909  0.9634  0.6493
  248SOL     OW  742   0.496   1.801   1.813 -0.2845 -0.0404  0.1731
  248SOL    HW1  743   0.586   1.847   1.786  3.3106  0.5224  1.4658
  248SOL    HW2  744   0.492   1.701   1.792 -0.5465  0.1896  0.0333
  249SOL     OW  745   2.269   0.351   0.440 -0.4757 -0.3244  0.4908
  249SOL    HW1  746   2.287   0.269   0.387 -0.3486  2.1661 -0.3944
  249SOL    HW2  747   2.207   0.415   0.388  0.0274  0.3030 -0.3208
  250SOL     OW  748   0.240   0.485   0.452  0.2566 -0.2876 -0.9066
  250SOL    HW1  749   0.326   0.539   0.423  0.8759  2.6870 -1.6280
  250SOL    HW2  750   0.216   0.413   0.385  0.8868  0.9425  0.5247
  251SOL     OW  751   1.737   0.358   2.868  0.1695 -0.2456  0.1105
  251SOL    HW1  752   1.796   0.385   2.788 -0.9580 -1.3784 -1.8266
  251SOL    HW2  753   1.784   0.275   2.901 -0.8888  0.6444 -1.7246
  252SOL     OW  754   1.737   1.761   1.927 -0.2395  0.3026  0.0581
  252SOL    HW1  755   1.688   1.786   2.015 -1.5628  0.8643  1.4023
  252SOL    HW2  756   1.762   1.660   1.940 -0.3458 -1.7474 -1.2737
  253SOL     OW  757   2.615   2.323   1.830 -0.2210 -0.1731  0.4998
  253SOL    HW1  758   2.659   2.343   1.918 -1.2178 -1.5922  1.4498
  253SOL    HW2  759   2.624   2.225   1.800  2.7373 -2.0254 -2.5106
  254SOL     OW  760   3.097   1.457   1.136 -1.3447 -0.3638 -0.7737
  254SOL    HW1  761   3.073   1.373   1.186 -0.8160 -0.1195  0.9739
  254SOL    HW2  762   0.083   1.507   1.171  2.1476 -0.1487  0.5750
  255SOL     OW  763   1.081   0.408   1.240  0.0669  0.2625 -0.3919
  255SOL    HW1  764   1.017   0.333   1.259  0.2959  0.7207  1.1085
  255SOL    HW2  765   1.149   0.407   1.319  1.1105  0.4568  0.0475
  256SOL     OW  766   2.144   2.560   1.732  0.4182  0.3722 -0.0714
  256SOL    HW1  767   2.195   2.575   1.817  0.1434  2.3849  0.6656
  256SOL    HW2  768   2.042   2.538   1.754 -2.2947 -0.0226  1.0132
  257SOL     OW  769   0.618   2.779   2.556  0.0546  0.0488 -0.5806
  257SOL    HW1  770   0.704   2.802   2.607 -1.4423  0.9878 -0.3363
  257SOL    HW2  771   0.600   2.679   2.559  1.2871 -0.1908 -1.1701
  258SOL     OW  772   0.775   2.345   0.015  0.6265  0.3688 -0.0517
  258SOL    HW1  773   0.864   2.303   0.036  1.2622 -1.5120 -0.8774
  258SOL    HW2  774   0.734   2.289   3.036  0.4949  1.7404 -1.0061
  259SOL     OW  775   0.985   3.081   2.022 -0.0400  0.3558 -0.1271
  259SOL    HW1  776   1.081   0.005   1.994 -0.4512 -0.5716 -3.4045
  259SOL    HW2  777   0.922   3.087   1.941 -1.4212 -2.1954  0.9186
  260SOL     OW  778   1.644   0.622   1.011 -0.1405 -0.2231  0.5772
  260SOL    HW1  779   1.671   0.706   0.956  2.2663  3.1725 -0.7717
  260SOL    HW2  780   1.701   0.611   1.098 -0.1257 -0.5712 -0.4715
  261SOL     OW  781   0.459   0.320   2.452  0.0372  0.2354 -0.1695
  261SOL    HW1  782   0.465   0.417   2.462 -0.6646 -2.8111 -1.5320
  261SOL    HW2  783   0.547   0.281   2.454 -0.9408  2.4332  2.4832
  262SOL     OW  784   0.186   2.060   2.009 -0.1518  0.8013  0.2034
  262SOL    HW1  785   0.248   2.136   1.992 -0.3357 -0.6753  3.0460
  262SOL    HW2  786   0.235   1.966   2.027  3.1601 -3.3312  0.5370
  263SOL     OW  787   2.851   1.659   2.393  0.2173 -0.2741  0.7059
  263SOL    HW1  788   2.813   1.727   2.327  0.1806  1.2294  2.9724
  263SOL    HW2  789   2.950   1.668   2.418 -1.5063 -0.3784  1.5668
  264SOL     OW  790   0.676   1.061   1.014 -0.3200 -0.3349  0.0461
  264SOL    HW1  791   0.641   1.052   1.111 -0.1134  1.8343 -1.1015
  264SOL    HW2  792   0.601   1.051   0.945 -1.6064  2.2404  1.6437
  265SOL     OW  793   0.988   2.409   0.966  0.0878  0.0634 -0.0836
  265SOL    HW1  794   0.936   2.323   0.974 -0.1071  1.4732 -1.0413
  265SOL    HW2  795   1.071   2.406   1.027 -1.0229 -1.5492 -2.0711
  266SOL     OW  796   1.556   1.110   0.930 -0.3793 -0.3518  0.4125
  266SOL    HW1  797   1.587   1.154   1.016 -0.0712  2.5174 -0.6201
  266SOL    HW2  798   1.615   1.131   0.851 -1.0874  0.2359  0.5036
  267SOL     OW  799   2.620   1.096   0.157 -0.1218  0.3605  0.4207
  267SOL    HW1  800   2.673   1.128   0.237 -0.5027 -0.4374 -0.5641
  267SOL    HW2  801   2.675   1.052   0.084  0.3502  0.4684 -3.2464
  268SOL     OW  802   1.297   0.360   0.235  0.3928 -0.3342 -0.4372
  268SOL    HW1  803   1.340   0.412   0.312  1.0519 -0.8282  2.3707
  268SOL    HW2  804   1.283   0.427   0.156 -1.2390  1.6948 -0.9976
  269SOL     OW  805   2.292   0.679   2.629 -0.3571 -0.3378 -0.4562
  269SOL    HW1  806   2.294   0.614   2.707 -1.8760 -1.7944  0.8386
  269SOL    HW2  807   2.203   0.733   2.630 -0.6089 -1.7477 -0.5399
  270SOL     OW  808   0.201   0.922   0.014 -0.1351 -0.3190  0.1541
  270SOL    HW1  809   0.225   0.855   0.089  0.5855 -1.6615 -0.3580
  270SOL    HW2  810   0.111   0.963   0.026 -0.0311  1.0224 -1.9040
  271SOL     OW  811   2.811   1.091   0.361 -0.1583  0.0596 -0.0478
  271SOL    HW1  812   2.742   1.071   0.432 -0.7974 -1.1095 -1.7248
  271SOL    HW2  813   2.863   1.171   0.390 -0.1680 -0.7670 -0.9432
  272SOL     OW  814   3.054   2.774   2.719  0.3263  0.0032  0.7958
  272SOL    HW1  815   0.026   2.812   2.652  1.3342  1.4841 -2.5413
  272SOL    HW2  816   3.053   2.675   2.710 -1.6770 -0.0023  1.7226
  273SOL     OW  817   2.831   3.024   0.004 -0.6316  0.2859  0.4594
  273SOL    HW1  818   2.929   3.041   0.039 -0.9158  1.8624 -1.2596
  273SOL    HW2  819   2.827   3.033   3.002  1.6164  0.5420  3.0222
  274SOL     OW  820   0.628   2.472   0.976  0.0092  0.5463  0.6987
  274SOL    HW1  821   0.641   2.572   0.978 -0.3208  0.5432  0.2472
  274SOL    HW2  822   0.676   2.428   0.901 -1.6233 -0.3098  0.5702
  275SOL     OW  823   2.713   1.462   0.182  0.1574 -0.3079  0.5228
  275SOL    HW1  824   2.731   1.496   0.086 -0.7345 -0.7542 -0.9466
  275SOL    HW2  825   2.800   1.456   0.235 -2.2721 -2.4628  1.2000
  276SOL     OW  826   2.932   1.156   1.803  0.0590  0.6327  0.2113
  276SOL    HW1  827   2.902   1.073   1.752 -1.1526 -0.4371  1.0827
  276SOL    HW2  828   2.978   1.224   1.745 -0.7783 -2.1637  1.8740
  277SOL     OW  829   2.104   0.131   1.089  0.4979 -0.2875  0.0862
  277SOL    HW1  830   2.165   0.048   1.074 -0.3591 -1.4972 -0.3698
  277SOL    HW2  831   2.063   0.165   1.000  3.5258 -1.0195  0.8939
  278SOL     OW  832   1.375   2.426   2.268 -0.5807 -0.3803  0.0685
  278SOL    HW1  833   1.464   2.394   2.240 -4.1177  0.5947  2.6920
  278SOL    HW2  834   1.305   2.378   2.216  1.4903 -0.7976  0.3617
  279SOL     OW  835   1.675   1.846   0.647 -0.1188 -0.3044  0.1265
  279SOL    HW1  836   1.749   1.885   0.589  1.1277  0.9680 -0.1790
  279SOL    HW2  837   1.590   1.894   0.648  0.2327 -0.4945  0.6231
  280SOL     OW  838   0.237   1.219   1.067  0.0083  0.0777  0.0345
  280SOL    HW1  839   0.234   1.290   0.993  1.8688 -2.2184  0.5027
  280SOL    HW2  840   0.292   1.259   1.142 -0.0108 -2.1853  1.0985
  281SOL     OW  841   0.067   1.426   2.358  0.0466 -0.0664 -0.1203
  281SOL    HW1  842   0.166   1.405   2.354 -0.8094  1.3455 -0.0043
  281SOL    HW2  843   0.046   1.508   2.421  1.8197  1.1992 -2.2573
  282SOL     OW  844   0.626   1.568   0.034 -0.0389  0.0652 -0.0145
  282SOL    HW1  845   0.580   1.536   0.125  0.4346 -1.4824  2.3015
  282SOL    HW2  846   0.638   1.672   0.030  1.0605  1.3380 -2.2708
  283SOL     OW  847   2.402   2.362   3.057  0.4895 -0.2786 -0.0979
  283SOL    HW1  848   2.343   2.361   0.038 -1.4049  1.2425 -2.3100
  283SOL    HW2  849   2.495   2.395   3.082 -0.9826 -1.5790 -2.6965
  284SOL     OW  850   0.889   0.033   0.486 -0.0641 -0.1457  0.7094
  284SOL    HW1  851   0.903   3.085   0.575 -3.4103  0.1497 -1.0056
  284SOL    HW2  852   0.973   0.031   0.425  1.4387 -0.4940 -0.8668
  285SOL     OW  853   2.375   1.156   2.846  0.5628  0.2118  0.0698
  285SOL    HW1  854   2.466   1.105   2.834  1.3547 -1.2890  0.0155
  285SOL    HW2  855   2.398   1.253   2.874  0.7930  2.5118 -2.1380
  286SOL     OW  856   1.947   2.675   1.305  0.0468 -0.4857 -0.4053
  286SOL    HW1  857   2.012   2.684   1.379 -2.4227  1.9620  0.3084
  286SOL    HW2  858   1.855   2.695   1.339  0.2584 -1.5465 -3.2767
  287SOL     OW  859   1.140   0.356   0.616  0.1436 -0.2293 -0.0958
  287SOL    HW1  860   1.098   0.330   0.526 -1.2592 -0.8553 -0.6504
  287SOL    HW2  861   1.153   0.455   0.614 -2.5582 -0.4327  1.4999
  288SOL     OW  862   1.184   2.503   2.670 -0.4665 -0.3479 -0.2638
  288SOL    HW1  863   1.125   2.436   2.723 -0.2467 -1.2820  1.8442
  288SOL    HW2  864   1.201   2.588   2.726  2.4027  0.6327 -0.7466
  289SOL     OW  865   0.212   1.590   1.229 -0.5885  0.2912  0.3361
  289SOL    HW1  866   0.211   1.678   1.274  0.2491 -2.2105  1.8976
  289SOL    HW2  867   0.259   1.522   1.287 -0.9683  0.7749 -4.7344
  290SOL     OW  868   1.464   2.195   1.012  0.3288  0.4083 -0.2843
  290SOL    HW1  869   1.494   2.278   1.060  0.3150  3.0232 -1.4232
  290SOL    HW2  870   1.532   2.124   1.031 -0.3551  1.0296  2.7946
  291SOL     OW  871   1.710   2.920   0.116  0.1028  0.2899  0.1153
  291SOL    HW1  872   1.657   2.833   0.097 -1.2772 -1.0765  1.0095
  291SOL    HW2  873   1.644   2.992   0.132 -0.8849  0.3506  0.4569
  292SOL     OW  874   0.499   0.253   1.670  0.6354  0.0601  0.3406
  292SOL    HW1  875   0.581   0.283   1.618 -1.1761  0.6160  2.7051
  292SOL    HW2  876   0.510   0.265   1.771  0.3976  0.9089  1.1786
  293SOL     OW  877   2.374   2.326   1.215 -0.0030  0.5041  0.6067
  293SOL    HW1  878   2.434   2.353   1.293 -1.2304 -0.7559  0.9173
  293SOL    HW2  879   2.292   2.391   1.209 -2.9738 -1.3560  0.8289
  294SOL     OW  880   0.666   0.468   2.198  0.2362 -0.4211 -0.0935
  294SOL    HW1  881   0.578   0.452   2.151  2.5375 -0.1339 -2.2521
  294SOL    HW2  882   0.649   0.481   2.298 -3.4417  0.5148 -0.3339
  295SOL     OW  883   1.423   1.684   1.302 -0.1372 -0.2914 -0.1719
  295SOL    HW1  884   1.347   1.740   1.268  3.4264 -1.3129 -0.7620
  295SOL    HW2  885   1.510   1.713   1.260 -1.9172 -0.0654 -0.9782
  296SOL     OW  886   2.622   1.876   0.299 -0.1191  0.1566  0.4364
  296SOL    HW1  887   2.703   1.896   0.245 -1.7768 -2.0200  0.8124
  296SOL    HW2  888   2.537   1.931   0.268  2.2215  2.1393  0.3009
  297SOL     OW  889   2.147   2.942   0.200  0.7762 -0.0692  0.7323
  297SOL    HW1  890   2.225   2.981   0.145 -0.8186  2.8156  1.3721
  297SOL    HW2  891   2.175   2.885   0.278  2.6805 -0.2476  1.8374
  298SOL     OW  892   0.879   2.811   2.658 -1.0009 -0.2616 -0.1273
  298SOL    HW1  893   0.952   2.777   2.595  1.9226  1.4024 -3.1775
  298SOL    HW2  894   0.893   2.902   2.701 -0.4966  1.0958 -2.9743
  299SOL     OW  895   0.952   2.109   2.082 -0.0025 -0.3293  0.0254
  299SOL    HW1  896   0.971   2.010   2.101  2.3425 -1.0768 -1.8815
  299SOL    HW2  897   0.989   2.165   2.159  0.1095  1.4651  2.1320
  300SOL     OW  898   2.986   0.221   2.500  0.0951  0.1667  0.1364
  300SOL    HW1  899   3.042   0.235   2.582  1.6737  1.7186  0.7003
  300SOL    HW2  900   2.890   0.253   2.525 -2.4622  0.8286 -0.9884
  301SOL     OW  901   1.006   0.788   2.022 -0.7304  0.0572  0.1673
  301SOL    HW1  902   0.978   0.705   2.079 -0.4608  0.9986  0.6683
  301SOL    HW2  903   1.098   0.824   2.042 -0.2173  1.6983  0.7870
  302SOL     OW  904   3.063   2.327   0.542 -0.0019  0.0936  0.2474
  302SOL    HW1  905   0.056   2.287   0.516  1.7452  0.4947 -0.5719
  302SOL    HW2  906   2.977   2.267   0.532 -0.4061 -2.0711 -0.0887
  303SOL     OW  907   2.432   2.520   1.724 -0.2239  0.2020  0.0955
  303SOL    HW1  908   2.508   2.457   1.740 -3.1586  1.0918 -1.2363
  303SOL    HW2  909   2.370   2.513   1.803  0.0471  0.7520  0.0061
  304SOL     OW  910   2.866   0.930   1.664 -0.1914  0.2849  0.1162
  304SOL    HW1  911   2.889   0.877   1.746 -2.2097  0.8203 -3.6915
  304SOL    HW2  912   2.947   0.916   1.600  0.6614  0.8211 -0.2525
  305SOL     OW  913   0.805   1.370   1.283 -0.7367 -0.1540  0.1443
  305SOL    HW1  914   0.867   1.452   1.286  0.8116  0.4136 -0.3674
  305SOL    HW2  915   0.772   1.357   1.185 -0.5664  0.7341  0.1368
  306SOL     OW  916   0.524   1.447   2.024  0.2917 -0.4669  0.1427
  306SOL    HW1  917   0.489   1.359   2.058  0.6192 -0.9420 -0.7997
  306SOL    HW2  918   0.571   1.496   2.102 -1.1368  2.0077 -2.4925
  307SOL     OW  919   0.695   0.490   1.804 -0.0117 -0.0856 -0.2506
  307SOL    HW1  920   0.651   0.405   1.844 -2.3686 -1.2995 -3.5922
  307SOL    HW2  921   0.713   0.483   1.702  3.5497  1.0934 -4.7384
  308SOL     OW  922   2.964   1.257   1.255 -0.4855  0.0377 -0.0729
  308SOL    HW1  923   2.908   1.296   1.327  0.2914 -1.5394 -2.0218
  308SOL    HW2  924   2.911   1.184   1.214  1.5458  0.9235  0.4198
  309SOL     OW  925   2.748   1.440   1.047 -0.6856  0.2754 -0.4270
  309SOL    HW1  926   2.759   1.412   1.142  1.0658  2.2551 -0.5201
  309SOL    HW2  927   2.776   1.372   0.983  1.7560 -2.1451  1.5283
  310SOL     OW  928   2.930   2.297   2.665  0.4419  0.3165 -0.3612
  310SOL    HW1  929   2.837   2.273   2.695  0.5529  1.7298 -1.7139
  310SOL    HW2  930   2.956   2.223   2.600 -1.4118 -1.1066  0.7899
  311SOL     OW  931   2.857   2.671   2.377 -0.1952  1.0984 -0.0634
  311SOL    HW1  932   2.897   2.739   2.310 -0.8331  0.8561 -2.4207
  311SOL    HW2  933   2.781   2.711   2.436 -0.6953  1.3499  1.6511
  312SOL     OW  934   2.182   2.002   0.075 -0.0625 -0.4849  0.1233
  312SOL    HW1  935   2.082   2.016   0.101 -3.7691  3.4333  1.4110
  312SOL    HW2  936   2.208   1.906   0.069 -1.4287 -3.2105 -1.1056
  313SOL     OW  937   2.740   2.727   0.763  0.2239  0.1185 -0.0624
  313SOL    HW1  938   2.814   2.683   0.813  0.7476 -0.8807 -1.2944
  313SOL    HW2  939   2.759   2.750   0.665 -2.4550 -2.8905 -2.9794
  314SOL     OW  940   1.924   1.175   0.133 -0.1011  0.4468 -0.3338
  314SOL    HW1  941   1.867   1.252   0.175 -2.0115  1.8357  0.3020
  314SOL    HW2  942   1.977   1.209   0.053  0.2474 -0.1581 -0.1990
  315SOL     OW  943   1.479   2.861   2.205 -0.0967 -0.2580  0.0165
  315SOL    HW1  944   1.555   2.825   2.263  2.3933  0.7365  1.3597
  315SOL    HW2  945   1.516   2.886   2.112 -0.9235 -0.6914  0.4321
  316SOL     OW  946   2.850   0.833   3.077  0.5087  0.1649 -0.4427
  316SOL    HW1  947   2.916   0.904   0.018 -0.4601 -1.4318 -0.6104
  316SOL    HW2  948   2.905   0.775   3.013  0.4148  1.0439 -0.1502
  317SOL     OW  949   0.641   2.820   0.211  0.8730 -0.4456  0.7602
  317SOL    HW1  950   0.577   2.867   0.144 -0.3509 -0.5189 -1.1782
  317SOL    HW2  951   0.732   2.808   0.162 -0.2788 -1.1232 -0.7189
  318SOL     OW  952   2.399   2.511   0.746  0.0369 -0.0598  0.0706
  318SOL    HW1  953   2.336   2.487   0.822 -1.4832  0.4192 -0.2440
  318SOL    HW2  954   2.498   2.489   0.773  3.8584 -0.4026  2.0525
  319SOL     OW  955   1.161   1.874   2.804 -0.6008  0.5788  0.3961
  319SOL    HW1  956   1.171   1.838   2.899 -0.6756 -1.1440 -1.4960
  319SOL    HW2  957   1.068   1.849   2.767 -2.0063  0.5607 -0.2303
  320SOL     OW  958   0.429   2.007   1.614  0.0538  0.3246  0.3081
  320SOL    HW1  959   0.416   1.923   1.667  0.2468  2.7012 -3.6237
  320SOL    HW2  960   0.344   2.057   1.589  0.0538 -1.3585  0.7705
  321SOL     OW  961   1.568   2.751   2.537 -0.4675 -0.1141  0.1281
  321SOL    HW1  962   1.468   2.749   2.510 -2.0506  0.6820  0.1267
  321SOL    HW2  963   1.627   2.767   2.452 -1.6605  0.9426 -0.5460
  322SOL     OW  964   2.803   1.466   2.197 -0.4724 -0.2438 -0.0256
  322SOL    HW1  965   2.841   1.523   2.274  1.4979 -1.6961  0.4260
  322SOL    HW2  966   2.783   1.369   2.221  0.0628  1.3952 -0.2641
  323SOL     OW  967   2.400   0.674   1.034  0.1443  0.2150  0.1366
  323SOL    HW1  968   2.428   0.763   0.989 -1.0203 -2.3799  0.9754
  323SOL    HW2  969   2.368   0.699   1.127 -0.1994  3.9775 -0.0331
  324SOL     OW  970   2.685   3.034   2.180  0.1859 -0.1394  0.3995
  324SOL    HW1  971   2.649   2.977   2.258  1.2246 -3.0927  1.0973
  324SOL    HW2  972   2.628   0.016   2.158  2.0707  0.2986 -0.0462
  325SOL     OW  973   1.066   0.774   2.596 -0.3602  0.0779 -0.0188
  325SOL    HW1  974   0.983   0.750   2.648  0.6207 -2.0870 -0.8522
  325SOL    HW2  975   1.077   0.717   2.514  0.9980 -0.8398  2.3503
  326SOL     OW  976   1.760   3.041   1.874  0.4172 -0.0566 -0.5150
  326SOL    HW1  977   1.737   0.029   1.920 -0.8659 -1.0334  0.0694
  326SOL    HW2  978   1.823   2.986   1.931 -1.4109  2.3277 -2.6489
  327SOL     OW  979   2.168   0.293   0.124 -0.4105 -0.3301 -0.2279
  327SOL    HW1  980   2.110   0.251   0.050 -0.5931 -0.0303  0.4060
  327SOL    HW2  981   2.244   0.233   0.158 -0.3417  1.2340  1.6854
  328SOL     OW  982   0.022   1.650   2.498  0.7249 -0.0753  0.3586
  328SOL    HW1  983   0.006   1.639   2.599  1.1045  1.9255 -0.1908
  328SOL    HW2  984   0.117   1.688   2.492 -2.5054  0.0570  2.4477
  329SOL     OW  985   1.883   0.020   1.620  0.3172  0.5050  0.7103
  329SOL    HW1  986   1.857   3.046   1.686 -1.9249  0.8933 -2.0807
  329SOL    HW2  987   1.936   3.074   1.545 -0.9191  0.3021  1.0081
  330SOL     OW  988   0.321   0.975   0.976  0.2298  0.1570 -0.2101
  330SOL    HW1  989   0.277   0.899   1.026  2.5134  1.1596  0.2036
  330SOL    HW2  990   0.301   1.067   1.017  1.4327 -1.4571  1.5405
  331SOL     OW  991   0.328   1.647   2.242  0.5955  0.5147 -0.2643
  331SOL    HW1  992   0.428   1.654   2.214  2.7097 -0.9069  5.0567
  331SOL    HW2  993   0.309   1.659   2.344 -0.8765  1.4475  0.4794
  332SOL     OW  994   3.071   2.719   1.408 -0.1181  0.4688  0.2924
  332SOL    HW1  995   3.060   2.777   1.492 -1.5295 -0.6990  1.3957
  332SOL    HW2  996   3.030   2.767   1.331 -0.4378 -1.9637  0.4621
  333SOL     OW  997   2.427   0.112   0.767  0.1186 -0.1134  0.1481
  333SOL    HW1  998   2.378   0.025   0.764  0.8053  2.5077  0.5961
  333SOL    HW2  999   2.354   0.183   0.749  3.8297 -0.9288  3.9162
  334SOL     OW 1000   0.513   2.044   0.540 -0.3669 -0.1135 -0.0869
  334SOL    HW1 1001   0.614   2.013   0.546 -1.4097 -0.1630  0.4611
  334SOL    HW2 1002   0.501   2.125   0.603 -2.2773  4.7547  1.5149
  335SOL     OW 1003   0.214   2.689   3.025  0.2418 -0.3768 -0.2658
  335SOL    HW1 1004   0.130   2.629   3.031 -0.0612  0.7697  0.3525
  335SOL    HW2 1005   0.293   2.635   3.004 -2.7700  2.1126  0.0684
  336SOL     OW 1006   3.077   2.643   1.951  0.0471  0.5973 -0.7660
  336SOL    HW1 1007   3.074   2.616   1.854 -0.5182 -0.5410 -0.4774
  336SOL    HW2 1008   0.048   2.709   1.978 -0.3030 -0.9680 -3.3568
  337SOL     OW 1009   2.226   2.134   2.513 -0.4704  0.1279  0.9678
  337SOL    HW1 1010   2.288   2.168   2.584 -0.6141 -1.5222  0.2273
  337SOL    HW2 1011   2.278   2.078   2.444  1.5035 -2.4092 -2.3256
  338SOL     OW 1012   0.696   0.266   0.510 -0.3027  0.6430  0.1111
  338SOL    HW1 1013   0.689   0.353   0.451  1.9135  1.8281 -0.5360
  338SOL    HW2 1014   0.786   0.219   0.494 -0.6030 -1.2130 -0.9437
  339SOL     OW 1015   0.173   0.781   2.055  0.4309  0.1907 -0.4628
  339SOL    HW1 1016   0.135   0.714   2.112  2.0171  0.1008 -1.4698
  339SOL    HW2 1017   0.116   0.864   2.045 -0.9202  0.8031  0.7662
  340SOL     OW 1018   1.841   2.988   0.335  0.3208 -0.1069 -0.3477
  340SOL    HW1 1019   1.904   3.069   0.340 -2.8045 -0.1481 -1.0912
  340SOL    HW2 1020   1.800   2.976   0.243 -3.7987  0.8160 -0.7114
  341SOL     OW 1021   2.040   0.860   0.979  0.7653  0.2473  0.2330
  341SOL    HW1 1022   1.943   0.829   0.967  0.2353 -0.7356  0.4699
  341SOL    HW2 1023   2.102   0.801   0.925 -1.5276 -0.0175  0.0577
  342SOL     OW 1024   2.423   2.744   0.082  0.3676  0.1011  1.1605
  342SOL    HW1 1025   2.405   2.846   0.088 -2.2328  1.2651 -0.1490
  342SOL    HW2 1026   2.479   2.723   0.001 -4.8015  1.1867  0.6100
  343SOL     OW 1027   1.486   2.024   1.610  0.3987  0.0162 -0.5246
  343SOL    HW1 1028   1.566   2.017   1.669  1.6580  1.2039  0.8347
  343SOL    HW2 1029   1.430   1.938   1.609  1.9320  0.8260  0.4244
  344SOL     OW 1030   2.382   2.646   1.073 -0.1045  0.0242 -0.3584
  344SOL    HW1 1031   2.293   2.688   1.085  2.1146  0.7607 -1.4318
  344SOL    HW2 1032   2.371   2.564   1.016 -1.0994 -0.8579  0.8176
  345SOL     OW 1033   2.894   2.504   0.174 -0.0061  0.6388  0.0222
  345SOL    HW1 1034   2.928   2.527   0.268  1.3598  2.8149 -0.3138
  345SOL    HW2 1035   2.878   2.402   0.164 -0.7490 -1.5685 -0.2106
  346SOL     OW 1036   2.673   1.860   0.830  0.3405  0.1149 -0.2304
  346SOL    HW1 1037   2.621   1.943   0.793  0.8734  2.7288  2.4916
  346SOL    HW2 1038   2.768   1.893   0.836 -2.9183 -0.3596  0.0408
  347SOL     OW 1039   1.705   1.989   1.778  0.3061  0.6511 -0.3027
  347SOL    HW1 1040   1.667   2.065   1.830 -2.4257 -0.7229  0.8490
  347SOL    HW2 1041   1.731   1.906   1.835  2.1009  0.7018  2.4229
  348SOL     OW 1042   0.531   1.684   2.534 -0.3031 -0.4105 -0.2861
  348SOL    HW1 1043   0.544   1.603   2.473  0.6474  0.7251  1.6488
  348SOL    HW2 1044   0.554   1.665   2.633 -1.3052  0.1305  2.4190
  349SOL     OW 1045   2.500   1.306   0.930 -0.7185 -0.0270  0.4891
  349SOL    HW1 1046   2.414   1.299   0.984  1.3479 -0.3953  3.2621
  349SOL    HW2 1047   2.577   1.349   0.985 -0.6871 -1.0237  1.0495
  350SOL     OW 1048   3.023   2.436   1.177 -0.3356 -0.2491  0.6059
  350SOL    HW1 1049   2.958   2.511   1.192 -1.1314 -2.0259  0.6867
  350SOL    HW2 1050   3.035   2.374   1.253  0.8795  1.8057  1.7984
  351SOL     OW 1051   0.490   0.033   2.145  0.3884 -0.0562  0.0213
  351SOL    HW1 1052   0.409   0.097   2.130 -3.0702  2.8430  1.1537
  351SOL    HW2 1053   0.535   0.047   2.237  1.9214  0.7472  0.7556
  352SOL     OW 1054   0.914   1.534   0.870 -0.3304 -0.1709 -0.0995
  352SOL    HW1 1055   0.993   1.499   0.924  1.6231  0.5576  1.7954
  352SOL    HW2 1056   0.915   1.488   0.780  1.3394 -1.6141 -1.5172
  353SOL     OW 1057   1.316   1.552   2.529  0.0096 -0.4331 -0.0891
  353SOL    HW1 1058   1.283   1.636   2.475  0.2370  2.5691 -1.7117
  353SOL    HW2 1059   1.236   1.494   2.552  2.9889  1.6341  2.8207
  354SOL     OW 1060   1.448   0.074   0.828  0.0277 -0.0108 -0.3247
  354SOL    HW1 1061   1.462   3.079   0.868  0.9660  1.8803  1.4517
  354SOL    HW2 1062   1.414   0.139   0.899  0.7577 -0.9517 -2.1489
  355SOL     OW 1063   2.779   1.418   0.680 -0.7887 -0.2562 -0.3750
  355SOL    HW1 1064   2.687   1.375   0.666 -0.3760  0.1808  3.2463
  355SOL    HW2 1065   2.770   1.519   0.686 -2.6256 -1.2043  0.7428
  356SOL     OW 1066   2.460   1.625   2.257  0.5851  0.0975 -0.3805
  356SOL    HW1 1067   2.378   1.673   2.304  0.4332  0.9542  0.6292
  356SOL    HW2 1068   2.484   1.684   2.179 -1.1536 -1.4240 -1.0497
  357SOL     OW 1069   0.420   2.612   1.555  0.4783 -0.3799  0.1583
  357SOL    HW1 1070   0.356   2.664   1.498  0.3535 -1.4483  0.8104
  357SOL    HW2 1071   0.516   2.646   1.553  0.2129  0.6604  0.3513
  358SOL     OW 1072   2.230   0.743   1.549 -0.2139  0.1899 -0.3631
  358SOL    HW1 1073   2.273   0.650   1.575  0.4071 -1.4298  1.8682
  358SOL    HW2 1074   2.282   0.819   1.589 -1.6201 -0.5300  0.6981
  359SOL     OW 1075   2.113   2.581   2.775  0.2614  0.0731 -0.0176
  359SOL    HW1 1076   2.053   2.634   2.714 -0.1370 -1.5299  1.3401
  359SOL    HW2 1077   2.164   2.642   2.833 -1.5553  1.3728 -1.4477
  360SOL     OW 1078   0.986   0.325   0.830 -0.4240 -0.1272 -0.0268
  360SOL    HW1 1079   0.987   0.410   0.884  0.5409  0.3058  3.9496
  360SOL    HW2 1080   1.051   0.320   0.749 -0.0035 -2.7802 -1.0456
  361SOL     OW 1081   1.867   3.096   1.177 -0.0665  0.0392  0.0193
  361SOL    HW1 1082   1.792   0.064   1.151  0.6909  2.1180 -1.3607
  361SOL    HW2 1083   1.959   0.043   1.165  3.7357  0.1826  0.2455
  362SOL     OW 1084   1.309   1.198   0.617 -0.6281 -0.4265  0.5367
  362SOL    HW1 1085   1.394   1.250   0.589 -0.5923  2.0728 -1.0442
  362SOL    HW2 1086   1.330   1.127   0.681  1.6971  0.9622  1.0650
  363SOL     OW 1087   2.102   1.520   2.620  0.5804 -0.3519  0.1371
  363SOL    HW1 1088   2.165   1.585   2.668 -1.8002 -0.7850 -0.2278
  363SOL    HW2 1089   2.146   1.464   2.548  1.5066  0.9481  2.0995
  364SOL     OW 1090   0.440   0.258   1.227 -0.0872 -0.3836 -0.1256
  364SOL    HW1 1091   0.458   0.314   1.144 -0.7930  0.9286  1.2218
  364SOL    HW2 1092   0.372   0.313   1.273  0.7636 -0.7060 -1.5069
  365SOL     OW 1093   0.209   2.743   0.205  0.5681  0.0030  0.5148
  365SOL    HW1 1094   0.183   2.707   0.114  0.7255 -0.0570 -0.8341
  365SOL    HW2 1095   0.147   2.708   0.276  0.2539  1.1820 -0.6431
  366SOL     OW 1096   2.354   2.104   2.968 -0.1884  0.1353  0.2378
  366SOL    HW1 1097   2.270   2.063   3.017  2.3755  1.7280 -0.2832
  366SOL    HW2 1098   2.380   2.194   3.004  1.9122 -1.4735  0.5188
  367SOL     OW 1099   2.517   2.498   2.826  0.1017 -0.1319  0.1201
  367SOL    HW1 1100   2.566   2.430   2.769 -0.6547 -0.0266  0.8139
  367SOL    HW2 1101   2.428   2.462   2.860  2.6159 -0.8034 -0.7233
  368SOL     OW 1102   0.179   1.657   0.967 -0.0498 -0.4709  0.0939
  368SOL    HW1 1103   0.237   1.640   1.051  0.5448  1.5669 -0.0650
  368SOL    HW2 1104   0.182   1.753   0.942  0.3345 -1.5422 -1.0693
  369SOL     OW 1105   0.932   2.679   2.905  0.4618  0.1849 -0.0525
  369SOL    HW1 1106   0.941   2.723   2.811 -3.1335  2.6342 -2.7703
  369SOL    HW2 1107   1.008   2.619   2.932 -1.8575  2.5861 -1.8096
  370SOL     OW 1108   0.174   0.857   0.659 -0.2342  0.3041  0.2755
  370SOL    HW1 1109   0.138   0.941   0.696  1.6819 -1.3756 -0.6028
  370SOL    HW2 1110   0.162   0.784   0.725  1.1260 -0.2929 -0.9365
  371SOL     OW 1111   2.013   2.689   0.901  0.1106 -0.4566 -0.3423
  371SOL    HW1 1112   2.062   2.599   0.886 -0.1923  0.9071 -1.7375
  371SOL    HW2 1113   1.935   2.700   0.835 -3.1833  0.7993 -0.1006
  372SOL     OW 1114   0.155   0.892   2.627 -0.0823 -0.3927  0.0265
  372SOL    HW1 1115   0.197   0.980   2.593  0.5684 -0.6329 -0.9912
  372SOL    HW2 1116   0.197   0.864   2.713 -0.5267  0.0156  0.4232
  373SOL     OW 1117   2.858   1.970   0.609  0.1203 -0.3054 -0.1076
  373SOL    HW1 1118   2.800   1.892   0.582  1.1506 -0.2174 -0.1582
  373SOL    HW2 1119   2.946   1.943   0.649 -0.1407 -0.0596  2.1943
  374SOL     OW 1120   0.199   2.227   0.460 -0.0630  0.5351  0.3988
  374SOL    HW1 1121   0.161   2.192   0.377  1.1318 -0.8937  2.0730
  374SOL    HW2 1122   0.285   2.275   0.446  0.5801  0.5339  2.1556
  375SOL     OW 1123   0.435   0.596   0.304  0.3100  0.0934 -0.6435
  375SOL    HW1 1124   0.510   0.605   0.374  2.8670 -3.2881 -0.2303
  375SOL    HW2 1125   0.456   0.518   0.240  3.4974 -1.2583  1.0899
  376SOL     OW 1126   0.348   2.283   1.970  0.0744  0.2045  0.4039
  376SOL    HW1 1127   0.415   2.233   1.916 -1.4575  2.2764  1.0087
  376SOL    HW2 1128   0.303   2.360   1.919 -3.6157  3.5857 -1.3586
  377SOL     OW 1129   1.805   2.465   2.951  0.0734 -0.6301 -0.2760
  377SOL    HW1 1130   1.701   2.468   2.943 -0.6719  1.1615 -2.6759
  377SOL    HW2 1131   1.843   2.480   2.859 -0.6204  0.2937  1.9842
  378SOL     OW 1132   0.915   0.521   0.520  0.3898  0.2198 -0.3991
  378SOL    HW1 1133   0.946   0.457   0.449  0.4544  1.3162  0.8471
  378SOL    HW2 1134   0.993   0.569   0.563  1.5189 -0.7261 -0.9019
  379SOL     OW 1135   0.776   1.697   0.631 -0.1795 -0.3310  0.4267
  379SOL    HW1 1136   0.676   1.690   0.658 -1.9384 -0.4497  1.4982
  379SOL    HW2 1137   0.830   1.619   0.669 -0.6228 -1.1670  1.1123
  380SOL     OW 1138   0.398   2.091   1.279 -0.1443 -0.4199  0.3142
  380SOL    HW1 1139   0.323   2.115   1.218  3.4988  0.7499  1.1700
  380SOL    HW2 1140   0.429   2.176   1.325 -0.1634  0.3852  1.6053
  381SOL     OW 1141   0.565   1.069   1.713 -0.0936  0.0440  0.0825
  381SOL    HW1 1142   0.609   1.163   1.710  0.9668 -0.0765  0.8158
  381SOL    HW2 1143   0.578   1.026   1.803  0.7148  1.0893 -2.2214
  382SOL     OW 1144   2.254   1.971   0.490  0.2403 -0.0377 -0.5676
  382SOL    HW1 1145   2.347   1.984   0.455 -2.3252  1.5356  1.5203
  382SOL    HW2 1146   2.210   1.906   0.424  0.5939 -0.9841 -0.2309
  383SOL     OW 1147   2.736   1.808   2.212 -0.2562  0.5399 -0.1889
  383SOL    HW1 1148   2.655   1.796   2.151 -0.0229  0.3741  2.1936
  383SOL    HW2 1149   2.711   1.872   2.288 -1.9533 -0.5010  0.3549
  384SOL     OW 1150   0.137   2.112   2.328 -0.0512  0.4002 -0.3918
  384SOL    HW1 1151   0.205   2.168   2.276 -1.2249  0.9778 -1.6208
  384SOL    HW2 1152   0.117   2.025   2.277 -1.2424 -1.1127  0.2436
  385SOL     OW 1153   2.742   2.126   0.951  0.6657 -0.6453 -0.2066
  385SOL    HW1 1154   2.807   2.046   0.960 -0.6087  2.1049  0.9711
  385SOL    HW2 1155   2.689   2.132   0.859 -1.9515  1.3560 -2.6783
  386SOL     OW 1156   1.715   0.865   0.912 -0.5139 -0.8160 -0.2031
  386SOL    HW1 1157   1.743   0.860   0.819  0.7485 -0.8649  3.1683
  386SOL    HW2 1158   1.664   0.951   0.933  0.5324  0.1932 -1.6032
  387SOL     OW 1159   0.332   0.638   1.906 -0.1745 -0.2155  0.6461
  387SOL    HW1 1160   0.261   0.688   1.964  4.0332 -0.1718  0.5150
  387SOL    HW2 1161   0.398   0.708   1.873  1.4937  0.5903 -2.9508
  388SOL     OW 1162   2.312   0.941   2.388 -0.7097  0.2965  0.1183
  388SOL    HW1 1163   2.338   1.038   2.410 -0.6235 -1.7160 -1.5450
  388SOL    HW2 1164   2.222   0.947   2.342 -0.6634  1.3428 -1.4408
  389SOL     OW 1165   1.881   1.150   2.053  0.6742  0.4382 -0.1172
  389SOL    HW1 1166   1.858   1.218   1.980 -1.8498  1.2820 -1.5059
  389SOL    HW2 1167   1.958   1.092   2.027  0.8873  0.6611  1.7734
  390SOL     OW 1168   1.998   2.353   0.470  0.1810 -0.1442 -0.0000
  390SOL    HW1 1169   1.967   2.416   0.394 -0.8085  0.5042  2.0295
  390SOL    HW2 1170   1.917   2.297   0.501 -1.2006 -1.8612  1.0156
  391SOL     OW 1171   2.093   2.236   1.349 -0.3944  0.2358 -0.1662
  391SOL    HW1 1172   2.088   2.152   1.293  1.7453  1.7635 -2.4193
  391SOL    HW2 1173   2.164   2.217   1.418  0.0381  0.6759  0.3819
  392SOL     OW 1174   2.832   2.639   1.183 -0.2351 -0.3353 -0.6834
  392SOL    HW1 1175   2.754   2.658   1.123 -1.6618 -0.3646  1.0572
  392SOL    HW2 1176   2.799   2.607   1.274  1.3349 -2.3526  2.3496
  393SOL     OW 1177   2.169   1.728   0.019  0.2805  0.3427  0.4254
  393SOL    HW1 1178   2.114   1.673   0.083  0.9541 -0.5930 -0.1588
  393SOL    HW2 1179   2.123   1.726   3.023  0.2178 -0.3442  2.5783
  394SOL     OW 1180   0.005   0.256   2.775  0.2346 -0.1899 -0.1533
  394SOL    HW1 1181   0.085   0.225   2.826  0.9994 -0.4500  0.3585
  394SOL    HW2 1182   3.020   0.249   2.841 -1.4455 -1.6393  4.2507
  395SOL     OW 1183   1.165   0.911   0.994  0.1216  0.7488  0.4884
  395SOL    HW1 1184   1.076   0.942   0.956  1.8321  1.3485 -2.5014
  395SOL    HW2 1185   1.186   0.813   0.968  1.2843 -1.0663  2.8802
  396SOL     OW 1186   1.184   0.764   2.852  0.2576 -0.3083 -0.7504
  396SOL    HW1 1187   1.139   0.752   2.764  1.9815 -1.4571 -1.7427
  396SOL    HW2 1188   1.276   0.724   2.844 -3.1087 -0.9924  1.6136
  397SOL     OW 1189   0.371   0.586   2.451  0.0520 -0.8340 -0.4364
  397SOL    HW1 1190   0.353   0.652   2.377 -0.5156 -2.1192 -0.8796
  397SOL    HW2 1191   0.286   0.567   2.505 -1.3204  2.2550 -1.7525
  398SOL     OW 1192   0.946   0.123   0.076  0.4353  0.3572 -0.8848
  398SOL    HW1 1193   0.912   0.194   0.147 -1.3286  1.0036  0.5806
  398SOL    HW2 1194   0.890   0.039   0.069 -0.7545  2.5913 -0.8551
  399SOL     OW 1195   2.140   2.932   1.825  0.1552  0.2435  0.1449
  399SOL    HW1 1196   2.203   2.871   1.779 -0.3558 -0.4855 -0.9107
  399SOL    HW2 1197   2.168   3.028   1.817  0.8282  2.4576 -0.0477
  400SOL     OW 1198   0.547   1.964   2.506 -0.1996  0.4189  0.5626
  400SOL    HW1 1199   0.543   1.862   2.533 -1.7318  0.0200  1.1276
  400SOL    HW2 1200   0.510   1.981   2.409 -3.2275  0.6697 -1.5909
  401SOL     OW 1201   0.732   0.441   2.659  0.0933 -0.1228  0.6031
  401SOL    HW1 1202   0.787   0.356   2.647 -0.8790  2.0936 -0.2601
  401SOL    HW2 1203   0.783   0.513   2.706  0.3846  0.4298  2.0148
  402SOL     OW 1204   3.017   2.297   1.916  0.3929 -0.4705 -0.0766
  402SOL    HW1 1205   3.022   2.210   1.966 -0.1756  1.1734 -1.9284
  402SOL    HW2 1206   2.934   2.349   1.950 -1.1187  0.1537 -0.7888
  403SOL     OW 1207   0.451   1.194   2.095 -0.3007 -0.0985  0.2331
  403SOL    HW1 1208   0.537   1.147   2.118 -1.8692  1.0919  0.2806
  403SOL    HW2 1209   0.400   1.138   2.026 -1.1083  0.4344 -0.6296
  404SOL     OW 1210   3.094   2.476   1.528  0.5145 -0.3058  0.3714
  404SOL    HW1 1211   3.096   2.570   1.493 -2.6522 -3.1510 -0.0744
  404SOL    HW2 1212   3.038   2.413   1.466 -0.4667 -1.9266 -0.3519
  405SOL     OW 1213   0.137   0.507   1.746 -0.0757 -0.0072  0.1372
  405SOL    HW1 1214   0.222   0.541   1.789  0.9190  2.4287  0.7761
  405SOL    HW2 1215   0.151   0.413   1.716  1.5444  1.5305 -1.0126
  406SOL     OW 1216   1.843   2.151   2.989 -0.3618  0.1731 -0.3088
  406SOL    HW1 1217   1.868   2.163   3.087 -0.3362 -1.0006 -0.0109
  406SOL    HW2 1218   1.882   2.227   2.933  1.0438  0.8334  2.7107
  407SOL     OW 1219   1.595   1.116   1.988 -0.6668 -0.4377 -0.5067
  407SOL    HW1 1220   1.555   1.211   1.989  0.6698  3.7955  0.5089
  407SOL    HW2 1221   1.686   1.109   2.031 -1.3064  0.2099 -1.4845
  408SOL     OW 1222   0.666   0.106   2.790  0.7699 -0.7176 -0.3848
  408SOL    HW1 1223   0.608   0.038   2.739  0.2946  0.3150 -1.7240
  408SOL    HW2 1224   0.759   0.114   2.752  0.1016 -1.4636 -1.6168
  409SOL     OW 1225   0.061   1.958   0.410  0.3137  0.2720 -0.2050
  409SOL    HW1 1226   0.014   1.943   0.499  2.1902  0.2916 -0.7117
  409SOL    HW2 1227   0.156   1.943   0.414 -0.5519  0.8984  0.6610
  410SOL     OW 1228   2.607   1.635   0.384  0.0655  0.2264  0.1150
  410SOL    HW1 1229   2.598   1.726   0.341 -0.7108 -1.3681  0.2287
  410SOL    HW2 1230   2.650   1.567   0.315  2.2181 -1.0402  0.4633
  411SOL     OW 1231   2.995   0.125   1.007  0.4050 -0.3049  0.3756
  411SOL    HW1 1232   0.004   0.139   0.992  4.5986 -0.8124 -1.4905
  411SOL    HW2 1233   2.981   0.093   1.104 -0.2588 -1.7162 -1.1400
  412SOL     OW 1234   1.347   0.744   1.154 -0.3478  0.0814 -0.0431
  412SOL    HW1 1235   1.287   0.826   1.143  1.1204 -0.6418  0.0114
  412SOL    HW2 1236   1.443   0.761   1.125 -0.1254 -0.2673  0.1822
  413SOL     OW 1237   0.616   2.989   1.063  1.0187 -0.1266  0.0887
  413SOL    HW1 1238   0.592   3.041   0.978 -0.5971  1.5064 -0.6696
  413SOL    HW2 1239   0.625   3.056   1.139 -0.6658 -0.9713  0.3969
  414SOL     OW 1240   2.951   1.749   2.925 -0.1685  0.3048  0.1923
  414SOL    HW1 1241   2.946   1.774   2.825  1.9379 -2.1135  1.3114
  414SOL    HW2 1242   2.978   1.829   2.977 -0.1632 -2.2074 -1.9402
  415SOL     OW 1243   0.400   2.423   2.780 -0.2262 -0.6098 -0.2867
  415SOL    HW1 1244   0.350   2.349   2.819  0.4605  3.4517  0.4374
  415SOL    HW2 1245   0.338   2.492   2.734 -5.0484 -1.0447 -0.4984
  416SOL     OW 1246   1.449   0.538   0.402  0.3546  0.2244  0.0384
  416SOL    HW1 1247   1.545   0.558   0.373  0.1952  4.4523 -3.7928
  416SOL    HW2 1248   1.424   0.564   0.493 -2.9220 -1.8672 -3.0310
  417SOL     OW 1249   0.178   1.272   0.528 -0.4451  0.0047 -0.0820
  417SOL    HW1 1250   0.239   1.215   0.469  1.7956  0.8050  0.7402
  417SOL    HW2 1251   0.127   1.213   0.595  0.2665  1.3261  0.8153
  418SOL     OW 1252   2.647   1.227   2.249 -0.3338 -0.6578  0.4229
  418SOL    HW1 1253   2.561   1.274   2.224  2.8295 -1.6892 -3.1306
  418SOL    HW2 1254   2.636   1.188   2.343 -0.3525 -0.9476 -0.6287
  419SOL     OW 1255   0.220   0.579   2.861 -0.1779  0.1418 -0.2904
  419SOL    HW1 1256   0.180   0.529   2.943 -2.8234 -1.0260  1.5195
  419SOL    HW2 1257   0.195   0.528   2.782  0.4250 -1.1253 -0.6972
  420SOL     OW 1258   0.495   1.463   0.858 -0.1409  0.2024  0.0486
  420SOL    HW1 1259   0.399   1.424   0.870 -1.9876 -2.6859  0.5606
  420SOL    HW2 1260   0.555   1.407   0.794  0.2117 -0.0286  0.2897
  421SOL     OW 1261   0.753   2.321   0.779 -0.4778 -0.1548  0.0029
  421SOL    HW1 1262   0.774   2.257   0.857 -0.1208 -1.4244 -0.4239
  421SOL    HW2 1263   0.838   2.353   0.732 -0.3807 -1.6624  1.0550
  422SOL     OW 1264   3.043   0.893   1.428 -0.5804  0.6836  0.1632
  422SOL    HW1 1265   3.085   0.987   1.417  0.8731 -0.6235  0.3507
  422SOL    HW2 1266   0.015   0.829   1.476  0.1402 -3.5797  1.1974
  423SOL     OW 1267   1.227   1.512   1.420 -0.1788  1.0867  0.2252
  423SOL    HW1 1268   1.218   1.481   1.520 -1.9752  1.0477 -0.7532
  423SOL    HW2 1269   1.311   1.561   1.402 -0.0546  1.3651  0.8366
  424SOL     OW 1270   2.251   0.934   2.993 -0.2130 -0.2297 -0.0612
  424SOL    HW1 1271   2.196   0.963   3.071  1.3588  1.1522 -1.2485
  424SOL    HW2 1272   2.303   1.013   2.957  1.1958 -1.1354  0.1739
  425SOL     OW 1273   2.977   0.531   1.838  0.0984  0.5643  0.1538
  425SOL    HW1 1274   3.070   0.532   1.797 -0.3067 -1.0983 -0.1350
  425SOL    HW2 1275   2.915   0.487   1.772  0.0252 -0.9312 -0.6913
  426SOL     OW 1276   2.608   2.659   2.612 -0.1778  0.0396 -0.3260
  426SOL    HW1 1277   2.570   2.613   2.692 -1.7256  0.2452  0.1068
  426SOL    HW2 1278   2.537   2.706   2.561  3.1114 -0.2566 -0.4544
  427SOL     OW 1279   1.063   0.685   2.331 -0.3085 -0.2542 -0.1348
  427SOL    HW1 1280   1.119   0.743   2.272 -1.5243  2.5161  0.1986
  427SOL    HW2 1281   1.002   0.626   2.270  0.9338  0.6859 -0.0667
  428SOL     OW 1282   2.057   0.933   1.987  0.5096  0.5590  0.4043
  428SOL    HW1 1283   2.109   0.994   1.922  0.2835  1.8108  2.7082
  428SOL    HW2 1284   1.975   0.884   1.952 -1.0353 -2.4958  0.7176
  429SOL     OW 1285   0.067   2.758   0.448  0.1618  0.3040 -0.0464
  429SOL    HW1 1286   0.125   2.790   0.521 -3.3162 -0.8934 -1.6022
  429SOL    HW2 1287   0.005   2.831   0.413 -2.2128 -1.3029 -1.1184
  430SOL     OW 1288   2.047   1.485   2.291 -0.7531 -0.1010  0.3980
  430SOL    HW1 1289   2.121   1.440   2.342 -0.6235  1.2477 -0.2821
  430SOL    HW2 1290   1.957   1.434   2.309 -0.5228 -3.0428 -0.4383
  431SOL     OW 1291   0.353   1.776   1.404  0.0839 -0.2358  0.5952
  431SOL    HW1 1292   0.348   1.881   1.406  0.7266  2.2277 -1.7705
  431SOL    HW2 1293   0.425   1.738   1.343 -3.0160  2.3395  0.2119
  432SOL     OW 1294   1.644   0.269   2.247 -0.5154 -0.1411 -0.0648
  432SOL    HW1 1295   1.643   0.253   2.348 -0.1676  0.8409 -0.5580
  432SOL    HW2 1296   1.688   0.358   2.224  2.5176 -0.1376  0.2264
  433SOL     OW 1297   1.465   2.973   1.916 -0.0136  0.2607 -0.1848
  433SOL    HW1 1298   1.439   3.025   1.833  0.6455  0.2785  4.3616
  433SOL    HW2 1299   1.565   2.943   1.909  1.8307  0.4065  0.2357
  434SOL     OW 1300   0.382   2.839   2.259 -0.3311 -0.4718  0.1355
  434SOL    HW1 1301   0.469   2.829   2.302 -2.2668  1.3413  3.1431
  434SOL    HW2 1302   0.312   2.768   2.283 -1.1546  1.6428  0.5589
  435SOL     OW 1303   0.294   2.208   0.129  0.4830  0.2345 -0.5476
  435SOL    HW1 1304   0.357   2.289   0.127 -0.1908 -1.0952 -1.3938
  435SOL    HW2 1305   0.344   2.138   0.182 -0.2911  0.2297 -0.7014
  436SOL     OW 1306   0.591   0.742   1.845 -0.1601  0.0829  0.1890
  436SOL    HW1 1307   0.626   0.648   1.856 -2.4376  2.1639  1.3495
  436SOL    HW2 1308   0.638   0.778   1.760 -0.3608 -3.9024 -1.3102
  437SOL     OW 1309   0.686   2.881   2.305 -0.4551  0.2102 -0.0447
  437SOL    HW1 1310   0.669   2.978   2.305 -0.8628 -1.0552 -1.4534
  437SOL    HW2 1311   0.688   2.842   2.398  1.9515 -2.2142 -2.6662
  438SOL     OW 1312   0.704   1.724   1.516  0.0725  0.6761 -0.5423
  438SOL    HW1 1313   0.731   1.782   1.593  3.6207 -0.2993  0.2042
  438SOL    HW2 1314   0.680   1.623   1.538 -2.0480 -1.5033  0.9823
  439SOL     OW 1315   2.100   0.711   2.935 -0.5172 -0.9655 -0.3154
  439SOL    HW1 1316   2.128   0.804   2.965 -0.2944 -1.2454  2.5338
  439SOL    HW2 1317   2.129   0.655   3.015  0.2215  0.7334  2.8995
  440SOL     OW 1318   0.802   0.312   0.226 -0.2803 -0.2246 -0.7917
  440SOL    HW1 1319   0.733   0.244   0.213  3.6653  0.8973  2.8414
  440SOL    HW2 1320   0.761   0.406   0.214 -0.3574 -2.3969  0.9597
  441SOL     OW 1321   0.966   2.310   1.473 -0.4826 -0.3940  0.2946
  441SOL    HW1 1322   0.914   2.387   1.434  0.2387 -2.4013 -0.2226
  441SOL    HW2 1323   0.904   2.248   1.524 -1.2525 -0.8331  1.2509
  442SOL     OW 1324   3.005   1.612   0.649  0.6729  0.8457  0.2585
  442SOL    HW1 1325   2.910   1.638   0.623  1.5375  1.3391  2.1171
  442SOL    HW2 1326   3.008   1.579   0.747  1.6003 -0.4043  3.6518
  443SOL     OW 1327   2.670   2.013   2.683 -0.2500  0.4026 -0.2159
  443SOL    HW1 1328   2.691   2.003   2.581  0.0821 -0.2687 -1.6502
  443SOL    HW2 1329   2.588   1.949   2.708 -0.7957 -2.3620 -0.2637
  444SOL     OW 1330   1.669   0.993   2.976  0.0794 -0.0701  0.0742
  444SOL    HW1 1331   1.737   1.061   2.938  1.0104  0.6313  2.7405
  444SOL    HW2 1332   1.622   0.940   2.903  1.7437  0.4268  1.0395
  445SOL     OW 1333   2.696   2.634   1.859  0.2984  0.1489  0.2955
  445SOL    HW1 1334   2.737   2.693   1.785  0.6999  2.0715 -2.3870
  445SOL    HW2 1335   2.603   2.605   1.845  0.5405 -1.9194  1.0944
  446SOL     OW 1336   3.081   1.113   0.978 -0.8411  0.4151 -0.1998
  446SOL    HW1 1337   0.060   1.170   1.009  0.7177 -0.8422 -4.0231
  446SOL    HW2 1338   3.004   1.162   0.935  0.0293 -0.7624  0.8500
  447SOL     OW 1339   0.991   1.933   1.146  0.4500  0.5360  0.1072
  447SOL    HW1 1340   0.987   1.872   1.228 -0.2938  0.1501  2.7687
  447SOL    HW2 1341   0.978   1.874   1.063 -1.5212 -0.6322  0.2870
  448SOL     OW 1342   1.281   1.129   1.617  0.1519 -0.6245  0.0635
  448SOL    HW1 1343   1.249   1.178   1.527 -0.2356  0.3269 -1.6140
  448SOL    HW2 1344   1.247   1.029   1.623 -2.3241 -1.2236 -0.6439
  449SOL     OW 1345   2.816   2.139   2.248 -0.4379 -0.0131  0.4912
  449SOL    HW1 1346   2.803   2.232   2.280  0.3443 -2.2241 -0.1375
  449SOL    HW2 1347   2.879   2.134   2.165  2.3401 -1.3075  3.1319
  450SOL     OW 1348   0.044   1.618   1.763  0.2077  0.1321 -0.2568
  450SOL    HW1 1349   3.038   1.595   1.759 -4.6795 -0.6634 -0.8650
  450SOL    HW2 1350   0.087   1.559   1.833  1.2247 -1.0257 -0.5684
  451SOL     OW 1351   2.147   0.546   1.251  0.2633 -0.0369 -0.1544
  451SOL    HW1 1352   2.202   0.630   1.275 -1.9568 -0.0691  0.2548
  451SOL    HW2 1353   2.107   0.551   1.158 -1.7384  1.2773 -2.5578
  452SOL     OW 1354   0.650   1.281   0.729 -1.0088 -0.0622  0.0233
  452SOL    HW1 1355   0.609   1.195   0.754  1.7228  2.2061 -3.4473
  452SOL    HW2 1356   0.750   1.276   0.718 -0.6433  1.9431 -0.3145
  453SOL     OW 1357   1.483   2.074   0.669  0.1298  0.4963 -0.4779
  453SOL    HW1 1358   1.398   2.104   0.714  1.3335  0.3089 -1.2155
  453SOL    HW2 1359   1.563   2.119   0.709  2.8912  0.6213  1.0394
  454SOL     OW 1360   0.576   1.888   0.130 -0.2954  0.3516 -0.0561
  454SOL    HW1 1361   0.632   1.884   0.045 -0.7751 -0.3141  1.3801
  454SOL    HW2 1362   0.483   1.863   0.115  1.1986  1.6904 -2.6284
  455SOL     OW 1363   1.253   1.073   0.367 -0.2220 -0.4972 -0.5868
  455SOL    HW1 1364   1.171   1.016   0.374  1.5537 -0.0198 -3.3503
  455SOL    HW2 1365   1.276   1.114   0.461 -0.6973  0.4178 -1.1994
  456SOL     OW 1366   2.129   2.451   1.193 -0.2605 -0.4293 -0.2403
  456SOL    HW1 1367   2.103   2.367   1.246  1.3224 -0.5136  1.8028
  456SOL    HW2 1368   2.101   2.538   1.243  0.2092  0.5434 -0.6744
  457SOL     OW 1369   1.925   2.996   2.870 -0.6436  0.1335 -0.5886
  457SOL    HW1 1370   1.953   2.964   2.961  0.8971  2.0900  2.3913
  457SOL    HW2 1371   2.001   2.969   2.811  0.3211  1.3148  1.5578
  458SOL     OW 1372   2.614   1.051   0.553 -0.9513 -0.5022 -0.2057
  458SOL    HW1 1373   2.555   0.968   0.523 -0.1090 -0.0188 -0.4532
  458SOL    HW2 1374   2.555   1.129   0.584 -0.3269 -0.8737  1.8287
  459SOL     OW 1375   2.725   0.304   2.544 -0.3844 -0.0593 -0.0372
  459SOL    HW1 1376   2.749   0.365   2.620  1.1697 -1.8773 -2.3108
  459SOL    HW2 1377   2.682   0.355   2.468 -0.0316 -2.3992  0.4074
  460SOL     OW 1378   2.747   0.765   2.608 -0.1055  0.1545 -0.1936
  460SOL    HW1 1379   2.646   0.771   2.595 -0.2288 -3.2709  2.0584
  460SOL    HW2 1380   2.787   0.856   2.638 -1.0942  0.4562  2.1260
  461SOL     OW 1381   2.876   2.358   0.951  0.2885  0.0723  0.1801
  461SOL    HW1 1382   2.923   2.399   1.032 -1.6422 -0.7879 -2.2867
  461SOL    HW2 1383   2.825   2.274   0.975  3.1637  1.0911 -2.1354
  462SOL     OW 1384   3.086   2.863   1.633  0.0686 -0.1182  0.4403
  462SOL    HW1 1385   3.064   2.960   1.610 -1.2773  0.5528  0.5952
  462SOL    HW2 1386   0.081   2.863   1.683  0.8941  2.4638  0.9864
  463SOL     OW 1387   2.285   1.750   2.441 -0.0878 -0.9668  0.0317
  463SOL    HW1 1388   2.295   1.736   2.541 -2.2299  3.6077  0.4373
  463SOL    HW2 1389   2.194   1.795   2.422 -0.3538  1.6696  2.2009
  464SOL     OW 1390   0.674   2.694   1.544  0.5361 -0.0701 -0.0001
  464SOL    HW1 1391   0.697   2.717   1.640  1.5354  0.0008 -0.7804
  464SOL    HW2 1392   0.710   2.770   1.487  0.5845  0.4008  1.4188
  465SOL     OW 1393   0.655   3.084   1.608  0.3449  0.2632 -0.3260
  465SOL    HW1 1394   0.647   3.037   1.517  0.3954  0.8747 -0.2687
  465SOL    HW2 1395   0.575   0.049   1.632 -2.8712  1.9244 -0.6911
  466SOL     OW 1396   1.422   2.530   1.850 -0.0950  0.2696 -0.3901
  466SOL    HW1 1397   1.494   2.492   1.909  1.1149  0.4895 -0.0888
  466SOL    HW2 1398   1.371   2.599   1.905 -0.9336  0.4540 -0.9154
  467SOL     OW 1399   0.606   1.939   1.238 -0.1146  0.2217  0.6313
  467SOL    HW1 1400   0.594   1.841   1.248  0.0050  0.9127  1.9135
  467SOL    HW2 1401   0.521   1.990   1.267 -1.9345  0.7393  2.0317
  468SOL     OW 1402   2.612   1.556   2.466 -0.6942  0.2495  0.5014
  468SOL    HW1 1403   2.704   1.597   2.438  0.3742 -0.8851  1.3440
  468SOL    HW2 1404   2.543   1.584   2.399  0.5258  0.7999  1.4065
  469SOL     OW 1405   1.022   1.998   0.694  0.2239  0.1502  0.8306
  469SOL    HW1 1406   1.072   1.955   0.613  1.2290  0.2822  0.4149
  469SOL    HW2 1407   1.015   1.936   0.775  0.5719 -0.2348 -0.7215
  470SOL     OW 1408   2.250   1.182   1.440  0.6809 -0.2964  0.4015
  470SOL    HW1 1409   2.319   1.250   1.463 -3.5503  1.3483  0.5973
  470SOL    HW2 1410   2.154   1.221   1.453 -2.8032 -1.8060  3.1979
  471SOL     OW 1411   0.444   2.571   3.004  0.1321  0.0561  0.0317
  471SOL    HW1 1412   0.453   2.519   2.919 -0.7295 -0.7342 -1.5211
  471SOL    HW2 1413   0.477   2.511   3.080 -1.9479 -1.6009  3.8965
  472SOL     OW 1414   2.947   1.748   2.039  0.1094 -0.3320  0.2365
  472SOL    HW1 1415   2.951   1.681   1.966  2.7107  2.6090  2.7364
  472SOL    HW2 1416   2.857   1.749   2.091  0.9560 -0.4121  0.5341
  473SOL     OW 1417   1.089   0.012   0.308  0.4978 -0.3091  0.2097
  473SOL    HW1 1418   1.145   3.035   0.268 -0.0293  1.3718  1.3209
  473SOL    HW2 1419   1.076   0.083   0.237  2.8792 -0.4120  1.2765
  474SOL     OW 1420   2.643   2.458   0.815  0.3793  0.0022 -0.4820
  474SOL    HW1 1421   2.689   2.533   0.764  0.0211  2.7752  1.0019
  474SOL    HW2 1422   2.707   2.407   0.878 -0.2665  2.0242  2.6332
  475SOL     OW 1423   1.932   2.828   1.678  0.3656 -0.2463 -0.3379
  475SOL    HW1 1424   1.937   2.840   1.576  2.2175  0.5558 -0.8359
  475SOL    HW2 1425   2.010   2.882   1.716 -0.4384 -1.5499  1.3116
  476SOL     OW 1426   0.805   0.801   0.796 -0.1400  0.2082 -0.8673
  476SOL    HW1 1427   0.719   0.760   0.759  0.0971  4.4679  1.8310
  476SOL    HW2 1428   0.812   0.784   0.896 -1.4582 -0.8637 -0.3373
  477SOL     OW 1429   0.489   1.918   0.860  0.1794 -0.2026  0.2851
  477SOL    HW1 1430   0.431   1.920   0.945  0.4414  0.0779 -1.1021
  477SOL    HW2 1431   0.455   1.989   0.796  1.3991  2.7195  0.0133
  478SOL     OW 1432   0.079   2.463   2.200  0.5203 -0.5496 -0.4971
  478SOL    HW1 1433   0.022   2.380   2.190 -1.9184 -0.4709 -3.4282
  478SOL    HW2 1434   0.059   2.524   2.123  0.9062 -0.8279  2.2271
  479SOL     OW 1435   0.130   0.693   1.564  0.6472 -0.5030 -0.0160
  479SOL    HW1 1436   0.135   0.635   1.645 -0.3306  1.0559 -3.7558
  479SOL    HW2 1437   0.154   0.648   1.477 -0.0053  2.3727  2.6731
  480SOL     OW 1438   3.079   2.557   3.068 -0.5131 -0.4121 -0.2582
  480SOL    HW1 1439   3.082   2.478   3.007  1.3441  0.4748  0.7062
  480SOL    HW2 1440   3.007   2.548   0.042  1.0264  0.4524  2.5949
  481SOL     OW 1441   1.907   2.037   2.152 -0.0142 -0.0175  0.5338
  481SOL    HW1 1442   1.960   1.965   2.189 -0.4136  0.9990  1.1461
  481SOL    HW2 1443   1.959   2.097   2.089  1.9220  0.3225 -0.2796
  482SOL     OW 1444   1.624   2.267   0.049  0.0550  0.5092 -0.4664
  482SOL    HW1 1445   1.527   2.246   0.048 -0.4329  0.7617  2.5092
  482SOL    HW2 1446   1.672   2.254   3.061 -0.8824 -0.5870  2.0224
  483SOL     OW 1447   0.508   1.958   2.205 -0.7176 -0.3061 -0.3420
  483SOL    HW1 1448   0.593   1.976   2.151  0.4310  3.6475  1.6666
  483SOL    HW2 1449   0.432   1.934   2.149 -0.9202  0.4348 -1.1062
  484SOL     OW 1450   2.835   0.625   1.099  0.9287  0.3983  0.1337
  484SOL    HW1 1451   2.915   0.563   1.083  0.6448 -0.9576 -0.5025
  484SOL    HW2 1452   2.858   0.720   1.128 -2.1879 -3.0378  1.0203
  485SOL     OW 1453   2.285   1.032   0.761  0.5926  0.0808  0.2338
  485SOL    HW1 1454   2.268   0.944   0.717  0.0810  0.6039  1.1506
  485SOL    HW2 1455   2.219   1.102   0.721 -0.1637 -1.9185 -2.7099
  486SOL     OW 1456   1.359   0.203   2.196 -0.1701  0.4069  0.5849
  486SOL    HW1 1457   1.457   0.202   2.177 -1.6289  0.8895  1.4944
  486SOL    HW2 1458   1.341   0.251   2.284  0.6336 -0.9517  1.5980
  487SOL     OW 1459   1.061   1.370   1.058 -0.1689  0.3055 -0.3902
  487SOL    HW1 1460   1.030   1.276   1.033 -2.0240 -1.0909  0.1866
  487SOL    HW2 1461   1.165   1.375   1.045  1.3176  1.3153 -1.1561
  488SOL     OW 1462   2.441   1.401   2.925 -0.5337 -0.2537  0.0037
  488SOL    HW1 1463   2.494   1.479   2.884  0.7966 -1.4491  0.3486
  488SOL    HW2 1464   2.420   1.417   3.025  0.3727 -0.6274 -0.6017
  489SOL     OW 1465   2.388   0.173   0.261 -0.2203 -0.0012 -0.0259
  489SOL    HW1 1466   2.476   0.194   0.212  0.1710 -2.7892  0.9368
  489SOL    HW2 1467   2.402   0.112   0.341 -0.5268  0.5738 -1.2003
  490SOL     OW 1468   1.615   2.616   0.444  0.5151 -0.2838 -0.2130
  490SOL    HW1 1469   1.717   2.641   0.453  1.1723 -0.2169  2.0154
  490SOL    HW2 1470   1.600   2.551   0.367 -2.0125  0.4662  0.6055
  491SOL     OW 1471   1.035   0.919   0.688  0.0387  0.0310 -0.2251
  491SOL    HW1 1472   0.961   0.852   0.707  1.4816 -0.7077 -1.0440
  491SOL    HW2 1473   1.042   0.960   0.592  0.6915  1.4511 -1.7554
  492SOL     OW 1474   1.571   0.245   0.016  0.4200 -0.1398  0.3815
  492SOL    HW1 1475   1.631   0.223   3.035 -2.1703 -1.8602  1.6171
  492SOL    HW2 1476   1.482   0.281   3.073 -2.1961 -0.3653 -0.8947
  493SOL     OW 1477   1.940   2.142   0.155  0.2861 -0.5247 -0.3635
  493SOL    HW1 1478   2.025   2.167   0.209  0.9475  2.5502 -1.2474
  493SOL    HW2 1479   1.860   2.123   0.211  0.3642 -2.6306  0.1216
  494SOL     OW 1480   0.411   1.077   0.351 -0.0400  0.1223 -0.1071
  494SOL    HW1 1481   0.487   1.125   0.393 -0.8103  0.0349 -2.3340
  494SOL    HW2 1482   0.413   1.096   0.251  0.5782  1.3695  2.5170
  495SOL     OW 1483   2.959   2.689   0.937 -0.0435  0.2969 -0.5245
  495SOL    HW1 1484   2.900   2.649   1.009 -2.7813 -0.6815  0.7327
  495SOL    HW2 1485   2.971   2.625   0.856 -2.6389 -1.3691 -2.2096
  496SOL     OW 1486   2.307   0.125   1.753  0.1807  0.1173  0.1389
  496SOL    HW1 1487   2.331   0.173   1.669 -1.3096  0.8052  0.8520
  496SOL    HW2 1488   2.214   0.153   1.785  1.8049 -0.1618  2.7609
  497SOL     OW 1489   1.862   1.646   2.697  0.0066 -0.2301  0.5784
  497SOL    HW1 1490   1.951   1.616   2.663 -1.2384 -0.5217  1.5059
  497SOL    HW2 1491   1.803   1.681   2.616 -1.7997  0.0574 -2.8146
  498SOL     OW 1492   0.951   1.823   0.901 -0.2879 -0.1446  0.3060
  498SOL    HW1 1493   0.862   1.870   0.916  2.7312 -1.7220  1.4203
  498SOL    HW2 1494   0.937   1.732   0.855 -1.0686  2.7291 -0.6799
  499SOL     OW 1495   0.650   2.105   1.503 -0.2809  0.0297 -0.2771
  499SOL    HW1 1496   0.669   2.094   1.405 -1.7391 -0.7852  1.8719
  499SOL    HW2 1497   0.564   2.070   1.531 -0.7704 -1.7992  2.2172
  500SOL     OW 1498   0.999   2.254   0.159 -0.6384  0.1102 -0.0833
  500SOL    HW1 1499   0.952   2.250   0.247 -0.2689  0.2094 -1.7861
  500SOL    HW2 1500   1.102   2.272   0.180  4.3486 -0.7799 -0.5374
  501SOL     OW 1501   2.660   2.961   1.318 -0.0147 -0.3469  0.1174
  501SOL    HW1 1502   2.660   3.000   1.225  2.3742  0.4402 -1.0731
  501SOL    HW2 1503   2.599   2.879   1.322  0.4009 -0.8946  0.5237
  502SOL     OW 1504   0.308   0.892   1.695 -0.3663  0.4394  0.4222
  502SOL    HW1 1505   0.220   0.860   1.648 -1.9039 -3.1169  0.7815
  502SOL    HW2 1506   0.366   0.943   1.629 -0.2752  0.3754 -1.7772
  503SOL     OW 1507   1.962   0.711   1.498  0.1565 -0.4158 -0.3338
  503SOL    HW1 1508   2.055   0.727   1.534 -4.0668  0.1247 -1.4908
  503SOL    HW2 1509   1.953   0.742   1.399 -1.2960  0.9796  1.2730
  504SOL     OW 1510   1.261   0.751   2.144 -0.0419 -0.6964 -0.1268
  504SOL    HW1 1511   1.343   0.706   2.106 -0.7927 -1.1117 -1.1573
  504SOL    HW2 1512   1.274   0.854   2.155 -1.5398  0.8470 -0.5542
  505SOL     OW 1513   0.583   0.043   2.403 -0.0820 -0.0871  0.2803
  505SOL    HW1 1514   0.662   0.107   2.431  0.4632  1.2432  1.2430
  505SOL    HW2 1515   0.554   3.081   2.488  1.4986 -4.0386  3.5424
  506SOL     OW 1516   0.276   0.413   1.380  0.6744  0.0866  0.0036
  506SOL    HW1 1517   0.271   0.360   1.468  0.7092 -1.3208  0.1331
  506SOL    HW2 1518   0.185   0.446   1.353 -0.3002 -3.1727  2.2018
  507SOL     OW 1519   1.113   0.160   2.950  0.0411  1.0363 -0.0362
  507SOL    HW1 1520   1.041   0.160   3.024 -1.1691 -0.0746 -0.3599
  507SOL    HW2 1521   1.150   0.065   2.929  0.7487  0.5831 -0.6136
  508SOL     OW 1522   2.067   0.210   2.577  0.3765  0.0995  0.1493
  508SOL    HW1 1523   2.126   0.245   2.503  0.8502  0.1185  0.2783
  508SOL    HW2 1524   2.005   0.142   2.537  0.4761  0.5384 -2.1403
  509SOL     OW 1525   0.834   1.301   1.940 -0.4225  0.2540  0.1984
  509SOL    HW1 1526   0.861   1.206   1.962 -1.1616 -0.7045 -2.4507
  509SOL    HW2 1527   0.776   1.342   2.011 -0.1209 -2.1805 -0.2673
  510SOL     OW 1528   0.040   1.102   0.701 -0.0654 -0.2094  0.0424
  510SOL    HW1 1529   0.043   1.129   0.800  1.3906  1.0137 -3.2086
  510SOL    HW2 1530   3.045   1.065   0.674 -1.2056 -0.1284 -0.7081
  511SOL     OW 1531   1.819   1.819   0.872  0.5528  0.1369  0.0372
  511SOL    HW1 1532   1.777   1.836   0.781 -0.4757  0.6704 -1.9747
  511SOL    HW2 1533   1.885   1.743   0.873 -1.6346  1.9006  1.6850
  512SOL     OW 1534   0.641   1.262   0.436  0.6365 -0.2156 -0.2134
  512SOL    HW1 1535   0.593   1.345   0.404  0.4138 -0.6308 -1.3872
  512SOL    HW2 1536   0.653   1.254   0.537 -0.5230 -1.1788  1.2422
  513SOL     OW 1537   0.504   2.270   0.679  0.1966 -0.2897 -0.2809
  513SOL    HW1 1538   0.451   2.340   0.632 -2.5379 -0.5232  0.0915
  513SOL    HW2 1539   0.596   2.305   0.707 -0.0301  2.0771  1.8515
  514SOL     OW 1540   2.649   1.990   2.418 -0.2376 -0.0961 -0.0728
  514SOL    HW1 1541   2.551   1.992   2.396  1.4432 -0.2101  0.1129
  514SOL    HW2 1542   2.705   2.052   2.356  2.3281 -1.2552 -2.1023
  515SOL     OW 1543   2.424   0.703   2.947  0.4302  0.5942  0.3345
  515SOL    HW1 1544   2.367   0.769   2.995  0.3929 -1.8270 -0.2450
  515SOL    HW2 1545   2.500   0.664   3.002 -0.8062 -0.6958 -1.0020
  516SOL     OW 1546   1.899   0.089   0.642 -0.0932 -0.2608 -0.1628
  516SOL    HW1 1547   1.944   3.096   0.654  0.7379 -0.8801  0.2329
  516SOL    HW2 1548   1.897   0.115   0.543 -0.8479  0.0247 -0.9034
  517SOL     OW 1549   1.259   2.186   2.904 -0.1219  0.5442  0.0826
  517SOL    HW1 1550   1.198   2.115   2.951  2.5006 -1.7633  2.1856
  517SOL    HW2 1551   1.321   2.134   2.843  2.0932  0.1901  2.5677
  518SOL     OW 1552   0.927   0.747   1.761 -0.3028 -0.4396 -0.3465
  518SOL    HW1 1553   0.915   0.643   1.760  3.3783 -2.1052  0.9758
  518SOL    HW2 1554   0.931   0.772   1.864  2.1625  2.6059 -0.1171
  519SOL     OW 1555   0.022   1.460   0.036  0.2738 -0.0805  0.2905
  519SOL    HW1 1556   0.057   1.557   0.037  1.1323  0.2424  2.0713
  519SOL    HW2 1557   3.056   1.445   0.113  5.2158  0.3739  1.6925
  520SOL     OW 1558   2.059   2.128   1.921  0.1027  0.4389 -0.4176
  520SOL    HW1 1559   2.110   2.163   1.842  1.2562  0.0519 -1.1020
  520SOL    HW2 1560   2.067   2.026   1.918  0.3386  2.1670  2.5377
  521SOL     OW 1561   1.020   2.745   2.429 -0.3099 -0.1610 -0.2120
  521SOL    HW1 1562   0.950   2.733   2.358  2.9241 -1.0371  0.3234
  521SOL    HW2 1563   1.111   2.715   2.392  0.4392  2.5533  1.0484
  522SOL     OW 1564   2.169   0.198   2.181  0.6743 -0.1829 -0.1890
  522SOL    HW1 1565   2.195   0.281   2.124  0.8555 -0.3553 -0.5449
  522SOL    HW2 1566   2.199   0.211   2.282 -1.9946  1.8598  1.9515
  523SOL     OW 1567   1.778   2.157   1.291 -0.1338  0.9823  0.7646
  523SOL    HW1 1568   1.714   2.234   1.302  1.7199 -2.4890  0.8926
  523SOL    HW2 1569   1.839   2.148   1.369  0.0871 -2.2805 -0.3075
  524SOL     OW 1570   1.247   2.349   0.201 -0.3533  0.1676  0.0702
  524SOL    HW1 1571   1.234   2.420   0.269 -1.1552  0.2830 -1.4332
  524SOL    HW2 1572   1.293   2.378   0.111 -0.9079  1.9512 -0.7251
  525SOL     OW 1573   0.075   0.556   0.019  0.1874  0.5177 -0.2562
  525SOL    HW1 1574   0.018   0.598   3.045 -2.7724  0.6941  0.1450
  525SOL    HW2 1575   0.097   0.626   0.090 -1.4322  0.3197 -1.3814
  526SOL     OW 1576   1.111   2.794   0.428  0.1095  0.2636  0.1244
  526SOL    HW1 1577   1.011   2.787   0.440  2.3119  1.3021 -0.4521
  526SOL    HW2 1578   1.167   2.823   0.514  0.1546  2.7953  0.9627
  527SOL     OW 1579   2.732   1.680   0.637 -0.5168 -0.1744 -0.6712
  527SOL    HW1 1580   2.695   1.753   0.699  1.9130 -1.5969  3.8308
  527SOL    HW2 1581   2.696   1.664   0.546  2.2421  0.3441 -0.7183
  528SOL     OW 1582   0.366   0.758   2.252  0.4367 -0.2733  0.4594
  528SOL    HW1 1583   0.293   0.771   2.182 -1.8123 -2.7279  0.2122
  528SOL    HW2 1584   0.455   0.747   2.207 -0.1280  0.0648  0.6553
  529SOL     OW 1585   1.411   1.673   2.803 -0.5010  0.0894 -0.1804
  529SOL    HW1 1586   1.487   1.605   2.797 -0.4611 -0.8730  1.1258
  529SOL    HW2 1587   1.401   1.728   2.724  1.9907 -3.0333  1.8928
  530SOL     OW 1588   1.878   1.054   2.370 -0.1293  0.1474 -0.5363
  530SOL    HW1 1589   1.780   1.026   2.373  0.4914 -0.1779 -1.1113
  530SOL    HW2 1590   1.888   1.155   2.369 -2.7009 -0.2105 -1.8452
  531SOL     OW 1591   0.564   2.500   2.564 -0.7724  0.9298 -0.7674
  531SOL    HW1 1592   0.540   2.432   2.491  2.1199 -0.2911  0.0049
  531SOL    HW2 1593   0.523   2.465   2.655 -1.2647  0.0627  0.5128
  532SOL     OW 1594   2.544   1.297   0.661 -0.9844  0.0792  0.2323
  532SOL    HW1 1595   2.451   1.295   0.612 -1.2221  1.0578 -2.5605
  532SOL    HW2 1596   2.534   1.303   0.761  0.1846  0.8166  0.2778
  533SOL     OW 1597   3.065   0.042   1.578  0.1657  0.2986 -0.4371
  533SOL    HW1 1598   0.066   0.062   1.596 -1.9390 -1.3407  0.8136
  533SOL    HW2 1599   3.035   0.101   1.499 -1.5589  0.4007 -0.6860
  534SOL     OW 1600   0.539   0.135   3.030 -0.0428  0.4032 -0.7269
  534SOL    HW1 1601   0.590   0.130   2.942 -1.8347  0.2052 -1.7825
  534SOL    HW2 1602   0.482   0.049   3.043 -1.1985  0.1336  0.7431
  535SOL     OW 1603   0.229   0.287   0.266 -0.8646 -0.4203  0.6452
  535SOL    HW1 1604   0.157   0.259   0.204  2.8071  1.9503 -1.5931
  535SOL    HW2 1605   0.247   0.221   0.341  2.4260 -1.7305 -0.4251
  536SOL     OW 1606   0.574   1.667   1.282  0.2649 -0.1037 -0.6293
  536SOL    HW1 1607   0.637   1.670   1.365  1.9737  0.8617 -0.6275
  536SOL    HW2 1608   0.612   1.606   1.207 -0.0236  1.6399  1.3797
  537SOL     OW 1609   0.983   2.656   1.816 -0.3550  0.4830 -0.0405
  537SOL    HW1 1610   1.052   2.726   1.785  1.5638  2.6243  0.5925
  537SOL    HW2 1611   1.002   2.570   1.763 -1.7181  1.7854  1.0140
  538SOL     OW 1612   0.001   1.970   3.017  0.0544  0.2451  0.3190
  538SOL    HW1 1613   0.030   2.018   0.007  0.4771 -2.1120  0.0990
  538SOL    HW2 1614   0.044   2.012   2.936  0.0549 -0.7708 -1.5699
  539SOL     OW 1615   2.860   1.136   2.569  0.3483  0.4374 -1.0046
  539SOL    HW1 1616   2.913   1.087   2.645  0.6386 -0.8078  2.5219
  539SOL    HW2 1617   2.875   1.090   2.477  0.4054 -1.0849 -2.0557
  540SOL     OW 1618   1.783   0.532   2.231 -1.1795  0.3488 -0.0194
  540SOL    HW1 1619   1.705   0.529   2.294 -1.1813  0.3761 -0.7528
  540SOL    HW2 1620   1.867   0.578   2.269  3.7184  1.3958  1.5076
  541SOL     OW 1621   0.425   0.449   2.077 -0.1870 -0.3382 -0.1308
  541SOL    HW1 1622   0.360   0.400   2.136 -0.8144 -2.1186 -1.6553
  541SOL    HW2 1623   0.377   0.498   2.005  0.9974  3.6841  1.9346
  542SOL     OW 1624   1.981   2.867   0.002  0.5481  0.1339  0.4530
  542SOL    HW1 1625   1.898   2.825   0.046  2.9809 -1.0961 -0.1517
  542SOL    HW2 1626   2.046   2.880   0.077 -1.5655 -0.7423 -0.8101
  543SOL     OW 1627   1.349   0.133   0.372 -0.0164  0.3093  0.3291
  543SOL    HW1 1628   1.339   0.230   0.336  0.6557 -0.0858  1.5839
  543SOL    HW2 1629   1.263   0.091   0.405  3.6662  0.4144 -0.2772
  544SOL     OW 1630   2.461   1.585   1.889 -0.1033  0.1792  0.8337
  544SOL    HW1 1631   2.543   1.530   1.890 -2.1150  1.0982 -1.1738
  544SOL    HW2 1632   2.399   1.545   1.820  0.5469 -1.1174  2.6422
  545SOL     OW 1633   2.214   1.896   1.352 -0.3672 -0.1889 -0.3671
  545SOL    HW1 1634   2.246   1.839   1.273 -1.5126  3.2084  2.5573
  545SOL    HW2 1635   2.275   1.970   1.377  2.6093  0.0492  0.3740
  546SOL     OW 1636   0.215   3.054   2.311  0.1852 -0.1552  0.4834
  546SOL    HW1 1637   0.157   0.003   2.238 -2.8769  3.9882  0.9577
  546SOL    HW2 1638   0.290   2.988   2.280  1.3606 -3.0998  1.0776
  547SOL     OW 1639   1.386   0.892   0.582  0.2729  0.0218  0.3150
  547SOL    HW1 1640   1.367   0.936   0.674 -0.7589  2.6210 -0.2285
  547SOL    HW2 1641   1.407   0.794   0.595 -0.3491  1.2658 -1.3386
  548SOL     OW 1642   1.574   2.288   2.639 -0.0890 -0.1654 -0.1505
  548SOL    HW1 1643   1.496   2.320   2.581  0.6536 -1.3644  0.8113
  548SOL    HW2 1644   1.554   2.200   2.682 -0.3735  1.0499  0.4461
  549SOL     OW 1645   2.092   0.634   0.391  0.0817 -0.5100  0.6200
  549SOL    HW1 1646   2.160   0.692   0.338  4.1199  2.2316  0.7083
  549SOL    HW2 1647   2.009   0.600   0.334 -4.3215 -2.1942 -1.9728
  550SOL     OW 1648   2.830   2.229   0.512 -0.0861 -0.3167  0.4699
  550SOL    HW1 1649   2.750   2.284   0.544 -0.7922 -0.5283 -2.4877
  550SOL    HW2 1650   2.814   2.132   0.543 -2.0279  0.5900  2.8348
  551SOL     OW 1651   1.292   2.697   2.357  0.2129 -0.1820 -1.0580
  551SOL    HW1 1652   1.342   2.758   2.295 -0.0061 -2.9224  2.1706
  551SOL    HW2 1653   1.327   2.605   2.336 -1.3612 -0.8138  1.7087
  552SOL     OW 1654   3.070   2.511   2.582  0.3179  0.3371  0.0456
  552SOL    HW1 1655   3.014   2.427   2.604 -1.1841  0.6947  1.4944
  552SOL    HW2 1656   3.013   2.570   2.519 -1.3790  1.3432 -0.3796
  553SOL     OW 1657   0.150   0.124   0.862  0.3158  0.2799 -0.5584
  553SOL    HW1 1658   0.251   0.132   0.858 -0.6660  0.8582 -2.1066
  553SOL    HW2 1659   0.108   0.048   0.808  0.3232  1.1973 -0.9850
  554SOL     OW 1660   2.221   2.271   1.736 -0.2949  0.0051 -1.0229
  554SOL    HW1 1661   2.194   2.369   1.728 -1.7651 -0.7895  2.5976
  554SOL    HW2 1662   2.282   2.265   1.816 -2.2687 -0.6727  0.1704
  555SOL     OW 1663   1.630   2.304   2.209  0.0741  0.3040  0.1491
  555SOL    HW1 1664   1.679   2.221   2.242 -0.3958  2.3729 -0.9980
  555SOL    HW2 1665   1.670   2.387   2.251  0.7330  1.1389 -0.0080
  556SOL     OW 1666   1.165   1.237   1.385 -0.0013 -0.2471  0.4640
  556SOL    HW1 1667   1.162   1.340   1.383 -0.3745  2.7007 -1.2948
  556SOL    HW2 1668   1.079   1.205   1.334  0.6702  1.5355  0.5341
  557SOL     OW 1669   2.041   2.509   2.292  0.2784  0.4474  0.3833
  557SOL    HW1 1670   2.014   2.455   2.377  0.2929 -2.7359  0.1536
  557SOL    HW2 1671   2.127   2.558   2.308 -3.4091 -0.1516  0.1116
  558SOL     OW 1672   0.246   2.845   1.734  0.0934  0.1145  0.5927
  558SOL    HW1 1673   0.343   2.829   1.699  0.4327 -0.1741 -1.2592
  558SOL    HW2 1674   0.244   2.809   1.829  2.1549  0.8747  1.3551
  559SOL     OW 1675   2.284   2.983   0.728  0.3107  0.0680 -0.4932
  559SOL    HW1 1676   2.334   2.898   0.706  2.2683 -2.9345  0.3814
  559SOL    HW2 1677   2.213   2.994   0.659  0.9682 -0.9375 -1.8573
  560SOL     OW 1678   1.784   2.670   0.748 -0.1321 -0.3238 -0.1954
  560SOL    HW1 1679   1.728   2.595   0.789  2.4696 -2.5590 -1.1582
  560SOL    HW2 1680   1.742   2.763   0.751 -1.1118  1.0796  0.0576
  561SOL     OW 1681   1.133   0.052   0.983  0.1319  0.6439 -0.2557
  561SOL    HW1 1682   1.128   0.073   0.884  0.0111 -0.0937  1.9566
  561SOL    HW2 1683   1.196   0.107   1.047  2.0938  0.2890  0.5338
  562SOL     OW 1684   0.479   0.994   2.471 -0.4630 -0.2542  0.0202
  562SOL    HW1 1685   0.442   0.917   2.412 -0.4771 -0.4653  0.9589
  562SOL    HW2 1686   0.406   1.064   2.489  1.2876  0.7466 -1.0056
  563SOL     OW 1687   1.695   1.781   2.471  0.1426  0.3151 -0.7051
  563SOL    HW1 1688   1.757   1.853   2.514  1.1316  3.8951 -0.0188
  563SOL    HW2 1689   1.601   1.794   2.510  0.5780 -0.5499  1.2316
  564SOL     OW 1690   2.785   1.100   1.139  0.4681  0.2485  0.6628
  564SOL    HW1 1691   2.694   1.118   1.185 -1.4044 -0.1928  1.0543
  564SOL    HW2 1692   2.763   1.077   1.039 -0.7930  3.0053 -2.2237
  565SOL     OW 1693   1.020   0.736   3.083 -0.3092 -0.1059 -0.0859
  565SOL    HW1 1694   1.087   0.749   3.008  0.0363 -0.1142  2.4209
  565SOL    HW2 1695   0.937   0.686   3.050 -1.9705 -1.6206 -1.1427
  566SOL     OW 1696   2.230   0.225   2.790 -0.8374 -0.8347 -0.1976
  566SOL    HW1 1697   2.160   0.225   2.718  2.1429 -3.1139  1.5137
  566SOL    HW2 1698   2.267   0.321   2.800 -0.7218 -1.5239  0.1704
  567SOL     OW 1699   2.077   1.186   0.612 -0.5891 -0.1355  0.0834
  567SOL    HW1 1700   2.014   1.258   0.581  0.2358 -2.0217  2.2339
  567SOL    HW2 1701   2.054   1.108   0.560 -0.4385 -0.0343  0.8961
  568SOL     OW 1702   1.652   1.739   2.994 -0.3211  0.4839 -0.1613
  568SOL    HW1 1703   1.592   1.772   3.073 -1.1030  1.5197 -0.0969
  568SOL    HW2 1704   1.609   1.664   2.940  0.8665 -3.6207 -3.1496
  569SOL     OW 1705   2.026   1.330   3.027 -0.1783 -0.2546  0.0512
  569SOL    HW1 1706   1.979   1.418   3.053 -0.4750  1.2636 -0.6961
  569SOL    HW2 1707   2.119   1.347   2.995 -0.7798  1.4598  0.4774
  570SOL     OW 1708   0.553   2.164   1.819 -0.1639  0.4250 -0.1061
  570SOL    HW1 1709   0.578   2.256   1.785 -2.3433  2.6962 -1.3581
  570SOL    HW2 1710   0.516   2.108   1.743 -0.0028  0.9926 -1.2820
  571SOL     OW 1711   0.309   1.065   1.898  0.0721  0.4219  0.5544
  571SOL    HW1 1712   0.336   0.997   1.825 -0.2063 -0.8749 -0.6846
  571SOL    HW2 1713   0.224   1.047   1.947 -2.2115  2.2505  1.5570
  572SOL     OW 1714   1.122   1.827   0.490  0.1808  0.4857  0.3624
  572SOL    HW1 1715   1.167   1.738   0.500  0.4492  1.7974  0.6164
  572SOL    HW2 1716   1.109   1.847   0.391 -0.2504 -0.8258  4.4241
  573SOL     OW 1717   1.738   2.240   0.514  0.3475  0.4604 -0.3725
  573SOL    HW1 1718   1.711   2.199   0.426 -2.0188  1.1728 -1.3225
  573SOL    HW2 1719   1.660   2.244   0.576 -1.6775 -1.3044  1.6323
  574SOL     OW 1720   0.905   3.033   1.095  0.0427 -0.5713 -0.0271
  574SOL    HW1 1721   0.804   3.024   1.082  2.3918 -0.3988 -0.2327
  574SOL    HW2 1722   0.952   3.033   1.006  0.9866 -0.8900 -0.0015
  575SOL     OW 1723   0.325   1.179   1.560 -0.0761  0.4555 -0.2641
  575SOL    HW1 1724   0.406   1.149   1.609 -2.7067  1.0004 -0.1455
  575SOL    HW2 1725   0.343   1.271   1.522  0.1573 -1.0252 -0.2873
  576SOL     OW 1726   2.541   3.025   1.077 -0.2539  0.3921  0.3165
  576SOL    HW1 1727   2.445   3.040   1.051  1.1222 -1.9530  3.0593
  576SOL    HW2 1728   2.571   2.932   1.045  0.4897  1.1345 -0.3933
  577SOL     OW 1729   0.874   1.049   2.037  0.3627  0.3624  0.0542
  577SOL    HW1 1730   0.930   0.966   2.027 -0.3645 -0.1871 -1.2950
  577SOL    HW2 1731   0.794   1.033   2.096  0.6075 -1.6947 -0.1382
  578SOL     OW 1732   1.868   0.953   2.637  0.5570 -0.0671 -0.0963
  578SOL    HW1 1733   1.899   0.978   2.545 -2.9636 -0.9245 -0.9861
  578SOL    HW2 1734   1.853   1.038   2.694 -0.2303  2.1766 -0.4797
  579SOL     OW 1735   1.859   2.483   1.731 -0.2123  0.5608 -0.0741
  579SOL    HW1 1736   1.861   2.447   1.826 -0.6675  1.2339  0.3112
  579SOL    HW2 1737   1.865   2.410   1.660 -0.6986  0.1440 -0.6171
  580SOL     OW 1738   1.551   1.431   2.455  0.1513  0.1401  0.5763
  580SOL    HW1 1739   1.613   1.452   2.531  0.8267  0.2612 -0.3882
  580SOL    HW2 1740   1.458   1.468   2.479 -1.2561 -0.2499 -0.1829
  581SOL     OW 1741   1.130   1.202   2.388 -0.3803 -0.2536  0.0939
  581SOL    HW1 1742   1.153   1.130   2.457 -1.3674  2.5895 -1.2936
  581SOL    HW2 1743   1.116   1.289   2.438  0.3816 -0.3429  0.7706
  582SOL     OW 1744   0.962   1.088   1.595 -0.5843  0.0387 -0.0897
  582SOL    HW1 1745   1.031   1.018   1.625  2.6613 -4.8535  0.1304
  582SOL    HW2 1746   0.961   1.100   1.495  0.4525 -1.4153  0.6905
  583SOL     OW 1747   1.237   1.175   1.921  0.1698  0.4197  0.0781
  583SOL    HW1 1748   1.269   1.110   1.849  1.0061  0.6144  0.0803
  583SOL    HW2 1749   1.168   1.242   1.886 -0.8434  0.5396 -2.3347
  584SOL     OW 1750   2.419   2.890   0.392 -0.1357  0.4845 -0.0114
  584SOL    HW1 1751   2.517   2.879   0.367 -2.0403  1.4839  0.4465
  584SOL    HW2 1752   2.385   2.824   0.462 -1.8450 -0.5829 -2.5512
  585SOL     OW 1753   1.830   0.137   2.991 -0.1587  0.6397 -0.5056
  585SOL    HW1 1754   1.840   0.052   2.939  2.7006  0.1162 -0.8764
  585SOL    HW2 1755   1.892   0.133   3.075  3.0722  2.8487 -0.2496
  586SOL     OW 1756   3.035   2.017   1.201 -0.6684 -0.9167  0.2227
  586SOL    HW1 1757   2.940   2.002   1.229 -1.3051 -2.2337 -0.7375
  586SOL    HW2 1758   3.090   2.017   1.291  0.1347 -0.0773 -0.4660
  587SOL     OW 1759   1.418   1.906   0.006 -0.2071 -0.1677 -0.1265
  587SOL    HW1 1760   1.388   1.989   0.055  1.4752 -1.0806  1.7112
  587SOL    HW2 1761   1.352   1.890   3.023  1.6176  0.0562 -3.0810
  588SOL     OW 1762   0.520   0.336   0.966  0.6761 -0.0733  0.4112
  588SOL    HW1 1763   0.616   0.330   0.924  1.0640  1.3309  0.0089
  588SOL    HW2 1764   0.467   0.419   0.936  1.2020 -0.9656  0.8039
  589SOL     OW 1765   1.216   0.096   0.702 -0.1620  0.2703 -0.6113
  589SOL    HW1 1766   1.197   0.184   0.659  0.9980  1.0139 -2.0175
  589SOL    HW2 1767   1.310   0.098   0.734 -1.2051  0.1704  0.8992
  590SOL     OW 1768   1.225   1.050   2.956  0.2039 -0.6247  0.5795
  590SOL    HW1 1769   1.193   0.958   2.920  1.0098 -1.5612  1.8375
  590SOL    HW2 1770   1.164   1.122   2.912 -2.5266 -0.1431  0.2965
  591SOL     OW 1771   2.778   2.424   2.293  0.2773  0.4526 -0.2151
  591SOL    HW1 1772   2.679   2.437   2.307 -2.4076  0.0529 -2.4626
  591SOL    HW2 1773   2.826   2.507   2.328 -2.5421  0.4219 -0.0722
  592SOL     OW 1774   2.308   1.470   1.704  0.2987 -0.2625  0.1870
  592SOL    HW1 1775   2.239   1.549   1.686 -4.4468  2.3163  0.2255
  592SOL    HW2 1776   2.357   1.456   1.615  0.2270  0.2860 -1.5013
  593SOL     OW 1777   1.121   0.892   1.644 -0.3587  0.1259 -0.1595
  593SOL    HW1 1778   1.167   0.820   1.594 -0.9981  2.0917  0.7692
  593SOL    HW2 1779   1.046   0.856   1.698 -0.3523 -1.3845  0.5289
  594SOL     OW 1780   2.626   1.294   2.510 -0.4455 -0.4739 -0.5446
  594SOL    HW1 1781   2.623   1.397   2.490 -2.7267  2.1271 -0.0096
  594SOL    HW2 1782   2.717   1.278   2.557 -3.2528  1.1835  0.9962
  595SOL     OW 1783   0.028   0.243   0.629  0.5728  0.0044  0.1631
  595SOL    HW1 1784   0.067   0.246   0.720 -0.7448 -2.6892  1.3674
  595SOL    HW2 1785   3.038   0.191   0.628  1.0758 -1.0934  2.2406
  596SOL     OW 1786   2.977   1.623   0.927 -0.4289  0.3371  0.0939
  596SOL    HW1 1787   2.919   1.558   0.979  4.4076  0.0270 -2.0279
  596SOL    HW2 1788   3.075   1.611   0.956  2.1958 -1.0245 -2.1533
  597SOL     OW 1789   1.555   1.563   0.560  0.1939 -0.1085  0.1126
  597SOL    HW1 1790   1.613   1.637   0.589 -0.6525 -2.6811  2.3608
  597SOL    HW2 1791   1.507   1.594   0.475 -0.7313 -0.3146 -1.4442
  598SOL     OW 1792   0.307   2.534   1.814  0.0905 -0.4370  0.3195
  598SOL    HW1 1793   0.360   2.561   1.734 -1.6393 -2.4488  1.1230
  598SOL    HW2 1794   0.227   2.480   1.788  2.9184  0.9791  1.0216
  599SOL     OW 1795   3.085   1.565   2.751 -0.1277 -0.2128 -0.0662
  599SOL    HW1 1796   2.989   1.527   2.731 -0.6497  3.7404 -0.0881
  599SOL    HW2 1797   3.086   1.605   2.845 -1.2069 -2.2153 -0.8821
  600SOL     OW 1798   0.651   0.991   3.073  0.0246  0.3458  0.5524
  600SOL    HW1 1799   0.749   1.007   3.094  0.1241 -0.4601 -0.9416
  600SOL    HW2 1800   0.633   0.902   3.028  0.2817 -1.4588  0.6142
  601SOL     OW 1801   0.799   0.702   1.093 -0.0337  0.5107 -0.3824
  601SOL    HW1 1802   0.706   0.714   1.135 -2.2758  0.0739  0.3189
  601SOL    HW2 1803   0.874   0.753   1.147  1.5017  0.1253  1.5922
  602SOL     OW 1804   1.224   2.556   0.362 -0.1123 -0.3905  0.7716
  602SOL    HW1 1805   1.173   2.639   0.379  2.8675 -3.1423  2.4873
  602SOL    HW2 1806   1.231   2.497   0.447 -1.7152  2.7950 -1.2144
  603SOL     OW 1807   1.245   2.337   2.029 -0.4715 -0.0474 -0.4428
  603SOL    HW1 1808   1.284   2.400   1.962  0.1198  1.1475 -0.3660
  603SOL    HW2 1809   1.160   2.380   2.065 -1.7513  0.3644  0.8811
  604SOL     OW 1810   0.435   0.330   2.769 -0.5748  0.1567  0.2631
  604SOL    HW1 1811   0.477   0.405   2.819  1.3135 -1.3289 -2.2363
  604SOL    HW2 1812   0.501   0.263   2.740  0.5895  1.8198  1.4627
  605SOL     OW 1813   2.556   1.083   1.285  0.3061  0.0004  0.1121
  605SOL    HW1 1814   2.469   1.055   1.236 -0.4896 -1.7405 -2.3901
  605SOL    HW2 1815   2.566   1.037   1.379 -2.4579 -0.8876  2.0486
  606SOL     OW 1816   0.947   1.776   2.683 -0.1215 -0.0906  0.3461
  606SOL    HW1 1817   0.890   1.858   2.656 -0.5749 -0.7961  0.9233
  606SOL    HW2 1818   0.934   1.698   2.616 -0.7424 -1.3425  0.2148
  607SOL     OW 1819   0.695   3.091   0.297 -0.2007 -0.0572  0.2637
  607SOL    HW1 1820   0.659   2.999   0.280 -0.8079  2.1926 -0.6383
  607SOL    HW2 1821   0.765   3.095   0.370  1.3289  1.9762  0.7223
  608SOL     OW 1822   2.236   1.978   2.131  0.4485  0.1121 -0.8038
  608SOL    HW1 1823   2.303   2.019   2.069  1.5623 -2.1859 -0.1509
  608SOL    HW2 1824   2.157   1.927   2.088 -1.1890  0.7330  2.6336
  609SOL     OW 1825   2.891   0.091   0.653 -0.1228  0.8169  0.4104
  609SOL    HW1 1826   2.940   0.004   0.660 -0.8797 -1.1689 -0.5703
  609SOL    HW2 1827   2.820   0.101   0.721  1.0983 -1.1190  1.5469
  610SOL     OW 1828   0.342   2.468   0.947  0.0442  0.4988  0.4586
  610SOL    HW1 1829   0.304   2.466   1.042  1.0537  0.9978 -1.4101
  610SOL    HW2 1830   0.436   2.424   0.948 -0.4333  0.7460  0.3657
  611SOL     OW 1831   1.390   1.506   0.112  0.2067 -0.1971  0.3715
  611SOL    HW1 1832   1.315   1.442   0.124  6.2545  2.3542 -0.6308
  611SOL    HW2 1833   1.396   1.553   0.200 -1.6874 -0.9066  1.3130
  612SOL     OW 1834   0.448   2.618   2.019  0.1634 -0.0583  0.5497
  612SOL    HW1 1835   0.399   2.610   2.106  1.9060  0.0085 -0.7945
  612SOL    HW2 1836   0.386   2.593   1.942  3.2802 -0.2463 -0.8987
  613SOL     OW 1837   0.602   2.885   0.726 -0.3410 -0.0194 -0.1172
  613SOL    HW1 1838   0.592   2.810   0.801 -3.8233 -2.1722  1.5654
  613SOL    HW2 1839   0.633   2.973   0.767  0.6206 -1.0384  1.9888
  614SOL     OW 1840   2.314   0.029   2.022  0.3158 -0.0411 -0.1880
  614SOL    HW1 1841   2.245   0.093   2.061  0.7198 -0.6442 -0.3263
  614SOL    HW2 1842   2.337   0.057   1.930 -1.0625 -0.0936  4.2590
  615SOL     OW 1843   1.582   1.221   0.254 -0.1218 -0.2701  0.1415
  615SOL    HW1 1844   1.531   1.241   0.171  0.3794 -1.8165  2.8300
  615SOL    HW2 1845   1.676   1.265   0.261  1.6349  0.0449  0.5665
  616SOL     OW 1846   1.785   1.400   0.274 -0.0753 -0.4342 -0.6308
  616SOL    HW1 1847   1.782   1.504   0.271 -0.2216  3.2157 -0.0118
  616SOL    HW2 1848   1.841   1.377   0.362 -0.8273 -1.8023  0.1781
  617SOL     OW 1849   1.187   1.011   2.572 -0.2112 -0.4631  0.1201
  617SOL    HW1 1850   1.138   0.923   2.569 -0.5876 -0.3591  0.5493
  617SOL    HW2 1851   1.147   1.071   2.645  2.8488  0.0042  0.5955
  618SOL     OW 1852   0.594   2.884   1.992 -0.3001  0.4158  0.1023
  618SOL    HW1 1853   0.553   2.793   2.028 -1.0858 -4.1446 -0.9326
  618SOL    HW2 1854   0.571   2.961   2.052 -0.2209 -1.2015 -1.5175
  619SOL     OW 1855   2.761   1.677   1.563  0.1491 -0.1168 -0.6818
  619SOL    HW1 1856   2.788   1.677   1.464 -2.3466  0.7859 -1.3835
  619SOL    HW2 1857   2.660   1.685   1.569 -0.1396 -0.4213 -1.2977
  620SOL     OW 1858   2.785   0.533   2.730 -0.2757  0.1456 -0.4667
  620SOL    HW1 1859   2.751   0.616   2.676  0.7528  2.6779 -0.1381
  620SOL    HW2 1860   2.884   0.521   2.715 -1.6090 -1.1787  0.3086
  621SOL     OW 1861   2.402   1.984   2.343  0.2715 -0.2291 -0.2546
  621SOL    HW1 1862   2.348   2.000   2.256  0.6152 -0.8072 -2.5945
  621SOL    HW2 1863   2.389   1.887   2.381  1.3535 -3.0851 -0.3177
  622SOL     OW 1864   0.936   0.548   2.147  0.0770  0.1557  0.6632
  622SOL    HW1 1865   0.840   0.516   2.171  0.3035 -1.0885 -3.5166
  622SOL    HW2 1866   0.995   0.463   2.138  0.3804 -4.8969  1.1891
  623SOL     OW 1867   0.667   1.036   2.199  0.4987 -0.3120  0.3207
  623SOL    HW1 1868   0.636   1.038   2.298  0.2219  1.4159  3.6612
  623SOL    HW2 1869   0.652   0.948   2.162  0.5975  4.0148  1.9587
  624SOL     OW 1870   2.758   0.808   0.238  0.2057 -0.0680  0.5090
  624SOL    HW1 1871   2.704   0.894   0.261 -1.9360  0.8957  0.0401
  624SOL    HW2 1872   2.797   0.812   0.145  2.1244 -0.3936  2.2750
  625SOL     OW 1873   0.718   1.920   0.992 -0.5878  0.7737 -1.0500
  625SOL    HW1 1874   0.637   1.925   0.929  3.3358 -0.2876 -1.2373
  625SOL    HW2 1875   0.688   1.944   1.085 -0.2429 -1.7935 -0.0354
  626SOL     OW 1876   2.058   0.771   2.667 -0.1969  0.1832  0.3172
  626SOL    HW1 1877   2.069   0.744   2.766  2.2434 -1.0239 -0.7841
  626SOL    HW2 1878   1.980   0.835   2.661 -1.7244 -1.6009  1.0695
  627SOL     OW 1879   1.525   2.741   2.809  0.5588  0.1233 -0.6158
  627SOL    HW1 1880   1.546   2.823   2.866 -3.2700 -0.1245  2.7959
  627SOL    HW2 1881   1.569   2.737   2.718 -2.1783 -1.9435 -0.3650
  628SOL     OW 1882   2.272   2.901   2.332  1.0330 -0.4186 -0.5200
  628SOL    HW1 1883   2.294   2.982   2.386 -3.0376 -2.5688  2.0578
  628SOL    HW2 1884   2.322   2.889   2.244  2.8603  0.1466  1.5573
  629SOL     OW 1885   0.973   0.096   2.264 -0.0188 -0.2625 -0.3041
  629SOL    HW1 1886   0.978   0.050   2.176  1.0569 -0.0903 -0.6884
  629SOL    HW2 1887   1.036   0.056   2.331  0.1003  0.4602  2.6488
  630SOL     OW 1888   0.808   0.192   2.457 -0.3665  0.0176 -0.3586
  630SOL    HW1 1889   0.847   0.188   2.548  0.2923  0.3720  1.3903
  630SOL    HW2 1890   0.872   0.149   2.393 -3.7864  0.5824  2.7572
  631SOL     OW 1891   1.897   1.379   0.519  0.5085 -0.3553 -0.1770
  631SOL    HW1 1892   1.824   1.345   0.581 -0.5016  0.6778 -1.5732
  631SOL    HW2 1893   1.962   1.435   0.571 -3.1456 -2.0675 -0.6449
  632SOL     OW 1894   2.181   0.697   1.823  0.2188  0.5663  0.0775
  632SOL    HW1 1895   2.223   0.759   1.885 -1.4099 -1.6499 -1.3559
  632SOL    HW2 1896   2.185   0.728   1.727  0.6736 -0.3980  0.6085
  633SOL     OW 1897   1.190   1.838   0.201  0.0807 -0.7068 -0.3819
  633SOL    HW1 1898   1.158   1.791   0.121 -0.1585  3.4418  2.2951
  633SOL    HW2 1899   1.209   1.931   0.181 -0.2126 -2.8470  2.1776
  634SOL     OW 1900   2.529   2.975   1.711  0.2766  0.1521 -0.1304
  634SOL    HW1 1901   2.470   3.018   1.778  1.7927  1.6520  1.2688
  634SOL    HW2 1902   2.611   3.027   1.692 -1.2978 -0.2423 -1.9071
  635SOL     OW 1903   1.558   0.441   0.801  0.1864  0.0776  0.1352
  635SOL    HW1 1904   1.589   0.509   0.868  1.3775 -0.0599  0.2033
  635SOL    HW2 1905   1.625   0.362   0.787  1.1646 -0.9446 -0.7787
  636SOL     OW 1906   0.902   1.056   0.029 -0.0813 -0.0182 -0.1576
  636SOL    HW1 1907   0.928   1.151   0.006 -1.1944 -2.4949 -1.7574
  636SOL    HW2 1908   0.980   0.996   0.028 -2.7232  0.1182 -4.1516
  637SOL     OW 1909   2.828   2.266   2.993  0.5785  0.0340 -0.0400
  637SOL    HW1 1910   2.828   2.187   3.056  0.0141 -0.8752 -0.6467
  637SOL    HW2 1911   2.920   2.285   2.960 -4.3329 -0.9425  2.0276
  638SOL     OW 1912   1.557   2.460   2.867 -0.6369 -0.7334 -0.1207
  638SOL    HW1 1913   1.558   2.556   2.845 -0.0930 -1.6585  0.2099
  638SOL    HW2 1914   1.532   2.401   2.785  0.3238  0.4162 -2.1569
  639SOL     OW 1915   1.621   1.675   1.008 -0.3049  0.4316 -0.2505
  639SOL    HW1 1916   1.538   1.729   0.989 -0.3418  2.3809 -0.6451
  639SOL    HW2 1917   1.710   1.714   0.973  2.9086 -2.4054  0.5746
  640SOL     OW 1918   2.128   2.724   0.564  0.1078  0.0479 -0.5547
  640SOL    HW1 1919   2.199   2.691   0.500 -0.5119 -0.0541  2.2117
  640SOL    HW2 1920   2.101   2.654   0.635  2.9729 -0.8280 -1.3580
  641SOL     OW 1921   2.929   0.405   3.001  0.3951 -0.5811  0.5307
  641SOL    HW1 1922   2.838   0.367   2.980  0.2607 -4.0547 -1.4376
  641SOL    HW2 1923   2.979   0.346   3.070 -0.3875  0.7809  0.7236
  642SOL     OW 1924   2.874   0.850   1.210 -0.4730 -0.5769  0.2407
  642SOL    HW1 1925   2.863   0.953   1.201 -0.6492  1.6642 -2.0342
  642SOL    HW2 1926   2.929   0.822   1.293  2.7876  1.0779  1.0724
  643SOL     OW 1927   0.577   1.701   2.176 -0.2808 -0.3450  0.6043
  643SOL    HW1 1928   0.539   1.790   2.210  1.3424 -2.1801 -2.3819
  643SOL    HW2 1929   0.659   1.716   2.116  0.4123  2.3517 -0.6143
  644SOL     OW 1930   1.952   2.314   0.888 -0.1051 -0.2668 -0.3797
  644SOL    HW1 1931   1.990   2.384   0.829  2.3775 -0.3450  0.4938
  644SOL    HW2 1932   1.907   2.352   0.975 -2.2419 -0.1279 -3.1024
  645SOL     OW 1933   1.989   2.095   1.085 -0.4219  0.3138 -0.1299
  645SOL    HW1 1934   1.978   2.161   1.008 -0.2240  1.0690 -1.1193
  645SOL    HW2 1935   1.907   2.082   1.142  0.3718  0.5303  1.8048
  646SOL     OW 1936   1.023   2.328   2.864  0.5763 -0.2381  0.7041
  646SOL    HW1 1937   1.107   2.272   2.876 -4.9319 -1.1436  0.8760
  646SOL    HW2 1938   1.027   2.402   2.930  1.1645 -0.7567 -0.5682
  647SOL     OW 1939   0.693   2.701   1.804 -0.1890 -0.0656  0.5238
  647SOL    HW1 1940   0.796   2.681   1.822  1.2792 -0.3651  2.1985
  647SOL    HW2 1941   0.674   2.787   1.856 -1.0285 -0.0256 -0.7672
  648SOL     OW 1942   1.615   0.442   1.593 -0.1735  0.1454 -0.3798
  648SOL    HW1 1943   1.674   0.360   1.569  2.5225 -0.2854  0.8555
  648SOL    HW2 1944   1.520   0.402   1.608 -1.8946  1.2475 -1.3579
  649SOL     OW 1945   1.691   2.117   0.281  0.3119  0.0654 -0.2406
  649SOL    HW1 1946   1.639   2.180   0.219  1.5366 -0.5929  1.7332
  649SOL    HW2 1947   1.653   2.026   0.270 -0.7480  2.0546  0.0321
  650SOL     OW 1948   2.147   1.677   1.656  0.1878 -0.4121 -0.8330
  650SOL    HW1 1949   2.068   1.640   1.607  1.0795  2.0178  0.5879
  650SOL    HW2 1950   2.146   1.776   1.645  0.2004  0.5786 -0.2468
  651SOL     OW 1951   1.913   2.507   0.260 -0.4435  0.1051  0.6180
  651SOL    HW1 1952   1.940   2.596   0.303 -2.8005  4.8036  0.8115
  651SOL    HW2 1953   1.970   2.495   0.170  2.6482 -1.7759 -1.0202
  652SOL     OW 1954   0.582   2.109   0.257  0.4888 -0.9053  0.3605
  652SOL    HW1 1955   0.568   2.088   0.352 -1.1531  1.7833 -2.2622
  652SOL    HW2 1956   0.585   2.026   0.198  0.2376  0.2676  2.8157
  653SOL     OW 1957   2.524   2.707   1.309 -0.1995  0.1645 -0.4469
  653SOL    HW1 1958   2.477   2.645   1.372  0.5716  1.8748 -1.3369
  653SOL    HW2 1959   2.479   2.696   1.220  0.1192  1.5171 -4.3760
  654SOL     OW 1960   2.819   2.817   1.642  0.2173 -0.4184  0.3864
  654SOL    HW1 1961   2.921   2.833   1.650  1.7744  2.1806 -0.7093
  654SOL    HW2 1962   2.771   2.910   1.636 -1.8111  3.2802 -0.8982
  655SOL     OW 1963   2.908   1.885   1.006 -0.1366  0.3651 -0.1815
  655SOL    HW1 1964   2.924   1.786   0.978  2.4308  0.7384 -1.3729
  655SOL    HW2 1965   2.979   1.919   1.071 -0.7628 -1.3049  1.6081
  656SOL     OW 1966   2.945   0.008   2.269 -0.1041  0.0734  0.0491
  656SOL    HW1 1967   2.940   0.035   2.366 -1.7182  0.1941 -3.0746
  656SOL    HW2 1968   2.860   0.036   2.221  1.7851 -2.5334  1.7106
  657SOL     OW 1969   2.748   1.290   2.889  0.4040 -0.0454  0.3520
  657SOL    HW1 1970   2.751   1.188   2.915 -1.2600  1.2532 -2.6906
  657SOL    HW2 1971   2.653   1.323   2.886 -2.3919 -1.2960 -0.3052
  658SOL     OW 1972   2.164   1.936   0.951 -0.4837 -0.1319 -0.0378
  658SOL    HW1 1973   2.090   1.961   1.016  0.1831  0.9177 -0.1613
  658SOL    HW2 1974   2.123   1.926   0.858 -0.5620 -0.2959 -1.5239
  659SOL     OW 1975   1.361   0.486   1.056  0.3864  0.1851 -0.3061
  659SOL    HW1 1976   1.358   0.584   1.083 -0.0070  2.4943  0.0994
  659SOL    HW2 1977   1.406   0.437   1.133  2.2863  1.4365  1.5232
  660SOL     OW 1978   1.590   1.384   3.053 -0.7788  0.3501 -0.4966
  660SOL    HW1 1979   1.545   1.292   3.056  2.0454  0.8798 -0.0067
  660SOL    HW2 1980   1.543   1.457   0.009  0.7314 -0.1875 -1.3155
  661SOL     OW 1981   0.271   2.117   0.723  0.0489  0.3178 -0.2171
  661SOL    HW1 1982   0.272   2.141   0.624 -1.1029  0.7005  2.6426
  661SOL    HW2 1983   0.340   2.169   0.773  0.6235  1.0593  1.8634
  662SOL     OW 1984   0.009   0.609   2.215 -0.0522  0.0241  0.2801
  662SOL    HW1 1985   0.002   0.651   2.303 -2.0889 -0.1841 -3.7882
  662SOL    HW2 1986   0.025   0.509   2.220 -0.2560 -2.3146 -0.7271
  663SOL     OW 1987   1.885   1.247   0.867  0.4492  0.2491  0.3374
  663SOL    HW1 1988   1.820   1.193   0.807 -1.4929 -0.3500 -1.6054
  663SOL    HW2 1989   1.968   1.189   0.888  4.0093 -1.0869 -1.2548
  664SOL     OW 1990   0.980   0.826   1.242 -0.2618  0.3604 -0.3904
  664SOL    HW1 1991   0.985   0.742   1.301 -0.4349 -1.4445 -0.4174
  664SOL    HW2 1992   1.053   0.887   1.280 -0.4576 -1.7325  2.1288
  665SOL     OW 1993   1.243   2.717   2.816 -0.5022  1.0841  0.3006
  665SOL    HW1 1994   1.214   2.747   2.909  0.3479  0.3600 -0.6861
  665SOL    HW2 1995   1.346   2.730   2.806  0.6417 -0.0772 -2.8470
  666SOL     OW 1996   2.588   2.926   2.480  0.0061  0.0823 -0.4230
  666SOL    HW1 1997   2.656   2.895   2.553 -0.4054 -1.4777  0.8821
  666SOL    HW2 1998   2.560   3.020   2.493  0.8640 -1.0814  4.0179
  667SOL     OW 1999   2.303   1.299   1.912 -0.0692 -0.3649  0.0473
  667SOL    HW1 2000   2.313   1.372   1.846  1.2007  0.0891  0.2184
  667SOL    HW2 2001   2.377   1.230   1.892  0.8422  1.8440  2.0951
  668SOL     OW 2002   0.256   1.153   2.557  0.1451 -0.2769  0.0592
  668SOL    HW1 2003   0.212   1.189   2.643 -1.6353  0.1133 -1.3116
  668SOL    HW2 2004   0.245   1.220   2.478 -1.2274  2.3019 -2.2864
  669SOL     OW 2005   1.992   2.311   2.490  0.7487  0.7502 -0.2223
  669SOL    HW1 2006   1.921   2.250   2.442 -0.1685  0.7693 -2.2324
  669SOL    HW2 2007   2.083   2.264   2.489 -2.7419  0.4787  0.8596
  670SOL     OW 2008   2.457   1.101   1.901 -0.6936 -0.1545  0.3057
  670SOL    HW1 2009   2.558   1.104   1.938  4.6860 -0.2649  0.6326
  670SOL    HW2 2010   2.424   1.004   1.919 -1.1927  1.7103  1.8436
  671SOL     OW 2011   2.447   1.458   0.084 -0.0334  0.5381 -0.0140
  671SOL    HW1 2012   2.531   1.428   0.131 -1.8514 -1.5600 -0.3765
  671SOL    HW2 2013   2.450   1.556   0.071 -0.7862 -3.0798  0.5773
  672SOL     OW 2014   2.717   1.162   1.981 -0.4124 -0.0939  0.1845
  672SOL    HW1 2015   2.808   1.164   1.946 -4.2349 -1.0166  0.4418
  672SOL    HW2 2016   2.721   1.204   2.076 -0.3673  3.1124  2.8087
  673SOL     OW 2017   2.625   0.967   1.510  0.3967  0.2620  0.3776
  673SOL    HW1 2018   2.708   0.968   1.567 -2.7914 -1.6721 -1.3423
  673SOL    HW2 2019   2.587   0.874   1.514 -1.5176 -0.3523  1.5578
  674SOL     OW 2020   2.142   1.952   1.672 -0.4337  0.0368 -0.1445
  674SOL    HW1 2021   2.057   1.998   1.645  1.3603  0.5376 -1.5523
  674SOL    HW2 2022   2.215   1.987   1.613 -0.3837 -0.9228  0.6366
  675SOL     OW 2023   0.406   0.588   0.972  0.0730  0.5887 -0.9050
  675SOL    HW1 2024   0.437   0.654   1.042 -0.5432 -1.7518 -1.7786
  675SOL    HW2 2025   0.311   0.608   0.942 -0.5577  3.0317  0.2221
  676SOL     OW 2026   1.651   1.201   1.152  0.6051  0.1783 -0.4549
  676SOL    HW1 2027   1.620   1.293   1.183 -1.2257  0.6749 -1.3066
  676SOL    HW2 2028   1.747   1.175   1.184 -2.4928 -1.2325  2.2030
  677SOL     OW 2029   2.414   1.370   2.190 -0.5285 -0.3301  0.6158
  677SOL    HW1 2030   2.354   1.364   2.102 -0.7695  0.1405 -2.3790
  677SOL    HW2 2031   2.436   1.468   2.203 -0.6491 -0.7773 -0.0457
  678SOL     OW 2032   0.146   1.547   0.535  0.3132  0.2105  0.7050
  678SOL    HW1 2033   0.161   1.444   0.519  0.1105 -0.7513  1.4959
  678SOL    HW2 2034   0.061   1.568   0.586 -0.0592 -0.0030 -0.7016
  679SOL     OW 2035   2.779   2.689   0.491 -0.5702  0.2429  0.5512
  679SOL    HW1 2036   2.733   2.743   0.418  1.5920 -0.3903 -0.0845
  679SOL    HW2 2037   2.866   2.648   0.464 -0.2077  1.3238 -0.6158
  680SOL     OW 2038   2.984   2.280   1.407 -0.1613 -0.3326  0.3517
  680SOL    HW1 2039   3.029   2.192   1.419 -0.3281  2.9204  1.6632
  680SOL    HW2 2040   2.899   2.283   1.461  0.1350  3.1617 -0.5802
  681SOL     OW 2041   0.432   1.318   1.207 -0.0524  0.1647  0.5806
  681SOL    HW1 2042   0.517   1.334   1.156  1.3051 -2.7597  0.4049
  681SOL    HW2 2043   0.432   1.359   1.298  0.6184 -2.2506 -1.8521
  682SOL     OW 2044   1.629   2.524   0.923  0.3408 -0.7161 -0.1941
  682SOL    HW1 2045   1.549   2.531   0.986  0.2315  1.3348 -0.2066
  682SOL    HW2 2046   1.714   2.511   0.978 -2.1920 -0.5241  0.4784
  683SOL     OW 2047   2.270   1.597   0.898  0.3471  0.2638 -0.2013
  683SOL    HW1 2048   2.356   1.587   0.951 -0.4954 -0.3288  1.2503
  683SOL    HW2 2049   2.282   1.667   0.821  0.8326 -3.6957  0.2770
  684SOL     OW 2050   0.684   2.045   2.021 -0.1127 -0.7500  0.1508
  684SOL    HW1 2051   0.777   2.084   2.031 -0.8739 -1.8591 -1.6890
  684SOL    HW2 2052   0.645   2.080   1.931  0.0154  0.3485  2.0441
  685SOL     OW 2053   2.247   1.498   0.278 -0.2576 -0.1612 -0.7391
  685SOL    HW1 2054   2.304   1.478   0.195 -3.1325  1.0424  0.5703
  685SOL    HW2 2055   2.160   1.541   0.243  1.3297 -1.6446  0.3900
  686SOL     OW 2056   0.074   0.516   0.659  0.0745 -0.2499  0.3902
  686SOL    HW1 2057   0.028   0.426   0.649  0.8069  1.4154 -0.6575
  686SOL    HW2 2058   0.151   0.526   0.586  1.3605 -0.4023 -1.9370
  687SOL     OW 2059   1.533   2.709   0.087  1.2067 -0.1097 -0.2703
  687SOL    HW1 2060   1.539   2.618   0.134  0.6176  2.6500  2.1617
  687SOL    HW2 2061   1.451   2.713   0.026  1.2809 -0.5781  2.1034
  688SOL     OW 2062   2.020   1.836   1.983  0.4633 -0.3406 -0.2133
  688SOL    HW1 2063   2.079   1.754   1.974  0.0989 -1.8895 -0.2527
  688SOL    HW2 2064   1.925   1.826   1.950  0.6079 -2.2622  0.4364
  689SOL     OW 2065   2.389   0.836   2.006  0.0849  0.6233  0.6900
  689SOL    HW1 2066   2.444   0.785   1.937 -1.0910  0.1325  0.2772
  689SOL    HW2 2067   2.438   0.835   2.097  1.2370 -0.2395  2.5098
  690SOL     OW 2068   1.769   0.634   1.245  0.1476 -0.0341 -0.4593
  690SOL    HW1 2069   1.696   0.658   1.315 -1.7445 -0.4820  1.1342
  690SOL    HW2 2070   1.810   0.538   1.265  1.5203  1.8772  1.2914
  691SOL     OW 2071   1.110   1.925   1.524  0.1770  0.0724  0.3347
  691SOL    HW1 2072   1.062   1.874   1.450 -0.4138  0.0421  1.8072
  691SOL    HW2 2073   1.200   1.883   1.539  1.7460  0.6458  0.2589
  692SOL     OW 2074   1.619   0.373   1.880  0.4005  0.5463 -0.5304
  692SOL    HW1 2075   1.559   0.457   1.892 -1.0284  0.3501 -5.0943
  692SOL    HW2 2076   1.559   0.313   1.824 -0.4586  1.1700 -0.4209
  693SOL     OW 2077   0.542   1.202   2.898  0.2324  0.4737 -0.1363
  693SOL    HW1 2078   0.593   1.160   2.973 -0.6474  1.1897  0.0894
  693SOL    HW2 2079   0.509   1.129   2.835 -1.3591  1.2403 -1.2159
  694SOL     OW 2080   2.133   2.766   1.132 -0.1242 -0.8208 -0.3030
  694SOL    HW1 2081   2.077   2.741   1.048 -4.6237 -2.2419 -1.3088
  694SOL    HW2 2082   2.065   2.758   1.208  0.9448  0.9890  0.3820
  695SOL     OW 2083   1.627   1.552   2.212  0.3612  0.3280 -0.4119
  695SOL    HW1 2084   1.550   1.580   2.156 -1.7124  0.4372  2.4466
  695SOL    HW2 2085   1.590   1.514   2.299 -0.1087  1.2005 -0.8165
  696SOL     OW 2086   1.523   0.393   1.273  0.0236  0.0800 -0.0045
  696SOL    HW1 2087   1.512   0.321   1.349 -0.9705 -1.9787 -2.7826
  696SOL    HW2 2088   1.542   0.485   1.307  1.2195  1.5657 -1.5017
  697SOL     OW 2089   1.394   0.297   1.740  0.2580 -0.3701 -0.2922
  697SOL    HW1 2090   1.400   0.197   1.735  0.5961  0.0807 -2.1577
  697SOL    HW2 2091   1.295   0.321   1.750 -0.5904  1.7465 -0.3553
  698SOL     OW 2092   1.818   1.342   2.295 -0.1249 -0.0498  0.2607
  698SOL    HW1 2093   1.836   1.282   2.220 -1.5968 -0.5972 -0.3450
  698SOL    HW2 2094   1.725   1.378   2.277  1.6431 -0.0501 -1.8522
  699SOL     OW 2095   1.536   1.012   1.301 -0.5016 -0.2822 -0.4118
  699SOL    HW1 2096   1.586   1.075   1.240 -0.5996  1.0117  0.7087
  699SOL    HW2 2097   1.442   1.026   1.274  2.8859  1.1700  1.8404
  700SOL     OW 2098   1.506   0.032   0.181  0.3549 -0.0986 -0.0518
  700SOL    HW1 2099   1.529   0.106   0.120 -3.3183 -1.7997 -1.8318
  700SOL    HW2 2100   1.443   0.067   0.257  0.0762  0.9430 -0.4050
  701SOL     OW 2101   0.235   3.090   1.590  0.0430  0.3902  0.0727
  701SOL    HW1 2102   0.239   3.022   1.664 -0.3353  0.6360 -1.6330
  701SOL    HW2 2103   0.291   3.053   1.512  0.7504 -1.8386 -0.1510
  702SOL     OW 2104   1.443   2.860   0.466  0.3780  0.1288 -0.3663
  702SOL    HW1 2105   1.527   2.913   0.468 -2.2250 -1.0042 -0.7565
  702SOL    HW2 2106   1.462   2.766   0.437  1.4685  1.3919 -0.2829
  703SOL     OW 2107   2.532   0.144   2.155 -0.1367  0.1543 -0.2164
  703SOL    HW1 2108   2.518   0.245   2.147  0.6637 -0.7062  0.8763
  703SOL    HW2 2109   2.456   0.102   2.102  2.3162  1.9846  1.6218
  704SOL     OW 2110   1.195   2.193   1.037  0.4023 -0.1649  1.0170
  704SOL    HW1 2111   1.168   2.186   1.136  0.2963 -3.5672 -0.4847
  704SOL    HW2 2112   1.293   2.192   1.023 -0.8280  0.7415 -0.6566
  705SOL     OW 2113   2.999   1.378   2.026  1.0131  0.3573 -0.1235
  705SOL    HW1 2114   2.927   1.439   2.071  1.2012  0.5876  0.6106
  705SOL    HW2 2115   2.970   1.324   1.944  0.4014 -2.7259 -0.3293
  706SOL     OW 2116   1.630   3.038   0.519  0.5250 -0.1736 -0.5067
  706SOL    HW1 2117   1.561   3.092   0.466 -0.4504  0.3653  1.7888
  706SOL    HW2 2118   1.718   3.014   0.477 -0.3933 -1.9797  1.4044
  707SOL     OW 2119   1.079   2.202   2.305 -0.5532 -0.0410  0.6537
  707SOL    HW1 2120   1.059   2.297   2.332 -1.4902 -0.8501 -1.3547
  707SOL    HW2 2121   1.147   2.156   2.368  1.8055 -2.1059 -0.3197
  708SOL     OW 2122   0.048   2.022   1.439  0.5995 -0.4332  0.0628
  708SOL    HW1 2123   0.021   1.933   1.478  0.8897 -0.7866 -3.7412
  708SOL    HW2 2124   0.103   2.076   1.507  4.3077 -1.1294  1.0861
  709SOL     OW 2125   1.865   0.474   1.987 -0.8373 -0.2069 -0.7778
  709SOL    HW1 2126   1.779   0.435   1.951  2.3622  0.4672  0.7550
  709SOL    HW2 2127   1.847   0.520   2.076 -3.1970 -0.8540  2.5318
  710SOL     OW 2128   2.740   0.378   1.424  0.4890  0.3085 -0.0158
  710SOL    HW1 2129   2.681   0.297   1.432  0.8050  2.0746 -2.3012
  710SOL    HW2 2130   2.713   0.435   1.343  0.2667 -1.8693 -1.1863
  711SOL     OW 2131   0.241   2.546   0.701 -0.3977 -0.1804  0.3487
  711SOL    HW1 2132   0.288   2.528   0.790  1.7868 -0.5928 -0.2890
  711SOL    HW2 2133   0.142   2.515   0.703 -0.8813 -0.5766  0.4180
  712SOL     OW 2134   0.454   2.268   2.457  0.0754 -0.3193 -0.0613
  712SOL    HW1 2135   0.506   2.183   2.454  0.3686  1.6111 -1.2693
  712SOL    HW2 2136   0.393   2.287   2.379 -1.0217 -3.7328 -0.1538
  713SOL     OW 2137   1.464   0.697   3.089  0.0364  0.1165 -0.2607
  713SOL    HW1 2138   1.427   0.731   0.080 -2.7150 -1.6344 -0.4522
  713SOL    HW2 2139   1.563   0.666   3.094  0.4303  0.1972  1.0485
  714SOL     OW 2140   1.564   1.858   0.250  0.5113 -0.1212  0.1297
  714SOL    HW1 2141   1.511   1.867   0.167  0.0961 -0.6004  2.1019
  714SOL    HW2 2142   1.495   1.864   0.328  0.0914 -1.7615  4.1893
  715SOL     OW 2143   2.729   0.113   0.427  0.5436  0.6321  0.6771
  715SOL    HW1 2144   2.636   0.100   0.457  2.3611  1.3279  2.0784
  715SOL    HW2 2145   2.794   0.139   0.504  2.9836 -0.8528  0.2331
  716SOL     OW 2146   0.276   0.259   2.212  0.2263 -0.3681  0.2884
  716SOL    HW1 2147   0.333   0.249   2.300  2.0500 -0.5808  0.4150
  716SOL    HW2 2148   0.175   0.268   2.225  1.3855  0.9029  1.3459
  717SOL     OW 2149   0.187   0.427   2.616 -0.2641 -0.1013  0.4868
  717SOL    HW1 2150   0.279   0.387   2.601  1.1019 -0.4508 -0.0739
  717SOL    HW2 2151   0.123   0.364   2.659 -4.4265 -1.5245 -1.0170
  718SOL     OW 2152   1.124   0.644   0.602 -0.3892  0.1268 -0.2510
  718SOL    HW1 2153   1.163   0.641   0.699  0.9218 -2.3328  2.6073
  718SOL    HW2 2154   1.122   0.740   0.573 -2.3832 -0.2524  0.0005
  719SOL     OW 2155   2.652   2.262   2.775  0.3201 -0.3621 -0.5397
  719SOL    HW1 2156   2.655   2.167   2.737 -0.0809  0.2247  1.1194
  719SOL    HW2 2157   2.716   2.278   2.851  2.3693  2.0317  3.8403
  720SOL     OW 2158   1.575   0.628   1.425 -0.1244 -0.5838 -0.1747
  720SOL    HW1 2159   1.597   0.564   1.504 -0.1853  0.8453 -2.2383
  720SOL    HW2 2160   1.509   0.700   1.457 -1.6158 -0.3156  0.0526
  721SOL     OW 2161   2.736   0.748   0.855  0.3371 -0.0320 -0.1367
  721SOL    HW1 2162   2.781   0.703   0.771  0.2638 -1.3798 -1.5949
  721SOL    HW2 2163   2.767   0.704   0.939 -1.2492  1.6681 -2.3018
  722SOL     OW 2164   1.427   1.857   2.529  0.0566 -0.4273 -0.7511
  722SOL    HW1 2165   1.363   1.918   2.475 -2.3253 -0.9350 -2.9557
  722SOL    HW2 2166   1.377   1.770   2.555 -2.5561 -1.7586  3.4023
  723SOL     OW 2167   0.666   0.555   0.464  0.0221  0.3971  0.1152
  723SOL    HW1 2168   0.759   0.539   0.503  0.3036 -0.3431 -1.4941
  723SOL    HW2 2169   0.611   0.581   0.547  1.8514  0.2954 -1.7889
  724SOL     OW 2170   1.133   2.042   1.771  0.1609 -0.3255 -0.3364
  724SOL    HW1 2171   1.099   2.001   1.684 -1.3271  0.0101 -0.9025
  724SOL    HW2 2172   1.079   2.124   1.795 -0.6828 -0.7780 -2.0330
  725SOL     OW 2173   0.082   1.142   1.455 -0.1477 -0.1278  0.3804
  725SOL    HW1 2174   0.083   1.190   1.366 -0.1703 -1.1187 -1.2066
  725SOL    HW2 2175   0.171   1.148   1.505 -2.4982 -1.9309 -1.0489
  726SOL     OW 2176   1.758   0.595   0.605 -0.0610  0.0653 -0.4490
  726SOL    HW1 2177   1.676   0.592   0.665  1.2254 -1.4980  1.5062
  726SOL    HW2 2178   1.730   0.582   0.506 -1.7917  0.0206 -0.6535
  727SOL     OW 2179   1.585   0.979   2.317  0.3198  0.2600  0.1145
  727SOL    HW1 2180   1.550   1.061   2.277 -0.3747 -5.2840 -0.4971
  727SOL    HW2 2181   1.535   0.958   2.405 -1.1439 -1.8247  1.8694
  728SOL     OW 2182   1.721   2.706   1.454 -0.1353 -0.1198 -0.6186
  728SOL    HW1 2183   1.703   2.803   1.453 -1.1224 -2.1036 -1.5119
  728SOL    HW2 2184   1.687   2.669   1.545  3.0295 -1.6437  0.1330
  729SOL     OW 2185   1.309   0.505   1.491  0.2119 -0.3861  0.4447
  729SOL    HW1 2186   1.350   0.411   1.482  1.1490  0.3022  1.6227
  729SOL    HW2 2187   1.221   0.509   1.537  2.5209 -0.9341  0.9052
  730SOL     OW 2188   0.849   2.109   1.693  0.7615  0.2681 -0.6602
  730SOL    HW1 2189   0.828   2.173   1.773 -1.4582  0.4932 -0.1964
  730SOL    HW2 2190   0.765   2.093   1.636 -1.6057 -2.9481 -1.5719
  731SOL     OW 2191   0.431   0.363   0.081 -0.1465 -0.5787 -0.4556
  731SOL    HW1 2192   0.354   0.333   0.144 -0.7941 -1.6316 -0.5115
  731SOL    HW2 2193   0.481   0.280   0.051 -0.5291 -2.6556  0.5231
  732SOL     OW 2194   0.722   0.665   3.078  0.1553 -0.7052 -0.1295
  732SOL    HW1 2195   0.749   0.630   0.076  2.7407  1.0015  3.4301
  732SOL    HW2 2196   0.636   0.622   3.046  2.0485  1.8944  1.8165
  733SOL     OW 2197   1.413   1.602   1.770 -0.5184 -0.2485 -0.7927
  733SOL    HW1 2198   1.505   1.568   1.734  4.9414 -2.2808 -0.0997
  733SOL    HW2 2199   1.348   1.529   1.762  1.5291  3.5820  1.4904
  734SOL     OW 2200   2.929   2.795   2.154  0.0628  0.6155 -0.0708
  734SOL    HW1 2201   2.957   2.896   2.157 -1.2776 -1.0183  0.4842
  734SOL    HW2 2202   2.969   2.746   2.078 -3.5083  1.5188  2.4443
  735SOL     OW 2203   0.902   2.668   0.995  0.8209  0.6101 -0.4299
  735SOL    HW1 2204   0.979   2.729   0.970 -1.0213 -2.6089  0.9297
  735SOL    HW2 2205   0.920   2.568   0.959  1.8416  0.6539 -3.5844
  736SOL     OW 2206   1.431   0.925   2.535  0.1357  0.3745  0.2158
  736SOL    HW1 2207   1.420   0.829   2.555  0.3425 -2.7487 -0.3580
  736SOL    HW2 2208   1.338   0.971   2.527  1.7595 -0.9217  0.0621
  737SOL     OW 2209   0.107   0.801   0.395 -0.4210 -0.3070 -0.4304
  737SOL    HW1 2210   0.140   0.798   0.489  0.1336 -2.2055 -0.5609
  737SOL    HW2 2211   0.091   0.900   0.376 -0.8882 -0.7817  0.7338
  738SOL     OW 2212   0.264   2.720   1.369  0.1880 -0.4213  0.0110
  738SOL    HW1 2213   0.168   2.689   1.369  1.3388 -0.7744  1.1909
  738SOL    HW2 2214   0.305   2.722   1.275 -2.4173 -1.2776  0.9773
  739SOL     OW 2215   1.700   2.907   0.727 -0.5683  0.0011  0.3919
  739SOL    HW1 2216   1.657   2.941   0.815  1.3201  0.9917  1.5843
  739SOL    HW2 2217   1.660   2.950   0.645  0.8720  0.5440  4.6881
  740SOL     OW 2218   1.475   2.809   1.185  0.1213  0.1700  0.2927
  740SOL    HW1 2219   1.572   2.828   1.182 -1.6703 -0.3094 -0.1064
  740SOL    HW2 2220   1.435   2.840   1.268 -1.0852  1.1377 -2.7175
  741SOL     OW 2221   1.951   0.415   0.525  0.0189  0.4438 -0.0172
  741SOL    HW1 2222   1.861   0.457   0.546  0.6023  1.2693  1.0156
  741SOL    HW2 2223   2.020   0.488   0.523 -3.7935 -0.6011 -0.4549
  742SOL     OW 2224   1.312   2.250   1.618 -0.2306  0.3244 -0.1584
  742SOL    HW1 2225   1.298   2.276   1.714  0.4715 -1.6063  2.4127
  742SOL    HW2 2226   1.373   2.167   1.610 -0.9033  1.1351 -0.3540
  743SOL     OW 2227   2.221   0.696   2.198 -0.1178  0.1342 -0.7730
  743SOL    HW1 2228   2.159   0.775   2.211  2.1522  2.1997  1.4009
  743SOL    HW2 2229   2.277   0.716   2.113  0.6822 -0.4217  1.1075
  744SOL     OW 2230   2.249   0.320   0.719 -0.3209  0.1792  0.1484
  744SOL    HW1 2231   2.230   0.331   0.617 -1.8270 -0.7615  0.5061
  744SOL    HW2 2232   2.331   0.369   0.748 -2.1783  0.1766 -1.6837
  745SOL     OW 2233   2.224   1.642   2.008  0.6119 -0.2262  0.1335
  745SOL    HW1 2234   2.162   1.564   1.985 -2.0246 -0.3219 -0.1287
  745SOL    HW2 2235   2.315   1.635   1.971 -0.6422  1.0793 -2.7800
  746SOL     OW 2236   1.220   1.682   0.874  0.4857 -0.4672 -0.5136
  746SOL    HW1 2237   1.126   1.709   0.906 -2.6707 -0.4074  0.2898
  746SOL    HW2 2238   1.295   1.743   0.916  1.1598  3.4984  0.9061
  747SOL     OW 2239   2.065   1.114   1.031  0.2060  0.7283 -0.3691
  747SOL    HW1 2240   2.000   1.119   1.106 -0.3569 -0.3020  2.5864
  747SOL    HW2 2241   2.057   1.023   0.981  0.3323  0.0911 -0.0393
  748SOL     OW 2242   0.214   3.036   0.216  0.1494  0.1777  0.2826
  748SOL    HW1 2243   0.248   3.079   0.305  0.2148 -1.2597  1.8235
  748SOL    HW2 2244   0.183   2.940   0.233  0.8171 -0.7431  0.0865
  749SOL     OW 2245   0.060   3.077   2.091  0.3356  0.2594 -0.0808
  749SOL    HW1 2246   0.079   0.065   2.037  0.1811 -0.4286 -0.8190
  749SOL    HW2 2247   3.070   3.090   2.150  1.2291 -0.2315  3.1983
  750SOL     OW 2248   1.629   2.878   1.687 -0.9947 -0.0845 -0.8546
  750SOL    HW1 2249   1.707   2.927   1.733  1.6175  0.8363  0.8169
  750SOL    HW2 2250   1.637   2.777   1.692  2.1715  0.2830  0.9663
  751SOL     OW 2251   2.904   0.593   0.617  0.3322 -0.4284 -0.2910
  751SOL    HW1 2252   2.885   0.666   0.548  0.2084 -0.3209  0.0843
  751SOL    HW2 2253   3.001   0.589   0.649  3.4378  0.3373  1.7726
  752SOL     OW 2254   0.278   2.964   0.933  0.4252 -0.3174  0.2616
  752SOL    HW1 2255   0.315   3.046   0.888  0.2617  1.7153 -0.4699
  752SOL    HW2 2256   0.261   2.884   0.873  0.4643  2.4983  1.0383
  753SOL     OW 2257   0.889   0.220   1.388 -0.0164  0.0870 -0.2654
  753SOL    HW1 2258   0.819   0.156   1.362  4.1284 -0.1589  0.0164
  753SOL    HW2 2259   0.976   0.178   1.434  1.9164  0.3378 -2.4094
  754SOL     OW 2260   0.806   2.682   2.167 -0.3906  0.2784  0.0179
  754SOL    HW1 2261   0.746   2.752   2.216  0.6016  2.2609  3.7261
  754SOL    HW2 2262   0.884   2.731   2.115  2.8768  3.1423 -0.4366
  755SOL     OW 2263   2.357   1.609   0.500  0.5923 -0.7070 -0.7434
  755SOL    HW1 2264   2.453   1.614   0.475 -2.7728 -0.5042  0.3429
  755SOL    HW2 2265   2.310   1.582   0.415  0.3212 -0.8730 -0.3694
  756SOL     OW 2266   2.063   2.021   2.718 -0.4023 -0.1986  0.5522
  756SOL    HW1 2267   2.051   2.103   2.779  1.2785 -1.5992  0.8935
  756SOL    HW2 2268   2.125   2.034   2.639  2.8827 -2.7844 -1.1947
  757SOL     OW 2269   1.644   0.160   1.110 -0.1890  0.4113 -0.0681
  757SOL    HW1 2270   1.615   0.253   1.140 -0.4322  0.3433 -0.6563
  757SOL    HW2 2271   1.627   0.142   1.014 -1.7943 -2.7307  1.0268
  758SOL     OW 2272   1.464   2.566   0.667 -0.1646  0.1462  0.0038
  758SOL    HW1 2273   1.520   2.549   0.749 -0.0814  2.0350 -0.3595
  758SOL    HW2 2274   1.518   2.590   0.586  0.7633 -0.0078  2.5015
  759SOL     OW 2275   2.473   0.329   1.050  0.2701  0.4121  0.0867
  759SOL    HW1 2276   2.460   0.388   0.972  0.0971 -1.0595  3.3141
  759SOL    HW2 2277   2.387   0.328   1.116 -0.5306  0.3380  2.6616
  760SOL     OW 2278   2.294   1.050   1.187  0.0431  0.3788  0.0123
  760SOL    HW1 2279   2.301   1.098   1.275  3.3929  2.8334 -1.8173
  760SOL    HW2 2280   2.215   1.092   1.135  1.1516  0.7144  2.1214
  761SOL     OW 2281   0.581   0.683   0.702 -0.3114 -0.0982 -0.2103
  761SOL    HW1 2282   0.520   0.756   0.666 -1.7362  2.0941 -1.0289
  761SOL    HW2 2283   0.544   0.633   0.784 -1.6499 -0.9862  2.7126
  762SOL     OW 2284   1.667   1.879   1.279 -0.4044  0.0492 -0.5936
  762SOL    HW1 2285   1.730   1.826   1.332  1.8878 -0.8486  0.0975
  762SOL    HW2 2286   1.686   1.982   1.284 -0.0311  0.9235  0.6945
  763SOL     OW 2287   1.030   1.294   1.764  0.0426  0.1306  0.1378
  763SOL    HW1 2288   1.005   1.225   1.693 -1.2195 -0.3380 -0.8140
  763SOL    HW2 2289   0.944   1.335   1.799 -1.4055 -1.3226  1.9905
  764SOL     OW 2290   0.107   1.863   2.200  0.1987  0.0901  0.8251
  764SOL    HW1 2291   0.018   1.833   2.158  2.2120 -1.3831 -0.1029
  764SOL    HW2 2292   0.170   1.788   2.217 -0.1129  0.6988  2.1813
  765SOL     OW 2293   1.587   2.340   1.226 -0.5966 -0.1845  0.0856
  765SOL    HW1 2294   1.529   2.263   1.258 -0.8873  1.7920  0.1513
  765SOL    HW2 2295   1.533   2.421   1.206 -0.5795 -1.6276 -0.9174
  766SOL     OW 2296   0.198   2.664   2.349 -0.4576 -1.0995  0.2948
  766SOL    HW1 2297   0.139   2.729   2.395  2.1239  0.8192  1.3831
  766SOL    HW2 2298   0.148   2.591   2.302  2.3329  0.0742 -1.1757
  767SOL     OW 2299   1.367   0.659   2.560  0.0005 -0.2998  0.1807
  767SOL    HW1 2300   1.399   0.651   2.656  1.4867  0.0022 -1.0543
  767SOL    HW2 2301   1.275   0.627   2.541  2.5506  3.0583 -0.7928
  768SOL     OW 2302   1.331   2.417   3.048 -0.7277 -0.0727 -0.0627
  768SOL    HW1 2303   1.387   2.464   2.981 -1.9697 -1.9795  1.1391
  768SOL    HW2 2304   1.302   2.327   3.014  2.2270  3.4815  1.3850
  769SOL     OW 2305   0.340   2.738   1.115 -0.0468  0.6290  1.1388
  769SOL    HW1 2306   0.292   2.813   1.068 -2.1220  0.1990  2.0853
  769SOL    HW2 2307   0.411   2.693   1.058 -0.0818  1.8828 -0.3756
  770SOL     OW 2308   1.446   0.661   2.809 -0.3559 -0.3342 -0.6345
  770SOL    HW1 2309   1.514   0.723   2.765 -0.2022 -0.6492 -0.6572
  770SOL    HW2 2310   1.481   0.642   2.905  0.0364 -1.1611 -2.0932
  771SOL     OW 2311   0.240   0.166   2.526 -0.4549  0.4058  0.1960
  771SOL    HW1 2312   0.333   0.191   2.499 -2.9133 -1.1961 -2.2322
  771SOL    HW2 2313   0.181   0.143   2.449  0.1709 -2.2103  2.2471
  772SOL     OW 2314   2.022   2.897   2.063  0.8284 -0.4586  0.3867
  772SOL    HW1 2315   2.006   2.992   2.102 -1.0762  1.4226  0.7875
  772SOL    HW2 2316   2.084   2.904   1.982 -0.2604  1.8877 -0.7921
  773SOL     OW 2317   0.879   2.286   1.903  0.0899  0.2286 -0.1541
  773SOL    HW1 2318   0.895   2.212   1.968 -0.4449 -0.2259  1.0733
  773SOL    HW2 2319   0.805   2.350   1.937 -1.2955 -1.6551  2.4554
  774SOL     OW 2320   1.134   0.200   1.792  0.2557  0.6773 -0.5719
  774SOL    HW1 2321   1.172   0.155   1.875  1.6502 -1.1164  0.1806
  774SOL    HW2 2322   1.045   0.247   1.814  0.5739 -1.0276 -0.3416
  775SOL     OW 2323   2.215   2.406   0.163  0.0277 -0.5280 -0.1066
  775SOL    HW1 2324   2.201   2.328   0.225 -0.1939 -1.1358  1.4757
  775SOL    HW2 2325   2.141   2.417   0.094  1.7483  0.2960  3.9850
  776SOL     OW 2326   2.261   0.535   2.396  0.4187 -0.2978  0.3982
  776SOL    HW1 2327   2.299   0.579   2.482 -0.0779 -0.4340 -1.5512
  776SOL    HW2 2328   2.240   0.610   2.328 -1.0946 -2.4966  3.3754
  777SOL     OW 2329   2.371   1.155   2.550  0.6236 -0.4295  0.2058
  777SOL    HW1 2330   2.351   1.103   2.634  2.0810 -1.1960 -0.8286
  777SOL    HW2 2331   2.468   1.193   2.547  0.9992  0.1082 -0.2828
  778SOL     OW 2332   2.067   0.914   2.253  0.2332 -0.0012 -0.1028
  778SOL    HW1 2333   1.985   0.964   2.286  0.1566 -0.2999 -0.7988
  778SOL    HW2 2334   2.060   0.904   2.148 -0.3368  0.5135 -1.8882
  779SOL     OW 2335   0.038   0.275   0.020  0.6825  0.0222 -0.5472
  779SOL    HW1 2336   0.106   0.242   3.051 -0.3762  0.5994  0.3609
  779SOL    HW2 2337   0.058   0.373   0.037 -2.9221 -4.8953  0.8101
  780SOL     OW 2338   2.637   0.388   2.907 -0.5749  0.1503  0.0109
  780SOL    HW1 2339   2.686   0.443   2.838  0.5947 -0.7359  0.1710
  780SOL    HW2 2340   2.635   0.448   2.992  2.1405 -0.9905  0.8022
  781SOL     OW 2341   0.376   2.963   1.384  0.3131 -0.3167 -0.0500
  781SOL    HW1 2342   0.327   3.018   1.311  0.3294 -0.4473 -0.8091
  781SOL    HW2 2343   0.345   2.867   1.396  2.6691 -1.2430  1.0000
  782SOL     OW 2344   2.018   2.501   0.701  0.2834  0.2463 -0.1927
  782SOL    HW1 2345   1.931   2.555   0.689 -2.2617  2.1159 -0.7904
  782SOL    HW2 2346   2.038   2.449   0.613 -1.4270 -0.4312 -2.5182
  783SOL     OW 2347   0.687   1.456   1.508 -0.0031 -0.4666  0.3795
  783SOL    HW1 2348   0.732   1.408   1.432 -1.8245  0.8739  0.7761
  783SOL    HW2 2349   0.694   1.409   1.595 -1.6901  0.1431 -1.3573
  784SOL     OW 2350   1.161   0.494   2.515 -0.1979 -0.7747  0.2814
  784SOL    HW1 2351   1.231   0.422   2.483  3.0123  0.3607 -0.4894
  784SOL    HW2 2352   1.121   0.545   2.436  0.8514 -0.4650 -2.0715
  785SOL     OW 2353   2.663   0.155   1.124 -0.3972  0.1731 -0.4201
  785SOL    HW1 2354   2.599   0.230   1.102  0.6177  1.3294 -0.5846
  785SOL    HW2 2355   2.624   0.062   1.112  3.2817  2.2300  0.6238
  786SOL     OW 2356   1.367   2.689   1.541  0.5793  0.4560  0.0137
  786SOL    HW1 2357   1.461   2.671   1.574 -1.2062 -0.3283 -0.0145
  786SOL    HW2 2358   1.318   2.596   1.531 -0.8009 -1.0225 -1.8183
  787SOL     OW 2359   1.704   0.203   1.500  0.3199 -0.1459 -0.4733
  787SOL    HW1 2360   1.640   0.143   1.447 -1.9321  0.7984  0.4636
  787SOL    HW2 2361   1.779   0.141   1.538  0.2674 -0.6426  2.0108
  788SOL     OW 2362   3.088   1.064   0.353 -0.4043  0.1192 -0.1201
  788SOL    HW1 2363   0.036   1.130   0.413 -1.0142  1.1399 -1.4026
  788SOL    HW2 2364   2.986   1.062   0.367 -0.9129 -1.3041 -2.6156
  789SOL     OW 2365   0.794   1.841   1.752 -0.2381  0.1853 -0.2880
  789SOL    HW1 2366   0.814   1.940   1.745  3.4039 -0.6360  2.0561
  789SOL    HW2 2367   0.879   1.797   1.788 -1.0873  0.0417  0.3957
  790SOL     OW 2368   0.639   0.590   2.447 -0.1619 -0.0349 -0.0613
  790SOL    HW1 2369   0.669   0.545   2.535 -0.3972 -0.8741  0.7808
  790SOL    HW2 2370   0.539   0.597   2.434  0.2009 -0.1718  0.3767
  791SOL     OW 2371   2.197   0.796   0.646  0.1064 -0.9168  0.3930
  791SOL    HW1 2372   2.164   0.788   0.551  0.7402 -1.6316  2.3207
  791SOL    HW2 2373   2.156   0.729   0.712  0.6113  0.7432  0.3827
  792SOL     OW 2374   1.170   2.794   1.712 -0.0224 -0.0308  0.0795
  792SOL    HW1 2375   1.231   2.780   1.797 -0.4513 -0.2973  0.6497
  792SOL    HW2 2376   1.227   2.768   1.631  1.2646 -3.2514 -0.0423
  793SOL     OW 2377   0.421   0.124   0.815 -0.9369  0.2761 -0.0973
  793SOL    HW1 2378   0.467   0.199   0.871 -0.7514 -1.3215 -2.0269
  793SOL    HW2 2379   0.473   0.103   0.731 -0.3624 -0.5476 -0.2577
  794SOL     OW 2380   0.045   1.034   2.030 -0.4525  0.2549 -0.6732
  794SOL    HW1 2381   0.031   1.078   2.121 -0.3944 -0.1522  2.6500
  794SOL    HW2 2382   3.066   1.047   1.963  0.6277 -3.3183  1.7633
  795SOL     OW 2383   0.777   2.380   2.461 -0.1562  0.2504  0.9139
  795SOL    HW1 2384   0.702   2.441   2.482 -0.5239 -3.8309 -0.1437
  795SOL    HW2 2385   0.763   2.352   2.366 -0.7347  1.4641 -0.2654
  796SOL     OW 2386   2.269   0.262   2.410  0.0205 -0.2065  0.0992
  796SOL    HW1 2387   2.283   0.364   2.420 -0.6120  1.7834  3.2430
  796SOL    HW2 2388   2.353   0.210   2.433 -0.6672  1.4269  3.4586
  797SOL     OW 2389   2.271   2.464   2.599  0.2174  0.0842 -0.4034
  797SOL    HW1 2390   2.311   2.376   2.632  1.4579 -2.0077  0.4870
  797SOL    HW2 2391   2.203   2.508   2.663  0.3427  2.6349  0.3464
  798SOL     OW 2392   2.944   0.268   2.021  0.5924 -0.3692 -0.3098
  798SOL    HW1 2393   2.934   0.352   1.960  0.0044 -0.5714  0.2441
  798SOL    HW2 2394   2.876   0.202   1.984  1.3659  0.4078  2.5188
  799SOL     OW 2395   0.688   2.263   2.226  0.4334  0.4499  0.3100
  799SOL    HW1 2396   0.682   2.166   2.189  0.4419 -1.4870  0.2261
  799SOL    HW2 2397   0.682   2.326   2.142 -1.7757  2.6656 -5.1891
  800SOL     OW 2398   0.052   2.124   0.191  0.0114 -0.1036 -0.6482
  800SOL    HW1 2399   0.146   2.143   0.163 -0.1846 -0.4356  0.5401
  800SOL    HW2 2400   0.038   2.049   0.261  0.1843  0.4452  2.0136
  801SOL     OW 2401   1.615   1.455   1.145  0.2720  0.1518  0.0371
  801SOL    HW1 2402   1.548   1.473   1.219 -1.4893  0.8883 -2.5506
  801SOL    HW2 2403   1.620   1.538   1.085  0.5946  0.4848 -1.6960
  802SOL     OW 2404   2.941   0.807   0.449  0.6616  0.3783 -0.4594
  802SOL    HW1 2405   3.038   0.794   0.428 -0.4207  0.5882  1.1146
  802SOL    HW2 2406   2.885   0.804   0.363 -0.8994 -1.3135  0.7325
  803SOL     OW 2407   1.425   1.359   2.039  0.1423 -0.4653 -0.5663
  803SOL    HW1 2408   1.439   1.456   2.016  0.8001 -1.0715  0.2360
  803SOL    HW2 2409   1.354   1.316   1.982  0.9563  0.6832 -1.5443
  804SOL     OW 2410   1.876   1.425   1.056 -0.3059  0.0282  0.0387
  804SOL    HW1 2411   1.780   1.444   1.080 -1.1945  2.6781 -2.5575
  804SOL    HW2 2412   1.873   1.349   0.987  1.2138 -0.2877  0.7919
  805SOL     OW 2413   2.910   1.879   2.679  0.0888 -0.3719 -0.0249
  805SOL    HW1 2414   2.952   1.946   2.615  0.3018  0.0824  3.0642
  805SOL    HW2 2415   2.814   1.899   2.706  1.9539  0.4369 -1.6608
  806SOL     OW 2416   0.490   2.392   0.137 -0.0823 -0.1882  0.8959
  806SOL    HW1 2417   0.571   2.330   0.151 -0.9505  1.2742  2.4201
  806SOL    HW2 2418   0.492   2.467   0.204 -0.0291 -0.4916 -0.4197
  807SOL     OW 2419   2.248   1.725   2.743 -0.7437  0.3186  0.5054
  807SOL    HW1 2420   2.337   1.778   2.753 -2.8167  2.4889  0.8063
  807SOL    HW2 2421   2.181   1.743   2.817 -0.2093 -1.5928 -0.4347
  808SOL     OW 2422   1.261   1.895   1.202 -0.4301  0.0147 -0.4918
  808SOL    HW1 2423   1.163   1.925   1.184 -1.6731 -0.0191  2.0295
  808SOL    HW2 2424   1.319   1.975   1.234  1.4222 -0.5412 -0.5375
  809SOL     OW 2425   0.241   0.723   0.186 -0.2554  0.4804 -0.4232
  809SOL    HW1 2426   0.188   0.759   0.266  1.4168  0.7413 -0.5742
  809SOL    HW2 2427   0.328   0.684   0.209  0.1936  0.2149 -0.0347
  810SOL     OW 2428   1.025   1.323   0.009  1.1727  0.3464 -0.0199
  810SOL    HW1 2429   1.108   1.310   0.063 -1.7732  0.2590  0.0253
  810SOL    HW2 2430   0.994   1.408   0.045  0.7243 -1.1033 -0.3253
  811SOL     OW 2431   1.820   2.436   1.112  0.0084 -0.4562 -0.0765
  811SOL    HW1 2432   1.739   2.408   1.166 -1.5409 -2.6354 -1.1823
  811SOL    HW2 2433   1.882   2.486   1.174 -0.1508  1.3648  1.1534
  812SOL     OW 2434   1.358   2.905   1.400  0.8772  0.1943  0.2971
  812SOL    HW1 2435   1.370   2.818   1.456  1.1844 -0.2832 -0.9923
  812SOL    HW2 2436   1.264   2.917   1.365  2.7150 -0.5910 -1.4366
  813SOL     OW 2437   0.779   3.049   1.837 -0.0871 -0.1407  0.3239
  813SOL    HW1 2438   0.714   3.059   1.758 -2.4544 -0.6487 -0.2435
  813SOL    HW2 2439   0.725   3.008   1.913  0.4954  0.3593 -2.7979
  814SOL     OW 2440   1.066   2.486   2.135  0.4858  0.3495  0.2173
  814SOL    HW1 2441   1.060   2.486   2.235  1.0937  0.1643  3.2598
  814SOL    HW2 2442   1.041   2.575   2.090  0.1666  2.2591 -0.5994
  815SOL     OW 2443   0.486   2.875   3.075  0.1170  0.2757  0.2631
  815SOL    HW1 2444   0.494   2.783   3.034 -1.2249 -0.3793  0.6178
  815SOL    HW2 2445   0.397   2.914   3.051 -1.3405 -4.3991  1.2727
  816SOL     OW 2446   2.195   0.569   0.070  0.4239  0.2158 -0.0353
  816SOL    HW1 2447   2.193   0.470   0.090 -2.1921  3.4413 -0.5468
  816SOL    HW2 2448   2.265   0.621   0.122 -0.3815 -1.4139  1.8734
  817SOL     OW 2449   2.491   2.514   2.253  0.1821 -0.2332 -0.3186
  817SOL    HW1 2450   2.529   2.590   2.199  0.9945 -3.6552 -1.1723
  817SOL    HW2 2451   2.403   2.544   2.293  3.6113  0.4898  1.7453
  818SOL     OW 2452   1.003   0.968   0.417  0.1767 -0.0285 -0.1473
  818SOL    HW1 2453   1.014   0.883   0.360 -0.2111  1.6028  3.1762
  818SOL    HW2 2454   0.948   1.037   0.377  0.2753 -0.1458 -0.8599
  819SOL     OW 2455   1.841   1.167   2.839 -0.1888  0.0753 -0.3143
  819SOL    HW1 2456   1.827   1.233   2.762  0.7730  1.1053  2.6676
  819SOL    HW2 2457   1.930   1.198   2.890  1.9535  3.6131  2.3574
  820SOL     OW 2458   0.141   1.314   2.787 -0.8401 -0.1470 -0.2356
  820SOL    HW1 2459   0.087   1.393   2.761  1.1797 -2.1683  3.2623
  820SOL    HW2 2460   0.220   1.345   2.845  1.9605  1.1626 -0.1866
  821SOL     OW 2461   0.504   0.059   0.565 -0.1115 -0.3022  0.1455
  821SOL    HW1 2462   0.555   0.145   0.536  0.0390  2.2374 -1.5813
  821SOL    HW2 2463   0.523   3.079   0.500  0.2745  2.4312 -0.8511
  822SOL     OW 2464   2.583   2.716   2.963 -0.1171  0.6651  0.0570
  822SOL    HW1 2465   2.567   2.643   2.893 -3.6326  1.1340 -2.6862
  822SOL    HW2 2466   2.680   2.720   2.998 -0.6777 -0.2007 -1.8056
  823SOL     OW 2467   1.440   0.008   2.788  0.3103 -0.5174 -0.6157
  823SOL    HW1 2468   1.525   3.082   2.831 -0.3884  0.6386  0.0890
  823SOL    HW2 2469   1.446   0.106   2.762  1.4853 -2.0006  1.9976
  824SOL     OW 2470   2.805   2.430   2.008 -0.7099  0.0536 -0.2512
  824SOL    HW1 2471   2.779   2.509   1.951  2.0988  1.2791  1.0113
  824SOL    HW2 2472   2.780   2.458   2.103  1.3025  0.6704 -0.5789
  825SOL     OW 2473   2.985   2.078   2.489 -0.0475  0.2578  0.0375
  825SOL    HW1 2474   3.075   2.085   2.442 -2.0985  0.9195  1.2228
  825SOL    HW2 2475   2.910   2.076   2.421  1.7044 -1.4007 -1.4130
  826SOL     OW 2476   1.915   0.618   0.129  0.4543 -0.4191 -0.3054
  826SOL    HW1 2477   1.912   0.722   0.133 -0.4626 -1.2005  0.0990
  826SOL    HW2 2478   1.998   0.589   0.085 -0.2629  0.9564  1.5509
  827SOL     OW 2479   2.861   1.588   1.792  0.5073 -0.6698 -0.3615
  827SOL    HW1 2480   2.827   1.626   1.704 -0.2250  2.0767 -2.4282
  827SOL    HW2 2481   2.784   1.552   1.850  0.0731  1.0887  1.2973
  828SOL     OW 2482   3.067   0.028   1.253  0.3793 -0.3754  0.0379
  828SOL    HW1 2483   0.071   0.016   1.243  1.3934  0.8357  1.6810
  828SOL    HW2 2484   3.011   3.040   1.253 -0.8459  0.5693  0.2501
  829SOL     OW 2485   0.810   1.984   2.556 -0.0172  0.1460 -0.6879
  829SOL    HW1 2486   0.832   2.073   2.599 -2.1551  0.8167  0.0490
  829SOL    HW2 2487   0.707   1.977   2.538 -1.2510  1.0909  0.8274
  830SOL     OW 2488   0.500   0.842   1.455 -0.2361 -0.6522  0.1259
  830SOL    HW1 2489   0.569   0.841   1.525  0.1967  1.5482 -0.2496
  830SOL    HW2 2490   0.483   0.744   1.421  0.3402 -3.0605 -0.3350
  831SOL     OW 2491   2.498   1.830   2.796  0.1380  0.4316 -0.2886
  831SOL    HW1 2492   2.524   1.737   2.754  2.9097 -1.4880 -2.3879
  831SOL    HW2 2493   2.541   1.838   2.888  0.2176 -0.3528 -1.2591
  832SOL     OW 2494   2.032   2.487   0.015  0.5941  0.1626 -0.3976
  832SOL    HW1 2495   1.960   2.462   3.042  0.0386 -1.6827 -1.0943
  832SOL    HW2 2496   2.081   2.574   3.086 -0.1118 -0.2809 -0.1609
  833SOL     OW 2497   0.585   0.295   1.935 -0.3513  0.0636 -0.2617
  833SOL    HW1 2498   0.649   0.233   1.981  0.5342  1.1113 -0.4902
  833SOL    HW2 2499   0.508   0.333   1.990  2.0483 -0.4997  0.1064
  834SOL     OW 2500   2.987   0.271   1.412  0.5476  0.0404  0.2208
  834SOL    HW1 2501   3.004   0.221   1.326  0.6611  2.7642  1.6440
  834SOL    HW2 2502   2.898   0.322   1.403  0.6246 -0.0843  1.6097
  835SOL     OW 2503   2.455   0.517   0.504  0.4207 -0.0407 -0.1066
  835SOL    HW1 2504   2.400   0.435   0.478  1.5534 -0.8512 -0.7923
  835SOL    HW2 2505   2.519   0.509   0.582  0.6535  5.8047  0.5183
  836SOL     OW 2506   1.370   2.105   0.182 -0.4642  0.1986 -0.2839
  836SOL    HW1 2507   1.373   2.062   0.272 -1.4472 -2.0159 -0.4699
  836SOL    HW2 2508   1.318   2.191   0.187  1.8914 -2.8240 -0.0044
  837SOL     OW 2509   1.959   1.800   0.541  0.2064 -0.0552  0.2880
  837SOL    HW1 2510   2.000   1.708   0.563  1.2563  1.4459  2.5649
  837SOL    HW2 2511   1.993   1.873   0.601  0.7540  1.8662 -0.0964
  838SOL     OW 2512   1.571   0.673   2.352 -0.2896 -0.2343 -0.2256
  838SOL    HW1 2513   1.505   0.650   2.425 -0.1667  2.1679 -1.6419
  838SOL    HW2 2514   1.583   0.770   2.331  3.2813 -1.4753 -0.7642
  839SOL     OW 2515   0.558   1.448   2.396  0.2687  0.0687  0.1171
  839SOL    HW1 2516   0.599   1.389   2.472 -0.3567 -1.4839  2.5315
  839SOL    HW2 2517   0.613   1.454   2.310 -1.9904 -1.3933 -2.3011
  840SOL     OW 2518   1.022   1.347   0.355 -0.2859  0.0993  0.5986
  840SOL    HW1 2519   1.005   1.417   0.283  1.8383 -0.1406  0.9220
  840SOL    HW2 2520   0.953   1.272   0.350  1.2071  0.4227 -1.3270
  841SOL     OW 2521   1.655   2.233   0.794 -0.1473  0.7214 -0.5860
  841SOL    HW1 2522   1.613   2.299   0.862  0.7531 -1.0520 -0.3374
  841SOL    HW2 2523   1.753   2.209   0.814 -3.0653  0.6149 -1.7661
  842SOL     OW 2524   0.483   0.558   2.984  0.2617  0.2133  0.8340
  842SOL    HW1 2525   0.395   0.588   2.949 -2.0568 -1.0094  2.2473
  842SOL    HW2 2526   0.467   0.487   3.056  1.7450  4.6628 -0.6456
  843SOL     OW 2527   0.728   0.234   0.768  0.2478  0.0288 -0.2727
  843SOL    HW1 2528   0.825   0.264   0.797 -0.6046 -1.0518  3.0413
  843SOL    HW2 2529   0.698   0.262   0.675 -0.4233  0.0345  1.8623
  844SOL     OW 2530   1.894   0.065   2.441 -0.5652 -0.7315  0.0665
  844SOL    HW1 2531   1.871   3.069   2.477 -1.6750  0.9937 -2.8422
  844SOL    HW2 2532   1.931   0.061   2.350 -0.4607 -1.3204  3.7858
  845SOL     OW 2533   0.103   2.363   1.737 -0.0402 -0.1799  0.9083
  845SOL    HW1 2534   0.049   2.329   1.823 -2.9835 -0.7407  2.9636
  845SOL    HW2 2535   0.042   2.404   1.661 -0.1643 -0.5632  1.4096
  846SOL     OW 2536   1.871   1.338   2.602 -0.3577  0.3416 -0.4357
  846SOL    HW1 2537   1.947   1.393   2.636  1.8268  2.5861  0.4896
  846SOL    HW2 2538   1.875   1.329   2.498 -0.2374 -1.2231  0.0184
  847SOL     OW 2539   0.603   0.769   2.113  0.6555  0.3858 -0.4426
  847SOL    HW1 2540   0.569   0.768   2.017  3.0352 -0.9846  0.5132
  847SOL    HW2 2541   0.637   0.676   2.133  1.0051 -0.5893 -0.9146
  848SOL     OW 2542   2.524   2.919   2.800 -0.0521 -0.4146  0.1088
  848SOL    HW1 2543   2.545   2.847   2.868  0.1261 -2.2520 -0.6779
  848SOL    HW2 2544   2.576   3.003   2.806 -0.7031 -0.1072 -0.1514
  849SOL     OW 2545   0.452   2.617   0.302  0.3161 -0.6205 -0.0461
  849SOL    HW1 2546   0.351   2.632   0.282 -2.6787  1.7703 -1.4602
  849SOL    HW2 2547   0.509   2.673   0.236  0.2508  0.2047 -0.4604
  850SOL     OW 2548   1.002   2.428   0.693 -0.1012 -0.2604  0.3403
  850SOL    HW1 2549   1.034   2.437   0.788  0.7911  0.1203 -0.1106
  850SOL    HW2 2550   1.085   2.416   0.636 -2.2681 -1.5470 -0.8845
  851SOL     OW 2551   1.904   0.404   2.640  0.2758  0.1206  0.1907
  851SOL    HW1 2552   1.968   0.325   2.632 -5.8968  2.4232  0.3805
  851SOL    HW2 2553   1.913   0.455   2.556  2.0287 -2.5584  2.8629
  852SOL     OW 2554   1.383   0.033   2.504 -0.1370  0.0121  0.0017
  852SOL    HW1 2555   1.477   0.071   2.483  2.0579  0.4863  1.2288
  852SOL    HW2 2556   1.387   3.080   2.588  1.6131  0.8621 -2.9565
  853SOL     OW 2557   3.000   2.552   0.419 -0.8429 -0.5890  0.0969
  853SOL    HW1 2558   3.021   2.468   0.477  1.0769 -1.8722 -0.3264
  853SOL    HW2 2559   3.070   2.627   0.430  2.0790 -0.6118 -3.2923
  854SOL     OW 2560   1.988   0.608   2.424 -0.2986 -0.1167 -0.5052
  854SOL    HW1 2561   1.991   0.670   2.504  0.4034  1.1745 -2.8921
  854SOL    HW2 2562   2.082   0.588   2.394 -2.5537  1.7073  0.0631
  855SOL     OW 2563   0.400   2.433   0.499 -0.9111 -0.4591  0.2220
  855SOL    HW1 2564   0.331   2.482   0.566 -3.4263  2.4570 -0.3341
  855SOL    HW2 2565   0.446   2.496   0.433 -0.6479 -0.4591  0.0952
  856SOL     OW 2566   0.249   3.015   2.693 -0.0047 -0.6891  0.3058
  856SOL    HW1 2567   0.231   0.013   2.663  1.1361 -0.1914 -0.2530
  856SOL    HW2 2568   0.192   3.000   2.776  0.1097 -0.8737  0.1232
  857SOL     OW 2569   0.965   2.955   1.598 -0.5637  0.4580 -0.6026
  857SOL    HW1 2570   1.031   2.903   1.653  0.4646 -2.0922  0.2411
  857SOL    HW2 2571   0.879   2.965   1.646 -0.5944  1.2479 -0.0521
  858SOL     OW 2572   2.668   2.077   1.768  0.5706  0.1533  0.0893
  858SOL    HW1 2573   2.752   2.022   1.746 -2.1565 -0.2237  0.7095
  858SOL    HW2 2574   2.585   2.015   1.766 -3.1477 -1.5961  3.1819
  859SOL     OW 2575   1.860   2.305   1.926 -0.7377  0.5222  0.4656
  859SOL    HW1 2576   1.762   2.278   1.935 -1.8072 -0.6211 -2.0999
  859SOL    HW2 2577   1.909   2.216   1.924 -1.0108 -1.5192 -0.5204
  860SOL     OW 2578   1.698   0.590   0.343  0.1619  0.4783 -0.2806
  860SOL    HW1 2579   1.742   0.681   0.344 -1.7217  0.2695 -0.1059
  860SOL    HW2 2580   1.728   0.531   0.270 -0.0831  1.2724 -1.1285
  861SOL     OW 2581   2.681   0.416   0.663 -0.5312  0.0791 -0.5896
  861SOL    HW1 2582   2.769   0.471   0.646  0.9705 -0.7260 -1.1885
  861SOL    HW2 2583   2.705   0.328   0.706 -1.2426  3.3081  0.7416
  862SOL     OW 2584   1.146   3.010   2.374  0.1771  0.1141 -0.3353
  862SOL    HW1 2585   1.231   3.059   2.412  1.8368 -1.1347  2.0785
  862SOL    HW2 2586   1.115   2.936   2.441  1.9360 -0.3945  0.0196
  863SOL     OW 2587   0.517   0.762   1.157  0.5365 -0.8289 -0.1375
  863SOL    HW1 2588   0.479   0.695   1.221  0.3692  1.1154 -0.1439
  863SOL    HW2 2589   0.522   0.852   1.196  0.0024  1.3040 -0.5601
  864SOL     OW 2590   2.771   0.085   1.935 -0.4646 -0.1817  0.1575
  864SOL    HW1 2591   2.755   0.065   1.836  2.2795  0.9245 -0.8838
  864SOL    HW2 2592   2.729   0.016   2.000  1.9972 -1.9433  0.0615
  865SOL     OW 2593   0.708   1.430   2.897 -0.2914 -0.1854  0.4812
  865SOL    HW1 2594   0.708   1.463   2.993  0.5517  0.6309 -0.3674
  865SOL    HW2 2595   0.646   1.351   2.886  1.4124  0.7872  1.0705
  866SOL     OW 2596   3.078   0.039   0.131 -1.1036  0.6494  0.5065
  866SOL    HW1 2597   3.087   0.134   0.108 -2.5314  0.4676 -0.2240
  866SOL    HW2 2598   0.074   0.006   0.157 -3.2099  1.6733 -3.2069
  867SOL     OW 2599   2.802   2.867   2.661  0.2249  0.6469  0.3132
  867SOL    HW1 2600   2.744   2.787   2.686 -0.2134  0.6335  1.6098
  867SOL    HW2 2601   2.898   2.839   2.657  1.4330  0.3439  0.7170
  868SOL     OW 2602   1.452   1.159   3.052 -0.1125 -0.2541 -0.1628
  868SOL    HW1 2603   1.535   1.109   3.022  1.8914 -2.2057 -2.8128
  868SOL    HW2 2604   1.368   1.112   3.016 -0.0156  1.3196 -1.1179
  869SOL     OW 2605   0.392   1.647   0.480 -0.1856  0.3678  0.0178
  869SOL    HW1 2606   0.435   1.684   0.566  2.3133  2.3425 -0.3858
  869SOL    HW2 2607   0.297   1.610   0.500  2.1229  0.1742  1.3803
  870SOL     OW 2608   2.296   1.769   0.695 -0.0080 -0.1765 -0.2940
  870SOL    HW1 2609   2.309   1.863   0.668  1.8120 -0.9620 -0.1346
  870SOL    HW2 2610   2.312   1.703   0.619 -1.3312 -1.0178 -1.3630
  871SOL     OW 2611   0.943   1.116   0.991  0.1820 -0.0395  0.1319
  871SOL    HW1 2612   0.955   1.155   0.898 -1.5696 -3.1306  0.6469
  871SOL    HW2 2613   0.841   1.097   1.004 -1.6550 -0.8606  2.2220
  872SOL     OW 2614   1.439   1.628   2.035 -0.7005 -0.1242 -0.3291
  872SOL    HW1 2615   1.421   1.623   1.933 -0.7585 -0.4948 -0.3817
  872SOL    HW2 2616   1.419   1.721   2.063 -0.6540 -0.9637  0.9556
  873SOL     OW 2617   0.963   1.908   2.333 -0.2461  0.3075 -0.1449
  873SOL    HW1 2618   0.901   1.910   2.413 -1.7991  1.4575 -1.3867
  873SOL    HW2 2619   1.001   1.999   2.313 -0.3244  0.1731  0.0829
  874SOL     OW 2620   0.868   2.161   0.984 -0.2892 -0.2657  0.2757
  874SOL    HW1 2621   0.965   2.145   0.993 -0.2846  1.5327 -3.8936
  874SOL    HW2 2622   0.816   2.071   0.989 -1.9456  1.1029  0.7458
  875SOL     OW 2623   2.674   0.180   0.834  0.7446 -0.1532 -0.0771
  875SOL    HW1 2624   2.570   0.165   0.821  0.4923 -3.1673 -0.5139
  875SOL    HW2 2625   2.697   0.157   0.932  1.6676 -3.3959  3.2786
  876SOL     OW 2626   0.824   0.597   0.244  0.3510 -0.1978  0.5693
  876SOL    HW1 2627   0.760   0.608   0.321  2.4424  2.7765 -1.5861
  876SOL    HW2 2628   0.910   0.643   0.268 -1.2616  0.1038 -3.2224
  877SOL     OW 2629   2.618   0.575   1.250  0.0168  0.3756  0.2495
  877SOL    HW1 2630   2.545   0.548   1.185 -2.2068 -0.8271  0.7860
  877SOL    HW2 2631   2.701   0.609   1.197  0.2886  0.5595 -0.3100
  878SOL     OW 2632   2.269   2.417   0.953 -0.2258  0.2307  0.1613
  878SOL    HW1 2633   2.218   2.433   1.041  0.1183  0.3600  0.5461
  878SOL    HW2 2634   2.261   2.318   0.933  0.3523 -3.5251  0.0747
  879SOL     OW 2635   2.492   1.688   1.557 -0.0124  0.4262 -0.4044
  879SOL    HW1 2636   2.498   1.767   1.500  0.0444 -0.5541  1.5543
  879SOL    HW2 2637   2.434   1.624   1.518  0.2034  0.1396  1.0070
  880SOL     OW 2638   1.418   2.539   1.102  0.7053  0.1071 -0.1708
  880SOL    HW1 2639   1.442   2.629   1.142  1.4975  0.4804 -1.5754
  880SOL    HW2 2640   1.318   2.520   1.118  2.3182  0.0142 -0.8914
  881SOL     OW 2641   0.909   2.529   0.183  0.1427 -0.6021 -0.6262
  881SOL    HW1 2642   0.892   2.524   0.285 -0.9990 -0.5420 -0.4666
  881SOL    HW2 2643   0.863   2.455   0.139 -2.1403 -0.5283  1.6582
  882SOL     OW 2644   1.796   1.139   1.600  0.3662 -0.4412 -0.3467
  882SOL    HW1 2645   1.801   1.034   1.600 -0.2977 -2.3463 -0.7412
  882SOL    HW2 2646   1.705   1.172   1.634 -1.7193 -0.0763  0.1001
  883SOL     OW 2647   1.235   0.065   1.994 -0.2394  0.0907  0.5719
  883SOL    HW1 2648   1.261   0.103   2.087  1.0708 -0.2835  0.7306
  883SOL    HW2 2649   1.313   0.012   1.956 -0.3497 -0.8649  2.8337
  884SOL     OW 2650   2.643   0.566   0.289  0.4175  0.7448  0.1237
  884SOL    HW1 2651   2.693   0.654   0.297  0.9028 -1.9962 -0.1031
  884SOL    HW2 2652   2.560   0.567   0.348 -2.2755 -2.0745 -1.6443
  885SOL     OW 2653   0.984   1.362   2.849  0.1730  0.4837  0.5896
  885SOL    HW1 2654   1.019   1.352   2.942 -1.7608  2.6813 -4.8623
  885SOL    HW2 2655   0.885   1.397   2.853 -4.7674  0.2960 -1.3323
  886SOL     OW 2656   1.642   1.488   2.781  0.7193  0.8915  0.2141
  886SOL    HW1 2657   1.735   1.466   2.742  3.2293  1.3930  0.0002
  886SOL    HW2 2658   1.623   1.422   2.856 -0.8671  2.1503 -0.8904
  887SOL     OW 2659   1.085   0.480   1.659 -0.0013  0.0040  0.0247
  887SOL    HW1 2660   1.025   0.410   1.704  2.0682 -1.3511  3.5546
  887SOL    HW2 2661   1.140   0.521   1.732 -3.4061  0.5012 -1.9886
  888SOL     OW 2662   2.540   0.722   1.828  0.0504  0.0318  0.2728
  888SOL    HW1 2663   2.512   0.625   1.833 -1.5407 -2.5583  3.3830
  888SOL    HW2 2664   2.541   0.753   1.733 -0.9909  0.9185  1.0630
  889SOL     OW 2665   0.258   2.809   0.655  0.3031  0.1233  0.5435
  889SOL    HW1 2666   0.252   2.708   0.660  0.4503 -0.3119 -0.1276
  889SOL    HW2 2667   0.338   2.841   0.600 -1.7159  1.5127  1.8148
  890SOL     OW 2668   2.883   2.191   0.245  0.2518  0.4905 -0.6930
  890SOL    HW1 2669   2.856   2.175   0.343 -2.2242  1.6359  1.7304
  890SOL    HW2 2670   2.982   2.172   0.229  1.3344 -1.9091  0.4313
  891SOL     OW 2671   0.966   1.659   2.940 -0.0212  0.0639  0.2392
  891SOL    HW1 2672   0.966   1.697   2.846 -2.6589  1.0258 -1.1559
  891SOL    HW2 2673   1.059   1.667   2.979 -0.7199 -1.3981  0.2056
  892SOL     OW 2674   2.978   2.935   0.837 -0.0503 -0.0871 -0.1821
  892SOL    HW1 2675   2.916   2.999   0.884  0.8666 -0.3468 -0.7560
  892SOL    HW2 2676   2.981   2.843   0.887  1.9684  0.8316 -1.8986
  893SOL     OW 2677   1.066   2.924   1.338  0.1131  0.0222  0.3745
  893SOL    HW1 2678   1.016   2.928   1.433 -0.3270 -1.3100  3.4214
  893SOL    HW2 2679   1.016   2.975   1.269  1.3244  2.2355  2.2730
  894SOL     OW 2680   2.896   0.994   0.644  0.3234  0.3257  0.2385
  894SOL    HW1 2681   2.914   0.916   0.582 -0.2241 -0.2366 -1.6214
  894SOL    HW2 2682   2.799   0.999   0.674 -0.7968 -3.4688 -2.1652
  895SOL     OW 2683   2.274   2.638   1.977 -0.1156  0.4207 -0.0374
  895SOL    HW1 2684   2.198   2.604   2.031  3.0776 -1.5606 -0.8825
  895SOL    HW2 2685   2.317   2.725   2.019  1.8609  2.7025  0.0079
  896SOL     OW 2686   1.107   0.101   1.527  0.1086 -0.2086 -0.6735
  896SOL    HW1 2687   1.051   0.013   1.531 -0.6314 -3.7785  0.0103
  896SOL    HW2 2688   1.111   0.146   1.621 -0.8905  2.3611  3.4128
  897SOL     OW 2689   1.037   1.775   1.854 -0.1252  0.1173 -0.1863
  897SOL    HW1 2690   1.096   1.708   1.900  1.2095 -1.1821 -0.2225
  897SOL    HW2 2691   1.083   1.862   1.836 -2.4528 -1.4775  0.2427
  898SOL     OW 2692   1.848   2.739   1.931  0.2317  0.6715 -0.4484
  898SOL    HW1 2693   1.851   2.765   1.828  0.8509  3.0807 -0.6618
  898SOL    HW2 2694   1.932   2.767   1.975  0.7688 -2.7841 -0.6232
  899SOL     OW 2695   1.009   0.544   1.012  0.7724  0.0841  0.0315
  899SOL    HW1 2696   1.037   0.497   1.098 -2.1714 -2.0851  3.0035
  899SOL    HW2 2697   0.951   0.620   1.041  1.8256  0.0233 -0.3122
  900SOL     OW 2698   1.808   2.468   2.617  0.1741  0.0152 -0.2778
  900SOL    HW1 2699   1.724   2.410   2.624 -0.0210  2.4073 -2.0717
  900SOL    HW2 2700   1.890   2.412   2.589  2.3137  0.5417 -1.4490
  901SOL     OW 2701   0.869   2.211   2.670 -0.2847  0.2239  0.4379
  901SOL    HW1 2702   0.929   2.258   2.734  3.4287  3.0421 -1.2557
  901SOL    HW2 2703   0.826   2.277   2.609 -0.5428 -1.9022  0.9541
  902SOL     OW 2704   2.327   1.289   0.499 -0.5104  0.0416  0.3802
  902SOL    HW1 2705   2.318   1.364   0.424 -0.5814  1.1700 -1.7831
  902SOL    HW2 2706   2.240   1.256   0.536  1.9748  0.2195  0.7040
  903SOL     OW 2707   1.976   0.985   0.434 -0.0823 -0.2344  0.1909
  903SOL    HW1 2708   1.885   0.947   0.404  2.2675  0.3329  1.2392
  903SOL    HW2 2709   2.038   0.993   0.357 -0.7462  0.2905  3.3719
  904SOL     OW 2710   0.788   0.930   2.782 -0.7227 -0.3875  0.0284
  904SOL    HW1 2711   0.689   0.953   2.793  2.6196  0.6728 -1.9833
  904SOL    HW2 2712   0.847   1.010   2.760 -2.9529 -0.0021 -0.3216
  905SOL     OW 2713   2.021   0.247   0.847  0.3922 -0.4906  0.5685
  905SOL    HW1 2714   1.932   0.223   0.802 -2.3762  0.9368  0.7506
  905SOL    HW2 2715   2.101   0.265   0.778  0.2182  0.1448  0.0276
  906SOL     OW 2716   2.754   2.339   1.561 -0.4646  0.2194  0.4269
  906SOL    HW1 2717   2.734   2.331   1.661 -2.1179  1.6193 -0.5349
  906SOL    HW2 2718   2.747   2.431   1.527  2.8834 -5.1191  1.9881
  907SOL     OW 2719   1.046   0.766   0.264  0.4082  0.3993 -0.1379
  907SOL    HW1 2720   1.145   0.749   0.279  1.9174  2.7304 -0.7166
  907SOL    HW2 2721   1.034   0.775   0.161 -2.5054 -2.2778  1.9720
  908SOL     OW 2722   2.006   2.984   1.415  0.3078  0.6842  0.2102
  908SOL    HW1 2723   2.105   2.977   1.388  1.7828  0.9488  0.9662
  908SOL    HW2 2724   1.948   3.017   1.334 -0.2445  2.0551 -0.6512
  909SOL     OW 2725   2.273   0.778   1.249 -0.2208  0.3832 -0.0685
  909SOL    HW1 2726   2.272   0.787   1.349  0.1787  0.4748  0.5453
  909SOL    HW2 2727   2.268   0.868   1.201 -2.0917 -0.1150  1.6987
  910SOL     OW 2728   1.288   2.768   1.964  0.6859 -0.4867  0.5510
  910SOL    HW1 2729   1.370   2.829   1.964 -1.1798 -0.5292  0.5872
  910SOL    HW2 2730   1.216   2.804   2.027 -0.2655 -0.9545  0.7928
  911SOL     OW 2731   2.566   0.422   2.331 -0.1535 -0.2861  0.8132
  911SOL    HW1 2732   2.645   0.481   2.340 -1.1620 -0.4013 -0.2630
  911SOL    HW2 2733   2.477   0.472   2.338  0.3673 -2.0091 -0.5871
  912SOL     OW 2734   2.835   1.400   1.507 -0.3122  0.8359 -0.4453
  912SOL    HW1 2735   2.834   1.497   1.538 -0.2077 -1.6912 -0.9719
  912SOL    HW2 2736   2.908   1.348   1.561  4.6930 -0.7640  0.5409
  913SOL     OW 2737   2.881   1.909   1.675  0.3658  0.1169 -0.0428
  913SOL    HW1 2738   2.833   1.819   1.657  1.3367  1.9803 -1.2611
  913SOL    HW2 2739   2.983   1.891   1.696  0.9075 -2.4170  0.4556
  914SOL     OW 2740   1.895   1.112   1.251 -0.3817 -0.5250 -0.2941
  914SOL    HW1 2741   1.903   1.009   1.247  2.3410  1.1282 -2.5242
  914SOL    HW2 2742   1.891   1.152   1.343  1.6761 -1.5875  3.6044
  915SOL     OW 2743   1.285   0.774   1.452  0.0022  0.4308  0.1361
  915SOL    HW1 2744   1.301   0.673   1.471  0.4594 -0.0150 -2.0307
  915SOL    HW2 2745   1.311   0.801   1.356  3.7831  2.0445 -0.9067
  916SOL     OW 2746   2.751   2.609   1.447 -0.4239  0.2294  0.2688
  916SOL    HW1 2747   2.679   2.659   1.396  0.2128 -1.7943  1.0187
  916SOL    HW2 2748   2.790   2.669   1.520  1.0767  1.0915  0.5724
  917SOL     OW 2749   2.410   2.020   0.249  0.0797  0.1377 -0.3600
  917SOL    HW1 2750   2.345   1.995   0.180  2.6055 -0.5060  0.2468
  917SOL    HW2 2751   2.434   2.120   0.250 -0.6415 -1.0351  0.8303
  918SOL     OW 2752   1.927   2.725   2.592  0.1004  0.3352 -0.2500
  918SOL    HW1 2753   1.938   2.741   2.491  2.6298 -1.3911  1.1899
  918SOL    HW2 2754   1.856   2.648   2.613 -0.6646 -3.2594 -1.5629
  919SOL     OW 2755   1.398   2.098   1.315  0.2573  0.3141  0.5300
  919SOL    HW1 2756   1.435   2.099   1.409 -0.7337 -0.9617 -0.4248
  919SOL    HW2 2757   1.303   2.140   1.316 -1.6806  0.4304  2.1643
  920SOL     OW 2758   0.006   0.304   2.242 -0.8842  0.6598  0.0874
  920SOL    HW1 2759   3.071   0.273   2.331  1.7224  0.8877 -1.1684
  920SOL    HW2 2760   3.046   0.289   2.162 -1.0832 -0.2265 -0.5360
  921SOL     OW 2761   2.912   0.829   1.915 -0.3079 -0.1613 -0.2982
  921SOL    HW1 2762   2.976   0.754   1.920  1.1546  3.2156 -0.6874
  921SOL    HW2 2763   2.843   0.835   1.988 -2.0506  0.3893 -3.2572
  922SOL     OW 2764   2.049   2.028   0.681  0.1920 -0.2848  0.5983
  922SOL    HW1 2765   2.019   2.127   0.695  0.4465 -0.0865 -0.3355
  922SOL    HW2 2766   2.124   2.031   0.609  2.8426 -0.4029 -0.3070
  923SOL     OW 2767   0.832   2.036   2.876  0.2216 -0.0363  0.6965
  923SOL    HW1 2768   0.872   2.075   2.789  0.5591  0.1000 -1.0457
  923SOL    HW2 2769   0.741   2.074   2.901 -0.1666 -1.6607  0.5494
  924SOL     OW 2770   1.036   0.327   0.364 -0.1446 -0.8207  0.0255
  924SOL    HW1 2771   0.952   0.315   0.308  0.8873 -0.7072  1.0542
  924SOL    HW2 2772   1.118   0.349   0.311  0.7103 -1.5091  0.0393
  925SOL     OW 2773   2.433   0.864   0.489 -0.4973  0.5200  0.3497
  925SOL    HW1 2774   2.378   0.902   0.564 -1.0475  1.4768 -2.3931
  925SOL    HW2 2775   2.463   0.771   0.514 -1.7619  1.6001  0.6691
  926SOL     OW 2776   3.065   0.815   0.984 -0.2508 -0.3240  0.2605
  926SOL    HW1 2777   3.078   0.915   0.965 -0.4457  0.1133  0.6697
  926SOL    HW2 2778   3.019   0.815   1.075  1.4675  1.3680  1.1318
  927SOL     OW 2779   0.011   1.225   2.996  0.0136 -0.2315  0.1561
  927SOL    HW1 2780   0.069   1.241   2.911  2.7307  0.9304 -0.9428
  927SOL    HW2 2781   3.093   1.314   3.042 -3.2751 -2.3745 -1.0251
  928SOL     OW 2782   2.787   0.585   2.353 -0.5955 -0.2799 -0.4572
  928SOL    HW1 2783   2.845   0.650   2.408  2.6620  0.5419  0.9590
  928SOL    HW2 2784   2.817   0.580   2.253  0.6038  0.0977  0.6578
  929SOL     OW 2785   2.912   2.892   1.228 -0.0490 -0.1740  0.7740
  929SOL    HW1 2786   2.848   2.928   1.293  1.5900 -0.6653 -3.5396
  929SOL    HW2 2787   2.891   2.799   1.193 -0.3989 -0.5323 -1.6262
  930SOL     OW 2788   2.029   1.269   1.591  0.9499 -0.2750  0.3198
  930SOL    HW1 2789   1.939   1.219   1.586 -0.2754  2.1247  0.1759
  930SOL    HW2 2790   2.011   1.362   1.634  1.6557  0.9429 -1.2351
  931SOL     OW 2791   1.558   1.284   0.527 -0.4509 -0.1615  0.0383
  931SOL    HW1 2792   1.555   1.256   0.427  0.1187 -0.6811  1.1458
  931SOL    HW2 2793   1.549   1.383   0.548 -0.9040  1.3478  0.4873
  932SOL     OW 2794   2.867   1.220   0.858  0.0024 -0.2612  0.2711
  932SOL    HW1 2795   2.845   1.292   0.788 -1.4743 -0.6071  0.3301
  932SOL    HW2 2796   2.785   1.166   0.882 -0.6505  1.4944 -1.0045
  933SOL     OW 2797   2.541   1.863   1.356  0.6593 -0.6625  0.3829
  933SOL    HW1 2798   2.550   1.876   1.254  1.1197 -2.2169  0.8849
  933SOL    HW2 2799   2.571   1.945   1.410 -1.9946  1.6551 -0.4549
  934SOL     OW 2800   1.755   0.166   2.023 -0.1977  0.3105 -0.9216
  934SOL    HW1 2801   1.698   0.211   2.098 -2.5890 -1.3226 -0.8225
  934SOL    HW2 2802   1.764   0.231   1.950 -0.9054 -2.1282  0.9820
  935SOL     OW 2803   0.209   1.417   0.857 -0.1792 -0.1537  0.0314
  935SOL    HW1 2804   0.187   1.430   0.757 -1.3366  0.9963 -0.2085
  935SOL    HW2 2805   0.197   1.505   0.914  1.1314  2.0180  2.1832
  936SOL     OW 2806   0.450   0.885   0.577 -0.3719 -0.4213 -0.1124
  936SOL    HW1 2807   0.358   0.886   0.609  0.7128  1.6086 -2.4702
  936SOL    HW2 2808   0.453   0.927   0.485  0.6970  0.4666  0.1974
  937SOL     OW 2809   2.262   3.005   1.018  0.1163 -0.0079  0.3699
  937SOL    HW1 2810   2.237   2.915   1.060 -1.6308 -0.9196 -0.7764
  937SOL    HW2 2811   2.255   3.003   0.919 -3.7115  1.4073  0.2278
  938SOL     OW 2812   2.530   2.078   0.490 -0.4745 -0.0456 -0.3262
  938SOL    HW1 2813   2.571   1.998   0.439  1.1642  1.5948  0.5360
  938SOL    HW2 2814   2.532   2.160   0.433  0.0518  1.3629  3.6055
  939SOL     OW 2815   0.797   1.993   0.552  0.6681 -0.0583  0.6238
  939SOL    HW1 2816   0.772   1.899   0.574  0.5261  2.8449 -1.7070
  939SOL    HW2 2817   0.883   2.016   0.598  1.6875  1.2141 -0.4525
  940SOL     OW 2818   2.807   3.066   2.832 -0.3822 -0.5727  0.3311
  940SOL    HW1 2819   2.821   3.002   2.760 -1.3809  3.3684  1.6671
  940SOL    HW2 2820   2.729   0.034   2.819 -1.6586 -0.5993 -0.0817
  941SOL     OW 2821   1.336   0.300   2.980 -0.2363 -0.2797 -0.1321
  941SOL    HW1 2822   1.251   0.243   2.961  1.0540 -2.7424 -0.7228
  941SOL    HW2 2823   1.307   0.387   3.026 -0.9974  0.8276 -0.3106
  942SOL     OW 2824   1.267   1.016   1.207 -0.3812 -0.1572 -0.0278
  942SOL    HW1 2825   1.227   1.098   1.258 -1.5217  0.4521  0.7266
  942SOL    HW2 2826   1.218   0.995   1.124  5.5135 -0.9826  1.7346
  943SOL     OW 2827   1.531   1.201   1.717  0.1607  0.0927 -0.2732
  943SOL    HW1 2828   1.582   1.146   1.784 -1.9299  2.1664  0.6496
  943SOL    HW2 2829   1.454   1.143   1.677 -1.1460  1.0041 -0.9195
  944SOL     OW 2830   1.483   0.889   1.877  0.1553  0.6432 -0.7556
  944SOL    HW1 2831   1.506   0.983   1.910  1.6309 -0.0013  0.8528
  944SOL    HW2 2832   1.533   0.822   1.940  0.7604 -0.1719  1.1180
  945SOL     OW 2833   2.980   2.957   0.355  0.4350  0.5052  0.1699
  945SOL    HW1 2834   2.878   2.932   0.352 -0.1740 -2.2499  1.9568
  945SOL    HW2 2835   3.009   3.033   0.297 -0.8796 -2.2301  0.5126
  946SOL     OW 2836   2.762   0.454   1.671  0.0454 -0.0619 -0.3776
  946SOL    HW1 2837   2.771   0.426   1.573  0.5610 -0.4239 -1.1257
  946SOL    HW2 2838   2.731   0.549   1.678 -1.1261  1.3007 -1.3513
  947SOL     OW 2839   0.488   2.878   0.495 -0.5834 -0.1593 -0.2632
  947SOL    HW1 2840   0.548   2.877   0.580  0.9285 -0.8096  3.7509
  947SOL    HW2 2841   0.526   2.817   0.422  0.6301  1.1487 -0.2094
  948SOL     OW 2842   2.167   1.093   1.767  0.1435  0.1293 -0.2060
  948SOL    HW1 2843   2.218   1.173   1.810  1.0614  1.1800 -1.8838
  948SOL    HW2 2844   2.117   1.125   1.688 -0.8708  2.0862  0.6812
  949SOL     OW 2845   0.503   1.001   2.744 -0.5758 -0.2429 -0.1388
  949SOL    HW1 2846   0.526   0.997   2.643  0.3459  1.3229  0.5899
  949SOL    HW2 2847   0.411   0.959   2.765 -3.7295  0.7963  0.6678
  950SOL     OW 2848   0.871   0.227   1.075 -0.1148  0.2449 -0.6634
  950SOL    HW1 2849   0.914   0.139   1.093  1.5816 -2.5212  2.1361
  950SOL    HW2 2850   0.922   0.273   0.997 -0.0890  0.1967 -1.1793
  951SOL     OW 2851   0.944   1.627   2.238 -0.5401  0.3034 -0.6594
  951SOL    HW1 2852   0.907   1.717   2.212 -2.4619  0.0654  0.3157
  951SOL    HW2 2853   1.043   1.610   2.215  4.6424 -3.3844  1.3904
  952SOL     OW 2854   0.949   1.576   0.099  0.4548 -0.3841  0.2302
  952SOL    HW1 2855   0.917   1.617   0.011 -0.5590  3.0854 -0.5899
  952SOL    HW2 2856   0.902   1.623   0.176 -1.3512 -2.8128 -1.0334
  953SOL     OW 2857   2.317   3.091   2.532 -0.4016 -0.3713  0.7942
  953SOL    HW1 2858   2.255   0.063   2.570 -0.1748  0.1499  0.7767
  953SOL    HW2 2859   2.402   0.036   2.490  4.1172 -1.1365 -0.9575
  954SOL     OW 2860   1.725   1.099   0.684 -0.1905  0.4360  0.4052
  954SOL    HW1 2861   1.749   1.014   0.636  0.3655  0.3701 -2.7463
  954SOL    HW2 2862   1.664   1.145   0.617  0.8681  3.0792  0.8837
  955SOL     OW 2863   0.309   2.305   2.237 -0.2653  0.0472 -0.4935
  955SOL    HW1 2864   0.345   2.284   2.145  0.1202 -1.6281  3.1574
  955SOL    HW2 2865   0.235   2.376   2.235 -0.6664 -2.2874 -0.6852
  956SOL     OW 2866   1.505   0.636   1.783 -0.7280  0.1578 -0.4613
  956SOL    HW1 2867   1.495   0.737   1.801 -2.8606 -1.6147 -1.5473
  956SOL    HW2 2868   1.593   0.610   1.734  0.6904 -3.3869 -1.4077
  957SOL     OW 2869   1.691   1.980   2.853 -0.1114 -0.2377  0.3213
  957SOL    HW1 2870   1.689   1.890   2.899 -0.4723  3.8884 -1.8276
  957SOL    HW2 2871   1.757   2.042   2.896 -0.9412  0.7047 -1.2604
  958SOL     OW 2872   1.074   2.405   1.724  0.4017 -0.6923  0.1786
  958SOL    HW1 2873   1.034   2.365   1.813 -1.8539 -4.1735  3.8909
  958SOL    HW2 2874   1.045   2.359   1.639  1.9852 -1.7599  2.7545
  959SOL     OW 2875   2.066   2.326   2.862  0.1076 -0.1939 -0.4949
  959SOL    HW1 2876   2.089   2.420   2.831  0.4762  0.9563  2.0121
  959SOL    HW2 2877   2.094   2.319   2.955  3.8621  2.5818 -2.7837
  960SOL     OW 2878   3.031   0.580   2.626  0.5117 -0.1211 -0.2669
  960SOL    HW1 2879   3.031   0.649   2.555 -2.3811 -2.5949  1.9698
  960SOL    HW2 2880   0.027   0.537   2.635  0.6136  0.6134  1.8029
  961SOL     OW 2881   0.808   0.813   2.402  0.0138  0.4501  0.4415
  961SOL    HW1 2882   0.749   0.744   2.450 -0.4581 -2.2223 -0.5184
  961SOL    HW2 2883   0.895   0.778   2.365 -0.4482  1.1030  0.3251
  962SOL     OW 2884   0.728   1.305   2.547  0.3433 -0.2369 -0.2614
  962SOL    HW1 2885   0.668   1.276   2.624 -1.5661 -0.1854 -1.5255
  962SOL    HW2 2886   0.781   1.227   2.511 -1.0899 -0.4197  1.9175
  963SOL     OW 2887   2.551   2.272   0.306  0.1980  0.0710 -0.0623
  963SOL    HW1 2888   2.594   2.336   0.237 -0.4310 -0.3823  0.6726
  963SOL    HW2 2889   2.504   2.319   0.381  2.8963  0.5109 -0.4942
  964SOL     OW 2890   1.186   2.500   1.227 -0.1365  0.5101  0.0973
  964SOL    HW1 2891   1.222   2.504   1.326  1.1078 -0.6964  1.8955
  964SOL    HW2 2892   1.093   2.537   1.224  3.4380  2.9008 -0.1037
  965SOL     OW 2893   1.373   1.492   0.761  0.3704 -0.2200 -0.0522
  965SOL    HW1 2894   1.453   1.535   0.709  0.2403  0.2000  1.0138
  965SOL    HW2 2895   1.306   1.559   0.796 -0.7023  0.6030  1.4227
  966SOL     OW 2896   0.303   1.856   0.101  0.0952  0.1124 -0.1473
  966SOL    HW1 2897   0.270   1.882   0.196 -1.5164  1.2787 -0.3805
  966SOL    HW2 2898   0.237   1.797   0.054  0.5666 -1.6925  2.3689
  967SOL     OW 2899   2.112   0.400   1.870  0.1370  0.0765 -0.1151
  967SOL    HW1 2900   2.028   0.438   1.914  2.0389 -1.7178  0.7508
  967SOL    HW2 2901   2.146   0.461   1.796 -1.9403 -0.1417 -1.7709
  968SOL     OW 2902   1.867   0.845   0.663  0.0572 -0.3075  0.3107
  968SOL    HW1 2903   1.932   0.899   0.608 -0.7394 -0.4249  1.2981
  968SOL    HW2 2904   1.847   0.751   0.632  0.9523  2.9012  1.1608
  969SOL     OW 2905   0.332   1.312   2.330  0.9310 -0.2519 -0.0730
  969SOL    HW1 2906   0.363   1.258   2.249  3.2728 -0.4139 -0.7760
  969SOL    HW2 2907   0.408   1.375   2.354 -1.3851 -0.5490 -0.1879
  970SOL     OW 2908   2.233   1.554   1.250  0.0114  0.0098  0.1819
  970SOL    HW1 2909   2.218   1.493   1.171  0.9169  1.1678 -0.5362
  970SOL    HW2 2910   2.259   1.648   1.219  0.4348  1.6022  0.0612
  971SOL     OW 2911   0.252   0.016   1.203 -0.1412 -0.0984  0.7999
  971SOL    HW1 2912   0.317   0.093   1.215 -0.9931 -2.5837 -2.1842
  971SOL    HW2 2913   0.259   3.074   1.106 -0.9634  1.1237 -0.6900
  972SOL     OW 2914   0.292   0.855   2.852  0.3216  0.1957 -0.0847
  972SOL    HW1 2915   0.283   0.755   2.864 -0.8105 -0.8631 -0.3941
  972SOL    HW2 2916   0.270   0.899   2.942  2.9704 -0.7842 -1.8572
  973SOL     OW 2917   3.027   0.460   1.016  0.2321 -0.1845  0.3677
  973SOL    HW1 2918   0.017   0.489   0.980 -2.5462 -1.9638  1.0447
  973SOL    HW2 2919   3.010   0.360   1.004 -0.4875  1.3954  1.6340
  974SOL     OW 2920   2.257   0.443   2.079  0.3741  0.3467  0.4875
  974SOL    HW1 2921   2.214   0.501   2.151  0.5039 -0.4313 -0.6189
  974SOL    HW2 2922   2.194   0.427   1.996 -0.5063  0.4148 -3.1510
  975SOL     OW 2923   2.640   0.289   0.237  0.1427 -0.1479  0.3188
  975SOL    HW1 2924   2.687   0.226   0.305  2.9527  0.4776  3.3924
  975SOL    HW2 2925   2.642   0.386   0.261  0.9124 -1.3518 -0.9856
  976SOL     OW 2926   0.401   1.437   1.450 -0.0631  0.5484  0.6069
  976SOL    HW1 2927   0.500   1.436   1.457  1.0726  0.3947 -1.6101
  976SOL    HW2 2928   0.360   1.501   1.521 -1.0893  0.4097  0.1480
  977SOL     OW 2929   1.078   2.523   3.056  0.3405  0.1027 -0.1358
  977SOL    HW1 2930   1.174   2.481   3.057  4.3477 -2.9677 -0.9580
  977SOL    HW2 2931   1.029   2.516   0.049 -0.6995  1.6978 -0.9202
  978SOL     OW 2932   0.361   1.401   2.970 -0.0168 -0.6187 -0.0865
  978SOL    HW1 2933   0.357   1.408   3.069  3.7537 -0.9039 -2.2133
  978SOL    HW2 2934   0.418   1.320   2.944 -0.0250 -0.4842  1.7882
  979SOL     OW 2935   1.925   1.818   1.378  0.2886 -0.7190 -0.0059
  979SOL    HW1 2936   1.911   1.730   1.323  0.2266  0.1115  0.8255
  979SOL    HW2 2937   2.022   1.840   1.380  2.0339  0.1213  0.0189
  980SOL     OW 2938   0.484   1.520   1.778  0.2222  0.4640  0.1195
  980SOL    HW1 2939   0.392   1.537   1.740  1.0228  0.5721 -0.0533
  980SOL    HW2 2940   0.481   1.501   1.879  1.6341 -0.9959  0.4952
  981SOL     OW 2941   2.987   1.476   0.278  0.3450  0.0396  0.3124
  981SOL    HW1 2942   3.024   1.564   0.313  4.6960 -0.3040 -0.1302
  981SOL    HW2 2943   2.971   1.404   0.348  1.3241  1.7307 -2.4419
  982SOL     OW 2944   2.405   2.859   2.100  0.8951 -0.2516 -0.0471
  982SOL    HW1 2945   2.391   2.959   2.079 -1.6405  0.4775  1.1127
  982SOL    HW2 2946   2.505   2.830   2.107 -0.3709 -2.3053 -0.3219
  983SOL     OW 2947   1.341   0.213   1.065 -0.9530 -0.1769  0.7776
  983SOL    HW1 2948   1.356   0.212   1.163  3.5890 -0.0818 -3.5299
  983SOL    HW2 2949   1.358   0.300   1.019 -1.5418 -0.7147  0.1864
  984SOL     OW 2950   1.201   3.001   2.894 -0.3923  0.1436  0.3459
  984SOL    HW1 2951   1.293   3.032   2.864  0.0092  1.2218 -1.4324
  984SOL    HW2 2952   1.212   2.934   2.970  0.0601  1.6979 -0.2635
  985SOL     OW 2953   1.894   2.310   1.528  0.4014  0.1998  0.7960
  985SOL    HW1 2954   1.884   2.214   1.566 -1.0830 -0.2688  0.4846
  985SOL    HW2 2955   1.968   2.313   1.462  1.0270  1.5493  1.5045
  986SOL     OW 2956   2.341   2.836   2.637 -0.4161  0.1753 -0.0488
  986SOL    HW1 2957   2.324   2.908   2.568  0.8646 -0.1650 -2.0360
  986SOL    HW2 2958   2.427   2.848   2.691 -0.8070 -0.2732 -2.0279
  987SOL     OW 2959   2.760   0.933   2.128  0.6503  0.2751 -0.1286
  987SOL    HW1 2960   2.680   0.898   2.180  1.9971  0.1983 -0.5255
  987SOL    HW2 2961   2.729   1.006   2.064 -0.2910 -2.0769  1.9696
  988SOL     OW 2962   2.484   0.840   2.541 -0.8136  0.3597  0.1866
  988SOL    HW1 2963   2.417   0.784   2.595  2.4894 -0.5333  0.2648
  988SOL    HW2 2964   2.435   0.891   2.464 -0.6024 -0.0125 -1.6296
  989SOL     OW 2965   2.040   1.449   2.019 -0.2761 -0.3070  0.4346
  989SOL    HW1 2966   2.115   1.380   1.999  1.3690 -3.8382  2.2140
  989SOL    HW2 2967   2.041   1.477   2.119  1.1141  0.9734 -2.0331
  990SOL     OW 2968   0.396   1.100   0.096  0.2864  0.3758  0.0315
  990SOL    HW1 2969   0.485   1.074   0.056  0.4682 -2.9325  2.3045
  990SOL    HW2 2970   0.330   1.035   0.058 -0.7431 -0.1565  3.1376
  991SOL     OW 2971   0.212   1.975   2.820  0.4665 -0.1095  0.2426
  991SOL    HW1 2972   0.254   1.885   2.833 -2.6463 -2.5207  1.4584
  991SOL    HW2 2973   0.195   1.991   2.721 -1.8915  0.8244  0.8929
  992SOL     OW 2974   2.475   2.085   2.020  0.0018 -0.1115 -0.1945
  992SOL    HW1 2975   2.457   2.146   1.943  0.3022 -2.6848 -0.2274
  992SOL    HW2 2976   2.509   2.139   2.099 -0.0819  1.2397  1.6491
  993SOL     OW 2977   0.234   0.049   0.469 -0.2532 -0.0381  0.0298
  993SOL    HW1 2978   0.320   0.068   0.520 -1.0628 -1.3090  0.8628
  993SOL    HW2 2979   0.155   0.042   0.530  3.1354 -1.8010 -1.5867
  994SOL     OW 2980   0.264   1.609   1.613 -0.4978 -0.2828  0.0116
  994SOL    HW1 2981   0.171   1.629   1.656 -1.3950 -1.3672 -1.2807
  994SOL    HW2 2982   0.286   1.679   1.541 -1.2337 -0.2337  0.3779
  995SOL     OW 2983   2.019   1.804   2.879 -0.0151  0.3161 -0.5310
  995SOL    HW1 2984   1.942   1.747   2.843 -2.3978  2.3667 -1.0172
  995SOL    HW2 2985   2.026   1.890   2.823 -0.9305  0.4827  1.5120
  996SOL     OW 2986   1.839   1.525   3.057 -0.3318  0.8073 -0.0892
  996SOL    HW1 2987   1.760   1.467   3.078 -1.8572  1.4078 -1.1049
  996SOL    HW2 2988   1.797   1.611   3.017  2.2331 -0.3137  2.2956
  997SOL     OW 2989   1.256   1.398   1.686 -1.0902  0.0407 -0.3585
  997SOL    HW1 2990   1.167   1.391   1.738 -0.0881  0.2199  1.0491
  997SOL    HW2 2991   1.276   1.300   1.668 -1.0674 -1.4118  0.8439
  998SOL     OW 2992   2.616   2.179   1.184  0.1071 -0.5449 -0.1771
  998SOL    HW1 2993   2.539   2.245   1.165 -1.5603 -1.2397  1.0672
  998SOL    HW2 2994   2.664   2.154   1.098 -3.5333 -0.7148 -0.9791
  999SOL     OW 2995   2.147   2.188   0.311 -0.1540 -0.2854 -0.0830
  999SOL    HW1 2996   2.109   2.256   0.379 -0.5847  0.9412  1.1134
  999SOL    HW2 2997   2.178   2.111   0.362 -1.0019  1.8086  2.0928
 1000SOL     OW 2998   0.791   3.032   3.066 -0.0182 -0.3718  0.0998
 1000SOL    HW1 2999   0.827   2.947   0.006 -0.3602 -1.4078 -0.1469
 1000SOL    HW2 3000   0.697   3.054   3.089  0.3641 -2.3879 -0.9356
   3.09701   3.09701   3.09701
