1000 SPC/Fw water molecules t= 209.00000 step= 209000
 3000
    1SOL     OW    1   2.886   3.019   0.821  0.3706 -0.7084  0.1034
    1SOL    HW1    2   2.920   2.922   0.822 -0.1010 -0.3794 -1.2218
    1SOL    HW2    3   2.934   3.068   0.752 -0.9041 -3.5167 -0.8806
    2SOL     OW    4   1.755   1.528   2.115 -0.2004 -0.4973 -0.2847
    2SOL    HW1    5   1.848   1.561   2.083  0.5551  0.4255 -0.8825
    2SOL    HW2    6   1.767   1.465   2.194  0.8769 -1.5203  1.1939
    3SOL     OW    7   1.940   2.485   2.192  0.5899 -0.3872  0.5111
    3SOL    HW1    8   1.852   2.444   2.169  0.5001 -2.5152 -0.3393
    3SOL    HW2    9   1.991   2.421   2.253  2.2812 -1.4167 -2.6702
    4SOL     OW   10   2.043   1.722   2.370  0.5778 -0.3607 -0.5739
    4SOL    HW1   11   2.082   1.684   2.285 -0.3248 -3.3921 -0.7597
    4SOL    HW2   12   2.054   1.650   2.446  1.2986 -4.0839  1.3414
    5SOL     OW   13   1.326   0.657   1.822 -0.4522 -0.1347  0.0688
    5SOL    HW1   14   1.250   0.668   1.752  3.5056  2.4317 -1.4147
    5SOL    HW2   15   1.329   0.566   1.865  0.0178  2.1172 -1.0191
    6SOL     OW   16   2.752   0.596   2.804 -0.0061 -0.5721  0.2928
    6SOL    HW1   17   2.814   0.520   2.825 -1.5992  1.8489 -0.8284
    6SOL    HW2   18   2.662   0.581   2.844 -1.1627 -3.0258 -0.0958
    7SOL     OW   19   0.676   1.293   1.324  0.6061  0.6543 -0.8497
    7SOL    HW1   20   0.753   1.345   1.278  1.4355 -2.5749  2.2528
    7SOL    HW2   21   0.585   1.334   1.303 -0.7640  2.1519 -2.6324
    8SOL     OW   22   1.238   0.569   0.890 -0.2804 -0.1024  0.2595
    8SOL    HW1   23   1.168   0.540   0.819 -2.2532  1.8545  0.4058
    8SOL    HW2   24   1.271   0.483   0.935 -1.0555  0.7535 -0.3677
    9SOL     OW   25   1.131   0.590   2.593 -0.0343 -0.5145 -0.3060
    9SOL    HW1   26   1.181   0.657   2.536  0.7403  0.2799  2.7722
    9SOL    HW2   27   1.201   0.529   2.640  0.1880 -0.3472 -1.3505
   10SOL     OW   28   0.174   2.547   0.158  0.4126  0.4639  0.1500
   10SOL    HW1   29   0.276   2.545   0.143 -1.0425 -1.1017 -1.0170
   10SOL    HW2   30   0.133   2.455   0.132 -0.9397 -0.2391 -3.7875
   11SOL     OW   31   0.707   1.251   3.068 -0.2845 -0.2892 -0.1966
   11SOL    HW1   32   0.650   1.199   3.006 -0.7135  4.2756 -1.1661
   11SOL    HW2   33   0.647   1.292   0.059  0.3701 -3.0687  0.7993
   12SOL     OW   34   0.451   0.317   1.475  0.1148 -0.0072 -0.1330
   12SOL    HW1   35   0.368   0.267   1.450  1.9700  0.9595  1.0540
   12SOL    HW2   36   0.498   0.271   1.554  0.1590 -0.2249  3.3191
   13SOL     OW   37   1.019   0.164   0.333  0.0890  0.1373 -0.0531
   13SOL    HW1   38   1.042   0.166   0.236  0.2223 -1.2841  1.6100
   13SOL    HW2   39   0.982   0.078   0.371 -1.8899  2.4958  2.0258
   14SOL     OW   40   1.226   2.380   1.269 -0.4856  0.2854 -0.1330
   14SOL    HW1   41   1.138   2.330   1.272  2.3536  0.2321 -0.5162
   14SOL    HW2   42   1.208   2.471   1.231  2.3050 -3.4513  0.5381
   15SOL     OW   43   2.696   1.064   1.775  0.5721 -0.1780 -0.0494
   15SOL    HW1   44   2.735   0.981   1.731 -1.5347  0.6644 -0.9622
   15SOL    HW2   45   2.761   1.138   1.766 -0.3723 -0.3444  2.6308
   16SOL     OW   46   1.347   2.886   0.063 -0.0733 -0.3503 -0.3776
   16SOL    HW1   47   1.328   2.985   0.047 -1.0607 -0.3852  0.2543
   16SOL    HW2   48   1.429   2.856   0.010  1.9400  0.0975  0.3257
   17SOL     OW   49   0.679   0.200   1.376  0.0051 -0.4064 -1.2830
   17SOL    HW1   50   0.641   0.167   1.287 -0.4953  0.8248  1.1021
   17SOL    HW2   51   0.621   0.264   1.429  0.6570 -0.5395 -0.8484
   18SOL     OW   52   1.119   0.775   3.032 -0.8174 -0.3913  0.2094
   18SOL    HW1   53   1.205   0.820   3.072  0.6851 -0.2612  2.5752
   18SOL    HW2   54   1.067   0.723   0.019  2.3196  3.0174  0.5042
   19SOL     OW   55   2.119   1.607   3.032 -0.0013  0.1261 -0.0997
   19SOL    HW1   56   2.099   1.709   3.029 -0.2744  2.0787 -1.1505
   19SOL    HW2   57   2.035   1.555   3.017 -0.2753 -0.4018 -1.0507
   20SOL     OW   58   1.958   1.619   1.635 -0.0106 -0.2959 -0.0545
   20SOL    HW1   59   1.892   1.672   1.687 -0.3795 -1.6029 -2.2051
   20SOL    HW2   60   1.912   1.553   1.569 -0.9242 -3.7709 -1.9305
   21SOL     OW   61   0.907   1.107   0.100  0.0225 -0.0415 -0.1798
   21SOL    HW1   62   0.941   1.073   0.012 -3.0108  2.8357 -1.9679
   21SOL    HW2   63   0.815   1.152   0.081  0.0217  0.2095 -2.3852
   22SOL     OW   64   2.266   0.012   1.189  0.0075  0.4014 -0.0647
   22SOL    HW1   65   2.173   3.069   1.154 -2.1495 -1.7314  0.4668
   22SOL    HW2   66   2.331   3.010   1.162  0.2541 -2.3355  2.7510
   23SOL     OW   67   0.116   0.832   1.746 -0.0336 -0.3376  0.4983
   23SOL    HW1   68   0.208   0.832   1.789 -1.1409  1.1900  3.4658
   23SOL    HW2   69   0.130   0.791   1.660  0.0610 -0.0535  2.5052
   24SOL     OW   70   2.172   2.434   1.200  0.2739 -0.8071 -0.0203
   24SOL    HW1   71   2.200   2.522   1.154  2.7818  0.5273 -1.3454
   24SOL    HW2   72   2.071   2.420   1.192 -0.8231  1.1045  0.2178
   25SOL     OW   73   1.888   2.858   2.738 -0.5324  0.5313  0.2684
   25SOL    HW1   74   1.794   2.827   2.723 -1.7876  1.3630 -0.8878
   25SOL    HW2   75   1.948   2.818   2.667 -1.0620 -1.0689  0.1066
   26SOL     OW   76   1.418   2.582   0.321 -0.5857 -0.1109  0.3960
   26SOL    HW1   77   1.464   2.496   0.348  0.3911 -1.4684  2.8238
   26SOL    HW2   78   1.329   2.563   0.271 -0.9963  0.2326 -1.2625
   27SOL     OW   79   0.482   1.782   2.538  0.7063 -0.3119 -0.2501
   27SOL    HW1   80   0.407   1.847   2.543  2.2439 -0.8717 -1.1133
   27SOL    HW2   81   0.459   1.694   2.490  1.8463 -0.7956  1.4196
   28SOL     OW   82   0.005   1.148   1.585  0.5996 -0.3942  0.2115
   28SOL    HW1   83   3.073   1.220   1.516 -0.0385  1.0527  0.8003
   28SOL    HW2   84   0.091   1.171   1.629  0.7301 -0.2423 -1.1201
   29SOL     OW   85   2.673   2.112   2.266 -0.3100  0.4368 -0.3027
   29SOL    HW1   86   2.769   2.080   2.295  1.7658  0.7371  0.5807
   29SOL    HW2   87   2.684   2.190   2.200  0.1134  1.4289  0.7342
   30SOL     OW   88   1.326   0.097   0.073 -0.3816 -0.0260 -0.5859
   30SOL    HW1   89   1.361   0.158   0.000 -0.5812  0.0184  0.9812
   30SOL    HW2   90   1.369   0.121   0.165  1.2285 -0.4601 -1.9204
   31SOL     OW   91   2.587   2.578   1.789  0.0246 -0.0847 -0.4834
   31SOL    HW1   92   2.530   2.638   1.844  3.0669 -1.9613 -0.4071
   31SOL    HW2   93   2.680   2.564   1.831  0.8390 -0.7491 -0.7566
   32SOL     OW   94   1.345   1.318   1.281  0.3400  0.0342 -0.1155
   32SOL    HW1   95   1.379   1.379   1.355 -0.6755 -0.1470  2.0030
   32SOL    HW2   96   1.257   1.273   1.309 -1.6416 -1.7083  0.5766
   33SOL     OW   97   0.050   2.638   2.614 -0.3824  0.3833  0.4024
   33SOL    HW1   98   0.091   2.617   2.523 -1.7074  1.6465 -0.1866
   33SOL    HW2   99   3.028   2.646   2.610 -0.4987 -1.4573 -1.3558
   34SOL     OW  100   1.843   0.243   0.877  1.1555  0.3410 -0.2106
   34SOL    HW1  101   1.934   0.256   0.838 -2.4170 -0.0134  1.6030
   34SOL    HW2  102   1.817   0.145   0.896  0.3288 -4.6424 -0.2233
   35SOL     OW  103   2.300   0.142   0.762 -0.1448  0.0653  0.3092
   35SOL    HW1  104   2.296   0.040   0.738  0.9114 -2.4029  0.1248
   35SOL    HW2  105   2.304   0.188   0.671 -1.1202  1.2694  0.9435
   36SOL     OW  106   2.063   2.744   2.561  0.0494  0.2076 -0.0383
   36SOL    HW1  107   2.131   2.664   2.570 -0.9167 -2.6594 -1.8140
   36SOL    HW2  108   2.008   2.742   2.481  0.8614 -0.0317 -1.0435
   37SOL     OW  109   1.046   2.558   2.500 -1.2292  0.0867 -0.2731
   37SOL    HW1  110   0.979   2.559   2.575  0.1190 -1.8638  2.3395
   37SOL    HW2  111   1.143   2.592   2.527  1.1376 -0.9435  0.2547
   38SOL     OW  112   2.756   0.227   2.735 -0.0670  0.0235  0.2603
   38SOL    HW1  113   2.660   0.225   2.694 -1.0308  0.3002 -0.1354
   38SOL    HW2  114   2.783   0.129   2.749  1.3088  0.3028  1.6099
   39SOL     OW  115   2.155   1.478   1.741  0.4625 -0.1546 -0.0458
   39SOL    HW1  116   2.241   1.478   1.683  1.5015  0.8705 -0.9730
   39SOL    HW2  117   2.085   1.539   1.702  0.6643 -0.7784 -1.0738
   40SOL     OW  118   0.185   2.948   2.644  0.1176 -1.0305 -0.3782
   40SOL    HW1  119   0.270   2.978   2.691 -0.6572 -1.7583 -1.3819
   40SOL    HW2  120   0.120   2.907   2.713 -0.3026 -0.9271 -0.9825
   41SOL     OW  121   1.667   0.444   0.771 -0.4871  0.2919 -0.3370
   41SOL    HW1  122   1.679   0.533   0.818  0.1072 -0.3032  0.5320
   41SOL    HW2  123   1.716   0.366   0.813  2.0629  0.6768  0.7689
   42SOL     OW  124   0.616   0.773   1.271 -0.5191  0.1681  0.6571
   42SOL    HW1  125   0.526   0.747   1.307  1.0735 -0.6840 -2.7819
   42SOL    HW2  126   0.658   0.847   1.326 -1.6916 -2.1867  3.6227
   43SOL     OW  127   2.558   1.430   2.277  0.1909 -0.0530 -0.4726
   43SOL    HW1  128   2.580   1.455   2.183 -0.9823 -1.8361  1.3392
   43SOL    HW2  129   2.523   1.336   2.281  0.5216  1.4529 -0.6876
   44SOL     OW  130   2.791   2.797   0.627 -0.3760 -0.9030  0.0626
   44SOL    HW1  131   2.752   2.891   0.648  3.6139 -1.7564  1.8048
   44SOL    HW2  132   2.880   2.788   0.677 -2.6902  1.2397  1.1075
   45SOL     OW  133   3.022   2.348   1.987  0.3026  0.1711 -0.4496
   45SOL    HW1  134   2.957   2.409   1.936 -0.7990 -0.7766 -1.4378
   45SOL    HW2  135   0.039   2.346   1.941  2.5245  1.3802  2.1820
   46SOL     OW  136   2.295   2.366   2.342  0.4886  0.3680 -0.3751
   46SOL    HW1  137   2.372   2.303   2.350 -1.8318 -0.1884 -1.3189
   46SOL    HW2  138   2.306   2.419   2.258  0.8123  1.3990  0.2992
   47SOL     OW  139   1.838   2.023   1.658 -0.0433 -0.2540  0.1809
   47SOL    HW1  140   1.840   1.948   1.727  0.0065 -0.3235 -0.8992
   47SOL    HW2  141   1.759   2.007   1.594  0.7312 -0.4399  2.3102
   48SOL     OW  142   0.672   1.723   0.316 -0.2490 -0.1297  0.0386
   48SOL    HW1  143   0.595   1.722   0.253 -0.9667  1.0641 -0.7151
   48SOL    HW2  144   0.747   1.666   0.279 -0.3204  2.9760 -1.3801
   49SOL     OW  145   2.447   0.271   2.534  0.2263 -0.1350  0.0274
   49SOL    HW1  146   2.395   0.292   2.618  2.3809 -2.6827 -0.2015
   49SOL    HW2  147   2.477   0.353   2.479  1.4233  0.5230  0.4015
   50SOL     OW  148   2.357   0.983   0.237  0.2618 -0.5546 -0.0284
   50SOL    HW1  149   2.409   0.926   0.301  2.0855  1.2103 -0.0219
   50SOL    HW2  150   2.366   0.943   0.143  1.0062  1.1357 -2.8136
   51SOL     OW  151   1.904   0.608   1.033  0.0012 -0.0811 -0.0281
   51SOL    HW1  152   1.870   0.518   1.060  1.4192  2.1440  0.6466
   51SOL    HW2  153   1.991   0.619   1.081 -1.9176  1.9066 -0.9672
   52SOL     OW  154   1.248   1.430   2.910 -0.3379 -0.5355 -0.1939
   52SOL    HW1  155   1.244   1.363   2.987 -2.3014 -0.1140 -4.6658
   52SOL    HW2  156   1.236   1.524   2.939  1.2809 -2.0316 -0.0640
   53SOL     OW  157   1.034   1.538   2.008 -0.2947  0.1809 -0.0702
   53SOL    HW1  158   0.965   1.605   2.035  0.9568 -1.4358  1.1707
   53SOL    HW2  159   1.013   1.483   1.925 -1.3571 -2.3302 -1.9046
   54SOL     OW  160   2.183   0.279   1.108  0.0615  0.1227  0.3491
   54SOL    HW1  161   2.218   0.182   1.089  3.1238 -3.1319 -2.1022
   54SOL    HW2  162   2.155   0.323   1.022  0.4463  0.5802 -1.0009
   55SOL     OW  163   2.544   2.633   0.932 -0.8425 -0.0987 -0.3792
   55SOL    HW1  164   2.479   2.560   0.895 -0.9935 -1.1246  0.8027
   55SOL    HW2  165   2.541   2.722   0.883 -0.6979 -0.2775 -0.2574
   56SOL     OW  166   0.812   2.694   1.553  0.4729  0.2645  0.6659
   56SOL    HW1  167   0.844   2.612   1.501 -1.1233 -1.6226  0.7691
   56SOL    HW2  168   0.889   2.754   1.577  0.0903 -2.0860 -1.7362
   57SOL     OW  169   1.443   1.515   0.374 -0.2262  0.0825 -0.1162
   57SOL    HW1  170   1.445   1.487   0.476 -2.1442 -1.3044  0.6877
   57SOL    HW2  171   1.528   1.493   0.328 -1.4282  1.4474  2.5157
   58SOL     OW  172   0.004   0.404   2.378 -0.4667 -0.4366  0.2964
   58SOL    HW1  173   0.015   0.504   2.347 -0.2502  2.9176 -0.7203
   58SOL    HW2  174   3.001   0.390   2.436  1.7988 -0.2384  0.8942
   59SOL     OW  175   0.919   2.825   2.698 -0.2340  0.4283 -0.0219
   59SOL    HW1  176   1.001   2.838   2.761  1.4298  1.2185  0.0613
   59SOL    HW2  177   0.888   2.727   2.698  0.1191  1.5632  0.3065
   60SOL     OW  178   2.243   2.716   0.637 -0.5760 -0.2658  0.1169
   60SOL    HW1  179   2.320   2.666   0.589  0.7367 -1.8400 -0.8400
   60SOL    HW2  180   2.191   2.770   0.565 -0.2511 -0.0222 -2.6574
   61SOL     OW  181   1.165   2.162   0.754 -0.1597  0.5068  0.0320
   61SOL    HW1  182   1.136   2.170   0.653 -0.5972  1.3333 -4.3665
   61SOL    HW2  183   1.235   2.236   0.773  2.5731 -0.9992 -0.4891
   62SOL     OW  184   2.288   2.206   2.695  0.6104  0.1329  0.1063
   62SOL    HW1  185   2.236   2.122   2.715  1.0218 -0.1096 -2.5027
   62SOL    HW2  186   2.330   2.195   2.604  0.2805 -0.7357  1.7831
   63SOL     OW  187   2.360   0.652   2.667 -0.3098 -0.4281  0.3487
   63SOL    HW1  188   2.327   0.593   2.587 -3.3872 -0.1117 -2.9885
   63SOL    HW2  189   2.399   0.600   2.746  0.8072  0.7267  1.7793
   64SOL     OW  190   1.197   0.820   2.745 -0.1783  0.1276  0.4838
   64SOL    HW1  191   1.143   0.905   2.775 -0.2713  4.2053  0.2897
   64SOL    HW2  192   1.206   0.748   2.815 -3.3129  2.2593  1.4565
   65SOL     OW  193   1.004   1.920   0.484  0.1663  0.2163 -0.3136
   65SOL    HW1  194   0.914   1.953   0.455  0.4586 -1.7519  0.0046
   65SOL    HW2  195   1.072   1.914   0.412  0.8615 -1.2828  3.0596
   66SOL     OW  196   0.257   1.087   2.004 -0.1885 -0.7307  0.3525
   66SOL    HW1  197   0.225   1.108   2.100  1.2784  0.2447 -0.1639
   66SOL    HW2  198   0.357   1.101   1.990 -0.2346  0.6712 -1.4096
   67SOL     OW  199   2.185   3.015   2.334  0.4055  0.0420 -0.0588
   67SOL    HW1  200   2.274   3.059   2.348 -0.0082 -2.0906 -0.7969
   67SOL    HW2  201   2.191   2.916   2.350 -1.5082 -0.3787  1.9000
   68SOL     OW  202   0.621   1.958   1.127 -0.3191  0.7370  0.1298
   68SOL    HW1  203   0.621   1.857   1.112  1.6656  0.5295 -1.1103
   68SOL    HW2  204   0.528   1.993   1.111 -1.3549  0.6819  0.9527
   69SOL     OW  205   1.056   2.521   0.495  0.3528 -0.1931  0.0390
   69SOL    HW1  206   0.970   2.578   0.488 -0.5862  1.6440 -1.9534
   69SOL    HW2  207   1.112   2.542   0.575  0.6840  0.6248  0.9849
   70SOL     OW  208   2.891   1.019   2.823 -0.8476  0.1710  0.4593
   70SOL    HW1  209   2.890   1.121   2.829 -0.2648  1.6543  0.4925
   70SOL    HW2  210   2.901   0.981   2.728  0.0811 -2.8951 -0.7556
   71SOL     OW  211   3.068   1.395   2.670 -0.2753 -0.0972  0.5376
   71SOL    HW1  212   0.089   1.417   2.680 -0.3548  2.5934  0.2774
   71SOL    HW2  213   3.044   1.386   2.573  0.2475  0.3129  1.1312
   72SOL     OW  214   2.997   2.232   0.405 -0.2801 -0.1265  0.0277
   72SOL    HW1  215   3.052   2.195   0.330  1.5485  0.0407  1.4165
   72SOL    HW2  216   2.997   2.170   0.487 -1.7132 -1.7177  1.3586
   73SOL     OW  217   0.746   1.363   0.287  0.3028 -0.3284  0.4852
   73SOL    HW1  218   0.783   1.337   0.377  1.9513 -1.2648 -0.7818
   73SOL    HW2  219   0.795   1.448   0.256  1.0522 -1.7041  0.0006
   74SOL     OW  220   2.979   0.430   0.078  0.1683 -0.4276  0.3437
   74SOL    HW1  221   2.932   0.349   0.118  0.4005 -0.1054 -0.5865
   74SOL    HW2  222   2.958   0.442   3.056  2.0418 -1.6426  1.2658
   75SOL     OW  223   1.941   1.383   1.871 -0.8418  0.0382 -0.5037
   75SOL    HW1  224   2.035   1.384   1.828 -0.0453 -0.5924 -0.1284
   75SOL    HW2  225   1.939   1.433   1.959 -0.6674  0.6794  0.2451
   76SOL     OW  226   2.053   2.770   1.611 -0.2955  0.5086  0.1909
   76SOL    HW1  227   2.135   2.742   1.554  6.2140 -2.9865 -1.8028
   76SOL    HW2  228   2.015   2.683   1.650 -0.9251  0.1052  0.0546
   77SOL     OW  229   2.651   0.387   1.206 -0.2865  0.2365 -0.3375
   77SOL    HW1  230   2.735   0.365   1.153 -1.4477  1.5752  0.2169
   77SOL    HW2  231   2.568   0.325   1.183 -1.8921 -0.2955  1.2708
   78SOL     OW  232   1.349   0.895   3.066 -0.3167 -0.2973  0.2414
   78SOL    HW1  233   1.428   0.828   3.058 -1.1927 -1.8279 -0.1022
   78SOL    HW2  234   1.359   0.966   2.993 -0.8054  3.9662 -1.3730
   79SOL     OW  235   0.561   1.845   1.850 -0.5713  0.3743  0.5775
   79SOL    HW1  236   0.621   1.933   1.840  2.6565  1.9981 -1.4653
   79SOL    HW2  237   0.617   1.762   1.829  2.3125  1.7853 -0.2738
   80SOL     OW  238   1.628   0.988   0.980  0.2137 -0.7167  0.3275
   80SOL    HW1  239   1.570   1.034   1.045  0.5354  0.3494 -3.1392
   80SOL    HW2  240   1.675   1.052   0.917 -0.1111 -3.5596  1.2840
   81SOL     OW  241   0.411   0.117   1.114  0.5640  0.0697 -0.0163
   81SOL    HW1  242   0.321   0.095   1.067 -1.5961  2.5244  0.5184
   81SOL    HW2  243   0.488   0.118   1.050 -1.5345 -0.3625 -0.1226
   82SOL     OW  244   1.601   2.769   1.693 -0.0670  0.1510  0.2259
   82SOL    HW1  245   1.505   2.803   1.685 -2.8070  1.6928  1.1749
   82SOL    HW2  246   1.623   2.761   1.793  2.1082 -0.2348  0.1035
   83SOL     OW  247   0.506   2.814   1.284 -0.0019 -0.1797  0.4451
   83SOL    HW1  248   0.460   2.755   1.217  0.1118 -0.1153 -0.0364
   83SOL    HW2  249   0.604   2.785   1.298 -0.7363  0.7785 -2.2068
   84SOL     OW  250   0.306   1.209   2.785  0.1522  0.2250 -0.0289
   84SOL    HW1  251   0.283   1.304   2.753 -1.3916 -0.9699  2.2046
   84SOL    HW2  252   0.313   1.146   2.705  0.5036  0.4603 -0.0898
   85SOL     OW  253   3.039   2.278   1.560  0.0580 -0.1451  0.4081
   85SOL    HW1  254   3.065   2.346   1.492 -0.1998  2.6264  2.6558
   85SOL    HW2  255   2.945   2.246   1.536 -0.4507  0.1311 -0.1182
   86SOL     OW  256   2.660   2.568   1.510  0.3786  0.3909  0.2719
   86SOL    HW1  257   2.653   2.544   1.608 -0.5726  1.1061 -0.2846
   86SOL    HW2  258   2.663   2.486   1.447  0.6918 -0.8319  0.5229
   87SOL     OW  259   2.679   2.395   2.820 -0.0873 -0.2725  0.1616
   87SOL    HW1  260   2.736   2.456   2.882  2.3962  2.0845  2.3664
   87SOL    HW2  261   2.737   2.338   2.757 -1.2832  0.8082  1.3694
   88SOL     OW  262   0.330   1.754   1.257  0.0850  0.0445  0.4044
   88SOL    HW1  263   0.332   1.680   1.329  2.1100 -1.6200  1.0515
   88SOL    HW2  264   0.325   1.707   1.165 -1.3772  1.5755 -2.1392
   89SOL     OW  265   0.913   0.075   1.838  0.1533  0.2817 -0.0971
   89SOL    HW1  266   0.861   0.086   1.754  0.6684  1.7625  0.3032
   89SOL    HW2  267   0.931   3.053   1.858 -0.1326 -0.2731  1.4270
   90SOL     OW  268   0.259   1.904   1.819  0.7464  0.1283  0.2708
   90SOL    HW1  269   0.170   1.868   1.858 -3.2012 -1.2501  2.6389
   90SOL    HW2  270   0.335   1.890   1.883 -1.0914 -1.1118  0.1567
   91SOL     OW  271   0.978   1.649   0.583  0.3593 -0.2160 -0.1695
   91SOL    HW1  272   0.991   1.587   0.502  1.9931 -0.9068 -2.9878
   91SOL    HW2  273   0.982   1.745   0.557  3.5558  1.1359  0.8034
   92SOL     OW  274   2.479   0.186   1.151 -0.3921 -0.8272 -0.1214
   92SOL    HW1  275   2.382   0.156   1.164 -0.0407 -3.3889  4.2182
   92SOL    HW2  276   2.509   0.130   1.074  1.0341  0.0528  3.2087
   93SOL     OW  277   2.504   1.418   3.003  0.4087  0.2867  0.0830
   93SOL    HW1  278   2.580   1.371   3.060  0.5930 -2.2880  1.2926
   93SOL    HW2  279   2.461   1.344   2.949 -0.6920  0.7476  0.2732
   94SOL     OW  280   2.555   2.426   2.575  0.3432  0.1444 -0.0175
   94SOL    HW1  281   2.595   2.425   2.672 -2.1039 -0.5334  2.5642
   94SOL    HW2  282   2.583   2.507   2.520  0.2632  0.9713  1.7079
   95SOL     OW  283   1.847   0.492   1.482  0.3101 -0.3952  0.2721
   95SOL    HW1  284   1.763   0.469   1.538 -2.2005 -0.7827  0.2910
   95SOL    HW2  285   1.900   0.407   1.459 -0.5646 -1.5500 -1.3149
   96SOL     OW  286   2.951   2.636   1.622  0.0048  0.7598 -0.4860
   96SOL    HW1  287   2.968   2.552   1.562 -1.3776 -0.0793 -0.9742
   96SOL    HW2  288   2.923   2.718   1.563 -0.3990 -1.1311  0.0163
   97SOL     OW  289   2.404   0.057   1.493  0.0929  0.1952  0.7437
   97SOL    HW1  290   2.454   3.070   1.431  0.9409 -2.8472 -1.9463
   97SOL    HW2  291   2.356   0.126   1.435  2.1871 -1.4997  0.9750
   98SOL     OW  292   1.533   2.324   1.580  0.5812 -0.1716 -0.4859
   98SOL    HW1  293   1.549   2.294   1.484  2.7627 -0.4902  0.3532
   98SOL    HW2  294   1.600   2.283   1.646  1.8371  0.9731  0.7272
   99SOL     OW  295   0.042   2.840   1.731  0.0005 -0.3368 -0.1006
   99SOL    HW1  296   0.121   2.847   1.666 -0.1158  1.0093 -3.5092
   99SOL    HW2  297   3.053   2.779   1.684  0.7098  0.1393 -2.7961
  100SOL     OW  298   0.041   0.972   2.414 -0.5087  0.2865 -0.1841
  100SOL    HW1  299   0.038   0.936   2.317  0.5781  0.8204 -0.9688
  100SOL    HW2  300   0.098   1.051   2.412 -0.1189  1.1584  0.4665
  101SOL     OW  301   1.916   0.651   0.043 -0.7868 -0.0503 -0.2047
  101SOL    HW1  302   1.867   0.566   0.040 -0.9653  2.6835 -1.9914
  101SOL    HW2  303   1.880   0.704   0.128 -0.7723 -1.1028  1.0745
  102SOL     OW  304   0.340   0.527   1.120  0.1339 -0.0636 -0.4366
  102SOL    HW1  305   0.397   0.470   1.052  2.3248 -1.0942 -3.6853
  102SOL    HW2  306   0.304   0.610   1.076  0.5675  1.6296  1.0524
  103SOL     OW  307   2.631   0.599   2.173 -0.0131  0.7171 -0.3111
  103SOL    HW1  308   2.619   0.701   2.177 -0.1117  1.1117 -0.4032
  103SOL    HW2  309   2.707   0.572   2.117  0.1562  0.3722 -1.3032
  104SOL     OW  310   0.332   0.126   2.531  0.1644  1.0528  0.2025
  104SOL    HW1  311   0.348   0.083   2.444 -1.1104  1.1955  2.1204
  104SOL    HW2  312   0.416   0.167   2.573 -0.7114 -0.7713  3.5954
  105SOL     OW  313   2.065   1.123   1.529  0.2962 -0.7112 -0.2557
  105SOL    HW1  314   2.055   1.059   1.450  1.0590  0.7174  0.3235
  105SOL    HW2  315   1.992   1.102   1.600  1.6713  0.4605 -1.4730
  106SOL     OW  316   1.081   2.939   0.424  0.4600 -0.5328  0.1185
  106SOL    HW1  317   1.072   2.931   0.525 -1.1641  3.7231 -0.9492
  106SOL    HW2  318   1.138   2.865   0.381 -1.3925  0.0792  1.8600
  107SOL     OW  319   0.432   1.582   1.480  0.5362  0.1132  0.2472
  107SOL    HW1  320   0.371   1.603   1.558  1.1203 -1.4599 -2.7074
  107SOL    HW2  321   0.529   1.597   1.496 -0.8571 -2.2537 -0.0733
  108SOL     OW  322   0.084   2.884   2.180  0.0846 -0.3400  0.1313
  108SOL    HW1  323   0.150   2.876   2.259 -0.1532  2.6256 -0.2658
  108SOL    HW2  324   0.059   2.983   2.167 -1.1427  1.0849  1.4630
  109SOL     OW  325   1.809   0.381   0.012  0.4652  0.2505 -0.0221
  109SOL    HW1  326   1.749   0.392   0.099 -0.5738  1.5815  1.0943
  109SOL    HW2  327   1.761   0.325   3.021  2.8781 -1.4449  0.2114
  110SOL     OW  328   0.379   2.391   2.447 -0.3818  0.5401 -0.2490
  110SOL    HW1  329   0.376   2.365   2.346  2.5450  0.9541  1.3765
  110SOL    HW2  330   0.476   2.399   2.477 -0.3711  0.0656 -0.9899
  111SOL     OW  331   1.423   2.587   2.063 -0.2687 -0.1543  0.3383
  111SOL    HW1  332   1.336   2.578   2.016  1.7940  0.0146 -0.3363
  111SOL    HW2  333   1.409   2.656   2.136 -0.5085 -3.5417 -1.0269
  112SOL     OW  334   1.939   2.122   2.578  0.3253 -0.2302 -0.2682
  112SOL    HW1  335   1.999   2.056   2.634  1.8161 -2.2619  1.4468
  112SOL    HW2  336   1.854   2.075   2.545 -1.5845 -2.4848  3.1351
  113SOL     OW  337   2.248   2.644   1.783  0.3024 -0.3595 -0.0624
  113SOL    HW1  338   2.146   2.626   1.782 -2.2031 -1.8219 -0.1482
  113SOL    HW2  339   2.302   2.567   1.745 -0.5696 -0.6607  0.0550
  114SOL     OW  340   2.968   0.885   0.866  0.1893 -0.5872 -0.0808
  114SOL    HW1  341   3.063   0.925   0.847  1.7230  1.5489  0.0823
  114SOL    HW2  342   2.898   0.922   0.803 -0.8467 -1.6876  1.4254
  115SOL     OW  343   0.354   1.731   2.797 -0.2450 -0.3458  0.3859
  115SOL    HW1  344   0.428   1.744   2.872  2.2520  1.0636  2.3797
  115SOL    HW2  345   0.339   1.813   2.742 -0.2939  0.9874  1.0572
  116SOL     OW  346   0.316   1.403   2.134  0.7301 -0.1882 -0.0885
  116SOL    HW1  347   0.309   1.421   2.031 -0.8270 -1.5866  1.2539
  116SOL    HW2  348   0.220   1.416   2.163 -0.6918 -1.0241 -2.4310
  117SOL     OW  349   2.635   3.022   0.585 -0.2244 -0.3212 -0.1329
  117SOL    HW1  350   2.642   0.010   0.659  0.3245  0.3365 -3.0601
  117SOL    HW2  351   2.599   3.054   0.495 -3.0372  2.9563 -1.5203
  118SOL     OW  352   1.127   1.932   1.706  0.0284  0.2358 -0.0823
  118SOL    HW1  353   1.054   1.873   1.669  1.5039  1.6237  2.3029
  118SOL    HW2  354   1.141   1.905   1.802 -2.0589 -0.3023  3.6253
  119SOL     OW  355   1.324   2.139   0.326 -0.0474  0.1154 -0.0703
  119SOL    HW1  356   1.269   2.183   0.399  1.6031 -0.4360 -0.4739
  119SOL    HW2  357   1.329   2.040   0.341  0.2853  1.4620 -1.3290
  120SOL     OW  358   0.167   1.215   2.446 -0.5880 -0.0247 -0.0395
  120SOL    HW1  359   0.188   1.318   2.442 -0.9037  3.0522  0.3708
  120SOL    HW2  360   0.254   1.169   2.422 -0.0765  1.9455  0.8004
  121SOL     OW  361   2.213   2.720   1.132 -0.4370  0.3323  0.2882
  121SOL    HW1  362   2.172   2.731   1.038 -3.6330  0.1929 -0.6733
  121SOL    HW2  363   2.297   2.779   1.145  0.4193  0.0179 -1.2829
  122SOL     OW  364   2.236   1.988   1.933  0.2321 -0.6565  0.5095
  122SOL    HW1  365   2.251   1.969   2.029 -0.3096  0.0290 -1.7717
  122SOL    HW2  366   2.259   2.089   1.913 -0.1018  1.1472 -0.6536
  123SOL     OW  367   3.021   0.009   0.604 -0.0088  0.1874 -0.0470
  123SOL    HW1  368   2.966   0.029   0.527  0.9062 -1.2108 -0.1321
  123SOL    HW2  369   0.005   3.006   0.583 -0.5914  3.3628 -2.1762
  124SOL     OW  370   1.839   0.720   2.320  0.1561  0.3597 -0.3360
  124SOL    HW1  371   1.750   0.762   2.299  0.0542 -1.8647  2.0753
  124SOL    HW2  372   1.869   0.656   2.247 -0.0182 -0.4699 -0.4926
  125SOL     OW  373   0.414   1.283   0.418 -0.6697  0.1322 -0.2105
  125SOL    HW1  374   0.484   1.222   0.375  0.7130 -2.4041  1.2062
  125SOL    HW2  375   0.457   1.343   0.487  0.7158  0.3516  1.4015
  126SOL     OW  376   2.384   1.652   0.585 -0.0693  1.2210 -0.0614
  126SOL    HW1  377   2.381   1.570   0.524  0.1531 -0.8068  2.9048
  126SOL    HW2  378   2.375   1.615   0.684 -0.0330  0.5581  0.9684
  127SOL     OW  379   0.117   2.021   1.584 -0.4144 -0.2284 -0.3272
  127SOL    HW1  380   0.160   2.018   1.677  2.3240  3.4082  1.4827
  127SOL    HW2  381   0.077   2.112   1.560  1.7678  1.0128  1.8722
  128SOL     OW  382   0.877   0.687   2.524 -0.2083 -0.3180  0.0233
  128SOL    HW1  383   0.863   0.663   2.427 -0.7323 -0.6388  4.1851
  128SOL    HW2  384   0.962   0.643   2.549 -1.4972 -0.3505  0.5653
  129SOL     OW  385   2.280   1.249   1.233  0.0794 -0.3060  0.1246
  129SOL    HW1  386   2.283   1.145   1.246 -1.2030  2.0292 -1.4551
  129SOL    HW2  387   2.247   1.296   1.316 -0.4615  0.6699 -2.1070
  130SOL     OW  388   2.371   1.532   1.571 -0.8801  0.1619 -0.4798
  130SOL    HW1  389   2.443   1.479   1.522 -0.3536  1.4943  1.7883
  130SOL    HW2  390   2.406   1.623   1.596 -2.5550 -1.0051  0.6675
  131SOL     OW  391   2.676   0.848   2.855 -0.1216  0.3158 -0.1097
  131SOL    HW1  392   2.754   0.911   2.869 -1.0927 -0.5816 -2.5069
  131SOL    HW2  393   2.701   0.748   2.862  0.8518 -0.2930  0.6181
  132SOL     OW  394   2.447   2.287   2.075  0.1958 -0.0302 -0.1089
  132SOL    HW1  395   2.433   2.217   2.003  1.3691 -2.0752 -1.3887
  132SOL    HW2  396   2.374   2.355   2.085  1.1776 -2.1664 -1.6759
  133SOL     OW  397   0.532   1.153   0.733 -0.2793 -0.7934  0.7118
  133SOL    HW1  398   0.450   1.215   0.729  0.8713  0.5193 -0.5171
  133SOL    HW2  399   0.576   1.157   0.824 -3.0824  3.0084 -1.7488
  134SOL     OW  400   0.254   1.258   3.048  0.3422  0.4005  0.2304
  134SOL    HW1  401   0.187   1.332   3.037  1.5418 -1.3825  1.8970
  134SOL    HW2  402   0.280   1.222   2.959 -2.3691  1.2338 -0.9358
  135SOL     OW  403   2.056   1.578   1.276  0.1259  0.0453 -0.0690
  135SOL    HW1  404   2.113   1.508   1.326  1.7263  1.4414  1.1071
  135SOL    HW2  405   1.992   1.524   1.214 -0.4651 -1.2124  0.7733
  136SOL     OW  406   2.329   1.057   0.643 -0.0121 -0.4210  0.2150
  136SOL    HW1  407   2.330   1.098   0.549 -1.7929 -1.6265 -2.3486
  136SOL    HW2  408   2.229   1.043   0.673 -1.2425  1.1884  2.7037
  137SOL     OW  409   2.540   1.757   0.995 -0.6415 -0.5517  0.2391
  137SOL    HW1  410   2.463   1.732   1.058  0.0235  0.7048  2.9307
  137SOL    HW2  411   2.619   1.789   1.053  0.7336  1.4834  0.0580
  138SOL     OW  412   1.624   0.489   1.687 -0.3405  0.4628 -0.1866
  138SOL    HW1  413   1.691   0.450   1.751  0.4668 -0.3357 -0.6272
  138SOL    HW2  414   1.562   0.419   1.653  2.4515  0.1035 -0.3339
  139SOL     OW  415   2.230   2.978   2.768 -0.6464  0.0989 -0.2822
  139SOL    HW1  416   2.161   3.019   2.706  2.2953  0.2476  1.4340
  139SOL    HW2  417   2.217   2.878   2.781 -1.0207  2.3541 -2.0023
  140SOL     OW  418   1.631   1.761   2.061 -1.1102  0.4195  0.2151
  140SOL    HW1  419   1.532   1.748   2.064 -1.3265  1.1849  1.4138
  140SOL    HW2  420   1.682   1.681   2.105  0.2698 -3.3021 -1.8806
  141SOL     OW  421   1.866   1.894   1.116 -0.6054 -0.0028 -0.2155
  141SOL    HW1  422   1.923   1.955   1.178  1.3704  2.5465  1.8253
  141SOL    HW2  423   1.811   1.823   1.164  1.0208  2.3148  0.3294
  142SOL     OW  424   3.047   0.679   0.076 -0.3082  0.1555 -0.7872
  142SOL    HW1  425   3.003   0.585   0.091  0.0430 -1.8171 -0.7794
  142SOL    HW2  426   3.055   0.726   0.163  1.2078  0.5378 -1.1032
  143SOL     OW  427   0.448   2.145   2.949 -0.1417  0.5129  0.1767
  143SOL    HW1  428   0.443   2.042   2.932  0.6132 -2.8932 -0.3864
  143SOL    HW2  429   0.508   2.189   2.878  2.0572 -0.1372  0.2997
  144SOL     OW  430   0.985   2.906   1.909  0.4076  0.0680 -0.1451
  144SOL    HW1  431   1.020   2.901   1.812  2.1735  2.7116 -0.1688
  144SOL    HW2  432   1.050   2.851   1.971 -1.4447 -2.4778  2.6331
  145SOL     OW  433   2.088   1.451   0.456  0.1112 -0.2246 -0.6859
  145SOL    HW1  434   2.033   1.508   0.399  1.2872 -0.5056  1.9744
  145SOL    HW2  435   2.184   1.471   0.425 -0.0063 -0.5203 -1.5687
  146SOL     OW  436   2.431   0.061   2.940 -0.2127 -0.6991 -0.3314
  146SOL    HW1  437   2.365   0.020   2.874  0.4294  2.2640 -1.4175
  146SOL    HW2  438   2.521   0.045   2.896 -0.5700 -1.0824  0.8638
  147SOL     OW  439   2.913   2.623   0.974  0.0275 -0.0265  0.1166
  147SOL    HW1  440   2.870   2.567   0.900  2.6437  0.0783  1.6895
  147SOL    HW2  441   2.852   2.641   1.049 -0.4153  2.6307  0.0391
  148SOL     OW  442   1.597   2.816   2.694  0.5641  0.1834  0.0883
  148SOL    HW1  443   1.617   2.808   2.792 -0.4067 -0.6840 -2.5671
  148SOL    HW2  444   1.503   2.854   2.684 -4.0927  1.2316 -2.4095
  149SOL     OW  445   1.167   0.345   2.416  0.1680  0.2397 -0.2693
  149SOL    HW1  446   1.242   0.306   2.475  1.1294 -1.9465 -0.6950
  149SOL    HW2  447   1.075   0.345   2.465 -1.6114 -0.6677 -1.5946
  150SOL     OW  448   0.783   2.582   0.467 -0.0873  0.3496 -0.3178
  150SOL    HW1  449   0.736   2.579   0.376 -0.9078 -0.0774 -0.5637
  150SOL    HW2  450   0.758   2.663   0.524  0.8059  0.9880 -0.1341
  151SOL     OW  451   2.929   1.800   0.181  0.1260  0.3560  0.2598
  151SOL    HW1  452   2.885   1.748   0.104 -1.0907  0.5429 -1.9873
  151SOL    HW2  453   2.984   1.878   0.149  2.1399 -1.9055  0.5554
  152SOL     OW  454   0.137   0.993   0.778 -0.3910 -0.1975  0.2482
  152SOL    HW1  455   0.156   1.070   0.711  0.5696  4.7135  0.0206
  152SOL    HW2  456   0.208   0.923   0.786  3.8635  0.2851 -0.0929
  153SOL     OW  457   2.183   2.897   0.442 -0.2449  0.4687 -0.3758
  153SOL    HW1  458   2.190   2.992   0.408  0.9114 -1.1739  0.1086
  153SOL    HW2  459   2.149   2.845   0.367  2.5044  2.2829  2.1297
  154SOL     OW  460   0.814   0.541   1.546  1.1128 -0.5402 -0.7768
  154SOL    HW1  461   0.856   0.627   1.576  0.4807 -0.3262 -0.6902
  154SOL    HW2  462   0.765   0.497   1.630  1.0689 -1.8825  1.8570
  155SOL     OW  463   2.973   1.852   1.239  0.2285 -0.4808 -0.5482
  155SOL    HW1  464   3.062   1.863   1.293  0.6664 -1.9597  0.6371
  155SOL    HW2  465   2.935   1.758   1.245  0.8128  1.7088 -1.0954
  156SOL     OW  466   2.149   2.204   0.155  0.3870  0.7166 -0.0481
  156SOL    HW1  467   2.235   2.173   0.189 -2.1161  2.3754 -1.0745
  156SOL    HW2  468   2.166   2.254   0.067  1.2352 -0.1604  1.5739
  157SOL     OW  469   0.960   2.803   0.962 -0.2970 -0.4659  0.0790
  157SOL    HW1  470   0.866   2.760   0.936 -0.3128 -0.5784 -0.5521
  157SOL    HW2  471   1.017   2.731   1.004  2.7358 -1.6874  2.3943
  158SOL     OW  472   2.472   0.509   2.383 -0.0520 -0.2870 -0.4991
  158SOL    HW1  473   2.396   0.578   2.371 -0.8932  1.8120  1.1345
  158SOL    HW2  474   2.563   0.542   2.348  0.4651  1.9313  0.6070
  159SOL     OW  475   0.628   0.397   3.052  0.3606 -0.7392  0.4649
  159SOL    HW1  476   0.668   0.481   0.019  0.4753  0.6529  2.3396
  159SOL    HW2  477   0.545   0.426   3.002 -1.4887 -1.5227 -1.0184
  160SOL     OW  478   0.800   2.113   0.159  0.3096  0.3286 -0.0581
  160SOL    HW1  479   0.782   2.191   0.092  0.2049  0.6507 -0.6544
  160SOL    HW2  480   0.870   2.042   0.131  0.2514  0.2281 -1.7784
  161SOL     OW  481   3.029   2.101   2.894 -0.1704 -0.0387  0.0493
  161SOL    HW1  482   0.025   2.133   2.829  0.6442  1.8286 -0.5178
  161SOL    HW2  483   2.951   2.163   2.927 -3.0846 -0.0877  2.7564
  162SOL     OW  484   0.406   2.656   1.074 -0.2418  0.3020 -0.2347
  162SOL    HW1  485   0.328   2.598   1.094  2.9003  0.7848 -3.1427
  162SOL    HW2  486   0.381   2.744   1.034  0.4279 -0.3850  1.6098
  163SOL     OW  487   2.250   0.488   2.986  0.1553 -0.0768  0.1753
  163SOL    HW1  488   2.251   0.549   3.065  2.7617 -3.7616 -1.8836
  163SOL    HW2  489   2.179   0.415   3.001 -1.5927 -0.0485  2.2902
  164SOL     OW  490   2.958   1.984   0.811 -0.2324 -0.4783 -0.3925
  164SOL    HW1  491   3.010   1.959   0.896  1.6428  2.0349 -2.5817
  164SOL    HW2  492   2.909   2.072   0.827  0.3669  2.1880 -0.3887
  165SOL     OW  493   2.884   2.886   1.496 -0.3252  0.4691  0.0950
  165SOL    HW1  494   2.947   2.955   1.525  1.0119 -2.2065  1.2221
  165SOL    HW2  495   2.788   2.925   1.510 -2.2088  0.3494  1.3882
  166SOL     OW  496   2.069   0.305   0.770 -0.2880 -0.3138  0.8195
  166SOL    HW1  497   2.096   0.392   0.724 -0.8002 -0.1682  0.0784
  166SOL    HW2  498   2.153   0.243   0.762  3.3868  1.2411 -1.7864
  167SOL     OW  499   0.492   0.409   0.917 -0.3379 -0.3184  0.1103
  167SOL    HW1  500   0.583   0.395   0.965 -3.2714 -2.1031 -2.4238
  167SOL    HW2  501   0.478   0.343   0.839 -1.0776  2.0645 -0.5343
  168SOL     OW  502   2.088   2.870   1.920  0.0824  0.0911  0.2215
  168SOL    HW1  503   2.071   2.807   1.999  1.2628 -0.4841  0.5408
  168SOL    HW2  504   2.163   2.836   1.863 -0.5988  0.2180 -1.4444
  169SOL     OW  505   0.073   1.333   0.678  0.7062 -0.0103  0.3115
  169SOL    HW1  506   0.160   1.338   0.732 -1.7652  0.4287  0.9712
  169SOL    HW2  507   0.088   1.361   0.580 -0.5838  0.6989  0.2173
  170SOL     OW  508   2.671   0.900   1.174  0.0509  0.2916 -0.0094
  170SOL    HW1  509   2.656   0.816   1.118  0.6073 -1.2611 -1.1231
  170SOL    HW2  510   2.594   0.917   1.237 -0.4216 -2.4098 -0.4790
  171SOL     OW  511   1.126   2.610   1.717 -0.1752  0.3118  1.2457
  171SOL    HW1  512   1.178   2.541   1.664 -1.2071  1.2032  1.0104
  171SOL    HW2  513   1.119   2.576   1.813  0.3286 -2.3784 -2.7462
  172SOL     OW  514   0.333   2.411   1.313  0.3482  0.7161  0.5306
  172SOL    HW1  515   0.389   2.396   1.396 -2.6398  0.3855 -1.3458
  172SOL    HW2  516   0.276   2.493   1.323 -1.1236 -2.7978  1.2604
  173SOL     OW  517   1.424   0.208   2.934 -0.5158 -0.2388  0.1898
  173SOL    HW1  518   1.460   0.158   2.856 -2.7931  2.4629  2.8544
  173SOL    HW2  519   1.462   0.301   2.926  3.1718  0.4836  2.6893
  174SOL     OW  520   1.236   2.370   2.923 -0.0589  0.3045  0.1369
  174SOL    HW1  521   1.216   2.343   3.016  2.4467  0.5740 -2.0744
  174SOL    HW2  522   1.156   2.393   2.865  1.7365 -0.9677 -0.5532
  175SOL     OW  523   1.649   2.750   2.949  0.0493 -0.0467  0.0438
  175SOL    HW1  524   1.655   2.807   3.035 -2.3614 -1.8040  0.6960
  175SOL    HW2  525   1.680   2.657   2.962 -0.3450  0.1597 -3.1241
  176SOL     OW  526   1.555   0.066   2.761  0.8047  0.0882 -0.6944
  176SOL    HW1  527   1.630   0.080   2.691  1.2621 -2.3772 -0.7247
  176SOL    HW2  528   1.487   3.074   2.729 -0.2134 -1.7635  2.4107
  177SOL     OW  529   0.939   1.455   0.786 -0.3046  0.0873  0.6155
  177SOL    HW1  530   1.004   1.475   0.859 -1.8208 -2.6930  0.0075
  177SOL    HW2  531   0.951   1.518   0.709  0.1144 -3.7515 -1.4008
  178SOL     OW  532   2.887   1.734   2.164 -0.3890  0.4519 -0.3851
  178SOL    HW1  533   2.875   1.715   2.068 -0.3773 -1.5848  0.1596
  178SOL    HW2  534   2.860   1.650   2.225 -0.7086 -2.9256  2.0842
  179SOL     OW  535   0.409   2.678   2.658 -0.5648  0.2439 -0.3304
  179SOL    HW1  536   0.382   2.772   2.684  1.5242  0.6300 -1.6499
  179SOL    HW2  537   0.443   2.684   2.564  0.5271 -0.3761  1.3221
  180SOL     OW  538   1.795   1.793   1.819  0.0416  0.7477  0.2382
  180SOL    HW1  539   1.878   1.812   1.875 -2.5880  1.4202 -0.4070
  180SOL    HW2  540   1.717   1.770   1.878  0.5885  1.1391 -3.7299
  181SOL     OW  541   1.000   1.184   2.319 -0.4882 -0.3855 -0.0439
  181SOL    HW1  542   1.029   1.177   2.414 -3.1142  2.0385  0.1741
  181SOL    HW2  543   1.038   1.266   2.277 -1.4137 -2.3042  2.2791
  182SOL     OW  544   0.083   0.218   2.593  0.5498 -0.6573 -0.1913
  182SOL    HW1  545   0.060   0.283   2.521 -1.7341  1.7181 -1.4600
  182SOL    HW2  546   0.176   0.185   2.570 -2.2747 -1.1845 -1.1077
  183SOL     OW  547   1.279   0.431   2.748  0.1700 -0.8448 -0.6696
  183SOL    HW1  548   1.305   0.371   2.668  0.8776 -3.2147  1.6013
  183SOL    HW2  549   1.365   0.469   2.790 -1.2318 -0.8766  0.3720
  184SOL     OW  550   1.106   1.208   1.319 -0.2797 -0.0577  0.0043
  184SOL    HW1  551   1.076   1.158   1.404 -0.1085 -1.0219  0.2393
  184SOL    HW2  552   1.039   1.206   1.241  1.3188 -3.9819 -2.3816
  185SOL     OW  553   2.896   1.274   1.290  0.2921 -0.9419  0.0175
  185SOL    HW1  554   2.965   1.316   1.349  2.1354  1.3123 -0.0806
  185SOL    HW2  555   2.811   1.253   1.340  2.0582  1.4784  2.4365
  186SOL     OW  556   0.747   1.727   2.589 -0.2082 -0.5516  0.1647
  186SOL    HW1  557   0.774   1.641   2.540 -1.3639  1.2863  0.7420
  186SOL    HW2  558   0.649   1.743   2.576  1.0517  0.0792 -2.3675
  187SOL     OW  559   2.679   1.490   0.178  0.0589 -0.1812  0.1207
  187SOL    HW1  560   2.673   1.397   0.144  0.7900 -1.1695  1.9868
  187SOL    HW2  561   2.704   1.497   0.277 -1.8017  1.1394  0.1784
  188SOL     OW  562   0.177   2.245   0.651  0.4990 -0.6029  0.1257
  188SOL    HW1  563   0.235   2.180   0.705  0.7174  3.7712 -0.3330
  188SOL    HW2  564   0.090   2.193   0.634  1.0558 -0.0515 -0.7392
  189SOL     OW  565   2.547   0.960   3.072 -0.2916  0.4452  0.3799
  189SOL    HW1  566   2.578   0.935   2.978  1.5953  0.5367  0.1616
  189SOL    HW2  567   2.616   0.935   0.061 -2.5673 -0.8189  0.3407
  190SOL     OW  568   1.087   1.417   2.247  0.1024 -0.2257  0.1731
  190SOL    HW1  569   1.189   1.422   2.263  0.1755 -1.3765  0.3217
  190SOL    HW2  570   1.063   1.462   2.158 -1.0130 -0.1358 -2.7889
  191SOL     OW  571   2.256   0.397   1.721 -0.0375 -0.6483  0.8305
  191SOL    HW1  572   2.314   0.422   1.642  1.2075 -0.9885  1.3605
  191SOL    HW2  573   2.248   0.293   1.722 -1.0889  0.0570 -1.0453
  192SOL     OW  574   2.003   0.227   1.526  0.1125 -0.3957  0.4857
  192SOL    HW1  575   2.036   0.129   1.526  1.3104 -0.0716 -0.6924
  192SOL    HW2  576   1.954   0.255   1.609  1.7731 -1.6169 -1.5433
  193SOL     OW  577   0.728   0.453   0.611 -0.4284 -0.0298 -0.1490
  193SOL    HW1  578   0.775   0.483   0.698  1.6112  0.1469 -0.8611
  193SOL    HW2  579   0.756   0.505   0.529 -1.0960 -1.0129  1.8361
  194SOL     OW  580   1.132   0.070   1.216  0.0042  0.2753  0.1186
  194SOL    HW1  581   1.227   0.058   1.245 -0.5942  2.4766 -2.3162
  194SOL    HW2  582   1.083   0.142   1.268 -1.7434 -1.4655 -3.1467
  195SOL     OW  583   2.554   0.821   0.352  0.2453 -0.2473  0.6079
  195SOL    HW1  584   2.634   0.840   0.291 -0.0750  0.0094 -0.6276
  195SOL    HW2  585   2.589   0.827   0.444 -0.2109 -0.5695  1.3493
  196SOL     OW  586   1.494   1.631   1.696 -0.2283 -0.3447  0.0882
  196SOL    HW1  587   1.585   1.602   1.743  2.8983 -1.6019  0.7969
  196SOL    HW2  588   1.408   1.621   1.757 -0.0451  1.8865  1.5435
  197SOL     OW  589   0.076   2.888   0.447  0.5990 -0.2861  0.0816
  197SOL    HW1  590   3.060   2.879   0.409 -0.8163  1.2646  0.5319
  197SOL    HW2  591   0.129   2.801   0.438 -0.0089 -0.4513  1.0300
  198SOL     OW  592   0.965   1.198   0.660 -0.3011  0.5903  0.3995
  198SOL    HW1  593   0.952   1.279   0.719  0.1236 -2.9845 -3.4579
  198SOL    HW2  594   0.881   1.194   0.595 -1.0869 -0.4578 -3.2416
  199SOL     OW  595   3.054   0.612   1.912 -0.1754  0.1478 -0.3929
  199SOL    HW1  596   2.971   0.598   1.970 -1.8279  2.3711 -0.2211
  199SOL    HW2  597   3.069   0.705   1.880 -2.9282  2.1335  0.3740
  200SOL     OW  598   2.135   1.971   2.683  0.2232 -0.5989 -0.5337
  200SOL    HW1  599   2.174   1.941   2.594 -0.0840  0.8446 -1.0451
  200SOL    HW2  600   2.123   1.894   2.741  0.2696  3.5566 -1.7252
  201SOL     OW  601   2.351   2.962   0.689  0.1776 -0.6191  0.5974
  201SOL    HW1  602   2.444   2.953   0.650  2.0890 -1.1950  0.3715
  201SOL    HW2  603   2.306   2.870   0.675 -3.4363  0.0853 -1.1192
  202SOL     OW  604   2.644   0.656   0.087 -0.4490 -0.0474 -0.0523
  202SOL    HW1  605   2.564   0.623   0.131  1.3743 -1.5020 -0.6200
  202SOL    HW2  606   2.697   0.576   0.051 -0.7254 -1.6637  0.4638
  203SOL     OW  607   1.362   1.400   2.232  0.4126 -0.1388 -0.0944
  203SOL    HW1  608   1.396   1.356   2.147 -3.1591  4.2396  0.6284
  203SOL    HW2  609   1.360   1.337   2.308  0.6094  0.7787 -2.7495
  204SOL     OW  610   0.797   1.699   2.047  0.0088  0.7518 -0.1754
  204SOL    HW1  611   0.811   1.791   2.087 -2.7485 -0.6952 -0.4076
  204SOL    HW2  612   0.715   1.652   2.092  2.1808 -1.3887 -0.7148
  205SOL     OW  613   1.307   1.993   1.499  0.8187  0.9734  0.1762
  205SOL    HW1  614   1.244   1.948   1.565 -0.5231 -0.4947 -0.5575
  205SOL    HW2  615   1.402   1.980   1.531 -1.9522 -1.7064 -0.7228
  206SOL     OW  616   0.105   0.389   2.820 -0.0135  0.1771  0.3518
  206SOL    HW1  617   0.107   0.320   2.745 -2.7186  0.7423  0.4616
  206SOL    HW2  618   0.109   0.485   2.777  1.5458  1.4727 -1.2565
  207SOL     OW  619   1.872   2.695   2.357  0.0006 -0.0834 -0.3195
  207SOL    HW1  620   1.914   2.636   2.280  0.1910  2.0770  0.7776
  207SOL    HW2  621   1.807   2.644   2.411  2.6074 -0.9070 -0.8079
  208SOL     OW  622   0.360   2.197   1.708  0.3249 -0.3135  0.1071
  208SOL    HW1  623   0.395   2.156   1.624 -1.8398  1.1405  2.9429
  208SOL    HW2  624   0.403   2.290   1.720  1.4565  0.3158 -0.5381
  209SOL     OW  625   1.693   0.777   2.798 -0.0148  0.5203  0.1505
  209SOL    HW1  626   1.647   0.805   2.710  1.4277  1.1752  2.0227
  209SOL    HW2  627   1.779   0.725   2.793  1.8130  1.5504  2.5734
  210SOL     OW  628   2.650   0.835   0.602  0.2929  0.3895  0.1838
  210SOL    HW1  629   2.697   0.927   0.604 -0.4841 -2.8134  0.3213
  210SOL    HW2  630   2.596   0.821   0.687 -2.7782  0.4853  0.8233
  211SOL     OW  631   0.843   0.584   0.858 -0.5466  0.6301 -0.0837
  211SOL    HW1  632   0.872   0.682   0.884 -1.1610  2.6271  2.5730
  211SOL    HW2  633   0.812   0.531   0.938  1.7889  2.4771 -1.1754
  212SOL     OW  634   1.072   1.455   0.367 -0.0126 -0.0952 -0.9507
  212SOL    HW1  635   1.082   1.357   0.394 -1.9629 -1.0024 -0.8683
  212SOL    HW2  636   1.162   1.493   0.337  1.3724 -2.1018  1.4552
  213SOL     OW  637   1.242   3.028   1.786 -0.1865 -0.3813 -0.3775
  213SOL    HW1  638   1.198   0.031   1.741  2.2226  0.6947 -2.9531
  213SOL    HW2  639   1.310   3.060   1.856 -0.6596  0.3484 -1.4767
  214SOL     OW  640   1.346   1.254   2.478  0.0336 -0.1392  0.1883
  214SOL    HW1  641   1.340   1.180   2.546  0.7305 -0.9353  1.3585
  214SOL    HW2  642   1.365   1.346   2.528  1.4106 -0.7530 -1.6586
  215SOL     OW  643   0.307   1.610   1.020 -0.0090 -0.2910  0.7219
  215SOL    HW1  644   0.262   1.524   1.039  1.8048  4.3840 -1.7950
  215SOL    HW2  645   0.246   1.663   0.958 -1.1000 -0.1509  0.0696
  216SOL     OW  646   0.525   2.915   2.357  0.2718  0.0376  0.2381
  216SOL    HW1  647   0.588   2.934   2.277  0.1177  0.2324 -0.6117
  216SOL    HW2  648   0.560   2.961   2.440 -4.3488  1.0286 -0.8566
  217SOL     OW  649   2.321   0.809   3.037 -0.1335 -0.1864 -0.8795
  217SOL    HW1  650   2.341   0.720   0.005 -0.9522  0.2969  1.1927
  217SOL    HW2  651   2.400   0.870   3.031 -1.8126  1.6296 -0.2949
  218SOL     OW  652   1.997   1.588   2.059 -0.2135  0.3740 -0.4241
  218SOL    HW1  653   2.085   1.575   2.106 -3.6160 -1.6227  1.9949
  218SOL    HW2  654   1.985   1.688   2.031  0.2627  4.1729 -1.2072
  219SOL     OW  655   1.542   1.082   0.387 -0.5358  0.1453 -0.4066
  219SOL    HW1  656   1.495   1.160   0.436  0.9852 -1.4964 -1.1445
  219SOL    HW2  657   1.612   1.122   0.325 -2.6634 -0.4646 -1.0762
  220SOL     OW  658   1.496   1.709   1.075  0.0966  0.4901 -0.4692
  220SOL    HW1  659   1.492   1.812   1.064 -1.6008 -3.1331  1.0498
  220SOL    HW2  660   1.490   1.667   0.985 -1.5661  0.9146  1.2944
  221SOL     OW  661   0.388   0.444   2.941  0.2476  0.1015 -0.4114
  221SOL    HW1  662   0.297   0.397   2.939  1.6671  0.6339 -0.7983
  221SOL    HW2  663   0.378   0.531   2.993 -0.1563 -1.7967  0.4494
  222SOL     OW  664   1.283   2.434   1.612 -0.1846 -0.2323  0.0286
  222SOL    HW1  665   1.226   2.353   1.621  0.6077  1.2065 -0.5167
  222SOL    HW2  666   1.379   2.413   1.590 -0.8936 -0.2496  1.7774
  223SOL     OW  667   1.341   2.600   2.847 -0.3199 -0.1230 -0.0783
  223SOL    HW1  668   1.407   2.596   2.927 -0.0885 -3.0974 -0.5067
  223SOL    HW2  669   1.289   2.513   2.853  0.7395 -0.4777 -2.3883
  224SOL     OW  670   2.657   1.381   1.088 -0.4399  0.0723  0.1309
  224SOL    HW1  671   2.697   1.289   1.111 -1.7644 -0.4879  0.1645
  224SOL    HW2  672   2.702   1.425   1.011 -0.9015 -1.3825 -0.8611
  225SOL     OW  673   1.492   1.114   1.166 -0.3785  0.5290  0.7001
  225SOL    HW1  674   1.437   1.175   1.219  1.4623 -4.6174 -0.2300
  225SOL    HW2  675   1.558   1.052   1.220  0.8578  0.1503 -0.2728
  226SOL     OW  676   1.489   2.238   3.036 -0.1814 -0.0582 -0.3668
  226SOL    HW1  677   1.570   2.208   0.018  2.2732  1.0966  1.0574
  226SOL    HW2  678   1.519   2.253   2.938  4.3931  0.6427  1.0165
  227SOL     OW  679   0.867   2.053   1.249 -0.0764  0.2709  0.6703
  227SOL    HW1  680   0.772   2.031   1.222  2.9404  1.6030 -1.7353
  227SOL    HW2  681   0.903   2.141   1.217 -1.0429 -2.1131  2.3293
  228SOL     OW  682   0.343   2.021   1.096 -0.6346 -0.1385  0.2982
  228SOL    HW1  683   0.299   2.069   1.174 -1.9328 -1.0671 -0.3479
  228SOL    HW2  684   0.350   1.925   1.122  1.7695  0.6254  0.7428
  229SOL     OW  685   2.059   0.840   2.997  0.5010 -0.1417 -0.0220
  229SOL    HW1  686   2.162   0.841   3.022  3.0885  2.6378  2.4613
  229SOL    HW2  687   2.010   0.779   3.064  2.1456  0.2082  0.1436
  230SOL     OW  688   0.988   0.788   2.080  0.6499 -0.3438 -0.3050
  230SOL    HW1  689   0.941   0.867   2.037 -1.6105  1.9594  1.4992
  230SOL    HW2  690   1.073   0.822   2.135 -0.1189  3.2354  2.0884
  231SOL     OW  691   1.379   1.677   2.074 -0.1850  0.2930  0.2654
  231SOL    HW1  692   1.362   1.651   1.976 -1.0800 -0.6245 -0.8834
  231SOL    HW2  693   1.406   1.593   2.123 -2.6172 -0.0831 -3.2176
  232SOL     OW  694   2.039   2.262   1.456  0.3064 -0.4619  0.1691
  232SOL    HW1  695   1.998   2.249   1.552 -0.3647  2.3341 -0.5483
  232SOL    HW2  696   2.024   2.360   1.427  1.0156  0.9973 -2.6672
  233SOL     OW  697   1.840   2.377   2.636  0.0197  0.8218 -0.9688
  233SOL    HW1  698   1.875   2.288   2.602 -0.8007 -0.2606 -0.7102
  233SOL    HW2  699   1.909   2.424   2.690 -0.2118 -0.4163  1.4575
  234SOL     OW  700   1.141   2.864   2.850  0.5028 -0.1533 -0.6988
  234SOL    HW1  701   1.188   2.794   2.912  1.4868 -2.6896 -1.6932
  234SOL    HW2  702   1.107   2.949   2.890 -2.3311  1.0710 -0.0029
  235SOL     OW  703   2.323   3.015   0.099  0.4943  0.0928 -0.1155
  235SOL    HW1  704   2.402   3.032   0.040 -2.7924 -0.3670  2.4623
  235SOL    HW2  705   2.341   2.955   0.175 -2.4575 -0.4798  1.8210
  236SOL     OW  706   2.262   2.522   2.563 -0.3801 -0.3441 -0.0116
  236SOL    HW1  707   2.238   2.457   2.490  0.1882 -1.4962  0.9934
  236SOL    HW2  708   2.363   2.532   2.567  0.4268  1.7146  0.0588
  237SOL     OW  709   1.612   1.201   1.623  0.0403  0.2533  0.0616
  237SOL    HW1  710   1.582   1.102   1.627 -1.7508 -0.5550  1.8921
  237SOL    HW2  711   1.624   1.234   1.527 -0.4011 -0.5497  0.8801
  238SOL     OW  712   2.110   0.365   2.160  0.2083 -0.2545 -0.3204
  238SOL    HW1  713   2.201   0.390   2.123  0.5183  1.2420 -1.4512
  238SOL    HW2  714   2.093   0.264   2.149  0.0350  0.3698 -1.6722
  239SOL     OW  715   0.532   1.589   2.140  0.0512 -0.0399  0.3362
  239SOL    HW1  716   0.476   1.504   2.134  1.0798  0.0466 -0.3675
  239SOL    HW2  717   0.481   1.656   2.082 -1.1105 -1.2170  0.6371
  240SOL     OW  718   3.012   2.781   0.797  0.2770  0.3555  0.2912
  240SOL    HW1  719   0.026   2.792   0.761  3.3479  2.0771 -4.2688
  240SOL    HW2  720   3.000   2.708   0.868  1.2502  0.7382 -1.5448
  241SOL     OW  721   1.728   2.074   0.960  0.2055 -0.3343  0.5513
  241SOL    HW1  722   1.772   2.008   1.022  2.5735  1.0666  0.2999
  241SOL    HW2  723   1.775   2.065   0.869  0.4053  1.4121  0.4850
  242SOL     OW  724   1.218   1.721   2.946  1.1091  0.2401  0.2951
  242SOL    HW1  725   1.311   1.711   2.904  1.6861  2.9063 -1.8409
  242SOL    HW2  726   1.166   1.801   2.913 -2.2135 -2.7394  1.7750
  243SOL     OW  727   1.000   2.667   2.265 -0.4093  0.2445  0.3333
  243SOL    HW1  728   0.906   2.639   2.243  1.2853  2.4758  0.1728
  243SOL    HW2  729   1.038   2.618   2.346 -1.4785  1.2325  1.7505
  244SOL     OW  730   1.767   0.082   2.597  0.6642  0.3253 -0.6184
  244SOL    HW1  731   1.834   0.012   2.632  0.0648 -0.7678  0.1154
  244SOL    HW2  732   1.816   0.125   2.520 -0.8509 -0.0304 -1.2343
  245SOL     OW  733   1.327   2.828   0.603  0.3596 -0.8540 -0.5290
  245SOL    HW1  734   1.380   2.787   0.525  0.0664 -1.9335 -1.8351
  245SOL    HW2  735   1.332   2.931   0.593  0.1692 -0.2199  1.0659
  246SOL     OW  736   1.001   0.020   2.935 -0.4942  0.1650 -0.2522
  246SOL    HW1  737   0.898   0.017   2.931  0.3886 -0.7870 -0.9356
  246SOL    HW2  738   1.034   0.064   3.020 -4.7506  1.0426 -1.4708
  247SOL     OW  739   0.276   0.785   2.107 -0.2877 -0.5108 -0.8865
  247SOL    HW1  740   0.303   0.791   2.010 -1.7931  2.8550  2.3796
  247SOL    HW2  741   0.302   0.693   2.147 -0.1426 -1.5590  1.3998
  248SOL     OW  742   0.840   1.012   2.035  0.1148  0.2063 -0.0175
  248SOL    HW1  743   0.835   1.011   2.136  0.1863  0.3155 -0.0494
  248SOL    HW2  744   0.815   1.110   2.015 -0.3132 -2.3662  2.3807
  249SOL     OW  745   2.009   0.375   0.292  0.8609  0.0421 -0.3121
  249SOL    HW1  746   2.077   0.312   0.261 -2.7537  0.5494  2.0727
  249SOL    HW2  747   1.969   0.424   0.215  2.4586 -4.1893 -0.4787
  250SOL     OW  748   0.825   3.069   0.538 -0.1144  0.8442 -0.4725
  250SOL    HW1  749   0.878   3.004   0.594 -0.0661  2.2481 -1.1098
  250SOL    HW2  750   0.798   3.015   0.449 -0.4832 -1.8050 -1.0019
  251SOL     OW  751   1.331   2.923   2.625  0.3047 -0.0826  0.3444
  251SOL    HW1  752   1.281   2.877   2.699 -0.8649 -1.5381 -3.1012
  251SOL    HW2  753   1.272   2.957   2.548 -1.2417 -1.2363  4.7755
  252SOL     OW  754   1.841   1.285   2.283  0.0425 -0.2433  0.7922
  252SOL    HW1  755   1.801   1.244   2.365  2.0159  2.1527  1.2290
  252SOL    HW2  756   1.833   1.231   2.197 -3.3642  0.5817 -3.0176
  253SOL     OW  757   2.288   2.518   2.101 -0.2142 -0.1931 -0.1811
  253SOL    HW1  758   2.356   2.569   2.043 -0.1832  0.7791  0.1985
  253SOL    HW2  759   2.209   2.584   2.113 -2.6893 -0.8127 -1.3090
  254SOL     OW  760   1.133   2.222   1.637  0.0827 -0.4055 -0.2228
  254SOL    HW1  761   1.046   2.246   1.590  0.3293 -0.9489 -0.0691
  254SOL    HW2  762   1.182   2.142   1.600  1.0014  1.7636  1.8447
  255SOL     OW  763   1.061   1.047   0.869 -0.2136  0.1344  0.2294
  255SOL    HW1  764   1.146   1.071   0.923  0.0992 -0.9798  2.5961
  255SOL    HW2  765   1.045   1.103   0.784 -0.1573 -0.8401  0.7254
  256SOL     OW  766   1.681   1.988   2.229  0.2231  0.1271  0.6555
  256SOL    HW1  767   1.744   2.045   2.176 -0.5856 -1.9030  2.0558
  256SOL    HW2  768   1.662   1.908   2.171  1.3193  0.4861  0.5440
  257SOL     OW  769   0.320   2.601   2.927 -0.2354  0.1002 -0.0200
  257SOL    HW1  770   0.356   2.627   2.832 -1.3876  2.1264 -0.5466
  257SOL    HW2  771   0.282   2.506   2.931  1.2630  1.9944 -0.1896
  258SOL     OW  772   0.776   0.211   2.069 -0.3109 -0.4012  0.3931
  258SOL    HW1  773   0.861   0.209   2.127  0.7662  0.1579  1.6136
  258SOL    HW2  774   0.803   0.177   1.974  1.4813 -1.6612 -0.6036
  259SOL     OW  775   1.041   0.226   2.178 -0.0396 -0.4209 -0.5887
  259SOL    HW1  776   1.106   0.148   2.155 -0.4633 -3.1545 -1.8422
  259SOL    HW2  777   1.077   0.284   2.256 -0.2967  1.6599 -2.6745
  260SOL     OW  778   1.546   0.745   0.886  0.0059  0.1831  0.1100
  260SOL    HW1  779   1.565   0.845   0.904  1.4154  1.9696 -1.0962
  260SOL    HW2  780   1.484   0.733   0.806  1.5877  1.3164 -2.1655
  261SOL     OW  781   0.538   0.214   2.736 -0.6613 -0.4157 -1.0177
  261SOL    HW1  782   0.460   0.202   2.794 -3.3791  1.1360 -1.2842
  261SOL    HW2  783   0.629   0.232   2.790 -0.3698 -1.1347  2.7559
  262SOL     OW  784   2.561   2.792   2.253 -0.2103  0.5290  0.0531
  262SOL    HW1  785   2.597   2.769   2.161  0.8067  2.6219 -0.5391
  262SOL    HW2  786   2.607   2.874   2.293  0.0566  2.0060 -1.3563
  263SOL     OW  787   0.335   1.955   2.321 -0.0889  0.0727 -0.1109
  263SOL    HW1  788   0.266   1.927   2.393 -0.5993 -2.6308 -1.5248
  263SOL    HW2  789   0.416   1.992   2.364  1.4735  0.2738 -0.8040
  264SOL     OW  790   0.954   1.187   1.097 -0.0036  0.6049  0.0872
  264SOL    HW1  791   0.989   1.280   1.074  1.2629  2.7223  0.6257
  264SOL    HW2  792   0.995   1.122   1.031 -0.2537  1.5383 -5.1321
  265SOL     OW  793   0.556   1.962   0.118 -0.1504  0.3283 -0.3734
  265SOL    HW1  794   0.473   1.985   0.171  0.3045  0.7031 -1.4780
  265SOL    HW2  795   0.631   2.028   0.139 -2.4787 -0.6052  0.2275
  266SOL     OW  796   1.109   0.936   0.347 -0.0404 -0.1962  0.6709
  266SOL    HW1  797   1.201   0.913   0.310 -0.3780 -1.2997 -2.3896
  266SOL    HW2  798   1.095   0.893   0.437 -2.2206 -0.0027 -2.4355
  267SOL     OW  799   2.892   1.201   0.194  0.1743  0.2885 -0.2216
  267SOL    HW1  800   2.964   1.268   0.217  1.6064  1.5949  1.4588
  267SOL    HW2  801   2.927   1.125   0.134  1.2942 -0.5262  0.7778
  268SOL     OW  802   2.306   0.304   2.791  0.3020  0.2636  0.1213
  268SOL    HW1  803   2.351   0.223   2.838  2.6916  0.2021  1.5311
  268SOL    HW2  804   2.319   0.383   2.845  0.2306  1.3248  1.0970
  269SOL     OW  805   1.659   0.415   2.485 -0.2500 -0.0092  0.7134
  269SOL    HW1  806   1.677   0.362   2.399  2.9133  1.1251  1.0285
  269SOL    HW2  807   1.608   0.502   2.468 -2.1401  1.3163  0.6489
  270SOL     OW  808   0.845   0.966   2.595 -0.0376  0.2136 -0.3735
  270SOL    HW1  809   0.928   1.027   2.599  1.2220  0.2962 -1.2746
  270SOL    HW2  810   0.868   0.868   2.607 -0.7263 -0.2524  1.1134
  271SOL     OW  811   2.731   1.165   0.400 -0.5428  0.4147  0.2781
  271SOL    HW1  812   2.784   1.125   0.318 -0.1031  0.2221 -3.9631
  271SOL    HW2  813   2.753   1.266   0.402 -0.6726  0.1711  0.8360
  272SOL     OW  814   2.769   1.536   2.825 -0.0645 -0.2467 -0.8280
  272SOL    HW1  815   2.675   1.553   2.794 -1.4583 -0.8315  2.7916
  272SOL    HW2  816   2.839   1.599   2.788  1.6967  0.4379  2.5100
  273SOL     OW  817   2.205   0.093   0.374 -0.2732 -0.0960  0.1825
  273SOL    HW1  818   2.237   0.177   0.421  1.3265 -2.1479 -1.4713
  273SOL    HW2  819   2.224   0.105   0.277 -1.7551  1.0128  3.3084
  274SOL     OW  820   0.323   2.336   1.039  0.1913  0.1014 -0.3987
  274SOL    HW1  821   0.353   2.250   0.999 -0.1222  0.1696 -1.7950
  274SOL    HW2  822   0.343   2.342   1.139 -0.3127  0.5438  1.5893
  275SOL     OW  823   2.340   1.465   0.373  0.2188 -0.0832 -0.4118
  275SOL    HW1  824   2.357   1.507   0.279 -2.8104  1.8847  0.2879
  275SOL    HW2  825   2.396   1.378   0.386  1.2567 -0.0928 -1.6467
  276SOL     OW  826   2.985   1.299   2.413  0.4081 -0.3007 -0.4467
  276SOL    HW1  827   0.001   1.274   2.441  0.1119  2.6700  0.4500
  276SOL    HW2  828   2.942   1.226   2.359 -1.1526  1.5876  1.9731
  277SOL     OW  829   1.961   2.856   1.273  0.1344  0.1899 -0.3303
  277SOL    HW1  830   1.941   2.941   1.217  1.7277  1.8434 -3.2445
  277SOL    HW2  831   2.047   2.813   1.239 -0.8879  1.1870  1.3520
  278SOL     OW  832   1.172   3.067   2.074 -0.2051  0.7185  0.0105
  278SOL    HW1  833   1.111   3.009   2.011 -0.1462  0.9220 -0.8336
  278SOL    HW2  834   1.266   3.078   2.034  3.1445 -1.2917 -1.0960
  279SOL     OW  835   1.775   1.723   0.480 -0.1167  0.4163  0.3367
  279SOL    HW1  836   1.764   1.764   0.574 -1.2309  1.7796  2.5822
  279SOL    HW2  837   1.869   1.741   0.446 -2.1328  0.8169 -1.3583
  280SOL     OW  838   0.331   1.620   0.639  0.1531 -0.4842  0.6015
  280SOL    HW1  839   0.410   1.682   0.609 -0.4930  1.7377 -1.7104
  280SOL    HW2  840   0.274   1.664   0.705  0.5051  0.7224 -0.1763
  281SOL     OW  841   2.850   0.361   2.522 -0.4093  0.2873 -0.1566
  281SOL    HW1  842   2.853   0.292   2.447 -0.7007 -2.6782 -1.2553
  281SOL    HW2  843   2.807   0.312   2.604  0.5588 -1.2672  1.4960
  282SOL     OW  844   0.360   0.872   0.485 -0.2374 -0.6408 -0.3083
  282SOL    HW1  845   0.354   0.869   0.587  0.6193 -1.4678  0.2450
  282SOL    HW2  846   0.296   0.799   0.451 -1.0302  1.5967 -0.4076
  283SOL     OW  847   1.887   1.864   0.110  0.0819 -0.2127  0.0479
  283SOL    HW1  848   1.922   1.927   0.186  1.1703  1.1606 -1.5555
  283SOL    HW2  849   1.945   1.875   0.024 -2.4274 -0.1975  1.3402
  284SOL     OW  850   1.364   0.895   0.262 -0.2261 -0.4693  0.3721
  284SOL    HW1  851   1.376   0.896   0.160  0.2924 -0.3029  0.8572
  284SOL    HW2  852   1.436   0.949   0.309 -0.2814  2.5147  2.5435
  285SOL     OW  853   2.203   0.631   2.421 -0.2197 -0.0451  0.3775
  285SOL    HW1  854   2.177   0.693   2.343 -0.9375  0.5206 -0.6234
  285SOL    HW2  855   2.116   0.594   2.464 -0.9663 -2.0664  1.3530
  286SOL     OW  856   1.700   2.758   1.293 -0.2922 -0.4756  0.1282
  286SOL    HW1  857   1.700   2.682   1.358  0.4258 -0.9590 -0.6782
  286SOL    HW2  858   1.789   2.804   1.287  0.3160  1.2432  4.0776
  287SOL     OW  859   1.294   1.062   0.995 -0.5405  0.3289  0.3228
  287SOL    HW1  860   1.263   0.965   1.003 -0.5309  1.4225 -0.8760
  287SOL    HW2  861   1.356   1.075   1.076  0.1800 -1.7538  2.2274
  288SOL     OW  862   0.850   2.827   0.079 -0.1224 -0.0383  0.4368
  288SOL    HW1  863   0.852   2.908   0.014 -0.8526  0.5121  0.7632
  288SOL    HW2  864   0.944   2.789   0.093 -1.2415  2.1672 -2.0562
  289SOL     OW  865   0.322   1.449   1.870 -0.0074  0.2839 -0.9606
  289SOL    HW1  866   0.422   1.430   1.855  1.6262 -0.9849  1.5537
  289SOL    HW2  867   0.289   1.536   1.822  1.0539  4.1208 -0.0623
  290SOL     OW  868   1.664   2.301   1.110  0.4576  0.0391 -0.5597
  290SOL    HW1  869   1.677   2.208   1.069 -0.5418  0.2792  3.0637
  290SOL    HW2  870   1.591   2.359   1.065 -2.0657  2.5757  0.9587
  291SOL     OW  871   1.868   2.221   2.926 -0.2555 -0.2531 -0.1718
  291SOL    HW1  872   1.791   2.278   2.889 -2.4110  1.2798  1.0287
  291SOL    HW2  873   1.955   2.270   2.931 -0.0945 -0.3662 -0.2356
  292SOL     OW  874   0.942   0.764   1.676  0.2261  0.0564  0.0514
  292SOL    HW1  875   0.973   0.698   1.749  1.5318 -0.1749  0.2130
  292SOL    HW2  876   1.017   0.790   1.617  0.7680  0.8772 -1.7594
  293SOL     OW  877   1.847   2.636   0.941 -0.2723 -0.1884 -0.1241
  293SOL    HW1  878   1.797   2.707   0.993  0.5768  0.1827  1.6893
  293SOL    HW2  879   1.923   2.682   0.898 -1.8694  0.3179 -0.6538
  294SOL     OW  880   0.499   0.812   2.452 -0.0824 -0.6745  0.4199
  294SOL    HW1  881   0.434   0.744   2.481  2.4836  1.4370 -2.5980
  294SOL    HW2  882   0.588   0.787   2.488 -2.0528 -0.5464  0.2962
  295SOL     OW  883   1.465   1.671   0.802  0.2273 -0.2299 -0.3158
  295SOL    HW1  884   1.473   1.591   0.740 -1.1599  0.3477  3.0073
  295SOL    HW2  885   1.372   1.678   0.839 -1.6173 -1.7809 -0.8352
  296SOL     OW  886   2.378   2.093   0.285  0.0985  0.1572 -0.4158
  296SOL    HW1  887   2.465   2.095   0.238 -3.9229  1.2741  1.8853
  296SOL    HW2  888   2.358   2.004   0.331 -0.8191  0.2706 -1.6494
  297SOL     OW  889   2.223   0.174   0.116  0.0392  0.1112  0.2816
  297SOL    HW1  890   2.248   0.086   0.070 -1.4355 -0.8608 -2.1020
  297SOL    HW2  891   2.156   0.226   0.055 -2.2731 -1.2362 -0.5023
  298SOL     OW  892   1.280   2.107   2.831  0.1230  0.7428 -0.2675
  298SOL    HW1  893   1.185   2.085   2.857  0.1256  2.7340 -0.4580
  298SOL    HW2  894   1.298   2.203   2.847  0.8514  0.3994  0.2604
  299SOL     OW  895   1.298   2.645   2.551 -0.3344 -0.0516  0.2563
  299SOL    HW1  896   1.387   2.613   2.513  0.1868  2.3544  0.8779
  299SOL    HW2  897   1.312   2.663   2.651 -1.1978  0.3394  3.6457
  300SOL     OW  898   2.035   0.003   2.573  0.7716  0.0209  0.4572
  300SOL    HW1  899   2.050   0.103   2.584  0.7580  0.7886  0.9192
  300SOL    HW2  900   2.068   3.055   2.479 -2.5413 -0.0607  0.7469
  301SOL     OW  901   1.358   1.009   2.026  0.7431 -0.1839 -0.1904
  301SOL    HW1  902   1.398   1.099   2.054  0.5090  3.6312 -1.0148
  301SOL    HW2  903   1.416   0.933   1.990 -1.6180  0.4525 -0.6354
  302SOL     OW  904   2.850   2.283   0.037  0.1958  0.3208  0.1253
  302SOL    HW1  905   2.816   2.379   0.026 -1.5014  0.8097  0.8832
  302SOL    HW2  906   2.952   2.292   0.044  2.5116 -0.4972 -0.8266
  303SOL     OW  907   2.810   2.476   2.297  0.2437  0.2139  0.2051
  303SOL    HW1  908   2.902   2.445   2.321  0.6795  4.6277 -1.3427
  303SOL    HW2  909   2.775   2.425   2.217 -0.3818  0.7916  3.5856
  304SOL     OW  910   2.769   0.503   1.698  0.2003  0.7999  0.0299
  304SOL    HW1  911   2.783   0.443   1.781 -2.1207  0.5240  1.3550
  304SOL    HW2  912   2.743   0.450   1.614  1.0038 -1.4367  3.5778
  305SOL     OW  913   0.747   2.051   1.766 -0.6237 -0.4628 -0.0613
  305SOL    HW1  914   0.767   2.150   1.741  1.5999 -0.9642  0.5110
  305SOL    HW2  915   0.711   2.011   1.683  0.4371  1.5137  3.7644
  306SOL     OW  916   2.760   0.791   1.692  0.2130 -0.3357 -0.1880
  306SOL    HW1  917   2.661   0.784   1.662  1.2355  2.0994 -0.0810
  306SOL    HW2  918   2.790   0.698   1.720 -1.1168 -4.4618 -1.2300
  307SOL     OW  919   1.515   0.774   1.953  0.4532 -0.0846 -0.2325
  307SOL    HW1  920   1.597   0.781   1.889  1.5415 -0.4320 -3.7446
  307SOL    HW2  921   1.432   0.736   1.899 -5.3405 -2.2120 -3.1314
  308SOL     OW  922   2.839   1.616   1.245 -0.0246  0.2837 -0.1539
  308SOL    HW1  923   2.892   1.552   1.187 -1.2631 -0.0043  1.3849
  308SOL    HW2  924   2.744   1.627   1.209 -0.8922  1.7026 -1.4566
  309SOL     OW  925   2.515   1.513   1.262  0.2910 -0.4641 -0.1906
  309SOL    HW1  926   2.455   1.583   1.221 -0.3600  1.3772  0.0037
  309SOL    HW2  927   2.559   1.456   1.190  1.2023  1.7443  2.2405
  310SOL     OW  928   2.745   1.857   2.515  0.2593 -0.0807  0.1425
  310SOL    HW1  929   2.644   1.835   2.509 -4.5817 -1.1499 -1.8731
  310SOL    HW2  930   2.766   1.910   2.600 -1.7046 -0.9408  0.3217
  311SOL     OW  931   2.950   2.750   0.191 -0.2033  0.1729 -0.1703
  311SOL    HW1  932   2.916   2.824   0.254 -0.1261  2.0635  1.1063
  311SOL    HW2  933   2.988   2.672   0.247  0.8181 -1.3003 -0.5472
  312SOL     OW  934   1.855   1.597   0.782 -0.1604 -0.3075 -0.4183
  312SOL    HW1  935   1.878   1.694   0.813  1.1437  0.2690  2.1282
  312SOL    HW2  936   1.910   1.526   0.825 -2.4110  2.3339  2.0203
  313SOL     OW  937   2.522   0.083   0.875  0.2566  0.4908 -0.4119
  313SOL    HW1  938   2.433   0.092   0.837  1.0546  1.1468  2.3661
  313SOL    HW2  939   2.596   0.128   0.824  1.0585 -0.9416  0.7315
  314SOL     OW  940   1.254   1.528   0.168 -0.1709 -0.8946 -0.2071
  314SOL    HW1  941   1.314   1.539   0.242 -2.7444 -2.3753 -4.2114
  314SOL    HW2  942   1.215   1.616   0.139  1.4943  0.1473  1.2220
  315SOL     OW  943   1.373   2.277   2.120 -0.4075  0.2245 -0.4593
  315SOL    HW1  944   1.384   2.376   2.110  0.9258 -2.9274  0.9290
  315SOL    HW2  945   1.318   2.243   2.039 -2.2088 -2.3618 -1.8711
  316SOL     OW  946   3.051   1.054   0.463  0.0824  0.6492  0.2838
  316SOL    HW1  947   2.999   1.038   0.546 -1.3733  0.3722 -3.2949
  316SOL    HW2  948   0.074   1.072   0.482  1.4658  2.0935 -1.2613
  317SOL     OW  949   0.448   0.043   0.382 -0.2391  0.1249 -0.1537
  317SOL    HW1  950   0.385   0.022   0.459 -0.4282 -0.5804  0.7414
  317SOL    HW2  951   0.463   3.040   0.319  1.1532 -2.7383  1.3616
  318SOL     OW  952   2.663   2.154   0.476 -0.0532  0.4058  0.2640
  318SOL    HW1  953   2.611   2.158   0.562 -1.3220 -0.3753  1.6457
  318SOL    HW2  954   2.737   2.088   0.472  0.5886  1.2969  0.2998
  319SOL     OW  955   0.793   1.368   2.787 -0.1389  0.3338  0.0650
  319SOL    HW1  956   0.770   1.381   2.885  0.1870 -0.1273 -3.1657
  319SOL    HW2  957   0.889   1.386   2.761  0.3959 -0.3133 -0.8210
  320SOL     OW  958   0.802   2.331   1.753 -0.4892  0.0411  0.0663
  320SOL    HW1  959   0.779   2.428   1.764  0.7316 -4.4119  0.0735
  320SOL    HW2  960   0.833   2.314   1.656 -0.7502  4.3169  2.9259
  321SOL     OW  961   1.620   1.991   0.027 -0.0864 -0.4630 -0.2379
  321SOL    HW1  962   1.656   1.983   0.122  1.4120  0.1447  0.9092
  321SOL    HW2  963   1.706   1.998   3.048  0.9393  0.5455  0.6297
  322SOL     OW  964   2.898   1.374   2.050  0.1071  0.1454  0.1363
  322SOL    HW1  965   2.867   1.333   2.134  3.0058 -0.0603 -3.2857
  322SOL    HW2  966   2.882   1.313   1.969  0.2971  0.1034  1.6460
  323SOL     OW  967   2.477   1.203   0.394  0.3279  0.2523  0.4069
  323SOL    HW1  968   2.433   1.131   0.337 -0.7538 -2.1201 -0.5747
  323SOL    HW2  969   2.576   1.183   0.408  0.8245 -1.1823 -0.5475
  324SOL     OW  970   0.021   2.835   2.807 -0.0979  0.1387  0.1738
  324SOL    HW1  971   0.039   2.755   2.747 -1.0782  0.4491  2.8823
  324SOL    HW2  972   0.023   2.816   2.907  0.3618 -2.0098  0.0500
  325SOL     OW  973   1.671   0.262   2.190  0.5857 -0.1198  0.4854
  325SOL    HW1  974   1.758   0.218   2.159  0.1968 -0.0027  1.7653
  325SOL    HW2  975   1.608   0.193   2.230  0.1159 -1.3591 -1.3465
  326SOL     OW  976   2.236   2.608   1.452 -0.6547  0.0769 -0.1840
  326SOL    HW1  977   2.242   2.522   1.509  1.4342  0.5035  2.3978
  326SOL    HW2  978   2.207   2.588   1.357  0.9259 -1.3474  1.1623
  327SOL     OW  979   1.725   0.171   2.927  0.2796 -0.1723 -0.0915
  327SOL    HW1  980   1.780   0.094   2.967  2.6413  1.2499 -1.6417
  327SOL    HW2  981   1.644   0.134   2.878  2.7159  2.9203  0.8642
  328SOL     OW  982   3.019   0.681   2.337 -0.0179  0.1816  0.6625
  328SOL    HW1  983   3.046   0.775   2.307  0.8873 -0.5379  0.2134
  328SOL    HW2  984   2.991   0.674   2.434 -0.2942 -1.4481 -1.1785
  329SOL     OW  985   1.434   0.029   1.956 -0.0842 -0.0058  0.0296
  329SOL    HW1  986   1.424   0.127   1.923 -2.1179  3.0657  0.1087
  329SOL    HW2  987   1.530   3.073   1.979 -0.4170 -2.7922 -0.2066
  330SOL     OW  988   2.797   1.964   1.419 -0.3984  0.3404 -0.3722
  330SOL    HW1  989   2.837   1.908   1.348 -0.2373  0.7129  0.9323
  330SOL    HW2  990   2.827   1.928   1.508 -0.5638  1.8786  0.5114
  331SOL     OW  991   0.456   1.549   2.405  0.3878  0.2774 -0.2874
  331SOL    HW1  992   0.481   1.582   2.314  1.4764 -0.4604  0.9648
  331SOL    HW2  993   0.513   1.466   2.433 -1.1902 -0.0272  3.1125
  332SOL     OW  994   0.188   2.904   1.481  0.2928  0.2943 -0.1232
  332SOL    HW1  995   0.287   2.931   1.470  1.5221 -1.7353  0.8929
  332SOL    HW2  996   0.124   2.983   1.477 -0.8582  0.4115 -0.8532
  333SOL     OW  997   2.478   2.739   1.395  0.6472 -0.4434  0.6334
  333SOL    HW1  998   2.547   2.673   1.421  0.6343 -2.4194 -1.8513
  333SOL    HW2  999   2.388   2.691   1.406  2.8254 -2.5252  0.7816
  334SOL     OW 1000   0.951   1.882   1.053 -0.1758  0.3110  0.5245
  334SOL    HW1 1001   0.923   1.937   1.134  0.2032  0.0209 -0.5547
  334SOL    HW2 1002   0.992   1.940   0.984 -0.9866  2.6010  0.7706
  335SOL     OW 1003   0.495   2.241   0.111 -0.2656  0.6901 -0.3026
  335SOL    HW1 1004   0.468   2.205   0.020  3.1097  1.5103  4.0450
  335SOL    HW2 1005   0.456   2.185   0.184  0.2187  1.6353 -0.9141
  336SOL     OW 1006   0.344   0.108   1.801  0.4727  0.1683  0.4845
  336SOL    HW1 1007   0.266   0.143   1.747  2.0173 -2.8820 -0.2410
  336SOL    HW2 1008   0.435   0.137   1.773 -0.4140  0.0696  0.7183
  337SOL     OW 1009   2.636   1.863   2.911  0.7203 -0.0061  0.3709
  337SOL    HW1 1010   2.588   1.934   2.973 -1.8708  2.5721  1.6016
  337SOL    HW2 1011   2.668   1.777   2.958 -1.8883 -2.1910 -1.1374
  338SOL     OW 1012   1.055   1.666   1.154  0.0075  0.2750  0.4688
  338SOL    HW1 1013   1.145   1.692   1.201  0.1537 -1.9245 -0.7669
  338SOL    HW2 1014   1.019   1.750   1.102  0.4058  2.3632 -3.7747
  339SOL     OW 1015   0.022   0.313   1.991 -0.1871 -0.5379 -0.0979
  339SOL    HW1 1016   0.015   0.414   1.969 -1.6932 -0.8023 -1.1945
  339SOL    HW2 1017   0.081   0.305   2.074  0.1452 -1.6482  1.2117
  340SOL     OW 1018   1.689   2.474   0.448  0.3794  0.2300  0.4846
  340SOL    HW1 1019   1.681   2.411   0.367 -0.0370 -2.7184  0.2206
  340SOL    HW2 1020   1.697   2.421   0.532 -0.5187 -0.7713 -0.2187
  341SOL     OW 1021   1.888   1.405   1.146 -0.0866  0.8402 -0.0529
  341SOL    HW1 1022   1.927   1.309   1.160 -2.8404 -1.8106  0.2180
  341SOL    HW2 1023   1.787   1.405   1.166 -1.9243  2.1060 -1.4640
  342SOL     OW 1024   0.027   2.010   0.579 -0.2941 -0.0495 -0.0088
  342SOL    HW1 1025   3.047   1.996   0.662 -0.9243 -1.8793 -1.5333
  342SOL    HW2 1026   0.035   1.929   0.526  0.9453  0.3839 -1.5299
  343SOL     OW 1027   1.429   2.445   1.049  0.2008  0.0077 -0.2214
  343SOL    HW1 1028   1.418   2.542   1.036 -1.3854 -0.5241  1.2695
  343SOL    HW2 1029   1.372   2.416   1.131  0.4953  1.2035 -0.8847
  344SOL     OW 1030   2.075   2.775   0.829 -0.0883  0.6461  0.2680
  344SOL    HW1 1031   2.019   2.842   0.775 -2.3845 -1.1285 -0.0011
  344SOL    HW2 1032   2.146   2.734   0.766 -1.2553  0.0237 -0.8304
  345SOL     OW 1033   2.809   1.991   2.735 -0.2028 -0.4474  0.0805
  345SOL    HW1 1034   2.774   1.905   2.775  2.2425 -0.9039  0.7546
  345SOL    HW2 1035   2.894   2.030   2.778  4.4709 -1.6228  1.2581
  346SOL     OW 1036   0.139   1.739   0.810  0.5209  0.0084  0.3912
  346SOL    HW1 1037   0.059   1.674   0.807  0.6386 -0.4670 -1.6126
  346SOL    HW2 1038   0.102   1.831   0.788  1.4969  0.4501  0.7709
  347SOL     OW 1039   1.921   2.509   1.410 -0.0794 -0.5741 -0.0891
  347SOL    HW1 1040   1.836   2.548   1.453 -3.3343  2.2073  2.3706
  347SOL    HW2 1041   1.915   2.533   1.313  2.6502  1.9517  0.7209
  348SOL     OW 1042   1.082   1.607   2.515  0.4200 -0.4130  0.4183
  348SOL    HW1 1043   0.981   1.619   2.506  0.3444 -1.0162  0.2033
  348SOL    HW2 1044   1.138   1.691   2.496  0.0868 -0.6540  0.0984
  349SOL     OW 1045   2.422   1.231   2.040  0.0324 -0.2783  0.0477
  349SOL    HW1 1046   2.330   1.197   2.061  0.8794 -2.2374 -2.4291
  349SOL    HW2 1047   2.408   1.324   2.007  1.0755 -2.4597  3.6010
  350SOL     OW 1048   3.016   2.506   1.397  0.3660  0.8940  0.4319
  350SOL    HW1 1049   0.010   2.567   1.361  0.2226  1.0077  1.8345
  350SOL    HW2 1050   2.940   2.501   1.328  0.3283  2.8491 -0.0609
  351SOL     OW 1051   0.508   0.494   2.638 -0.0743  0.1115 -0.5232
  351SOL    HW1 1052   0.570   0.443   2.571 -0.0864  1.7753  1.5404
  351SOL    HW2 1053   0.479   0.429   2.713  2.0773 -3.4218  0.2484
  352SOL     OW 1054   0.773   2.469   1.373  0.6487  0.2616 -0.1454
  352SOL    HW1 1055   0.760   2.565   1.341  3.4663 -1.0480 -0.8651
  352SOL    HW2 1056   0.681   2.427   1.400 -1.0233 -0.4805 -0.2034
  353SOL     OW 1057   0.825   1.516   2.442  0.4562  0.5919 -0.1307
  353SOL    HW1 1058   0.746   1.456   2.416  0.0121  1.1037  0.4219
  353SOL    HW2 1059   0.903   1.493   2.380  1.4658 -0.5293  2.9939
  354SOL     OW 1060   1.686   1.012   0.589  0.1516  0.3744 -0.3665
  354SOL    HW1 1061   1.624   1.007   0.666 -0.2107  0.8446  0.0648
  354SOL    HW2 1062   1.624   1.012   0.504 -0.9046 -2.1572  1.3102
  355SOL     OW 1063   2.896   0.713   0.494 -0.3671 -0.1396 -0.1719
  355SOL    HW1 1064   2.819   0.773   0.505  1.7275 -0.6369 -1.5500
  355SOL    HW2 1065   2.967   0.740   0.423 -0.2710  2.7630  0.5031
  356SOL     OW 1066   2.666   0.985   2.441  0.3823  0.3825  0.2765
  356SOL    HW1 1067   2.747   0.952   2.492  0.0052 -1.0849  2.6991
  356SOL    HW2 1068   2.585   0.970   2.504 -3.1258  1.5954  1.5815
  357SOL     OW 1069   0.675   2.603   1.782  0.5759 -0.2910  0.2453
  357SOL    HW1 1070   0.733   2.628   1.702 -1.1700 -1.9551 -1.0497
  357SOL    HW2 1071   0.675   2.672   1.857  0.6229 -0.1453 -0.6439
  358SOL     OW 1072   2.165   1.112   1.997 -0.0849  0.0369 -0.0845
  358SOL    HW1 1073   2.065   1.107   1.997  1.0678 -1.3583 -0.2410
  358SOL    HW2 1074   2.195   1.100   1.901 -2.0914  2.5751  0.4051
  359SOL     OW 1075   2.159   2.366   3.009  0.3984  0.8293  0.1359
  359SOL    HW1 1076   2.137   2.390   2.909  1.2920  0.1093  0.3263
  359SOL    HW2 1077   2.219   2.436   3.054  3.1626  1.9660 -1.9287
  360SOL     OW 1078   2.206   0.508   0.664 -0.3905 -0.5724  0.3140
  360SOL    HW1 1079   2.253   0.483   0.751 -0.0491 -1.3997 -0.0679
  360SOL    HW2 1080   2.255   0.577   0.613  0.0014 -1.7298  2.1643
  361SOL     OW 1081   1.819   3.049   0.907 -0.0375  0.8072  0.0223
  361SOL    HW1 1082   1.832   3.013   0.815 -1.9416 -1.6913  2.1719
  361SOL    HW2 1083   1.758   2.979   0.956 -1.7544 -0.1211  1.7080
  362SOL     OW 1084   1.381   1.217   0.555  0.5256  0.6007  0.3064
  362SOL    HW1 1085   1.289   1.206   0.517 -1.2366  1.9942  1.2507
  362SOL    HW2 1086   1.407   1.137   0.613 -1.1263  0.7570 -0.6560
  363SOL     OW 1087   2.473   1.684   2.335  0.7212 -0.0273  0.3965
  363SOL    HW1 1088   2.509   1.586   2.328  1.6034 -1.7347  0.3753
  363SOL    HW2 1089   2.486   1.724   2.431  0.6274  2.4266  0.2446
  364SOL     OW 1090   1.149   0.678   1.506  0.6734 -0.1945  0.1867
  364SOL    HW1 1091   1.145   0.682   1.409  0.4771 -0.0669  4.6092
  364SOL    HW2 1092   1.125   0.588   1.542 -1.0351  1.4943 -0.6818
  365SOL     OW 1093   0.165   0.025   0.966  0.0823  0.4165 -0.0403
  365SOL    HW1 1094   0.128   0.089   0.893 -1.0207  0.4911 -1.2407
  365SOL    HW2 1095   0.094   3.059   1.020  1.0754 -0.0860 -1.8868
  366SOL     OW 1096   2.793   1.452   0.435 -0.4981  0.5666 -0.4388
  366SOL    HW1 1097   2.777   1.441   0.537  1.8856  1.4851  2.0617
  366SOL    HW2 1098   2.869   1.516   0.416  1.0403  2.0281  1.0818
  367SOL     OW 1099   0.057   2.312   0.034  0.1338  0.4817  0.3772
  367SOL    HW1 1100   0.109   2.331   3.022  1.3765 -1.0593 -0.0251
  367SOL    HW2 1101   0.100   2.236   0.085 -0.8422 -1.0794  1.3895
  368SOL     OW 1102   3.037   2.289   1.051 -0.3073  0.5159 -0.1240
  368SOL    HW1 1103   0.016   2.364   1.015  0.5002  0.6544  2.4917
  368SOL    HW2 1104   2.994   2.237   0.978  2.8736 -2.0173 -1.0960
  369SOL     OW 1105   0.483   0.325   0.336  0.1391  0.2694  0.3112
  369SOL    HW1 1106   0.451   0.234   0.365  0.2478 -1.8007 -0.5482
  369SOL    HW2 1107   0.584   0.325   0.318  0.6654 -0.4399 -0.6923
  370SOL     OW 1108   0.382   1.096   1.455  0.5059  0.4949 -0.1935
  370SOL    HW1 1109   0.377   1.114   1.556 -0.9848  1.1119  1.6883
  370SOL    HW2 1110   0.341   1.169   1.399  0.1739 -0.3131 -0.3438
  371SOL     OW 1111   2.070   2.371   0.871 -1.1131 -0.4185  0.1189
  371SOL    HW1 1112   2.081   2.297   0.940  0.0179 -0.5895 -0.5210
  371SOL    HW2 1113   1.979   2.372   0.836  3.8828  0.7744  2.2122
  372SOL     OW 1114   2.887   0.903   2.580 -0.2251  0.2101 -0.7464
  372SOL    HW1 1115   2.886   0.799   2.587  1.2129 -1.0957  0.5352
  372SOL    HW2 1116   2.980   0.934   2.555  0.2815 -0.3502  1.2979
  373SOL     OW 1117   2.706   1.546   0.857  0.5824 -0.1761  0.5237
  373SOL    HW1 1118   2.634   1.608   0.893  1.2432 -1.7701 -1.7170
  373SOL    HW2 1119   2.666   1.482   0.788  0.8083 -0.3784 -0.9527
  374SOL     OW 1120   0.272   2.387   0.453  0.2256  0.6859 -0.3439
  374SOL    HW1 1121   0.296   2.332   0.370 -0.9192  1.4644 -0.9547
  374SOL    HW2 1122   0.220   2.325   0.518  0.1582  0.2723 -1.4785
  375SOL     OW 1123   0.740   0.260   0.342 -0.3866 -0.4218 -0.2151
  375SOL    HW1 1124   0.790   0.197   0.399 -0.9054  2.6859 -2.6539
  375SOL    HW2 1125   0.802   0.330   0.300  0.7534 -0.9359 -0.0579
  376SOL     OW 1126   0.437   2.968   1.947 -0.3917  0.0257  0.1362
  376SOL    HW1 1127   0.395   3.049   1.895  1.1972  1.7805  0.2687
  376SOL    HW2 1128   0.363   2.900   1.944 -2.3691  5.1369 -0.4172
  377SOL     OW 1129   1.030   2.319   2.388 -0.9433 -0.2603 -0.3090
  377SOL    HW1 1130   1.116   2.268   2.390 -1.9933  1.4144  0.0828
  377SOL    HW2 1131   1.045   2.411   2.432 -1.2850  0.0433 -1.7937
  378SOL     OW 1132   1.012   0.844   0.631 -0.1622 -0.3487 -0.2857
  378SOL    HW1 1133   0.987   0.899   0.715  1.2015  1.5209  1.0143
  378SOL    HW2 1134   1.042   0.750   0.657 -0.7956 -0.2126  1.0492
  379SOL     OW 1135   0.955   1.672   3.020 -1.2380  0.5570  0.3643
  379SOL    HW1 1136   0.927   1.574   3.016  2.4508 -0.1082 -1.1146
  379SOL    HW2 1137   1.057   1.683   3.019  2.5716  0.0642 -1.3357
  380SOL     OW 1138   2.965   1.915   1.656  0.1907 -0.4185  0.0175
  380SOL    HW1 1139   2.932   1.974   1.734 -3.7821 -0.4775 -0.6905
  380SOL    HW2 1140   3.050   1.953   1.619 -0.6956 -2.2024  0.2619
  381SOL     OW 1141   3.058   1.024   1.897  0.0619  0.3162 -0.4107
  381SOL    HW1 1142   0.052   1.085   1.935  1.1045  1.3629  0.0951
  381SOL    HW2 1143   0.025   0.961   1.835  0.6171  0.5986 -1.4873
  382SOL     OW 1144   2.446   2.353   0.115  0.8061  0.0224 -0.0845
  382SOL    HW1 1145   2.453   2.333   0.015 -0.3580 -1.8691  1.9321
  382SOL    HW2 1146   2.513   2.291   0.164  0.4339 -2.1394  0.5199
  383SOL     OW 1147   2.333   2.011   2.209 -0.3343  0.5843  0.5155
  383SOL    HW1 1148   2.421   1.964   2.210  0.5377  2.3556 -2.3178
  383SOL    HW2 1149   2.336   2.106   2.238 -0.9754  0.6515  2.4429
  384SOL     OW 1150   0.979   2.390   2.110 -0.4344  0.2966  0.1360
  384SOL    HW1 1151   1.004   2.342   2.196  2.4923 -0.2936  1.0241
  384SOL    HW2 1152   0.879   2.410   2.105 -1.9089  1.9222  0.5987
  385SOL     OW 1153   2.579   2.253   1.104  0.2126  0.4791  0.4566
  385SOL    HW1 1154   2.512   2.270   1.030  0.5621  0.7751 -1.1871
  385SOL    HW2 1155   2.567   2.163   1.146 -0.3503 -0.2618  0.5436
  386SOL     OW 1156   1.885   0.587   2.814 -0.2186  0.4179 -0.6320
  386SOL    HW1 1157   1.823   0.507   2.827  1.0688 -1.4408  2.7637
  386SOL    HW2 1158   1.953   0.598   2.887  0.0444  2.7737  1.1003
  387SOL     OW 1159   0.504   0.547   1.903 -0.3913 -0.1864  0.5030
  387SOL    HW1 1160   0.480   0.574   1.803  1.2095 -0.4190 -3.1509
  387SOL    HW2 1161   0.427   0.523   1.965  2.2338  0.0837  0.2681
  388SOL     OW 1162   2.850   0.999   1.542 -0.0710  0.4557 -0.0253
  388SOL    HW1 1163   2.831   0.905   1.585  1.2813 -2.1590  1.2916
  388SOL    HW2 1164   2.939   1.040   1.574  0.8613 -0.2994 -2.3633
  389SOL     OW 1165   1.613   0.839   2.206 -0.4277 -0.0185  0.4240
  389SOL    HW1 1166   1.575   0.918   2.260  2.2460  0.8365  0.9599
  389SOL    HW2 1167   1.572   0.816   2.116 -0.4480 -1.5882 -2.1395
  390SOL     OW 1168   2.078   2.226   0.574 -0.5998 -0.1739  0.6747
  390SOL    HW1 1169   2.181   2.228   0.565  1.9458 -1.6591  1.1987
  390SOL    HW2 1170   2.029   2.304   0.527 -3.1886  1.1198  1.5027
  391SOL     OW 1171   1.679   2.842   1.047  0.3438  0.3621  0.4721
  391SOL    HW1 1172   1.600   2.879   0.993 -1.0410  1.3629  0.3516
  391SOL    HW2 1173   1.656   2.844   1.146 -1.7326  0.1957 -1.7837
  392SOL     OW 1174   2.695   2.606   1.157 -0.1643  0.5908 -0.0607
  392SOL    HW1 1175   2.646   2.634   1.072 -1.2594  2.2150  1.0966
  392SOL    HW2 1176   2.625   2.552   1.219 -0.8803 -0.9985  1.8759
  393SOL     OW 1177   1.765   1.651   2.910 -0.2863 -0.0156 -0.5635
  393SOL    HW1 1178   1.776   1.745   2.945  0.6673 -0.0778 -2.7261
  393SOL    HW2 1179   1.814   1.582   2.971  0.6743  0.9487  2.5794
  394SOL     OW 1180   0.319   2.844   3.050 -0.2014  0.2896 -0.5980
  394SOL    HW1 1181   0.333   2.757   2.994 -0.5087  3.1822 -1.6752
  394SOL    HW2 1182   0.224   2.849   0.003 -0.3221  1.3381 -3.3784
  395SOL     OW 1183   1.367   1.378   0.947  0.0460 -0.1796 -0.5447
  395SOL    HW1 1184   1.314   1.296   0.916  0.7775 -2.1441  1.4789
  395SOL    HW2 1185   1.468   1.375   0.918 -0.1659  0.5864 -2.5524
  396SOL     OW 1186   2.112   0.802   2.713 -0.0249 -0.4375 -0.6375
  396SOL    HW1 1187   2.080   0.796   2.812 -0.0978 -1.4840 -0.3948
  396SOL    HW2 1188   2.200   0.750   2.703  1.2644 -0.2639  0.7664
  397SOL     OW 1189   0.117   0.623   2.660 -0.3564 -0.0535 -0.1809
  397SOL    HW1 1190   0.022   0.625   2.621 -0.2597 -1.8159  0.6710
  397SOL    HW2 1191   0.143   0.715   2.694  0.1175 -4.1312  2.2717
  398SOL     OW 1192   1.360   0.484   0.048 -0.0007  0.2163 -0.2120
  398SOL    HW1 1193   1.405   0.502   3.037  0.6713 -2.8520 -0.4729
  398SOL    HW2 1194   1.258   0.481   0.047 -0.6335 -0.0447  1.7171
  399SOL     OW 1195   1.933   3.028   1.762 -0.1769  0.5601  0.0615
  399SOL    HW1 1196   2.000   2.973   1.817 -0.5407  0.1411  0.0281
  399SOL    HW2 1197   1.909   2.981   1.674 -1.0615 -2.1008  0.7649
  400SOL     OW 1198   0.092   1.814   2.410 -0.2287 -0.0288  0.2843
  400SOL    HW1 1199   0.092   1.805   2.309 -0.6495  1.1108 -0.0959
  400SOL    HW2 1200   0.013   1.768   2.457 -0.2207  0.1134  2.1276
  401SOL     OW 1201   0.615   0.122   0.094 -0.5153 -0.1191 -0.2769
  401SOL    HW1 1202   0.649   0.139   0.192  0.0552  0.7325 -0.0007
  401SOL    HW2 1203   0.618   0.211   0.046  0.4798 -5.0373  2.1746
  402SOL     OW 1204   0.542   2.363   1.491  0.3036 -0.3207 -0.4490
  402SOL    HW1 1205   0.527   2.261   1.485 -0.9619  0.5490 -0.4870
  402SOL    HW2 1206   0.526   2.401   1.587  3.4686  2.5890  1.5933
  403SOL     OW 1207   0.409   1.405   1.263  0.1274 -0.4358 -0.0129
  403SOL    HW1 1208   0.309   1.393   1.251  0.4648  1.8641  0.0929
  403SOL    HW2 1209   0.426   1.467   1.341 -0.6940  1.9891 -0.5139
  404SOL     OW 1210   2.851   2.562   1.862  0.2587 -0.5114 -0.1548
  404SOL    HW1 1211   2.870   2.595   1.768  0.4750 -1.4104 -0.4568
  404SOL    HW2 1212   2.851   2.638   1.933 -0.3715  3.1379  3.0385
  405SOL     OW 1213   2.729   0.277   2.102  0.8562 -0.1925 -0.1230
  405SOL    HW1 1214   2.630   0.313   2.119 -0.6604  2.5942  0.6793
  405SOL    HW2 1215   2.772   0.257   2.193  2.7824  2.4436  1.4771
  406SOL     OW 1216   1.934   2.394   0.233  0.1461 -0.1146  0.2651
  406SOL    HW1 1217   1.996   2.315   0.220  0.2193  3.5108  1.9393
  406SOL    HW2 1218   1.957   2.439   0.320  4.1508 -0.3268  0.4656
  407SOL     OW 1219   1.893   1.872   0.845  0.7966 -0.0938  0.6558
  407SOL    HW1 1220   1.910   1.895   0.943  1.8235 -0.6962 -1.4793
  407SOL    HW2 1221   1.901   1.961   0.793  1.1372  1.2136  0.6573
  408SOL     OW 1222   0.637   0.457   2.209  0.1095  0.5690  0.2402
  408SOL    HW1 1223   0.709   0.521   2.240 -2.1306 -1.0746 -1.5554
  408SOL    HW2 1224   0.682   0.405   2.136 -3.0156  3.9710 -0.7641
  409SOL     OW 1225   2.444   1.888   0.780  0.5419 -0.3915 -0.1658
  409SOL    HW1 1226   2.470   1.839   0.869 -0.8119  0.2794  1.8808
  409SOL    HW2 1227   2.443   1.821   0.705  2.9094  2.2093  2.9733
  410SOL     OW 1228   2.351   1.604   0.846  0.3050  0.5566  0.0537
  410SOL    HW1 1229   2.352   1.508   0.889  1.6282 -1.4281  0.7051
  410SOL    HW2 1230   2.279   1.657   0.893  1.9412  0.9779  2.6575
  411SOL     OW 1231   3.072   0.812   0.303 -0.3684  1.1567 -0.0355
  411SOL    HW1 1232   0.081   0.762   0.337  0.1835  0.6427  0.2931
  411SOL    HW2 1233   3.075   0.911   0.331 -2.4175  0.6203  0.7488
  412SOL     OW 1234   1.629   0.397   0.232 -1.1111 -0.1238 -0.0643
  412SOL    HW1 1235   1.547   0.442   0.201  0.8595 -3.0938  0.1823
  412SOL    HW2 1236   1.631   0.400   0.334 -0.9562 -2.5248 -0.7572
  413SOL     OW 1237   0.915   0.904   1.291  0.1369 -0.2112  0.1286
  413SOL    HW1 1238   0.828   0.955   1.303  0.9951  1.0202 -1.3511
  413SOL    HW2 1239   0.938   0.899   1.189  0.1516  1.8949 -0.8990
  414SOL     OW 1240   2.884   1.292   2.829  1.2321  0.5151  0.1087
  414SOL    HW1 1241   2.814   1.364   2.850  3.6247  2.3345  1.9424
  414SOL    HW2 1242   2.951   1.328   2.764  0.7662 -0.5252  0.9542
  415SOL     OW 1243   0.122   1.703   2.957  0.3559  0.2795 -0.2147
  415SOL    HW1 1244   0.196   1.704   2.891 -1.6955  0.7864  3.6787
  415SOL    HW2 1245   0.086   1.608   2.962 -1.0926  0.3138  0.7792
  416SOL     OW 1246   1.669   0.921   0.147 -0.4530 -0.2216  0.0177
  416SOL    HW1 1247   1.716   0.872   0.218 -3.5346 -0.4023 -1.4940
  416SOL    HW2 1248   1.683   1.026   0.151  1.0004  0.6093 -1.3978
  417SOL     OW 1249   0.178   0.755   1.045  0.1375 -0.1618 -0.7806
  417SOL    HW1 1250   0.202   0.830   1.107 -0.0886  0.6259  0.5164
  417SOL    HW2 1251   0.198   0.773   0.943 -0.5686 -2.5230 -2.4607
  418SOL     OW 1252   2.293   1.036   2.702  0.2954  0.1817 -0.2900
  418SOL    HW1 1253   2.223   0.977   2.749 -2.0271 -1.1007  1.3503
  418SOL    HW2 1254   2.346   0.984   2.633  0.5460  0.1454  0.3106
  419SOL     OW 1255   0.341   0.508   0.204  0.4723 -0.4406  0.0233
  419SOL    HW1 1256   0.399   0.453   0.269 -3.4032  2.0590 -1.5347
  419SOL    HW2 1257   0.277   0.444   0.162 -0.3662  0.6463 -3.1582
  420SOL     OW 1258   0.339   1.371   0.794 -0.2875  0.5416 -0.4101
  420SOL    HW1 1259   0.413   1.379   0.869 -1.3332 -1.5967  0.9627
  420SOL    HW2 1260   0.335   1.459   0.743 -0.2507  0.3045  1.1676
  421SOL     OW 1261   0.355   2.081   0.307 -0.4694  0.2098 -0.1459
  421SOL    HW1 1262   0.257   2.054   0.298  1.5047  0.9870 -2.1985
  421SOL    HW2 1263   0.380   2.067   0.403  1.3959  0.7166 -1.8786
  422SOL     OW 1264   2.674   0.359   1.485  0.3764 -0.1687 -0.0488
  422SOL    HW1 1265   2.673   0.372   1.382 -1.4382 -0.4272 -2.3490
  422SOL    HW2 1266   2.706   0.269   1.518  2.4313 -0.8713 -1.0006
  423SOL     OW 1267   2.030   1.423   0.918 -0.0362  0.0134 -0.6598
  423SOL    HW1 1268   1.982   1.428   1.005 -0.5228 -0.1087  1.0694
  423SOL    HW2 1269   2.131   1.399   0.935  3.7317 -1.2734 -1.6269
  424SOL     OW 1270   1.742   1.201   0.213  0.2836 -0.5400  0.4547
  424SOL    HW1 1271   1.819   1.204   0.145  1.8295  1.5478  1.0621
  424SOL    HW2 1272   1.718   1.297   0.246  0.3525  3.3023  0.3910
  425SOL     OW 1273   0.216   2.800   1.959  0.1669  0.0581  0.7394
  425SOL    HW1 1274   0.173   2.822   2.048 -0.8806 -0.0406 -0.8130
  425SOL    HW2 1275   0.146   2.817   1.887 -1.3392  0.3348 -0.8509
  426SOL     OW 1276   2.561   2.806   2.796 -0.1388  0.0735  0.5975
  426SOL    HW1 1277   2.543   2.847   2.703 -0.4985 -1.5309 -3.9660
  426SOL    HW2 1278   2.498   2.728   2.814  0.0477 -0.9569  0.9951
  427SOL     OW 1279   0.652   0.832   2.211  0.0570  0.0694 -0.5925
  427SOL    HW1 1280   0.581   0.791   2.269  0.2726  2.0360 -0.7213
  427SOL    HW2 1281   0.688   0.913   2.260 -0.4347 -0.6665  0.9196
  428SOL     OW 1282   2.169   0.755   2.166 -0.4059 -0.0434 -1.0129
  428SOL    HW1 1283   2.256   0.744   2.113  1.5500  0.5001  0.6469
  428SOL    HW2 1284   2.147   0.855   2.178 -0.5544  0.6337 -0.9065
  429SOL     OW 1285   2.315   0.290   0.536  0.1011 -0.1610  0.2631
  429SOL    HW1 1286   2.412   0.292   0.527 -2.9214 -1.8603 -1.9840
  429SOL    HW2 1287   2.275   0.383   0.551 -0.7000 -3.3943  0.8334
  430SOL     OW 1288   1.903   1.041   2.106  0.2785 -0.0425 -0.3676
  430SOL    HW1 1289   1.973   1.017   2.175 -0.8238  2.2821  1.3734
  430SOL    HW2 1290   1.864   0.963   2.051 -0.8947  0.0561  1.4819
  431SOL     OW 1291   2.751   2.241   1.464 -0.1050  0.1593 -0.4753
  431SOL    HW1 1292   2.752   2.142   1.437 -0.0320  0.6931 -1.7820
  431SOL    HW2 1293   2.783   2.300   1.391 -2.5323  1.1020  0.9774
  432SOL     OW 1294   1.421   2.794   2.229  0.5288 -0.0024 -0.5307
  432SOL    HW1 1295   1.480   2.862   2.190 -2.0597  0.4340 -2.3707
  432SOL    HW2 1296   1.341   2.837   2.268 -0.7169  0.8797 -1.0844
  433SOL     OW 1297   1.394   0.009   1.272 -0.4885 -0.3543 -0.1899
  433SOL    HW1 1298   1.482   0.037   1.230  0.5131  0.0509 -0.5289
  433SOL    HW2 1299   1.385   2.986   1.289  0.3090 -0.0762 -1.0283
  434SOL     OW 1300   3.076   2.381   2.277 -0.1849 -0.0524  0.2360
  434SOL    HW1 1301   3.057   2.377   2.180 -0.3181  0.4749 -2.1355
  434SOL    HW2 1302   0.061   2.460   2.294 -0.7733  1.5440 -0.8617
  435SOL     OW 1303   0.244   1.717   0.201 -0.5427 -0.6490  0.1457
  435SOL    HW1 1304   0.335   1.682   0.166 -0.9014 -0.4604 -1.0152
  435SOL    HW2 1305   0.171   1.703   0.133  0.5914  1.0239  0.9757
  436SOL     OW 1306   0.467   1.144   1.739 -0.2231 -0.2459 -0.0598
  436SOL    HW1 1307   0.550   1.177   1.692  2.7416  2.3783  0.4240
  436SOL    HW2 1308   0.487   1.118   1.835 -1.7089  1.3118 -2.9185
  437SOL     OW 1309   1.054   0.513   2.865 -0.2514 -0.3891 -0.2019
  437SOL    HW1 1310   1.017   0.578   2.796  0.6886 -0.0377 -0.3225
  437SOL    HW2 1311   1.146   0.483   2.830 -1.7681 -0.4071  1.2507
  438SOL     OW 1312   0.609   1.892   1.580 -0.7201  0.6051  0.1964
  438SOL    HW1 1313   0.631   1.816   1.516  0.7577  2.4473  0.7057
  438SOL    HW2 1314   0.562   1.862   1.669  0.9899  3.9926  2.5779
  439SOL     OW 1315   1.878   1.451   3.046 -0.1740 -0.5012 -0.4439
  439SOL    HW1 1316   1.924   1.359   3.058  1.6201  1.7009 -0.4453
  439SOL    HW2 1317   1.779   1.449   0.001 -2.4633 -0.0227 -0.4454
  440SOL     OW 1318   1.352   0.638   0.434  0.5849 -0.2837  0.1899
  440SOL    HW1 1319   1.371   0.720   0.377  2.2073 -0.4057  0.4010
  440SOL    HW2 1320   1.329   0.558   0.374 -1.5422 -2.3192 -3.3089
  441SOL     OW 1321   0.458   2.441   1.749 -0.1831 -0.4942  0.6149
  441SOL    HW1 1322   0.538   2.506   1.741  1.8400 -0.9183  1.7643
  441SOL    HW2 1323   0.402   2.468   1.828 -0.3748  0.6460  0.2566
  442SOL     OW 1324   2.305   2.522   0.826 -0.1719 -0.2030  0.0561
  442SOL    HW1 1325   2.224   2.461   0.849  1.7470 -0.3833  0.1635
  442SOL    HW2 1326   2.268   2.603   0.777 -1.7664 -1.9005 -1.2468
  443SOL     OW 1327   2.475   1.156   2.310 -0.0475 -0.1835  0.1945
  443SOL    HW1 1328   2.392   1.158   2.375  1.2377  1.3051  0.0782
  443SOL    HW2 1329   2.556   1.123   2.361 -1.5777  1.3557 -0.2963
  444SOL     OW 1330   1.504   0.611   2.400 -0.9161 -0.3895  0.3597
  444SOL    HW1 1331   1.480   0.590   2.303  0.9749  0.7558 -0.7078
  444SOL    HW2 1332   1.432   0.664   2.449 -0.1417 -0.6147  0.5588
  445SOL     OW 1333   2.387   2.432   1.675 -0.0752 -0.3152 -0.0149
  445SOL    HW1 1334   2.401   2.339   1.630 -2.2100 -2.1132  2.2389
  445SOL    HW2 1335   2.476   2.457   1.723  1.9165  2.2632 -0.2983
  446SOL     OW 1336   3.008   1.620   0.342 -0.5888 -0.1568  0.0916
  446SOL    HW1 1337   2.959   1.684   0.281 -0.8532  0.0189 -0.2115
  446SOL    HW2 1338   0.013   1.668   0.377  2.1644 -1.0901  1.8136
  447SOL     OW 1339   1.104   2.577   1.017 -0.0649 -0.0563 -0.7712
  447SOL    HW1 1340   1.195   2.621   1.040 -3.3990 -0.9248  3.0988
  447SOL    HW2 1341   1.112   2.496   0.956 -0.1983 -3.1298  1.7472
  448SOL     OW 1342   1.691   1.526   1.849  0.2036  0.6566 -0.1280
  448SOL    HW1 1343   1.693   1.540   1.952 -2.3130 -0.4987  0.3841
  448SOL    HW2 1344   1.765   1.464   1.814 -3.5107 -0.3029  0.0652
  449SOL     OW 1345   0.561   2.080   2.454  0.3422 -0.2334 -0.3088
  449SOL    HW1 1346   0.638   2.148   2.457 -0.8099  2.2488 -1.0934
  449SOL    HW2 1347   0.527   2.052   2.545  0.8421 -0.2468  0.3721
  450SOL     OW 1348   2.953   1.694   2.511 -0.7988 -0.6628  0.7182
  450SOL    HW1 1349   2.915   1.619   2.453  2.5769 -0.6580 -0.4293
  450SOL    HW2 1350   2.885   1.773   2.515 -0.6884  0.1602 -0.4473
  451SOL     OW 1351   2.366   0.659   1.272  0.1501  0.4943  0.3915
  451SOL    HW1 1352   2.395   0.580   1.333  0.8029 -1.7618  0.9813
  451SOL    HW2 1353   2.442   0.723   1.259  0.5867  0.8185  1.2361
  452SOL     OW 1354   0.975   2.324   1.199 -0.0233  0.3785 -0.4451
  452SOL    HW1 1355   0.900   2.379   1.235  1.2486 -0.3232  1.1883
  452SOL    HW2 1356   0.967   2.314   1.101  0.6317  0.9505  3.7793
  453SOL     OW 1357   1.263   1.954   0.896  0.0423 -0.1142  0.3529
  453SOL    HW1 1358   1.334   1.949   0.974  0.9549 -0.3134 -0.5321
  453SOL    HW2 1359   1.241   2.050   0.873  0.2312  1.3681  0.0438
  454SOL     OW 1360   2.921   1.253   0.765 -0.6588  0.1331 -0.5130
  454SOL    HW1 1361   2.935   1.231   0.861 -0.5235 -3.3005  1.3628
  454SOL    HW2 1362   3.013   1.274   0.724  1.7525 -1.4371 -1.9836
  455SOL     OW 1363   0.569   0.765   0.297 -0.1431  0.4283 -0.3882
  455SOL    HW1 1364   0.570   0.822   0.210  0.8188  2.5960 -2.8450
  455SOL    HW2 1365   0.511   0.814   0.365 -0.7742 -0.2924  0.0980
  456SOL     OW 1366   1.887   2.466   1.153 -0.2020 -0.1486  0.1546
  456SOL    HW1 1367   1.831   2.385   1.163  0.9082 -0.3587  0.8465
  456SOL    HW2 1368   1.860   2.507   1.066  0.6264 -2.0844  2.0541
  457SOL     OW 1369   1.498   2.506   0.024  0.3791 -0.6175  0.2090
  457SOL    HW1 1370   1.460   2.415   0.014  3.0104  1.8103  1.0672
  457SOL    HW2 1371   1.445   2.547   0.101 -0.6095  0.1858 -0.3342
  458SOL     OW 1372   2.628   0.385   0.047  0.0123 -0.7003  0.0458
  458SOL    HW1 1373   2.551   0.362   0.113 -1.0113 -0.7152  0.0315
  458SOL    HW2 1374   2.696   0.314   0.055 -3.1367 -1.0428  0.2075
  459SOL     OW 1375   2.249   0.113   1.763  0.5014 -0.5484  0.1464
  459SOL    HW1 1376   2.267   0.029   1.706 -0.2648 -0.5022 -0.4154
  459SOL    HW2 1377   2.265   0.095   1.863 -1.1784 -1.4393 -0.6797
  460SOL     OW 1378   2.920   0.392   2.878  0.1581  0.5622  0.5005
  460SOL    HW1 1379   3.014   0.369   2.839  1.8312 -1.6165 -0.5858
  460SOL    HW2 1380   2.849   0.326   2.843 -4.6591  1.1638  2.1616
  461SOL     OW 1381   0.036   1.938   1.015  0.4278 -0.3296  0.4681
  461SOL    HW1 1382   3.074   1.902   1.099  0.9168  0.5039 -1.0977
  461SOL    HW2 1383   0.096   2.019   1.041 -1.5415  2.5099  0.7633
  462SOL     OW 1384   0.033   0.185   0.799 -0.3241  0.0246  0.4951
  462SOL    HW1 1385   3.076   0.119   0.731  2.1644  0.7718  1.5205
  462SOL    HW2 1386   3.068   0.276   0.790  2.9878 -1.2454 -1.9252
  463SOL     OW 1387   2.333   1.552   0.107 -0.6567 -0.0794 -0.5912
  463SOL    HW1 1388   2.254   1.567   0.043  1.8457  0.2222  0.8063
  463SOL    HW2 1389   2.406   1.504   0.053  2.3998  0.4366  1.3954
  464SOL     OW 1390   0.642   3.044   1.209 -0.3292  0.0791 -0.1338
  464SOL    HW1 1391   0.582   2.968   1.231  1.0033  1.7813  2.1696
  464SOL    HW2 1392   0.728   3.041   1.265  1.9777  2.1798  0.2091
  465SOL     OW 1393   1.064   0.670   1.248 -0.4473  0.8501 -0.2203
  465SOL    HW1 1394   1.035   0.766   1.279 -0.4745  0.5619  0.5346
  465SOL    HW2 1395   0.984   0.615   1.211  0.3796 -1.9629 -2.1210
  466SOL     OW 1396   1.657   2.457   2.088 -0.0381 -0.2588  0.1017
  466SOL    HW1 1397   1.569   2.507   2.066 -0.3532 -0.6290  0.4233
  466SOL    HW2 1398   1.652   2.389   2.169  0.6815 -1.0241 -0.9999
  467SOL     OW 1399   0.763   2.795   1.984 -0.2773  0.1657  0.3218
  467SOL    HW1 1400   0.693   2.869   2.000 -1.6820 -0.0303  0.9271
  467SOL    HW2 1401   0.858   2.834   1.964 -1.3080  0.1478 -0.9849
  468SOL     OW 1402   0.051   1.461   2.143 -0.1401 -0.0976 -0.3999
  468SOL    HW1 1403   3.040   1.431   2.102  0.0758  1.1370 -1.0563
  468SOL    HW2 1404   0.058   1.564   2.140  1.3433  1.5094  0.7637
  469SOL     OW 1405   0.974   1.981   0.748 -0.0250  0.2708  0.3609
  469SOL    HW1 1406   0.974   1.925   0.660  0.3145  0.7469  0.2531
  469SOL    HW2 1407   1.053   2.049   0.751  2.2952 -0.9150 -0.6932
  470SOL     OW 1408   2.136   1.012   2.258  0.0288  0.7239 -0.6566
  470SOL    HW1 1409   2.193   1.036   2.173 -1.3503 -3.2432 -1.7087
  470SOL    HW2 1410   2.177   1.058   2.339  0.0093  0.2805  0.7038
  471SOL     OW 1411   0.448   2.497   0.093  0.4514 -0.2398  0.4248
  471SOL    HW1 1412   0.477   2.401   0.084  0.0514  2.1272 -1.6565
  471SOL    HW2 1413   0.432   2.535   3.077 -0.6642 -0.7952  0.5230
  472SOL     OW 1414   2.944   2.776   2.297  0.5807 -0.2992  0.1920
  472SOL    HW1 1415   2.934   2.675   2.309  2.1491 -1.9170 -1.4093
  472SOL    HW2 1416   3.030   2.797   2.248 -1.0125  1.3497 -0.7910
  473SOL     OW 1417   0.736   3.018   2.969 -0.5316  0.2149 -0.0519
  473SOL    HW1 1418   0.680   3.021   2.881 -0.2933  0.3259  2.9689
  473SOL    HW2 1419   0.715   0.016   3.034 -0.3650  1.2687 -0.3533
  474SOL     OW 1420   1.520   0.206   0.631  0.0260  0.4484  0.2118
  474SOL    HW1 1421   1.558   0.145   0.557 -1.5681 -1.3144  0.8036
  474SOL    HW2 1422   1.571   0.284   0.664 -1.3054 -1.2378  1.0580
  475SOL     OW 1423   1.291   0.212   1.419  0.6160 -0.2734  0.4406
  475SOL    HW1 1424   1.271   0.294   1.359  2.4166  1.4007 -2.9040
  475SOL    HW2 1425   1.357   0.151   1.373  2.0096  2.6208  1.8671
  476SOL     OW 1426   0.168   1.114   1.041 -0.2167  0.9571 -0.0811
  476SOL    HW1 1427   0.240   1.060   1.088  0.1544 -0.0127 -4.1478
  476SOL    HW2 1428   0.160   1.083   0.945  0.8076  0.9032  1.4841
  477SOL     OW 1429   0.728   1.825   0.797  0.2175  0.1238  0.4593
  477SOL    HW1 1430   0.825   1.855   0.814  0.8772 -2.5075  1.3829
  477SOL    HW2 1431   0.680   1.809   0.886 -1.0504  2.9097 -1.2061
  478SOL     OW 1432   0.165   2.575   2.378 -0.2471  0.1997 -0.4283
  478SOL    HW1 1433   0.235   2.502   2.398 -0.6545 -0.6771  2.9620
  478SOL    HW2 1434   0.216   2.660   2.359 -1.2604 -1.8106  3.3370
  479SOL     OW 1435   0.080   0.442   1.188  0.4386 -0.3700  0.1711
  479SOL    HW1 1436   0.049   0.506   1.259  0.3120  1.9692 -4.4918
  479SOL    HW2 1437   0.179   0.445   1.180  1.7752 -0.2478 -2.0227
  480SOL     OW 1438   2.806   2.575   0.048  0.4246 -0.0884  0.1750
  480SOL    HW1 1439   2.802   2.609   3.030 -2.5307  0.1699 -0.0849
  480SOL    HW2 1440   2.861   2.635   0.110 -2.0247 -0.6341 -0.0479
  481SOL     OW 1441   2.447   1.986   1.744 -0.1423 -0.1713 -0.0308
  481SOL    HW1 1442   2.477   2.066   1.694 -0.7573 -1.1878  1.0901
  481SOL    HW2 1443   2.360   1.997   1.794 -0.7484 -1.9478  2.2548
  482SOL     OW 1444   1.709   1.607   2.418  0.6458 -0.4110 -0.3527
  482SOL    HW1 1445   1.740   1.585   2.511 -0.5362  2.1558  1.1818
  482SOL    HW2 1446   1.737   1.704   2.407 -0.2106 -1.1418 -0.3294
  483SOL     OW 1447   0.985   1.379   1.799  0.6650  0.2040 -0.4194
  483SOL    HW1 1448   1.039   1.409   1.718  2.0490  0.2520 -2.3713
  483SOL    HW2 1449   0.949   1.287   1.787 -0.4499 -0.5456 -0.0442
  484SOL     OW 1450   0.409   0.575   1.409 -0.1555 -0.0646  0.5200
  484SOL    HW1 1451   0.425   0.487   1.456 -0.5208  0.3214  0.3852
  484SOL    HW2 1452   0.388   0.561   1.312 -1.2576 -0.2872  0.2630
  485SOL     OW 1453   2.203   1.167   0.066 -0.3084 -0.4424 -0.1771
  485SOL    HW1 1454   2.278   1.178   3.077 -0.8111 -0.1317  1.4502
  485SOL    HW2 1455   2.238   1.133   0.156 -0.3172 -0.8141 -2.6211
  486SOL     OW 1456   1.123   0.138   1.641 -0.5469  0.3184 -0.0363
  486SOL    HW1 1457   1.024   0.135   1.645  2.1298  0.8555 -1.7912
  486SOL    HW2 1458   1.155   0.163   1.546  1.2114  0.5740 -1.3238
  487SOL     OW 1459   0.887   2.275   1.517  0.1058 -0.3408  0.1276
  487SOL    HW1 1460   0.857   2.346   1.451  0.9150 -0.6999  0.4825
  487SOL    HW2 1461   0.877   2.182   1.476  0.7590 -0.9972  0.1597
  488SOL     OW 1462   2.501   1.618   2.808 -0.5445 -0.1424  0.1977
  488SOL    HW1 1463   2.540   1.712   2.828 -0.2894  0.9976 -0.4533
  488SOL    HW2 1464   2.492   1.563   2.891 -0.1357  2.6661 -1.7443
  489SOL     OW 1465   1.870   2.940   0.685  0.3584 -0.0050  0.5464
  489SOL    HW1 1466   1.798   2.863   0.681  0.1653 -0.1515  1.6871
  489SOL    HW2 1467   1.890   2.986   0.596  2.9174 -1.2594  3.9976
  490SOL     OW 1468   0.746   2.379   0.020  0.1739  0.3375  0.4519
  490SOL    HW1 1469   0.731   2.465   3.047  0.2668 -0.2199 -0.8595
  490SOL    HW2 1470   0.681   2.374   0.099  1.4160 -2.4269 -1.0483
  491SOL     OW 1471   0.703   1.238   1.601  0.0810  0.1848  0.4302
  491SOL    HW1 1472   0.707   1.276   1.506 -1.1757  1.7401 -2.4917
  491SOL    HW2 1473   0.782   1.175   1.626  2.4527 -1.7175 -0.3177
  492SOL     OW 1474   0.980   0.552   1.864 -0.3685 -0.5252  0.2530
  492SOL    HW1 1475   1.017   0.459   1.879  1.5271  1.7853 -1.6491
  492SOL    HW2 1476   0.978   0.611   1.947 -0.4743  0.9027 -2.3179
  493SOL     OW 1477   2.185   1.984   0.861 -0.4770  0.1546 -0.6044
  493SOL    HW1 1478   2.135   1.985   0.770 -1.8702 -2.1799  1.6636
  493SOL    HW2 1479   2.277   1.949   0.841 -0.1067  0.4539  1.5348
  494SOL     OW 1480   0.723   1.525   0.961  0.1560  1.0432 -0.0539
  494SOL    HW1 1481   0.806   1.520   0.904 -0.2656 -0.0128 -0.5279
  494SOL    HW2 1482   0.667   1.439   0.962 -2.4832  0.9594  0.4636
  495SOL     OW 1483   2.290   2.499   0.446 -0.2058 -0.2257 -0.8721
  495SOL    HW1 1484   2.313   2.498   0.346 -4.6637 -1.6021 -0.6968
  495SOL    HW2 1485   2.318   2.411   0.491 -0.2088  0.3138  0.7356
  496SOL     OW 1486   2.685   0.052   1.263 -0.3413 -0.3431  0.6035
  496SOL    HW1 1487   2.615   0.120   1.237 -0.0616 -0.1553  0.2530
  496SOL    HW2 1488   2.663   3.068   1.336 -1.9069  3.0509 -2.2240
  497SOL     OW 1489   2.261   1.177   2.454  0.2176  0.0426 -0.2403
  497SOL    HW1 1490   2.212   1.261   2.433  0.3802  1.0758  0.0669
  497SOL    HW2 1491   2.266   1.158   2.554 -0.2787 -2.5743  1.5128
  498SOL     OW 1492   0.220   2.154   1.279  0.1785  0.0535  0.4257
  498SOL    HW1 1493   0.118   2.139   1.308 -0.6086  0.6953  1.1723
  498SOL    HW2 1494   0.256   2.245   1.315  0.9282  1.3486 -1.7573
  499SOL     OW 1495   1.166   2.494   1.952  0.1092 -0.7291 -0.6112
  499SOL    HW1 1496   1.103   2.490   2.034 -0.8038  2.0346  2.2230
  499SOL    HW2 1497   1.181   2.401   1.916  0.1847  2.0909  0.4604
  500SOL     OW 1498   0.759   1.973   0.389 -0.6339 -0.5469  0.7753
  500SOL    HW1 1499   0.791   2.027   0.306  2.9303 -1.5196 -1.2738
  500SOL    HW2 1500   0.711   1.889   0.359 -0.9128 -1.7585  1.4969
  501SOL     OW 1501   1.983   3.074   1.118  0.3107 -0.2671  0.1394
  501SOL    HW1 1502   1.926   3.073   1.027  1.3450  0.0775 -0.1025
  501SOL    HW2 1503   1.950   0.067   1.184 -0.3230 -0.3639 -2.5378
  502SOL     OW 1504   2.807   0.152   1.608  0.0502 -0.3347  0.2048
  502SOL    HW1 1505   2.892   0.127   1.557 -0.9687  1.5720  2.7313
  502SOL    HW2 1506   2.836   0.210   1.687 -0.7850 -1.6331 -0.9802
  503SOL     OW 1507   2.492   1.186   1.663  0.3052 -0.3178 -0.6062
  503SOL    HW1 1508   2.520   1.250   1.587 -0.7279  0.9412 -0.4066
  503SOL    HW2 1509   2.565   1.122   1.695 -1.6183  0.2263 -0.5202
  504SOL     OW 1510   1.522   0.940   1.598 -0.5077 -0.4923  0.4312
  504SOL    HW1 1511   1.422   0.922   1.600  0.0664 -0.6415 -0.5472
  504SOL    HW2 1512   1.572   0.867   1.648 -3.0220 -1.1304 -1.0703
  505SOL     OW 1513   0.715   2.947   1.565  0.2352 -0.1053  0.1825
  505SOL    HW1 1514   0.729   2.850   1.550 -4.0016 -0.0736 -1.6029
  505SOL    HW2 1515   0.617   2.968   1.542 -1.9782  1.2383  1.1754
  506SOL     OW 1516   0.084   0.249   0.359 -0.4863 -0.1591  0.1273
  506SOL    HW1 1517   0.126   0.278   0.267  2.0758  1.5344 -1.4404
  506SOL    HW2 1518   0.154   0.253   0.433  0.1865 -0.9124  0.6508
  507SOL     OW 1519   2.353   0.586   0.148 -0.6216  0.2598 -0.0008
  507SOL    HW1 1520   2.389   0.495   0.178  1.9917  0.1698 -0.7494
  507SOL    HW2 1521   2.278   0.621   0.212  1.6215 -0.8486  1.5797
  508SOL     OW 1522   1.335   0.297   1.876 -0.5950 -0.0020 -0.4346
  508SOL    HW1 1523   1.236   0.304   1.897  2.9166 -2.0946 -0.2521
  508SOL    HW2 1524   1.351   0.296   1.776 -1.7259 -0.9629  1.9794
  509SOL     OW 1525   1.680   1.782   1.264 -0.0150  0.0765  0.2774
  509SOL    HW1 1526   1.611   1.733   1.204 -0.9823  0.8588 -0.6406
  509SOL    HW2 1527   1.693   1.724   1.348  0.8808 -0.2661 -1.2522
  510SOL     OW 1528   2.685   1.159   1.423  0.1535 -0.0326 -0.0802
  510SOL    HW1 1529   2.756   1.101   1.470  0.9573 -0.7702 -1.5237
  510SOL    HW2 1530   2.605   1.102   1.387 -4.6671  0.1256 -3.0564
  511SOL     OW 1531   1.653   1.996   1.444  0.1816  0.0786 -0.1161
  511SOL    HW1 1532   1.667   1.948   1.355  0.1914 -0.5478 -0.9675
  511SOL    HW2 1533   1.666   2.097   1.430  0.2826 -1.1840 -1.9096
  512SOL     OW 1534   0.195   1.449   0.450  0.6837  0.1563 -0.3142
  512SOL    HW1 1535   0.265   1.414   0.385 -1.2909  0.3513 -3.1970
  512SOL    HW2 1536   0.226   1.526   0.510 -0.4504  1.1929 -1.5767
  513SOL     OW 1537   0.043   1.930   0.023 -0.3268 -0.4664 -0.4081
  513SOL    HW1 1538   0.027   2.001   3.023  0.8617 -0.9191 -1.3625
  513SOL    HW2 1539   0.064   1.840   3.062  0.6130  4.0259 -0.1020
  514SOL     OW 1540   2.905   1.963   2.314  0.3115  0.0078 -0.0886
  514SOL    HW1 1541   2.862   1.934   2.401 -0.1261  2.6236  3.0723
  514SOL    HW2 1542   2.898   1.881   2.251 -3.8278 -0.3576 -0.3489
  515SOL     OW 1543   2.055   1.048   0.788 -0.1830 -0.1728  0.3016
  515SOL    HW1 1544   2.058   1.135   0.730 -0.7928  0.2004 -2.8041
  515SOL    HW2 1545   1.977   0.990   0.765  1.2990 -0.2657 -1.1425
  516SOL     OW 1546   2.074   2.723   0.242 -0.1658 -0.7179 -0.5199
  516SOL    HW1 1547   1.982   2.686   0.254  2.4881 -2.5494 -0.9927
  516SOL    HW2 1548   2.153   2.658   0.235  1.1053  3.1765 -2.8152
  517SOL     OW 1549   1.058   2.045   2.644  0.1732  0.7570  0.0384
  517SOL    HW1 1550   1.141   2.093   2.611 -3.8737  1.8845  2.4958
  517SOL    HW2 1551   1.023   1.977   2.581  0.4446  0.6607 -1.3184
  518SOL     OW 1552   0.315   0.064   2.259 -0.0440  0.8265  0.0301
  518SOL    HW1 1553   0.369   0.028   2.182  0.2415  2.4623  2.4802
  518SOL    HW2 1554   0.281   0.158   2.237 -0.5341 -1.3528  1.3162
  519SOL     OW 1555   0.453   1.355   0.126 -0.2763  0.2361 -0.2285
  519SOL    HW1 1556   0.385   1.323   0.056  1.3200 -1.2532 -1.0762
  519SOL    HW2 1557   0.436   1.312   0.215 -2.3912 -0.0123 -2.4239
  520SOL     OW 1558   2.932   2.064   1.922 -0.5944 -0.1008  0.6999
  520SOL    HW1 1559   2.834   2.028   1.929  0.3780 -2.1843  1.2858
  520SOL    HW2 1560   2.937   2.162   1.951  1.2624  1.3465  0.5736
  521SOL     OW 1561   0.635   2.448   2.517  0.1616  0.0260  0.0881
  521SOL    HW1 1562   0.700   2.387   2.462  2.2461 -0.1717 -4.6295
  521SOL    HW2 1563   0.625   2.533   2.459  0.7482  1.7181 -2.5281
  522SOL     OW 1564   1.728   2.897   1.936 -0.5058  0.0251 -0.4180
  522SOL    HW1 1565   1.721   2.954   2.018  0.0827 -3.7533 -1.8279
  522SOL    HW2 1566   1.800   2.937   1.875 -1.2420 -2.9885  0.9942
  523SOL     OW 1567   1.998   1.862   1.993 -0.1231  0.3396  0.5153
  523SOL    HW1 1568   2.087   1.886   1.955  1.0208 -1.8251  0.5195
  523SOL    HW2 1569   1.956   1.934   2.044  2.7893 -1.6623 -0.4894
  524SOL     OW 1570   0.752   2.963   0.306  0.1996  0.1056 -0.4188
  524SOL    HW1 1571   0.769   2.907   0.221 -0.8846  4.2421 -2.0259
  524SOL    HW2 1572   0.654   2.971   0.322  1.6984  4.4198  0.1739
  525SOL     OW 1573   0.218   0.663   0.393  0.7847 -0.4152 -0.4875
  525SOL    HW1 1574   0.254   0.608   0.315 -1.6645  0.2411 -0.2729
  525SOL    HW2 1575   0.236   0.615   0.481  1.2962 -2.7229 -0.2133
  526SOL     OW 1576   0.696   2.769   0.637  0.0719 -0.2810 -0.4467
  526SOL    HW1 1577   0.723   2.725   0.729 -0.2555 -0.0478  2.7797
  526SOL    HW2 1578   0.660   2.863   0.656  2.3820  0.2297 -1.7795
  527SOL     OW 1579   2.153   1.720   0.979  0.7607 -0.2561 -0.6937
  527SOL    HW1 1580   2.131   1.809   0.943  1.7101 -0.4240 -0.3463
  527SOL    HW2 1581   2.081   1.651   0.968  2.9879 -1.3261  0.3905
  528SOL     OW 1582   2.863   2.682   2.590 -0.0355 -0.7111 -0.3208
  528SOL    HW1 1583   2.787   2.653   2.534  1.5386 -2.0814 -2.8492
  528SOL    HW2 1584   2.876   2.783   2.574  1.5695 -3.1171 -2.8928
  529SOL     OW 1585   1.433   1.597   2.390  0.4110  0.2422 -0.1336
  529SOL    HW1 1586   1.382   1.535   2.332  1.0391  2.2173  0.8610
  529SOL    HW2 1587   1.530   1.577   2.386 -2.5834  4.7633  0.5214
  530SOL     OW 1588   1.519   1.298   2.844 -0.3718 -0.1846 -0.0230
  530SOL    HW1 1589   1.496   1.352   2.762 -0.5422  0.8132  0.8662
  530SOL    HW2 1590   1.446   1.230   2.856 -0.7555 -0.3965 -1.0354
  531SOL     OW 1591   0.537   1.110   2.902 -0.2886 -0.0630 -0.4607
  531SOL    HW1 1592   0.465   1.147   2.847  4.3752 -1.0132  1.9798
  531SOL    HW2 1593   0.521   1.010   2.892  1.3431 -1.1387 -0.0571
  532SOL     OW 1594   1.717   1.463   0.376  0.2126  1.1126 -0.2556
  532SOL    HW1 1595   1.747   1.401   0.452 -2.0955 -1.9156 -1.5809
  532SOL    HW2 1596   1.712   1.556   0.406 -0.2407 -3.4243  0.7210
  533SOL     OW 1597   0.646   0.352   2.467  0.0042  0.5219  0.2352
  533SOL    HW1 1598   0.630   0.375   2.369  0.2179  0.6851  2.3401
  533SOL    HW2 1599   0.739   0.315   2.484 -4.1329  1.5320 -2.0815
  534SOL     OW 1600   0.730   2.631   2.973 -0.2249  0.5444 -0.0146
  534SOL    HW1 1601   0.779   2.627   2.885 -3.8009 -0.3054  0.0747
  534SOL    HW2 1602   0.775   2.696   3.038  2.1895 -0.4179 -0.1603
  535SOL     OW 1603   0.100   3.075   0.227  0.1728 -0.0768 -0.9918
  535SOL    HW1 1604   0.092   3.002   0.303 -2.8884 -1.0270  0.1753
  535SOL    HW2 1605   0.091   0.095   0.260 -2.4321 -0.3225 -3.0489
  536SOL     OW 1606   0.019   0.897   2.159  0.0364  0.2933  0.2315
  536SOL    HW1 1607   3.036   0.948   2.093 -0.0142 -0.6164 -0.4287
  536SOL    HW2 1608   0.108   0.871   2.115 -1.5884  0.8517  0.7263
  537SOL     OW 1609   0.960   0.272   1.326 -0.2467  0.2991 -0.1045
  537SOL    HW1 1610   0.860   0.260   1.331 -1.0704 -1.4312 -0.1953
  537SOL    HW2 1611   0.986   0.374   1.330  2.6809  2.2328  1.0075
  538SOL     OW 1612   0.148   1.825   0.421 -0.6485 -0.0911 -0.3330
  538SOL    HW1 1613   0.191   1.794   0.330 -0.0223  0.7913 -2.4250
  538SOL    HW2 1614   0.223   1.843   0.486 -0.6126 -2.5828  1.3529
  539SOL     OW 1615   2.652   1.098   2.044 -0.1962  0.2621 -0.4405
  539SOL    HW1 1616   2.567   1.142   2.079  1.5685  1.9040 -2.0326
  539SOL    HW2 1617   2.646   1.083   1.942 -1.6223 -0.9621 -1.5212
  540SOL     OW 1618   1.723   1.216   2.013  0.2118  0.3174 -0.0812
  540SOL    HW1 1619   1.760   1.142   2.066  0.5664  2.0745 -1.5760
  540SOL    HW2 1620   1.788   1.234   1.937 -1.3745 -0.7523 -2.8471
  541SOL     OW 1621   0.943   1.115   1.768 -0.3213  0.4140  0.3435
  541SOL    HW1 1622   0.886   1.050   1.824 -0.8853  1.8307  1.3984
  541SOL    HW2 1623   1.035   1.111   1.812 -1.1591  2.1494 -0.6430
  542SOL     OW 1624   1.886   0.151   2.107  0.4169 -0.2279 -0.0025
  542SOL    HW1 1625   1.975   0.103   2.118 -2.4118  1.2471 -0.3892
  542SOL    HW2 1626   1.875   0.188   2.010 -0.5667 -0.5691  1.5179
  543SOL     OW 1627   1.106   0.367   0.492 -0.4344  0.2143 -0.3843
  543SOL    HW1 1628   1.067   0.289   0.437 -1.8729 -2.7649 -1.3787
  543SOL    HW2 1629   1.165   0.424   0.432  0.4050 -0.0678  0.4667
  544SOL     OW 1630   2.598   1.881   2.134 -0.3086  0.3896 -0.1158
  544SOL    HW1 1631   2.581   1.789   2.175  0.3633 -0.6756 -2.2459
  544SOL    HW2 1632   2.647   1.942   2.197 -1.0199 -1.0745 -0.3462
  545SOL     OW 1633   1.895   2.091   2.113  0.0886  0.1518 -0.8974
  545SOL    HW1 1634   1.958   2.120   2.189  0.1944 -1.0213 -0.0111
  545SOL    HW2 1635   1.883   2.157   2.037 -0.0064 -2.9882 -1.1778
  546SOL     OW 1636   0.316   0.117   2.870 -0.1581  0.1428 -0.3209
  546SOL    HW1 1637   0.322   0.113   2.974  1.3865  0.1058 -0.8000
  546SOL    HW2 1638   0.344   0.027   2.828  1.3237 -1.6960 -0.1201
  547SOL     OW 1639   1.855   0.767   0.277  0.0862  0.0731 -0.0570
  547SOL    HW1 1640   1.822   0.716   0.360  0.7972 -1.4562 -0.2166
  547SOL    HW2 1641   1.933   0.828   0.297 -0.2985 -0.5959 -1.9766
  548SOL     OW 1642   2.233   1.586   2.217 -0.1141  0.5775  0.5518
  548SOL    HW1 1643   2.184   1.505   2.265 -2.4832 -3.4933 -0.1369
  548SOL    HW2 1644   2.315   1.620   2.274  3.7430  0.5402  4.4723
  549SOL     OW 1645   1.826   0.249   0.452 -0.0405 -0.0994  0.0130
  549SOL    HW1 1646   1.893   0.309   0.401  1.6015  2.8771 -0.0992
  549SOL    HW2 1647   1.797   0.300   0.536  2.9265  0.9879  1.0150
  550SOL     OW 1648   2.392   2.269   0.909  0.2840  0.4971 -0.0730
  550SOL    HW1 1649   2.333   2.248   0.991  0.5967  0.9361  1.2064
  550SOL    HW2 1650   2.348   2.336   0.853  2.2646  1.7836  1.4433
  551SOL     OW 1651   1.023   2.847   1.641  0.4149 -0.0683 -0.3268
  551SOL    HW1 1652   1.082   2.769   1.663  0.5321  0.8647 -1.3580
  551SOL    HW2 1653   1.089   2.910   1.605  0.9885 -1.6748  0.2977
  552SOL     OW 1654   2.799   2.238   2.643 -0.3516 -0.5207  0.0443
  552SOL    HW1 1655   2.764   2.143   2.666  2.7202 -0.5702 -2.7088
  552SOL    HW2 1656   2.860   2.233   2.557  0.1618  0.5625 -2.8000
  553SOL     OW 1657   0.268   3.047   0.589  0.0998  0.3684  0.0991
  553SOL    HW1 1658   0.350   3.019   0.633  0.5927  0.4736 -0.0848
  553SOL    HW2 1659   0.228   2.973   0.535 -1.0154 -1.3039 -0.7657
  554SOL     OW 1660   2.264   2.249   1.876 -0.5742 -0.2851  0.4414
  554SOL    HW1 1661   2.166   2.272   1.867  0.3190  0.7559  0.3004
  554SOL    HW2 1662   2.313   2.321   1.824 -0.4429 -3.1386  0.2787
  555SOL     OW 1663   1.271   2.164   1.868  0.2476 -0.3235 -0.0117
  555SOL    HW1 1664   1.216   2.193   1.784  0.4859  1.5763 -4.1447
  555SOL    HW2 1665   1.252   2.067   1.896 -0.6893 -0.9905 -0.7050
  556SOL     OW 1666   1.340   1.509   1.491 -0.0792 -0.2858  0.1553
  556SOL    HW1 1667   1.342   1.584   1.421 -0.4138 -1.4259 -0.9103
  556SOL    HW2 1668   1.409   1.530   1.560 -1.1650  1.1842  0.1779
  557SOL     OW 1669   2.051   2.263   2.336 -0.0620  0.3960  0.2088
  557SOL    HW1 1670   2.147   2.291   2.340  0.4289 -2.2312 -2.2627
  557SOL    HW2 1671   2.027   2.214   2.425  4.0415 -0.4664 -0.1483
  558SOL     OW 1672   0.644   3.013   2.127  0.0144  0.2330 -0.3086
  558SOL    HW1 1673   0.575   3.007   2.051 -2.2190 -0.4775 -0.1373
  558SOL    HW2 1674   0.694   0.021   2.129 -0.7734 -1.1741  1.8404
  559SOL     OW 1675   2.452   2.886   1.165  0.3438  0.4113  0.2564
  559SOL    HW1 1676   2.460   2.845   1.257 -1.6994 -0.5452 -2.2667
  559SOL    HW2 1677   2.517   2.843   1.102 -0.3847  1.1508  0.6959
  560SOL     OW 1678   1.117   2.239   0.499  0.3620 -0.3989 -0.4482
  560SOL    HW1 1679   1.125   2.341   0.488  1.1201  1.7573 -2.8230
  560SOL    HW2 1680   1.026   2.199   0.473  0.0340  0.2237  1.8259
  561SOL     OW 1681   1.073   0.443   0.049  0.0572 -0.1555 -0.1037
  561SOL    HW1 1682   1.050   0.463   3.029 -0.0011  0.7009 -1.1781
  561SOL    HW2 1683   1.009   0.486   0.116 -0.1733 -0.4166 -0.3590
  562SOL     OW 1684   0.769   0.234   2.884  0.0369  0.3144 -0.3041
  562SOL    HW1 1685   0.727   0.285   2.957  0.5555 -2.6545  1.5218
  562SOL    HW2 1686   0.869   0.231   2.890 -1.1910  3.0770 -0.2960
  563SOL     OW 1687   1.459   1.701   2.850  0.0850  0.0260 -0.7609
  563SOL    HW1 1688   1.555   1.677   2.875 -0.2397  0.0633 -2.1257
  563SOL    HW2 1689   1.450   1.768   2.771 -1.4569  2.0751  0.0557
  564SOL     OW 1690   2.467   1.176   0.861 -0.4558  0.0672 -0.4569
  564SOL    HW1 1691   2.548   1.130   0.905  1.7853  0.4392  1.7083
  564SOL    HW2 1692   2.432   1.128   0.776 -0.3246 -0.5546 -1.0756
  565SOL     OW 1693   1.046   0.227   2.751 -0.0896 -0.4304  0.4488
  565SOL    HW1 1694   1.045   0.130   2.790  2.6394  0.5771  1.7900
  565SOL    HW2 1695   1.112   0.287   2.796  0.8506 -1.6548 -1.9612
  566SOL     OW 1696   1.486   0.049   2.422 -0.0978 -0.1517  0.2423
  566SOL    HW1 1697   1.405   3.064   2.392 -0.2147 -0.4299 -1.8654
  566SOL    HW2 1698   1.567   3.068   2.443  0.3488  0.5134  1.4891
  567SOL     OW 1699   2.077   1.288   0.662 -0.0348 -0.4921 -0.3788
  567SOL    HW1 1700   2.086   1.355   0.587 -0.2985  0.0427  1.0056
  567SOL    HW2 1701   2.075   1.341   0.748 -0.9118 -3.0968  0.4990
  568SOL     OW 1702   2.079   1.958   0.606  0.2890 -0.2432  0.6433
  568SOL    HW1 1703   2.084   1.879   0.540 -1.4549 -0.4878 -0.3340
  568SOL    HW2 1704   2.083   2.048   0.556 -0.2938 -0.2655 -0.8218
  569SOL     OW 1705   1.949   1.202   0.027  0.4369 -0.0009  0.5095
  569SOL    HW1 1706   1.918   1.120   3.051  0.2205 -0.4358 -1.3043
  569SOL    HW2 1707   2.049   1.193   0.055  0.2819  1.8084 -0.7221
  570SOL     OW 1708   0.266   2.529   1.952  0.4148 -0.5329 -0.6511
  570SOL    HW1 1709   0.204   2.478   1.884  0.7985  1.3145 -1.3255
  570SOL    HW2 1710   0.248   2.630   1.947 -0.7709 -1.2067 -0.4454
  571SOL     OW 1711   0.203   0.315   2.198  0.2475 -0.3270 -0.5100
  571SOL    HW1 1712   0.269   0.389   2.195 -2.5766 -1.5099 -0.3070
  571SOL    HW2 1713   0.155   0.317   2.291 -0.6959  0.0795 -0.2671
  572SOL     OW 1714   1.182   1.693   0.815 -0.0591  0.0728  0.1176
  572SOL    HW1 1715   1.193   1.791   0.841 -1.3374 -2.5446 -0.6739
  572SOL    HW2 1716   1.121   1.674   0.735  1.8849  0.5807 -1.6424
  573SOL     OW 1717   1.198   1.808   0.201 -0.6939  0.3411  0.1853
  573SOL    HW1 1718   1.244   1.866   0.133  0.8728 -0.7439 -0.1993
  573SOL    HW2 1719   1.240   1.812   0.299 -1.0894  1.3445  2.1181
  574SOL     OW 1720   0.994   2.922   0.690 -0.1707  0.3396  0.1747
  574SOL    HW1 1721   0.977   2.877   0.778 -2.1312 -0.1667  1.7822
  574SOL    HW2 1722   1.020   3.021   0.700 -0.9369 -2.6975 -1.8768
  575SOL     OW 1723   0.061   0.905   1.396 -0.1243 -0.0544 -0.9962
  575SOL    HW1 1724   3.069   0.872   1.329  0.8013  1.1279 -2.2110
  575SOL    HW2 1725   0.025   0.951   1.478  0.3262  1.0674 -1.7370
  576SOL     OW 1726   1.688   3.059   1.379  0.3430 -0.7591  0.9579
  576SOL    HW1 1727   1.743   2.978   1.408  0.2433 -0.0702 -0.7242
  576SOL    HW2 1728   1.637   3.035   1.294  0.1782 -0.7718 -0.1853
  577SOL     OW 1729   0.519   1.033   1.989  0.0652 -0.1071 -0.7198
  577SOL    HW1 1730   0.541   1.102   2.061  1.1893  0.4618 -1.6932
  577SOL    HW2 1731   0.575   0.952   1.992 -0.8925  1.9701  0.4395
  578SOL     OW 1732   2.093   0.285   2.629 -0.4270  0.5323 -0.0725
  578SOL    HW1 1733   2.171   0.282   2.696 -1.0795  0.6669 -0.8240
  578SOL    HW2 1734   2.069   0.381   2.611  0.2910 -0.6219 -0.3811
  579SOL     OW 1735   2.685   1.964   1.887 -0.1114 -0.1634  0.0515
  579SOL    HW1 1736   2.607   1.948   1.822 -1.3855 -1.3293  0.5854
  579SOL    HW2 1737   2.667   1.923   1.975  0.0993  1.7253 -1.4252
  580SOL     OW 1738   1.759   1.122   2.503 -0.7341 -0.3426 -0.1849
  580SOL    HW1 1739   1.767   1.177   2.591 -1.6776  2.9505  2.1273
  580SOL    HW2 1740   1.813   1.038   2.503 -1.4178 -2.5227 -2.5463
  581SOL     OW 1741   1.319   1.063   2.874  0.1727  0.5532  0.1003
  581SOL    HW1 1742   1.216   1.057   2.889 -2.1889  0.3942 -2.2222
  581SOL    HW2 1743   1.345   1.026   2.780  1.6545 -1.0102 -2.1525
  582SOL     OW 1744   1.079   1.437   1.538 -0.2375  0.2836  0.3793
  582SOL    HW1 1745   1.060   1.352   1.484  1.9883 -3.0707  0.6944
  582SOL    HW2 1746   1.184   1.452   1.531  2.6517 -0.3096  0.7650
  583SOL     OW 1747   1.693   1.231   1.364 -0.2329  0.0279 -0.3715
  583SOL    HW1 1748   1.662   1.133   1.366  0.7540 -0.3161 -1.3617
  583SOL    HW2 1749   1.643   1.280   1.285  1.0129 -0.9207 -0.6361
  584SOL     OW 1750   1.799   2.472   0.712 -0.2755  0.0986  0.0135
  584SOL    HW1 1751   1.715   2.419   0.730 -0.6169  0.9427 -0.9005
  584SOL    HW2 1752   1.807   2.554   0.780  3.3996  2.5992  3.4274
  585SOL     OW 1753   2.087   2.748   2.911  0.2776  0.1390 -0.5686
  585SOL    HW1 1754   2.000   2.782   2.866  0.0314  2.2670  0.9621
  585SOL    HW2 1755   2.088   2.801   3.001 -0.2947  0.3964 -1.2056
  586SOL     OW 1756   2.812   2.220   0.889 -0.0645 -0.5888  0.5230
  586SOL    HW1 1757   2.788   2.314   0.876 -1.9877 -2.0391  0.4926
  586SOL    HW2 1758   2.748   2.176   0.951  1.9224 -0.2961  0.2122
  587SOL     OW 1759   0.965   1.900   0.119 -0.2738  0.5474  0.2119
  587SOL    HW1 1760   1.060   1.870   0.148 -0.0651 -0.3792  0.7645
  587SOL    HW2 1761   0.908   1.819   0.089 -0.8207 -0.0430 -1.7282
  588SOL     OW 1762   0.624   0.062   0.938  0.1439 -0.3442 -0.3799
  588SOL    HW1 1763   0.645   0.026   1.030  1.7585 -0.8219 -0.3539
  588SOL    HW2 1764   0.688   0.142   0.919  1.1372 -0.7885 -0.8165
  589SOL     OW 1765   1.324   0.769   0.707 -0.1107 -0.1595 -0.4052
  589SOL    HW1 1766   1.305   0.735   0.613 -0.7809  0.6697 -2.5282
  589SOL    HW2 1767   1.283   0.709   0.780 -1.9162  1.1661 -0.2460
  590SOL     OW 1768   1.784   2.536   0.024  0.3157 -0.0395  0.6381
  590SOL    HW1 1769   1.870   2.508   0.066  0.5380  0.0043 -2.8434
  590SOL    HW2 1770   1.705   2.485   0.060 -1.0533 -0.7110  0.4437
  591SOL     OW 1771   0.206   2.415   2.669 -0.2802 -1.1849 -0.9075
  591SOL    HW1 1772   0.283   2.402   2.607 -1.1245  1.9789  0.1510
  591SOL    HW2 1773   0.160   2.502   2.644 -2.4244 -1.2938 -2.2973
  592SOL     OW 1774   2.839   1.648   1.912 -0.0890 -0.2217 -0.2639
  592SOL    HW1 1775   2.797   1.718   1.849 -0.9537  0.6852 -0.5181
  592SOL    HW2 1776   2.831   1.553   1.874 -3.3832  3.3953 -1.1831
  593SOL     OW 1777   1.681   1.624   1.479  0.4888 -0.3291 -0.4037
  593SOL    HW1 1778   1.748   1.551   1.496 -1.8001  1.5206 -1.6726
  593SOL    HW2 1779   1.616   1.643   1.557  0.4188 -0.0654  0.1167
  594SOL     OW 1780   2.649   1.246   0.073 -0.0011  0.1548 -0.5106
  594SOL    HW1 1781   2.748   1.235   0.102  1.3007  1.1905  2.6019
  594SOL    HW2 1782   2.591   1.169   0.090  4.8397  5.2841  1.2574
  595SOL     OW 1783   0.775   0.699   0.482 -0.9001  0.1900 -0.2579
  595SOL    HW1 1784   0.698   0.712   0.417  0.7778  1.3323  1.8407
  595SOL    HW2 1785   0.851   0.765   0.481 -0.4422 -1.3546  0.3074
  596SOL     OW 1786   0.035   1.374   1.428 -0.0106  0.3032 -0.2465
  596SOL    HW1 1787   0.079   1.374   1.338 -0.2924  2.3233  0.5536
  596SOL    HW2 1788   0.054   1.464   1.466  3.2005 -3.3551  0.5647
  597SOL     OW 1789   0.988   1.951   1.453 -0.7875  0.0603 -0.3440
  597SOL    HW1 1790   0.932   1.974   1.372  2.2222 -0.6495  0.8057
  597SOL    HW2 1791   1.086   1.928   1.436 -0.0315 -0.0202  0.3769
  598SOL     OW 1792   2.939   2.990   1.890 -0.4507 -0.5946  0.5775
  598SOL    HW1 1793   3.023   2.958   1.840  1.3157 -1.6286 -2.4925
  598SOL    HW2 1794   2.860   2.960   1.837 -0.5324 -2.0693 -1.1153
  599SOL     OW 1795   0.255   1.471   2.700 -0.2634  0.3275 -0.3947
  599SOL    HW1 1796   0.295   1.548   2.754  1.4726 -3.6711  0.2984
  599SOL    HW2 1797   0.222   1.504   2.613 -1.8948  0.1301 -1.3916
  600SOL     OW 1798   0.458   0.851   2.853  0.0071 -0.1681  0.0819
  600SOL    HW1 1799   0.514   0.788   2.791 -0.6940 -1.9490 -0.7046
  600SOL    HW2 1800   0.405   0.793   2.913 -1.7859  0.8446 -3.0304
  601SOL     OW 1801   0.683   0.841   1.700 -0.5348 -0.3739  0.1821
  601SOL    HW1 1802   0.783   0.832   1.679 -1.4579 -0.8890  1.8090
  601SOL    HW2 1803   0.668   0.807   1.797 -1.4706 -2.7216 -1.1853
  602SOL     OW 1804   0.301   0.094   0.068 -0.4666  0.4558  0.1551
  602SOL    HW1 1805   0.384   0.093   0.132  0.3615  0.1474 -2.8479
  602SOL    HW2 1806   0.226   0.038   0.108  1.3497 -0.1162 -1.2708
  603SOL     OW 1807   1.707   2.613   2.558 -0.0059 -0.2678 -0.4590
  603SOL    HW1 1808   1.750   2.541   2.607  0.1425  2.7418  0.0874
  603SOL    HW2 1809   1.651   2.668   2.620  1.8724 -1.5131 -1.1057
  604SOL     OW 1810   0.252   2.332   2.914 -0.4127 -0.2882  0.5625
  604SOL    HW1 1811   0.323   2.271   2.945 -0.1689  1.1152  1.3662
  604SOL    HW2 1812   0.255   2.363   2.817 -0.7335 -0.4920 -1.0520
  605SOL     OW 1813   2.276   0.966   1.252  0.6816  0.5173 -0.3201
  605SOL    HW1 1814   2.261   0.964   1.153 -1.5642  0.3655  0.8355
  605SOL    HW2 1815   2.200   0.918   1.309 -0.0260  0.1467  0.6808
  606SOL     OW 1816   0.681   1.187   2.626  0.6150  0.4364  0.0444
  606SOL    HW1 1817   0.711   1.261   2.688  0.5581 -1.6248 -0.2234
  606SOL    HW2 1818   0.736   1.103   2.622 -3.0633  0.8294 -3.3635
  607SOL     OW 1819   0.723   0.377   1.055  0.5564  0.2230 -0.2270
  607SOL    HW1 1820   0.723   0.433   1.142  0.3195  1.9109  1.7323
  607SOL    HW2 1821   0.799   0.313   1.056 -0.5811  1.7843  1.1038
  608SOL     OW 1822   0.000   1.824   1.907  0.4463  0.0482  0.5730
  608SOL    HW1 1823   3.014   1.747   1.896 -1.1590  0.7505 -1.8494
  608SOL    HW2 1824   3.029   1.913   1.905 -0.1707  1.8883 -0.7007
  609SOL     OW 1825   2.363   0.650   0.485  0.0154 -0.2531 -0.6764
  609SOL    HW1 1826   2.450   0.690   0.455 -1.3445 -1.5677  1.3216
  609SOL    HW2 1827   2.289   0.663   0.415 -0.8423 -0.6975 -0.8783
  610SOL     OW 1828   0.182   2.651   1.320 -0.2844 -0.5951 -0.1066
  610SOL    HW1 1829   0.211   2.731   1.379 -0.8179  1.3015  0.8042
  610SOL    HW2 1830   0.153   2.680   1.226 -2.2069  1.6338  0.7626
  611SOL     OW 1831   1.673   2.053   0.294 -0.0480 -0.1432 -0.0586
  611SOL    HW1 1832   1.771   2.020   0.293 -0.5685 -0.0760  1.0887
  611SOL    HW2 1833   1.607   1.980   0.320 -0.0747  0.9508 -1.4830
  612SOL     OW 1834   0.728   0.440   1.778 -0.1588 -0.2405  0.1514
  612SOL    HW1 1835   0.796   0.461   1.850 -1.5902  0.7991  3.2019
  612SOL    HW2 1836   0.635   0.472   1.812  0.0645 -0.4788 -0.2946
  613SOL     OW 1837   0.334   2.058   0.802  0.4097  0.5630  0.2037
  613SOL    HW1 1838   0.331   2.006   0.888 -1.2282 -0.7680 -0.3775
  613SOL    HW2 1839   0.422   2.111   0.793 -0.1161 -0.7450 -1.7487
  614SOL     OW 1840   1.634   0.073   1.630 -0.5180  0.6173  0.2137
  614SOL    HW1 1841   1.727   0.092   1.673 -0.3001 -1.0081  1.7134
  614SOL    HW2 1842   1.654   0.012   1.554  0.5458 -0.9662  0.5753
  615SOL     OW 1843   1.494   1.437   0.647 -0.4016 -0.7188  0.0333
  615SOL    HW1 1844   1.586   1.418   0.692  5.0115 -0.0362  0.7035
  615SOL    HW2 1845   1.461   1.355   0.594 -1.0304 -2.5636 -0.0451
  616SOL     OW 1846   1.944   1.575   0.268  0.2652 -0.0167  0.5874
  616SOL    HW1 1847   1.852   1.526   0.280 -0.4540 -1.6472  2.5661
  616SOL    HW2 1848   1.963   1.590   0.171  0.7655  1.3331 -2.3693
  617SOL     OW 1849   1.568   0.750   3.028  0.1320 -0.2171 -0.4900
  617SOL    HW1 1850   1.631   0.777   0.023  0.8913 -2.1685  3.3469
  617SOL    HW2 1851   1.616   0.766   2.938 -1.6073 -1.1787  0.6255
  618SOL     OW 1852   0.643   0.765   1.961 -0.4675 -0.6711  0.3366
  618SOL    HW1 1853   0.645   0.796   2.059 -1.6781  0.0130 -0.9968
  618SOL    HW2 1854   0.580   0.683   1.949 -0.4287 -2.0009  0.1928
  619SOL     OW 1855   0.023   1.627   1.501 -0.4586 -0.3666 -0.7779
  619SOL    HW1 1856   3.006   1.612   1.520 -0.1047  3.0099 -0.9015
  619SOL    HW2 1857   0.035   1.720   1.463 -0.0607 -0.6545 -1.6945
  620SOL     OW 1858   2.397   2.852   2.541  0.3152  0.2874  0.1411
  620SOL    HW1 1859   2.429   2.932   2.491 -1.6256  0.1846 -1.0774
  620SOL    HW2 1860   2.313   2.885   2.593  0.0526  0.1506 -0.8768
  621SOL     OW 1861   2.517   2.005   0.031 -0.3249  0.4431  0.1430
  621SOL    HW1 1862   2.508   1.910   0.077  0.4525 -1.4297  1.6033
  621SOL    HW2 1863   2.591   2.058   0.077  0.4465 -0.1651  0.9014
  622SOL     OW 1864   1.397   0.287   2.541  0.3905  0.6009 -0.5245
  622SOL    HW1 1865   1.417   0.192   2.501 -1.5442 -2.6438  0.9867
  622SOL    HW2 1866   1.479   0.343   2.538 -3.5307 -2.0625  1.3481
  623SOL     OW 1867   0.690   1.636   1.493 -0.5596 -0.4669 -0.1065
  623SOL    HW1 1868   0.759   1.657   1.570  1.0864 -2.0964  0.0684
  623SOL    HW2 1869   0.735   1.634   1.402 -1.3148 -0.2435 -3.0380
  624SOL     OW 1870   2.733   2.909   0.044 -0.1004 -0.0528  0.1127
  624SOL    HW1 1871   2.745   2.955   3.032 -0.3593 -1.9391 -3.6069
  624SOL    HW2 1872   2.804   2.838   0.044  1.1741  3.4237  0.4026
  625SOL     OW 1873   0.752   2.093   0.651 -0.1836 -0.5876  0.3435
  625SOL    HW1 1874   0.810   2.020   0.696  0.0336  1.8840 -1.5124
  625SOL    HW2 1875   0.742   2.065   0.550  0.2926  2.4858 -2.7650
  626SOL     OW 1876   2.918   0.620   2.597 -0.0774  0.1630  0.1847
  626SOL    HW1 1877   2.905   0.524   2.564 -1.7078 -4.8267 -0.0257
  626SOL    HW2 1878   2.853   0.635   2.671 -0.2271  1.4679  1.5890
  627SOL     OW 1879   1.320   2.006   0.054  0.3857 -0.2404  0.2990
  627SOL    HW1 1880   1.414   2.050   0.046  3.1897  1.5862  0.6556
  627SOL    HW2 1881   1.280   1.992   3.036 -3.0332  1.7450 -4.1460
  628SOL     OW 1882   2.783   2.669   2.856  0.2634  0.7266  0.4820
  628SOL    HW1 1883   2.830   2.671   2.766  2.9482  2.0830 -1.0211
  628SOL    HW2 1884   2.691   2.704   2.838  1.9812 -1.1805 -0.3859
  629SOL     OW 1885   0.655   2.925   2.711  0.1125 -0.3467  0.7081
  629SOL    HW1 1886   0.747   2.882   2.719 -1.0424 -0.5348  1.2528
  629SOL    HW2 1887   0.655   3.008   2.655 -0.7330 -0.1897 -0.4023
  630SOL     OW 1888   1.063   0.311   1.907  0.2110  0.1096  0.2158
  630SOL    HW1 1889   1.046   0.219   1.862 -1.3920  0.3833  0.9608
  630SOL    HW2 1890   1.040   0.292   2.006  0.0700 -1.4736 -3.1485
  631SOL     OW 1891   2.042   0.938   0.379 -0.2037  0.6421 -0.0762
  631SOL    HW1 1892   2.023   1.039   0.372  1.9737 -2.4716 -0.3630
  631SOL    HW2 1893   2.007   0.913   0.468 -0.5687  1.7975  0.1418
  632SOL     OW 1894   2.566   0.040   1.727 -0.1584 -0.5122  0.0415
  632SOL    HW1 1895   2.499   0.082   1.663 -1.0820  1.1782 -0.8772
  632SOL    HW2 1896   2.655   0.091   1.712 -1.5947  0.4397  2.3491
  633SOL     OW 1897   1.129   1.196   0.446 -0.0351 -0.1198 -0.0615
  633SOL    HW1 1898   1.067   1.192   0.531  0.0332 -0.5914  3.4333
  633SOL    HW2 1899   1.123   1.101   0.403  0.3103 -0.2343  0.3285
  634SOL     OW 1900   2.646   2.624   2.435 -0.0482 -0.5481 -0.2535
  634SOL    HW1 1901   2.712   2.571   2.368  2.9286 -0.5069 -1.7692
  634SOL    HW2 1902   2.595   2.693   2.382  1.5301  0.2553 -1.1443
  635SOL     OW 1903   1.811   0.605   0.484 -0.1845  0.3517  0.0094
  635SOL    HW1 1904   1.872   0.606   0.567  1.6382  2.6009  1.3385
  635SOL    HW2 1905   1.721   0.560   0.506  0.3224 -1.1359  0.3439
  636SOL     OW 1906   0.721   1.181   0.546  0.6152  0.1462 -0.0804
  636SOL    HW1 1907   0.667   1.171   0.634 -3.7153  2.3557  1.5688
  636SOL    HW2 1908   0.663   1.145   0.472  0.0657 -1.7569 -0.0255
  637SOL     OW 1909   2.650   2.187   0.217 -0.1044 -0.8596  0.4775
  637SOL    HW1 1910   2.663   2.185   0.318  2.2162 -0.6484 -1.2644
  637SOL    HW2 1911   2.728   2.236   0.165 -1.9447  0.9884 -1.5930
  638SOL     OW 1912   1.684   2.308   2.316 -0.1311 -0.1922 -0.3280
  638SOL    HW1 1913   1.607   2.240   2.338  0.4914  0.4234  0.5483
  638SOL    HW2 1914   1.731   2.338   2.405  1.5162  0.0341  2.0519
  639SOL     OW 1915   1.397   1.966   0.667  0.3632 -0.0817 -0.2681
  639SOL    HW1 1916   1.337   1.954   0.744  0.2670 -0.6646 -3.0908
  639SOL    HW2 1917   1.486   1.918   0.677 -1.5774  3.6119 -0.8501
  640SOL     OW 1918   1.931   0.003   0.458  0.1648 -0.3198 -0.3919
  640SOL    HW1 1919   2.031   0.005   0.451 -2.3562 -1.0841  0.3548
  640SOL    HW2 1920   1.894   0.099   0.462  2.9235  1.5113  1.1515
  641SOL     OW 1921   2.837   0.192   0.131 -0.3398  0.6725 -0.1329
  641SOL    HW1 1922   2.892   0.115   0.089 -0.8727 -2.3130 -0.3430
  641SOL    HW2 1923   2.853   0.183   0.234  0.5916 -0.1436  1.4393
  642SOL     OW 1924   0.625   0.881   1.016  0.5012  0.3110  0.0656
  642SOL    HW1 1925   0.579   0.824   0.944 -2.3886 -2.2625 -1.5342
  642SOL    HW2 1926   0.604   0.838   1.105 -0.7993 -1.0314 -1.0871
  643SOL     OW 1927   0.635   1.337   2.408 -0.2725  0.1201  0.0357
  643SOL    HW1 1928   0.656   1.278   2.491  2.1445  0.3206 -0.5843
  643SOL    HW2 1929   0.605   1.283   2.331 -0.3468  2.8282  2.7833
  644SOL     OW 1930   1.559   2.142   0.550 -0.0669 -0.5989  0.5047
  644SOL    HW1 1931   1.491   2.088   0.597  0.9041  4.1292  0.9843
  644SOL    HW2 1932   1.554   2.120   0.450  1.2796  0.2816 -2.1714
  645SOL     OW 1933   1.322   1.882   0.414 -0.1687 -0.1203 -0.5263
  645SOL    HW1 1934   1.404   1.830   0.389  1.4715 -2.1815 -1.7378
  645SOL    HW2 1935   1.317   1.903   0.514 -0.9328 -0.0850 -1.7966
  646SOL     OW 1936   2.978   1.708   2.787 -0.2995 -0.3010  0.5904
  646SOL    HW1 1937   2.992   1.707   2.686  3.3829 -0.3535  0.7924
  646SOL    HW2 1938   3.058   1.757   2.833  2.3899 -0.6870  2.0519
  647SOL     OW 1939   0.967   0.262   1.036 -0.0316 -0.6541 -0.0085
  647SOL    HW1 1940   0.983   0.184   0.971 -4.7044  0.1093  0.4530
  647SOL    HW2 1941   1.018   0.252   1.126  0.5716  0.6854  2.2201
  648SOL     OW 1942   1.578   0.581   1.116 -0.5309  0.4446 -0.2083
  648SOL    HW1 1943   1.562   0.647   1.039  0.9193 -1.9056  1.0199
  648SOL    HW2 1944   1.670   0.532   1.113  0.8519 -1.7792 -0.1466
  649SOL     OW 1945   0.902   1.596   0.220  0.4058 -0.3676  0.0428
  649SOL    HW1 1946   0.934   1.604   0.119  0.0915  0.1211  1.4312
  649SOL    HW2 1947   0.970   1.535   0.262 -0.6930 -0.0218  0.9523
  650SOL     OW 1948   2.333   1.488   1.964 -0.0381  0.3636 -0.4065
  650SOL    HW1 1949   2.299   1.550   2.036 -1.2160  1.8093 -0.4862
  650SOL    HW2 1950   2.274   1.492   1.881  0.4331  1.8622 -0.4636
  651SOL     OW 1951   1.607   2.243   2.787  0.5544  0.3911  0.2785
  651SOL    HW1 1952   1.668   2.294   2.719 -0.3533  3.7645  0.1405
  651SOL    HW2 1953   1.571   2.160   2.746 -0.7036  0.0231 -2.0309
  652SOL     OW 1954   2.507   1.758   0.182  0.6023 -0.2475  0.3615
  652SOL    HW1 1955   2.446   1.682   0.145 -0.3938 -3.4325 -0.4261
  652SOL    HW2 1956   2.603   1.727   0.179 -2.3650 -1.3372  0.7043
  653SOL     OW 1957   0.238   0.252   0.574  0.4673  0.1177  0.2992
  653SOL    HW1 1958   0.337   0.258   0.606  1.8858  0.0302  0.3177
  653SOL    HW2 1959   0.213   0.151   0.580  0.1535 -3.5318  0.6928
  654SOL     OW 1960   2.649   3.073   2.202  0.1415  0.1619 -0.5166
  654SOL    HW1 1961   2.676   0.089   2.182  0.1200 -0.8509  1.9607
  654SOL    HW2 1962   2.602   3.032   2.124 -1.2113  0.8135  2.7908
  655SOL     OW 1963   0.784   2.633   0.851  0.4919  0.4830  0.2119
  655SOL    HW1 1964   0.741   2.592   0.937  0.7634 -1.1358 -0.3637
  655SOL    HW2 1965   0.832   2.559   0.798 -1.0761 -0.7362  0.7575
  656SOL     OW 1966   2.904   3.019   2.719  0.3565 -0.3467  0.0645
  656SOL    HW1 1967   2.927   3.029   2.623 -1.9435 -0.5023  4.4293
  656SOL    HW2 1968   2.979   2.980   2.770 -0.5472 -0.4171 -1.6575
  657SOL     OW 1969   2.962   1.010   0.036  0.3028 -0.2925  0.0597
  657SOL    HW1 1970   2.919   1.025   3.024  0.4469 -1.8558  1.3222
  657SOL    HW2 1971   3.030   0.931   0.030 -1.9282 -0.2251 -0.5349
  658SOL     OW 1972   2.356   1.868   1.379 -0.2552  0.9669  0.0073
  658SOL    HW1 1973   2.255   1.860   1.399 -0.7529  3.3412  1.9641
  658SOL    HW2 1974   2.412   1.838   1.460 -2.3564  2.8745 -0.6492
  659SOL     OW 1975   1.801   2.669   0.277  0.1817  0.0073 -0.1535
  659SOL    HW1 1976   1.769   2.613   0.354  4.0821  0.9339 -0.8210
  659SOL    HW2 1977   1.806   2.604   0.198 -0.0823  0.1073 -0.2859
  660SOL     OW 1978   1.599   0.859   2.554 -0.3884 -0.1938  0.7219
  660SOL    HW1 1979   1.680   0.919   2.543 -2.8473  0.7685  0.7523
  660SOL    HW2 1980   1.578   0.816   2.462  0.5898  0.7338 -1.0817
  661SOL     OW 1981   3.042   2.107   1.328 -0.1389  0.1838  0.3349
  661SOL    HW1 1982   2.996   2.172   1.264  0.8415 -0.1854 -1.2872
  661SOL    HW2 1983   2.972   2.040   1.357  1.3964 -0.2822 -1.5575
  662SOL     OW 1984   0.347   0.679   3.077  0.1742 -0.1936 -0.7253
  662SOL    HW1 1985   0.271   0.745   0.012 -0.7130  1.4509 -1.1862
  662SOL    HW2 1986   0.366   0.643   0.092  0.0986  0.1195 -1.3601
  663SOL     OW 1987   2.023   2.033   1.296  0.5214 -0.2084 -0.8435
  663SOL    HW1 1988   2.038   2.108   1.366  0.3934 -4.2298 -1.7195
  663SOL    HW2 1989   2.066   1.949   1.337  0.8551 -1.8436  0.2260
  664SOL     OW 1990   0.796   1.594   1.247  0.2665 -0.0307 -0.7529
  664SOL    HW1 1991   0.732   1.590   1.169  4.1084  2.4289  0.6845
  664SOL    HW2 1992   0.887   1.623   1.211 -1.9365  1.2120 -0.1945
  665SOL     OW 1993   1.812   2.621   1.932 -0.0494  0.2196 -0.0024
  665SOL    HW1 1994   1.806   2.712   1.961 -0.6313 -2.2354 -2.3310
  665SOL    HW2 1995   1.770   2.553   1.998  0.7164 -1.1456 -0.2381
  666SOL     OW 1996   2.876   2.899   0.401 -0.1240 -0.5970  0.2755
  666SOL    HW1 1997   2.806   2.964   0.361 -0.3621  0.9059 -2.6211
  666SOL    HW2 1998   2.844   2.859   0.485  0.3575 -3.1181 -0.5708
  667SOL     OW 1999   2.750   1.437   1.733  0.2478 -0.0046 -0.4639
  667SOL    HW1 2000   2.683   1.394   1.670  2.3039 -0.9843  0.5099
  667SOL    HW2 2001   2.807   1.364   1.769  0.0348  1.5523 -0.8438
  668SOL     OW 2002   0.329   0.600   2.477  0.7771  0.1713 -0.2167
  668SOL    HW1 2003   0.405   0.560   2.530 -2.0565 -1.6560  0.9512
  668SOL    HW2 2004   0.248   0.617   2.536  2.6942  3.2748  1.5903
  669SOL     OW 2005   2.259   1.876   2.467 -0.0861  0.1527 -0.3954
  669SOL    HW1 2006   2.297   1.932   2.392  2.3976 -2.5187 -2.5128
  669SOL    HW2 2007   2.194   1.807   2.428 -2.7216 -1.0401 -1.6962
  670SOL     OW 2008   2.623   1.528   2.027  1.3622 -0.2811  0.0135
  670SOL    HW1 2009   2.530   1.508   1.988 -0.0459 -1.0217  0.6847
  670SOL    HW2 2010   2.665   1.609   1.984  1.3378 -0.5984  0.4769
  671SOL     OW 2011   2.994   1.536   0.794 -0.5242  0.1532  0.6559
  671SOL    HW1 2012   3.057   1.469   0.752 -0.5441 -0.7953 -0.7600
  671SOL    HW2 2013   2.902   1.493   0.787 -1.2404 -1.6204  1.7893
  672SOL     OW 2014   2.388   0.706   2.011  0.9171 -0.2131  0.1223
  672SOL    HW1 2015   2.369   0.748   1.913 -0.1476 -1.5467 -2.9335
  672SOL    HW2 2016   2.470   0.748   2.053  3.0981  0.8077 -1.1722
  673SOL     OW 2017   2.431   2.723   1.970 -0.0898  0.2607 -0.3387
  673SOL    HW1 2018   2.468   2.818   1.976 -1.5598 -0.7324  0.3967
  673SOL    HW2 2019   2.360   2.715   1.899  0.4712  0.1395 -2.5980
  674SOL     OW 2020   1.672   2.588   1.502 -0.0629 -0.2133  0.1738
  674SOL    HW1 2021   1.649   2.657   1.574 -1.1265 -1.9541  1.1313
  674SOL    HW2 2022   1.623   2.503   1.531 -1.1010  0.1212  0.8200
  675SOL     OW 2023   0.652   0.855   0.688  0.2179  0.2944  0.4295
  675SOL    HW1 2024   0.635   0.951   0.672  2.5127  2.2805  1.8154
  675SOL    HW2 2025   0.700   0.806   0.611  0.7246 -0.9046  0.3749
  676SOL     OW 2026   1.797   1.277   0.569 -0.1914 -0.0207  0.0451
  676SOL    HW1 2027   1.755   1.185   0.559 -0.1757  0.9351  0.6778
  676SOL    HW2 2028   1.899   1.278   0.560  1.7484  0.3154  0.6419
  677SOL     OW 2029   2.836   1.511   2.334  0.0342  0.9036  0.0511
  677SOL    HW1 2030   2.749   1.472   2.300  0.3634 -0.9526 -0.0139
  677SOL    HW2 2031   2.896   1.430   2.360  0.2676 -1.3756 -0.1338
  678SOL     OW 2032   2.539   2.019   1.221  0.3040 -0.1835 -0.0336
  678SOL    HW1 2033   2.621   1.994   1.279  0.1492  0.1797 -0.8038
  678SOL    HW2 2034   2.454   1.999   1.273 -2.3348 -0.0748 -1.6063
  679SOL     OW 2035   2.010   2.492   0.497 -0.4938 -0.2332 -0.8358
  679SOL    HW1 2036   2.109   2.515   0.491 -0.5968 -2.4162  0.3103
  679SOL    HW2 2037   1.954   2.517   0.580  0.5897  1.1339  1.5271
  680SOL     OW 2038   2.716   2.329   2.085  0.2280  0.7772  0.2830
  680SOL    HW1 2039   2.614   2.340   2.091 -1.1107  1.3774  2.3147
  680SOL    HW2 2040   2.749   2.308   1.995  0.1674  0.4292  0.0994
  681SOL     OW 2041   0.210   1.244   1.723  0.6759 -0.2381  0.2882
  681SOL    HW1 2042   0.276   1.167   1.730  0.2720  3.0393  1.8459
  681SOL    HW2 2043   0.232   1.321   1.782 -0.1291 -1.8487 -1.7581
  682SOL     OW 2044   1.186   2.620   0.714  0.4530 -0.6418  0.3214
  682SOL    HW1 2045   1.099   2.657   0.745  2.0342  4.2862 -0.3806
  682SOL    HW2 2046   1.245   2.684   0.666 -1.9961 -3.6371 -0.9707
  683SOL     OW 2047   2.286   1.354   0.975  0.0474 -0.1931 -0.3100
  683SOL    HW1 2048   2.277   1.330   1.077  0.2995 -2.3100  2.0482
  683SOL    HW2 2049   2.365   1.309   0.927 -0.6327  2.8788 -0.0592
  684SOL     OW 2050   0.595   2.119   2.171  0.1948  0.3617 -0.0017
  684SOL    HW1 2051   0.542   2.107   2.260 -2.3017 -0.5037  0.5382
  684SOL    HW2 2052   0.527   2.112   2.096  2.4927  0.5435  2.9446
  685SOL     OW 2053   1.529   1.730   0.077  0.2873 -0.3695  0.1288
  685SOL    HW1 2054   1.603   1.778   0.028  2.9037  2.6679 -0.2333
  685SOL    HW2 2055   1.439   1.767   0.047  1.5515 -1.3715  0.0075
  686SOL     OW 2056   2.994   0.611   1.415  0.1395  0.6363  0.2334
  686SOL    HW1 2057   2.935   0.585   1.489  2.9011  0.7449 -4.8405
  686SOL    HW2 2058   2.966   0.702   1.381  1.0767  0.6121  0.6879
  687SOL     OW 2059   0.892   2.358   2.842 -0.1164 -0.5101  0.2287
  687SOL    HW1 2060   0.862   2.367   2.937 -0.2441  0.0592  2.8398
  687SOL    HW2 2061   0.856   2.273   2.800 -0.7726  0.3419 -1.5157
  688SOL     OW 2062   0.186   2.136   2.164 -0.0613  0.4476  0.0783
  688SOL    HW1 2063   0.090   2.108   2.142 -3.0356 -3.0322 -0.8591
  688SOL    HW2 2064   0.239   2.065   2.215  0.2554 -1.2225 -0.1263
  689SOL     OW 2065   2.052   0.708   1.857  0.2001  0.8094  0.0533
  689SOL    HW1 2066   1.972   0.772   1.852 -0.4524  2.4808 -1.1405
  689SOL    HW2 2067   2.052   0.652   1.939 -0.8599  2.1199 -0.0120
  690SOL     OW 2068   2.282   0.734   0.936 -0.3053  0.1276  0.2001
  690SOL    HW1 2069   2.230   0.677   1.001  0.8802 -1.7592  1.7623
  690SOL    HW2 2070   2.256   0.831   0.938 -0.5287 -0.2335  1.5266
  691SOL     OW 2071   0.764   1.645   1.769 -0.3790  0.2441  0.1147
  691SOL    HW1 2072   0.781   1.648   1.871  1.9608 -2.4664  0.3066
  691SOL    HW2 2073   0.847   1.663   1.712  2.4107 -0.9670 -0.8531
  692SOL     OW 2074   2.231   0.276   1.398 -0.2257  0.4090 -0.1203
  692SOL    HW1 2075   2.150   0.283   1.453  2.4058 -1.9160 -0.2626
  692SOL    HW2 2076   2.201   0.268   1.304 -3.6051  0.2499  3.5264
  693SOL     OW 2077   0.504   1.218   2.212 -0.1453  0.3947 -0.0130
  693SOL    HW1 2078   0.486   1.131   2.260 -0.4613  0.1689 -2.3907
  693SOL    HW2 2079   0.413   1.260   2.193  2.6820 -0.6088  0.8262
  694SOL     OW 2080   1.605   0.096   1.118 -0.6076 -0.1298 -0.4890
  694SOL    HW1 2081   1.561   0.114   1.028 -0.1268 -2.3446 -0.0175
  694SOL    HW2 2082   1.667   0.173   1.136  2.7524  0.0188  1.3295
  695SOL     OW 2083   1.220   1.072   1.819 -0.0286  0.9258 -0.1562
  695SOL    HW1 2084   1.223   0.990   1.762 -2.0994  1.0538  0.5250
  695SOL    HW2 2085   1.263   1.055   1.909 -0.2375  0.0356 -0.0009
  696SOL     OW 2086   1.239   0.077   0.557 -0.2021  0.3053  0.2805
  696SOL    HW1 2087   1.239   0.146   0.635 -1.9946  1.2233  1.9945
  696SOL    HW2 2088   1.149   0.031   0.539 -0.2336 -0.7243  0.3021
  697SOL     OW 2089   1.062   0.563   0.680 -0.1511  0.3020 -0.1274
  697SOL    HW1 2090   0.981   0.556   0.753 -0.7125 -0.3232  1.7957
  697SOL    HW2 2091   1.063   0.482   0.615 -1.0488 -1.5321 -2.3376
  698SOL     OW 2092   1.062   1.123   2.592 -0.3133 -0.7834 -0.4276
  698SOL    HW1 2093   1.058   1.220   2.625 -0.6680  2.5785 -2.2201
  698SOL    HW2 2094   1.156   1.085   2.573 -0.6738 -1.5732  0.3093
  699SOL     OW 2095   1.624   1.426   1.189  0.7103  0.0512  0.2367
  699SOL    HW1 2096   1.528   1.407   1.211  2.4697 -0.3320 -0.2828
  699SOL    HW2 2097   1.624   1.487   1.107 -0.2277 -0.1780  1.2347
  700SOL     OW 2098   1.389   0.163   0.325 -0.2392  0.1370 -0.3804
  700SOL    HW1 2099   1.337   0.166   0.413 -3.0439  0.1794  2.9007
  700SOL    HW2 2100   1.472   0.105   0.350  1.4828  0.8931  0.1413
  701SOL     OW 2101   2.849   0.182   2.327  0.3691 -0.4852 -0.7949
  701SOL    HW1 2102   2.906   0.156   2.243  2.8032 -1.3049 -1.1453
  701SOL    HW2 2103   2.823   0.103   2.385 -0.1604  3.4499  1.2156
  702SOL     OW 2104   1.075   0.173   0.071 -0.0160  0.1990  0.0342
  702SOL    HW1 2105   1.054   0.273   0.101 -1.7244  2.4950  1.1547
  702SOL    HW2 2106   1.177   0.155   0.071 -0.4558  0.8036  1.2747
  703SOL     OW 2107   2.295   2.759   2.299 -0.0884  0.2789 -0.3201
  703SOL    HW1 2108   2.328   2.754   2.394  0.0912 -0.3267 -0.3626
  703SOL    HW2 2109   2.369   2.780   2.235  0.8079 -2.6038 -1.1179
  704SOL     OW 2110   0.669   2.236   1.014 -0.7201 -0.2155  0.1525
  704SOL    HW1 2111   0.625   2.250   0.924  0.7583 -4.2705 -0.2762
  704SOL    HW2 2112   0.668   2.138   1.043 -0.1072  0.2939 -1.5195
  705SOL     OW 2113   2.855   0.260   1.856 -0.2199 -0.6899  0.3783
  705SOL    HW1 2114   2.954   0.270   1.885  2.2818 -0.3099  1.2637
  705SOL    HW2 2115   2.795   0.277   1.938 -1.6911 -0.0585  2.2799
  706SOL     OW 2116   1.621   0.054   0.449 -0.1906 -0.4908  0.0314
  706SOL    HW1 2117   1.630   3.041   0.406  0.0651  0.3650 -1.3940
  706SOL    HW2 2118   1.705   0.113   0.428 -0.1564  3.0546 -1.7797
  707SOL     OW 2119   1.277   1.892   2.196  0.2053 -0.2596  0.1527
  707SOL    HW1 2120   1.312   1.810   2.147  0.8841  1.7748  0.1055
  707SOL    HW2 2121   1.346   1.967   2.214 -0.1585 -0.7347 -0.4487
  708SOL     OW 2122   0.127   2.331   1.785  0.7418  0.2489  0.0913
  708SOL    HW1 2123   0.213   2.280   1.755 -0.5863  1.0647  0.9159
  708SOL    HW2 2124   0.051   2.301   1.726  2.1344 -0.1940  1.7579
  709SOL     OW 2125   1.846   0.193   1.837 -0.0065 -0.1989  0.5139
  709SOL    HW1 2126   1.890   0.109   1.796  2.0583  1.5607 -2.4197
  709SOL    HW2 2127   1.904   0.275   1.828  0.7524 -1.6848  0.8860
  710SOL     OW 2128   2.423   0.480   1.488  0.4651  0.6546 -0.0127
  710SOL    HW1 2129   2.354   0.418   1.455  0.7297 -0.5889  0.9793
  710SOL    HW2 2130   2.515   0.443   1.501 -4.9104 -0.0590  1.0149
  711SOL     OW 2131   0.354   1.950   0.541  0.5322 -0.1432 -0.2929
  711SOL    HW1 2132   0.329   1.984   0.634  0.5117  0.6267  1.7611
  711SOL    HW2 2133   0.444   1.904   0.552 -1.7819 -1.5372 -0.2648
  712SOL     OW 2134   0.618   2.673   2.375  0.4823  0.3217  1.0533
  712SOL    HW1 2135   0.661   2.646   2.285 -3.0985  2.2988  2.1727
  712SOL    HW2 2136   0.564   2.756   2.349  1.6718  1.7974 -0.3531
  713SOL     OW 2137   1.847   0.990   2.964 -0.2734  0.1245  0.0999
  713SOL    HW1 2138   1.765   0.953   3.012  0.3240 -1.2760 -0.9863
  713SOL    HW2 2139   1.917   0.913   2.956  0.9952 -2.9007 -1.0641
  714SOL     OW 2140   0.549   1.705   1.011  0.5320 -0.0384  0.0554
  714SOL    HW1 2141   0.616   1.623   0.997  0.3224 -1.2047  0.0932
  714SOL    HW2 2142   0.452   1.670   1.013 -0.0838 -1.2173 -0.4467
  715SOL     OW 2143   1.911   3.049   2.957 -0.0272  0.1185  0.2113
  715SOL    HW1 2144   1.979   3.006   3.012 -2.1973 -0.3561 -0.8109
  715SOL    HW2 2145   1.920   3.024   2.858  1.0794  1.3779 -2.3529
  716SOL     OW 2146   0.086   0.196   1.753  0.1703  0.0389 -0.2948
  716SOL    HW1 2147   0.082   0.287   1.722 -0.4524 -2.1495  1.7973
  716SOL    HW2 2148   0.050   0.188   1.850  0.0025  2.5994  1.6023
  717SOL     OW 2149   0.298   1.018   0.080  0.4226 -0.3364 -0.3992
  717SOL    HW1 2150   0.222   0.954   0.042 -1.4816 -0.3738 -0.8550
  717SOL    HW2 2151   0.284   1.114   0.047  0.6926 -0.4066 -1.5601
  718SOL     OW 2152   1.348   1.001   2.610  0.4286  0.2169  0.0816
  718SOL    HW1 2153   1.303   0.916   2.645 -1.4873 -1.4889  1.2183
  718SOL    HW2 2154   1.437   0.974   2.574 -2.1873  0.3111 -1.4713
  719SOL     OW 2155   2.748   1.663   3.075 -0.3355 -0.2668 -0.1159
  719SOL    HW1 2156   2.710   1.593   0.065  0.9673 -1.2051 -0.9256
  719SOL    HW2 2157   2.787   1.621   2.990  0.0102  2.2060  0.4135
  720SOL     OW 2158   1.244   0.795   1.038 -0.3908  0.2602 -0.6297
  720SOL    HW1 2159   1.291   0.727   0.984  1.2821 -0.3882  5.0834
  720SOL    HW2 2160   1.153   0.755   1.064  0.9461 -0.3623  1.9329
  721SOL     OW 2161   2.757   0.877   0.163 -0.0228  0.9214 -0.1256
  721SOL    HW1 2162   2.727   0.785   0.123  0.2585  0.5732  0.2184
  721SOL    HW2 2163   2.850   0.900   0.126  2.2349  0.6535  1.8772
  722SOL     OW 2164   1.046   0.995   2.891 -0.0798  0.2394 -0.2535
  722SOL    HW1 2165   1.057   0.912   2.947 -2.5722  0.2816  0.4737
  722SOL    HW2 2166   0.946   1.007   2.873  0.0389  0.5043 -2.8330
  723SOL     OW 2167   0.237   1.104   0.521 -0.6290  0.5272  0.2122
  723SOL    HW1 2168   0.287   1.174   0.472 -1.6047 -1.2987  0.3000
  723SOL    HW2 2169   0.295   1.015   0.507  0.9927 -1.5193  1.3737
  724SOL     OW 2170   0.955   2.128   1.983 -0.5309 -0.2021  0.5310
  724SOL    HW1 2171   0.952   2.227   1.997  0.5079 -1.3485  0.5869
  724SOL    HW2 2172   0.898   2.099   1.904 -1.1784  0.1020 -0.0456
  725SOL     OW 2173   2.507   0.956   1.385  0.8719 -0.0028 -0.1733
  725SOL    HW1 2174   2.417   0.958   1.335  0.6641  0.0579 -0.5680
  725SOL    HW2 2175   2.505   0.893   1.463 -0.3858  1.0558 -2.5237
  726SOL     OW 2176   1.709   2.722   0.625 -0.1169 -0.1532  0.1797
  726SOL    HW1 2177   1.726   2.629   0.595 -0.4811  0.5438 -2.2371
  726SOL    HW2 2178   1.631   2.772   0.573 -0.1867  2.5343 -1.8977
  727SOL     OW 2179   1.160   0.968   2.239  0.0101  0.0556  0.2821
  727SOL    HW1 2180   1.091   1.044   2.254 -0.9168  0.7516 -0.3125
  727SOL    HW2 2181   1.240   0.993   2.180  0.8343 -0.7349 -2.4391
  728SOL     OW 2182   1.314   2.708   1.066  0.1860  0.5298 -0.1541
  728SOL    HW1 2183   1.314   2.738   1.160 -2.5401 -1.8027 -0.4796
  728SOL    HW2 2184   1.367   2.765   1.008 -3.0663 -2.5046  0.0118
  729SOL     OW 2185   1.867   0.884   1.080 -0.3601  0.8066  0.3901
  729SOL    HW1 2186   1.780   0.906   1.023  0.3053  1.0911 -3.7261
  729SOL    HW2 2187   1.893   0.786   1.071 -2.1843 -0.8072 -1.2851
  730SOL     OW 2188   0.833   1.986   2.175  0.3057 -0.3647 -0.5750
  730SOL    HW1 2189   0.899   2.031   2.111 -0.9405  0.6091  1.9851
  730SOL    HW2 2190   0.747   2.038   2.173  1.6635  2.6646  2.4660
  731SOL     OW 2191   0.501   0.236   0.637  0.1294 -0.3053 -0.3824
  731SOL    HW1 2192   0.514   0.154   0.583 -0.0418 -1.9002  2.2531
  731SOL    HW2 2193   0.563   0.309   0.605  0.0664  1.4439 -1.1668
  732SOL     OW 2194   0.699   0.622   0.094  0.5356 -0.0164  0.4149
  732SOL    HW1 2195   0.618   0.655   0.147  2.6313  0.3596  2.8841
  732SOL    HW2 2196   0.775   0.688   0.103  0.3421 -0.6315  0.6913
  733SOL     OW 2197   0.975   2.325   0.906 -0.1173 -0.1283 -0.0897
  733SOL    HW1 2198   1.062   2.298   0.860 -0.3594  1.6879 -1.1147
  733SOL    HW2 2199   0.902   2.327   0.838  2.8530  0.9194  2.0036
  734SOL     OW 2200   0.124   2.158   2.676  0.1633 -0.1462  0.0681
  734SOL    HW1 2201   0.049   2.157   2.609  0.9403 -0.6668  0.9381
  734SOL    HW2 2202   0.154   2.255   2.680 -2.4132  0.7689  0.3481
  735SOL     OW 2203   0.942   2.937   1.212  0.2350 -0.3278  0.5336
  735SOL    HW1 2204   1.028   2.988   1.221 -1.5776 -2.2837  0.2225
  735SOL    HW2 2205   0.922   2.923   1.116  1.4340  0.3039  1.8242
  736SOL     OW 2206   1.709   2.921   0.065 -0.3631 -0.2111  0.0964
  736SOL    HW1 2207   1.732   2.923   0.165 -0.4762  0.3261  0.4093
  736SOL    HW2 2208   1.766   2.992   0.017 -0.5831 -1.2357 -0.0219
  737SOL     OW 2209   2.888   0.214   0.413 -0.0499  0.5914  0.0457
  737SOL    HW1 2210   2.988   0.226   0.418 -2.5499  1.3527  0.7181
  737SOL    HW2 2211   2.835   0.298   0.453  0.0031 -1.0835 -0.8912
  738SOL     OW 2212   2.629   2.921   0.946 -0.4432  0.4618  0.8090
  738SOL    HW1 2213   2.726   2.945   0.949 -0.6843  0.8399  0.2832
  738SOL    HW2 2214   2.568   3.000   0.918  0.3502 -1.1958 -1.6021
  739SOL     OW 2215   1.677   2.330   0.196  0.2993  0.1700  0.6473
  739SOL    HW1 2216   1.652   2.232   0.222 -1.2814 -0.9490  1.1262
  739SOL    HW2 2217   1.774   2.344   0.197 -3.1952 -0.6041 -0.1821
  740SOL     OW 2218   1.455   0.140   0.887 -0.3786  0.3375 -0.1765
  740SOL    HW1 2219   1.391   0.063   0.903  1.4715  1.0580  0.3344
  740SOL    HW2 2220   1.482   0.141   0.789 -2.4125  1.0588  0.8383
  741SOL     OW 2221   2.154   0.694   0.308 -0.3819 -0.1645  0.0898
  741SOL    HW1 2222   2.139   0.795   0.319 -0.9780 -1.4310  1.3563
  741SOL    HW2 2223   2.064   0.650   0.277 -1.3452 -2.3732  0.3625
  742SOL     OW 2224   1.269   2.175   2.499  0.2000  0.2914  0.5849
  742SOL    HW1 2225   1.322   2.229   2.562 -3.7301 -0.4439 -2.1611
  742SOL    HW2 2226   1.325   2.121   2.429  3.6704 -0.1380 -1.0049
  743SOL     OW 2227   1.947   0.439   1.774  0.0514 -0.1281  0.2260
  743SOL    HW1 2228   1.906   0.507   1.832  1.0921 -2.2668 -3.1968
  743SOL    HW2 2229   2.045   0.459   1.759  0.8580  0.0514  0.2703
  744SOL     OW 2230   2.334   0.412   0.887  0.5506  0.4797 -0.0091
  744SOL    HW1 2231   2.351   0.318   0.853 -0.9884  3.2968  2.6947
  744SOL    HW2 2232   2.420   0.449   0.924 -1.4788 -2.4163  1.1833
  745SOL     OW 2233   1.868   1.406   1.499  0.1710  0.2199 -0.3269
  745SOL    HW1 2234   1.967   1.393   1.493 -3.2732  0.5131 -1.4397
  745SOL    HW2 2235   1.816   1.337   1.447 -2.5434  1.3556  2.1278
  746SOL     OW 2236   1.666   1.412   0.878  1.0330 -0.3829 -1.0460
  746SOL    HW1 2237   1.728   1.482   0.844  1.1010 -0.8325  1.6048
  746SOL    HW2 2238   1.705   1.319   0.875 -0.7441 -0.0830 -0.5993
  747SOL     OW 2239   1.970   1.135   1.131  0.5057  0.7274  0.1004
  747SOL    HW1 2240   2.068   1.150   1.116  0.1382 -0.6835 -0.4242
  747SOL    HW2 2241   1.941   1.036   1.128  0.0770 -0.8957  1.5442
  748SOL     OW 2242   0.156   2.431   0.858 -0.8704  0.1758 -0.5927
  748SOL    HW1 2243   0.231   2.400   0.917  2.8185 -2.0667  1.5359
  748SOL    HW2 2244   0.152   2.384   0.767  0.2974  1.9209 -2.2372
  749SOL     OW 2245   2.902   3.027   2.444  0.1224 -0.4391  0.7159
  749SOL    HW1 2246   2.997   3.063   2.437 -0.8383  0.8845  1.6465
  749SOL    HW2 2247   2.886   2.960   2.373  0.2135  2.8823  1.6629
  750SOL     OW 2248   2.532   0.643   0.871 -0.3116 -0.0594  0.7718
  750SOL    HW1 2249   2.566   0.654   0.967 -2.2011  3.0779 -3.3348
  750SOL    HW2 2250   2.434   0.653   0.875  0.4157 -3.2109 -0.0723
  751SOL     OW 2251   2.776   0.466   0.509 -0.4701 -0.3356 -0.0051
  751SOL    HW1 2252   2.845   0.537   0.497 -0.7075 -5.4367  0.2113
  751SOL    HW2 2253   2.706   0.490   0.582  0.1777 -0.9816  0.3738
  752SOL     OW 2254   0.328   2.849   0.901  0.3104  0.0394  0.2630
  752SOL    HW1 2255   0.282   2.939   0.904  0.9495 -3.7525  1.5582
  752SOL    HW2 2256   0.291   2.783   0.829 -1.3254 -2.5360 -1.8531
  753SOL     OW 2257   1.340   0.562   2.098  0.2953 -0.2120 -0.2633
  753SOL    HW1 2258   1.423   0.502   2.076 -2.0326 -1.3880 -0.4135
  753SOL    HW2 2259   1.355   0.644   2.038 -0.7530 -1.6463 -0.0928
  754SOL     OW 2260   1.771   2.256   1.938 -0.6409  0.8626 -0.4417
  754SOL    HW1 2261   1.731   2.323   2.001  2.2020 -1.7379 -3.9968
  754SOL    HW2 2262   1.697   2.225   1.871 -0.4921  0.2457  1.3585
  755SOL     OW 2263   2.827   1.049   0.626  0.0386 -0.1404  0.3236
  755SOL    HW1 2264   2.868   1.122   0.682 -2.3005 -3.3351  0.6947
  755SOL    HW2 2265   2.801   1.099   0.539 -0.3952  0.1737  0.6712
  756SOL     OW 2266   1.396   1.455   2.671 -0.4418  0.2896  0.5693
  756SOL    HW1 2267   1.329   1.465   2.747 -0.0569  1.0561  3.5032
  756SOL    HW2 2268   1.412   1.541   2.618  0.3571 -0.3632  0.5650
  757SOL     OW 2269   1.547   2.819   0.433 -0.1326 -0.0194 -0.1455
  757SOL    HW1 2270   1.500   2.730   0.404  0.3207 -2.7727 -2.7591
  757SOL    HW2 2271   1.622   2.846   0.367 -2.2660  2.0833  3.1790
  758SOL     OW 2272   0.283   0.146   1.372 -0.2230 -0.2393 -0.2024
  758SOL    HW1 2273   0.179   0.161   1.369  2.5127  1.7800  2.8006
  758SOL    HW2 2274   0.325   0.129   1.277  1.0470 -2.4110 -4.5498
  759SOL     OW 2275   0.301   0.918   1.258 -0.1717 -0.2648 -0.0626
  759SOL    HW1 2276   0.362   0.980   1.313  1.2727  0.1678 -0.4359
  759SOL    HW2 2277   0.201   0.921   1.287 -1.7244 -5.8519  1.1713
  760SOL     OW 2278   2.246   1.018   0.989 -0.0291  1.3951 -0.4820
  760SOL    HW1 2279   2.168   1.038   0.925 -1.9723 -1.2877 -1.7328
  760SOL    HW2 2280   2.330   1.063   0.954  0.4554  2.8856 -1.3214
  761SOL     OW 2281   1.416   1.022   0.733 -0.1005  0.5220 -0.1906
  761SOL    HW1 2282   1.369   0.939   0.704  3.2820  2.0269 -0.2820
  761SOL    HW2 2283   1.395   1.046   0.831  1.4825 -1.1389  0.1371
  762SOL     OW 2284   2.301   2.239   1.371  0.6195  0.1179  0.1761
  762SOL    HW1 2285   2.211   2.232   1.413  0.6603  2.0468 -1.3605
  762SOL    HW2 2286   2.296   2.287   1.284  0.2232 -0.0055  0.9644
  763SOL     OW 2287   1.460   1.257   2.036  0.0050  0.6492  0.1177
  763SOL    HW1 2288   1.558   1.236   2.027  0.1167  0.0687  0.8464
  763SOL    HW2 2289   1.434   1.289   1.942 -1.1796 -0.0317 -0.0774
  764SOL     OW 2290   0.260   1.917   2.615 -0.0218 -0.0619 -0.0426
  764SOL    HW1 2291   0.201   1.840   2.583  0.9852 -2.2646 -1.2052
  764SOL    HW2 2292   0.211   2.000   2.640 -1.1007 -2.3496  2.7308
  765SOL     OW 2293   0.760   2.721   1.248  0.2914 -0.1535  0.2767
  765SOL    HW1 2294   0.825   2.799   1.250 -0.5505 -1.2367 -0.7187
  765SOL    HW2 2295   0.760   2.672   1.163  0.4113  1.0606 -1.2508
  766SOL     OW 2296   0.774   2.237   2.387  0.2030 -0.4953 -0.0180
  766SOL    HW1 2297   0.871   2.253   2.414 -2.4548  1.2554  1.3209
  766SOL    HW2 2298   0.756   2.159   2.321 -1.3298 -3.4256 -0.7970
  767SOL     OW 2299   1.936   0.213   2.403 -0.4211  0.1487  0.1571
  767SOL    HW1 2300   1.920   0.255   2.312 -0.9147 -4.6651 -1.4094
  767SOL    HW2 2301   2.009   0.253   2.454  0.8667 -0.9034 -4.7251
  768SOL     OW 2302   1.263   2.279   0.095  0.1689  0.1211 -0.8321
  768SOL    HW1 2303   1.249   2.223   0.179 -0.4183 -3.1990  0.1416
  768SOL    HW2 2304   1.349   2.246   0.050 -0.1156  0.4075  0.3990
  769SOL     OW 2305   0.072   2.619   1.066 -0.6383  0.1012  1.0247
  769SOL    HW1 2306   3.050   2.611   1.042  0.7545 -2.2805 -0.3660
  769SOL    HW2 2307   0.133   2.566   1.003 -1.8645 -2.0830  1.9724
  770SOL     OW 2308   0.399   2.955   2.801  0.0487 -0.0301  0.2710
  770SOL    HW1 2309   0.389   2.939   2.904  1.5231  2.0459  1.6922
  770SOL    HW2 2310   0.480   2.907   2.766 -0.6730 -1.1169  1.0098
  771SOL     OW 2311   0.825   2.575   2.704  0.2445 -0.3123  0.9183
  771SOL    HW1 2312   0.851   2.499   2.761  1.2867  2.0429  0.6746
  771SOL    HW2 2313   0.732   2.574   2.661  1.8124  3.1763 -3.0121
  772SOL     OW 2314   2.522   2.968   1.943  0.0582  0.0567 -0.3667
  772SOL    HW1 2315   2.465   3.041   1.990 -0.7380  1.7013 -1.9693
  772SOL    HW2 2316   2.548   3.012   1.854 -0.4894  1.2768 -0.0783
  773SOL     OW 2317   1.143   2.749   2.066 -0.0415  0.7988 -0.1629
  773SOL    HW1 2318   1.171   2.671   2.005  0.0269 -1.3524 -2.1118
  773SOL    HW2 2319   1.090   2.721   2.154 -3.5760  0.0128  3.4063
  774SOL     OW 2320   1.552   0.416   1.996 -0.2973  1.0484  0.0904
  774SOL    HW1 2321   1.580   0.351   2.072 -1.3181 -0.8285 -1.8540
  774SOL    HW2 2322   1.484   0.372   1.931  0.4605 -1.0614  0.4229
  775SOL     OW 2323   2.057   2.927   0.061 -0.0259  0.0868 -0.0853
  775SOL    HW1 2324   2.036   2.857   0.133  1.7548 -0.9186 -0.2392
  775SOL    HW2 2325   2.154   2.962   0.059  2.4179  1.1097 -3.1478
  776SOL     OW 2326   2.294   0.794   1.779 -0.2941 -0.0591 -0.0625
  776SOL    HW1 2327   2.203   0.750   1.802  1.4797 -0.7013  0.0068
  776SOL    HW2 2328   2.285   0.894   1.763 -0.6621  1.1882 -0.9006
  777SOL     OW 2329   2.827   1.162   2.232  0.1601  0.1684  0.1626
  777SOL    HW1 2330   2.808   1.071   2.283  0.0986  0.2885  3.4095
  777SOL    HW2 2331   2.778   1.159   2.144  2.8189  1.6230 -0.4695
  778SOL     OW 2332   2.312   0.449   1.989 -0.1756 -0.4291  0.0773
  778SOL    HW1 2333   2.340   0.548   1.997 -0.3490 -0.4087 -1.9930
  778SOL    HW2 2334   2.282   0.432   1.896 -1.1841  3.9816 -1.1050
  779SOL     OW 2335   3.012   0.006   0.003 -0.4626 -0.5797 -0.3143
  779SOL    HW1 2336   3.050   0.031   2.992 -1.4196  0.1243  2.8078
  779SOL    HW2 2337   0.010   0.021   0.070 -0.8306  0.3111 -1.6401
  780SOL     OW 2338   2.107   0.022   2.095 -0.5729 -0.4196 -0.1779
  780SOL    HW1 2339   2.105   3.027   2.024  0.1912  3.4478  0.2051
  780SOL    HW2 2340   2.133   3.064   2.188  1.3307  0.6096  2.3912
  781SOL     OW 2341   0.486   0.673   1.659 -0.6668 -0.2226  0.4426
  781SOL    HW1 2342   0.480   0.625   1.568  0.1193  1.3552 -0.1572
  781SOL    HW2 2343   0.570   0.733   1.662  1.7375 -1.6570  0.5173
  782SOL     OW 2344   1.970   2.043   0.287 -0.3816  0.0543  0.0437
  782SOL    HW1 2345   2.024   2.119   0.246  0.3311 -1.4062  2.2843
  782SOL    HW2 2346   2.022   1.984   0.352 -0.1340 -0.2024 -0.1839
  783SOL     OW 2347   0.964   1.715   1.597 -0.3818 -0.0876  0.0608
  783SOL    HW1 2348   0.965   1.804   1.536 -1.2325  1.0327 -1.5061
  783SOL    HW2 2349   1.013   1.638   1.553  1.6733 -3.9367 -0.9392
  784SOL     OW 2350   1.978   0.584   2.114  0.3430 -0.2426 -0.1029
  784SOL    HW1 2351   2.007   0.492   2.141 -1.5431 -1.7811  3.4270
  784SOL    HW2 2352   2.047   0.659   2.143 -0.2000  1.9339  0.6099
  785SOL     OW 2353   2.953   0.403   0.830  0.2161 -0.1067 -0.3713
  785SOL    HW1 2354   2.932   0.386   0.930 -2.8678 -0.0817  1.1174
  785SOL    HW2 2355   2.991   0.490   0.800 -0.7331 -0.7205 -0.2505
  786SOL     OW 2356   1.775   2.916   0.327 -0.4021  0.0774 -0.0905
  786SOL    HW1 2357   1.844   2.965   0.379  0.0869 -1.8037 -0.0110
  786SOL    HW2 2358   1.810   2.822   0.298 -0.6271 -1.7933 -2.6597
  787SOL     OW 2359   1.025   0.107   0.802 -0.2401  0.2899 -0.0548
  787SOL    HW1 2360   1.096   0.173   0.773 -1.5493  2.4869  0.2691
  787SOL    HW2 2361   0.932   0.139   0.781  0.2398 -0.5644 -2.8689
  788SOL     OW 2362   0.115   1.863   1.380 -0.4388  0.0255  0.1752
  788SOL    HW1 2363   0.117   1.921   1.466 -1.1082 -1.2421  1.0659
  788SOL    HW2 2364   0.205   1.839   1.343 -0.5868 -0.2970  1.0975
  789SOL     OW 2365   2.874   0.516   2.098  0.0319 -0.0068  0.4331
  789SOL    HW1 2366   2.824   0.432   2.094  2.2221  6.4394 -1.8653
  789SOL    HW2 2367   2.920   0.529   2.187 -1.5272  0.2636 -6.6827
  790SOL     OW 2368   0.654   0.716   2.701 -0.2868 -0.1493 -0.6902
  790SOL    HW1 2369   0.746   0.701   2.667 -0.5802 -2.8013 -1.0959
  790SOL    HW2 2370   0.597   0.631   2.689 -1.7717 -2.1696  0.9067
  791SOL     OW 2371   2.516   0.494   2.893  0.6244 -0.2007 -0.0393
  791SOL    HW1 2372   2.576   0.451   2.968 -3.2709  1.9588  3.5621
  791SOL    HW2 2373   2.423   0.506   2.941 -3.3840 -0.0784  0.9298
  792SOL     OW 2374   1.683   0.701   1.345 -0.0274 -0.5247 -0.4198
  792SOL    HW1 2375   1.626   0.665   1.267 -0.8418 -2.0902 -0.5649
  792SOL    HW2 2376   1.738   0.630   1.395  2.4301 -0.5521 -1.3019
  793SOL     OW 2377   3.049   0.051   1.547 -1.0079  0.4355 -0.0676
  793SOL    HW1 2378   0.014   0.091   1.629 -0.3105 -1.6686  0.1918
  793SOL    HW2 2379   0.006   0.098   1.463  0.0626  0.1284  1.7293
  794SOL     OW 2380   2.975   0.092   2.108  0.1974 -0.4384 -0.1917
  794SOL    HW1 2381   3.014   0.182   2.083  0.6808 -0.1483  1.1962
  794SOL    HW2 2382   2.984   0.030   2.029 -1.0403  2.6441 -1.8885
  795SOL     OW 2383   0.584   2.223   2.725 -0.4612 -0.0169 -0.0239
  795SOL    HW1 2384   0.672   2.182   2.744  1.0351 -1.0311 -1.1862
  795SOL    HW2 2385   0.591   2.281   2.640 -1.2023 -0.6838 -1.9739
  796SOL     OW 2386   1.995   0.569   2.544 -0.1317  0.1529 -0.7583
  796SOL    HW1 2387   1.902   0.561   2.498  1.1346  0.3617  0.4290
  796SOL    HW2 2388   1.990   0.616   2.631  2.8740 -1.0926 -1.7694
  797SOL     OW 2389   2.286   2.069   2.992 -0.6241  0.3539 -0.2304
  797SOL    HW1 2390   2.280   2.165   2.964 -1.1492  0.9588  1.6373
  797SOL    HW2 2391   2.376   2.047   3.042 -1.2141 -1.0355  0.1856
  798SOL     OW 2392   0.179   0.644   1.549  0.1106  0.1959 -0.2666
  798SOL    HW1 2393   0.271   0.649   1.493 -0.5643 -1.8479 -2.6347
  798SOL    HW2 2394   0.100   0.655   1.485  1.4229 -0.1189  0.0217
  799SOL     OW 2395   0.578   0.189   1.699  0.1688 -0.1661  0.1336
  799SOL    HW1 2396   0.625   0.263   1.741  0.8464 -2.5716 -1.6937
  799SOL    HW2 2397   0.640   0.114   1.677  0.0257 -1.6762  2.3622
  800SOL     OW 2398   3.051   2.528   0.331  0.1830  0.0631  0.5699
  800SOL    HW1 2399   3.050   2.446   0.386 -1.6828  3.7136 -3.8441
  800SOL    HW2 2400   0.065   2.537   0.281  2.0721  1.7877 -1.3620
  801SOL     OW 2401   1.649   1.846   0.707  0.6102  1.1138 -0.6012
  801SOL    HW1 2402   1.730   1.851   0.763 -1.8687 -0.0992 -1.7257
  801SOL    HW2 2403   1.591   1.773   0.747  2.3763 -0.3227 -1.1432
  802SOL     OW 2404   0.887   0.481   0.261  0.7152 -0.1700 -0.0319
  802SOL    HW1 2405   0.914   0.536   0.338 -1.1530 -0.7589 -2.1206
  802SOL    HW2 2406   0.802   0.524   0.219 -4.0665  0.2977 -3.0014
  803SOL     OW 2407   1.375   1.295   1.781  0.4272  0.1075  0.4498
  803SOL    HW1 2408   1.313   1.216   1.783  2.4268  0.9381  2.8125
  803SOL    HW2 2409   1.448   1.287   1.712 -0.7341 -1.2386  1.9154
  804SOL     OW 2410   1.728   2.237   1.358 -0.3352 -0.2890 -0.3745
  804SOL    HW1 2411   1.830   2.235   1.348  3.4999 -2.3098 -0.7426
  804SOL    HW2 2412   1.684   2.276   1.272  3.2518 -0.3046 -0.4697
  805SOL     OW 2413   2.992   2.170   2.457 -0.1434  0.2198  0.4651
  805SOL    HW1 2414   2.968   2.089   2.397  0.8441 -2.5417 -1.6525
  805SOL    HW2 2415   3.046   2.240   2.409 -1.1628 -0.0635 -0.4448
  806SOL     OW 2416   0.670   2.629   0.229  0.4119 -0.2011  0.3651
  806SOL    HW1 2417   0.729   2.695   0.181 -0.7408 -1.3469  2.2745
  806SOL    HW2 2418   0.592   2.605   0.167 -1.0845  2.1651  1.0621
  807SOL     OW 2419   2.509   0.863   2.631 -0.1683  0.0855  0.0672
  807SOL    HW1 2420   2.578   0.849   2.705 -2.9711 -1.3982 -0.3768
  807SOL    HW2 2421   2.447   0.783   2.622  1.0157  1.4188  0.7040
  808SOL     OW 2422   1.459   1.981   1.062  0.2707  0.5811 -0.3246
  808SOL    HW1 2423   1.531   2.033   1.013  0.4429  0.7674  2.6950
  808SOL    HW2 2424   1.413   2.045   1.134 -0.7671  2.1021  0.7073
  809SOL     OW 2425   0.182   0.520   0.657  0.0303  0.0537  0.0781
  809SOL    HW1 2426   0.089   0.547   0.693  0.6364  0.7843  0.8224
  809SOL    HW2 2427   0.180   0.418   0.639  3.6059  0.8588 -0.7026
  810SOL     OW 2428   1.184   1.298   0.053 -0.1564  0.1562 -0.0134
  810SOL    HW1 2429   1.233   1.372   0.103  0.8801  2.6161  0.3471
  810SOL    HW2 2430   1.148   1.228   0.117 -2.9876 -1.0567  1.0228
  811SOL     OW 2431   1.417   2.822   1.308  0.3241  0.0537 -0.1841
  811SOL    HW1 2432   1.514   2.787   1.303  1.0234 -0.0207  0.8808
  811SOL    HW2 2433   1.388   2.843   1.403 -1.1319  3.6766  2.1607
  812SOL     OW 2434   1.195   0.298   0.730 -0.4424  0.9427 -0.1551
  812SOL    HW1 2435   1.141   0.311   0.645  1.8012  0.0251  0.2770
  812SOL    HW2 2436   1.289   0.330   0.718 -0.2378  0.4938 -2.3973
  813SOL     OW 2437   1.236   2.983   2.323  0.2426  0.3957  0.7840
  813SOL    HW1 2438   1.157   2.957   2.381 -0.6371 -0.4719 -0.5761
  813SOL    HW2 2439   1.212   2.985   2.226 -0.1477  0.1283  2.8647
  814SOL     OW 2440   1.337   2.816   1.659  0.1731  0.3164  0.1765
  814SOL    HW1 2441   1.291   2.735   1.699  3.6733  0.3559 -1.7638
  814SOL    HW2 2442   1.302   2.904   1.703 -2.0430 -0.6028 -0.2805
  815SOL     OW 2443   0.025   2.831   3.065  0.0733 -0.8881 -0.0802
  815SOL    HW1 2444   3.067   2.922   0.016 -0.4091  2.3047  0.6282
  815SOL    HW2 2445   0.011   2.766   0.066  0.8311  1.6809 -0.3021
  816SOL     OW 2446   2.390   1.191   2.925 -0.3526 -0.2779  0.3918
  816SOL    HW1 2447   2.333   1.168   2.843  1.3474 -0.9863  1.2002
  816SOL    HW2 2448   2.449   1.113   2.940 -0.8782 -1.0534  0.1422
  817SOL     OW 2449   2.493   2.195   2.463  0.0482  0.6896 -0.5603
  817SOL    HW1 2450   2.574   2.172   2.406 -1.2610  0.5935 -2.3244
  817SOL    HW2 2451   2.506   2.288   2.512  1.1583  0.1442  0.0290
  818SOL     OW 2452   0.918   0.822   0.163 -0.0425 -0.7107  0.8576
  818SOL    HW1 2453   0.982   0.856   0.237  0.5161  0.7054  1.7457
  818SOL    HW2 2454   0.882   0.905   0.114 -0.4247  0.0317  0.0464
  819SOL     OW 2455   1.618   1.446   0.031 -0.0536 -0.0895  0.6307
  819SOL    HW1 2456   1.579   1.391   3.031 -3.8140  2.3391 -0.0747
  819SOL    HW2 2457   1.566   1.535   0.038 -1.7850  2.2784 -0.8251
  820SOL     OW 2458   0.277   0.750   0.793 -0.1644 -0.0044  1.0142
  820SOL    HW1 2459   0.375   0.723   0.807  2.1846 -2.9632  3.2134
  820SOL    HW2 2460   0.229   0.672   0.752  3.4184  2.0411 -1.2584
  821SOL     OW 2461   0.440   3.013   1.476  0.0800 -0.5005  0.3088
  821SOL    HW1 2462   0.373   0.010   1.459 -2.3312  1.1072  2.6279
  821SOL    HW2 2463   0.456   2.950   1.398  1.5147  1.5445  0.3648
  822SOL     OW 2464   1.831   1.960   2.906  0.2810  0.0771 -0.2596
  822SOL    HW1 2465   1.851   2.061   2.910 -2.1036  0.6721 -1.2523
  822SOL    HW2 2466   1.807   1.935   2.812 -2.3592  4.4442  4.8083
  823SOL     OW 2467   0.853   0.621   2.254 -0.2518  0.1642  0.8766
  823SOL    HW1 2468   0.943   0.585   2.238 -1.6557  3.1022  0.2790
  823SOL    HW2 2469   0.839   0.705   2.202  0.1104 -0.2147 -0.2332
  824SOL     OW 2470   2.610   2.954   1.471  1.0256 -0.1631  0.4928
  824SOL    HW1 2471   2.582   2.965   1.566 -0.2040 -0.2232 -2.0660
  824SOL    HW2 2472   2.568   2.872   1.430  1.0719 -0.0378  1.1403
  825SOL     OW 2473   0.186   1.501   2.436  0.4439  0.5028 -0.0665
  825SOL    HW1 2474   0.279   1.531   2.422 -0.1144  1.6802  1.1872
  825SOL    HW2 2475   0.115   1.562   2.396  1.0843 -0.5387  1.3002
  826SOL     OW 2476   1.713   0.387   2.768 -0.2606  0.0216 -0.6668
  826SOL    HW1 2477   1.704   0.371   2.668  1.6839 -0.4232 -0.3251
  826SOL    HW2 2478   1.742   0.304   2.822  0.5049  0.8202  0.2689
  827SOL     OW 2479   0.311   2.372   2.178  0.2058 -0.1436 -0.4923
  827SOL    HW1 2480   0.261   2.281   2.171  1.0728 -2.0468  0.5094
  827SOL    HW2 2481   0.275   2.438   2.107 -2.6148 -0.9129 -0.6120
  828SOL     OW 2482   0.029   0.185   1.323  0.0826  0.1113 -0.3776
  828SOL    HW1 2483   0.028   0.281   1.286  0.1023 -1.1026 -1.0861
  828SOL    HW2 2484   3.047   0.124   1.266 -0.1950 -2.5581  3.3475
  829SOL     OW 2485   1.282   1.527   1.871  0.1029 -0.7543 -0.2325
  829SOL    HW1 2486   1.295   1.432   1.839 -0.9565  2.9428  0.8157
  829SOL    HW2 2487   1.202   1.538   1.935  1.7946  2.2755  0.1395
  830SOL     OW 2488   1.031   1.060   1.504  1.0257  0.1252 -0.4256
  830SOL    HW1 2489   0.968   1.013   1.433 -5.8376 -0.5267 -1.5345
  830SOL    HW2 2490   0.996   1.058   1.600  1.7281  2.9589  2.7223
  831SOL     OW 2491   2.815   1.934   0.431  1.0170  0.4701 -0.0447
  831SOL    HW1 2492   2.819   1.880   0.349 -0.7743  3.2908  1.3262
  831SOL    HW2 2493   2.808   1.876   0.521 -1.3334  0.3406  3.3502
  832SOL     OW 2494   1.171   2.503   0.219  0.3021 -0.2643  0.1123
  832SOL    HW1 2495   1.106   2.507   0.295 -0.1410 -0.2087  0.2342
  832SOL    HW2 2496   1.182   2.413   0.176  0.4175  1.6493 -1.7768
  833SOL     OW 2497   0.033   0.463   1.704  0.4610 -0.2011 -0.4091
  833SOL    HW1 2498   0.092   0.515   1.644 -3.0119  1.4353  3.7172
  833SOL    HW2 2499   0.009   0.516   1.786 -0.1514 -1.3049  1.4922
  834SOL     OW 2500   2.947   0.693   1.047 -0.2507  0.0819  0.4732
  834SOL    HW1 2501   3.018   0.623   1.018  0.2115 -0.0127 -0.6858
  834SOL    HW2 2502   2.949   0.780   0.995 -2.8434  2.3807 -2.1094
  835SOL     OW 2503   2.570   0.208   0.434 -0.0756  0.1085 -0.0847
  835SOL    HW1 2504   2.643   0.236   0.505  0.1475 -0.1147 -0.6031
  835SOL    HW2 2505   2.606   0.143   0.361 -1.2621 -0.5073 -2.4428
  836SOL     OW 2506   0.834   2.104   2.780  0.1652  0.5640 -0.5409
  836SOL    HW1 2507   0.824   2.006   2.816 -0.2748 -3.1915  2.0075
  836SOL    HW2 2508   0.902   2.105   2.708 -2.9043  0.2416  3.3429
  837SOL     OW 2509   1.578   1.803   0.342 -0.0188 -0.2552  0.0647
  837SOL    HW1 2510   1.652   1.764   0.398 -1.1642 -0.7092 -1.0861
  837SOL    HW2 2511   1.565   1.751   0.251  0.2687 -0.9477 -1.1039
  838SOL     OW 2512   2.604   0.874   2.192 -0.3480  0.0510 -0.3654
  838SOL    HW1 2513   2.630   0.903   2.284  1.6484  1.2215 -2.0719
  838SOL    HW2 2514   2.629   0.948   2.133 -2.5687 -0.1769  0.0508
  839SOL     OW 2515   0.756   1.047   2.312 -0.0984 -0.6729  0.2334
  839SOL    HW1 2516   0.802   1.137   2.292  0.6610  0.2496 -1.5565
  839SOL    HW2 2517   0.777   1.027   2.411 -0.8731 -0.5048  0.9226
  840SOL     OW 2518   0.777   0.983   2.891 -0.5169  1.1594  0.0836
  840SOL    HW1 2519   0.714   1.062   2.877  0.8271 -0.0252  2.3703
  840SOL    HW2 2520   0.729   0.894   2.877  0.8611  1.9507 -2.4043
  841SOL     OW 2521   0.805   2.392   0.668 -0.4386  0.4535 -0.0591
  841SOL    HW1 2522   0.782   2.296   0.655  1.5005 -0.5560 -1.0530
  841SOL    HW2 2523   0.800   2.450   0.586  1.9389 -0.4370  1.3587
  842SOL     OW 2524   0.524   0.673   0.831  0.1010 -0.3199  0.0795
  842SOL    HW1 2525   0.611   0.713   0.797 -2.3138  1.9774  2.3506
  842SOL    HW2 2526   0.532   0.572   0.830  2.2090  0.5188 -0.5488
  843SOL     OW 2527   0.672   0.998   1.392  0.2835 -0.3655  0.1349
  843SOL    HW1 2528   0.617   0.974   1.471  1.6235  1.5984  0.3883
  843SOL    HW2 2529   0.666   1.097   1.380  0.1358 -1.2289  0.5332
  844SOL     OW 2530   2.090   2.472   2.762  0.1494 -0.2937  0.6867
  844SOL    HW1 2531   2.091   2.571   2.782 -0.9345 -0.3467  0.1234
  844SOL    HW2 2532   2.167   2.457   2.698 -0.6808 -0.6943  0.4659
  845SOL     OW 2533   2.107   3.048   1.485  0.0446 -0.3437 -0.6158
  845SOL    HW1 2534   2.193   3.062   1.442 -2.9386 -1.4287  1.0652
  845SOL    HW2 2535   2.080   2.950   1.487 -2.7112 -1.3149 -0.0783
  846SOL     OW 2536   1.919   0.910   2.522  0.0170  0.1675  0.3940
  846SOL    HW1 2537   1.920   0.850   2.437  0.8565 -1.6154  0.3574
  846SOL    HW2 2538   1.995   0.876   2.584  0.1988  1.8930 -1.3580
  847SOL     OW 2539   2.723   2.846   1.801 -0.2360 -0.6456 -0.0277
  847SOL    HW1 2540   2.634   2.880   1.843 -0.0601 -0.6420  2.6526
  847SOL    HW2 2541   2.713   2.752   1.760  2.6267 -2.0080 -0.9772
  848SOL     OW 2542   2.568   2.716   0.130  0.2897 -0.2465  0.6742
  848SOL    HW1 2543   2.639   2.646   0.106  1.3248  2.7854  0.7064
  848SOL    HW2 2544   2.598   2.810   0.094  0.4193  0.4540 -0.9313
  849SOL     OW 2545   0.517   2.953   0.739 -0.0297 -0.4824 -0.3973
  849SOL    HW1 2546   0.470   2.899   0.813  2.1410  1.3621 -2.7981
  849SOL    HW2 2547   0.569   3.025   0.788  1.2780 -0.7325  1.4027
  850SOL     OW 2548   0.542   2.230   0.771 -0.1153 -0.2658 -0.3445
  850SOL    HW1 2549   0.524   2.325   0.731 -0.3064  1.0352 -0.3599
  850SOL    HW2 2550   0.610   2.170   0.719  0.9282  0.2831  2.2172
  851SOL     OW 2551   2.053   0.271   3.001  0.6690  0.2621  0.1293
  851SOL    HW1 2552   2.022   0.188   2.952  1.6128 -0.1587 -3.0073
  851SOL    HW2 2553   1.978   0.326   3.041  1.6687  1.4711  2.1453
  852SOL     OW 2554   1.708   1.945   2.671 -0.0457 -0.1288  0.5915
  852SOL    HW1 2555   1.607   1.949   2.660 -2.9797  1.7815 -1.8646
  852SOL    HW2 2556   1.744   1.905   2.580  2.6001 -1.8040 -3.0859
  853SOL     OW 2557   0.079   2.061   0.256 -0.0896 -0.1092 -0.0968
  853SOL    HW1 2558   0.077   1.996   0.176 -1.4832 -1.1441 -0.0194
  853SOL    HW2 2559   0.065   2.012   0.344 -1.1001 -0.7915 -0.7237
  854SOL     OW 2560   1.771   0.564   1.923  1.1015 -0.5439  0.3395
  854SOL    HW1 2561   1.697   0.496   1.943  2.3179 -3.3185  2.6493
  854SOL    HW2 2562   1.829   0.594   2.001 -1.0504  0.0275  0.2728
  855SOL     OW 2563   0.232   2.651   0.445  0.5748 -0.3839 -0.0568
  855SOL    HW1 2564   0.324   2.697   0.451  2.6774  1.2095  2.3183
  855SOL    HW2 2565   0.244   2.557   0.418 -0.7791  0.3660 -0.9138
  856SOL     OW 2566   0.264   2.831   2.380  0.3303  0.7455 -0.2303
  856SOL    HW1 2567   0.224   2.867   2.471 -1.2090 -1.6702  1.7580
  856SOL    HW2 2568   0.364   2.849   2.367  1.5236 -0.7473 -0.2207
  857SOL     OW 2569   0.847   0.098   1.577  0.7332 -0.1493 -0.4336
  857SOL    HW1 2570   0.802   0.156   1.507  2.0661 -1.6470  1.3735
  857SOL    HW2 2571   0.818   3.078   1.558  2.1363 -1.0989  0.1217
  858SOL     OW 2572   0.398   2.122   1.990  0.2790 -0.6877 -0.0631
  858SOL    HW1 2573   0.317   2.167   2.035 -1.1817  2.8639  0.1400
  858SOL    HW2 2574   0.381   2.127   1.890 -0.7499  0.2266  1.1664
  859SOL     OW 2575   1.986   2.539   1.760 -0.0063  0.0876 -0.0643
  859SOL    HW1 2576   1.926   2.575   1.835  1.0912 -0.0191 -0.9864
  859SOL    HW2 2577   1.997   2.437   1.765 -1.7425  1.6002  1.8058
  860SOL     OW 2578   1.567   0.494   0.523  0.2560  0.8058 -0.2441
  860SOL    HW1 2579   1.484   0.548   0.509  1.5492  0.0471 -2.2907
  860SOL    HW2 2580   1.582   0.485   0.624 -2.0208  0.4351 -0.3920
  861SOL     OW 2581   3.038   0.673   0.723  0.0808  0.6021 -0.3351
  861SOL    HW1 2582   3.014   0.753   0.781  0.0940 -0.5167  0.2247
  861SOL    HW2 2583   2.990   0.680   0.631 -1.6338  1.0211  1.9546
  862SOL     OW 2584   1.928   0.739   1.573 -0.3947 -0.0038 -0.3048
  862SOL    HW1 2585   1.894   0.645   1.553  1.9339  1.8696  0.8288
  862SOL    HW2 2586   2.003   0.735   1.642  1.3614  0.7918  0.2526
  863SOL     OW 2587   0.668   1.148   0.994 -0.4846  0.1687  0.1216
  863SOL    HW1 2588   0.647   1.048   0.994  0.8590  1.8741  0.5023
  863SOL    HW2 2589   0.733   1.167   1.070 -0.9237  0.6742  0.0854
  864SOL     OW 2590   2.798   2.768   2.076  0.4306  0.3579  0.0750
  864SOL    HW1 2591   2.827   2.771   2.172 -2.6697 -0.7039 -3.8696
  864SOL    HW2 2592   2.821   2.856   2.024  0.7180  0.1094  0.9799
  865SOL     OW 2593   1.121   0.554   2.278  0.1570 -0.3484 -0.2980
  865SOL    HW1 2594   1.140   0.470   2.328 -0.8425 -0.3629 -0.2216
  865SOL    HW2 2595   1.192   0.567   2.205 -2.1993 -0.6653 -0.6108
  866SOL     OW 2596   2.450   2.895   0.359 -0.1461 -0.1678 -0.7184
  866SOL    HW1 2597   2.361   2.885   0.406  2.0041  1.1457 -1.0598
  866SOL    HW2 2598   2.511   2.813   0.357  2.5416 -1.5430  1.9681
  867SOL     OW 2599   2.574   2.674   0.516  0.5000 -0.0218  0.1106
  867SOL    HW1 2600   2.615   2.582   0.498 -0.1112 -0.6150 -2.6529
  867SOL    HW2 2601   2.640   2.736   0.558 -2.2162  0.2569  0.7525
  868SOL     OW 2602   1.776   1.195   2.781 -0.2584  0.0397 -0.3477
  868SOL    HW1 2603   1.813   1.109   2.820 -0.7510  0.7401 -1.1929
  868SOL    HW2 2604   1.690   1.211   2.836 -1.4845  0.8792  2.5252
  869SOL     OW 2605   2.719   2.431   0.504 -0.6269 -0.0320  0.0871
  869SOL    HW1 2606   2.678   2.338   0.492 -3.0838 -1.4646 -0.6374
  869SOL    HW2 2607   2.808   2.427   0.458 -2.4787  1.0868  1.1064
  870SOL     OW 2608   2.497   2.128   0.698  0.4187 -0.3796  0.4904
  870SOL    HW1 2609   2.477   2.187   0.779  2.0867  0.5616  2.1551
  870SOL    HW2 2610   2.484   2.028   0.722 -0.0127 -0.6095  2.0791
  871SOL     OW 2611   0.509   1.365   1.001  0.2476 -0.1939 -0.1383
  871SOL    HW1 2612   0.561   1.281   1.002  0.1677  1.1561 -0.4305
  871SOL    HW2 2613   0.463   1.394   1.090  4.3146  0.2768  1.8050
  872SOL     OW 2614   1.256   1.831   2.464  0.8194 -0.0426  0.2999
  872SOL    HW1 2615   1.228   1.869   2.371 -0.9127 -1.7126 -2.6828
  872SOL    HW2 2616   1.325   1.760   2.457  1.5458  0.1441  0.0484
  873SOL     OW 2617   0.759   2.596   2.171 -0.3546  0.0504  0.0838
  873SOL    HW1 2618   0.749   2.675   2.107  1.6856 -2.7063  2.9819
  873SOL    HW2 2619   0.727   2.513   2.126  0.1503  0.3269  1.3607
  874SOL     OW 2620   0.787   0.571   1.260 -0.1167 -0.1449  0.2191
  874SOL    HW1 2621   0.729   0.657   1.248  0.0081  2.3792 -0.2383
  874SOL    HW2 2622   0.788   0.532   1.354 -0.2979  0.2079  2.2628
  875SOL     OW 2623   2.901   0.348   1.094 -0.6055  0.3452  0.0635
  875SOL    HW1 2624   2.994   0.389   1.116  0.2900 -0.8834  0.4372
  875SOL    HW2 2625   2.903   0.248   1.098  0.8755  2.9598 -1.6953
  876SOL     OW 2626   0.546   0.932   0.101  0.0373 -0.4976 -0.4681
  876SOL    HW1 2627   0.450   0.966   0.082 -2.6116  3.5205  1.4445
  876SOL    HW2 2628   0.594   0.908   0.014  0.9468  0.0189  2.0678
  877SOL     OW 2629   1.262   0.908   1.593 -0.2799 -0.2369  0.3290
  877SOL    HW1 2630   1.226   0.815   1.561 -1.8171 -0.3169  0.0587
  877SOL    HW2 2631   1.206   0.983   1.548 -1.0496  0.4911 -0.7239
  878SOL     OW 2632   2.351   2.245   0.530 -0.6636 -0.2435  0.1461
  878SOL    HW1 2633   2.337   2.188   0.446 -0.4193  1.0747 -3.6719
  878SOL    HW2 2634   2.422   2.202   0.590 -1.1084  1.1264 -0.9649
  879SOL     OW 2635   2.756   1.716   1.638  0.1148 -0.1994 -0.2160
  879SOL    HW1 2636   2.828   1.779   1.654 -2.7744 -1.5575 -2.1127
  879SOL    HW2 2637   2.779   1.621   1.668 -0.7222 -0.4470 -1.5643
  880SOL     OW 2638   1.555   2.357   0.701  0.0005 -0.3350  0.0763
  880SOL    HW1 2639   1.455   2.365   0.723  0.6768 -0.7667 -1.1166
  880SOL    HW2 2640   1.570   2.276   0.640  1.9819 -2.0671 -0.5052
  881SOL     OW 2641   0.489   2.477   0.596  0.4075 -0.8265  0.3220
  881SOL    HW1 2642   0.409   2.437   0.557  1.5818 -0.7673  1.6177
  881SOL    HW2 2643   0.513   2.568   0.549  0.0870  2.1943 -1.3516
  882SOL     OW 2644   1.961   0.609   0.732 -0.0648  0.1960 -0.0127
  882SOL    HW1 2645   2.061   0.600   0.710 -2.7201 -0.1158 -1.1819
  882SOL    HW2 2646   1.942   0.582   0.829 -0.6398 -0.6758 -0.6370
  883SOL     OW 2647   1.679   0.763   1.724 -0.5610  0.2375 -0.1473
  883SOL    HW1 2648   1.647   0.670   1.746  0.9420 -0.7162 -0.7462
  883SOL    HW2 2649   1.744   0.765   1.643 -1.4818  0.4585 -0.8137
  884SOL     OW 2650   2.420   0.340   0.229  0.2788  0.2549 -0.1171
  884SOL    HW1 2651   2.457   0.284   0.305  0.0813  0.2801  2.4384
  884SOL    HW2 2652   2.360   0.289   0.169 -0.9373  2.3632  0.3131
  885SOL     OW 2653   1.063   1.396   2.696  0.6908  0.1725 -0.1974
  885SOL    HW1 2654   1.124   1.392   2.773  0.1969 -0.1639  1.1699
  885SOL    HW2 2655   1.082   1.469   2.627 -3.3641  1.5959 -0.5932
  886SOL     OW 2656   1.429   1.932   2.677  0.1969  0.2386 -0.0121
  886SOL    HW1 2657   1.351   1.906   2.613  3.9576  1.7975  1.0973
  886SOL    HW2 2658   1.392   1.979   2.765 -0.9600  1.3671  2.0705
  887SOL     OW 2659   1.235   0.435   1.264 -0.1409 -0.5026  0.1070
  887SOL    HW1 2660   1.245   0.398   1.166  2.1408  0.9307 -2.0337
  887SOL    HW2 2661   1.249   0.533   1.254  0.3223 -0.1778  2.4520
  888SOL     OW 2662   2.492   0.743   1.600 -0.0513 -0.7747  0.5547
  888SOL    HW1 2663   2.420   0.767   1.670  1.2245  3.9050 -0.1066
  888SOL    HW2 2664   2.484   0.644   1.589  1.1716  1.6596  0.5928
  889SOL     OW 2665   0.207   2.688   0.709 -0.0521  0.2000  0.0834
  889SOL    HW1 2666   0.208   2.677   0.609 -0.4349 -0.6817 -0.4460
  889SOL    HW2 2667   0.220   2.601   0.762 -0.6995  0.5972  0.8852
  890SOL     OW 2668   1.881   2.120   0.741 -0.4891 -0.1845  0.3996
  890SOL    HW1 2669   1.967   2.131   0.682  1.1409 -0.5222  1.6406
  890SOL    HW2 2670   1.807   2.178   0.709  1.9016 -1.4405 -0.7163
  891SOL     OW 2671   0.199   0.878   2.747 -0.0907  0.0249  0.3530
  891SOL    HW1 2672   0.213   0.914   2.651 -1.3283  1.9172  0.6077
  891SOL    HW2 2673   0.281   0.891   2.804  0.4954 -0.8028  2.4270
  892SOL     OW 2674   2.849   2.337   1.228 -0.1690  0.3440 -0.2631
  892SOL    HW1 2675   2.933   2.348   1.165 -0.0956 -0.4893 -2.9088
  892SOL    HW2 2676   2.764   2.346   1.173  1.1515  0.6131  1.0349
  893SOL     OW 2677   1.375   0.374   1.020 -0.1167 -0.1086 -0.0958
  893SOL    HW1 2678   1.408   0.282   1.000  0.1037  0.5300  1.2677
  893SOL    HW2 2679   1.452   0.435   1.043 -1.9164 -0.7963  0.1488
  894SOL     OW 2680   2.541   0.491   0.639 -0.2078  0.0392 -0.2437
  894SOL    HW1 2681   2.546   0.529   0.738 -0.3252 -0.1143  1.2733
  894SOL    HW2 2682   2.471   0.542   0.587  3.4788  0.2647 -1.3967
  895SOL     OW 2683   1.535   1.059   2.356 -0.1121 -0.2734 -0.1996
  895SOL    HW1 2684   1.460   1.127   2.374  0.2404  2.9259 -0.4867
  895SOL    HW2 2685   1.624   1.082   2.406  0.9986 -0.9375  0.1199
  896SOL     OW 2686   1.446   0.256   1.642 -0.2372  0.3372  0.4267
  896SOL    HW1 2687   1.511   0.175   1.647 -0.0086 -0.5415  2.1986
  896SOL    HW2 2688   1.379   0.239   1.572  2.6982  1.2984  1.3124
  897SOL     OW 2689   0.610   1.425   1.838 -0.0994  0.0218  0.2144
  897SOL    HW1 2690   0.614   1.344   1.772 -0.9083 -3.4404  0.8263
  897SOL    HW2 2691   0.666   1.505   1.804  3.6154 -1.0356  0.7504
  898SOL     OW 2692   2.094   2.698   2.117  0.7145 -0.4057  0.7123
  898SOL    HW1 2693   2.022   2.634   2.137 -0.5364  1.0732 -0.5308
  898SOL    HW2 2694   2.164   2.712   2.192  0.4419 -2.1962  1.4569
  899SOL     OW 2695   1.083   1.432   1.036  0.0196  0.4023 -0.2238
  899SOL    HW1 2696   1.173   1.408   1.007  0.0491  2.7879  0.9286
  899SOL    HW2 2697   1.080   1.526   1.065  3.0148 -2.6728 -1.1576
  900SOL     OW 2698   1.064   2.015   2.949  0.6115 -0.1574 -0.0206
  900SOL    HW1 2699   1.021   2.004   3.041  0.3797  1.2048  1.7592
  900SOL    HW2 2700   0.998   2.028   2.877  0.1325  0.3763  2.0368
  901SOL     OW 2701   0.876   1.919   2.449 -0.3608 -0.7069  0.6123
  901SOL    HW1 2702   0.860   1.919   2.349 -2.4086 -0.2157 -1.7001
  901SOL    HW2 2703   0.829   1.843   2.496  0.0037  0.6070  1.1747
  902SOL     OW 2704   2.328   1.828   0.380  0.4564 -0.4574  0.8356
  902SOL    HW1 2705   2.384   1.806   0.296 -1.7511  1.2639  0.1862
  902SOL    HW2 2706   2.368   1.777   0.459  0.7509 -0.5836 -0.8097
  903SOL     OW 2707   2.056   1.784   0.380  0.0745  0.2556 -0.1728
  903SOL    HW1 2708   2.006   1.724   0.317  1.1821 -1.5258  2.5149
  903SOL    HW2 2709   2.157   1.780   0.376  0.6896 -1.3636 -1.7920
  904SOL     OW 2710   1.243   0.756   2.421 -0.0732  0.4587  0.0029
  904SOL    HW1 2711   1.237   0.850   2.389 -1.6977 -5.4451  0.9424
  904SOL    HW2 2712   1.185   0.694   2.369 -0.2061  1.7319  2.7654
  905SOL     OW 2713   2.677   0.246   0.713  0.1062 -0.3659  0.2748
  905SOL    HW1 2714   2.623   0.328   0.681 -2.0671  1.6446  0.3225
  905SOL    HW2 2715   2.769   0.260   0.751  0.0230 -1.5256  0.5245
  906SOL     OW 2716   2.820   1.773   0.665  0.2462 -0.6176 -0.0653
  906SOL    HW1 2717   2.778   1.701   0.721  1.1865 -1.8392 -0.2366
  906SOL    HW2 2718   2.871   1.840   0.725 -0.1524  0.2270 -1.2675
  907SOL     OW 2719   1.296   0.423   0.305 -0.1621 -0.0257 -0.0422
  907SOL    HW1 2720   1.321   0.325   0.296 -0.9727  1.6377 -0.0734
  907SOL    HW2 2721   1.311   0.473   0.213 -0.7374  1.0924  0.2249
  908SOL     OW 2722   1.860   0.178   1.303  0.0482 -0.0380  0.3025
  908SOL    HW1 2723   1.791   0.116   1.340 -2.2078  0.4633  0.9491
  908SOL    HW2 2724   1.943   0.193   1.364  1.5060 -0.3484  0.5426
  909SOL     OW 2725   2.676   0.624   1.097 -0.7430 -0.0278  0.2852
  909SOL    HW1 2726   2.768   0.629   1.060 -3.0671  2.0616  1.0908
  909SOL    HW2 2727   2.656   0.528   1.135 -0.1298 -1.8864 -1.3735
  910SOL     OW 2728   1.008   2.906   2.429  0.7665 -0.1386  0.3116
  910SOL    HW1 2729   0.974   2.887   2.524 -1.1389  0.8605 -0.5367
  910SOL    HW2 2730   0.973   2.840   2.358  0.1768 -2.3437  2.6434
  911SOL     OW 2731   2.247   1.095   1.744  0.0681 -0.1650 -0.1017
  911SOL    HW1 2732   2.345   1.119   1.729 -1.6282 -1.4077 -3.0646
  911SOL    HW2 2733   2.199   1.114   1.656  0.7803 -2.8378  0.5745
  912SOL     OW 2734   2.505   2.201   1.567 -0.1769 -0.7775  0.2097
  912SOL    HW1 2735   2.597   2.228   1.534 -0.3971 -0.2692 -1.9570
  912SOL    HW2 2736   2.439   2.181   1.491 -3.1542  2.0311 -0.3621
  913SOL     OW 2737   2.505   2.439   1.289 -0.3135 -0.7378  0.0083
  913SOL    HW1 2738   2.530   2.376   1.211  1.0954  1.2770  1.1064
  913SOL    HW2 2739   2.426   2.401   1.340 -0.2889 -1.1650 -0.7287
  914SOL     OW 2740   2.100   1.812   1.411  0.0471  0.2256  0.3242
  914SOL    HW1 2741   2.079   1.725   1.357 -1.3859  1.9058 -0.0065
  914SOL    HW2 2742   2.044   1.805   1.498 -2.2109 -1.1848  0.4898
  915SOL     OW 2743   1.298   1.731   1.267  0.0309 -0.2259 -0.3522
  915SOL    HW1 2744   1.313   1.818   1.320  0.3828  0.5390  0.2433
  915SOL    HW2 2745   1.362   1.720   1.190 -0.3091 -0.3222  2.2378
  916SOL     OW 2746   2.867   2.798   1.228  0.1222 -0.1700 -0.0706
  916SOL    HW1 2747   2.786   2.731   1.215 -0.8216 -1.9723  0.7435
  916SOL    HW2 2748   2.874   2.827   1.327  3.7357  1.0650  1.7437
  917SOL     OW 2749   2.488   1.789   2.575 -0.2673 -0.1991  0.0132
  917SOL    HW1 2750   2.401   1.849   2.569 -1.4040 -1.0120 -0.9657
  917SOL    HW2 2751   2.470   1.718   2.646 -1.8461 -0.4644  1.2705
  918SOL     OW 2752   1.822   1.870   2.439  0.3951 -0.3548  0.5199
  918SOL    HW1 2753   1.789   1.927   2.359  2.0562 -1.1376 -0.8996
  918SOL    HW2 2754   1.902   1.817   2.411 -2.8274 -2.0256 -0.7553
  919SOL     OW 2755   1.554   2.153   1.812  0.5834 -0.7769  0.2436
  919SOL    HW1 2756   1.460   2.190   1.828  2.6604  1.8200 -1.6841
  919SOL    HW2 2757   1.546   2.059   1.773 -0.0137 -0.0478  0.0812
  920SOL     OW 2758   0.046   0.096   2.853  0.7043  0.0195 -0.1076
  920SOL    HW1 2759   0.007   0.111   2.760  2.5499 -1.8273 -0.9273
  920SOL    HW2 2760   0.145   0.112   2.860 -1.7669  2.2545  0.9325
  921SOL     OW 2761   2.445   0.018   2.407 -0.3010  0.1739  0.1554
  921SOL    HW1 2762   2.515   0.033   2.337 -2.6212  2.0343 -0.8038
  921SOL    HW2 2763   2.428   0.103   2.460  0.7694 -0.5700 -0.2807
  922SOL     OW 2764   2.346   1.711   1.171  0.3721  0.0924 -0.4399
  922SOL    HW1 2765   2.349   1.781   1.247  2.4265  2.1578  0.3892
  922SOL    HW2 2766   2.265   1.732   1.115 -2.2710  1.2731  3.1042
  923SOL     OW 2767   0.557   1.770   0.574  0.5645 -0.4619 -0.5268
  923SOL    HW1 2768   0.596   1.748   0.483  0.5626 -0.0983 -0.2173
  923SOL    HW2 2769   0.625   1.780   0.653 -1.1368 -0.1220 -2.0165
  924SOL     OW 2770   1.509   0.516   2.888 -0.2971  0.2103 -0.3175
  924SOL    HW1 2771   1.536   0.600   2.944  0.8937 -1.8685  1.8202
  924SOL    HW2 2772   1.589   0.486   2.830  1.4990 -1.9019  0.7068
  925SOL     OW 2773   2.624   1.366   0.664  0.1834  0.6163 -0.4684
  925SOL    HW1 2774   2.527   1.356   0.686 -0.9923 -0.7214  1.3948
  925SOL    HW2 2775   2.659   1.273   0.687 -0.0512  1.5657  2.2736
  926SOL     OW 2776   2.691   1.096   0.981 -0.0473 -0.3850  1.1282
  926SOL    HW1 2777   2.677   1.022   1.050 -2.0463 -1.3394 -0.2155
  926SOL    HW2 2778   2.777   1.148   0.992 -2.6577 -1.2797 -0.0616
  927SOL     OW 2779   0.593   1.144   0.287  0.0873  0.0542  0.4694
  927SOL    HW1 2780   0.574   1.071   0.219 -0.4483  1.9263  3.5177
  927SOL    HW2 2781   0.674   1.206   0.266  0.5254 -0.1604  0.6770
  928SOL     OW 2782   0.092   0.001   2.426  0.1419  0.2958  0.0060
  928SOL    HW1 2783   0.127   3.053   2.522 -1.5257  0.7233  1.6405
  928SOL    HW2 2784   0.170   0.016   2.368 -0.0516 -1.4356  0.7855
  929SOL     OW 2785   2.911   0.076   1.131 -0.2683 -0.0023  0.2067
  929SOL    HW1 2786   2.933   0.028   1.043  2.4539  0.5253 -1.1549
  929SOL    HW2 2787   2.823   0.045   1.179  0.6973  0.5582 -1.3413
  930SOL     OW 2788   1.944   2.261   1.733 -0.0114  0.2437  0.2570
  930SOL    HW1 2789   1.883   2.268   1.816 -1.2526  0.7297 -1.3465
  930SOL    HW2 2790   1.912   2.172   1.690  1.0451 -0.6101 -1.5379
  931SOL     OW 2791   1.810   1.180   0.837 -0.2946  0.0483 -0.2525
  931SOL    HW1 2792   1.861   1.189   0.923  1.9611  1.4428 -0.3418
  931SOL    HW2 2793   1.848   1.241   0.762 -0.6096 -1.2498 -0.7800
  932SOL     OW 2794   2.923   0.834   1.271  0.3952  0.1254 -0.0429
  932SOL    HW1 2795   2.836   0.873   1.247  4.5120 -0.8377  1.8250
  932SOL    HW2 2796   2.936   0.761   1.196  0.6660 -3.8379 -2.7492
  933SOL     OW 2797   2.509   1.789   1.584 -0.2737  0.6046  0.4949
  933SOL    HW1 2798   2.480   1.861   1.648 -1.6191 -2.9944  0.2828
  933SOL    HW2 2799   2.582   1.723   1.613  1.1653 -0.6517 -1.8144
  934SOL     OW 2800   1.781   0.372   1.117 -0.5818 -0.0560  0.9059
  934SOL    HW1 2801   1.803   0.313   1.195  1.7264  1.8152 -5.2719
  934SOL    HW2 2802   1.798   0.320   1.030  1.7244  0.2003 -2.3373
  935SOL     OW 2803   0.152   1.370   1.168  1.4752  0.2189 -0.3290
  935SOL    HW1 2804   0.059   1.412   1.148 -5.2890 -0.5547 -0.4475
  935SOL    HW2 2805   0.148   1.273   1.133 -0.1872  0.3170  0.2694
  936SOL     OW 2806   2.961   1.191   1.050  0.2298 -0.1145  0.0459
  936SOL    HW1 2807   2.928   1.206   1.145 -1.2853 -1.1090  0.9879
  936SOL    HW2 2808   3.052   1.151   1.048 -1.5354  2.1619 -0.6588
  937SOL     OW 2809   1.454   2.897   0.893  0.4848 -0.2552 -0.1102
  937SOL    HW1 2810   1.371   2.951   0.913 -0.9411  0.5952 -0.6288
  937SOL    HW2 2811   1.453   2.860   0.798  0.0287 -0.0615  1.2382
  938SOL     OW 2812   2.755   2.489   0.787  0.2387 -0.1026  0.3736
  938SOL    HW1 2813   2.758   2.502   0.683  1.1391 -0.0405  0.6624
  938SOL    HW2 2814   2.672   2.536   0.829 -0.8128 -1.7739 -2.0511
  939SOL     OW 2815   0.553   1.815   2.975 -0.4747  0.0158 -0.0707
  939SOL    HW1 2816   0.647   1.808   2.936 -0.8315 -0.5416  1.7641
  939SOL    HW2 2817   0.554   1.873   3.062 -0.3504 -1.7194 -0.6780
  940SOL     OW 2818   2.688   3.019   2.876 -0.2629  0.3056 -0.0218
  940SOL    HW1 2819   2.765   3.032   2.806  1.4307 -0.0849 -2.1266
  940SOL    HW2 2820   2.656   2.922   2.868 -1.9841 -1.1015  2.0558
  941SOL     OW 2821   1.116   2.738   0.068  0.2580 -0.5125  0.5658
  941SOL    HW1 2822   1.143   2.649   0.103 -1.8219  1.1685 -1.5082
  941SOL    HW2 2823   1.196   2.804   0.073 -0.2207 -0.4247  2.3152
  942SOL     OW 2824   1.515   1.900   1.659 -0.0998  0.2267 -0.0946
  942SOL    HW1 2825   1.520   1.800   1.674 -3.0797  1.5662  2.7318
  942SOL    HW2 2826   1.563   1.927   1.576 -0.9983  0.0871  1.4933
  943SOL     OW 2827   2.147   1.365   1.443  0.1549 -0.3729  0.0247
  943SOL    HW1 2828   2.219   1.407   1.507  1.3684  1.4720  0.9543
  943SOL    HW2 2829   2.102   1.282   1.483  0.3784 -0.2196 -2.0782
  944SOL     OW 2830   2.022   0.895   1.336 -0.2124  0.0416  0.1226
  944SOL    HW1 2831   1.946   0.913   1.274 -0.5141  0.3720 -0.9400
  944SOL    HW2 2832   2.001   0.827   1.413  1.8636 -0.4177  3.3312
  945SOL     OW 2833   0.014   2.902   1.077 -0.0311 -0.1908 -0.1140
  945SOL    HW1 2834   0.059   2.813   1.060  0.6541  0.1809  1.4832
  945SOL    HW2 2835   3.006   2.883   1.126 -0.2343  1.0205  0.5113
  946SOL     OW 2836   0.361   0.810   1.852 -0.6635 -0.2113 -0.3538
  946SOL    HW1 2837   0.408   0.896   1.870  1.5093 -2.4092  1.2588
  946SOL    HW2 2838   0.407   0.759   1.776 -1.3251  0.5207  0.7066
  947SOL     OW 2839   0.493   2.738   0.464  0.0675  0.1208  0.2891
  947SOL    HW1 2840   0.546   2.711   0.384 -0.1691 -3.3223 -1.5216
  947SOL    HW2 2841   0.551   2.760   0.542 -0.0590 -0.2079 -1.1936
  948SOL     OW 2842   2.922   1.236   1.787  0.0451 -0.3762  0.3399
  948SOL    HW1 2843   2.967   1.233   1.696  0.9645 -0.4327  0.1252
  948SOL    HW2 2844   2.952   1.153   1.834 -1.8827 -0.9065 -2.3057
  949SOL     OW 2845   0.323   0.999   2.283 -0.2925 -0.5976 -0.5431
  949SOL    HW1 2846   0.381   0.962   2.356  1.5580  1.3171  3.6254
  949SOL    HW2 2847   0.282   0.927   2.219 -0.4774 -0.2289 -2.1632
  950SOL     OW 2848   0.911   0.843   0.951 -0.4268 -0.6377  0.1486
  950SOL    HW1 2849   0.812   0.857   0.970  1.3108 -0.0891 -1.1503
  950SOL    HW2 2850   0.957   0.926   0.911  1.1036  0.5449  0.0224
  951SOL     OW 2851   1.153   1.941   1.978 -0.4013 -0.7948  0.2971
  951SOL    HW1 2852   1.186   1.920   2.074 -1.0697  1.5783 -0.2400
  951SOL    HW2 2853   1.072   2.006   1.985  2.2123  3.3410 -0.8662
  952SOL     OW 2854   0.803   1.841   2.830 -0.3215 -0.6468 -0.0602
  952SOL    HW1 2855   0.857   1.785   2.892 -1.3221  1.7255 -1.2147
  952SOL    HW2 2856   0.797   1.798   2.739  0.2581 -2.4138 -1.7937
  953SOL     OW 2857   1.687   3.025   2.176 -0.4053  0.0730  0.5160
  953SOL    HW1 2858   1.765   0.011   2.172 -0.5409 -0.4000  3.0925
  953SOL    HW2 2859   1.679   2.975   2.268  0.6946  1.7188  2.3004
  954SOL     OW 2860   1.993   1.204   0.355 -0.3031  0.3827 -0.1817
  954SOL    HW1 2861   2.053   1.281   0.326  0.4461 -0.1134  1.6421
  954SOL    HW2 2862   1.897   1.217   0.326 -0.4568  2.7031  0.4289
  955SOL     OW 2863   0.704   2.352   2.048  0.2719  0.0996 -0.3631
  955SOL    HW1 2864   0.675   2.285   2.121  0.5610 -0.9281  2.2701
  955SOL    HW2 2865   0.703   2.311   1.956 -0.9731  2.4654  1.5717
  956SOL     OW 2866   1.606   0.957   1.350  0.3426 -0.0396  0.2068
  956SOL    HW1 2867   1.637   0.862   1.323  3.2818  0.0177  0.6137
  956SOL    HW2 2868   1.581   0.951   1.449 -1.0730  1.1344  0.8009
  957SOL     OW 2869   2.113   1.401   2.376  0.0604  0.3979  0.4676
  957SOL    HW1 2870   2.100   1.460   2.464  3.4924 -0.6641  1.8995
  957SOL    HW2 2871   2.022   1.361   2.347  0.0583 -1.1560  0.6526
  958SOL     OW 2872   1.307   2.376   0.823 -0.4553 -0.2780  0.2639
  958SOL    HW1 2873   1.275   2.465   0.777 -1.3986  1.3370 -0.0043
  958SOL    HW2 2874   1.357   2.402   0.906  0.7960 -0.2237  1.4698
  959SOL     OW 2875   1.817   1.482   2.718 -0.2325  0.3835  0.1849
  959SOL    HW1 2876   1.832   1.384   2.750 -0.6505  0.0204 -1.0898
  959SOL    HW2 2877   1.775   1.545   2.791 -0.1479  1.7244  1.3454
  960SOL     OW 2878   0.170   0.332   0.104  0.4968 -0.1577  0.5348
  960SOL    HW1 2879   0.075   0.350   0.068 -0.9148 -1.1591 -1.0202
  960SOL    HW2 2880   0.211   0.251   0.061 -3.1107 -0.7301 -0.2324
  961SOL     OW 2881   0.371   0.534   2.208 -0.4235  0.0381  0.3016
  961SOL    HW1 2882   0.466   0.506   2.197 -3.1194  1.3516 -0.2938
  961SOL    HW2 2883   0.345   0.557   2.304 -2.5384 -1.2845  1.0644
  962SOL     OW 2884   0.937   1.403   3.044 -0.0156 -0.0045 -0.3447
  962SOL    HW1 2885   1.016   1.344   3.042 -1.4104 -2.7870 -1.8609
  962SOL    HW2 2886   0.854   1.341   3.064 -1.3820 -2.0988  1.2807
  963SOL     OW 2887   2.085   1.877   2.984 -0.2016  0.6531 -0.4555
  963SOL    HW1 2888   1.999   1.917   2.953  1.9307 -1.2676  0.4878
  963SOL    HW2 2889   2.160   1.948   2.990  0.3737  0.9284 -0.4673
  964SOL     OW 2890   1.227   3.045   0.937 -0.1975  0.0171 -0.2528
  964SOL    HW1 2891   1.143   3.076   0.885 -2.9342  0.2802 -2.1508
  964SOL    HW2 2892   1.207   3.015   1.032  1.4320 -0.0955  0.1167
  965SOL     OW 2893   0.656   2.533   1.061  0.0297  0.0275  0.2401
  965SOL    HW1 2894   0.571   2.586   1.060  3.1150  2.1548  2.0115
  965SOL    HW2 2895   0.643   2.429   1.068  0.3421 -3.1935  0.1839
  966SOL     OW 2896   0.034   1.433   3.017  0.3328 -0.5443 -0.2744
  966SOL    HW1 2897   3.046   1.389   2.955  2.1812  1.0167  0.2408
  966SOL    HW2 2898   0.038   1.408   0.037  1.9051  1.2222 -1.8433
  967SOL     OW 2899   1.803   2.871   1.560 -0.0901 -0.0499 -0.2704
  967SOL    HW1 2900   1.897   2.829   1.559  0.7979 -1.1292  3.6221
  967SOL    HW2 2901   1.733   2.817   1.606  0.4991  1.6177 -0.8698
  968SOL     OW 2902   1.907   0.853   0.647 -0.4923  0.0884 -0.1390
  968SOL    HW1 2903   1.812   0.879   0.625  1.2513 -0.6833 -0.4798
  968SOL    HW2 2904   1.910   0.764   0.691  3.0284 -1.4374  3.6463
  969SOL     OW 2905   0.393   1.806   2.093 -0.1191 -0.0347 -0.0531
  969SOL    HW1 2906   0.451   1.846   2.021 -3.6680 -0.8849 -1.0431
  969SOL    HW2 2907   0.388   1.862   2.176  0.9039  0.4301 -0.0935
  970SOL     OW 2908   2.587   1.388   1.494 -0.3193 -0.4198 -0.2048
  970SOL    HW1 2909   2.623   1.299   1.467 -2.3275  0.0313  1.0491
  970SOL    HW2 2910   2.583   1.442   1.407  0.0421 -1.0400  0.1113
  971SOL     OW 2911   1.094   0.446   1.625 -0.2905 -0.4522  0.1162
  971SOL    HW1 2912   1.112   0.348   1.622  1.5174  0.9287  1.6739
  971SOL    HW2 2913   1.001   0.468   1.651  0.7424  0.6005 -0.7865
  972SOL     OW 2914   0.919   0.287   2.520  0.2507  0.4321 -0.4857
  972SOL    HW1 2915   0.936   0.269   2.617  0.3076 -2.3010  1.6058
  972SOL    HW2 2916   0.927   0.201   2.471 -1.7696 -0.4368  0.5278
  973SOL     OW 2917   2.973   1.462   1.074  0.0445  0.3080 -0.0816
  973SOL    HW1 2918   2.955   1.362   1.094 -0.7962  1.3956  0.7211
  973SOL    HW2 2919   2.958   1.494   0.977 -1.1226 -0.1353  1.0601
  974SOL     OW 2920   1.870   0.914   1.843  0.3089  0.1663 -0.3189
  974SOL    HW1 2921   1.887   1.005   1.799 -0.8487  1.0264  2.1635
  974SOL    HW2 2922   1.788   0.865   1.807  2.8501  1.3447 -0.9174
  975SOL     OW 2923   2.669   3.055   0.271  0.0375  0.1008  0.2192
  975SOL    HW1 2924   2.587   3.001   0.293 -0.1448 -0.1685 -0.5131
  975SOL    HW2 2925   2.703   3.032   0.176  1.8846  3.0708 -0.8609
  976SOL     OW 2926   0.256   1.646   1.690 -0.1947  0.2403  0.2570
  976SOL    HW1 2927   0.263   1.735   1.735  3.0769  0.1315  0.3469
  976SOL    HW2 2928   0.169   1.634   1.640 -0.8483  0.0824 -2.1558
  977SOL     OW 2929   0.511   2.963   0.181 -0.1889 -0.5612  0.3347
  977SOL    HW1 2930   0.568   3.032   0.136  3.1789 -1.1736  0.5731
  977SOL    HW2 2931   0.467   2.905   0.106  2.4977 -0.5046  2.0647
  978SOL     OW 2932   0.490   1.616   0.095 -0.1767 -0.3663 -0.2754
  978SOL    HW1 2933   0.485   1.515   0.082  0.3118  2.0557 -0.8787
  978SOL    HW2 2934   0.529   1.659   0.011 -1.0503 -5.1372 -1.3406
  979SOL     OW 2935   1.334   2.120   1.253 -0.4543  0.5743  0.3829
  979SOL    HW1 2936   1.324   2.225   1.243  1.2339  0.1701 -0.5679
  979SOL    HW2 2937   1.319   2.099   1.353 -0.8501  2.4888 -0.1432
  980SOL     OW 2938   0.724   1.259   2.027 -0.0562  0.2779 -1.1749
  980SOL    HW1 2939   0.716   1.334   1.957 -1.3323  0.2040  0.2428
  980SOL    HW2 2940   0.661   1.276   2.105 -0.3432  1.5639  0.6480
  981SOL     OW 2941   0.028   1.393   0.207  0.4065 -0.3431 -0.2550
  981SOL    HW1 2942   0.107   1.376   0.268  1.0792  0.2387  1.7825
  981SOL    HW2 2943   3.059   1.478   0.243  0.4973  1.1477  2.3699
  982SOL     OW 2944   2.345   2.653   2.918 -0.1118 -0.0660 -0.6294
  982SOL    HW1 2945   2.363   2.614   3.010 -0.5682  1.9978  0.7241
  982SOL    HW2 2946   2.246   2.687   2.914  0.3854  0.1787 -3.6002
  983SOL     OW 2947   2.150   0.570   1.124 -0.4868 -0.1876 -0.6606
  983SOL    HW1 2948   2.229   0.615   1.171  0.5014 -3.4675  0.5344
  983SOL    HW2 2949   2.158   0.467   1.129 -2.7852  0.0102  1.9525
  984SOL     OW 2950   0.903   0.057   2.370 -0.3410  0.3787  0.1732
  984SOL    HW1 2951   0.971   0.085   2.300 -2.4403 -0.4644  1.5893
  984SOL    HW2 2952   0.940   3.048   2.410  1.0580 -0.4780  3.5900
  985SOL     OW 2953   1.438   2.089   2.290  0.5895 -0.0912 -0.0041
  985SOL    HW1 2954   1.415   2.160   2.221 -1.9032  2.0692  2.3666
  985SOL    HW2 2955   1.528   2.048   2.270 -0.2165  2.1207 -0.8352
  986SOL     OW 2956   1.694   2.949   2.441 -0.0741 -0.0562  0.5723
  986SOL    HW1 2957   1.719   3.004   2.519 -1.5676  1.5526 -0.0658
  986SOL    HW2 2958   1.705   2.848   2.453 -0.5408 -1.1128 -0.6722
  987SOL     OW 2959   2.392   0.086   2.059  0.6235 -0.1740 -0.0560
  987SOL    HW1 2960   2.428   0.169   2.107  1.2029  0.9698 -2.4024
  987SOL    HW2 2961   2.291   0.077   2.082 -1.1077 -0.3040  2.0449
  988SOL     OW 2962   2.470   0.323   2.164 -0.7715 -0.2713  0.2776
  988SOL    HW1 2963   2.468   0.375   2.250  2.8703  1.4600  2.1408
  988SOL    HW2 2964   2.427   0.376   2.090 -0.4275 -1.7078  0.9680
  989SOL     OW 2965   2.424   2.338   2.918  0.0080  0.1241  0.4488
  989SOL    HW1 2966   2.515   2.365   2.882 -0.2945 -1.2100 -2.3521
  989SOL    HW2 2967   2.373   2.286   2.847  0.9676 -1.5140  2.0535
  990SOL     OW 2968   0.132   0.848   3.031  0.2549 -0.8548  0.3453
  990SOL    HW1 2969   0.078   0.775   3.073  4.0556  1.3978 -1.6081
  990SOL    HW2 2970   0.118   0.866   2.929  0.5185 -0.8641 -2.1948
  991SOL     OW 2971   0.424   1.058   2.585  0.6362  0.6864 -0.3295
  991SOL    HW1 2972   0.496   1.124   2.607  1.4957  0.9704  0.9233
  991SOL    HW2 2973   0.464   0.981   2.533  1.6955  2.0238  0.4967
  992SOL     OW 2974   0.133   1.728   2.133 -0.2932 -0.3014 -0.5766
  992SOL    HW1 2975   0.236   1.749   2.134  0.6402  0.3185 -0.4883
  992SOL    HW2 2976   0.089   1.751   2.043  1.7798 -0.7738  0.5280
  993SOL     OW 2977   0.786   0.173   0.728 -0.0035 -0.4378 -0.0214
  993SOL    HW1 2978   0.747   0.247   0.672  1.8850 -2.3727  0.2268
  993SOL    HW2 2979   0.792   0.086   0.680 -0.2861  1.5433  1.4022
  994SOL     OW 2980   0.468   2.087   1.494 -0.3411 -0.0212 -0.0124
  994SOL    HW1 2981   0.402   2.058   1.420  0.3999 -1.6741  1.8552
  994SOL    HW2 2982   0.523   2.003   1.519  1.4308 -0.5457 -4.9624
  995SOL     OW 2983   2.231   1.603   2.785 -0.1566 -0.4623  0.0578
  995SOL    HW1 2984   2.332   1.616   2.780 -1.5234  0.2237 -0.9607
  995SOL    HW2 2985   2.195   1.572   2.875 -1.1864 -1.0838 -2.2275
  996SOL     OW 2986   2.062   1.552   2.584  0.4537  0.3860 -0.2990
  996SOL    HW1 2987   1.971   1.527   2.624 -1.8887  0.8944  0.8605
  996SOL    HW2 2988   2.129   1.561   2.659 -1.9386 -1.0079  0.4727
  997SOL     OW 2989   1.889   1.152   1.740  0.6185 -0.6494 -0.4685
  997SOL    HW1 2990   1.924   1.235   1.788  2.2648 -0.0270 -1.4079
  997SOL    HW2 2991   1.784   1.160   1.731 -4.4030 -0.0415 -0.9217
  998SOL     OW 2992   2.138   2.154   1.051  0.0996 -0.0682  0.1846
  998SOL    HW1 2993   2.113   2.115   1.141  1.0483 -0.4206  1.3474
  998SOL    HW2 2994   2.166   2.079   0.983 -0.5845 -2.1071 -0.8782
  999SOL     OW 2995   2.314   2.595   0.125  0.5607 -0.2624 -0.3812
  999SOL    HW1 2996   2.391   2.668   0.139  1.0741  1.1138  1.1721
  999SOL    HW2 2997   2.351   2.504   0.138 -0.0700 -0.5007  1.7948
 1000SOL     OW 2998   0.661   0.051   2.516  0.1747  0.0614  0.4755
 1000SOL    HW1 2999   0.657   0.137   2.576 -0.5295  2.0446  2.2496
 1000SOL    HW2 3000   0.735   0.059   2.445  0.8349 -1.2926  2.4370
   3.07794   3.07794   3.07794
