1000 SPC/Fw water molecules t= 386.00000 step= 386000
 3000
    1SOL     OW    1   2.697   2.939   1.677 -0.0379 -0.2298 -0.3864
    1SOL    HW1    2   2.622   3.002   1.656  1.9950  0.5120 -0.2941
    1SOL    HW2    3   2.657   2.854   1.704 -0.1443  1.1576  0.6021
    2SOL     OW    4   2.466   2.704   0.238 -0.2057  0.0212  0.3250
    2SOL    HW1    5   2.455   2.776   0.306 -0.5232 -5.2772 -1.2961
    2SOL    HW2    6   2.373   2.684   0.211  1.2642 -0.2787  1.3714
    3SOL     OW    7   1.540   3.048   0.275  0.3326  0.5093  0.4462
    3SOL    HW1    8   1.633   3.042   0.322  2.6597  0.0387 -1.0177
    3SOL    HW2    9   1.538   0.015   0.211  0.7842 -1.9064  1.6793
    4SOL     OW   10   1.311   0.122   2.425 -0.4076  0.1152 -0.3152
    4SOL    HW1   11   1.243   0.090   2.490  0.9106  2.0498 -3.4296
    4SOL    HW2   12   1.278   0.102   2.331 -1.0742 -0.6543  1.4736
    5SOL     OW   13   2.225   0.244   1.457 -0.0409 -0.4111  0.1475
    5SOL    HW1   14   2.202   0.309   1.379 -1.6962 -1.6577  1.4441
    5SOL    HW2   15   2.142   0.216   1.507  0.2091  0.2343 -0.2436
    6SOL     OW   16   2.160   1.927   0.496  0.0157 -0.2033 -0.1374
    6SOL    HW1   17   2.116   1.870   0.425 -0.2236  2.0773 -2.9419
    6SOL    HW2   18   2.177   2.023   0.460 -0.7938  2.3067 -0.8931
    7SOL     OW   19   1.861   1.080   0.892  0.0804 -0.4068 -0.1659
    7SOL    HW1   20   1.834   1.153   0.960 -1.6626 -3.1418  0.3128
    7SOL    HW2   21   1.787   1.013   0.865  1.3198  1.8235 -3.3835
    8SOL     OW   22   0.641   1.363   0.989 -0.1226  0.1420 -0.3644
    8SOL    HW1   23   0.708   1.400   1.056  0.1098 -0.8167 -0.4056
    8SOL    HW2   24   0.551   1.334   1.039 -2.8623 -2.1379  1.0193
    9SOL     OW   25   0.521   2.656   1.729  0.1350  0.0775 -0.2613
    9SOL    HW1   26   0.452   2.724   1.768 -0.8320  2.1044 -3.2551
    9SOL    HW2   27   0.548   2.594   1.805 -2.9144  2.3051  0.1794
   10SOL     OW   28   1.185   2.466   0.573 -0.0095 -0.4097 -0.0343
   10SOL    HW1   29   1.268   2.509   0.535 -0.0809 -2.6390 -0.9509
   10SOL    HW2   30   1.194   2.366   0.583 -0.5097  0.6598  1.2612
   11SOL     OW   31   1.572   1.780   1.312 -0.2449 -0.3668 -0.0667
   11SOL    HW1   32   1.621   1.870   1.329 -0.0876  1.4814  1.2476
   11SOL    HW2   33   1.470   1.795   1.295 -1.1708  0.7763 -1.6252
   12SOL     OW   34   2.997   0.464   2.039  0.4331 -0.1437  0.2193
   12SOL    HW1   35   2.940   0.397   1.988 -0.2963 -1.6685  2.8042
   12SOL    HW2   36   3.015   0.555   1.993  0.1155  2.8088 -0.1379
   13SOL     OW   37   2.703   0.168   0.541  0.1960 -0.7356 -0.5059
   13SOL    HW1   38   2.663   0.080   0.547  1.1038  0.8822 -1.2491
   13SOL    HW2   39   2.724   0.192   0.636  0.3715 -0.3772 -2.7877
   14SOL     OW   40   1.696   1.364   3.070  0.1506 -0.1116  0.4890
   14SOL    HW1   41   1.695   1.271   3.037  1.3343  3.4434  1.9133
   14SOL    HW2   42   1.697   1.443   3.004  1.0689 -2.9275 -1.1459
   15SOL     OW   43   2.593   2.305   1.689  0.2490 -0.2424  0.5162
   15SOL    HW1   44   2.529   2.366   1.735  0.2448 -1.7112  0.4065
   15SOL    HW2   45   2.687   2.313   1.722  0.2463 -1.7909  3.7277
   16SOL     OW   46   2.489   2.914   0.946 -0.3572  0.4837 -0.4758
   16SOL    HW1   47   2.514   2.988   1.014  0.8893  2.7059  1.6344
   16SOL    HW2   48   2.391   2.923   0.927  0.6199 -0.2860  0.4703
   17SOL     OW   49   1.056   0.233   1.461  0.2993 -0.4180  0.2112
   17SOL    HW1   50   0.966   0.235   1.408 -1.8850  0.3405 -2.5310
   17SOL    HW2   51   1.075   0.145   1.505  3.0436  0.0215 -1.3137
   18SOL     OW   52   1.524   0.470   0.924 -0.0748  0.6865  0.0181
   18SOL    HW1   53   1.527   0.545   0.994  0.3084  2.6804  0.4859
   18SOL    HW2   54   1.531   0.380   0.971 -0.5411 -0.1143  0.9603
   19SOL     OW   55   2.156   1.512   0.201 -0.2542  0.0524  0.2699
   19SOL    HW1   56   2.073   1.463   0.165  2.7096 -0.7012  5.1752
   19SOL    HW2   57   2.141   1.572   0.282  0.0463  0.7446 -1.6532
   20SOL     OW   58   2.060   1.484   2.244 -0.0425 -0.6382  0.5334
   20SOL    HW1   59   2.123   1.442   2.307 -2.0119 -0.1188  1.5193
   20SOL    HW2   60   2.033   1.416   2.171  1.2061  0.0733  1.1660
   21SOL     OW   61   1.283   0.115   0.675 -0.2943 -0.1892 -0.0455
   21SOL    HW1   62   1.340   0.161   0.606 -1.2776 -1.2571 -2.9031
   21SOL    HW2   63   1.241   0.032   0.628 -3.1323 -0.7798 -1.2168
   22SOL     OW   64   2.641   0.872   1.062 -0.6348 -0.4091 -0.2336
   22SOL    HW1   65   2.665   0.851   0.965  1.3671 -2.6247  1.5453
   22SOL    HW2   66   2.587   0.798   1.103 -0.6343  2.5824 -1.5271
   23SOL     OW   67   0.371   0.092   1.774  0.5578  0.2937 -0.4587
   23SOL    HW1   68   0.422   0.178   1.763 -1.2475 -1.3925  1.8002
   23SOL    HW2   69   0.361   0.065   1.873  0.2453  0.7827 -1.2135
   24SOL     OW   70   2.720   2.780   0.320 -0.4893  0.3822  0.3515
   24SOL    HW1   71   2.646   2.764   0.250 -0.9345 -0.6645 -0.9651
   24SOL    HW2   72   2.685   2.736   0.403  0.2110 -1.1506 -3.3487
   25SOL     OW   73   1.760   0.185   2.881 -0.0853  0.0248  0.2027
   25SOL    HW1   74   1.836   0.115   2.850  0.0025  0.5725 -2.9242
   25SOL    HW2   75   1.805   0.256   2.929 -1.4896 -1.5117 -2.4740
   26SOL     OW   76   1.583   2.588   0.150  0.0814  0.3418  0.0189
   26SOL    HW1   77   1.534   2.679   0.168  1.1952  2.8053  5.5526
   26SOL    HW2   78   1.543   2.515   0.215 -1.0242 -0.2352  0.0608
   27SOL     OW   79   1.227   0.585   1.112  0.1785 -0.4070 -0.7238
   27SOL    HW1   80   1.232   0.671   1.051  1.2414 -0.8893 -1.1387
   27SOL    HW2   81   1.143   0.591   1.171 -4.1725  0.7860 -2.4478
   28SOL     OW   82   1.217   1.446   0.737  0.0438  0.1051  0.2064
   28SOL    HW1   83   1.252   1.423   0.828 -1.4903  0.0419 -1.6760
   28SOL    HW2   84   1.286   1.438   0.660  0.4910  1.0782  0.2037
   29SOL     OW   85   2.848   0.293   1.914  0.0926 -0.1106  0.5542
   29SOL    HW1   86   2.884   0.242   1.833 -1.4957  0.1565 -0.4634
   29SOL    HW2   87   2.765   0.348   1.882  0.9616  1.4022  0.3603
   30SOL     OW   88   1.196   2.810   1.355  0.3286  0.0363  0.3216
   30SOL    HW1   89   1.127   2.769   1.421 -0.6764  0.6777 -1.2592
   30SOL    HW2   90   1.202   2.909   1.376 -1.3325 -0.5927  1.7153
   31SOL     OW   91   1.922   3.070   1.680  1.1421 -0.4236 -0.6159
   31SOL    HW1   92   2.021   3.050   1.703  0.9517  1.2024  1.9602
   31SOL    HW2   93   1.877   2.993   1.631 -0.3560 -1.4882 -0.8601
   32SOL     OW   94   1.444   1.811   3.054 -0.6149 -0.4200 -0.0262
   32SOL    HW1   95   1.533   1.800   3.101 -0.2870  0.3855  0.8234
   32SOL    HW2   96   1.454   1.843   2.957  1.7603  0.4366 -2.4187
   33SOL     OW   97   2.959   0.839   2.264 -0.3021  0.3511  0.2014
   33SOL    HW1   98   2.925   0.845   2.167 -1.7690  2.5726 -4.1746
   33SOL    HW2   99   2.878   0.843   2.324  1.2549 -0.4271 -0.1228
   34SOL     OW  100   2.119   0.488   0.557 -0.1802 -0.2565 -0.3455
   34SOL    HW1  101   2.101   0.441   0.644 -1.8184  1.2801 -3.2605
   34SOL    HW2  102   2.130   0.423   0.484 -1.6142  0.7004 -0.2619
   35SOL     OW  103   2.610   2.215   2.141  0.4164  0.5222  0.0945
   35SOL    HW1  104   2.658   2.166   2.217  0.9695  0.8097  0.4390
   35SOL    HW2  105   2.677   2.260   2.075  0.9008 -2.2350 -1.6375
   36SOL     OW  106   2.128   2.016   2.841  0.6072 -0.2814  0.4144
   36SOL    HW1  107   2.225   1.997   2.859 -1.7329  0.3643 -1.4292
   36SOL    HW2  108   2.116   2.016   2.741 -0.2579  0.7092  1.4427
   37SOL     OW  109   1.951   0.186   1.540  0.1637  0.1610  0.1340
   37SOL    HW1  110   1.968   0.263   1.604  0.1019  0.4300  0.9831
   37SOL    HW2  111   1.936   0.100   1.594 -0.0394 -0.3285  0.5449
   38SOL     OW  112   0.313   0.197   2.616  0.3537 -0.2435 -0.0400
   38SOL    HW1  113   0.390   0.183   2.546  0.3836  0.5886 -2.6907
   38SOL    HW2  114   0.340   0.151   2.700 -0.9466 -0.0420 -1.6572
   39SOL     OW  115   1.739   1.165   1.879 -0.2975 -0.9936 -0.2720
   39SOL    HW1  116   1.760   1.265   1.876 -0.9577  2.5773 -2.0235
   39SOL    HW2  117   1.821   1.109   1.851  2.0086  0.0634 -1.6678
   40SOL     OW  118   1.118   1.637   0.982 -0.3654 -0.0979  0.3193
   40SOL    HW1  119   1.092   1.536   0.986 -0.5266  0.4245  1.4057
   40SOL    HW2  120   1.107   1.667   0.886  1.7051  2.5955 -2.0322
   41SOL     OW  121   1.897   1.859   0.852 -0.4263 -0.3140  0.0413
   41SOL    HW1  122   1.955   1.789   0.812  0.0728  2.8545 -1.1025
   41SOL    HW2  123   1.835   1.815   0.918  1.3435  0.1604  0.5968
   42SOL     OW  124   0.075   0.860   1.383  0.2440  0.6113  0.1903
   42SOL    HW1  125   0.076   0.764   1.353 -0.4139  0.8231  0.7607
   42SOL    HW2  126   0.105   0.869   1.481  1.8054  1.5161 -1.2698
   43SOL     OW  127   0.236   1.569   2.888  0.2991  0.1935 -0.3405
   43SOL    HW1  128   0.185   1.603   2.968  1.0154  1.2412 -0.9666
   43SOL    HW2  129   0.335   1.552   2.909 -1.0875 -1.1672  0.7021
   44SOL     OW  130   1.426   2.662   1.411 -0.4953  0.4594 -0.1645
   44SOL    HW1  131   1.344   2.716   1.419  3.8353  0.6731  0.4989
   44SOL    HW2  132   1.462   2.662   1.506 -1.1091  0.4745  0.5302
   45SOL     OW  133   1.130   0.037   2.629 -0.5121  0.3877  0.1586
   45SOL    HW1  134   1.094   3.049   2.621  1.2826  1.8305 -1.4536
   45SOL    HW2  135   1.054   0.103   2.637  0.0123 -0.1448 -2.0565
   46SOL     OW  136   0.696   2.490   2.389  0.1301 -0.5731 -0.1171
   46SOL    HW1  137   0.773   2.432   2.359 -1.3797  1.9721 -1.2523
   46SOL    HW2  138   0.696   2.573   2.329  1.3319 -0.0667  0.3263
   47SOL     OW  139   0.904   1.991   1.035  0.5070  0.2205 -0.1653
   47SOL    HW1  140   0.898   2.067   1.103  0.3463  1.5456  0.7354
   47SOL    HW2  141   0.948   1.910   1.076 -0.6216  0.9612 -2.0652
   48SOL     OW  142   0.833   2.086   1.348  0.7459  0.1478 -0.2775
   48SOL    HW1  143   0.800   2.156   1.284  1.1282  0.2089  1.8452
   48SOL    HW2  144   0.759   2.020   1.377  1.2380 -0.9951 -0.2798
   49SOL     OW  145   2.694   0.318   0.031 -0.0423  0.5082 -0.3474
   49SOL    HW1  146   2.721   0.401   0.085 -1.6630  2.4591 -0.7174
   49SOL    HW2  147   2.731   0.326   3.044  0.5819  2.8056 -0.9285
   50SOL     OW  148   1.952   0.420   0.161  0.0735 -0.3611  0.5700
   50SOL    HW1  149   2.020   0.367   0.212 -2.0999  2.3556 -0.3884
   50SOL    HW2  150   1.913   0.497   0.223 -2.7281  1.1710 -0.7378
   51SOL     OW  151   1.949   0.684   1.144 -0.4370  0.1327 -0.8088
   51SOL    HW1  152   2.042   0.673   1.188  1.0264 -0.1420 -0.0897
   51SOL    HW2  153   1.926   0.782   1.134  0.4011 -2.4865  0.8870
   52SOL     OW  154   0.489   1.680   0.101  0.0907  0.7955 -0.0137
   52SOL    HW1  155   0.540   1.600   0.072 -0.2240  1.1002 -1.5930
   52SOL    HW2  156   0.496   1.751   0.029 -0.4486 -0.6647  0.9073
   53SOL     OW  157   0.241   1.333   3.072  0.1957  0.1825 -0.2691
   53SOL    HW1  158   0.248   1.253   0.030 -0.1132 -2.1446  0.6702
   53SOL    HW2  159   0.332   1.356   3.029 -0.7424  1.1025  1.8406
   54SOL     OW  160   2.401   1.461   2.043  0.6450  0.0157  0.3342
   54SOL    HW1  161   2.393   1.554   2.006 -0.6694 -1.3404  0.1576
   54SOL    HW2  162   2.497   1.438   2.058 -1.3588  1.3887 -0.7217
   55SOL     OW  163   2.410   1.818   0.472  0.2937 -0.4920  0.3066
   55SOL    HW1  164   2.310   1.849   0.481  0.1411 -0.2507 -0.4529
   55SOL    HW2  165   2.446   1.795   0.567 -0.5244 -0.5826  0.1101
   56SOL     OW  166   1.988   0.041   1.301 -0.1875  0.4779  0.2563
   56SOL    HW1  167   2.000   0.094   1.217 -1.6723 -1.1569  0.4445
   56SOL    HW2  168   1.963   0.099   1.380  0.2505  0.4093 -1.4322
   57SOL     OW  169   1.164   1.259   0.323 -0.1199 -0.5767  0.0267
   57SOL    HW1  170   1.106   1.186   0.359 -0.7038  2.7597  0.4842
   57SOL    HW2  171   1.262   1.233   0.306  1.0774  0.3680 -0.3495
   58SOL     OW  172   2.448   0.303   1.641  0.1083  0.4883  0.4144
   58SOL    HW1  173   2.408   0.333   1.728  0.4522  2.3095 -1.1095
   58SOL    HW2  174   2.372   0.283   1.572 -2.1681  0.7435  2.4597
   59SOL     OW  175   1.267   2.771   2.805  0.4525 -0.0447  0.2082
   59SOL    HW1  176   1.365   2.793   2.796  2.7769 -0.6286  1.9880
   59SOL    HW2  177   1.253   2.671   2.823 -2.2018  0.1236 -0.6114
   60SOL     OW  178   3.022   2.250   2.860  0.0417  0.3833  0.0443
   60SOL    HW1  179   2.944   2.213   2.917 -1.5945 -3.1389  0.2538
   60SOL    HW2  180   2.987   2.323   2.796 -2.8610 -0.2321  0.0660
   61SOL     OW  181   0.785   2.307   1.166 -0.2463 -0.3564  0.3082
   61SOL    HW1  182   0.880   2.323   1.130  2.1954 -0.3587 -0.3159
   61SOL    HW2  183   0.717   2.334   1.097  1.6580  1.9125  0.5858
   62SOL     OW  184   1.819   1.958   2.429  0.1348 -0.4030 -0.0328
   62SOL    HW1  185   1.819   1.957   2.326  3.2110 -1.6804 -4.2937
   62SOL    HW2  186   1.802   1.870   2.467  2.3092  0.4477 -2.5685
   63SOL     OW  187   1.690   1.786   0.037  0.4459  0.0530 -0.5726
   63SOL    HW1  188   1.653   1.722   0.112 -1.6091  0.1057  3.7100
   63SOL    HW2  189   1.788   1.769   0.013 -1.2209  1.2337  1.4308
   64SOL     OW  190   2.027   1.111   0.116 -0.1455  0.2554  0.0409
   64SOL    HW1  191   1.964   1.070   0.047  2.2318  2.3467  1.8327
   64SOL    HW2  192   1.971   1.155   0.191 -0.0711  0.2275  0.1176
   65SOL     OW  193   2.312   2.135   1.819  0.6636  0.2467  0.0658
   65SOL    HW1  194   2.344   2.082   1.905  0.9092 -1.3703  0.0792
   65SOL    HW2  195   2.210   2.128   1.808 -2.6293 -1.6324 -2.1485
   66SOL     OW  196   0.386   0.824   1.467 -0.0136 -0.6292  0.1346
   66SOL    HW1  197   0.338   0.875   1.390 -0.0463 -0.2468  1.6961
   66SOL    HW2  198   0.395   0.893   1.541 -1.7731 -1.5384  0.3059
   67SOL     OW  199   2.413   3.007   0.105  0.1022 -0.1469 -0.5007
   67SOL    HW1  200   2.416   3.047   0.201  1.5159  0.0270 -0.1799
   67SOL    HW2  201   2.420   3.079   0.034 -1.5398 -1.7349 -0.3467
   68SOL     OW  202   1.767   1.985   1.257  0.1784 -0.1745 -0.0642
   68SOL    HW1  203   1.856   1.974   1.207 -1.0810 -0.1362  3.0081
   68SOL    HW2  204   1.693   2.009   1.188  1.9780  0.9815  1.4461
   69SOL     OW  205   3.064   2.625   3.103 -0.1877  0.0576  0.7683
   69SOL    HW1  206   0.048   2.581   0.011  2.4564 -2.0405  2.3932
   69SOL    HW2  207   2.994   2.565   0.033 -0.7875 -2.1829 -1.0894
   70SOL     OW  208   2.851   0.898   1.914 -0.5101 -0.6260  0.0460
   70SOL    HW1  209   2.863   0.950   1.825  1.3482 -1.3410  1.0933
   70SOL    HW2  210   2.761   0.904   1.953  0.5863 -1.0986 -0.0776
   71SOL     OW  211   0.860   1.138   2.725 -0.8516  0.7979 -0.7962
   71SOL    HW1  212   0.881   1.173   2.819 -1.8586 -1.6099 -1.6403
   71SOL    HW2  213   0.881   1.037   2.732 -0.8179 -0.9354  3.1488
   72SOL     OW  214   2.734   1.704   2.082  0.8216  0.1525  0.4925
   72SOL    HW1  215   2.703   1.753   1.993  0.0018  1.4772  0.7741
   72SOL    HW2  216   2.677   1.623   2.101 -1.3386  0.1039 -2.0370
   73SOL     OW  217   1.056   1.796   0.107 -0.4500  0.0237 -0.0391
   73SOL    HW1  218   1.047   1.838   0.017 -1.2794 -0.1879 -1.3490
   73SOL    HW2  219   1.152   1.785   0.137 -0.1906  0.1890  0.4421
   74SOL     OW  220   2.153   2.832   2.750  0.0637  0.4655 -0.0131
   74SOL    HW1  221   2.161   2.903   2.679 -2.9455  1.8545  0.4118
   74SOL    HW2  222   2.228   2.765   2.740  2.7778 -0.4855 -0.4880
   75SOL     OW  223   1.493   2.375   0.870  0.2675  0.3392 -0.3244
   75SOL    HW1  224   1.409   2.335   0.908 -1.3711 -1.0868  2.6730
   75SOL    HW2  225   1.545   2.307   0.816 -1.5660  1.2639 -1.4306
   76SOL     OW  226   2.547   1.860   2.377  0.2750 -0.7963  0.0681
   76SOL    HW1  227   2.445   1.871   2.375 -1.1887  0.1910 -1.5462
   76SOL    HW2  228   2.568   1.781   2.321 -1.4522  3.0886 -1.8413
   77SOL     OW  229   3.064   2.475   1.838 -0.0518  0.2111 -0.4331
   77SOL    HW1  230   3.050   2.540   1.912  0.3181 -1.4707 -0.3281
   77SOL    HW2  231   2.980   2.428   1.809 -1.9683 -0.6889  0.6967
   78SOL     OW  232   2.395   1.014   0.215 -0.0780 -0.1883  0.1495
   78SOL    HW1  233   2.309   0.967   0.250  0.2943  0.0321  2.3161
   78SOL    HW2  234   2.361   1.105   0.184  0.1705  2.0051 -1.7370
   79SOL     OW  235   0.188   1.647   2.469 -0.3206 -0.2803 -0.4389
   79SOL    HW1  236   0.132   1.695   2.537  0.4490  4.4764  1.6428
   79SOL    HW2  237   0.247   1.579   2.515 -0.9657 -0.6715 -0.2991
   80SOL     OW  238   1.800   1.425   1.778 -0.5055 -0.1242 -1.0510
   80SOL    HW1  239   1.731   1.488   1.734 -3.3355 -0.3549  0.0981
   80SOL    HW2  240   1.873   1.481   1.823 -0.3543  0.4732 -2.5425
   81SOL     OW  241   1.954   1.283   2.074  0.1415 -0.3893 -0.1971
   81SOL    HW1  242   1.979   1.221   1.995  1.1498 -1.8505 -3.0120
   81SOL    HW2  243   1.969   1.236   2.162 -0.7551  1.2252  1.6776
   82SOL     OW  244   1.413   1.730   1.954 -0.1910  0.4469 -0.2542
   82SOL    HW1  245   1.338   1.756   1.891 -1.6541  1.9317  0.8096
   82SOL    HW2  246   1.443   1.634   1.936 -0.6180 -0.2191  2.7996
   83SOL     OW  247   0.194   0.303   0.430 -0.3096  0.2049 -0.0631
   83SOL    HW1  248   0.146   0.318   0.343  0.9508  1.5752  2.7153
   83SOL    HW2  249   0.135   0.240   0.485 -0.9011  1.2263 -1.7264
   84SOL     OW  250   0.159   0.019   0.485  0.7730 -0.5097  0.1679
   84SOL    HW1  251   0.078   0.017   0.421 -2.5721 -1.4333 -0.4469
   84SOL    HW2  252   0.246   0.007   0.431 -1.2125  0.4805 -0.2541
   85SOL     OW  253   2.271   2.121   1.278  0.3801  0.0327  0.0718
   85SOL    HW1  254   2.219   2.100   1.362 -2.8929  0.7595 -1.2229
   85SOL    HW2  255   2.242   2.206   1.238 -0.3778 -1.9280 -0.5072
   86SOL     OW  256   0.425   0.363   1.420  0.5944  0.1456  0.2816
   86SOL    HW1  257   0.392   0.389   1.325 -0.8321  1.0333 -1.9332
   86SOL    HW2  258   0.474   0.274   1.416 -0.2553  0.3915  1.1402
   87SOL     OW  259   3.065   2.290   2.120 -0.7654  0.1012  0.0813
   87SOL    HW1  260   0.007   2.297   2.037 -3.3236 -0.5960  3.6217
   87SOL    HW2  261   0.015   2.322   2.195  0.0222 -0.8322 -2.3871
   88SOL     OW  262   0.260   2.043   2.767 -0.2539  0.5807 -0.5457
   88SOL    HW1  263   0.261   2.101   2.685  3.5741  2.3872 -1.6583
   88SOL    HW2  264   0.164   2.027   2.801 -0.5850  0.5104 -3.2974
   89SOL     OW  265   1.171   0.933   0.643  0.2451  0.5968 -0.4747
   89SOL    HW1  266   1.115   0.846   0.658 -0.8493 -0.3395 -0.1776
   89SOL    HW2  267   1.149   0.985   0.556  1.3760  0.2740  3.3336
   90SOL     OW  268   3.107   1.524   2.272  0.2067 -0.1912 -0.1055
   90SOL    HW1  269   3.071   1.605   2.227  1.0745 -2.5965  0.7032
   90SOL    HW2  270   0.052   1.551   2.353  0.4388 -0.9720 -0.8489
   91SOL     OW  271   1.761   0.731   0.737 -0.7604 -0.4990  0.8125
   91SOL    HW1  272   1.693   0.661   0.703 -1.0539 -0.8714 -0.1035
   91SOL    HW2  273   1.712   0.784   0.806  0.2257 -2.0940 -0.9307
   92SOL     OW  274   2.391   1.515   1.115 -0.4681 -0.0011 -0.5934
   92SOL    HW1  275   2.485   1.513   1.076  1.0571  1.4735  0.8129
   92SOL    HW2  276   2.379   1.424   1.157 -0.8662 -1.9755  0.4487
   93SOL     OW  277   0.123   1.376   2.709  0.0460  0.7652  0.1679
   93SOL    HW1  278   0.146   1.445   2.781  1.7307  1.4928  1.9998
   93SOL    HW2  279   0.200   1.371   2.637  2.8954 -0.0022 -2.0620
   94SOL     OW  280   1.926   2.311   2.273  0.6933  0.4426  0.0214
   94SOL    HW1  281   1.838   2.302   2.220 -0.5566  2.1178 -0.8230
   94SOL    HW2  282   1.977   2.393   2.247  0.8222 -2.7572  0.0516
   95SOL     OW  283   0.311   0.420   1.179  0.1372  0.6571  0.4267
   95SOL    HW1  284   0.367   0.361   1.118 -1.8323 -0.6816  1.8733
   95SOL    HW2  285   0.212   0.397   1.178 -2.0750  1.0248  1.3026
   96SOL     OW  286   2.919   2.879   1.226 -0.1443  0.0906  0.2840
   96SOL    HW1  287   2.947   2.902   1.128 -2.6748  2.0692 -0.6071
   96SOL    HW2  288   2.869   2.787   1.226 -0.5794 -0.8224 -3.8467
   97SOL     OW  289   2.340   0.893   1.323 -0.1155  0.5123  0.3717
   97SOL    HW1  290   2.394   0.974   1.346 -1.0570 -1.9257  2.1883
   97SOL    HW2  291   2.285   0.869   1.409 -1.3055 -0.0401  2.3684
   98SOL     OW  292   2.117   2.668   1.594  0.1337  0.1389  0.1441
   98SOL    HW1  293   2.042   2.615   1.643 -1.0929  2.1425  3.8058
   98SOL    HW2  294   2.087   2.753   1.543 -3.6525  1.7949 -0.5582
   99SOL     OW  295   0.465   2.869   1.356  0.3928 -0.4794  0.2299
   99SOL    HW1  296   0.441   2.919   1.442 -0.3210  0.7189 -0.0361
   99SOL    HW2  297   0.559   2.892   1.327  1.6446 -2.7508  0.3767
  100SOL     OW  298   1.983   0.133   2.546  0.3421 -0.1597 -0.1901
  100SOL    HW1  299   1.969   0.186   2.461 -1.3532 -1.5576 -0.5991
  100SOL    HW2  300   1.951   0.186   2.628  2.2993 -1.2097  3.6135
  101SOL     OW  301   2.925   0.265   2.303 -0.0991  0.1088  0.9112
  101SOL    HW1  302   2.979   0.226   2.223 -0.2491  0.2050  0.8281
  101SOL    HW2  303   2.928   0.367   2.286  1.5072 -2.8750 -2.5548
  102SOL     OW  304   0.469   0.565   1.614 -0.6536 -0.4841 -0.1088
  102SOL    HW1  305   0.500   0.492   1.547 -0.5722 -0.8369  1.2139
  102SOL    HW2  306   0.454   0.652   1.567  1.6253  1.0991 -0.1125
  103SOL     OW  307   1.005   0.508   2.764  0.1855  0.1766 -0.0791
  103SOL    HW1  308   1.051   0.497   2.672  1.9156 -1.0298  0.9453
  103SOL    HW2  309   1.052   0.589   2.804 -1.5188  2.9313 -1.9137
  104SOL     OW  310   0.301   0.562   2.089 -0.0214 -0.0077 -0.2597
  104SOL    HW1  311   0.230   0.547   2.164  0.4252 -1.1161  0.6127
  104SOL    HW2  312   0.295   0.657   2.051  0.4114  1.8546 -0.5680
  105SOL     OW  313   2.616   2.140   1.312 -0.3511  0.4136 -0.0158
  105SOL    HW1  314   2.576   2.217   1.369 -2.4356  1.2213 -1.2639
  105SOL    HW2  315   2.555   2.123   1.230 -2.1492  0.3903 -4.2188
  106SOL     OW  316   1.600   0.182   0.526 -0.2127  0.3161  0.1060
  106SOL    HW1  317   1.666   0.232   0.576 -1.8827 -3.4834 -0.5956
  106SOL    HW2  318   1.519   0.235   0.492  0.8691 -0.0481 -2.9602
  107SOL     OW  319   2.039   2.161   0.860  0.5311  0.0146  0.0312
  107SOL    HW1  320   1.971   2.147   0.787 -3.1002  2.6286  1.6188
  107SOL    HW2  321   2.015   2.248   0.916 -1.5736  0.1529  1.7587
  108SOL     OW  322   0.096   2.328   1.468  0.5628 -0.0157  0.0277
  108SOL    HW1  323   0.000   2.295   1.474 -0.9111 -1.8115 -0.6192
  108SOL    HW2  324   0.136   2.309   1.380 -0.2843  1.5122  1.0322
  109SOL     OW  325   2.046   2.561   0.835  0.4454  0.3545  0.0643
  109SOL    HW1  326   1.976   2.633   0.829 -1.0008 -0.6237  0.7639
  109SOL    HW2  327   1.995   2.482   0.881  0.2083 -1.0162  1.0708
  110SOL     OW  328   1.191   1.787   1.828  0.0588  0.5145 -0.5383
  110SOL    HW1  329   1.130   1.705   1.821 -0.4228  0.1733 -0.9246
  110SOL    HW2  330   1.157   1.872   1.780  1.0411  1.2314  0.8192
  111SOL     OW  331   1.872   2.443   1.920  0.2706  0.0253 -0.4580
  111SOL    HW1  332   1.829   2.465   1.832  1.7337 -0.3929  2.0713
  111SOL    HW2  333   1.917   2.525   1.956  0.1072 -0.1531 -0.9507
  112SOL     OW  334   1.691   2.190   2.914  0.2148  0.3209  0.2361
  112SOL    HW1  335   1.600   2.230   2.913  1.4951 -0.3450 -0.1255
  112SOL    HW2  336   1.736   2.193   3.006  1.5603 -0.6420 -0.2813
  113SOL     OW  337   1.886   1.976   1.660 -0.8857 -0.2537 -0.2357
  113SOL    HW1  338   1.944   1.892   1.642  0.7213  0.8449 -0.1588
  113SOL    HW2  339   1.791   1.957   1.677  3.7069 -0.0147 -0.4906
  114SOL     OW  340   0.014   1.397   1.422  0.4290  0.1761  0.4691
  114SOL    HW1  341   0.050   1.345   1.345 -0.1980 -0.3541 -2.3566
  114SOL    HW2  342   3.023   1.376   1.441 -4.1922  0.4677 -1.7972
  115SOL     OW  343   0.747   0.729   0.257 -0.2245 -0.1904  0.1584
  115SOL    HW1  344   0.735   0.630   0.255  1.7383 -0.8502 -2.2397
  115SOL    HW2  345   0.664   0.783   0.271  1.0588 -1.0441 -1.3107
  116SOL     OW  346   2.520   1.514   2.537  0.1048 -0.3866  0.0398
  116SOL    HW1  347   2.481   1.487   2.448  0.3609  3.3897 -0.8489
  116SOL    HW2  348   2.609   1.472   2.567 -0.6681 -0.4164  2.4874
  117SOL     OW  349   2.849   2.527   0.235  0.0570 -0.1923 -0.4056
  117SOL    HW1  350   2.836   2.626   0.240  0.7446 -0.5118  1.6427
  117SOL    HW2  351   2.867   2.479   0.328  1.7525 -0.8610  2.3756
  118SOL     OW  352   0.518   1.988   2.723 -0.0615 -0.3850  0.5447
  118SOL    HW1  353   0.522   1.987   2.619 -1.0114 -1.8378 -0.6721
  118SOL    HW2  354   0.418   2.000   2.745  1.9089  0.5461  0.0549
  119SOL     OW  355   0.760   2.230   0.751  0.0465 -0.6289 -0.4469
  119SOL    HW1  356   0.668   2.199   0.727 -0.4527  1.2836  2.3500
  119SOL    HW2  357   0.825   2.150   0.752 -1.1644 -1.6932  0.0958
  120SOL     OW  358   1.541   0.409   0.264 -0.4676  0.2318 -0.1028
  120SOL    HW1  359   1.615   0.365   0.204  3.1324 -2.7890 -0.2076
  120SOL    HW2  360   1.475   0.453   0.198  1.5560  0.1655  0.2403
  121SOL     OW  361   1.265   2.240   0.900  0.0268 -0.4430 -0.2744
  121SOL    HW1  362   1.177   2.252   0.950  0.2679  1.2729 -1.9883
  121SOL    HW2  363   1.246   2.205   0.808  0.7092  0.8995  2.9374
  122SOL     OW  364   2.839   2.314   1.823  0.1603 -0.1801 -0.0774
  122SOL    HW1  365   2.841   2.349   1.918  0.3339  2.0513 -0.7819
  122SOL    HW2  366   2.833   2.211   1.823 -1.0474  1.0908 -0.5140
  123SOL     OW  367   0.761   1.726   0.735 -0.0278  0.7180 -0.0504
  123SOL    HW1  368   0.729   1.714   0.830  0.6988 -0.4931 -0.6879
  123SOL    HW2  369   0.710   1.795   0.683  2.3317 -2.1412  1.0632
  124SOL     OW  370   0.093   0.408   0.174 -0.0944 -0.0269  0.4760
  124SOL    HW1  371   0.011   0.452   0.140  0.2643 -0.9617  3.0190
  124SOL    HW2  372   0.126   0.355   0.097 -1.4902  0.1811  1.9656
  125SOL     OW  373   0.400   0.203   3.082 -0.3874  0.4067 -0.3175
  125SOL    HW1  374   0.337   0.265   3.034  0.6740  0.3197 -1.9946
  125SOL    HW2  375   0.428   0.241   0.064 -0.7984 -2.2566 -1.0859
  126SOL     OW  376   3.063   1.662   0.435 -0.6527 -0.4180  1.2033
  126SOL    HW1  377   0.030   1.683   0.369 -1.3132  0.0907 -2.7577
  126SOL    HW2  378   3.003   1.742   0.441  1.8873  0.0995  1.0196
  127SOL     OW  379   1.107   2.425   1.717 -0.1217  0.0822 -0.2740
  127SOL    HW1  380   1.066   2.424   1.809  2.0618 -2.1385  0.8516
  127SOL    HW2  381   1.163   2.342   1.703 -0.6319  2.4998 -0.6053
  128SOL     OW  382   1.283   1.510   0.312  0.1323  0.6834 -0.2590
  128SOL    HW1  383   1.320   1.531   0.221 -3.1072 -1.1156  0.2975
  128SOL    HW2  384   1.222   1.427   0.314 -1.5202 -0.7146 -0.8594
  129SOL     OW  385   1.864   2.232   1.362 -0.6952 -0.1704 -0.4300
  129SOL    HW1  386   1.829   2.143   1.317  0.4370 -1.0912  1.7162
  129SOL    HW2  387   1.795   2.308   1.366 -0.5230 -1.0953  3.6248
  130SOL     OW  388   2.081   2.101   1.493  0.0573  0.0302 -0.1217
  130SOL    HW1  389   2.040   2.061   1.573  3.9553  2.7332 -1.5794
  130SOL    HW2  390   2.016   2.165   1.443 -1.7318  2.3636 -0.2248
  131SOL     OW  391   2.799   2.656   2.527 -0.1799 -0.0359 -0.0091
  131SOL    HW1  392   2.719   2.716   2.540  1.8674 -0.7082 -0.4733
  131SOL    HW2  393   2.856   2.652   2.613 -0.9991 -1.3869 -0.7639
  132SOL     OW  394   2.956   2.142   0.429  0.5226  0.1372 -0.0401
  132SOL    HW1  395   3.038   2.129   0.491 -0.0373 -0.5894  0.0068
  132SOL    HW2  396   2.921   2.235   0.431  0.2031 -2.7013  0.3902
  133SOL     OW  397   0.564   0.296   1.749  0.4305  0.1907 -0.5062
  133SOL    HW1  398   0.626   0.336   1.818 -1.9920  2.5102 -0.4728
  133SOL    HW2  399   0.601   0.326   1.659  0.3697 -1.2894  2.4762
  134SOL     OW  400   2.726   1.908   0.214  0.3990 -0.4436 -0.0112
  134SOL    HW1  401   2.825   1.897   0.183  0.2896  0.3348  1.4460
  134SOL    HW2  402   2.687   1.998   0.192 -0.5766  1.4280  1.0921
  135SOL     OW  403   1.641   1.250   2.632 -0.2752 -0.0489  0.2806
  135SOL    HW1  404   1.737   1.244   2.661 -2.2157  1.7351  0.8654
  135SOL    HW2  405   1.584   1.174   2.680 -0.6713 -1.4472  0.9596
  136SOL     OW  406   2.644   1.877   1.174  0.4110 -0.3561  0.2463
  136SOL    HW1  407   2.721   1.885   1.243 -3.1687  1.8060  3.6342
  136SOL    HW2  408   2.654   1.797   1.111  0.0439 -0.3952  0.1427
  137SOL     OW  409   2.774   1.493   0.828 -0.4115  0.9456  0.4336
  137SOL    HW1  410   2.707   1.460   0.755 -3.1909  1.9429  3.1414
  137SOL    HW2  411   2.837   1.560   0.784 -0.7158 -0.8493 -1.9244
  138SOL     OW  412   2.816   0.242   0.813  0.0025  0.3004 -0.0193
  138SOL    HW1  413   2.793   0.155   0.860  2.0815  0.3586 -1.3650
  138SOL    HW2  414   2.777   0.325   0.861 -0.0799  0.8782  0.0362
  139SOL     OW  415   0.191   2.671   2.932 -0.5032  0.2444 -0.1194
  139SOL    HW1  416   0.118   2.603   2.917 -2.9566  0.6896 -0.9056
  139SOL    HW2  417   0.189   2.739   2.857 -0.0153 -0.1560  1.1407
  140SOL     OW  418   0.788   1.840   1.768  0.1304 -0.0990 -0.2566
  140SOL    HW1  419   0.817   1.794   1.854  0.4825 -1.5725 -0.8778
  140SOL    HW2  420   0.834   1.926   1.749 -1.6481  0.8346 -1.6314
  141SOL     OW  421   1.360   1.807   0.771  0.4624 -0.0481 -0.1278
  141SOL    HW1  422   1.292   1.759   0.709 -1.0933  1.0472  0.2561
  141SOL    HW2  423   1.403   1.739   0.835 -1.9064 -0.3375 -0.0615
  142SOL     OW  424   1.161   0.764   0.928 -0.0281  0.1824  0.1791
  142SOL    HW1  425   1.101   0.747   0.847  2.1389  0.5731 -0.8244
  142SOL    HW2  426   1.115   0.832   0.984  0.8042  2.1056  2.7325
  143SOL     OW  427   0.739   1.352   2.631  0.1097  0.3533 -0.2982
  143SOL    HW1  428   0.777   1.267   2.675  0.8698 -3.4301 -0.2713
  143SOL    HW2  429   0.697   1.333   2.540 -2.0011  0.8096  0.1537
  144SOL     OW  430   2.227   3.018   0.952  0.6394 -0.4378 -0.1994
  144SOL    HW1  431   2.133   3.002   0.921  2.1482 -0.8444 -0.2515
  144SOL    HW2  432   2.240   2.980   1.046  0.0702 -0.2518  2.4149
  145SOL     OW  433   2.494   0.683   2.749 -0.2681 -0.3650 -0.2323
  145SOL    HW1  434   2.471   0.689   2.849 -2.7080  0.1376  0.4412
  145SOL    HW2  435   2.567   0.610   2.737  1.6044  0.5634  0.5275
  146SOL     OW  436   2.997   2.752   0.775  0.8173  0.2428 -0.0424
  146SOL    HW1  437   3.002   2.647   0.761  0.3795 -0.6785 -1.8854
  146SOL    HW2  438   2.950   2.778   0.692 -0.0829 -0.7438  1.8306
  147SOL     OW  439   1.224   1.004   2.668 -0.0135 -0.3150  0.1836
  147SOL    HW1  440   1.173   1.069   2.606 -2.1944  3.3220  2.5430
  147SOL    HW2  441   1.249   0.917   2.619  2.2437  3.2008 -1.2666
  148SOL     OW  442   1.398   0.401   2.426 -0.5845 -0.0114 -0.3220
  148SOL    HW1  443   1.410   0.408   2.325 -1.4495  0.6933 -0.6456
  148SOL    HW2  444   1.379   0.305   2.442  0.1963  2.5612 -1.6005
  149SOL     OW  445   2.024   0.075   2.103 -0.0077  0.0328  0.5138
  149SOL    HW1  446   2.129   0.065   2.112  1.1202 -2.2413 -0.5153
  149SOL    HW2  447   1.978   0.107   2.188 -0.3005 -1.2321  0.4007
  150SOL     OW  448   2.360   2.549   2.968 -0.5270  1.1864 -0.2902
  150SOL    HW1  449   2.331   2.640   2.992 -0.5340 -0.5344  4.1723
  150SOL    HW2  450   2.456   2.533   3.007  0.5663  1.8382 -1.2012
  151SOL     OW  451   0.477   1.370   2.954 -0.3284 -0.5511 -0.1478
  151SOL    HW1  452   0.542   1.378   3.034  1.9398  2.2150  3.5176
  151SOL    HW2  453   0.515   1.420   2.872 -1.1761  0.0560  2.5969
  152SOL     OW  454   0.182   0.091   1.502 -0.5251 -0.2915  0.8849
  152SOL    HW1  455   0.217   0.070   1.599  2.2653 -0.1117  1.5913
  152SOL    HW2  456   0.187   0.189   1.491  1.4980 -1.3301 -1.6424
  153SOL     OW  457   2.451   2.978   1.573  0.1378  0.3435  0.0817
  153SOL    HW1  458   2.496   2.892   1.548  0.1197 -0.6760 -2.9897
  153SOL    HW2  459   2.411   3.022   1.487 -0.8737 -0.0089 -3.0607
  154SOL     OW  460   2.272   0.525   2.387  0.4064  0.3274 -0.3705
  154SOL    HW1  461   2.281   0.555   2.483  4.1402  0.2031  0.1172
  154SOL    HW2  462   2.300   0.428   2.381 -1.1077  5.7850  2.2038
  155SOL     OW  463   3.062   1.400   0.545  0.6012 -0.1640  0.4277
  155SOL    HW1  464   0.037   1.343   0.530 -3.2605  0.7016 -2.4173
  155SOL    HW2  465   3.062   1.479   0.481  1.5166  0.6153  0.1494
  156SOL     OW  466   2.948   1.597   0.039 -0.0273  0.1668  0.1945
  156SOL    HW1  467   2.902   1.664   3.089 -3.0993  1.7880 -0.6223
  156SOL    HW2  468   2.893   1.577   0.124  0.7745  2.4000  0.1001
  157SOL     OW  469   0.613   0.196   0.622  0.2187  0.0123 -0.1996
  157SOL    HW1  470   0.562   0.174   0.707 -0.1595 -0.1848  0.6190
  157SOL    HW2  471   0.696   0.137   0.618 -0.1917  0.0074 -1.0612
  158SOL     OW  472   1.866   0.950   1.184 -0.0914 -0.1466  0.2347
  158SOL    HW1  473   1.884   0.940   1.281 -0.3145  1.3758 -0.7089
  158SOL    HW2  474   1.873   1.050   1.160 -3.3608  1.6604 -0.8677
  159SOL     OW  475   0.197   0.140   0.715  0.2663 -0.1694 -0.1546
  159SOL    HW1  476   0.119   0.206   0.725 -0.4170 -0.1359  0.3109
  159SOL    HW2  477   0.192   0.086   0.627 -1.4822 -0.1022 -1.6878
  160SOL     OW  478   2.270   2.349   1.616  0.0088 -0.3418  0.9221
  160SOL    HW1  479   2.287   2.322   1.710  0.6531  2.0764 -2.5864
  160SOL    HW2  480   2.216   2.273   1.573 -0.3565 -0.0506  1.1025
  161SOL     OW  481   3.020   0.800   2.617 -0.5040  0.4429 -0.1141
  161SOL    HW1  482   0.008   0.766   2.622  2.1566  1.3725  2.3480
  161SOL    HW2  483   3.025   0.900   2.630  0.0577 -0.8160 -1.0021
  162SOL     OW  484   0.701   2.908   1.601  0.3062 -0.0577  0.4967
  162SOL    HW1  485   0.618   2.955   1.632  1.4555 -2.9091 -1.4254
  162SOL    HW2  486   0.713   2.918   1.499 -0.4828  1.8221 -0.5085
  163SOL     OW  487   2.819   0.110   2.496 -0.2336  0.0251  0.3677
  163SOL    HW1  488   2.827   0.006   2.493 -2.4475 -0.8498  0.1419
  163SOL    HW2  489   2.859   0.154   2.413 -0.0738 -1.6334 -0.3984
  164SOL     OW  490   2.017   1.831   0.286  0.2235  0.5819 -0.1651
  164SOL    HW1  491   1.949   1.906   0.263 -0.4362  1.0983 -2.3011
  164SOL    HW2  492   2.087   1.820   0.205  1.2423  0.7700 -0.2370
  165SOL     OW  493   0.175   0.390   1.523 -0.3176  0.0445  0.2662
  165SOL    HW1  494   0.153   0.388   1.622  0.3957 -0.3351  0.8048
  165SOL    HW2  495   0.277   0.398   1.500  3.5221 -1.0282 -1.6332
  166SOL     OW  496   1.949   0.889   0.361  0.0719  0.4787  0.2243
  166SOL    HW1  497   1.906   0.978   0.340 -0.0604  2.5622 -0.6137
  166SOL    HW2  498   1.986   0.892   0.456 -4.9346 -0.2989  0.2355
  167SOL     OW  499   2.447   0.967   2.974 -0.2331  0.6324  0.1474
  167SOL    HW1  500   2.357   0.975   3.019  0.3922  1.4649  0.0713
  167SOL    HW2  501   2.475   0.866   2.966  0.2759  0.0562  0.3284
  168SOL     OW  502   1.932   0.395   2.979 -0.5643  0.0443 -0.2716
  168SOL    HW1  503   1.956   0.376   3.074 -4.5843  0.8711 -3.8569
  168SOL    HW2  504   1.871   0.477   2.974 -1.2667 -0.5037  2.1971
  169SOL     OW  505   0.212   1.624   0.845 -0.0529 -0.5340  0.1642
  169SOL    HW1  506   0.187   1.661   0.936 -0.4524  2.0403 -1.0944
  169SOL    HW2  507   0.151   1.551   0.815 -0.3453  2.7173 -1.9385
  170SOL     OW  508   2.872   1.098   0.878  0.1763  0.6380 -0.0812
  170SOL    HW1  509   2.801   1.145   0.820  0.4385  1.3986 -0.4183
  170SOL    HW2  510   2.865   0.992   0.871 -1.0747  0.4622 -2.6580
  171SOL     OW  511   2.381   1.728   1.961  0.3648 -0.0685  0.4242
  171SOL    HW1  512   2.358   1.711   1.866 -0.3427  0.4321 -1.7688
  171SOL    HW2  513   2.388   1.828   1.981 -0.8239 -0.4238 -2.2109
  172SOL     OW  514   0.519   1.824   1.742 -0.0913 -0.3550  0.3898
  172SOL    HW1  515   0.491   1.917   1.703  0.9697 -0.0664 -1.3678
  172SOL    HW2  516   0.619   1.823   1.743 -0.7145 -0.4597 -2.3657
  173SOL     OW  517   1.693   1.559   2.889 -0.5242 -0.2107  0.1027
  173SOL    HW1  518   1.627   1.529   2.814 -2.4270 -1.3827 -1.2792
  173SOL    HW2  519   1.700   1.658   2.883 -1.9803 -2.8939  0.8893
  174SOL     OW  520   1.401   0.796   2.887 -0.4348 -0.4822  0.1187
  174SOL    HW1  521   1.455   0.712   2.904 -0.3174 -0.2539 -0.2541
  174SOL    HW2  522   1.362   0.794   2.795 -2.1718 -0.4604  2.2529
  175SOL     OW  523   1.220   1.488   1.233 -0.4869 -0.3121  0.4131
  175SOL    HW1  524   1.221   1.501   1.335  0.2232  0.2050 -0.5084
  175SOL    HW2  525   1.142   1.428   1.206 -1.0078  1.4767 -0.4372
  176SOL     OW  526   1.371   0.312   0.463  0.3562 -0.0730 -0.6256
  176SOL    HW1  527   1.280   0.336   0.421 -0.7441 -2.0207  2.2934
  176SOL    HW2  528   1.447   0.348   0.403 -0.1200 -1.5194  0.0253
  177SOL     OW  529   0.544   0.895   0.285  0.0698 -0.0185 -0.0078
  177SOL    HW1  530   0.524   0.887   0.182  1.5158 -0.3912 -2.7502
  177SOL    HW2  531   0.509   0.986   0.310  1.9374  0.0778 -0.6108
  178SOL     OW  532   2.728   2.054   2.330 -0.5307 -0.2328  0.6624
  178SOL    HW1  533   2.762   2.106   2.410  0.9003 -0.4905  1.8000
  178SOL    HW2  534   2.662   1.983   2.356  0.4149  2.9808 -0.0279
  179SOL     OW  535   2.866   2.964   2.557  0.3790  0.1178  0.3737
  179SOL    HW1  536   2.839   2.908   2.638  3.0860  0.7373 -0.2729
  179SOL    HW2  537   2.924   2.899   2.497  2.1412 -2.1014 -2.0074
  180SOL     OW  538   2.167   0.411   1.249 -0.2713  0.2017 -0.4182
  180SOL    HW1  539   2.149   0.358   1.165  0.9439 -0.5041  0.4409
  180SOL    HW2  540   2.212   0.500   1.224  1.1699 -0.8548 -0.1768
  181SOL     OW  541   2.360   0.859   2.532 -0.4653 -0.0117 -0.3115
  181SOL    HW1  542   2.373   0.808   2.621 -1.8396  0.4188  1.4343
  181SOL    HW2  543   2.446   0.901   2.501 -1.3444  0.2749  0.5412
  182SOL     OW  544   2.818   2.387   2.091  0.2522  0.2735  0.0736
  182SOL    HW1  545   2.916   2.363   2.112  1.8436 -1.1202  2.6335
  182SOL    HW2  546   2.766   2.423   2.172 -1.8337 -0.4767  0.1736
  183SOL     OW  547   1.868   0.654   1.720  0.3127 -0.4466 -0.2938
  183SOL    HW1  548   1.947   0.616   1.674 -0.7098 -4.6270  2.0020
  183SOL    HW2  549   1.807   0.705   1.655 -3.3360 -0.5027  0.4168
  184SOL     OW  550   0.127   1.669   1.106  0.0360  0.3916  0.5920
  184SOL    HW1  551   0.129   1.569   1.122  2.0694  0.4119 -0.5972
  184SOL    HW2  552   0.038   1.716   1.137  0.3828 -0.1480 -0.7410
  185SOL     OW  553   2.863   0.061   1.019 -0.1821 -0.3159  0.5467
  185SOL    HW1  554   2.898   3.075   0.991  1.3417 -3.7667  0.0043
  185SOL    HW2  555   2.919   0.100   1.095 -1.1495 -2.1072 -0.0959
  186SOL     OW  556   2.319   2.598   2.699  0.2424 -0.2184  0.3618
  186SOL    HW1  557   2.337   2.576   2.796 -0.9168  1.5307 -1.0680
  186SOL    HW2  558   2.223   2.564   2.678 -2.7933 -0.7670 -0.7072
  187SOL     OW  559   0.338   1.455   0.439 -0.1400 -0.2272 -0.2870
  187SOL    HW1  560   0.291   1.368   0.452 -0.7522  1.4372  1.4345
  187SOL    HW2  561   0.338   1.505   0.531 -1.4670  0.9940 -1.3967
  188SOL     OW  562   1.863   1.214   1.139  0.2432 -0.6355 -0.3240
  188SOL    HW1  563   1.946   1.230   1.191 -1.2565  0.5006 -1.9023
  188SOL    HW2  564   1.782   1.272   1.172  1.3485  1.8356 -0.9736
  189SOL     OW  565   0.149   0.888   2.316 -0.5932 -0.1542  0.0651
  189SOL    HW1  566   0.198   0.954   2.383  2.2606  2.1905  2.0964
  189SOL    HW2  567   0.054   0.879   2.338  0.2488  0.6415  1.8013
  190SOL     OW  568   2.218   0.471   2.092 -0.4778 -0.4911 -0.4232
  190SOL    HW1  569   2.194   0.518   2.181  0.2164  0.7870  0.5772
  190SOL    HW2  570   2.136   0.430   2.052  0.6247  2.8266  1.2555
  191SOL     OW  571   0.932   0.192   2.167 -0.0246  0.0100  0.0671
  191SOL    HW1  572   0.907   0.242   2.256  1.0492  1.2858 -0.3716
  191SOL    HW2  573   0.929   0.089   2.176  0.8106 -3.6198  0.6543
  192SOL     OW  574   1.116   2.026   1.671  0.0947  0.9703  0.1954
  192SOL    HW1  575   1.164   1.988   1.586 -0.4239 -1.5108 -2.2428
  192SOL    HW2  576   1.025   2.061   1.649  1.4489 -0.0679 -0.5920
  193SOL     OW  577   1.322   0.105   0.955 -0.2513 -0.5612  0.0974
  193SOL    HW1  578   1.267   0.028   0.985 -0.5292  1.2845  1.1519
  193SOL    HW2  579   1.305   0.130   0.857  0.0026  3.3257 -2.0438
  194SOL     OW  580   0.875   2.115   1.617  0.3953 -0.0895  0.3202
  194SOL    HW1  581   0.883   2.123   1.517 -1.4365 -0.1925  0.6632
  194SOL    HW2  582   0.813   2.190   1.656 -0.9719  2.1373  2.0702
  195SOL     OW  583   1.515   0.593   0.671 -0.1618  0.4327 -0.1251
  195SOL    HW1  584   1.522   0.539   0.757  1.9091 -0.7284 -1.5912
  195SOL    HW2  585   1.466   0.677   0.688 -1.1747 -1.7006 -2.9712
  196SOL     OW  586   0.863   1.496   2.311  0.2218 -0.3127 -0.2468
  196SOL    HW1  587   0.955   1.536   2.302  0.9110  1.0590 -3.5987
  196SOL    HW2  588   0.859   1.404   2.265  0.6691 -0.5175  0.4098
  197SOL     OW  589   0.638   0.569   1.841 -0.3585 -0.2904  0.0814
  197SOL    HW1  590   0.707   0.642   1.827 -1.2748 -0.4831 -0.5530
  197SOL    HW2  591   0.568   0.564   1.765 -1.2656 -0.6039  1.4307
  198SOL     OW  592   0.668   0.579   0.777  0.3049  0.2123 -0.0022
  198SOL    HW1  593   0.670   0.680   0.786  1.3849 -2.3718  0.7583
  198SOL    HW2  594   0.673   0.550   0.676 -0.0892  3.1597 -0.0506
  199SOL     OW  595   0.184   2.489   2.014  0.3093 -0.3383 -0.0038
  199SOL    HW1  596   0.121   2.465   1.938  2.5141 -4.1630  0.6527
  199SOL    HW2  597   0.145   2.574   2.058 -0.3674  2.1878 -3.3087
  200SOL     OW  598   1.676   1.382   2.362 -0.1116  0.1005 -0.1020
  200SOL    HW1  599   1.752   1.428   2.413 -1.0553  0.5259  1.0129
  200SOL    HW2  600   1.653   1.292   2.404 -2.9552 -2.3986  1.3444
  201SOL     OW  601   0.637   2.269   1.935  0.0533  0.8135  0.2688
  201SOL    HW1  602   0.655   2.273   1.832  0.1957 -0.4756 -2.1295
  201SOL    HW2  603   0.597   2.180   1.961 -0.8660 -0.4881  2.3329
  202SOL     OW  604   1.259   2.944   3.002 -0.0903 -0.1031 -0.0138
  202SOL    HW1  605   1.251   2.865   2.937 -3.8118 -0.2369  0.8382
  202SOL    HW2  606   1.182   3.007   2.995 -0.9517  0.5499 -0.4250
  203SOL     OW  607   1.611   0.273   2.233 -0.2337  0.3013  0.0968
  203SOL    HW1  608   1.564   0.264   2.321  0.1855 -0.2801  0.0092
  203SOL    HW2  609   1.634   0.177   2.205 -1.4472 -3.7485  1.0940
  204SOL     OW  610   0.641   1.532   2.067 -0.0773 -0.2901  0.2983
  204SOL    HW1  611   0.609   1.524   2.162  0.5257  2.6726  1.6400
  204SOL    HW2  612   0.655   1.441   2.020 -0.8998 -0.4070 -0.9782
  205SOL     OW  613   2.044   1.086   2.586  0.1247 -0.4074  0.3483
  205SOL    HW1  614   2.054   0.999   2.531  2.1586 -1.1109 -4.3288
  205SOL    HW2  615   2.137   1.128   2.594 -0.1667 -0.1497 -0.9526
  206SOL     OW  616   0.072   1.731   2.730  0.5097 -0.4199  0.0167
  206SOL    HW1  617   0.061   1.809   2.788 -0.5143 -1.4292 -2.2821
  206SOL    HW2  618   0.137   1.665   2.765 -0.7342  2.2326 -2.5670
  207SOL     OW  619   1.070   2.873   1.732  0.2349 -0.6306  0.4207
  207SOL    HW1  620   0.970   2.881   1.762 -0.8934  0.9708  0.5635
  207SOL    HW2  621   1.105   2.964   1.711  2.4230  0.9769 -1.5199
  208SOL     OW  622   0.687   2.420   1.391 -0.1228 -0.6519  0.2235
  208SOL    HW1  623   0.615   2.493   1.412 -1.5275  3.9620  0.7748
  208SOL    HW2  624   0.689   2.385   1.293 -1.8489  0.5774 -0.5390
  209SOL     OW  625   1.422   2.858   0.432  0.2057  0.2528  0.0737
  209SOL    HW1  626   1.353   2.917   0.479 -1.7536  0.6365  2.4745
  209SOL    HW2  627   1.458   2.908   0.352 -2.7368 -0.8620  1.5667
  210SOL     OW  628   2.890   1.567   1.185 -0.5395 -0.5156 -0.5462
  210SOL    HW1  629   2.918   1.661   1.150  1.0970  1.8916  1.7879
  210SOL    HW2  630   2.925   1.494   1.119  1.4973 -0.5569 -1.0792
  211SOL     OW  631   0.874   0.859   2.056 -0.9549 -0.7709 -0.2354
  211SOL    HW1  632   0.859   0.838   1.960  4.2054  0.1304  1.6206
  211SOL    HW2  633   0.860   0.782   2.120  0.0315  0.4505 -0.0787
  212SOL     OW  634   1.406   2.212   1.510  0.6679 -0.0085 -0.3662
  212SOL    HW1  635   1.406   2.270   1.424  0.7856  1.4040 -0.1943
  212SOL    HW2  636   1.467   2.134   1.486 -3.9696  3.1574 -0.9491
  213SOL     OW  637   2.689   0.423   1.720 -0.1268 -0.0776  0.1806
  213SOL    HW1  638   2.729   0.511   1.683 -0.3335 -1.3592 -1.2814
  213SOL    HW2  639   2.609   0.395   1.664 -1.4845  0.7781  1.0261
  214SOL     OW  640   1.064   2.363   2.055 -1.3422  0.7474 -0.0330
  214SOL    HW1  641   1.110   2.278   2.080 -1.8636 -1.0050 -1.1274
  214SOL    HW2  642   1.132   2.438   2.057  0.2503 -1.2597 -0.3094
  215SOL     OW  643   2.796   1.957   1.372 -0.0135 -0.0800 -0.1698
  215SOL    HW1  644   2.714   2.020   1.359  0.9331  2.9518  0.4436
  215SOL    HW2  645   2.840   1.981   1.461  1.1993 -0.9032 -2.5263
  216SOL     OW  646   0.124   0.872   1.655 -0.6686  0.4181 -0.2537
  216SOL    HW1  647   0.024   0.850   1.665 -1.4743 -0.2239  1.7528
  216SOL    HW2  648   0.175   0.806   1.716 -0.1916 -1.4201  1.1277
  217SOL     OW  649   2.783   0.375   1.369  0.3509  0.3672 -0.0257
  217SOL    HW1  650   2.870   0.378   1.415 -1.0551  1.7284 -0.0246
  217SOL    HW2  651   2.791   0.397   1.270  1.1814  1.2543 -0.2253
  218SOL     OW  652   1.312   2.088   1.129  0.0297 -0.0431  0.6895
  218SOL    HW1  653   1.304   2.112   1.026 -0.0776  0.5888 -4.7661
  218SOL    HW2  654   1.242   2.111   1.198  1.4600 -1.2066 -0.9053
  219SOL     OW  655   1.451   2.397   0.322 -0.0047  0.5394  0.9958
  219SOL    HW1  656   1.435   2.462   0.397  1.9759 -2.6822 -0.9784
  219SOL    HW2  657   1.470   2.304   0.366 -0.5949 -0.6192  0.8352
  220SOL     OW  658   1.921   2.384   0.391  0.2427 -0.7544 -0.4027
  220SOL    HW1  659   1.863   2.321   0.442  1.9574  2.8733 -1.1856
  220SOL    HW2  660   1.882   2.400   0.295 -2.2959 -0.4430 -1.4572
  221SOL     OW  661   2.936   1.892   0.813  0.7105 -0.0942 -0.0702
  221SOL    HW1  662   2.851   1.950   0.797  1.7582 -0.6951  1.4143
  221SOL    HW2  663   2.919   1.798   0.782 -0.7595  4.0177 -0.4188
  222SOL     OW  664   0.942   2.036   0.764  0.1691  0.5835  0.1662
  222SOL    HW1  665   0.905   2.014   0.857 -0.7965 -1.2832  0.2227
  222SOL    HW2  666   1.033   1.999   0.757 -0.2775  0.6978  1.0612
  223SOL     OW  667   1.126   2.721   2.407 -0.2414 -0.0847  0.1075
  223SOL    HW1  668   1.230   2.728   2.401  1.4345  0.1897  0.8548
  223SOL    HW2  669   1.084   2.726   2.311  1.3121 -1.3367 -1.4751
  224SOL     OW  670   2.581   1.146   1.060 -0.1061  0.2065  0.0938
  224SOL    HW1  671   2.590   1.186   0.966  2.6165  0.6463  0.0860
  224SOL    HW2  672   2.619   1.053   1.056 -1.5515  1.4360 -1.9721
  225SOL     OW  673   2.645   1.594   1.030  0.0403 -0.4069 -0.0604
  225SOL    HW1  674   2.695   1.555   0.944 -1.0316 -2.3986 -2.3955
  225SOL    HW2  675   2.670   1.540   1.112 -0.0672  0.1267 -0.8832
  226SOL     OW  676   1.236   2.777   0.805 -0.5149  0.5124  0.1404
  226SOL    HW1  677   1.171   2.700   0.800  1.4243  3.0668 -3.7600
  226SOL    HW2  678   1.332   2.738   0.786  1.7712 -0.4787 -0.5054
  227SOL     OW  679   1.025   1.306   1.205  0.5355 -0.0473  0.1726
  227SOL    HW1  680   1.033   1.228   1.270  1.8522  2.2860  0.5615
  227SOL    HW2  681   0.986   1.276   1.115 -1.3076  0.1179 -1.5915
  228SOL     OW  682   1.358   0.498   2.170  0.3000  0.1633 -0.2688
  228SOL    HW1  683   1.404   0.530   2.085 -0.8683 -0.5583 -2.2366
  228SOL    HW2  684   1.282   0.431   2.150 -0.6398  0.3726  0.9496
  229SOL     OW  685   2.692   0.879   2.685  0.0379 -0.1002  0.1256
  229SOL    HW1  686   2.737   0.907   2.776  1.1398  1.7780 -0.8304
  229SOL    HW2  687   2.618   0.815   2.700 -0.7685  0.0914  1.1480
  230SOL     OW  688   0.442   1.345   0.784 -0.1219 -0.5737  0.4721
  230SOL    HW1  689   0.521   1.341   0.842 -1.5790  0.1919 -0.8910
  230SOL    HW2  690   0.429   1.446   0.765 -3.8159  0.1624  0.8557
  231SOL     OW  691   2.513   2.992   2.600 -0.2207  0.6612  0.4087
  231SOL    HW1  692   2.556   3.006   2.508 -0.5491  1.4935 -2.3285
  231SOL    HW2  693   2.579   3.020   2.670 -1.7963 -1.0023 -2.8614
  232SOL     OW  694   0.302   2.097   0.145  0.7428  0.4303 -0.0380
  232SOL    HW1  695   0.329   2.147   0.061  0.7508 -1.2031  0.0799
  232SOL    HW2  696   0.383   2.072   0.199 -1.2495  1.0676  0.1868
  233SOL     OW  697   1.584   2.619   2.599  0.0899 -0.0730 -0.4542
  233SOL    HW1  698   1.620   2.530   2.638  0.0241 -0.5659  1.2924
  233SOL    HW2  699   1.577   2.694   2.671 -0.6350  0.7384 -0.1143
  234SOL     OW  700   1.147   1.467   2.011 -0.4474 -0.1090 -0.1060
  234SOL    HW1  701   1.205   1.489   2.091 -0.7658 -1.8134 -1.3000
  234SOL    HW2  702   1.071   1.408   2.044  0.2886 -0.0599 -0.1471
  235SOL     OW  703   0.508   2.031   2.013  0.2836 -0.1092 -0.8391
  235SOL    HW1  704   0.501   1.931   1.998 -2.7681 -0.6729 -1.0605
  235SOL    HW2  705   0.424   2.068   2.054  2.5439  2.2166 -1.3491
  236SOL     OW  706   1.948   2.423   2.910  0.1008  1.0135 -0.0295
  236SOL    HW1  707   1.896   2.360   2.973 -3.6197 -1.3896 -0.4978
  236SOL    HW2  708   2.043   2.385   2.903  1.0244 -2.1330 -0.8593
  237SOL     OW  709   1.503   0.255   1.078  0.1856  0.4479 -0.0201
  237SOL    HW1  710   1.478   0.262   1.174 -2.1258  2.6955 -0.2944
  237SOL    HW2  711   1.453   0.181   1.034 -0.5738  1.3058 -2.1806
  238SOL     OW  712   1.152   0.579   2.515 -0.4632 -0.4384 -0.5907
  238SOL    HW1  713   1.069   0.601   2.459 -3.6644  1.0488  0.7401
  238SOL    HW2  714   1.210   0.506   2.477 -0.3728  1.6367  0.1160
  239SOL     OW  715   0.827   2.924   1.835  0.1958 -0.0208  0.3339
  239SOL    HW1  716   0.781   2.922   1.746  4.3027  1.7921 -1.1859
  239SOL    HW2  717   0.820   3.020   1.874  1.1802  0.2343  0.0992
  240SOL     OW  718   2.363   2.525   0.481 -0.2797  0.4190  0.3397
  240SOL    HW1  719   2.277   2.505   0.530  1.0375  1.6328 -1.4207
  240SOL    HW2  720   2.335   2.545   0.385  1.7412 -0.7917  0.3113
  241SOL     OW  721   1.020   1.565   1.795 -0.1246 -0.3580 -0.7848
  241SOL    HW1  722   0.923   1.537   1.781 -0.7671 -0.8938  1.1801
  241SOL    HW2  723   1.052   1.525   1.882 -2.6948  0.2540 -1.9345
  242SOL     OW  724   0.068   0.473   0.887  0.2068  0.5387 -0.2151
  242SOL    HW1  725   0.023   0.566   0.873  1.4237 -2.0098  0.3868
  242SOL    HW2  726   0.028   0.411   0.819  0.0465  2.6067  0.0376
  243SOL     OW  727   0.629   0.773   1.350  0.2624 -0.8418 -0.2130
  243SOL    HW1  728   0.675   0.860   1.340  0.4787 -0.7494  0.4617
  243SOL    HW2  729   0.534   0.790   1.377  1.9753  2.0017 -0.2738
  244SOL     OW  730   1.368   0.516   0.098 -0.2662  0.0366  0.0611
  244SOL    HW1  731   1.342   0.459   0.020  0.4757 -0.4282  3.3030
  244SOL    HW2  732   1.319   0.601   0.098  2.0431 -1.8031  0.7535
  245SOL     OW  733   2.181   0.332   0.355  0.7869 -0.8790  0.4667
  245SOL    HW1  734   2.129   0.244   0.356 -1.3457 -3.4376  1.5557
  245SOL    HW2  735   2.277   0.311   0.367  0.4193  0.1562  1.0675
  246SOL     OW  736   0.853   0.778   1.777 -0.0519 -0.5111 -0.1574
  246SOL    HW1  737   0.820   0.854   1.719 -0.2583  3.2749 -0.3476
  246SOL    HW2  738   0.925   0.734   1.723  0.0028 -1.2011 -0.8591
  247SOL     OW  739   0.572   0.054   2.117  0.0327  0.1640 -0.0573
  247SOL    HW1  740   0.508   0.130   2.134  1.1319  0.0316  0.1930
  247SOL    HW2  741   0.633   0.073   2.037  0.2551  0.1509 -0.6450
  248SOL     OW  742   0.098   1.579   1.833  0.2265  0.1719  0.4133
  248SOL    HW1  743   0.014   1.632   1.805 -1.8168 -4.4759  0.0059
  248SOL    HW2  744   0.143   1.626   1.917  3.3664 -1.8210  2.4438
  249SOL     OW  745   0.174   3.061   2.772  0.0942  0.0619  0.5149
  249SOL    HW1  746   0.250   3.098   2.829 -1.3926 -0.3340  0.5929
  249SOL    HW2  747   0.206   2.978   2.724  0.9706 -1.3925  1.3344
  250SOL     OW  748   3.049   0.172   3.093  0.2510 -0.5401  0.0818
  250SOL    HW1  749   3.019   0.167   0.081  0.8295  3.3788  0.3683
  250SOL    HW2  750   3.068   0.080   3.053 -1.7814  2.9313 -2.1839
  251SOL     OW  751   0.414   1.323   1.143 -0.3348 -0.1400 -0.0255
  251SOL    HW1  752   0.315   1.329   1.123  0.9330  0.4043  0.6080
  251SOL    HW2  753   0.443   1.408   1.183 -2.1082  0.1045 -0.9275
  252SOL     OW  754   1.668   2.860   1.770  0.5730 -0.4538  0.2694
  252SOL    HW1  755   1.758   2.858   1.722 -2.8693  1.7992 -0.1989
  252SOL    HW2  756   1.670   2.923   1.851  0.9950  2.0113  1.0185
  253SOL     OW  757   2.064   1.973   2.571  0.8062 -0.2206  0.0642
  253SOL    HW1  758   2.123   2.048   2.535 -1.2878  2.0825 -1.0623
  253SOL    HW2  759   1.976   1.964   2.512  0.5667  1.3967 -5.0469
  254SOL     OW  760   0.462   1.729   1.982  0.6184 -0.7383 -0.3285
  254SOL    HW1  761   0.455   1.767   1.892 -3.0575 -2.8030  5.4230
  254SOL    HW2  762   0.520   1.646   1.991  0.2581  0.5624 -0.6308
  255SOL     OW  763   1.127   0.065   1.715  0.2862  0.3566 -0.2955
  255SOL    HW1  764   1.208   0.055   1.775  0.8824  3.5409 -0.9906
  255SOL    HW2  765   1.075   0.148   1.731 -0.5038 -2.4798  0.7270
  256SOL     OW  766   2.466   2.294   0.944  0.2177 -0.4087 -0.1354
  256SOL    HW1  767   2.473   2.205   0.996 -1.2793 -0.2491 -3.7512
  256SOL    HW2  768   2.385   2.347   0.973  1.0419  1.5729 -2.0806
  257SOL     OW  769   0.566   2.286   0.076  0.7110 -0.7463  0.0208
  257SOL    HW1  770   0.499   2.364   0.061 -0.1165  1.0949 -1.4966
  257SOL    HW2  771   0.585   2.267   0.176  3.3247  0.5178  0.9115
  258SOL     OW  772   1.089   2.459   2.482 -0.4473 -0.1229  0.6262
  258SOL    HW1  773   1.013   2.442   2.548  0.2334  1.1689 -0.4456
  258SOL    HW2  774   1.111   2.558   2.486 -1.1722  0.3842 -0.9080
  259SOL     OW  775   1.093   1.779   2.675  0.1009 -0.0231 -0.4815
  259SOL    HW1  776   1.062   1.864   2.632 -0.1089 -0.0819  0.1150
  259SOL    HW2  777   1.037   1.748   2.754 -1.4982 -0.3561  1.1997
  260SOL     OW  778   2.401   1.132   2.142 -0.2893 -0.2294  0.2248
  260SOL    HW1  779   2.316   1.152   2.201 -2.9038  1.1607 -0.4443
  260SOL    HW2  780   2.487   1.144   2.196  1.1097  1.8143  1.6493
  261SOL     OW  781   1.391   0.810   0.776 -0.4134 -0.3218 -0.0172
  261SOL    HW1  782   1.340   0.773   0.857 -0.7630  1.7216  0.0348
  261SOL    HW2  783   1.325   0.862   0.722  1.8468  0.1438  1.3573
  262SOL     OW  784   1.889   2.231   2.535  0.2730 -0.4062  0.0817
  262SOL    HW1  785   1.854   2.136   2.537 -1.6507 -0.6088 -2.2514
  262SOL    HW2  786   1.917   2.255   2.438  0.0997  0.6557 -0.9544
  263SOL     OW  787   0.119   1.681   0.013  0.7109 -0.1010  0.6897
  263SOL    HW1  788   0.016   1.669   0.029 -0.7633  1.8797 -2.2892
  263SOL    HW2  789   0.174   1.650   0.092 -3.0845 -1.8958 -0.6618
  264SOL     OW  790   0.357   1.975   0.849  0.1788  0.0544  0.5858
  264SOL    HW1  791   0.282   1.917   0.808 -2.7734 -0.4272  0.9073
  264SOL    HW2  792   0.387   1.946   0.936 -1.3524  0.7685 -1.1448
  265SOL     OW  793   0.591   1.427   0.311 -0.0455 -0.1938 -0.1695
  265SOL    HW1  794   0.490   1.422   0.331  0.1982  0.9649 -1.4143
  265SOL    HW2  795   0.646   1.446   0.395  0.9091 -0.9399 -3.2106
  266SOL     OW  796   0.880   2.004   2.482  0.2820  0.2482 -0.1871
  266SOL    HW1  797   0.875   2.059   2.563 -2.1983 -2.8130 -0.2658
  266SOL    HW2  798   0.881   2.058   2.394  2.7744 -2.8152  0.1424
  267SOL     OW  799   0.956   0.771   2.422  0.6367  0.3215  0.0095
  267SOL    HW1  800   0.868   0.758   2.368  2.1495 -0.7232 -1.2941
  267SOL    HW2  801   1.032   0.772   2.355 -1.8150 -1.2057 -3.0792
  268SOL     OW  802   0.461   0.659   2.604  0.0551 -0.0805  0.5786
  268SOL    HW1  803   0.526   0.692   2.530  0.4845 -1.5709  1.3706
  268SOL    HW2  804   0.467   0.705   2.692 -0.8213  1.1701  2.4165
  269SOL     OW  805   2.207   3.039   2.593  0.2877 -0.3979  0.6503
  269SOL    HW1  806   2.306   3.049   2.606 -0.2437 -1.1875 -2.7770
  269SOL    HW2  807   2.166   0.022   2.568  1.7146  2.4965 -0.9843
  270SOL     OW  808   1.088   1.601   2.386  0.4627  0.3749  0.4343
  270SOL    HW1  809   1.104   1.700   2.406  0.1461  1.5349  0.1550
  270SOL    HW2  810   1.041   1.549   2.462 -0.4993 -2.4323 -1.8836
  271SOL     OW  811   0.423   0.086   2.837  0.2131  0.2534 -0.7276
  271SOL    HW1  812   0.509   0.036   2.815  2.2453  1.1198  1.6824
  271SOL    HW2  813   0.417   0.109   2.936 -2.0729  0.1402 -0.0926
  272SOL     OW  814   2.706   0.647   0.457 -0.2215 -0.5029  0.2295
  272SOL    HW1  815   2.635   0.610   0.520 -0.2495  0.3868  0.8538
  272SOL    HW2  816   2.673   0.736   0.420  0.9354  1.2813  1.0549
  273SOL     OW  817   0.268   3.099   2.012  0.1009 -0.4966  0.5522
  273SOL    HW1  818   0.326   3.062   2.089  1.5456  0.6475  1.5570
  273SOL    HW2  819   0.216   3.027   1.967 -1.7630  0.1551  1.8458
  274SOL     OW  820   3.054   0.702   1.950  0.1042  0.1585 -0.2379
  274SOL    HW1  821   0.029   0.760   1.968  0.5408 -1.6400 -0.0878
  274SOL    HW2  822   2.977   0.766   1.934  1.2903  1.5130  0.8891
  275SOL     OW  823   1.333   1.663   0.528  0.0538 -0.2118 -0.2682
  275SOL    HW1  824   1.405   1.618   0.582 -0.4857  1.1006  0.1098
  275SOL    HW2  825   1.305   1.614   0.445 -0.5169  0.5504 -2.8579
  276SOL     OW  826   0.938   1.085   2.167 -0.1741  0.1629 -0.0775
  276SOL    HW1  827   0.906   1.003   2.118  2.2322 -0.3569  1.7881
  276SOL    HW2  828   0.901   1.084   2.264 -2.3922  1.9393  0.4312
  277SOL     OW  829   1.457   2.448   1.865 -0.7267  0.5720  0.6407
  277SOL    HW1  830   1.380   2.390   1.843  3.1323 -0.3424 -0.9336
  277SOL    HW2  831   1.483   2.444   1.962  1.5965 -0.8363  0.5092
  278SOL     OW  832   1.917   2.929   2.056  0.2815  0.3271  0.4312
  278SOL    HW1  833   1.844   2.922   2.129  3.0965 -0.8831  3.5250
  278SOL    HW2  834   1.981   3.008   2.074  1.1387  0.6943  0.9022
  279SOL     OW  835   1.670   1.360   0.239 -0.0888  0.7053  0.0739
  279SOL    HW1  836   1.686   1.368   0.138  1.6435  1.3535 -0.5566
  279SOL    HW2  837   1.578   1.333   0.260 -1.6926  1.4884 -1.6196
  280SOL     OW  838   0.658   1.453   0.044 -0.4176  0.1445 -0.1715
  280SOL    HW1  839   0.637   1.436   0.143 -0.9895 -0.8994 -2.6422
  280SOL    HW2  840   0.742   1.508   0.034 -2.9892 -0.1961  0.8565
  281SOL     OW  841   0.417   3.000   1.595 -0.0662  0.4764  0.3881
  281SOL    HW1  842   0.355   2.928   1.636 -0.9116  3.6601  0.5126
  281SOL    HW2  843   0.400   3.084   1.648 -2.9175 -0.4823 -1.9506
  282SOL     OW  844   0.180   2.477   0.747 -0.4091 -0.5583 -0.1745
  282SOL    HW1  845   0.167   2.557   0.806 -2.1237 -0.1147 -0.2425
  282SOL    HW2  846   0.253   2.492   0.682 -3.7330  0.9520  0.3149
  283SOL     OW  847   1.533   1.945   2.355  0.5947  0.2852  0.2166
  283SOL    HW1  848   1.629   1.976   2.357  1.1097 -1.6404  1.1401
  283SOL    HW2  849   1.520   1.872   2.425 -0.4955  1.8427 -0.4768
  284SOL     OW  850   1.970   2.924   0.950 -0.2913 -0.1946  0.0975
  284SOL    HW1  851   2.007   2.874   1.028 -3.6527  0.9489 -1.9739
  284SOL    HW2  852   1.882   2.887   0.927  1.5881  1.7265 -0.2493
  285SOL     OW  853   0.404   2.544   2.435  0.0181  0.3355  0.1270
  285SOL    HW1  854   0.373   2.550   2.529  4.4638 -0.4955 -2.6156
  285SOL    HW2  855   0.501   2.513   2.426  3.7515  1.1758 -0.5891
  286SOL     OW  856   0.025   2.400   1.062  0.2487  0.3835 -0.0312
  286SOL    HW1  857   0.107   2.361   1.114 -0.4485 -0.5607 -1.5902
  286SOL    HW2  858   0.053   2.480   1.002  1.4077 -1.0871 -1.8846
  287SOL     OW  859   0.408   1.593   0.671  0.4428 -0.0565 -1.1486
  287SOL    HW1  860   0.328   1.610   0.736  0.4204 -1.6318 -1.8751
  287SOL    HW2  861   0.460   1.676   0.655 -1.8823 -0.3939 -0.3195
  288SOL     OW  862   2.246   2.166   2.482 -0.6304 -0.6793  0.2429
  288SOL    HW1  863   2.344   2.143   2.493  2.6669 -0.0023 -0.7917
  288SOL    HW2  864   2.237   2.269   2.473  0.3163 -2.0072 -0.3919
  289SOL     OW  865   0.036   1.994   2.880  0.7273 -0.1642  0.5652
  289SOL    HW1  866   3.085   2.076   2.872 -0.5512 -1.1646 -2.1787
  289SOL    HW2  867   0.043   1.966   2.980 -2.9181 -1.3642 -0.1126
  290SOL     OW  868   1.313   1.803   1.201  0.3283  0.1744  0.4092
  290SOL    HW1  869   1.250   1.736   1.161  1.9179 -2.3169 -2.5722
  290SOL    HW2  870   1.328   1.874   1.132  0.4717  1.1409 -0.2213
  291SOL     OW  871   1.578   1.111   3.004 -0.0805  0.1266  0.2235
  291SOL    HW1  872   1.512   1.081   2.928  0.4167  1.0997 -1.2283
  291SOL    HW2  873   1.558   1.062   3.093  2.5389  0.2930  0.5236
  292SOL     OW  874   1.059   1.655   0.494  0.1177 -0.4288  0.6978
  292SOL    HW1  875   1.033   1.558   0.502  1.1137  1.6783 -3.0852
  292SOL    HW2  876   1.161   1.663   0.503  1.8875  1.2637  0.5429
  293SOL     OW  877   1.109   2.537   1.012 -0.0137  0.0419  0.4709
  293SOL    HW1  878   1.187   2.602   1.021 -0.2025  2.0509 -1.6940
  293SOL    HW2  879   1.058   2.568   0.930 -1.7299  3.1352  2.9057
  294SOL     OW  880   2.103   1.314   2.896  0.2148  0.2887 -0.6134
  294SOL    HW1  881   2.076   1.283   2.989 -0.3606 -0.6179 -1.0021
  294SOL    HW2  882   2.198   1.343   2.883  2.4871 -3.5775 -1.1129
  295SOL     OW  883   1.766   1.807   2.825  0.4749  0.5173 -0.5390
  295SOL    HW1  884   1.829   1.840   2.895 -1.2413 -2.0907  0.3278
  295SOL    HW2  885   1.693   1.877   2.801  1.1037 -1.1820  2.5423
  296SOL     OW  886   1.701   0.446   1.855 -0.3037 -0.7639 -0.2132
  296SOL    HW1  887   1.763   0.486   1.780  0.9220  1.4307 -2.8574
  296SOL    HW2  888   1.715   0.349   1.873  2.2114 -0.7770 -0.6406
  297SOL     OW  889   0.142   0.899   2.007  0.3854 -0.1299 -0.6651
  297SOL    HW1  890   0.164   0.895   2.106 -0.1749 -1.4296  3.3244
  297SOL    HW2  891   0.149   1.001   1.984 -0.7439  0.5324 -0.4173
  298SOL     OW  892   1.154   2.066   2.102 -0.0796  0.3613 -0.2284
  298SOL    HW1  893   1.126   1.973   2.081 -0.3241 -2.8151  2.6911
  298SOL    HW2  894   1.259   2.066   2.089  3.4286  0.0205 -1.3732
  299SOL     OW  895   1.304   0.158   2.799  0.0212  0.1403  0.1814
  299SOL    HW1  896   1.404   0.152   2.780 -0.1493  0.3785 -0.7827
  299SOL    HW2  897   1.260   0.100   2.725 -1.7563  0.1335  0.0973
  300SOL     OW  898   0.061   1.103   2.732  0.1201 -0.1957 -0.3164
  300SOL    HW1  899   0.107   1.042   2.800 -0.7545 -2.5853 -2.4333
  300SOL    HW2  900   0.087   1.201   2.745  0.2940 -0.5017  0.8202
  301SOL     OW  901   1.870   0.678   2.023  0.2912  0.1815  0.0265
  301SOL    HW1  902   1.886   0.643   1.928  1.3443  1.0077 -1.2466
  301SOL    HW2  903   1.772   0.706   2.032  0.9232 -1.2203 -2.0072
  302SOL     OW  904   2.385   1.698   2.703  0.3355  0.3113  0.4835
  302SOL    HW1  905   2.426   1.636   2.633  0.0609  0.2955  1.7476
  302SOL    HW2  906   2.286   1.702   2.691  2.5099  0.5539  0.7988
  303SOL     OW  907   0.278   2.211   2.571 -0.1701 -0.6268  0.9423
  303SOL    HW1  908   0.308   2.295   2.620 -1.1696  0.4480 -2.1691
  303SOL    HW2  909   0.336   2.200   2.489  2.4163 -0.4436  0.0004
  304SOL     OW  910   2.982   1.003   1.311  0.7869  0.2141  0.2649
  304SOL    HW1  911   3.000   1.020   1.212 -0.9334  2.8793 -0.8917
  304SOL    HW2  912   3.055   0.936   1.347  0.2657 -2.2076 -2.1314
  305SOL     OW  913   2.596   1.039   1.713 -0.1548  0.0956  0.0808
  305SOL    HW1  914   2.695   1.029   1.705  1.2624 -1.7196  1.1791
  305SOL    HW2  915   2.574   1.137   1.753  0.5796  2.8060  1.4963
  306SOL     OW  916   2.281   1.179   1.655 -0.0510 -0.7502  0.2985
  306SOL    HW1  917   2.265   1.155   1.751  0.9809 -2.5523 -0.4258
  306SOL    HW2  918   2.329   1.265   1.638  0.7310 -0.5898 -2.0570
  307SOL     OW  919   2.698   2.896   0.807  0.3225 -0.2006  0.4289
  307SOL    HW1  920   2.616   2.903   0.869 -1.3305  1.8178 -3.8693
  307SOL    HW2  921   2.773   2.836   0.845  0.1631  1.3499  0.5378
  308SOL     OW  922   0.010   1.990   1.895  0.4923  0.1305 -0.1957
  308SOL    HW1  923   0.048   1.988   1.990 -1.2919  2.7873 -0.5293
  308SOL    HW2  924   0.047   1.914   1.842 -0.0166  0.6108  2.3208
  309SOL     OW  925   2.525   2.349   1.424 -0.1683  0.1841 -0.7062
  309SOL    HW1  926   2.576   2.332   1.515  2.8765 -0.5564  1.6410
  309SOL    HW2  927   2.440   2.401   1.432  4.4433 -0.0415 -0.3907
  310SOL     OW  928   1.961   1.542   2.843  0.2500 -0.2303  0.0074
  310SOL    HW1  929   1.865   1.528   2.885  1.9887 -0.9694  1.5957
  310SOL    HW2  930   1.997   1.456   2.805  0.7816 -0.7176 -0.0481
  311SOL     OW  931   1.845   0.993   3.037 -0.0447  0.1427  0.7884
  311SOL    HW1  932   1.755   1.047   3.016 -6.7791  2.0535  0.5623
  311SOL    HW2  933   1.896   0.982   2.950  0.1685  0.6955 -0.7824
  312SOL     OW  934   1.269   2.343   2.310  0.1952  0.4744 -0.1795
  312SOL    HW1  935   1.297   2.255   2.351  1.9772  2.0214 -0.0525
  312SOL    HW2  936   1.201   2.392   2.368  2.3906  0.2245  4.1021
  313SOL     OW  937   0.049   0.377   1.134 -0.2320  0.2464 -1.0407
  313SOL    HW1  938   0.077   0.406   1.041  0.5067  4.9763  0.6298
  313SOL    HW2  939   0.050   0.271   1.136 -1.5808 -1.7726  0.6938
  314SOL     OW  940   0.295   1.879   1.114  0.0478 -0.3785  0.0832
  314SOL    HW1  941   0.264   1.928   1.195  1.4841 -2.0558 -1.2974
  314SOL    HW2  942   0.229   1.799   1.104 -2.0618 -4.5672 -0.5355
  315SOL     OW  943   0.315   2.193   2.106  0.4154  0.8034 -0.0849
  315SOL    HW1  944   0.272   2.228   2.018 -1.5753  0.1470 -3.1506
  315SOL    HW2  945   0.244   2.137   2.156  0.4329  0.8787  0.2650
  316SOL     OW  946   0.314   2.303   0.906 -0.3291  0.2211  0.1042
  316SOL    HW1  947   0.262   2.222   0.937  1.0222  1.0468  1.2534
  316SOL    HW2  948   0.268   2.372   0.846  0.5388 -0.0937 -2.0183
  317SOL     OW  949   1.771   0.258   0.985 -0.1822 -0.1851  0.8115
  317SOL    HW1  950   1.698   0.232   1.046  2.8725 -0.4148 -0.5051
  317SOL    HW2  951   1.741   0.347   0.944 -0.7978 -3.2365  3.1848
  318SOL     OW  952   2.177   2.256   0.164 -0.3065 -0.5894  0.4141
  318SOL    HW1  953   2.110   2.223   0.098  1.9170  0.6381  0.7800
  318SOL    HW2  954   2.260   2.208   0.158 -1.6006  0.7293 -1.6828
  319SOL     OW  955   1.406   1.566   0.073 -0.4564  0.5760  0.3974
  319SOL    HW1  956   1.390   1.472   0.036  0.0152 -0.7690 -0.4041
  319SOL    HW2  957   1.420   1.636   3.107  0.5610  0.5605  2.3765
  320SOL     OW  958   0.501   2.846   2.486 -0.2123  0.4420 -0.5042
  320SOL    HW1  959   0.584   2.837   2.430  0.0094 -0.1094  1.5801
  320SOL    HW2  960   0.449   2.921   2.453  2.9162 -1.6387  0.3870
  321SOL     OW  961   1.059   2.878   2.625 -0.1501 -0.2787  0.6215
  321SOL    HW1  962   1.139   2.834   2.678  1.0427  0.7121  1.7188
  321SOL    HW2  963   1.054   2.823   2.539  3.1754  0.8730  0.8372
  322SOL     OW  964   2.610   0.575   2.401  0.5575 -0.0838  0.3465
  322SOL    HW1  965   2.527   0.589   2.460  0.6064 -1.2148 -1.3478
  322SOL    HW2  966   2.697   0.598   2.450 -5.2165  1.8418 -0.6597
  323SOL     OW  967   2.944   0.957   0.551 -0.2098 -0.1848 -0.1868
  323SOL    HW1  968   2.967   0.885   0.486  2.0045  1.8008  1.5749
  323SOL    HW2  969   3.028   1.015   0.564  1.0651 -0.5990  1.2038
  324SOL     OW  970   0.448   0.785   1.885 -0.0643 -0.2275  0.2662
  324SOL    HW1  971   0.362   0.759   1.831 -0.6079  1.2849 -0.4034
  324SOL    HW2  972   0.512   0.710   1.902 -3.3264 -2.8445  0.5620
  325SOL     OW  973   0.411   0.250   2.193 -0.8283 -0.1550 -0.2194
  325SOL    HW1  974   0.471   0.329   2.174  0.7157 -0.1733 -1.4755
  325SOL    HW2  975   0.314   0.276   2.182  0.3861 -3.6440 -0.4736
  326SOL     OW  976   2.233   2.524   0.211  0.0284  0.8059  0.1422
  326SOL    HW1  977   2.164   2.586   0.166 -1.4620  0.4090  0.8747
  326SOL    HW2  978   2.209   2.425   0.192  0.4078  0.9958  2.1128
  327SOL     OW  979   2.247   1.346   0.736  0.0811 -0.2958  0.3105
  327SOL    HW1  980   2.259   1.254   0.693 -0.4572 -0.3471  0.7076
  327SOL    HW2  981   2.143   1.370   0.739  0.0287  3.0501 -0.1300
  328SOL     OW  982   2.982   1.749   2.169 -0.2094  0.6036 -0.6045
  328SOL    HW1  983   2.893   1.718   2.131 -0.3272  2.4540 -0.4129
  328SOL    HW2  984   2.976   1.852   2.172 -1.8372  1.3741  3.9101
  329SOL     OW  985   0.501   2.108   1.591  0.0548 -0.3049 -0.5158
  329SOL    HW1  986   0.400   2.133   1.593 -0.7344  1.2159 -2.8826
  329SOL    HW2  987   0.558   2.174   1.644  0.0726  0.4127  0.2492
  330SOL     OW  988   2.184   1.481   2.540 -0.0821 -0.0913 -0.1741
  330SOL    HW1  989   2.150   1.565   2.582  1.7006 -2.5858 -0.1235
  330SOL    HW2  990   2.261   1.507   2.478  2.7679  3.3566 -0.8310
  331SOL     OW  991   2.665   2.661   0.550  0.2952  0.0426 -0.1206
  331SOL    HW1  992   2.726   2.669   0.627 -1.2040 -1.1613 -2.3366
  331SOL    HW2  993   2.572   2.642   0.580  3.1660 -0.5175 -2.8214
  332SOL     OW  994   0.475   2.959   0.936  0.7971  0.1495  0.3618
  332SOL    HW1  995   0.376   2.944   0.961 -0.7872 -1.9897 -0.4755
  332SOL    HW2  996   0.521   2.872   0.930 -0.9737  1.9504  2.3880
  333SOL     OW  997   2.241   2.427   2.445 -0.8779  0.1238 -0.2607
  333SOL    HW1  998   2.319   2.485   2.473  0.5157 -0.4641  2.2533
  333SOL    HW2  999   2.173   2.435   2.520  1.7103 -3.0092 -1.0351
  334SOL     OW 1000   0.504   1.166   0.313 -0.1815 -0.1745  0.3041
  334SOL    HW1 1001   0.497   1.171   0.415  2.7272  0.2285 -2.1057
  334SOL    HW2 1002   0.554   1.245   0.279 -3.1320 -0.8276  0.2898
  335SOL     OW 1003   2.648   1.858   1.863 -0.1012 -0.5802 -0.3492
  335SOL    HW1 1004   2.580   1.922   1.822 -2.3052  0.3632 -0.5419
  335SOL    HW2 1005   2.690   1.795   1.790 -0.4143 -0.4854 -0.1070
  336SOL     OW 1006   2.679   2.972   2.240  0.0386  0.8170 -0.0506
  336SOL    HW1 1007   2.595   2.916   2.268 -1.7665  0.2661 -0.8333
  336SOL    HW2 1008   2.761   2.916   2.224 -1.4757  0.2543  1.2342
  337SOL     OW 1009   0.898   1.231   0.972  0.1014  0.4982 -0.3726
  337SOL    HW1 1010   0.917   1.212   0.874 -0.9026 -3.0323  1.7579
  337SOL    HW2 1011   0.803   1.269   0.984  1.4593  1.0300 -1.5048
  338SOL     OW 1012   0.970   1.741   1.165  0.0407  0.1874  0.5154
  338SOL    HW1 1013   1.035   1.707   1.092  1.1006 -1.0758  1.2931
  338SOL    HW2 1014   0.877   1.711   1.148  2.1518  0.4453 -2.2675
  339SOL     OW 1015   0.232   1.556   1.442 -0.3689 -0.0189 -0.2588
  339SOL    HW1 1016   0.267   1.555   1.538 -2.1741 -2.6397 -1.5903
  339SOL    HW2 1017   0.171   1.477   1.431  0.8947  0.0801 -0.9380
  340SOL     OW 1018   1.282   2.799   1.875 -0.5178  0.3410  0.5087
  340SOL    HW1 1019   1.336   2.768   1.791  0.0193  0.2956 -0.7924
  340SOL    HW2 1020   1.201   2.840   1.836  3.5475 -2.2156 -2.6735
  341SOL     OW 1021   1.774   1.668   0.989 -0.1869 -0.0315  0.3189
  341SOL    HW1 1022   1.751   1.592   0.929  0.6087  1.0446 -0.5850
  341SOL    HW2 1023   1.830   1.635   1.070 -1.5144 -1.6950  0.4439
  342SOL     OW 1024   2.920   1.342   1.017 -0.3259  0.2119 -0.9557
  342SOL    HW1 1025   2.892   1.246   1.041 -0.1180 -1.2326 -0.3203
  342SOL    HW2 1026   2.853   1.395   0.967  0.5017  1.0896  2.9263
  343SOL     OW 1027   2.742   0.662   1.523  0.6063 -0.2818  0.2457
  343SOL    HW1 1028   2.661   0.696   1.573  1.9709 -2.9595 -2.1750
  343SOL    HW2 1029   2.733   0.682   1.420 -0.3266  3.0631  1.4072
  344SOL     OW 1030   1.690   3.103   1.061  0.2468  0.2685 -0.5394
  344SOL    HW1 1031   1.637   3.062   0.987  0.6982  0.2291  0.6846
  344SOL    HW2 1032   1.741   0.075   1.030 -1.0818  0.7036  0.0802
  345SOL     OW 1033   0.731   2.987   2.303 -0.1882 -0.1906  0.5796
  345SOL    HW1 1034   0.711   3.031   2.389  2.8694 -0.6414 -1.8199
  345SOL    HW2 1035   0.686   3.037   2.228  0.7980 -1.1463  0.4171
  346SOL     OW 1036   2.678   1.942   0.675  0.4844  0.4739  0.7433
  346SOL    HW1 1037   2.672   2.035   0.720 -0.7450  1.8286  0.0540
  346SOL    HW2 1038   2.598   1.884   0.702 -2.0999  1.3398  1.1274
  347SOL     OW 1039   2.285   0.125   1.855 -0.1200  0.2071 -0.2172
  347SOL    HW1 1040   2.229   0.052   1.815 -0.7536 -0.5852 -0.6487
  347SOL    HW2 1041   2.379   0.090   1.859 -2.6330  2.4510 -0.7193
  348SOL     OW 1042   1.014   1.174   1.661 -0.6461  0.2129  0.4365
  348SOL    HW1 1043   0.986   1.092   1.709  1.3750  3.8735 -0.8350
  348SOL    HW2 1044   0.938   1.236   1.634 -3.1929 -0.5309  1.3539
  349SOL     OW 1045   2.543   0.758   1.698 -0.2886 -0.3627  0.0410
  349SOL    HW1 1046   2.536   0.858   1.710  2.0740  2.1312 -0.1659
  349SOL    HW2 1047   2.561   0.708   1.787 -1.8510  0.9228  1.1361
  350SOL     OW 1048   2.166   2.191   0.435  0.4833  0.0097 -0.6027
  350SOL    HW1 1049   2.136   2.275   0.485 -1.3930  0.4556 -1.3576
  350SOL    HW2 1050   2.169   2.219   0.337  0.5989 -0.3513 -1.8382
  351SOL     OW 1051   0.768   0.645   2.201 -0.5057 -0.2952  0.7348
  351SOL    HW1 1052   0.850   0.587   2.214 -0.7756  2.2011 -1.0699
  351SOL    HW2 1053   0.690   0.595   2.159  0.2253  1.8495  0.1140
  352SOL     OW 1054   2.227   2.707   1.836  0.1423 -0.5303  0.1633
  352SOL    HW1 1055   2.150   2.682   1.892 -0.9398  0.3578 -1.0810
  352SOL    HW2 1056   2.196   2.687   1.742  0.9844  1.4499 -0.8815
  353SOL     OW 1057   0.646   0.861   2.579 -0.2631 -0.2383  0.0233
  353SOL    HW1 1058   0.658   0.865   2.477 -2.4485 -0.7581  0.6873
  353SOL    HW2 1059   0.736   0.853   2.627 -1.4160  1.3916  0.0496
  354SOL     OW 1060   0.357   2.432   2.728 -0.6265  0.1683  0.3602
  354SOL    HW1 1061   0.386   2.518   2.767  2.4840 -0.1837 -1.3719
  354SOL    HW2 1062   0.282   2.393   2.781 -0.6881  1.8105 -0.9559
  355SOL     OW 1063   1.551   2.782   1.199 -0.1332 -0.1765  0.0625
  355SOL    HW1 1064   1.612   2.858   1.234  3.9024  2.2014 -0.7305
  355SOL    HW2 1065   1.509   2.731   1.277  0.3518  1.3830 -2.2987
  356SOL     OW 1066   2.627   0.897   0.243 -0.1270  0.0850 -0.2021
  356SOL    HW1 1067   2.534   0.930   0.240 -1.2398  1.9524 -0.5984
  356SOL    HW2 1068   2.686   0.965   0.291  0.2278  2.2624 -0.0287
  357SOL     OW 1069   0.023   0.436   1.763  0.0124  0.0843  0.2532
  357SOL    HW1 1070   3.033   0.455   1.743  1.2010 -1.5739 -2.8817
  357SOL    HW2 1071   0.036   0.358   1.824  0.0931  2.9411  1.6542
  358SOL     OW 1072   2.986   1.643   0.710  0.2410  0.2762 -0.0479
  358SOL    HW1 1073   3.044   1.566   0.736 -1.1408  0.8208  0.7975
  358SOL    HW2 1074   3.010   1.676   0.615  2.8421 -2.4582  1.5343
  359SOL     OW 1075   2.879   0.352   2.925 -0.5231 -0.5310 -0.2224
  359SOL    HW1 1076   2.935   0.299   2.991  0.4626 -2.5415 -1.5901
  359SOL    HW2 1077   2.922   0.340   2.831  2.3224 -0.2695 -0.8451
  360SOL     OW 1078   1.076   0.968   1.089 -0.3957  0.3245 -0.2530
  360SOL    HW1 1079   1.099   0.933   1.181  0.8896 -1.7513  3.2148
  360SOL    HW2 1080   0.977   0.995   1.078 -0.4817  0.3161  2.7006
  361SOL     OW 1081   2.775   2.630   1.294 -0.3746  0.3540 -0.1285
  361SOL    HW1 1082   2.822   2.605   1.381  0.2065 -2.1115 -1.4241
  361SOL    HW2 1083   2.764   2.552   1.231 -2.6738  0.8562 -0.5832
  362SOL     OW 1084   1.192   0.309   1.133  0.2299  0.1655 -0.4458
  362SOL    HW1 1085   1.211   0.406   1.118 -1.7499  0.2816  0.2752
  362SOL    HW2 1086   1.255   0.254   1.076  1.7208  0.9765 -0.8626
  363SOL     OW 1087   2.033   1.640   0.797 -0.1645 -0.0068  0.0349
  363SOL    HW1 1088   2.127   1.624   0.821 -0.8408  0.8514  0.8909
  363SOL    HW2 1089   1.983   1.575   0.854 -1.3951 -1.9638  0.6103
  364SOL     OW 1090   0.815   0.593   1.487 -0.1569 -0.5160  0.1994
  364SOL    HW1 1091   0.905   0.639   1.488 -1.1267  2.1120  2.0558
  364SOL    HW2 1092   0.747   0.664   1.451  0.5525 -2.3007 -0.3920
  365SOL     OW 1093   0.099   0.120   1.152  0.0641  0.3094  0.6017
  365SOL    HW1 1094   0.196   0.098   1.180  0.8333  1.4879  3.0067
  365SOL    HW2 1095   0.042   0.089   1.231  0.1851  2.0790  1.3799
  366SOL     OW 1096   2.907   0.956   0.125  0.4651  0.5150  0.0765
  366SOL    HW1 1097   2.819   0.969   0.071  1.9189 -2.9938 -0.2939
  366SOL    HW2 1098   2.940   1.052   0.151  0.1098  0.1750 -0.5243
  367SOL     OW 1099   2.148   2.101   2.188 -0.5686 -0.5722  0.1010
  367SOL    HW1 1100   2.119   2.126   2.281  0.6878 -2.4015 -3.5625
  367SOL    HW2 1101   2.097   2.150   2.118  1.3143 -0.7376 -1.4675
  368SOL     OW 1102   2.444   1.795   0.741  0.3794  0.0389 -0.2455
  368SOL    HW1 1103   2.406   1.884   0.775  0.3336  0.4865 -2.2638
  368SOL    HW2 1104   2.397   1.713   0.774  1.7859 -1.2514 -0.2042
  369SOL     OW 1105   2.207   0.394   2.935 -0.2510 -0.2041 -0.7155
  369SOL    HW1 1106   2.232   0.416   3.028 -0.5400  0.1125  0.9150
  369SOL    HW2 1107   2.104   0.394   2.926 -2.3090  0.9303  0.2667
  370SOL     OW 1108   0.504   0.568   0.977 -0.2817  0.3003 -0.2962
  370SOL    HW1 1109   0.515   0.476   1.025  0.3657 -1.1872  0.1794
  370SOL    HW2 1110   0.566   0.570   0.891  2.7767  2.2791 -2.9711
  371SOL     OW 1111   3.084   1.334   0.001  0.4539  0.2855  0.5589
  371SOL    HW1 1112   3.058   1.433   0.011 -0.3875 -3.0339 -0.4964
  371SOL    HW2 1113   0.073   1.335   3.084 -2.9602 -1.2731  0.4628
  372SOL     OW 1114   0.680   0.883   2.273 -0.7010  0.7501  0.0455
  372SOL    HW1 1115   0.696   0.784   2.263  1.3141  1.0403 -0.3783
  372SOL    HW2 1116   0.582   0.906   2.254 -1.0347  1.2440  0.7721
  373SOL     OW 1117   0.979   3.000   3.016 -0.7386  0.1979  0.8022
  373SOL    HW1 1118   1.006   2.983   0.002  2.7956 -3.6714  0.1141
  373SOL    HW2 1119   0.987   3.095   2.985 -3.0664  0.3700  0.6393
  374SOL     OW 1120   0.901   1.572   0.029  0.1408 -0.0676  0.0568
  374SOL    HW1 1121   0.960   1.652   0.053  2.5838  0.5456 -3.0054
  374SOL    HW2 1122   0.952   1.484   0.041 -1.3032 -2.5331  2.6198
  375SOL     OW 1123   1.025   0.554   2.155  0.5321  0.6558  0.7862
  375SOL    HW1 1124   1.076   0.632   2.194 -3.7303  3.0467 -1.9707
  375SOL    HW2 1125   1.080   0.470   2.149  1.3938  0.9710 -0.0060
  376SOL     OW 1126   2.974   2.653   2.057 -0.0631  0.5283  0.3232
  376SOL    HW1 1127   2.900   2.664   2.124  0.7845  1.3386 -1.5214
  376SOL    HW2 1128   3.053   2.714   2.075  0.8056  0.0922 -0.3386
  377SOL     OW 1129   2.523   1.909   2.849  0.1260 -0.5142 -0.4818
  377SOL    HW1 1130   2.481   1.832   2.797  0.4496 -0.2442  0.3151
  377SOL    HW2 1131   2.542   1.873   2.943 -0.3485 -3.0881 -0.3869
  378SOL     OW 1132   2.067   0.095   0.319 -0.1934  0.7086 -0.4335
  378SOL    HW1 1133   1.982   0.063   0.362 -1.6497  1.0439 -2.4101
  378SOL    HW2 1134   2.082   0.054   0.228  1.8370 -1.9121  0.4184
  379SOL     OW 1135   1.998   0.772   0.599 -0.7742 -0.5604  0.0639
  379SOL    HW1 1136   1.909   0.777   0.647  0.3587  1.5368  2.1227
  379SOL    HW2 1137   2.041   0.678   0.600  1.0255 -0.7114  0.4624
  380SOL     OW 1138   2.519   2.027   1.677 -0.2500  0.0044  0.5461
  380SOL    HW1 1139   2.427   2.038   1.721  0.4941  2.6819  0.4031
  380SOL    HW2 1140   2.550   2.123   1.665 -3.0582  0.5444 -0.9114
  381SOL     OW 1141   2.360   1.428   2.323 -0.1468  0.1111  0.2391
  381SOL    HW1 1142   2.365   1.465   2.231  1.8712 -1.9970 -0.4412
  381SOL    HW2 1143   2.316   1.332   2.324  0.3436 -2.4593  0.2917
  382SOL     OW 1144   3.049   2.675   2.699  0.2649  0.2335  0.2772
  382SOL    HW1 1145   0.028   2.721   2.676 -4.0644 -0.2470 -2.4583
  382SOL    HW2 1146   3.057   2.576   2.672  0.2915  0.2067  0.3658
  383SOL     OW 1147   0.986   1.255   2.942 -0.7748 -0.4059  0.5629
  383SOL    HW1 1148   0.944   1.280   3.032 -1.3434 -0.1939 -1.2497
  383SOL    HW2 1149   1.051   1.321   2.902  0.7398  0.2940 -2.7995
  384SOL     OW 1150   1.774   1.909   2.168  0.2759 -0.1466  0.1546
  384SOL    HW1 1151   1.770   1.819   2.129  0.5992  0.3665 -2.8561
  384SOL    HW2 1152   1.842   1.962   2.115 -2.4903 -1.9337  0.6854
  385SOL     OW 1153   1.811   2.695   0.824 -0.5313 -0.0027 -0.7653
  385SOL    HW1 1154   1.720   2.735   0.864 -2.3686  0.8158 -1.2155
  385SOL    HW2 1155   1.810   2.735   0.731 -0.8195  0.6554 -0.4477
  386SOL     OW 1156   1.996   1.336   0.483  0.3223  0.1770 -0.1716
  386SOL    HW1 1157   1.998   1.433   0.445  1.1893  0.9642 -2.7062
  386SOL    HW2 1158   2.006   1.329   0.585 -0.3939 -0.0166 -1.5793
  387SOL     OW 1159   2.887   2.069   1.605  0.3385 -0.5747  0.4504
  387SOL    HW1 1160   2.862   2.073   1.703  0.8144  0.8912 -1.4901
  387SOL    HW2 1161   2.910   2.159   1.561 -1.7086  2.7359 -2.2441
  388SOL     OW 1162   0.229   1.094   1.551  0.1353 -0.9132 -0.0081
  388SOL    HW1 1163   0.176   1.141   1.479  2.5751  1.4746  2.5403
  388SOL    HW2 1164   0.175   1.019   1.593 -1.5387  0.7317 -0.4511
  389SOL     OW 1165   2.282   0.434   0.076  0.7996  0.5598 -0.1089
  389SOL    HW1 1166   2.341   0.421   0.154 -0.6523  0.8676  2.0896
  389SOL    HW2 1167   2.251   0.530   0.070  0.1192 -1.0931  2.9419
  390SOL     OW 1168   0.914   1.689   2.883  0.5792  0.4292 -0.3061
  390SOL    HW1 1169   0.906   1.631   2.964 -1.2728  3.1050 -1.5743
  390SOL    HW2 1170   0.822   1.697   2.841  0.7579 -0.6118  0.2510
  391SOL     OW 1171   1.067   2.118   3.070  0.1792  0.5615 -0.1210
  391SOL    HW1 1172   1.103   2.115   0.057  1.7764  0.7599  2.2665
  391SOL    HW2 1173   0.969   2.156   3.073 -1.9011 -2.1013  1.0621
  392SOL     OW 1174   3.055   2.569   2.384  0.3566  0.0512 -0.6181
  392SOL    HW1 1175   2.979   2.564   2.322  0.0213  0.1519  1.2318
  392SOL    HW2 1176   0.033   2.541   2.341  0.9863 -3.0422  1.1173
  393SOL     OW 1177   1.466   2.155   0.477 -0.2740  0.0386  0.3280
  393SOL    HW1 1178   1.568   2.158   0.486 -0.5403  0.1796  0.4413
  393SOL    HW2 1179   1.440   2.064   0.447  2.1879 -0.4963  0.6288
  394SOL     OW 1180   0.524   0.178   2.437 -0.2530  0.0171 -0.2665
  394SOL    HW1 1181   0.503   0.190   2.337 -0.1341 -0.2813 -0.1061
  394SOL    HW2 1182   0.533   0.273   2.470  1.3820 -2.8928 -3.0448
  395SOL     OW 1183   0.622   1.238   1.346  0.6602 -0.3957 -0.2167
  395SOL    HW1 1184   0.675   1.313   1.380 -1.9516 -2.9031 -0.9426
  395SOL    HW2 1185   0.550   1.262   1.278 -0.0831 -3.8147 -1.2686
  396SOL     OW 1186   1.910   1.296   2.688 -0.6706  0.1384  0.0387
  396SOL    HW1 1187   1.935   1.216   2.634  1.5863 -0.5630 -0.1778
  396SOL    HW2 1188   1.947   1.291   2.781 -1.2073 -1.2033  0.0131
  397SOL     OW 1189   0.484   0.333   0.213  0.0616  0.2964  0.3861
  397SOL    HW1 1190   0.574   0.377   0.216  0.0495 -0.8326  2.3313
  397SOL    HW2 1191   0.406   0.396   0.219  1.2851 -0.7721 -0.4650
  398SOL     OW 1192   0.995   2.589   2.976 -0.2114 -0.0085 -0.1882
  398SOL    HW1 1193   0.957   2.669   2.930  0.3761 -0.3096  3.5845
  398SOL    HW2 1194   1.076   2.548   2.926  2.3503 -2.2419  0.8822
  399SOL     OW 1195   2.068   2.220   1.956 -0.1320  0.1269  0.5264
  399SOL    HW1 1196   2.011   2.138   1.933 -0.8330  0.9198  1.4284
  399SOL    HW2 1197   2.014   2.306   1.947 -0.3233  0.7162 -0.1956
  400SOL     OW 1198   2.083   1.328   1.506  0.8639 -0.2730 -0.3084
  400SOL    HW1 1199   1.984   1.303   1.527  0.9642  0.4539 -1.8106
  400SOL    HW2 1200   2.148   1.280   1.566  2.1829 -1.0798  0.3015
  401SOL     OW 1201   1.296   1.109   1.041  0.3281 -0.2897  0.1440
  401SOL    HW1 1202   1.382   1.055   1.057 -0.8882 -2.0571 -1.1187
  401SOL    HW2 1203   1.214   1.054   1.068  0.5257  0.2840  0.3137
  402SOL     OW 1204   0.198   2.976   2.394 -0.4445  0.0782  0.0347
  402SOL    HW1 1205   0.172   3.073   2.417 -1.9152  0.1186  1.8558
  402SOL    HW2 1206   0.275   2.964   2.326  1.1568  0.5907 -1.5829
  403SOL     OW 1207   2.539   1.777   1.559  0.0466  0.2549  0.8674
  403SOL    HW1 1208   2.532   1.765   1.457  0.4598 -0.3831 -1.8627
  403SOL    HW2 1209   2.546   1.870   1.590  0.4917 -3.0421  1.3988
  404SOL     OW 1210   2.001   1.712   1.599 -0.1108  0.2476  0.1237
  404SOL    HW1 1211   2.067   1.753   1.537  0.8326 -2.3543 -1.5855
  404SOL    HW2 1212   1.926   1.674   1.549 -0.8262  1.6439  2.2229
  405SOL     OW 1213   2.396   0.226   2.603  0.0384 -0.4338  0.6864
  405SOL    HW1 1214   2.383   0.251   2.500 -1.1578  1.3174 -0.5934
  405SOL    HW2 1215   2.497   0.225   2.621  0.7854 -1.3072  1.7406
  406SOL     OW 1216   1.003   1.451   2.601 -0.3329  0.0849  0.0394
  406SOL    HW1 1217   0.910   1.409   2.592  2.7615  0.4272  1.0938
  406SOL    HW2 1218   1.046   1.452   2.694 -3.2486 -1.8723  0.8593
  407SOL     OW 1219   2.128   2.446   0.587  0.1824  0.0380  0.4084
  407SOL    HW1 1220   2.104   2.495   0.677 -1.8353  0.3786  0.3410
  407SOL    HW2 1221   2.046   2.439   0.523 -1.8185 -3.7352 -1.7469
  408SOL     OW 1222   0.225   2.877   1.014  0.2064  0.5694  0.2427
  408SOL    HW1 1223   0.221   2.856   1.116 -3.3109 -1.4598 -0.9565
  408SOL    HW2 1224   0.159   2.953   0.986  1.9556  0.9685 -0.0269
  409SOL     OW 1225   2.316   1.594   0.880 -0.2489 -0.1459 -0.0659
  409SOL    HW1 1226   2.330   1.568   0.977  1.2027 -1.2908  1.9882
  409SOL    HW2 1227   2.319   1.511   0.816  0.6702 -2.4164 -1.5797
  410SOL     OW 1228   2.205   2.327   2.934 -0.0003  0.1803  0.3398
  410SOL    HW1 1229   2.260   2.410   2.955  2.0591  0.8806 -0.6176
  410SOL    HW2 1230   2.270   2.249   2.902  0.3298 -0.5726  1.4461
  411SOL     OW 1231   0.082   2.862   0.412 -0.1547 -0.3134 -0.2273
  411SOL    HW1 1232   0.114   2.936   0.478  1.5445  0.8974  1.1350
  411SOL    HW2 1233   3.097   2.831   0.435 -0.4199 -1.6199 -0.2925
  412SOL     OW 1234   1.407   2.598   0.510  0.0926  0.2307  0.1468
  412SOL    HW1 1235   1.416   2.688   0.469 -0.3014  0.8380  0.7373
  412SOL    HW2 1236   1.433   2.613   0.606  1.5310 -1.9579 -0.4978
  413SOL     OW 1237   1.985   0.300   2.336  0.5945  0.8095 -0.2141
  413SOL    HW1 1238   1.910   0.352   2.294 -0.4399 -0.0953  1.6218
  413SOL    HW2 1239   2.052   0.360   2.373  2.8756 -2.3997 -2.7109
  414SOL     OW 1240   0.375   0.507   0.529  0.1398  0.1184  0.2195
  414SOL    HW1 1241   0.314   0.426   0.502 -3.1449 -1.0152 -0.1746
  414SOL    HW2 1242   0.355   0.537   0.629 -0.9368  1.2536  0.8977
  415SOL     OW 1243   0.143   1.152   1.304 -0.4591 -0.2544  0.0025
  415SOL    HW1 1244   0.066   1.106   1.255  0.6858  0.1067 -0.1706
  415SOL    HW2 1245   0.229   1.095   1.302 -0.6878  2.2580 -0.5314
  416SOL     OW 1246   0.233   0.047   0.150  0.2952  0.0310 -0.6499
  416SOL    HW1 1247   0.280   0.095   0.078  1.3316 -0.0133  1.1424
  416SOL    HW2 1248   0.303   3.109   0.208  3.7914 -1.7894  1.3981
  417SOL     OW 1249   2.104   0.369   0.785  0.3843 -0.0425 -0.4246
  417SOL    HW1 1250   2.202   0.350   0.813 -0.4423 -1.4110  3.2551
  417SOL    HW2 1251   2.079   0.461   0.831 -1.4216 -0.1006  1.3067
  418SOL     OW 1252   0.627   0.431   2.551  0.7574 -0.1455  0.1064
  418SOL    HW1 1253   0.675   0.403   2.638  2.3733 -0.0540  0.3770
  418SOL    HW2 1254   0.542   0.490   2.568 -0.4477  1.7187 -0.4685
  419SOL     OW 1255   0.277   0.980   0.661  0.1393  0.0274 -0.3328
  419SOL    HW1 1256   0.330   0.910   0.616  1.3646  1.9630 -1.9654
  419SOL    HW2 1257   0.238   0.943   0.749  0.1034  2.4149  0.5639
  420SOL     OW 1258   2.111   1.790   1.165 -0.1561 -0.3106 -0.1336
  420SOL    HW1 1259   2.210   1.797   1.170  0.6162 -2.1361  1.2501
  420SOL    HW2 1260   2.070   1.874   1.125 -1.1164 -3.6150  0.1190
  421SOL     OW 1261   1.583   1.973   2.802  0.3849 -0.2114  0.4298
  421SOL    HW1 1262   1.633   2.057   2.839  0.5018  0.8464  1.3441
  421SOL    HW2 1263   1.493   2.005   2.757 -0.3701 -0.6098  1.0994
  422SOL     OW 1264   2.988   0.527   0.077 -0.2812  0.0129 -0.4653
  422SOL    HW1 1265   2.938   0.555   3.103  0.3324 -0.8405  1.1992
  422SOL    HW2 1266   2.919   0.514   0.152  1.6835  0.7744 -3.7079
  423SOL     OW 1267   1.911   2.029   0.640  0.2220  0.0826 -0.1441
  423SOL    HW1 1268   1.909   1.959   0.711  1.4656 -1.4305  0.1322
  423SOL    HW2 1269   2.003   2.043   0.596 -0.7913  0.4191  0.7068
  424SOL     OW 1270   0.544   1.321   1.686 -0.0697  0.0421  0.6281
  424SOL    HW1 1271   0.509   1.408   1.644  0.0933 -2.3752 -2.7269
  424SOL    HW2 1272   0.530   1.234   1.636  0.1377 -0.2790  1.4073
  425SOL     OW 1273   2.609   2.675   1.721  0.4132  0.0695  0.0008
  425SOL    HW1 1274   2.545   2.619   1.781  1.0466 -1.0373 -1.7303
  425SOL    HW2 1275   2.708   2.654   1.742  1.9637  2.6080  0.3595
  426SOL     OW 1276   1.776   2.743   0.546 -0.2245 -0.6296 -0.2656
  426SOL    HW1 1277   1.854   2.715   0.491 -1.5325  0.1197  1.5788
  426SOL    HW2 1278   1.699   2.677   0.537 -1.4767 -1.6901 -0.8396
  427SOL     OW 1279   0.156   0.659   2.615  0.2587 -0.5425 -0.2240
  427SOL    HW1 1280   0.255   0.667   2.590 -2.4586  1.2170  2.8406
  427SOL    HW2 1281   0.138   0.568   2.648 -1.0104  1.4389 -2.7757
  428SOL     OW 1282   2.173   0.926   3.041 -0.3400  0.1864  0.4812
  428SOL    HW1 1283   2.147   1.001   3.108 -0.5958  2.4037  1.6784
  428SOL    HW2 1284   2.146   0.955   2.946 -0.6385 -2.8563 -0.9497
  429SOL     OW 1285   3.072   0.295   0.698 -0.3251  0.0427 -0.0699
  429SOL    HW1 1286   3.043   0.294   0.601 -1.1786  1.4311 -0.3765
  429SOL    HW2 1287   2.990   0.289   0.757  0.2943  1.8510 -3.1788
  430SOL     OW 1288   1.038   2.738   2.143  0.2535 -0.5205 -0.3720
  430SOL    HW1 1289   0.958   2.737   2.072 -1.2647  0.1828 -0.5594
  430SOL    HW2 1290   1.111   2.669   2.116  3.8058  0.7038 -0.7479
  431SOL     OW 1291   3.006   2.069   1.237  0.2841  0.1929  0.4601
  431SOL    HW1 1292   2.977   2.158   1.205  1.1752 -0.8060  0.6052
  431SOL    HW2 1293   2.926   2.017   1.279  4.3593  0.2431 -1.4251
  432SOL     OW 1294   2.193   3.002   1.732 -0.2190  0.2082 -0.0810
  432SOL    HW1 1295   2.286   3.012   1.693  0.0234  0.7572  2.1837
  432SOL    HW2 1296   2.182   2.902   1.760 -0.6019 -3.3233  0.2345
  433SOL     OW 1297   1.168   2.097   0.235  0.1722  0.2562  0.1512
  433SOL    HW1 1298   1.109   2.073   0.315 -0.3070 -0.7376  0.3032
  433SOL    HW2 1299   1.227   2.018   0.215 -2.7261 -1.0500 -1.7268
  434SOL     OW 1300   3.068   2.420   2.620  0.1067  0.2459  0.3081
  434SOL    HW1 1301   3.099   2.450   2.525  2.1086 -0.0115 -1.5036
  434SOL    HW2 1302   0.004   2.331   2.637  0.9771  2.2204 -1.3043
  435SOL     OW 1303   0.416   0.784   0.499  0.3885  0.3463  0.0146
  435SOL    HW1 1304   0.472   0.818   0.421 -1.1145  0.4828 -0.0305
  435SOL    HW2 1305   0.419   0.682   0.500  2.3627  1.2693  0.9445
  436SOL     OW 1306   0.465   2.475   2.013  0.5604 -0.4173 -0.1699
  436SOL    HW1 1307   0.362   2.461   2.035  1.0531  0.0046 -0.6816
  436SOL    HW2 1308   0.517   2.392   1.998 -1.6561 -0.2633  1.2999
  437SOL     OW 1309   1.217   1.940   1.416  0.0832  0.5667 -0.0174
  437SOL    HW1 1310   1.174   2.020   1.371  2.1509 -2.9564  0.1473
  437SOL    HW2 1311   1.277   1.894   1.342  1.4144 -2.6083 -1.8445
  438SOL     OW 1312   0.212   2.264   0.373  0.0828 -0.0961  0.2003
  438SOL    HW1 1313   0.227   2.199   0.300  0.7279 -0.8918  3.2494
  438SOL    HW2 1314   0.190   2.216   0.459 -2.1976  1.2247 -2.0934
  439SOL     OW 1315   0.332   0.066   1.270 -0.2061 -0.0637  0.0099
  439SOL    HW1 1316   0.427   0.076   1.234 -0.7539 -1.8049 -0.4678
  439SOL    HW2 1317   0.322   0.053   1.369  3.5337  0.8458 -0.9868
  440SOL     OW 1318   2.766   2.699   2.248 -0.0142 -0.3463 -0.2289
  440SOL    HW1 1319   2.798   2.693   2.344  2.8900 -0.6196 -0.5636
  440SOL    HW2 1320   2.666   2.672   2.240 -1.1330  0.9723 -0.7814
  441SOL     OW 1321   2.974   0.729   1.648 -0.4720  0.0334 -0.3375
  441SOL    HW1 1322   2.997   0.668   1.725 -1.3054  0.6478 -1.5195
  441SOL    HW2 1323   2.892   0.696   1.596 -1.5906 -0.5701 -1.7209
  442SOL     OW 1324   1.858   2.491   0.126 -0.2133  0.2480 -0.0367
  442SOL    HW1 1325   1.937   2.561   0.110  0.6624  1.5170 -1.2111
  442SOL    HW2 1326   1.771   2.547   0.140 -0.3537  1.1151  0.7453
  443SOL     OW 1327   0.400   0.799   2.836 -0.1493  0.7093 -0.3263
  443SOL    HW1 1328   0.317   0.754   2.871 -0.6098  3.0231 -0.9670
  443SOL    HW2 1329   0.394   0.900   2.855  0.3822 -1.0552  0.5845
  444SOL     OW 1330   1.534   1.631   2.257  0.0417  0.1366  0.0533
  444SOL    HW1 1331   1.569   1.533   2.248 -0.0780 -1.4020 -0.2947
  444SOL    HW2 1332   1.592   1.701   2.214 -0.1737  0.6365  0.7336
  445SOL     OW 1333   0.223   2.272   1.219 -0.2487  0.5524 -0.5101
  445SOL    HW1 1334   0.315   2.314   1.218 -1.2415  1.5706  0.4053
  445SOL    HW2 1335   0.216   2.174   1.200 -1.8097 -0.7084 -3.2640
  446SOL     OW 1336   2.485   1.480   1.420 -0.0621 -0.0634 -0.0699
  446SOL    HW1 1337   2.560   1.461   1.354 -1.0696  6.4782  3.3470
  446SOL    HW2 1338   2.415   1.541   1.382 -1.6509  1.3175  0.1440
  447SOL     OW 1339   0.300   0.556   0.246  0.1175 -0.0028 -0.2710
  447SOL    HW1 1340   0.300   0.541   0.347 -0.7554 -3.4752  0.0568
  447SOL    HW2 1341   0.234   0.480   0.206 -0.4722 -2.2620 -2.6655
  448SOL     OW 1342   1.551   2.131   1.895  0.4828  0.0470  0.0870
  448SOL    HW1 1343   1.471   2.181   1.854 -0.1560 -0.5071  1.2324
  448SOL    HW2 1344   1.507   2.067   1.966  0.6974 -1.1605  1.8572
  449SOL     OW 1345   0.974   1.276   0.091  0.2766 -0.1336 -0.2087
  449SOL    HW1 1346   0.914   1.193   0.107 -3.7848  1.4265  0.6820
  449SOL    HW2 1347   1.054   1.286   0.155  1.2980  0.1234 -0.9637
  450SOL     OW 1348   2.854   2.041   1.872 -0.1971 -0.0201  0.3253
  450SOL    HW1 1349   2.955   2.024   1.892  2.5346 -0.9111  1.2801
  450SOL    HW2 1350   2.800   1.954   1.886  1.2523 -1.6243  1.1112
  451SOL     OW 1351   2.750   1.130   2.524 -0.0862  0.5789 -0.2476
  451SOL    HW1 1352   2.754   1.228   2.550 -0.4797 -1.6013  0.7523
  451SOL    HW2 1353   2.732   1.074   2.607 -1.1908 -1.6140 -3.5204
  452SOL     OW 1354   1.527   0.625   1.148  0.2444 -0.2868 -0.0316
  452SOL    HW1 1355   1.463   0.571   1.201 -1.3922 -0.3130  0.0093
  452SOL    HW2 1356   1.607   0.644   1.209 -0.8402  0.4565 -0.9695
  453SOL     OW 1357   1.532   0.976   1.414 -0.7041  0.3434 -0.6058
  453SOL    HW1 1358   1.452   0.932   1.460 -0.7420  0.3045 -1.4459
  453SOL    HW2 1359   1.581   1.029   1.488 -1.5794 -0.8479 -1.2369
  454SOL     OW 1360   0.231   0.835   0.184 -0.8003  0.0573 -0.2152
  454SOL    HW1 1361   0.279   0.741   0.204  0.1978 -2.0467  0.7457
  454SOL    HW2 1362   0.145   0.824   0.132 -0.9388 -1.1959  1.3686
  455SOL     OW 1363   2.394   2.689   1.247  0.5430  0.1880 -0.4706
  455SOL    HW1 1364   2.446   2.690   1.334 -0.9617 -0.3564  1.1090
  455SOL    HW2 1365   2.452   2.656   1.169 -1.1279  0.3158  0.9395
  456SOL     OW 1366   0.339   2.558   1.232 -0.3449 -0.0278 -0.3704
  456SOL    HW1 1367   0.402   2.564   1.314 -0.3402  1.7782  1.3073
  456SOL    HW2 1368   0.260   2.622   1.236  1.2624  2.6543 -0.4902
  457SOL     OW 1369   1.570   3.010   0.620  0.2720  0.3836  0.3726
  457SOL    HW1 1370   1.523   2.946   0.554  0.2756  0.1270  0.9597
  457SOL    HW2 1371   1.573   3.107   0.590 -0.7631  0.0754  1.3957
  458SOL     OW 1372   2.656   0.145   1.388 -0.2684  0.2685  0.5679
  458SOL    HW1 1373   2.647   0.115   1.486  0.4988  3.6292  1.2633
  458SOL    HW2 1374   2.716   0.226   1.378  0.6114 -1.0962  1.5094
  459SOL     OW 1375   2.425   0.679   3.004 -0.0610 -0.1258  0.3556
  459SOL    HW1 1376   2.336   0.664   3.055 -3.2477  1.2219  1.5070
  459SOL    HW2 1377   2.506   0.638   3.052  1.2593  1.3223  0.2158
  460SOL     OW 1378   2.674   2.478   2.791 -0.2733 -0.4738  0.1158
  460SOL    HW1 1379   2.660   2.564   2.742  2.0143 -1.4848  1.2089
  460SOL    HW2 1380   2.667   2.493   2.890  1.6216  0.1049  0.0339
  461SOL     OW 1381   0.624   1.817   0.274  0.0078 -0.2640  0.3042
  461SOL    HW1 1382   0.721   1.785   0.273 -1.6183  0.6219 -1.7405
  461SOL    HW2 1383   0.574   1.774   0.196 -1.3793 -0.1102  1.5598
  462SOL     OW 1384   2.251   2.003   0.802  0.1384 -0.0373 -0.2348
  462SOL    HW1 1385   2.199   1.934   0.744 -1.4648  0.8296 -2.9387
  462SOL    HW2 1386   2.188   2.075   0.843  0.5010  0.8332 -0.4113
  463SOL     OW 1387   2.862   0.837   0.823  0.3228 -0.1296  0.1722
  463SOL    HW1 1388   2.878   0.869   0.729  0.3455 -0.8957  4.4906
  463SOL    HW2 1389   2.926   0.767   0.851 -1.8123 -0.8019 -0.6063
  464SOL     OW 1390   1.198   2.953   0.604 -0.1236 -0.1299  0.1314
  464SOL    HW1 1391   1.102   2.927   0.577 -1.2076 -2.7320  0.3692
  464SOL    HW2 1392   1.224   2.892   0.680 -0.2713 -0.2648  1.2234
  465SOL     OW 1393   2.236   1.097   0.611 -0.5773 -0.2757  0.6513
  465SOL    HW1 1394   2.191   1.023   0.664  0.8039 -3.0632  1.8573
  465SOL    HW2 1395   2.202   1.104   0.516  3.6527  0.7159 -3.3867
  466SOL     OW 1396   2.494   0.141   3.030 -0.2012 -0.0823 -0.7973
  466SOL    HW1 1397   2.414   0.169   2.974 -0.9076  1.2707 -2.3597
  466SOL    HW2 1398   2.535   0.222   3.076 -3.7616  1.3975 -1.2141
  467SOL     OW 1399   1.040   1.100   1.396 -0.3120 -0.0783  0.2228
  467SOL    HW1 1400   1.045   1.133   1.493 -0.0098 -0.3773 -0.2005
  467SOL    HW2 1401   1.080   1.005   1.383  0.1131 -0.6702 -1.2541
  468SOL     OW 1402   0.419   0.919   2.224 -0.4483  0.0824  0.2421
  468SOL    HW1 1403   0.392   0.975   2.141 -1.7318  0.7834  1.0773
  468SOL    HW2 1404   0.333   0.884   2.266  1.0272 -0.2020 -1.1126
  469SOL     OW 1405   0.648   2.678   0.083  0.1379  0.4584 -0.3337
  469SOL    HW1 1406   0.582   2.601   0.059  0.1467 -1.6356 -0.7330
  469SOL    HW2 1407   0.743   2.641   0.093  1.7642  1.7594  0.8910
  470SOL     OW 1408   2.462   1.204   2.796  0.2181 -0.1536 -0.4944
  470SOL    HW1 1409   2.461   1.116   2.854  0.9488 -1.3929  2.8504
  470SOL    HW2 1410   2.555   1.246   2.803  0.3147 -1.3519 -0.6775
  471SOL     OW 1411   2.651   1.171   2.272 -0.1417  0.5030  0.1455
  471SOL    HW1 1412   2.725   1.156   2.206 -2.0027  2.5316 -0.3312
  471SOL    HW2 1413   2.683   1.155   2.366 -1.0154  0.7251 -1.8198
  472SOL     OW 1414   0.558   2.296   0.344  0.5873  0.1823  0.1590
  472SOL    HW1 1415   0.480   2.357   0.376 -0.5138 -1.0627  0.2355
  472SOL    HW2 1416   0.648   2.317   0.387  0.3452  0.3550  0.7799
  473SOL     OW 1417   0.670   0.077   0.004 -0.7681  0.0975 -0.0131
  473SOL    HW1 1418   0.642   3.087   0.003 -1.7140 -0.5264  1.5623
  473SOL    HW2 1419   0.601   0.137   3.062 -1.6069 -0.6741 -1.5313
  474SOL     OW 1420   1.815   0.439   2.185 -0.0732  0.3201  0.8627
  474SOL    HW1 1421   1.783   0.511   2.119 -1.7207  0.1753 -1.6521
  474SOL    HW2 1422   1.736   0.377   2.203 -1.2091 -1.4429  0.9795
  475SOL     OW 1423   0.905   2.544   0.117 -0.2540 -0.3445  0.0643
  475SOL    HW1 1424   0.954   2.466   0.155  1.4228  2.9042  2.3971
  475SOL    HW2 1425   0.946   2.554   0.023  0.0738  0.4316 -2.0551
  476SOL     OW 1426   0.351   1.132   0.931  0.1808 -0.2416 -0.3209
  476SOL    HW1 1427   0.422   1.119   0.995 -1.0542  0.4892  0.6369
  476SOL    HW2 1428   0.369   1.209   0.868  0.5763 -0.6611  1.8037
  477SOL     OW 1429   1.710   2.472   1.339 -0.4365  0.2496 -0.0984
  477SOL    HW1 1430   1.611   2.496   1.363 -1.0683 -1.7061 -1.1077
  477SOL    HW2 1431   1.715   2.458   1.239  1.2832 -1.0562  3.8328
  478SOL     OW 1432   0.612   1.521   2.332  0.6337  0.1507  0.4612
  478SOL    HW1 1433   0.715   1.517   2.331 -0.5659 -1.7727 -1.0663
  478SOL    HW2 1434   0.574   1.613   2.323  1.3597 -2.7529 -3.0093
  479SOL     OW 1435   0.215   2.801   1.268  0.3412  0.0498  0.3794
  479SOL    HW1 1436   0.142   2.833   1.334 -0.8261  0.5733  1.2456
  479SOL    HW2 1437   0.310   2.829   1.300  0.3086 -0.1795 -1.5348
  480SOL     OW 1438   2.891   2.994   0.238 -0.0977  0.2595  0.1202
  480SOL    HW1 1439   2.836   3.075   0.204  1.1001 -0.0396  0.5378
  480SOL    HW2 1440   2.831   2.915   0.257 -0.4580 -1.5226 -1.1427
  481SOL     OW 1441   2.985   2.938   0.976  0.2631 -0.1915 -0.5441
  481SOL    HW1 1442   3.059   2.997   0.945 -2.3027 -1.2212  0.9389
  481SOL    HW2 1443   2.973   2.861   0.914  1.9882 -0.2287  1.9204
  482SOL     OW 1444   1.715   2.279   2.089  0.2058  0.2486 -0.2567
  482SOL    HW1 1445   1.670   2.198   2.042 -1.4640  0.1463  0.5135
  482SOL    HW2 1446   1.772   2.332   2.019  3.1631 -0.4133 -1.4871
  483SOL     OW 1447   0.546   1.530   2.767  0.1183  0.3572 -0.1885
  483SOL    HW1 1448   0.622   1.472   2.730  1.0043  0.5111 -1.2037
  483SOL    HW2 1449   0.571   1.629   2.765 -1.7316 -1.1593 -0.2642
  484SOL     OW 1450   1.128   1.215   2.483 -0.2371 -0.4807  0.2058
  484SOL    HW1 1451   1.050   1.201   2.417 -1.0942  0.8535  1.5118
  484SOL    HW2 1452   1.116   1.307   2.522  0.0168  0.6732  3.5445
  485SOL     OW 1453   2.952   0.241   0.442  0.0775  0.0314 -0.0494
  485SOL    HW1 1454   2.852   0.220   0.464  0.1840 -1.9734  1.7322
  485SOL    HW2 1455   2.993   0.174   0.382 -3.5728  1.5364  2.9595
  486SOL     OW 1456   1.596   2.790   0.937  0.4400 -0.5755 -0.0836
  486SOL    HW1 1457   1.594   2.761   1.036 -0.5215  0.8734  1.5312
  486SOL    HW2 1458   1.540   2.876   0.927  1.3809  1.4471 -3.1185
  487SOL     OW 1459   0.988   2.300   0.988  0.0240  0.1096 -0.3178
  487SOL    HW1 1460   0.914   2.283   0.924  2.7517 -1.1105  1.5216
  487SOL    HW2 1461   1.018   2.400   0.990  3.6387  2.8722 -3.4543
  488SOL     OW 1462   2.263   1.257   0.144 -0.6084 -0.2305 -0.0844
  488SOL    HW1 1463   2.276   1.355   0.164  0.8761  1.8932  1.2795
  488SOL    HW2 1464   2.165   1.233   0.136  1.7008 -0.2700  3.3726
  489SOL     OW 1465   1.268   2.714   1.118 -0.0749 -0.2704 -0.4623
  489SOL    HW1 1466   1.236   2.753   1.208 -2.0016  3.6170 -1.0065
  489SOL    HW2 1467   1.369   2.707   1.122 -1.7683 -2.1317 -0.7745
  490SOL     OW 1468   0.849   1.048   0.170 -0.3293 -0.2305  0.4949
  490SOL    HW1 1469   0.911   0.981   0.130 -1.7025 -2.9612  3.6770
  490SOL    HW2 1470   0.759   1.007   0.203 -2.1043 -0.8058  2.1581
  491SOL     OW 1471   0.908   3.036   0.932  0.0123  0.4026  0.2060
  491SOL    HW1 1472   1.003   2.993   0.955  1.7425  1.4310 -1.3774
  491SOL    HW2 1473   0.836   2.967   0.959  0.4944  0.0906  2.6044
  492SOL     OW 1474   1.301   1.508   2.253  0.2647 -0.0253 -0.4646
  492SOL    HW1 1475   1.225   1.539   2.310  2.1862 -1.4381 -0.8396
  492SOL    HW2 1476   1.384   1.564   2.263 -0.7616 -3.6387  0.2845
  493SOL     OW 1477   0.343   2.497   0.484  0.0140  0.1312 -0.2468
  493SOL    HW1 1478   0.301   2.404   0.473 -0.5114  1.0407  0.5631
  493SOL    HW2 1479   0.322   2.557   0.400 -0.7263  2.5962 -2.5882
  494SOL     OW 1480   2.216   1.842   0.094  0.0609 -0.5111 -0.2896
  494SOL    HW1 1481   2.283   1.914   0.075  0.8585 -2.2649  0.1184
  494SOL    HW2 1482   2.255   1.750   0.081  0.0330 -2.1052 -0.0031
  495SOL     OW 1483   2.678   1.353   2.867  1.0000  0.1021  0.6663
  495SOL    HW1 1484   2.753   1.287   2.878 -2.5478 -0.0584 -0.5868
  495SOL    HW2 1485   2.643   1.388   2.954 -2.5098 -2.7268 -2.7913
  496SOL     OW 1486   2.655   0.117   1.646 -0.1702  0.1076  1.0296
  496SOL    HW1 1487   2.630   0.047   1.719  0.0447 -0.1199  1.1157
  496SOL    HW2 1488   2.587   0.191   1.640 -0.6705 -0.8547  1.8138
  497SOL     OW 1489   2.698   1.081   0.493 -0.0020  0.0664 -0.1909
  497SOL    HW1 1490   2.623   1.039   0.550 -0.3598 -0.0773  0.1684
  497SOL    HW2 1491   2.787   1.053   0.536  0.9370  1.3030 -0.6664
  498SOL     OW 1492   2.849   2.164   2.536  0.1061 -0.3356  0.0970
  498SOL    HW1 1493   2.809   2.180   2.629  0.1670 -0.3568  0.0712
  498SOL    HW2 1494   2.948   2.159   2.546 -3.7060 -0.4167  0.1313
  499SOL     OW 1495   1.007   2.316   0.219  0.0146  0.0158  0.7969
  499SOL    HW1 1496   1.082   2.245   0.223 -1.0539  0.9655 -1.9205
  499SOL    HW2 1497   0.971   2.340   0.310 -2.1360 -2.9480  1.1451
  500SOL     OW 1498   0.868   0.179   2.627  0.0181  0.1653  0.7608
  500SOL    HW1 1499   0.845   0.197   2.725  0.8001  2.3160 -1.1754
  500SOL    HW2 1500   0.808   0.104   2.600 -0.4413  1.8386 -0.5817
  501SOL     OW 1501   1.255   3.069   1.399 -0.0584 -0.5169  0.9750
  501SOL    HW1 1502   1.327   3.026   1.456  2.4256 -0.0431 -0.3336
  501SOL    HW2 1503   1.282   0.053   1.375 -0.1031 -3.1883 -3.6640
  502SOL     OW 1504   2.993   0.136   2.089 -0.5815  0.4001 -0.0581
  502SOL    HW1 1505   3.076   0.174   2.048 -3.3551 -0.6955 -1.0289
  502SOL    HW2 1506   2.912   0.161   2.030 -2.3890 -0.3790  0.7570
  503SOL     OW 1507   2.262   1.872   2.354 -0.5649 -0.1801  0.1811
  503SOL    HW1 1508   2.171   1.827   2.343 -0.5201 -1.2411  1.5927
  503SOL    HW2 1509   2.263   1.958   2.297  0.7977  0.9073 -1.4158
  504SOL     OW 1510   1.458   0.553   1.915  0.1177 -0.3825 -0.2608
  504SOL    HW1 1511   1.395   0.478   1.895  1.3124  1.2754  0.3512
  504SOL    HW2 1512   1.555   0.528   1.906  0.3878  1.8535 -0.6049
  505SOL     OW 1513   2.763   1.122   1.424  0.4562 -0.4151 -0.1404
  505SOL    HW1 1514   2.771   1.223   1.450  2.4154  0.1167  3.1615
  505SOL    HW2 1515   2.834   1.099   1.359  1.8151  0.1922  3.2357
  506SOL     OW 1516   0.583   1.273   2.436  0.2211  0.0986  0.2501
  506SOL    HW1 1517   0.516   1.230   2.374  0.6889 -1.1690  1.3321
  506SOL    HW2 1518   0.592   1.373   2.409  1.8500  0.7614  0.7170
  507SOL     OW 1519   0.417   2.985   2.241  0.1458 -0.2883 -0.3048
  507SOL    HW1 1520   0.488   3.049   2.200 -0.3574  0.3136 -4.1122
  507SOL    HW2 1521   0.437   2.886   2.228  1.8915 -0.0873 -0.8552
  508SOL     OW 1522   1.141   0.856   1.346 -0.2117 -0.5002 -0.1118
  508SOL    HW1 1523   1.222   0.814   1.386  0.7488 -4.1686 -0.3815
  508SOL    HW2 1524   1.068   0.793   1.321  1.8319  2.3826  1.7720
  509SOL     OW 1525   0.777   1.749   1.516  0.4290  0.1532 -0.3332
  509SOL    HW1 1526   0.779   1.768   1.616  0.2828  0.2960 -0.3848
  509SOL    HW2 1527   0.875   1.751   1.483 -2.6347 -0.7687 -1.3849
  510SOL     OW 1528   2.737   0.891   2.400  0.3704 -0.2617 -0.5641
  510SOL    HW1 1529   2.725   0.831   2.479  2.3624 -1.2893 -0.8478
  510SOL    HW2 1530   2.741   0.987   2.433  1.4827 -1.6455 -1.6757
  511SOL     OW 1531   0.455   1.540   1.286  0.1107  0.4024 -0.1479
  511SOL    HW1 1532   0.376   1.528   1.354 -1.5038 -2.8009  0.0664
  511SOL    HW2 1533   0.455   1.634   1.247 -1.2547 -1.9889  0.2538
  512SOL     OW 1534   2.647   2.218   0.756 -0.0751 -0.1472 -0.2809
  512SOL    HW1 1535   2.608   2.260   0.670 -1.7916  0.7397  2.5637
  512SOL    HW2 1536   2.579   2.243   0.828  2.2272  1.0100 -0.7242
  513SOL     OW 1537   2.944   1.205   2.862 -0.2481  0.6131 -0.4514
  513SOL    HW1 1538   3.022   1.162   2.808  0.2227 -1.6119 -0.3634
  513SOL    HW2 1539   2.985   1.256   2.942 -1.6059 -1.2280  2.2585
  514SOL     OW 1540   0.371   2.161   3.002  0.5141 -0.0200 -0.5009
  514SOL    HW1 1541   0.328   2.116   2.921 -0.4494  2.3065 -0.1402
  514SOL    HW2 1542   0.471   2.178   2.993 -1.8764 -0.2598  0.1004
  515SOL     OW 1543   1.732   1.416   2.082  0.0730  0.5490  0.6144
  515SOL    HW1 1544   1.812   1.360   2.058 -2.7640  0.9593  0.1119
  515SOL    HW2 1545   1.696   1.386   2.173  0.2574  0.4525  0.5163
  516SOL     OW 1546   2.038   2.176   3.056 -0.2781  0.4218  0.1143
  516SOL    HW1 1547   2.109   2.240   3.025 -1.8356 -1.5014  0.2302
  516SOL    HW2 1548   2.010   2.114   2.972 -1.0224 -1.4412 -3.3156
  517SOL     OW 1549   1.447   1.206   0.296  0.4691  0.1746  0.4193
  517SOL    HW1 1550   1.465   1.191   0.395  1.2813  3.9527 -2.8847
  517SOL    HW2 1551   1.453   1.118   0.243 -0.0968 -0.3897 -0.2114
  518SOL     OW 1552   2.455   2.889   1.985 -0.2952 -0.3250 -0.0315
  518SOL    HW1 1553   2.478   2.869   2.081  0.3831 -1.0072 -3.9280
  518SOL    HW2 1554   2.395   2.815   1.954  0.3945  1.9023 -2.3322
  519SOL     OW 1555   1.696   2.373   1.706 -0.0719 -0.4121  0.1588
  519SOL    HW1 1556   1.704   2.286   1.652  0.4489  0.7986  0.6215
  519SOL    HW2 1557   1.605   2.381   1.747  3.1594 -2.7251 -2.6709
  520SOL     OW 1558   2.557   2.723   2.661 -0.3507  0.4301  0.2647
  520SOL    HW1 1559   2.534   2.817   2.649 -2.6255 -3.3828 -1.1000
  520SOL    HW2 1560   2.471   2.667   2.670 -0.0685  0.1805 -0.7025
  521SOL     OW 1561   0.118   1.167   1.985 -0.3359  0.3564 -0.5897
  521SOL    HW1 1562   0.105   1.229   1.907  2.3471 -0.4545  0.3794
  521SOL    HW2 1563   0.107   1.211   2.078  0.7015  1.5702  2.4414
  522SOL     OW 1564   0.857   0.239   1.744 -0.2476 -0.2961 -0.4372
  522SOL    HW1 1565   0.910   0.324   1.782 -0.2188  6.1387 -1.6516
  522SOL    HW2 1566   0.794   0.265   1.667 -1.4743 -1.0979 -0.9985
  523SOL     OW 1567   0.596   2.346   0.954  0.1262 -0.4952  0.0236
  523SOL    HW1 1568   0.661   2.318   0.879  0.4079 -0.1764  0.8066
  523SOL    HW2 1569   0.499   2.338   0.926 -0.2474  1.5051 -1.5693
  524SOL     OW 1570   1.479   2.638   0.751 -0.0176  0.1465 -0.3948
  524SOL    HW1 1571   1.526   2.706   0.814  0.5139  1.1535 -1.9693
  524SOL    HW2 1572   1.479   2.546   0.794 -3.3435 -1.9641  1.4038
  525SOL     OW 1573   2.220   0.711   1.194 -0.1102  0.2686  0.1315
  525SOL    HW1 1574   2.261   0.793   1.243  2.0355 -1.2336  0.8239
  525SOL    HW2 1575   2.213   0.738   1.097 -2.6567 -0.0282  0.2084
  526SOL     OW 1576   1.016   2.584   0.771 -0.3158 -0.3895  0.4380
  526SOL    HW1 1577   1.063   2.533   0.700  1.5227  4.3048  1.0704
  526SOL    HW2 1578   0.929   2.633   0.737  1.7345  3.3394  0.5327
  527SOL     OW 1579   2.452   2.104   0.409  0.0856 -0.5005 -0.4433
  527SOL    HW1 1580   2.433   2.009   0.436 -0.4425 -0.5875 -0.5633
  527SOL    HW2 1581   2.368   2.161   0.420 -1.6067  1.4107 -1.7677
  528SOL     OW 1582   2.287   0.669   0.443  0.4872 -0.3090 -0.0915
  528SOL    HW1 1583   2.250   0.740   0.381 -0.1345 -0.2396  2.6736
  528SOL    HW2 1584   2.218   0.604   0.478 -2.4925  0.4800 -0.4912
  529SOL     OW 1585   1.342   1.247   2.308 -0.4076 -0.5445  0.2525
  529SOL    HW1 1586   1.285   1.222   2.385  1.4877 -1.6334 -2.0359
  529SOL    HW2 1587   1.358   1.350   2.305  1.2031 -1.0130  1.6664
  530SOL     OW 1588   2.627   0.681   0.092  0.1146  0.0973  0.2418
  530SOL    HW1 1589   2.694   0.676   0.018 -1.4508  2.4618 -0.9321
  530SOL    HW2 1590   2.645   0.757   0.157  0.6278 -0.4891  0.7976
  531SOL     OW 1591   0.998   1.048   0.420  0.1122 -0.5555 -0.3198
  531SOL    HW1 1592   0.970   1.092   0.330 -0.6378  1.2119  0.1075
  531SOL    HW2 1593   0.925   0.988   0.450 -0.9381  0.0837 -2.4580
  532SOL     OW 1594   1.974   0.110   0.775 -0.3764  0.2057 -0.3272
  532SOL    HW1 1595   1.925   0.102   0.864 -2.2890 -0.7334 -0.3856
  532SOL    HW2 1596   2.031   0.194   0.769  2.7365 -2.0776  3.3194
  533SOL     OW 1597   1.547   1.068   2.276  0.4324  0.2930  0.0098
  533SOL    HW1 1598   1.469   1.125   2.302  0.3557  3.0339 -0.8236
  533SOL    HW2 1599   1.531   1.026   2.185 -0.0803  0.9465 -0.8551
  534SOL     OW 1600   1.940   3.104   2.835 -0.1812  0.8826 -0.1246
  534SOL    HW1 1601   2.037   3.080   2.846  0.0631  0.1528 -1.7509
  534SOL    HW2 1602   1.881   3.019   2.824  1.7228  0.5567  0.2866
  535SOL     OW 1603   0.400   3.054   0.343 -0.5691 -0.4435  0.3887
  535SOL    HW1 1604   0.447   0.034   0.343 -1.2865  0.0395  0.6130
  535SOL    HW2 1605   0.471   2.980   0.341 -0.8248 -0.9646  1.2250
  536SOL     OW 1606   0.720   2.806   0.996  0.0512 -0.0546 -0.1059
  536SOL    HW1 1607   0.653   2.744   1.044 -1.6299 -2.4003  3.1990
  536SOL    HW2 1608   0.811   2.783   1.035 -0.3989  2.2542  0.5581
  537SOL     OW 1609   1.517   0.947   1.142 -0.4330 -0.9874  0.1388
  537SOL    HW1 1610   1.513   0.845   1.127  2.1048  4.6187 -0.7113
  537SOL    HW2 1611   1.534   0.971   1.240 -1.8286  0.4860  2.4480
  538SOL     OW 1612   2.577   2.437   0.229 -0.1234  0.4954 -0.2981
  538SOL    HW1 1613   2.676   2.441   0.261  2.5384  0.2431 -1.1181
  538SOL    HW2 1614   2.535   2.528   0.235 -0.8933 -2.0155 -3.4548
  539SOL     OW 1615   2.786   1.828   2.746  0.6139  0.3212  0.0387
  539SOL    HW1 1616   2.708   1.892   2.728  0.7743  1.0312 -0.1701
  539SOL    HW2 1617   2.849   1.828   2.668 -2.1809  2.1496  2.3993
  540SOL     OW 1618   0.247   2.808   1.664  0.6892 -0.6070 -0.0688
  540SOL    HW1 1619   0.211   2.712   1.657 -2.1474 -1.6466 -1.2388
  540SOL    HW2 1620   0.199   2.864   1.591  0.2087 -1.2781 -1.0212
  541SOL     OW 1621   2.566   0.002   1.882 -0.4232  0.1333  0.0530
  541SOL    HW1 1622   2.609   0.047   1.959 -0.1395 -1.4222 -0.8783
  541SOL    HW2 1623   2.533   3.015   1.913  0.5073 -4.0695  2.0833
  542SOL     OW 1624   2.973   0.550   2.284  0.4855  0.6444 -0.3546
  542SOL    HW1 1625   2.972   0.650   2.263  0.0549  3.4410 -0.4640
  542SOL    HW2 1626   2.990   0.502   2.196  3.0207 -2.4027 -2.7296
  543SOL     OW 1627   1.067   0.295   0.761 -0.5649 -0.0727 -0.2234
  543SOL    HW1 1628   1.122   0.371   0.717 -1.0083  0.9157  0.8536
  543SOL    HW2 1629   1.126   0.213   0.754  1.7925 -2.7950 -1.7099
  544SOL     OW 1630   2.696   2.480   0.867 -0.2054 -0.2739  0.0945
  544SOL    HW1 1631   2.787   2.442   0.883 -1.2998 -1.1590  0.5510
  544SOL    HW2 1632   2.627   2.405   0.864  3.6250  2.0243  0.7116
  545SOL     OW 1633   0.898   1.778   0.320 -0.1530 -0.1008 -0.0632
  545SOL    HW1 1634   0.959   1.781   0.239  0.4337 -0.4803 -1.4465
  545SOL    HW2 1635   0.930   1.713   0.390 -1.5879  1.2694 -3.8896
  546SOL     OW 1636   2.320   0.388   1.858  0.2063 -0.3546 -0.8456
  546SOL    HW1 1637   2.296   0.291   1.870  1.1279  0.3267  0.6867
  546SOL    HW2 1638   2.323   0.438   1.949 -0.5614  0.4297 -1.0443
  547SOL     OW 1639   0.145   0.289   2.237 -0.1342  0.4987 -0.7252
  547SOL    HW1 1640   0.143   0.380   2.279 -0.8340  0.7655 -0.5142
  547SOL    HW2 1641   0.122   0.219   2.310 -4.6404 -2.4614  1.7434
  548SOL     OW 1642   2.031   1.729   2.302  0.5222 -0.1293  0.2263
  548SOL    HW1 1643   2.046   1.630   2.283 -0.0142  2.0272 -1.8647
  548SOL    HW2 1644   1.958   1.755   2.368  0.9600  2.8548  0.7089
  549SOL     OW 1645   0.032   0.749   0.804  0.1478 -0.0680  0.5108
  549SOL    HW1 1646   0.057   0.745   0.708 -1.8174  1.0602  1.3230
  549SOL    HW2 1647   0.075   0.830   0.854  1.1785  2.4870  1.3449
  550SOL     OW 1648   1.516   1.468   0.603 -0.1560 -0.3953  0.2641
  550SOL    HW1 1649   1.499   1.371   0.594  0.4310  3.2665  1.1204
  550SOL    HW2 1650   1.602   1.498   0.555  0.2413  0.8531  3.4622
  551SOL     OW 1651   0.937   0.380   1.177  0.2623 -0.3860 -0.5593
  551SOL    HW1 1652   0.922   0.413   1.082 -0.3841 -2.1725  0.6174
  551SOL    HW2 1653   1.022   0.327   1.183 -1.3462 -0.6329 -0.1474
  552SOL     OW 1654   2.428   2.496   1.851 -0.1157 -0.7121 -0.2852
  552SOL    HW1 1655   2.360   2.577   1.850 -2.7492  3.6389  2.6504
  552SOL    HW2 1656   2.423   2.440   1.936 -1.9098  0.9978  1.6079
  553SOL     OW 1657   3.085   3.028   2.976  0.6006  0.1302  0.0816
  553SOL    HW1 1658   0.020   2.970   3.051 -0.4386 -1.3477  0.5952
  553SOL    HW2 1659   0.036   3.047   2.895  0.5359  1.2092  0.5131
  554SOL     OW 1660   1.036   2.635   1.570 -0.0629 -0.4864  0.4450
  554SOL    HW1 1661   1.067   2.548   1.619  0.9393 -1.0700  0.7811
  554SOL    HW2 1662   1.052   2.725   1.618 -0.0206  2.0563 -0.2134
  555SOL     OW 1663   2.564   2.725   1.455  0.2176 -0.1114 -0.0504
  555SOL    HW1 1664   2.580   2.712   1.554 -0.0969 -1.4542  0.4474
  555SOL    HW2 1665   2.636   2.697   1.388 -2.1505  0.1321 -1.3213
  556SOL     OW 1666   1.096   0.127   2.991 -0.8318 -0.2872 -0.1721
  556SOL    HW1 1667   1.170   0.169   2.927  3.1004 -0.4579 -3.4042
  556SOL    HW2 1668   1.113   0.143   3.089 -0.6480 -0.3838  1.2410
  557SOL     OW 1669   0.120   2.001   2.166 -0.2137  0.1873 -0.0031
  557SOL    HW1 1670   0.184   1.947   2.229 -0.0130 -2.2646  0.7336
  557SOL    HW2 1671   0.026   2.009   2.203  2.4436  1.9602  1.2611
  558SOL     OW 1672   2.273   1.218   2.600 -0.3567  0.5169 -0.2376
  558SOL    HW1 1673   2.349   1.211   2.665 -0.1340 -2.4413 -0.6596
  558SOL    HW2 1674   2.248   1.317   2.590 -2.0132 -2.3949 -1.6982
  559SOL     OW 1675   2.374   2.377   2.094  0.0545  0.2328 -0.0116
  559SOL    HW1 1676   2.440   2.305   2.114 -2.2975 -1.8142 -0.9809
  559SOL    HW2 1677   2.282   2.334   2.086 -1.5167 -0.0387  1.8695
  560SOL     OW 1678   0.135   0.545   2.329 -0.3060 -0.3785 -0.5938
  560SOL    HW1 1679   0.151   0.584   2.425 -2.3334  0.3080 -0.8916
  560SOL    HW2 1680   0.037   0.551   2.305  1.1316 -1.3227 -0.7056
  561SOL     OW 1681   0.726   0.465   0.279 -0.3765  0.1058  0.7916
  561SOL    HW1 1682   0.712   0.455   0.382 -0.3934 -0.3011 -0.5348
  561SOL    HW2 1683   0.820   0.430   0.245 -0.0105 -1.7817 -1.1334
  562SOL     OW 1684   0.829   1.397   1.668 -0.3285  0.0636  0.5333
  562SOL    HW1 1685   0.775   1.433   1.590 -0.7659 -1.2327  0.2921
  562SOL    HW2 1686   0.766   1.354   1.736 -0.5697 -0.6211 -0.8669
  563SOL     OW 1687   1.457   2.847   0.113  0.1723 -0.1788 -0.3475
  563SOL    HW1 1688   1.491   2.933   0.166  2.1821 -1.3527  1.0996
  563SOL    HW2 1689   1.379   2.865   0.051  0.1859 -0.0442 -0.6150
  564SOL     OW 1690   0.077   2.042   0.545 -0.8567  0.1715  1.3868
  564SOL    HW1 1691   0.125   1.987   0.472 -0.9216 -1.6185 -0.0879
  564SOL    HW2 1692   0.094   1.995   0.633  0.8280 -2.1830  1.8939
  565SOL     OW 1693   0.471   2.267   2.326 -0.1563 -0.4536  0.5303
  565SOL    HW1 1694   0.425   2.269   2.231 -0.9376 -2.3144 -1.5196
  565SOL    HW2 1695   0.551   2.334   2.327 -1.8464  1.8922 -0.1824
  566SOL     OW 1696   1.413   2.653   2.372 -0.3705  0.6751  0.1804
  566SOL    HW1 1697   1.455   2.621   2.455 -1.5198  1.3424  0.5262
  566SOL    HW2 1698   1.443   2.597   2.292 -0.4920  1.1777 -0.5568
  567SOL     OW 1699   1.997   2.006   1.096  0.0498 -0.4644 -0.1965
  567SOL    HW1 1700   1.967   1.982   1.004  2.9292  2.1920 -0.8515
  567SOL    HW2 1701   2.045   2.097   1.098  0.5586  0.6042  0.1626
  568SOL     OW 1702   2.190   0.817   0.257  0.8405 -0.5170 -0.7942
  568SOL    HW1 1703   2.204   0.773   0.166 -0.6211 -0.5175 -0.8161
  568SOL    HW2 1704   2.091   0.854   0.264 -1.2528  2.0967 -2.3836
  569SOL     OW 1705   2.761   1.392   2.601 -0.3762  0.3703  0.1429
  569SOL    HW1 1706   2.860   1.423   2.580  1.5834  1.0041  0.1305
  569SOL    HW2 1707   2.745   1.414   2.698  3.3769  1.8226  0.4161
  570SOL     OW 1708   2.893   2.993   1.465  0.0281  0.0519  0.3633
  570SOL    HW1 1709   2.827   2.959   1.531 -1.2901  0.8622  0.3280
  570SOL    HW2 1710   2.872   2.951   1.372  0.1038  2.3902  0.9175
  571SOL     OW 1711   0.234   0.645   1.791 -0.1475 -0.2483  0.9407
  571SOL    HW1 1712   0.151   0.591   1.818 -0.6843 -0.0470 -1.6912
  571SOL    HW2 1713   0.298   0.583   1.747  1.4471 -1.6029 -0.0489
  572SOL     OW 1714   3.011   2.451   0.687 -0.5671 -0.3685  0.0604
  572SOL    HW1 1715   0.002   2.444   0.685  1.6456  1.2663 -1.9395
  572SOL    HW2 1716   2.983   2.391   0.763  0.9182 -1.0225  0.8170
  573SOL     OW 1717   0.815   0.702   3.109 -0.4975  0.1715 -0.0016
  573SOL    HW1 1718   0.740   0.670   3.047 -1.7739 -0.4551  1.0723
  573SOL    HW2 1719   0.772   0.705   0.096 -0.9692  3.0180  0.3541
  574SOL     OW 1720   2.633   2.528   3.057  0.0541 -0.1066  0.1467
  574SOL    HW1 1721   2.703   2.606   3.068  2.8194  2.1829  0.3763
  574SOL    HW2 1722   2.627   2.474   0.036  0.4014 -3.1097  3.3465
  575SOL     OW 1723   1.018   1.743   1.426 -0.3459  0.0213 -0.4003
  575SOL    HW1 1724   1.005   1.748   1.327 -0.6631 -0.3428  2.1082
  575SOL    HW2 1725   1.102   1.796   1.457 -0.3202 -1.4496  1.9061
  576SOL     OW 1726   0.065   2.933   1.480 -0.1512 -0.1751  0.2631
  576SOL    HW1 1727   0.105   3.025   1.452 -0.7941 -0.2353 -0.0333
  576SOL    HW2 1728   3.072   2.934   1.475 -2.1029 -0.9753 -1.4558
  577SOL     OW 1729   1.828   1.237   1.562 -0.1030 -0.0394 -0.2157
  577SOL    HW1 1730   1.808   1.301   1.636 -2.3872 -2.4586 -2.6687
  577SOL    HW2 1731   1.752   1.247   1.498 -1.6482 -0.4842 -0.1619
  578SOL     OW 1732   1.471   0.125   0.069  0.4301 -0.2886 -0.2140
  578SOL    HW1 1733   1.464   0.089   3.083  0.6642 -0.1695 -0.8533
  578SOL    HW2 1734   1.527   0.211   0.079 -2.3485 -1.1946 -3.4576
  579SOL     OW 1735   2.766   1.618   2.380  0.2487 -0.3322 -0.1323
  579SOL    HW1 1736   2.686   1.601   2.432  2.7328 -0.2668 -1.8771
  579SOL    HW2 1737   2.805   1.541   2.328  1.7240  1.7715 -0.8366
  580SOL     OW 1738   1.362   0.780   1.525 -0.0167  0.2686  0.0771
  580SOL    HW1 1739   1.341   0.787   1.627 -1.2617 -1.7609  2.0494
  580SOL    HW2 1740   1.430   0.703   1.506  3.1499 -2.1418  0.1843
  581SOL     OW 1741   0.661   1.518   1.458 -0.1384  0.1873  0.5242
  581SOL    HW1 1742   0.574   1.534   1.401 -1.2460  1.0202  1.5190
  581SOL    HW2 1743   0.699   1.606   1.488 -3.1748  0.7410 -1.0302
  582SOL     OW 1744   2.935   2.935   1.870  0.6658 -0.2084  0.1851
  582SOL    HW1 1745   2.941   2.951   1.973  0.9154 -0.0704 -1.4388
  582SOL    HW2 1746   2.844   2.968   1.832 -1.3644  1.2724 -0.2889
  583SOL     OW 1747   2.186   0.905   1.584 -0.4869 -0.1776 -0.1707
  583SOL    HW1 1748   2.196   0.844   1.664  1.2349 -0.7392 -2.6070
  583SOL    HW2 1749   2.223   0.997   1.603  1.9295  1.5292 -0.6477
  584SOL     OW 1750   1.435   2.268   2.915  0.2315 -0.1567  0.3075
  584SOL    HW1 1751   1.381   2.216   2.844 -1.6583  1.7700 -0.2613
  584SOL    HW2 1752   1.396   2.272   3.005 -1.5819  3.6217 -2.0522
  585SOL     OW 1753   0.565   2.802   0.335 -0.8447 -0.1353 -0.1737
  585SOL    HW1 1754   0.469   2.782   0.324  2.0354  2.8704 -5.2276
  585SOL    HW2 1755   0.617   2.785   0.247 -1.4068  0.2096 -2.2197
  586SOL     OW 1756   2.071   2.479   2.638 -0.0311 -0.8090  0.9350
  586SOL    HW1 1757   2.022   2.442   2.721 -1.5683 -1.6965 -1.8022
  586SOL    HW2 1758   1.997   2.505   2.573  0.6888 -0.4556 -0.2800
  587SOL     OW 1759   2.632   1.714   0.372 -0.0589 -0.2355 -0.0768
  587SOL    HW1 1760   2.671   1.789   0.320 -0.7699 -3.2116  1.7067
  587SOL    HW2 1761   2.550   1.747   0.417  0.7751 -0.7479 -1.0612
  588SOL     OW 1762   2.038   0.208   1.066 -0.5576  0.1458 -0.2927
  588SOL    HW1 1763   1.943   0.246   1.042  0.2419  2.1843  0.0860
  588SOL    HW2 1764   2.084   0.172   0.981  4.4038 -2.2903  1.2724
  589SOL     OW 1765   1.026   0.732   0.706  0.4118 -0.3387  0.1427
  589SOL    HW1 1766   1.056   0.644   0.666 -2.2673  2.5272  0.4893
  589SOL    HW2 1767   0.950   0.762   0.646 -1.8477  1.2467  0.1111
  590SOL     OW 1768   2.350   2.091   0.031  0.5012 -0.1163 -0.1996
  590SOL    HW1 1769   2.350   2.097   3.040  1.2757 -1.2354 -1.1052
  590SOL    HW2 1770   2.438   2.120   0.070 -0.6360 -0.6463  0.2095
  591SOL     OW 1771   0.123   2.560   1.612 -0.2694  0.2331  0.3400
  591SOL    HW1 1772   0.126   2.490   1.535  0.7815 -1.2234 -3.0494
  591SOL    HW2 1773   0.084   2.523   1.701 -1.2748 -1.1579  0.5131
  592SOL     OW 1774   0.780   1.030   1.302 -0.3512  0.2406  0.4014
  592SOL    HW1 1775   0.719   1.108   1.313 -1.5746 -0.2623  1.7768
  592SOL    HW2 1776   0.872   1.052   1.340 -0.3004  2.2631  1.9585
  593SOL     OW 1777   0.774   1.479   1.202 -0.2805  0.1786  0.5382
  593SOL    HW1 1778   0.868   1.438   1.215  0.0460 -1.6878 -2.1727
  593SOL    HW2 1779   0.735   1.511   1.290 -2.3106  0.4398  0.9501
  594SOL     OW 1780   0.516   1.859   3.027 -0.3837  0.5486 -0.2802
  594SOL    HW1 1781   0.570   1.861   2.943 -0.4781 -1.7020 -0.0405
  594SOL    HW2 1782   0.469   1.949   3.042 -0.3845  1.5469 -1.3006
  595SOL     OW 1783   1.367   0.241   1.339  0.2207 -0.1598  0.0587
  595SOL    HW1 1784   1.302   0.288   1.272 -0.1088 -2.4203 -0.5180
  595SOL    HW2 1785   1.389   0.303   1.410 -1.2529 -0.7703 -3.2219
  596SOL     OW 1786   3.099   1.431   0.827 -0.0166 -0.3729  0.5071
  596SOL    HW1 1787   3.042   1.387   0.901 -1.9682 -1.5556  2.3793
  596SOL    HW2 1788   3.071   1.389   0.741  0.4595 -2.9744  1.9503
  597SOL     OW 1789   0.174   2.345   2.903 -0.4098  0.1119  0.0917
  597SOL    HW1 1790   0.079   2.317   2.905  2.2547 -1.1852 -2.1462
  597SOL    HW2 1791   0.227   2.273   2.950 -4.3498 -0.5299 -0.4070
  598SOL     OW 1792   2.368   1.998   2.037 -0.0053 -0.0019 -0.5476
  598SOL    HW1 1793   2.288   2.050   2.078  2.6995  2.3404 -0.4817
  598SOL    HW2 1794   2.454   2.013   2.090 -2.0257 -0.0508  0.2008
  599SOL     OW 1795   1.133   0.363   0.361 -0.1360 -0.5314 -0.1025
  599SOL    HW1 1796   1.061   0.402   0.298 -0.4688  0.2909  0.2794
  599SOL    HW2 1797   1.096   0.278   0.402  0.0602 -0.3862 -0.9586
  600SOL     OW 1798   0.557   2.663   0.563  0.0407 -0.4328  0.5392
  600SOL    HW1 1799   0.566   2.723   0.480 -0.1017 -0.3073 -1.5602
  600SOL    HW2 1800   0.483   2.595   0.547 -1.1642  0.9978 -1.8735
  601SOL     OW 1801   0.337   0.954   1.240  0.2759  0.4894  0.3583
  601SOL    HW1 1802   0.412   1.001   1.192 -0.9013 -0.6578  1.1789
  601SOL    HW2 1803   0.317   0.862   1.189 -1.4819  0.8426 -2.8339
  602SOL     OW 1804   0.564   2.602   1.088 -0.1454  0.3704 -0.4340
  602SOL    HW1 1805   0.579   2.517   1.023 -1.1738 -1.5579 -1.1681
  602SOL    HW2 1806   0.478   2.588   1.142  2.7061  0.5999 -0.1055
  603SOL     OW 1807   0.973   3.005   2.158  0.4634 -0.1463 -0.9491
  603SOL    HW1 1808   0.883   2.995   2.204  1.6775  2.3310 -1.8002
  603SOL    HW2 1809   1.007   2.917   2.123  0.9270  3.1092  1.3085
  604SOL     OW 1810   0.691   2.703   2.234  0.4444 -0.2657 -0.2648
  604SOL    HW1 1811   0.713   2.801   2.258 -1.0764  1.4986 -1.0756
  604SOL    HW2 1812   0.716   2.698   2.135 -1.7259  0.8760  3.8334
  605SOL     OW 1813   1.900   0.738   2.287  0.3387 -0.2089 -0.0353
  605SOL    HW1 1814   1.912   0.700   2.192  0.8677 -2.1351  0.8498
  605SOL    HW2 1815   1.881   0.839   2.293 -2.6269 -0.8029  0.1672
  606SOL     OW 1816   2.294   0.150   2.826 -0.0311 -0.2445 -0.1663
  606SOL    HW1 1817   2.244   0.230   2.876  2.5396  3.2193  3.3107
  606SOL    HW2 1818   2.320   0.181   2.734 -2.4962 -1.1886 -1.2816
  607SOL     OW 1819   0.732   0.698   1.118 -0.4260  0.0574  0.0191
  607SOL    HW1 1820   0.665   0.663   1.052  2.7398  0.5570 -0.6294
  607SOL    HW2 1821   0.693   0.703   1.214  2.9692  1.7205 -0.3384
  608SOL     OW 1822   2.966   2.026   2.220 -0.1468 -0.3078  0.0247
  608SOL    HW1 1823   2.997   2.109   2.175  2.5604 -0.5114  0.1029
  608SOL    HW2 1824   2.870   2.033   2.253 -1.2482  1.5295 -0.4829
  609SOL     OW 1825   1.842   0.749   0.069  0.0436 -0.0260  0.1692
  609SOL    HW1 1826   1.824   0.729   0.170  1.2502 -0.5317 -0.1634
  609SOL    HW2 1827   1.816   0.848   0.055 -0.2840 -1.5727  0.2835
  610SOL     OW 1828   0.734   0.239   1.274 -0.0782  0.6503 -0.2587
  610SOL    HW1 1829   0.722   0.180   1.195 -1.4939  1.5875  2.6921
  610SOL    HW2 1830   0.785   0.322   1.240 -0.2462 -0.7472  1.5964
  611SOL     OW 1831   1.631   0.598   0.434 -0.5962  0.3073  0.0459
  611SOL    HW1 1832   1.590   0.610   0.528  4.4006  0.1923  0.3695
  611SOL    HW2 1833   1.584   0.515   0.390  2.3725 -1.8717 -0.9753
  612SOL     OW 1834   1.820   0.630   2.944  0.1274  0.4225  0.1501
  612SOL    HW1 1835   1.901   0.647   2.879  2.0652  1.0738 -1.7082
  612SOL    HW2 1836   1.837   0.687   3.024 -0.8652  0.3893  0.9527
  613SOL     OW 1837   2.402   0.773   0.673 -0.3060  0.2140 -0.4866
  613SOL    HW1 1838   2.353   0.738   0.591  0.5063 -1.3412  0.1219
  613SOL    HW2 1839   2.463   0.693   0.704  3.7470 -1.9631  0.1813
  614SOL     OW 1840   2.531   0.073   2.221  0.3000  0.1456 -0.2698
  614SOL    HW1 1841   2.570   0.157   2.265  0.2504  2.9878  0.0966
  614SOL    HW2 1842   2.594   3.097   2.219  0.4350 -1.4899 -1.7159
  615SOL     OW 1843   0.564   1.803   1.185  0.7252  0.0404 -0.3904
  615SOL    HW1 1844   0.596   1.878   1.248  3.5583 -1.3911  0.1348
  615SOL    HW2 1845   0.467   1.813   1.152  2.5864 -1.1425 -1.4130
  616SOL     OW 1846   1.473   1.424   2.755 -0.5987  0.2723 -0.0461
  616SOL    HW1 1847   1.413   1.502   2.720  2.8398  1.0439  0.7977
  616SOL    HW2 1848   1.521   1.365   2.681  1.4950  0.2799 -4.5028
  617SOL     OW 1849   1.813   0.035   3.104  0.4984 -0.0262  0.2381
  617SOL    HW1 1850   1.776   3.049   3.100  0.7716 -2.4426  1.7050
  617SOL    HW2 1851   1.780   0.080   3.020  0.7547 -1.3233  0.8160
  618SOL     OW 1852   1.353   2.092   2.686 -0.0623 -0.0979 -0.5738
  618SOL    HW1 1853   1.343   2.078   2.583 -1.3465 -0.7248 -2.4184
  618SOL    HW2 1854   1.263   2.085   2.733 -1.4088  1.5873 -1.0761
  619SOL     OW 1855   2.651   1.223   0.762 -0.0749 -0.0447  0.4433
  619SOL    HW1 1856   2.632   1.298   0.697 -2.5203 -1.3336  1.8602
  619SOL    HW2 1857   2.604   1.144   0.724  2.2945  0.2931 -1.0749
  620SOL     OW 1858   2.213   2.820   2.234  0.1662  0.0018 -0.1204
  620SOL    HW1 1859   2.174   2.727   2.244 -0.8878  0.0915 -0.7068
  620SOL    HW2 1860   2.156   2.888   2.284  1.8216  0.6283 -0.8617
  621SOL     OW 1861   2.831   1.321   0.403  0.4689  0.0750 -0.4805
  621SOL    HW1 1862   2.782   1.231   0.422  0.0320  1.4469 -2.9890
  621SOL    HW2 1863   2.905   1.341   0.470  0.6128 -0.0587 -0.1024
  622SOL     OW 1864   1.298   2.059   2.429  0.0600  0.0310 -0.0908
  622SOL    HW1 1865   1.222   1.994   2.411 -0.1923 -3.3832  1.4143
  622SOL    HW2 1866   1.388   2.023   2.395  0.2143 -4.1038  1.7233
  623SOL     OW 1867   0.417   2.701   2.700 -0.5590 -0.5771  0.8540
  623SOL    HW1 1868   0.437   2.730   2.605 -1.9981 -1.6251 -0.1018
  623SOL    HW2 1869   0.507   2.691   2.748  2.5622  0.5463  0.2607
  624SOL     OW 1870   0.878   2.818   2.837  0.4110  0.2030  0.1570
  624SOL    HW1 1871   0.931   2.847   2.756 -0.9961  2.4605  1.6601
  624SOL    HW2 1872   0.891   2.890   2.912  2.1203  1.4569  0.1632
  625SOL     OW 1873   0.543   2.047   2.465 -0.0021  0.3822 -0.5674
  625SOL    HW1 1874   0.508   2.127   2.415 -1.7148 -1.5670  0.9551
  625SOL    HW2 1875   0.593   1.981   2.403 -1.2959  0.0510 -3.2573
  626SOL     OW 1876   0.154   0.322   3.014  0.6903  0.4584 -0.2535
  626SOL    HW1 1877   0.067   0.267   3.020 -1.6259 -0.5068  0.0764
  626SOL    HW2 1878   0.165   0.357   2.918 -3.1408  1.3059 -0.0202
  627SOL     OW 1879   1.979   1.729   3.062 -0.2545  0.2424 -0.2106
  627SOL    HW1 1880   1.995   1.675   2.979  2.4520 -0.4599  1.7786
  627SOL    HW2 1881   2.059   1.784   3.085 -1.6662 -2.4114 -0.2766
  628SOL     OW 1882   1.390   1.344   3.005 -0.3329  0.6324 -0.8798
  628SOL    HW1 1883   1.442   1.262   3.041 -0.1100 -1.6707  1.4182
  628SOL    HW2 1884   1.443   1.383   2.927 -0.6659 -1.6166 -1.0196
  629SOL     OW 1885   0.102   0.239   1.967 -0.4248 -0.4091 -0.0576
  629SOL    HW1 1886   0.171   0.167   1.955  2.1187 -1.0231 -3.2416
  629SOL    HW2 1887   0.120   0.289   2.056 -1.5166  0.7677  1.2099
  630SOL     OW 1888   2.279   1.028   1.937  0.2470  0.2453  0.2029
  630SOL    HW1 1889   2.317   1.085   2.010  1.7726  1.6134  0.0660
  630SOL    HW2 1890   2.321   0.937   1.939 -0.5241  0.1962 -0.2621
  631SOL     OW 1891   1.498   3.021   0.876  0.2908 -0.1515 -0.2734
  631SOL    HW1 1892   1.431   3.098   0.895 -0.0873 -2.1861 -0.2115
  631SOL    HW2 1893   1.535   3.011   0.782 -2.3199 -3.2432  2.4992
  632SOL     OW 1894   2.893   0.992   1.659 -0.3977 -0.2502 -0.0810
  632SOL    HW1 1895   2.846   1.026   1.575  0.8363  1.3386  0.9312
  632SOL    HW2 1896   2.915   0.895   1.656 -2.2923 -1.1792  0.8492
  633SOL     OW 1897   0.760   0.410   2.791  0.0150  0.4335  0.1592
  633SOL    HW1 1898   0.775   0.339   2.861  1.2485 -1.3033 -1.0897
  633SOL    HW2 1899   0.847   0.448   2.761 -2.3800 -2.5293  0.1411
  634SOL     OW 1900   0.393   2.503   0.025 -0.6082 -0.5638  0.0975
  634SOL    HW1 1901   0.298   2.488   0.066 -2.6122 -0.1902 -0.9277
  634SOL    HW2 1902   0.384   2.516   3.033 -0.5440  0.5065 -1.4396
  635SOL     OW 1903   3.081   1.055   1.060 -0.1119 -0.1046  0.1113
  635SOL    HW1 1904   3.014   1.078   0.986 -0.1717  0.0025 -0.6388
  635SOL    HW2 1905   0.060   1.017   1.028 -0.0683 -2.3017 -0.9245
  636SOL     OW 1906   2.986   1.198   0.215  0.3884  0.1440  0.5606
  636SOL    HW1 1907   3.017   1.257   0.139 -2.1891 -0.0607  3.4004
  636SOL    HW2 1908   2.922   1.247   0.276  0.4364  0.6961  1.0031
  637SOL     OW 1909   0.283   2.723   0.295 -0.2576  0.3269 -0.0330
  637SOL    HW1 1910   0.231   2.723   0.204 -0.3795  0.2405 -0.3680
  637SOL    HW2 1911   0.230   2.783   0.352  2.9582  0.1041 -2.0386
  638SOL     OW 1912   2.856   2.414   0.484  0.3814 -0.3536  0.0070
  638SOL    HW1 1913   2.907   2.434   0.571  0.3274  2.6716 -2.3257
  638SOL    HW2 1914   2.755   2.405   0.496  0.6689  1.7519  0.2883
  639SOL     OW 1915   1.470   0.989   0.134 -0.3010  0.2806 -0.0764
  639SOL    HW1 1916   1.402   0.929   0.089 -1.8034 -0.8722 -0.7949
  639SOL    HW2 1917   1.527   0.939   0.205  1.1367 -0.5300  0.4246
  640SOL     OW 1918   1.820   2.580   1.555  0.1924 -0.1527  0.2418
  640SOL    HW1 1919   1.765   2.518   1.614  0.5678  0.3815 -0.0986
  640SOL    HW2 1920   1.816   2.550   1.459 -1.4672  0.7376  0.6609
  641SOL     OW 1921   0.092   3.096   0.924 -0.0469  0.0249  0.0291
  641SOL    HW1 1922   0.128   0.031   0.838  3.3864 -0.0986 -1.9584
  641SOL    HW2 1923   0.091   0.055   1.006 -1.4941  0.3929 -1.5039
  642SOL     OW 1924   1.331   0.773   1.799  0.4210 -0.0048 -0.3834
  642SOL    HW1 1925   1.374   0.698   1.856  0.5849  2.2857 -3.0683
  642SOL    HW2 1926   1.314   0.864   1.842  2.4229  0.5040 -1.7731
  643SOL     OW 1927   0.860   2.460   2.639  0.2315 -0.1057  0.3733
  643SOL    HW1 1928   0.811   2.476   2.727 -0.0899 -0.5901 -0.6497
  643SOL    HW2 1929   0.805   2.474   2.557  1.3006  1.7008  0.0004
  644SOL     OW 1930   1.245   2.503   2.845  0.5766  0.2887 -0.4397
  644SOL    HW1 1931   1.272   2.440   2.771 -0.1845  0.3452  1.8158
  644SOL    HW2 1932   1.318   2.502   2.917 -2.3281 -0.8277  0.3827
  645SOL     OW 1933   1.517   1.459   1.919 -0.1395 -0.1193  0.4258
  645SOL    HW1 1934   1.591   1.407   1.969  0.3461  4.6033 -0.1722
  645SOL    HW2 1935   1.514   1.436   1.817 -0.9443 -2.7153  0.1430
  646SOL     OW 1936   0.810   0.069   0.230  0.2176  0.6288  0.4697
  646SOL    HW1 1937   0.729   0.069   0.290 -0.4037  0.8418 -0.5219
  646SOL    HW2 1938   0.784   0.064   0.130  2.7026 -0.7428 -1.1554
  647SOL     OW 1939   0.869   0.029   0.660 -0.7218 -0.5800  0.4332
  647SOL    HW1 1940   0.880   3.050   0.612 -0.5624 -0.1512 -0.1167
  647SOL    HW2 1941   0.905   0.029   0.752 -1.0522  2.2110 -0.5582
  648SOL     OW 1942   2.539   2.665   1.036 -0.5559 -0.2044  0.1776
  648SOL    HW1 1943   2.519   2.765   1.014 -1.0194  1.4163  0.1049
  648SOL    HW2 1944   2.570   2.610   0.956  0.3233  0.7315  1.1451
  649SOL     OW 1945   0.642   2.169   2.873  0.3042  0.2602  0.4187
  649SOL    HW1 1946   0.592   2.109   2.801 -2.5219 -1.7539 -1.2529
  649SOL    HW2 1947   0.706   2.113   2.928  1.1925  2.5241  2.2255
  650SOL     OW 1948   2.100   1.786   2.041  0.1049 -0.1570 -0.7366
  650SOL    HW1 1949   2.068   1.797   2.139 -1.3834  2.1273 -0.6748
  650SOL    HW2 1950   2.201   1.771   2.045 -0.9504  0.3223  2.8383
  651SOL     OW 1951   3.051   2.859   2.405  0.1025  0.6193  0.0087
  651SOL    HW1 1952   0.033   2.903   2.410 -0.8197 -2.0644  0.5133
  651SOL    HW2 1953   3.066   2.758   2.408 -1.0258  0.3636 -1.7947
  652SOL     OW 1954   2.906   1.873   0.468 -0.0028 -0.9989  0.7134
  652SOL    HW1 1955   2.819   1.852   0.515 -1.8729  2.2157 -1.8543
  652SOL    HW2 1956   2.914   1.973   0.457  0.9487 -3.0636  0.3942
  653SOL     OW 1957   2.501   0.652   1.144  0.2958 -0.8257  0.0519
  653SOL    HW1 1958   2.398   0.643   1.137  1.0617  0.5167 -1.6389
  653SOL    HW2 1959   2.550   0.566   1.172  0.0492  2.2524 -1.1126
  654SOL     OW 1960   0.847   0.193   2.941 -0.5196 -0.3722 -0.2388
  654SOL    HW1 1961   0.949   0.190   2.948 -0.2472  0.7372 -0.8471
  654SOL    HW2 1962   0.795   0.151   3.015 -1.2581  0.4800  1.1213
  655SOL     OW 1963   0.722   2.986   1.315 -0.4060  0.0761 -0.1867
  655SOL    HW1 1964   0.680   3.052   1.249  0.8150  0.1097 -0.0671
  655SOL    HW2 1965   0.814   2.952   1.279  0.2005 -1.1166 -0.7685
  656SOL     OW 1966   0.123   2.751   2.132 -0.0905 -0.5371 -0.3065
  656SOL    HW1 1967   0.209   2.761   2.186  1.4887  1.0030 -1.0913
  656SOL    HW2 1968   0.126   2.803   2.046 -1.4537 -0.2156 -0.4232
  657SOL     OW 1969   2.474   0.540   0.272  0.4735 -0.0646 -0.0618
  657SOL    HW1 1970   2.406   0.585   0.336  3.6167  0.0474  1.3516
  657SOL    HW2 1971   2.526   0.617   0.224  1.5122 -1.3450  1.8285
  658SOL     OW 1972   1.937   1.579   1.186 -0.2989 -0.3381  0.1344
  658SOL    HW1 1973   1.990   1.487   1.195  3.4713 -0.8054 -1.0390
  658SOL    HW2 1974   1.998   1.662   1.204  0.2333  0.2624 -0.1925
  659SOL     OW 1975   2.718   2.212   2.768 -0.2293 -0.8542  0.0998
  659SOL    HW1 1976   2.715   2.315   2.760 -0.8047  1.3948 -1.8867
  659SOL    HW2 1977   2.747   2.173   2.858 -1.3050 -0.9818 -0.3928
  660SOL     OW 1978   1.195   0.144   0.154  0.1683  0.3307  0.5816
  660SOL    HW1 1979   1.293   0.162   0.138 -1.3767  1.3950  0.5097
  660SOL    HW2 1980   1.170   0.190   0.242  0.7420 -1.3460 -0.0231
  661SOL     OW 1981   2.354   0.054   0.379  0.0782  0.1069  0.0579
  661SOL    HW1 1982   2.254   0.058   0.366 -0.3888 -0.4167 -1.2455
  661SOL    HW2 1983   2.393   0.145   0.352 -0.4629  0.7736 -1.6244
  662SOL     OW 1984   0.468   0.263   1.049 -0.5366 -0.1806 -0.4401
  662SOL    HW1 1985   0.560   0.235   1.086  0.2401  0.2939 -0.9222
  662SOL    HW2 1986   0.454   0.208   0.961  0.8516 -1.5129 -1.5822
  663SOL     OW 1987   1.507   3.068   2.529  0.1666 -0.2058 -0.0438
  663SOL    HW1 1988   1.444   0.038   2.516 -2.1912  1.2648  0.3856
  663SOL    HW2 1989   1.498   3.000   2.449 -0.0978 -0.2576 -2.9430
  664SOL     OW 1990   0.695   2.313   1.660 -0.6412  0.5029  0.1251
  664SOL    HW1 1991   0.683   2.332   1.558 -1.2865  1.6305  0.6205
  664SOL    HW2 1992   0.743   2.394   1.699  0.3420  0.9217 -1.1917
  665SOL     OW 1993   0.798   2.359   2.118  0.2137  0.4045  0.6958
  665SOL    HW1 1994   0.744   2.331   2.038 -0.5161 -0.6422 -0.5988
  665SOL    HW2 1995   0.893   2.376   2.086 -2.4214 -1.9555 -1.3245
  666SOL     OW 1996   0.168   2.796   2.650 -0.6234  0.2215  0.4148
  666SOL    HW1 1997   0.176   2.841   2.561 -0.7471 -0.5755 -0.4072
  666SOL    HW2 1998   0.262   2.762   2.675  2.0202 -0.0942  0.8643
  667SOL     OW 1999   1.402   1.618   1.535  0.3813 -0.0222 -0.4466
  667SOL    HW1 2000   1.302   1.598   1.548 -1.5375 -1.3940  2.0380
  667SOL    HW2 2001   1.417   1.668   1.445  0.5816  0.1395 -2.3815
  668SOL     OW 2002   1.253   0.356   1.827  0.1032  0.2278 -0.4777
  668SOL    HW1 2003   1.308   0.271   1.827  0.2199  1.1385 -0.3491
  668SOL    HW2 2004   1.175   0.353   1.893  0.5690 -2.0795  1.1653
  669SOL     OW 2005   2.652   2.417   1.178 -0.1657 -0.4579  0.0761
  669SOL    HW1 2006   2.592   2.466   1.113  0.1485 -0.6012 -1.4768
  669SOL    HW2 2007   2.601   2.375   1.255 -0.8875 -0.0071 -1.3221
  670SOL     OW 2008   1.499   2.537   2.981  0.7169 -0.0838 -0.0896
  670SOL    HW1 2009   1.478   2.436   2.972 -0.9191 -1.6353  0.0815
  670SOL    HW2 2010   1.507   2.567   3.077 -1.2157  0.7766 -0.9107
  671SOL     OW 2011   1.340   1.134   0.755  0.0882  0.1712 -0.6769
  671SOL    HW1 2012   1.328   1.115   0.855 -0.7166 -1.4083 -1.6791
  671SOL    HW2 2013   1.278   1.069   0.706 -1.3532 -2.8520  2.3575
  672SOL     OW 2014   2.998   1.139   2.359 -0.1953 -0.5760 -0.2271
  672SOL    HW1 2015   2.927   1.136   2.430 -2.1376 -3.5196 -0.9251
  672SOL    HW2 2016   2.972   1.087   2.276 -0.7291  1.6798 -1.7065
  673SOL     OW 2017   0.022   1.945   1.549 -0.2390  0.5593  0.6025
  673SOL    HW1 2018   3.050   1.993   1.586  0.8480  1.7262  1.1585
  673SOL    HW2 2019   3.096   1.876   1.479  1.3948 -2.1493  1.6492
  674SOL     OW 2020   0.374   2.694   2.219  0.4756  0.1724  0.9714
  674SOL    HW1 2021   0.394   2.646   2.306  1.1825  5.0371  1.1649
  674SOL    HW2 2022   0.415   2.641   2.143  0.0939 -0.3298  2.6626
  675SOL     OW 2023   0.724   0.999   1.688  0.1940  0.4831 -0.1424
  675SOL    HW1 2024   0.643   1.014   1.626  1.3141 -0.6739  0.8735
  675SOL    HW2 2025   0.688   1.008   1.785 -0.9496 -1.2383  1.3381
  676SOL     OW 2026   2.508   0.320   1.110 -0.1519 -0.0754  0.2705
  676SOL    HW1 2027   2.476   0.356   1.200 -2.1434 -0.6866  1.8303
  676SOL    HW2 2028   2.518   0.220   1.108  0.2178  0.2985 -1.1497
  677SOL     OW 2029   2.323   1.600   0.030 -0.1550 -0.0476  0.2151
  677SOL    HW1 2030   2.264   1.552   0.097 -0.0086  0.9102 -1.2065
  677SOL    HW2 2031   2.322   1.561   3.044 -0.5409  0.2025  0.2405
  678SOL     OW 2032   2.814   0.780   1.243  0.2589  0.2747 -0.0624
  678SOL    HW1 2033   2.743   0.827   1.187 -1.5929 -1.5107  1.8641
  678SOL    HW2 2034   2.864   0.842   1.307  0.1805  0.3822  0.3015
  679SOL     OW 2035   2.485   0.283   0.371  0.4074 -0.2570  0.0668
  679SOL    HW1 2036   2.566   0.265   0.429 -1.6244  1.8466 -0.4279
  679SOL    HW2 2037   2.490   0.381   0.340  1.2157  1.1304 -0.1210
  680SOL     OW 2038   0.189   1.711   2.045  0.2588  0.3236  0.1924
  680SOL    HW1 2039   0.289   1.710   2.040  0.6330  0.2492 -1.5973
  680SOL    HW2 2040   0.154   1.755   2.132  3.3836  0.1134  1.2459
  681SOL     OW 2041   2.470   2.079   1.103  0.3611 -0.2211  0.6543
  681SOL    HW1 2042   2.378   2.083   1.156 -3.8099  0.4843  1.1585
  681SOL    HW2 2043   2.509   1.987   1.100  0.8456  3.0606  1.0444
  682SOL     OW 2044   2.956   1.818   2.477  0.1549 -0.0903  0.2134
  682SOL    HW1 2045   2.887   1.758   2.432  0.3861  0.2996 -1.3657
  682SOL    HW2 2046   2.975   1.897   2.414 -3.1153  0.0923  0.8681
  683SOL     OW 2047   0.215   2.128   1.617  0.6142 -0.1154  0.3790
  683SOL    HW1 2048   0.180   2.200   1.549  1.5178  0.2271 -2.5445
  683SOL    HW2 2049   0.178   2.031   1.602 -1.9961 -2.5890 -2.1413
  684SOL     OW 2050   2.826   1.140   2.097 -0.1391  0.0583  0.1004
  684SOL    HW1 2051   2.864   1.074   2.031  0.1353  0.2521 -1.6928
  684SOL    HW2 2052   2.876   1.230   2.098  1.0101  0.4534 -0.0901
  685SOL     OW 2053   1.511   1.182   0.572  0.5977 -0.6103  0.2118
  685SOL    HW1 2054   1.468   1.156   0.659 -0.3576  0.4595 -1.5313
  685SOL    HW2 2055   1.594   1.131   0.551  0.2565  0.4258  0.2020
  686SOL     OW 2056   0.451   0.105   0.827  0.3357 -0.4276  0.5274
  686SOL    HW1 2057   0.472   0.010   0.859 -1.8210 -1.6140  1.9830
  686SOL    HW2 2058   0.363   0.112   0.783  0.6656  1.0092  0.1046
  687SOL     OW 2059   1.340   1.679   2.719 -0.0714  0.5211 -0.2092
  687SOL    HW1 2060   1.252   1.730   2.707 -0.9909 -2.0300  1.7681
  687SOL    HW2 2061   1.400   1.695   2.639 -0.9425  0.5418 -0.5399
  688SOL     OW 2062   1.454   1.390   1.679 -0.3727 -0.2609  0.1828
  688SOL    HW1 2063   1.414   1.441   1.601 -0.2340  2.8140 -0.8062
  688SOL    HW2 2064   1.382   1.344   1.736  0.0138 -2.6567  2.1579
  689SOL     OW 2065   2.328   0.093   0.770  0.1412 -0.2501 -0.4402
  689SOL    HW1 2066   2.394   0.039   0.716 -1.4351  0.2416 -0.3546
  689SOL    HW2 2067   2.294   0.036   0.848  1.0909  0.8194  0.3669
  690SOL     OW 2068   0.145   1.390   1.070 -0.7475  0.2622  0.3397
  690SOL    HW1 2069   0.165   1.421   0.971  0.4280 -0.7431 -3.9344
  690SOL    HW2 2070   0.124   1.293   1.078 -0.5815  2.4263  2.5374
  691SOL     OW 2071   0.156   1.988   1.309 -0.1448  0.0004 -0.6732
  691SOL    HW1 2072   0.060   2.020   1.301  1.8115  0.9953 -3.7777
  691SOL    HW2 2073   0.169   1.948   1.403  1.4300  0.2687  2.0826
  692SOL     OW 2074   2.082   0.549   1.545 -0.3517  0.4010  0.5532
  692SOL    HW1 2075   2.109   0.514   1.451  0.5356 -1.8413  0.6931
  692SOL    HW2 2076   2.163   0.591   1.590 -0.1004 -1.2064 -1.7859
  693SOL     OW 2077   0.565   1.803   2.310 -0.4057 -0.3260 -0.0565
  693SOL    HW1 2078   0.615   1.849   2.240  0.5861  0.5850 -0.9443
  693SOL    HW2 2079   0.625   1.786   2.385  0.4839  0.7550 -1.7222
  694SOL     OW 2080   1.493   1.516   1.214 -0.3530 -0.8133 -0.3126
  694SOL    HW1 2081   1.529   1.613   1.217  0.6632  1.2866  2.2760
  694SOL    HW2 2082   1.396   1.517   1.220 -0.0242  0.3773 -0.4033
  695SOL     OW 2083   0.948   1.401   0.613 -0.1120 -0.8184  0.1797
  695SOL    HW1 2084   1.015   1.451   0.674 -0.2379  3.4273 -0.1402
  695SOL    HW2 2085   0.855   1.444   0.606  2.8995 -0.8231 -0.9787
  696SOL     OW 2086   0.948   2.753   0.289  0.5928  0.0796  0.1157
  696SOL    HW1 2087   0.947   2.676   0.218  0.9720  1.3748  2.0225
  696SOL    HW2 2088   0.985   2.843   0.255  3.1534  2.2532 -0.5326
  697SOL     OW 2089   1.459   0.508   1.448 -0.3921 -0.2313  0.5022
  697SOL    HW1 2090   1.542   0.477   1.497  3.3450  0.1436 -0.9295
  697SOL    HW2 2091   1.375   0.469   1.488 -0.7496 -0.9641 -0.2360
  698SOL     OW 2092   1.741   1.672   2.026 -0.1294  0.1845  0.4253
  698SOL    HW1 2093   1.744   1.570   2.036  0.9530  2.6774  1.9352
  698SOL    HW2 2094   1.665   1.695   1.957 -1.2412  0.3740 -2.6680
  699SOL     OW 2095   2.582   0.641   1.925 -0.2109  0.2717  0.1011
  699SOL    HW1 2096   2.609   0.658   2.022  2.0848 -1.0266  0.3082
  699SOL    HW2 2097   2.625   0.559   1.896 -3.8206  4.2434  0.4691
  700SOL     OW 2098   1.214   2.193   0.597 -0.1589  0.0978 -0.3893
  700SOL    HW1 2099   1.309   2.204   0.560  0.4741 -0.3619 -0.0220
  700SOL    HW2 2100   1.173   2.119   0.546 -1.8903  3.9330  3.2495
  701SOL     OW 2101   2.481   2.811   2.291  0.3868  0.1694 -0.2059
  701SOL    HW1 2102   2.488   2.713   2.276  1.2947 -0.3630 -1.4507
  701SOL    HW2 2103   2.386   2.836   2.303  0.6986  0.7228 -0.2742
  702SOL     OW 2104   0.905   2.889   0.540 -0.0205  0.0957 -0.8596
  702SOL    HW1 2105   0.861   2.838   0.612  0.3343  1.8335 -0.9776
  702SOL    HW2 2106   0.904   2.832   0.453 -0.6526 -0.1461 -0.4428
  703SOL     OW 2107   2.282   0.004   2.179  0.4919  0.4655  0.0842
  703SOL    HW1 2108   2.273   3.027   2.126  0.1547 -0.1442 -0.0274
  703SOL    HW2 2109   2.384   0.016   2.199  3.5807 -0.5586 -1.1691
  704SOL     OW 2110   2.575   2.152   0.170 -0.1210 -0.6190 -0.1741
  704SOL    HW1 2111   2.536   2.117   0.259 -2.1943  0.6640  3.9237
  704SOL    HW2 2112   2.582   2.253   0.173 -1.9716  1.3434 -0.5035
  705SOL     OW 2113   2.522   2.550   2.261  0.9441 -0.0588  0.1382
  705SOL    HW1 2114   2.583   2.493   2.321  2.5860  0.1202  0.3299
  705SOL    HW2 2115   2.457   2.496   2.206  0.2876  0.5515 -0.4154
  706SOL     OW 2116   2.625   0.002   1.151 -0.1717  0.0189 -0.0322
  706SOL    HW1 2117   2.708   0.020   1.093  0.1723  1.5719 -0.8002
  706SOL    HW2 2118   2.636   0.059   1.236 -2.5698  1.5316 -0.2558
  707SOL     OW 2119   0.872   0.323   2.399 -0.3415  0.0124  0.2594
  707SOL    HW1 2120   0.880   0.279   2.488 -0.8702  0.2059 -1.3899
  707SOL    HW2 2121   0.796   0.387   2.406  0.4963 -2.0715  0.4169
  708SOL     OW 2122   0.157   2.213   1.901  0.1557 -0.5684 -0.0271
  708SOL    HW1 2123   0.151   2.266   1.815 -0.4873  1.5143  0.1806
  708SOL    HW2 2124   0.096   2.129   1.896 -3.0679 -2.3757 -0.5786
  709SOL     OW 2125   1.378   0.084   1.828 -0.3864 -0.2221  0.0348
  709SOL    HW1 2126   1.422   0.119   1.742 -0.9655  1.1286  3.6011
  709SOL    HW2 2127   1.446   0.023   1.872 -2.4883  1.8350  2.6230
  710SOL     OW 2128   1.507   2.901   2.743 -0.1863  0.2758 -0.1897
  710SOL    HW1 2129   1.494   2.976   2.811 -0.2104  0.9019 -0.9613
  710SOL    HW2 2130   1.525   2.945   2.650  0.7512 -0.9243 -4.1270
  711SOL     OW 2131   0.861   2.182   2.698 -0.0771 -0.6332 -0.1463
  711SOL    HW1 2132   0.770   2.161   2.734 -1.2030 -1.0995  0.2106
  711SOL    HW2 2133   0.887   2.281   2.700  0.8644 -0.1646 -0.4190
  712SOL     OW 2134   1.124   2.099   2.798 -0.1121  0.1314 -0.9449
  712SOL    HW1 2135   1.034   2.115   2.756 -0.0097  0.6557  0.0280
  712SOL    HW2 2136   1.113   2.100   2.900 -0.0753 -1.1729 -1.4308
  713SOL     OW 2137   2.040   1.147   1.836  0.2709  0.3202  0.1139
  713SOL    HW1 2138   2.081   1.232   1.797 -0.0340 -1.0584 -1.8508
  713SOL    HW2 2139   2.111   1.087   1.876 -0.4514 -0.5792  2.2779
  714SOL     OW 2140   0.912   1.341   2.066  0.5662 -0.5519  0.1399
  714SOL    HW1 2141   0.821   1.340   2.023  1.1058 -0.9022 -0.1976
  714SOL    HW2 2142   0.929   1.254   2.108 -0.1772  2.1006  0.0696
  715SOL     OW 2143   2.850   0.486   0.305 -0.1398  0.6318  0.0454
  715SOL    HW1 2144   2.902   0.410   0.345 -0.9461 -0.0921 -1.8292
  715SOL    HW2 2145   2.785   0.528   0.373 -1.1396 -1.5017 -1.8203
  716SOL     OW 2146   2.913   2.577   1.533 -0.1811  0.3727  0.3866
  716SOL    HW1 2147   2.883   2.603   1.626 -0.4713 -0.3404 -0.4328
  716SOL    HW2 2148   3.005   2.616   1.520  1.8271 -1.9667  2.4541
  717SOL     OW 2149   2.242   0.768   0.924  0.2463 -0.1954 -0.1941
  717SOL    HW1 2150   2.202   0.852   0.893  2.7320 -1.5916  2.1441
  717SOL    HW2 2151   2.344   0.770   0.901  0.0257  0.3643  2.0887
  718SOL     OW 2152   1.152   1.530   1.549 -1.1212 -0.0743  0.3358
  718SOL    HW1 2153   1.116   1.508   1.641  1.5604 -0.8239  0.4874
  718SOL    HW2 2154   1.084   1.596   1.507 -0.0198 -0.5906 -0.3366
  719SOL     OW 2155   3.059   0.044   2.679 -0.2055  0.3932  0.0215
  719SOL    HW1 2156   2.985   3.083   2.680  0.5824 -0.9575  1.0911
  719SOL    HW2 2157   0.036   0.021   2.728  0.7858  1.5446  0.2825
  720SOL     OW 2158   0.881   0.419   0.911 -0.3463  0.0486 -0.3185
  720SOL    HW1 2159   0.944   0.365   0.850 -1.6307  1.9600  0.6570
  720SOL    HW2 2160   0.816   0.473   0.856 -0.2551  0.2513  0.2116
  721SOL     OW 2161   2.953   0.790   0.347  0.5562 -0.4538  1.1363
  721SOL    HW1 2162   2.901   0.703   0.358  0.5371  0.4225  0.8473
  721SOL    HW2 2163   2.947   0.832   0.251 -1.1753  0.3961 -1.6139
  722SOL     OW 2164   0.917   2.127   2.251  0.2356  0.4646 -0.5977
  722SOL    HW1 2165   0.872   2.215   2.238  0.0554 -1.8054 -0.3680
  722SOL    HW2 2166   0.991   2.111   2.177  0.5948 -3.1478 -1.4873
  723SOL     OW 2167   1.724   2.979   1.293  0.2445 -0.0032 -0.1031
  723SOL    HW1 2168   1.689   3.022   1.206 -3.6354  0.5258 -1.5637
  723SOL    HW2 2169   1.825   3.004   1.309  2.2534  0.7093 -1.2132
  724SOL     OW 2170   1.630   1.912   1.725 -0.0865 -0.4564 -0.2437
  724SOL    HW1 2171   1.598   1.994   1.773 -1.6923  0.3250 -0.3020
  724SOL    HW2 2172   1.603   1.823   1.759  0.6479 -3.4567  0.7144
  725SOL     OW 2173   1.082   2.430   1.256 -0.0162 -0.1528 -0.5119
  725SOL    HW1 2174   1.015   2.504   1.295 -1.7293  3.4769 -0.3809
  725SOL    HW2 2175   1.105   2.456   1.159  0.6596  0.7086 -0.0428
  726SOL     OW 2176   1.918   2.890   0.215  0.2827  0.1783  0.0192
  726SOL    HW1 2177   1.862   2.937   0.284  1.8028  0.2805 -0.0599
  726SOL    HW2 2178   1.970   2.959   0.162 -4.1567 -2.3167 -1.4822
  727SOL     OW 2179   1.476   1.634   0.943 -0.6042  0.5989  0.0852
  727SOL    HW1 2180   1.573   1.668   0.940  2.2381  0.3222 -0.3404
  727SOL    HW2 2181   1.472   1.543   0.980  0.5033  0.3917 -0.8774
  728SOL     OW 2182   1.984   2.662   2.036  0.1704 -0.1552 -0.4129
  728SOL    HW1 2183   1.998   2.629   2.132 -1.4146  0.7463  0.1957
  728SOL    HW2 2184   1.985   2.764   2.038  1.7844  2.3770 -0.5222
  729SOL     OW 2185   2.070   2.360   1.236  0.1940 -0.1772  0.4146
  729SOL    HW1 2186   1.977   2.331   1.264 -2.6997 -0.4354 -1.2238
  729SOL    HW2 2187   2.109   2.419   1.308 -3.9726 -1.3820 -0.2611
  730SOL     OW 2188   1.784   0.994   2.371 -0.2884  0.4709  0.2911
  730SOL    HW1 2189   1.692   1.016   2.330  0.8829 -0.1615 -0.9692
  730SOL    HW2 2190   1.770   0.947   2.463  0.5410  0.8418 -4.2231
  731SOL     OW 2191   0.938   2.785   1.164  0.5745  0.0265 -0.3447
  731SOL    HW1 2192   1.034   2.775   1.141 -2.5475  0.5141 -0.3564
  731SOL    HW2 2193   0.907   2.711   1.227  0.0690 -2.7382  2.0731
  732SOL     OW 2194   1.198   2.986   1.008  0.2121  0.5448 -0.1551
  732SOL    HW1 2195   1.218   2.916   0.934 -1.9476  2.3885 -1.5013
  732SOL    HW2 2196   1.244   2.965   1.095 -2.7461  3.9935  0.9674
  733SOL     OW 2197   0.937   1.135   0.712 -0.3567 -0.2384  0.1314
  733SOL    HW1 2198   0.964   1.222   0.663 -2.1826 -0.2029 -0.8806
  733SOL    HW2 2199   1.017   1.069   0.716  1.4537 -3.6619 -2.3777
  734SOL     OW 2200   2.527   2.161   2.552  0.0404  0.2733  0.3743
  734SOL    HW1 2201   2.558   2.163   2.648  0.1952 -1.1928  1.1426
  734SOL    HW2 2202   2.568   2.082   2.503 -1.7870 -2.9320  1.8943
  735SOL     OW 2203   0.787   0.149   0.996 -0.0572 -0.2700  0.0446
  735SOL    HW1 2204   0.854   0.077   0.964  0.2710 -0.6216 -0.3609
  735SOL    HW2 2205   0.832   0.243   0.994  0.4834 -0.3300 -0.5527
  736SOL     OW 2206   1.667   2.347   2.655  0.1030  0.3322  0.2685
  736SOL    HW1 2207   1.726   2.293   2.594  0.5196 -0.6536  0.0020
  736SOL    HW2 2208   1.658   2.310   2.750  3.7262  1.0797  2.4604
  737SOL     OW 2209   0.884   2.606   1.359  0.2183 -0.5093  0.3806
  737SOL    HW1 2210   0.803   2.542   1.362  1.5394 -1.2987  1.7351
  737SOL    HW2 2211   0.925   2.610   1.449 -1.8072  0.0035 -2.7572
  738SOL     OW 2212   1.876   2.990   2.495  0.7158 -0.5897 -0.2691
  738SOL    HW1 2213   1.920   3.074   2.522 -3.3713  1.4532 -3.3800
  738SOL    HW2 2214   1.873   2.922   2.573 -2.5652 -1.4179 -1.0077
  739SOL     OW 2215   1.499   2.460   2.160 -0.2720  0.2164  0.4443
  739SOL    HW1 2216   1.435   2.402   2.211  1.0979  4.3274  2.9385
  739SOL    HW2 2217   1.586   2.409   2.137  3.3874  0.3089 -0.3375
  740SOL     OW 2218   1.387   2.389   1.295  0.0796 -0.5448 -0.3679
  740SOL    HW1 2219   1.313   2.356   1.234  2.2700  0.3518  1.1248
  740SOL    HW2 2220   1.368   2.481   1.336 -0.6030 -1.0635  2.7488
  741SOL     OW 2221   2.679   1.045   3.106 -0.3501  0.0229 -0.5518
  741SOL    HW1 2222   2.651   1.120   0.058  2.0026 -1.7063 -0.2659
  741SOL    HW2 2223   2.599   1.017   3.050  1.1211  0.7140  0.7456
  742SOL     OW 2224   0.657   1.770   2.760  0.2438 -0.6936  0.2302
  742SOL    HW1 2225   0.606   1.854   2.739 -0.9538 -0.5209 -0.2092
  742SOL    HW2 2226   0.709   1.739   2.676 -0.7512 -0.8223  2.9065
  743SOL     OW 2227   0.270   1.027   2.502  0.0574  0.1895  0.1670
  743SOL    HW1 2228   0.357   1.066   2.538  1.7168  0.9527 -2.3256
  743SOL    HW2 2229   0.190   1.039   2.568  0.0546 -3.4299  0.3906
  744SOL     OW 2230   2.238   2.438   1.018  0.2026 -0.2013 -0.2529
  744SOL    HW1 2231   2.198   2.436   1.112  0.7963 -1.8892  0.9802
  744SOL    HW2 2232   2.194   2.511   0.962  1.0398  0.7310  0.2785
  745SOL     OW 2233   2.229   1.826   1.482  0.4738  0.5081  0.4416
  745SOL    HW1 2234   2.310   1.803   1.424  3.0954  1.1020 -0.0651
  745SOL    HW2 2235   2.214   1.922   1.487 -2.7700 -1.8363  0.6777
  746SOL     OW 2236   2.065   0.966   0.784  0.1235 -0.6900  0.0418
  746SOL    HW1 2237   2.034   0.896   0.716 -3.2268 -1.9509 -1.3486
  746SOL    HW2 2238   1.980   1.005   0.832 -0.4211  1.7312  0.3929
  747SOL     OW 2239   1.531   2.025   0.810  0.2421  0.2575 -0.1958
  747SOL    HW1 2240   1.466   1.944   0.794  0.5923 -0.8327  1.0639
  747SOL    HW2 2241   1.619   2.011   0.761 -1.0314  2.1825  2.2956
  748SOL     OW 2242   0.563   1.851   0.624  0.1863  0.0972  0.1360
  748SOL    HW1 2243   0.551   1.846   0.519 -1.6256 -1.2011 -1.2737
  748SOL    HW2 2244   0.533   1.935   0.666 -0.3888 -2.7016  0.2831
  749SOL     OW 2245   2.969   2.971   2.152  0.1471 -0.5288 -0.3469
  749SOL    HW1 2246   2.989   3.070   2.125  1.8009  0.0270  1.3336
  749SOL    HW2 2247   3.010   2.949   2.245 -2.8241 -0.9996  0.5909
  750SOL     OW 2248   1.730   0.324   1.443 -0.4212 -0.3324  0.4731
  750SOL    HW1 2249   1.822   0.280   1.461 -3.5659  3.0711  0.0658
  750SOL    HW2 2250   1.746   0.417   1.404  0.2102 -2.3030 -1.4872
  751SOL     OW 2251   1.698   2.888   3.050  0.5925  0.7544 -0.3769
  751SOL    HW1 2252   1.661   2.869   0.035  0.9342 -1.4591  0.7108
  751SOL    HW2 2253   1.719   2.807   2.998 -1.3826 -2.5454  0.8108
  752SOL     OW 2254   1.804   1.998   0.186  0.0045  0.1740 -0.2505
  752SOL    HW1 2255   1.750   1.928   0.138 -2.1431 -1.2290  0.2022
  752SOL    HW2 2256   1.803   2.085   0.132 -0.5198 -0.9924 -1.5555
  753SOL     OW 2257   2.016   1.069   2.244  0.3422 -0.3483 -0.1259
  753SOL    HW1 2258   1.935   1.052   2.303 -3.5682  2.3506  0.7973
  753SOL    HW2 2259   2.048   0.992   2.186 -1.2207  0.5840  2.2897
  754SOL     OW 2260   0.084   2.638   0.941  0.4748  0.0058 -0.1053
  754SOL    HW1 2261   0.147   2.696   0.996  0.1722 -0.9092 -0.1666
  754SOL    HW2 2262   0.032   2.695   0.874  0.1812  0.4828 -1.3532
  755SOL     OW 2263   2.039   0.582   0.903 -0.5893  0.1195  0.6750
  755SOL    HW1 2264   2.122   0.638   0.903 -0.9796  0.4644 -1.1289
  755SOL    HW2 2265   1.978   0.602   0.978 -0.3613 -3.4424 -1.1702
  756SOL     OW 2266   1.177   1.452   2.864 -0.0787  0.4367  0.2602
  756SOL    HW1 2267   1.211   1.528   2.809 -0.1194 -1.5143 -0.3061
  756SOL    HW2 2268   1.240   1.417   2.937  0.6998  0.4236  0.5763
  757SOL     OW 2269   2.282   2.942   1.195  0.1444 -0.5782 -0.4648
  757SOL    HW1 2270   2.337   2.857   1.190  1.0012 -1.1267  1.9668
  757SOL    HW2 2271   2.337   3.019   1.237  0.2118 -0.1863  2.9695
  758SOL     OW 2272   0.785   2.552   1.696  0.3052  0.6552 -0.1080
  758SOL    HW1 2273   0.706   2.612   1.679 -1.7850  1.5142 -0.0193
  758SOL    HW2 2274   0.865   2.566   1.637 -1.4022  0.1641  3.5739
  759SOL     OW 2275   2.095   1.353   1.244 -0.2942  0.3178 -0.4318
  759SOL    HW1 2276   2.198   1.343   1.235 -2.6918  1.7629 -2.1704
  759SOL    HW2 2277   2.077   1.341   1.344  0.7522  0.9902  0.3411
  760SOL     OW 2278   1.944   0.956   1.486 -0.0068 -0.4464  0.2334
  760SOL    HW1 2279   1.892   1.033   1.530 -4.1953 -0.1005  2.0151
  760SOL    HW2 2280   2.043   0.950   1.512  1.1220 -1.6137 -1.7390
  761SOL     OW 2281   1.952   3.064   0.553 -0.3151  0.7729  0.0315
  761SOL    HW1 2282   1.955   0.002   0.639 -0.6381 -0.4111  0.4492
  761SOL    HW2 2283   2.025   2.992   0.552  1.9775 -1.0485 -0.3293
  762SOL     OW 2284   1.799   2.230   0.065 -0.2758  0.1054 -0.2402
  762SOL    HW1 2285   1.887   2.216   0.014 -0.6050  1.2822  1.0634
  762SOL    HW2 2286   1.798   2.328   0.093  0.4485  1.1599 -1.1079
  763SOL     OW 2287   0.575   1.021   1.063  0.2641  0.1245 -0.0050
  763SOL    HW1 2288   0.590   0.949   0.988  1.1760 -1.2247 -2.0943
  763SOL    HW2 2289   0.658   1.005   1.124  1.1065 -0.1157  4.3911
  764SOL     OW 2290   2.807   2.120   3.001 -0.9782  0.7088 -0.0050
  764SOL    HW1 2291   2.833   2.127   3.100  2.5832 -3.7221  0.1398
  764SOL    HW2 2292   2.767   2.029   2.980 -2.4186 -0.9410 -2.0570
  765SOL     OW 2293   0.775   0.100   1.938 -0.3196  0.2053  0.4332
  765SOL    HW1 2294   0.826   0.138   2.022 -1.9282  0.9979  1.9587
  765SOL    HW2 2295   0.815   0.140   1.848 -0.2133  0.6796  0.4517
  766SOL     OW 2296   0.110   1.260   2.247 -0.1254 -0.2638 -0.4804
  766SOL    HW1 2297   0.031   1.208   2.292 -0.1909 -0.9283  0.6929
  766SOL    HW2 2298   0.081   1.360   2.261 -3.1414 -0.0764 -1.9428
  767SOL     OW 2299   3.026   1.740   1.751 -0.0060 -0.3385  0.4211
  767SOL    HW1 2300   2.933   1.708   1.742  2.3100 -1.2308 -1.5777
  767SOL    HW2 2301   3.054   1.811   1.679  0.6314  2.1165  1.8891
  768SOL     OW 2302   1.006   0.754   2.906 -0.2466  0.3617 -0.0072
  768SOL    HW1 2303   0.938   0.747   2.981  2.1037  1.5748 -0.6352
  768SOL    HW2 2304   1.065   0.839   2.918  0.8991  0.9073 -0.4392
  769SOL     OW 2305   1.987   2.690   0.385 -0.0620  0.0304 -0.2206
  769SOL    HW1 2306   2.002   2.593   0.350 -0.6438 -3.4230 -1.8318
  769SOL    HW2 2307   1.972   2.755   0.311 -1.2486  0.8119  0.1453
  770SOL     OW 2308   2.994   0.324   2.670  0.2271  0.4899  0.7393
  770SOL    HW1 2309   2.901   0.353   2.640 -1.3362 -1.7584  2.3502
  770SOL    HW2 2310   3.004   0.224   2.662  1.5293  2.1833  1.2416
  771SOL     OW 2311   1.304   2.205   1.768  0.2221  0.1019 -0.0214
  771SOL    HW1 2312   1.234   2.131   1.757  0.0360  0.3452  0.4604
  771SOL    HW2 2313   1.354   2.218   1.680  0.1203  0.5758 -1.4836
  772SOL     OW 2314   0.629   0.640   2.916  0.2306  0.3837 -0.3828
  772SOL    HW1 2315   0.659   0.574   2.846  1.0597 -0.2678 -2.4268
  772SOL    HW2 2316   0.552   0.700   2.884 -1.0531 -1.0354  0.0763
  773SOL     OW 2317   2.851   1.403   1.493  0.1708  0.1422  0.6456
  773SOL    HW1 2318   2.786   1.480   1.470 -2.2346  0.2422  0.3744
  773SOL    HW2 2319   2.864   1.396   1.593 -2.5206 -2.4098 -0.1200
  774SOL     OW 2320   1.621   0.866   0.347  0.5298 -0.1766 -0.6387
  774SOL    HW1 2321   1.617   0.764   0.363  1.7559 -1.7555 -1.3538
  774SOL    HW2 2322   1.633   0.915   0.440  1.8490  2.8186  3.7358
  775SOL     OW 2323   2.295   2.807   3.048 -0.1742 -0.4930 -0.1004
  775SOL    HW1 2324   2.359   2.840   0.014 -1.8395 -1.0972 -0.0946
  775SOL    HW2 2325   2.255   2.891   3.005 -2.4107  1.5381 -1.4333
  776SOL     OW 2326   2.691   0.686   2.161 -0.3882 -0.0497  0.1342
  776SOL    HW1 2327   2.669   0.787   2.180 -0.3310  1.9359  1.0168
  776SOL    HW2 2328   2.684   0.634   2.248 -0.7928 -0.0335 -0.8819
  777SOL     OW 2329   0.354   1.450   2.578 -0.0321  0.4645  0.0035
  777SOL    HW1 2330   0.415   1.481   2.656  1.2564 -0.0906 -0.6641
  777SOL    HW2 2331   0.407   1.424   2.497  0.5826  1.5883  1.1192
  778SOL     OW 2332   0.990   0.157   0.417  0.7961  0.7183 -0.7760
  778SOL    HW1 2333   0.982   0.104   0.508 -0.9640 -2.0830  0.2297
  778SOL    HW2 2334   0.916   0.122   0.352 -0.2856 -0.0814 -1.3960
  779SOL     OW 2335   0.519   1.113   2.644 -0.0542 -0.6556 -0.4677
  779SOL    HW1 2336   0.540   1.196   2.587  0.8650  1.2036  2.7107
  779SOL    HW2 2337   0.564   1.024   2.617  1.1220 -0.6971 -0.2438
  780SOL     OW 2338   2.089   0.846   2.471  0.1905 -0.9170  0.1534
  780SOL    HW1 2339   2.192   0.839   2.473 -1.4948 -1.5517  2.0486
  780SOL    HW2 2340   2.044   0.804   2.392 -1.0403  0.5595 -0.7684
  781SOL     OW 2341   2.789   1.393   1.770  0.3026  0.6000 -1.0132
  781SOL    HW1 2342   2.874   1.336   1.766  0.3479 -1.5492  1.5851
  781SOL    HW2 2343   2.716   1.326   1.803 -1.0874  0.2998  3.0379
  782SOL     OW 2344   1.098   1.873   2.347  0.1945 -0.4963  0.0795
  782SOL    HW1 2345   1.106   1.832   2.254  2.2573 -0.9531  0.3335
  782SOL    HW2 2346   1.026   1.945   2.342 -2.1716 -0.5216  1.6951
  783SOL     OW 2347   0.503   2.612   1.444 -0.7392  0.5349 -0.5493
  783SOL    HW1 2348   0.493   2.709   1.411  0.9238 -3.5057 -2.3844
  783SOL    HW2 2349   0.505   2.607   1.545  1.9630 -0.9396 -0.7484
  784SOL     OW 2350   1.541   0.557   2.884  0.1512 -0.0683 -0.2397
  784SOL    HW1 2351   1.558   0.524   2.788  1.5065 -0.5668  0.2265
  784SOL    HW2 2352   1.631   0.575   2.927 -0.9173  1.0036 -0.7215
  785SOL     OW 2353   1.354   0.362   2.975  0.4582  0.2805  0.2269
  785SOL    HW1 2354   1.419   0.432   2.949  0.3292 -2.0535 -0.1744
  785SOL    HW2 2355   1.361   0.283   2.918 -1.6022  1.7058  0.5665
  786SOL     OW 2356   0.265   1.653   0.243  0.5615 -0.3646  0.1645
  786SOL    HW1 2357   0.279   1.594   0.324  0.0275  0.0656 -0.8204
  786SOL    HW2 2358   0.349   1.669   0.188  0.3026 -1.8398 -1.9886
  787SOL     OW 2359   1.743   1.519   0.458  0.8689  0.0077  0.5686
  787SOL    HW1 2360   1.836   1.559   0.464  1.8158 -1.4035  0.4035
  787SOL    HW2 2361   1.736   1.454   0.380 -0.6422  0.3285 -0.8363
  788SOL     OW 2362   1.797   1.666   1.428  0.0009 -0.5831  0.7171
  788SOL    HW1 2363   1.836   1.618   1.346  1.4195  1.3584 -1.4333
  788SOL    HW2 2364   1.716   1.725   1.400 -0.1380 -1.8058  4.3689
  789SOL     OW 2365   0.134   1.322   1.769 -0.0258  0.1689 -0.1554
  789SOL    HW1 2366   0.130   1.420   1.804  1.9785  0.4899 -2.4339
  789SOL    HW2 2367   0.199   1.312   1.694  2.2609 -0.5183  0.1087
  790SOL     OW 2368   0.585   2.927   0.004  0.4279  0.8863 -0.5888
  790SOL    HW1 2369   0.480   2.933   3.097 -1.2448  0.3298 -0.5302
  790SOL    HW2 2370   0.606   2.837   0.047 -1.2181 -0.6019  1.0150
  791SOL     OW 2371   0.674   3.098   2.550  0.1426  0.4882  0.2970
  791SOL    HW1 2372   0.614   0.063   2.510  0.9439  2.6220  1.1318
  791SOL    HW2 2373   0.629   3.039   2.624  1.6016 -1.6412  1.0891
  792SOL     OW 2374   2.240   0.586   2.689  0.2597 -0.6433  0.3853
  792SOL    HW1 2375   2.225   0.522   2.764  0.6746 -0.0343  1.2150
  792SOL    HW2 2376   2.325   0.635   2.714 -2.0017 -1.8706  1.0607
  793SOL     OW 2377   0.329   0.730   1.094  0.1363 -0.1873 -0.7237
  793SOL    HW1 2378   0.407   0.675   1.051  3.1361 -1.1331 -2.1837
  793SOL    HW2 2379   0.287   0.675   1.170 -0.0810  1.5442 -2.1216
  794SOL     OW 2380   0.556   0.478   2.071 -1.4560 -0.0195  0.3061
  794SOL    HW1 2381   0.599   0.491   1.981 -0.1208 -0.4552 -0.7892
  794SOL    HW2 2382   0.466   0.527   2.080  1.9440 -0.3189 -1.1934
  795SOL     OW 2383   0.095   1.093   0.342  0.5598 -0.6428  0.0959
  795SOL    HW1 2384   0.161   1.036   0.287 -1.4728  2.0263 -1.0830
  795SOL    HW2 2385   0.029   1.138   0.282 -0.6296 -1.2369 -0.6180
  796SOL     OW 2386   0.067   2.877   0.136 -0.2788 -0.1184  0.0687
  796SOL    HW1 2387   0.025   2.790   0.095 -1.0562 -2.1304 -3.4164
  796SOL    HW2 2388   0.064   2.890   0.234 -0.1420 -0.1327 -2.6900
  797SOL     OW 2389   1.864   2.565   2.453  0.2582 -0.2481 -0.1516
  797SOL    HW1 2390   1.798   2.489   2.465  0.9690  1.4046 -1.8010
  797SOL    HW2 2391   1.838   2.644   2.510 -1.6543  0.5729  0.2386
  798SOL     OW 2392   0.088   0.753   0.550  0.0914  0.0674  0.3694
  798SOL    HW1 2393   0.029   0.751   0.463  0.1267 -2.1630 -1.8768
  798SOL    HW2 2394   0.191   0.757   0.531  1.1179 -1.6980 -1.9329
  799SOL     OW 2395   2.703   0.511   2.738  0.1194 -0.8111  0.0196
  799SOL    HW1 2396   2.691   0.412   2.734  0.5599  0.6340 -0.0855
  799SOL    HW2 2397   2.762   0.541   2.662 -1.5867  1.3502 -1.3569
  800SOL     OW 2398   2.976   2.089   0.162 -0.1455 -0.2867  0.6737
  800SOL    HW1 2399   2.976   2.088   0.265  0.4226 -1.3753 -1.8102
  800SOL    HW2 2400   3.052   2.039   0.117 -3.4796 -0.2426 -1.1766
  801SOL     OW 2401   1.305   1.369   0.987  0.4120 -0.2015 -0.2695
  801SOL    HW1 2402   1.293   1.443   1.058 -1.8311 -1.3767  2.3795
  801SOL    HW2 2403   1.293   1.273   1.019  1.6845  0.4295 -0.6991
  802SOL     OW 2404   1.088   1.806   2.079  0.2326 -0.3787  0.3823
  802SOL    HW1 2405   0.994   1.759   2.075  1.3109 -1.1338  0.3088
  802SOL    HW2 2406   1.149   1.790   1.998  0.0399  1.5933  1.6280
  803SOL     OW 2407   0.118   1.851   0.735 -0.6634 -0.0400 -0.6836
  803SOL    HW1 2408   0.022   1.877   0.761 -0.0093  1.0907 -0.8164
  803SOL    HW2 2409   0.137   1.755   0.759 -0.9576  0.5639 -0.6899
  804SOL     OW 2410   1.087   2.157   1.297  0.0522  0.5507 -0.2486
  804SOL    HW1 2411   1.086   2.258   1.302 -0.9587 -5.2131 -0.8476
  804SOL    HW2 2412   0.993   2.118   1.308  1.2783  0.5778 -1.3722
  805SOL     OW 2413   1.938   1.457   0.060  0.4050 -0.0284  0.4103
  805SOL    HW1 2414   1.948   1.558   0.038  1.0839 -0.0426 -0.2945
  805SOL    HW2 2415   1.846   1.432   0.022  2.0624  0.1147 -1.7489
  806SOL     OW 2416   1.915   2.381   0.992 -0.3072  0.1761 -0.2526
  806SOL    HW1 2417   1.974   2.385   1.077  0.7338 -0.0104  3.3937
  806SOL    HW2 2418   1.820   2.357   1.019  0.9045  1.4420  0.2109
  807SOL     OW 2419   2.789   0.645   2.975 -0.5132 -0.0373  0.1572
  807SOL    HW1 2420   2.819   0.740   2.946  2.1286  1.7342 -0.5806
  807SOL    HW2 2421   2.784   0.583   2.896  1.0863  1.7727 -0.0930
  808SOL     OW 2422   0.185   1.242   0.544  0.4077 -0.3826 -0.2153
  808SOL    HW1 2423   0.224   1.192   0.626  0.7567  1.1807  0.5420
  808SOL    HW2 2424   0.163   1.176   0.468 -0.5762 -2.0855 -1.4206
  809SOL     OW 2425   2.571   0.949   1.983 -0.0062 -0.1181  0.2342
  809SOL    HW1 2426   2.509   0.975   2.060 -0.6546 -0.1462  1.6243
  809SOL    HW2 2427   2.561   1.011   1.901 -0.4243 -0.2089  0.7315
  810SOL     OW 2428   1.241   0.419   1.571 -0.1777 -0.0414 -0.3170
  810SOL    HW1 2429   1.242   0.396   1.670  2.4627 -0.0383  0.4082
  810SOL    HW2 2430   1.171   0.357   1.533  0.7252 -1.4337  2.6645
  811SOL     OW 2431   1.864   2.853   1.543 -0.1536 -0.4651 -0.0213
  811SOL    HW1 2432   1.844   2.751   1.530  0.2068 -2.0402 -2.3508
  811SOL    HW2 2433   1.923   2.886   1.470  5.2865 -1.1942 -1.6688
  812SOL     OW 2434   1.754   2.647   2.889  0.2602 -0.3914  0.1049
  812SOL    HW1 2435   1.659   2.615   2.906  0.2009 -2.0825 -1.8374
  812SOL    HW2 2436   1.819   2.572   2.898 -0.2217  2.1332  1.6572
  813SOL     OW 2437   1.561   1.013   1.991 -0.0105 -0.7335  0.0701
  813SOL    HW1 2438   1.488   1.004   1.917 -1.0959 -0.2698 -1.6963
  813SOL    HW2 2439   1.620   1.091   1.969 -0.5475  0.3551 -0.3351
  814SOL     OW 2440   0.982   0.439   1.893  0.2777  0.1580  0.5439
  814SOL    HW1 2441   0.986   0.532   1.849  0.9449  2.0811 -2.6637
  814SOL    HW2 2442   0.942   0.455   1.986  0.1410 -0.1386 -2.2817
  815SOL     OW 2443   0.842   0.813   0.526 -0.3069 -0.1813  0.2833
  815SOL    HW1 2444   0.765   0.871   0.561 -0.0114 -2.2216 -3.9600
  815SOL    HW2 2445   0.815   0.784   0.430 -1.0784 -0.3014 -1.4189
  816SOL     OW 2446   2.110   1.694   2.673 -0.1852 -0.5337 -0.3299
  816SOL    HW1 2447   2.070   1.785   2.645  0.8430 -0.1670  0.0989
  816SOL    HW2 2448   2.053   1.639   2.738 -0.5827  1.3402 -1.2517
  817SOL     OW 2449   0.783   2.348   0.504 -0.9656 -0.9003  0.1658
  817SOL    HW1 2450   0.854   2.411   0.468 -0.5227 -2.9909 -4.3554
  817SOL    HW2 2451   0.813   2.319   0.597 -1.5832 -0.9046 -0.8793
  818SOL     OW 2452   2.052   3.096   0.051 -0.0773  0.3115  0.2746
  818SOL    HW1 2453   1.954   0.012   0.041 -1.4876 -0.5740  1.3376
  818SOL    HW2 2454   2.094   3.087   3.064  1.5940 -1.4578 -1.2291
  819SOL     OW 2455   1.719   0.277   0.126 -0.2157  0.5075 -0.5464
  819SOL    HW1 2456   1.764   0.187   0.104 -1.0440 -0.5712 -1.4114
  819SOL    HW2 2457   1.790   0.348   0.132  0.0107 -0.0790  2.1143
  820SOL     OW 2458   1.859   0.621   0.323  0.3242 -0.1876  0.4532
  820SOL    HW1 2459   1.766   0.598   0.357 -1.9506 -0.7830 -0.3981
  820SOL    HW2 2460   1.897   0.709   0.357  2.1830 -0.3641  1.9552
  821SOL     OW 2461   2.767   0.104   0.178 -0.1998  0.0672  0.5606
  821SOL    HW1 2462   2.711   0.114   0.265 -1.8255 -1.5155 -1.6413
  821SOL    HW2 2463   2.772   0.188   0.123 -0.8432  0.2444  1.2758
  822SOL     OW 2464   0.100   2.899   1.895 -0.7012  0.2414  0.0238
  822SOL    HW1 2465   3.108   2.926   1.888 -1.3410 -1.9766  0.4701
  822SOL    HW2 2466   0.133   2.872   1.804  2.0191 -1.2141  2.7455
  823SOL     OW 2467   2.836   1.676   1.407 -0.4058  0.0103  0.1470
  823SOL    HW1 2468   2.820   1.775   1.388  0.5514  1.9361  0.2108
  823SOL    HW2 2469   2.857   1.625   1.319 -2.0395  0.3694  1.6717
  824SOL     OW 2470   1.489   2.914   2.306 -0.0957 -0.6571  0.1974
  824SOL    HW1 2471   1.463   2.826   2.353  0.1821 -0.3592 -1.2220
  824SOL    HW2 2472   1.431   2.929   2.219 -1.0958  1.7779 -1.5779
  825SOL     OW 2473   1.975   1.338   0.764 -0.0565  0.3494  0.4771
  825SOL    HW1 2474   1.975   1.255   0.817 -3.1827 -1.0784 -0.4230
  825SOL    HW2 2475   1.878   1.371   0.760 -1.4821  1.6159  0.7237
  826SOL     OW 2476   2.159   0.673   0.008 -0.0636  0.2547 -0.1709
  826SOL    HW1 2477   2.169   0.765   3.074  0.7687 -1.4154 -0.8264
  826SOL    HW2 2478   2.065   0.646   0.034 -2.3214  1.4549 -0.4274
  827SOL     OW 2479   0.488   1.090   1.547 -0.3262 -0.9426  0.1561
  827SOL    HW1 2480   0.383   1.104   1.547 -0.3665 -1.2961 -0.2145
  827SOL    HW2 2481   0.536   1.109   1.455  0.0178  0.9493 -0.0256
  828SOL     OW 2482   2.185   1.378   1.864  0.3954 -0.3933  0.4039
  828SOL    HW1 2483   2.249   1.370   1.945 -0.5671 -0.3117  1.8189
  828SOL    HW2 2484   2.123   1.460   1.873 -0.5842  1.4425 -1.8568
  829SOL     OW 2485   0.084   1.937   0.062  0.8955  0.4690 -0.2217
  829SOL    HW1 2486   0.091   1.834   0.053 -2.4259 -2.5452  1.0974
  829SOL    HW2 2487   0.172   1.972   0.098 -0.5579 -1.4341 -4.3053
  830SOL     OW 2488   1.725   1.016   0.581 -0.2865 -0.0550 -0.0323
  830SOL    HW1 2489   1.779   1.092   0.629 -1.6493 -1.2416 -1.1321
  830SOL    HW2 2490   1.727   0.935   0.641 -1.3203  1.4398  1.9431
  831SOL     OW 2491   2.556   1.776   0.037 -0.0838 -0.1845  0.3572
  831SOL    HW1 2492   2.482   1.707   0.040 -0.3827  0.8466 -0.2973
  831SOL    HW2 2493   2.604   1.785   0.124 -1.2713 -0.7336  1.0085
  832SOL     OW 2494   1.021   3.017   0.188 -0.2066  0.1493 -0.3042
  832SOL    HW1 2495   0.945   3.079   0.213  0.7399 -0.9179 -2.4077
  832SOL    HW2 2496   1.108   3.071   0.180  2.0443 -1.1543 -0.4514
  833SOL     OW 2497   1.425   0.721   2.329  0.1369 -0.5040  0.5129
  833SOL    HW1 2498   1.429   0.646   2.254  0.2886 -1.6853 -1.4056
  833SOL    HW2 2499   1.488   0.799   2.309 -0.1936 -1.4032  1.1195
  834SOL     OW 2500   0.043   0.605   1.335  0.1482  0.0985 -0.0337
  834SOL    HW1 2501   0.078   0.544   1.404  1.2312  0.6929 -1.5597
  834SOL    HW2 2502   3.105   0.551   1.267  0.2966  0.2059  1.6017
  835SOL     OW 2503   2.995   0.090   1.320 -0.0817 -0.2073  0.4888
  835SOL    HW1 2504   2.962   0.007   1.370  0.6350 -0.0270 -2.7979
  835SOL    HW2 2505   3.020   0.173   1.377 -2.5268  1.2619  0.2955
  836SOL     OW 2506   0.479   2.019   0.323  0.2035  0.0788 -0.2631
  836SOL    HW1 2507   0.539   1.940   0.301 -3.6640  0.7076 -0.7576
  836SOL    HW2 2508   0.521   2.099   0.361 -2.1884  1.6020 -2.4808
  837SOL     OW 2509   1.804   1.745   2.576 -0.4859 -0.2936  0.3913
  837SOL    HW1 2510   1.784   1.756   2.677  0.5494  0.6542 -1.1971
  837SOL    HW2 2511   1.846   1.657   2.550  0.2504  0.4486 -0.5470
  838SOL     OW 2512   0.384   1.054   1.978  0.2845 -0.4760 -0.8841
  838SOL    HW1 2513   0.300   1.109   1.954 -2.4839 -0.7331 -1.2978
  838SOL    HW2 2514   0.375   0.962   1.944  0.0449  0.1931  1.4280
  839SOL     OW 2515   0.307   0.578   0.775  0.4165 -0.1355  0.4247
  839SOL    HW1 2516   0.223   0.537   0.815 -1.5646 -1.0739 -0.4190
  839SOL    HW2 2517   0.379   0.590   0.843 -1.8357  0.3602  2.2411
  840SOL     OW 2518   2.669   0.221   2.678 -0.1075 -0.1652 -0.0084
  840SOL    HW1 2519   2.684   0.144   2.744  1.3460 -1.4750 -0.3307
  840SOL    HW2 2520   2.724   0.192   2.594  0.3258 -0.4789 -0.5200
  841SOL     OW 2521   0.769   2.422   2.908  0.1419 -0.0256 -0.4573
  841SOL    HW1 2522   0.832   2.422   2.988  3.1994  1.5789 -0.7249
  841SOL    HW2 2523   0.706   2.340   2.905  0.6906 -2.1531 -1.4340
  842SOL     OW 2524   0.604   0.004   1.118  0.1474  0.2254  0.0613
  842SOL    HW1 2525   0.679   0.047   1.064 -2.6286  2.1758  0.1848
  842SOL    HW2 2526   0.542   3.057   1.057 -0.0388  0.6641  0.2187
  843SOL     OW 2527   0.156   0.948   2.950  0.0845 -0.1887  0.3591
  843SOL    HW1 2528   0.114   0.872   3.000  2.8900 -1.3171  0.4321
  843SOL    HW2 2529   0.220   0.999   3.007  0.2665 -1.8604 -1.8573
  844SOL     OW 2530   1.337   2.413   2.609 -0.0817  0.8155 -0.0518
  844SOL    HW1 2531   1.432   2.405   2.573 -0.8620  0.9320  0.8204
  844SOL    HW2 2532   1.269   2.413   2.533  0.8827 -1.4578  1.4433
  845SOL     OW 2533   2.701   3.093   2.817 -0.0975  0.2198  0.3554
  845SOL    HW1 2534   2.674   0.010   2.910 -1.8165  2.2999 -0.1832
  845SOL    HW2 2535   2.777   3.024   2.816 -0.0961  0.3965  1.7939
  846SOL     OW 2536   1.882   1.499   2.506  0.0234  0.3380  0.1035
  846SOL    HW1 2537   1.954   1.481   2.430  2.4984 -2.1723 -2.7961
  846SOL    HW2 2538   1.901   1.435   2.584  2.2526  0.8406 -2.4635
  847SOL     OW 2539   2.680   2.975   3.094 -0.7645  0.2604 -0.1308
  847SOL    HW1 2540   2.580   2.993   3.103  3.3286  0.3653 -1.4468
  847SOL    HW2 2541   2.729   3.031   0.049 -2.1006 -0.2893 -1.9971
  848SOL     OW 2542   0.668   0.455   0.538 -0.5733  0.6998 -0.2645
  848SOL    HW1 2543   0.670   0.362   0.584  0.6784  0.3042  0.8334
  848SOL    HW2 2544   0.570   0.483   0.529 -0.7681  0.1857 -1.6881
  849SOL     OW 2545   1.388   2.951   2.068 -0.3504  0.6015  0.1131
  849SOL    HW1 2546   1.350   2.875   2.014  2.4600  1.4304  1.3019
  849SOL    HW2 2547   1.467   3.006   2.025 -1.3294  1.4758  0.3448
  850SOL     OW 2548   0.474   1.160   0.580 -0.1126  0.4182  0.0721
  850SOL    HW1 2549   0.446   1.243   0.625  1.3987 -0.8021  0.0037
  850SOL    HW2 2550   0.411   1.084   0.600  0.3249  2.7591 -0.0609
  851SOL     OW 2551   0.290   1.109   0.110  0.1951  0.1150  0.0906
  851SOL    HW1 2552   0.346   1.145   0.185 -1.3373  0.6891 -1.1042
  851SOL    HW2 2553   0.277   1.007   0.112  0.1122 -1.7370 -0.8313
  852SOL     OW 2554   1.162   0.318   2.123  0.3913 -0.3009 -0.5472
  852SOL    HW1 2555   1.229   0.241   2.144 -1.4590 -2.0622 -2.2435
  852SOL    HW2 2556   1.072   0.282   2.149  0.0857  1.0965 -2.0977
  853SOL     OW 2557   2.606   1.457   3.099 -0.2795  0.2794  0.0669
  853SOL    HW1 2558   2.686   1.482   0.049  0.9306 -0.5639 -2.0325
  853SOL    HW2 2559   2.512   1.474   0.035 -3.1600  0.2794 -0.6143
  854SOL     OW 2560   1.219   1.028   2.131 -0.0450 -0.2239  0.1478
  854SOL    HW1 2561   1.122   1.033   2.144  1.9297  0.5804 -1.0833
  854SOL    HW2 2562   1.271   1.099   2.183  1.6437  3.1237  0.8313
  855SOL     OW 2563   0.291   2.905   3.087  0.1370 -0.1758  0.7136
  855SOL    HW1 2564   0.227   2.955   0.043  2.3386 -0.5485  0.9186
  855SOL    HW2 2565   0.248   2.825   3.040 -2.8703  2.3614  0.9931
  856SOL     OW 2566   1.177   0.777   2.252 -0.3277  0.1182  0.4918
  856SOL    HW1 2567   1.185   0.868   2.202  2.7689  0.6911 -2.1982
  856SOL    HW2 2568   1.262   0.742   2.304 -1.9120 -0.5289  1.0414
  857SOL     OW 2569   1.350   0.753   2.607  0.4182  0.3712  0.1099
  857SOL    HW1 2570   1.398   0.771   2.520  0.2174  1.0148  2.3617
  857SOL    HW2 2571   1.284   0.675   2.595 -0.6076  0.2484 -1.6187
  858SOL     OW 2572   2.915   1.410   2.074  0.0850 -0.0978 -0.0179
  858SOL    HW1 2573   2.982   1.414   2.150  0.7970 -1.2402 -0.2503
  858SOL    HW2 2574   2.938   1.464   1.992 -0.5789 -1.1900  0.9173
  859SOL     OW 2575   2.373   0.339   0.854 -0.0888 -0.1617  0.0496
  859SOL    HW1 2576   2.357   0.246   0.819 -0.5501  3.1157 -1.1419
  859SOL    HW2 2577   2.416   0.341   0.943 -1.2170  0.4229 -0.6550
  860SOL     OW 2578   1.758   2.967   0.406 -0.1617  0.4407  0.4670
  860SOL    HW1 2579   1.819   3.025   0.457 -1.5280 -0.7032  1.5209
  860SOL    HW2 2580   1.748   2.888   0.465 -0.4156  1.9251  1.3664
  861SOL     OW 2581   0.992   0.648   1.241  0.4048  0.0058  0.5313
  861SOL    HW1 2582   0.972   0.548   1.275 -1.1059 -3.9117  1.3108
  861SOL    HW2 2583   0.918   0.677   1.172 -2.3227 -2.3850 -1.6930
  862SOL     OW 2584   1.585   0.179   2.690  0.2861  0.4341 -0.4382
  862SOL    HW1 2585   1.644   0.173   2.775 -0.3916 -2.1629  0.9491
  862SOL    HW2 2586   1.594   0.093   2.634 -0.4885  0.8534  1.9284
  863SOL     OW 2587   2.584   2.358   0.509 -0.0110  0.1246 -0.1702
  863SOL    HW1 2588   2.500   2.420   0.500  1.1781  1.9426  0.9543
  863SOL    HW2 2589   2.580   2.270   0.462 -2.3799 -1.9924  1.5254
  864SOL     OW 2590   2.636   0.305   2.331 -0.3720  0.1510 -0.6109
  864SOL    HW1 2591   2.732   0.288   2.355 -4.4558  0.3031  2.7136
  864SOL    HW2 2592   2.615   0.403   2.331 -0.7043 -0.6631  0.3354
  865SOL     OW 2593   1.281   1.039   1.883 -0.0743  0.0624 -0.2680
  865SOL    HW1 2594   1.245   1.047   1.980  0.0470 -0.0833  1.7820
  865SOL    HW2 2595   1.266   1.126   1.836 -2.1983 -1.9138  1.4943
  866SOL     OW 2596   1.660   2.361   1.083  0.8667 -0.4025  0.2825
  866SOL    HW1 2597   1.645   2.260   1.114  1.3680 -1.4583  1.6751
  866SOL    HW2 2598   1.594   2.388   1.005 -1.0434  1.5695 -5.7030
  867SOL     OW 2599   2.398   2.885   0.434  1.0704 -0.4983 -0.4869
  867SOL    HW1 2600   2.353   2.828   0.497  1.5768  2.7079 -1.1480
  867SOL    HW2 2601   2.364   2.981   0.432 -0.5509  1.7423  1.5581
  868SOL     OW 2602   0.176   2.442   2.319  0.3902 -0.0139 -0.0274
  868SOL    HW1 2603   0.199   2.413   2.224 -1.1335  0.8689  0.5364
  868SOL    HW2 2604   0.260   2.472   2.368 -2.4883 -0.2301  0.3489
  869SOL     OW 2605   2.078   2.587   2.271  0.6644 -0.2275  0.0902
  869SOL    HW1 2606   1.999   2.576   2.339 -2.4903 -0.7398 -1.1756
  869SOL    HW2 2607   2.156   2.529   2.296  1.1466  0.1031 -0.8959
  870SOL     OW 2608   1.722   1.473   0.799 -0.1388  0.0071 -0.2188
  870SOL    HW1 2609   1.653   1.483   0.724 -1.2483 -1.8248 -2.3009
  870SOL    HW2 2610   1.694   1.402   0.869 -2.1401 -1.5279  0.8602
  871SOL     OW 2611   3.099   1.737   1.372 -0.3363  0.0893  0.4800
  871SOL    HW1 2612   0.067   1.675   1.391  0.1945  0.0191 -0.3329
  871SOL    HW2 2613   3.017   1.707   1.423  2.9555  1.0135 -0.8857
  872SOL     OW 2614   0.771   1.721   2.521 -0.0594  0.3631 -0.0009
  872SOL    HW1 2615   0.785   1.648   2.454 -0.3270 -0.6552  0.5070
  872SOL    HW2 2616   0.842   1.795   2.506 -0.7188 -0.8303  0.0643
  873SOL     OW 2617   0.833   1.721   2.031  0.0924 -0.0065  0.2840
  873SOL    HW1 2618   0.786   1.790   2.087  1.9494  0.2039  0.7659
  873SOL    HW2 2619   0.782   1.633   2.049 -1.3303 -0.0271 -2.5441
  874SOL     OW 2620   1.604   0.753   2.049 -0.6293 -0.2925 -0.4479
  874SOL    HW1 2621   1.565   0.688   1.983 -0.1235 -2.7254 -0.8227
  874SOL    HW2 2622   1.588   0.851   2.032  0.9021 -3.4656 -0.3540
  875SOL     OW 2623   3.106   0.054   0.282 -0.4358  0.6434  0.4357
  875SOL    HW1 2624   0.077   0.047   0.215  2.2595  0.2009 -2.1802
  875SOL    HW2 2625   3.042   3.087   0.280  1.6459  2.7932  1.6389
  876SOL     OW 2626   0.668   1.519   0.594 -0.4664 -0.0606  0.8091
  876SOL    HW1 2627   0.718   1.597   0.634 -0.1517 -1.2857  0.8806
  876SOL    HW2 2628   0.572   1.517   0.625 -1.5081 -0.9062 -3.0547
  877SOL     OW 2629   2.629   3.015   0.561 -0.4948  0.5084 -0.2299
  877SOL    HW1 2630   2.653   2.988   0.657 -0.6671 -0.0079  1.5564
  877SOL    HW2 2631   2.574   2.942   0.519  5.0120  3.7834  1.1565
  878SOL     OW 2632   1.980   1.628   0.496 -0.2869 -0.2552  0.6472
  878SOL    HW1 2633   1.994   1.720   0.451  1.8583  1.0031  0.3296
  878SOL    HW2 2634   1.991   1.638   0.594 -1.4856 -2.3702  1.1285
  879SOL     OW 2635   2.423   1.742   1.274 -0.4077 -0.1344 -0.1296
  879SOL    HW1 2636   2.389   1.668   1.213 -3.3043  0.7923 -0.0361
  879SOL    HW2 2637   2.509   1.783   1.235 -0.8224 -0.3196 -1.3581
  880SOL     OW 2638   0.499   2.149   0.668  0.1688 -0.7072 -0.2969
  880SOL    HW1 2639   0.429   2.125   0.739  0.1658  0.2122 -2.1539
  880SOL    HW2 2640   0.499   2.249   0.651 -1.3651 -1.9820  0.2799
  881SOL     OW 2641   0.676   0.854   0.883 -0.1268  0.3680 -0.1494
  881SOL    HW1 2642   0.703   0.894   0.794  0.9698  2.4468  0.6181
  881SOL    HW2 2643   0.758   0.828   0.937 -1.8546  1.7628  1.4421
  882SOL     OW 2644   2.517   1.011   0.685  0.6303 -0.2817 -0.0360
  882SOL    HW1 2645   2.426   1.052   0.664  0.7665 -3.0872 -0.2248
  882SOL    HW2 2646   2.499   0.914   0.717 -1.1963 -2.6375 -1.1683
  883SOL     OW 2647   1.727   0.156   1.807  0.4022 -0.2010  0.2355
  883SOL    HW1 2648   1.826   0.165   1.794 -0.4371 -0.1295  1.7476
  883SOL    HW2 2649   1.678   0.152   1.720 -3.4062 -1.7971  0.7920
  884SOL     OW 2650   3.033   0.311   1.475 -0.0991  0.4627  0.2988
  884SOL    HW1 2651   0.020   0.338   1.482 -2.4079 -3.4401  0.3527
  884SOL    HW2 2652   3.003   0.280   1.564  1.3721  0.8729 -3.6933
  885SOL     OW 2653   1.481   1.066   2.752  0.3169  0.3160 -0.8789
  885SOL    HW1 2654   1.384   1.038   2.732 -2.1165 -1.5031 -2.1209
  885SOL    HW2 2655   1.542   0.980   2.758  0.3723  2.5531 -0.7795
  886SOL     OW 2656   1.991   0.683   2.728 -0.1357  0.1704  0.2351
  886SOL    HW1 2657   2.081   0.647   2.696 -1.8919  2.2301  0.1140
  886SOL    HW2 2658   1.942   0.710   2.643 -0.5579 -0.9457  0.3365
  887SOL     OW 2659   1.561   0.161   1.584 -0.2887  0.1343 -0.2585
  887SOL    HW1 2660   1.618   0.217   1.523 -1.4323 -0.9145  1.2081
  887SOL    HW2 2661   1.517   0.083   1.533  2.8775  1.5925 -0.5171
  888SOL     OW 2662   2.023   1.588   1.868 -0.3170 -0.1361 -0.0406
  888SOL    HW1 2663   2.002   1.635   1.777 -0.8664 -1.4733 -4.2341
  888SOL    HW2 2664   2.053   1.657   1.936 -1.1210 -2.0087 -1.5795
  889SOL     OW 2665   1.732   2.141   0.433  0.4428 -0.4647  0.1779
  889SOL    HW1 2666   1.781   2.094   0.509  0.0175 -1.3007 -0.3395
  889SOL    HW2 2667   1.754   2.088   0.348 -0.3169 -1.3196 -1.0658
  890SOL     OW 2668   1.037   2.028   0.453  0.4714 -0.1109  0.0875
  890SOL    HW1 2669   0.998   1.945   0.412  0.6203  2.3394  3.5532
  890SOL    HW2 2670   0.974   2.069   0.526  0.6960  1.2034 -0.6096
  891SOL     OW 2671   2.821   0.930   2.904  0.3719  0.1322 -0.1696
  891SOL    HW1 2672   2.900   0.987   2.871 -1.9018  1.4222 -0.6345
  891SOL    HW2 2673   2.771   0.969   2.986 -2.2631 -1.4923  0.1854
  892SOL     OW 2674   1.765   0.732   2.536  0.1438 -0.3217  0.5318
  892SOL    HW1 2675   1.713   0.650   2.574 -0.7664  0.6725  0.1693
  892SOL    HW2 2676   1.799   0.706   2.442 -0.5219 -1.0904 -1.3985
  893SOL     OW 2677   1.535   2.986   1.500 -0.0737  0.2476  0.3739
  893SOL    HW1 2678   1.610   2.980   1.426  2.0602 -0.8915  1.1053
  893SOL    HW2 2679   1.570   2.956   1.587 -3.0920  2.5991 -0.3411
  894SOL     OW 2680   2.902   2.850   0.547 -0.0195  0.1052 -0.2576
  894SOL    HW1 2681   2.837   2.814   0.476 -0.4804 -1.6517  0.1703
  894SOL    HW2 2682   2.883   2.952   0.561 -0.5637  1.7447  0.1151
  895SOL     OW 2683   2.074   2.667   0.032  0.1481 -0.4342  0.3929
  895SOL    HW1 2684   2.020   2.629   3.061  0.4744  1.9787 -1.2448
  895SOL    HW2 2685   2.149   2.723   3.102  3.0059  3.0846 -1.3308
  896SOL     OW 2686   2.331   0.268   2.312 -0.1278  0.3173  0.0850
  896SOL    HW1 2687   2.355   0.166   2.297 -0.0841 -0.4897 -0.6949
  896SOL    HW2 2688   2.311   0.307   2.220  0.9390 -0.0688  0.6690
  897SOL     OW 2689   0.365   1.573   1.689 -0.0337 -0.0458  0.4838
  897SOL    HW1 2690   0.290   1.562   1.755  1.9730  1.8183 -0.0460
  897SOL    HW2 2691   0.418   1.656   1.709  0.2150  0.6412  1.5064
  898SOL     OW 2692   2.314   1.673   1.702 -0.2285 -0.0792  0.6491
  898SOL    HW1 2693   2.225   1.685   1.653 -0.2274 -1.7019 -3.0641
  898SOL    HW2 2694   2.387   1.703   1.639 -1.0711  0.8792  3.2075
  899SOL     OW 2695   1.583   2.092   1.083 -0.2810 -0.8267  0.3885
  899SOL    HW1 2696   1.489   2.092   1.120  0.9642  1.0812  0.7266
  899SOL    HW2 2697   1.580   2.081   0.981 -3.0114 -1.8777 -0.4071
  900SOL     OW 2698   1.106   0.461   3.045  0.3404  0.0982 -0.6270
  900SOL    HW1 2699   1.057   0.469   2.955 -1.5940  0.8955 -1.0614
  900SOL    HW2 2700   1.198   0.417   3.035 -2.0485 -2.6013  0.0943
  901SOL     OW 2701   1.525   1.713   2.519  0.0395  0.1406  0.6562
  901SOL    HW1 2702   1.621   1.734   2.539 -0.6319 -0.7860 -0.2589
  901SOL    HW2 2703   1.519   1.679   2.421  0.6549  1.4006  0.5209
  902SOL     OW 2704   2.803   2.744   3.073  0.3220 -0.3273 -0.1629
  902SOL    HW1 2705   2.740   2.826   3.096 -1.3206  0.2462 -0.2792
  902SOL    HW2 2706   2.902   2.766   3.074 -0.9319 -1.1779 -1.5195
  903SOL     OW 2707   2.338   0.763   1.977  0.0404 -0.3381  0.2928
  903SOL    HW1 2708   2.266   0.699   2.014 -0.2968  1.4615 -0.2635
  903SOL    HW2 2709   2.428   0.719   1.974 -2.0451 -2.3820  0.1813
  904SOL     OW 2710   1.569   0.455   2.624 -0.4849 -0.1854 -0.3503
  904SOL    HW1 2711   1.509   0.487   2.547  0.8275 -4.2859 -0.0217
  904SOL    HW2 2712   1.566   0.355   2.639 -0.6882 -0.3355 -0.9188
  905SOL     OW 2713   2.207   2.550   1.378  0.6794  0.3905 -0.7802
  905SOL    HW1 2714   2.198   2.570   1.479  0.9468 -0.6895  0.2666
  905SOL    HW2 2715   2.279   2.606   1.336 -0.4238 -1.4563  0.9267
  906SOL     OW 2716   1.324   1.886   0.186  0.6333  0.9247  0.0021
  906SOL    HW1 2717   1.362   1.858   0.093 -3.9733 -0.2579 -3.2658
  906SOL    HW2 2718   1.386   1.875   0.265 -1.0750 -0.3838 -0.2982
  907SOL     OW 2719   0.787   2.741   0.743  0.2346 -0.3567  0.0434
  907SOL    HW1 2720   0.756   2.765   0.838 -0.6839 -0.7552  1.4910
  907SOL    HW2 2721   0.714   2.740   0.674  0.4120 -0.1916  0.7151
  908SOL     OW 2722   1.252   2.556   2.042 -0.5708  0.0240 -0.2714
  908SOL    HW1 2723   1.270   2.628   1.968 -1.3535 -0.1469 -1.5970
  908SOL    HW2 2724   1.331   2.549   2.112  0.2243 -0.3244  3.0794
  909SOL     OW 2725   1.990   0.360   1.714  0.7948 -0.3588 -0.2240
  909SOL    HW1 2726   2.024   0.447   1.670 -0.7767 -1.7168  0.2356
  909SOL    HW2 2727   2.039   0.333   1.797  1.9905  1.7636  1.1059
  910SOL     OW 2728   1.271   0.850   0.013  0.2216 -0.3568  0.2585
  910SOL    HW1 2729   1.174   0.829   3.108  1.2301 -3.0787 -0.4898
  910SOL    HW2 2730   1.320   0.841   3.036 -2.3892  1.5815  2.6363
  911SOL     OW 2731   0.019   0.785   0.031 -0.4225 -0.4454  0.1246
  911SOL    HW1 2732   3.086   0.692   0.035 -0.2087 -2.2456 -1.7911
  911SOL    HW2 2733   3.071   0.858   0.076 -2.6628  0.6661 -2.0581
  912SOL     OW 2734   0.140   2.456   0.157  0.5566  0.2948 -0.0150
  912SOL    HW1 2735   0.153   2.400   0.242  0.1306  0.0765  0.0901
  912SOL    HW2 2736   0.059   2.420   0.100 -0.4785 -2.0468 -2.0452
  913SOL     OW 2737   2.737   2.410   2.396  0.5609  0.7791 -0.4718
  913SOL    HW1 2738   2.791   2.328   2.421 -2.1037  1.8529 -1.2873
  913SOL    HW2 2739   2.755   2.481   2.464  1.8160 -1.3167 -1.7439
  914SOL     OW 2740   1.605   2.023   1.474 -0.3321 -0.0232 -0.4879
  914SOL    HW1 2741   1.693   2.019   1.416  0.4486 -0.1709 -2.3720
  914SOL    HW2 2742   1.605   1.957   1.547 -0.4603  3.8500 -0.2204
  915SOL     OW 2743   0.795   2.712   1.994  0.5483 -0.6007 -0.0279
  915SOL    HW1 2744   0.823   2.641   1.927  0.5318  2.2534 -2.5587
  915SOL    HW2 2745   0.779   2.798   1.939  1.5307 -0.9801 -1.0188
  916SOL     OW 2746   0.663   1.030   1.954  0.2144  0.4024  0.2706
  916SOL    HW1 2747   0.564   1.025   1.987  1.2270 -1.1135  1.2225
  916SOL    HW2 2748   0.731   0.991   2.024  2.6300  0.1039  1.9388
  917SOL     OW 2749   2.531   0.550   0.758  0.2982 -0.0540 -0.3124
  917SOL    HW1 2750   2.464   0.478   0.784  3.0977  0.1816 -1.8284
  917SOL    HW2 2751   2.617   0.525   0.797 -4.6296  1.1658 -1.5356
  918SOL     OW 2752   1.737   2.991   2.256  0.0234  0.1629 -0.1642
  918SOL    HW1 2753   1.784   2.992   2.344  0.8520  3.1921 -1.4089
  918SOL    HW2 2754   1.645   2.948   2.268  0.6727  0.1040 -2.5522
  919SOL     OW 2755   1.494   2.653   1.674  1.1549  0.3891 -0.8651
  919SOL    HW1 2756   1.559   2.725   1.708  1.3952 -0.7703 -0.3571
  919SOL    HW2 2757   1.485   2.581   1.745  1.3428 -0.1230  2.3041
  920SOL     OW 2758   0.508   0.867   0.008  0.4004 -0.4537 -0.1531
  920SOL    HW1 2759   0.504   0.919   3.025  2.0484  0.6245 -2.0893
  920SOL    HW2 2760   0.493   0.768   3.103 -0.7454 -0.6782 -0.3857
  921SOL     OW 2761   0.140   0.413   2.726 -1.0519 -0.1104  0.2742
  921SOL    HW1 2762   0.043   0.380   2.713 -0.7863 -1.7324  0.7996
  921SOL    HW2 2763   0.205   0.346   2.687 -0.2183  0.1375 -0.0866
  922SOL     OW 2764   0.738   1.688   1.002  0.0741  0.2575  0.0729
  922SOL    HW1 2765   0.736   1.586   1.018 -2.3758 -0.6573 -1.0795
  922SOL    HW2 2766   0.683   1.737   1.072  2.4062  0.6019 -1.3072
  923SOL     OW 2767   0.662   1.296   1.935  0.0064 -0.1985  0.2350
  923SOL    HW1 2768   0.605   1.314   1.852 -0.1370 -0.1354 -1.7001
  923SOL    HW2 2769   0.674   1.195   1.946  1.0108 -2.0602 -0.7922
  924SOL     OW 2770   1.495   3.056   2.966 -0.8607  0.5421 -0.0079
  924SOL    HW1 2771   1.574   2.994   2.993  1.0607  3.4412 -2.4125
  924SOL    HW2 2772   1.399   3.020   2.991 -3.3520  0.0017  1.6476
  925SOL     OW 2773   2.646   1.390   1.212 -0.6351  0.4717  0.0266
  925SOL    HW1 2774   2.739   1.360   1.242  0.3774 -0.5556 -1.1925
  925SOL    HW2 2775   2.602   1.306   1.185  0.6524  1.6719  1.5775
  926SOL     OW 2776   1.756   0.587   1.324  0.0004  0.1311 -0.4325
  926SOL    HW1 2777   1.828   0.612   1.261 -0.1867 -3.7955 -1.9484
  926SOL    HW2 2778   1.745   0.656   1.402 -3.5101 -1.3622  0.6548
  927SOL     OW 2779   2.083   2.922   1.399  0.1104  0.6048 -0.3454
  927SOL    HW1 2780   2.171   2.899   1.356 -1.0126  1.1418  2.4765
  927SOL    HW2 2781   2.057   3.017   1.358  0.1663  3.7602 -1.7470
  928SOL     OW 2782   0.356   1.198   2.323 -0.1254  0.1803 -0.1197
  928SOL    HW1 2783   0.270   1.236   2.286 -0.5913  2.2247  1.8767
  928SOL    HW2 2784   0.338   1.103   2.363  0.5705 -3.7200 -1.9685
  929SOL     OW 2785   2.697   0.433   0.957  0.0602 -0.1281  0.5094
  929SOL    HW1 2786   2.766   0.480   1.014  1.6825  1.0778  2.8486
  929SOL    HW2 2787   2.615   0.403   1.012  0.1941 -1.5750  0.4986
  930SOL     OW 2788   2.866   2.673   1.775 -0.3504  0.4468 -0.0883
  930SOL    HW1 2789   2.903   2.771   1.784  0.2181 -4.2337 -1.2474
  930SOL    HW2 2790   2.852   2.631   1.865 -1.7876  1.5739 -0.9534
  931SOL     OW 2791   1.633   0.932   0.865  0.6341  0.3277 -0.6621
  931SOL    HW1 2792   1.543   0.905   0.820 -1.8680  0.6204 -1.4055
  931SOL    HW2 2793   1.616   0.923   0.965 -0.2250  1.2306 -0.9010
  932SOL     OW 2794   2.996   1.242   1.719  0.0415 -0.2224 -0.3605
  932SOL    HW1 2795   2.985   1.146   1.684 -1.0664  1.8795 -0.0887
  932SOL    HW2 2796   3.090   1.281   1.719 -3.2260  2.5062 -1.5182
  933SOL     OW 2797   2.940   2.300   1.475  0.3451  0.0273  0.3796
  933SOL    HW1 2798   2.916   2.398   1.501  0.3780 -1.1701 -1.6305
  933SOL    HW2 2799   2.908   2.280   1.381 -2.3303 -2.1724 -0.6305
  934SOL     OW 2800   0.610   1.949   1.413 -0.2155 -0.2406  0.4062
  934SOL    HW1 2801   0.657   1.868   1.454 -0.9556 -0.6488 -1.0294
  934SOL    HW2 2802   0.564   1.999   1.487  1.6504  0.5620 -1.3185
  935SOL     OW 2803   2.742   1.658   1.702  0.1412  0.1222  0.0042
  935SOL    HW1 2804   2.743   1.555   1.721 -0.1464 -0.4923  0.4939
  935SOL    HW2 2805   2.689   1.673   1.616  2.8609  0.1490 -0.1276
  936SOL     OW 2806   2.424   1.406   1.667 -0.0267  0.1099  0.4341
  936SOL    HW1 2807   2.462   1.432   1.582 -3.4836 -0.0281  2.1084
  936SOL    HW2 2808   2.358   1.476   1.699 -1.8569  1.8574 -2.6861
  937SOL     OW 2809   1.729   0.796   1.511  0.8411  0.2169 -0.2000
  937SOL    HW1 2810   1.644   0.845   1.477 -1.8252  1.9772 -1.4855
  937SOL    HW2 2811   1.811   0.853   1.494 -1.1645  0.6915  2.1565
  938SOL     OW 2812   0.667   2.666   2.829  0.5189  0.4698  0.3867
  938SOL    HW1 2813   0.691   2.577   2.877  0.0010 -3.2009  1.2401
  938SOL    HW2 2814   0.756   2.711   2.814 -0.1400  0.0644 -0.3322
  939SOL     OW 2815   2.346   1.472   2.913  0.1278  0.0290  0.1860
  939SOL    HW1 2816   2.404   1.395   2.884  1.2364 -1.3637 -1.6909
  939SOL    HW2 2817   2.345   1.546   2.846  0.5571  0.1639  0.2027
  940SOL     OW 2818   1.473   1.853   0.393 -0.1646  0.3632  0.3265
  940SOL    HW1 2819   1.432   1.821   0.477  1.6837 -0.2693  0.7585
  940SOL    HW2 2820   1.524   1.780   0.343 -1.6237  3.0962 -2.0747
  941SOL     OW 2821   1.879   2.820   2.735  0.0490  0.0847  0.4196
  941SOL    HW1 2822   1.822   2.745   2.779  1.0557  0.4161  1.5323
  941SOL    HW2 2823   1.975   2.820   2.762 -0.4563  0.4958 -0.5830
  942SOL     OW 2824   0.974   2.510   0.427  0.0289  0.1493  0.2492
  942SOL    HW1 2825   1.056   2.500   0.487  0.5508 -0.8776 -1.5743
  942SOL    HW2 2826   0.988   2.584   0.362  1.0077  0.9331  0.0662
  943SOL     OW 2827   2.324   0.608   1.665 -0.0871  0.1626  0.2992
  943SOL    HW1 2828   2.413   0.654   1.656 -1.2678 -1.0130  1.5315
  943SOL    HW2 2829   2.325   0.550   1.747 -0.0417 -0.4716  1.2586
  944SOL     OW 2830   1.110   1.009   2.919 -0.7210 -0.4279  0.4558
  944SOL    HW1 2831   1.076   1.103   2.945 -0.5534  2.6941 -0.4904
  944SOL    HW2 2832   1.155   1.008   2.823  3.9120  0.0589 -1.2739
  945SOL     OW 2833   2.911   2.306   1.187  0.1854  0.1954  0.2231
  945SOL    HW1 2834   2.819   2.339   1.171  2.4338  0.8913  0.0966
  945SOL    HW2 2835   2.981   2.368   1.151 -3.6373  1.1036 -0.8520
  946SOL     OW 2836   0.446   1.059   2.894 -0.3219 -0.0965 -0.4726
  946SOL    HW1 2837   0.434   1.145   2.955 -1.4460  4.5682 -0.0627
  946SOL    HW2 2838   0.489   1.087   2.806 -0.7818 -0.1177  0.0197
  947SOL     OW 2839   2.031   0.308   1.988  0.9293  0.5962 -0.2434
  947SOL    HW1 2840   1.956   0.341   2.046 -0.5036 -0.4092 -0.6210
  947SOL    HW2 2841   2.051   0.208   2.006  1.7167 -0.4708  0.5242
  948SOL     OW 2842   2.922   2.277   0.878  0.4378  0.8434  0.0889
  948SOL    HW1 2843   2.961   2.233   0.962  0.3121  0.3539  0.0611
  948SOL    HW2 2844   2.829   2.237   0.867 -0.0292  0.0508  0.2123
  949SOL     OW 2845   1.226   1.292   1.799 -0.5728 -0.3546 -0.5988
  949SOL    HW1 2846   1.138   1.257   1.757 -1.9799  1.2722 -1.5494
  949SOL    HW2 2847   1.200   1.352   1.881  1.1028  1.2801  0.1422
  950SOL     OW 2848   0.194   0.934   0.937  0.5041 -0.2039  0.1123
  950SOL    HW1 2849   0.240   0.853   0.979 -0.6213  1.5530  1.9943
  950SOL    HW2 2850   0.242   1.025   0.953  2.5851 -1.3597 -0.0860
  951SOL     OW 2851   0.296   1.840   2.300 -0.5002 -0.2714 -0.3183
  951SOL    HW1 2852   0.239   1.776   2.357 -0.2830  1.4158  2.1349
  951SOL    HW2 2853   0.397   1.817   2.307  1.7222 -1.1053 -0.8535
  952SOL     OW 2854   1.593   1.640   0.266 -0.0153  0.0724 -0.5614
  952SOL    HW1 2855   1.632   1.601   0.351 -1.3105  0.3583  1.4482
  952SOL    HW2 2856   1.532   1.578   0.214  0.7427  1.5457 -0.4078
  953SOL     OW 2857   0.992   0.512   0.176  0.4699 -0.2672  0.2886
  953SOL    HW1 2858   1.034   0.472   0.092 -0.6400  1.1689  1.4545
  953SOL    HW2 2859   0.931   0.591   0.157  0.6792  0.1965  0.3633
  954SOL     OW 2860   1.867   1.154   0.324 -0.6951 -0.2198 -0.5330
  954SOL    HW1 2861   1.927   1.206   0.388  0.4784 -1.3284  0.3754
  954SOL    HW2 2862   1.778   1.198   0.317  1.2751 -0.3091 -0.9994
  955SOL     OW 2863   2.417   2.155   2.883 -0.2097 -0.3342 -0.3031
  955SOL    HW1 2864   2.460   2.071   2.846 -2.4374 -1.9133  3.4173
  955SOL    HW2 2865   2.474   2.234   2.871 -3.7961 -1.5786  3.0381
  956SOL     OW 2866   1.070   0.700   1.647 -0.7712  0.1782 -0.2128
  956SOL    HW1 2867   1.142   0.628   1.633  1.1754 -0.2806  0.4672
  956SOL    HW2 2868   1.117   0.789   1.640 -0.3860 -1.2898  0.2144
  957SOL     OW 2869   1.585   1.115   1.637  0.6701 -0.0595  0.1227
  957SOL    HW1 2870   1.648   1.108   1.720  1.7302 -2.4458  0.1960
  957SOL    HW2 2871   1.525   1.197   1.636 -1.0696 -1.3787  1.3173
  958SOL     OW 2872   0.245   1.898   0.377  0.7075  0.5916 -0.4226
  958SOL    HW1 2873   0.238   1.799   0.346  2.5880 -1.6397  0.1274
  958SOL    HW2 2874   0.323   1.950   0.334  0.8767 -1.2180  1.4393
  959SOL     OW 2875   1.598   1.277   1.309 -0.4840  0.7808 -0.0225
  959SOL    HW1 2876   1.512   1.225   1.312  0.6353  1.7234 -0.7482
  959SOL    HW2 2877   1.577   1.368   1.273 -1.2086 -1.0326 -0.6981
  960SOL     OW 2878   3.002   1.499   2.608 -0.0580  0.2703  0.3863
  960SOL    HW1 2879   3.012   1.595   2.632 -0.5636  0.8678 -0.6849
  960SOL    HW2 2880   3.079   1.444   2.647 -1.5143  0.5684 -0.3051
  961SOL     OW 2881   1.037   1.740   0.754 -0.0259  0.2483 -0.1804
  961SOL    HW1 2882   0.943   1.741   0.789  1.3824 -2.2539 -1.0219
  961SOL    HW2 2883   1.036   1.723   0.651 -2.0919 -2.0281 -2.7229
  962SOL     OW 2884   0.699   1.013   0.657  0.0151 -0.1842 -0.2645
  962SOL    HW1 2885   0.785   1.069   0.660 -0.4127 -1.7753 -0.3469
  962SOL    HW2 2886   0.620   1.065   0.619 -0.6372 -2.4599  1.5024
  963SOL     OW 2887   1.441   1.974   2.074  0.3112  0.2443  0.3225
  963SOL    HW1 2888   1.482   1.979   2.166 -0.0470 -0.4277 -2.4736
  963SOL    HW2 2889   1.443   1.875   2.040 -2.9419 -3.0652  1.8419
  964SOL     OW 2890   2.839   2.789   2.800 -0.5084  0.2757  0.0597
  964SOL    HW1 2891   2.814   2.779   2.900 -0.8411  1.0794 -2.6525
  964SOL    HW2 2892   2.933   2.752   2.770  2.2801 -1.3912 -1.8875
  965SOL     OW 2893   0.827   2.229   0.014 -0.0366 -0.2132  0.4439
  965SOL    HW1 2894   0.722   2.240   0.023 -2.8412  0.2371  0.9020
  965SOL    HW2 2895   0.880   2.280   0.083 -3.4533  0.1049 -0.8577
  966SOL     OW 2896   2.806   1.815   3.044  0.2252  0.0130  0.0843
  966SOL    HW1 2897   2.719   1.765   3.070 -2.1436 -3.8774 -3.2505
  966SOL    HW2 2898   2.813   1.815   2.943  0.1781  1.3904  1.9038
  967SOL     OW 2899   2.184   3.042   2.906 -0.0716  0.1057 -0.3247
  967SOL    HW1 2900   2.244   0.004   2.864 -2.4543  0.9195  0.9890
  967SOL    HW2 2901   2.174   2.958   2.847  1.5357  0.2275 -0.3225
  968SOL     OW 2902   2.125   2.817   0.579 -0.2342  0.0430  0.2102
  968SOL    HW1 2903   2.087   2.785   0.490 -0.7661  0.3427  0.5374
  968SOL    HW2 2904   2.085   2.766   0.660  2.1028  0.4562  2.1380
  969SOL     OW 2905   0.859   1.153   2.434  0.2445 -0.3206 -0.0407
  969SOL    HW1 2906   0.872   1.130   2.531 -0.4087  0.5458  0.8253
  969SOL    HW2 2907   0.766   1.120   2.400 -1.4450 -0.2798 -0.7810
  970SOL     OW 2908   1.622   1.263   0.952  0.1591  0.4854  0.0551
  970SOL    HW1 2909   1.528   1.257   0.916  1.2058 -1.7344 -1.6020
  970SOL    HW2 2910   1.640   1.193   1.023  0.1762  0.7650 -1.2921
  971SOL     OW 2911   2.401   0.032   1.342  0.1975  0.1377 -0.2771
  971SOL    HW1 2912   2.345   0.101   1.392 -1.6674  2.3717 -0.3872
  971SOL    HW2 2913   2.501   0.054   1.356  0.3220  1.2278 -1.9767
  972SOL     OW 2914   2.932   0.167   1.688 -0.0111 -0.5054  0.1388
  972SOL    HW1 2915   2.833   0.153   1.676  3.3765  0.0558  2.0954
  972SOL    HW2 2916   2.991   0.082   1.671 -0.8166 -0.0338 -2.2782
  973SOL     OW 2917   0.105   0.106   2.466  0.6911 -0.4318  0.0423
  973SOL    HW1 2918   0.165   0.157   2.532  0.5730  2.4979  0.7010
  973SOL    HW2 2919   0.021   0.071   2.515 -1.3677 -0.1296  0.7748
  974SOL     OW 2920   2.218   1.216   2.348 -0.2873  0.6250  0.3031
  974SOL    HW1 2921   2.228   1.208   2.449 -3.2475 -0.1194 -0.2488
  974SOL    HW2 2922   2.135   1.163   2.316 -0.6534 -0.3472  0.5825
  975SOL     OW 2923   0.739   0.345   1.525  0.1575 -0.5901 -0.0925
  975SOL    HW1 2924   0.719   0.297   1.436 -1.6776  0.6542  1.7235
  975SOL    HW2 2925   0.791   0.432   1.508 -1.0572 -1.8702  0.0451
  976SOL     OW 2926   0.732   1.944   2.142 -0.3118 -0.2792 -0.0414
  976SOL    HW1 2927   0.680   1.999   2.071 -0.4148 -0.1565  1.5541
  976SOL    HW2 2928   0.813   1.997   2.172 -2.1438  0.7162 -1.7247
  977SOL     OW 2929   0.584   0.136   0.361 -0.0748  0.6288 -0.5402
  977SOL    HW1 2930   0.553   0.213   0.307  2.0288  0.5226 -1.3372
  977SOL    HW2 2931   0.601   0.166   0.453 -1.9004 -0.4852 -2.3458
  978SOL     OW 2932   2.661   1.436   2.159 -0.4933  0.1736  0.1194
  978SOL    HW1 2933   2.753   1.436   2.112  2.9745 -1.9674  1.5217
  978SOL    HW2 2934   2.651   1.348   2.210 -0.1841  1.1344 -2.0230
  979SOL     OW 2935   1.605   3.076   1.977  0.1142  0.5898 -0.2086
  979SOL    HW1 2936   1.665   0.030   1.921  1.2854 -2.0214  2.9374
  979SOL    HW2 2937   1.655   3.059   2.066  0.2916 -0.5018  1.5710
  980SOL     OW 2938   1.649   1.618   1.647 -0.0517  0.4981 -0.2021
  980SOL    HW1 2939   1.713   1.626   1.569 -2.1245  0.6348  4.2916
  980SOL    HW2 2940   1.550   1.641   1.635  0.1441 -1.8505 -2.0043
  981SOL     OW 2941   2.491   1.117   1.431 -0.2053 -0.0857  0.4170
  981SOL    HW1 2942   2.467   1.110   1.532  1.8641 -2.0391  1.8080
  981SOL    HW2 2943   2.589   1.094   1.416 -0.7337  2.0976  0.9057
  982SOL     OW 2944   0.635   3.009   2.800 -0.5869 -0.1492 -0.4261
  982SOL    HW1 2945   0.732   2.993   2.807 -0.2161 -5.8988 -1.3657
  982SOL    HW2 2946   0.595   2.940   2.863  1.2827  0.7684 -0.5291
  983SOL     OW 2947   2.862   0.599   2.536 -0.0398  0.0836 -0.0890
  983SOL    HW1 2948   2.925   0.674   2.572  0.7590 -0.3903 -1.6741
  983SOL    HW2 2949   2.906   0.565   2.452 -3.4407  0.2503  0.0478
  984SOL     OW 2950   1.242   0.054   2.173  0.0280 -0.2943  0.0862
  984SOL    HW1 2951   1.311   3.098   2.131 -1.4605  1.8703 -1.0190
  984SOL    HW2 2952   1.150   0.014   2.159  3.0775  0.8230 -0.0861
  985SOL     OW 2953   1.950   1.985   1.926  0.3677 -0.3483 -0.5549
  985SOL    HW1 2954   1.922   1.980   1.826 -0.0838  2.6839 -0.5210
  985SOL    HW2 2955   1.991   1.900   1.968 -0.7455  0.3578  0.3719
  986SOL     OW 2956   2.518   0.435   1.366  0.5204  0.2152 -0.5924
  986SOL    HW1 2957   2.459   0.413   1.445 -0.3043 -1.7797 -1.7955
  986SOL    HW2 2958   2.613   0.409   1.381 -0.5754  0.2223 -1.8838
  987SOL     OW 2959   2.376   1.264   1.237  0.4773 -0.3747  0.2598
  987SOL    HW1 2960   2.408   1.240   1.329 -2.2086 -0.1135 -0.1235
  987SOL    HW2 2961   2.407   1.201   1.163 -0.5979 -1.6223 -1.1630
  988SOL     OW 2962   2.566   1.264   1.849 -0.0624 -0.0940 -0.6948
  988SOL    HW1 2963   2.532   1.252   1.942 -1.2530  0.3615  0.2789
  988SOL    HW2 2964   2.501   1.325   1.796 -0.9261  0.6963  0.2713
  989SOL     OW 2965   1.353   2.268   0.060 -0.0363  0.5760 -0.3739
  989SOL    HW1 2966   1.403   2.315   0.132  0.1729 -0.3544 -0.0102
  989SOL    HW2 2967   1.282   2.200   0.094  1.4914 -1.0443 -0.0577
  990SOL     OW 2968   1.689   0.842   2.787 -0.2829  0.3136 -0.0825
  990SOL    HW1 2969   1.694   0.788   2.700  0.0085 -3.9334  2.1925
  990SOL    HW2 2970   1.719   0.776   2.861  0.0347 -2.1837 -2.7894
  991SOL     OW 2971   1.136   0.518   0.595  0.6923  0.0629  0.2454
  991SOL    HW1 2972   1.234   0.543   0.593  4.0545 -2.5990  2.2477
  991SOL    HW2 2973   1.117   0.450   0.517 -0.5438 -4.0890 -0.4886
  992SOL     OW 2974   2.990   1.815   1.103  0.9041  0.4490 -0.7360
  992SOL    HW1 2975   2.977   1.842   1.006  0.8797 -1.5927 -0.2273
  992SOL    HW2 2976   3.017   1.899   1.155  0.6087  0.5337  1.6922
  993SOL     OW 2977   2.882   0.508   1.135 -0.5695  0.1556 -0.0008
  993SOL    HW1 2978   2.863   0.601   1.162 -2.2891 -0.6804  0.4595
  993SOL    HW2 2979   2.979   0.477   1.119 -0.0890 -0.1447  0.8589
  994SOL     OW 2980   0.015   2.135   2.565  0.5779 -0.1577 -0.1444
  994SOL    HW1 2981   0.114   2.139   2.550 -2.7229 -2.0958  0.0313
  994SOL    HW2 2982   3.095   2.047   2.607 -0.6586  0.2402 -1.1188
  995SOL     OW 2983   2.015   0.962   2.814  0.5900  0.2371 -0.0581
  995SOL    HW1 2984   2.020   1.014   2.724  1.1709 -0.8920 -0.6030
  995SOL    HW2 2985   2.024   0.863   2.792  2.7373 -0.6649  0.6810
  996SOL     OW 2986   2.627   1.429   0.601  0.2934  0.7397  0.2342
  996SOL    HW1 2987   2.551   1.478   0.557  0.8510  1.2759  1.7467
  996SOL    HW2 2988   2.698   1.396   0.537 -1.2429 -0.0353  0.8367
  997SOL     OW 2989   2.083   0.876   2.086 -0.0144 -0.1394 -0.2361
  997SOL    HW1 2990   2.149   0.920   2.020  1.4941 -0.6623 -3.2537
  997SOL    HW2 2991   2.015   0.815   2.039  2.3310  0.0834 -4.4850
  998SOL     OW 2992   2.742   1.492   0.225  0.9949  0.1748  0.1882
  998SOL    HW1 2993   2.709   1.572   0.272 -0.0764 -4.9625 -2.5616
  998SOL    HW2 2994   2.760   1.412   0.284 -1.9884  1.9769 -1.4587
  999SOL     OW 2995   2.980   2.350   0.048  0.0438  0.2339  0.2063
  999SOL    HW1 2996   2.974   2.251   0.080 -3.8600  2.6337  2.9033
  999SOL    HW2 2997   2.927   2.411   0.111  4.0449  0.9273 -1.9504
 1000SOL     OW 2998   0.893   0.856   2.671  0.9683  0.1976 -0.1165
 1000SOL    HW1 2999   0.923   0.801   2.753 -1.2542  1.5922  1.5290
 1000SOL    HW2 3000   0.937   0.819   2.587  0.7086  0.4869 -0.0604
   3.10895   3.10895   3.10895
