1000 SPC/Fw water molecules t= 344.00000 step= 344000
 3000
    1SOL     OW    1   2.503   0.214   1.257  0.1918  0.0278  0.1374
    1SOL    HW1    2   2.452   0.275   1.323 -0.7262  2.4161  2.4629
    1SOL    HW2    3   2.557   0.142   1.306  0.7534 -2.5270 -1.0834
    2SOL     OW    4   2.602   2.592   0.979 -0.1089  0.1585  0.5483
    2SOL    HW1    5   2.593   2.643   1.064  0.4697 -0.6787 -1.2605
    2SOL    HW2    6   2.580   2.496   0.988  0.4882  1.7066  3.4952
    3SOL     OW    7   1.283   2.911   2.716  0.3688  0.7274 -0.9145
    3SOL    HW1    8   1.335   2.983   2.755 -2.6260 -0.1704 -0.1365
    3SOL    HW2    9   1.189   2.898   2.753  1.3730 -4.1318 -4.4850
    4SOL     OW   10   1.830   2.626   2.332 -0.1305  0.0678  0.6229
    4SOL    HW1   11   1.907   2.695   2.322  2.5416  1.1334 -0.8994
    4SOL    HW2   12   1.870   2.533   2.313 -0.5016 -0.4537 -0.7081
    5SOL     OW   13   1.873   0.759   1.925 -0.4359  0.4603  0.3174
    5SOL    HW1   14   1.971   0.794   1.917  2.3984 -0.9607  0.0292
    5SOL    HW2   15   1.834   0.739   1.830 -0.8482  1.9339 -4.3621
    6SOL     OW   16   2.181   2.722   0.677  0.8048 -0.4490  0.0425
    6SOL    HW1   17   2.205   2.690   0.582  2.5515  3.1834 -3.2207
    6SOL    HW2   18   2.166   2.823   0.676 -1.7016 -0.9110 -0.3702
    7SOL     OW   19   1.732   1.234   1.240  0.4907  0.3412  0.2056
    7SOL    HW1   20   1.741   1.320   1.289  1.6100  0.8587 -1.1367
    7SOL    HW2   21   1.656   1.242   1.173 -0.0814 -1.7566  1.4429
    8SOL     OW   22   0.788   2.021   1.330  0.0860  0.6720 -0.0387
    8SOL    HW1   23   0.746   1.936   1.368 -1.7789 -1.2372  0.8054
    8SOL    HW2   24   0.864   2.056   1.385 -0.1946  0.6929 -1.3775
    9SOL     OW   25   1.198   2.399   2.062 -0.2628 -0.5128  0.1117
    9SOL    HW1   26   1.103   2.397   2.097 -2.8226  0.7779 -0.9200
    9SOL    HW2   27   1.202   2.357   1.970  0.5021 -0.9735 -0.5488
   10SOL     OW   28   0.376   2.114   0.710 -0.6401  0.3050 -0.0420
   10SOL    HW1   29   0.458   2.055   0.706 -1.4254  0.0066 -2.7932
   10SOL    HW2   30   0.397   2.193   0.769  0.4679  0.3363  2.2234
   11SOL     OW   31   1.505   2.365   1.409 -0.5272 -0.3174  0.4916
   11SOL    HW1   32   1.533   2.410   1.322  1.5248 -0.7420  0.3520
   11SOL    HW2   33   1.453   2.281   1.389  3.4274 -0.7227  0.2574
   12SOL     OW   34   2.553   0.339   2.371  0.0910 -0.4460  0.2609
   12SOL    HW1   35   2.628   0.289   2.412 -0.2714 -0.2672 -2.2339
   12SOL    HW2   36   2.547   0.312   2.272  0.5835 -0.3589  0.0318
   13SOL     OW   37   2.735   2.914   0.630 -0.2608 -0.2935  0.1280
   13SOL    HW1   38   2.742   2.840   0.702 -0.8690 -2.3120 -0.2947
   13SOL    HW2   39   2.822   2.974   0.627  1.6346 -0.6328 -0.9756
   14SOL     OW   40   1.448   1.574   2.748 -0.2705  0.1697  0.0760
   14SOL    HW1   41   1.494   1.494   2.701 -0.0342 -2.8844  0.3562
   14SOL    HW2   42   1.519   1.630   2.794  1.2230 -2.9033  1.2237
   15SOL     OW   43   2.584   2.767   1.679 -0.3061 -0.2821 -0.4099
   15SOL    HW1   44   2.542   2.770   1.773  0.5149  1.2519  0.3338
   15SOL    HW2   45   2.529   2.727   1.606  0.3890  2.1175  1.4404
   16SOL     OW   46   2.689   2.719   0.405 -0.1083 -0.2808  0.7087
   16SOL    HW1   47   2.663   2.787   0.481  2.4632  1.6583  0.4368
   16SOL    HW2   48   2.781   2.675   0.422  0.9217 -0.8408  1.6625
   17SOL     OW   49   0.277   0.482   1.185 -0.3891 -0.1588 -0.2002
   17SOL    HW1   50   0.298   0.575   1.145  0.9668 -1.4556 -0.8396
   17SOL    HW2   51   0.353   0.411   1.169  1.7894 -0.9254 -4.0178
   18SOL     OW   52   2.165   0.488   0.293 -0.1396  0.3934  0.5298
   18SOL    HW1   53   2.097   0.564   0.309 -2.1938  0.2238  1.5696
   18SOL    HW2   54   2.161   0.405   0.351  1.1310 -0.5846 -2.0471
   19SOL     OW   55   1.992   1.630   0.031 -0.3546 -0.0178 -0.3781
   19SOL    HW1   56   1.911   1.684   3.096  0.4717  1.3562  1.1244
   19SOL    HW2   57   1.964   1.542   0.075  0.4138  0.7450 -1.2489
   20SOL     OW   58   2.440   2.003   2.158  0.4116 -0.1674  0.2209
   20SOL    HW1   59   2.409   1.906   2.168 -2.6179  0.0737 -0.2704
   20SOL    HW2   60   2.424   2.064   2.238 -1.6731 -1.2369  3.2973
   21SOL     OW   61   1.676   3.100   0.480  0.2569  0.4750 -0.0624
   21SOL    HW1   62   1.703   3.020   0.539 -0.3437 -1.1508  0.4363
   21SOL    HW2   63   1.755   0.015   0.418  0.7895  0.0643  0.8052
   22SOL     OW   64   2.819   0.417   1.792  0.5055  0.1504 -0.0415
   22SOL    HW1   65   2.743   0.356   1.762 -1.4740  1.5655  1.8463
   22SOL    HW2   66   2.806   0.515   1.754 -0.6233  1.6401  0.7815
   23SOL     OW   67   0.395   0.736   2.049 -0.1758  0.3865 -0.4432
   23SOL    HW1   68   0.354   0.769   2.135 -1.0822 -0.4581 -2.9304
   23SOL    HW2   69   0.393   0.632   2.034  0.8530 -3.7517 -0.6144
   24SOL     OW   70   2.611   2.545   0.581  0.1796  0.5919 -0.2520
   24SOL    HW1   71   2.613   2.597   0.494  1.4325 -3.6691 -0.4649
   24SOL    HW2   72   2.550   2.587   0.649 -1.7011 -1.8401 -0.5442
   25SOL     OW   73   1.001   2.870   2.793  0.0613  0.1919  0.1580
   25SOL    HW1   74   0.976   2.786   2.835 -1.1558 -0.3206  2.0510
   25SOL    HW2   75   1.055   2.925   2.862  0.2434  3.2900  1.4839
   26SOL     OW   76   1.113   2.622   0.272 -0.4229  0.0048 -0.2978
   26SOL    HW1   77   1.148   2.592   0.179 -0.9935 -1.9064  0.3167
   26SOL    HW2   78   1.187   2.674   0.320 -0.5503  0.0944  3.0135
   27SOL     OW   79   2.309   0.821   0.070 -0.2232  0.6920 -0.5140
   27SOL    HW1   80   2.247   0.888   0.112 -1.5910  0.3059  0.7537
   27SOL    HW2   81   2.385   0.863   0.020 -2.0367 -0.5866  0.7319
   28SOL     OW   82   1.084   1.506   0.963 -0.3809  0.7513  0.2463
   28SOL    HW1   83   1.082   1.460   0.870 -0.0012  0.9307  0.0863
   28SOL    HW2   84   1.160   1.573   0.964 -0.3445  0.0624  0.8688
   29SOL     OW   85   2.842   2.850   1.747  0.8021 -0.3523 -0.6373
   29SOL    HW1   86   2.937   2.818   1.725 -0.8171  1.2725 -0.5240
   29SOL    HW2   87   2.772   2.788   1.715  2.7807  2.2430 -1.3163
   30SOL     OW   88   1.212   0.064   1.237 -0.2575  0.0535  0.2685
   30SOL    HW1   89   1.256   3.077   1.204  1.1649 -0.8430  0.6323
   30SOL    HW2   90   1.222   0.141   1.174 -1.2046 -2.4065  0.2805
   31SOL     OW   91   2.302   2.912   2.354  0.0441 -0.0924  0.4512
   31SOL    HW1   92   2.248   2.942   2.427  0.0759 -1.2112 -2.4647
   31SOL    HW2   93   2.278   2.958   2.266 -0.0505 -2.0106  2.1103
   32SOL     OW   94   1.043   1.234   0.343  0.4811  0.1096 -0.2302
   32SOL    HW1   95   1.064   1.319   0.292 -0.9414  0.0061 -0.0189
   32SOL    HW2   96   0.957   1.241   0.395  1.0890 -0.9535 -1.2071
   33SOL     OW   97   0.158   1.198   2.537 -0.3691 -0.1134 -0.4195
   33SOL    HW1   98   0.080   1.239   2.488  0.8944  0.4949  2.8637
   33SOL    HW2   99   0.222   1.153   2.470 -0.1870  1.6243 -2.3436
   34SOL     OW  100   2.550   3.098   0.540  0.3047 -0.3805 -0.4051
   34SOL    HW1  101   2.619   3.027   0.557  1.5606  2.2834 -0.9702
   34SOL    HW2  102   2.541   0.072   0.613 -0.3555  0.5722  0.9095
   35SOL     OW  103   2.527   2.936   2.018 -0.7121 -0.0968 -0.1100
   35SOL    HW1  104   2.610   2.870   2.014  4.2381 -0.3229  3.0150
   35SOL    HW2  105   2.441   2.885   2.000 -2.4658  2.1218  0.2003
   36SOL     OW  106   2.088   2.201   0.007  0.1324  0.0737  0.4164
   36SOL    HW1  107   2.164   2.262   3.074  1.5973 -1.8877 -1.7640
   36SOL    HW2  108   2.066   2.134   3.035 -0.3335  4.5315 -0.6820
   37SOL     OW  109   1.760   3.088   2.101 -0.6232 -0.0357  0.3432
   37SOL    HW1  110   1.797   0.074   2.135  1.0322 -0.8874 -0.2592
   37SOL    HW2  111   1.794   3.086   2.003  1.9282 -0.0902 -3.5009
   38SOL     OW  112   0.175   0.645   2.655 -0.0388 -0.4398  0.2663
   38SOL    HW1  113   0.271   0.639   2.689  0.7308 -0.9089  1.0647
   38SOL    HW2  114   0.114   0.672   2.735 -2.1456  0.0266 -0.2158
   39SOL     OW  115   1.997   1.406   1.603 -0.2230 -0.0950 -0.3699
   39SOL    HW1  116   2.064   1.396   1.532  0.4741 -0.4173  1.4270
   39SOL    HW2  117   2.017   1.353   1.690 -1.0049 -1.1680 -1.6358
   40SOL     OW  118   1.304   2.474   0.587  0.1154 -0.2702 -0.7120
   40SOL    HW1  119   1.406   2.487   0.593  1.5670  0.4702  0.3783
   40SOL    HW2  120   1.284   2.411   0.512  0.0859  0.6587 -0.7557
   41SOL     OW  121   2.134   1.252   0.794 -0.4265  0.5799  0.2657
   41SOL    HW1  122   2.072   1.330   0.797  1.1173 -1.4660  1.4934
   41SOL    HW2  123   2.179   1.239   0.702  3.0930  0.6546 -0.1201
   42SOL     OW  124   0.847   0.262   1.103  0.8065 -0.2456 -0.3846
   42SOL    HW1  125   0.835   0.264   1.002 -0.3294 -2.8025  0.9541
   42SOL    HW2  126   0.902   0.184   1.139 -0.2759 -1.8311  2.4882
   43SOL     OW  127   0.116   1.763   2.300 -0.6538  0.1449  0.2510
   43SOL    HW1  128   0.122   1.755   2.403 -0.1495 -0.8498  0.7051
   43SOL    HW2  129   0.146   1.852   2.263 -1.0232  1.5933 -0.4071
   44SOL     OW  130   2.237   3.074   1.591 -1.0337 -0.4821  0.5443
   44SOL    HW1  131   2.168   3.093   1.521  2.5057  0.5280  0.0370
   44SOL    HW2  132   2.328   3.051   1.549  0.7379 -3.6476  2.2021
   45SOL     OW  133   1.079   0.041   2.358 -0.2082  0.1461 -0.0052
   45SOL    HW1  134   1.182   0.023   2.382  1.5186  0.2572  2.2366
   45SOL    HW2  135   1.013   0.000   2.424 -0.6040  1.6988 -0.3508
   46SOL     OW  136   0.961   2.254   2.477 -0.4006 -0.4098  0.0328
   46SOL    HW1  137   1.062   2.235   2.482 -1.1135 -0.5801  0.3579
   46SOL    HW2  138   0.937   2.319   2.551 -1.5317 -0.1011 -1.4859
   47SOL     OW  139   1.243   1.746   0.667 -0.0545 -0.2980 -0.9051
   47SOL    HW1  140   1.318   1.717   0.601 -0.6944  4.4836 -1.5220
   47SOL    HW2  141   1.257   1.700   0.758 -1.1162 -0.1536  1.0598
   48SOL     OW  142   1.179   2.320   0.856  0.1890 -0.2057 -0.1665
   48SOL    HW1  143   1.167   2.291   0.759  1.4244  1.7235  0.7954
   48SOL    HW2  144   1.149   2.255   0.926  3.0809  0.0581 -0.8049
   49SOL     OW  145   2.256   0.019   2.967  0.3946 -0.0973 -0.9194
   49SOL    HW1  146   2.233   3.095   3.063 -0.3392 -1.7254  0.9495
   49SOL    HW2  147   2.181   0.070   2.924  1.4022 -4.7138 -0.0012
   50SOL     OW  148   1.633   0.017   0.104 -0.5015 -0.3766  0.1716
   50SOL    HW1  149   1.736   0.024   0.086  2.1458  1.2201  1.7603
   50SOL    HW2  150   1.582   0.029   0.014  0.3540 -2.6531 -1.3573
   51SOL     OW  151   2.313   0.668   1.339  0.1737  0.3132  0.2046
   51SOL    HW1  152   2.299   0.738   1.408  0.4859 -1.5324 -2.1236
   51SOL    HW2  153   2.413   0.662   1.316  0.4548  1.2493  1.1943
   52SOL     OW  154   1.085   1.529   0.282 -0.3376 -0.2076  0.2457
   52SOL    HW1  155   1.083   1.554   0.384 -1.1485 -0.6877  0.0779
   52SOL    HW2  156   1.081   1.610   0.226 -0.7238 -0.1355 -0.0364
   53SOL     OW  157   0.157   1.671   2.576  0.0986 -0.6917  0.0732
   53SOL    HW1  158   0.177   1.764   2.611  0.2915  0.0181 -0.0489
   53SOL    HW2  159   0.067   1.643   2.611  1.1955 -0.1292 -1.8982
   54SOL     OW  160   2.914   1.380   1.811  0.1385  0.2282 -0.4319
   54SOL    HW1  161   2.856   1.417   1.733 -1.7452 -0.6591  0.3779
   54SOL    HW2  162   2.847   1.327   1.869 -1.3896 -0.0869  0.6968
   55SOL     OW  163   2.096   1.926   0.604 -0.1207  0.0623  0.0415
   55SOL    HW1  164   2.182   1.873   0.637 -3.1049  0.5274 -1.6541
   55SOL    HW2  165   2.097   2.016   0.649  1.5587 -3.3302 -1.3495
   56SOL     OW  166   1.711   0.234   1.709  0.1241 -0.1994  0.1362
   56SOL    HW1  167   1.786   0.306   1.713  0.9810  0.0787  0.6318
   56SOL    HW2  168   1.625   0.271   1.746 -0.2438  2.1234 -1.0853
   57SOL     OW  169   1.407   1.167   2.686 -0.0232 -0.5940 -0.1886
   57SOL    HW1  170   1.430   1.231   2.616 -1.5564 -2.0621 -0.4061
   57SOL    HW2  171   1.494   1.117   2.699  3.5503  0.2073 -1.3597
   58SOL     OW  172   3.019   0.612   1.236 -0.7409  0.0644 -0.0314
   58SOL    HW1  173   3.073   0.527   1.245  0.2523  1.5249 -0.9581
   58SOL    HW2  174   2.948   0.604   1.161 -0.0451 -0.0377 -0.8549
   59SOL     OW  175   1.526   2.860   0.207  0.0840 -0.6653 -0.1827
   59SOL    HW1  176   1.552   2.943   0.157  0.0057 -0.6073  0.3012
   59SOL    HW2  177   1.573   2.840   0.293 -0.3655 -0.2189  1.6500
   60SOL     OW  178   2.895   1.843   2.841 -0.0977  0.0224 -0.1278
   60SOL    HW1  179   2.877   1.935   2.811  0.2952 -3.6586 -0.7648
   60SOL    HW2  180   2.823   1.797   2.897 -0.7313  0.6574 -1.9408
   61SOL     OW  181   0.711   2.725   0.838 -0.0828 -0.0967  0.0837
   61SOL    HW1  182   0.742   2.817   0.809  1.7994 -1.0610 -0.1795
   61SOL    HW2  183   0.753   2.699   0.931  1.5296  0.6487 -1.6392
   62SOL     OW  184   1.605   1.421   2.572 -0.0144 -0.3320  0.1187
   62SOL    HW1  185   1.624   1.461   2.479 -1.1973  0.2640 -2.1637
   62SOL    HW2  186   1.685   1.360   2.597  0.6905  1.1738 -0.9235
   63SOL     OW  187   2.128   2.172   0.279  0.2118 -0.4683  0.1001
   63SOL    HW1  188   2.073   2.241   0.329 -0.5093 -0.1620  1.0455
   63SOL    HW2  189   2.105   2.189   0.177 -2.0500 -2.0552  0.2271
   64SOL     OW  190   1.855   1.000   2.981 -0.1811 -0.2554  0.4043
   64SOL    HW1  191   1.771   0.952   3.012  0.9068 -1.3895 -0.7011
   64SOL    HW2  192   1.842   1.099   2.977 -0.1599  0.4494  0.8048
   65SOL     OW  193   2.068   1.883   2.281  0.0563 -0.6292 -0.2988
   65SOL    HW1  194   2.160   1.837   2.270  1.8746 -1.0847 -0.9015
   65SOL    HW2  195   2.009   1.856   2.204  3.1414 -1.0239 -2.7534
   66SOL     OW  196   0.369   1.110   1.077 -0.6760 -0.1440 -0.0880
   66SOL    HW1  197   0.307   1.073   1.005 -0.7753 -1.9348 -0.7041
   66SOL    HW2  198   0.355   1.209   1.087  1.9632 -0.9709  0.7243
   67SOL     OW  199   2.110   3.056   2.576 -0.4899 -0.1655  0.2966
   67SOL    HW1  200   2.075   0.037   2.527 -2.2252  2.5479  1.9798
   67SOL    HW2  201   2.033   3.003   2.608  1.9935  1.8829 -1.9685
   68SOL     OW  202   1.100   2.470   1.460 -0.9193  0.4228  0.0711
   68SOL    HW1  203   1.164   2.529   1.408 -1.7367 -3.1381  0.9228
   68SOL    HW2  204   1.127   2.374   1.453  1.5527 -0.1695  1.9625
   69SOL     OW  205   0.708   2.525   3.066 -0.8143  0.3303  0.2881
   69SOL    HW1  206   0.685   2.576   0.048  3.7056  0.1731 -1.5676
   69SOL    HW2  207   0.734   2.433   0.005 -2.2588 -0.2266  0.8078
   70SOL     OW  208   0.099   0.663   2.398  0.3628 -0.1798 -0.0311
   70SOL    HW1  209   0.085   0.759   2.369  1.1150  0.5652  0.9228
   70SOL    HW2  210   0.108   0.649   2.503  1.1943  1.9586  4.7478
   71SOL     OW  211   0.755   1.465   2.866  0.2637  0.2994  0.1009
   71SOL    HW1  212   0.758   1.468   2.763 -0.3293  0.4107 -0.2109
   71SOL    HW2  213   0.657   1.485   2.894 -1.4188  0.3562  2.0965
   72SOL     OW  214   2.954   1.483   2.237 -0.0524 -0.3737 -0.3742
   72SOL    HW1  215   3.036   1.523   2.199 -2.5401 -2.2091  1.1906
   72SOL    HW2  216   2.876   1.546   2.225  0.1020  0.8153  1.5068
   73SOL     OW  217   1.676   1.226   0.638  0.5395  0.6792 -0.7218
   73SOL    HW1  218   1.735   1.220   0.556 -0.9276 -1.7074 -1.3463
   73SOL    HW2  219   1.702   1.145   0.697  3.1995 -0.8513 -2.7331
   74SOL     OW  220   2.524   2.705   2.725  0.0119  0.0929 -0.5452
   74SOL    HW1  221   2.537   2.772   2.650 -1.5036 -0.7931 -1.4294
   74SOL    HW2  222   2.423   2.685   2.727 -0.4350 -2.4447 -0.5605
   75SOL     OW  223   2.090   2.015   1.117  0.1697  0.2108  0.2807
   75SOL    HW1  224   2.051   2.105   1.097 -1.4000 -0.1720  0.4922
   75SOL    HW2  225   2.031   1.954   1.169  2.3349 -0.2539 -0.4815
   76SOL     OW  226   2.641   2.040   1.983  0.0931  0.2658 -0.0742
   76SOL    HW1  227   2.552   2.043   2.036 -0.4124 -1.7364  1.8673
   76SOL    HW2  228   2.629   2.082   1.891 -4.3236  0.2740 -3.0278
   77SOL     OW  229   3.011   0.197   2.178 -0.1157  0.2200  0.1284
   77SOL    HW1  230   2.964   0.204   2.084  0.3433  3.0222 -0.4323
   77SOL    HW2  231   3.010   0.283   2.233  0.0377 -0.5753  0.7573
   78SOL     OW  232   2.295   1.167   0.029  0.0162 -0.5668 -0.6552
   78SOL    HW1  233   2.257   1.205   3.046  2.2961 -1.7927 -0.2498
   78SOL    HW2  234   2.237   1.108   0.085  2.7902  0.9757 -1.2695
   79SOL     OW  235   2.623   1.428   2.440  0.3925  0.0203  0.1960
   79SOL    HW1  236   2.656   1.409   2.346 -0.0688  0.2218 -0.5406
   79SOL    HW2  237   2.626   1.529   2.451 -2.3794 -1.4648 -3.9270
   80SOL     OW  238   1.453   1.530   1.463 -0.6404 -0.0239  0.3128
   80SOL    HW1  239   1.528   1.596   1.471 -0.6371  1.9358  0.7553
   80SOL    HW2  240   1.480   1.445   1.512 -1.9249 -0.3953  1.1400
   81SOL     OW  241   2.123   0.860   1.827 -0.0057  0.0547 -0.1692
   81SOL    HW1  242   2.191   0.892   1.898 -2.3386  1.9470  1.5366
   81SOL    HW2  243   2.098   0.940   1.772  0.7092  2.9383  0.3913
   82SOL     OW  244   1.668   1.683   1.474  0.5668  0.5166 -0.5514
   82SOL    HW1  245   1.733   1.664   1.551  1.4822 -0.3388 -1.3561
   82SOL    HW2  246   1.669   1.779   1.439 -3.3238 -1.5763 -0.1462
   83SOL     OW  247   0.153   3.070   0.252  0.3276 -0.2380 -0.0531
   83SOL    HW1  248   0.177   3.075   0.153 -1.0214  0.1879  2.5708
   83SOL    HW2  249   0.054   0.001   0.262 -3.0178 -0.2668  1.3394
   84SOL     OW  250   0.531   0.838   0.056 -0.6565  0.0963 -0.3121
   84SOL    HW1  251   0.488   0.928   0.038  1.3078 -2.1527  1.6399
   84SOL    HW2  252   0.484   0.803   0.139 -1.0548  1.2417  0.6107
   85SOL     OW  253   2.656   1.821   1.308 -0.9473 -0.2219  0.1708
   85SOL    HW1  254   2.602   1.849   1.227  1.2284  1.1731  1.6561
   85SOL    HW2  255   2.744   1.873   1.305  1.0260 -0.8123 -0.4132
   86SOL     OW  256   0.506   2.663   1.221  0.2440  0.9390 -0.4292
   86SOL    HW1  257   0.541   2.572   1.257  0.7049 -0.6650 -0.3850
   86SOL    HW2  258   0.477   2.665   1.124  0.1063  1.0822  0.5435
   87SOL     OW  259   0.631   2.497   2.457 -0.0226  0.4133  0.5807
   87SOL    HW1  260   0.659   2.504   2.364 -0.0502  0.0617  2.8359
   87SOL    HW2  261   0.660   2.410   2.502  0.6421  2.5702  0.5334
   88SOL     OW  262   3.053   2.040   0.496 -0.4286 -0.1938 -0.7133
   88SOL    HW1  263   3.069   1.975   0.418  0.2174 -1.7178 -2.2425
   88SOL    HW2  264   2.993   1.998   0.566  1.1343  0.3390 -1.2253
   89SOL     OW  265   0.882   0.999   1.111 -0.0602  1.1098  0.0507
   89SOL    HW1  266   0.908   0.908   1.079  0.0684 -0.4910 -0.7168
   89SOL    HW2  267   0.935   1.017   1.199 -0.1002  1.9485 -0.0293
   90SOL     OW  268   0.301   1.250   1.884  0.0548 -0.0876 -0.0858
   90SOL    HW1  269   0.275   1.285   1.790 -0.3592  0.8496 -0.6889
   90SOL    HW2  270   0.407   1.249   1.892 -1.8102  0.3077 -0.6724
   91SOL     OW  271   1.058   0.814   0.953  0.1715  0.5916 -0.1788
   91SOL    HW1  272   0.991   0.750   0.906 -2.0400  1.4424 -0.8659
   91SOL    HW2  273   1.115   0.763   1.022  0.9491  0.9289 -0.2045
   92SOL     OW  274   1.943   1.075   1.124  0.3671  0.1175 -0.5254
   92SOL    HW1  275   1.861   1.116   1.168 -1.0064 -1.4848  0.2542
   92SOL    HW2  276   2.017   1.136   1.093  0.3790 -0.1079  2.4915
   93SOL     OW  277   2.639   1.031   2.254  0.6438 -0.0548  0.1791
   93SOL    HW1  278   2.709   0.961   2.279 -0.9593  0.6048 -0.8505
   93SOL    HW2  279   2.548   0.990   2.268 -0.1185  2.6781  0.6309
   94SOL     OW  280   2.100   1.658   2.660  0.1273 -0.5216  0.1519
   94SOL    HW1  281   2.027   1.721   2.626 -0.9027 -1.7180  0.6536
   94SOL    HW2  282   2.193   1.664   2.611  1.4660  1.0119 -1.3232
   95SOL     OW  283   2.789   0.695   1.396 -0.1712 -0.5511 -0.2453
   95SOL    HW1  284   2.868   0.637   1.364 -0.9262  1.7730 -1.9247
   95SOL    HW2  285   2.711   0.665   1.337  0.5660  0.0309  0.8601
   96SOL     OW  286   2.516   3.022   1.618  0.1066  0.2086  0.2276
   96SOL    HW1  287   2.482   3.042   1.714  2.5060  1.9502 -0.4841
   96SOL    HW2  288   2.531   2.923   1.616  0.7084  1.9392 -0.1365
   97SOL     OW  289   2.609   1.089   1.509  0.1038  0.5808  0.2293
   97SOL    HW1  290   2.687   1.068   1.447 -2.0863 -1.0870  2.2289
   97SOL    HW2  291   2.641   1.099   1.605  0.1733 -2.7489 -0.1041
   98SOL     OW  292   1.642   2.395   1.834 -0.3712 -0.0955 -0.1397
   98SOL    HW1  293   1.671   2.363   1.742 -0.4198 -2.4154  0.1806
   98SOL    HW2  294   1.722   2.383   1.900  2.7142 -1.7960 -1.0025
   99SOL     OW  295   0.371   2.590   1.499 -0.4149  0.1641  0.2212
   99SOL    HW1  296   0.455   2.556   1.459 -1.2839  0.6864  0.5580
   99SOL    HW2  297   0.371   2.692   1.517 -0.7157  0.9196 -0.9578
  100SOL     OW  298   1.389   0.569   2.672  0.2066 -0.3986  0.3430
  100SOL    HW1  299   1.432   0.486   2.635 -1.1432  0.0370 -0.9694
  100SOL    HW2  300   1.301   0.557   2.720 -1.1730 -0.0132 -0.1442
  101SOL     OW  301   2.319   0.241   2.538 -0.0041 -0.0719 -0.8934
  101SOL    HW1  302   2.333   0.162   2.603  0.5292 -2.4860 -1.0424
  101SOL    HW2  303   2.407   0.279   2.511 -2.0794  0.4083  2.0972
  102SOL     OW  304   0.589   0.705   1.458 -0.0452 -1.0032  0.9948
  102SOL    HW1  305   0.523   0.782   1.450  0.0845  0.0855  0.8288
  102SOL    HW2  306   0.607   0.650   1.374  0.6334  0.0763 -1.7283
  103SOL     OW  307   0.843   0.873   2.475  0.1344  0.3967 -0.2055
  103SOL    HW1  308   0.796   0.805   2.416  1.8467 -1.2345 -0.5922
  103SOL    HW2  309   0.900   0.829   2.548  0.0774 -1.3417  0.4101
  104SOL     OW  310   1.019   0.815   2.702 -0.1999  0.2104  0.3085
  104SOL    HW1  311   0.981   0.845   2.790 -3.8564 -0.3165 -6.2471
  104SOL    HW2  312   1.095   0.874   2.664  2.0933  1.7816 -1.2604
  105SOL     OW  313   2.004   2.055   1.629  0.0321  0.2013  0.0223
  105SOL    HW1  314   2.028   1.978   1.563 -0.5830 -1.3944 -1.4948
  105SOL    HW2  315   1.978   2.139   1.581 -2.0900  0.5054  1.1316
  106SOL     OW  316   1.630   2.772   0.448 -0.4196  0.1458  0.3060
  106SOL    HW1  317   1.577   2.771   0.539 -1.3313  0.8945  0.1933
  106SOL    HW2  318   1.732   2.771   0.454 -0.0688  2.0680 -1.4431
  107SOL     OW  319   2.262   2.003   0.912 -0.4793  0.3994  0.5284
  107SOL    HW1  320   2.198   1.990   0.988  1.3546 -0.8026  2.0575
  107SOL    HW2  321   2.266   1.920   0.848  0.7693 -1.3913 -0.1021
  108SOL     OW  322   2.663   0.012   1.406 -0.0245  0.0724 -0.2208
  108SOL    HW1  323   2.605   3.075   1.486 -0.2402 -1.8907  3.4662
  108SOL    HW2  324   2.748   0.050   1.441 -1.7779 -0.2507  2.0832
  109SOL     OW  325   1.914   2.503   1.027  0.0006  0.4163  0.5198
  109SOL    HW1  326   1.858   2.565   1.087  1.3896  0.3020  1.2967
  109SOL    HW2  327   1.987   2.556   0.980 -0.0386 -0.9070  1.6587
  110SOL     OW  328   0.779   1.747   1.935 -0.1929 -0.7828  0.1216
  110SOL    HW1  329   0.727   1.656   1.942 -1.7679 -2.1297  2.8258
  110SOL    HW2  330   0.729   1.821   1.987  1.0352 -2.2010  2.2271
  111SOL     OW  331   1.714   2.207   2.241 -0.0344  0.7225  0.0656
  111SOL    HW1  332   1.814   2.221   2.230 -1.4662 -0.7707  0.5120
  111SOL    HW2  333   1.662   2.285   2.205 -0.5726 -1.7016 -1.6499
  112SOL     OW  334   1.672   1.789   2.479  0.4604 -0.5192  0.1623
  112SOL    HW1  335   1.653   1.755   2.383 -0.3350  1.3828  2.1778
  112SOL    HW2  336   1.772   1.815   2.492  0.0206  1.5328  1.3162
  113SOL     OW  337   1.625   2.050   1.670 -0.1425  0.0863  0.1653
  113SOL    HW1  338   1.677   2.015   1.748  0.8480 -0.7721  1.3371
  113SOL    HW2  339   1.532   2.005   1.669 -0.6454  0.3227 -0.7104
  114SOL     OW  340   2.999   1.267   1.072  0.1509  0.2570  0.1681
  114SOL    HW1  341   3.073   1.225   1.128 -0.5355  2.4494 -0.4006
  114SOL    HW2  342   2.946   1.190   1.030 -0.8585  0.5135  2.0806
  115SOL     OW  343   0.441   0.519   0.333 -0.0338  0.0540 -1.0212
  115SOL    HW1  344   0.483   0.545   0.418  0.8719 -0.0010 -1.8281
  115SOL    HW2  345   0.472   0.427   0.309 -2.6972  3.1229  1.7652
  116SOL     OW  346   2.664   1.705   2.434  0.5539  0.3352  0.2561
  116SOL    HW1  347   2.612   1.795   2.450 -1.0124  2.6308 -1.5290
  116SOL    HW2  348   2.763   1.719   2.432  0.2931 -0.6779  0.3154
  117SOL     OW  349   3.038   2.637   0.708  0.0591  0.7404 -0.1941
  117SOL    HW1  350   3.089   2.581   0.636 -1.8439  0.2732  1.7357
  117SOL    HW2  351   3.093   2.636   0.796  2.4031  0.5387 -0.4394
  118SOL     OW  352   0.750   1.421   2.592  0.5524  0.1165 -0.1871
  118SOL    HW1  353   0.804   1.494   2.548  1.1855 -1.5950  1.7401
  118SOL    HW2  354   0.656   1.417   2.554 -0.8496  1.6243 -3.5439
  119SOL     OW  355   0.381   2.047   0.444 -0.3033 -0.3926 -0.2077
  119SOL    HW1  356   0.387   2.049   0.549 -0.7570 -1.5960  2.0144
  119SOL    HW2  357   0.389   2.141   0.397  1.7365  1.0031  1.6355
  120SOL     OW  358   1.377   0.510   0.285 -0.8114 -0.0803  0.3015
  120SOL    HW1  359   1.427   0.423   0.312 -0.0535 -0.2278 -0.4133
  120SOL    HW2  360   1.415   0.589   0.339  0.6165  1.3531  2.1024
  121SOL     OW  361   1.461   2.324   0.881 -0.4225 -0.5237 -0.1793
  121SOL    HW1  362   1.358   2.319   0.893 -0.7891  0.4658 -0.6773
  121SOL    HW2  363   1.491   2.281   0.793  0.2185 -1.2310 -0.7551
  122SOL     OW  364   2.421   2.343   1.777  0.3652  0.3709  0.0816
  122SOL    HW1  365   2.340   2.320   1.722  0.2375  0.6842 -0.6951
  122SOL    HW2  366   2.499   2.279   1.767 -2.0292  0.9320 -0.2071
  123SOL     OW  367   0.789   1.559   0.526  0.3401  0.2741 -0.1957
  123SOL    HW1  368   0.738   1.598   0.450  2.7023  0.5337  2.2647
  123SOL    HW2  369   0.885   1.591   0.520  0.4750  1.8569 -0.1255
  124SOL     OW  370   2.965   0.739   0.381  0.1482  0.3023 -0.0992
  124SOL    HW1  371   2.941   0.641   0.372  0.8829 -1.6147 -0.7884
  124SOL    HW2  372   2.914   0.802   0.321 -1.4657  0.2862  0.3852
  125SOL     OW  373   0.536   0.651   0.558  0.0319 -0.2300 -0.3085
  125SOL    HW1  374   0.477   0.672   0.636  2.0497  0.6518 -1.0410
  125SOL    HW2  375   0.592   0.731   0.535 -0.6084 -0.7466  0.2364
  126SOL     OW  376   2.949   1.890   0.717  0.7820 -0.2697  0.1794
  126SOL    HW1  377   2.951   1.837   0.806  0.4769  3.3009  1.0101
  126SOL    HW2  378   2.902   1.982   0.732 -0.1427  3.0512  0.8584
  127SOL     OW  379   1.357   2.343   1.810 -0.2212 -0.5077  0.3734
  127SOL    HW1  380   1.459   2.358   1.829 -0.0513  1.3641 -1.1342
  127SOL    HW2  381   1.322   2.250   1.844 -1.1964  0.1323  0.6638
  128SOL     OW  382   0.994   1.109   0.124  0.2999  0.3885  0.1508
  128SOL    HW1  383   0.943   1.170   0.059  0.5173  0.1897 -1.4379
  128SOL    HW2  384   1.023   1.164   0.209  0.1004 -0.7099 -0.2638
  129SOL     OW  385   1.674   1.950   1.413  0.4684 -0.1211  0.0485
  129SOL    HW1  386   1.688   2.014   1.495  1.3515 -0.6809  0.5322
  129SOL    HW2  387   1.586   1.973   1.368  0.8613  0.6673 -2.0714
  130SOL     OW  388   2.288   1.695   1.383 -0.3326  0.2875  0.1296
  130SOL    HW1  389   2.305   1.780   1.327  1.5154  1.8627  1.2090
  130SOL    HW2  390   2.210   1.708   1.444  2.5540 -0.7781 -1.8603
  131SOL     OW  391   3.040   2.875   2.879  0.0706  0.5782  0.6603
  131SOL    HW1  392   3.006   2.860   2.783  0.4879  1.7828  0.2517
  131SOL    HW2  393   0.000   2.798   2.909 -1.3584  0.5183  1.1755
  132SOL     OW  394   2.605   1.720   0.682 -0.1396  0.1452 -0.3449
  132SOL    HW1  395   2.656   1.688   0.598  0.2581  0.0661  2.3945
  132SOL    HW2  396   2.634   1.673   0.772  0.5184 -2.7960  2.2358
  133SOL     OW  397   0.572   0.134   1.789  0.1185 -0.1066 -0.1805
  133SOL    HW1  398   0.546   0.161   1.887 -1.2080 -0.2534 -1.2395
  133SOL    HW2  399   0.612   0.216   1.741 -0.3847  1.5209 -0.5117
  134SOL     OW  400   0.036   1.706   2.977 -0.0133 -0.0324 -0.1600
  134SOL    HW1  401   3.046   1.663   2.997 -0.5811  1.0907 -1.3103
  134SOL    HW2  402   0.016   1.798   2.948  1.6538 -2.2320  0.6618
  135SOL     OW  403   1.656   0.619   2.012  0.5304 -0.5576  0.0119
  135SOL    HW1  404   1.736   0.675   1.976  3.5145  3.1523 -1.2438
  135SOL    HW2  405   1.573   0.676   2.023 -0.1991 -0.8718  0.0302
  136SOL     OW  406   2.677   1.616   0.435  0.3564  0.2459  0.5093
  136SOL    HW1  407   2.776   1.603   0.441 -0.0270  0.7566 -0.4076
  136SOL    HW2  408   2.632   1.525   0.413 -1.3540 -1.3295 -1.3874
  137SOL     OW  409   2.800   1.819   0.992  0.9527  0.1576  0.3738
  137SOL    HW1  410   2.783   1.727   1.029  1.7813  1.2252 -2.0806
  137SOL    HW2  411   2.892   1.856   1.015 -1.0722  0.4130 -0.4115
  138SOL     OW  412   2.604   0.724   0.985  0.2351 -0.4934  0.1547
  138SOL    HW1  413   2.571   0.798   0.929  0.7347 -1.8582  1.9483
  138SOL    HW2  414   2.561   0.718   1.075 -1.5543 -0.3151  1.2537
  139SOL     OW  415   1.194   2.593   0.018 -0.4208 -0.1241 -0.1740
  139SOL    HW1  416   1.252   2.672   3.095 -2.0018  0.5383 -2.6523
  139SOL    HW2  417   1.105   2.614   3.075  0.3956 -0.9662 -2.3733
  140SOL     OW  418   1.102   1.924   1.102  0.3053  0.0502  0.2835
  140SOL    HW1  419   1.173   1.909   1.032 -2.5126  2.8254  2.5180
  140SOL    HW2  420   1.008   1.894   1.077  0.7086 -0.3684  0.8906
  141SOL     OW  421   1.508   2.212   0.614 -0.2697  0.2452 -0.3451
  141SOL    HW1  422   1.421   2.191   0.565  2.2065  0.0293 -0.4724
  141SOL    HW2  423   1.558   2.128   0.651  1.1005 -2.2836 -2.0427
  142SOL     OW  424   0.998   0.491   0.999 -0.0413  0.4422 -0.0101
  142SOL    HW1  425   0.957   0.536   0.916 -1.7445  1.3896 -1.0079
  142SOL    HW2  426   0.944   0.413   1.032  4.5003  2.6510 -1.0509
  143SOL     OW  427   0.842   1.275   3.052  0.2870  0.2435 -0.1958
  143SOL    HW1  428   0.817   1.349   2.991  0.8690 -3.2343  4.7752
  143SOL    HW2  429   0.793   1.185   3.030 -0.4260 -1.2686  1.4052
  144SOL     OW  430   1.805   2.682   0.799 -0.2038  0.1334 -0.3824
  144SOL    HW1  431   1.715   2.651   0.826  1.1592  1.9386 -2.1572
  144SOL    HW2  432   1.849   2.737   0.875 -0.6620 -0.8270 -0.8288
  145SOL     OW  433   1.882   0.558   2.649 -0.0961 -0.1123  0.4559
  145SOL    HW1  434   1.900   0.537   2.552 -0.2621 -0.0191  2.0416
  145SOL    HW2  435   1.959   0.593   2.707  2.0867  0.1135  4.0153
  146SOL     OW  436   0.104   2.818   0.312 -0.2121  0.1806  0.1783
  146SOL    HW1  437   0.072   2.834   0.407 -0.0891  1.2721 -1.0343
  146SOL    HW2  438   0.144   2.906   0.279 -0.2006  2.5296  0.5589
  147SOL     OW  439   1.908   0.195   2.135 -0.6970  0.0445 -0.4258
  147SOL    HW1  440   2.012   0.170   2.138  2.9948  0.4084  1.2936
  147SOL    HW2  441   1.890   0.295   2.138  2.2561 -1.7310  0.7536
  148SOL     OW  442   1.458   0.285   2.039 -0.6206  0.0770 -0.5964
  148SOL    HW1  443   1.496   0.347   2.113 -0.4249  2.7435 -0.0964
  148SOL    HW2  444   1.484   0.192   2.066 -0.4334  1.0922  1.0488
  149SOL     OW  445   1.551   0.235   2.388  0.2757 -0.0876 -0.0437
  149SOL    HW1  446   1.565   0.310   2.325 -2.0356 -1.0226  1.5687
  149SOL    HW2  447   1.471   0.181   2.357  0.2652 -0.9765 -1.7589
  150SOL     OW  448   3.065   0.029   2.898 -0.7087 -0.4946 -0.1896
  150SOL    HW1  449   3.066   3.028   2.905 -0.5949  0.3937  0.9501
  150SOL    HW2  450   2.974   0.053   2.869  2.1965 -1.3992 -1.3666
  151SOL     OW  451   0.646   1.261   0.262  0.0960 -0.0361  0.1017
  151SOL    HW1  452   0.572   1.251   0.192  0.8559 -0.6540 -2.5343
  151SOL    HW2  453   0.698   1.344   0.243 -0.3272 -0.8821  1.1735
  152SOL     OW  454   0.028   0.174   0.614 -0.3188  0.1151  0.5456
  152SOL    HW1  455   0.117   0.146   0.570  3.7001 -0.2193 -1.2868
  152SOL    HW2  456   0.022   0.271   0.638 -1.8452 -3.2388 -1.8791
  153SOL     OW  457   2.574   0.540   1.285 -0.3695 -0.4571  0.0182
  153SOL    HW1  458   2.590   0.480   1.364  3.1542 -0.2286  0.3800
  153SOL    HW2  459   2.585   0.486   1.199 -1.0743  2.6795  0.8679
  154SOL     OW  460   1.484   0.032   2.140  0.3048  0.1573  0.3694
  154SOL    HW1  461   1.578   3.098   2.117  0.9538 -1.9253  1.3081
  154SOL    HW2  462   1.421   3.055   2.142 -0.9993 -1.3085  0.2338
  155SOL     OW  463   0.022   1.727   0.567  0.0688  0.4821 -0.3347
  155SOL    HW1  464   3.062   1.790   0.621 -1.1841 -0.4844  0.5379
  155SOL    HW2  465   0.080   1.669   0.631  0.7061  1.3103  2.1468
  156SOL     OW  466   2.388   1.899   2.964 -0.5009  0.2677 -0.1186
  156SOL    HW1  467   2.415   1.967   3.037  0.6933  1.6272 -2.7497
  156SOL    HW2  468   2.297   1.860   2.993  4.3760  0.1253 -1.8396
  157SOL     OW  469   0.808   0.117   0.622  0.0092 -0.3636  0.3100
  157SOL    HW1  470   0.730   0.147   0.564  2.3272 -2.1593  0.0098
  157SOL    HW2  471   0.891   0.136   0.570  1.1904  1.1043 -0.9758
  158SOL     OW  472   2.357   0.543   2.159 -0.1285 -0.6716 -0.1257
  158SOL    HW1  473   2.438   0.485   2.182 -0.9859  0.8655  2.1904
  158SOL    HW2  474   2.377   0.614   2.088  1.1528  0.1773  2.6231
  159SOL     OW  475   0.350   0.285   0.515 -0.1439  0.2259 -0.0263
  159SOL    HW1  476   0.311   0.365   0.464  2.8100  0.2161 -0.7759
  159SOL    HW2  477   0.296   0.200   0.490  0.6467 -2.7529 -0.6103
  160SOL     OW  478   1.717   1.937   1.923 -0.1734 -0.4804 -0.2929
  160SOL    HW1  479   1.651   1.948   1.995 -0.4714 -1.3658 -1.0048
  160SOL    HW2  480   1.717   1.843   1.893  0.2798  0.6856  2.1923
  161SOL     OW  481   2.828   0.635   2.474 -0.0906  0.0773 -0.7280
  161SOL    HW1  482   2.830   0.622   2.578  0.7907 -2.2213  0.7276
  161SOL    HW2  483   2.856   0.547   2.428 -0.3269 -0.6803  0.9804
  162SOL     OW  484   1.071   2.741   1.868  0.0948  0.0123  0.0044
  162SOL    HW1  485   1.039   2.694   1.781 -1.6174 -0.7354 -1.7492
  162SOL    HW2  486   1.082   2.841   1.852 -2.5289 -0.2019  0.9118
  163SOL     OW  487   2.747   0.164   2.458  0.4185  0.6003 -0.0539
  163SOL    HW1  488   2.780   0.100   2.383  2.1656 -0.1273  2.0488
  163SOL    HW2  489   2.681   0.110   2.519 -0.8852  1.7571 -1.0637
  164SOL     OW  490   2.322   1.750   0.183  0.6540 -0.2208  0.7520
  164SOL    HW1  491   2.228   1.765   0.141 -1.3568 -1.9685 -1.7763
  164SOL    HW2  492   2.382   1.716   0.109  0.1261 -0.6402 -0.3202
  165SOL     OW  493   2.986   0.359   1.486  0.1370  0.0565  0.0375
  165SOL    HW1  494   3.019   0.429   1.550  0.7244 -2.6419  0.4300
  165SOL    HW2  495   3.030   0.361   1.397 -1.3702  0.2841 -0.3199
  166SOL     OW  496   2.237   0.607   3.053  0.4492  0.1651 -0.2523
  166SOL    HW1  497   2.326   0.595   3.007 -1.0809 -0.2297  2.1871
  166SOL    HW2  498   2.238   0.700   0.005  0.4659 -0.0001  0.8615
  167SOL     OW  499   2.860   0.863   0.046  0.0350 -0.4588  0.2998
  167SOL    HW1  500   2.889   0.926   0.123 -0.4558  1.8007 -2.7870
  167SOL    HW2  501   2.906   0.900   3.059 -0.4661  3.0128 -2.2551
  168SOL     OW  502   1.732   2.862   2.889 -0.1086  0.4738  0.2037
  168SOL    HW1  503   1.805   2.849   2.957  0.2845 -1.6258  2.6752
  168SOL    HW2  504   1.739   2.957   2.841 -0.5987  4.4507 -1.2911
  169SOL     OW  505   0.095   1.585   0.804 -0.5971  0.0541 -0.4233
  169SOL    HW1  506   0.105   1.484   0.795  1.0660 -0.3375  2.7237
  169SOL    HW2  507   0.159   1.620   0.878 -0.6704  0.6046 -0.9624
  170SOL     OW  508   0.071   0.821   1.327  0.9325  0.1178 -0.3629
  170SOL    HW1  509   0.081   0.796   1.422 -2.1493 -0.0242  0.1392
  170SOL    HW2  510   0.010   0.752   1.282 -3.0476  0.1810 -0.8356
  171SOL     OW  511   2.142   2.103   2.021 -0.2841  0.4006 -0.2109
  171SOL    HW1  512   2.073   2.126   1.952  1.7534  3.0680  2.0268
  171SOL    HW2  513   2.174   2.009   2.006  0.2176  2.2416  1.1192
  172SOL     OW  514   0.176   2.389   1.533 -0.2197 -0.5585 -0.1183
  172SOL    HW1  515   0.172   2.341   1.446 -0.1156 -0.9345  0.6400
  172SOL    HW2  516   0.237   2.472   1.526  1.0649 -2.8756 -0.0930
  173SOL     OW  517   1.437   1.079   0.026 -0.3030  0.2319  0.1261
  173SOL    HW1  518   1.427   0.973   0.017 -1.5545  1.4364  1.0286
  173SOL    HW2  519   1.394   1.125   3.049 -2.5671 -2.0925  2.6698
  174SOL     OW  520   1.326   0.165   2.657 -0.6525  0.2242  0.0589
  174SOL    HW1  521   1.388   0.247   2.661 -0.4092  0.5676 -0.2365
  174SOL    HW2  522   1.335   0.111   2.741 -0.1890  1.2522 -0.8155
  175SOL     OW  523   1.623   1.865   1.098 -0.4074  0.5899 -0.8065
  175SOL    HW1  524   1.709   1.827   1.062  1.2159  0.7515  1.0009
  175SOL    HW2  525   1.572   1.787   1.137 -2.6353 -1.1366 -0.8113
  176SOL     OW  526   1.280   0.065   0.221  0.1858 -0.2104  0.2739
  176SOL    HW1  527   1.346   0.108   0.284 -4.0498 -1.9699 -0.0668
  176SOL    HW2  528   1.254   0.133   0.151 -0.9847  1.9971 -1.7807
  177SOL     OW  529   0.717   1.042   3.023  0.0140 -0.3428  0.0873
  177SOL    HW1  530   0.660   0.967   3.062 -3.2406  0.8285  0.9093
  177SOL    HW2  531   0.666   1.091   2.948  2.2108  2.7630 -0.2186
  178SOL     OW  532   2.529   2.489   2.329 -0.2603  0.0213  0.3513
  178SOL    HW1  533   2.472   2.570   2.303  2.7009 -0.3604 -0.7444
  178SOL    HW2  534   2.556   2.426   2.248 -0.6375 -1.4702 -3.7146
  179SOL     OW  535   2.886   0.319   2.822 -0.0580  0.5731  0.2129
  179SOL    HW1  536   2.850   0.226   2.843  0.0636  1.1143  0.6374
  179SOL    HW2  537   2.895   0.328   2.717 -1.3033  0.6276 -1.7546
  180SOL     OW  538   2.024   1.001   0.730  0.2982  0.3460  0.0815
  180SOL    HW1  539   1.993   0.945   0.807 -1.4573 -1.2163 -2.7920
  180SOL    HW2  540   2.068   1.092   0.751  1.9759 -1.3258 -0.7842
  181SOL     OW  541   2.030   1.386   2.586 -0.0438 -0.0908  0.3393
  181SOL    HW1  542   2.050   1.472   2.637 -1.2240 -0.5000 -0.4257
  181SOL    HW2  543   1.947   1.355   2.634  0.9950 -1.2990  2.1856
  182SOL     OW  544   2.794   2.480   2.417 -0.5604 -0.4192  0.1484
  182SOL    HW1  545   2.854   2.562   2.426  0.0404  0.9299  0.1783
  182SOL    HW2  546   2.701   2.500   2.392  3.3293 -1.2926  2.7926
  183SOL     OW  547   1.812   0.759   2.375 -0.7990 -0.2132 -0.6019
  183SOL    HW1  548   1.866   0.842   2.409  0.8899  1.6420 -0.6393
  183SOL    HW2  549   1.876   0.696   2.329 -1.0661  2.8207  1.5412
  184SOL     OW  550   0.212   1.454   1.639  0.5508  0.4213  0.1846
  184SOL    HW1  551   0.254   1.453   1.546  1.7317 -0.5686 -0.5957
  184SOL    HW2  552   0.237   1.543   1.682  0.7068  1.3529 -0.2755
  185SOL     OW  553   1.758   0.199   0.748  0.1193 -0.5661 -0.6872
  185SOL    HW1  554   1.711   0.285   0.784 -0.4211 -1.9802 -0.7303
  185SOL    HW2  555   1.690   0.130   0.717 -2.5010 -2.1626 -0.6814
  186SOL     OW  556   0.136   2.438   2.816  0.7925 -0.1345 -0.0161
  186SOL    HW1  557   0.077   2.416   2.736  2.0722  0.0795 -1.5884
  186SOL    HW2  558   0.219   2.489   2.776  0.9479  0.1047 -1.1125
  187SOL     OW  559   2.792   1.205   0.454  0.4890 -0.9065  0.0909
  187SOL    HW1  560   2.805   1.294   0.502 -1.8527 -1.7923  0.2814
  187SOL    HW2  561   2.711   1.216   0.395 -1.0367  0.4813  1.3669
  188SOL     OW  562   2.408   1.342   1.094 -0.0438  0.1240  0.1396
  188SOL    HW1  563   2.484   1.354   1.161 -2.2125 -2.5655  1.4549
  188SOL    HW2  564   2.443   1.344   1.001  0.8962 -0.6635  3.8271
  189SOL     OW  565   2.912   0.329   2.556  0.0158  0.1127 -0.1438
  189SOL    HW1  566   2.854   0.255   2.515 -2.2521 -1.9818 -0.7604
  189SOL    HW2  567   3.003   0.330   2.516 -1.5417 -2.5154 -1.7833
  190SOL     OW  568   1.328   0.973   1.568 -0.8081 -0.5616  0.0031
  190SOL    HW1  569   1.359   0.873   1.578 -1.3148 -0.6656  1.4530
  190SOL    HW2  570   1.283   1.003   1.651 -0.1081 -0.0232 -0.0708
  191SOL     OW  571   0.774   0.377   1.991  0.4438  0.1216  0.0648
  191SOL    HW1  572   0.869   0.350   1.967 -1.5495 -0.1747 -1.0346
  191SOL    HW2  573   0.750   0.471   1.963 -1.8756  1.2256 -1.5834
  192SOL     OW  574   1.698   2.310   1.589  0.0305 -0.9520  0.2761
  192SOL    HW1  575   1.684   2.219   1.631  0.2393 -0.2643  1.2446
  192SOL    HW2  576   1.638   2.327   1.510 -1.9887  0.8563 -2.4311
  193SOL     OW  577   1.737   0.466   1.138 -0.4130 -0.4510  0.0275
  193SOL    HW1  578   1.699   0.426   1.223  0.7406  0.3684 -0.4245
  193SOL    HW2  579   1.679   0.542   1.106 -1.9802  1.1351  1.4773
  194SOL     OW  580   0.565   2.186   1.351 -0.3872  0.1672  0.0140
  194SOL    HW1  581   0.485   2.152   1.305 -0.8815  1.1526  2.3158
  194SOL    HW2  582   0.646   2.127   1.334  0.2951 -1.4152  0.1578
  195SOL     OW  583   1.531   0.263   0.255 -0.1037  0.4230  0.1122
  195SOL    HW1  584   1.563   0.183   0.198 -1.4516  0.1399 -1.4110
  195SOL    HW2  585   1.607   0.328   0.269  0.8823  1.0635  0.8508
  196SOL     OW  586   0.334   1.443   1.394  0.0319 -0.0051  0.3418
  196SOL    HW1  587   0.362   1.538   1.369  2.3460 -1.7659  2.6590
  196SOL    HW2  588   0.414   1.378   1.405  2.8443 -1.1315 -1.1107
  197SOL     OW  589   0.974   0.251   1.666 -0.3234  0.1595  0.0331
  197SOL    HW1  590   1.055   0.231   1.605 -1.2946 -1.1592 -0.5639
  197SOL    HW2  591   0.998   0.227   1.764 -1.1291  0.0341  3.4964
  198SOL     OW  592   0.636   1.333   1.054  0.4069 -0.0578 -0.3346
  198SOL    HW1  593   0.686   1.406   1.098 -1.3644 -5.3995 -0.9326
  198SOL    HW2  594   0.635   1.254   1.116  0.3106  0.9160 -0.4037
  199SOL     OW  595   3.015   2.524   1.561  0.0175 -0.1013 -0.1341
  199SOL    HW1  596   3.020   2.606   1.622  0.8543  1.6974  1.2360
  199SOL    HW2  597   0.009   2.483   1.546  1.6253 -0.9085 -0.7779
  200SOL     OW  598   1.752   1.397   1.815  0.1014 -0.5312 -0.1616
  200SOL    HW1  599   1.840   1.354   1.790 -0.6367  1.7680  2.2031
  200SOL    HW2  600   1.695   1.330   1.868  0.2592  0.8652  0.1100
  201SOL     OW  601   0.671   1.939   2.085  0.3432  0.5953  0.3670
  201SOL    HW1  602   0.708   1.985   2.170  0.1152  2.2416 -0.1726
  201SOL    HW2  603   0.582   1.888   2.114  1.4180  0.0135  0.9522
  202SOL     OW  604   1.502   0.470   2.981  0.6261 -0.2193 -0.3080
  202SOL    HW1  605   1.546   0.521   2.902 -1.2712  0.7212  1.2378
  202SOL    HW2  606   1.434   0.531   3.025  1.2908  4.8127  0.6107
  203SOL     OW  607   1.466   2.844   2.061 -0.1400 -0.2608 -0.2921
  203SOL    HW1  608   1.548   2.786   2.085  2.6434 -0.4123 -0.6238
  203SOL    HW2  609   1.383   2.790   2.068  1.7363 -0.0267 -1.7185
  204SOL     OW  610   0.580   1.818   1.672  0.6047  0.4865  0.1762
  204SOL    HW1  611   0.659   1.840   1.731 -0.3718  1.4888  0.3411
  204SOL    HW2  612   0.494   1.808   1.727  0.3545  1.9928  1.3885
  205SOL     OW  613   1.703   1.659   1.910 -0.2627 -0.2902 -0.0825
  205SOL    HW1  614   1.751   1.587   1.857 -1.2867  0.6648 -1.3837
  205SOL    HW2  615   1.605   1.642   1.922  0.3344  0.0680  0.4655
  206SOL     OW  616   0.117   1.530   2.156  0.7023  0.8197  0.3840
  206SOL    HW1  617   0.181   1.446   2.162  1.1738 -2.2442  1.8143
  206SOL    HW2  618   0.131   1.604   2.227  0.5741  1.3926  0.6961
  207SOL     OW  619   0.750   2.947   2.017  0.5523  0.3784 -0.2091
  207SOL    HW1  620   0.736   2.962   1.919  1.1580  0.8036 -1.2721
  207SOL    HW2  621   0.684   3.006   2.067  1.3311  0.2754 -2.0818
  208SOL     OW  622   0.386   2.667   1.906  0.6773  0.1009  0.0592
  208SOL    HW1  623   0.448   2.719   1.846 -2.3782 -0.8348  0.6841
  208SOL    HW2  624   0.403   2.564   1.904 -4.6401 -1.3479  1.2353
  209SOL     OW  625   1.292   2.773   0.422  0.2553  0.1350  0.1441
  209SOL    HW1  626   1.333   2.718   0.493 -1.8416  0.4220 -1.7418
  209SOL    HW2  627   1.274   2.861   0.459  1.7790 -1.1230  0.7249
  210SOL     OW  628   2.569   0.501   0.618  0.0626  0.2529  0.1450
  210SOL    HW1  629   2.661   0.457   0.622  2.4027 -0.2373 -0.3754
  210SOL    HW2  630   2.584   0.603   0.611  0.6572 -1.7536 -2.1917
  211SOL     OW  631   0.615   0.510   1.650 -0.6778 -0.5594 -0.2361
  211SOL    HW1  632   0.648   0.525   1.746 -1.5123  2.8568  2.2781
  211SOL    HW2  633   0.575   0.591   1.602  0.9276  1.8039 -1.5165
  212SOL     OW  634   1.426   2.525   1.612  0.0500 -0.3949  0.4429
  212SOL    HW1  635   1.400   2.463   1.691  1.3971  0.8496  1.4195
  212SOL    HW2  636   1.445   2.474   1.525 -2.8683  0.0639 -0.2081
  213SOL     OW  637   2.992   0.226   1.910 -0.5589 -0.5937 -0.1682
  213SOL    HW1  638   2.937   0.304   1.874  1.5833 -1.8742  0.9024
  213SOL    HW2  639   3.008   0.164   1.830  3.2317 -2.0210  0.9650
  214SOL     OW  640   0.654   2.542   2.156  0.6768 -0.4753  0.2687
  214SOL    HW1  641   0.562   2.577   2.157  3.0302 -0.1351 -1.9552
  214SOL    HW2  642   0.706   2.604   2.091  0.0887  0.1103 -0.0987
  215SOL     OW  643   2.781   1.519   1.620 -0.3402  0.0349  0.5029
  215SOL    HW1  644   2.859   1.561   1.573  0.0429 -0.9154 -1.4375
  215SOL    HW2  645   2.702   1.511   1.558  1.0307  2.8808 -1.1227
  216SOL     OW  646   0.664   1.169   2.189  0.2661 -0.2265 -0.1657
  216SOL    HW1  647   0.631   1.074   2.178  2.1291  2.5386  1.0801
  216SOL    HW2  648   0.635   1.201   2.280 -2.4522 -1.1559  0.3650
  217SOL     OW  649   2.579   0.379   1.058  0.1567 -0.4380 -0.3580
  217SOL    HW1  650   2.558   0.312   1.129  1.4723  2.0839 -0.6002
  217SOL    HW2  651   2.646   0.347   0.992 -0.6762  1.2932  2.8010
  218SOL     OW  652   1.429   2.065   1.102 -0.3550 -0.0684 -0.1518
  218SOL    HW1  653   1.515   2.010   1.092 -3.3331  2.3698 -0.3500
  218SOL    HW2  654   1.383   2.053   1.011  1.5252 -2.8650 -1.5553
  219SOL     OW  655   1.849   2.542   0.577 -0.1782 -0.4259 -0.4642
  219SOL    HW1  656   1.860   2.598   0.665 -2.7528  3.7838  0.6384
  219SOL    HW2  657   1.754   2.516   0.562 -0.0090  0.5547  1.2340
  220SOL     OW  658   1.642   2.461   0.263  0.2222 -0.4111  0.1474
  220SOL    HW1  659   1.579   2.522   0.210 -1.0349  2.2667  3.9017
  220SOL    HW2  660   1.740   2.472   0.233 -1.2450  0.6785 -1.0531
  221SOL     OW  661   2.838   1.767   0.236  0.9555 -0.2825  0.2067
  221SOL    HW1  662   2.741   1.798   0.253 -1.4180  2.0051  1.6522
  221SOL    HW2  663   2.867   1.693   0.299  2.2483  0.6592 -1.5673
  222SOL     OW  664   0.743   2.384   0.877 -0.3331 -0.0474 -0.3911
  222SOL    HW1  665   0.732   2.480   0.842  0.3601  1.5231 -1.4534
  222SOL    HW2  666   0.792   2.385   0.963 -1.3549  0.8261 -1.1661
  223SOL     OW  667   0.803   0.128   0.091 -0.2284  0.0301  0.3023
  223SOL    HW1  668   0.858   0.138   0.178  1.7788  0.5803 -0.6662
  223SOL    HW2  669   0.800   0.029   0.071  0.6893 -0.9095  0.6388
  224SOL     OW  670   2.812   1.072   1.017  0.4560  0.7883  0.5436
  224SOL    HW1  671   2.733   1.081   0.952 -0.8657 -0.4683  2.8650
  224SOL    HW2  672   2.780   1.040   1.105  0.0138 -0.2351  0.4771
  225SOL     OW  673   3.049   1.901   1.052 -0.5284 -0.3403 -0.3459
  225SOL    HW1  674   0.038   1.921   1.003  2.3689  0.1403  0.1390
  225SOL    HW2  675   3.060   1.866   1.151 -3.2051  0.4056  1.4336
  226SOL     OW  676   0.839   3.009   1.001 -0.2575 -0.0408  0.2848
  226SOL    HW1  677   0.818   2.971   0.909  1.4203 -3.2410 -2.2477
  226SOL    HW2  678   0.755   3.027   1.055 -1.3755  0.7684 -0.9734
  227SOL     OW  679   1.177   1.543   1.573 -0.1024  0.4443  0.0984
  227SOL    HW1  680   1.256   1.565   1.508  2.0649  0.2349 -1.5642
  227SOL    HW2  681   1.090   1.509   1.526  0.5961 -1.9538 -0.3820
  228SOL     OW  682   1.010   0.250   1.954  0.0463 -1.2768 -0.5110
  228SOL    HW1  683   0.983   0.171   2.018 -2.6564  0.0237 -0.8802
  228SOL    HW2  684   1.078   0.313   2.004  1.8754 -0.1182  2.5381
  229SOL     OW  685   3.092   0.973   2.353 -0.2496  0.1622  0.2428
  229SOL    HW1  686   3.083   1.072   2.372 -1.0948 -1.1498 -1.3368
  229SOL    HW2  687   0.063   0.951   2.284  0.8226  0.4264 -0.1232
  230SOL     OW  688   2.954   0.825   0.990  0.5800 -0.0903 -0.3936
  230SOL    HW1  689   2.938   0.736   1.043  0.2116 -2.1745  0.5463
  230SOL    HW2  690   2.886   0.900   1.010  2.7754  1.5521 -2.3479
  231SOL     OW  691   1.352   0.027   2.433 -0.0886 -0.2881 -0.7285
  231SOL    HW1  692   1.365   3.027   2.445  2.2518 -2.9515 -1.5331
  231SOL    HW2  693   1.336   0.077   2.526 -0.9637  3.8421  2.8117
  232SOL     OW  694   3.072   1.869   0.294  0.1669 -0.4569  0.1969
  232SOL    HW1  695   0.045   1.818   0.252 -3.6629  1.5258  1.8505
  232SOL    HW2  696   2.983   1.827   0.267  3.1068 -1.6216 -0.8456
  233SOL     OW  697   1.441   2.514   2.919 -0.1140  0.1238  1.0796
  233SOL    HW1  698   1.435   2.428   2.865  0.6056  3.1165 -0.8086
  233SOL    HW2  699   1.358   2.557   2.956 -0.7344  1.6128 -0.7147
  234SOL     OW  700   0.752   1.256   1.755  0.0475 -0.8133  0.1426
  234SOL    HW1  701   0.811   1.195   1.699  0.3210 -1.1173  0.5962
  234SOL    HW2  702   0.814   1.308   1.818 -0.0447  0.0720  0.2477
  235SOL     OW  703   0.136   2.565   2.236  0.0412  0.2589  0.3134
  235SOL    HW1  704   0.101   2.528   2.150  0.8382  1.3537 -1.3079
  235SOL    HW2  705   0.221   2.624   2.214  2.2470  1.1840 -1.4020
  236SOL     OW  706   1.629   1.778   2.766 -0.1608  0.2066 -0.8141
  236SOL    HW1  707   1.636   1.776   2.668 -0.5259 -0.9371  0.5318
  236SOL    HW2  708   1.607   1.869   2.803 -1.2170 -2.8451  1.8026
  237SOL     OW  709   1.480   0.723   0.402 -0.2238  0.1820 -0.7659
  237SOL    HW1  710   1.512   0.662   0.480 -2.3296 -0.4253 -0.0057
  237SOL    HW2  711   1.504   0.818   0.425 -3.9977  0.1950  1.8198
  238SOL     OW  712   0.812   2.686   1.996  0.7171  0.0411 -0.2638
  238SOL    HW1  713   0.776   2.775   2.021 -0.6349 -2.7526  0.5585
  238SOL    HW2  714   0.906   2.690   1.959  0.4094 -1.2165 -1.1047
  239SOL     OW  715   1.247   2.661   2.064 -0.4561  0.4600 -0.3530
  239SOL    HW1  716   1.196   2.688   1.981 -0.1744  0.4046 -0.9013
  239SOL    HW2  717   1.234   2.558   2.073  1.1113 -3.8176  2.3900
  240SOL     OW  718   1.867   2.893   0.633 -0.5529 -0.0423 -0.0325
  240SOL    HW1  719   1.839   2.804   0.676 -2.9847  1.2268  0.3774
  240SOL    HW2  720   1.915   2.877   0.545 -2.0844  0.4480  1.7064
  241SOL     OW  721   1.066   1.215   2.401 -0.2119 -0.3130 -0.5265
  241SOL    HW1  722   1.088   1.120   2.370 -4.3710  1.4461  1.0839
  241SOL    HW2  723   1.014   1.211   2.486 -2.1923  2.3178  2.8205
  242SOL     OW  724   2.502   0.633   2.949 -0.3904 -0.0929  0.0565
  242SOL    HW1  725   2.589   0.670   2.985  1.9230  1.1140  0.2165
  242SOL    HW2  726   2.488   0.668   2.853  0.1335 -2.3875  0.5340
  243SOL     OW  727   1.013   0.591   1.261  0.0319 -0.3152  0.1357
  243SOL    HW1  728   1.059   0.534   1.331 -3.3863  0.2452  1.9354
  243SOL    HW2  729   1.028   0.553   1.170 -2.4519 -0.6068 -3.1506
  244SOL     OW  730   1.440   3.095   2.847 -0.1159 -0.0789 -0.0165
  244SOL    HW1  731   1.445   0.067   2.912 -0.0070 -4.4028 -4.2327
  244SOL    HW2  732   1.531   3.083   2.803 -1.6373  3.0380 -1.2594
  245SOL     OW  733   1.975   2.845   3.061 -0.2187 -0.0470 -0.9030
  245SOL    HW1  734   1.920   2.803   0.039 -2.3312 -0.0311  2.1897
  245SOL    HW2  735   2.061   2.878   3.096  1.3028  0.6264 -0.3780
  246SOL     OW  736   0.864   0.792   1.553  1.2281  0.1556  0.0107
  246SOL    HW1  737   0.764   0.778   1.540 -0.2983 -1.8510 -1.0948
  246SOL    HW2  738   0.903   0.701   1.561 -0.5253  0.4552 -0.4042
  247SOL     OW  739   0.359   0.468   1.948  0.0844 -0.0102 -0.1217
  247SOL    HW1  740   0.417   0.398   1.996 -0.0328 -1.9930  1.3004
  247SOL    HW2  741   0.335   0.433   1.854 -0.9523  2.6175  2.4583
  248SOL     OW  742   3.077   1.843   1.888  0.3884 -0.3816  0.2445
  248SOL    HW1  743   3.056   1.748   1.914  0.8856 -2.9803  0.3359
  248SOL    HW2  744   3.079   1.913   1.960  0.7566 -0.6947 -2.3623
  249SOL     OW  745   2.973   0.172   0.011 -0.5604  0.3809 -0.3021
  249SOL    HW1  746   2.934   0.249   3.060  2.9602 -2.1799  2.0069
  249SOL    HW2  747   3.021   0.107   3.046  2.0913 -2.7988 -0.3001
  250SOL     OW  748   3.005   0.055   0.257  0.1541  0.1944  0.0172
  250SOL    HW1  749   3.004   0.102   0.169 -0.8676  0.3471  0.8423
  250SOL    HW2  750   2.916   0.012   0.273  0.9035  1.0917 -1.4213
  251SOL     OW  751   0.979   1.854   1.800  0.5301 -0.3745  0.3603
  251SOL    HW1  752   0.972   1.956   1.788 -0.8050 -1.1874  0.5771
  251SOL    HW2  753   0.890   1.821   1.841  1.4281 -1.6348  0.5766
  252SOL     OW  754   2.043   2.499   1.331 -0.1225 -0.3491 -0.2967
  252SOL    HW1  755   1.985   2.571   1.375  0.7252 -2.5249 -2.4318
  252SOL    HW2  756   2.121   2.541   1.279  1.6890 -0.4531  0.3031
  253SOL     OW  757   1.941   1.830   2.519 -0.4139 -0.0819 -0.2895
  253SOL    HW1  758   1.992   1.840   2.437  1.5356 -4.6638  2.0880
  253SOL    HW2  759   1.958   1.909   2.584  1.0775 -0.5784 -1.3425
  254SOL     OW  760   0.671   2.268   2.124 -0.1000  0.0831 -0.6260
  254SOL    HW1  761   0.621   2.248   2.036 -1.3331  0.2338  0.5529
  254SOL    HW2  762   0.678   2.367   2.136 -0.9132 -0.0299 -1.1234
  255SOL     OW  763   1.170   0.173   1.500  0.1100 -0.5793  0.0263
  255SOL    HW1  764   1.197   0.129   1.408 -1.5876  0.3153 -0.7686
  255SOL    HW2  765   1.236   0.135   1.568 -0.3456 -0.6791  1.4547
  256SOL     OW  766   2.391   2.103   1.393  0.1716  0.3804  0.2368
  256SOL    HW1  767   2.357   2.030   1.331  0.0456 -0.5250  2.1775
  256SOL    HW2  768   2.492   2.111   1.393 -1.5486  0.6017  0.9077
  257SOL     OW  769   0.565   2.193   3.000  0.6502  0.0383 -0.2336
  257SOL    HW1  770   0.650   2.216   3.049 -0.4773  0.9496 -2.2895
  257SOL    HW2  771   0.501   2.274   3.012 -0.2288  0.3032  3.0228
  258SOL     OW  772   0.445   1.216   0.010 -0.6290 -0.1855  0.2491
  258SOL    HW1  773   0.478   1.241   3.019  1.4945 -1.7139  0.7697
  258SOL    HW2  774   0.345   1.186   0.016 -3.0825 -1.7222  0.0921
  259SOL     OW  775   0.768   1.540   2.286 -0.4194  0.1550 -0.2526
  259SOL    HW1  776   0.822   1.456   2.258  2.7094 -0.9500  0.5665
  259SOL    HW2  777   0.828   1.602   2.340  0.9038 -0.7523  0.7389
  260SOL     OW  778   1.917   0.924   1.355  0.3154 -0.9485 -0.5650
  260SOL    HW1  779   1.826   0.971   1.375  2.7839 -1.4138  0.9778
  260SOL    HW2  780   1.948   0.940   1.261 -1.1104 -0.8477 -0.2279
  261SOL     OW  781   1.102   0.254   0.786  0.2644  0.0243 -0.2733
  261SOL    HW1  782   1.112   0.202   0.700  1.5082 -1.7739  0.4621
  261SOL    HW2  783   1.003   0.269   0.810 -0.8738 -0.5325  0.1987
  262SOL     OW  784   2.024   2.047   2.663  0.5445  0.0476  0.2849
  262SOL    HW1  785   2.121   2.021   2.676 -0.2603  0.2165  0.3565
  262SOL    HW2  786   2.006   2.148   2.659  0.9687 -0.2265 -1.3061
  263SOL     OW  787   0.009   1.469   2.860  0.2193 -0.4144  0.1448
  263SOL    HW1  788   0.070   1.548   2.876 -3.4572 -2.6747  0.0860
  263SOL    HW2  789   3.017   1.494   2.829  0.6690  2.2091  2.8590
  264SOL     OW  790   0.509   1.931   1.103  0.1143 -0.9007  0.5708
  264SOL    HW1  791   0.575   1.967   1.033 -0.7248  0.1420  1.1994
  264SOL    HW2  792   0.489   1.838   1.081  1.1731  3.0090 -0.5661
  265SOL     OW  793   0.697   0.910   0.829 -0.1600  0.4123 -0.2766
  265SOL    HW1  794   0.780   0.942   0.773  1.4975  1.7903 -2.2735
  265SOL    HW2  795   0.612   0.962   0.808  0.4565 -1.7074 -2.1007
  266SOL     OW  796   1.556   1.663   0.101  0.0765 -0.3471  0.0498
  266SOL    HW1  797   1.607   1.725   0.039  1.6251  1.7852 -1.9991
  266SOL    HW2  798   1.614   1.632   0.174 -3.3044 -1.5563 -1.1358
  267SOL     OW  799   0.740   1.064   2.632 -0.0011  0.5764  0.7959
  267SOL    HW1  800   0.820   1.130   2.650  2.3536  1.7414 -0.3309
  267SOL    HW2  801   0.772   0.983   2.578  0.4826 -1.3641  1.6477
  268SOL     OW  802   0.762   0.703   0.019  0.0869 -0.2491  0.1518
  268SOL    HW1  803   0.838   0.743   0.078 -1.9482  3.1568  0.9518
  268SOL    HW2  804   0.672   0.746   0.036  0.5524 -1.3370 -3.3728
  269SOL     OW  805   1.900   2.835   2.574  0.0682  0.3328  0.1641
  269SOL    HW1  806   1.872   2.886   2.492  0.4554 -2.2715  2.6121
  269SOL    HW2  807   1.825   2.795   2.627  0.4061  1.1919 -0.3992
  270SOL     OW  808   1.090   1.178   2.879  0.3212  0.5256 -0.1167
  270SOL    HW1  809   1.191   1.183   2.906  2.2401  1.5313 -0.5146
  270SOL    HW2  810   1.054   1.084   2.909 -0.6126 -0.6871 -0.5664
  271SOL     OW  811   2.925   0.602   0.009  0.0418 -0.6025 -0.1083
  271SOL    HW1  812   3.023   0.581   3.090 -0.0569 -0.8109  0.5403
  271SOL    HW2  813   2.900   0.700   0.000 -1.7131 -1.1812  0.2812
  272SOL     OW  814   2.346   1.027   2.654 -0.0186  0.8414  0.3511
  272SOL    HW1  815   2.272   1.092   2.678 -1.1013  1.2891  1.5363
  272SOL    HW2  816   2.434   1.050   2.697 -1.2942  1.3400 -0.5057
  273SOL     OW  817   0.200   0.217   2.163  0.0021  0.4069  0.2956
  273SOL    HW1  818   0.101   0.202   2.146 -4.3010  0.0985 -1.8288
  273SOL    HW2  819   0.215   0.298   2.224  2.5149  0.0216 -4.1365
  274SOL     OW  820   0.057   0.452   1.992 -0.1760 -0.0638 -0.5608
  274SOL    HW1  821   0.160   0.448   1.984  0.2178 -2.1231 -2.3205
  274SOL    HW2  822   0.024   0.360   2.016  1.6503  0.1537 -1.8809
  275SOL     OW  823   1.886   1.571   0.609  0.3677  1.1046 -0.2131
  275SOL    HW1  824   1.918   1.583   0.517 -0.6015 -0.2217  1.4800
  275SOL    HW2  825   1.812   1.639   0.624 -2.5594  2.0869 -0.1428
  276SOL     OW  826   0.571   1.232   2.429  0.4093  0.4443 -0.1434
  276SOL    HW1  827   0.637   1.213   2.507 -1.1269 -0.8348 -2.1157
  276SOL    HW2  828   0.492   1.166   2.416  0.2762  1.1591 -1.3967
  277SOL     OW  829   2.085   2.624   2.513  0.0771 -0.2258  0.1671
  277SOL    HW1  830   2.079   2.678   2.430  0.5483 -1.0900  2.9198
  277SOL    HW2  831   2.025   2.671   2.582 -3.2407 -0.8118  1.9357
  278SOL     OW  832   2.137   0.006   1.833 -0.4861  0.1371  0.2703
  278SOL    HW1  833   2.041   0.006   1.817  0.1447  0.4540 -0.9749
  278SOL    HW2  834   2.188   0.008   1.745 -0.1031  1.9275  2.3967
  279SOL     OW  835   1.644   1.288   3.100  0.3871 -0.2865  0.2903
  279SOL    HW1  836   1.554   1.330   0.018 -1.0682 -0.2161  0.8761
  279SOL    HW2  837   1.643   1.193   0.022 -0.9774  2.5120 -1.2143
  280SOL     OW  838   0.813   1.465   0.204 -0.0983  0.1091 -0.2522
  280SOL    HW1  839   0.897   1.480   0.262  0.7644  1.8197  1.5672
  280SOL    HW2  840   0.833   1.433   0.109  0.4360  0.6618  1.1694
  281SOL     OW  841   3.050   2.989   1.402  0.2028  0.3011  0.6897
  281SOL    HW1  842   0.013   2.941   1.466  1.2010 -0.1325 -0.8126
  281SOL    HW2  843   3.010   3.069   1.457  1.7368  2.8016  1.7460
  282SOL     OW  844   2.904   2.146   0.786 -0.3078 -0.1461  0.4810
  282SOL    HW1  845   3.004   2.151   0.759 -1.1645 -0.2380  0.3639
  282SOL    HW2  846   2.854   2.231   0.757  0.1336 -0.2673 -0.5927
  283SOL     OW  847   1.184   1.965   2.088 -0.0347  0.1115 -0.3423
  283SOL    HW1  848   1.221   2.022   2.164  2.4262 -1.7096 -0.3985
  283SOL    HW2  849   1.104   1.913   2.130 -0.1938  1.2798  2.9597
  284SOL     OW  850   1.937   0.023   0.370  0.2029  0.2734  0.1427
  284SOL    HW1  851   2.027   0.008   0.412 -1.3499  1.8472  3.0719
  284SOL    HW2  852   1.927   3.099   0.273 -1.5640 -0.6940  2.6757
  285SOL     OW  853   0.136   2.853   2.578 -0.3340 -0.3624  0.3221
  285SOL    HW1  854   0.049   2.861   2.629  1.6443 -0.4324 -0.7831
  285SOL    HW2  855   0.147   2.759   2.544  4.3608 -1.2792 -1.8411
  286SOL     OW  856   2.249   2.591   1.201 -0.3904  0.4858  0.4095
  286SOL    HW1  857   2.317   2.544   1.261  1.2605 -0.0627  1.1421
  286SOL    HW2  858   2.282   2.671   1.152  0.6344 -0.2634 -1.0776
  287SOL     OW  859   0.683   1.552   0.782  0.1954  0.6616 -0.2557
  287SOL    HW1  860   0.626   1.467   0.799 -4.2792 -0.0213  1.1675
  287SOL    HW2  861   0.726   1.547   0.689 -2.3247  0.7519  1.7072
  288SOL     OW  862   1.983   2.010   2.948 -0.0834 -0.5882  0.0447
  288SOL    HW1  863   1.895   2.037   2.993  2.1112  3.6352 -0.5259
  288SOL    HW2  864   1.982   2.028   2.852  1.7330  0.6750  3.5008
  289SOL     OW  865   0.380   1.903   2.410  0.1579 -0.2638  0.3722
  289SOL    HW1  866   0.473   1.938   2.390  1.2232  0.2707  0.0250
  289SOL    HW2  867   0.361   1.928   2.504  1.5547  3.4368 -2.1086
  290SOL     OW  868   1.144   2.204   1.135 -0.0216 -0.2322 -0.4447
  290SOL    HW1  869   1.230   2.216   1.182 -2.3666 -0.2514 -0.6313
  290SOL    HW2  870   1.124   2.105   1.123  0.7204  0.0959  1.3759
  291SOL     OW  871   1.849   1.314   2.933 -0.1343 -0.1079 -0.1496
  291SOL    HW1  872   1.908   1.397   2.945  1.2287 -0.4891 -0.3122
  291SOL    HW2  873   1.777   1.312   3.001  0.9656  0.5255 -0.6441
  292SOL     OW  874   1.040   1.357   0.731  0.6936  0.0531  0.3446
  292SOL    HW1  875   0.957   1.303   0.748 -0.3623 -0.1218  1.7783
  292SOL    HW2  876   1.121   1.299   0.742  0.9636 -0.3862  3.6669
  293SOL     OW  877   1.319   2.936   1.158 -0.1923 -1.0653 -0.6979
  293SOL    HW1  878   1.416   2.927   1.150 -0.3531  0.5485  1.3049
  293SOL    HW2  879   1.270   2.895   1.083  2.4123 -1.1987  0.5728
  294SOL     OW  880   2.992   0.992   2.925  0.5094  0.0229 -0.3411
  294SOL    HW1  881   3.032   1.076   2.888 -0.1391 -2.2651 -1.0141
  294SOL    HW2  882   2.909   0.962   2.878  1.1197 -0.1727  2.1877
  295SOL     OW  883   1.619   2.095   2.737  0.0926 -0.4039  0.4402
  295SOL    HW1  884   1.655   2.160   2.803 -1.4566 -2.1255 -2.1124
  295SOL    HW2  885   1.651   2.118   2.644  1.1263 -0.2785  2.3568
  296SOL     OW  886   2.053   1.010   2.194  0.2759  0.0240 -0.0312
  296SOL    HW1  887   1.956   0.998   2.156 -0.5035 -1.0331  0.8308
  296SOL    HW2  888   2.048   1.067   2.278  2.7371 -0.4481  0.4248
  297SOL     OW  889   0.157   0.916   2.154  0.1128  0.3163  0.2120
  297SOL    HW1  890   0.107   0.832   2.124 -2.6490  0.9811  1.1284
  297SOL    HW2  891   0.207   0.956   2.073  1.8494  1.2969 -0.1303
  298SOL     OW  892   1.301   2.172   2.246 -0.0989  0.5767  0.6528
  298SOL    HW1  893   1.266   2.248   2.188  1.0676 -1.6475 -0.6748
  298SOL    HW2  894   1.295   2.195   2.347 -0.6558  0.1015  1.3899
  299SOL     OW  895   0.474   2.853   2.537 -0.1254 -0.3386 -0.1770
  299SOL    HW1  896   0.555   2.864   2.483 -0.5282 -1.0371  2.4674
  299SOL    HW2  897   0.411   2.781   2.503 -0.0017 -1.8824  0.1487
  300SOL     OW  898   0.318   1.024   2.709  0.4983  0.0596  0.2343
  300SOL    HW1  899   0.383   1.013   2.627  1.8893  1.8722 -2.8965
  300SOL    HW2  900   0.235   1.076   2.678  0.4048  1.8686 -1.2331
  301SOL     OW  901   1.595   1.085   1.666 -0.2574 -0.1317  0.3249
  301SOL    HW1  902   1.545   1.041   1.740  1.8231  0.7551 -3.7575
  301SOL    HW2  903   1.560   1.180   1.660  2.2526 -0.8604  1.9299
  302SOL     OW  904   2.504   1.929   2.496  0.8919  0.8110  0.0119
  302SOL    HW1  905   2.458   1.956   2.582  2.3690 -1.5834  1.2632
  302SOL    HW2  906   2.503   2.005   2.432  1.3079  1.9901 -0.3031
  303SOL     OW  907   0.079   0.041   2.485  0.6372 -0.0692 -0.2516
  303SOL    HW1  908   0.171   0.006   2.466  0.9587  0.0321  2.2313
  303SOL    HW2  909   0.080   0.146   2.492 -0.5528  4.0089 -1.6345
  304SOL     OW  910   0.119   0.768   1.615 -0.3357  0.0764 -0.1268
  304SOL    HW1  911   0.212   0.776   1.659  0.6011  0.6305 -0.2126
  304SOL    HW2  912   0.079   0.680   1.646  0.9475  0.2337  0.7144
  305SOL     OW  913   2.911   0.086   1.535  0.0368  0.1279 -0.4242
  305SOL    HW1  914   2.881   0.063   1.630  1.4454 -2.3235 -2.8722
  305SOL    HW2  915   2.938   0.184   1.522 -0.8243 -0.2598  0.5591
  306SOL     OW  916   2.601   1.372   1.261  0.5137 -0.0204 -0.1235
  306SOL    HW1  917   2.555   1.365   1.351  0.0168  0.6962  0.3655
  306SOL    HW2  918   2.693   1.330   1.262 -1.4153  3.4959  0.4891
  307SOL     OW  919   1.916   0.135   1.061 -0.3507  0.6661  0.4155
  307SOL    HW1  920   1.925   0.066   0.981  1.2621 -1.1108 -0.7956
  307SOL    HW2  921   1.936   0.230   1.030 -0.3606 -1.4574  1.1392
  308SOL     OW  922   2.874   2.013   1.265 -0.2485 -0.3186 -0.4539
  308SOL    HW1  923   2.888   2.036   1.166  0.2595 -0.7556 -1.7398
  308SOL    HW2  924   2.959   1.969   1.304 -0.0621 -2.0962 -2.4170
  309SOL     OW  925   2.056   1.799   1.497 -0.1098 -0.2855  0.6496
  309SOL    HW1  926   2.019   1.778   1.401  0.7920 -2.0431 -3.8942
  309SOL    HW2  927   1.989   1.760   1.564  1.3117 -1.3833 -1.1630
  310SOL     OW  928   2.454   1.434   2.959  0.4121  0.2964  0.3906
  310SOL    HW1  929   2.463   1.508   3.031  0.4546  2.2704  0.6850
  310SOL    HW2  930   2.362   1.390   2.951 -0.5089 -1.4513  0.6042
  311SOL     OW  931   2.122   1.134   2.730 -0.5705 -0.2936 -0.1336
  311SOL    HW1  932   2.076   1.218   2.690  0.1280  0.0073  0.9678
  311SOL    HW2  933   2.053   1.060   2.727 -1.7165  1.8180 -2.1307
  312SOL     OW  934   1.547   2.386   2.106  0.8957  0.1737  0.4668
  312SOL    HW1  935   1.457   2.396   2.143  1.3105 -0.5202 -1.2356
  312SOL    HW2  936   1.542   2.409   2.007  0.0221  0.3784  3.6578
  313SOL     OW  937   0.325   2.914   1.083  0.1436 -0.3970  0.7603
  313SOL    HW1  938   0.223   2.908   1.089  2.3613  3.8337  1.4375
  313SOL    HW2  939   0.357   2.830   1.039  1.1603  3.2611 -0.7052
  314SOL     OW  940   0.873   1.670   1.300 -0.2850 -0.1633  0.1918
  314SOL    HW1  941   0.795   1.728   1.334  1.8514  1.3558  0.0762
  314SOL    HW2  942   0.855   1.638   1.204 -2.3757 -0.6657 -0.9508
  315SOL     OW  943   0.560   3.078   2.152  0.4193  0.6917 -0.4438
  315SOL    HW1  944   0.604   0.019   2.235 -1.4224  3.1621 -1.4477
  315SOL    HW2  945   0.470   3.036   2.178 -0.0574 -2.1461  2.2999
  316SOL     OW  946   0.216   1.961   0.968  0.3581 -0.0106 -0.4289
  316SOL    HW1  947   0.199   2.009   0.880  0.6897 -0.7967  0.6061
  316SOL    HW2  948   0.258   2.025   1.033  1.1010 -0.3346 -0.3411
  317SOL     OW  949   1.817   0.513   0.449  0.1680 -0.4268 -0.2871
  317SOL    HW1  950   1.759   0.506   0.362 -0.7550  0.5114  0.2429
  317SOL    HW2  951   1.859   0.421   0.471 -0.4773 -0.8316 -0.6506
  318SOL     OW  952   2.822   2.554   3.000 -0.1341  0.8227  0.1261
  318SOL    HW1  953   2.721   2.579   2.998 -0.0796  1.8600  2.1534
  318SOL    HW2  954   2.879   2.618   3.053  4.4286  1.0038 -0.5617
  319SOL     OW  955   1.737   1.570   0.292  0.0077  0.0164  0.1873
  319SOL    HW1  956   1.694   1.533   0.373  0.4846 -2.6295 -1.2788
  319SOL    HW2  957   1.780   1.494   0.239  0.8344  0.5708  0.9070
  320SOL     OW  958   0.672   2.301   2.651  0.1271  0.0738 -0.1909
  320SOL    HW1  959   0.583   2.250   2.645  0.6057 -0.3386 -1.6129
  320SOL    HW2  960   0.734   2.241   2.709  0.3810 -0.1604 -2.5139
  321SOL     OW  961   0.846   2.940   0.277  0.2157  0.0563 -0.0367
  321SOL    HW1  962   0.867   2.847   0.314  1.1074 -0.6656 -2.9541
  321SOL    HW2  963   0.761   2.975   0.322 -2.8729  1.7704  1.5112
  322SOL     OW  964   2.255   0.910   2.058 -0.5015 -0.0972 -0.5299
  322SOL    HW1  965   2.176   0.944   2.117 -0.3420  0.5697  1.5020
  322SOL    HW2  966   2.313   0.833   2.095 -0.4631 -1.1150 -0.3204
  323SOL     OW  967   2.761   0.998   0.628  0.1511  0.3654 -0.0597
  323SOL    HW1  968   2.856   0.979   0.663 -0.2980 -2.3563 -3.5657
  323SOL    HW2  969   2.761   1.072   0.554  0.0018 -1.0900  0.3424
  324SOL     OW  970   0.271   0.441   2.302  0.0004 -0.3667  0.0871
  324SOL    HW1  971   0.235   0.535   2.310 -0.1768 -0.6014  1.2498
  324SOL    HW2  972   0.367   0.443   2.334 -1.3676  1.7757 -0.5647
  325SOL     OW  973   0.696   0.085   2.361 -0.1964 -0.7049  0.0667
  325SOL    HW1  974   0.735   0.161   2.308  2.0625 -0.9639 -2.1487
  325SOL    HW2  975   0.739   0.094   2.456  0.3866  0.5846  3.2657
  326SOL     OW  976   2.320   2.822   1.020  0.4395 -0.3538  0.3576
  326SOL    HW1  977   2.398   2.769   1.058 -2.4245  0.0833 -2.1264
  326SOL    HW2  978   2.348   2.883   0.942 -0.8483 -2.4574  0.1166
  327SOL     OW  979   1.689   0.955   0.276  0.1285  0.0146 -0.6590
  327SOL    HW1  980   1.608   1.001   0.319 -0.1815  1.4991 -1.5209
  327SOL    HW2  981   1.672   0.862   0.245 -2.8391  1.4294  1.2042
  328SOL     OW  982   0.175   2.046   2.170  0.4252 -0.1259  0.3456
  328SOL    HW1  983   0.184   2.121   2.244  0.2147  1.5068 -0.0495
  328SOL    HW2  984   0.075   2.036   2.146  1.7022  0.1949 -1.5557
  329SOL     OW  985   2.343   2.614   1.780  0.3064  0.1151 -0.2891
  329SOL    HW1  986   2.377   2.521   1.792  0.9342  1.1214 -1.0224
  329SOL    HW2  987   2.253   2.616   1.732 -0.1093 -0.8956 -0.6357
  330SOL     OW  988   2.393   1.438   1.701 -0.6246 -0.4252  0.1741
  330SOL    HW1  989   2.329   1.424   1.777  1.9213  1.4124 -1.4371
  330SOL    HW2  990   2.391   1.533   1.662 -0.0237  0.0202  0.3073
  331SOL     OW  991   2.868   2.205   1.040  0.5970 -0.0907 -0.6936
  331SOL    HW1  992   2.889   2.164   0.946 -3.3211  1.1877 -0.8049
  331SOL    HW2  993   2.766   2.210   1.048  0.4069  2.1958  0.9606
  332SOL     OW  994   0.625   2.659   0.213 -0.4724  0.0257  0.3936
  332SOL    HW1  995   0.554   2.726   0.228 -0.7841 -3.2155  0.3026
  332SOL    HW2  996   0.710   2.694   0.261  0.7885  1.3935  1.3797
  333SOL     OW  997   1.961   0.194   2.459  0.5044 -0.4224 -0.1549
  333SOL    HW1  998   1.866   0.163   2.470  0.3739 -1.2911 -2.8029
  333SOL    HW2  999   1.983   0.175   2.358  2.9481  3.6416 -1.6888
  334SOL     OW 1000   0.717   0.896   0.476  0.0281  0.8824  0.3450
  334SOL    HW1 1001   0.778   0.959   0.525  0.3389 -3.1368 -1.7865
  334SOL    HW2 1002   0.639   0.949   0.447  1.0012 -0.9254  0.3253
  335SOL     OW 1003   0.312   3.004   2.221  0.9742  0.3588  0.4182
  335SOL    HW1 1004   0.305   3.054   2.311  0.2153 -1.5081  1.4739
  335SOL    HW2 1005   0.235   3.027   2.160  0.1684  0.5519  1.2531
  336SOL     OW 1006   2.832   0.004   2.266  0.0759 -0.2663 -0.3058
  336SOL    HW1 1007   2.881   3.018   2.263 -3.3051  0.6309 -3.7212
  336SOL    HW2 1008   2.895   0.080   2.250 -2.7885 -0.1164 -3.5784
  337SOL     OW 1009   1.347   1.607   0.906 -0.2041 -0.6483 -0.0203
  337SOL    HW1 1010   1.387   1.674   0.975 -0.7644  0.2413 -0.7818
  337SOL    HW2 1011   1.410   1.529   0.891  1.9263  0.1844  2.6634
  338SOL     OW 1012   0.855   1.786   0.817 -0.1579  0.2888 -0.2063
  338SOL    HW1 1013   0.779   1.714   0.820  0.3576  0.3232  1.0422
  338SOL    HW2 1014   0.854   1.833   0.903  0.8704 -1.5362  0.5773
  339SOL     OW 1015   0.045   1.107   1.251  0.2747  0.0515  0.1454
  339SOL    HW1 1016   0.092   1.157   1.326 -1.9180 -2.8390 -0.7339
  339SOL    HW2 1017   0.022   1.010   1.273 -0.3181 -1.1523  0.8793
  340SOL     OW 1018   1.676   2.659   2.108 -0.5091  0.1434 -0.1553
  340SOL    HW1 1019   1.701   2.603   2.031 -0.0866  1.4882  1.6188
  340SOL    HW2 1020   1.714   2.618   2.193  5.2751 -0.7158  1.1627
  341SOL     OW 1021   2.010   1.476   0.825 -0.9087  0.1294 -1.0652
  341SOL    HW1 1022   1.957   1.479   0.911 -0.9962  0.1808  1.3308
  341SOL    HW2 1023   1.964   1.507   0.743  2.0990 -1.8460  0.6888
  342SOL     OW 1024   2.910   1.387   0.649 -0.7976  0.4804 -0.2039
  342SOL    HW1 1025   2.918   1.470   0.587  0.8559 -2.4023 -0.5605
  342SOL    HW2 1026   2.877   1.413   0.741 -0.5641  1.8900  2.5845
  343SOL     OW 1027   2.846   1.113   1.635  0.9321 -0.3544 -0.4690
  343SOL    HW1 1028   2.926   1.164   1.600  1.5828 -2.4948  0.1368
  343SOL    HW2 1029   2.882   1.031   1.686 -0.8826 -0.1547 -1.1926
  344SOL     OW 1030   1.966   0.437   0.990 -0.4442  0.4321 -0.0177
  344SOL    HW1 1031   1.876   0.429   1.036  0.2384 -0.0618 -0.7581
  344SOL    HW2 1032   2.018   0.516   1.026  0.4153  0.1088  1.6374
  345SOL     OW 1033   0.344   3.077   2.470  0.4586  0.1219 -0.2870
  345SOL    HW1 1034   0.378   2.992   2.512  0.5547  0.3614 -2.7226
  345SOL    HW2 1035   0.396   0.056   2.496  1.3067  0.9516 -2.2433
  346SOL     OW 1036   2.364   1.332   0.234 -0.5346  0.2095  0.8650
  346SOL    HW1 1037   2.287   1.395   0.258 -2.8430 -1.3346  0.5769
  346SOL    HW2 1038   2.339   1.277   0.153 -0.7985  2.5831 -1.2558
  347SOL     OW 1039   2.041   2.830   1.994  0.4017  0.2155 -0.2232
  347SOL    HW1 1040   1.969   2.771   1.957  0.8344  3.2665 -0.7052
  347SOL    HW2 1041   1.998   2.921   2.019  1.8764  2.0091  0.1291
  348SOL     OW 1042   1.060   1.235   1.615 -0.3831  0.2127  0.4122
  348SOL    HW1 1043   1.021   1.295   1.540 -0.9331 -0.9729  0.1420
  348SOL    HW2 1044   1.007   1.147   1.624  0.9957  1.2565 -1.3752
  349SOL     OW 1045   2.411   1.150   1.819 -0.3427 -0.2901 -0.1667
  349SOL    HW1 1046   2.470   1.075   1.848  2.4256  2.1870 -1.1641
  349SOL    HW2 1047   2.463   1.235   1.798 -1.3369  0.1592 -1.4216
  350SOL     OW 1048   2.314   2.453   0.490  0.0346 -0.1073 -0.7074
  350SOL    HW1 1049   2.402   2.450   0.454 -5.4723 -0.1449  1.3076
  350SOL    HW2 1050   2.298   2.376   0.557 -0.8951 -0.0044  0.6732
  351SOL     OW 1051   0.256   0.235   1.478  0.2396  0.0834  0.5819
  351SOL    HW1 1052   0.172   0.287   1.444  1.1878  1.3800 -0.1650
  351SOL    HW2 1053   0.284   0.163   1.409  1.1003  0.9237 -0.9900
  352SOL     OW 1054   1.900   2.396   1.955  0.6184 -0.2911 -0.1482
  352SOL    HW1 1055   1.939   2.420   2.048  0.9793 -0.2319  1.1121
  352SOL    HW2 1056   1.939   2.309   1.926  1.4982  2.7895  0.5383
  353SOL     OW 1057   0.889   1.310   2.206 -0.2821  0.2601  0.0539
  353SOL    HW1 1058   0.806   1.254   2.185  0.6122  0.7430 -0.1464
  353SOL    HW2 1059   0.943   1.278   2.285  1.9982 -1.2989 -0.7153
  354SOL     OW 1060   1.467   1.653   0.497 -0.2515 -0.1565 -0.4607
  354SOL    HW1 1061   1.508   1.559   0.476 -2.1556 -0.0781 -1.9745
  354SOL    HW2 1062   1.451   1.696   0.404  3.4901  1.5202 -1.8304
  355SOL     OW 1063   1.934   3.088   0.824  0.6953 -0.3436 -0.5150
  355SOL    HW1 1064   1.895   3.030   0.753 -0.0264  0.3406 -1.4425
  355SOL    HW2 1065   1.911   0.082   0.802  0.7165 -0.4708 -0.2874
  356SOL     OW 1066   2.847   1.251   0.035  0.0632  0.2411  1.0341
  356SOL    HW1 1067   2.935   1.300   0.021 -1.2338  0.3813  0.3100
  356SOL    HW2 1068   2.858   1.163   0.086  0.1405 -0.3090  1.4364
  357SOL     OW 1069   0.034   3.051   1.979  0.0080  0.6381  0.3137
  357SOL    HW1 1070   0.023   3.036   1.875  0.7591  0.5677 -2.0443
  357SOL    HW2 1071   3.096   0.040   2.012  1.0700  1.3588  2.2083
  358SOL     OW 1072   0.235   1.184   0.526  0.0808  0.2905  0.1100
  358SOL    HW1 1073   0.269   1.094   0.489 -1.3707  0.5202 -0.8676
  358SOL    HW2 1074   0.145   1.174   0.574 -0.1460 -0.4781 -2.0330
  359SOL     OW 1075   2.590   3.093   2.637 -0.2404  0.1815  0.5113
  359SOL    HW1 1076   2.580   3.006   2.584 -0.6072  3.6960 -0.4056
  359SOL    HW2 1077   2.500   0.021   2.679  1.8606 -1.2633 -4.1877
  360SOL     OW 1078   1.562   0.830   1.251  0.3310 -0.2675  0.0219
  360SOL    HW1 1079   1.624   0.880   1.317  0.8827  0.1494 -3.0185
  360SOL    HW2 1080   1.508   0.888   1.187  0.6368  3.5498 -1.5455
  361SOL     OW 1081   2.366   2.249   1.146  0.4770 -0.5637 -0.4732
  361SOL    HW1 1082   2.297   2.190   1.107  1.1413 -0.6505  0.1258
  361SOL    HW2 1083   2.371   2.213   1.242 -1.1215  1.8417 -0.3591
  362SOL     OW 1084   1.320   0.462   1.185 -0.6251 -0.5542  0.2626
  362SOL    HW1 1085   1.415   0.493   1.182  2.9751  1.6826  1.3211
  362SOL    HW2 1086   1.310   0.375   1.131  0.6984 -0.4015  0.6349
  363SOL     OW 1087   1.793   2.204   0.499  0.4046  0.5574  0.4570
  363SOL    HW1 1088   1.869   2.204   0.564 -4.4544 -0.7012  1.6273
  363SOL    HW2 1089   1.731   2.285   0.521 -1.0105 -0.6011 -1.2083
  364SOL     OW 1090   0.105   0.353   0.877 -0.3789  0.2879 -0.5896
  364SOL    HW1 1091   0.134   0.254   0.865 -0.9101 -3.2809  0.7230
  364SOL    HW2 1092   0.095   0.373   0.978  0.6036 -1.0220  2.1751
  365SOL     OW 1093   0.412   2.955   0.639 -0.1815  0.1689  0.0102
  365SOL    HW1 1094   0.318   2.956   0.677  0.3433  1.3872  0.7819
  365SOL    HW2 1095   0.475   2.994   0.707 -4.5517 -1.4757 -2.3324
  366SOL     OW 1096   0.036   1.398   0.352 -0.2028 -0.2730  0.5535
  366SOL    HW1 1097   0.056   1.315   0.405  1.8626 -0.3241  0.8300
  366SOL    HW2 1098   0.121   1.439   0.309  1.9624  3.6489  0.5317
  367SOL     OW 1099   2.580   2.450   2.671 -0.4827  0.9346  0.2853
  367SOL    HW1 1100   2.585   2.552   2.694  0.1797  2.0591 -0.9432
  367SOL    HW2 1101   2.569   2.439   2.570 -0.1492  1.1335  0.0794
  368SOL     OW 1102   2.285   1.795   0.736  0.2825  0.0111 -0.5026
  368SOL    HW1 1103   2.259   1.715   0.790 -0.5554 -1.3054  0.8824
  368SOL    HW2 1104   2.388   1.793   0.710  2.0643 -1.3664 -2.5743
  369SOL     OW 1105   1.286   0.559   0.021  0.0319 -0.1960 -0.2180
  369SOL    HW1 1106   1.183   0.546   0.011 -0.7353  0.7812 -0.7845
  369SOL    HW2 1107   1.313   0.558   0.118 -0.3884  2.3837  1.9700
  370SOL     OW 1108   0.558   3.064   1.090  0.1882  0.0905  0.5155
  370SOL    HW1 1109   0.559   0.033   1.155  0.4110 -3.8277  0.0936
  370SOL    HW2 1110   0.485   2.997   1.106  2.1473 -0.0359  0.0844
  371SOL     OW 1111   2.806   1.453   2.722 -0.3177  0.1277  0.8803
  371SOL    HW1 1112   2.736   1.466   2.654  2.8406 -1.5825  1.1459
  371SOL    HW2 1113   2.771   1.397   2.806 -0.7351 -1.3714  1.8071
  372SOL     OW 1114   0.633   0.795   2.693  0.3228  0.0311 -0.1212
  372SOL    HW1 1115   0.646   0.891   2.721  0.8467 -1.3242 -0.0056
  372SOL    HW2 1116   0.695   0.733   2.745 -0.4652  0.5371  1.5731
  373SOL     OW 1117   0.412   0.182   3.041 -0.4348  0.3746 -0.4257
  373SOL    HW1 1118   0.400   0.246   2.965  0.0881 -1.7653  0.7712
  373SOL    HW2 1119   0.487   0.120   3.014 -1.6419  0.8192  2.0812
  374SOL     OW 1120   1.248   2.098   0.172  0.7390 -0.2321  0.4228
  374SOL    HW1 1121   1.278   2.193   0.136  0.4560  2.2361  0.1330
  374SOL    HW2 1122   1.284   2.022   0.110  2.1077  0.5972  0.3372
  375SOL     OW 1123   0.901   0.004   1.559 -0.2037  0.2499 -0.3405
  375SOL    HW1 1124   0.825   0.001   1.491 -0.6610  2.8250  1.3138
  375SOL    HW2 1125   0.941   0.095   1.555  0.1479  0.2634 -1.5936
  376SOL     OW 1126   0.118   2.738   1.916  0.3123 -0.6181 -0.3008
  376SOL    HW1 1127   0.107   2.643   1.944  1.6401  0.0332  0.5565
  376SOL    HW2 1128   0.219   2.753   1.892  2.2691  2.8997 -2.6670
  377SOL     OW 1129   2.652   2.155   3.018 -0.2344 -0.0205 -0.4938
  377SOL    HW1 1130   2.732   2.198   3.055 -0.6175  0.6706 -1.5201
  377SOL    HW2 1131   2.597   2.102   3.095 -2.1214  0.2530  2.5548
  378SOL     OW 1132   2.197   0.256   0.410 -0.6438  0.6208  0.3256
  378SOL    HW1 1133   2.251   0.306   0.482 -0.1219 -0.0490 -0.5412
  378SOL    HW2 1134   2.193   0.159   0.438 -0.4093  2.1516 -0.8824
  379SOL     OW 1135   1.143   0.681   0.491  0.5435 -0.1753 -0.5327
  379SOL    HW1 1136   1.230   0.717   0.512  0.3070  0.6156  2.9311
  379SOL    HW2 1137   1.087   0.749   0.443 -0.3894 -0.0851  2.5186
  380SOL     OW 1138   2.617   2.162   1.745  0.0572 -0.6607  0.2089
  380SOL    HW1 1139   2.701   2.218   1.731  0.2531  2.1823 -3.7817
  380SOL    HW2 1140   2.633   2.073   1.702 -0.1725 -2.6439  1.5483
  381SOL     OW 1141   2.628   1.310   1.911  0.3107  0.0800 -0.0963
  381SOL    HW1 1142   2.614   1.412   1.898  0.3634 -0.3121 -1.8570
  381SOL    HW2 1143   2.651   1.277   2.005 -3.0456  0.5641 -1.1701
  382SOL     OW 1144   2.808   2.101   2.761 -0.2457  0.1224 -0.5223
  382SOL    HW1 1145   2.730   2.100   2.825 -0.0263  2.8167 -1.5493
  382SOL    HW2 1146   2.864   2.188   2.771  0.9289  0.0969  0.4995
  383SOL     OW 1147   1.219   0.971   2.625 -0.1450  0.4279  0.2937
  383SOL    HW1 1148   1.193   0.958   2.523  2.7567  2.4291 -0.0881
  383SOL    HW2 1149   1.267   1.059   2.629 -0.3813  1.0243 -0.5691
  384SOL     OW 1150   1.518   2.013   2.173  0.1654 -0.2133 -0.4624
  384SOL    HW1 1151   1.591   2.079   2.181 -1.9663 -2.2034  0.2650
  384SOL    HW2 1152   1.425   2.055   2.190 -0.3735  0.8105  0.1754
  385SOL     OW 1153   2.473   2.642   0.257  1.0611 -0.5097  0.2437
  385SOL    HW1 1154   2.502   2.552   0.217 -0.6620  1.8889 -1.2360
  385SOL    HW2 1155   2.546   2.689   0.306  1.3550  1.3473  1.0049
  386SOL     OW 1156   1.589   0.970   0.725 -0.1058  0.1705 -0.2745
  386SOL    HW1 1157   1.491   0.977   0.760 -1.0522  2.3226 -1.0102
  386SOL    HW2 1158   1.645   0.908   0.782 -1.1020  2.4123  0.9898
  387SOL     OW 1159   0.014   1.818   1.291 -0.4335  0.1019  0.5533
  387SOL    HW1 1160   0.102   1.856   1.328  0.4267  1.6520 -1.2658
  387SOL    HW2 1161   3.090   1.739   1.342  0.7264  2.3354  0.4344
  388SOL     OW 1162   0.546   1.299   1.425 -0.7767  0.2155 -0.9617
  388SOL    HW1 1163   0.611   1.364   1.478  2.6432  1.1931 -0.4326
  388SOL    HW2 1164   0.580   1.205   1.433 -1.7651 -0.2850 -0.2603
  389SOL     OW 1165   2.220   0.884   2.455  0.0882  0.4395  0.0941
  389SOL    HW1 1166   2.268   0.955   2.511  1.0911 -0.5066  1.1101
  389SOL    HW2 1167   2.118   0.898   2.458  0.7280 -2.4121 -1.6480
  390SOL     OW 1168   1.078   1.767   0.122 -0.4850  0.2181  0.0413
  390SOL    HW1 1169   0.991   1.811   0.103 -1.1222 -1.8076  2.5100
  390SOL    HW2 1170   1.142   1.762   0.045 -3.4014 -1.6368 -0.7432
  391SOL     OW 1171   1.317   1.790   0.276 -0.1332  0.3952 -0.2362
  391SOL    HW1 1172   1.337   1.887   0.302  1.0933  3.8615 -2.6431
  391SOL    HW2 1173   1.217   1.777   0.253 -2.4386  0.4629 -2.2361
  392SOL     OW 1174   2.805   2.816   2.377 -0.2957  0.0955 -0.5460
  392SOL    HW1 1175   2.814   2.781   2.283  1.1151 -0.4407 -1.2344
  392SOL    HW2 1176   2.888   2.868   2.402 -1.3121 -2.4039 -0.6720
  393SOL     OW 1177   1.592   2.296   0.034  0.1366  0.5735 -0.1945
  393SOL    HW1 1178   1.620   2.322   0.127  1.8997 -0.5318 -0.3389
  393SOL    HW2 1179   1.495   2.315   0.014  1.4295  1.6291 -1.2058
  394SOL     OW 1180   0.765   0.309   2.237  0.4256  0.0689 -0.1225
  394SOL    HW1 1181   0.863   0.325   2.266 -2.9709  1.0430  0.3514
  394SOL    HW2 1182   0.762   0.334   2.138 -0.8374  1.4322  2.6125
  395SOL     OW 1183   0.392   1.720   1.313 -0.3493  0.5387 -0.3573
  395SOL    HW1 1184   0.339   1.806   1.334 -0.6075  1.8654  1.9930
  395SOL    HW2 1185   0.386   1.696   1.216 -0.2582  1.7319  0.4554
  396SOL     OW 1186   2.213   1.297   2.914  0.6071  0.0726  0.2197
  396SOL    HW1 1187   2.194   1.219   2.855  4.7234  1.2007 -1.7336
  396SOL    HW2 1188   2.145   1.374   2.903 -2.2269 -0.4990  0.3470
  397SOL     OW 1189   0.107   0.578   3.066 -0.0099  0.3072  0.1150
  397SOL    HW1 1190   0.139   0.503   0.034 -1.9799 -0.8133  1.2142
  397SOL    HW2 1191   0.105   0.663   0.022  0.5186  2.4455  2.0439
  398SOL     OW 1192   0.716   2.364   0.295  0.5818  0.4245 -0.3378
  398SOL    HW1 1193   0.753   2.294   0.234  0.3602 -1.0368  1.8898
  398SOL    HW2 1194   0.753   2.459   0.282 -1.1294  2.4178  0.7347
  399SOL     OW 1195   1.970   2.318   2.635 -0.5457  0.3570  0.5400
  399SOL    HW1 1196   1.939   2.396   2.692  0.1192  1.5375  2.0356
  399SOL    HW2 1197   2.050   2.343   2.575 -0.8904  1.0682 -2.2548
  400SOL     OW 1198   0.039   1.258   1.708  0.1518 -0.3634 -0.5004
  400SOL    HW1 1199   3.069   1.321   1.739  3.2519 -0.5735 -1.1922
  400SOL    HW2 1200   0.118   1.316   1.682 -0.9339  0.7494  1.5229
  401SOL     OW 1201   0.854   0.598   0.801  0.2636 -0.0553  0.2775
  401SOL    HW1 1202   0.888   0.540   0.727 -2.3139  0.2921  2.6916
  401SOL    HW2 1203   0.766   0.569   0.839  1.1550 -3.8070  0.3623
  402SOL     OW 1204   0.816   0.182   2.596 -0.0167  0.0992  0.2104
  402SOL    HW1 1205   0.788   0.259   2.657  1.2791  1.4912 -0.9200
  402SOL    HW2 1206   0.830   0.098   2.653 -0.2298 -0.5924 -0.3683
  403SOL     OW 1207   2.622   1.592   1.853 -0.0815  0.1351  0.0878
  403SOL    HW1 1208   2.662   1.636   1.938  1.2701 -2.8729 -0.2411
  403SOL    HW2 1209   2.687   1.599   1.774 -1.6658  0.5487  0.1839
  404SOL     OW 1210   2.664   2.132   1.388 -0.3036 -0.8603  0.0102
  404SOL    HW1 1211   2.655   2.234   1.359  1.7505  1.8730 -3.6952
  404SOL    HW2 1212   2.747   2.091   1.343  1.9751 -0.4689 -0.8292
  405SOL     OW 1213   2.037   0.316   2.703  0.0703 -0.5220  0.3859
  405SOL    HW1 1214   2.028   0.258   2.622  1.8803  1.4002  1.6712
  405SOL    HW2 1215   2.121   0.374   2.689 -1.0653  1.1399  0.0996
  406SOL     OW 1216   1.322   1.786   3.076  0.3463 -0.6735  0.3573
  406SOL    HW1 1217   1.378   1.769   0.057 -4.4502  0.3068 -0.2712
  406SOL    HW2 1218   1.311   1.709   3.011 -0.6637 -0.7341  0.2981
  407SOL     OW 1219   1.882   1.829   0.763 -0.6328  0.1058 -0.4637
  407SOL    HW1 1220   1.795   1.815   0.711 -0.2001  1.4886  0.9357
  407SOL    HW2 1221   1.961   1.832   0.702 -0.7057 -1.5601  0.9258
  408SOL     OW 1222   0.048   0.363   1.257 -0.3315  0.3667 -0.9583
  408SOL    HW1 1223   0.138   0.408   1.235  1.0793 -0.3054 -1.4682
  408SOL    HW2 1224   0.034   0.272   1.214 -1.4460 -2.2497  4.4679
  409SOL     OW 1225   1.911   1.173   0.490 -0.5536 -0.6871 -0.3441
  409SOL    HW1 1226   2.007   1.212   0.494  0.4055  1.3650 -0.4434
  409SOL    HW2 1227   1.905   1.097   0.555  3.9977 -0.0469  1.4016
  410SOL     OW 1228   2.310   2.277   0.691  0.2823 -0.2840 -0.1552
  410SOL    HW1 1229   2.278   2.319   0.778  1.2207  0.9350  1.1423
  410SOL    HW2 1230   2.369   2.196   0.705  1.1881  3.3012 -1.3221
  411SOL     OW 1231   0.249   0.057   0.478 -0.1979  0.0410 -0.1089
  411SOL    HW1 1232   0.216   0.036   0.383  1.7122  0.6394  2.4830
  411SOL    HW2 1233   0.312   3.086   0.512 -1.1963  1.6250  0.6573
  412SOL     OW 1234   1.467   2.780   0.674 -0.2532  0.0014 -0.2949
  412SOL    HW1 1235   1.447   2.874   0.698  1.4844  0.3014  0.2246
  412SOL    HW2 1236   1.488   2.718   0.754 -0.7344 -2.9367  0.5114
  413SOL     OW 1237   1.742   0.049   2.455  0.0695 -0.5114 -0.0401
  413SOL    HW1 1238   1.663   0.108   2.437  3.3784 -3.0436  1.8670
  413SOL    HW2 1239   1.732   3.068   2.396 -0.4300 -0.4379  0.0664
  414SOL     OW 1240   0.056   0.689   0.579 -0.5497  0.1728 -0.2599
  414SOL    HW1 1241   0.017   0.724   0.495  0.5800  0.1033  2.7691
  414SOL    HW2 1242   0.130   0.756   0.608  1.6099  2.0557  2.3063
  415SOL     OW 1243   0.045   1.319   0.810 -0.1502 -0.3540 -0.2373
  415SOL    HW1 1244   3.085   1.311   0.886 -0.8117 -0.4970 -2.1170
  415SOL    HW2 1245   0.011   1.287   0.716  2.0340 -0.5313  0.6491
  416SOL     OW 1246   0.345   0.878   2.920  0.5687 -0.3627 -0.1553
  416SOL    HW1 1247   0.425   0.817   2.908 -1.9892  0.3658  0.6140
  416SOL    HW2 1248   0.319   0.933   2.836 -0.6088 -0.1660  2.2665
  417SOL     OW 1249   2.536   0.194   0.715  0.2881 -0.3548 -0.0241
  417SOL    HW1 1250   2.443   0.219   0.753 -1.7687 -1.2260  3.5492
  417SOL    HW2 1251   2.570   0.266   0.649  1.0814  1.6291 -3.8489
  418SOL     OW 1252   0.831   0.008   2.803  0.2415  0.2467 -0.3880
  418SOL    HW1 1253   0.760   3.088   2.873 -1.0425 -0.5573  0.1211
  418SOL    HW2 1254   0.874   3.024   2.775  0.3999 -0.1315  0.7879
  419SOL     OW 1255   0.212   1.096   0.851 -0.3794  0.0457  0.0680
  419SOL    HW1 1256   0.184   1.196   0.858  1.5948  0.8221  0.0922
  419SOL    HW2 1257   0.140   1.044   0.896 -1.8471 -0.3322 -0.0455
  420SOL     OW 1258   2.945   1.518   1.281 -0.3302 -0.5824 -0.4512
  420SOL    HW1 1259   2.992   1.549   1.365 -2.9363  0.3817 -0.7160
  420SOL    HW2 1260   2.904   1.428   1.303 -1.1967  0.5147  0.8331
  421SOL     OW 1261   1.227   2.000   2.900  0.0503 -0.2151  0.2718
  421SOL    HW1 1262   1.276   1.995   2.810 -1.1363  2.2686 -1.7749
  421SOL    HW2 1263   1.240   1.910   2.948 -1.1950 -2.4175 -0.8232
  422SOL     OW 1264   2.483   0.776   2.707  0.0351 -0.0559 -0.1213
  422SOL    HW1 1265   2.425   0.854   2.699  1.0122 -1.4032  1.7545
  422SOL    HW2 1266   2.502   0.737   2.615 -2.7660  3.5807  2.1483
  423SOL     OW 1267   1.961   1.410   0.180  0.0118 -0.2802 -0.0737
  423SOL    HW1 1268   2.055   1.416   0.208  1.0140 -1.2025 -2.4372
  423SOL    HW2 1269   1.934   1.312   0.167  1.0072  2.9266  1.0049
  424SOL     OW 1270   0.794   0.968   1.939 -0.2412 -0.3086  0.2864
  424SOL    HW1 1271   0.719   0.969   2.008 -0.5385  0.0557  0.0122
  424SOL    HW2 1272   0.888   0.970   1.980  0.6609 -0.1224 -1.3991
  425SOL     OW 1273   3.031   2.794   2.119 -0.6095 -0.2889  0.0653
  425SOL    HW1 1274   3.096   2.784   2.042  2.5282 -0.0766 -1.9611
  425SOL    HW2 1275   3.061   2.868   2.183  0.1600 -0.1801  0.2683
  426SOL     OW 1276   2.054   2.457   0.390  0.5667 -0.3236  1.0488
  426SOL    HW1 1277   2.147   2.468   0.427  2.4078 -2.7122  1.3708
  426SOL    HW2 1278   1.986   2.491   0.455 -0.1810  3.5179 -0.4440
  427SOL     OW 1279   0.768   0.615   2.827 -0.1240  0.3147  0.1924
  427SOL    HW1 1280   0.762   0.519   2.796  0.5634  0.0291  0.4521
  427SOL    HW2 1281   0.743   0.610   2.923  0.0357 -1.9411 -2.2023
  428SOL     OW 1282   2.701   1.320   2.914 -0.0315 -0.3174  0.2809
  428SOL    HW1 1283   2.739   1.265   2.991  0.1522 -3.4410 -1.7296
  428SOL    HW2 1284   2.610   1.356   2.939 -0.9879 -0.9937 -0.6641
  429SOL     OW 1285   2.583   0.366   0.210  0.3922  0.2211  0.3087
  429SOL    HW1 1286   2.540   0.459   0.228 -1.8380  1.2258  3.1945
  429SOL    HW2 1287   2.526   0.326   0.134 -2.3544  1.1484 -0.9694
  430SOL     OW 1288   1.238   2.688   2.344 -0.0064 -0.4161 -0.1136
  430SOL    HW1 1289   1.278   2.768   2.391 -2.3516 -1.1969 -3.6066
  430SOL    HW2 1290   1.255   2.698   2.245  0.5325  0.2112 -2.0051
  431SOL     OW 1291   0.273   1.951   1.377 -0.2311 -1.4102 -0.4197
  431SOL    HW1 1292   0.225   2.039   1.353  0.3295  0.9980 -0.8556
  431SOL    HW2 1293   0.282   1.938   1.477  0.5998  2.8705 -0.2166
  432SOL     OW 1294   2.312   2.797   1.960  0.5228 -0.0694 -0.4493
  432SOL    HW1 1295   2.219   2.838   1.968 -0.5188  1.1437 -3.1852
  432SOL    HW2 1296   2.306   2.717   1.896 -1.7784 -1.7456 -1.1385
  433SOL     OW 1297   1.291   2.152   0.449 -0.2906  0.0941 -0.2884
  433SOL    HW1 1298   1.208   2.174   0.497  4.2982 -0.5981  1.2122
  433SOL    HW2 1299   1.275   2.144   0.350 -1.7877  0.1347  0.1032
  434SOL     OW 1300   0.118   2.009   2.716  0.0129  0.4854  0.4455
  434SOL    HW1 1301   0.219   1.985   2.719  0.0771  0.2951 -1.6833
  434SOL    HW2 1302   0.075   2.001   2.806 -0.4988  0.0471 -0.4430
  435SOL     OW 1303   3.070   1.165   0.609 -0.5216 -0.3048  0.2190
  435SOL    HW1 1304   2.980   1.214   0.598  0.3287  0.8245 -1.9886
  435SOL    HW2 1305   3.051   1.076   0.652 -2.0544 -0.4232  0.9409
  436SOL     OW 1306   0.529   2.796   1.740  0.6779  0.8881 -0.0453
  436SOL    HW1 1307   0.486   2.839   1.659  0.1781 -1.3941  1.6330
  436SOL    HW2 1308   0.607   2.858   1.757 -0.1718 -1.7853  0.3749
  437SOL     OW 1309   0.822   2.976   0.725  0.5597  0.6931  0.4358
  437SOL    HW1 1310   0.828   3.067   0.679  2.3553  0.3679  1.2440
  437SOL    HW2 1311   0.896   2.911   0.704  1.7349 -2.5738 -0.6643
  438SOL     OW 1312   0.112   2.077   0.717  0.0866  0.3542 -0.3531
  438SOL    HW1 1313   0.081   2.046   0.624 -0.0307  2.8214 -0.3913
  438SOL    HW2 1314   0.210   2.100   0.719 -2.0868 -0.8142  0.8511
  439SOL     OW 1315   0.764   2.387   1.751  0.6475 -0.5513  0.4878
  439SOL    HW1 1316   0.836   2.452   1.730 -0.3873  0.4182  2.1468
  439SOL    HW2 1317   0.690   2.427   1.807 -0.7173  0.7928  0.9607
  440SOL     OW 1318   2.237   3.069   2.133  0.1285  0.1708  0.0904
  440SOL    HW1 1319   2.211   0.039   2.198  0.5851 -0.1374 -0.9837
  440SOL    HW2 1320   2.181   3.082   2.049  0.1962  1.2401  2.7244
  441SOL     OW 1321   0.039   0.506   1.680 -0.0119 -0.1641 -0.1769
  441SOL    HW1 1322   0.134   0.463   1.688 -2.6509  0.7276  0.5381
  441SOL    HW2 1323   3.097   0.501   1.773 -3.0852  0.8897  0.6979
  442SOL     OW 1324   1.808   2.340   0.811 -0.2335  0.8464  0.1777
  442SOL    HW1 1325   1.760   2.413   0.767 -2.0858 -1.8692  2.2715
  442SOL    HW2 1326   1.858   2.371   0.896  1.3154 -0.6007  2.9623
  443SOL     OW 1327   2.835   0.879   2.334 -0.5977  0.0243  0.5419
  443SOL    HW1 1328   2.836   0.792   2.382 -2.3707  1.7752  0.6465
  443SOL    HW2 1329   2.921   0.932   2.352  0.0170 -1.8062  1.6218
  444SOL     OW 1330   1.806   1.012   2.065  0.1708 -0.1140 -0.0046
  444SOL    HW1 1331   1.788   0.924   2.020 -2.8692 -0.7443  1.9194
  444SOL    HW2 1332   1.815   1.086   2.003  0.2550 -2.1751  0.6875
  445SOL     OW 1333   2.868   2.532   1.324 -0.0549  0.2336  0.1464
  445SOL    HW1 1334   2.926   2.524   1.410  2.0923 -1.6625  1.0182
  445SOL    HW2 1335   2.866   2.628   1.293 -0.0527  0.0611 -0.7189
  446SOL     OW 1336   2.723   1.572   1.117 -0.4440 -0.0674 -0.4930
  446SOL    HW1 1337   2.645   1.548   1.174  3.0864  0.4935 -3.4962
  446SOL    HW2 1338   2.805   1.563   1.175 -2.1453  0.3314 -1.6249
  447SOL     OW 1339   0.479   1.047   0.737 -0.0789 -0.5916 -0.2427
  447SOL    HW1 1340   0.389   1.091   0.751 -0.0931 -2.2268 -1.6430
  447SOL    HW2 1341   0.495   1.036   0.638  0.9544  1.5614 -0.0376
  448SOL     OW 1342   1.448   1.633   1.968 -0.0368 -0.0440  0.1233
  448SOL    HW1 1343   1.367   1.693   1.952 -1.4186  0.7614  0.9397
  448SOL    HW2 1344   1.429   1.536   1.950  0.0721  1.5895  0.4122
  449SOL     OW 1345   1.575   1.409   0.450 -0.2758  0.5657 -0.4916
  449SOL    HW1 1346   1.587   1.352   0.532  0.6871 -0.4260 -2.2986
  449SOL    HW2 1347   1.522   1.354   0.385  0.1205 -0.3005  1.2725
  450SOL     OW 1348   2.733   2.790   2.065 -0.1777 -0.3111 -0.1227
  450SOL    HW1 1349   2.728   2.691   2.038 -0.5109 -3.4634  0.3395
  450SOL    HW2 1350   2.806   2.838   2.012  0.9755  0.1099 -0.5421
  451SOL     OW 1351   2.295   0.486   2.634  0.4442 -1.0049  0.0792
  451SOL    HW1 1352   2.256   0.512   2.543  1.3367  0.1141 -0.2297
  451SOL    HW2 1353   2.324   0.391   2.632 -3.2914  0.3759  0.0972
  452SOL     OW 1354   1.588   0.380   0.871  0.1772  0.1911  0.1660
  452SOL    HW1 1355   1.519   0.392   0.797  2.1098  2.1399 -1.1370
  452SOL    HW2 1356   1.598   0.470   0.918 -3.1410  0.4772  0.9512
  453SOL     OW 1357   1.767   0.666   1.671  0.0040 -0.4390  0.2484
  453SOL    HW1 1358   1.734   0.720   1.594 -0.0517 -3.1788 -1.7001
  453SOL    HW2 1359   1.809   0.581   1.640  2.9237  0.8912  0.7287
  454SOL     OW 1360   2.939   1.556   0.431  0.2333  0.0359  0.7835
  454SOL    HW1 1361   2.987   1.487   0.374  3.0778  0.4027 -0.6145
  454SOL    HW2 1362   3.017   1.614   0.466 -0.3751  0.3777 -0.3087
  455SOL     OW 1363   2.960   3.078   0.572  0.1409 -0.1389  0.0472
  455SOL    HW1 1364   3.024   0.057   0.595 -0.1846 -0.2151 -0.1993
  455SOL    HW2 1365   2.920   3.068   0.475 -1.4172 -0.7670 -2.2576
  456SOL     OW 1366   0.083   2.849   1.186  0.3269  0.2320 -0.3642
  456SOL    HW1 1367   0.016   2.899   1.248 -2.7998  3.3524  2.6495
  456SOL    HW2 1368   0.125   2.766   1.229 -2.7289  0.9158 -0.7922
  457SOL     OW 1369   1.213   3.031   0.494  0.0648  0.5792 -0.6222
  457SOL    HW1 1370   1.118   3.070   0.507 -0.9559 -2.6392  1.1006
  457SOL    HW2 1371   1.282   0.004   0.472  2.7796  0.1806  2.2136
  458SOL     OW 1372   2.178   2.980   0.710  0.1664  0.1711  0.1045
  458SOL    HW1 1373   2.101   3.036   0.746 -1.3733 -0.3886 -1.0924
  458SOL    HW2 1374   2.270   3.004   0.749  0.8905 -0.3060  1.3434
  459SOL     OW 1375   2.121   0.633   2.800  0.4472 -0.1940  0.0571
  459SOL    HW1 1376   2.204   0.608   2.744 -0.8741 -2.6818 -1.8059
  459SOL    HW2 1377   2.145   0.630   2.900  2.0713 -1.2965  0.5219
  460SOL     OW 1378   2.744   2.904   3.010 -0.2687 -0.6242  0.9396
  460SOL    HW1 1379   2.670   2.839   3.009  1.5500 -0.6315  1.1277
  460SOL    HW2 1380   2.837   2.858   2.997  1.0955 -1.9700 -1.0101
  461SOL     OW 1381   0.856   2.042   0.445  0.3663  0.0877 -0.3904
  461SOL    HW1 1382   0.902   2.035   0.535 -0.5411 -1.2010 -1.5963
  461SOL    HW2 1383   0.776   1.978   0.442  0.1479 -0.6182  1.1733
  462SOL     OW 1384   2.247   2.381   0.939 -0.3035 -0.5172 -0.2205
  462SOL    HW1 1385   2.243   2.357   1.037 -1.8385  0.3102 -3.2587
  462SOL    HW2 1386   2.196   2.467   0.915  1.7358 -1.0752  2.2272
  463SOL     OW 1387   2.365   0.910   0.600 -0.1926 -0.1358 -0.5718
  463SOL    HW1 1388   2.347   0.913   0.704  1.4449  1.1665  1.4562
  463SOL    HW2 1389   2.444   0.849   0.579 -0.9749  1.1129  1.3593
  464SOL     OW 1390   0.332   0.042   1.323 -0.1314  0.3624 -0.0325
  464SOL    HW1 1391   0.328   3.051   1.278  0.9719 -0.7822  1.1282
  464SOL    HW2 1392   0.384   0.046   1.414  2.2303  0.6730  1.5586
  465SOL     OW 1393   2.660   1.434   0.189  0.6564  0.2179 -0.2832
  465SOL    HW1 1394   2.576   1.383   0.200  1.2706  0.6582  1.6309
  465SOL    HW2 1395   2.735   1.377   0.149  1.3753 -1.2299  0.5422
  466SOL     OW 1396   1.784   0.253   2.815  0.0733 -0.0229 -0.7599
  466SOL    HW1 1397   1.854   0.296   2.757  0.8013  0.0767 -1.8612
  466SOL    HW2 1398   1.814   0.224   2.909  0.8969  0.8868  0.5589
  467SOL     OW 1399   0.986   0.544   1.628  0.5004  0.3808  0.4439
  467SOL    HW1 1400   0.977   0.465   1.691 -3.1037  0.0845 -0.4233
  467SOL    HW2 1401   1.027   0.513   1.538 -0.8722  2.3481  0.0940
  468SOL     OW 1402   0.559   1.149   2.830  0.0808 -0.1226 -0.2265
  468SOL    HW1 1403   0.464   1.169   2.793 -1.7977 -0.4083  0.4607
  468SOL    HW2 1404   0.620   1.152   2.751  0.0502  1.7474  0.4651
  469SOL     OW 1405   0.234   2.149   0.068 -0.2196 -0.4782 -0.4060
  469SOL    HW1 1406   0.238   2.175   0.164 -1.3372  0.4503  0.6481
  469SOL    HW2 1407   0.147   2.187   0.025  2.9624  1.9517 -0.4660
  470SOL     OW 1408   2.334   1.677   2.539 -0.2816 -0.2403  0.4228
  470SOL    HW1 1409   2.405   1.634   2.602 -0.4591  1.2432  1.2326
  470SOL    HW2 1410   2.358   1.770   2.506  1.5146 -2.9544 -0.9715
  471SOL     OW 1411   2.707   1.295   2.183  0.1158  0.6965 -0.2003
  471SOL    HW1 1412   2.663   1.204   2.217  1.5195 -0.9739  1.1035
  471SOL    HW2 1413   2.807   1.292   2.178 -2.0230  0.4697  0.7780
  472SOL     OW 1414   0.458   2.705   0.549 -0.3637 -0.1478 -0.3847
  472SOL    HW1 1415   0.399   2.665   0.474  2.6822 -0.1226  2.2843
  472SOL    HW2 1416   0.430   2.797   0.575  0.7007  2.8147  0.7569
  473SOL     OW 1417   0.610   3.052   2.963 -0.3175 -0.0685 -0.7807
  473SOL    HW1 1418   0.616   3.047   3.065  0.8224  3.1917  1.3996
  473SOL    HW2 1419   0.594   2.963   2.926 -0.0595  0.1353  1.5650
  474SOL     OW 1420   1.763   2.910   2.311 -0.5196  0.0030 -0.2059
  474SOL    HW1 1421   1.725   2.819   2.310  0.8070  1.5748 -0.2945
  474SOL    HW2 1422   1.744   2.956   2.225  0.5496  0.3716 -0.1318
  475SOL     OW 1423   1.609   2.442   0.533 -0.0655  0.3023  0.2812
  475SOL    HW1 1424   1.582   2.347   0.532  1.0998  1.3012 -0.2419
  475SOL    HW2 1425   1.627   2.479   0.439  0.3912  1.1031 -0.0397
  476SOL     OW 1426   0.114   0.887   0.996  0.3617  0.1594 -0.1723
  476SOL    HW1 1427   0.011   0.871   1.001 -1.2007 -1.0068  1.9595
  476SOL    HW2 1428   0.166   0.814   1.036 -2.0811  1.8358  0.5315
  477SOL     OW 1429   1.639   2.263   1.098 -0.5072  0.0106  0.3761
  477SOL    HW1 1430   1.581   2.269   1.013  2.0804 -0.5525  0.9749
  477SOL    HW2 1431   1.613   2.186   1.152  1.8950  3.6871 -0.6050
  478SOL     OW 1432   0.437   2.199   2.553  0.3640 -0.2064  0.0341
  478SOL    HW1 1433   0.392   2.290   2.577 -0.3069  1.0470  2.1064
  478SOL    HW2 1434   0.435   2.178   2.454  2.1330  0.5370 -1.5040
  479SOL     OW 1435   2.426   0.491   0.874 -0.5339 -0.2849 -0.9686
  479SOL    HW1 1436   2.466   0.507   0.783  0.1967  1.8949 -2.2330
  479SOL    HW2 1437   2.499   0.484   0.949  1.3208  0.7552  3.1574
  480SOL     OW 1438   3.034   2.663   0.130  0.0979 -0.0023  0.0098
  480SOL    HW1 1439   3.096   2.710   0.196 -0.2961  0.2388 -0.3861
  480SOL    HW2 1440   3.087   2.648   0.045 -1.0573 -2.4827 -1.4600
  481SOL     OW 1441   2.544   2.743   1.186 -0.5306 -0.4035 -0.3494
  481SOL    HW1 1442   2.535   2.721   1.286 -0.3795  0.7002 -1.3152
  481SOL    HW2 1443   2.603   2.824   1.173 -0.5351 -1.9374  1.4247
  482SOL     OW 1444   1.284   2.273   2.858 -0.0004  0.0275 -0.3792
  482SOL    HW1 1445   1.268   2.172   2.860 -0.9178 -1.6812 -1.1267
  482SOL    HW2 1446   1.201   2.327   2.830 -1.1681 -1.7021 -1.2402
  483SOL     OW 1447   0.395   1.938   2.714  0.6262  0.0279 -0.1155
  483SOL    HW1 1448   0.443   1.870   2.769 -1.0366 -0.3419 -0.7517
  483SOL    HW2 1449   0.453   2.022   2.699  0.2549  1.6935 -1.7145
  484SOL     OW 1450   0.961   0.993   1.383  0.2415  0.2586 -0.3009
  484SOL    HW1 1451   0.918   0.923   1.441 -1.7763 -0.9599  0.2288
  484SOL    HW2 1452   1.060   0.978   1.372  1.3064 -1.3372 -0.2460
  485SOL     OW 1453   2.403   0.599   0.228  0.1435  0.0275 -0.2940
  485SOL    HW1 1454   2.326   0.545   0.261  0.2565  1.7462  1.0637
  485SOL    HW2 1455   2.374   0.668   0.158  2.0363  1.5181  0.3094
  486SOL     OW 1456   1.668   0.079   1.184  0.1216 -0.2540  0.3342
  486SOL    HW1 1457   1.664   0.095   1.285  0.5727 -0.8425  0.4177
  486SOL    HW2 1458   1.766   0.099   1.156  2.1838  1.5784 -0.5835
  487SOL     OW 1459   0.433   2.320   0.881  0.5088  0.0439  0.1845
  487SOL    HW1 1460   0.366   2.397   0.857 -4.3776  2.1631 -0.0009
  487SOL    HW2 1461   0.526   2.349   0.863  1.9811 -0.0207 -0.3610
  488SOL     OW 1462   2.388   1.164   0.528 -0.5634  0.1563  0.6911
  488SOL    HW1 1463   2.458   1.180   0.456 -2.2292  1.0879 -3.7842
  488SOL    HW2 1464   2.382   1.067   0.561  0.0143 -0.6178  0.2862
  489SOL     OW 1465   1.506   0.140   0.956 -0.2135 -0.8669 -0.3743
  489SOL    HW1 1466   1.553   0.229   0.931  0.8341 -2.3654 -0.2774
  489SOL    HW2 1467   1.541   0.108   1.047 -1.5609  2.7273  2.6102
  490SOL     OW 1468   0.954   0.500   0.574  0.0916  0.4630 -0.4605
  490SOL    HW1 1469   0.852   0.475   0.568 -0.9660 -1.2619 -0.3537
  490SOL    HW2 1470   0.988   0.565   0.501 -1.0502 -0.5035 -0.7689
  491SOL     OW 1471   0.340   2.466   0.608  0.6089  0.1095  0.3319
  491SOL    HW1 1472   0.366   2.402   0.537 -1.5115  0.2943  1.3742
  491SOL    HW2 1473   0.394   2.555   0.596 -2.2853 -1.0843  0.4110
  492SOL     OW 1474   0.944   1.223   2.666 -0.2682  0.3594  0.1375
  492SOL    HW1 1475   1.003   1.180   2.736 -1.1645 -1.2483 -0.1955
  492SOL    HW2 1476   0.917   1.319   2.686 -0.8203  3.3799 -1.1377
  493SOL     OW 1477   0.039   2.597   0.971 -0.2098  0.0161 -0.2564
  493SOL    HW1 1478   3.061   2.532   0.985  2.1056 -0.7960  0.1470
  493SOL    HW2 1479   0.039   2.664   1.049  0.4783  0.1285  1.5112
  494SOL     OW 1480   2.495   2.004   0.104 -0.2271  0.0609 -0.7511
  494SOL    HW1 1481   2.458   2.081   0.170 -2.4615  2.3766  2.0285
  494SOL    HW2 1482   2.562   1.936   0.143 -0.6497 -2.6648 -2.2144
  495SOL     OW 1483   2.632   1.749   2.908  0.0163  0.0727 -0.4181
  495SOL    HW1 1484   2.544   1.801   2.908  0.8997  1.5054  0.2345
  495SOL    HW2 1485   2.622   1.662   2.859 -0.5092  0.8941  0.5364
  496SOL     OW 1486   2.702   0.351   1.496 -0.3591  0.2734  0.0963
  496SOL    HW1 1487   2.800   0.360   1.474  1.1578 -1.7684  0.5182
  496SOL    HW2 1488   2.691   0.301   1.583  0.1168 -1.2102 -0.3535
  497SOL     OW 1489   2.618   1.002   0.189 -0.4925  0.7452  0.6211
  497SOL    HW1 1490   2.579   1.000   0.092  1.4361 -2.5015  0.1843
  497SOL    HW2 1491   2.658   0.911   0.218  0.0768 -0.7247  0.7144
  498SOL     OW 1492   0.190   2.271   2.334  0.2697 -0.1817 -0.4469
  498SOL    HW1 1493   0.166   2.362   2.302  0.0743 -2.2406 -1.5609
  498SOL    HW2 1494   0.138   2.242   2.415 -1.7273  0.1378 -0.0537
  499SOL     OW 1495   0.822   2.279   0.022  0.2635  0.0650 -0.1032
  499SOL    HW1 1496   0.899   2.247   0.079 -2.1805 -1.0348 -1.1787
  499SOL    HW2 1497   0.831   2.251   3.026  1.9405 -0.0195 -0.2656
  500SOL     OW 1498   1.290   2.937   0.097 -0.1812  0.1418  0.7225
  500SOL    HW1 1499   1.354   2.870   0.140  1.7881  3.0299  0.8487
  500SOL    HW2 1500   1.281   3.016   0.163 -1.7563 -1.3370 -1.0163
  501SOL     OW 1501   1.856   0.031   1.791  0.0277 -0.0121  0.1169
  501SOL    HW1 1502   1.857   3.066   1.715  1.9843  2.5632 -0.0470
  501SOL    HW2 1503   1.787   0.101   1.771  0.6271 -3.7252  0.4745
  502SOL     OW 1504   2.842   0.753   2.082 -0.4383  0.0920  0.3995
  502SOL    HW1 1505   2.835   0.778   2.182 -0.9459  2.1400 -1.0621
  502SOL    HW2 1506   2.833   0.654   2.065  0.9687  0.1009 -0.8141
  503SOL     OW 1507   2.350   2.189   2.337  0.1169 -0.2137  0.3775
  503SOL    HW1 1508   2.339   2.250   2.253 -0.3432  0.1716 -1.7921
  503SOL    HW2 1509   2.263   2.155   2.368  0.0767 -0.8836 -1.1033
  504SOL     OW 1510   1.548   0.515   1.594  0.3523  0.1666 -0.4230
  504SOL    HW1 1511   1.639   0.544   1.635 -1.0351  0.2952  1.5243
  504SOL    HW2 1512   1.475   0.522   1.658 -1.4187 -1.6735 -3.0616
  505SOL     OW 1513   0.896   1.026   1.700  0.3614  0.4488 -0.2152
  505SOL    HW1 1514   0.881   0.940   1.648 -1.1788  0.7909 -0.6851
  505SOL    HW2 1515   0.878   1.000   1.796 -0.2841  1.8201 -1.3021
  506SOL     OW 1516   0.483   0.933   2.502 -0.1627 -0.1703  0.0442
  506SOL    HW1 1517   0.441   0.882   2.422 -0.4224 -2.0111 -1.2761
  506SOL    HW2 1518   0.561   0.878   2.536  1.3796  1.3978 -1.6818
  507SOL     OW 1519   0.320   2.804   3.035 -0.1128  0.0423 -0.0162
  507SOL    HW1 1520   0.400   2.805   2.973  1.0593 -0.7645  0.0949
  507SOL    HW2 1521   0.279   2.896   3.029 -1.0758 -1.6687 -0.0354
  508SOL     OW 1522   1.424   0.670   1.401  0.0789  0.0404 -0.0631
  508SOL    HW1 1523   1.473   0.615   1.469  1.5547 -0.1850  3.6727
  508SOL    HW2 1524   1.487   0.726   1.346  0.5520 -1.0777  2.7868
  509SOL     OW 1525   1.017   2.050   1.492  0.4896  0.5186  0.4383
  509SOL    HW1 1526   1.084   2.119   1.525  2.7914  0.7513 -2.4565
  509SOL    HW2 1527   1.058   1.960   1.459 -1.2601  1.4917 -1.8872
  510SOL     OW 1528   2.356   1.205   2.375 -0.2226 -0.8968  0.3483
  510SOL    HW1 1529   2.441   1.198   2.427  1.3237  0.6514  0.5359
  510SOL    HW2 1530   2.382   1.190   2.276 -1.2934  1.4123  0.5967
  511SOL     OW 1531   0.846   1.965   1.033 -0.0262 -0.4971 -0.5037
  511SOL    HW1 1532   0.797   2.029   0.971 -0.1991 -0.9844  0.6105
  511SOL    HW2 1533   0.816   1.973   1.130 -0.6574  0.3175  0.3533
  512SOL     OW 1534   2.394   2.211   0.309  0.2248 -0.2555  0.4976
  512SOL    HW1 1535   2.299   2.179   0.286  0.3986  0.2129  0.6417
  512SOL    HW2 1536   2.393   2.243   0.407 -2.6943  2.3755  0.0706
  513SOL     OW 1537   2.936   1.772   2.392 -0.3899 -0.6392  0.1451
  513SOL    HW1 1538   3.020   1.779   2.334  0.0665 -2.1916  0.4606
  513SOL    HW2 1539   2.957   1.721   2.478  1.8633 -3.8676 -0.7967
  514SOL     OW 1540   3.049   2.630   2.443 -0.3750 -0.0651 -0.4606
  514SOL    HW1 1541   3.031   2.545   2.497  0.6845  1.0015 -1.6364
  514SOL    HW2 1542   0.029   2.611   2.385 -1.5081 -0.3795  2.1489
  515SOL     OW 1543   2.184   1.335   1.361  0.1413  0.2929 -0.2047
  515SOL    HW1 1544   2.173   1.397   1.278 -0.1801  0.3384 -3.9179
  515SOL    HW2 1545   2.278   1.319   1.398  0.1207  2.3242  2.6549
  516SOL     OW 1546   2.528   2.390   2.946 -0.1648 -0.3203  0.1251
  516SOL    HW1 1547   2.541   2.405   2.843 -1.4043 -1.1559  0.7438
  516SOL    HW2 1548   2.557   2.297   2.973 -2.1243  1.2613 -2.6200
  517SOL     OW 1549   1.315   0.840   3.075 -0.1407 -0.5211  0.1904
  517SOL    HW1 1550   1.331   0.871   2.978  0.2517 -1.1290 -2.2932
  517SOL    HW2 1551   1.310   0.737   3.080  2.2582 -1.5738 -0.4668
  518SOL     OW 1552   3.039   2.935   2.374  0.1099 -0.2308 -0.1621
  518SOL    HW1 1553   3.090   3.017   2.412  1.4653  1.0586  0.7811
  518SOL    HW2 1554   3.080   2.853   2.423  0.0107 -2.6417  2.3143
  519SOL     OW 1555   1.549   1.748   2.213  0.0396  0.1944 -0.5290
  519SOL    HW1 1556   1.506   1.716   2.124  1.3841 -1.0005 -0.5966
  519SOL    HW2 1557   1.549   1.847   2.212  0.0174 -2.3861  2.4496
  520SOL     OW 1558   2.959   2.825   2.635  0.4006 -0.6944  0.3140
  520SOL    HW1 1559   2.961   2.735   2.582 -1.0455 -1.7350 -1.0529
  520SOL    HW2 1560   2.876   2.886   2.619  0.3136  3.2610 -1.1383
  521SOL     OW 1561   0.435   1.755   1.905  0.5606  0.5024  0.3944
  521SOL    HW1 1562   0.431   1.783   2.004 -0.9122 -2.1105 -0.8508
  521SOL    HW2 1563   0.497   1.671   1.894  0.9758 -1.8428 -1.5740
  522SOL     OW 1564   1.080   3.019   1.854  0.0778 -0.4217 -0.1639
  522SOL    HW1 1565   1.000   3.061   1.805  1.6303  0.6860 -0.7290
  522SOL    HW2 1566   1.076   3.051   1.952  0.4822  0.6788  1.6921
  523SOL     OW 1567   0.189   2.621   1.271 -0.4649 -0.2922 -0.0323
  523SOL    HW1 1568   0.189   2.531   1.212 -1.3423 -2.9219 -1.8149
  523SOL    HW2 1569   0.260   2.611   1.348  3.0970  1.2525 -0.4288
  524SOL     OW 1570   1.542   2.603   0.883 -0.1189 -0.0490 -0.0906
  524SOL    HW1 1571   1.509   2.507   0.871  1.9659 -1.8678 -0.0706
  524SOL    HW2 1572   1.518   2.642   0.973  0.2383  0.5233  0.3896
  525SOL     OW 1573   2.373   0.953   0.890  0.0648 -0.0437  0.0899
  525SOL    HW1 1574   2.334   1.028   0.952 -0.3895  0.2529 -0.1314
  525SOL    HW2 1575   2.335   0.862   0.912  3.1873  0.3117 -1.5901
  526SOL     OW 1576   1.087   2.187   0.607  0.4803 -0.4458 -0.6066
  526SOL    HW1 1577   1.003   2.245   0.585  2.9544  3.0211  1.6133
  526SOL    HW2 1578   1.056   2.098   0.651 -3.4173  0.4005 -1.9769
  527SOL     OW 1579   2.500   2.103   0.824 -0.5728  0.0924  0.2018
  527SOL    HW1 1580   2.531   2.051   0.739  2.6275  0.7893 -0.8250
  527SOL    HW2 1581   2.412   2.068   0.860 -0.9842 -0.5732 -1.0712
  528SOL     OW 1582   2.097   0.409   0.029 -0.3727 -0.0341 -0.6249
  528SOL    HW1 1583   2.152   0.487   3.092 -1.0904  1.5296  0.4427
  528SOL    HW2 1584   2.128   0.388   0.125  1.1611 -1.8544  0.1654
  529SOL     OW 1585   1.212   1.065   1.793  0.6354  0.1362 -0.1090
  529SOL    HW1 1586   1.202   1.101   1.889 -0.0586  3.0575  3.3748
  529SOL    HW2 1587   1.180   1.137   1.728 -0.6621  1.0978 -1.8270
  530SOL     OW 1588   2.603   1.096   2.786 -0.4332 -0.5457 -0.4084
  530SOL    HW1 1589   2.622   1.195   2.804  0.1623 -0.8778  0.0047
  530SOL    HW2 1590   2.623   1.083   2.684  1.3341 -0.3688 -1.9660
  531SOL     OW 1591   1.013   0.851   0.106  0.3406  0.1612 -0.4655
  531SOL    HW1 1592   1.103   0.829   0.144  2.5594  0.9237 -2.7877
  531SOL    HW2 1593   0.998   0.954   0.103 -1.5356 -3.0182 -0.2826
  532SOL     OW 1594   1.908   0.275   0.522 -0.1225 -0.4809 -0.0600
  532SOL    HW1 1595   1.927   0.220   0.438  1.3414 -0.9062 -1.0913
  532SOL    HW2 1596   1.857   0.226   0.594  4.6840  0.8609  0.5262
  533SOL     OW 1597   0.575   0.935   2.137  0.7345 -0.0489  0.3370
  533SOL    HW1 1598   0.508   0.896   2.074  1.4866 -0.8827  0.2345
  533SOL    HW2 1599   0.615   0.852   2.189 -0.7529 -4.0664  4.7475
  534SOL     OW 1600   1.705   0.004   2.717  0.1632  0.6405 -0.0613
  534SOL    HW1 1601   1.722   3.100   2.614 -0.4796 -1.4954 -1.3218
  534SOL    HW2 1602   1.751   0.082   2.758  1.0267 -3.1572 -1.9536
  535SOL     OW 1603   0.600   3.039   0.401 -0.8768  0.0671  0.6882
  535SOL    HW1 1604   0.583   0.038   0.400  1.0790  0.9252 -0.1343
  535SOL    HW2 1605   0.547   3.002   0.476 -0.1170  0.2164 -2.1524
  536SOL     OW 1606   1.156   2.788   1.326  0.3711  0.1672 -0.0807
  536SOL    HW1 1607   1.205   2.876   1.301  1.6967  0.7060  0.9656
  536SOL    HW2 1608   1.144   2.725   1.252  1.4388  1.3754  1.5342
  537SOL     OW 1609   2.081   2.712   2.247 -0.0614 -0.1269  0.0048
  537SOL    HW1 1610   2.098   2.778   2.171 -0.8494 -0.7164 -1.0148
  537SOL    HW2 1611   2.143   2.629   2.243  0.5524 -2.7638 -0.3574
  538SOL     OW 1612   0.356   2.569   2.742  0.2757 -0.1996 -0.5561
  538SOL    HW1 1613   0.448   2.538   2.776 -1.2742 -0.8722 -0.7419
  538SOL    HW2 1614   0.364   2.602   2.645  1.6190  0.3839 -0.5799
  539SOL     OW 1615   2.976   1.841   1.637  0.4239  0.1441 -0.3464
  539SOL    HW1 1616   3.011   1.914   1.578  2.3426 -1.0037  0.9843
  539SOL    HW2 1617   3.010   1.844   1.736  2.1229 -1.7109  2.8133
  540SOL     OW 1618   2.586   2.316   2.145 -0.2812 -0.5197 -0.3114
  540SOL    HW1 1619   2.651   2.264   2.206  1.4242 -0.4919 -0.8252
  540SOL    HW2 1620   2.497   2.264   2.132 -0.4117 -1.1993  3.0408
  541SOL     OW 1621   0.174   2.964   1.592  0.0044  0.1110 -0.1760
  541SOL    HW1 1622   0.198   3.024   1.670  0.2217  1.5568  0.1450
  541SOL    HW2 1623   0.258   2.921   1.554  0.3146 -0.3943 -1.2569
  542SOL     OW 1624   0.016   0.699   2.088 -0.4219  0.5072  0.1670
  542SOL    HW1 1625   3.027   0.740   2.070  0.0956 -0.8100  1.0726
  542SOL    HW2 1626   0.026   0.603   2.055  1.2275 -0.3726  2.1589
  543SOL     OW 1627   0.742   0.613   1.244  0.4380  0.3127  0.0550
  543SOL    HW1 1628   0.839   0.626   1.259  0.2902 -2.2477  0.3032
  543SOL    HW2 1629   0.719   0.510   1.244 -2.4134 -2.4718  1.2738
  544SOL     OW 1630   2.320   1.907   1.225 -0.0903  0.5213 -0.4641
  544SOL    HW1 1631   2.392   1.879   1.157  0.0048 -0.3081  0.7777
  544SOL    HW2 1632   2.241   1.945   1.174  1.7835  0.6778 -1.6956
  545SOL     OW 1633   1.068   1.584   0.545 -0.2370 -0.0067 -0.0345
  545SOL    HW1 1634   1.121   1.660   0.586  0.2952  1.1409 -0.3972
  545SOL    HW2 1635   1.056   1.507   0.615  2.0474 -0.5010  3.4372
  546SOL     OW 1636   2.951   0.456   2.276  0.6519 -0.5664 -0.7398
  546SOL    HW1 1637   2.907   0.479   2.188  1.7300 -0.2776 -2.0051
  546SOL    HW2 1638   3.019   0.525   2.299 -2.3070  0.6948 -2.1039
  547SOL     OW 1639   0.097   0.312   2.518 -0.3679 -0.2467 -0.2180
  547SOL    HW1 1640   0.114   0.377   2.595 -2.4895 -1.6336  0.4666
  547SOL    HW2 1641   0.165   0.331   2.446  1.3371  0.2383  3.2347
  548SOL     OW 1642   2.337   2.250   2.767 -0.1145 -0.1198  0.5870
  548SOL    HW1 1643   2.314   2.289   2.858  1.0190 -0.0603  0.4739
  548SOL    HW2 1644   2.311   2.313   2.688 -0.3736  0.0133 -2.5716
  549SOL     OW 1645   2.313   0.439   0.578 -0.0185 -1.2907 -0.4218
  549SOL    HW1 1646   2.266   0.457   0.665 -0.6731  0.4526  0.9640
  549SOL    HW2 1647   2.413   0.465   0.580  0.9123 -1.7576  1.3004
  550SOL     OW 1648   2.148   1.298   0.510  0.3766 -0.1028 -0.2688
  550SOL    HW1 1649   2.148   1.394   0.476  0.5461 -1.7903 -1.1492
  550SOL    HW2 1650   2.238   1.251   0.507 -2.7315  2.0036  1.2225
  551SOL     OW 1651   1.325   2.780   1.638  0.2203 -0.2509 -0.1419
  551SOL    HW1 1652   1.361   2.689   1.621 -0.2004  0.6200  1.5198
  551SOL    HW2 1653   1.223   2.782   1.628  0.5070 -1.8474  0.2268
  552SOL     OW 1654   2.219   2.373   2.532  0.0356 -0.5012 -0.5186
  552SOL    HW1 1655   2.303   2.368   2.476  0.5963 -0.5401  0.3241
  552SOL    HW2 1656   2.179   2.468   2.526 -0.0583  3.5156  0.3006
  553SOL     OW 1657   0.698   2.573   0.614 -0.3138  0.2621 -0.1348
  553SOL    HW1 1658   0.739   2.618   0.694 -0.4228 -0.6389 -0.3834
  553SOL    HW2 1659   0.613   2.614   0.584  0.3480  1.1071  1.1997
  554SOL     OW 1660   1.876   2.652   1.839 -0.1527  0.3865  0.3184
  554SOL    HW1 1661   1.879   2.555   1.868 -0.8760 -1.2673 -2.0755
  554SOL    HW2 1662   1.794   2.678   1.786  3.1245 -0.1665  1.4987
  555SOL     OW 1663   1.989   2.432   2.187  0.7639 -0.4236  0.3205
  555SOL    HW1 1664   2.073   2.476   2.214 -2.1929 -0.2408 -0.2706
  555SOL    HW2 1665   1.988   2.336   2.222 -1.8684  0.1428 -0.6875
  556SOL     OW 1666   1.041   0.220   0.523 -0.3586 -0.1872  0.3924
  556SOL    HW1 1667   1.040   0.323   0.523 -1.4731 -1.9473 -0.7626
  556SOL    HW2 1668   1.027   0.195   0.423 -0.3683  0.7018  1.0748
  557SOL     OW 1669   0.928   2.121   1.735 -0.1576  0.2349  0.2648
  557SOL    HW1 1670   0.930   2.091   1.637  0.3973 -2.4688 -0.2519
  557SOL    HW2 1671   0.848   2.178   1.755  1.1680 -3.0304  1.9794
  558SOL     OW 1672   2.645   1.146   2.514 -0.3841 -0.0386 -0.4709
  558SOL    HW1 1673   2.672   1.087   2.433 -0.5070  0.7288  1.5889
  558SOL    HW2 1674   2.624   1.239   2.500  1.1485 -1.5762 -0.3840
  559SOL     OW 1675   2.257   2.499   2.188  0.3149 -0.1251  0.0712
  559SOL    HW1 1676   2.308   2.437   2.124 -1.0527 -1.1191 -1.5651
  559SOL    HW2 1677   2.321   2.574   2.214  0.7593 -2.3041 -1.7439
  560SOL     OW 1678   0.534   0.438   2.375  0.2610 -0.0458  0.1434
  560SOL    HW1 1679   0.598   0.392   2.313  0.7151  0.7861 -0.2728
  560SOL    HW2 1680   0.503   0.374   2.450 -0.5731  4.5608 -0.8655
  561SOL     OW 1681   1.115   0.373   0.266  0.0029 -0.2013  0.0086
  561SOL    HW1 1682   1.191   0.441   0.275 -0.9199 -2.1038  0.5689
  561SOL    HW2 1683   1.121   0.330   0.177 -0.5369 -1.2104  2.5503
  562SOL     OW 1684   1.020   1.582   1.792 -0.2195  0.1138  0.4536
  562SOL    HW1 1685   1.001   1.681   1.808  2.8105 -2.0876 -1.2985
  562SOL    HW2 1686   1.070   1.569   1.703 -0.9651  0.3527  0.1934
  563SOL     OW 1687   1.905   2.439   0.177  0.2383  0.0259 -0.3171
  563SOL    HW1 1688   1.933   2.364   0.121 -1.7903  0.8290 -0.7200
  563SOL    HW2 1689   1.957   2.444   0.260 -3.2092  0.5113 -0.3521
  564SOL     OW 1690   2.696   2.194   0.485  0.1460 -0.0224 -0.2558
  564SOL    HW1 1691   2.721   2.256   0.564  0.3795  0.2357  0.4027
  564SOL    HW2 1692   2.654   2.110   0.512  1.2466 -1.2610  0.0981
  565SOL     OW 1693   0.517   0.240   2.540  0.0170  0.5415  0.2174
  565SOL    HW1 1694   0.499   0.191   2.627  0.6072 -1.0893 -1.8224
  565SOL    HW2 1695   0.584   0.180   2.486 -0.4785 -1.5483 -0.9848
  566SOL     OW 1696   1.585   2.625   2.493 -0.6710 -0.2862  0.0153
  566SOL    HW1 1697   1.599   2.601   2.593  0.6499 -1.5424  0.7828
  566SOL    HW2 1698   1.667   2.609   2.432  0.4747 -1.8041 -2.7428
  567SOL     OW 1699   1.894   1.802   1.289  0.5017  0.1209 -0.2571
  567SOL    HW1 1700   1.900   1.780   1.189  0.4731 -0.0223  2.4639
  567SOL    HW2 1701   1.810   1.856   1.311 -3.0047  1.9251  2.8027
  568SOL     OW 1702   1.977   0.914   2.750 -0.1918 -0.1012  0.2222
  568SOL    HW1 1703   1.911   0.937   2.824 -0.9684 -0.3791 -1.1856
  568SOL    HW2 1704   2.028   0.832   2.768 -0.8986  2.9970  1.7255
  569SOL     OW 1705   2.331   1.748   2.160 -0.0040 -0.3109 -0.5551
  569SOL    HW1 1706   2.347   1.741   2.061  0.9974 -0.8500  2.2984
  569SOL    HW2 1707   2.324   1.658   2.208  1.8669 -0.9821  0.5265
  570SOL     OW 1708   2.842   0.004   1.781 -0.4529 -0.0600  0.0738
  570SOL    HW1 1709   2.750   0.032   1.811 -2.7245 -0.2054 -0.9133
  570SOL    HW2 1710   2.842   3.004   1.762  1.7680 -0.6626 -0.4803
  571SOL     OW 1711   0.323   0.947   1.273 -0.0417  0.2348  0.0978
  571SOL    HW1 1712   0.337   1.012   1.197  0.0280 -0.9076 -0.0572
  571SOL    HW2 1713   0.222   0.936   1.296 -3.1060 -0.4773  0.0502
  572SOL     OW 1714   0.262   1.707   1.006  0.6712 -0.2011  0.0181
  572SOL    HW1 1715   0.181   1.668   1.058  0.9787 -0.5352 -0.0201
  572SOL    HW2 1716   0.245   1.806   0.977  0.3883  1.9867 -2.7796
  573SOL     OW 1717   0.831   0.429   0.240 -0.0955  0.0310  0.0816
  573SOL    HW1 1718   0.815   0.529   0.235 -0.6457 -1.7780  0.1880
  573SOL    HW2 1719   0.932   0.406   0.250  1.7690 -1.6662  0.7407
  574SOL     OW 1720   0.206   0.005   3.090 -0.2527  0.0154 -0.2135
  574SOL    HW1 1721   0.284   0.070   3.068  2.3926  0.2941  0.9210
  574SOL    HW2 1722   0.132   0.025   3.028  3.5657  2.0539 -0.3237
  575SOL     OW 1723   0.945   2.376   1.066  0.3478  0.1081  0.3912
  575SOL    HW1 1724   1.007   2.306   1.106 -0.3550  0.4048 -0.6828
  575SOL    HW2 1725   0.987   2.422   0.987  0.2498  0.3402  0.2068
  576SOL     OW 1726   2.869   2.813   1.257 -0.0030 -0.1827  0.0287
  576SOL    HW1 1727   2.803   2.877   1.213 -0.7849  1.4508  1.9814
  576SOL    HW2 1728   2.935   2.877   1.304  2.7103 -1.0020 -2.3062
  577SOL     OW 1729   2.809   1.816   1.992 -0.0588  0.1763  0.2426
  577SOL    HW1 1730   2.733   1.886   2.000  0.8324 -0.6463 -0.0409
  577SOL    HW2 1731   2.859   1.828   1.907  0.8171 -0.1691 -0.4000
  578SOL     OW 1732   0.952   2.959   2.524 -0.4096  0.3613 -0.1853
  578SOL    HW1 1733   0.879   2.902   2.483 -1.0486  1.6042  0.8785
  578SOL    HW2 1734   0.981   2.927   2.616  0.3998  2.1012 -0.3919
  579SOL     OW 1735   1.957   1.781   2.070  0.1696  0.0712  0.0684
  579SOL    HW1 1736   1.858   1.782   2.044  0.3193  0.0098 -1.3763
  579SOL    HW2 1737   2.017   1.774   1.988 -1.4744 -2.8351  1.7834
  580SOL     OW 1738   1.890   0.475   2.109  0.2998  0.4896  0.0305
  580SOL    HW1 1739   1.794   0.492   2.076  0.8336  3.5776  0.8316
  580SOL    HW2 1740   1.895   0.490   2.205 -2.3234 -0.4776 -2.1143
  581SOL     OW 1741   0.921   1.384   1.915 -0.2631  0.6348 -0.7112
  581SOL    HW1 1742   0.896   1.398   2.012 -1.2365 -1.9788 -1.0559
  581SOL    HW2 1743   0.973   1.460   1.865  3.3851 -0.4113  0.1821
  582SOL     OW 1744   0.004   2.769   1.691 -0.1595 -0.0990 -0.0351
  582SOL    HW1 1745   0.035   2.738   1.784  1.3723 -3.1204 -0.8844
  582SOL    HW2 1746   0.066   2.832   1.645  0.7642  0.1433  2.9814
  583SOL     OW 1747   1.377   1.404   1.230  0.1564  0.1899 -0.2517
  583SOL    HW1 1748   1.400   1.444   1.322 -1.7558 -1.0431 -0.0043
  583SOL    HW2 1749   1.281   1.359   1.232 -2.6347  3.2251 -1.4441
  584SOL     OW 1750   1.368   2.019   2.672 -0.5885  0.5156 -0.1695
  584SOL    HW1 1751   1.381   1.968   2.584 -1.9047 -0.3633 -2.9840
  584SOL    HW2 1752   1.460   2.038   2.709  1.3684  0.7882  1.0249
  585SOL     OW 1753   0.003   2.282   0.387 -0.1709 -0.6388  0.3610
  585SOL    HW1 1754   3.086   2.200   0.446 -2.2977 -0.3494  0.6036
  585SOL    HW2 1755   3.010   2.304   0.349 -0.2901 -1.2676  0.8367
  586SOL     OW 1756   1.779   2.027   0.265  0.2638  0.0535 -0.4387
  586SOL    HW1 1757   1.773   2.098   0.340  0.7612 -0.8585  0.6471
  586SOL    HW2 1758   1.865   1.971   0.286  1.1966  2.1345  0.0997
  587SOL     OW 1759   2.539   1.965   0.584  0.2270 -0.8032  0.0536
  587SOL    HW1 1760   2.580   1.889   0.639  1.5499  2.3475 -0.2534
  587SOL    HW2 1761   2.537   1.940   0.485  0.0216  1.4188  1.1980
  588SOL     OW 1762   2.319   0.249   0.860 -0.1480 -0.2238  0.0872
  588SOL    HW1 1763   2.360   0.342   0.881  1.2765 -2.8546 -1.3624
  588SOL    HW2 1764   2.228   0.263   0.821 -0.9665  0.2391  2.5955
  589SOL     OW 1765   0.624   0.704   1.015  0.3208 -0.9993 -0.5587
  589SOL    HW1 1766   0.687   0.700   1.093  1.2966 -0.1928 -1.2710
  589SOL    HW2 1767   0.671   0.765   0.946 -0.9229 -0.0691 -2.2980
  590SOL     OW 1768   2.558   2.394   0.178  0.3877 -0.5613  0.2549
  590SOL    HW1 1769   2.479   2.332   0.193 -2.6267 -1.0688 -1.0752
  590SOL    HW2 1770   2.645   2.341   0.190  1.3958  1.4072 -2.7253
  591SOL     OW 1771   0.414   2.379   1.884 -0.2207  0.0433  0.4002
  591SOL    HW1 1772   0.430   2.282   1.902 -0.6599  0.0156  0.1033
  591SOL    HW2 1773   0.376   2.396   1.793 -1.7723 -0.5261 -0.0740
  592SOL     OW 1774   0.710   1.483   1.545 -0.3088 -0.2866 -0.4040
  592SOL    HW1 1775   0.709   1.569   1.489  1.3134 -0.4371  0.4304
  592SOL    HW2 1776   0.803   1.446   1.556 -1.7038  1.0061  0.1367
  593SOL     OW 1777   1.121   1.818   1.340 -0.3060 -0.3391  1.0046
  593SOL    HW1 1778   1.036   1.767   1.332 -0.4825  0.0729  0.0052
  593SOL    HW2 1779   1.135   1.871   1.251 -2.3189 -1.5560 -1.8838
  594SOL     OW 1780   0.479   1.544   2.877  0.3789 -0.4628 -0.2868
  594SOL    HW1 1781   0.413   1.590   2.942 -0.8408  2.6058  2.1468
  594SOL    HW2 1782   0.421   1.489   2.810 -2.4810  0.8017 -0.7639
  595SOL     OW 1783   1.331   0.673   0.871 -0.1230 -0.0240  0.3048
  595SOL    HW1 1784   1.290   0.613   0.800  1.1246  2.0880  2.7413
  595SOL    HW2 1785   1.278   0.672   0.956 -0.1451 -0.9194 -1.6332
  596SOL     OW 1786   0.363   1.432   0.862  0.1988  0.7524 -0.2739
  596SOL    HW1 1787   0.436   1.365   0.842 -1.8763  0.2588  4.0964
  596SOL    HW2 1788   0.324   1.413   0.957  1.5865 -0.9459  1.6874
  597SOL     OW 1789   3.095   1.997   2.978  0.3522  0.4143  0.5945
  597SOL    HW1 1790   3.018   1.973   3.045 -1.3227  0.9104 -0.7869
  597SOL    HW2 1791   0.037   2.085   2.998 -1.1352 -1.9723 -2.2277
  598SOL     OW 1792   1.986   2.154   2.248  0.0784 -0.0814  0.4303
  598SOL    HW1 1793   2.011   2.150   2.149 -1.0438  1.3053 -0.6612
  598SOL    HW2 1794   2.004   2.065   2.297  0.0701 -1.8796 -0.2887
  599SOL     OW 1795   1.442   0.382   0.607 -0.1193  0.2413  0.1705
  599SOL    HW1 1796   1.521   0.445   0.610 -0.3095 -0.4150 -2.1324
  599SOL    HW2 1797   1.348   0.426   0.611  1.2996 -1.6850 -0.3768
  600SOL     OW 1798   0.867   2.679   0.383  0.1083 -0.4424  0.2034
  600SOL    HW1 1799   0.827   2.640   0.467  2.3976 -1.2033 -1.6668
  600SOL    HW2 1800   0.963   2.649   0.374 -1.9504  1.6748  0.3694
  601SOL     OW 1801   0.665   0.321   1.288 -0.7175  0.5967 -0.0217
  601SOL    HW1 1802   0.672   0.279   1.379  0.8710  1.1293 -4.2351
  601SOL    HW2 1803   0.741   0.294   1.230 -1.3309  2.0348 -0.8429
  602SOL     OW 1804   3.091   2.852   0.557 -0.4954  0.0249  1.0235
  602SOL    HW1 1805   3.064   2.774   0.616 -0.4564 -3.1440 -1.4644
  602SOL    HW2 1806   3.040   2.937   0.586 -1.3491  0.5676  2.8159
  603SOL     OW 1807   0.871   2.593   2.581  0.5748 -0.4036 -0.1781
  603SOL    HW1 1808   0.919   2.577   2.490  0.2718 -0.1983 -2.6200
  603SOL    HW2 1809   0.773   2.571   2.568  0.1068  0.4094  0.9734
  604SOL     OW 1810   0.950   2.659   3.034 -0.1455  0.3937  0.1223
  604SOL    HW1 1811   0.873   2.595   3.017  2.2142  1.3675 -3.6151
  604SOL    HW2 1812   0.915   2.750   3.059  0.0618  0.0148  0.3909
  605SOL     OW 1813   0.769   0.612   1.847 -0.4424  0.4685  0.0327
  605SOL    HW1 1814   0.844   0.626   1.783 -1.9867 -3.9747  0.8527
  605SOL    HW2 1815   0.731   0.699   1.888 -0.1377 -1.7898 -0.2223
  606SOL     OW 1816   1.535   0.327   2.639 -0.3011 -0.2342 -0.4008
  606SOL    HW1 1817   1.623   0.328   2.680 -2.8680  0.4610 -0.2949
  606SOL    HW2 1818   1.538   0.326   2.535  0.6072 -0.1373 -0.0066
  607SOL     OW 1819   0.245   1.360   1.140  0.2301 -0.3750  0.0925
  607SOL    HW1 1820   0.280   1.375   1.234  1.4896 -1.2215 -1.6881
  607SOL    HW2 1821   0.168   1.422   1.114  0.8575  0.0643  1.3380
  608SOL     OW 1822   2.906   2.532   2.168 -0.0688  0.5275 -0.1157
  608SOL    HW1 1823   2.867   2.491   2.253 -3.3423  0.6558  0.0449
  608SOL    HW2 1824   2.947   2.623   2.183  0.5718  0.9710 -0.1990
  609SOL     OW 1825   1.671   0.511   0.199  0.1479  0.1772  0.1781
  609SOL    HW1 1826   1.745   0.537   0.136 -1.6354  0.6512 -1.5874
  609SOL    HW2 1827   1.591   0.488   0.145  3.6498 -0.3158  1.9162
  610SOL     OW 1828   0.818   2.682   1.095 -0.6613 -0.4288  0.2115
  610SOL    HW1 1829   0.863   2.765   1.123 -3.1820 -1.2359  1.3425
  610SOL    HW2 1830   0.831   2.604   1.160 -1.1774 -0.0504  0.6228
  611SOL     OW 1831   0.845   0.732   0.295 -0.2455 -0.2183  0.5663
  611SOL    HW1 1832   0.817   0.789   0.375  0.2598  0.6284  1.9185
  611SOL    HW2 1833   0.910   0.788   0.238  1.0578  3.3122 -0.2609
  612SOL     OW 1834   1.284   0.698   2.456 -0.2801  0.0725 -0.5128
  612SOL    HW1 1835   1.341   0.778   2.426  0.7800  2.1015  0.6177
  612SOL    HW2 1836   1.333   0.652   2.534 -1.0523  0.6737  0.4065
  613SOL     OW 1837   1.975   0.732   0.318  0.4473  0.0806  0.3959
  613SOL    HW1 1838   2.033   0.797   0.369 -2.1754 -0.0531 -1.1558
  613SOL    HW2 1839   1.917   0.675   0.376 -2.0862  0.5411  2.2130
  614SOL     OW 1840   2.123   0.593   1.727 -0.2178  0.1850 -0.1853
  614SOL    HW1 1841   2.143   0.558   1.822 -0.6939 -2.3216  3.2882
  614SOL    HW2 1842   2.102   0.692   1.747 -2.9631  2.6929  2.1937
  615SOL     OW 1843   0.651   2.075   0.895  0.2419  0.2658 -0.1491
  615SOL    HW1 1844   0.640   2.012   0.814 -1.3538  3.1642 -0.5518
  615SOL    HW2 1845   0.659   2.171   0.863  1.2454  0.1953  0.3209
  616SOL     OW 1846   1.632   1.084   2.270  0.5111 -0.8112  0.2814
  616SOL    HW1 1847   1.596   1.166   2.224  0.5718 -0.8400 -3.5061
  616SOL    HW2 1848   1.711   1.054   2.212  1.6796  0.3324 -0.2960
  617SOL     OW 1849   1.832   2.707   0.156  0.1488  0.1698  0.2919
  617SOL    HW1 1850   1.731   2.703   0.133 -0.3390 -0.3079  0.2927
  617SOL    HW2 1851   1.866   2.616   0.189  0.0388  0.0511 -1.7501
  618SOL     OW 1852   0.971   0.946   2.952  0.0030  0.6098  0.1325
  618SOL    HW1 1853   0.877   0.961   2.985 -1.4324 -0.1179 -2.2285
  618SOL    HW2 1854   1.033   0.903   3.024 -0.3703  0.2700  2.8844
  619SOL     OW 1855   2.524   1.316   0.789 -0.1764  0.2067  0.0690
  619SOL    HW1 1856   2.562   1.221   0.806 -2.2845  1.3374 -0.0132
  619SOL    HW2 1857   2.456   1.314   0.714  0.2364 -0.2139 -1.1054
  620SOL     OW 1858   2.363   2.760   0.036 -0.6917  0.1260  0.3244
  620SOL    HW1 1859   2.434   2.730   3.070 -1.1686 -1.1335  0.6200
  620SOL    HW2 1860   2.401   2.744   0.129  1.8962 -0.7759  1.6693
  621SOL     OW 1861   2.149   1.005   0.206  0.3113 -0.3208  0.3848
  621SOL    HW1 1862   2.047   1.019   0.194  1.6060  1.1837  1.4392
  621SOL    HW2 1863   2.163   0.966   0.294  0.3318  1.7560 -1.5897
  622SOL     OW 1864   1.038   2.425   2.787 -0.1723 -0.3827  0.2883
  622SOL    HW1 1865   0.991   2.458   2.705  1.0158  0.3670  0.4490
  622SOL    HW2 1866   1.030   2.498   2.855 -0.8330 -1.1425 -0.4439
  623SOL     OW 1867   0.283   1.664   3.060 -0.2300 -0.1100  0.2667
  623SOL    HW1 1868   0.186   1.684   3.040  0.8230 -0.7653 -0.4496
  623SOL    HW2 1869   0.329   1.729   0.026  1.5886  0.8839 -0.1340
  624SOL     OW 1870   0.471   0.054   2.730  0.2261 -0.0405  0.3561
  624SOL    HW1 1871   0.537   0.014   2.799  1.6963 -0.5117 -0.1680
  624SOL    HW2 1872   0.378   0.023   2.754 -1.2913  0.6227  0.2131
  625SOL     OW 1873   0.854   1.894   0.035  0.1890  0.2191 -0.2560
  625SOL    HW1 1874   0.875   1.963   0.114 -0.4167  3.2694  1.8328
  625SOL    HW2 1875   0.757   1.874   0.013  1.2689 -3.6014 -0.9407
  626SOL     OW 1876   2.871   0.515   0.253  0.1564 -0.0474  0.6200
  626SOL    HW1 1877   2.897   0.557   0.163 -0.2836 -2.3348  0.3869
  626SOL    HW2 1878   2.811   0.435   0.233 -0.8726  0.0680 -0.1188
  627SOL     OW 1879   1.340   1.250   2.938  0.2822 -0.5668 -0.1588
  627SOL    HW1 1880   1.363   1.348   2.971  0.9285  1.5170  0.2854
  627SOL    HW2 1881   1.345   1.239   2.837 -0.5045  1.7357  1.3831
  628SOL     OW 1882   1.381   0.863   2.821 -0.3637  0.0638  0.2059
  628SOL    HW1 1883   1.396   0.785   2.757  1.4622  2.2898 -0.1736
  628SOL    HW2 1884   1.334   0.936   2.770  0.3578 -0.1252 -1.3074
  629SOL     OW 1885   0.259   0.012   1.833 -0.2565  0.0722 -0.0577
  629SOL    HW1 1886   0.211   3.085   1.917 -0.8767  1.3320  0.9553
  629SOL    HW2 1887   0.345   0.058   1.850 -2.3551 -2.4670 -1.3989
  630SOL     OW 1888   2.611   0.961   1.923 -0.2868  0.0385 -0.0934
  630SOL    HW1 1889   2.619   1.039   1.988  0.0010  2.1887  1.7256
  630SOL    HW2 1890   2.697   0.921   1.893  1.3768 -0.1139  1.2109
  631SOL     OW 1891   1.919   0.838   0.985  0.4269 -0.3902  0.0904
  631SOL    HW1 1892   1.893   0.924   1.035  0.9065  2.2554  0.5782
  631SOL    HW2 1893   1.994   0.792   1.031  2.1446 -1.8346 -1.3226
  632SOL     OW 1894   2.766   0.679   1.682  0.5151  0.0554  0.1925
  632SOL    HW1 1895   2.780   0.761   1.738 -1.8931 -2.5570  0.0483
  632SOL    HW2 1896   2.803   0.682   1.588  0.4276  1.0107 -1.3974
  633SOL     OW 1897   0.898   2.935   0.005  0.2909  0.2709  0.2491
  633SOL    HW1 1898   0.997   2.962   3.091  3.2521  1.2554 -2.2261
  633SOL    HW2 1899   0.883   2.929   0.104  0.5668  3.0792 -0.9709
  634SOL     OW 1900   1.358   2.773   2.980 -0.5145  0.0348  0.2977
  634SOL    HW1 1901   1.331   2.869   3.000  1.1004  1.9905  0.7524
  634SOL    HW2 1902   1.392   2.772   2.883 -2.5483  0.6060 -4.4056
  635SOL     OW 1903   0.129   0.381   0.370 -0.0800  0.0456 -0.9898
  635SOL    HW1 1904   0.094   0.411   0.462  0.3739  0.2675  0.3935
  635SOL    HW2 1905   0.059   0.357   0.307  2.5888 -1.4218 -0.1191
  636SOL     OW 1906   0.509   1.061   0.439  0.1275 -0.1491  0.0824
  636SOL    HW1 1907   0.539   1.145   0.393 -2.0091 -2.7044  0.1721
  636SOL    HW2 1908   0.434   1.019   0.391  0.1139  0.0943 -0.9924
  637SOL     OW 1909   0.275   2.634   0.358  0.0424  0.1796  0.1221
  637SOL    HW1 1910   0.285   2.567   0.287  1.8719  0.6295  2.7170
  637SOL    HW2 1911   0.188   2.691   0.350 -3.6401  0.3547 -0.0037
  638SOL     OW 1912   2.921   2.590   0.365  0.0966 -0.1361  0.5506
  638SOL    HW1 1913   2.933   2.617   0.268 -0.3038  1.3171 -1.8202
  638SOL    HW2 1914   3.013   2.596   0.411  0.8281 -1.9071  0.3652
  639SOL     OW 1915   1.437   1.253   0.231  0.0135 -0.4076 -0.0954
  639SOL    HW1 1916   1.427   1.167   0.177  3.1152  1.6878  0.0908
  639SOL    HW2 1917   1.402   1.338   0.176 -1.2096  3.9260 -1.6445
  640SOL     OW 1918   1.565   2.504   1.189 -0.0639 -0.4645  0.1627
  640SOL    HW1 1919   1.645   2.571   1.193  1.8851 -1.2979 -0.9804
  640SOL    HW2 1920   1.587   2.423   1.133  0.9559 -0.5954  2.2303
  641SOL     OW 1921   2.874   2.489   0.967  0.7097 -0.4429 -0.0928
  641SOL    HW1 1922   2.871   2.397   1.005  1.0618  0.6171  3.4118
  641SOL    HW2 1923   2.796   2.540   1.007  1.8874 -2.1628 -1.2350
  642SOL     OW 1924   0.715   3.005   1.751 -0.4971 -0.6323  0.2261
  642SOL    HW1 1925   0.788   3.024   1.679 -0.1533 -1.1745  0.4925
  642SOL    HW2 1926   0.656   3.084   1.766 -0.4780 -0.6607  1.9176
  643SOL     OW 1927   0.871   2.206   2.859 -0.4570  0.2468  0.7052
  643SOL    HW1 1928   0.958   2.261   2.855  1.3811 -0.6249  0.5797
  643SOL    HW2 1929   0.890   2.105   2.861 -1.8411 -0.4897 -0.5308
  644SOL     OW 1930   1.054   2.572   0.663 -0.1908  0.2223  0.2215
  644SOL    HW1 1931   1.146   2.534   0.641  1.4183  0.5689  0.3312
  644SOL    HW2 1932   0.989   2.508   0.618  3.5484 -0.2268 -0.6708
  645SOL     OW 1933   1.319   1.414   1.786 -0.0766 -0.2844  0.5680
  645SOL    HW1 1934   1.262   1.471   1.722  2.7197 -4.4694  0.8307
  645SOL    HW2 1935   1.269   1.358   1.853 -2.0031 -0.9992  0.4112
  646SOL     OW 1936   0.248   0.939   0.422  0.1683  0.0809  0.0692
  646SOL    HW1 1937   0.243   0.905   0.521  1.2728 -1.9605  0.1141
  646SOL    HW2 1938   0.284   0.867   0.358 -0.8655  0.2882  0.1671
  647SOL     OW 1939   1.205   0.484   0.696  0.2893 -0.4401  0.2333
  647SOL    HW1 1940   1.134   0.536   0.644  0.1546  2.9740 -1.5569
  647SOL    HW2 1941   1.176   0.393   0.729 -1.1691  2.0414 -1.4140
  648SOL     OW 1942   2.434   2.710   1.454  0.0375 -0.2677  0.1188
  648SOL    HW1 1943   2.342   2.749   1.486  0.6059  0.3027  2.2402
  648SOL    HW2 1944   2.420   2.613   1.436  1.6232  0.4978  1.9798
  649SOL     OW 1945   0.577   1.926   3.090  0.1464 -0.2815  0.0446
  649SOL    HW1 1946   0.569   2.018   3.051 -0.9998 -1.5996  1.6671
  649SOL    HW2 1947   0.490   1.907   0.035  0.6929  1.2321  0.0779
  650SOL     OW 1948   2.392   1.908   1.667 -0.5188  0.3995 -0.3442
  650SOL    HW1 1949   2.337   1.965   1.614  2.8209  0.2513  2.0086
  650SOL    HW2 1950   2.491   1.914   1.635 -0.4493 -1.1936 -0.3573
  651SOL     OW 1951   0.207   3.095   2.771  0.2966  0.3614  0.3395
  651SOL    HW1 1952   0.193   3.019   2.702  0.3070 -2.8305  1.2595
  651SOL    HW2 1953   0.122   0.026   2.819  1.8875 -1.2671  0.7279
  652SOL     OW 1954   2.545   1.646   0.051  0.4751  0.0349 -0.1536
  652SOL    HW1 1955   2.608   1.683   3.081  1.8780  1.0522 -0.8926
  652SOL    HW2 1956   2.591   1.578   0.106  1.7735  1.7243 -2.9215
  653SOL     OW 1957   0.192   3.057   0.767 -0.3873 -0.4478  0.1166
  653SOL    HW1 1958   0.257   0.024   0.813 -1.0312  0.3661  1.0542
  653SOL    HW2 1959   0.127   0.008   0.712  3.2831 -4.1466  0.3705
  654SOL     OW 1960   1.001   0.065   0.295  0.1450  0.1180  0.1230
  654SOL    HW1 1961   0.944   3.082   0.287 -0.9412  3.8026 -2.2886
  654SOL    HW2 1962   1.106   0.049   0.281  3.1846  0.4910 -0.7735
  655SOL     OW 1963   0.643   2.850   1.338  0.1390  0.1823 -0.1726
  655SOL    HW1 1964   0.739   2.813   1.356  1.4079 -2.5947  1.4258
  655SOL    HW2 1965   0.582   2.782   1.289  0.1483 -0.0266 -0.4324
  656SOL     OW 1966   0.454   0.206   2.039  0.8206  0.4721  0.0379
  656SOL    HW1 1967   0.509   0.121   2.063  1.3454 -4.8341 -0.9152
  656SOL    HW2 1968   0.358   0.197   2.075 -0.4771 -1.4034  0.1350
  657SOL     OW 1969   1.948   0.472   2.379  0.3762  0.0158  0.4759
  657SOL    HW1 1970   1.952   0.375   2.405 -0.1919  0.4733 -1.1027
  657SOL    HW2 1971   2.040   0.514   2.370 -2.7696 -3.6805  0.2494
  658SOL     OW 1972   1.977   1.499   1.104 -0.4858 -0.2105  0.1162
  658SOL    HW1 1973   1.920   1.506   1.191  0.1121  2.1862 -2.7768
  658SOL    HW2 1974   2.078   1.511   1.118  0.3699 -2.0108  0.8150
  659SOL     OW 1975   2.560   2.645   2.980  0.0530  0.9231 -0.4192
  659SOL    HW1 1976   2.528   2.693   2.898  1.0261  1.1679  0.8023
  659SOL    HW2 1977   2.526   2.549   2.985  1.1389 -0.4941  1.3016
  660SOL     OW 1978   1.032   0.520   3.040  0.1233  0.5853  0.0371
  660SOL    HW1 1979   0.978   0.435   3.025 -3.4451 -0.8709 -0.4598
  660SOL    HW2 1980   0.978   0.597   3.022  2.2708 -1.2654 -1.7903
  661SOL     OW 1981   2.438   2.978   0.842  0.3227  0.1135  0.2002
  661SOL    HW1 1982   2.459   2.917   0.761  0.1018  2.6985  1.3217
  661SOL    HW2 1983   2.518   3.030   0.867 -1.0845 -1.4236  0.4328
  662SOL     OW 1984   0.580   0.419   0.914  0.0628 -0.0158 -0.4741
  662SOL    HW1 1985   0.513   0.412   0.839  3.2139 -1.7781 -2.8354
  662SOL    HW2 1986   0.584   0.510   0.964 -2.9691 -0.9653  0.3305
  663SOL     OW 1987   1.400   2.456   2.375  0.2739  0.3881  0.1376
  663SOL    HW1 1988   1.486   2.498   2.404  1.0903 -0.4969  1.0067
  663SOL    HW2 1989   1.325   2.528   2.352 -1.5807  1.0190 -1.2014
  664SOL     OW 1990   0.596   2.453   1.371 -0.4405  0.1003  0.2621
  664SOL    HW1 1991   0.701   2.474   1.366  3.8244  0.5953 -0.0659
  664SOL    HW2 1992   0.576   2.351   1.371 -0.3863  0.0862 -0.8495
  665SOL     OW 1993   1.222   2.216   1.540  0.0758  0.0131  0.4586
  665SOL    HW1 1994   1.263   2.240   1.632  0.7623 -2.6429  1.9953
  665SOL    HW2 1995   1.291   2.178   1.475  0.1153  2.8445 -0.9498
  666SOL     OW 1996   0.505   2.828   2.839  0.0130  0.4796  0.1624
  666SOL    HW1 1997   0.493   2.868   2.745 -1.7509 -0.7763  1.0507
  666SOL    HW2 1998   0.505   2.728   2.835  0.3117  0.4698  2.9293
  667SOL     OW 1999   1.465   1.668   1.171  0.4983 -0.4167  0.0966
  667SOL    HW1 2000   1.427   1.574   1.180 -3.0058  0.9301 -2.4704
  667SOL    HW2 2001   1.425   1.729   1.242 -0.3685  2.1929  0.9016
  668SOL     OW 2002   1.056   0.313   2.303 -0.2461  0.1918 -0.9587
  668SOL    HW1 2003   1.103   0.364   2.379  0.1240 -0.8265 -2.1573
  668SOL    HW2 2004   1.050   0.209   2.317 -0.9418  0.2022  0.5947
  669SOL     OW 2005   2.339   2.287   2.031  0.3020  0.1677  0.4927
  669SOL    HW1 2006   2.360   2.315   1.936 -0.4883 -2.9517 -1.0583
  669SOL    HW2 2007   2.257   2.225   2.038 -0.1217  1.2697 -0.6402
  670SOL     OW 2008   2.019   1.932   0.336  0.1861 -0.0131  0.3502
  670SOL    HW1 2009   2.031   1.916   0.434  3.8623 -1.0259 -0.9424
  670SOL    HW2 2010   2.076   2.013   0.302  1.8325  0.1155 -1.7617
  671SOL     OW 2011   1.417   1.024   1.107 -0.2033 -0.2588  0.3762
  671SOL    HW1 2012   1.384   0.983   1.017  0.3433  1.1659 -2.8178
  671SOL    HW2 2013   1.459   1.115   1.091  1.0228  0.1489 -1.9533
  672SOL     OW 2014   2.460   1.432   2.114 -0.0965  0.0469 -0.6578
  672SOL    HW1 2015   2.541   1.499   2.119 -0.9307  1.6603 -2.6651
  672SOL    HW2 2016   2.482   1.336   2.103  0.5554  1.7425 -2.7600
  673SOL     OW 2017   2.718   1.641   2.164 -0.1288  0.4901  0.0806
  673SOL    HW1 2018   2.760   1.710   2.101 -0.9338 -0.2481 -0.1642
  673SOL    HW2 2019   2.694   1.670   2.257  2.4541  0.7414  0.8801
  674SOL     OW 2020   0.965   2.592   2.320  0.1309 -0.2678 -0.6482
  674SOL    HW1 2021   1.060   2.627   2.343  0.9842 -0.0484 -0.0160
  674SOL    HW2 2022   0.960   2.517   2.255 -1.1550  1.3130  2.6439
  675SOL     OW 2023   0.665   1.048   1.441  0.1611  0.2994 -0.2694
  675SOL    HW1 2024   0.639   1.045   1.343  0.8543 -1.0680 -0.5578
  675SOL    HW2 2025   0.766   1.057   1.437 -1.4373 -0.2302  1.1340
  676SOL     OW 2026   2.085   0.320   0.758 -0.2378  0.8006  0.0560
  676SOL    HW1 2027   2.039   0.348   0.674 -0.0494 -0.2155  1.3167
  676SOL    HW2 2028   2.041   0.365   0.837 -1.6262 -1.1788  1.7224
  677SOL     OW 2029   2.473   1.505   2.702  0.6855  0.4828 -0.5638
  677SOL    HW1 2030   2.511   1.424   2.659 -0.6632  1.8387  0.3246
  677SOL    HW2 2031   2.468   1.489   2.807  0.8947 -0.4621  0.7044
  678SOL     OW 2032   3.088   2.994   0.957 -0.2782 -0.8566 -0.5559
  678SOL    HW1 2033   0.007   2.957   1.050 -0.7198  3.7221  1.2721
  678SOL    HW2 2034   0.069   2.987   0.901 -2.7181 -3.5561  3.0524
  679SOL     OW 2035   2.420   2.948   0.361  0.2420  0.0661 -0.0147
  679SOL    HW1 2036   2.473   2.951   0.272  1.4183  0.5885  0.7637
  679SOL    HW2 2037   2.457   3.004   0.434  1.5717 -1.9063  0.4851
  680SOL     OW 2038   0.042   2.439   2.001  0.5991  0.5140  0.1063
  680SOL    HW1 2039   0.071   2.354   1.956 -2.2228  1.9425  1.1878
  680SOL    HW2 2040   3.064   2.417   2.061 -0.6485  1.6716  1.5184
  681SOL     OW 2041   2.549   1.611   1.457 -0.7797  0.4577  0.1111
  681SOL    HW1 2042   2.593   1.692   1.411 -0.3102 -2.8336 -1.0048
  681SOL    HW2 2043   2.449   1.600   1.437  3.1520 -1.1082 -3.1014
  682SOL     OW 2044   2.869   2.247   2.058  0.1495 -0.5772 -0.0509
  682SOL    HW1 2045   2.781   2.202   2.065  1.6472 -3.2220 -0.5036
  682SOL    HW2 2046   2.886   2.306   2.137  1.4317 -0.4322  1.0088
  683SOL     OW 2047   3.046   2.332   1.231  0.3119 -0.6745 -0.5930
  683SOL    HW1 2048   3.007   2.284   1.152  0.4381  1.8106  2.6461
  683SOL    HW2 2049   2.990   2.411   1.269  1.1534 -1.4702  1.6365
  684SOL     OW 2050   2.071   1.199   2.380 -0.5258  0.0038  0.3987
  684SOL    HW1 2051   2.052   1.276   2.444  0.3093  0.1174 -0.7437
  684SOL    HW2 2052   2.175   1.180   2.384  1.9573  2.0740  1.4891
  685SOL     OW 2053   1.477   0.988   0.473  0.1231  0.3012 -0.1636
  685SOL    HW1 2054   1.414   1.064   0.490 -1.4143 -1.4870 -0.3761
  685SOL    HW2 2055   1.531   0.977   0.558  0.0011  0.6917 -0.2007
  686SOL     OW 2056   0.570   3.088   0.812 -0.3052 -0.0375  0.3198
  686SOL    HW1 2057   0.566   3.066   0.911 -0.3693  0.5158 -1.3184
  686SOL    HW2 2058   0.666   3.100   0.784 -0.1158 -1.2307 -1.5293
  687SOL     OW 2059   1.492   1.329   2.207  0.2574 -0.7379  0.0015
  687SOL    HW1 2060   1.553   1.397   2.252 -0.5067 -0.6977 -0.3969
  687SOL    HW2 2061   1.391   1.353   2.212  0.2509 -1.1223 -0.5264
  688SOL     OW 2062   1.379   1.840   1.387  0.6996  0.2719  0.2039
  688SOL    HW1 2063   1.279   1.816   1.377  1.0929  2.9172 -0.2381
  688SOL    HW2 2064   1.414   1.832   1.483  0.6731  0.3205  0.2971
  689SOL     OW 2065   2.142   0.248   1.341  0.0641  0.2578 -0.0451
  689SOL    HW1 2066   2.187   0.205   1.259 -0.8925  1.1693 -0.5316
  689SOL    HW2 2067   2.213   0.284   1.409  1.1406 -0.8905  0.6536
  690SOL     OW 2068   0.047   1.547   1.085  0.1246 -0.0086 -0.0139
  690SOL    HW1 2069   3.079   1.530   1.159  1.4866  2.0380 -0.3271
  690SOL    HW2 2070   3.095   1.561   0.996 -1.3327 -1.3162 -0.5359
  691SOL     OW 2071   0.469   2.691   0.956 -0.3032  0.0464 -0.4590
  691SOL    HW1 2072   0.554   2.707   0.905  0.7693  1.9422  2.5991
  691SOL    HW2 2073   0.409   2.624   0.915  1.0705 -0.3663 -0.6653
  692SOL     OW 2074   2.407   0.446   1.694 -0.1467 -0.3348 -0.2086
  692SOL    HW1 2075   2.443   0.538   1.689 -1.7136 -3.0256  0.1590
  692SOL    HW2 2076   2.310   0.453   1.730  0.6774 -0.3752 -1.7803
  693SOL     OW 2077   0.260   2.064   1.927  0.1317  0.4013 -0.1273
  693SOL    HW1 2078   0.359   2.064   1.910 -2.7411 -2.9156  1.2696
  693SOL    HW2 2079   0.243   2.072   2.028 -2.4322  0.7521 -0.1983
  694SOL     OW 2080   1.551   1.357   1.645 -0.1332  0.0177  0.4490
  694SOL    HW1 2081   1.632   1.368   1.701 -1.6767 -1.3107 -0.6764
  694SOL    HW2 2082   1.475   1.387   1.703  1.2668 -2.0717 -2.5519
  695SOL     OW 2083   0.634   1.059   1.172 -0.2106 -0.2494  0.7041
  695SOL    HW1 2084   0.546   1.038   1.129  3.2247  1.9754 -0.5341
  695SOL    HW2 2085   0.722   1.022   1.130  3.9918 -1.3767  1.1210
  696SOL     OW 2086   1.418   3.046   0.751  0.3124  0.3333  0.1140
  696SOL    HW1 2087   1.383   3.071   0.660 -0.9278 -0.1846  2.9908
  696SOL    HW2 2088   1.455   0.026   0.801  2.4343  1.3030  0.3066
  697SOL     OW 2089   1.400   0.328   1.772 -0.5632 -0.9161 -0.6551
  697SOL    HW1 2090   1.415   0.326   1.875 -0.4866 -1.0097  2.4033
  697SOL    HW2 2091   1.372   0.237   1.745 -2.0259  2.3321 -0.9454
  698SOL     OW 2092   2.039   1.351   2.090 -0.0569  0.1551  0.3649
  698SOL    HW1 2093   2.066   1.282   2.158 -0.1864 -0.4715 -0.8895
  698SOL    HW2 2094   1.999   1.431   2.135 -1.6793 -1.2586 -2.9868
  699SOL     OW 2095   2.344   0.405   1.428 -0.0131 -0.1097  0.6346
  699SOL    HW1 2096   2.315   0.498   1.396  0.9656  3.3021  0.0129
  699SOL    HW2 2097   2.396   0.415   1.513  0.3361  1.7561  0.2111
  700SOL     OW 2098   0.949   2.089   0.197  0.4943 -0.0047 -0.0814
  700SOL    HW1 2099   0.909   2.085   0.289 -1.1321 -2.5943 -3.3616
  700SOL    HW2 2100   1.050   2.099   0.205  1.1206  1.5975 -2.4755
  701SOL     OW 2101   2.267   2.663   2.743 -0.3871  0.0071  0.5218
  701SOL    HW1 2102   2.205   2.678   2.665 -0.0819 -1.5308  0.5352
  701SOL    HW2 2103   2.208   2.643   2.821 -0.0326  0.7904 -2.2394
  702SOL     OW 2104   0.957   0.023   1.211 -0.0126 -0.2868  0.3242
  702SOL    HW1 2105   0.938   3.068   1.124  1.1518 -0.0172 -1.3134
  702SOL    HW2 2106   1.056   0.021   1.231 -1.6017  0.8968  0.1986
  703SOL     OW 2107   2.224   0.209   2.260 -0.3690  0.0717 -0.4041
  703SOL    HW1 2108   2.249   0.212   2.361  0.2173 -0.5842  3.5622
  703SOL    HW2 2109   2.271   0.285   2.215  2.2970  2.1617 -0.3378
  704SOL     OW 2110   2.819   2.344   0.298  0.2449 -0.1088 -0.1372
  704SOL    HW1 2111   2.835   2.429   0.355 -1.4716  2.9191  1.3736
  704SOL    HW2 2112   2.769   2.274   0.355  1.3492 -1.3766 -0.0346
  705SOL     OW 2113   2.521   0.323   2.106  0.4219  0.1628  0.4339
  705SOL    HW1 2114   2.437   0.327   2.049  2.0109  1.7679 -2.8022
  705SOL    HW2 2115   2.547   0.227   2.121 -1.3020  0.9324 -0.9160
  706SOL     OW 2116   2.110   2.979   1.122 -0.0066 -0.0889 -0.1206
  706SOL    HW1 2117   2.166   2.897   1.098  0.1401 -0.2514 -1.7212
  706SOL    HW2 2118   2.158   3.067   1.113  1.3082  0.6948 -2.3234
  707SOL     OW 2119   0.697   2.908   2.368  0.2187  0.5799 -0.4435
  707SOL    HW1 2120   0.683   2.842   2.289 -0.5112 -1.6560  1.5641
  707SOL    HW2 2121   0.695   3.007   2.345  2.0191  0.5988  2.0955
  708SOL     OW 2122   2.774   2.389   1.709 -0.0688  0.5182  0.1330
  708SOL    HW1 2123   2.721   2.470   1.745 -2.2446 -2.3765  0.5747
  708SOL    HW2 2124   2.871   2.403   1.738  1.1304 -2.8833  1.7225
  709SOL     OW 2125   1.935   0.442   1.615 -0.3453 -0.4376 -0.6982
  709SOL    HW1 2126   1.966   0.417   1.518  2.8652 -2.8409 -1.0744
  709SOL    HW2 2127   2.011   0.492   1.661  0.6919  0.1293 -0.7866
  710SOL     OW 2128   1.077   0.251   2.683 -0.0198  0.1205  0.3944
  710SOL    HW1 2129   1.001   0.217   2.625 -1.7315  1.5726 -0.3607
  710SOL    HW2 2130   1.167   0.212   2.656 -0.2490  0.7389  1.5343
  711SOL     OW 2131   0.813   1.855   2.700  0.3850  0.6807 -0.3539
  711SOL    HW1 2132   0.887   1.879   2.767  2.2180 -0.6140 -1.0728
  711SOL    HW2 2133   0.724   1.834   2.746  1.8117  1.3557  0.0911
  712SOL     OW 2134   0.970   1.936   2.893 -0.5366 -0.2577  0.2459
  712SOL    HW1 2135   0.942   1.908   2.987  0.2432  0.8775  0.9151
  712SOL    HW2 2136   1.069   1.964   2.893 -1.1398 -0.0736 -1.0647
  713SOL     OW 2137   1.954   0.969   2.485 -0.1377  0.2323 -1.0279
  713SOL    HW1 2138   1.964   1.062   2.457 -2.7541 -3.4605  0.7984
  713SOL    HW2 2139   1.917   0.961   2.578 -2.2410  1.2769 -2.4189
  714SOL     OW 2140   1.244   1.787   1.908  0.2166 -0.1433  0.0262
  714SOL    HW1 2141   1.217   1.859   1.978  0.6037 -0.4774  0.2119
  714SOL    HW2 2142   1.167   1.731   1.872 -1.6654  0.1986  3.2359
  715SOL     OW 2143   2.040   0.187   2.954  0.6588  0.5065 -0.2755
  715SOL    HW1 2144   2.076   0.259   3.020  1.8221  1.7629  0.1183
  715SOL    HW2 2145   2.025   0.233   2.863 -2.2759  2.7850 -0.2632
  716SOL     OW 2146   2.664   2.394   1.436  0.5795  0.2344 -0.1996
  716SOL    HW1 2147   2.686   2.385   1.535  0.1109 -3.0450  1.2766
  716SOL    HW2 2148   2.731   2.462   1.393  1.5310  1.6396 -1.6006
  717SOL     OW 2149   2.615   1.064   0.842  0.4963  0.0920  0.6070
  717SOL    HW1 2150   2.533   1.010   0.868  1.0805  0.8690  0.5727
  717SOL    HW2 2151   2.660   1.040   0.754 -1.8334 -0.8838  0.4381
  718SOL     OW 2152   1.429   1.831   1.672 -0.3377  0.3636 -0.0760
  718SOL    HW1 2153   1.467   1.741   1.697  0.4677  0.7862  0.4138
  718SOL    HW2 2154   1.358   1.850   1.739  1.6050  0.5556 -3.6534
  719SOL     OW 2155   2.591   0.386   3.002 -0.2756 -0.3539  0.5287
  719SOL    HW1 2156   2.551   0.479   3.005  0.9939 -0.2948  2.7077
  719SOL    HW2 2157   2.681   0.384   2.958 -4.4020  0.2120  2.4380
  720SOL     OW 2158   0.805   0.282   0.836 -0.3946  0.7952 -0.3828
  720SOL    HW1 2159   0.717   0.336   0.849 -2.0116  0.0816 -2.4560
  720SOL    HW2 2160   0.813   0.228   0.748  0.1748  2.3775  1.6132
  721SOL     OW 2161   2.610   0.766   0.579 -0.1051  0.0391 -0.1688
  721SOL    HW1 2162   2.606   0.773   0.478 -1.5316 -0.1729 -1.8717
  721SOL    HW2 2163   2.669   0.837   0.617 -0.9997 -0.5365  0.4333
  722SOL     OW 2164   0.376   2.600   2.470 -0.2329 -0.1201 -0.2617
  722SOL    HW1 2165   0.472   2.563   2.474  2.0140  0.9505  0.8161
  722SOL    HW2 2166   0.331   2.580   2.384 -1.1895  0.2598  0.1549
  723SOL     OW 2167   1.411   0.107   0.491 -0.6107  0.1150 -0.3494
  723SOL    HW1 2168   1.501   0.062   0.495 -0.5329 -0.6582  2.8070
  723SOL    HW2 2169   1.426   0.203   0.523 -1.8004  0.1626 -0.0245
  724SOL     OW 2170   0.957   1.842   2.173  0.5447 -0.1289  0.0683
  724SOL    HW1 2171   0.906   1.901   2.239 -0.8224  2.5288 -0.1398
  724SOL    HW2 2172   0.899   1.794   2.103 -0.2731  0.8597 -0.3122
  725SOL     OW 2173   1.653   0.100   1.452 -0.0564 -0.5862  0.1728
  725SOL    HW1 2174   1.701   0.136   1.535 -3.9987  1.3981 -0.9292
  725SOL    HW2 2175   1.610   0.016   1.480  3.0616  2.7434 -0.8432
  726SOL     OW 2176   2.237   2.713   0.413  0.5499 -0.3172  0.1429
  726SOL    HW1 2177   2.303   2.782   0.373  0.5344 -1.2912  0.1407
  726SOL    HW2 2178   2.286   2.625   0.429  0.9015  1.6550 -0.5450
  727SOL     OW 2179   1.280   1.981   0.862  0.5696 -0.0809 -0.1738
  727SOL    HW1 2180   1.376   1.968   0.833 -0.7575 -1.3995  0.3629
  727SOL    HW2 2181   1.218   1.956   0.785 -0.6731  2.2464 -0.4422
  728SOL     OW 2182   2.415   2.706   2.225  0.0169 -0.2399  0.4851
  728SOL    HW1 2183   2.401   2.744   2.128  1.2113  3.1843  0.7857
  728SOL    HW2 2184   2.394   2.779   2.290 -2.0812  0.0137 -0.6482
  729SOL     OW 2185   1.985   2.350   1.535 -0.2009 -0.8621 -0.6794
  729SOL    HW1 2186   2.012   2.368   1.441 -1.3917 -2.1794  2.1770
  729SOL    HW2 2187   1.885   2.349   1.551  2.3893  4.1521 -1.9541
  730SOL     OW 2188   1.613   0.860   2.992  0.4909 -0.2109 -0.3955
  730SOL    HW1 2189   1.624   0.760   2.994 -0.7871 -3.7910 -1.9307
  730SOL    HW2 2190   1.533   0.887   2.934 -0.4392 -0.7155 -3.6908
  731SOL     OW 2191   0.729   0.013   1.346  0.2853 -0.0732 -0.1377
  731SOL    HW1 2192   0.815   0.031   1.295  1.0923 -1.1426 -1.2489
  731SOL    HW2 2193   0.687   3.020   1.322  1.0115 -2.6412 -2.0318
  732SOL     OW 2194   1.268   0.234   1.034 -1.1572  0.3774 -0.0260
  732SOL    HW1 2195   1.191   0.239   0.967  2.0256  1.0643 -1.0721
  732SOL    HW2 2196   1.354   0.189   0.990 -0.3281 -1.6949  0.0775
  733SOL     OW 2197   0.908   1.178   0.892 -0.0492 -0.2057 -0.4516
  733SOL    HW1 2198   0.904   1.120   0.975 -2.1312  1.8598 -0.6011
  733SOL    HW2 2199   0.852   1.264   0.906 -0.8663 -1.7139 -0.0095
  734SOL     OW 2200   2.841   2.376   2.790 -0.2145 -0.0955  0.1227
  734SOL    HW1 2201   2.747   2.375   2.749 -0.2477  1.5104 -1.6520
  734SOL    HW2 2202   2.845   2.446   2.867  2.1055  1.9658 -0.9629
  735SOL     OW 2203   0.903   2.841   1.436  0.2493 -0.3828 -0.3447
  735SOL    HW1 2204   0.990   2.812   1.388 -1.9612 -1.8825 -3.7539
  735SOL    HW2 2205   0.910   2.928   1.487 -4.2162  0.1984  0.8958
  736SOL     OW 2206   1.757   1.770   3.032 -0.0648  0.1832  0.3325
  736SOL    HW1 2207   1.720   1.756   2.940  0.9014  2.6197  0.5390
  736SOL    HW2 2208   1.770   1.869   3.055 -0.0178 -0.8432  3.0428
  737SOL     OW 2209   0.183   2.212   1.305  0.1800 -0.2538  0.2346
  737SOL    HW1 2210   0.251   2.212   1.232 -1.9968  2.2492  1.9634
  737SOL    HW2 2211   0.096   2.262   1.273 -3.4374 -0.8903 -2.4219
  738SOL     OW 2212   1.863   2.512   2.776 -0.0493 -0.1556  0.6588
  738SOL    HW1 2213   1.773   2.555   2.772  2.1605  0.7741  0.6555
  738SOL    HW2 2214   1.924   2.569   2.834 -1.1834 -1.7248 -2.3881
  739SOL     OW 2215   1.251   2.270   2.506  0.5993 -0.3745 -0.2449
  739SOL    HW1 2216   1.313   2.342   2.480 -2.0770 -0.7350  0.9645
  739SOL    HW2 2217   1.294   2.225   2.588  2.1167 -0.9646 -1.9572
  740SOL     OW 2218   1.182   2.627   1.006 -0.6407 -0.2962  0.3122
  740SOL    HW1 2219   1.171   2.575   0.923 -0.2648  1.6737  0.4516
  740SOL    HW2 2220   1.190   2.726   0.977  0.8793  1.3964  3.0466
  741SOL     OW 2221   2.913   1.040   0.254  0.2598 -0.3581  0.9291
  741SOL    HW1 2222   2.862   1.088   0.328 -1.7027  0.8456 -1.3416
  741SOL    HW2 2223   3.014   1.071   0.251  0.4273  1.4700 -0.0554
  742SOL     OW 2224   0.897   1.650   2.497  0.3979  0.3553 -0.9032
  742SOL    HW1 2225   0.996   1.630   2.497  4.0806  0.9300 -0.2139
  742SOL    HW2 2226   0.880   1.721   2.569  3.1432  0.2473  0.1469
  743SOL     OW 2227   1.091   0.950   2.383 -0.1209 -0.1438  0.3177
  743SOL    HW1 2228   0.997   0.923   2.422 -0.6384 -1.6626  1.4448
  743SOL    HW2 2229   1.118   0.878   2.316 -0.5613 -2.5838  0.3109
  744SOL     OW 2230   2.204   2.787   1.544 -0.1199 -0.9826  0.5587
  744SOL    HW1 2231   2.151   2.713   1.583 -0.7091 -0.1879 -0.3413
  744SOL    HW2 2232   2.202   2.874   1.606 -0.1365  0.5206  2.3979
  745SOL     OW 2233   1.828   1.486   1.353 -0.1124 -0.2705  0.0983
  745SOL    HW1 2234   1.788   1.581   1.359 -1.6414 -0.6526  0.4516
  745SOL    HW2 2235   1.830   1.438   1.441  0.5072  1.5371  1.0333
  746SOL     OW 2236   1.703   0.719   0.833 -0.3352 -0.2680 -0.4416
  746SOL    HW1 2237   1.794   0.766   0.842  1.9978  1.4121  0.2037
  746SOL    HW2 2238   1.670   0.696   0.928 -0.9385 -2.0658 -0.3248
  747SOL     OW 2239   2.226   1.595   0.884  0.1763 -0.1276  0.4716
  747SOL    HW1 2240   2.147   1.539   0.843  1.1566  1.3448 -0.1596
  747SOL    HW2 2241   2.232   1.579   0.984 -1.5461  1.3179  0.3550
  748SOL     OW 2242   0.231   1.497   0.170 -0.4309  0.3083  0.0643
  748SOL    HW1 2243   0.249   1.552   0.086  0.2097 -0.9490  1.5510
  748SOL    HW2 2244   0.316   1.499   0.232  0.9825  3.7176  3.4785
  749SOL     OW 2245   3.039   2.408   2.608  0.3937  0.2879 -0.5055
  749SOL    HW1 2246   3.072   2.322   2.566 -1.0922  0.2883 -0.7111
  749SOL    HW2 2247   2.966   2.391   2.677  1.0152  1.3660  0.2719
  750SOL     OW 2248   2.288   0.704   0.969 -0.0459 -0.0099 -0.3932
  750SOL    HW1 2249   2.359   0.633   0.937  0.5666 -2.6988  1.5494
  750SOL    HW2 2250   2.233   0.665   1.042  1.0642 -1.9228 -2.1921
  751SOL     OW 2251   2.792   3.011   0.310  0.0379  0.0615  0.2194
  751SOL    HW1 2252   2.707   3.041   0.260 -2.4033  0.9028 -3.2680
  751SOL    HW2 2253   2.794   2.915   0.331  0.4327  2.8576  0.4916
  752SOL     OW 2254   2.452   2.678   0.738  0.0585  0.6935  0.4029
  752SOL    HW1 2255   2.352   2.657   0.736  0.8054  0.1334  2.0312
  752SOL    HW2 2256   2.489   2.664   0.829 -0.5295  1.8337  1.8085
  753SOL     OW 2257   1.954   1.565   2.245  0.0647  0.2429  0.4833
  753SOL    HW1 2258   2.043   1.580   2.301  0.3285 -0.3079 -2.0116
  753SOL    HW2 2259   1.941   1.644   2.180 -0.6346 -2.0227 -0.8157
  754SOL     OW 2260   2.250   2.268   1.574  0.2692  0.0436  0.0436
  754SOL    HW1 2261   2.294   2.184   1.528  1.5224 -3.0009 -1.0559
  754SOL    HW2 2262   2.153   2.252   1.599  1.0884 -0.6758 -0.2503
  755SOL     OW 2263   2.500   0.907   1.199 -0.8978 -0.4573  0.1014
  755SOL    HW1 2264   2.415   0.932   1.150 -0.9433  1.0022  0.5431
  755SOL    HW2 2265   2.471   0.867   1.288  0.7385  3.0235  0.4904
  756SOL     OW 2266   1.025   1.432   2.848 -0.4678  0.4732 -0.8029
  756SOL    HW1 2267   1.048   1.335   2.878 -1.8816  0.3909  1.2953
  756SOL    HW2 2268   0.926   1.452   2.864 -1.2412  1.1353  0.3613
  757SOL     OW 2269   1.775   2.687   1.200 -0.0398 -0.5022 -0.2757
  757SOL    HW1 2270   1.811   2.765   1.143  0.2739  0.1636 -0.2136
  757SOL    HW2 2271   1.792   2.706   1.300 -0.7825  0.9715 -0.9260
  758SOL     OW 2272   0.870   2.520   1.324 -0.2550 -0.5282  0.7290
  758SOL    HW1 2273   0.935   2.501   1.396  1.0276  1.5089 -1.9066
  758SOL    HW2 2274   0.901   2.473   1.239  0.2118 -0.1689 -1.7515
  759SOL     OW 2275   2.238   1.150   1.008  0.1904 -0.0591 -0.7628
  759SOL    HW1 2276   2.303   1.213   1.054 -0.7579  2.5705  1.8755
  759SOL    HW2 2277   2.196   1.204   0.928 -2.7496  1.5386 -0.2567
  760SOL     OW 2278   2.182   1.042   1.416  0.7819  0.6708  0.0765
  760SOL    HW1 2279   2.096   0.990   1.408 -1.0293 -0.1577 -0.1142
  760SOL    HW2 2280   2.173   1.137   1.391  1.9090  2.5176  0.0080
  761SOL     OW 2281   1.986   2.798   0.410  0.1730  0.4754 -0.4228
  761SOL    HW1 2282   1.959   2.784   0.309 -0.2560  0.7034 -2.1425
  761SOL    HW2 2283   2.081   2.764   0.429  0.1345  1.0163 -0.9730
  762SOL     OW 2284   2.059   1.518   2.893 -0.0465 -0.1109 -0.1071
  762SOL    HW1 2285   2.078   1.576   2.811 -0.7434  1.8628 -3.7240
  762SOL    HW2 2286   2.049   1.567   2.979 -2.0115 -2.0095 -0.7689
  763SOL     OW 2287   0.640   1.770   1.419 -0.3830  0.4498  0.2097
  763SOL    HW1 2288   0.546   1.762   1.391 -0.4871  0.7273  3.3259
  763SOL    HW2 2289   0.648   1.787   1.519 -0.2235  2.2411  0.7461
  764SOL     OW 2290   0.032   2.265   3.027 -0.2109  0.6540  0.2697
  764SOL    HW1 2291   3.033   2.285   3.043  3.4307 -1.4243  0.6475
  764SOL    HW2 2292   0.067   2.314   2.948 -3.0911 -0.1910  3.5820
  765SOL     OW 2293   0.522   0.030   1.529 -0.5473  0.1175  0.4194
  765SOL    HW1 2294   0.596   0.077   1.473 -0.6993  2.1187 -1.0958
  765SOL    HW2 2295   0.524   0.057   1.626 -1.0592 -1.6434 -1.1499
  766SOL     OW 2296   3.016   2.012   2.097 -0.3810 -0.1512  0.3955
  766SOL    HW1 2297   2.981   2.107   2.083  1.3153  1.0280 -1.7153
  766SOL    HW2 2298   2.940   1.944   2.106  0.8267 -1.7270 -1.6037
  767SOL     OW 2299   3.075   1.166   2.082 -0.2119 -0.4365 -0.5792
  767SOL    HW1 2300   0.026   1.079   2.105  0.2972 -0.1667  0.5787
  767SOL    HW2 2301   3.065   1.179   1.982  0.6518  1.1016 -2.3081
  768SOL     OW 2302   0.698   0.352   2.801  0.0684  0.8303 -0.1368
  768SOL    HW1 2303   0.733   0.344   2.893 -1.6054 -0.0073 -1.5529
  768SOL    HW2 2304   0.595   0.339   2.791 -1.4030 -0.6820 -0.8270
  769SOL     OW 2305   2.110   2.643   0.913  0.3119 -0.3343 -0.0421
  769SOL    HW1 2306   2.172   2.702   0.967  1.8838 -1.8835 -1.3975
  769SOL    HW2 2307   2.126   2.656   0.814 -0.2436  0.2410  0.4933
  770SOL     OW 2308   2.792   0.048   2.827 -0.0736  0.1936 -0.2176
  770SOL    HW1 2309   2.774   3.066   2.882  3.1287 -1.5649 -0.8851
  770SOL    HW2 2310   2.743   0.048   2.737  2.1706  2.9838 -1.5520
  771SOL     OW 2311   1.919   2.115   1.878 -0.2850  0.2470 -0.3702
  771SOL    HW1 2312   1.940   2.095   1.781 -2.3472  0.4903  2.4183
  771SOL    HW2 2313   1.828   2.072   1.902 -2.5348 -1.2845  1.1454
  772SOL     OW 2314   1.206   0.271   0.029  0.1378  0.4191 -0.0688
  772SOL    HW1 2315   1.241   0.364   3.100  2.1759 -0.2261  0.5477
  772SOL    HW2 2316   1.133   0.233   3.075  0.9994  1.3675 -0.2101
  773SOL     OW 2317   2.862   0.884   1.852 -0.4401 -0.0637  0.1084
  773SOL    HW1 2318   2.871   0.860   1.951  1.6844  3.5645 -2.3755
  773SOL    HW2 2319   2.950   0.916   1.816 -0.1287 -0.6035  2.0362
  774SOL     OW 2320   1.065   0.946   0.443  0.4740  0.0095 -0.7582
  774SOL    HW1 2321   1.152   0.949   0.390 -1.2535  2.1041  1.0416
  774SOL    HW2 2322   1.009   1.024   0.413  0.4623  0.9032 -0.6763
  775SOL     OW 2323   2.556   2.999   0.131 -0.3217 -0.3910 -0.2200
  775SOL    HW1 2324   2.519   3.085   0.080 -0.5801  1.7572 -2.5228
  775SOL    HW2 2325   2.622   2.947   0.073  1.1416 -3.5270  2.0126
  776SOL     OW 2326   2.393   1.148   2.105 -0.6006 -0.2817 -0.1331
  776SOL    HW1 2327   2.385   1.048   2.128 -0.2673 -1.8159 -1.9599
  776SOL    HW2 2328   2.376   1.161   2.006 -0.7164 -0.2374  2.6223
  777SOL     OW 2329   0.046   1.196   2.803  0.5545 -0.3446  0.3273
  777SOL    HW1 2330   0.030   1.196   2.705 -3.2202  0.3998  0.7764
  777SOL    HW2 2331   0.030   1.294   2.827 -1.7688 -1.7869 -4.1959
  778SOL     OW 2332   0.550   0.295   0.208 -0.0693 -0.1013 -0.0051
  778SOL    HW1 2333   0.633   0.348   0.187 -2.0776 -2.6284 -3.1728
  778SOL    HW2 2334   0.515   0.253   0.125  0.6402  1.3257  1.0209
  779SOL     OW 2335   0.456   0.571   2.673 -0.5882  0.6765 -0.4573
  779SOL    HW1 2336   0.530   0.644   2.682  1.9204  3.2234 -2.1621
  779SOL    HW2 2337   0.455   0.522   2.582 -0.5126 -1.9211  0.7835
  780SOL     OW 2338   1.674   0.815   2.662 -0.1210 -0.3153  0.6813
  780SOL    HW1 2339   1.664   0.741   2.735 -0.3659  1.2302  1.0525
  780SOL    HW2 2340   1.772   0.837   2.648 -1.2671 -0.3129  0.8604
  781SOL     OW 2341   3.079   0.986   1.747 -0.1467 -0.0918 -0.5769
  781SOL    HW1 2342   0.041   0.930   1.688 -2.1703 -0.5522  1.7801
  781SOL    HW2 2343   0.030   1.072   1.775  0.1210 -1.5652 -1.0406
  782SOL     OW 2344   0.585   1.800   2.843  0.0316 -0.0447 -0.1534
  782SOL    HW1 2345   0.583   1.840   2.939 -0.2134  1.3402  3.5840
  782SOL    HW2 2346   0.567   1.701   2.845 -0.4572  2.3704  0.5088
  783SOL     OW 2347   0.958   2.618   1.633  0.6079  0.3196 -0.6225
  783SOL    HW1 2348   0.927   2.701   1.581 -1.1246  2.8461 -2.9679
  783SOL    HW2 2349   1.013   2.557   1.578 -1.6878  0.4403  3.2282
  784SOL     OW 2350   1.453   0.213   3.021  0.1738 -0.0583 -0.2927
  784SOL    HW1 2351   1.379   0.227   3.091  0.6673 -0.4669 -1.0153
  784SOL    HW2 2352   1.488   0.307   2.995  1.1235  1.6669 -0.2643
  785SOL     OW 2353   1.193   0.397   2.091  0.1157  0.4964  0.2299
  785SOL    HW1 2354   1.154   0.356   2.177 -2.0157  0.0500 -2.1534
  785SOL    HW2 2355   1.282   0.354   2.062  2.0549 -0.2404 -1.9664
  786SOL     OW 2356   0.618   1.891   0.429 -0.2878 -0.4510  0.6805
  786SOL    HW1 2357   0.645   1.808   0.377  0.1339  3.3760 -0.3113
  786SOL    HW2 2358   0.539   1.945   0.396  0.4261 -0.3297  2.2994
  787SOL     OW 2359   1.271   0.828   0.237 -0.0482  0.1938  0.2963
  787SOL    HW1 2360   1.343   0.770   0.276 -1.1751 -0.2743 -1.2285
  787SOL    HW2 2361   1.298   0.855   0.141 -1.3440  1.1419 -3.7792
  788SOL     OW 2362   2.232   1.520   1.158  0.0134 -0.1718 -0.1225
  788SOL    HW1 2363   2.310   1.457   1.133  0.6001  0.2483 -0.1178
  788SOL    HW2 2364   2.250   1.564   1.250  0.7294 -1.9125  2.3776
  789SOL     OW 2365   3.097   1.571   1.914  0.2602 -0.2834 -0.0703
  789SOL    HW1 2366   0.041   1.553   2.002  0.7718  0.8510 -2.2052
  789SOL    HW2 2367   3.043   1.494   1.881  3.5734  0.5222  0.1529
  790SOL     OW 2368   0.579   3.027   0.127 -0.2782 -0.2801  0.5523
  790SOL    HW1 2369   0.504   2.957   0.148  0.6555  3.6549  0.8106
  790SOL    HW2 2370   0.612   3.053   0.220  0.4494 -0.5297  0.3928
  791SOL     OW 2371   0.254   0.411   0.120  0.5155  0.2444 -0.1901
  791SOL    HW1 2372   0.241   0.412   0.223  2.4382  0.0045  1.7977
  791SOL    HW2 2373   0.283   0.319   0.089 -2.9792  1.4968 -2.0283
  792SOL     OW 2374   1.634   0.568   2.468 -0.2040  0.1686 -0.0333
  792SOL    HW1 2375   1.590   0.583   2.555  2.7346 -0.9809 -3.7165
  792SOL    HW2 2376   1.707   0.633   2.448  0.2398 -0.1581 -0.1719
  793SOL     OW 2377   0.010   0.445   0.639 -0.0249  0.0416 -0.2676
  793SOL    HW1 2378   0.032   0.540   0.603  1.0342  2.5050 -0.2102
  793SOL    HW2 2379   0.047   0.430   0.736  2.4558 -1.1495  3.0457
  794SOL     OW 2380   0.310   0.396   1.686 -0.3455 -0.3291  0.4157
  794SOL    HW1 2381   0.391   0.449   1.654  2.3319 -0.8991 -1.5492
  794SOL    HW2 2382   0.286   0.331   1.613 -0.0933 -1.1424  2.4225
  795SOL     OW 2383   0.092   1.070   0.219 -0.2278 -0.0222  0.3258
  795SOL    HW1 2384   0.165   1.060   0.285 -0.9777 -1.8352 -0.3642
  795SOL    HW2 2385   0.127   1.077   0.123 -0.0428  2.6336 -1.3013
  796SOL     OW 2386   0.347   0.750   0.267  0.0232 -0.2617 -0.2027
  796SOL    HW1 2387   0.392   0.660   0.292  0.9738 -0.9807 -0.6782
  796SOL    HW2 2388   0.291   0.734   0.186 -3.5175 -0.3687  2.9374
  797SOL     OW 2389   1.536   2.628   0.083 -0.1409 -0.3023  0.0939
  797SOL    HW1 2390   1.524   2.728   0.109  1.9562  1.6239 -0.7403
  797SOL    HW2 2391   1.498   2.606   3.093 -0.5244 -0.8344 -2.0570
  798SOL     OW 2392   2.829   0.559   1.034 -0.1829 -0.0001  0.5530
  798SOL    HW1 2393   2.821   0.467   0.988  0.3886 -1.7704  3.2330
  798SOL    HW2 2394   2.761   0.620   0.994 -0.9425  0.6172 -0.3861
  799SOL     OW 2395   2.435   0.703   1.966  0.2454 -0.1292 -0.3438
  799SOL    HW1 2396   2.496   0.785   1.985 -0.0103  3.0902 -1.0920
  799SOL    HW2 2397   2.442   0.693   1.865  0.3652  1.2260  5.1327
  800SOL     OW 2398   0.255   1.796   0.377  0.5990  0.2768  0.4587
  800SOL    HW1 2399   0.161   1.779   0.417 -0.4883  0.0044  0.7674
  800SOL    HW2 2400   0.297   1.867   0.434 -0.2307 -0.4781  2.0464
  801SOL     OW 2401   1.522   1.968   0.764 -0.6842 -0.4621  0.5260
  801SOL    HW1 2402   1.558   1.886   0.712  0.9288 -1.5659 -0.1445
  801SOL    HW2 2403   1.596   2.021   0.816 -1.3642  0.3250  0.2791
  802SOL     OW 2404   1.233   1.576   2.916 -0.6825  0.1091 -0.0505
  802SOL    HW1 2405   1.151   1.528   2.880  1.8070 -2.1604  0.0377
  802SOL    HW2 2406   1.308   1.593   2.846 -0.2046  0.9002 -0.7554
  803SOL     OW 2407   3.044   2.087   1.536 -0.0687  0.2402  0.0032
  803SOL    HW1 2408   3.018   2.145   1.459  1.1685  0.1627  3.7922
  803SOL    HW2 2409   3.085   2.153   1.604 -0.7302  0.1490 -0.2767
  804SOL     OW 2410   1.285   2.525   1.246 -0.0472 -0.4418  0.0162
  804SOL    HW1 2411   1.383   2.550   1.233 -1.4946  0.0299  0.1424
  804SOL    HW2 2412   1.233   2.553   1.163 -0.1752  3.5232 -1.4240
  805SOL     OW 2413   2.329   1.987   2.705  0.1197 -0.2097  0.2359
  805SOL    HW1 2414   2.339   2.090   2.723  3.2974  1.3434  1.6496
  805SOL    HW2 2415   2.346   1.938   2.790  0.1316  0.8197 -1.3403
  806SOL     OW 2416   2.206   3.089   0.452 -0.2246  0.1289  0.7352
  806SOL    HW1 2417   2.181   3.048   0.539  0.9323 -1.2388  0.6222
  806SOL    HW2 2418   2.280   3.037   0.407  1.1037  0.2775 -0.0131
  807SOL     OW 2419   2.777   0.843   2.797 -0.1830  0.5668  0.8644
  807SOL    HW1 2420   2.825   0.756   2.776 -1.5060  0.6027  0.6885
  807SOL    HW2 2421   2.680   0.839   2.758 -2.4278 -1.5814 -3.5153
  808SOL     OW 2422   0.816   1.280   0.502  0.6653  0.1835  0.3605
  808SOL    HW1 2423   0.739   1.261   0.440  0.4911  0.0040  2.0953
  808SOL    HW2 2424   0.807   1.377   0.529 -0.2211  1.5890 -1.6147
  809SOL     OW 2425   2.791   0.479   2.058 -0.2347  0.1358  0.0313
  809SOL    HW1 2426   2.709   0.442   2.109 -0.5460 -0.2325 -2.5092
  809SOL    HW2 2427   2.791   0.468   1.956  1.7949  0.0599  0.7261
  810SOL     OW 2428   1.169   0.450   1.427  0.2799  0.1150 -0.0296
  810SOL    HW1 2429   1.175   0.359   1.464 -0.4144 -0.9522 -2.1748
  810SOL    HW2 2430   1.252   0.466   1.376 -1.2318 -0.1836  0.8938
  811SOL     OW 2431   2.487   0.067   1.853  0.1411 -0.1866  0.0591
  811SOL    HW1 2432   2.436   0.152   1.882 -2.0769  0.5700 -1.1421
  811SOL    HW2 2433   2.507   0.002   1.926  1.7958 -3.6782  0.9890
  812SOL     OW 2434   1.745   2.062   3.099 -0.3982 -0.3631 -0.0830
  812SOL    HW1 2435   1.696   2.151   0.002  0.5151 -0.7432 -0.1520
  812SOL    HW2 2436   1.773   2.035   0.092 -0.3897 -0.0835  0.1556
  813SOL     OW 2437   1.267   0.665   1.633 -0.0527  0.3373  0.1253
  813SOL    HW1 2438   1.170   0.632   1.629 -0.3758 -1.8791  0.8516
  813SOL    HW2 2439   1.314   0.652   1.543  0.0890 -1.6763  0.5716
  814SOL     OW 2440   0.435   0.250   1.156 -0.0856  0.0186  0.7309
  814SOL    HW1 2441   0.528   0.283   1.183  0.4582  0.0623 -0.1135
  814SOL    HW2 2442   0.404   0.173   1.214  0.5371  0.2914 -0.7824
  815SOL     OW 2443   0.589   0.212   0.454  0.5158  0.4915  0.1809
  815SOL    HW1 2444   0.601   0.240   0.358  0.3210  0.5843  0.2380
  815SOL    HW2 2445   0.499   0.241   0.494  1.0032  0.5584 -1.0086
  816SOL     OW 2446   2.255   1.531   2.309 -0.3014 -0.5049 -0.2292
  816SOL    HW1 2447   2.323   1.464   2.284 -2.7849  1.6522  0.1676
  816SOL    HW2 2448   2.272   1.567   2.404 -2.3860  3.1529 -1.8657
  817SOL     OW 2449   1.027   2.841   0.627 -0.1321  0.1087 -0.0860
  817SOL    HW1 2450   1.029   2.746   0.666 -2.0677 -2.1260  0.0947
  817SOL    HW2 2451   1.094   2.848   0.552 -0.3722  0.8348 -1.2042
  818SOL     OW 2452   1.706   0.601   2.859  0.3948  0.7730 -0.5963
  818SOL    HW1 2453   1.750   0.575   2.773  0.2724 -0.8345 -2.1077
  818SOL    HW2 2454   1.770   0.578   2.935  3.0476  1.4880  1.2259
  819SOL     OW 2455   1.890   0.015   0.041  0.1890  0.1941 -0.1635
  819SOL    HW1 2456   1.918   3.015   0.031 -0.8808 -2.3794  3.1979
  819SOL    HW2 2457   1.949   0.072   3.080  1.6226  1.7547  0.3920
  820SOL     OW 2458   1.858   0.543   3.087 -0.1349  0.3774 -0.4256
  820SOL    HW1 2459   1.889   0.641   3.095 -0.2411 -2.7723  0.0707
  820SOL    HW2 2460   1.933   0.478   3.088 -2.3120  1.6580 -0.4574
  821SOL     OW 2461   2.828   0.388   0.640 -0.0730 -0.1794  0.2416
  821SOL    HW1 2462   2.928   0.412   0.651 -0.0392  0.9473 -2.6178
  821SOL    HW2 2463   2.814   0.343   0.548  0.0727  0.5629 -0.4284
  822SOL     OW 2464   0.973   2.358   2.205  0.0672  0.3792  0.0412
  822SOL    HW1 2465   0.981   2.312   2.293 -0.2481  0.9420 -3.5121
  822SOL    HW2 2466   0.887   2.325   2.163  1.2802  0.8224 -1.3888
  823SOL     OW 2467   0.193   1.695   1.755 -0.1286  0.9773  0.4244
  823SOL    HW1 2468   0.271   1.701   1.821 -1.0164 -0.6979 -0.1316
  823SOL    HW2 2469   0.103   1.679   1.806  1.2664  1.1986  1.9322
  824SOL     OW 2470   1.401   2.861   2.476 -0.2800 -0.1090 -0.2868
  824SOL    HW1 2471   1.470   2.789   2.475  0.5506  2.1199 -1.5692
  824SOL    HW2 2472   1.347   2.871   2.567  1.6982  1.6434 -2.8054
  825SOL     OW 2473   1.617   0.594   0.607 -0.0726  0.3410 -0.1624
  825SOL    HW1 2474   1.700   0.570   0.550 -0.2923 -1.8971 -0.0090
  825SOL    HW2 2475   1.640   0.640   0.695 -0.3327 -1.0019  1.7161
  826SOL     OW 2476   1.956   0.775   0.032  0.7425 -0.1437 -0.1012
  826SOL    HW1 2477   1.983   0.773   0.125 -0.0522 -2.2967 -1.0470
  826SOL    HW2 2478   1.951   0.874   3.096  2.3075  2.9707  0.0336
  827SOL     OW 2479   0.463   1.796   2.163  0.1946  0.0871 -0.0506
  827SOL    HW1 2480   0.413   1.835   2.242  0.1832  1.2401  0.1610
  827SOL    HW2 2481   0.465   1.693   2.171  1.1243  1.0995  1.0821
  828SOL     OW 2482   2.437   1.287   1.453  0.5718  0.7627  0.1268
  828SOL    HW1 2483   2.420   1.332   1.544 -2.2945 -1.5143 -0.8804
  828SOL    HW2 2484   2.484   1.201   1.476  0.0937 -1.2473 -0.8023
  829SOL     OW 2485   0.405   1.565   0.366 -0.3236 -1.3156 -0.0011
  829SOL    HW1 2486   0.418   1.514   0.455 -0.1023 -1.0146  0.5574
  829SOL    HW2 2487   0.328   1.635   0.367  0.2018  0.7762 -0.3949
  830SOL     OW 2488   1.362   0.924   0.858  0.4378 -0.2107  0.4411
  830SOL    HW1 2489   1.272   0.958   0.831  1.1362  0.1009 -0.9032
  830SOL    HW2 2490   1.360   0.820   0.858 -2.0736  0.7140  2.4800
  831SOL     OW 2491   2.888   1.625   3.087  0.2513 -0.2585 -0.2943
  831SOL    HW1 2492   2.867   1.681   0.062  1.0080 -2.3929 -2.4019
  831SOL    HW2 2493   2.932   1.534   0.012 -1.0379  3.0400  0.4511
  832SOL     OW 2494   0.794   0.348   3.052 -0.0072  0.4075 -0.3237
  832SOL    HW1 2495   0.823   0.427   0.009  0.0949  3.4972  1.5993
  832SOL    HW2 2496   0.798   0.260   0.006  0.5466  3.7210  2.7903
  833SOL     OW 2497   0.660   0.704   2.249 -0.3504  0.3197  0.0255
  833SOL    HW1 2498   0.757   0.687   2.214 -0.2728  0.2003  3.5465
  833SOL    HW2 2499   0.605   0.624   2.279 -3.0387  0.4456  0.8772
  834SOL     OW 2500   0.355   0.417   0.764  0.1130 -0.1907 -0.3212
  834SOL    HW1 2501   0.275   0.397   0.824  0.2359 -1.4507 -2.3821
  834SOL    HW2 2502   0.359   0.351   0.686 -0.6454 -1.8138  1.1395
  835SOL     OW 2503   2.670   2.975   1.162  0.1095 -0.4898  0.1073
  835SOL    HW1 2504   2.635   3.024   1.248 -0.1895  0.1483 -2.7842
  835SOL    HW2 2505   2.667   3.035   1.080 -1.0039 -1.9501  1.0643
  836SOL     OW 2506   0.361   1.893   0.133 -0.3775  0.0109  0.2442
  836SOL    HW1 2507   0.311   1.980   0.109 -1.9824  1.2016 -1.0514
  836SOL    HW2 2508   0.338   1.866   0.228 -1.4807  0.8269  1.5582
  837SOL     OW 2509   1.681   1.511   2.287  0.0160  0.1934  0.1909
  837SOL    HW1 2510   1.635   1.587   2.238  0.1120  0.2368 -1.1174
  837SOL    HW2 2511   1.778   1.528   2.283 -0.1362 -0.0207  1.4594
  838SOL     OW 2512   0.571   0.950   1.748 -0.2535 -0.1119 -0.3395
  838SOL    HW1 2513   0.594   0.964   1.653 -1.4171 -0.7291  1.8512
  838SOL    HW2 2514   0.648   0.987   1.801 -1.6987 -3.0388  0.7687
  839SOL     OW 2515   0.576   1.285   0.814  0.1076  0.2009  0.5939
  839SOL    HW1 2516   0.589   1.304   0.914 -1.0855 -0.1493 -2.6618
  839SOL    HW2 2517   0.573   1.182   0.796 -0.1484  0.2675  0.0470
  840SOL     OW 2518   2.265   0.244   1.936 -0.2805  0.8012  0.2995
  840SOL    HW1 2519   2.246   0.157   1.884 -0.3324  0.8591  1.7096
  840SOL    HW2 2520   2.188   0.313   1.940  0.9389 -0.0580 -0.5695
  841SOL     OW 2521   0.445   2.294   0.368 -0.0178  0.4292  0.3490
  841SOL    HW1 2522   0.546   2.286   0.355 -1.8718 -1.8747 -1.0446
  841SOL    HW2 2523   0.404   2.374   0.323  0.5741  0.1287  1.1118
  842SOL     OW 2524   0.343   0.154   0.898  0.5140  0.3564  0.2552
  842SOL    HW1 2525   0.351   0.217   0.978  2.1253  1.3679 -0.1300
  842SOL    HW2 2526   0.435   0.119   0.872  1.9324  2.6248 -1.4031
  843SOL     OW 2527   0.348   1.353   2.688 -0.2197 -0.2488 -0.5600
  843SOL    HW1 2528   0.264   1.307   2.648 -2.5305  2.4521 -0.4915
  843SOL    HW2 2529   0.387   1.418   2.620 -1.1832  0.0281 -1.5061
  844SOL     OW 2530   1.266   2.326   0.025 -0.1072  0.3302  0.3935
  844SOL    HW1 2531   1.278   2.309   3.025  0.6651  0.2041 -2.4944
  844SOL    HW2 2532   1.254   2.424   0.041  0.3475  0.1359 -0.1091
  845SOL     OW 2533   2.559   2.863   2.494  0.1455 -0.0209  0.1045
  845SOL    HW1 2534   2.647   2.822   2.458 -1.2476  0.2894 -3.2117
  845SOL    HW2 2535   2.500   2.894   2.422  0.7555 -0.1896  2.2150
  846SOL     OW 2536   2.148   1.841   3.073 -0.3734 -0.5559 -0.0857
  846SOL    HW1 2537   2.092   1.911   3.017  0.5489  0.9092 -1.0961
  846SOL    HW2 2538   2.098   1.758   0.005  2.3597  1.1617 -1.1071
  847SOL     OW 2539   2.491   0.125   3.094 -0.0261 -0.2821  0.0858
  847SOL    HW1 2540   2.413   0.085   3.040 -1.5820 -0.6086  2.4691
  847SOL    HW2 2541   2.538   0.202   3.046 -0.3377  0.9104  0.5684
  848SOL     OW 2542   0.370   0.700   0.819  0.2206  0.0571  0.3000
  848SOL    HW1 2543   0.422   0.710   0.904 -1.1841  0.4827  0.2338
  848SOL    HW2 2544   0.334   0.603   0.812 -0.1151 -1.1436  0.8887
  849SOL     OW 2545   1.483   2.948   1.793  0.4650 -0.0554 -0.0481
  849SOL    HW1 2546   1.480   2.915   1.889  0.1062  3.8234 -0.9272
  849SOL    HW2 2547   1.414   2.892   1.741  0.3433 -0.9082  1.5423
  850SOL     OW 2548   0.647   1.663   0.298  0.4603  0.1695 -0.1166
  850SOL    HW1 2549   0.560   1.614   0.317  0.3660  0.5332  1.8056
  850SOL    HW2 2550   0.714   1.611   0.237 -0.4717  2.3670 -1.2085
  851SOL     OW 2551   0.395   1.436   0.592 -0.5253 -0.0217  0.3108
  851SOL    HW1 2552   0.373   1.455   0.691  0.5690 -1.6741  1.8786
  851SOL    HW2 2553   0.351   1.353   0.557  0.5102 -2.7102  0.9890
  852SOL     OW 2554   1.677   2.691   1.659 -0.1037 -0.2730  0.3513
  852SOL    HW1 2555   1.608   2.621   1.635  1.8953 -0.4600 -1.1727
  852SOL    HW2 2556   1.634   2.774   1.700 -1.6819  4.0502  0.2563
  853SOL     OW 2557   3.056   1.427   0.029 -0.5193 -0.2828 -0.0728
  853SOL    HW1 2558   0.000   1.445   3.040  2.3277 -1.5746 -1.5540
  853SOL    HW2 2559   0.021   1.423   0.111 -2.7805 -0.7650  2.4020
  854SOL     OW 2560   1.616   1.240   1.976  0.6570  0.3381 -0.0144
  854SOL    HW1 2561   1.583   1.284   2.057 -0.8771  1.3330 -0.1798
  854SOL    HW2 2562   1.572   1.147   1.968  0.4432  0.0295 -0.7264
  855SOL     OW 2563   0.332   2.363   2.992 -0.1581  0.5849 -0.4219
  855SOL    HW1 2564   0.309   2.286   3.057  0.6027 -1.1237 -0.9030
  855SOL    HW2 2565   0.257   2.381   2.930  1.0521  0.9875 -0.8741
  856SOL     OW 2566   0.368   0.784   1.765 -0.6747  0.3718  0.8642
  856SOL    HW1 2567   0.357   0.745   1.859  0.7632 -0.0898  0.2306
  856SOL    HW2 2568   0.452   0.838   1.756 -0.4702 -1.6897  0.0050
  857SOL     OW 2569   1.185   1.265   1.973  0.4505 -0.1857  0.8349
  857SOL    HW1 2570   1.198   1.312   2.066 -0.4339  1.1716  1.2995
  857SOL    HW2 2571   1.095   1.295   1.942 -1.2908 -2.9930  0.5659
  858SOL     OW 2572   0.402   1.549   2.485  0.0201 -0.2975 -0.5751
  858SOL    HW1 2573   0.459   1.634   2.482 -2.6163  2.9237  1.0452
  858SOL    HW2 2574   0.305   1.575   2.510  0.0009  1.3717 -0.1500
  859SOL     OW 2575   2.655   0.048   0.943 -0.3747 -0.5240  0.0930
  859SOL    HW1 2576   2.614   0.106   0.872  0.6464 -1.8140 -0.1565
  859SOL    HW2 2577   2.755   0.039   0.920 -1.6342  0.4982 -0.1052
  860SOL     OW 2578   2.181   2.968   0.098  0.2741 -0.8693 -0.5794
  860SOL    HW1 2579   2.206   3.043   0.160 -0.2272 -1.9387  1.4431
  860SOL    HW2 2580   2.263   2.915   0.068 -1.7906  0.2748  2.8835
  861SOL     OW 2581   0.693   0.427   0.576 -0.6962 -0.8064 -0.1783
  861SOL    HW1 2582   0.662   0.350   0.520  0.9988 -1.7802 -0.1470
  861SOL    HW2 2583   0.633   0.509   0.562 -0.7923  0.8387  0.3403
  862SOL     OW 2584   1.552   0.458   2.237 -0.2601  0.5060 -0.4155
  862SOL    HW1 2585   1.553   0.532   2.173  1.4100 -5.1752  2.1874
  862SOL    HW2 2586   1.588   0.481   2.331  2.1551 -0.1704 -0.5889
  863SOL     OW 2587   2.579   2.306   1.000 -0.4559 -0.3059  0.3557
  863SOL    HW1 2588   2.493   2.299   1.056  0.8990 -1.6104 -0.5260
  863SOL    HW2 2589   2.576   2.242   0.921 -1.1606 -1.1406 -0.0924
  864SOL     OW 2590   2.584   0.073   2.193 -0.3000  0.4844 -0.1009
  864SOL    HW1 2591   2.555   3.085   2.151 -2.1158  0.1859 -1.6318
  864SOL    HW2 2592   2.675   0.053   2.232  3.0757  2.5069  2.1814
  865SOL     OW 2593   1.152   0.645   1.899 -0.3013  0.4008 -0.4903
  865SOL    HW1 2594   1.189   0.550   1.919  2.6870 -0.6764  2.2293
  865SOL    HW2 2595   1.206   0.684   1.824  0.3983 -1.3680  0.0900
  866SOL     OW 2596   1.861   2.912   1.059 -0.3332 -0.0282  0.2600
  866SOL    HW1 2597   1.958   2.933   1.076  0.6065 -1.2148  0.1882
  866SOL    HW2 2598   1.837   2.943   0.964  1.3314 -0.4043  0.6461
  867SOL     OW 2599   2.788   2.371   0.714  0.0663 -0.1741  0.3681
  867SOL    HW1 2600   2.706   2.415   0.666 -2.9316 -0.9411 -1.6918
  867SOL    HW2 2601   2.835   2.426   0.779 -2.4472 -2.0138 -6.3764
  868SOL     OW 2602   0.629   2.175   1.669  0.0396  0.0237  0.1754
  868SOL    HW1 2603   0.654   2.272   1.672 -2.6679 -0.5716  4.2797
  868SOL    HW2 2604   0.585   2.146   1.583  1.2099  1.6979 -0.5360
  869SOL     OW 2605   2.293   2.348   3.078  0.0008 -0.6746  0.3579
  869SOL    HW1 2606   2.379   2.371   3.028  2.5493 -0.0890  0.6916
  869SOL    HW2 2607   2.254   2.433   0.019  2.3218  1.9073 -0.7030
  870SOL     OW 2608   1.890   1.761   1.024 -0.1892  0.5528 -0.1616
  870SOL    HW1 2609   1.881   1.811   0.936  0.7073 -0.2287 -0.5531
  870SOL    HW2 2610   1.924   1.664   1.018 -1.8004 -2.6136 -0.6168
  871SOL     OW 2611   0.264   1.947   1.670 -0.1615 -0.1977 -0.1179
  871SOL    HW1 2612   0.232   1.854   1.695  1.1371 -0.7845 -1.1661
  871SOL    HW2 2613   0.267   1.994   1.757  1.0041 -1.9544  0.0502
  872SOL     OW 2614   0.512   1.524   2.217 -0.4733 -0.6378 -0.2897
  872SOL    HW1 2615   0.613   1.542   2.221  0.0063  0.5475  1.3215
  872SOL    HW2 2616   0.474   1.509   2.309 -0.8106  0.8623 -1.8275
  873SOL     OW 2617   1.195   2.109   1.852 -0.4867  0.7105 -0.5093
  873SOL    HW1 2618   1.193   2.045   1.930  0.6219 -0.4961 -2.5345
  873SOL    HW2 2619   1.105   2.114   1.807 -0.1823  2.4285  1.5707
  874SOL     OW 2620   1.504   1.003   1.926 -0.3414 -0.0294  0.1452
  874SOL    HW1 2621   1.405   1.037   1.925 -2.3400 -1.3048 -0.3386
  874SOL    HW2 2622   1.502   0.911   1.968  1.4050  0.7394 -1.7516
  875SOL     OW 2623   2.786   2.726   0.814  0.1939 -0.3964  0.1982
  875SOL    HW1 2624   2.853   2.670   0.767 -1.0961  1.8036  1.9791
  875SOL    HW2 2625   2.728   2.666   0.873  0.1790 -2.3012 -1.2103
  876SOL     OW 2626   1.290   1.183   0.459 -0.7026  0.2875 -0.1379
  876SOL    HW1 2627   1.363   1.202   0.388  0.9505  2.0801 -0.2045
  876SOL    HW2 2628   1.198   1.182   0.416 -0.3734 -0.2216 -0.4667
  877SOL     OW 2629   2.804   0.322   0.907 -0.2761  0.0490 -0.2122
  877SOL    HW1 2630   2.829   0.225   0.917 -1.1510  0.6559  0.8432
  877SOL    HW2 2631   2.805   0.344   0.808  2.1931 -1.5028 -0.1103
  878SOL     OW 2632   2.210   1.522   0.302  0.1614 -0.1724  0.3264
  878SOL    HW1 2633   2.140   1.584   0.342  1.6074 -2.0284 -1.8421
  878SOL    HW2 2634   2.279   1.577   0.249 -0.2863 -0.5249 -1.2724
  879SOL     OW 2635   2.539   1.875   1.036 -0.1857  0.4451  0.2945
  879SOL    HW1 2636   2.495   1.923   0.956  0.6017 -0.2878 -0.4649
  879SOL    HW2 2637   2.634   1.854   1.017  0.1620 -0.2506  0.4932
  880SOL     OW 2638   0.263   2.543   0.861 -0.0425  0.2527 -0.0640
  880SOL    HW1 2639   0.169   2.576   0.892 -1.4572  0.9277 -1.5179
  880SOL    HW2 2640   0.258   2.515   0.762 -2.6704  0.2033  0.7889
  881SOL     OW 2641   1.128   0.959   0.748 -0.3138  0.5031  0.3533
  881SOL    HW1 2642   1.101   0.914   0.659 -1.7320 -1.1484  0.0535
  881SOL    HW2 2643   1.097   0.902   0.825  1.9179 -0.5553  1.0600
  882SOL     OW 2644   2.502   0.994   3.008  0.2005 -0.0611 -0.0609
  882SOL    HW1 2645   2.435   1.067   3.011 -0.1569 -0.5516 -0.2469
  882SOL    HW2 2646   2.558   1.000   2.924  3.0256  0.1291  1.5229
  883SOL     OW 2647   1.326   0.071   1.691  0.1406  0.1381 -0.4525
  883SOL    HW1 2648   1.254   0.030   1.752  1.3874  0.5451 -0.7438
  883SOL    HW2 2649   1.411   0.010   1.702 -0.0714 -2.5141  1.3357
  884SOL     OW 2650   2.907   0.059   0.858 -0.3403 -0.0846 -0.1127
  884SOL    HW1 2651   2.975   3.095   0.903  0.2260  1.5833 -0.7626
  884SOL    HW2 2652   2.905   0.048   0.753 -0.2160 -2.2721 -2.8351
  885SOL     OW 2653   1.228   0.978   1.321  0.5261 -0.3932  0.3289
  885SOL    HW1 2654   1.280   0.972   1.413  1.0207  1.0633  1.2438
  885SOL    HW2 2655   1.295   0.987   1.244  1.1653  1.8964 -0.8307
  886SOL     OW 2656   1.655   1.057   2.544 -0.6667  0.3080 -0.9198
  886SOL    HW1 2657   1.669   1.095   2.454 -1.4295  0.1023 -0.8734
  886SOL    HW2 2658   1.650   0.956   2.555  1.4276  0.4423  1.4787
  887SOL     OW 2659   1.549   0.644   1.049  0.0629 -0.7649 -0.1646
  887SOL    HW1 2660   1.467   0.668   0.990  0.6346 -1.6105  1.1592
  887SOL    HW2 2661   1.565   0.712   1.125  0.5434  0.9293 -0.2660
  888SOL     OW 2662   2.126   1.695   1.860 -0.2091 -0.1342 -0.2002
  888SOL    HW1 2663   2.138   1.595   1.867 -2.8688  1.2369  0.5412
  888SOL    HW2 2664   2.221   1.735   1.869  0.4577 -0.3892 -1.5983
  889SOL     OW 2665   2.030   2.196   0.680 -0.3464  0.6397  0.4091
  889SOL    HW1 2666   2.123   2.245   0.672  3.2912  2.3427 -0.8152
  889SOL    HW2 2667   1.964   2.227   0.750  0.7193 -0.9060 -0.0843
  890SOL     OW 2668   1.008   1.951   0.680 -0.0896 -0.2916 -0.0795
  890SOL    HW1 2669   1.070   1.889   0.634 -1.0619  1.3561  1.6054
  890SOL    HW2 2670   0.937   1.895   0.736 -1.6056 -0.8804  1.1435
  891SOL     OW 2671   2.561   0.593   2.452 -0.5449 -0.0080 -0.3383
  891SOL    HW1 2672   2.658   0.629   2.431  0.6564  0.0519 -1.6883
  891SOL    HW2 2673   2.553   0.499   2.416 -0.8350 -0.5307  2.4625
  892SOL     OW 2674   1.203   0.649   2.180  0.0696  0.2183 -0.3000
  892SOL    HW1 2675   1.227   0.648   2.282  0.3971 -2.5147  1.4246
  892SOL    HW2 2676   1.184   0.554   2.139  1.9072  0.2158  1.3713
  893SOL     OW 2677   1.610   0.388   1.372 -0.2127  0.1968  0.4179
  893SOL    HW1 2678   1.623   0.289   1.387  0.8077 -1.4543 -1.5910
  893SOL    HW2 2679   1.567   0.434   1.458 -1.4626  0.2417  1.9047
  894SOL     OW 2680   2.663   0.241   0.440 -0.0964 -0.2210 -0.3407
  894SOL    HW1 2681   2.616   0.154   0.448  0.3674  3.2223 -1.5843
  894SOL    HW2 2682   2.636   0.292   0.355  2.0327  0.1934  1.9198
  895SOL     OW 2683   2.050   2.648   2.927  0.5020  0.1380 -0.3067
  895SOL    HW1 2684   2.023   2.739   2.959 -0.6062 -2.1437  3.6680
  895SOL    HW2 2685   2.049   2.589   3.007  0.3636  2.5362 -1.6394
  896SOL     OW 2686   1.838   3.001   1.556  0.3777 -0.3523  0.1889
  896SOL    HW1 2687   1.883   3.051   1.480 -1.1233 -0.6602  2.4056
  896SOL    HW2 2688   1.755   2.954   1.518  1.1192  1.7765 -0.3966
  897SOL     OW 2689   0.058   2.240   1.751 -0.2361 -0.0589  0.1038
  897SOL    HW1 2690   0.112   2.298   1.693 -1.5578 -2.5469  0.5502
  897SOL    HW2 2691   0.120   2.181   1.807  0.8854 -1.0571 -1.2007
  898SOL     OW 2692   2.377   1.748   1.880  0.7876  0.0768 -0.2359
  898SOL    HW1 2693   2.453   1.682   1.862 -0.9589 -1.9279 -0.5902
  898SOL    HW2 2694   2.373   1.814   1.806 -0.9770  0.7336  0.5784
  899SOL     OW 2695   1.729   2.096   0.889 -0.2073  0.4792  0.3442
  899SOL    HW1 2696   1.772   2.186   0.872 -0.5031 -1.6023 -1.0147
  899SOL    HW2 2697   1.807   2.030   0.912  3.3421 -2.8573 -1.9031
  900SOL     OW 2698   1.031   0.178   2.942 -0.1507 -0.1629  0.0808
  900SOL    HW1 2699   0.949   0.117   2.937 -3.1593  3.8459  0.3628
  900SOL    HW2 2700   1.057   0.216   2.847 -2.4900  1.5796 -0.6469
  901SOL     OW 2701   1.169   1.610   2.380  1.0326 -0.6682 -0.0519
  901SOL    HW1 2702   1.259   1.627   2.435 -0.0001 -0.8163  1.7867
  901SOL    HW2 2703   1.142   1.696   2.327 -1.2979 -0.2565 -2.2626
  902SOL     OW 2704   2.892   0.592   2.739 -0.1494 -0.1837 -0.4262
  902SOL    HW1 2705   2.992   0.619   2.737  1.7104 -0.2910  0.0203
  902SOL    HW2 2706   2.878   0.499   2.782 -0.1920 -1.8145  1.5376
  903SOL     OW 2707   2.186   0.588   2.391  0.6106 -0.1206  0.1741
  903SOL    HW1 2708   2.189   0.674   2.443  1.0820 -0.8133  1.6131
  903SOL    HW2 2709   2.264   0.584   2.325 -1.3247  0.2957 -5.8745
  904SOL     OW 2710   1.528   0.836   2.330 -0.4199  0.4442 -0.1907
  904SOL    HW1 2711   1.613   0.793   2.371  2.5240  1.6541  2.5650
  904SOL    HW2 2712   1.539   0.937   2.311  1.7337  2.3916  2.0953
  905SOL     OW 2713   2.067   2.582   1.663 -0.6024  0.5118  0.0512
  905SOL    HW1 2714   2.029   2.500   1.618  0.1645  3.4978 -0.0380
  905SOL    HW2 2715   2.003   2.635   1.721 -1.5979  1.7442 -1.9716
  906SOL     OW 2716   1.571   1.973   0.440  0.2338  0.5518 -0.6708
  906SOL    HW1 2717   1.636   1.992   0.362  0.5960  0.4586 -0.4219
  906SOL    HW2 2718   1.506   2.051   0.450  1.3505 -1.1117  3.5624
  907SOL     OW 2719   1.209   2.895   0.905 -0.7505 -0.2692 -0.3798
  907SOL    HW1 2720   1.284   2.964   0.893  1.4594  1.1836  0.7491
  907SOL    HW2 2721   1.144   2.909   0.836 -0.6736  1.0075  2.9385
  908SOL     OW 2722   1.743   2.197   2.515  0.2134 -0.2813  0.0009
  908SOL    HW1 2723   1.837   2.236   2.528 -2.4448  1.1683  3.7392
  908SOL    HW2 2724   1.709   2.188   2.420 -0.8882 -3.2530  2.0709
  909SOL     OW 2725   2.118   0.504   1.982 -0.2171  0.3006 -0.2116
  909SOL    HW1 2726   2.023   0.497   2.014  0.0982 -1.2879 -1.5870
  909SOL    HW2 2727   2.174   0.528   2.063 -1.7173 -0.2248  0.6864
  910SOL     OW 2728   1.144   0.573   2.776 -0.3564 -0.5426 -0.6578
  910SOL    HW1 2729   1.098   0.655   2.737  1.1103  0.5218  0.7254
  910SOL    HW2 2730   1.107   0.556   2.868 -0.6920  0.8615  2.4457
  911SOL     OW 2731   0.063   0.765   0.156 -0.3794  0.4628 -0.3586
  911SOL    HW1 2732   0.063   0.866   0.137 -1.1536  0.3343  2.0775
  911SOL    HW2 2733   0.007   0.746   0.238 -0.6204 -0.3548  0.1634
  912SOL     OW 2734   0.090   2.490   0.515 -0.0591 -0.1357 -0.3536
  912SOL    HW1 2735   0.056   2.413   0.453  0.7611  0.9823 -1.9898
  912SOL    HW2 2736   0.177   2.468   0.560 -3.7971 -1.2595 -0.6002
  913SOL     OW 2737   2.751   2.237   2.344 -0.4778  0.9116  0.6847
  913SOL    HW1 2738   2.764   2.307   2.413 -2.4635  0.2518  1.7238
  913SOL    HW2 2739   2.768   2.144   2.376 -2.5840  0.5437  2.6194
  914SOL     OW 2740   1.387   2.108   1.365  0.2704 -0.0119  0.1223
  914SOL    HW1 2741   1.381   2.015   1.407 -1.6895 -1.2915 -1.5913
  914SOL    HW2 2742   1.410   2.096   1.267  1.5854  1.1544 -0.1207
  915SOL     OW 2743   0.352   2.703   2.203 -0.6099  0.1301  0.3462
  915SOL    HW1 2744   0.383   2.708   2.107 -2.4533 -0.0830  0.8094
  915SOL    HW2 2745   0.350   2.801   2.237 -1.2200  0.3648  0.0678
  916SOL     OW 2746   0.700   0.272   1.575  0.0970 -0.3993 -0.3954
  916SOL    HW1 2747   0.794   0.254   1.604 -2.0666  1.0964 -2.2187
  916SOL    HW2 2748   0.667   0.362   1.605 -0.2394 -2.7045  1.8709
  917SOL     OW 2749   2.661   0.673   0.324  0.0449  0.3499  0.2366
  917SOL    HW1 2750   2.743   0.619   0.290  1.1178 -1.1236 -0.6735
  917SOL    HW2 2751   2.572   0.627   0.295 -1.1638 -1.1274 -0.7503
  918SOL     OW 2752   1.747   2.295   2.899  0.1610 -0.2319 -0.0544
  918SOL    HW1 2753   1.807   2.366   2.856 -1.4399 -2.3242 -2.2655
  918SOL    HW2 2754   1.698   2.324   2.988 -2.3774  0.4524  1.2355
  919SOL     OW 2755   1.588   2.926   1.201 -0.1875 -0.4012 -0.2675
  919SOL    HW1 2756   1.613   3.023   1.188  1.1528  0.4168 -3.7643
  919SOL    HW2 2757   1.677   2.878   1.187 -1.2284  2.3092  0.7594
  920SOL     OW 2758   1.142   0.466   2.491 -0.3461  0.1099  0.6004
  920SOL    HW1 2759   1.109   0.464   2.586 -0.8420 -1.3182  2.0417
  920SOL    HW2 2760   1.205   0.543   2.477 -1.2066  0.9784 -2.0260
  921SOL     OW 2761   0.011   0.728   2.854  0.1048  0.1949  0.4090
  921SOL    HW1 2762   3.089   0.824   2.874 -0.1951 -0.8093 -1.2100
  921SOL    HW2 2763   0.073   0.696   2.932 -1.3279  0.8331 -0.7207
  922SOL     OW 2764   0.371   2.174   1.113  0.1119 -0.3608 -0.1522
  922SOL    HW1 2765   0.427   2.089   1.116  0.8931  0.8890 -3.0334
  922SOL    HW2 2766   0.400   2.229   1.032  2.4237  0.7098 -1.2003
  923SOL     OW 2767   0.593   1.525   1.850  0.2224 -0.2142  0.3088
  923SOL    HW1 2768   0.609   1.517   1.747  1.9113  0.4262  0.5521
  923SOL    HW2 2769   0.564   1.436   1.888  0.7867 -0.3402 -0.0031
  924SOL     OW 2770   1.633   2.646   2.754 -0.0884  0.0570  1.1214
  924SOL    HW1 2771   1.564   2.597   2.817  0.0027 -1.0476  0.9982
  924SOL    HW2 2772   1.670   2.726   2.801  1.9373  1.3971  0.4843
  925SOL     OW 2773   2.712   1.533   0.863 -0.1730 -0.4051  0.3490
  925SOL    HW1 2774   2.642   1.466   0.835 -0.3854  1.0055 -0.9487
  925SOL    HW2 2775   2.720   1.531   0.966  0.1193 -0.8834 -0.4286
  926SOL     OW 2776   2.090   0.646   1.161  0.0306  0.6197 -0.1922
  926SOL    HW1 2777   2.164   0.663   1.227 -0.0474  1.6149  1.4422
  926SOL    HW2 2778   2.017   0.588   1.203 -1.1563 -3.4002  0.2221
  927SOL     OW 2779   2.016   3.094   1.366  0.0274 -0.1081  0.2673
  927SOL    HW1 2780   2.034   0.092   1.370  2.8081 -0.0212 -0.5353
  927SOL    HW2 2781   2.052   3.054   1.277  0.5500  1.5336 -0.5692
  928SOL     OW 2782   0.347   1.122   2.308  0.2641  0.0468  0.4233
  928SOL    HW1 2783   0.342   1.209   2.257 -1.0610 -2.0019  0.2714
  928SOL    HW2 2784   0.310   1.042   2.256  1.6159 -0.1148  0.7529
  929SOL     OW 2785   2.402   0.902   1.479 -0.3082  0.3826  0.9734
  929SOL    HW1 2786   2.324   0.958   1.443  1.0380  0.4872  0.0927
  929SOL    HW2 2787   2.481   0.962   1.495 -0.0431 -1.9281 -2.7584
  930SOL     OW 2788   2.698   2.529   1.928 -0.1678  0.3512  0.6458
  930SOL    HW1 2789   2.792   2.509   1.949 -3.2846  1.3672  1.6535
  930SOL    HW2 2790   2.628   2.466   1.968 -0.9315  0.0284 -1.6754
  931SOL     OW 2791   1.679   1.022   1.417  0.3255  0.5627  0.1585
  931SOL    HW1 2792   1.648   1.050   1.513 -0.3422 -0.4995  2.1243
  931SOL    HW2 2793   1.675   1.107   1.352  0.6928  2.4581 -0.6677
  932SOL     OW 2794   0.557   1.240   1.956  0.7323 -0.4420 -0.0050
  932SOL    HW1 2795   0.598   1.216   2.043 -0.8011 -1.7195  0.6213
  932SOL    HW2 2796   0.623   1.232   1.883  0.1946 -2.7618  0.1776
  933SOL     OW 2797   2.697   1.954   1.607 -0.0490  0.4038  0.2219
  933SOL    HW1 2798   2.707   2.010   1.524 -2.4042 -2.2449 -1.1423
  933SOL    HW2 2799   2.777   1.897   1.626 -1.4255  0.1640  2.0874
  934SOL     OW 2800   0.525   2.105   1.914 -0.1199  0.4348 -0.1948
  934SOL    HW1 2801   0.582   2.068   1.993  1.6067 -2.5047 -2.6857
  934SOL    HW2 2802   0.572   2.106   1.823  1.0869 -0.9234 -0.7804
  935SOL     OW 2803   3.059   1.609   1.510 -0.0724  0.1877  0.1166
  935SOL    HW1 2804   3.035   1.700   1.557  0.3504 -0.0285  0.4505
  935SOL    HW2 2805   0.024   1.555   1.561  0.0981  2.8191  0.2867
  936SOL     OW 2806   2.835   1.249   1.283 -0.3321  0.0045  0.1528
  936SOL    HW1 2807   2.804   1.154   1.298 -0.2856 -0.0566 -0.1593
  936SOL    HW2 2808   2.896   1.265   1.205 -1.4533  0.0492  0.1367
  937SOL     OW 2809   1.959   0.440   1.327 -0.3169  0.6647 -0.3889
  937SOL    HW1 2810   2.021   0.360   1.310 -0.4033 -2.1858 -1.4792
  937SOL    HW2 2811   1.873   0.420   1.279 -0.0357  0.5540 -0.9831
  938SOL     OW 2812   0.416   2.820   0.177 -0.5663 -0.4109  0.1231
  938SOL    HW1 2813   0.348   2.792   0.250  0.5223  0.3047  1.1691
  938SOL    HW2 2814   0.374   2.799   0.084 -1.6817 -1.5313 -1.8779
  939SOL     OW 2815   2.864   2.019   2.490 -0.3757  0.1192  0.3895
  939SOL    HW1 2816   2.873   1.933   2.447  3.4882 -0.0917 -0.8315
  939SOL    HW2 2817   2.811   2.017   2.580 -4.0129  0.0700  1.1621
  940SOL     OW 2818   1.680   1.776   0.609  0.4983 -0.2837  0.0517
  940SOL    HW1 2819   1.595   1.721   0.601  1.5293  0.8222 -1.3605
  940SOL    HW2 2820   1.673   1.829   0.527  0.9189  0.6232  1.7388
  941SOL     OW 2821   2.159   2.560   0.093 -0.4404  0.2781 -0.1062
  941SOL    HW1 2822   2.105   2.560   0.180  0.1815 -2.7816  1.2848
  941SOL    HW2 2823   2.214   2.645   0.081 -1.1529  0.2499 -0.9810
  942SOL     OW 2824   1.939   2.240   1.099  0.4852 -0.5804 -0.0937
  942SOL    HW1 2825   1.841   2.233   1.128  2.8215  2.4877 -0.3336
  942SOL    HW2 2826   1.955   2.338   1.082 -1.1022 -3.8872 -1.1945
  943SOL     OW 2827   2.174   1.087   1.690  0.4510 -0.0031  0.3411
  943SOL    HW1 2828   2.188   1.055   1.595  0.4478 -0.1951  6.9639
  943SOL    HW2 2829   2.261   1.120   1.738 -2.2722  0.2126  0.1356
  944SOL     OW 2830   1.438   0.765   2.078 -0.0289 -0.0017  0.0090
  944SOL    HW1 2831   1.488   0.791   2.164  2.1149 -1.4294 -3.0367
  944SOL    HW2 2832   1.346   0.745   2.103  3.5924 -0.7726 -0.0056
  945SOL     OW 2833   2.389   2.453   1.426  0.0528 -0.4040 -0.1723
  945SOL    HW1 2834   2.477   2.417   1.451 -2.4105 -0.8371  0.2803
  945SOL    HW2 2835   2.318   2.405   1.484 -0.1491 -1.2350  2.6783
  946SOL     OW 2836   0.238   0.878   0.681  0.1531  0.4683 -0.1491
  946SOL    HW1 2837   0.216   0.952   0.750 -1.3087  2.1297  1.5323
  946SOL    HW2 2838   0.295   0.812   0.736 -2.4485 -0.2257  0.9249
  947SOL     OW 2839   1.920   2.722   1.458 -0.4075  0.0888 -0.0556
  947SOL    HW1 2840   1.877   2.679   1.537 -0.0667  3.3680  0.8200
  947SOL    HW2 2841   1.936   2.819   1.473 -0.5574  1.1914  1.3935
  948SOL     OW 2842   0.462   1.715   0.795 -0.6076 -0.0242 -0.4901
  948SOL    HW1 2843   0.376   1.679   0.836  1.0806 -0.3201 -0.2027
  948SOL    HW2 2844   0.537   1.639   0.787 -0.2664 -2.8325  0.4899
  949SOL     OW 2845   1.145   1.260   1.207 -0.3003  0.0054 -0.6102
  949SOL    HW1 2846   1.102   1.247   1.116  2.1215 -2.5259 -1.1045
  949SOL    HW2 2847   1.175   1.169   1.243  0.6338  0.7812  0.0776
  950SOL     OW 2848   0.360   0.739   1.108 -0.1778  0.0921  0.3119
  950SOL    HW1 2849   0.458   0.726   1.103  1.4440  1.3620  0.8804
  950SOL    HW2 2850   0.348   0.817   1.176  0.5983  1.3442 -3.3403
  951SOL     OW 2851   0.806   2.102   2.310  0.1191 -0.7641  0.2795
  951SOL    HW1 2852   0.746   2.176   2.277  0.2840  1.8477  2.0092
  951SOL    HW2 2853   0.883   2.133   2.369 -0.5867 -0.9737 -0.8431
  952SOL     OW 2854   1.387   1.451   0.042 -0.2490  0.0084  0.8176
  952SOL    HW1 2855   1.453   1.531   0.047 -0.7712  0.9682 -0.5742
  952SOL    HW2 2856   1.290   1.482   0.031 -1.9304 -3.1856 -0.8137
  953SOL     OW 2857   1.138   3.000   3.007  0.0019  0.0498 -0.1382
  953SOL    HW1 2858   1.179   2.980   0.001 -0.8898  1.8045 -1.8977
  953SOL    HW2 2859   1.144   0.002   2.993  0.3098  2.3331  0.0592
  954SOL     OW 2860   1.867   1.151   0.224 -0.4572  0.3266 -0.2266
  954SOL    HW1 2861   1.799   1.078   0.232 -0.3651  2.3847  1.4390
  954SOL    HW2 2862   1.896   1.178   0.319  0.6001  1.2195  0.4451
  955SOL     OW 2863   0.089   2.665   2.975 -0.2956 -0.7400 -0.2015
  955SOL    HW1 2864   0.167   2.709   3.019 -2.6726 -1.4110 -1.1906
  955SOL    HW2 2865   0.119   2.577   2.928 -2.9488 -3.6508 -0.3700
  956SOL     OW 2866   1.249   0.719   1.135  0.3105  0.6216  0.6169
  956SOL    HW1 2867   1.233   0.773   1.218  2.5213  0.1902 -2.1544
  956SOL    HW2 2868   1.262   0.619   1.162  0.6553 -1.4113  1.1112
  957SOL     OW 2869   0.976   1.434   1.418 -0.0658  0.1079 -0.2995
  957SOL    HW1 2870   0.953   1.525   1.383  0.6403 -1.1889  0.7389
  957SOL    HW2 2871   1.037   1.389   1.350  0.9388  1.4374  0.0243
  958SOL     OW 2872   0.584   1.934   0.690 -0.0795  0.3880  0.4618
  958SOL    HW1 2873   0.542   1.855   0.737 -2.3852  1.6334  0.6533
  958SOL    HW2 2874   0.618   1.911   0.595  1.4701  0.2079  0.5860
  959SOL     OW 2875   1.534   1.267   1.076 -0.1716  0.0728  0.5700
  959SOL    HW1 2876   1.504   1.282   0.980 -1.4121 -0.8277  3.4131
  959SOL    HW2 2877   1.482   1.333   1.134  0.8097 -0.5713 -2.5543
  960SOL     OW 2878   0.212   1.088   3.058 -0.2772 -0.1976  0.1852
  960SOL    HW1 2879   0.138   1.112   2.992  1.2939 -0.1235 -0.2646
  960SOL    HW2 2880   0.263   1.010   3.011  1.5400  1.6320 -1.5971
  961SOL     OW 2881   0.833   1.534   1.047  0.2334 -0.4162 -0.0238
  961SOL    HW1 2882   0.768   1.556   0.971  1.2123  0.6648  0.2666
  961SOL    HW2 2883   0.931   1.519   1.024 -2.5728 -0.8271 -2.7954
  962SOL     OW 2884   0.844   1.062   0.658  0.0594 -0.4582  0.0245
  962SOL    HW1 2885   0.824   1.145   0.597 -0.7379  1.3215 -1.7788
  962SOL    HW2 2886   0.886   1.095   0.748  3.0189  0.2849  3.2053
  963SOL     OW 2887   1.398   1.730   2.503  0.6992  0.5993 -0.0813
  963SOL    HW1 2888   1.485   1.737   2.450 -0.1087 -2.5401 -0.1819
  963SOL    HW2 2889   1.413   1.686   2.595 -1.7705  0.2270  2.9059
  964SOL     OW 2890   0.618   2.544   2.804 -0.0477  0.3026 -0.3105
  964SOL    HW1 2891   0.651   2.460   2.753  0.7535  1.7990 -1.5300
  964SOL    HW2 2892   0.671   2.549   2.894  1.3211 -1.5120 -0.9089
  965SOL     OW 2893   0.362   2.466   0.149  0.0522  0.9290  0.0787
  965SOL    HW1 2894   0.435   2.537   0.134 -0.0334 -0.8929 -2.0933
  965SOL    HW2 2895   0.337   2.431   0.058  0.9377 -0.7820 -1.4620
  966SOL     OW 2896   2.968   1.646   2.643 -0.6289  0.5770 -0.0769
  966SOL    HW1 2897   2.909   1.564   2.665 -0.5947 -1.7326 -1.4877
  966SOL    HW2 2898   2.967   1.719   2.720  2.8349 -1.7774 -1.0208
  967SOL     OW 2899   2.328   0.027   2.718 -0.3422 -1.1450 -0.0154
  967SOL    HW1 2900   2.251   3.087   2.665 -0.1442 -0.0712 -1.1706
  967SOL    HW2 2901   2.309   0.015   2.820 -0.1523 -0.2334  2.0365
  968SOL     OW 2902   2.294   0.089   0.175  0.6761  0.1982 -0.6239
  968SOL    HW1 2903   2.303   0.140   0.263  0.2455  0.5829 -1.0381
  968SOL    HW2 2904   2.370   0.113   0.116  0.0144  0.4333  0.8188
  969SOL     OW 2905   0.307   1.346   2.142  0.4576  0.2699  0.4819
  969SOL    HW1 2906   0.298   1.306   2.048 -0.9525  0.4574  0.0034
  969SOL    HW2 2907   0.384   1.415   2.132  1.1940  0.0180 -0.6421
  970SOL     OW 2908   1.471   1.337   0.822  0.3996 -0.6156 -0.1656
  970SOL    HW1 2909   1.556   1.311   0.774 -1.6169  1.2669  1.6564
  970SOL    HW2 2910   1.390   1.297   0.776 -1.2056 -0.4158  2.2482
  971SOL     OW 2911   2.281   0.134   1.127 -0.0584 -0.1340  0.5993
  971SOL    HW1 2912   2.369   0.138   1.177 -1.1304  2.1251 -0.1115
  971SOL    HW2 2913   2.300   0.154   1.031 -0.7913 -1.6875  3.4663
  972SOL     OW 2914   0.417   2.881   1.509 -0.1589  0.9116  0.3756
  972SOL    HW1 2915   0.439   2.859   1.411  0.1278  0.7753 -1.1193
  972SOL    HW2 2916   0.451   2.974   1.523  1.0761 -0.9095  2.1118
  973SOL     OW 2917   0.370   0.366   2.843 -0.2222 -0.2591 -0.0542
  973SOL    HW1 2918   0.408   0.447   2.797 -0.5139  0.1302 -0.3771
  973SOL    HW2 2919   0.288   0.333   2.795  0.0112  2.9868  0.3877
  974SOL     OW 2920   2.241   1.434   1.934  0.5505 -0.0567  0.2833
  974SOL    HW1 2921   2.156   1.407   1.980  0.7098  0.5638  0.4505
  974SOL    HW2 2922   2.317   1.454   2.003  0.9207  0.1321  2.5256
  975SOL     OW 2923   0.072   0.097   1.113  0.4379 -0.7126 -0.2507
  975SOL    HW1 2924   0.158   0.048   1.111  0.6628 -2.8891  0.5848
  975SOL    HW2 2925   0.000   0.035   1.087  2.6998  2.5939  0.8654
  976SOL     OW 2926   0.640   1.962   2.484 -0.6969 -0.1239 -0.5633
  976SOL    HW1 2927   0.694   1.914   2.555  0.3327 -2.2660 -0.2468
  976SOL    HW2 2928   0.698   2.034   2.440  0.9171 -0.5327 -0.7156
  977SOL     OW 2929   0.873   2.366   0.539  0.3196 -0.0583  0.1253
  977SOL    HW1 2930   0.799   2.413   0.594  0.3156 -0.0526  1.8204
  977SOL    HW2 2931   0.840   2.350   0.444  1.4206  3.0624  0.9499
  978SOL     OW 2932   3.063   1.258   2.329 -0.1919 -0.1633 -0.0192
  978SOL    HW1 2933   0.003   1.240   2.239 -1.2551  0.4761  2.8218
  978SOL    HW2 2934   2.997   1.329   2.310  0.2771 -0.3012  1.0304
  979SOL     OW 2935   1.550   2.953   1.477  0.4975 -0.6222 -0.4919
  979SOL    HW1 2936   1.526   2.942   1.377  2.4436  0.1616  0.7273
  979SOL    HW2 2937   1.492   2.903   1.544  1.5943  0.1348  0.9208
  980SOL     OW 2938   1.225   1.375   2.261  0.2367  0.2493  0.5201
  980SOL    HW1 2939   1.161   1.311   2.308  0.7404  0.1447 -1.1448
  980SOL    HW2 2940   1.218   1.461   2.313  1.8691 -1.1650  2.0665
  981SOL     OW 2941   2.608   0.281   1.738 -0.0421  0.6030 -0.5013
  981SOL    HW1 2942   2.534   0.345   1.721  1.6878 -2.6975  0.7037
  981SOL    HW2 2943   2.574   0.186   1.764 -1.4694  0.6171  1.2448
  982SOL     OW 2944   0.082   0.393   2.804  0.2750  0.6707  0.0686
  982SOL    HW1 2945   3.098   0.333   2.817  0.4493 -1.2218  0.9966
  982SOL    HW2 2946   0.083   0.470   2.875 -1.0941  1.5972 -0.9652
  983SOL     OW 2947   2.430   0.857   2.285 -0.0301  0.0915  0.6678
  983SOL    HW1 2948   2.347   0.880   2.344 -0.6143  0.7541  0.7375
  983SOL    HW2 2949   2.484   0.780   2.329  2.7834 -1.9057  3.3929
  984SOL     OW 2950   0.960   0.019   2.078 -0.4306  0.1726  0.2345
  984SOL    HW1 2951   1.002   3.093   2.167 -1.0943  3.8215 -2.3420
  984SOL    HW2 2952   0.877   3.065   2.060  1.9879 -1.1709 -1.0655
  985SOL     OW 2953   1.917   1.661   1.663  0.5438  0.0268  0.1484
  985SOL    HW1 2954   1.928   1.561   1.645 -1.6523 -0.4649 -1.0009
  985SOL    HW2 2955   1.980   1.692   1.738 -1.1730 -0.2779  0.6267
  986SOL     OW 2956   2.493   0.704   1.707 -0.1364 -0.2104 -0.7040
  986SOL    HW1 2957   2.587   0.686   1.675  0.2760 -1.3553  0.2389
  986SOL    HW2 2958   2.465   0.796   1.667 -1.3264 -0.2825 -2.0101
  987SOL     OW 2959   2.739   0.996   1.277 -0.4601  0.5058 -0.1494
  987SOL    HW1 2960   2.794   0.918   1.304 -0.4246 -1.2029  1.2691
  987SOL    HW2 2961   2.648   0.974   1.244  0.2706  0.7877 -0.8037
  988SOL     OW 2962   0.293   0.998   1.937  0.4170 -0.1232  0.0004
  988SOL    HW1 2963   0.285   1.098   1.915  0.1282 -1.1664  1.0046
  988SOL    HW2 2964   0.316   0.938   1.857 -0.3627 -0.5469 -2.3320
  989SOL     OW 2965   1.989   1.668   0.363 -0.5321 -0.1589 -0.5276
  989SOL    HW1 2966   2.029   1.760   0.352 -1.0511 -0.2352 -0.8422
  989SOL    HW2 2967   1.909   1.656   0.299 -1.4394 -2.7276 -0.8043
  990SOL     OW 2968   0.915   0.673   2.197  0.2044 -0.4818 -0.3636
  990SOL    HW1 2969   0.987   0.617   2.240 -0.6461  3.0214 -0.7983
  990SOL    HW2 2970   0.939   0.719   2.107  0.1777 -0.4241 -0.5016
  991SOL     OW 2971   1.251   1.200   0.738  0.5318 -0.0366  0.1775
  991SOL    HW1 2972   1.207   1.113   0.776 -0.4676 -0.1076  1.4157
  991SOL    HW2 2973   1.262   1.200   0.637  0.2692 -0.9797 -2.4832
  992SOL     OW 2974   2.116   0.910   0.476 -0.0743  0.9933  0.6347
  992SOL    HW1 2975   2.214   0.916   0.507  0.8808 -0.6664  0.8411
  992SOL    HW2 2976   2.054   0.941   0.547 -0.4106  0.2299 -0.3767
  993SOL     OW 2977   2.998   0.929   0.732 -0.2530 -0.1065 -0.3265
  993SOL    HW1 2978   2.966   0.898   0.820 -0.5901 -1.9176 -2.7183
  993SOL    HW2 2979   3.072   0.866   0.701  2.3191  1.2019 -0.6909
  994SOL     OW 2980   0.035   2.162   2.523  0.4307  0.0677 -0.0543
  994SOL    HW1 2981   3.041   2.127   2.497 -3.4373 -1.2675  1.0663
  994SOL    HW2 2982   0.076   2.099   2.592 -1.3306  1.9508 -0.9556
  995SOL     OW 2983   1.809   1.248   2.672  0.1924 -0.1833  0.0272
  995SOL    HW1 2984   1.768   1.159   2.643  0.5015 -1.4560 -0.8461
  995SOL    HW2 2985   1.808   1.256   2.776 -0.8049 -1.6165  0.5246
  996SOL     OW 2986   2.555   1.205   0.344  0.1427 -0.0178 -0.0517
  996SOL    HW1 2987   2.473   1.256   0.312  1.3941  1.6695  1.1021
  996SOL    HW2 2988   2.586   1.134   0.277 -1.2484  1.9784 -0.1594
  997SOL     OW 2989   1.985   1.239   1.820  0.4752  0.5191  0.4264
  997SOL    HW1 2990   2.058   1.180   1.780  1.5218  0.4467  1.5906
  997SOL    HW2 2991   1.993   1.244   1.921  0.0235  1.9828  2.4761
  998SOL     OW 2992   2.562   1.829   0.335 -0.0921 -0.4020  0.0412
  998SOL    HW1 2993   2.466   1.828   0.303  3.6096  0.3043 -0.9928
  998SOL    HW2 2994   2.597   1.755   0.394  0.5544 -0.0299 -0.2007
  999SOL     OW 2995   2.855   2.303   0.018 -0.1508 -0.4429 -0.0335
  999SOL    HW1 2996   2.844   2.303   0.120  2.7947 -0.3872  1.1042
  999SOL    HW2 2997   2.825   2.391   3.079  0.5450 -0.8169 -1.6269
 1000SOL     OW 2998   1.054   0.888   1.948 -0.1372  0.4269  0.6405
 1000SOL    HW1 2999   1.084   0.790   1.939 -0.1940  4.1387  0.2782
 1000SOL    HW2 3000   1.109   0.944   1.884 -0.9833  1.4593  1.0845
   3.10043   3.10043   3.10043
