1000 SPC/Fw water molecules t= 106.00000 step= 106000
 3000
    1SOL     OW    1   1.920   2.427   0.686 -0.8050 -0.1363  0.3350
    1SOL    HW1    2   1.824   2.420   0.726 -0.2779 -0.4592 -0.4574
    1SOL    HW2    3   1.985   2.463   0.758  0.6324  0.3301  0.6417
    2SOL     OW    4   1.178   1.365   2.293  0.4901  0.1540  0.3417
    2SOL    HW1    5   1.109   1.310   2.347  2.1249  0.2916  3.0510
    2SOL    HW2    6   1.140   1.394   2.202  2.6741 -0.6753  4.0658
    3SOL     OW    7   1.599   2.387   2.419  0.3514  0.7461 -0.1772
    3SOL    HW1    8   1.631   2.341   2.335 -1.1986 -0.6895 -3.0598
    3SOL    HW2    9   1.492   2.400   2.423  2.1635 -0.9456 -0.1038
    4SOL     OW   10   1.118   2.146   1.964 -0.6637 -0.1614  0.0130
    4SOL    HW1   11   1.206   2.162   2.008 -1.4733  2.7087 -1.7902
    4SOL    HW2   12   1.088   2.233   1.914 -1.3727  2.1918 -0.7015
    5SOL     OW   13   0.558   0.830   1.561  0.1402  0.5465 -0.4787
    5SOL    HW1   14   0.637   0.852   1.625  1.0169  3.1875  1.7350
    5SOL    HW2   15   0.512   0.749   1.607  0.5496  3.1868 -1.2449
    6SOL     OW   16   2.163   0.734   2.882 -0.5345 -0.2406  0.0002
    6SOL    HW1   17   2.075   0.684   2.895 -1.2922 -2.5122 -0.1513
    6SOL    HW2   18   2.242   0.668   2.867  0.9222 -0.1560 -0.8455
    7SOL     OW   19   0.610   0.222   1.488 -0.8487  0.0427  0.6159
    7SOL    HW1   20   0.632   0.186   1.578  1.9564  0.3563  0.7824
    7SOL    HW2   21   0.633   0.323   1.485  0.5374  1.7737  1.6135
    8SOL     OW   22   1.785   0.085   1.686 -0.1222  0.0975  0.1053
    8SOL    HW1   23   1.785   0.175   1.630 -0.2128  1.1147 -2.1229
    8SOL    HW2   24   1.721   0.018   1.648  0.3049  0.0388  0.4130
    9SOL     OW   25   0.318   0.562   0.472 -0.1763 -0.7104 -0.0896
    9SOL    HW1   26   0.285   0.495   0.541 -2.2923  1.7659 -1.6644
    9SOL    HW2   27   0.318   0.654   0.520  0.3707 -1.2616 -0.3517
   10SOL     OW   28   0.864   2.409   2.456  0.5529 -0.0069  0.3223
   10SOL    HW1   29   0.875   2.349   2.541 -0.0520  0.5898  3.3015
   10SOL    HW2   30   0.768   2.455   2.453 -2.4109 -0.1440 -1.0081
   11SOL     OW   31   0.762   1.696   0.063  0.0758 -0.7513 -0.3263
   11SOL    HW1   32   0.659   1.705   0.065  0.6730 -1.0701 -1.9870
   11SOL    HW2   33   0.800   1.672   0.156 -0.5957 -1.6459 -0.9023
   12SOL     OW   34   0.219   2.927   1.335  0.6736  0.2511  0.2943
   12SOL    HW1   35   0.133   2.947   1.382 -0.3317 -0.8905  0.9467
   12SOL    HW2   36   0.220   2.832   1.289 -0.8956 -0.8896  2.1170
   13SOL     OW   37   0.714   2.940   0.180  0.2866 -0.1975 -0.0856
   13SOL    HW1   38   0.770   2.879   0.119 -2.2977 -1.4801  0.2161
   13SOL    HW2   39   0.718   3.032   0.137  1.5063 -0.9999  2.2536
   14SOL     OW   40   1.685   1.936   0.665  0.2462 -0.7265 -0.2530
   14SOL    HW1   41   1.642   1.859   0.725 -0.2560 -3.7325  2.5483
   14SOL    HW2   42   1.787   1.924   0.645  1.5537 -0.4818 -0.6486
   15SOL     OW   43   2.980   1.595   2.279 -0.6072 -0.6667  0.0076
   15SOL    HW1   44   3.078   1.563   2.274  2.5027 -2.3511 -1.1631
   15SOL    HW2   45   2.947   1.633   2.195 -1.7760 -0.0600  2.6359
   16SOL     OW   46   1.528   0.102   2.867  0.3834  0.5981  0.5405
   16SOL    HW1   47   1.443   0.127   2.814  0.4153 -0.7022  0.7278
   16SOL    HW2   48   1.559   0.005   2.842 -0.9062 -1.1337 -3.8848
   17SOL     OW   49   0.512   2.339   2.139  0.1578  0.0885 -0.5426
   17SOL    HW1   50   0.613   2.351   2.151  0.9996 -1.2348  0.3497
   17SOL    HW2   51   0.469   2.317   2.228  1.0965  1.6581 -1.1439
   18SOL     OW   52   1.442   1.197   0.635 -0.4800  0.4272 -0.2332
   18SOL    HW1   53   1.541   1.218   0.661  4.5987 -2.4016  0.7051
   18SOL    HW2   54   1.430   1.097   0.624 -0.4369 -0.5488  1.0189
   19SOL     OW   55   2.639   1.614   2.384  0.2758 -0.1674 -0.3611
   19SOL    HW1   56   2.546   1.608   2.429 -1.9314 -1.3527  1.9166
   19SOL    HW2   57   2.714   1.646   2.444 -2.9226 -0.9021  0.9048
   20SOL     OW   58   2.643   2.124   2.327 -0.6112 -0.2812 -0.8097
   20SOL    HW1   59   2.653   2.158   2.234 -1.7083 -5.7823  0.8125
   20SOL    HW2   60   2.658   2.198   2.395 -0.3983 -1.0309  0.8094
   21SOL     OW   61   0.820   2.197   0.221  0.1339  0.1586  0.1396
   21SOL    HW1   62   0.831   2.283   0.161 -0.0676 -0.8315  0.3335
   21SOL    HW2   63   0.790   2.119   0.165  1.8274 -0.1706  0.8044
   22SOL     OW   64   2.054   2.333   1.509  0.1923  0.5255  0.0967
   22SOL    HW1   65   2.091   2.363   1.419 -1.4765 -2.6455  1.3098
   22SOL    HW2   66   2.070   2.402   1.584 -0.1041 -0.4603  3.0685
   23SOL     OW   67   0.347   1.011   1.620 -0.4843 -0.4920 -0.4260
   23SOL    HW1   68   0.361   1.080   1.691 -0.6712 -1.5955 -0.2010
   23SOL    HW2   69   0.425   0.946   1.619 -0.1512  0.8934 -0.3232
   24SOL     OW   70   2.224   1.846   1.915  0.2347 -0.0589 -0.2295
   24SOL    HW1   71   2.147   1.794   1.957 -1.9288 -1.5841 -1.1111
   24SOL    HW2   72   2.315   1.817   1.940 -3.3740  0.0977 -1.5531
   25SOL     OW   73   1.834   0.426   2.491 -0.3551  0.3361  0.0186
   25SOL    HW1   74   1.831   0.328   2.449 -3.8768 -1.9664  0.9706
   25SOL    HW2   75   1.790   0.419   2.585  2.5454 -0.4225 -1.0021
   26SOL     OW   76   1.301   0.132   0.648  0.0637  0.1061  0.2316
   26SOL    HW1   77   1.328   0.067   0.574 -0.5824 -0.6549 -2.5059
   26SOL    HW2   78   1.333   0.226   0.631  0.0238 -1.9814  1.6607
   27SOL     OW   79   0.868   1.632   0.307  0.3452  0.6135  0.0173
   27SOL    HW1   80   0.898   1.710   0.366  0.0812 -0.4357  0.0902
   27SOL    HW2   81   0.888   1.545   0.361  1.8650  0.8774  0.6809
   28SOL     OW   82   2.525   1.765   1.204  0.0236 -0.3024  0.1622
   28SOL    HW1   83   2.479   1.735   1.288 -2.6654  3.4059 -1.3920
   28SOL    HW2   84   2.452   1.810   1.146  1.2883  3.0267 -1.8627
   29SOL     OW   85   2.205   2.694   1.694 -0.3173  0.1483 -0.1231
   29SOL    HW1   86   2.197   2.775   1.759 -0.3271  1.8289  0.0427
   29SOL    HW2   87   2.300   2.654   1.696  1.3832 -0.3198  0.6023
   30SOL     OW   88   0.815   2.902   1.172  0.2206 -0.7204 -0.3906
   30SOL    HW1   89   0.872   2.947   1.097  1.0007  0.2810 -0.5745
   30SOL    HW2   90   0.797   2.977   1.242  0.4160  1.7075  1.7715
   31SOL     OW   91   2.876   2.232   1.907 -0.6279 -0.2943 -0.1515
   31SOL    HW1   92   2.971   2.255   1.880 -1.0334 -3.1852  0.1328
   31SOL    HW2   93   2.861   2.236   2.008 -1.0971 -0.4756 -2.2441
   32SOL     OW   94   1.580   1.328   1.979  0.6630 -0.7805 -0.5408
   32SOL    HW1   95   1.495   1.386   1.963  0.3337 -0.6466  0.0384
   32SOL    HW2   96   1.563   1.232   1.949 -1.1141  3.0763  0.6958
   33SOL     OW   97   0.187   3.073   2.740 -0.2293 -0.1349  0.3271
   33SOL    HW1   98   0.182   2.995   2.674  1.4354 -2.1540  0.5444
   33SOL    HW2   99   0.120   3.065   2.815 -0.4516 -0.0893 -2.0545
   34SOL     OW  100   2.147   0.074   1.016 -0.3468 -0.7247  0.3062
   34SOL    HW1  101   2.221   0.069   0.946  0.3399  1.3009  1.1589
   34SOL    HW2  102   2.185   0.101   1.106  1.8436  1.3873  1.7856
   35SOL     OW  103   2.203   0.096   1.305  0.3011 -0.2138 -0.5144
   35SOL    HW1  104   2.202   3.075   1.330 -1.7351 -1.3545  0.4301
   35SOL    HW2  105   2.157   0.151   1.379  2.0852  2.0289  0.6659
   36SOL     OW  106   2.443   2.894   2.445 -0.3668  0.1257 -0.5920
   36SOL    HW1  107   2.346   2.867   2.464  0.4265 -0.9725  1.1932
   36SOL    HW2  108   2.505   2.835   2.496  0.7634 -0.1076 -2.4303
   37SOL     OW  109   1.079   2.672   0.038  0.4801 -0.3304 -1.0836
   37SOL    HW1  110   1.119   2.765   0.029 -1.9634 -0.6652 -1.3740
   37SOL    HW2  111   1.136   2.616   0.100 -0.5068  5.5756 -3.1855
   38SOL     OW  112   2.688   1.098   2.860 -0.6155 -0.6865  0.6352
   38SOL    HW1  113   2.786   1.072   2.874 -0.3812 -2.4182 -0.5094
   38SOL    HW2  114   2.638   1.051   2.932  3.1693  3.1014 -1.1036
   39SOL     OW  115   2.093   2.111   2.098 -0.4337  0.2882  0.3802
   39SOL    HW1  116   2.135   2.019   2.089 -2.2434  0.6479 -1.5186
   39SOL    HW2  117   2.079   2.138   2.194  0.0925 -2.7640 -0.3417
   40SOL     OW  118   0.722   0.260   2.870 -0.2660  0.0227  0.3324
   40SOL    HW1  119   0.672   0.190   2.926  1.6996  0.4732 -1.8491
   40SOL    HW2  120   0.726   0.221   2.776 -0.4518  0.2762  2.6303
   41SOL     OW  121   1.429   1.277   1.560 -0.1427  0.0967 -0.9711
   41SOL    HW1  122   1.493   1.323   1.625 -1.0603  3.3765 -0.2393
   41SOL    HW2  123   1.333   1.294   1.587  3.0994 -1.4097  0.7301
   42SOL     OW  124   0.123   0.258   2.027  0.6126 -0.2929  0.3583
   42SOL    HW1  125   0.078   0.290   1.942 -2.6689  0.1023 -2.2379
   42SOL    HW2  126   0.213   0.296   2.042  1.8401 -2.2339  0.1470
   43SOL     OW  127   1.770   1.275   2.162 -0.6977  0.0198  0.1948
   43SOL    HW1  128   1.748   1.281   2.261  1.8427 -1.7022 -2.4756
   43SOL    HW2  129   1.689   1.289   2.103  2.2749 -0.7633  1.7526
   44SOL     OW  130   0.002   3.036   2.931 -0.1607 -0.0013  0.0439
   44SOL    HW1  131   3.058   0.003   3.020  0.8527 -1.5852  1.9871
   44SOL    HW2  132   0.044   2.942   2.948 -0.3449  0.6298 -1.3258
   45SOL     OW  133   0.736   1.957   1.138  0.0444  0.3602  0.2801
   45SOL    HW1  134   0.745   2.060   1.131 -1.4914 -1.7408 -2.3900
   45SOL    HW2  135   0.659   1.937   1.204  0.6660  2.5698  1.5741
   46SOL     OW  136   2.473   2.656   1.802 -0.5905 -0.5675  0.1756
   46SOL    HW1  137   2.535   2.734   1.787  2.0737  0.9413  1.2869
   46SOL    HW2  138   2.533   2.572   1.825 -1.0209 -1.1833  2.9016
   47SOL     OW  139   0.965   1.672   1.293  0.5041 -0.3514 -0.3508
   47SOL    HW1  140   0.964   1.773   1.298 -1.2015 -2.8554  1.3432
   47SOL    HW2  141   0.876   1.626   1.312  0.4587  0.0670  0.9452
   48SOL     OW  142   0.057   2.665   0.201  0.3871 -0.5599  0.1623
   48SOL    HW1  143   3.050   2.649   0.253 -2.1260  1.4515 -0.4442
   48SOL    HW2  144   0.116   2.735   0.249 -0.0244 -0.7101  1.7556
   49SOL     OW  145   3.048   1.347   1.887  0.0871  0.4462  0.0241
   49SOL    HW1  146   0.042   1.389   1.944 -2.9908 -4.1155  1.7919
   49SOL    HW2  147   2.955   1.394   1.899 -1.1203  1.6620 -0.1425
   50SOL     OW  148   2.119   0.927   0.655 -0.0005  0.7280 -0.6439
   50SOL    HW1  149   2.123   0.871   0.570 -0.4665 -0.8482  0.6469
   50SOL    HW2  150   2.029   0.973   0.662 -0.9429  0.8900  0.1562
   51SOL     OW  151   1.086   1.129   0.851  0.1561 -0.5589 -0.0100
   51SOL    HW1  152   1.018   1.075   0.795 -1.5978 -2.4112  0.9368
   51SOL    HW2  153   1.034   1.161   0.929 -0.1580 -0.4355  2.9468
   52SOL     OW  154   1.490   1.323   0.235 -0.1680 -0.0795  0.0728
   52SOL    HW1  155   1.535   1.296   0.321 -2.0816  0.1208 -4.2583
   52SOL    HW2  156   1.442   1.412   0.255  0.8540 -0.9265 -0.3278
   53SOL     OW  157   1.180   2.315   2.634  0.3232  0.0302  0.2706
   53SOL    HW1  158   1.081   2.305   2.644  4.2968 -0.0675  1.9224
   53SOL    HW2  159   1.233   2.231   2.668 -1.8786 -0.5843 -0.3872
   54SOL     OW  160   1.526   0.706   1.704 -0.9978  0.5115 -0.7790
   54SOL    HW1  161   1.483   0.665   1.784  0.1732 -2.4560  2.1550
   54SOL    HW2  162   1.530   0.639   1.624 -0.8966  4.6201 -1.5584
   55SOL     OW  163   2.584   2.702   0.361  0.2933 -0.0602 -0.0503
   55SOL    HW1  164   2.529   2.624   0.401 -0.1985  2.9308  1.7453
   55SOL    HW2  165   2.548   2.787   0.408  0.7071  0.7027  0.0691
   56SOL     OW  166   0.833   2.560   1.788  0.0200 -0.3751  0.1113
   56SOL    HW1  167   0.779   2.573   1.877 -2.9726 -0.7655 -0.5134
   56SOL    HW2  168   0.779   2.518   1.706 -1.1737  0.0859  0.6953
   57SOL     OW  169   1.932   0.697   2.505  0.0731 -0.2856 -0.4026
   57SOL    HW1  170   1.977   0.609   2.486  0.0758  1.5973 -1.5131
   57SOL    HW2  171   1.845   0.697   2.553  3.0112 -0.5222  2.3676
   58SOL     OW  172   3.052   1.241   1.616 -0.2735  0.1023 -0.0642
   58SOL    HW1  173   3.043   1.268   1.714  0.0074 -0.5155 -1.5870
   58SOL    HW2  174   3.007   1.315   1.562  0.0145 -0.4959  0.8837
   59SOL     OW  175   0.674   2.864   2.308  0.0396 -0.4249  0.3102
   59SOL    HW1  176   0.754   2.818   2.268 -1.3597  4.4768  0.3990
   59SOL    HW2  177   0.600   2.796   2.317  3.4908  0.2460 -1.3268
   60SOL     OW  178   2.544   2.102   0.682  0.0459  0.1870  0.4302
   60SOL    HW1  179   2.494   2.041   0.617 -2.8278 -1.5488  1.6460
   60SOL    HW2  180   2.623   2.058   0.726 -1.2653  1.1559 -0.2856
   61SOL     OW  181   0.749   2.235   0.477 -0.2566  0.2417  0.3943
   61SOL    HW1  182   0.790   2.226   0.385  0.5795  0.5350  1.4186
   61SOL    HW2  183   0.822   2.284   0.533 -0.1904  1.2628  1.0253
   62SOL     OW  184   1.995   2.548   2.760 -0.5147  0.2553  0.3738
   62SOL    HW1  185   2.077   2.480   2.761  2.0569 -1.3349 -0.7758
   62SOL    HW2  186   2.017   2.640   2.712 -2.5990 -0.4534  2.3557
   63SOL     OW  187   1.960   0.315   0.139  0.0448  0.2684  0.1075
   63SOL    HW1  188   1.892   0.342   0.070  0.6432 -1.2025 -1.1007
   63SOL    HW2  189   1.996   0.228   0.116  0.9919  0.5499 -0.7054
   64SOL     OW  190   0.767   1.060   2.529  0.3595  0.4326 -0.4017
   64SOL    HW1  191   0.863   1.032   2.553  0.8903  0.7261 -0.1688
   64SOL    HW2  192   0.714   0.998   2.593 -0.5026 -2.0235 -2.0505
   65SOL     OW  193   1.355   3.005   0.463 -0.2264 -0.0567 -0.3672
   65SOL    HW1  194   1.376   2.908   0.487 -0.0979  1.0873 -3.0959
   65SOL    HW2  195   1.276   2.999   0.399  0.5635  0.5220  0.6826
   66SOL     OW  196   0.375   1.236   1.803 -0.7735  0.7678  0.0614
   66SOL    HW1  197   0.342   1.238   1.898 -0.3301  0.8021 -1.3244
   66SOL    HW2  198   0.476   1.251   1.801  1.0859  0.5877 -2.9627
   67SOL     OW  199   2.149   2.983   2.305 -0.0170  0.5416 -0.1078
   67SOL    HW1  200   2.215   2.947   2.235 -1.9322  2.1929  0.7546
   67SOL    HW2  201   2.139   2.910   2.381  0.2349 -1.8373 -0.0963
   68SOL     OW  202   0.834   0.644   1.615 -0.0393  0.0905  0.4178
   68SOL    HW1  203   0.900   0.635   1.538 -3.3754  1.0553  1.9237
   68SOL    HW2  204   0.846   0.738   1.660  0.4699 -0.3598  1.7217
   69SOL     OW  205   2.204   2.683   0.331  0.6603 -0.5329  0.1184
   69SOL    HW1  206   2.117   2.693   0.387 -1.9518 -2.5714 -0.8845
   69SOL    HW2  207   2.220   2.769   0.278  0.7460  0.8515  1.2420
   70SOL     OW  208   2.382   0.607   2.799  0.2842 -0.1995  0.0168
   70SOL    HW1  209   2.472   0.618   2.842 -2.0728  2.6116 -0.4608
   70SOL    HW2  210   2.371   0.527   2.733 -0.3031 -2.6750 -0.4981
   71SOL     OW  211   2.877   2.079   0.132 -0.4025 -0.3367  0.3889
   71SOL    HW1  212   2.929   1.992   0.155  0.4875 -2.4586  2.3256
   71SOL    HW2  213   2.910   2.108   0.037  0.8186  2.0922 -4.5907
   72SOL     OW  214   2.980   1.756   0.449 -0.2911 -0.3596  0.3898
   72SOL    HW1  215   2.890   1.808   0.436  2.9833  2.4498  0.7234
   72SOL    HW2  216   3.004   1.750   0.550 -0.9885 -0.9238 -0.1030
   73SOL     OW  217   0.867   1.024   0.722 -0.0388  0.0403 -0.3808
   73SOL    HW1  218   0.804   1.082   0.782  1.5135 -1.6931  3.0091
   73SOL    HW2  219   0.851   0.924   0.745  1.0883 -0.7790 -0.4399
   74SOL     OW  220   0.159   1.918   2.019 -0.1617  0.0645 -0.1104
   74SOL    HW1  221   0.203   1.845   2.079  0.3050 -1.8466  0.3679
   74SOL    HW2  222   0.222   1.987   1.982 -0.0233 -0.6138  2.2842
   75SOL     OW  223   1.801   1.394   1.184 -0.0151 -0.4672  0.2181
   75SOL    HW1  224   1.752   1.432   1.106  1.5521  0.8159  1.1991
   75SOL    HW2  225   1.735   1.350   1.249  2.4091  2.3574 -1.8646
   76SOL     OW  226   1.884   2.114   1.004  0.4879 -0.5690  0.0228
   76SOL    HW1  227   1.880   2.178   1.080 -0.6100  1.1413 -2.4331
   76SOL    HW2  228   1.871   2.019   1.036 -0.0901  0.6493  1.4157
   77SOL     OW  229   2.506   1.623   1.783  0.0176  0.9601 -0.0266
   77SOL    HW1  230   2.490   1.659   1.879  1.6140 -2.3175  2.9288
   77SOL    HW2  231   2.579   1.682   1.733  1.4233  0.3205 -1.1054
   78SOL     OW  232   1.365   0.912   0.668  0.4867 -0.3280 -0.5399
   78SOL    HW1  233   1.284   0.916   0.600 -1.3065 -0.4617 -0.5393
   78SOL    HW2  234   1.428   0.834   0.645 -0.3983  1.8756 -0.8368
   79SOL     OW  235   2.053   1.533   1.488  0.1907  0.4665  0.0655
   79SOL    HW1  236   2.075   1.447   1.539  2.2313  2.0453  0.0231
   79SOL    HW2  237   2.085   1.614   1.545 -0.5928 -0.5517 -2.1345
   80SOL     OW  238   1.024   0.600   1.433  0.0572 -0.0964  0.7164
   80SOL    HW1  239   1.024   0.500   1.452 -0.6981  2.3635  0.4663
   80SOL    HW2  240   0.994   0.609   1.338 -0.1746  0.0738 -1.1325
   81SOL     OW  241   0.489   2.228   0.577 -0.8963 -0.2566  0.7728
   81SOL    HW1  242   0.483   2.153   0.644  0.5968  2.0755 -2.9418
   81SOL    HW2  243   0.583   2.231   0.534  0.8501  0.0631  1.8802
   82SOL     OW  244   1.185   0.169   1.561  0.0125  0.6336  0.6615
   82SOL    HW1  245   1.197   0.107   1.642  0.4680 -2.3656 -1.0688
   82SOL    HW2  246   1.273   0.214   1.531  3.8993 -0.8160 -2.5269
   83SOL     OW  247   0.700   1.729   0.716 -0.2725  0.2765 -0.2516
   83SOL    HW1  248   0.682   1.767   0.812 -2.2329  0.0734  2.9150
   83SOL    HW2  249   0.631   1.764   0.655  5.5993 -2.3388 -1.7620
   84SOL     OW  250   2.760   1.394   0.087 -0.4658  0.1226  0.1945
   84SOL    HW1  251   2.666   1.351   0.067 -0.8413  1.2741 -0.7229
   84SOL    HW2  252   2.832   1.329   0.051  1.3699 -0.1304  0.2643
   85SOL     OW  253   0.162   2.541   0.948 -0.1712  0.2270 -0.2826
   85SOL    HW1  254   0.090   2.519   0.881  3.3993  1.5086  0.7017
   85SOL    HW2  255   0.233   2.468   0.944  2.4023  1.5577 -2.3095
   86SOL     OW  256   1.941   2.741   1.044  0.4146  0.2112 -0.3764
   86SOL    HW1  257   1.904   2.743   1.142 -1.6128 -1.9612  3.4630
   86SOL    HW2  258   1.977   2.651   1.007 -3.5703 -1.8904 -3.1186
   87SOL     OW  259   3.009   1.767   0.720 -0.0184  0.0050 -0.0454
   87SOL    HW1  260   2.975   1.802   0.810 -2.0396  0.7818  0.8324
   87SOL    HW2  261   0.029   1.749   0.723  2.3533 -1.0914  1.0074
   88SOL     OW  262   0.641   0.500   1.471  0.3103  0.2561  0.1126
   88SOL    HW1  263   0.668   0.467   1.378 -1.2705  1.3731  0.5202
   88SOL    HW2  264   0.698   0.582   1.494 -2.3812  0.1137 -0.3387
   89SOL     OW  265   1.011   2.735   1.660  0.2881 -0.2246 -1.1578
   89SOL    HW1  266   0.986   2.741   1.563  0.9900  0.8500  0.6683
   89SOL    HW2  267   0.953   2.666   1.710 -0.1696 -0.0110  3.1794
   90SOL     OW  268   0.040   1.943   1.129 -0.2095  0.0065  0.1885
   90SOL    HW1  269   0.062   1.889   1.212 -1.2176  1.0273  1.3513
   90SOL    HW2  270   0.002   2.036   1.158  1.8838 -1.0215 -0.9915
   91SOL     OW  271   1.192   2.066   1.161 -0.5250  0.4743  0.1820
   91SOL    HW1  272   1.142   2.157   1.147 -1.3884 -1.3289 -1.1321
   91SOL    HW2  273   1.277   2.078   1.222  0.8740 -0.8599 -1.3698
   92SOL     OW  274   2.840   2.871   1.536  0.0819 -0.8096 -0.4337
   92SOL    HW1  275   2.785   2.879   1.451  5.4024 -0.5836  2.8470
   92SOL    HW2  276   2.930   2.925   1.524  0.2775  0.3985 -1.3608
   93SOL     OW  277   0.005   1.517   2.978 -0.6028  0.2156 -0.0680
   93SOL    HW1  278   0.044   1.457   2.905 -2.2321 -0.6612  1.3535
   93SOL    HW2  279   3.080   1.461   3.064 -0.5937  4.4154  2.4353
   94SOL     OW  280   2.786   2.707   2.203  0.0878  0.0763 -0.2701
   94SOL    HW1  281   2.820   2.770   2.133  0.3623 -1.6634  3.0926
   94SOL    HW2  282   2.803   2.755   2.293 -1.9632 -0.6421 -0.1941
   95SOL     OW  283   1.348   0.581   1.859  0.2469  0.0948 -0.0258
   95SOL    HW1  284   1.308   0.667   1.893 -0.2067  0.4869  1.4675
   95SOL    HW2  285   1.268   0.529   1.826  0.4013 -1.3595 -0.5137
   96SOL     OW  286   2.543   0.191   2.044  0.4881 -0.2643 -0.3865
   96SOL    HW1  287   2.499   0.243   1.965  1.9594 -0.2144  1.2243
   96SOL    HW2  288   2.564   0.251   2.128 -1.7097 -1.1194 -0.9315
   97SOL     OW  289   2.232   2.916   1.384  0.1595  0.0442 -0.2016
   97SOL    HW1  290   2.152   2.930   1.447  0.3026 -4.0945  0.2377
   97SOL    HW2  291   2.317   2.907   1.437 -2.5319  2.3759  0.0968
   98SOL     OW  292   2.228   2.861   1.105  0.1067  0.5555  0.5872
   98SOL    HW1  293   2.223   2.860   1.207  1.8122 -0.4598 -3.4387
   98SOL    HW2  294   2.133   2.857   1.072 -1.1999  0.7145 -0.5597
   99SOL     OW  295   2.829   0.096   2.123 -0.7514  0.4439 -0.5896
   99SOL    HW1  296   2.897   0.117   2.048 -0.9615 -0.3951  0.6722
   99SOL    HW2  297   2.739   0.146   2.109 -2.0523  1.7873  2.3603
  100SOL     OW  298   2.104   1.436   1.776 -0.0905  0.1851  0.2893
  100SOL    HW1  299   2.026   1.502   1.785 -0.9357 -1.0381  0.0199
  100SOL    HW2  300   2.110   1.384   1.862 -0.0142 -0.7408 -3.6134
  101SOL     OW  301   1.609   0.034   0.646 -0.2432  0.4230 -0.5841
  101SOL    HW1  302   1.622   0.132   0.673  0.4272 -0.8576 -0.7684
  101SOL    HW2  303   1.518   0.029   0.599  1.7011  2.0638  1.0513
  102SOL     OW  304   0.602   0.779   1.308 -0.3442 -0.4139  0.1286
  102SOL    HW1  305   0.520   0.723   1.291  2.1729 -0.1544 -2.1468
  102SOL    HW2  306   0.602   0.819   1.404 -1.0192  1.3657  0.0039
  103SOL     OW  307   2.327   0.272   2.921  0.0707 -0.3117 -0.3710
  103SOL    HW1  308   2.426   0.297   2.896  3.0347 -0.0458  0.3208
  103SOL    HW2  309   2.312   0.279   3.019  1.1824 -2.4098 -2.9167
  104SOL     OW  310   2.697   3.070   1.888 -0.0160 -0.4584  0.1083
  104SOL    HW1  311   2.775   0.048   1.873 -0.9095 -1.4583  0.4782
  104SOL    HW2  312   2.621   0.033   1.945  0.4019  0.1485  3.3482
  105SOL     OW  313   1.587   0.921   2.184 -0.3159 -0.2247 -0.5306
  105SOL    HW1  314   1.554   0.828   2.168  2.7633  0.9782  0.3738
  105SOL    HW2  315   1.686   0.922   2.217  2.9207  1.9935 -1.5120
  106SOL     OW  316   1.606   0.267   0.762  0.1341  0.0733 -0.2159
  106SOL    HW1  317   1.711   0.279   0.778  0.0825 -2.0474 -0.7054
  106SOL    HW2  318   1.567   0.242   0.856  1.0565  1.4752  0.8821
  107SOL     OW  319   0.772   1.239   0.883  0.0719 -0.1351 -0.0992
  107SOL    HW1  320   0.676   1.254   0.921 -1.0162  0.9242  0.8577
  107SOL    HW2  321   0.808   1.316   0.828  1.5535  2.4561  1.0746
  108SOL     OW  322   3.070   0.688   2.486 -0.0863  0.0276 -0.1682
  108SOL    HW1  323   0.015   0.610   2.423  1.9560  0.0664  2.1653
  108SOL    HW2  324   3.014   0.758   2.438  2.5660 -1.0878 -2.7353
  109SOL     OW  325   1.921   3.050   0.185 -0.0455  0.5692  0.2922
  109SOL    HW1  326   1.912   2.961   0.126  2.4340 -3.3174 -1.6690
  109SOL    HW2  327   1.999   0.018   0.138  0.8308  1.4048  0.4592
  110SOL     OW  328   2.983   1.954   2.796 -0.3134  0.0655  0.7344
  110SOL    HW1  329   2.968   2.027   2.858  0.4509 -3.2521 -4.6794
  110SOL    HW2  330   2.967   1.860   2.835 -0.4750 -1.3506 -0.4570
  111SOL     OW  331   2.149   0.167   2.321  0.1359  0.4841 -0.2291
  111SOL    HW1  332   2.149   0.066   2.312  0.6720 -1.6335 -0.8701
  111SOL    HW2  333   2.213   0.206   2.396  2.7454 -1.5676 -1.0313
  112SOL     OW  334   2.499   2.905   1.079  0.0245  0.0965  0.1443
  112SOL    HW1  335   2.533   2.874   0.992  0.7250  0.6335  1.2281
  112SOL    HW2  336   2.400   2.897   1.069 -0.6453  0.9564 -1.9034
  113SOL     OW  337   2.328   2.412   1.882  0.0072 -0.3235 -0.3045
  113SOL    HW1  338   2.356   2.479   1.805 -0.7072 -0.5056  0.1137
  113SOL    HW2  339   2.230   2.424   1.909 -0.1048 -0.6519  1.5833
  114SOL     OW  340   2.991   0.069   0.797  0.2180  0.3535  0.4559
  114SOL    HW1  341   2.979   0.138   0.723 -1.1492  2.4676  1.0980
  114SOL    HW2  342   2.940   3.064   0.772 -0.1410 -1.1438  1.4187
  115SOL     OW  343   2.753   1.796   0.049  0.1257 -0.1952  0.3182
  115SOL    HW1  344   2.829   1.811   0.116 -1.2155  5.3458 -1.3451
  115SOL    HW2  345   2.672   1.759   0.095 -2.7426  1.6873 -2.0167
  116SOL     OW  346   0.173   1.514   1.982 -0.1863 -0.1074  0.3744
  116SOL    HW1  347   0.181   1.570   2.065 -1.7255 -1.0201 -1.8312
  116SOL    HW2  348   0.172   1.569   1.898  1.5071  0.5745 -1.0118
  117SOL     OW  349   2.599   2.831   0.853  0.0343  0.0147 -0.0975
  117SOL    HW1  350   2.684   2.801   0.898 -1.6800  0.2978 -2.3614
  117SOL    HW2  351   2.571   2.767   0.776  3.4557  1.4574 -2.9579
  118SOL     OW  352   0.368   2.258   1.732  0.1093  0.4915  0.0134
  118SOL    HW1  353   0.298   2.209   1.673 -1.0170 -1.8490  0.1656
  118SOL    HW2  354   0.460   2.256   1.685 -3.3131  1.0534 -0.7857
  119SOL     OW  355   1.516   2.223   1.130 -0.8963  0.4387  0.5898
  119SOL    HW1  356   1.500   2.201   1.035  1.9446 -0.9788  0.8580
  119SOL    HW2  357   1.559   2.137   1.174  2.3173 -1.2729 -1.4336
  120SOL     OW  358   0.516   1.913   1.938  0.5635 -0.2655  0.3534
  120SOL    HW1  359   0.544   1.853   2.013 -0.2770  1.3231 -0.4053
  120SOL    HW2  360   0.474   2.002   1.968  0.2576  0.5480  1.3733
  121SOL     OW  361   2.490   1.351   0.959 -0.6340 -0.2412 -0.3863
  121SOL    HW1  362   2.461   1.365   1.058 -2.5490  2.4916 -1.2910
  121SOL    HW2  363   2.555   1.424   0.938 -0.5058 -2.0196  2.2298
  122SOL     OW  364   1.948   1.776   2.377  0.3042 -0.1054 -0.2938
  122SOL    HW1  365   1.924   1.677   2.374 -1.9814  0.0989 -1.5410
  122SOL    HW2  366   1.944   1.826   2.467 -2.0816  0.2661  0.9426
  123SOL     OW  367   2.849   2.890   0.707 -0.4092 -0.1696  0.8156
  123SOL    HW1  368   2.909   2.828   0.662 -0.3406  2.0973  0.2033
  123SOL    HW2  369   2.848   2.866   0.804 -1.6915 -0.9650 -1.1109
  124SOL     OW  370   1.392   1.335   2.878  0.2214  0.0442 -0.0482
  124SOL    HW1  371   1.374   1.296   2.968  2.2719  0.4368  2.8133
  124SOL    HW2  372   1.489   1.323   2.851 -1.2601  1.5960 -2.0287
  125SOL     OW  373   0.293   1.536   2.802  0.0419 -0.0447  0.0276
  125SOL    HW1  374   0.255   1.570   2.715 -3.4033  0.8936 -0.6456
  125SOL    HW2  375   0.271   1.438   2.813  0.9033  0.6879 -2.2051
  126SOL     OW  376   2.898   2.111   0.430  0.1378  0.0074 -0.1205
  126SOL    HW1  377   2.944   2.201   0.451  0.7307  1.1739  0.9638
  126SOL    HW2  378   2.884   2.105   0.331  3.2516  4.0021  3.3469
  127SOL     OW  379   0.274   1.720   0.982 -0.1397 -0.0021  0.3797
  127SOL    HW1  380   0.194   1.660   0.991 -0.6690 -1.0163 -1.3108
  127SOL    HW2  381   0.243   1.816   0.970  1.9178 -3.7365  1.2365
  128SOL     OW  382   1.707   1.006   0.050 -0.0270 -0.0395 -0.3043
  128SOL    HW1  383   1.727   1.098   0.084  2.8959  0.0668 -0.6852
  128SOL    HW2  384   1.696   0.944   0.126  0.6061  1.5245 -1.4478
  129SOL     OW  385   2.215   1.583   1.245 -0.6010 -0.2964  0.8079
  129SOL    HW1  386   2.136   1.645   1.230  0.1838  0.4262  0.7068
  129SOL    HW2  387   2.276   1.618   1.320 -1.2496 -0.7834 -1.5847
  130SOL     OW  388   2.057   1.363   0.487  0.0739  0.0401  0.1019
  130SOL    HW1  389   2.061   1.294   0.414  0.7814  0.5885  2.2424
  130SOL    HW2  390   2.080   1.315   0.571  0.8078 -0.3767 -0.6862
  131SOL     OW  391   2.802   1.343   2.703 -0.0414  0.3394  0.6796
  131SOL    HW1  392   2.765   1.287   2.778  2.4170  0.3891 -1.9425
  131SOL    HW2  393   2.779   1.438   2.724 -0.8460 -2.1550 -2.7541
  132SOL     OW  394   1.941   1.665   1.795  0.0723 -0.0959  0.2998
  132SOL    HW1  395   2.000   1.693   1.717  0.8153 -0.8475  0.4404
  132SOL    HW2  396   1.881   1.740   1.833  0.4552  1.9776  0.0945
  133SOL     OW  397   0.247   1.148   3.070  0.4292  0.3242  0.1270
  133SOL    HW1  398   0.225   1.101   0.074 -1.1801  0.0797 -0.9868
  133SOL    HW2  399   0.345   1.175   3.064 -5.0195 -2.6966  0.8394
  134SOL     OW  400   2.656   1.175   0.433 -0.1686 -0.2272 -0.4527
  134SOL    HW1  401   2.562   1.165   0.404  2.3130 -1.8231  0.6131
  134SOL    HW2  402   2.709   1.255   0.396  2.4241 -2.6452  0.8009
  135SOL     OW  403   2.657   0.869   0.422  0.8473 -0.2022  0.6560
  135SOL    HW1  404   2.643   0.963   0.450 -2.0720  0.3199 -0.4751
  135SOL    HW2  405   2.586   0.810   0.470  1.0310 -1.6678 -1.1567
  136SOL     OW  406   1.837   1.615   1.350  0.0815  0.3655 -0.0910
  136SOL    HW1  407   1.912   1.584   1.410  0.1614 -1.8151 -0.5337
  136SOL    HW2  408   1.822   1.540   1.283 -0.1932  0.6911  0.5624
  137SOL     OW  409   2.349   2.195   0.860  0.2426  0.5297 -0.1268
  137SOL    HW1  410   2.407   2.157   0.787  1.5322 -1.3388  0.3117
  137SOL    HW2  411   2.397   2.202   0.949 -0.3712  1.2660  2.2872
  138SOL     OW  412   2.009   3.068   1.825 -0.1079 -0.0572  0.1220
  138SOL    HW1  413   1.922   0.022   1.790  1.9810 -1.7128 -0.4180
  138SOL    HW2  414   2.069   0.067   1.848  0.1690  1.9506 -1.7305
  139SOL     OW  415   2.559   0.246   0.047  0.0523 -0.4701  0.0085
  139SOL    HW1  416   2.532   0.147   0.018 -0.8276  0.1942 -0.1295
  139SOL    HW2  417   2.655   0.262   0.058 -3.6766  1.3905 -0.5168
  140SOL     OW  418   1.168   1.680   2.383  0.0441  0.0824 -0.6010
  140SOL    HW1  419   1.243   1.639   2.437 -3.4930 -0.9038 -2.4622
  140SOL    HW2  420   1.074   1.654   2.409  1.8030  1.5435 -2.9044
  141SOL     OW  421   0.656   0.750   1.973 -0.3297  0.0662  0.5106
  141SOL    HW1  422   0.637   0.704   2.061  0.9896  0.0201 -0.3233
  141SOL    HW2  423   0.703   0.834   1.982 -0.3440 -1.0038 -0.3020
  142SOL     OW  424   2.029   2.621   3.043  0.3356  0.0913  0.0112
  142SOL    HW1  425   2.002   2.610   2.944 -0.3541 -0.8728  0.6951
  142SOL    HW2  426   2.082   2.538   3.064  0.1796  0.1725 -0.2638
  143SOL     OW  427   1.071   1.982   0.072  0.0392 -0.3321  0.2138
  143SOL    HW1  428   1.095   1.990   3.055 -0.6447  0.7285 -0.4904
  143SOL    HW2  429   0.969   1.989   0.085 -0.3668 -0.0201  0.0816
  144SOL     OW  430   1.162   2.485   0.202  0.3341  0.1540  0.5429
  144SOL    HW1  431   1.118   2.405   0.252  0.9704 -0.9441 -0.6701
  144SOL    HW2  432   1.264   2.475   0.210  0.7038 -1.8972  1.7279
  145SOL     OW  433   2.279   1.847   2.453 -0.3500  0.6736  0.3650
  145SOL    HW1  434   2.275   1.867   2.352 -1.3104  2.0557  2.2076
  145SOL    HW2  435   2.199   1.887   2.496  0.1039 -1.5551 -1.3284
  146SOL     OW  436   2.368   2.668   2.871 -0.2550  0.3766 -0.2610
  146SOL    HW1  437   2.428   2.748   2.848  0.9780 -1.3902 -0.1572
  146SOL    HW2  438   2.403   2.626   2.956  0.7987 -1.6816  1.2824
  147SOL     OW  439   2.968   1.459   1.245  0.1222 -0.0416  0.1086
  147SOL    HW1  440   2.936   1.512   1.164  2.9077 -1.0305  1.9155
  147SOL    HW2  441   2.899   1.394   1.276  2.7468  2.2339 -0.0048
  148SOL     OW  442   1.885   2.840   3.070  0.3719  0.0010 -0.0806
  148SOL    HW1  443   1.953   2.770   0.013  1.4077  3.4451 -1.5140
  148SOL    HW2  444   1.806   2.803   3.017 -0.6702  2.2936  1.3345
  149SOL     OW  445   0.530   1.703   2.822 -0.1811  0.0029  0.5039
  149SOL    HW1  446   0.593   1.649   2.881 -1.7179  2.8983  0.4336
  149SOL    HW2  447   0.435   1.667   2.808  0.5579 -0.1075 -3.5210
  150SOL     OW  448   0.257   2.359   0.496  0.5055  0.0115  0.4312
  150SOL    HW1  449   0.223   2.276   0.444 -2.4657 -3.8867 -1.5829
  150SOL    HW2  450   0.340   2.331   0.544 -2.4814 -1.8381 -0.4429
  151SOL     OW  451   0.505   1.574   0.384 -0.0666 -0.0031 -0.4038
  151SOL    HW1  452   0.411   1.542   0.397 -2.6934 -0.8324  3.3863
  151SOL    HW2  453   0.529   1.629   0.302 -0.0906 -1.8709  1.1607
  152SOL     OW  454   2.761   1.644   0.706  0.3492 -0.0988 -0.1931
  152SOL    HW1  455   2.678   1.704   0.712  1.3381 -0.9325 -2.1506
  152SOL    HW2  456   2.847   1.696   0.719  0.5005 -0.6729 -0.5792
  153SOL     OW  457   2.067   2.424   0.315  0.1356  0.1117  0.7646
  153SOL    HW1  458   2.106   2.515   0.325 -1.1899 -1.5207  3.1469
  153SOL    HW2  459   1.997   2.414   0.392 -0.7923  0.7266  1.2478
  154SOL     OW  460   0.892   2.773   0.853 -0.3120  0.5870 -0.4586
  154SOL    HW1  461   0.908   2.866   0.887 -0.1918 -2.3805 -1.5902
  154SOL    HW2  462   0.799   2.742   0.888  2.2268  2.0106  0.2407
  155SOL     OW  463   0.201   1.958   0.914 -0.2550 -0.3194  0.1172
  155SOL    HW1  464   0.134   1.971   0.991 -1.4029  0.7076  2.4528
  155SOL    HW2  465   0.169   2.013   0.834  1.1818 -0.5088 -1.4444
  156SOL     OW  466   2.404   2.465   0.026  0.0285  0.2736 -0.0107
  156SOL    HW1  467   2.426   2.406   3.022  1.9983 -0.3980 -0.7085
  156SOL    HW2  468   2.420   2.407   0.109 -0.0459 -1.0735  1.3430
  157SOL     OW  469   0.582   1.585   1.500 -0.3218  0.6433  0.6699
  157SOL    HW1  470   0.597   1.678   1.539 -0.2174  0.4266  1.7481
  157SOL    HW2  471   0.618   1.584   1.404 -1.3457 -0.5062 -2.3759
  158SOL     OW  472   1.592   0.837   0.236  0.1005 -0.5383 -0.3290
  158SOL    HW1  473   1.646   0.758   0.204 -0.2344 -1.2942 -1.2283
  158SOL    HW2  474   1.578   0.836   0.336 -1.0028 -1.0589  0.6573
  159SOL     OW  475   1.284   0.964   2.881 -0.7278  0.5046  0.1451
  159SOL    HW1  476   1.295   0.941   2.782 -0.2041 -0.1213 -0.5378
  159SOL    HW2  477   1.376   0.963   2.931  1.1798 -2.2978  1.7073
  160SOL     OW  478   1.187   1.337   0.551 -0.3414 -0.1293 -0.0311
  160SOL    HW1  479   1.238   1.425   0.568 -0.1753 -1.5740 -0.2338
  160SOL    HW2  480   1.255   1.261   0.578  0.8239 -2.1726  1.7292
  161SOL     OW  481   0.088   2.350   2.789 -0.5927 -0.0324 -0.2204
  161SOL    HW1  482   0.052   2.320   2.698  2.2157  1.4045 -0.7061
  161SOL    HW2  483   0.160   2.286   2.830  2.0437  3.5948  0.8029
  162SOL     OW  484   0.335   2.303   0.910 -0.3446  0.5172  0.0096
  162SOL    HW1  485   0.291   2.229   0.851 -0.0092 -0.2560 -1.2294
  162SOL    HW2  486   0.384   2.256   0.988 -0.4277  0.3822  2.4018
  163SOL     OW  487   0.083   0.893   2.937  0.3128  0.6146  0.5600
  163SOL    HW1  488   0.075   0.791   2.949 -2.1310 -0.9999  0.6470
  163SOL    HW2  489   0.151   0.935   3.002 -3.0409  0.2243  0.6102
  164SOL     OW  490   0.544   2.914   2.687 -0.3622  0.1668 -0.1805
  164SOL    HW1  491   0.532   2.958   2.776 -0.0618 -0.6939 -3.0315
  164SOL    HW2  492   0.620   2.961   2.639 -0.6122 -1.9372 -0.2931
  165SOL     OW  493   2.163   0.230   1.827 -0.0178  0.1711 -1.1485
  165SOL    HW1  494   2.212   0.252   1.917  1.5637  1.4844  0.4418
  165SOL    HW2  495   2.155   0.322   1.781  3.2528  3.5313 -0.2348
  166SOL     OW  496   1.907   2.717   1.589  0.6961  0.1409 -0.5847
  166SOL    HW1  497   1.944   2.636   1.632 -3.4147 -0.1445 -1.2953
  166SOL    HW2  498   1.980   2.791   1.580  2.6091  2.8724  0.0996
  167SOL     OW  499   0.990   0.571   2.183 -0.0892 -0.3227 -0.1278
  167SOL    HW1  500   1.024   0.477   2.166  2.9893 -0.5548  0.2550
  167SOL    HW2  501   1.063   0.639   2.190 -0.1231  2.5590  0.6674
  168SOL     OW  502   2.398   3.035   1.992  0.2523 -0.0298 -0.1200
  168SOL    HW1  503   2.424   0.039   2.043  2.6363  0.0570 -2.5039
  168SOL    HW2  504   2.412   2.950   2.046  0.4660  2.7894 -1.0666
  169SOL     OW  505   3.057   1.366   0.123 -0.3059 -0.4234 -0.3377
  169SOL    HW1  506   3.029   1.380   0.216 -1.8738 -0.0400 -3.2398
  169SOL    HW2  507   3.003   1.292   0.082  0.1896 -0.3227 -0.8726
  170SOL     OW  508   0.139   1.652   1.686  0.0739  0.2465  0.1389
  170SOL    HW1  509   0.115   1.617   1.596 -1.0806  1.0853  0.4755
  170SOL    HW2  510   0.225   1.607   1.724  0.3892  0.3374 -3.3977
  171SOL     OW  511   1.027   2.281   2.264  0.6081  0.4195  0.2359
  171SOL    HW1  512   0.971   2.321   2.338  1.4462 -1.7155 -1.9321
  171SOL    HW2  513   1.114   2.232   2.292  4.3092 -2.8555 -0.0945
  172SOL     OW  514   0.660   2.590   1.994 -0.6331 -0.1309 -0.7559
  172SOL    HW1  515   0.645   2.503   2.043  1.5005 -1.0273 -0.9857
  172SOL    HW2  516   0.578   2.645   2.001 -0.2832  0.4486 -0.6683
  173SOL     OW  517   1.249   2.633   0.754 -0.0719  0.2950 -0.3525
  173SOL    HW1  518   1.279   2.720   0.718 -1.9143 -0.2641  0.6759
  173SOL    HW2  519   1.275   2.633   0.851 -0.2673  0.5667 -3.3386
  174SOL     OW  520   1.749   0.365   0.481 -0.9770 -0.2533 -0.1639
  174SOL    HW1  521   1.751   0.344   0.580  0.0571  0.5440  2.4248
  174SOL    HW2  522   1.846   0.378   0.449 -2.6468  0.2173 -0.8916
  175SOL     OW  523   1.286   1.503   0.261 -0.0449 -0.2547  0.3754
  175SOL    HW1  524   1.270   1.597   0.232 -0.1533  0.6924 -0.6872
  175SOL    HW2  525   1.263   1.483   0.361 -2.0490 -3.8232  3.3419
  176SOL     OW  526   1.382   1.499   0.831 -0.4537  0.3974 -0.2979
  176SOL    HW1  527   1.336   1.518   0.745 -1.3529 -0.0429  4.1409
  176SOL    HW2  528   1.383   1.402   0.854  0.7560 -1.2524  1.1631
  177SOL     OW  529   1.300   0.676   1.315 -0.0170 -0.3460  0.2733
  177SOL    HW1  530   1.250   0.715   1.396 -1.0520 -0.2586 -2.8129
  177SOL    HW2  531   1.366   0.745   1.282 -1.6171 -1.1888  3.8306
  178SOL     OW  532   2.563   1.612   0.130 -0.2648 -0.0401  0.2216
  178SOL    HW1  533   2.513   1.579   0.209  0.4551  0.8092  1.8337
  178SOL    HW2  534   2.641   1.551   0.100 -1.4066  2.9303 -1.6822
  179SOL     OW  535   0.435   2.398   0.138  0.0851 -0.0031 -0.2047
  179SOL    HW1  536   0.472   2.304   0.152  1.0425 -0.4106  0.7913
  179SOL    HW2  537   0.500   2.458   0.191 -0.9837  1.9128 -2.3813
  180SOL     OW  538   1.650   1.412   1.720  0.6275 -0.0713  0.5920
  180SOL    HW1  539   1.618   1.406   1.815 -3.2585 -2.4275 -0.7902
  180SOL    HW2  540   1.705   1.495   1.705  1.7207 -2.2512 -1.4438
  181SOL     OW  541   0.965   1.009   2.291 -0.2127 -0.1380 -0.1317
  181SOL    HW1  542   0.986   1.087   2.228 -1.9467  0.4504 -0.9398
  181SOL    HW2  543   1.039   0.942   2.294 -1.1544 -0.3861 -3.0480
  182SOL     OW  544   2.948   1.177   2.283  0.6105 -0.1945 -0.8368
  182SOL    HW1  545   2.871   1.205   2.343 -2.1383  0.1181 -1.5316
  182SOL    HW2  546   2.915   1.173   2.188 -1.3269  2.0936 -3.8437
  183SOL     OW  547   1.552   0.664   2.110 -0.2970 -0.0009  0.4323
  183SOL    HW1  548   1.650   0.635   2.112 -0.5535  2.6391 -0.5787
  183SOL    HW2  549   1.484   0.588   2.120 -1.6952 -0.1715  1.7743
  184SOL     OW  550   0.184   0.591   1.610 -0.6102 -0.7854 -1.0916
  184SOL    HW1  551   0.283   0.592   1.638  1.5827 -1.1328  1.9951
  184SOL    HW2  552   0.181   0.557   1.517 -1.1659 -0.3904  2.6242
  185SOL     OW  553   2.307   1.765   0.593 -0.1594 -0.0782 -0.1688
  185SOL    HW1  554   2.321   1.844   0.526  0.0753 -0.4216 -2.2750
  185SOL    HW2  555   2.272   1.686   0.543 -1.2921  0.1857  0.9424
  186SOL     OW  556   0.449   1.916   3.055 -0.6316 -0.0646  0.1135
  186SOL    HW1  557   0.367   1.867   3.013  1.2873  1.6865  0.3948
  186SOL    HW2  558   0.532   1.907   2.994  1.8348 -0.7117  0.6928
  187SOL     OW  559   2.407   1.827   2.832 -0.5130  0.0510  0.5991
  187SOL    HW1  560   2.432   1.751   2.771  3.0882 -1.1310 -1.8814
  187SOL    HW2  561   2.488   1.885   2.844 -1.3466  0.9246 -1.0752
  188SOL     OW  562   1.001   2.587   0.689  0.4979  0.0267 -0.6100
  188SOL    HW1  563   1.098   2.586   0.723  2.6325  1.4259 -0.0856
  188SOL    HW2  564   0.944   2.644   0.752 -1.5759 -1.2855 -0.1166
  189SOL     OW  565   2.130   0.864   2.578  0.0760  0.0966  0.2238
  189SOL    HW1  566   2.058   0.797   2.546 -0.0818  0.0584 -1.8056
  189SOL    HW2  567   2.097   0.958   2.611 -0.3865  0.2935  1.5420
  190SOL     OW  568   0.861   1.900   2.299 -0.3641 -0.2825  0.2630
  190SOL    HW1  569   0.814   1.959   2.366  1.0134  1.3664 -1.3681
  190SOL    HW2  570   0.962   1.915   2.301 -0.3202  0.3379  1.0496
  191SOL     OW  571   2.407   0.854   1.654 -0.0056 -0.2917 -0.0326
  191SOL    HW1  572   2.490   0.789   1.652  0.2515 -2.1029  0.6506
  191SOL    HW2  573   2.435   0.952   1.624  2.7560  0.3366 -1.0231
  192SOL     OW  574   2.243   0.298   2.091 -0.7593  0.3790 -0.0104
  192SOL    HW1  575   2.315   0.363   2.126  0.0405  0.6693 -1.8631
  192SOL    HW2  576   2.203   0.247   2.169  2.3084 -2.0941 -1.2840
  193SOL     OW  577   0.433   0.567   0.789 -0.1081  0.0284 -0.4107
  193SOL    HW1  578   0.343   0.538   0.747  1.3917 -0.0280 -1.4993
  193SOL    HW2  579   0.473   0.505   0.857  1.4623 -0.9967  0.8085
  194SOL     OW  580   1.147   2.277   1.415 -0.0478  0.3145 -0.1786
  194SOL    HW1  581   1.172   2.360   1.466 -1.9016 -0.7856  2.1384
  194SOL    HW2  582   1.232   2.217   1.405  1.3856 -1.2073 -1.5762
  195SOL     OW  583   2.651   0.662   0.826  0.0140 -0.5484  0.0932
  195SOL    HW1  584   2.605   0.585   0.772 -0.8221 -1.0215  0.8764
  195SOL    HW2  585   2.592   0.694   0.904 -1.1843  1.4014  2.9487
  196SOL     OW  586   1.141   1.791   1.706  0.7099 -0.1251  0.1421
  196SOL    HW1  587   1.052   1.815   1.663 -0.7134  1.2104 -1.9391
  196SOL    HW2  588   1.142   1.824   1.806 -1.5731  1.9798  0.0306
  197SOL     OW  589   0.424   0.611   2.422 -0.2803 -0.1790  0.5923
  197SOL    HW1  590   0.374   0.651   2.500 -1.6678 -2.1429 -2.1370
  197SOL    HW2  591   0.363   0.610   2.337 -1.7345 -0.4495 -3.0289
  198SOL     OW  592   1.545   1.246   1.029 -0.5466 -0.4326 -0.6301
  198SOL    HW1  593   1.464   1.230   0.966  0.1398 -0.0992 -0.5067
  198SOL    HW2  594   1.586   1.341   1.016  2.9989 -0.6225  1.7412
  199SOL     OW  595   2.394   0.465   2.239 -0.3361 -0.6540 -0.6599
  199SOL    HW1  596   2.387   0.557   2.289  0.1567  1.1330 -1.1800
  199SOL    HW2  597   2.466   0.411   2.287 -0.7613 -2.6260  1.1412
  200SOL     OW  598   2.280   2.407   2.276 -0.2760  0.5901  0.3179
  200SOL    HW1  599   2.340   2.460   2.336 -0.3450  1.1471 -0.4382
  200SOL    HW2  600   2.323   2.314   2.262  1.3294 -2.8085 -0.1008
  201SOL     OW  601   2.096   0.187   1.542  0.2754  0.3778  0.1799
  201SOL    HW1  602   2.003   0.231   1.531 -1.1665  0.5307  0.0973
  201SOL    HW2  603   2.115   0.184   1.640  0.3100 -0.7911  0.6259
  202SOL     OW  604   2.224   2.890   0.184  0.0498  0.9232 -0.2074
  202SOL    HW1  605   2.263   2.987   0.204  0.1231 -0.6423  0.6668
  202SOL    HW2  606   2.227   2.860   0.090  1.4992  1.7765  0.7768
  203SOL     OW  607   0.689   2.014   2.463  0.1506 -0.4039  0.3812
  203SOL    HW1  608   0.684   2.115   2.451  1.5698 -1.0482  0.5246
  203SOL    HW2  609   0.631   1.981   2.543  0.4448  1.4494 -1.2555
  204SOL     OW  610   0.975   1.287   2.696  0.1013 -0.2869  0.2982
  204SOL    HW1  611   0.888   1.342   2.694  2.4734  0.9435 -0.1018
  204SOL    HW2  612   0.966   1.203   2.754  0.4402  0.7043 -1.5945
  205SOL     OW  613   1.179   1.034   1.415  0.0835 -0.1793 -0.5434
  205SOL    HW1  614   1.196   0.945   1.468 -0.3014 -3.3182  0.0256
  205SOL    HW2  615   1.188   1.024   1.311  0.5326 -1.5345 -2.2864
  206SOL     OW  616   0.596   0.479   2.775 -0.1700  0.1809 -0.1272
  206SOL    HW1  617   0.612   0.480   2.673 -1.6981  1.4335  0.0238
  206SOL    HW2  618   0.668   0.422   2.826  2.3383 -2.3998  3.5620
  207SOL     OW  619   1.650   2.450   1.861  0.1969 -0.0184 -0.0911
  207SOL    HW1  620   1.697   2.466   1.948  0.6577  0.2825 -0.1519
  207SOL    HW2  621   1.643   2.535   1.810 -1.0009 -0.6983  0.1031
  208SOL     OW  622   0.915   2.568   1.060 -0.1613 -0.6579  0.0751
  208SOL    HW1  623   0.952   2.643   1.001  0.6863  2.6113  1.0716
  208SOL    HW2  624   0.841   2.522   1.006  1.7725  0.6959  2.2491
  209SOL     OW  625   1.254   1.544   2.802 -0.0214  0.0389  0.0206
  209SOL    HW1  626   1.253   1.606   2.884 -0.6519 -0.3069  1.6537
  209SOL    HW2  627   1.300   1.457   2.821 -1.3219 -0.3330  0.8780
  210SOL     OW  628   2.235   0.900   0.903  0.8145  1.3616 -0.1382
  210SOL    HW1  629   2.330   0.866   0.914  0.3515  2.2367  0.6435
  210SOL    HW2  630   2.206   0.910   0.806  0.7599  0.4706 -0.7717
  211SOL     OW  631   1.044   2.666   0.398 -0.1418  0.6526  0.1095
  211SOL    HW1  632   1.093   2.602   0.332  0.5928 -5.2746 -0.1291
  211SOL    HW2  633   1.055   2.638   0.498  2.1835  0.7644  3.8127
  212SOL     OW  634   2.118   1.965   0.091  0.1382  0.0072  0.3793
  212SOL    HW1  635   2.134   1.906   0.006 -2.8137 -0.8815  0.3714
  212SOL    HW2  636   2.203   2.009   0.125  1.7897 -0.2532 -0.4357
  213SOL     OW  637   1.908   0.645   3.055  0.1794 -0.8306  0.2423
  213SOL    HW1  638   1.941   0.731   3.008  0.5204 -0.9401  1.4883
  213SOL    HW2  639   1.878   0.568   2.987  1.7793  0.6840  3.5532
  214SOL     OW  640   1.109   1.848   1.961 -0.1822  0.5468  0.1943
  214SOL    HW1  641   1.012   1.853   1.986  0.2281  0.0611 -0.5055
  214SOL    HW2  642   1.139   1.944   1.978  0.9812 -1.3612  0.0080
  215SOL     OW  643   0.519   1.813   0.526  0.5641 -0.5229 -0.2094
  215SOL    HW1  644   0.519   1.726   0.470 -2.7237 -0.7563 -0.5452
  215SOL    HW2  645   0.418   1.840   0.530 -0.2031 -2.2880 -3.0261
  216SOL     OW  646   0.037   0.058   2.432 -0.4555  0.2163 -0.2371
  216SOL    HW1  647   0.074   3.046   2.457 -1.6520  0.2794 -0.2136
  216SOL    HW2  648   0.059   0.087   2.336 -0.8600  0.4204 -0.5485
  217SOL     OW  649   2.485   0.669   1.241  0.4615 -0.3137  0.1194
  217SOL    HW1  650   2.412   0.597   1.235 -2.8388  2.0950  2.4184
  217SOL    HW2  651   2.554   0.635   1.302  0.0308  3.6306  2.3600
  218SOL     OW  652   1.405   1.979   2.018 -0.2213 -0.1912 -0.1773
  218SOL    HW1  653   1.425   1.967   1.916 -0.0168 -3.0430 -3.2516
  218SOL    HW2  654   1.427   1.901   2.076 -0.7227  2.2077 -1.8973
  219SOL     OW  655   2.052   1.551   0.059 -0.4052  0.0058 -0.0135
  219SOL    HW1  656   2.132   1.506   0.018 -0.1413  1.1305 -1.7054
  219SOL    HW2  657   2.003   1.615   3.075  0.0952 -0.6878  3.7786
  220SOL     OW  658   2.094   0.775   0.427  0.0560  0.2454 -0.0509
  220SOL    HW1  659   2.017   0.836   0.388 -3.1404  0.6183 -2.3566
  220SOL    HW2  660   2.066   0.677   0.420  1.3762 -2.4721  1.5223
  221SOL     OW  661   0.096   0.611   2.966  0.2311  1.0150  0.6494
  221SOL    HW1  662   0.024   0.586   3.037 -0.3861  0.1618  0.5956
  221SOL    HW2  663   0.179   0.559   2.967 -0.5473  0.8095  0.9852
  222SOL     OW  664   1.510   1.708   0.466  0.2795  0.3200  0.3350
  222SOL    HW1  665   1.603   1.669   0.446  1.8617  1.7529 -1.5902
  222SOL    HW2  666   1.513   1.806   0.487 -0.8047 -0.8865 -0.3914
  223SOL     OW  667   1.074   0.209   0.175  0.6655  0.6020  0.5915
  223SOL    HW1  668   1.144   0.278   0.205 -2.6676 -0.5925 -1.8820
  223SOL    HW2  669   0.997   0.257   0.126  0.9047  2.4452  0.5749
  224SOL     OW  670   1.760   0.117   1.251  0.0286 -0.1477 -0.0535
  224SOL    HW1  671   1.764   0.040   1.318  1.0571  2.4269  3.0039
  224SOL    HW2  672   1.845   0.141   1.197 -0.9236 -1.0720 -0.3274
  225SOL     OW  673   0.725   2.240   1.160  0.5804  0.8364 -0.2499
  225SOL    HW1  674   0.772   2.252   1.248  1.1090  1.3744 -0.8555
  225SOL    HW2  675   0.751   2.315   1.099 -0.8739 -0.8255  2.3275
  226SOL     OW  676   1.111   1.424   0.059  0.2654 -0.0272  0.9552
  226SOL    HW1  677   1.116   1.501   3.071 -1.7151 -3.4096  0.2557
  226SOL    HW2  678   1.176   1.432   0.135 -0.6399 -2.6696  2.3098
  227SOL     OW  679   1.129   1.440   1.260  0.8358 -0.0468 -0.6472
  227SOL    HW1  680   1.107   1.374   1.186  4.0719  3.1848  0.8405
  227SOL    HW2  681   1.068   1.523   1.253 -1.5981  0.5871 -1.1118
  228SOL     OW  682   0.281   1.914   0.590 -0.2679  0.0772 -0.2190
  228SOL    HW1  683   0.219   1.840   0.627 -1.0522 -1.3809 -0.1433
  228SOL    HW2  684   0.223   1.969   0.531  2.7993 -1.1064  2.1576
  229SOL     OW  685   1.777   0.095   2.753  0.1589 -0.2037  0.6245
  229SOL    HW1  686   1.737   0.065   2.661  0.2509  2.2865 -0.9458
  229SOL    HW2  687   1.704   0.133   2.814  2.1019 -1.8286  0.7415
  230SOL     OW  688   1.582   1.083   2.739 -0.2865  0.2722 -0.4466
  230SOL    HW1  689   1.625   1.051   2.654  0.7728  2.5695 -0.5645
  230SOL    HW2  690   1.609   1.173   2.766  0.6867 -2.5999  1.4232
  231SOL     OW  691   0.900   1.674   2.454  0.1704 -0.2590  0.2859
  231SOL    HW1  692   0.863   1.590   2.408 -2.1020 -0.3406 -0.5126
  231SOL    HW2  693   0.859   1.759   2.421  0.8382 -1.6301  2.6179
  232SOL     OW  694   2.376   2.329   0.264 -0.2294 -0.3212  0.2730
  232SOL    HW1  695   2.281   2.310   0.300 -2.0925 -0.8120  1.5601
  232SOL    HW2  696   2.429   2.244   0.257 -0.5035  0.3596  0.3638
  233SOL     OW  697   2.640   2.300   0.502  0.2715  0.3890 -0.3662
  233SOL    HW1  698   2.592   2.323   0.413 -1.5973  1.2015  0.6576
  233SOL    HW2  699   2.586   2.241   0.561  1.2386  0.2464 -2.6148
  234SOL     OW  700   0.760   0.685   2.847  0.2001  0.0366 -0.1344
  234SOL    HW1  701   0.696   0.610   2.813  0.8184 -0.6017  2.7469
  234SOL    HW2  702   0.854   0.641   2.855  1.3566  0.3178  2.7334
  235SOL     OW  703   2.593   0.322   2.816 -0.1121 -0.3549  0.0222
  235SOL    HW1  704   2.661   0.258   2.854  0.3016  2.6352  0.9965
  235SOL    HW2  705   2.641   0.398   2.772  0.7871 -0.4035 -0.6535
  236SOL     OW  706   1.878   2.275   1.238  0.2357 -0.1268  0.1917
  236SOL    HW1  707   1.822   2.239   1.317 -0.5224 -1.4541  0.1647
  236SOL    HW2  708   1.970   2.303   1.262 -0.4266 -0.8525  0.6417
  237SOL     OW  709   0.853   1.865   2.034 -0.0153  0.5049 -0.5026
  237SOL    HW1  710   0.825   1.954   1.998  0.2555 -1.0896  2.1213
  237SOL    HW2  711   0.846   1.863   2.136  0.5371  0.5383  1.3002
  238SOL     OW  712   1.323   0.107   2.692 -0.2728  0.3126  1.1512
  238SOL    HW1  713   1.255   0.030   2.689  1.3672  2.6115  0.4958
  238SOL    HW2  714   1.272   0.191   2.721 -1.0784  0.2876 -0.7851
  239SOL     OW  715   0.368   2.139   1.979 -0.5096  0.3049 -0.1726
  239SOL    HW1  716   0.439   2.192   2.035 -0.6546 -1.6313  2.7930
  239SOL    HW2  717   0.376   2.171   1.879 -0.8137  1.7206 -1.7158
  240SOL     OW  718   2.380   2.531   0.477 -0.2929 -0.0884 -0.7775
  240SOL    HW1  719   2.319   2.600   0.429 -2.1953  3.5965  0.6116
  240SOL    HW2  720   2.370   2.436   0.437 -1.6470 -2.2034 -0.9119
  241SOL     OW  721   2.493   0.813   0.996 -0.3561  0.5892 -0.1460
  241SOL    HW1  722   2.485   0.779   1.092 -0.8741  1.2561  4.3071
  241SOL    HW2  723   2.500   0.917   0.997  0.0866  0.6550 -1.0744
  242SOL     OW  724   2.094   2.394   2.039 -0.0056  0.1111  0.2544
  242SOL    HW1  725   2.081   2.293   2.026 -0.2045 -0.8323 -0.3450
  242SOL    HW2  726   2.145   2.416   2.128 -1.3152  2.9580  0.7134
  243SOL     OW  727   0.857   2.281   1.396  0.7648  0.0506 -0.1070
  243SOL    HW1  728   0.958   2.284   1.385  0.9771 -0.1775 -0.3852
  243SOL    HW2  729   0.813   2.374   1.385  0.1690 -0.1924  0.7376
  244SOL     OW  730   1.860   0.378   2.972  0.3745  0.5339 -0.1998
  244SOL    HW1  731   1.810   0.364   2.884  2.0418 -1.4435 -2.5680
  244SOL    HW2  732   1.957   0.401   2.959  1.2439 -1.1959 -2.5583
  245SOL     OW  733   1.314   0.376   1.286 -0.3322 -0.9422 -0.4402
  245SOL    HW1  734   1.293   0.472   1.309 -0.7914 -1.5623 -0.5509
  245SOL    HW2  735   1.258   0.338   1.212 -0.5573  0.7341 -0.2433
  246SOL     OW  736   1.789   2.552   0.063 -0.2078  0.2419  0.0308
  246SOL    HW1  737   1.887   2.565   0.028  0.9556 -1.0847 -0.4903
  246SOL    HW2  738   1.728   2.600   0.001  1.0171  0.2924 -0.4566
  247SOL     OW  739   1.308   0.608   2.295  0.3982  0.3532  0.4747
  247SOL    HW1  740   1.248   0.548   2.356  0.8499  0.0939  2.2129
  247SOL    HW2  741   1.402   0.590   2.324 -2.2662 -0.0802  1.0916
  248SOL     OW  742   0.634   1.827   1.676 -0.3732  0.1093  0.7859
  248SOL    HW1  743   0.724   1.871   1.650  1.5893  0.0248 -1.4711
  248SOL    HW2  744   0.583   1.873   1.747  0.8354  1.6612 -0.2360
  249SOL     OW  745   2.223   0.147   0.529 -0.5289 -0.0736  0.3257
  249SOL    HW1  746   2.217   0.240   0.483 -1.0167  3.0877  0.0276
  249SOL    HW2  747   2.132   0.135   0.573 -1.1585 -0.9806  1.1862
  250SOL     OW  748   2.904   0.449   2.895 -0.2110 -0.1289 -0.4613
  250SOL    HW1  749   2.875   0.365   2.940  1.8338  2.1087 -0.2055
  250SOL    HW2  750   2.950   0.517   2.957 -1.1037  0.7862 -0.3589
  251SOL     OW  751   1.399   0.700   3.037  0.4374 -0.4463 -0.2472
  251SOL    HW1  752   1.447   0.787   3.067 -2.9117  1.2568  1.3604
  251SOL    HW2  753   1.339   0.713   2.957  2.6549  1.1693 -1.4009
  252SOL     OW  754   1.786   1.875   1.864  0.4007 -0.0776  0.1513
  252SOL    HW1  755   1.695   1.909   1.829 -2.0357  0.4535 -0.4251
  252SOL    HW2  756   1.815   1.926   1.951 -0.9518 -0.1110  0.4771
  253SOL     OW  757   2.499   2.235   1.090 -0.2315  0.4813 -0.3068
  253SOL    HW1  758   2.576   2.191   1.035  0.2996  0.2281 -0.8993
  253SOL    HW2  759   2.524   2.332   1.112  0.1971  1.1341 -1.8256
  254SOL     OW  760   2.798   1.219   1.144  0.1661 -0.2469  0.1080
  254SOL    HW1  761   2.880   1.197   1.203 -0.9762  0.8659 -1.5543
  254SOL    HW2  762   2.837   1.264   1.060 -1.6666 -4.0139 -0.2234
  255SOL     OW  763   1.241   0.355   1.005  0.0003 -0.3162  0.1509
  255SOL    HW1  764   1.163   0.313   0.950  0.5021  0.6394  0.5942
  255SOL    HW2  765   1.215   0.451   1.038 -0.8584  1.2735 -0.8682
  256SOL     OW  766   1.460   2.431   1.288  0.0787  0.6332 -0.0210
  256SOL    HW1  767   1.368   2.480   1.275  0.2020 -0.1233  1.3026
  256SOL    HW2  768   1.464   2.353   1.223  0.4537 -1.8011  1.5166
  257SOL     OW  769   0.731   3.015   2.528  0.0496  0.1893  0.4729
  257SOL    HW1  770   0.830   3.019   2.525 -0.4659 -0.1583 -1.6768
  257SOL    HW2  771   0.699   2.943   2.461  0.1318 -1.7724 -2.0899
  258SOL     OW  772   0.952   2.334   0.624  0.0200 -1.0697 -0.2752
  258SOL    HW1  773   0.947   2.437   0.645 -0.0128  4.1133  0.5125
  258SOL    HW2  774   0.915   2.277   0.697 -0.4539  2.7822  0.7397
  259SOL     OW  775   1.578   2.895   2.774  0.0810 -0.1856 -0.7172
  259SOL    HW1  776   1.488   2.855   2.792 -1.3902  1.0323  0.5082
  259SOL    HW2  777   1.579   2.954   2.688 -0.2853  0.0813  0.3001
  260SOL     OW  778   2.371   0.279   1.560 -0.5347 -0.0929 -0.8369
  260SOL    HW1  779   2.274   0.265   1.524  0.7293  1.3138 -0.6530
  260SOL    HW2  780   2.427   0.200   1.547 -0.4948  1.0817  1.9151
  261SOL     OW  781   0.632   0.459   2.499 -0.1807 -0.4220  0.1762
  261SOL    HW1  782   0.547   0.509   2.476  1.1677 -1.8117  2.0376
  261SOL    HW2  783   0.712   0.516   2.472  1.3386  0.3637 -0.0201
  262SOL     OW  784   0.435   2.284   2.385  0.1448 -0.1130 -0.2290
  262SOL    HW1  785   0.480   2.290   2.479  0.1874  0.1476  1.5830
  262SOL    HW2  786   0.360   2.354   2.379 -0.0838 -0.4928 -1.8184
  263SOL     OW  787   0.228   1.649   2.564  0.4380 -0.0821 -0.2072
  263SOL    HW1  788   0.143   1.705   2.584  1.6723 -0.1248  0.9301
  263SOL    HW2  789   0.293   1.702   2.505  0.6201 -2.0470  0.0364
  264SOL     OW  790   1.331   1.244   0.863  0.2238 -0.2318 -0.1946
  264SOL    HW1  791   1.370   1.230   0.773 -1.7476  2.3276  6.3086
  264SOL    HW2  792   1.233   1.208   0.867  1.8210  1.5288 -1.0738
  265SOL     OW  793   1.460   2.784   0.544  0.1378 -0.3653  0.2535
  265SOL    HW1  794   1.450   2.694   0.502  2.1317  2.1926  1.5118
  265SOL    HW2  795   1.470   2.768   0.643 -2.3439  0.4657 -2.3410
  266SOL     OW  796   1.523   0.985   1.481 -0.3258  0.4373  0.2738
  266SOL    HW1  797   1.480   1.069   1.517  1.4458 -0.3397  1.8396
  266SOL    HW2  798   1.618   1.014   1.447  0.3243  0.7765 -0.4862
  267SOL     OW  799   2.408   1.141   2.659 -0.5431 -0.2962 -0.0197
  267SOL    HW1  800   2.464   1.104   2.580  0.6138 -1.3178 -1.4915
  267SOL    HW2  801   2.314   1.153   2.618 -0.7359 -0.0670  0.9645
  268SOL     OW  802   1.271   0.405   0.193  0.4864  0.0589 -0.0288
  268SOL    HW1  803   1.334   0.429   0.270 -0.0906 -2.2824  0.5366
  268SOL    HW2  804   1.307   0.431   0.099 -2.4974 -1.4945 -0.5873
  269SOL     OW  805   2.971   0.847   2.701  0.2084 -0.2090  0.0712
  269SOL    HW1  806   3.005   0.770   2.647 -3.4285  1.5395  1.1005
  269SOL    HW2  807   3.042   0.891   2.758  0.9311 -0.5861  1.1840
  270SOL     OW  808   0.210   1.478   0.140  0.1231  0.5255 -0.0657
  270SOL    HW1  809   0.122   1.430   0.141  0.0174  1.9878 -0.6315
  270SOL    HW2  810   0.269   1.454   0.059 -0.6294  3.3962  1.0964
  271SOL     OW  811   2.533   1.012   3.061  0.4211 -0.1393  0.3811
  271SOL    HW1  812   2.436   1.022   3.033 -1.7461 -0.4288 -0.5401
  271SOL    HW2  813   2.550   0.917   0.016  1.3067  0.4935  0.8566
  272SOL     OW  814   2.969   2.495   2.241 -0.2591  0.1293 -0.2362
  272SOL    HW1  815   2.892   2.563   2.225 -0.4848  1.9294 -0.2195
  272SOL    HW2  816   3.025   2.516   2.327  2.4294 -1.4618  0.2593
  273SOL     OW  817   0.009   0.115   0.094  0.0075 -0.4486 -0.2966
  273SOL    HW1  818   0.042   0.202   0.136  3.7082  0.2469  0.7167
  273SOL    HW2  819   0.028   0.039   0.155 -0.9493  1.5854 -0.9636
  274SOL     OW  820   0.852   2.185   0.828 -0.3918  0.9241 -0.1308
  274SOL    HW1  821   0.772   2.118   0.819 -0.0891 -0.6845 -0.1470
  274SOL    HW2  822   0.937   2.144   0.870 -0.3988 -0.5151  1.1525
  275SOL     OW  823   2.286   0.618   0.664  0.2223  0.4737 -0.4810
  275SOL    HW1  824   2.373   0.563   0.685 -0.0886 -0.2106  1.1825
  275SOL    HW2  825   2.297   0.715   0.641  4.2548 -0.5146  0.3553
  276SOL     OW  826   2.424   1.398   1.219  0.3233  0.5729 -0.3818
  276SOL    HW1  827   2.394   1.323   1.278 -0.5165  2.4519  1.8394
  276SOL    HW2  828   2.340   1.456   1.206 -2.3736 -0.6789  1.4982
  277SOL     OW  829   2.474   3.073   0.824 -0.1950 -0.5701 -0.2467
  277SOL    HW1  830   2.533   2.991   0.831  1.0442 -0.5053  1.8365
  277SOL    HW2  831   2.488   0.047   0.913 -0.6759 -0.8857 -1.0842
  278SOL     OW  832   1.593   2.741   2.230 -0.0438  0.3815  0.3333
  278SOL    HW1  833   1.519   2.697   2.180  1.2930  1.3325  1.2982
  278SOL    HW2  834   1.580   2.717   2.327  3.1283 -1.6510  1.3652
  279SOL     OW  835   1.301   2.209   0.884  0.2605 -0.6573 -0.6137
  279SOL    HW1  836   1.239   2.205   0.966  0.2030  0.1029 -0.1982
  279SOL    HW2  837   1.311   2.303   0.849 -0.2582 -2.9585  0.9485
  280SOL     OW  838   0.461   1.033   0.946  0.8864 -0.0257 -0.3432
  280SOL    HW1  839   0.398   1.112   0.932  0.0878  0.7463  0.2133
  280SOL    HW2  840   0.510   1.036   1.038 -1.9511  0.3507  1.9567
  281SOL     OW  841   2.452   1.384   2.827 -0.7198  0.6023  0.6433
  281SOL    HW1  842   2.440   1.310   2.756 -2.4726 -2.6308 -2.5876
  281SOL    HW2  843   2.463   1.477   2.787  1.0263  0.1892  0.1863
  282SOL     OW  844   0.260   1.412   0.390 -0.6807 -0.3177  0.2677
  282SOL    HW1  845   0.231   1.466   0.306 -4.7324 -0.6320 -1.2380
  282SOL    HW2  846   0.269   1.315   0.362  0.1818 -0.1673 -1.5562
  283SOL     OW  847   1.742   2.512   2.777  0.1358 -0.1434 -0.0836
  283SOL    HW1  848   1.846   2.535   2.764  3.0419  1.8730  1.2441
  283SOL    HW2  849   1.714   2.433   2.711  2.1086 -1.1431  2.2545
  284SOL     OW  850   1.034   0.110   0.677 -0.2764 -0.3572 -0.4252
  284SOL    HW1  851   0.997   0.046   0.606 -0.5734 -0.0911  1.1632
  284SOL    HW2  852   1.132   0.126   0.663 -2.8588 -0.9214 -0.3260
  285SOL     OW  853   2.156   1.213   2.533 -0.3900 -0.0481 -0.5534
  285SOL    HW1  854   2.144   1.304   2.482  0.5231 -2.1475  0.9491
  285SOL    HW2  855   2.096   1.205   2.611  1.9397  0.1453 -0.7250
  286SOL     OW  856   1.604   2.571   0.970  0.8850 -0.2519  0.1640
  286SOL    HW1  857   1.658   2.574   1.055  0.4849 -1.8361  0.8878
  286SOL    HW2  858   1.620   2.481   0.918 -3.4832 -5.3714 -1.0356
  287SOL     OW  859   1.392   0.564   0.802 -0.1059  0.6021 -0.1445
  287SOL    HW1  860   1.355   0.483   0.856  1.3582 -1.7803 -0.6907
  287SOL    HW2  861   1.368   0.651   0.850  1.0413 -2.4753  1.2614
  288SOL     OW  862   0.808   2.687   2.647  0.1865  0.1149  0.4007
  288SOL    HW1  863   0.751   2.758   2.695 -0.2388 -0.6220  2.1562
  288SOL    HW2  864   0.752   2.633   2.583  0.7415  0.5494  1.2905
  289SOL     OW  865   0.071   1.552   0.988  0.2764  0.9235 -0.2181
  289SOL    HW1  866   0.078   1.459   1.030  0.0879 -0.4181 -0.4365
  289SOL    HW2  867   3.055   1.580   0.971  1.8339 -1.1627 -0.0804
  290SOL     OW  868   1.314   2.061   0.666 -0.2365  0.1522  0.3107
  290SOL    HW1  869   1.297   2.111   0.755 -0.3204 -0.8526  0.8672
  290SOL    HW2  870   1.313   2.128   0.594  0.7036 -0.5882  0.6917
  291SOL     OW  871   1.647   3.058   0.187  0.6145 -0.5890  0.4592
  291SOL    HW1  872   1.612   0.067   0.146  1.2413  1.2352  0.3340
  291SOL    HW2  873   1.744   3.072   0.208 -1.0295  3.1479  1.8516
  292SOL     OW  874   0.371   0.368   2.115  1.0254 -0.2162  0.2461
  292SOL    HW1  875   0.402   0.301   2.189 -0.1495 -2.3773  2.0232
  292SOL    HW2  876   0.330   0.456   2.151 -0.2944  2.6252  0.7471
  293SOL     OW  877   2.624   1.619   1.009  0.1631  0.2921 -0.0652
  293SOL    HW1  878   2.601   1.672   0.923  0.8478  0.0493  0.4427
  293SOL    HW2  879   2.598   1.672   1.096 -0.0643 -0.3166  1.7539
  294SOL     OW  880   0.869   0.104   2.060 -0.2115  0.0355  0.7927
  294SOL    HW1  881   0.782   0.112   2.110  1.9818  0.4665  1.1148
  294SOL    HW2  882   0.902   0.006   2.060  0.0784 -1.0095  0.4150
  295SOL     OW  883   1.228   1.763   0.909  0.2190  0.0398 -0.3323
  295SOL    HW1  884   1.309   1.748   0.970 -0.4702 -0.3621 -2.1747
  295SOL    HW2  885   1.155   1.696   0.935  0.2599  0.6116 -0.1062
  296SOL     OW  886   2.430   2.046   0.179  0.1847  0.2711  0.5051
  296SOL    HW1  887   2.427   1.960   0.123 -1.1382  0.0866  0.1853
  296SOL    HW2  888   2.513   2.111   0.158  2.6117  2.1121  0.9565
  297SOL     OW  889   2.516   3.026   0.093 -0.4342 -0.4127 -0.5648
  297SOL    HW1  890   2.610   3.041   0.131 -0.0279  1.4437  1.1391
  297SOL    HW2  891   2.497   2.938   0.052 -0.5485  1.8990 -0.0115
  298SOL     OW  892   1.147   0.301   2.841 -0.0921 -0.1945 -0.6334
  298SOL    HW1  893   1.082   0.291   2.765  3.2545  0.4324 -0.7747
  298SOL    HW2  894   1.136   0.392   2.883  0.6089 -0.3393 -0.1114
  299SOL     OW  895   0.640   2.568   2.483 -0.1457  0.4717  0.3888
  299SOL    HW1  896   0.616   2.636   2.411 -2.2266  2.3470  1.3093
  299SOL    HW2  897   0.569   2.557   2.545  3.8142 -0.2720 -1.0952
  300SOL     OW  898   2.772   3.068   2.349 -0.1550 -0.1229 -0.3044
  300SOL    HW1  899   2.675   3.078   2.371 -0.5491 -0.1189  1.6729
  300SOL    HW2  900   2.802   0.021   2.260 -0.3146 -0.6403  0.1686
  301SOL     OW  901   1.475   0.192   1.581  0.0295 -0.1051 -0.5194
  301SOL    HW1  902   1.474   0.251   1.670  2.0394  0.9267  2.2509
  301SOL    HW2  903   1.517   0.239   1.500 -1.9595 -2.3128 -0.1487
  302SOL     OW  904   3.048   2.424   3.037 -0.1505  0.3651 -0.2453
  302SOL    HW1  905   0.040   2.422   0.024 -3.3146  2.8702 -1.8836
  302SOL    HW2  906   0.008   2.398   2.946 -0.0566 -0.4806  2.2899
  303SOL     OW  907   2.091   2.074   1.582  0.2375  0.0431 -0.5582
  303SOL    HW1  908   2.001   2.026   1.594 -1.2485 -1.1765 -2.9009
  303SOL    HW2  909   2.080   2.177   1.577  0.7260 -1.1072  1.2258
  304SOL     OW  910   2.734   0.897   1.436  0.9453  0.5244 -0.8934
  304SOL    HW1  911   2.748   0.839   1.355  2.6574  0.5398 -0.1545
  304SOL    HW2  912   2.821   0.942   1.466  2.3842  0.8300  1.5753
  305SOL     OW  913   0.503   1.608   0.904  0.1101 -0.3141 -0.0161
  305SOL    HW1  914   0.580   1.639   0.960 -0.2001 -0.0399 -1.7105
  305SOL    HW2  915   0.416   1.656   0.930  0.3677  1.2434 -0.4138
  306SOL     OW  916   0.487   1.414   2.593 -0.3959  0.5329  0.5722
  306SOL    HW1  917   0.430   1.480   2.646  0.1883 -2.0756  1.3511
  306SOL    HW2  918   0.436   1.326   2.583 -2.3298 -1.1606  0.0583
  307SOL     OW  919   1.071   0.046   1.341 -0.3725  0.2619 -0.0528
  307SOL    HW1  920   1.095   0.111   1.420 -2.3859  1.8312 -0.5532
  307SOL    HW2  921   1.140   3.051   1.335  0.8149  1.0159 -1.1391
  308SOL     OW  922   0.203   0.849   1.025  0.1253 -0.5245 -0.0613
  308SOL    HW1  923   0.154   0.871   0.942  1.1287 -1.2468  0.8842
  308SOL    HW2  924   0.296   0.806   1.014  2.8274 -3.9737 -2.6407
  309SOL     OW  925   2.545   1.113   1.050  0.2847 -0.4620 -0.2688
  309SOL    HW1  926   2.492   1.190   1.009  0.4673  0.1110 -0.3731
  309SOL    HW2  927   2.635   1.146   1.078 -0.9251 -2.3303 -0.6383
  310SOL     OW  928   0.302   2.015   2.717  0.1173  0.2363 -0.6092
  310SOL    HW1  929   0.389   1.963   2.715  0.7275 -2.8600 -0.2289
  310SOL    HW2  930   0.260   2.012   2.625  0.2669  2.6558  3.0731
  311SOL     OW  931   2.478   2.547   2.420 -0.1753  0.7312 -0.0962
  311SOL    HW1  932   2.516   2.563   2.323  2.9525 -0.7208 -2.0743
  311SOL    HW2  933   2.525   2.606   2.486  1.3114 -0.1466 -0.4760
  312SOL     OW  934   2.127   1.866   2.847 -0.0609  0.1391  0.1109
  312SOL    HW1  935   2.105   1.947   2.786  0.1714  0.3566 -1.6308
  312SOL    HW2  936   2.232   1.855   2.848  1.6905  1.9421  0.3804
  313SOL     OW  937   0.367   0.003   0.634 -0.7331  0.1733 -0.0989
  313SOL    HW1  938   0.463   0.024   0.661 -0.5343  0.9341  1.1488
  313SOL    HW2  939   0.358   0.002   0.532 -0.4715 -0.0087 -1.5297
  314SOL     OW  940   1.968   1.059   2.727  0.9950  0.1395  0.1654
  314SOL    HW1  941   1.962   1.002   2.808  2.6546  1.3090  0.0403
  314SOL    HW2  942   1.980   1.158   2.763  0.5728  2.4499  2.1039
  315SOL     OW  943   1.515   3.016   2.534 -0.2062  0.5236  0.2695
  315SOL    HW1  944   1.456   0.011   2.561  1.7185 -1.1802 -0.3948
  315SOL    HW2  945   1.565   3.032   2.448 -0.3106 -1.4890 -0.2512
  316SOL     OW  946   2.808   1.162   0.668  0.1973 -0.1627  0.1331
  316SOL    HW1  947   2.761   1.072   0.686 -0.8229 -1.5416 -1.3939
  316SOL    HW2  948   2.769   1.202   0.577 -1.9638  2.4837 -0.3872
  317SOL     OW  949   0.554   2.646   2.938  0.4621  0.3791 -0.1206
  317SOL    HW1  950   0.489   2.714   2.974  1.7173 -2.2789  0.0862
  317SOL    HW2  951   0.640   2.646   2.997 -1.0518 -1.2146  1.9742
  318SOL     OW  952   2.522   2.528   0.984 -0.0518  0.2986  0.1889
  318SOL    HW1  953   2.505   2.557   0.884  0.5647  0.0761  0.6177
  318SOL    HW2  954   2.444   2.543   1.043  3.2264 -1.3101 -2.7687
  319SOL     OW  955   1.036   1.981   2.656  0.7334  0.6235  0.3173
  319SOL    HW1  956   1.071   1.974   2.557  2.6903 -1.1497 -3.1936
  319SOL    HW2  957   0.987   1.895   2.679  3.2481  1.4991  0.8948
  320SOL     OW  958   0.501   1.904   1.260  0.0529 -0.0757 -0.1902
  320SOL    HW1  959   0.440   1.830   1.238  1.1282  3.2607  1.1840
  320SOL    HW2  960   0.495   1.932   1.363 -1.6758  0.6952  1.0171
  321SOL     OW  961   1.159   2.612   1.957 -0.5325 -1.3558  0.4097
  321SOL    HW1  962   1.158   2.702   1.904  1.3408 -0.2660  0.9403
  321SOL    HW2  963   1.216   2.537   1.907  2.1866 -1.8511 -1.2458
  322SOL     OW  964   2.464   1.743   2.019  0.5314 -0.3235  0.3688
  322SOL    HW1  965   2.492   1.671   2.084  0.5627  2.1507 -0.2606
  322SOL    HW2  966   2.511   1.831   2.044  0.2158 -0.7663  0.3352
  323SOL     OW  967   2.906   0.423   0.922  0.0804 -0.2478  0.4214
  323SOL    HW1  968   2.904   0.425   0.819  0.9428  0.9023 -1.9987
  323SOL    HW2  969   2.994   0.450   0.959  0.8603 -3.0387  0.9483
  324SOL     OW  970   2.604   2.712   2.580  0.0090 -0.6411  0.3678
  324SOL    HW1  971   2.599   2.729   2.682 -1.4304  0.4302 -2.2557
  324SOL    HW2  972   2.694   2.754   2.541  3.7737  2.3012 -1.0289
  325SOL     OW  973   1.024   0.233   2.587  0.2568  0.5753  0.1823
  325SOL    HW1  974   1.067   0.211   2.493  1.7007 -1.5663 -2.8729
  325SOL    HW2  975   0.925   0.206   2.589 -1.2215  0.1090 -0.1003
  326SOL     OW  976   2.031   2.491   1.736 -0.0282  0.5935  0.3935
  326SOL    HW1  977   2.112   2.550   1.715  1.5404  1.1696  1.6231
  326SOL    HW2  978   1.981   2.532   1.813  1.1065  1.4805 -0.4865
  327SOL     OW  979   2.123   0.055   0.048  0.4677 -0.3414 -0.4234
  327SOL    HW1  980   2.199   0.068   0.115 -1.5361 -1.1065 -2.2757
  327SOL    HW2  981   2.143   3.062   3.058 -0.7880 -0.6857 -2.7226
  328SOL     OW  982   0.394   1.387   2.074 -0.0662 -0.6794 -0.1787
  328SOL    HW1  983   0.479   1.434   2.042  0.3108  2.4793  0.8046
  328SOL    HW2  984   0.318   1.427   2.018  1.2488 -0.4816 -1.4530
  329SOL     OW  985   2.097   0.490   1.722 -0.0907  0.2127  0.2450
  329SOL    HW1  986   2.002   0.517   1.739  1.8874 -1.3233 -3.2060
  329SOL    HW2  987   2.159   0.576   1.708  1.9426  1.0792 -3.5991
  330SOL     OW  988   0.063   1.156   0.915 -0.3447 -0.1904 -0.4777
  330SOL    HW1  989   0.047   1.056   0.919  0.1193  1.9649  2.2405
  330SOL    HW2  990   0.081   1.198   1.007  3.1415  1.1551  1.3297
  331SOL     OW  991   0.580   1.570   1.971 -0.3837  0.7042 -0.3600
  331SOL    HW1  992   0.662   1.598   1.911  0.4133  2.4030 -3.9597
  331SOL    HW2  993   0.588   1.596   2.073 -2.1847 -2.8771 -0.5626
  332SOL     OW  994   0.099   2.448   1.629  0.3095 -0.3932 -0.5885
  332SOL    HW1  995   0.184   2.479   1.578  2.0355  2.9978  2.0439
  332SOL    HW2  996   0.016   2.448   1.568  1.8888 -0.9971  1.5273
  333SOL     OW  997   2.554   0.132   1.044 -0.5139 -0.2814  0.2833
  333SOL    HW1  998   2.653   0.144   1.025 -0.4275 -0.2035 -0.0706
  333SOL    HW2  999   2.531   0.113   1.138 -1.4490 -0.0868 -1.4699
  334SOL     OW 1000   0.183   1.687   0.718 -0.3266  0.0377  0.4691
  334SOL    HW1 1001   0.159   1.593   0.683 -2.1737 -1.4702  0.2297
  334SOL    HW2 1002   0.234   1.677   0.806  1.4957 -0.2347  2.0840
  335SOL     OW 1003   0.142   2.621   2.795  0.1924  0.2326  0.0022
  335SOL    HW1 1004   0.114   2.521   2.789 -1.3587 -1.2297 -1.0473
  335SOL    HW2 1005   0.224   2.631   2.741  0.0146  1.6243 -0.4771
  336SOL     OW 1006   2.815   2.810   2.460  0.8400 -0.1710  0.3257
  336SOL    HW1 1007   2.891   2.786   2.520 -0.9744 -0.4576 -0.4351
  336SOL    HW2 1008   2.806   2.909   2.444 -0.2991 -2.4615 -0.0431
  337SOL     OW 1009   1.823   2.262   1.756  0.2082  0.1571  0.4578
  337SOL    HW1 1010   1.881   2.291   1.674  3.7821  2.4533 -2.9725
  337SOL    HW2 1011   1.777   2.335   1.802  2.2839 -3.0547  0.1977
  338SOL     OW 1012   0.902   3.022   2.964 -0.0639  0.0387  0.2250
  338SOL    HW1 1013   0.830   0.005   3.001  1.8966  1.5316  0.0907
  338SOL    HW2 1014   0.994   3.066   2.988 -0.8060 -0.4835 -2.0243
  339SOL     OW 1015   0.482   1.107   2.058  0.0194  0.0223  0.1072
  339SOL    HW1 1016   0.488   1.073   2.152 -0.2198  0.8165 -1.7094
  339SOL    HW2 1017   0.463   1.207   2.053  1.9971 -0.6101  1.3886
  340SOL     OW 1018   1.639   3.008   0.887 -0.1432  0.1946  0.5263
  340SOL    HW1 1019   1.739   2.990   0.903  2.6851  1.2422 -0.4990
  340SOL    HW2 1020   1.628   3.030   0.785 -2.3098  0.3180 -0.1022
  341SOL     OW 1021   1.901   1.175   1.001 -0.0749  0.0893  0.3593
  341SOL    HW1 1022   1.974   1.120   1.047  1.1995  3.0690 -2.0237
  341SOL    HW2 1023   1.856   1.241   1.063 -1.8098  0.0859  0.0633
  342SOL     OW 1024   2.511   2.755   0.054  0.1756 -0.5813 -0.0115
  342SOL    HW1 1025   2.444   2.683   0.091 -1.8981 -0.9378  1.6407
  342SOL    HW2 1026   2.604   2.716   0.060  0.0907  4.5054 -0.8749
  343SOL     OW 1027   0.893   2.206   1.659  0.1781  0.3800  0.0961
  343SOL    HW1 1028   0.946   2.275   1.709 -3.7752 -2.1792 -0.9035
  343SOL    HW2 1029   0.885   2.229   1.562  2.5878  0.6211  3.9258
  344SOL     OW 1030   2.480   2.674   1.391  0.1099  0.3578 -0.1601
  344SOL    HW1 1031   2.459   2.753   1.449 -0.2242  0.6181  1.8498
  344SOL    HW2 1032   2.527   2.605   1.445  1.9471  3.2868 -1.1782
  345SOL     OW 1033   2.663   1.958   2.932 -0.3834  0.0843  0.6803
  345SOL    HW1 1034   2.707   1.958   2.840 -0.0090  2.0409 -1.9571
  345SOL    HW2 1035   2.703   1.890   3.003  0.1845 -2.1856 -0.7774
  346SOL     OW 1036   2.242   2.129   0.591 -0.0410  1.0028  0.0963
  346SOL    HW1 1037   2.211   2.162   0.684  1.6730  1.5300 -0.9579
  346SOL    HW2 1038   2.171   2.082   0.539  0.6236  2.7627  1.6934
  347SOL     OW 1039   1.455   1.958   1.004  0.2141 -0.0280  0.2198
  347SOL    HW1 1040   1.510   2.033   0.957  0.3657  2.2333 -0.7529
  347SOL    HW2 1041   1.356   1.966   0.988 -0.2592 -0.3385  1.4808
  348SOL     OW 1042   0.575   1.752   2.204 -0.3458  0.0050  0.2414
  348SOL    HW1 1043   0.581   1.673   2.269  0.7972 -0.1780  0.1584
  348SOL    HW2 1044   0.640   1.823   2.236 -1.5735 -3.5907 -2.1578
  349SOL     OW 1045   1.911   1.576   0.599  0.1452  0.7598  0.0520
  349SOL    HW1 1046   1.910   1.547   0.697 -0.2374 -1.0618  0.8862
  349SOL    HW2 1047   1.951   1.496   0.550  1.1355  0.0388  0.2117
  350SOL     OW 1048   2.771   2.481   0.643  0.1484  0.3404 -0.2771
  350SOL    HW1 1049   2.760   2.468   0.743 -0.6602  1.8600 -1.1930
  350SOL    HW2 1050   2.740   2.402   0.590  0.9040  0.6586 -0.3565
  351SOL     OW 1051   0.384   2.888   1.563 -0.0307 -0.2520  0.2014
  351SOL    HW1 1052   0.477   2.848   1.559  0.0415  0.9569  1.5489
  351SOL    HW2 1053   0.334   2.884   1.468 -1.1107  1.5594 -3.1397
  352SOL     OW 1054   0.465   1.435   1.239  0.5466  0.0206 -0.1245
  352SOL    HW1 1055   0.400   1.389   1.299  5.6464 -0.3685  0.1523
  352SOL    HW2 1056   0.481   1.380   1.157  0.3922  0.1642 -0.3054
  353SOL     OW 1057   1.252   1.257   2.657 -0.1358  0.2688 -0.4081
  353SOL    HW1 1058   1.154   1.266   2.689 -1.2397 -0.6643 -0.3302
  353SOL    HW2 1059   1.316   1.271   2.734 -1.0346  0.6160  0.2257
  354SOL     OW 1060   1.550   3.021   1.629 -0.3417 -0.1636 -0.1937
  354SOL    HW1 1061   1.502   0.026   1.598 -0.1155  0.7121  0.8422
  354SOL    HW2 1062   1.513   2.979   1.717  0.8826  0.7043  2.1806
  355SOL     OW 1063   2.377   1.143   0.437  0.0791  0.3375  0.4895
  355SOL    HW1 1064   2.374   1.210   0.516  0.3924 -0.0885  0.0870
  355SOL    HW2 1065   2.293   1.152   0.378 -2.2362  0.2211  1.3195
  356SOL     OW 1066   2.850   1.704   1.562 -0.2513 -0.0846  0.4837
  356SOL    HW1 1067   2.769   1.757   1.586  1.2760  2.1555  0.6424
  356SOL    HW2 1068   2.931   1.766   1.550 -1.2307 -0.2938  2.6649
  357SOL     OW 1069   0.527   2.604   1.356  0.3285 -0.1758  0.4116
  357SOL    HW1 1070   0.426   2.574   1.358 -3.2597  1.3380  1.3991
  357SOL    HW2 1071   0.543   2.694   1.312  1.9315  0.5542  0.0072
  358SOL     OW 1072   2.774   1.303   1.767 -0.3548  0.6612 -0.3428
  358SOL    HW1 1073   2.800   1.359   1.686 -0.6786  0.1331 -2.4377
  358SOL    HW2 1074   2.674   1.273   1.751 -1.4777  1.1488 -1.3940
  359SOL     OW 1075   2.207   2.765   2.488  0.2337  0.1506 -0.3948
  359SOL    HW1 1076   2.201   2.662   2.476 -1.1535 -0.3604  1.2332
  359SOL    HW2 1077   2.149   2.790   2.569 -0.3981 -3.4048  0.1686
  360SOL     OW 1078   0.762   0.356   0.842 -0.4335 -0.0912 -0.1959
  360SOL    HW1 1079   0.769   0.434   0.774  1.7613  2.1963  1.1195
  360SOL    HW2 1080   0.670   0.355   0.886 -0.7762  0.4020  3.0261
  361SOL     OW 1081   1.878   0.341   0.756 -0.2749  0.2267  0.0047
  361SOL    HW1 1082   1.921   0.250   0.742  2.9190  0.7918  0.2655
  361SOL    HW2 1083   1.959   0.405   0.751  1.6841  0.0433 -1.7490
  362SOL     OW 1084   1.776   1.039   1.399  0.1182 -0.1799 -0.1139
  362SOL    HW1 1085   1.830   1.006   1.475 -1.0300 -1.6002 -0.0696
  362SOL    HW2 1086   1.814   1.016   1.307 -1.0583 -0.7750 -1.2040
  363SOL     OW 1087   2.252   1.455   2.119  0.5748  0.2165  0.2508
  363SOL    HW1 1088   2.353   1.450   2.128 -2.3763  1.6465 -1.6383
  363SOL    HW2 1089   2.216   1.374   2.066  0.9326 -1.2120  0.1547
  364SOL     OW 1090   0.393   3.067   1.173  0.7778  0.5714 -0.1820
  364SOL    HW1 1091   0.321   3.024   1.232  0.5229 -1.8383 -0.1629
  364SOL    HW2 1092   0.375   3.062   1.075 -1.8605  0.4960  1.9541
  365SOL     OW 1093   0.417   3.057   2.912  0.3442 -0.5498  0.7258
  365SOL    HW1 1094   0.338   3.066   2.850 -2.4739 -0.1176 -0.9318
  365SOL    HW2 1095   0.429   0.060   2.967  0.4488 -3.8656  0.9446
  366SOL     OW 1096   2.000   2.137   3.003 -0.1919  0.1663 -0.0801
  366SOL    HW1 1097   2.017   2.049   3.053  1.4549  0.1723  3.1290
  366SOL    HW2 1098   2.023   2.215   3.068 -1.9383 -0.3372  1.9943
  367SOL     OW 1099   2.698   2.407   2.893 -0.0861 -0.4349 -0.1870
  367SOL    HW1 1100   2.621   2.343   2.899  0.1385  0.4326  0.5881
  367SOL    HW2 1101   2.746   2.411   2.983 -0.8894  1.4277  1.1975
  368SOL     OW 1102   0.109   1.308   1.133  0.0072 -0.0239 -0.2384
  368SOL    HW1 1103   0.032   1.346   1.182  1.0582  0.4133 -1.2133
  368SOL    HW2 1104   0.195   1.312   1.192 -0.7690 -0.0895 -2.5878
  369SOL     OW 1105   0.822   2.764   3.080  0.1416  0.3075  0.2898
  369SOL    HW1 1106   0.915   2.725   0.007 -0.7558  0.4472 -1.9346
  369SOL    HW2 1107   0.831   2.847   3.022  0.8754 -0.7964  0.6706
  370SOL     OW 1108   2.840   0.661   0.441  0.0421 -0.4379 -0.2425
  370SOL    HW1 1109   2.937   0.687   0.430 -1.4983  0.1312  1.7691
  370SOL    HW2 1110   2.778   0.747   0.436 -1.4638  2.1845 -2.2264
  371SOL     OW 1111   1.642   2.386   0.772  0.2198  0.1822 -0.4206
  371SOL    HW1 1112   1.621   2.288   0.805 -1.4373 -1.2046 -1.3411
  371SOL    HW2 1113   1.566   2.408   0.703 -1.9298 -0.9591  0.3776
  372SOL     OW 1114   2.965   1.085   2.876 -0.5433 -0.7876  0.8567
  372SOL    HW1 1115   3.045   1.021   2.897  1.0767 -0.2279 -2.1359
  372SOL    HW2 1116   2.999   1.135   2.792  0.4891 -0.3016 -0.2531
  373SOL     OW 1117   2.767   1.827   1.297  0.0579 -0.1486  0.1680
  373SOL    HW1 1118   2.797   1.774   1.383  1.6217  3.3407 -0.3569
  373SOL    HW2 1119   2.674   1.794   1.259  1.4140 -2.1837 -0.9461
  374SOL     OW 1120   0.459   2.869   0.190 -0.0303  0.0141  0.4188
  374SOL    HW1 1121   0.422   2.860   0.096  1.0902 -0.6618  2.7889
  374SOL    HW2 1122   0.556   2.898   0.181 -0.1438  2.7072 -0.6125
  375SOL     OW 1123   0.470   0.159   0.067  0.3283  0.2786  0.0505
  375SOL    HW1 1124   0.444   0.169   0.167  1.5086  2.2773  1.6642
  375SOL    HW2 1125   0.462   0.252   0.026  0.0548 -3.7337  2.8423
  376SOL     OW 1126   0.218   2.165   1.474 -0.2709  0.1299  0.0464
  376SOL    HW1 1127   0.112   2.184   1.499 -5.4385  0.5328  2.2946
  376SOL    HW2 1128   0.231   2.205   1.382 -0.2290  1.1581 -0.4061
  377SOL     OW 1129   1.669   2.262   2.663  0.2378 -0.0827  0.3069
  377SOL    HW1 1130   1.603   2.183   2.678 -0.0536  0.2076  0.2313
  377SOL    HW2 1131   1.650   2.298   2.569 -0.7078  1.1245  0.3503
  378SOL     OW 1132   0.678   0.587   3.076  0.0771 -0.2919 -0.5383
  378SOL    HW1 1133   0.705   0.641   2.993  1.0331  0.6581 -3.5423
  378SOL    HW2 1134   0.689   0.637   0.085 -0.3133  0.1358  1.8920
  379SOL     OW 1135   0.422   1.215   0.572 -0.3195 -0.2556 -0.9481
  379SOL    HW1 1136   0.441   1.210   0.474  0.2048  2.2120  0.7420
  379SOL    HW2 1137   0.488   1.280   0.623  3.4476  2.2191  1.5022
  380SOL     OW 1138   3.059   1.813   1.847  0.1670  0.4337 -0.1184
  380SOL    HW1 1139   0.007   1.730   1.795  1.1729 -1.6899 -2.1612
  380SOL    HW2 1140   0.038   1.834   1.931 -0.9305  0.0725  1.5121
  381SOL     OW 1141   0.411   0.853   1.886  0.0031  0.1602  0.0944
  381SOL    HW1 1142   0.486   0.790   1.899  0.4232  5.0113 -1.6780
  381SOL    HW2 1143   0.442   0.946   1.910  0.0738 -1.5230  0.3251
  382SOL     OW 1144   2.409   1.980   0.464 -0.3205  0.3384 -0.1387
  382SOL    HW1 1145   2.332   2.038   0.504 -0.8911  0.0346 -0.4464
  382SOL    HW2 1146   2.423   2.009   0.364 -3.1803 -0.4698 -0.2574
  383SOL     OW 1147   2.738   1.985   2.634  0.5831 -0.7831 -0.0297
  383SOL    HW1 1148   2.829   1.943   2.637 -0.9774 -0.4909 -0.8916
  383SOL    HW2 1149   2.749   2.087   2.615  1.4812 -1.3654  2.8458
  384SOL     OW 1150   0.571   2.252   2.640 -0.1816  0.0626 -0.0422
  384SOL    HW1 1151   0.629   2.276   2.724  2.1408  1.0625 -0.1173
  384SOL    HW2 1152   0.534   2.161   2.647 -1.2286  1.6990 -2.1893
  385SOL     OW 1153   2.874   1.551   1.016  0.1823  0.8292  0.6485
  385SOL    HW1 1154   2.774   1.569   1.005  2.9660 -0.4486  1.2959
  385SOL    HW2 1155   2.889   1.453   0.982 -1.7497 -2.9697 -0.2907
  386SOL     OW 1156   2.086   1.317   1.203  0.0265 -0.5237  0.0397
  386SOL    HW1 1157   1.991   1.350   1.176  0.7218 -0.7007  2.2990
  386SOL    HW2 1158   2.132   1.401   1.246 -0.4925  0.3483  1.4411
  387SOL     OW 1159   2.886   1.135   2.017 -0.2224 -0.1547  0.6620
  387SOL    HW1 1160   2.865   1.050   1.962  2.0248 -0.7114 -0.1359
  387SOL    HW2 1161   2.929   1.203   1.955  0.0239  0.3049 -0.1522
  388SOL     OW 1162   2.662   1.244   2.153  0.4587  0.3301  0.2962
  388SOL    HW1 1163   2.697   1.241   2.249  0.2010  0.7985  0.1551
  388SOL    HW2 1164   2.730   1.211   2.086 -1.8901  0.3206  0.8236
  389SOL     OW 1165   2.164   1.247   1.988 -0.3878 -0.6587  0.0866
  389SOL    HW1 1166   2.089   1.198   2.031 -0.1164  1.7459 -0.3659
  389SOL    HW2 1167   2.233   1.179   1.958 -1.0363 -0.8776 -0.0030
  390SOL     OW 1168   2.002   2.685   0.502 -0.6420 -0.4400 -0.7827
  390SOL    HW1 1169   1.954   2.762   0.550 -0.9216 -2.6651  0.7627
  390SOL    HW2 1170   1.942   2.601   0.507  1.0987  0.7604  0.4944
  391SOL     OW 1171   2.330   1.897   1.047 -0.4736  0.4854  0.7514
  391SOL    HW1 1172   2.277   1.870   0.963 -1.4487  0.5981 -1.4674
  391SOL    HW2 1173   2.301   1.988   1.079  0.4749 -2.3254  0.1357
  392SOL     OW 1174   0.150   2.693   1.197 -0.5867  0.0569  0.0195
  392SOL    HW1 1175   0.159   2.638   1.114 -3.0031  0.7062  1.5581
  392SOL    HW2 1176   0.054   2.718   1.219 -0.8089  0.2112 -1.2843
  393SOL     OW 1177   1.893   1.928   2.587 -0.0513  0.2249  0.0848
  393SOL    HW1 1178   1.939   2.008   2.626  2.1220 -2.9000 -1.4044
  393SOL    HW2 1179   1.831   1.882   2.658  1.9417 -0.7714 -1.3233
  394SOL     OW 1180   0.183   0.284   2.531 -0.1900  0.1014 -0.1711
  394SOL    HW1 1181   0.136   0.197   2.508  1.7990 -0.9338  1.4406
  394SOL    HW2 1182   0.158   0.312   2.627  0.0311 -0.9449 -2.9161
  395SOL     OW 1183   0.758   0.786   0.827 -0.0677 -0.6789  0.4554
  395SOL    HW1 1184   0.783   0.704   0.765  1.2248 -2.2416 -1.4859
  395SOL    HW2 1185   0.734   0.758   0.918  0.7349  1.4573 -1.9870
  396SOL     OW 1186   1.153   0.905   0.503 -0.4279 -0.3094 -0.0625
  396SOL    HW1 1187   1.075   0.969   0.498 -2.2511  2.2085 -1.2659
  396SOL    HW2 1188   1.168   0.858   0.413 -1.0608  2.1102  2.0266
  397SOL     OW 1189   0.263   0.866   2.137 -0.2486 -0.3213  0.0035
  397SOL    HW1 1190   0.324   0.847   2.058 -1.1255 -1.3472  1.9094
  397SOL    HW2 1191   0.173   0.895   2.099  0.0911  0.0822 -2.9567
  398SOL     OW 1192   0.770   0.161   0.351 -0.0396 -0.0194 -0.1515
  398SOL    HW1 1193   0.707   0.097   0.404 -2.9168 -2.5853  1.3413
  398SOL    HW2 1194   0.864   0.130   0.323  0.7710 -0.7606 -1.0297
  399SOL     OW 1195   2.027   2.964   1.562  0.3016  0.1305  0.4283
  399SOL    HW1 1196   2.036   3.047   1.613 -0.4908 -3.4184  0.3635
  399SOL    HW2 1197   1.933   2.962   1.521 -1.1507  1.2118  1.9421
  400SOL     OW 1198   0.799   1.679   1.845 -0.4385 -0.6341 -0.1720
  400SOL    HW1 1199   0.839   1.742   1.917 -0.5448  1.2014 -0.6043
  400SOL    HW2 1200   0.738   1.727   1.779 -0.5890 -0.8943  1.2872
  401SOL     OW 1201   0.622   0.911   2.719  0.0070 -0.3455 -0.2473
  401SOL    HW1 1202   0.679   0.835   2.745 -1.1933  1.4271  2.5595
  401SOL    HW2 1203   0.524   0.884   2.727  1.2242 -0.2428  0.7677
  402SOL     OW 1204   2.804   2.087   1.289 -0.1770  0.0661 -0.2505
  402SOL    HW1 1205   2.734   2.127   1.351 -2.3636 -0.7008 -1.7203
  402SOL    HW2 1206   2.790   1.985   1.294  0.3141 -1.2642  0.7560
  403SOL     OW 1207   0.054   0.872   1.954 -0.2689  0.1818 -0.9630
  403SOL    HW1 1208   3.035   0.898   1.928 -2.8961 -0.6040  2.0067
  403SOL    HW2 1209   0.105   0.848   1.869  0.9185 -3.2342 -0.6941
  404SOL     OW 1210   0.015   2.690   1.823 -0.0345 -0.0675 -0.2321
  404SOL    HW1 1211   0.079   2.611   1.805 -1.5747  2.0361  1.9658
  404SOL    HW2 1212   3.009   2.682   1.766 -2.8378  3.9533 -2.6851
  405SOL     OW 1213   0.467   0.395   1.845  0.0010  0.3079  0.0757
  405SOL    HW1 1214   0.407   0.317   1.812  0.0214 -0.6250 -0.4437
  405SOL    HW2 1215   0.472   0.409   1.944  1.0514 -1.4060 -2.6353
  406SOL     OW 1216   1.569   1.991   2.443  0.2462 -0.0359  0.2473
  406SOL    HW1 1217   1.643   2.052   2.411 -1.6629 -1.1829  1.3475
  406SOL    HW2 1218   1.592   1.894   2.439 -0.3491 -1.5071  0.4161
  407SOL     OW 1219   1.405   1.317   2.419  0.0468 -0.6558  0.3811
  407SOL    HW1 1220   1.333   1.337   2.345 -0.7711  0.8373  1.6098
  407SOL    HW2 1221   1.354   1.292   2.501 -0.8612 -3.3755 -0.8773
  408SOL     OW 1222   1.066   0.275   2.169 -0.1087  0.4249  0.5822
  408SOL    HW1 1223   0.985   0.233   2.123 -1.8757 -0.8730  0.1042
  408SOL    HW2 1224   1.084   0.218   2.253  2.2686  1.2775  2.3291
  409SOL     OW 1225   0.449   2.114   0.195 -0.0488  0.0768  0.4526
  409SOL    HW1 1226   0.445   2.045   0.124  0.6829  0.5943  1.9747
  409SOL    HW2 1227   0.519   2.087   0.268  0.6319 -1.0785 -0.6536
  410SOL     OW 1228   2.792   1.389   0.358  0.6574 -0.0249 -0.1599
  410SOL    HW1 1229   2.879   1.427   0.387 -0.4626 -1.5880 -1.3974
  410SOL    HW2 1230   2.774   1.403   0.259  0.4260 -0.9617  0.1641
  411SOL     OW 1231   2.833   0.162   0.995  0.3878 -0.1396  0.3363
  411SOL    HW1 1232   2.841   0.263   0.996 -1.3491  0.2329  1.9939
  411SOL    HW2 1233   2.888   0.128   0.916  0.5432  2.7798 -0.1314
  412SOL     OW 1234   1.437   0.881   1.223  0.2852  0.1912  0.3281
  412SOL    HW1 1235   1.505   0.935   1.164  1.5047 -2.4439  0.5731
  412SOL    HW2 1236   1.457   0.907   1.318 -1.9780  1.5894  0.7698
  413SOL     OW 1237   0.779   2.546   1.321  0.3934 -0.0770 -0.2182
  413SOL    HW1 1238   0.809   2.565   1.225 -0.1371  1.1105  1.3499
  413SOL    HW2 1239   0.674   2.559   1.328 -1.5090 -0.6606  1.0153
  414SOL     OW 1240   2.748   1.629   2.709  0.2590  0.1362 -0.2016
  414SOL    HW1 1241   2.808   1.664   2.629  2.7053  4.1140  0.3301
  414SOL    HW2 1242   2.783   1.659   2.798  1.1143  0.5629  0.2717
  415SOL     OW 1243   0.455   2.318   2.947 -0.1670  0.1424 -0.7775
  415SOL    HW1 1244   0.363   2.270   2.958 -2.7915 -1.9275  1.0106
  415SOL    HW2 1245   0.454   2.389   3.019  0.0631 -0.7251  0.6301
  416SOL     OW 1246   1.881   3.081   0.481 -0.3093  0.3962 -0.2588
  416SOL    HW1 1247   1.786   0.029   0.496 -0.9384 -1.0717  0.4980
  416SOL    HW2 1248   1.906   3.051   0.384  0.3007  3.5391 -2.4696
  417SOL     OW 1249   0.453   0.752   0.981 -0.0959  0.1128 -0.1782
  417SOL    HW1 1250   0.486   0.846   0.949  0.7585  0.7235 -1.9805
  417SOL    HW2 1251   0.452   0.699   0.895  0.4119  0.1238  0.1340
  418SOL     OW 1252   2.524   0.483   1.491  0.0982 -0.4528  0.1625
  418SOL    HW1 1253   2.545   0.569   1.544 -0.8319  0.2774 -0.3380
  418SOL    HW2 1254   2.443   0.433   1.525 -0.7362  0.3843  1.6178
  419SOL     OW 1255   0.098   0.210   0.426  0.3169  0.0253 -0.2205
  419SOL    HW1 1256   0.071   0.271   0.346  1.0623  0.5256 -1.9467
  419SOL    HW2 1257   0.031   0.131   0.436  1.8548 -0.6471 -0.3511
  420SOL     OW 1258   0.232   1.313   1.374  0.4057 -0.4676  0.1274
  420SOL    HW1 1259   0.248   1.334   1.473 -1.5976  2.5742 -1.2534
  420SOL    HW2 1260   0.245   1.214   1.361  0.7261  1.5927 -0.9153
  421SOL     OW 1261   1.133   2.863   0.657 -0.5932 -0.6437  0.0086
  421SOL    HW1 1262   1.072   2.786   0.670 -0.6599  0.2314 -0.7133
  421SOL    HW2 1263   1.097   2.933   0.593  0.9103 -1.6690  1.2457
  422SOL     OW 1264   0.193   0.524   1.343  0.2196  0.0702 -0.0903
  422SOL    HW1 1265   0.107   0.569   1.312  0.1178 -0.5652 -0.0585
  422SOL    HW2 1266   0.271   0.543   1.279 -0.8624  3.1066  0.6566
  423SOL     OW 1267   1.186   1.002   1.137 -0.4669 -0.0400 -0.0918
  423SOL    HW1 1268   1.272   0.953   1.114 -0.8705 -0.5323  1.2770
  423SOL    HW2 1269   1.103   0.945   1.129 -0.0189  0.7858  1.3906
  424SOL     OW 1270   2.026   1.307   2.803  0.6840  0.1363  0.3907
  424SOL    HW1 1271   2.097   1.327   2.875  3.0658  2.9732 -1.2271
  424SOL    HW2 1272   1.954   1.383   2.795 -2.4532 -2.4471  1.1426
  425SOL     OW 1273   2.906   0.471   1.991 -0.3804 -0.0964  0.2821
  425SOL    HW1 1274   2.922   0.564   2.038  0.9685  0.7434  2.6353
  425SOL    HW2 1275   2.918   0.407   2.069 -0.3832 -0.2521  2.8221
  426SOL     OW 1276   0.086   2.794   2.997 -0.3656 -0.2604 -0.1552
  426SOL    HW1 1277   0.103   2.718   2.931  2.5944 -2.2355  0.5407
  426SOL    HW2 1278   0.048   2.750   0.001  0.6918 -2.6816  0.2029
  427SOL     OW 1279   1.002   0.941   2.647  0.2934  0.5109  0.0577
  427SOL    HW1 1280   1.098   0.955   2.613  1.6904  1.8501  1.3667
  427SOL    HW2 1281   0.998   0.962   2.743 -1.4255 -1.5376 -0.9378
  428SOL     OW 1282   2.521   1.222   1.716  0.3621 -0.4382 -0.0982
  428SOL    HW1 1283   2.526   1.155   1.643  0.4465  1.1547  0.7853
  428SOL    HW2 1284   2.470   1.306   1.697 -1.2413  0.0231  0.5663
  429SOL     OW 1285   2.510   2.604   0.723 -0.3909  0.0847 -0.3098
  429SOL    HW1 1286   2.574   2.560   0.657 -0.0067 -0.2830 -1.0246
  429SOL    HW2 1287   2.418   2.601   0.681  1.1925  0.5124  2.2325
  430SOL     OW 1288   0.981   1.250   2.418 -0.3167 -0.0167 -0.5330
  430SOL    HW1 1289   0.962   1.156   2.384 -1.5657 -0.9756  0.0967
  430SOL    HW2 1290   0.978   1.245   2.520  0.6140 -0.3250 -1.8948
  431SOL     OW 1291   2.853   1.426   1.537  0.4189 -0.2735  0.5513
  431SOL    HW1 1292   2.773   1.415   1.471 -0.9602 -0.9808  0.6394
  431SOL    HW2 1293   2.872   1.526   1.542  0.8511 -2.9607 -0.2510
  432SOL     OW 1294   1.248   2.780   2.251  0.3846  0.3316 -0.1182
  432SOL    HW1 1295   1.295   2.700   2.207  0.4402 -0.6480 -1.6799
  432SOL    HW2 1296   1.178   2.753   2.325  1.0450 -0.2224  0.5230
  433SOL     OW 1297   1.880   0.213   2.329  0.3732 -0.5889  0.1412
  433SOL    HW1 1298   1.983   0.214   2.324 -0.4516  3.1074 -0.9933
  433SOL    HW2 1299   1.836   0.268   2.257  1.3738 -2.6731  0.8738
  434SOL     OW 1300   0.472   2.697   2.289  0.2461  0.3044  0.7307
  434SOL    HW1 1301   0.410   2.626   2.326  0.9885  2.1910 -3.2651
  434SOL    HW2 1302   0.447   2.711   2.191 -1.4356 -0.3846  0.0163
  435SOL     OW 1303   2.929   2.572   0.331 -0.7581  0.2567  0.1161
  435SOL    HW1 1304   2.939   2.621   0.419 -0.0872 -1.7030 -0.7974
  435SOL    HW2 1305   2.841   2.593   0.278 -1.5345 -0.2701  0.6304
  436SOL     OW 1306   0.755   0.431   1.767 -0.0980  0.3311 -0.1095
  436SOL    HW1 1307   0.664   0.439   1.806  3.3504  2.9176 -2.5945
  436SOL    HW2 1308   0.784   0.524   1.733  0.6941 -0.0725  1.3464
  437SOL     OW 1309   0.144   2.884   2.458 -0.1758  0.3796  0.8166
  437SOL    HW1 1310   0.222   2.830   2.504  0.4831 -2.3581  1.6096
  437SOL    HW2 1311   0.121   2.846   2.365 -1.5139 -1.8536 -1.0810
  438SOL     OW 1312   0.635   1.232   1.812 -0.2871 -0.1236  0.2892
  438SOL    HW1 1313   0.686   1.286   1.743 -2.0369  0.4560  1.4061
  438SOL    HW2 1314   0.697   1.162   1.852 -5.1353  1.9877  0.0291
  439SOL     OW 1315   2.169   1.082   2.271  0.4768  0.0512 -0.0151
  439SOL    HW1 1316   2.259   1.109   2.229 -2.1312  0.4360  2.2504
  439SOL    HW2 1317   2.160   1.124   2.363 -0.7921 -1.3906 -1.8259
  440SOL     OW 1318   0.159   1.015   0.239  0.2131 -0.1416 -0.1181
  440SOL    HW1 1319   0.232   0.958   0.194  0.0284  1.6245 -3.5420
  440SOL    HW2 1320   0.195   1.052   0.331  1.1699 -0.5641  1.4598
  441SOL     OW 1321   1.100   2.330   1.130  0.4119 -0.4714  0.2593
  441SOL    HW1 1322   1.126   2.337   1.226 -2.2118 -0.7795  0.5114
  441SOL    HW2 1323   1.029   2.401   1.115 -0.4521 -1.0566 -0.6179
  442SOL     OW 1324   2.422   1.295   0.702 -0.4408 -0.6602 -0.4392
  442SOL    HW1 1325   2.442   1.317   0.799  0.4203  0.5798  0.2969
  442SOL    HW2 1326   2.490   1.341   0.642  1.1729  1.5278 -1.1882
  443SOL     OW 1327   2.789   1.909   2.325 -0.2805 -0.3202 -0.1364
  443SOL    HW1 1328   2.713   1.980   2.317 -0.8081  2.5252 -2.4806
  443SOL    HW2 1329   2.774   1.840   2.249 -1.5848 -0.1020  0.4610
  444SOL     OW 1330   1.669   1.332   3.077  0.5680  0.4307 -0.4018
  444SOL    HW1 1331   1.771   1.328   0.007 -0.0794  1.7031 -0.6248
  444SOL    HW2 1332   1.622   1.343   0.087 -0.2418  3.5036 -0.1285
  445SOL     OW 1333   2.551   2.591   2.175 -0.4774 -0.0878 -0.2274
  445SOL    HW1 1334   2.529   2.538   2.086  0.3332  0.9506 -0.8325
  445SOL    HW2 1335   2.637   2.640   2.167 -1.9053 -0.1299  0.5244
  446SOL     OW 1336   0.298   1.059   1.366 -0.0224  0.0277 -0.2122
  446SOL    HW1 1337   0.320   1.043   1.464 -2.7633  0.8049  0.8867
  446SOL    HW2 1338   0.223   0.993   1.334 -2.2730 -1.4178 -0.8464
  447SOL     OW 1339   0.877   1.491   0.768  0.3306  0.8533 -0.0342
  447SOL    HW1 1340   0.942   1.499   0.844  2.5272  1.3558 -0.9986
  447SOL    HW2 1341   0.821   1.575   0.757 -0.4183 -0.3308  0.6353
  448SOL     OW 1342   1.181   1.190   1.646 -0.1766  0.9198 -0.0906
  448SOL    HW1 1343   1.197   1.142   1.734  0.0310 -2.5614  0.5847
  448SOL    HW2 1344   1.208   1.131   1.569 -1.5909 -1.5997  3.3279
  449SOL     OW 1345   0.123   2.110   2.223 -0.5452 -0.3873 -0.1511
  449SOL    HW1 1346   0.141   2.198   2.169  0.3203  0.0854 -1.2569
  449SOL    HW2 1347   0.103   2.032   2.163  0.2286  0.1913 -0.0275
  450SOL     OW 1348   2.829   1.939   1.889 -0.1848  0.1987 -0.0485
  450SOL    HW1 1349   2.831   2.040   1.873 -1.5191 -1.8087  1.1093
  450SOL    HW2 1350   2.921   1.898   1.859  1.2483  0.1301 -0.6002
  451SOL     OW 1351   2.296   0.869   1.334  0.2546 -0.3588 -0.0228
  451SOL    HW1 1352   2.209   0.827   1.348  0.2165 -0.6664 -0.3959
  451SOL    HW2 1353   2.375   0.806   1.344  0.8240  0.1565 -0.2712
  452SOL     OW 1354   0.542   1.342   1.001  0.1043  0.1888  0.4613
  452SOL    HW1 1355   0.471   1.278   0.961  0.2137  1.1738 -0.5033
  452SOL    HW2 1356   0.539   1.433   0.954 -0.5598 -0.6402  1.4059
  453SOL     OW 1357   0.743   1.727   1.006  0.3397  0.1728  0.6094
  453SOL    HW1 1358   0.732   1.801   1.074 -0.1447 -2.0233 -1.4899
  453SOL    HW2 1359   0.841   1.695   0.996 -0.4649 -2.2648  0.5914
  454SOL     OW 1360   0.491   1.707   0.148  0.1058 -0.4911 -0.5667
  454SOL    HW1 1361   0.468   1.800   0.119  4.4889  1.7685  1.1680
  454SOL    HW2 1362   0.441   1.637   0.096  3.7803  1.6596 -0.4865
  455SOL     OW 1363   1.871   0.986   0.777 -0.3885  0.6958 -0.2754
  455SOL    HW1 1364   1.865   0.891   0.815 -0.3965 -1.3607 -0.1060
  455SOL    HW2 1365   1.879   1.062   0.849 -0.2994  2.3625  0.1108
  456SOL     OW 1366   2.074   2.536   0.894 -0.2909  0.4189  0.1978
  456SOL    HW1 1367   2.118   2.606   0.833  0.3600  0.0872 -0.3656
  456SOL    HW2 1368   2.129   2.516   0.983  0.0645  0.6097  3.0308
  457SOL     OW 1369   2.012   2.836   2.674  0.5993  0.2456 -0.3541
  457SOL    HW1 1370   2.003   2.915   2.744  0.6349  0.8737  2.1885
  457SOL    HW2 1371   1.929   2.839   2.615 -2.2472  1.0265 -0.6887
  458SOL     OW 1372   2.199   0.412   0.487 -0.1042 -0.4384 -0.2150
  458SOL    HW1 1373   2.209   0.492   0.548  0.5984 -0.6598 -0.3635
  458SOL    HW2 1374   2.165   0.449   0.396 -0.3502  0.8998  0.2040
  459SOL     OW 1375   0.094   1.138   2.429 -0.0200 -0.3479  0.8379
  459SOL    HW1 1376   0.014   1.143   2.364  0.9346 -1.1718  0.5857
  459SOL    HW2 1377   0.169   1.199   2.398 -0.3797  0.3121  0.1162
  460SOL     OW 1378   0.303   0.872   0.075  0.5393 -0.4168 -0.6120
  460SOL    HW1 1379   0.394   0.881   0.032 -0.6657 -1.5805 -1.1869
  460SOL    HW2 1380   0.275   0.780   0.054  3.5194 -0.1875  1.1061
  461SOL     OW 1381   2.746   2.386   0.898 -0.1037 -0.1646  0.3494
  461SOL    HW1 1382   2.674   2.452   0.936 -3.6123  2.1603 -0.2515
  461SOL    HW2 1383   2.734   2.291   0.934  0.6181  1.7401 -0.2032
  462SOL     OW 1384   0.270   0.229   1.740 -0.0243  0.3817 -0.3041
  462SOL    HW1 1385   0.190   0.296   1.738 -1.8721 -0.3957 -2.8542
  462SOL    HW2 1386   0.291   0.184   1.653 -0.8987 -1.9875  0.9196
  463SOL     OW 1387   1.833   2.159   2.021 -0.1714 -0.1328  0.1490
  463SOL    HW1 1388   1.919   2.113   2.051  1.8820 -1.0946  4.5065
  463SOL    HW2 1389   1.823   2.166   1.917  0.7845 -4.4326 -1.2337
  464SOL     OW 1390   0.354   0.112   1.501 -0.0444 -0.6476  0.1762
  464SOL    HW1 1391   0.446   0.148   1.481  0.3675  0.4504 -0.4840
  464SOL    HW2 1392   0.362   0.016   1.529  1.1893 -0.5767  2.7912
  465SOL     OW 1393   0.799   0.045   1.349 -0.5859  0.7943  0.3616
  465SOL    HW1 1394   0.902   0.039   1.348 -1.1467 -0.1170  2.0755
  465SOL    HW2 1395   0.767   0.088   1.437  0.5007 -0.8085  0.1843
  466SOL     OW 1396   1.346   1.887   1.560  0.0331  0.0110  0.2303
  466SOL    HW1 1397   1.367   1.808   1.497 -0.2342  0.1920  0.4642
  466SOL    HW2 1398   1.274   1.867   1.629 -0.2454 -2.5451 -3.8073
  467SOL     OW 1399   0.093   1.786   1.345 -0.8335  0.1132 -0.3676
  467SOL    HW1 1400   0.070   1.693   1.381 -0.3891 -1.4131 -0.9482
  467SOL    HW2 1401   0.190   1.772   1.315  1.6345 -0.4861  0.4379
  468SOL     OW 1402   2.456   2.026   2.570 -0.2743  0.0614  0.4046
  468SOL    HW1 1403   2.554   2.006   2.586  0.2251  0.7347 -0.2037
  468SOL    HW2 1404   2.405   1.951   2.522 -0.0267 -1.9420 -0.0951
  469SOL     OW 1405   1.353   2.249   0.428 -0.0681  0.2905  0.2677
  469SOL    HW1 1406   1.414   2.243   0.344 -0.8310 -2.6605 -1.2589
  469SOL    HW2 1407   1.254   2.252   0.404 -0.6790  5.5865  1.3494
  470SOL     OW 1408   2.086   1.624   0.964  0.5670  0.5503 -0.2445
  470SOL    HW1 1409   2.144   1.586   1.038 -0.3139  2.3108 -1.1049
  470SOL    HW2 1410   2.115   1.716   0.931  0.6203 -0.9844  1.4825
  471SOL     OW 1411   0.158   2.425   0.154 -0.1326 -0.0294 -0.5720
  471SOL    HW1 1412   0.114   2.513   0.183  0.4882 -2.3574  0.2001
  471SOL    HW2 1413   0.251   2.444   0.127  0.4668 -2.6766  1.0785
  472SOL     OW 1414   2.809   1.756   2.102 -0.5828 -0.6449  0.1113
  472SOL    HW1 1415   2.764   1.671   2.067 -0.4088  1.1597  0.3217
  472SOL    HW2 1416   2.811   1.828   2.030 -1.8656  1.8613 -1.6001
  473SOL     OW 1417   1.222   3.022   0.850  0.0273  0.2248 -0.1716
  473SOL    HW1 1418   1.274   0.019   0.806  0.0072  1.7064  1.8658
  473SOL    HW2 1419   1.189   2.957   0.781 -1.3059  0.5923 -2.2572
  474SOL     OW 1420   2.888   3.049   1.174 -0.4640 -0.0105 -0.1160
  474SOL    HW1 1421   2.855   0.029   1.102  0.4911 -1.6057  3.8707
  474SOL    HW2 1422   2.964   0.015   1.223 -0.0352 -0.2161  2.9984
  475SOL     OW 1423   1.672   2.651   1.683  0.0586 -0.1738 -0.5208
  475SOL    HW1 1424   1.771   2.679   1.661 -0.2222  2.5371  1.0300
  475SOL    HW2 1425   1.617   2.647   1.597  2.2462 -0.6038  0.4511
  476SOL     OW 1426   0.515   0.361   0.970  0.2051 -0.3741 -0.0059
  476SOL    HW1 1427   0.566   0.350   1.060  3.1014  1.7194  3.1432
  476SOL    HW2 1428   0.420   0.334   0.976  0.0509  1.0745 -2.2323
  477SOL     OW 1429   0.755   2.405   0.942 -0.1353 -0.3692 -0.1035
  477SOL    HW1 1430   0.660   2.438   0.926 -0.7596  0.1470  2.3356
  477SOL    HW2 1431   0.782   2.329   0.882  0.0100  0.5187  2.1022
  478SOL     OW 1432   0.425   2.533   2.711  0.2772  0.2631 -0.1712
  478SOL    HW1 1433   0.446   2.432   2.725  0.9052 -0.4788 -0.6901
  478SOL    HW2 1434   0.458   2.569   2.800 -1.4014  1.2805 -0.8607
  479SOL     OW 1435   0.244   0.593   2.186 -0.1177  0.1877  0.0021
  479SOL    HW1 1436   0.159   0.553   2.226  0.3218  3.3006 -0.6915
  479SOL    HW2 1437   0.232   0.695   2.169 -0.8326  1.6996 -0.1781
  480SOL     OW 1438   2.993   2.162   2.974  0.2141 -0.1796 -0.0179
  480SOL    HW1 1439   2.989   2.258   3.004  0.3895 -1.7778 -0.6008
  480SOL    HW2 1440   3.067   2.110   3.019 -0.0380  2.2569 -1.1549
  481SOL     OW 1441   1.395   2.245   2.095  0.2676  0.3041 -0.5294
  481SOL    HW1 1442   1.409   2.146   2.090 -1.7541 -0.3512  1.7152
  481SOL    HW2 1443   1.485   2.294   2.102 -0.2903 -1.3476 -3.9065
  482SOL     OW 1444   1.487   2.051   2.685 -0.3426  0.0132 -0.8301
  482SOL    HW1 1445   1.496   1.968   2.744 -1.9959 -2.3894  0.6786
  482SOL    HW2 1446   1.495   2.033   2.585 -0.3262 -1.5807 -0.3717
  483SOL     OW 1447   0.876   2.521   2.908 -0.7286 -0.3358 -0.1105
  483SOL    HW1 1448   0.843   2.610   2.871 -0.1331  2.4748 -0.5721
  483SOL    HW2 1449   0.970   2.511   2.889 -0.7358  2.1079  2.8171
  484SOL     OW 1450   0.182   0.132   0.870  0.1841 -0.1689  0.2332
  484SOL    HW1 1451   0.097   0.080   0.847  0.3646 -1.6209  1.9094
  484SOL    HW2 1452   0.256   0.062   0.879 -0.2573  1.1893  1.8648
  485SOL     OW 1453   1.722   0.917   0.556  0.7458  0.7097 -0.2168
  485SOL    HW1 1454   1.791   0.927   0.631  0.5512  3.3148 -1.0836
  485SOL    HW2 1455   1.645   0.849   0.569 -0.4874 -0.0281  1.5679
  486SOL     OW 1456   1.760   2.558   2.110  0.2666  0.2968  0.3393
  486SOL    HW1 1457   1.836   2.601   2.059  0.5346  0.3893 -0.4625
  486SOL    HW2 1458   1.698   2.627   2.154 -0.5297  2.4161 -1.2041
  487SOL     OW 1459   1.640   2.097   0.871 -0.0758  0.3677 -0.1463
  487SOL    HW1 1460   1.655   2.060   0.772  2.2598 -2.1055 -1.3934
  487SOL    HW2 1461   1.732   2.112   0.917  1.0931 -0.4562  0.5161
  488SOL     OW 1462   2.056   0.955   0.137  0.3919 -0.2365  0.0279
  488SOL    HW1 1463   1.980   0.934   0.209 -4.5521  0.4818  0.5329
  488SOL    HW2 1464   2.105   0.867   0.112 -0.0389  1.2253  0.8220
  489SOL     OW 1465   2.485   0.188   0.605 -0.0962 -0.2105 -0.1853
  489SOL    HW1 1466   2.484   0.103   0.660  1.8013 -1.2080  0.8948
  489SOL    HW2 1467   2.390   0.206   0.565  0.1885 -1.6407  1.8989
  490SOL     OW 1468   1.693   2.704   2.939  0.6130 -0.4216 -0.1026
  490SOL    HW1 1469   1.647   2.774   2.877  0.3658  0.8542 -0.7939
  490SOL    HW2 1470   1.722   2.624   2.883 -0.1892  1.4609 -1.4461
  491SOL     OW 1471   0.927   0.547   1.184 -0.2106 -0.1024  0.1545
  491SOL    HW1 1472   1.002   0.594   1.134 -0.9573 -2.3759  0.9644
  491SOL    HW2 1473   0.940   0.446   1.159  0.3122 -0.2473 -0.2569
  492SOL     OW 1474   1.775   0.634   0.208 -0.4121  0.1313 -0.1335
  492SOL    HW1 1475   1.708   0.557   0.221 -2.3085  0.2192  1.5610
  492SOL    HW2 1476   1.814   0.644   0.115  0.4274 -3.2495 -2.3854
  493SOL     OW 1477   2.030   2.137   2.734 -0.2244  1.4780  0.0749
  493SOL    HW1 1478   2.003   2.161   2.829  0.0586  1.2289  1.1631
  493SOL    HW2 1479   2.122   2.171   2.725 -2.3969  1.4577 -0.8446
  494SOL     OW 1480   0.330   1.256   0.831  0.0757  0.4672 -0.1082
  494SOL    HW1 1481   0.355   1.266   0.731 -0.9440  1.0797 -2.3336
  494SOL    HW2 1482   0.234   1.229   0.842 -0.5417 -0.5078 -0.0879
  495SOL     OW 1483   0.001   3.007   1.525  0.1562  0.2871  0.2119
  495SOL    HW1 1484   0.007   0.013   1.472 -0.7575 -1.4236 -2.0000
  495SOL    HW2 1485   0.033   3.022   1.621 -1.0447 -3.9122 -0.9106
  496SOL     OW 1486   2.628   2.859   1.741 -0.1150 -0.2082 -0.0492
  496SOL    HW1 1487   2.700   2.835   1.675 -1.0059 -0.1477 -1.3901
  496SOL    HW2 1488   2.655   2.933   1.806 -0.7325 -1.0104 -0.8858
  497SOL     OW 1489   1.386   1.560   2.526 -0.1644 -0.1462 -0.1242
  497SOL    HW1 1490   1.355   1.551   2.621 -0.4494 -1.4020 -0.5698
  497SOL    HW2 1491   1.407   1.471   2.483  0.3780 -3.3039 -1.5797
  498SOL     OW 1492   0.415   2.042   0.770 -0.8817  0.5989  0.3298
  498SOL    HW1 1493   0.388   1.975   0.691 -1.4840  0.4231 -2.1410
  498SOL    HW2 1494   0.346   2.041   0.853 -2.5065  2.0724  1.1856
  499SOL     OW 1495   0.048   1.548   1.438  0.3444  0.6310  0.1444
  499SOL    HW1 1496   0.127   1.479   1.447 -0.1363 -0.5026  1.0798
  499SOL    HW2 1497   3.057   1.516   1.371  1.0759 -2.0081 -1.2087
  500SOL     OW 1498   1.441   2.528   0.273  0.0819  0.5466  0.2382
  500SOL    HW1 1499   1.472   2.434   0.244  0.4651  2.4468  2.0456
  500SOL    HW2 1500   1.523   2.581   0.300  0.8256 -0.1093  0.6801
  501SOL     OW 1501   2.167   2.400   1.245 -0.3162  0.2394  0.1021
  501SOL    HW1 1502   2.214   2.492   1.237  0.0398 -1.3930  1.5069
  501SOL    HW2 1503   2.182   2.346   1.158  1.1241 -1.3432  1.8134
  502SOL     OW 1504   0.126   0.853   1.663  0.5805  0.5075 -0.0970
  502SOL    HW1 1505   0.212   0.908   1.657 -0.8777  4.8790 -0.9167
  502SOL    HW2 1506   0.142   0.752   1.635 -0.0205 -2.9697 -1.8772
  503SOL     OW 1507   2.318   0.016   1.736 -0.3475  0.1749 -0.5561
  503SOL    HW1 1508   2.362   3.068   1.822 -0.9879  0.8449 -0.0585
  503SOL    HW2 1509   2.261   0.097   1.758 -0.8521 -0.3035 -0.2789
  504SOL     OW 1510   1.830   0.631   2.127  0.3091  0.1061 -0.0173
  504SOL    HW1 1511   1.834   0.712   2.065  0.8126  1.7940 -1.2061
  504SOL    HW2 1512   1.924   0.605   2.157  1.8782  0.1575  0.2370
  505SOL     OW 1513   1.112   0.099   2.368  0.2641  0.3854 -0.3726
  505SOL    HW1 1514   1.071   0.015   2.408  1.4653  0.1223  0.4645
  505SOL    HW2 1515   1.192   0.064   2.310  1.8785  0.5526 -2.3342
  506SOL     OW 1516   0.453   0.565   1.657  0.2592 -0.9605  0.5706
  506SOL    HW1 1517   0.515   0.528   1.581  0.3026  0.4366 -0.3889
  506SOL    HW2 1518   0.446   0.507   1.738 -2.2936  0.4511 -1.9793
  507SOL     OW 1519   1.965   3.016   2.867 -0.6913 -0.3386 -0.3031
  507SOL    HW1 1520   1.891   3.077   2.830  0.0868 -2.6739  0.5867
  507SOL    HW2 1521   1.929   2.974   2.950  0.4340 -0.5623 -0.7271
  508SOL     OW 1522   2.316   0.466   2.574  0.4094 -0.4206  0.1719
  508SOL    HW1 1523   2.376   0.545   2.568 -0.0952  1.9561  3.7767
  508SOL    HW2 1524   2.237   0.476   2.511  0.1467  0.3626  0.8025
  509SOL     OW 1525   0.886   1.427   1.821 -0.2337 -0.1325 -0.8064
  509SOL    HW1 1526   0.844   1.517   1.821 -0.4841 -3.2259 -0.4521
  509SOL    HW2 1527   0.875   1.384   1.728  4.6562 -0.0803  0.3726
  510SOL     OW 1528   3.079   0.911   0.864  0.4319 -0.1704  0.4593
  510SOL    HW1 1529   0.023   0.822   0.828 -0.0937  3.1354  0.9305
  510SOL    HW2 1530   2.992   0.909   0.921 -2.8389 -0.3330  0.8409
  511SOL     OW 1531   1.558   1.764   0.839 -0.3284  0.3857  0.5996
  511SOL    HW1 1532   1.521   1.829   0.911  2.0721 -0.3660 -1.1592
  511SOL    HW2 1533   1.480   1.718   0.794 -0.2657 -1.5044  2.2313
  512SOL     OW 1534   0.690   1.361   0.381 -0.4533  0.0633  0.4281
  512SOL    HW1 1535   0.628   1.441   0.367 -0.0543  0.3584 -2.0154
  512SOL    HW2 1536   0.776   1.382   0.435 -1.0804  1.1466  0.6136
  513SOL     OW 1537   0.146   2.594   0.615 -0.4847  0.3082  0.4288
  513SOL    HW1 1538   0.211   2.674   0.609 -1.0285  0.0162 -2.0511
  513SOL    HW2 1539   0.189   2.518   0.565  1.7854  1.3115  1.4518
  514SOL     OW 1540   0.092   2.020   0.040  0.1539  1.0294  0.1314
  514SOL    HW1 1541   0.127   2.047   0.131 -1.1881  3.2178 -1.6075
  514SOL    HW2 1542   0.111   1.919   0.022 -0.8613 -1.2993  1.8908
  515SOL     OW 1543   2.325   0.592   0.255 -0.0380  0.1678  0.1923
  515SOL    HW1 1544   2.351   0.643   0.168 -1.1566 -2.4215 -2.7070
  515SOL    HW2 1545   2.304   0.654   0.332 -0.9971  0.9381 -0.8301
  516SOL     OW 1546   2.305   2.615   1.180  0.4071 -0.1393  0.0411
  516SOL    HW1 1547   2.358   2.626   1.265  1.1097  1.9031 -0.9548
  516SOL    HW2 1548   2.271   2.705   1.147  0.8129  0.3244  0.4399
  517SOL     OW 1549   1.288   1.692   3.052 -0.3880 -0.4427 -0.1106
  517SOL    HW1 1550   1.356   1.643   0.028 -0.6626  2.4752 -2.0188
  517SOL    HW2 1551   1.208   1.722   0.029 -1.6079  2.5309 -0.9613
  518SOL     OW 1552   1.101   0.482   1.789 -0.6086  0.3460 -0.0042
  518SOL    HW1 1553   1.036   0.557   1.819 -0.6290 -1.9363 -0.5131
  518SOL    HW2 1554   1.061   0.429   1.714  1.8130 -2.4024  1.2656
  519SOL     OW 1555   2.767   1.972   0.805  0.4175  0.2374  0.1522
  519SOL    HW1 1556   2.800   1.913   0.879 -1.2469  1.5315  0.4354
  519SOL    HW2 1557   2.824   1.947   0.723  1.4764 -1.2113 -1.1391
  520SOL     OW 1558   2.322   2.000   1.712 -0.0690  0.3088 -0.2758
  520SOL    HW1 1559   2.290   1.946   1.794 -1.2574 -1.6222 -0.1414
  520SOL    HW2 1560   2.240   2.028   1.653 -3.4289 -0.6599 -1.0437
  521SOL     OW 1561   1.000   2.955   2.497 -0.5944  0.0716 -0.2960
  521SOL    HW1 1562   1.068   2.957   2.576  0.2413 -0.0804 -1.8716
  521SOL    HW2 1563   1.010   2.863   2.453  1.1170  0.4457 -1.7825
  522SOL     OW 1564   2.588   0.304   2.325 -0.7145  0.3120 -0.5645
  522SOL    HW1 1565   2.665   0.361   2.362 -0.9729  2.4605 -1.0674
  522SOL    HW2 1566   2.579   0.210   2.371  0.2843  0.9820  0.4492
  523SOL     OW 1567   1.538   2.265   1.492 -0.1028 -0.2300  0.8417
  523SOL    HW1 1568   1.549   2.354   1.438 -0.3058  4.1967 -1.1402
  523SOL    HW2 1569   1.630   2.218   1.498  0.6358  0.4536  2.8529
  524SOL     OW 1570   1.677   1.950   3.052 -0.1882 -0.1436 -0.0978
  524SOL    HW1 1571   1.650   1.945   0.070  0.1836  0.1340  1.9487
  524SOL    HW2 1572   1.719   2.039   3.031  0.6702 -3.7237  1.7988
  525SOL     OW 1573   0.025   0.683   0.413  0.2113 -0.1562 -0.0057
  525SOL    HW1 1574   0.004   0.750   0.338  1.0752  1.7907  0.2345
  525SOL    HW2 1575   0.111   0.701   0.463 -0.0713  0.6909  0.4912
  526SOL     OW 1576   0.965   3.023   0.950  0.2859  0.0601  0.2575
  526SOL    HW1 1577   1.048   3.041   0.889  3.1470 -0.5398 -1.9814
  526SOL    HW2 1578   0.887   0.005   0.929  0.0390 -1.1634 -0.9923
  527SOL     OW 1579   2.616   1.469   0.563 -0.1760 -0.0131 -0.1692
  527SOL    HW1 1580   2.671   1.526   0.628  1.2763 -0.3311 -1.6595
  527SOL    HW2 1581   2.670   1.417   0.499 -0.5745  0.9864  2.5091
  528SOL     OW 1582   0.613   0.757   2.263  0.2728  1.1191  0.2517
  528SOL    HW1 1583   0.588   0.855   2.274  0.0353  0.1028 -0.5076
  528SOL    HW2 1584   0.553   0.694   2.313  1.2933 -0.2865  1.0663
  529SOL     OW 1585   0.982   1.702   2.710 -0.0933  0.2226  0.0385
  529SOL    HW1 1586   1.070   1.656   2.728 -0.1421 -1.6034 -0.0693
  529SOL    HW2 1587   0.956   1.677   2.612 -2.3533  0.6598  1.9633
  530SOL     OW 1588   1.672   1.303   2.448 -0.1916  0.0148 -0.2235
  530SOL    HW1 1589   1.572   1.321   2.428  1.3512 -1.8892  2.1863
  530SOL    HW2 1590   1.676   1.207   2.481 -0.0802 -0.2005 -2.0005
  531SOL     OW 1591   0.710   2.302   2.877  0.2924 -0.3283  0.3493
  531SOL    HW1 1592   0.608   2.318   2.905 -2.3165 -0.5362  1.6975
  531SOL    HW2 1593   0.765   2.388   2.905  1.0960  2.5707 -1.1843
  532SOL     OW 1594   2.372   0.867   0.483  0.1124  0.2590  0.0850
  532SOL    HW1 1595   2.392   0.964   0.457 -0.1743 -0.4594 -2.8887
  532SOL    HW2 1596   2.278   0.853   0.455  1.9706 -1.2125  2.1361
  533SOL     OW 1597   0.053   0.434   1.769 -0.0072 -0.3794  0.3134
  533SOL    HW1 1598   0.112   0.502   1.721 -0.3664 -2.2312 -0.0407
  533SOL    HW2 1599   3.066   0.489   1.827 -1.4031 -0.0476  1.0723
  534SOL     OW 1600   1.562   0.197   0.046 -0.3045 -0.2579 -0.0677
  534SOL    HW1 1601   1.518   0.289   0.033 -1.2038 -0.5636  0.6076
  534SOL    HW2 1602   1.558   0.142   3.042  1.3013  1.5672  1.7831
  535SOL     OW 1603   0.835   0.336   0.097  0.2173 -0.8505 -0.7710
  535SOL    HW1 1604   0.815   0.381   0.186  2.0554 -0.1325 -0.6589
  535SOL    HW2 1605   0.768   0.376   0.027 -1.0803 -0.1664 -0.1152
  536SOL     OW 1606   0.398   1.585   1.773  0.2413  0.6291 -0.1315
  536SOL    HW1 1607   0.464   1.580   1.851  0.1359 -1.0058 -0.2673
  536SOL    HW2 1608   0.440   1.542   1.690 -2.3994 -1.7971  2.8632
  537SOL     OW 1609   0.307   2.445   1.936  0.3488 -0.0119 -0.1480
  537SOL    HW1 1610   0.338   2.423   1.847 -1.4345 -1.4744  2.2798
  537SOL    HW2 1611   0.358   2.386   2.007  0.3849  0.9682 -0.4867
  538SOL     OW 1612   2.992   1.843   0.187 -0.1687  0.0792 -0.1065
  538SOL    HW1 1613   3.057   1.791   0.126 -0.6813 -1.2418  0.4485
  538SOL    HW2 1614   3.019   1.826   0.286 -0.1643 -1.5524  1.5435
  539SOL     OW 1615   2.675   0.627   2.837 -0.4548  0.2903  0.3805
  539SOL    HW1 1616   2.771   0.584   2.838  3.9790 -1.2759  0.4601
  539SOL    HW2 1617   2.654   0.666   2.743  0.9610  0.0907 -0.9098
  540SOL     OW 1618   1.653   0.746   2.594 -0.0182 -0.5306 -0.0462
  540SOL    HW1 1619   1.651   0.706   2.690 -1.2338 -0.8600  4.1391
  540SOL    HW2 1620   1.701   0.839   2.585  1.7407  1.2380 -3.4379
  541SOL     OW 1621   0.651   0.068   1.708 -0.3184  0.0433  0.2947
  541SOL    HW1 1622   0.666   3.050   1.744 -1.1994  1.3317  1.9341
  541SOL    HW2 1623   0.716   0.129   1.757 -1.2918  1.5617 -1.4088
  542SOL     OW 1624   1.850   2.551   2.467 -0.0532 -0.3916 -0.4376
  542SOL    HW1 1625   1.776   2.487   2.437 -3.7938 -0.2343 -1.0661
  542SOL    HW2 1626   1.800   2.635   2.503 -0.0354 -0.9450 -2.8034
  543SOL     OW 1627   0.596   2.949   0.804  0.5475  0.0530  1.3615
  543SOL    HW1 1628   0.636   2.863   0.841 -1.5374  0.2165 -2.0082
  543SOL    HW2 1629   0.639   3.034   0.843  1.6126 -1.6430 -1.5102
  544SOL     OW 1630   2.739   1.506   1.948  0.1116  0.0850 -0.1152
  544SOL    HW1 1631   2.763   1.423   1.898 -1.4905  1.5222  2.6010
  544SOL    HW2 1632   2.651   1.543   1.922  4.0135 -0.7378 -1.9255
  545SOL     OW 1633   1.979   1.791   1.197  0.6410  0.1390 -0.1708
  545SOL    HW1 1634   1.917   1.740   1.260 -1.4687  0.3514 -2.6642
  545SOL    HW2 1635   1.936   1.797   1.103 -0.1882  1.9360 -1.9967
  546SOL     OW 1636   0.403   0.177   2.299  0.0523 -0.0412 -0.0268
  546SOL    HW1 1637   0.316   0.125   2.285 -1.3104 -0.4476  0.3013
  546SOL    HW2 1638   0.397   0.223   2.387  3.0580 -1.1321 -2.8506
  547SOL     OW 1639   1.188   0.623   1.078 -0.0133  0.9110  0.0282
  547SOL    HW1 1640   1.238   0.661   1.161  1.9535 -1.0096  0.3365
  547SOL    HW2 1641   1.208   0.689   1.001  1.0622 -1.9113  1.1677
  548SOL     OW 1642   1.137   2.424   2.895 -0.2032 -0.5160 -0.1644
  548SOL    HW1 1643   1.213   2.389   2.955  1.8309 -1.7578 -0.1519
  548SOL    HW2 1644   1.158   2.388   2.801 -2.9739 -1.1976  0.5878
  549SOL     OW 1645   2.110   0.461   2.930 -0.9215  0.6694  0.6440
  549SOL    HW1 1646   2.163   0.457   3.017  1.5304 -0.8350  0.2432
  549SOL    HW2 1647   2.158   0.404   2.860  0.6966  0.2523 -1.7346
  550SOL     OW 1648   2.736   1.907   0.488  0.0451  0.0222  0.5032
  550SOL    HW1 1649   2.639   1.928   0.481  2.1300 -0.9542 -1.4763
  550SOL    HW2 1650   2.804   1.985   0.470  0.8445 -0.7994 -1.9451
  551SOL     OW 1651   1.166   2.868   1.834 -0.6551 -0.4288 -0.5072
  551SOL    HW1 1652   1.096   2.828   1.768 -1.7934 -0.5761  2.1069
  551SOL    HW2 1653   1.157   2.969   1.831 -1.7810 -0.7061 -2.7063
  552SOL     OW 1654   3.050   2.260   2.563  0.3542 -0.1772  0.1546
  552SOL    HW1 1655   3.035   2.185   2.493 -0.1593  0.5809 -1.5961
  552SOL    HW2 1656   2.964   2.268   2.621 -0.7674  0.5165  1.2223
  553SOL     OW 1657   0.242   2.782   0.863 -0.4612 -0.1141 -0.6791
  553SOL    HW1 1658   0.288   2.738   0.786 -0.8893  1.3601 -1.8731
  553SOL    HW2 1659   0.191   2.714   0.923  1.2697 -0.3160  1.8798
  554SOL     OW 1660   2.136   1.756   1.606  0.3465 -0.7133 -0.0070
  554SOL    HW1 1661   2.209   1.779   1.670 -0.1360 -2.6297 -0.3937
  554SOL    HW2 1662   2.105   1.837   1.554 -0.5051  3.1770 -1.8002
  555SOL     OW 1663   1.535   1.949   1.759  0.1368  0.0061 -0.3986
  555SOL    HW1 1664   1.467   1.942   1.682 -0.4320 -0.8861 -4.8174
  555SOL    HW2 1665   1.553   2.050   1.778  3.6204  1.0027 -2.2662
  556SOL     OW 1666   1.424   1.639   1.071 -0.1405  0.3129 -0.1706
  556SOL    HW1 1667   1.420   1.582   1.154 -0.8960  1.3946  0.6210
  556SOL    HW2 1668   1.404   1.585   0.988  1.2351 -2.3577 -1.0978
  557SOL     OW 1669   1.453   2.915   1.384  0.0204  0.0559  0.2670
  557SOL    HW1 1670   1.460   2.927   1.479 -2.5231 -1.2565 -1.6122
  557SOL    HW2 1671   1.360   2.888   1.355  1.1465  1.1663  0.1205
  558SOL     OW 1672   0.279   0.015   1.950  0.0326 -0.6011  0.5634
  558SOL    HW1 1673   0.292   0.035   2.048  0.8390 -0.6741  1.4963
  558SOL    HW2 1674   0.315   0.090   1.888 -0.1386  0.4798  0.2457
  559SOL     OW 1675   2.283   2.979   0.656  0.3421  0.1115  0.3495
  559SOL    HW1 1676   2.354   3.010   0.724 -1.5976 -0.5170  0.7555
  559SOL    HW2 1677   2.264   3.053   0.589  0.0565  2.2806  1.1207
  560SOL     OW 1678   1.406   2.423   0.634 -0.9518 -0.2099 -0.3287
  560SOL    HW1 1679   1.368   2.358   0.566 -0.7739 -1.6378 -0.5857
  560SOL    HW2 1680   1.337   2.497   0.663 -1.1646  0.1642  1.1930
  561SOL     OW 1681   1.035   0.525   0.344  0.3494  0.2713  0.1506
  561SOL    HW1 1682   1.100   0.475   0.286  4.4378 -0.6022 -0.7904
  561SOL    HW2 1683   0.940   0.495   0.334 -0.3161  2.3304 -2.5664
  562SOL     OW 1684   0.399   1.146   2.516 -0.1751  0.1871 -0.0336
  562SOL    HW1 1685   0.375   1.053   2.481  0.3149  0.8424 -0.2796
  562SOL    HW2 1686   0.436   1.136   2.609 -4.0315  1.1801 -0.4813
  563SOL     OW 1687   1.330   2.112   2.369  0.0493  0.0168 -0.4029
  563SOL    HW1 1688   1.332   2.209   2.339 -2.3438 -1.2068  0.8666
  563SOL    HW2 1689   1.428   2.073   2.369  1.2813  0.2271  1.4322
  564SOL     OW 1690   2.840   0.943   1.021  0.3652  0.2699  0.3482
  564SOL    HW1 1691   2.833   1.023   1.086  1.1467 -1.6736 -1.1353
  564SOL    HW2 1692   2.799   0.962   0.931 -0.6985  0.1354 -2.5351
  565SOL     OW 1693   0.553   0.866   3.050  0.7419 -0.0993  0.3648
  565SOL    HW1 1694   0.600   0.840   2.957  1.5968 -1.2590 -2.0037
  565SOL    HW2 1695   0.607   0.836   0.047 -0.1940 -1.2498 -1.9914
  566SOL     OW 1696   2.491   0.036   2.754 -0.3470 -0.0199 -0.1862
  566SOL    HW1 1697   2.397   0.038   2.792  0.9509 -0.2795  0.5264
  566SOL    HW2 1698   2.500   0.077   2.661  1.5483 -4.2428  0.5770
  567SOL     OW 1699   1.644   1.004   1.105  0.5222  0.3960  0.0737
  567SOL    HW1 1700   1.742   0.989   1.106 -2.8107  1.0210 -2.3865
  567SOL    HW2 1701   1.619   1.097   1.067 -1.4217 -1.0946 -0.1167
  568SOL     OW 1702   1.718   1.740   2.737  0.4907  0.1112  0.4628
  568SOL    HW1 1703   1.696   1.723   2.639 -0.8984  0.3411 -1.0969
  568SOL    HW2 1704   1.628   1.767   2.781 -0.5487  1.6635 -1.6333
  569SOL     OW 1705   2.223   1.381   2.989  0.2358  0.1436  0.1089
  569SOL    HW1 1706   2.215   1.282   3.013  0.3889 -0.0906  0.1450
  569SOL    HW2 1707   2.309   1.404   2.932  2.9119  2.5169 -3.8640
  570SOL     OW 1708   0.061   2.252   1.814  0.0036  0.5886 -0.2697
  570SOL    HW1 1709   0.151   2.214   1.845  2.4307 -1.1573  1.2496
  570SOL    HW2 1710   0.076   2.331   1.750  1.2960 -1.6690  1.0714
  571SOL     OW 1711   2.658   1.833   1.718 -0.2500 -0.3057  0.3428
  571SOL    HW1 1712   2.594   1.893   1.664 -0.0138  2.3504 -0.1459
  571SOL    HW2 1713   2.717   1.892   1.781  0.5353 -2.1695 -0.7556
  572SOL     OW 1714   1.702   1.941   0.265  0.2372  0.1430 -0.2133
  572SOL    HW1 1715   1.617   1.947   0.320  0.7053  1.9539 -0.4974
  572SOL    HW2 1716   1.760   2.026   0.264  0.6401 -1.5522  0.6296
  573SOL     OW 1717   1.834   2.170   0.333 -0.2141  0.1723  0.3261
  573SOL    HW1 1718   1.825   2.190   0.235  2.3738 -0.2522  1.4060
  573SOL    HW2 1719   1.783   2.245   0.387 -3.7253 -0.5140 -0.6045
  574SOL     OW 1720   1.006   0.256   1.161 -0.1566  0.0153 -0.2685
  574SOL    HW1 1721   1.045   0.178   1.216 -1.4161 -1.1394 -2.6993
  574SOL    HW2 1722   1.008   0.237   1.060 -1.0442  1.8270 -0.0752
  575SOL     OW 1723   0.783   0.896   1.707 -0.0169  0.1274 -0.2178
  575SOL    HW1 1724   0.836   0.955   1.645 -0.2327 -2.3150 -0.1620
  575SOL    HW2 1725   0.776   0.952   1.792 -0.9759  0.8719  0.4234
  576SOL     OW 1726   2.472   0.362   1.803 -0.3667  0.0362  0.4543
  576SOL    HW1 1727   2.425   0.341   1.713 -3.1246  0.8164  0.1671
  576SOL    HW2 1728   2.574   0.363   1.784 -0.0199  1.6152 -3.9799
  577SOL     OW 1729   1.270   0.978   2.597  0.4435 -0.7080 -0.2117
  577SOL    HW1 1730   1.276   1.076   2.630 -1.9117  1.2855 -1.5616
  577SOL    HW2 1731   1.325   0.965   2.515  0.7583  1.2180  1.3336
  578SOL     OW 1732   2.137   1.451   2.381  0.2974  0.3751  0.1082
  578SOL    HW1 1733   2.037   1.462   2.398  0.9508 -1.0216  1.3602
  578SOL    HW2 1734   2.165   1.437   2.281  0.2595  0.6611  0.2933
  579SOL     OW 1735   1.351   2.097   1.392 -0.7029 -1.0072 -0.6062
  579SOL    HW1 1736   1.330   2.008   1.442 -0.8821 -1.2546 -1.2518
  579SOL    HW2 1737   1.427   2.158   1.432  3.1503  2.0211 -1.1293
  580SOL     OW 1738   1.484   2.257   0.194  0.4843  0.3867 -0.7441
  580SOL    HW1 1739   1.590   2.244   0.185  2.3595 -0.2986  1.4378
  580SOL    HW2 1740   1.437   2.170   0.166  0.0437 -2.1679 -1.7489
  581SOL     OW 1741   1.185   0.791   1.975 -0.6924 -0.6230  0.0606
  581SOL    HW1 1742   1.091   0.758   1.953  0.5441  0.0827  0.1268
  581SOL    HW2 1743   1.181   0.831   2.070 -1.9835  0.1517  0.4002
  582SOL     OW 1744   0.910   1.086   1.535 -0.0671 -0.1306 -0.0867
  582SOL    HW1 1745   0.914   1.178   1.581 -0.2555 -0.8239  0.8240
  582SOL    HW2 1746   0.999   1.062   1.489  2.4522  0.4529 -0.5833
  583SOL     OW 1747   1.059   1.157   2.086 -0.3419 -0.1977  0.1975
  583SOL    HW1 1748   1.127   1.126   2.013  2.2375  0.2814  1.1097
  583SOL    HW2 1749   1.034   1.258   2.076 -0.2686 -0.1757  1.7594
  584SOL     OW 1750   2.165   2.256   1.039  0.1505 -0.4948 -0.1420
  584SOL    HW1 1751   2.226   2.222   0.965  0.1006  1.0907  0.8355
  584SOL    HW2 1752   2.073   2.206   1.055 -1.7407 -3.6865  2.8125
  585SOL     OW 1753   2.216   0.061   2.803 -0.5121  0.3027  0.8990
  585SOL    HW1 1754   2.157   3.080   2.855 -0.0906  1.6356 -1.1413
  585SOL    HW2 1755   2.242   0.143   2.857  0.7259 -1.7950 -2.1349
  586SOL     OW 1756   3.017   2.423   0.785 -0.4013  0.1472  0.3063
  586SOL    HW1 1757   3.017   2.436   0.683  0.8643 -1.8333 -1.9702
  586SOL    HW2 1758   2.925   2.391   0.815 -1.5750  1.2967  1.4613
  587SOL     OW 1759   1.499   1.807   2.888 -0.5649 -0.4227  0.4291
  587SOL    HW1 1760   1.543   1.859   2.961  0.3977  0.1563  0.9189
  587SOL    HW2 1761   1.408   1.768   2.921 -1.1092 -2.6081  1.0998
  588SOL     OW 1762   0.243   0.329   1.037  0.0126  0.1650  0.0774
  588SOL    HW1 1763   0.242   0.300   1.137  0.4168 -0.5299 -0.8946
  588SOL    HW2 1764   0.207   0.258   0.972 -2.9455  0.3771 -1.2976
  589SOL     OW 1765   1.231   0.771   0.858 -0.0129  0.1858 -0.1985
  589SOL    HW1 1766   1.272   0.855   0.825 -2.5132 -2.9115  0.7330
  589SOL    HW2 1767   1.176   0.725   0.781  2.4243 -0.7766 -1.6366
  590SOL     OW 1768   1.374   1.208   0.032 -0.2663 -0.3279 -0.1215
  590SOL    HW1 1769   1.423   1.255   0.112 -1.6256 -0.2754 -0.1644
  590SOL    HW2 1770   1.283   1.172   0.062 -0.6440 -1.2585 -0.8651
  591SOL     OW 1771   2.581   2.305   2.515 -0.3862  0.1739 -0.0894
  591SOL    HW1 1772   2.505   2.237   2.513  2.2429 -2.5392 -0.7709
  591SOL    HW2 1773   2.542   2.398   2.481 -2.3614  1.0975 -1.3644
  592SOL     OW 1774   1.749   2.126   1.455 -0.2903 -0.2503  0.3672
  592SOL    HW1 1775   1.710   2.074   1.377  0.2201 -0.4627 -0.4033
  592SOL    HW2 1776   1.792   2.061   1.521 -1.9257 -0.5992 -0.4516
  593SOL     OW 1777   0.696   0.081   0.924 -1.0374 -0.8719 -0.4201
  593SOL    HW1 1778   0.674   0.123   1.020  0.3371  1.8491  3.4898
  593SOL    HW2 1779   0.724   0.157   0.868  0.5662 -2.2665  1.5219
  594SOL     OW 1780   2.663   0.715   2.451  0.1125 -0.3025  0.8757
  594SOL    HW1 1781   2.649   0.778   2.530  2.0305 -1.5766  3.0591
  594SOL    HW2 1782   2.603   0.731   2.374  0.2062 -2.4584 -0.0026
  595SOL     OW 1783   0.649   2.704   0.929 -0.4965 -0.5054  0.6713
  595SOL    HW1 1784   0.603   2.617   0.889 -2.3413 -0.5681 -0.3656
  595SOL    HW2 1785   0.606   2.725   1.020  0.4202  0.8244 -2.2715
  596SOL     OW 1786   0.084   0.892   1.259  0.4986  0.4710  0.3606
  596SOL    HW1 1787   0.023   0.814   1.277  1.8304  3.0522 -2.5970
  596SOL    HW2 1788   0.126   0.875   1.168 -0.7508 -1.2534 -1.4396
  597SOL     OW 1789   1.415   1.781   0.234  0.5547  0.3674 -0.4363
  597SOL    HW1 1790   1.457   1.735   0.154  0.9373  1.6913  1.3692
  597SOL    HW2 1791   1.447   1.745   0.327  0.3631 -0.2996  0.7223
  598SOL     OW 1792   0.403   2.868   1.819  0.9719 -0.0122 -0.5403
  598SOL    HW1 1793   0.392   2.867   1.720 -3.9526 -0.3116  1.7740
  598SOL    HW2 1794   0.356   2.945   1.868 -0.8200  1.1310  0.4442
  599SOL     OW 1795   2.478   1.619   2.673 -0.3733  0.7607 -0.0344
  599SOL    HW1 1796   2.440   1.591   2.585 -2.7202 -0.9687 -2.0763
  599SOL    HW2 1797   2.580   1.612   2.676 -0.6042  0.7097 -1.2460
  600SOL     OW 1798   0.830   1.141   0.275  1.0222 -0.1489 -0.0912
  600SOL    HW1 1799   0.769   1.214   0.319 -0.0096  2.2900  0.9181
  600SOL    HW2 1800   0.900   1.119   0.347  1.0404 -1.4910  0.6763
  601SOL     OW 1801   0.530   0.907   0.707 -0.5124  0.0940 -0.3090
  601SOL    HW1 1802   0.494   0.971   0.778 -3.6290  1.8555 -1.9616
  601SOL    HW2 1803   0.625   0.893   0.735 -1.9657 -0.8688  0.4148
  602SOL     OW 1804   1.786   2.812   0.658 -0.7236 -0.2829  0.0271
  602SOL    HW1 1805   1.718   2.788   0.724  1.7287  1.7451 -1.9949
  602SOL    HW2 1806   1.756   2.895   0.605  1.1596  0.4019  1.5262
  603SOL     OW 1807   0.853   2.710   2.169  0.2195  0.0710  0.1578
  603SOL    HW1 1808   0.941   2.659   2.185 -0.6036 -0.2231  1.5171
  603SOL    HW2 1809   0.784   2.660   2.109 -1.9856 -0.7509 -0.1594
  604SOL     OW 1810   2.894   0.139   2.564 -0.1114 -0.7044 -0.5755
  604SOL    HW1 1811   2.977   0.122   2.512 -2.6440 -1.3661  1.1731
  604SOL    HW2 1812   2.807   0.112   2.517 -0.4084  0.5373 -1.9559
  605SOL     OW 1813   2.695   1.396   1.308  0.0412 -0.2891 -0.0228
  605SOL    HW1 1814   2.721   1.314   1.252 -0.7922  2.3145 -1.6027
  605SOL    HW2 1815   2.602   1.440   1.291  0.9745 -1.4894  1.6325
  606SOL     OW 1816   0.739   1.397   2.708  0.3953 -0.0612  0.6469
  606SOL    HW1 1817   0.755   1.472   2.776  2.9328 -1.6940 -2.2351
  606SOL    HW2 1818   0.642   1.399   2.667 -3.2833  1.0372  0.1385
  607SOL     OW 1819   0.415   3.072   0.375 -0.6973 -0.5703  0.4586
  607SOL    HW1 1820   0.417   2.999   0.305  1.1994 -0.7497  0.2412
  607SOL    HW2 1821   0.384   0.077   0.335  2.6159 -0.8176  0.5603
  608SOL     OW 1822   1.874   1.532   2.068  0.3907 -0.0536  0.4083
  608SOL    HW1 1823   1.843   1.433   2.057  2.8780 -0.8201  2.2000
  608SOL    HW2 1824   1.853   1.592   1.989  0.9487 -0.9075  0.7522
  609SOL     OW 1825   2.633   0.328   1.308  0.2097  0.0068 -0.0532
  609SOL    HW1 1826   2.587   0.235   1.313 -1.9915 -0.4043  0.7618
  609SOL    HW2 1827   2.600   0.395   1.380 -1.2811  0.3749 -0.8600
  610SOL     OW 1828   0.372   2.746   0.597 -0.1083 -0.3259  0.6958
  610SOL    HW1 1829   0.445   2.677   0.579 -2.7061  1.9270 -0.0371
  610SOL    HW2 1830   0.422   2.831   0.629  3.0331  1.1587  1.9917
  611SOL     OW 1831   1.565   0.921   2.935 -0.1002  0.5931 -0.2264
  611SOL    HW1 1832   1.568   0.984   2.851 -2.0840  1.2948 -0.4968
  611SOL    HW2 1833   1.607   0.961   3.019  1.5352  2.4103  0.7579
  612SOL     OW 1834   0.773   2.321   2.104  0.5511 -0.9482 -0.1812
  612SOL    HW1 1835   0.862   2.334   2.149 -0.0320  2.3297  0.4602
  612SOL    HW2 1836   0.779   2.246   2.033 -2.3249  1.5476 -1.8379
  613SOL     OW 1837   0.585   2.588   0.557  0.7873 -0.3416  0.2589
  613SOL    HW1 1838   0.552   2.523   0.484  0.5296 -1.6167  1.9232
  613SOL    HW2 1839   0.674   2.630   0.523  0.4939  2.1479 -2.1885
  614SOL     OW 1840   2.433   2.916   1.560  0.0843 -0.0712  0.2964
  614SOL    HW1 1841   2.518   2.894   1.613 -1.3305  1.6545  0.7284
  614SOL    HW2 1842   2.365   2.964   1.618 -1.4883 -0.0996 -0.4488
  615SOL     OW 1843   1.803   1.159   0.271 -0.8858 -0.0715  0.3134
  615SOL    HW1 1844   1.762   1.216   0.346  0.9010  0.4649  0.1062
  615SOL    HW2 1845   1.855   1.216   0.204  1.4655 -1.4679 -1.7351
  616SOL     OW 1846   1.890   0.923   0.328  0.5675  0.0796 -0.0937
  616SOL    HW1 1847   1.822   0.890   0.396 -0.1266  0.0067  0.9413
  616SOL    HW2 1848   1.854   1.013   0.290  2.1634 -1.7035 -2.9789
  617SOL     OW 1849   1.000   1.064   2.879 -1.1220  0.2645  0.2069
  617SOL    HW1 1850   0.957   1.074   2.970  3.8229 -1.9490 -2.6973
  617SOL    HW2 1851   1.099   1.047   2.888  2.2046 -1.6044 -0.0656
  618SOL     OW 1852   0.705   2.883   1.770 -0.0218 -0.0470 -0.2135
  618SOL    HW1 1853   0.792   2.859   1.814 -1.4575 -0.4560  0.7974
  618SOL    HW2 1854   0.625   2.855   1.828 -1.5776  1.6296 -0.6206
  619SOL     OW 1855   2.996   1.153   1.349 -0.5010  0.1448  0.3198
  619SOL    HW1 1856   3.055   1.071   1.341  0.3148 -0.5698  0.2702
  619SOL    HW2 1857   2.966   1.175   1.444  0.6198  2.3211 -0.1155
  620SOL     OW 1858   2.310   0.974   2.883 -0.1176  0.1005 -0.4899
  620SOL    HW1 1859   2.358   0.996   2.799 -1.5558 -0.2551  2.6628
  620SOL    HW2 1860   2.252   0.888   2.875  0.5428  0.6301  0.9213
  621SOL     OW 1861   2.624   2.474   1.529  0.0419  0.1256  0.2386
  621SOL    HW1 1862   2.614   2.385   1.482  0.6393  1.3233 -0.8933
  621SOL    HW2 1863   2.655   2.461   1.625 -1.2893  0.0014  2.7134
  622SOL     OW 1864   0.979   0.680   2.599 -0.2653  0.4238  0.5628
  622SOL    HW1 1865   0.931   0.658   2.511 -1.2098 -0.1492 -2.6388
  622SOL    HW2 1866   0.980   0.779   2.621 -0.0703 -0.6009 -2.2264
  623SOL     OW 1867   1.157   0.475   2.502 -0.1409 -0.0149 -0.4086
  623SOL    HW1 1868   1.111   0.385   2.516  0.7449 -1.5040  1.6877
  623SOL    HW2 1869   1.099   0.557   2.534 -1.0953  2.2796 -1.1885
  624SOL     OW 1870   2.373   0.744   0.042  0.5734  0.2437  0.1481
  624SOL    HW1 1871   2.342   0.732   3.025  0.9388 -1.0139  0.9405
  624SOL    HW2 1872   2.478   0.731   0.044  2.0734 -0.0787 -0.4448
  625SOL     OW 1873   1.131   1.430   0.955  0.2286  0.0189 -0.4796
  625SOL    HW1 1874   1.232   1.424   0.934  2.5259 -2.0428 -0.1619
  625SOL    HW2 1875   1.103   1.341   0.996 -0.0754 -0.5253  0.1157
  626SOL     OW 1876   1.775   0.986   2.550 -0.4673 -1.1405 -0.3086
  626SOL    HW1 1877   1.820   0.948   2.463  1.2193  1.0109 -0.7116
  626SOL    HW2 1878   1.856   1.010   2.614 -0.2867 -0.5947  2.5726
  627SOL     OW 1879   1.149   2.977   2.739  0.1086  0.6110 -0.2942
  627SOL    HW1 1880   1.195   2.898   2.789  2.2404 -0.1736  1.4924
  627SOL    HW2 1881   1.064   3.012   2.780 -0.3505  0.1258 -0.7282
  628SOL     OW 1882   2.301   0.196   2.567 -0.6233 -0.2738 -0.3040
  628SOL    HW1 1883   2.253   0.150   2.645 -0.5469 -1.6833 -1.7616
  628SOL    HW2 1884   2.310   0.296   2.584  2.9614  2.2922  0.9529
  629SOL     OW 1885   1.063   0.590   2.874  0.0820  0.0141 -0.5055
  629SOL    HW1 1886   1.044   0.643   2.788 -0.2611  2.0114  2.0628
  629SOL    HW2 1887   1.106   0.645   2.948  0.8497 -0.4176  1.9313
  630SOL     OW 1888   1.268   0.212   1.999 -0.2508  0.0285  0.6304
  630SOL    HW1 1889   1.183   0.259   2.040  0.0416  2.3395  0.7453
  630SOL    HW2 1890   1.313   0.169   2.078  1.0633  0.7829  0.3697
  631SOL     OW 1891   2.691   0.934   0.781 -0.3083  0.3219  0.4095
  631SOL    HW1 1892   2.596   0.969   0.772  2.6287 -1.8882  1.7339
  631SOL    HW2 1893   2.687   0.828   0.790 -1.8867 -0.4100 -0.9155
  632SOL     OW 1894   2.025   0.770   1.385 -0.3725 -0.3153 -0.2110
  632SOL    HW1 1895   2.002   0.785   1.485 -0.7165  1.8488  2.6848
  632SOL    HW2 1896   2.033   0.669   1.354  0.9983 -5.0282 -0.4203
  633SOL     OW 1897   0.942   1.440   0.494  0.2123  0.4551 -0.4798
  633SOL    HW1 1898   0.914   1.459   0.589  0.0505  2.7924 -0.9826
  633SOL    HW2 1899   1.030   1.394   0.506 -1.4775 -0.0830 -4.4790
  634SOL     OW 1900   1.901   2.984   0.928 -0.1212  0.0834 -0.4434
  634SOL    HW1 1901   1.955   3.048   0.981 -0.9973 -0.1258 -0.7567
  634SOL    HW2 1902   1.924   2.886   0.953  1.7252 -1.0333 -0.5488
  635SOL     OW 1903   1.681   0.614   1.238  0.1951  0.0874  0.1165
  635SOL    HW1 1904   1.632   0.636   1.327 -0.4356  0.1238 -0.3016
  635SOL    HW2 1905   1.727   0.693   1.195 -0.2847 -1.3355  2.1345
  636SOL     OW 1906   0.974   1.118   0.498  0.0974 -0.0475  0.2591
  636SOL    HW1 1907   1.006   1.215   0.507  0.1253  0.6134 -0.5371
  636SOL    HW2 1908   0.931   1.094   0.589  0.3295  0.1833 -1.3275
  637SOL     OW 1909   2.466   2.252   2.961 -0.4818 -0.0882 -0.2818
  637SOL    HW1 1910   2.483   2.170   3.026  0.4746 -1.7574  1.0904
  637SOL    HW2 1911   2.397   2.230   2.889  3.5908  0.3355  4.8722
  638SOL     OW 1912   1.364   2.551   2.668  0.1021  0.7577 -0.1663
  638SOL    HW1 1913   1.291   2.487   2.642  1.9925 -1.2744  0.4536
  638SOL    HW2 1914   1.394   2.513   2.758  0.1961 -0.7407  0.2253
  639SOL     OW 1915   0.962   1.972   1.321 -0.0629 -0.0128  0.0586
  639SOL    HW1 1916   0.891   2.009   1.256 -2.4307  0.5299  0.1656
  639SOL    HW2 1917   1.057   2.000   1.292  3.0924  0.9711 -0.2998
  640SOL     OW 1918   2.412   2.930   0.435 -0.3595 -0.1549 -0.7481
  640SOL    HW1 1919   2.348   2.926   0.357  1.2903  1.3930 -2.1498
  640SOL    HW2 1920   2.357   2.922   0.520 -0.2829  1.8314 -1.0688
  641SOL     OW 1921   0.325   0.220   0.298 -0.0665 -0.3398 -0.0147
  641SOL    HW1 1922   0.320   0.313   0.258 -1.6587 -1.5235  3.4804
  641SOL    HW2 1923   0.236   0.204   0.347  0.0290 -0.3658  1.3101
  642SOL     OW 1924   2.785   0.759   1.210  0.2102 -0.0458  0.1377
  642SOL    HW1 1925   2.747   0.666   1.182  0.1648  1.3112  1.9530
  642SOL    HW2 1926   2.796   0.813   1.121 -1.3342  1.7151  0.0097
  643SOL     OW 1927   0.846   2.104   1.927  1.1196 -0.0105  0.1167
  643SOL    HW1 1928   0.826   2.152   1.840  2.3535 -1.0796 -0.7535
  643SOL    HW2 1929   0.944   2.115   1.954  1.6284  0.0749  0.4047
  644SOL     OW 1930   1.695   2.640   0.347 -0.4153  0.3221  0.5170
  644SOL    HW1 1931   1.767   2.638   0.273  0.9868 -1.9449 -1.5961
  644SOL    HW2 1932   1.693   2.736   0.382 -1.0285 -0.3308 -0.4975
  645SOL     OW 1933   2.023   2.182   0.771  0.8713 -0.4096  0.6484
  645SOL    HW1 1934   1.986   2.267   0.717 -2.3336  2.5529 -3.5516
  645SOL    HW2 1935   1.958   2.148   0.841 -0.2210 -1.7949  0.2088
  646SOL     OW 1936   1.159   2.916   0.305 -0.0729  0.2216  0.9831
  646SOL    HW1 1937   1.104   2.838   0.341 -1.1973 -2.5246  2.6376
  646SOL    HW2 1938   1.195   2.904   0.212 -0.5239  3.8529 -0.7779
  647SOL     OW 1939   0.393   2.678   2.037 -0.2057  0.1064 -0.0716
  647SOL    HW1 1940   0.391   2.735   1.953 -2.5200 -0.8988 -0.8529
  647SOL    HW2 1941   0.352   2.587   2.017 -2.2407 -0.4758  0.5697
  648SOL     OW 1942   1.859   0.845   1.192  0.3152  0.0969 -0.0175
  648SOL    HW1 1943   1.907   0.846   1.098  0.5140  0.6504 -1.0779
  648SOL    HW2 1944   1.921   0.822   1.273 -1.0974 -0.2927 -2.0933
  649SOL     OW 1945   1.342   2.220   2.857 -0.2512 -0.1293  0.7516
  649SOL    HW1 1946   1.411   2.298   2.881  2.5654  3.3941 -1.2044
  649SOL    HW2 1947   1.393   2.146   2.804  0.1929 -1.4846  0.0034
  650SOL     OW 1948   2.373   1.435   1.661  0.2705  0.0119 -0.5343
  650SOL    HW1 1949   2.433   1.493   1.726  0.1980 -0.6951  2.6406
  650SOL    HW2 1950   2.275   1.457   1.687 -2.0020  0.3424  2.6464
  651SOL     OW 1951   1.488   2.442   2.911  1.3375  0.3601 -0.2391
  651SOL    HW1 1952   1.474   2.498   2.992  0.7933  0.9592 -1.8016
  651SOL    HW2 1953   1.584   2.451   2.879  1.2974  1.2528  1.1229
  652SOL     OW 1954   0.854   2.480   0.098 -0.0331  0.2450 -0.2955
  652SOL    HW1 1955   0.939   2.519   0.133 -1.2381  2.4170 -1.1393
  652SOL    HW2 1956   0.836   2.505   0.002  1.4882 -2.8465  0.7658
  653SOL     OW 1957   2.369   2.089   1.306  0.0905 -1.0892 -0.2854
  653SOL    HW1 1958   2.411   2.148   1.229  2.8117  0.4552 -1.0802
  653SOL    HW2 1959   2.266   2.080   1.309  0.1494 -1.6346 -2.1901
  654SOL     OW 1960   2.895   2.625   1.645 -0.3355  0.4592 -0.4947
  654SOL    HW1 1961   2.859   2.717   1.610  1.7103 -1.0870  4.6535
  654SOL    HW2 1962   2.896   2.551   1.575 -1.7072  1.1416 -1.2685
  655SOL     OW 1963   3.030   2.192   1.207 -0.2520  0.2504 -0.1348
  655SOL    HW1 1964   2.949   2.129   1.230 -2.6261 -1.8017  0.5420
  655SOL    HW2 1965   2.999   2.289   1.211  0.4567  2.9728 -0.1174
  656SOL     OW 1966   3.021   2.724   2.664  0.5013 -0.0600 -0.2083
  656SOL    HW1 1967   0.024   2.701   2.716  1.0041  2.4963 -0.7327
  656SOL    HW2 1968   2.985   2.815   2.687  2.5705 -0.9219 -0.7015
  657SOL     OW 1969   3.034   0.854   0.196 -0.0860 -0.0137  0.0535
  657SOL    HW1 1970   2.953   0.916   0.209 -3.2235  0.4362  0.3998
  657SOL    HW2 1971   0.032   0.916   0.191 -2.3359  1.0579 -1.0242
  658SOL     OW 1972   2.205   1.833   0.826  0.2275 -0.1063 -0.1213
  658SOL    HW1 1973   2.254   1.803   0.743 -0.6503 -0.7690 -1.3631
  658SOL    HW2 1974   2.135   1.902   0.807  2.0800 -1.9906  0.9468
  659SOL     OW 1975   1.484   0.565   1.482 -0.0496 -0.3199 -0.5505
  659SOL    HW1 1976   1.409   0.601   1.421 -0.3803 -1.5265  0.2748
  659SOL    HW2 1977   1.510   0.470   1.460  0.2077  0.6015  2.5056
  660SOL     OW 1978   1.544   1.633   0.040 -0.0811  0.3239  0.8277
  660SOL    HW1 1979   1.633   1.675   0.079 -0.8773  2.2398  1.6055
  660SOL    HW2 1980   1.561   1.552   3.058 -0.2529 -1.2555  0.1083
  661SOL     OW 1981   0.085   2.036   0.474 -0.3831  0.1131  0.1441
  661SOL    HW1 1982   0.143   2.075   0.392  1.9389  0.9219 -1.0690
  661SOL    HW2 1983   3.069   2.043   0.447 -0.0570 -0.9776  1.3920
  662SOL     OW 1984   2.990   0.702   2.116  0.4990  0.3176 -0.6588
  662SOL    HW1 1985   2.950   0.762   2.189  1.8840  2.0360  1.5689
  662SOL    HW2 1986   3.045   0.761   2.052  2.8228 -1.9406  1.2175
  663SOL     OW 1987   1.943   1.436   0.837  0.7062 -0.1674  0.0692
  663SOL    HW1 1988   2.000   1.357   0.816 -0.4038  0.3049  2.1831
  663SOL    HW2 1989   1.993   1.497   0.901  0.2400 -1.5118  0.7305
  664SOL     OW 1990   0.659   0.416   1.224  0.6954  0.1399  0.3310
  664SOL    HW1 1991   0.745   0.454   1.185  1.8226  0.7404 -0.0391
  664SOL    HW2 1992   0.664   0.317   1.248  2.8013 -0.7274  0.6913
  665SOL     OW 1993   1.208   2.913   0.033  0.2649 -0.3718 -0.3049
  665SOL    HW1 1994   1.308   2.902   0.022 -0.4543  2.1657 -1.5595
  665SOL    HW2 1995   1.176   2.998   3.068  1.7422  0.7790  0.8748
  666SOL     OW 1996   0.072   0.472   2.354 -0.3937  0.1375  0.2514
  666SOL    HW1 1997   0.115   0.395   2.417  0.7544 -1.5206 -0.9763
  666SOL    HW2 1998   3.068   0.429   2.314  1.0666 -0.4246  0.4372
  667SOL     OW 1999   2.097   1.681   2.110  0.2065  0.4447  0.1453
  667SOL    HW1 2000   2.173   1.613   2.123 -0.6016  0.6689 -0.5245
  667SOL    HW2 2001   2.006   1.630   2.101 -1.3861  1.0236  1.0054
  668SOL     OW 2002   0.244   1.792   2.907  0.5710 -0.3421  0.0695
  668SOL    HW1 2003   0.239   1.880   2.855  2.0773  0.5533  0.9215
  668SOL    HW2 2004   0.213   1.712   2.853 -4.1912 -3.1070  0.9404
  669SOL     OW 2005   2.117   2.501   2.479  0.2850  0.2894 -0.4914
  669SOL    HW1 2006   2.140   2.451   2.398 -2.7537  0.3921  4.7555
  669SOL    HW2 2007   2.024   2.542   2.464  2.0631  0.4216 -2.1407
  670SOL     OW 2008   2.518   1.037   2.400 -0.1822  0.0562  0.0359
  670SOL    HW1 2009   2.497   1.067   2.302 -0.5065 -2.0434 -1.3744
  670SOL    HW2 2010   2.492   0.940   2.413  0.3807  2.1321  2.8091
  671SOL     OW 2011   2.270   1.363   0.185  0.0532 -0.0117  0.2471
  671SOL    HW1 2012   2.300   1.373   0.090  3.4999 -0.1847  1.5962
  671SOL    HW2 2013   2.335   1.414   0.245  0.5564  0.9610 -0.8211
  672SOL     OW 2014   2.735   1.210   2.439 -0.9202 -0.7937 -0.0871
  672SOL    HW1 2015   2.735   1.251   2.533  0.3642  2.6263 -0.1031
  672SOL    HW2 2016   2.649   1.155   2.427  1.3672  0.0238  0.3003
  673SOL     OW 2017   2.531   1.043   1.526 -0.4219  0.0378 -0.4115
  673SOL    HW1 2018   2.502   1.086   1.439 -2.7931 -1.3261  0.5607
  673SOL    HW2 2019   2.609   0.977   1.504 -0.4575 -0.5007  3.2632
  674SOL     OW 2020   1.666   1.770   1.469 -0.1535  0.1495 -0.5894
  674SOL    HW1 2021   1.733   1.699   1.425 -0.1088 -1.8277 -1.0508
  674SOL    HW2 2022   1.588   1.724   1.520 -1.8701 -0.7708  1.9571
  675SOL     OW 2023   0.058   0.508   1.019  0.0416 -0.1498  0.0971
  675SOL    HW1 2024   0.090   0.580   0.954 -0.0431  1.3043  0.7902
  675SOL    HW2 2025   0.133   0.445   1.039 -0.2283  0.2661  1.8200
  676SOL     OW 2026   2.097   1.013   1.089  0.6944  0.3678 -0.0273
  676SOL    HW1 2027   2.128   1.001   1.185  0.2565 -1.4334 -1.1022
  676SOL    HW2 2028   2.154   0.965   1.022 -1.3668 -0.7624  1.6577
  677SOL     OW 2029   1.651   1.674   2.215 -0.1222 -0.2484 -0.2781
  677SOL    HW1 2030   1.716   1.745   2.178  1.4450  1.7729  1.1609
  677SOL    HW2 2031   1.647   1.593   2.156  0.8753 -3.2697  2.1387
  678SOL     OW 2032   2.913   1.807   0.986 -0.2846 -0.0037  0.5356
  678SOL    HW1 2033   2.979   1.853   1.045  2.1181  0.5630 -1.7166
  678SOL    HW2 2034   2.899   1.709   1.011 -0.3886  0.1543 -0.8017
  679SOL     OW 2035   2.982   3.054   0.489  0.5097 -0.3749  0.6563
  679SOL    HW1 2036   2.883   3.026   0.500 -1.9910 -1.4194 -0.7161
  679SOL    HW2 2037   3.039   3.015   0.564 -3.5953  0.6771  2.0234
  680SOL     OW 2038   0.205   2.298   1.242  0.6381  0.4739 -0.0525
  680SOL    HW1 2039   0.295   2.274   1.194  1.5637 -1.4062 -1.6742
  680SOL    HW2 2040   0.125   2.253   1.206 -1.0889 -0.5973 -0.5222
  681SOL     OW 2041   0.732   0.698   1.095  0.5148 -1.0420  0.1183
  681SOL    HW1 2042   0.674   0.710   1.178  0.4495  1.3114 -0.4963
  681SOL    HW2 2043   0.808   0.632   1.113 -2.0482  3.5990 -1.6391
  682SOL     OW 2044   1.550   2.759   0.794 -0.2160  0.1969 -0.4734
  682SOL    HW1 2045   1.564   2.854   0.826 -1.8781 -0.8125 -1.0715
  682SOL    HW2 2046   1.566   2.688   0.865  1.2709  1.2042 -0.9832
  683SOL     OW 2047   2.170   1.172   1.437  0.5451  0.0209 -0.8681
  683SOL    HW1 2048   2.133   1.211   1.351 -0.3048 -1.2505  0.0907
  683SOL    HW2 2049   2.259   1.125   1.421 -2.9965 -0.5956  1.1014
  684SOL     OW 2050   0.279   1.880   1.746  0.2297  0.2644 -0.1831
  684SOL    HW1 2051   0.329   1.861   1.832 -0.0088 -1.6376  1.0747
  684SOL    HW2 2052   0.223   1.802   1.715  1.2064  1.2970 -3.2786
  685SOL     OW 2053   2.377   1.811   0.026 -0.2346  0.2881 -0.1083
  685SOL    HW1 2054   2.427   1.721   0.036  0.6853  1.4008 -1.5408
  685SOL    HW2 2055   2.382   1.835   3.007 -0.6539 -2.4663  0.3648
  686SOL     OW 2056   2.930   0.272   0.611 -0.1358  0.4517  0.0669
  686SOL    HW1 2057   2.834   0.280   0.580 -0.5644  0.3223  4.1990
  686SOL    HW2 2058   3.001   0.269   0.541 -1.8009 -1.4344 -2.3761
  687SOL     OW 2059   1.491   2.942   0.007  0.0816  0.3173  0.2603
  687SOL    HW1 2060   1.545   2.977   0.085  0.6685  0.4555 -2.8699
  687SOL    HW2 2061   1.546   2.917   3.006 -2.2376  0.6329 -0.1125
  688SOL     OW 2062   1.837   1.885   2.152 -0.2512  0.2268  0.2037
  688SOL    HW1 2063   1.905   1.827   2.203  1.1935 -0.4424 -0.3216
  688SOL    HW2 2064   1.817   1.966   2.214 -2.1521  0.7278 -1.3806
  689SOL     OW 2065   2.852   0.909   1.859  0.1487  0.0194 -0.5775
  689SOL    HW1 2066   2.871   0.942   1.767 -0.0761 -0.5979  0.3272
  689SOL    HW2 2067   2.778   0.841   1.859 -1.6990  2.7488 -0.0393
  690SOL     OW 2068   2.156   1.231   0.748  0.1877  0.2943  0.3440
  690SOL    HW1 2069   2.256   1.241   0.715  1.0016  0.3042 -1.1121
  690SOL    HW2 2070   2.128   1.138   0.772 -0.4215  2.7173 -0.1734
  691SOL     OW 2071   1.038   1.228   1.114  0.0680  0.4103 -0.4357
  691SOL    HW1 2072   1.092   1.144   1.140 -1.0176 -0.7698  1.1340
  691SOL    HW2 2073   0.938   1.219   1.143  3.8606  2.2076 -0.7808
  692SOL     OW 2074   1.581   0.084   2.260  0.0625 -0.6149 -0.0459
  692SOL    HW1 2075   1.620   0.012   2.195  0.6882 -0.6669 -0.5171
  692SOL    HW2 2076   1.650   0.163   2.269  3.1810  4.7202 -2.5248
  693SOL     OW 2077   0.174   1.294   2.831  0.0032  0.6556  0.2333
  693SOL    HW1 2078   0.173   1.233   2.910  0.8806  1.5691 -0.3303
  693SOL    HW2 2079   0.122   1.256   2.756  2.0367 -2.1496  2.0927
  694SOL     OW 2080   2.159   2.726   0.728  0.3724 -0.3092  0.0696
  694SOL    HW1 2081   2.219   2.809   0.730  0.1690  2.6261 -0.5511
  694SOL    HW2 2082   2.112   2.710   0.639 -0.6917  1.9345  0.6442
  695SOL     OW 2083   1.651   1.313   2.817  0.0760 -0.3677  0.0178
  695SOL    HW1 2084   1.648   1.296   2.919 -0.9381  2.0558 -0.9360
  695SOL    HW2 2085   1.710   1.392   2.802  0.8658 -1.1246 -0.2756
  696SOL     OW 2086   1.838   0.310   1.556 -0.4140  0.3166  0.6734
  696SOL    HW1 2087   1.818   0.383   1.624 -2.2047 -0.5271 -0.0050
  696SOL    HW2 2088   1.838   0.347   1.459  3.0552 -2.1137 -2.1204
  697SOL     OW 2089   1.701   0.263   1.891 -0.1969  0.5062  0.2137
  697SOL    HW1 2090   1.739   0.193   1.827  2.0407  0.0860 -0.1035
  697SOL    HW2 2091   1.601   0.283   1.874  1.2745 -0.3449 -1.7756
  698SOL     OW 2092   1.864   1.488   2.395  0.1911  0.0013 -0.1599
  698SOL    HW1 2093   1.816   1.528   2.311  1.6829  0.6067 -0.2941
  698SOL    HW2 2094   1.801   1.411   2.425 -0.7260 -1.9121  0.1857
  699SOL     OW 2095   1.694   1.243   0.721  0.1913 -0.2961 -0.6297
  699SOL    HW1 2096   1.740   1.287   0.803  2.3779 -0.7941  0.9775
  699SOL    HW2 2097   1.714   1.142   0.704 -1.0139 -2.1556  1.8071
  700SOL     OW 2098   1.671   2.896   0.411  0.1870  0.2641 -0.8019
  700SOL    HW1 2099   1.584   2.892   0.466  1.4531 -0.3877 -1.9015
  700SOL    HW2 2100   1.651   2.952   0.325  0.7033  1.4712 -2.4473
  701SOL     OW 2101   0.222   0.274   1.295 -0.0322  0.2734  0.8309
  701SOL    HW1 2102   0.229   0.373   1.321  0.1333  1.0371 -0.6965
  701SOL    HW2 2103   0.258   0.209   1.366  2.1082  3.2925  0.1051
  702SOL     OW 2104   1.771   2.968   1.424 -0.2608  0.4231 -0.2587
  702SOL    HW1 2105   1.778   2.885   1.367 -0.8405  1.3629 -1.1817
  702SOL    HW2 2106   1.685   2.978   1.473  1.0583  1.0773  0.6757
  703SOL     OW 2107   2.388   2.817   2.171 -0.1028  0.0075  0.1461
  703SOL    HW1 2108   2.414   2.839   2.266 -2.5908 -2.2763  0.7535
  703SOL    HW2 2109   2.429   2.724   2.148 -0.0592  1.1154  0.3624
  704SOL     OW 2110   1.147   1.831   0.663  0.0258 -0.1916  0.0353
  704SOL    HW1 2111   1.175   1.803   0.761  1.2457 -0.9038  1.7154
  704SOL    HW2 2112   1.218   1.906   0.651 -2.8765  3.3280 -0.5613
  705SOL     OW 2113   0.293   1.722   2.147  0.1724 -0.4987  0.1177
  705SOL    HW1 2114   0.388   1.746   2.170  0.1941  0.5561  1.1205
  705SOL    HW2 2115   0.257   1.660   2.216 -0.6173 -1.4041  0.2419
  706SOL     OW 2116   1.633   0.405   0.240 -0.2209  0.1683 -0.0108
  706SOL    HW1 2117   1.623   0.321   0.172 -1.5970 -1.6403 -1.7195
  706SOL    HW2 2118   1.678   0.386   0.329  1.3679  0.4808  4.3875
  707SOL     OW 2119   1.395   2.573   2.124  0.1808 -0.1404  0.3104
  707SOL    HW1 2120   1.400   2.475   2.137  0.8509 -1.3131  2.3574
  707SOL    HW2 2121   1.328   2.589   2.050  0.9105 -0.6394  1.6761
  708SOL     OW 2122   0.616   2.192   1.644  0.2447  0.0959  0.1745
  708SOL    HW1 2123   0.591   2.099   1.606  0.8410 -0.7124 -2.5221
  708SOL    HW2 2124   0.715   2.217   1.608  5.3852  1.9978 -0.2135
  709SOL     OW 2125   2.442   0.579   1.988  0.0992  0.2425  0.0690
  709SOL    HW1 2126   2.439   0.547   2.083  1.6495  0.6853 -1.8840
  709SOL    HW2 2127   2.444   0.506   1.919  1.4562  0.9688  2.1246
  710SOL     OW 2128   2.945   0.289   1.633 -0.1867  0.3984 -0.3846
  710SOL    HW1 2129   2.928   0.300   1.535  0.6954  0.1320  0.4488
  710SOL    HW2 2130   3.036   0.330   1.661 -0.6596  2.0200  0.8976
  711SOL     OW 2131   3.050   2.352   0.469  0.2124  0.2626 -0.1727
  711SOL    HW1 2132   0.064   2.387   0.470 -2.2902  0.1179  1.0064
  711SOL    HW2 2133   2.992   2.417   0.416 -1.9523 -2.1239 -2.3316
  712SOL     OW 2134   0.334   2.760   2.594  0.4271 -0.9692  0.4183
  712SOL    HW1 2135   0.415   2.818   2.620  0.1390  2.9390 -0.0032
  712SOL    HW2 2136   0.364   2.662   2.610  1.7047 -0.0549  0.3843
  713SOL     OW 2137   2.011   0.546   0.301 -0.4476 -0.4449 -0.3479
  713SOL    HW1 2138   1.991   0.463   0.251  1.5083  1.8216  1.6506
  713SOL    HW2 2139   1.936   0.612   0.278  0.1414  3.0767 -0.1505
  714SOL     OW 2140   1.506   1.985   0.461  0.0822  0.1646  0.1479
  714SOL    HW1 2141   1.445   2.063   0.484  0.8946 -0.2391 -0.1228
  714SOL    HW2 2142   1.579   1.975   0.536  0.1271 -0.0697  0.4806
  715SOL     OW 2143   0.030   0.376   0.223 -0.4532  0.5003 -0.0008
  715SOL    HW1 2144   3.024   0.429   0.213 -0.9377  1.4844  0.0245
  715SOL    HW2 2145   0.114   0.434   0.203  1.1747 -0.0276 -1.8771
  716SOL     OW 2146   0.945   2.922   2.011  0.2110  0.7238  0.4291
  716SOL    HW1 2147   1.028   2.893   1.962 -2.1676  0.5351 -1.2287
  716SOL    HW2 2148   0.913   2.851   2.080  1.3450 -0.6784  1.8078
  717SOL     OW 2149   0.404   0.356   2.923  0.4694  0.0867  0.3315
  717SOL    HW1 2150   0.460   0.416   2.861  1.1509  2.7663  0.8147
  717SOL    HW2 2151   0.345   0.294   2.862 -2.9532 -1.5151 -3.2989
  718SOL     OW 2152   1.084   0.637   0.621 -0.0228 -0.2144 -0.1825
  718SOL    HW1 2153   1.087   0.738   0.597  1.5113  3.7589  0.0302
  718SOL    HW2 2154   1.115   0.578   0.548 -0.8600  0.9731  1.2805
  719SOL     OW 2155   2.289   2.173   2.728 -0.2805 -0.0637  0.0668
  719SOL    HW1 2156   2.350   2.114   2.672 -0.7226  0.1225  0.4935
  719SOL    HW2 2157   2.303   2.271   2.711  0.8589 -2.6896  4.2210
  720SOL     OW 2158   1.540   1.042   1.950  0.1729 -0.7187 -0.1671
  720SOL    HW1 2159   1.617   1.005   1.892 -2.2445  0.7603 -2.6318
  720SOL    HW2 2160   1.543   0.999   2.044  0.0325  0.6402 -3.1356
  721SOL     OW 2161   2.991   2.792   1.278 -0.4891 -0.1362  0.0020
  721SOL    HW1 2162   2.948   2.773   1.365  3.3393  1.8620 -0.1795
  721SOL    HW2 2163   2.970   2.881   1.236 -0.6025 -2.1432 -0.0070
  722SOL     OW 2164   1.132   1.945   2.329 -0.0084 -0.1534 -0.2827
  722SOL    HW1 2165   1.200   2.021   2.356  2.3517 -1.6429  0.3664
  722SOL    HW2 2166   1.174   1.852   2.349  0.8789 -0.1263  0.0731
  723SOL     OW 2167   1.416   0.391   0.591 -0.2059  0.5726 -0.1709
  723SOL    HW1 2168   1.404   0.464   0.658  0.1300  0.9703 -0.1555
  723SOL    HW2 2169   1.498   0.333   0.617  2.9894 -1.4642  0.9630
  724SOL     OW 2170   0.578   1.950   2.705 -0.4535 -0.3309 -0.1531
  724SOL    HW1 2171   0.565   1.848   2.704 -1.0576  1.8191  0.4772
  724SOL    HW2 2172   0.628   1.976   2.790 -0.4105 -0.3026 -0.0401
  725SOL     OW 2173   3.030   0.617   1.240  0.3744  0.2668 -0.0804
  725SOL    HW1 2174   2.935   0.641   1.242  3.1912 -1.9646 -0.3986
  725SOL    HW2 2175   3.058   0.565   1.158 -0.5715  1.4332  0.2413
  726SOL     OW 2176   1.992   0.122   0.685 -0.5258 -0.1681  0.5960
  726SOL    HW1 2177   1.937   0.103   0.600 -0.9558  1.2188  0.5846
  726SOL    HW2 2178   1.992   0.054   0.759 -0.3561  0.1857 -0.0706
  727SOL     OW 2179   1.968   1.100   2.092  0.6983 -0.0813  0.0664
  727SOL    HW1 2180   1.889   1.160   2.115  0.2209 -1.2748  0.6046
  727SOL    HW2 2181   2.021   1.080   2.178  0.7204  1.7687  3.1671
  728SOL     OW 2182   1.498   2.666   1.473 -0.1382 -0.3984  0.2942
  728SOL    HW1 2183   1.495   2.761   1.441 -3.0089 -1.1905 -0.3760
  728SOL    HW2 2184   1.475   2.599   1.398  1.9334  2.1173 -2.8596
  729SOL     OW 2185   1.759   0.348   2.128 -0.1575 -0.1159  0.1760
  729SOL    HW1 2186   1.787   0.442   2.114 -0.0915 -2.2356 -1.7785
  729SOL    HW2 2187   1.736   0.306   2.038 -3.1468 -2.0398 -0.3135
  730SOL     OW 2188   0.539   1.040   1.222 -0.2708 -0.3447  0.0792
  730SOL    HW1 2189   0.554   0.939   1.233 -2.8151  2.8719 -0.7161
  730SOL    HW2 2190   0.465   1.068   1.288 -0.7855  1.0595  0.9200
  731SOL     OW 2191   0.726   0.087   0.030 -0.0818 -0.4323  0.6625
  731SOL    HW1 2192   0.774   0.169   0.071 -0.4488 -2.4553  1.7644
  731SOL    HW2 2193   0.625   0.095   0.034 -0.5397 -3.2756  0.5028
  732SOL     OW 2194   0.566   0.938   0.412 -0.0838  0.4197 -0.8332
  732SOL    HW1 2195   0.562   0.928   0.516 -0.1373 -0.1625  0.2090
  732SOL    HW2 2196   0.548   1.031   0.386 -1.3520 -3.1371  3.6703
  733SOL     OW 2197   1.356   1.472   1.924  0.3662 -0.2214 -0.3505
  733SOL    HW1 2198   1.303   1.521   2.002 -0.2794  2.7649  4.4621
  733SOL    HW2 2199   1.315   1.492   1.833  2.3586  0.6824  2.5346
  734SOL     OW 2200   0.133   2.380   2.147  0.0203 -0.1825 -0.0444
  734SOL    HW1 2201   0.160   2.393   2.052  1.9893 -1.1138  1.7516
  734SOL    HW2 2202   0.033   2.393   2.163 -1.5279  0.1940  1.3180
  735SOL     OW 2203   1.476   0.254   0.994  0.1921  0.3879 -0.5064
  735SOL    HW1 2204   1.491   0.182   1.066  2.2026 -0.5773  1.2602
  735SOL    HW2 2205   1.380   0.296   1.010 -0.2522  1.7209  1.1698
  736SOL     OW 2206   0.890   1.248   0.030 -0.2528 -0.3163 -0.1590
  736SOL    HW1 2207   0.860   1.212   0.124  0.3040 -0.7692  0.4487
  736SOL    HW2 2208   0.975   1.308   0.036 -0.1573 -0.1744 -3.0806
  737SOL     OW 2209   0.090   0.664   0.766  0.4457  0.3164 -0.4647
  737SOL    HW1 2210   0.148   0.678   0.683 -0.1971 -1.4165  0.5833
  737SOL    HW2 2211   3.075   0.638   0.748  1.4929  2.2640  2.6828
  738SOL     OW 2212   0.647   2.480   1.610  0.4107 -0.1186 -0.5535
  738SOL    HW1 2213   0.605   2.521   1.527  0.0770 -1.9707  1.5400
  738SOL    HW2 2214   0.619   2.384   1.614 -2.5085 -1.1974  0.0164
  739SOL     OW 2215   1.454   2.641   0.019  0.2532 -0.5640 -0.5176
  739SOL    HW1 2216   1.412   2.615   0.107  1.6221 -0.2333 -2.2737
  739SOL    HW2 2217   1.540   2.697   0.033  2.5659 -2.0648  0.6552
  740SOL     OW 2218   1.814   2.723   1.303 -0.7215  0.2086  0.4223
  740SOL    HW1 2219   1.847   2.722   1.398 -0.1262 -0.8590  0.3131
  740SOL    HW2 2220   1.755   2.641   1.285 -0.9531  0.1383  2.3341
  741SOL     OW 2221   2.177   0.406   0.863 -0.3027 -0.0289 -0.1176
  741SOL    HW1 2222   2.229   0.462   0.793  2.4980  0.9214 -0.7564
  741SOL    HW2 2223   2.236   0.348   0.919 -0.2709  0.1767  1.0991
  742SOL     OW 2224   1.308   2.394   2.416 -0.1896 -0.3158 -0.2323
  742SOL    HW1 2225   1.284   2.480   2.365  0.5554  0.2833 -1.7963
  742SOL    HW2 2226   1.245   2.369   2.490 -0.0226  0.8391  1.5710
  743SOL     OW 2227   2.270   0.805   1.931 -0.0278 -0.1211 -0.4853
  743SOL    HW1 2228   2.204   0.781   1.857  1.6628  3.0986 -0.8451
  743SOL    HW2 2229   2.336   0.728   1.943 -3.0978  0.6536 -1.3631
  744SOL     OW 2230   2.132   0.641   1.013 -0.1893  0.5320  0.0676
  744SOL    HW1 2231   2.177   0.727   0.982 -0.2535  1.7064  1.9927
  744SOL    HW2 2232   2.139   0.558   0.950  2.1663 -2.4602 -0.6898
  745SOL     OW 2233   2.348   1.064   1.919 -0.1150 -0.0363  1.1877
  745SOL    HW1 2234   2.397   1.073   1.831 -1.7292 -0.4069 -2.0685
  745SOL    HW2 2235   2.321   0.967   1.931 -0.8122  2.1148  1.7487
  746SOL     OW 2236   1.287   1.580   0.572 -0.1923 -1.0023 -0.4706
  746SOL    HW1 2237   1.363   1.614   0.513 -1.4826 -1.7095  0.7632
  746SOL    HW2 2238   1.216   1.654   0.587 -2.6764 -0.5173 -2.1883
  747SOL     OW 2239   1.841   1.830   0.955  0.0654 -0.5021  0.1186
  747SOL    HW1 2240   1.753   1.772   0.954 -2.0771 -2.8519 -0.9347
  747SOL    HW2 2241   1.879   1.834   0.861 -0.2284  1.9883 -0.9536
  748SOL     OW 2242   0.244   2.799   0.363  0.2130  0.2517 -0.1520
  748SOL    HW1 2243   0.263   2.793   0.461 -2.4405 -2.2399 -1.7711
  748SOL    HW2 2244   0.326   2.811   0.305 -1.5344 -0.7081  0.7083
  749SOL     OW 2245   0.264   0.908   2.403  0.5979 -0.1483  0.1967
  749SOL    HW1 2246   0.268   0.916   2.299 -1.0334 -1.3733 -0.1528
  749SOL    HW2 2247   0.199   0.974   2.445 -0.1757  1.7540  1.0358
  750SOL     OW 2248   1.451   2.901   1.859  0.2405  0.2876 -0.1591
  750SOL    HW1 2249   1.355   2.875   1.889 -0.5265  0.3630 -0.2612
  750SOL    HW2 2250   1.501   2.924   1.945 -1.2759 -1.5079 -0.3004
  751SOL     OW 2251   2.714   0.562   0.218  0.0478  0.0993 -0.2719
  751SOL    HW1 2252   2.747   0.586   0.311 -3.0646  3.0589 -2.0831
  751SOL    HW2 2253   2.626   0.512   0.223 -0.9742 -1.8993  0.2193
  752SOL     OW 2254   0.110   2.166   0.727  0.2593 -0.0056  0.0427
  752SOL    HW1 2255   0.104   2.115   0.634 -0.9259  1.5757 -1.7660
  752SOL    HW2 2256   0.029   2.229   0.733 -1.7746  1.5932  0.8138
  753SOL     OW 2257   0.998   0.250   0.883  0.0684  0.3953  0.9632
  753SOL    HW1 2258   1.018   0.192   0.801  1.1502  2.7317  3.7199
  753SOL    HW2 2259   0.908   0.302   0.879 -0.8718  0.1908 -0.0039
  754SOL     OW 2260   0.656   0.060   2.217 -0.2205 -0.0410  0.1406
  754SOL    HW1 2261   0.567   0.094   2.241  2.2727 -0.1320  1.6455
  754SOL    HW2 2262   0.662   3.040   2.220 -1.1975 -0.0165  0.2179
  755SOL     OW 2263   1.933   0.901   2.960 -0.4329  0.2817 -0.0717
  755SOL    HW1 2264   1.845   0.952   2.979  0.7619 -0.9881 -2.1705
  755SOL    HW2 2265   2.000   0.942   3.020 -0.8662 -1.8402 -2.6796
  756SOL     OW 2266   2.377   2.139   2.296 -0.1687  0.1575 -0.6063
  756SOL    HW1 2267   2.471   2.137   2.341  4.9185  0.9078  2.1578
  756SOL    HW2 2268   2.365   2.068   2.222  0.8999  1.8532  0.9721
  757SOL     OW 2269   1.653   0.578   0.809 -0.2613  0.4565 -0.1187
  757SOL    HW1 2270   1.551   0.582   0.800  1.4257 -1.1197 -1.5001
  757SOL    HW2 2271   1.683   0.503   0.878 -0.9295 -0.6238  2.7595
  758SOL     OW 2272   1.701   0.421   1.010  0.6641 -0.1692  0.8033
  758SOL    HW1 2273   1.610   0.374   1.027  0.3287 -0.6305  1.7478
  758SOL    HW2 2274   1.709   0.509   1.057  0.6235 -0.0963 -3.0356
  759SOL     OW 2275   2.720   0.512   1.129  0.4750 -0.2975 -0.8764
  759SOL    HW1 2276   2.675   0.441   1.190 -1.4561 -1.7505 -2.5787
  759SOL    HW2 2277   2.774   0.473   1.054  0.9290 -2.0328  0.7962
  760SOL     OW 2278   2.408   1.116   1.276 -0.4122  0.0305  0.2657
  760SOL    HW1 2279   2.463   1.121   1.187  0.6047  1.4707 -0.9405
  760SOL    HW2 2280   2.363   1.025   1.287  0.3873 -1.1394 -0.7859
  761SOL     OW 2281   0.263   0.479   0.229 -0.1431 -0.0622 -0.1281
  761SOL    HW1 2282   0.309   0.530   0.152  1.5285  0.1838 -3.4270
  761SOL    HW2 2283   0.277   0.537   0.312 -1.7042  0.6951  1.3764
  762SOL     OW 2284   1.625   1.955   1.259  0.0127  0.5618  0.4256
  762SOL    HW1 2285   1.621   1.877   1.327 -1.6596 -2.3709  1.2086
  762SOL    HW2 2286   1.564   1.936   1.178 -2.4060 -1.7219  0.8491
  763SOL     OW 2287   1.017   1.418   2.061  0.1813 -0.6354  0.3786
  763SOL    HW1 2288   1.080   1.498   2.078  3.0305 -0.2759 -0.9477
  763SOL    HW2 2289   0.985   1.419   1.967 -1.2392  1.4808  1.8685
  764SOL     OW 2290   0.017   1.823   2.586  0.2516 -0.2741  0.2654
  764SOL    HW1 2291   3.009   1.793   2.539 -1.2438  0.5810 -0.9519
  764SOL    HW2 2292   3.078   1.887   2.662 -0.6961 -2.0364  0.5960
  765SOL     OW 2293   1.332   2.656   1.031 -0.1237  0.0395 -0.5105
  765SOL    HW1 2294   1.429   2.634   1.036 -4.5759 -0.6189 -0.5062
  765SOL    HW2 2295   1.317   2.754   1.061 -1.1067  1.0311 -2.0092
  766SOL     OW 2296   0.014   2.518   2.473  0.0060  0.5426 -0.2397
  766SOL    HW1 2297   3.072   2.581   2.548  0.8239  0.5149 -0.2548
  766SOL    HW2 2298   3.070   2.422   2.503  1.9639  0.0487  0.9686
  767SOL     OW 2299   1.204   0.858   2.231  0.2114  0.0949 -0.2672
  767SOL    HW1 2300   1.254   0.940   2.270  1.3954 -0.3132  2.2303
  767SOL    HW2 2301   1.255   0.769   2.245  3.0628 -2.2164  2.4888
  768SOL     OW 2302   1.106   2.099   2.886 -0.0550 -0.1282 -0.3472
  768SOL    HW1 2303   1.186   2.161   2.892 -0.7603  1.1560 -0.9116
  768SOL    HW2 2304   1.094   2.062   2.792  1.3421  1.1359 -2.3042
  769SOL     OW 2305   0.441   2.178   1.123  0.4354  0.2673 -0.1600
  769SOL    HW1 2306   0.445   2.075   1.139  0.0340 -4.8247  2.2301
  769SOL    HW2 2307   0.528   2.223   1.153  0.9799  0.3091 -1.5356
  770SOL     OW 2308   1.648   0.666   2.875 -0.0744 -0.5475  0.0876
  770SOL    HW1 2309   1.646   0.617   2.962 -0.5785 -0.9570 -3.0393
  770SOL    HW2 2310   1.644   0.766   2.892  1.6116 -0.3435 -1.2614
  771SOL     OW 2311   0.147   0.070   2.199 -0.1886 -0.1438  0.8327
  771SOL    HW1 2312   0.111   3.054   2.192 -1.5986 -0.1173 -0.0609
  771SOL    HW2 2313   0.118   0.134   2.119  0.2587  1.9505 -1.1120
  772SOL     OW 2314   1.969   2.633   1.956 -0.3633  0.4209 -0.8363
  772SOL    HW1 2315   2.015   2.553   2.000  0.8950 -2.8337  0.1201
  772SOL    HW2 2316   2.041   2.703   1.943  0.5001  0.0922  0.7721
  773SOL     OW 2317   0.900   1.937   1.575 -0.1023  0.2442  0.4312
  773SOL    HW1 2318   0.923   1.940   1.473  1.9728  0.0784 -2.7679
  773SOL    HW2 2319   0.911   2.031   1.621 -3.8058  1.5804 -0.1711
  774SOL     OW 2320   1.128   0.050   1.808  0.2776  0.4678  0.0726
  774SOL    HW1 2321   1.183   0.102   1.878 -0.4336 -1.3007  0.6298
  774SOL    HW2 2322   1.042   0.104   1.796 -0.9627 -2.1477 -0.1250
  775SOL     OW 2323   2.217   2.885   2.978  0.2569 -1.0183  0.2191
  775SOL    HW1 2324   2.133   2.852   2.933  2.5434  2.2483  2.1864
  775SOL    HW2 2325   2.286   2.820   2.946 -3.7591  2.4644  0.4559
  776SOL     OW 2326   2.921   0.876   2.317 -0.1456 -0.2448 -0.3692
  776SOL    HW1 2327   2.832   0.847   2.364 -1.5923 -0.1210  1.7360
  776SOL    HW2 2328   2.934   0.979   2.320 -1.8692 -0.6935  0.7186
  777SOL     OW 2329   2.365   2.153   1.964 -0.4780  0.0266  0.1570
  777SOL    HW1 2330   2.276   2.126   2.007  0.9392 -0.1601 -0.4740
  777SOL    HW2 2331   2.362   2.247   1.928 -0.9824 -1.0988  1.9475
  778SOL     OW 2332   1.856   0.896   2.286  0.6296 -0.1539  0.2308
  778SOL    HW1 2333   1.872   0.813   2.348 -0.7491 -1.7503 -0.4609
  778SOL    HW2 2334   1.859   0.865   2.191  1.6861 -0.1338 -0.4974
  779SOL     OW 2335   2.685   0.285   0.472 -0.2883 -0.4385 -0.2406
  779SOL    HW1 2336   2.627   0.229   0.538 -1.1092  0.9450  1.2130
  779SOL    HW2 2337   2.623   0.324   0.402  0.7455  1.0511  1.0491
  780SOL     OW 2338   2.504   0.394   0.291 -0.4091  0.3524  0.2190
  780SOL    HW1 2339   2.483   0.326   0.218 -1.3397 -1.3216 -1.1367
  780SOL    HW2 2340   2.422   0.445   0.316  2.9535 -1.6750 -0.9191
  781SOL     OW 2341   0.263   2.512   1.414  0.0211 -0.4524 -0.2413
  781SOL    HW1 2342   0.218   2.438   1.354 -0.1584 -0.2548  0.9911
  781SOL    HW2 2343   0.234   2.602   1.386 -0.5231 -3.3746  1.4042
  782SOL     OW 2344   2.130   2.370   0.049  0.1548  0.3653 -0.6520
  782SOL    HW1 2345   2.124   2.400   0.145 -0.1024 -0.2087  3.9867
  782SOL    HW2 2346   2.226   2.374   0.016  0.4679  1.8543 -1.5081
  783SOL     OW 2347   0.796   1.143   1.286 -0.9300  0.0267  0.1442
  783SOL    HW1 2348   0.703   1.123   1.255  1.6191 -0.6471 -0.5960
  783SOL    HW2 2349   0.805   1.158   1.385  0.4062  1.9836  0.3524
  784SOL     OW 2350   1.415   0.480   2.618  0.0493  0.9348 -0.1476
  784SOL    HW1 2351   1.310   0.478   2.605 -0.8024  0.8081 -0.0175
  784SOL    HW2 2352   1.456   0.507   2.529 -2.5160 -0.8944  1.1364
  785SOL     OW 2353   2.427   0.355   0.994  0.4848 -0.5468  0.0480
  785SOL    HW1 2354   2.478   0.263   1.007  0.0384 -3.2217  0.8925
  785SOL    HW2 2355   2.383   0.391   1.078  0.4112 -0.6905  3.2177
  786SOL     OW 2356   1.313   2.403   1.868  0.3909  0.2355  0.0982
  786SOL    HW1 2357   1.349   2.475   1.809  0.4564  0.9279  1.7506
  786SOL    HW2 2358   1.372   2.319   1.859 -2.4720 -1.1974  1.3767
  787SOL     OW 2359   1.864   0.408   1.296  0.4147 -0.7713  0.0881
  787SOL    HW1 2360   1.792   0.475   1.276  0.0285  0.8134  0.6733
  787SOL    HW2 2361   1.895   0.360   1.213  1.9017  1.8891  3.3566
  788SOL     OW 2362   0.290   0.791   0.612 -0.3256  0.3735  0.1132
  788SOL    HW1 2363   0.375   0.812   0.655 -2.1709 -0.2137 -0.7465
  788SOL    HW2 2364   0.244   0.875   0.581  0.1791 -2.3755 -0.3196
  789SOL     OW 2365   0.415   1.968   1.504 -0.3568 -0.9361 -0.2259
  789SOL    HW1 2366   0.343   2.034   1.477 -0.5331 -1.4808  0.5351
  789SOL    HW2 2367   0.379   1.911   1.578  2.1444  0.0167 -0.9683
  790SOL     OW 2368   0.826   0.635   2.377 -0.0477  0.4676 -0.7637
  790SOL    HW1 2369   0.753   0.697   2.340 -0.4474  0.1476 -0.1864
  790SOL    HW2 2370   0.895   0.611   2.305  2.1258  0.6645  2.9422
  791SOL     OW 2371   1.883   0.743   0.891  0.2932 -0.0959 -0.2417
  791SOL    HW1 2372   1.798   0.694   0.857 -0.0241 -0.9615 -1.3372
  791SOL    HW2 2373   1.950   0.680   0.929 -0.2477  2.1933 -4.1363
  792SOL     OW 2374   1.072   2.547   2.199 -0.0369 -0.4970  0.0904
  792SOL    HW1 2375   1.101   2.554   2.099  0.3130 -1.9573  0.6400
  792SOL    HW2 2376   1.038   2.453   2.209  4.0267 -2.6889  1.0402
  793SOL     OW 2377   0.777   0.432   0.335 -0.1533  0.1484  0.4535
  793SOL    HW1 2378   0.741   0.482   0.418 -0.9169  0.8616  0.4951
  793SOL    HW2 2379   0.754   0.332   0.339  0.7600 -1.9642  1.6293
  794SOL     OW 2380   0.768   1.005   1.955 -0.6052 -0.1058  0.3988
  794SOL    HW1 2381   0.689   1.027   2.018  0.5057 -1.9164  3.8329
  794SOL    HW2 2382   0.855   1.040   1.996 -0.3524  2.5636 -1.4897
  795SOL     OW 2383   0.292   2.047   2.409 -0.3453  0.1449 -0.1122
  795SOL    HW1 2384   0.204   2.073   2.365 -0.3426  3.8654  0.4281
  795SOL    HW2 2385   0.360   2.120   2.398  2.9060 -0.6144  1.7275
  796SOL     OW 2386   2.372   0.720   2.327  0.1671 -0.1789  0.2322
  796SOL    HW1 2387   2.368   0.740   2.428 -0.8776 -1.3052 -0.1880
  796SOL    HW2 2388   2.285   0.748   2.281  1.5649 -0.7770  1.4589
  797SOL     OW 2389   2.813   2.294   2.654 -0.0747  0.0206 -0.3605
  797SOL    HW1 2390   2.727   2.300   2.596  0.8258 -0.1749  1.2068
  797SOL    HW2 2391   2.783   2.336   2.738  1.0127 -1.4719 -2.0021
  798SOL     OW 2392   0.075   2.873   2.146 -0.1927  0.3596  0.1378
  798SOL    HW1 2393   3.063   2.844   2.113 -0.1573 -2.1950  2.8404
  798SOL    HW2 2394   0.147   2.808   2.117 -0.9834 -1.8762  1.6841
  799SOL     OW 2395   0.269   2.512   2.353  0.7455 -0.1257 -0.5675
  799SOL    HW1 2396   0.190   2.540   2.411 -0.1989 -1.1061  2.1481
  799SOL    HW2 2397   0.234   2.454   2.278  2.4870  2.5013  0.0073
  800SOL     OW 2398   0.203   2.163   0.283 -0.2148  0.2957  0.0727
  800SOL    HW1 2399   0.167   2.251   0.238 -3.6990  2.3398 -2.0378
  800SOL    HW2 2400   0.303   2.149   0.264 -0.9684  0.4844 -1.8593
  801SOL     OW 2401   1.680   1.474   0.925  0.0790 -0.3175 -0.1777
  801SOL    HW1 2402   1.618   1.549   0.902 -2.6285 -3.5781 -1.1175
  801SOL    HW2 2403   1.771   1.486   0.877 -1.0364  3.8847 -2.0706
  802SOL     OW 2404   0.026   1.182   0.658  0.2701  0.0248 -0.0723
  802SOL    HW1 2405   3.010   1.171   0.636  1.4429 -0.3438  2.1330
  802SOL    HW2 2406   0.050   1.154   0.757  3.3956 -1.1648  2.0683
  803SOL     OW 2407   1.202   1.622   2.091 -0.0448  0.1273  0.4875
  803SOL    HW1 2408   1.158   1.695   2.032  0.5965  1.5237  1.3993
  803SOL    HW2 2409   1.214   1.649   2.187  1.6757 -1.7557 -0.6440
  804SOL     OW 2410   1.749   1.618   0.389 -0.0334  0.0206 -0.1947
  804SOL    HW1 2411   1.782   1.645   0.293  1.9295 -1.0388  1.4669
  804SOL    HW2 2412   1.824   1.632   0.457 -3.4472 -0.4174 -2.4661
  805SOL     OW 2413   2.543   1.275   0.017  0.3256  0.5588 -0.0028
  805SOL    HW1 2414   2.504   1.314   3.010 -0.9050  1.5052 -0.8378
  805SOL    HW2 2415   2.556   1.172   0.009  0.2357 -3.1992  2.1812
  806SOL     OW 2416   0.760   2.731   0.378 -0.2067 -0.1491 -0.4940
  806SOL    HW1 2417   0.863   2.752   0.386 -1.2913  0.8892 -1.7125
  806SOL    HW2 2418   0.714   2.794   0.315  1.4661 -1.5556  3.2448
  807SOL     OW 2419   2.356   1.594   2.434  0.1911  0.0181  0.6186
  807SOL    HW1 2420   2.318   1.689   2.443  0.0523  3.1879  0.7187
  807SOL    HW2 2421   2.276   1.529   2.422 -0.2553 -0.5393  1.9943
  808SOL     OW 2422   1.006   1.637   1.033  0.1528 -0.0640 -0.1282
  808SOL    HW1 2423   1.056   1.550   1.015  1.4638  2.1037  0.2673
  808SOL    HW2 2424   1.039   1.682   1.119  0.0839 -0.7912  1.2362
  809SOL     OW 2425   2.923   0.648   0.703 -0.4875  0.6525 -0.2735
  809SOL    HW1 2426   2.841   0.613   0.757  0.0591 -0.6649 -0.6356
  809SOL    HW2 2427   2.902   0.639   0.606  0.4716 -0.4126  1.0883
  810SOL     OW 2428   0.584   1.417   0.647  0.2177 -0.3829  0.3895
  810SOL    HW1 2429   0.577   1.490   0.715 -1.6143 -0.5444 -1.3924
  810SOL    HW2 2430   0.592   1.452   0.550  1.9162  0.4367 -0.8509
  811SOL     OW 2431   1.715   2.500   1.217  0.3344 -0.1484 -0.3181
  811SOL    HW1 2432   1.778   2.422   1.208 -1.1001  1.7388 -0.2383
  811SOL    HW2 2433   1.625   2.471   1.258  1.7030 -1.0102  0.5848
  812SOL     OW 2434   1.180   2.501   1.582 -0.0819 -0.1831 -0.3941
  812SOL    HW1 2435   1.276   2.521   1.605 -0.3604 -1.0150  3.0316
  812SOL    HW2 2436   1.117   2.574   1.614  0.5848 -1.1611 -1.0638
  813SOL     OW 2437   0.663   2.892   1.498 -0.1580  0.2209 -0.3210
  813SOL    HW1 2438   0.700   2.881   1.595  1.1069  0.6532 -1.1434
  813SOL    HW2 2439   0.665   2.987   1.461 -1.0080  0.6925  0.5958
  814SOL     OW 2440   1.027   2.695   2.461  0.1844  0.5525  0.3222
  814SOL    HW1 2441   1.005   2.614   2.402  0.0649 -0.9563  1.4453
  814SOL    HW2 2442   0.958   2.680   2.538 -3.6415 -0.2292  1.8256
  815SOL     OW 2443   0.739   0.196   2.597  0.2150  0.2201 -0.1293
  815SOL    HW1 2444   0.724   0.107   2.553 -1.4297  1.9640 -1.9381
  815SOL    HW2 2445   0.682   0.274   2.556  0.4474  0.7344  0.1687
  816SOL     OW 2446   2.210   0.383   0.082 -0.5008 -0.0022  0.1233
  816SOL    HW1 2447   2.111   0.356   0.090  0.1133 -0.2402 -0.4476
  816SOL    HW2 2448   2.236   0.457   0.151  1.1299  3.4081  1.0468
  817SOL     OW 2449   2.160   2.851   1.896 -0.5509  0.7406  0.1165
  817SOL    HW1 2450   2.247   2.873   1.939  0.7161 -0.0536 -3.5521
  817SOL    HW2 2451   2.108   2.931   1.857  0.7847 -0.3111 -1.7424
  818SOL     OW 2452   1.143   0.754   0.267 -0.5748  0.5524  0.2776
  818SOL    HW1 2453   1.202   0.750   0.181  0.3280 -0.7852 -1.9600
  818SOL    HW2 2454   1.105   0.661   0.287 -0.5620 -0.9553  2.9090
  819SOL     OW 2455   1.611   1.723   2.483 -0.2863  0.1185  0.6772
  819SOL    HW1 2456   1.535   1.659   2.488  1.2659  4.5236 -0.2754
  819SOL    HW2 2457   1.671   1.702   2.403 -0.0458 -1.6509 -0.1285
  820SOL     OW 2458   0.131   1.736   0.081 -0.1080  0.5479 -0.0370
  820SOL    HW1 2459   0.160   1.732   3.062 -0.3965  0.3836  0.8789
  820SOL    HW2 2460   0.136   1.642   0.122 -0.0836 -0.0164 -1.3187
  821SOL     OW 2461   0.107   2.958   0.663  0.5305 -0.1050 -0.4104
  821SOL    HW1 2462   0.193   3.013   0.661 -1.1467 -1.7224 -1.5154
  821SOL    HW2 2463   0.109   2.884   0.736 -0.0403  0.1396  0.1164
  822SOL     OW 2464   2.267   2.447   2.701 -0.8209 -0.0854 -0.1718
  822SOL    HW1 2465   2.210   2.473   2.614 -2.4148 -1.1778 -1.3099
  822SOL    HW2 2466   2.316   2.530   2.748 -0.0811 -2.1674  0.9689
  823SOL     OW 2467   1.275   3.057   2.200 -0.6206 -0.0487 -0.1145
  823SOL    HW1 2468   1.371   3.077   2.232 -0.1107  2.7227 -1.5035
  823SOL    HW2 2469   1.245   2.960   2.220 -1.5964 -3.4299 -0.4239
  824SOL     OW 2470   2.839   2.267   2.166 -0.5797  0.3379 -0.5117
  824SOL    HW1 2471   2.882   2.357   2.182 -0.0142  0.6446 -1.5542
  824SOL    HW2 2472   2.843   2.218   2.257 -1.8605  0.4975  0.9290
  825SOL     OW 2473   2.974   2.108   2.365 -0.4501  0.6009 -0.1553
  825SOL    HW1 2474   2.909   2.032   2.341  1.3146 -2.1283 -2.2099
  825SOL    HW2 2475   3.064   2.102   2.317  1.0523  0.5362  1.9203
  826SOL     OW 2476   2.369   0.784   2.589 -0.0737 -0.2166  0.1898
  826SOL    HW1 2477   2.377   0.730   2.672  1.6980  0.4703  0.6331
  826SOL    HW2 2478   2.268   0.813   2.572 -0.7354 -1.5907 -0.8738
  827SOL     OW 2479   2.596   2.198   1.443 -0.0290 -0.7410 -0.0809
  827SOL    HW1 2480   2.584   2.163   1.541 -0.8733 -1.1940  4.3999
  827SOL    HW2 2481   2.504   2.182   1.403 -1.1409  1.1348 -2.2904
  828SOL     OW 2482   2.955   0.073   1.840 -0.0292  0.0679 -0.6821
  828SOL    HW1 2483   3.035   0.010   1.813 -0.6515 -0.4981 -1.1993
  828SOL    HW2 2484   2.941   0.146   1.768 -1.6669  1.5536 -0.5083
  829SOL     OW 2485   0.909   2.231   2.688 -0.0423 -0.2030 -0.6352
  829SOL    HW1 2486   0.926   2.131   2.698 -1.4224 -0.5928  1.3975
  829SOL    HW2 2487   0.860   2.273   2.770 -0.6281  0.8108  1.9730
  830SOL     OW 2488   0.914   0.898   1.189  0.1625 -0.1107 -0.6339
  830SOL    HW1 2489   0.860   0.815   1.158 -1.7274 -2.5126  2.5317
  830SOL    HW2 2490   0.856   0.976   1.224  0.5991  1.6736  0.0773
  831SOL     OW 2491   2.922   1.733   2.916 -0.8590  0.0899  0.4408
  831SOL    HW1 2492   2.855   1.729   2.995  0.4106 -0.0387 -0.6673
  831SOL    HW2 2493   2.984   1.649   2.922  1.3331 -1.6960  0.3869
  832SOL     OW 2494   1.658   2.309   2.154  0.1136 -0.2540 -0.4043
  832SOL    HW1 2495   1.725   2.241   2.118  0.4207  2.0631 -1.4260
  832SOL    HW2 2496   1.701   2.401   2.167  2.0650  0.8360 -1.4358
  833SOL     OW 2497   0.882   0.190   1.811  0.1341  0.0494  0.6169
  833SOL    HW1 2498   0.833   0.280   1.814 -0.7430  2.2339  0.2767
  833SOL    HW2 2499   0.885   0.147   1.902 -0.7030  0.5701 -1.5710
  834SOL     OW 2500   0.002   0.116   1.308  0.0469 -0.4600  0.3391
  834SOL    HW1 2501   3.018   0.192   1.326 -0.3014 -0.6635 -1.2051
  834SOL    HW2 2502   0.092   0.158   1.286  1.9516  1.3455 -0.2555
  835SOL     OW 2503   2.637   0.750   0.024 -0.1395 -0.5928 -0.3044
  835SOL    HW1 2504   2.683   0.697   0.095  0.3878  1.4186 -3.4135
  835SOL    HW2 2505   2.662   0.718   3.011  0.2908 -2.1778  0.5996
  836SOL     OW 2506   1.294   2.037   0.215  0.2631 -0.5227  0.2813
  836SOL    HW1 2507   1.345   1.956   0.242 -0.1233  0.3323 -0.0048
  836SOL    HW2 2508   1.211   2.015   0.159  2.6144 -1.3703  0.6694
  837SOL     OW 2509   1.950   1.845   0.663  0.7538  0.2984  0.1772
  837SOL    HW1 2510   1.964   1.748   0.636 -3.5983  1.3741 -2.2136
  837SOL    HW2 2511   1.993   1.904   0.589  1.9621 -1.7385  0.2775
  838SOL     OW 2512   1.398   1.033   2.329  0.5789 -0.1700 -0.0306
  838SOL    HW1 2513   1.478   0.995   2.274  2.8730  0.1748 -1.8296
  838SOL    HW2 2514   1.428   1.125   2.368  0.8704  3.1656 -0.8536
  839SOL     OW 2515   0.847   1.446   2.286 -0.3799 -0.1559  0.3372
  839SOL    HW1 2516   0.881   1.362   2.333  0.8827 -0.6005  0.4740
  839SOL    HW2 2517   0.912   1.466   2.211 -1.1089  0.7937 -0.3519
  840SOL     OW 2518   0.904   1.794   0.526 -0.5268  0.2803  0.0529
  840SOL    HW1 2519   0.824   1.767   0.587 -1.5001 -0.7555  0.2192
  840SOL    HW2 2520   0.991   1.804   0.579 -1.2951  0.4709 -2.4442
  841SOL     OW 2521   1.770   2.400   0.453  0.4906 -0.1416  0.2897
  841SOL    HW1 2522   1.791   2.409   0.550 -1.9965  1.8542 -4.9060
  841SOL    HW2 2523   1.722   2.481   0.411 -1.7934  2.7430 -3.5048
  842SOL     OW 2524   0.388   0.583   0.010  0.0833 -0.2892  0.1237
  842SOL    HW1 2525   0.480   0.624   3.080  2.2615  2.8421 -0.2306
  842SOL    HW2 2526   0.393   0.486   3.061  1.0064  2.3037 -1.2849
  843SOL     OW 2527   0.814   0.565   0.662  0.0925  0.5581 -0.2321
  843SOL    HW1 2528   0.741   0.522   0.600 -0.9781 -1.1116 -4.2656
  843SOL    HW2 2529   0.899   0.584   0.613 -1.5352  0.0095  2.1797
  844SOL     OW 2530   2.710   0.053   2.902 -0.2426  0.0567 -0.1993
  844SOL    HW1 2531   2.641   0.039   2.825  1.9160  1.7397  0.5000
  844SOL    HW2 2532   2.728   3.042   2.944  1.3372 -1.4221  1.1789
  845SOL     OW 2533   3.036   2.162   1.587  0.2886 -0.3845  0.8852
  845SOL    HW1 2534   3.060   2.165   1.686  0.2146  0.4109  0.3495
  845SOL    HW2 2535   3.014   2.066   1.558 -1.5387 -1.9811  0.6897
  846SOL     OW 2536   2.536   1.499   2.170  0.3499 -0.0827  0.2663
  846SOL    HW1 2537   2.584   1.527   2.257 -2.2570 -0.7552 -0.1725
  846SOL    HW2 2538   2.585   1.422   2.131 -0.1540  0.4804  1.3808
  847SOL     OW 2539   0.935   0.668   1.930 -1.3684  0.0418 -0.3096
  847SOL    HW1 2540   0.945   0.625   2.027 -0.5664  0.2163  4.9803
  847SOL    HW2 2541   0.839   0.693   1.913 -1.1236  0.7262  0.0264
  848SOL     OW 2542   2.537   2.861   2.812  0.8308 -0.1526 -0.1291
  848SOL    HW1 2543   2.617   2.843   2.875  0.9122  0.1513 -1.3026
  848SOL    HW2 2544   2.525   2.960   2.790  0.3662 -2.2027  0.0858
  849SOL     OW 2545   0.357   2.832   3.019 -0.1445 -0.5157 -0.5308
  849SOL    HW1 2546   0.390   2.916   2.970 -0.9410  3.1976 -1.5407
  849SOL    HW2 2547   0.256   2.812   3.000 -1.9418  0.5498  0.2023
  850SOL     OW 2548   1.296   2.927   1.089  0.0804  1.1565  0.8605
  850SOL    HW1 2549   1.361   2.996   1.120 -2.5990  1.3868  0.3023
  850SOL    HW2 2550   1.269   2.958   0.997 -1.5317 -1.2745  1.7828
  851SOL     OW 2551   2.768   0.473   2.420  0.5562  0.4582  0.4535
  851SOL    HW1 2552   2.739   0.569   2.427  0.5725 -1.9148 -0.7318
  851SOL    HW2 2553   2.795   0.437   2.513  1.9357 -0.0393 -0.5680
  852SOL     OW 2554   1.554   0.575   2.412  0.3234 -0.2927  0.3685
  852SOL    HW1 2555   1.587   0.646   2.474 -1.4181 -1.3620 -1.0858
  852SOL    HW2 2556   1.628   0.535   2.354  0.3451 -0.7259  0.9604
  853SOL     OW 2557   0.023   2.958   0.283 -0.4693 -0.8274 -0.0201
  853SOL    HW1 2558   3.042   3.007   0.347  0.0846  1.1774  1.1926
  853SOL    HW2 2559   0.092   2.901   0.332 -2.0798 -1.7422 -1.6675
  854SOL     OW 2560   2.426   1.138   2.158  0.5471  0.4814 -0.6282
  854SOL    HW1 2561   2.509   1.198   2.144 -1.4722  0.4420  2.2579
  854SOL    HW2 2562   2.404   1.089   2.069  1.9859 -2.4462 -2.5175
  855SOL     OW 2563   0.644   2.513   0.264  0.5444  0.2180  0.1444
  855SOL    HW1 2564   0.685   2.575   0.338 -0.6115 -0.4047 -0.2300
  855SOL    HW2 2565   0.714   2.486   0.192  2.6103 -1.3609 -2.2560
  856SOL     OW 2566   2.933   2.979   2.712  0.2936 -0.4026  0.6525
  856SOL    HW1 2567   2.928   3.054   2.641 -0.9650  1.2978 -1.3978
  856SOL    HW2 2568   2.969   3.014   2.804 -0.5204 -0.0485  0.7058
  857SOL     OW 2569   0.935   2.745   1.414  0.2330  0.2100  0.3416
  857SOL    HW1 2570   0.893   2.837   1.417 -1.9766 -2.0310  1.3978
  857SOL    HW2 2571   0.867   2.684   1.374  2.3382  2.6055 -0.2890
  858SOL     OW 2572   2.549   2.157   1.698 -0.3543 -0.2486 -0.1036
  858SOL    HW1 2573   2.566   2.228   1.766 -1.2222  1.8988  1.5805
  858SOL    HW2 2574   2.461   2.105   1.711 -2.2198  0.7676 -0.6646
  859SOL     OW 2575   1.875   1.923   1.582 -0.5239  0.3783 -0.0906
  859SOL    HW1 2576   1.802   1.875   1.526  1.1984 -0.1297  0.2077
  859SOL    HW2 2577   1.864   1.910   1.681 -0.0051 -0.3799  0.9377
  860SOL     OW 2578   2.315   0.061   0.225  0.0751  0.3932 -0.0889
  860SOL    HW1 2579   2.396   0.020   0.178 -0.3675 -1.4482 -0.9967
  860SOL    HW2 2580   2.333   0.092   0.316  0.2471 -3.7612 -4.2452
  861SOL     OW 2581   2.699   3.007   0.506 -0.8888 -0.1988  0.1860
  861SOL    HW1 2582   2.725   2.974   0.599 -0.8654  2.6074 -2.7749
  861SOL    HW2 2583   2.600   2.997   0.489  1.0626  1.7855  0.9210
  862SOL     OW 2584   1.491   2.740   2.487 -0.5989  0.0354  0.2028
  862SOL    HW1 2585   1.437   2.665   2.533 -2.2383  1.6484 -0.0412
  862SOL    HW2 2586   1.449   2.832   2.498  1.8565  3.1297  2.9656
  863SOL     OW 2587   0.425   0.592   1.211 -0.3591 -0.8065  0.0320
  863SOL    HW1 2588   0.426   0.648   1.127 -0.4716  0.6281 -0.2429
  863SOL    HW2 2589   0.496   0.517   1.201  1.4612 -2.0253 -0.8421
  864SOL     OW 2590   0.081   2.999   1.798  0.6807 -0.6981 -0.5448
  864SOL    HW1 2591   0.155   3.031   1.862  0.8240  3.1514 -1.9098
  864SOL    HW2 2592   0.077   2.899   1.787 -1.1136  2.1832  4.2558
  865SOL     OW 2593   0.525   1.135   0.039 -0.2127 -0.7732 -0.7809
  865SOL    HW1 2594   0.586   1.208   3.075  0.3688  2.0389  1.3896
  865SOL    HW2 2595   0.557   1.049   0.006 -0.7147  4.1105  2.1870
  866SOL     OW 2596   2.936   0.592   0.072 -0.1625 -0.1008 -0.1581
  866SOL    HW1 2597   2.965   0.682   0.112 -2.5639 -3.6733 -0.6438
  866SOL    HW2 2598   2.854   0.556   0.122  1.3269  0.5957 -1.8376
  867SOL     OW 2599   2.761   2.865   2.962 -0.4918 -0.0386 -0.7239
  867SOL    HW1 2600   2.822   2.880   3.041 -0.3796 -0.2705 -0.0997
  867SOL    HW2 2601   2.791   2.774   2.918 -1.4265 -1.0370 -0.1742
  868SOL     OW 2602   1.419   0.619   0.409 -0.0162  0.1217 -0.0279
  868SOL    HW1 2603   1.396   0.533   0.461 -0.7263  1.0346  0.3593
  868SOL    HW2 2604   1.462   0.592   0.322 -3.4011  1.3351 -1.1138
  869SOL     OW 2605   2.436   1.493   0.347 -0.0477 -0.0751  0.0382
  869SOL    HW1 2606   2.346   1.539   0.375 -0.4741  0.4245  0.8044
  869SOL    HW2 2607   2.500   1.490   0.430 -1.4689 -1.5189  2.0258
  870SOL     OW 2608   2.188   1.580   0.444  0.0240  0.0892  0.0109
  870SOL    HW1 2609   2.128   1.497   0.453 -1.3566 -0.8563 -0.5470
  870SOL    HW2 2610   2.139   1.647   0.385 -0.2583 -1.2399  1.8888
  871SOL     OW 2611   1.401   1.478   1.274 -0.4688  0.1169  0.0760
  871SOL    HW1 2612   1.301   1.482   1.281  2.0523 -1.4285 -0.0343
  871SOL    HW2 2613   1.430   1.381   1.291  0.4852 -0.0643  1.6997
  872SOL     OW 2614   1.218   1.551   1.655  0.1549  0.0661 -0.1006
  872SOL    HW1 2615   1.144   1.501   1.610  0.6014 -0.8548 -0.9241
  872SOL    HW2 2616   1.183   1.647   1.680 -1.2278  1.2970 -0.7682
  873SOL     OW 2617   0.589   1.529   2.342 -0.3350  0.1491 -0.9187
  873SOL    HW1 2618   0.557   1.493   2.434 -3.6366  0.1893  2.0656
  873SOL    HW2 2619   0.670   1.469   2.312  0.0036 -1.0608  2.1731
  874SOL     OW 2620   0.710   1.537   1.244 -0.2515 -0.4411 -0.0409
  874SOL    HW1 2621   0.733   1.537   1.147  1.6121 -0.2755  0.4493
  874SOL    HW2 2622   0.632   1.476   1.259  1.6312  0.3665  1.5498
  875SOL     OW 2623   2.265   0.485   1.190 -0.1724 -0.1098 -0.1419
  875SOL    HW1 2624   2.222   0.529   1.106 -2.7156 -1.1134 -1.2530
  875SOL    HW2 2625   2.202   0.492   1.266  0.9379  0.3291  0.8740
  876SOL     OW 2626   1.117   0.796   3.034 -0.1356 -0.2295 -0.2032
  876SOL    HW1 2627   1.038   0.837   0.002 -0.8584  3.8720 -2.5965
  876SOL    HW2 2628   1.190   0.864   3.005  0.8811 -0.3287  0.9224
  877SOL     OW 2629   2.893   0.308   1.312  0.1327 -0.3413 -0.2504
  877SOL    HW1 2630   2.788   0.317   1.317 -0.2759  0.2641  2.3375
  877SOL    HW2 2631   2.931   0.398   1.282  0.4900 -2.0464  2.1883
  878SOL     OW 2632   1.736   2.263   0.104  0.4484  0.0087  0.3994
  878SOL    HW1 2633   1.763   2.359   0.127 -0.6182  4.2187 -0.1885
  878SOL    HW2 2634   1.723   2.255   0.004  1.7397 -3.5067 -0.8014
  879SOL     OW 2635   2.455   1.906   1.507  0.1569  0.2794  0.2532
  879SOL    HW1 2636   2.436   1.958   1.423 -0.0988 -0.9684  1.7979
  879SOL    HW2 2637   2.394   1.935   1.581  0.3623 -3.1481 -2.6334
  880SOL     OW 2638   1.191   2.869   1.327 -0.5661 -0.0631 -0.1591
  880SOL    HW1 2639   1.115   2.800   1.325  1.8611 -0.7953 -2.9754
  880SOL    HW2 2640   1.216   2.900   1.228 -0.4164  1.7681  1.2716
  881SOL     OW 2641   1.115   1.710   0.187 -0.0210 -0.3942 -0.5401
  881SOL    HW1 2642   1.025   1.678   0.225 -3.1843 -3.8403  3.5690
  881SOL    HW2 2643   1.138   1.811   0.191 -0.4925  0.9619  1.4302
  882SOL     OW 2644   2.157   0.810   2.171 -0.2699  0.1623  0.0056
  882SOL    HW1 2645   2.160   0.892   2.225 -1.6969 -2.7457  0.0294
  882SOL    HW2 2646   2.218   0.815   2.084 -1.0178 -2.2820 -3.8552
  883SOL     OW 2647   1.447   0.337   1.844  0.2022 -0.0312 -0.0645
  883SOL    HW1 2648   1.412   0.433   1.849  0.2694  0.8546 -1.0120
  883SOL    HW2 2649   1.377   0.272   1.890 -0.0567 -0.1479  0.8839
  884SOL     OW 2650   2.884   0.221   3.013 -0.5427  0.7612  0.0788
  884SOL    HW1 2651   2.947   0.191   0.008  0.1252 -0.1811  0.2879
  884SOL    HW2 2652   2.822   0.147   2.980 -2.0749 -2.4998  1.3378
  885SOL     OW 2653   0.622   2.014   0.368  0.2273  0.0033 -0.1278
  885SOL    HW1 2654   0.596   1.944   0.435  1.5787 -0.8482  1.0626
  885SOL    HW2 2655   0.676   2.086   0.411  0.8567  2.0185 -1.2588
  886SOL     OW 2656   1.830   1.498   2.732  0.3114 -0.4944 -0.0566
  886SOL    HW1 2657   1.880   1.505   2.642  4.0473  1.0536 -0.8328
  886SOL    HW2 2658   1.799   1.592   2.768 -0.0998  3.1943 -0.2770
  887SOL     OW 2659   1.794   0.486   1.764 -0.5532  0.1590 -0.1972
  887SOL    HW1 2660   1.728   0.564   1.766  1.6204  0.0033 -1.6300
  887SOL    HW2 2661   1.755   0.417   1.832  0.7793  1.7627 -0.5196
  888SOL     OW 2662   2.630   0.705   1.605  0.1771 -0.2766  0.1864
  888SOL    HW1 2663   2.654   0.694   1.704  1.5566 -0.8098  0.0880
  888SOL    HW2 2664   2.702   0.757   1.557 -0.4558 -2.3014  1.0001
  889SOL     OW 2665   2.954   2.685   0.570 -0.3182  0.0200 -0.1671
  889SOL    HW1 2666   2.883   2.614   0.592  2.1522  0.9130 -0.0575
  889SOL    HW2 2667   3.043   2.665   0.609 -1.2400 -0.4194 -0.0933
  890SOL     OW 2668   2.800   2.650   2.839 -0.0881  0.4100  0.0619
  890SOL    HW1 2669   2.776   2.553   2.858 -0.7686 -2.6108  1.3292
  890SOL    HW2 2670   2.879   2.653   2.766  0.9579  0.1294  0.5822
  891SOL     OW 2671   0.786   1.596   2.885 -0.0154 -0.1665 -0.0373
  891SOL    HW1 2672   0.788   1.651   2.970 -2.8020 -1.7066 -0.8375
  891SOL    HW2 2673   0.865   1.623   2.830 -0.9217  2.4832  0.7908
  892SOL     OW 2674   0.354   3.018   0.922  0.1605  0.4788 -0.3232
  892SOL    HW1 2675   0.430   2.997   0.855  1.4493 -0.9431  0.2971
  892SOL    HW2 2676   0.295   2.934   0.939 -1.7060 -2.1854 -0.5806
  893SOL     OW 2677   0.553   2.824   1.164 -0.1765  0.0367 -0.0991
  893SOL    HW1 2678   0.493   2.911   1.164  0.1018  1.7558 -0.3844
  893SOL    HW2 2679   0.652   2.847   1.147  1.2467  1.4434  0.0470
  894SOL     OW 2680   2.909   1.295   0.917  0.0416 -0.5848 -0.5470
  894SOL    HW1 2681   2.869   1.278   0.824  1.2287 -0.3414  0.1630
  894SOL    HW2 2682   3.000   1.258   0.919 -0.4429  1.2298  1.2478
  895SOL     OW 2683   2.726   2.413   1.771  0.0570  0.3229  0.1471
  895SOL    HW1 2684   2.776   2.337   1.822  1.0613 -3.6096  1.2650
  895SOL    HW2 2685   2.792   2.489   1.736  2.4985  1.6391 -3.1098
  896SOL     OW 2686   0.991   0.335   1.567 -0.2180  0.0269  0.5640
  896SOL    HW1 2687   0.936   0.288   1.636  1.3022 -1.9296 -3.7155
  896SOL    HW2 2688   1.063   0.269   1.534 -0.4820 -3.5262 -3.2313
  897SOL     OW 2689   0.759   1.373   1.576 -0.1907 -0.4780  0.1191
  897SOL    HW1 2690   0.832   1.371   1.505  0.2510 -1.5365 -1.8164
  897SOL    HW2 2691   0.699   1.455   1.557  0.2770 -3.3787  0.1443
  898SOL     OW 2692   1.371   2.652   1.730 -0.0575 -0.8700 -0.1053
  898SOL    HW1 2693   1.429   2.651   1.651  0.8334  1.3865  1.0550
  898SOL    HW2 2694   1.394   2.733   1.781  1.0015 -0.3741 -1.6995
  899SOL     OW 2695   0.709   0.765   0.203  0.0627 -0.7325  0.7085
  899SOL    HW1 2696   0.659   0.805   0.287 -1.4693 -1.1433 -1.6714
  899SOL    HW2 2697   0.795   0.817   0.189  3.0747  1.8419  2.2665
  900SOL     OW 2698   1.502   2.232   1.757 -0.4938 -0.5199  0.4758
  900SOL    HW1 2699   1.488   2.252   1.655 -0.6046  1.9882  0.2572
  900SOL    HW2 2700   1.570   2.296   1.800 -1.2515  1.8399  0.1259
  901SOL     OW 2701   1.088   2.280   0.390  0.2955 -0.4088 -0.2724
  901SOL    HW1 2702   1.046   2.279   0.481  5.1869 -0.2988 -1.0734
  901SOL    HW2 2703   1.053   2.204   0.332  1.0584  0.2168 -0.4604
  902SOL     OW 2704   1.931   1.296   0.060  0.5722  0.4225 -0.0989
  902SOL    HW1 2705   1.966   1.390   0.059  0.2377  1.0125 -0.6457
  902SOL    HW2 2706   2.005   1.241   0.013  0.7306  2.4306  0.4191
  903SOL     OW 2707   2.112   1.181   0.303 -0.0357  0.5063 -0.6362
  903SOL    HW1 2708   2.147   1.257   0.245  0.0586 -2.0910  2.4967
  903SOL    HW2 2709   2.111   1.089   0.254 -0.2387 -3.2714 -1.0040
  904SOL     OW 2710   0.674   1.294   2.971  0.8477  0.0546 -0.3576
  904SOL    HW1 2711   0.707   1.330   2.882  1.1505  1.4342  1.4916
  904SOL    HW2 2712   0.759   1.294   3.035 -0.7028 -0.3510  2.6991
  905SOL     OW 2713   1.928   0.246   1.072  0.0266  0.4064 -0.0319
  905SOL    HW1 2714   2.005   0.199   1.021 -0.7620 -0.3662 -1.2976
  905SOL    HW2 2715   1.860   0.295   1.012  0.2490 -1.1516  1.3476
  906SOL     OW 2716   2.917   2.458   1.190  0.2743  0.6192  0.4188
  906SOL    HW1 2717   2.899   2.430   1.094 -2.6569 -2.3999  1.4612
  906SOL    HW2 2718   2.881   2.550   1.212  0.2552 -3.5893  1.4137
  907SOL     OW 2719   0.941   0.921   0.133  0.2965  0.2521 -0.6764
  907SOL    HW1 2720   0.890   1.000   0.166  0.0577 -0.8207  0.2555
  907SOL    HW2 2721   1.000   0.892   0.213  2.4031  0.1852  0.9622
  908SOL     OW 2722   1.485   0.035   1.129 -0.0333 -0.1646 -0.1619
  908SOL    HW1 2723   1.534   3.071   1.052  3.3068  0.5993  0.5990
  908SOL    HW2 2724   1.554   0.050   1.203  0.5372 -0.2093  0.2920
  909SOL     OW 2725   2.034   1.180   1.655 -0.0506 -0.0166  0.0610
  909SOL    HW1 2726   2.074   1.249   1.720  4.4325 -0.0284  2.0807
  909SOL    HW2 2727   2.085   1.179   1.567 -1.2309 -0.6774  0.5639
  910SOL     OW 2728   1.632   2.969   2.080  0.5536  0.2072  0.3727
  910SOL    HW1 2729   1.629   2.899   2.153  0.3947 -1.1293 -0.3762
  910SOL    HW2 2730   1.693   2.936   2.010 -1.6852  1.9575  3.4719
  911SOL     OW 2731   2.705   0.899   2.653  0.0976 -0.2229  0.0884
  911SOL    HW1 2732   2.662   0.984   2.686  0.5538 -0.3973 -0.2882
  911SOL    HW2 2733   2.805   0.890   2.679  1.4937 -0.0708  2.2047
  912SOL     OW 2734   0.206   1.360   1.628 -0.1619 -0.4547 -0.3727
  912SOL    HW1 2735   0.118   1.310   1.657 -0.6435 -1.6845  1.4800
  912SOL    HW2 2736   0.288   1.342   1.693  2.4105  2.2528  0.7883
  913SOL     OW 2737   2.957   2.428   1.475  0.1724  0.8581 -0.0348
  913SOL    HW1 2738   2.965   2.337   1.524  0.5775 -0.1513  0.2668
  913SOL    HW2 2739   2.930   2.418   1.377 -2.3535 -0.1476 -0.6167
  914SOL     OW 2740   1.734   0.918   1.769 -0.0054 -0.2539 -0.3777
  914SOL    HW1 2741   1.671   0.863   1.711  1.1774 -0.8998 -0.2634
  914SOL    HW2 2742   1.743   1.013   1.736  0.6139 -1.7753  1.4773
  915SOL     OW 2743   2.083   0.491   1.421  0.1336  0.0741  0.1259
  915SOL    HW1 2744   2.078   0.484   1.522 -1.2438  1.3228  2.4703
  915SOL    HW2 2745   1.998   0.452   1.382  1.0689 -2.6673 -0.7708
  916SOL     OW 2746   2.705   2.661   1.168  0.4753  0.2570 -0.1121
  916SOL    HW1 2747   2.646   2.691   1.249 -4.9904  1.4357  2.9620
  916SOL    HW2 2748   2.643   2.630   1.092  0.1079 -1.8716 -2.4572
  917SOL     OW 2749   1.725   2.177   2.913  1.0474 -0.1071 -0.3468
  917SOL    HW1 2750   1.826   2.178   2.908  1.6483 -2.9233  1.6713
  917SOL    HW2 2751   1.682   2.202   2.825  0.7447 -0.6361  0.2159
  918SOL     OW 2752   1.749   2.803   2.532 -0.2177 -0.2379 -0.0369
  918SOL    HW1 2753   1.772   2.863   2.452 -2.8863 -0.0493  1.4363
  918SOL    HW2 2754   1.647   2.778   2.531 -2.9393 -1.9252  0.3329
  919SOL     OW 2755   1.240   2.574   1.290  0.4576 -0.3427 -0.7307
  919SOL    HW1 2756   1.186   2.586   1.204 -0.8665  0.3047 -0.0717
  919SOL    HW2 2757   1.186   2.590   1.374 -1.0821 -0.1594  2.4977
  920SOL     OW 2758   2.953   0.323   2.266  0.4209  0.4931 -0.2107
  920SOL    HW1 2759   2.920   0.230   2.240  0.5959 -1.4435  0.1720
  920SOL    HW2 2760   2.887   0.375   2.326  0.6382  2.0933  0.3813
  921SOL     OW 2761   2.960   0.986   1.614 -0.0242 -0.1461  0.2116
  921SOL    HW1 2762   2.983   1.088   1.616 -0.0576  2.2237  0.9203
  921SOL    HW2 2763   3.047   0.934   1.617  0.2152 -1.2374  1.3923
  922SOL     OW 2764   2.029   1.997   0.454 -0.2078 -0.0462  0.0909
  922SOL    HW1 2765   2.052   1.922   0.392  1.5619  0.6650  2.8951
  922SOL    HW2 2766   1.971   2.072   0.413 -0.5555  0.3577 -3.5808
  923SOL     OW 2767   0.745   1.957   0.112  0.3162  0.5345  0.0629
  923SOL    HW1 2768   0.760   1.857   0.089 -1.1335 -1.2255  0.3743
  923SOL    HW2 2769   0.700   1.956   0.206 -3.2464 -0.2544 -0.1272
  924SOL     OW 2770   1.407   0.438   3.042  0.0048 -0.2784  0.2741
  924SOL    HW1 2771   1.354   0.415   2.958  0.9606  0.6294 -1.2177
  924SOL    HW2 2772   1.437   0.534   3.043 -2.3006  0.5064  0.4202
  925SOL     OW 2773   2.470   0.436   0.743  0.1386  0.1136  0.1174
  925SOL    HW1 2774   2.489   0.344   0.700  0.1896  0.7397  1.3137
  925SOL    HW2 2775   2.486   0.423   0.843  2.0330 -2.5647  2.0512
  926SOL     OW 2776   0.618   0.139   1.168  0.0607 -0.5188  0.1087
  926SOL    HW1 2777   0.525   0.096   1.165 -1.9620  0.5222 -1.9250
  926SOL    HW2 2778   0.680   0.092   1.235  0.3757 -1.0334  0.8338
  927SOL     OW 2779   0.180   1.539   2.315 -0.4245  0.3661 -0.7772
  927SOL    HW1 2780   0.176   1.582   2.406 -1.6346 -1.0419  0.9611
  927SOL    HW2 2781   0.244   1.455   2.324 -0.1862 -1.1280  0.4780
  928SOL     OW 2782   2.860   0.381   2.649  0.5016  0.2139  0.6381
  928SOL    HW1 2783   2.886   0.408   2.747  0.6916 -0.2345  1.1333
  928SOL    HW2 2784   2.890   0.283   2.632 -0.0040  0.3605 -1.2027
  929SOL     OW 2785   2.502   0.084   1.319  0.4910  0.3179  0.0474
  929SOL    HW1 2786   2.555   3.079   1.333 -0.6102  2.5097  0.6733
  929SOL    HW2 2787   2.400   0.070   1.317 -0.6747 -1.7755 -1.6606
  930SOL     OW 2788   1.872   0.858   1.978  0.3566  0.1436 -0.3274
  930SOL    HW1 2789   1.821   0.866   1.890  0.4991  0.7634  3.1524
  930SOL    HW2 2790   1.907   0.949   2.002  0.6933 -0.8003 -0.7938
  931SOL     OW 2791   2.138   1.119   3.037 -0.0137 -0.2646 -0.5435
  931SOL    HW1 2792   2.193   1.076   2.962  1.5760  0.3602 -2.8870
  931SOL    HW2 2793   2.116   1.062   0.038 -0.4509  0.8850 -0.3389
  932SOL     OW 2794   2.455   1.020   0.721  0.3688 -0.0379  0.3924
  932SOL    HW1 2795   2.463   1.118   0.697  0.7919  3.1052  2.8796
  932SOL    HW2 2796   2.377   0.976   0.668  0.0530 -0.2609  0.4855
  933SOL     OW 2797   2.533   1.761   0.788 -0.0122  0.1628 -0.0048
  933SOL    HW1 2798   2.449   1.740   0.736  1.5715  3.6760  0.6891
  933SOL    HW2 2799   2.547   1.858   0.815  0.3896  0.6902  2.6590
  934SOL     OW 2800   2.075   0.492   2.410  0.0734  0.1996  0.1175
  934SOL    HW1 2801   2.089   0.513   2.309 -0.1615 -0.8580  2.6251
  934SOL    HW2 2802   1.982   0.453   2.423  0.3844  0.5764 -1.6225
  935SOL     OW 2803   0.141   1.441   0.633  0.8544 -0.2401 -0.8124
  935SOL    HW1 2804   0.113   1.345   0.654  0.2715  1.3318 -0.3666
  935SOL    HW2 2805   0.227   1.448   0.581 -4.0012 -0.5975  1.7101
  936SOL     OW 2806   0.233   0.414   0.695  0.1576 -0.1865 -0.0949
  936SOL    HW1 2807   0.275   0.320   0.715 -0.5155 -2.7857  0.5049
  936SOL    HW2 2808   0.137   0.418   0.703  0.5127 -2.2268 -1.1244
  937SOL     OW 2809   2.688   2.946   1.322 -0.2847 -0.0426  0.0809
  937SOL    HW1 2810   2.627   2.910   1.248 -0.8580 -1.5299 -2.2072
  937SOL    HW2 2811   2.768   2.994   1.276  0.8199  2.1697  0.8409
  938SOL     OW 2812   2.781   2.409   0.059 -0.2144 -0.3894 -0.9014
  938SOL    HW1 2813   2.752   2.500   0.092  1.3749 -3.8145  1.2645
  938SOL    HW2 2814   2.878   2.417   0.037 -1.9156  0.3975  0.5525
  939SOL     OW 2815   0.664   2.008   0.850 -0.4057 -0.1873 -0.3755
  939SOL    HW1 2816   0.681   1.973   0.941  0.1388  0.2449 -1.6261
  939SOL    HW2 2817   0.569   2.010   0.817 -0.6497  0.7662 -0.9840
  940SOL     OW 2818   0.149   0.278   2.806 -0.0604 -0.0075 -0.5716
  940SOL    HW1 2819   0.080   0.306   2.876  0.2325 -0.3221  1.2059
  940SOL    HW2 2820   0.141   0.178   2.785 -0.9663  0.6743 -1.7502
  941SOL     OW 2821   1.671   0.456   2.698  0.1110 -0.9399 -0.0321
  941SOL    HW1 2822   1.673   0.537   2.758  2.2804 -3.6237 -0.5247
  941SOL    HW2 2823   1.573   0.438   2.673 -2.3965 -0.5979  0.1033
  942SOL     OW 2824   1.242   0.798   1.536 -0.3638 -0.4089 -0.0522
  942SOL    HW1 2825   1.161   0.736   1.555 -3.1590  1.4525 -1.7212
  942SOL    HW2 2826   1.321   0.781   1.599 -1.5638 -1.2519  0.6145
  943SOL     OW 2827   1.262   1.059   1.881 -0.3229 -0.3550 -0.0152
  943SOL    HW1 2828   1.356   1.063   1.923  0.6364  0.9524  1.4406
  943SOL    HW2 2829   1.217   0.975   1.915 -0.8719 -0.6170  0.1606
  944SOL     OW 2830   1.970   0.917   1.621  0.5272  0.0706  0.7280
  944SOL    HW1 2831   1.899   0.900   1.690  2.5792 -2.4783 -1.6702
  944SOL    HW2 2832   2.011   1.009   1.632 -1.2553  1.5491 -0.1895
  945SOL     OW 2833   2.753   0.073   0.267  0.4197 -0.2247  0.0347
  945SOL    HW1 2834   2.740   0.032   0.362 -1.6236  0.4598  1.6319
  945SOL    HW2 2835   2.763   0.174   0.285  0.3148  2.8770 -0.3028
  946SOL     OW 2836   2.694   0.676   1.868 -0.0838 -0.4033  0.1472
  946SOL    HW1 2837   2.748   0.591   1.839  1.8674 -0.4873 -4.1336
  946SOL    HW2 2838   2.611   0.656   1.917  1.7446  1.5574 -0.6160
  947SOL     OW 2839   0.960   3.014   0.477  0.1037 -0.5520  0.6112
  947SOL    HW1 2840   1.017   3.002   0.397  0.3980 -1.0188  2.0417
  947SOL    HW2 2841   0.858   2.998   0.463 -0.5147  1.9693  1.0928
  948SOL     OW 2842   2.420   1.637   1.451 -0.0784  0.1912  0.1591
  948SOL    HW1 2843   2.438   1.728   1.494  0.9394 -1.5141 -1.7693
  948SOL    HW2 2844   2.421   1.561   1.519  0.4314 -0.8564 -1.3266
  949SOL     OW 2845   0.438   1.479   3.045  0.8141  0.0688 -0.1753
  949SOL    HW1 2846   0.391   1.506   2.955 -2.1917  1.0758 -0.6444
  949SOL    HW2 2847   0.519   1.421   3.024 -0.0813  2.0260 -1.2532
  950SOL     OW 2848   0.504   2.484   0.807  0.4776  0.1454 -0.5836
  950SOL    HW1 2849   0.539   2.500   0.713 -0.3191 -0.2918 -0.0611
  950SOL    HW2 2850   0.442   2.399   0.813 -3.3401 -4.2142  2.3907
  951SOL     OW 2851   0.690   1.038   2.272 -0.0236 -0.1625 -0.1535
  951SOL    HW1 2852   0.789   1.007   2.282 -1.1075 -0.3398  3.7150
  951SOL    HW2 2853   0.663   1.086   2.360 -2.6229  0.1375  1.0485
  952SOL     OW 2854   0.225   1.042   0.509 -0.3760 -0.3834  0.5419
  952SOL    HW1 2855   0.305   1.090   0.556  0.8521 -0.3330  0.0547
  952SOL    HW2 2856   0.142   1.077   0.549 -1.3315 -2.6417 -1.5656
  953SOL     OW 2857   2.513   0.072   2.465  0.0654 -0.1838  0.4543
  953SOL    HW1 2858   2.427   0.129   2.477 -0.9255 -1.0480 -1.1420
  953SOL    HW2 2859   2.490   3.048   2.465  0.1709 -0.8205  1.3835
  954SOL     OW 2860   1.708   1.318   0.436  0.2596  0.2720  0.2379
  954SOL    HW1 2861   1.725   1.420   0.413  1.6920  1.3222  0.2785
  954SOL    HW2 2862   1.693   1.309   0.538  0.2217  3.8793 -2.0441
  955SOL     OW 2863   0.705   2.017   2.945  0.6555 -0.2468  0.0935
  955SOL    HW1 2864   0.711   1.990   3.045 -0.3547 -0.6273 -1.1039
  955SOL    HW2 2865   0.759   2.104   2.931  0.1288 -1.3786 -1.0951
  956SOL     OW 2866   2.072   0.548   2.146 -0.0578  0.4095  0.4271
  956SOL    HW1 2867   2.109   0.469   2.093  0.0340  0.5834  1.8767
  956SOL    HW2 2868   2.123   0.631   2.129 -0.5297 -1.9318  1.2032
  957SOL     OW 2869   2.116   2.167   2.380 -0.0331 -0.4018  0.0184
  957SOL    HW1 2870   2.102   2.213   2.467  1.2889 -1.4734  1.5038
  957SOL    HW2 2871   2.218   2.153   2.360 -0.6847 -0.3906 -1.2458
  958SOL     OW 2872   1.618   1.277   1.356  0.3443  0.3883 -0.2968
  958SOL    HW1 2873   1.668   1.187   1.359 -0.3674  0.5245 -0.8535
  958SOL    HW2 2874   1.534   1.278   1.418 -0.8371 -2.6776  4.0377
  959SOL     OW 2875   1.838   2.073   2.367 -0.3014  0.1066 -0.3506
  959SOL    HW1 2876   1.922   2.129   2.343  2.0369 -0.0913  5.8536
  959SOL    HW2 2877   1.863   2.010   2.446 -1.5970 -1.1182  0.6046
  960SOL     OW 2878   0.231   0.725   2.594  0.7241 -0.4468  0.0424
  960SOL    HW1 2879   0.249   0.807   2.538 -1.1077 -2.0681 -2.7159
  960SOL    HW2 2880   0.136   0.691   2.572  0.1186 -1.4476  0.1387
  961SOL     OW 2881   0.372   0.834   2.782 -0.4761  0.1288 -0.6338
  961SOL    HW1 2882   0.316   0.788   2.713  1.2327  0.3614  0.9863
  961SOL    HW2 2883   0.321   0.890   2.844 -2.6981  0.5328 -0.8351
  962SOL     OW 2884   0.520   1.148   2.810  0.2980 -0.1953  0.4384
  962SOL    HW1 2885   0.571   1.199   2.882 -0.9146  1.3469  1.5166
  962SOL    HW2 2886   0.571   1.063   2.779  0.6163  1.0353  0.9280
  963SOL     OW 2887   2.634   2.188   0.102 -0.2967  0.2238 -0.0158
  963SOL    HW1 2888   2.676   2.277   0.079  0.7894  1.6693 -0.2572
  963SOL    HW2 2889   2.708   2.119   0.102 -1.3731  1.3800  0.5131
  964SOL     OW 2890   1.036   2.367   1.809  0.0364  0.1917 -0.2138
  964SOL    HW1 2891   1.131   2.398   1.822 -0.2236  0.4964  0.5276
  964SOL    HW2 2892   0.966   2.446   1.810 -1.0728  0.6812  0.9878
  965SOL     OW 2893   1.789   1.722   0.158  0.1697 -0.5923 -0.1296
  965SOL    HW1 2894   1.852   1.749   0.082  0.0124  3.7139  0.6863
  965SOL    HW2 2895   1.747   1.807   0.206  1.3157  3.2588  2.2499
  966SOL     OW 2896   3.039   1.474   0.425  0.1244  0.0116 -0.2017
  966SOL    HW1 2897   0.033   1.451   0.492  1.3260  1.4602 -2.5226
  966SOL    HW2 2898   3.016   1.574   0.430  0.6520 -0.6447  1.7171
  967SOL     OW 2899   1.730   2.870   1.857 -0.1675  0.5492  0.0092
  967SOL    HW1 2900   1.670   2.800   1.822 -1.0988  0.6146  0.4849
  967SOL    HW2 2901   1.804   2.889   1.790  0.0958  2.8123 -0.2680
  968SOL     OW 2902   1.550   0.726   0.594 -0.2251 -0.1184 -0.1201
  968SOL    HW1 2903   1.501   0.675   0.517  0.6284 -0.9309 -1.2320
  968SOL    HW2 2904   1.605   0.663   0.653  2.1020 -0.0545  0.0016
  969SOL     OW 2905   0.290   1.309   2.327 -0.1738 -0.1055  0.0737
  969SOL    HW1 2906   0.329   1.238   2.388 -1.4886  0.2294  1.8227
  969SOL    HW2 2907   0.328   1.307   2.234 -0.1798  0.2001  2.2262
  970SOL     OW 2908   2.115   2.035   1.295  0.4632 -0.0898  0.1259
  970SOL    HW1 2909   2.042   1.978   1.254 -0.0425  1.8526  4.8712
  970SOL    HW2 2910   2.093   2.046   1.396 -2.3047 -0.1694  1.9190
  971SOL     OW 2911   2.854   2.830   0.994 -0.0931 -0.6224  0.2603
  971SOL    HW1 2912   2.823   2.756   1.060  0.5710 -1.9674 -2.1723
  971SOL    HW2 2913   2.905   2.902   1.046  1.6976  0.1738 -1.2288
  972SOL     OW 2914   0.002   1.209   2.664  0.1629  0.0359  0.7335
  972SOL    HW1 2915   0.032   1.164   2.580  0.3776  1.2695 -0.6101
  972SOL    HW2 2916   3.001   1.268   2.642 -1.6919 -0.0198  1.8570
  973SOL     OW 2917   0.598   0.478   0.551  0.1911  0.1374  0.3043
  973SOL    HW1 2918   0.539   0.535   0.610 -0.7847 -0.6002 -3.6725
  973SOL    HW2 2919   0.542   0.422   0.487 -1.1911 -2.5771 -2.1212
  974SOL     OW 2920   2.161   0.751   1.683 -0.7699 -0.0625 -0.1819
  974SOL    HW1 2921   2.082   0.811   1.663  2.9511  0.1570  1.2967
  974SOL    HW2 2922   2.252   0.793   1.659 -0.8080 -2.0094 -1.4792
  975SOL     OW 2923   2.865   2.940   0.130 -0.8715  0.1648  0.3888
  975SOL    HW1 2924   2.824   3.015   0.184  1.0545 -3.0984  1.5820
  975SOL    HW2 2925   2.964   2.942   0.150 -0.1515  1.9097 -0.8109
  976SOL     OW 2926   0.335   1.685   1.236  0.4592  0.1134 -0.1699
  976SOL    HW1 2927   0.357   1.589   1.255 -2.2439  2.1591 -0.1007
  976SOL    HW2 2928   0.314   1.698   1.138  0.7821 -0.6782  0.5262
  977SOL     OW 2929   1.050   2.028   0.932  0.1719  0.0990  0.3865
  977SOL    HW1 2930   1.096   2.023   1.026 -0.5881  0.7089 -0.5626
  977SOL    HW2 2931   1.027   1.937   0.900  4.1451 -0.0913  1.1416
  978SOL     OW 2932   0.492   1.187   0.300 -0.0042 -0.2906 -0.1797
  978SOL    HW1 2933   0.568   1.261   0.305 -1.1702  2.7559  2.4023
  978SOL    HW2 2934   0.468   1.171   0.201 -0.5539  1.0013 -1.7002
  979SOL     OW 2935   2.089   1.749   0.266 -0.1602  0.7496  0.2242
  979SOL    HW1 2936   2.114   1.824   0.208 -0.0303 -1.3519  3.7255
  979SOL    HW2 2937   2.067   1.671   0.208  0.0596  0.9612  0.0031
  980SOL     OW 2938   0.398   1.798   2.431 -0.1587 -0.3520 -0.6192
  980SOL    HW1 2939   0.477   1.773   2.375 -4.1469  2.9301 -0.4921
  980SOL    HW2 2940   0.356   1.888   2.405 -0.1584  0.1422  1.2287
  981SOL     OW 2941   2.788   0.961   0.179  0.2663 -0.4830  0.1476
  981SOL    HW1 2942   2.734   0.932   0.263 -2.6959 -0.2172  0.0014
  981SOL    HW2 2943   2.728   0.967   0.099  2.2997 -0.4104 -0.3336
  982SOL     OW 2944   2.919   2.845   2.009 -0.1572 -0.4202 -0.2130
  982SOL    HW1 2945   2.868   2.925   1.971  0.7656  1.7855  0.4190
  982SOL    HW2 2946   2.979   2.798   1.938 -0.7254  1.5517 -0.4771
  983SOL     OW 2947   1.587   0.309   1.376  0.3766 -0.4260 -0.4986
  983SOL    HW1 2948   1.505   0.338   1.319  1.0938 -0.6903 -0.7599
  983SOL    HW2 2949   1.648   0.250   1.320  1.6598  0.3394 -0.9036
  984SOL     OW 2950   1.355   2.767   2.857 -0.3602 -0.4301 -0.0051
  984SOL    HW1 2951   1.403   2.718   2.936  2.1082 -2.7238 -0.8683
  984SOL    HW2 2952   1.321   2.701   2.789 -0.0825  1.3260  0.1969
  985SOL     OW 2953   1.440   1.620   1.526 -0.2719  0.7673 -0.1992
  985SOL    HW1 2954   1.432   1.567   1.439  1.3409  2.9214 -4.3334
  985SOL    HW2 2955   1.360   1.600   1.585  2.1028  3.9046 -0.2598
  986SOL     OW 2956   1.870   3.023   2.414 -0.2221 -0.4573  0.2077
  986SOL    HW1 2957   1.963   2.993   2.410  0.6236  1.1953  2.0018
  986SOL    HW2 2958   1.869   0.043   2.387  0.5155 -2.8880 -0.4549
  987SOL     OW 2959   2.887   1.700   2.499 -0.1974 -0.3216  0.4399
  987SOL    HW1 2960   2.933   1.639   2.429  0.8103  0.4564  2.4052
  987SOL    HW2 2961   2.838   1.770   2.440 -1.9233  0.4154 -0.8320
  988SOL     OW 2962   2.747   0.384   1.795  0.1535 -0.3415 -0.7091
  988SOL    HW1 2963   2.793   0.425   1.875 -0.2105 -0.2192 -1.0874
  988SOL    HW2 2964   2.814   0.344   1.729 -0.2087 -0.2951  0.3218
  989SOL     OW 2965   1.775   1.161   1.679 -0.0204  0.6558  0.1067
  989SOL    HW1 2966   1.721   1.242   1.654  1.1329 -2.9712 -3.2843
  989SOL    HW2 2967   1.874   1.178   1.655 -1.8260  2.4096  3.0349
  990SOL     OW 2968   2.904   1.157   0.044  0.2570 -0.5489  0.6338
  990SOL    HW1 2969   2.871   1.072   0.093  3.4794  0.6185 -0.3473
  990SOL    HW2 2970   2.946   1.129   3.036  0.5953 -2.1290 -0.7817
  991SOL     OW 2971   0.233   2.179   2.939 -0.6757 -0.0140  0.1977
  991SOL    HW1 2972   0.189   2.130   3.015  1.2786  2.1086  0.7316
  991SOL    HW2 2973   0.259   2.117   2.862 -0.2638 -1.3374 -1.0327
  992SOL     OW 2974   2.575   1.977   2.048  0.6328  0.2056 -0.7986
  992SOL    HW1 2975   2.518   2.054   1.999 -1.9421  0.0255 -0.4011
  992SOL    HW2 2976   2.672   1.977   2.018  0.3228 -1.5695 -0.5776
  993SOL     OW 2977   0.656   3.041   0.505 -0.2140 -0.2839 -0.2810
  993SOL    HW1 2978   0.566   3.038   0.462 -0.0487 -0.6816  2.6226
  993SOL    HW2 2979   0.654   3.003   0.602  0.5510  4.0753 -0.8123
  994SOL     OW 2980   0.002   1.907   1.560 -0.0467 -0.3208 -0.4194
  994SOL    HW1 2981   0.064   1.893   1.642  3.2676  3.7463 -0.3252
  994SOL    HW2 2982   0.040   1.865   1.474 -1.1153 -0.7861  1.0698
  995SOL     OW 2983   2.238   1.885   2.198  0.0989  0.2011 -0.1112
  995SOL    HW1 2984   2.314   1.868   2.134 -3.0523 -0.0762  0.6278
  995SOL    HW2 2985   2.178   1.802   2.198 -1.1540 -0.0822  1.3664
  996SOL     OW 2986   1.924   1.721   2.968  0.8917 -0.2182 -0.4719
  996SOL    HW1 2987   1.842   1.780   2.951 -1.8627 -0.6083  2.0178
  996SOL    HW2 2988   2.002   1.749   2.908  0.7364 -0.1573 -0.1282
  997SOL     OW 2989   1.036   1.364   1.517  0.2675 -0.1306  0.1030
  997SOL    HW1 2990   1.096   1.298   1.569 -2.0437 -2.4596  2.1627
  997SOL    HW2 2991   1.062   1.373   1.420 -0.4209 -0.9831  3.1091
  998SOL     OW 2992   2.735   2.140   1.002  0.3401 -0.4825  0.2031
  998SOL    HW1 2993   2.745   2.074   0.926  1.2833  3.1218  0.4342
  998SOL    HW2 2994   2.766   2.097   1.087 -2.2207  1.9164 -0.9456
  999SOL     OW 2995   2.748   2.670   0.144  0.1559 -0.1842 -0.2262
  999SOL    HW1 2996   2.683   2.677   0.224 -0.2693  0.6971 -1.0711
  999SOL    HW2 2997   2.796   2.760   0.122  0.4472 -0.8506  0.1146
 1000SOL     OW 2998   1.119   0.082   3.024 -0.1275  0.4538  0.6410
 1000SOL    HW1 2999   1.116   0.130   0.034  1.6859 -1.2618  1.1610
 1000SOL    HW2 3000   1.185   0.129   2.960 -2.1684  0.3998 -0.3971
   3.08064   3.08064   3.08064
