1000 SPC/Fw water molecules t= 316.00000 step= 316000
 3000
    1SOL     OW    1   2.583   0.038   0.922  0.2543 -0.0290 -0.0664
    1SOL    HW1    2   2.566   3.043   0.905 -0.3566  0.0263  0.4337
    1SOL    HW2    3   2.675   0.051   0.966 -1.8118 -0.4695 -0.2145
    2SOL     OW    4   3.018   2.258   0.845 -0.2413 -0.1922 -0.1584
    2SOL    HW1    5   2.947   2.224   0.906  2.4133  0.1433 -3.9779
    2SOL    HW2    6   3.103   2.288   0.898  2.3718  0.4477  3.9794
    3SOL     OW    7   0.707   2.896   2.850 -0.4218 -0.3492 -0.1971
    3SOL    HW1    8   0.684   2.842   2.935 -1.7111  0.4521 -0.9495
    3SOL    HW2    9   0.620   2.929   2.811 -2.0122 -1.0361  0.2938
    4SOL     OW   10   2.135   2.466   1.963  0.2623 -0.3428 -0.1622
    4SOL    HW1   11   2.043   2.422   1.963  1.1285  1.9140  1.3198
    4SOL    HW2   12   2.207   2.396   1.962 -1.2379  1.9759  2.7021
    5SOL     OW   13   1.881   0.756   1.374 -0.4587  0.4809 -0.3652
    5SOL    HW1   14   1.888   0.831   1.308  0.7819  0.4725  1.7958
    5SOL    HW2   15   1.802   0.694   1.354  0.2919  1.0368 -0.3313
    6SOL     OW   16   1.920   2.782   0.436  0.3276  0.1064 -0.3339
    6SOL    HW1   17   1.905   2.866   0.382 -1.1145  0.5586 -2.2259
    6SOL    HW2   18   1.834   2.766   0.487  2.3611  0.0718  1.2888
    7SOL     OW   19   2.607   1.404   1.142  0.1501 -0.3904 -0.5066
    7SOL    HW1   20   2.701   1.366   1.132 -1.7161  2.7234 -1.1203
    7SOL    HW2   21   2.609   1.461   1.224 -0.1190 -0.5046 -0.7008
    8SOL     OW   22   1.359   2.226   1.170 -0.3925 -0.0963  0.3898
    8SOL    HW1   23   1.410   2.200   1.085 -2.8091 -0.1525 -0.0438
    8SOL    HW2   24   1.392   2.312   1.208 -0.4509 -2.2318  1.6870
    9SOL     OW   25   1.438   2.791   2.262  0.7295 -0.2146 -0.2673
    9SOL    HW1   26   1.352   2.783   2.315 -0.5043 -0.7067 -0.7289
    9SOL    HW2   27   1.423   2.747   2.171 -2.4953  0.0735  4.3212
   10SOL     OW   28   0.514   1.921   1.112 -0.1690 -0.0793  0.1295
   10SOL    HW1   29   0.576   1.839   1.102 -1.9375 -1.6782 -1.1281
   10SOL    HW2   30   0.557   2.002   1.077  0.4963 -1.3602  0.5206
   11SOL     OW   31   1.801   1.682   1.255  0.5421 -0.3155 -0.5058
   11SOL    HW1   32   1.801   1.629   1.341  1.4854  0.9233  1.2647
   11SOL    HW2   33   1.733   1.758   1.260 -0.4185  0.2301  0.5914
   12SOL     OW   34   2.632   2.556   1.818 -0.4602 -0.0342  0.2017
   12SOL    HW1   35   2.638   2.460   1.852 -0.1179  2.9203  0.6258
   12SOL    HW2   36   2.643   2.620   1.893  1.1175  1.0398 -1.3840
   13SOL     OW   37   2.363   3.077   0.489  0.0687  0.2665 -0.1600
   13SOL    HW1   38   2.396   2.986   0.520 -1.7964  0.4737 -2.8201
   13SOL    HW2   39   2.440   0.020   0.444 -0.8682 -1.0688  1.4148
   14SOL     OW   40   1.502   2.121   0.196 -0.0738 -0.0312 -0.0650
   14SOL    HW1   41   1.475   2.053   0.263  1.0726  2.8087  0.3341
   14SOL    HW2   42   1.598   2.094   0.169 -1.0077 -1.5079 -0.3981
   15SOL     OW   43   2.955   2.215   2.046 -0.2657  0.2169 -0.4086
   15SOL    HW1   44   2.886   2.175   2.109 -0.4577  0.3137 -0.3256
   15SOL    HW2   45   2.987   2.305   2.085 -0.5396 -0.7007  3.0206
   16SOL     OW   46   2.176   2.711   0.425  0.4912 -0.4290  0.4545
   16SOL    HW1   47   2.081   2.737   0.442  2.1026 -1.7962 -0.9486
   16SOL    HW2   48   2.219   2.693   0.516  0.8467 -1.3916 -0.4941
   17SOL     OW   49   0.431   0.174   1.137 -0.0431 -0.4141 -0.1106
   17SOL    HW1   50   0.478   0.255   1.180  0.8428  0.9476 -1.0578
   17SOL    HW2   51   0.505   0.108   1.111 -0.4664 -1.5302 -2.1142
   18SOL     OW   52   2.173   0.837   0.272  0.2294 -0.1710 -0.0547
   18SOL    HW1   53   2.164   0.814   0.175  0.4391  2.7484  1.2732
   18SOL    HW2   54   2.235   0.917   0.287 -0.3305  1.2097  3.0459
   19SOL     OW   55   1.735   1.858   0.610 -0.5906  0.1218  0.1263
   19SOL    HW1   56   1.799   1.798   0.666  1.1897  1.6157  1.7913
   19SOL    HW2   57   1.774   1.873   0.515 -1.0308  0.0366  0.3655
   20SOL     OW   58   2.238   1.976   2.160 -0.4952  0.0333  0.4277
   20SOL    HW1   59   2.158   1.971   2.221  0.4021  2.8464  1.6452
   20SOL    HW2   60   2.251   2.064   2.113  2.8061 -1.6537  0.8257
   21SOL     OW   61   1.894   0.339   0.779  0.2237  0.1847  0.2195
   21SOL    HW1   62   1.845   0.332   0.689 -1.4145  2.0165 -2.2887
   21SOL    HW2   63   1.904   0.242   0.812  0.4916 -1.0781  0.9135
   22SOL     OW   64   2.597   0.163   1.590 -0.3319 -0.0974 -0.7258
   22SOL    HW1   65   2.545   0.199   1.512 -0.7818 -1.2683  3.2472
   22SOL    HW2   66   2.525   0.140   1.660 -3.5217 -0.9267 -0.6305
   23SOL     OW   67   3.084   0.420   1.953 -0.0313  0.2937  0.3963
   23SOL    HW1   68   3.085   0.318   1.937  3.0158 -3.7842  0.0743
   23SOL    HW2   69   3.000   0.468   1.925 -0.3877 -0.0224 -0.3259
   24SOL     OW   70   2.527   2.632   0.359  0.3594 -0.0049  0.5401
   24SOL    HW1   71   2.509   2.703   0.433 -0.9332  1.2232 -0.2799
   24SOL    HW2   72   2.626   2.618   0.354 -2.8279 -0.9978  2.4697
   25SOL     OW   73   1.454   0.064   2.342  0.4829 -0.1697  0.3071
   25SOL    HW1   74   1.519   3.091   2.349 -0.3969  1.0182  0.4563
   25SOL    HW2   75   1.498   0.150   2.307 -3.2073  0.5632 -2.5175
   26SOL     OW   76   1.321   2.328   0.273 -0.2621  0.7061 -0.1502
   26SOL    HW1   77   1.381   2.261   0.227 -3.4224  1.1383 -0.5579
   26SOL    HW2   78   1.330   2.418   0.229 -0.4145 -0.2915  0.6907
   27SOL     OW   79   2.328   1.293   2.863 -0.0661  0.7572  0.2407
   27SOL    HW1   80   2.260   1.369   2.853  2.3304 -3.4364  0.6532
   27SOL    HW2   81   2.408   1.315   2.804 -0.4389  1.2209  0.8479
   28SOL     OW   82   0.967   1.399   1.436 -0.1478  0.5187 -0.2388
   28SOL    HW1   83   0.994   1.362   1.347  1.3878 -0.2671 -0.9737
   28SOL    HW2   84   0.906   1.482   1.426  1.2416  1.5602 -3.2799
   29SOL     OW   85   2.869   2.513   1.670 -0.4725 -0.2782  0.3372
   29SOL    HW1   86   2.897   2.601   1.628  1.8926 -2.8788  1.0504
   29SOL    HW2   87   2.782   2.525   1.717  1.3854 -0.6410 -2.3704
   30SOL     OW   88   1.052   0.523   1.143  0.3850  0.2759 -0.3941
   30SOL    HW1   89   0.962   0.557   1.107  0.3856 -0.0342 -0.0655
   30SOL    HW2   90   1.120   0.509   1.069  0.3934 -0.2633  2.5971
   31SOL     OW   91   2.273   2.854   1.950 -0.0925 -0.0348  0.0544
   31SOL    HW1   92   2.267   2.774   2.015  1.6854 -1.2303  0.3719
   31SOL    HW2   93   2.225   2.832   1.860 -0.0866  0.1084 -2.2202
   32SOL     OW   94   1.160   1.622   0.604 -0.0238 -0.1314 -0.5640
   32SOL    HW1   95   1.136   1.668   0.696 -0.1012  3.2938 -0.6481
   32SOL    HW2   96   1.085   1.556   0.578 -4.0624 -3.2646 -3.2656
   33SOL     OW   97   0.385   0.465   2.364 -0.1912  0.0411  0.2613
   33SOL    HW1   98   0.432   0.531   2.427  1.4676  1.8727 -0.5497
   33SOL    HW2   99   0.383   0.498   2.270  1.6911 -0.4066  1.7099
   34SOL     OW  100   1.881   3.090   0.659 -0.3613  0.3474 -0.2475
   34SOL    HW1  101   1.876   2.995   0.697  1.7703 -0.9465 -3.5812
   34SOL    HW2  102   1.980   0.016   0.661  1.6927 -1.1199  0.5026
   35SOL     OW  103   2.139   2.683   1.321 -0.1864 -0.0120 -0.0512
   35SOL    HW1  104   2.100   2.760   1.375  1.1115  2.0501 -0.5847
   35SOL    HW2  105   2.232   2.654   1.355  1.0923  0.8271 -1.2697
   36SOL     OW  106   1.830   2.367   3.010 -0.8078  0.2356  0.0067
   36SOL    HW1  107   1.935   2.368   3.001  4.7322 -1.5249 -1.6106
   36SOL    HW2  108   1.788   2.363   2.919  0.7480 -1.1916  0.5612
   37SOL     OW  109   1.217   0.666   2.385 -0.0597  0.3096 -0.1212
   37SOL    HW1  110   1.131   0.646   2.437 -0.7690  4.5078 -2.4038
   37SOL    HW2  111   1.259   0.582   2.351 -1.1996  1.5501  1.2632
   38SOL     OW  112   0.374   0.304   2.636  1.2315 -0.1686 -0.2907
   38SOL    HW1  113   0.446   0.362   2.680  1.3687  2.2205  0.0063
   38SOL    HW2  114   0.349   0.340   2.544  1.5096  1.4209  2.4361
   39SOL     OW  115   2.616   1.258   1.699 -0.2621 -0.0253  1.0913
   39SOL    HW1  116   2.620   1.290   1.796  1.3878  1.1358  0.5317
   39SOL    HW2  117   2.676   1.175   1.691 -0.2373  2.5432  0.5648
   40SOL     OW  118   1.329   2.967   0.279  0.0872  0.1121 -0.0755
   40SOL    HW1  119   1.309   3.056   0.231  0.1081  0.5575  0.7775
   40SOL    HW2  120   1.237   2.925   0.286  0.2030  2.3401  1.4376
   41SOL     OW  121   2.422   1.580   1.004 -0.2648 -0.0399 -0.2485
   41SOL    HW1  122   2.494   1.511   1.030 -2.4428  0.3954  2.1834
   41SOL    HW2  123   2.470   1.645   0.942 -0.4044 -1.1849  0.9557
   42SOL     OW  124   0.810   0.270   1.320 -0.5108  0.4557 -0.3790
   42SOL    HW1  125   0.713   0.289   1.353 -3.1175 -1.1627  1.4600
   42SOL    HW2  126   0.877   0.344   1.348  2.3584 -1.6226  2.0816
   43SOL     OW  127   0.019   1.954   2.756  0.2696  0.5268  0.3026
   43SOL    HW1  128   0.010   2.015   2.837 -1.3480 -1.3781 -0.7673
   43SOL    HW2  129   0.121   1.950   2.737 -1.1246  0.7301 -0.2211
   44SOL     OW  130   2.326   0.113   1.691  0.2109  0.5682  0.3497
   44SOL    HW1  131   2.319   0.027   1.633 -1.7584 -0.5496  1.9645
   44SOL    HW2  132   2.266   0.115   1.772 -0.3345 -1.5374  2.1210
   45SOL     OW  133   1.198   0.220   2.178 -0.1107 -0.0143  0.3823
   45SOL    HW1  134   1.256   0.209   2.095 -1.3583  0.3394  0.4926
   45SOL    HW2  135   1.194   0.127   2.223 -1.1250 -2.4728  1.0109
   46SOL     OW  136   1.133   2.998   2.615 -0.1697 -0.4987  0.3334
   46SOL    HW1  137   1.051   2.944   2.637  0.3044 -0.9853  0.4130
   46SOL    HW2  138   1.196   3.005   2.693 -0.6462  0.3597 -2.1002
   47SOL     OW  139   1.956   1.778   0.763 -0.1457 -0.3586 -0.2214
   47SOL    HW1  140   1.974   1.805   0.857  1.2661  1.5156  2.0542
   47SOL    HW2  141   1.942   1.676   0.753  0.0682 -1.1532  0.7770
   48SOL     OW  142   1.117   2.136   0.585  0.4021  0.6484 -0.7269
   48SOL    HW1  143   1.079   2.147   0.490 -1.3352  0.4133  0.1038
   48SOL    HW2  144   1.106   2.039   0.616  0.7536 -0.9594 -0.0011
   49SOL     OW  145   2.152   2.754   2.542  0.0010  0.4137  0.2107
   49SOL    HW1  146   2.125   2.797   2.456 -1.1099 -2.3226  0.3203
   49SOL    HW2  147   2.216   2.817   2.593  1.1467 -0.1181 -0.3248
   50SOL     OW  148   1.630   2.999   0.149 -0.4923 -0.1008  0.4220
   50SOL    HW1  149   1.721   3.044   0.166 -1.0402 -0.5340 -0.8607
   50SOL    HW2  150   1.569   3.054   0.089  2.1709  2.4981  1.1133
   51SOL     OW  151   2.070   0.784   0.972 -0.0007 -0.5476 -0.1693
   51SOL    HW1  152   2.069   0.721   1.054 -3.3826 -0.0920  0.9280
   51SOL    HW2  153   2.120   0.869   0.979  0.7187  2.3965 -0.8643
   52SOL     OW  154   1.120   1.555   1.059  0.0937 -0.2414  0.1352
   52SOL    HW1  155   1.196   1.489   1.050 -2.0772 -0.2886  0.6483
   52SOL    HW2  156   1.129   1.607   1.145  0.0541 -2.2520  1.7551
   53SOL     OW  157   0.566   1.553   2.651 -0.5026 -0.4204  0.1524
   53SOL    HW1  158   0.480   1.590   2.687  3.5376  0.0533 -1.1220
   53SOL    HW2  159   0.636   1.531   2.729  1.7530  1.7906  0.1294
   54SOL     OW  160   2.741   0.992   1.700 -0.0412  0.1702 -0.5314
   54SOL    HW1  161   2.841   1.008   1.711 -0.7441 -0.7181 -2.3673
   54SOL    HW2  162   2.701   0.962   1.792  1.3896  0.8165  1.3120
   55SOL     OW  163   2.683   1.864   0.456  0.0126  0.4751  0.7553
   55SOL    HW1  164   2.703   1.926   0.383  0.2540  1.0198  0.9367
   55SOL    HW2  165   2.725   1.900   0.539 -1.4970 -0.9553 -0.6017
   56SOL     OW  166   1.390   3.102   1.562  0.2245  0.1249 -0.4420
   56SOL    HW1  167   1.436   3.008   1.569 -0.6821 -1.0137  1.3284
   56SOL    HW2  168   1.406   0.043   1.649  0.9144 -1.7941 -1.3957
   57SOL     OW  169   1.291   1.427   2.924  0.0530 -0.0408 -0.3629
   57SOL    HW1  170   1.315   1.422   2.823  1.3746 -0.7801  0.1561
   57SOL    HW2  171   1.372   1.396   2.977  0.8085 -0.3738  0.6726
   58SOL     OW  172   3.091   0.824   1.833  0.5624 -0.2005  0.0929
   58SOL    HW1  173   0.082   0.852   1.846 -3.5451 -0.2593 -2.7570
   58SOL    HW2  174   3.050   0.879   1.756 -0.2910 -0.5509 -0.2571
   59SOL     OW  175   1.596   2.720   0.223  0.4317  0.2998  0.0393
   59SOL    HW1  176   1.680   2.679   0.177 -2.7280 -0.8131  1.0111
   59SOL    HW2  177   1.585   2.821   0.196 -0.9546 -0.5048  0.9959
   60SOL     OW  178   2.886   1.870   0.220 -0.7417  0.0852 -0.0752
   60SOL    HW1  179   2.925   1.884   0.312 -2.3295 -1.4333 -0.5131
   60SOL    HW2  180   2.963   1.877   0.150  0.3069  1.0230 -5.7430
   61SOL     OW  181   0.992   2.717   0.827  0.0523 -0.2168  0.5620
   61SOL    HW1  182   1.013   2.817   0.818 -0.9317  0.7003 -0.1780
   61SOL    HW2  183   0.912   2.688   0.777  2.5414  2.6736 -0.3054
   62SOL     OW  184   1.706   1.807   2.538  0.0023 -0.6645  0.3048
   62SOL    HW1  185   1.804   1.795   2.565  0.3572 -0.0624  1.5902
   62SOL    HW2  186   1.702   1.788   2.441 -1.3767  2.9129  2.4343
   63SOL     OW  187   2.099   2.343   0.555 -0.2880  0.1180 -0.0503
   63SOL    HW1  188   2.128   2.386   0.467 -0.0985 -0.2219  0.7502
   63SOL    HW2  189   2.003   2.295   0.551 -1.7885  1.4895  2.0719
   64SOL     OW  190   1.542   0.931   2.702 -0.1915 -0.3238 -0.6450
   64SOL    HW1  191   1.470   0.862   2.670  0.8095 -0.2223 -1.6423
   64SOL    HW2  192   1.624   0.876   2.731 -0.8513 -0.1053  3.1396
   65SOL     OW  193   1.986   1.628   2.651  0.7226 -0.5855  0.0842
   65SOL    HW1  194   1.907   1.565   2.673  0.1337 -1.7739  1.9174
   65SOL    HW2  195   2.056   1.581   2.595  0.7197 -0.7932 -0.8673
   66SOL     OW  196   0.196   1.139   1.635  0.1679 -0.0106  0.0997
   66SOL    HW1  197   0.126   1.193   1.581 -1.2525  0.4216 -0.5589
   66SOL    HW2  198   0.264   1.091   1.571  0.8645  2.2986  0.5361
   67SOL     OW  199   2.334   2.897   2.672  0.3266  0.3001  0.8133
   67SOL    HW1  200   2.334   2.887   2.773 -0.1481  2.6605  0.3058
   67SOL    HW2  201   2.426   2.932   2.651  0.2696 -3.9414 -1.0089
   68SOL     OW  202   1.108   2.744   1.125  0.1707  0.3549 -0.3358
   68SOL    HW1  203   1.189   2.798   1.150  1.9847  0.2912  2.3342
   68SOL    HW2  204   1.102   2.718   1.025 -0.7029 -0.5767  0.4786
   69SOL     OW  205   0.666   2.508   0.110 -0.2680 -0.2276 -0.1046
   69SOL    HW1  206   0.750   2.555   0.139 -2.9073 -0.6289  0.6876
   69SOL    HW2  207   0.686   2.426   0.050  0.6519 -1.9322 -1.5450
   70SOL     OW  208   2.839   0.272   2.323 -0.0725  0.4282  0.0746
   70SOL    HW1  209   2.882   0.204   2.382 -2.2879  2.1278 -1.1508
   70SOL    HW2  210   2.908   0.337   2.294  0.4655 -1.0690 -0.5708
   71SOL     OW  211   0.265   1.256   2.504 -0.6891  0.0857 -0.1380
   71SOL    HW1  212   0.167   1.237   2.485  1.2434 -0.9214  2.0453
   71SOL    HW2  213   0.301   1.190   2.578  0.7810 -2.1129 -0.2476
   72SOL     OW  214   0.004   2.116   2.964 -0.1942  0.3502  0.1461
   72SOL    HW1  215   3.061   2.183   3.024 -0.1483  0.8485  2.6533
   72SOL    HW2  216   0.094   2.150   2.937 -0.6931 -1.1701  0.0395
   73SOL     OW  217   1.470   1.177   0.156  0.1170 -0.2592  0.6217
   73SOL    HW1  218   1.472   1.267   0.109 -2.7805  2.2130 -2.9387
   73SOL    HW2  219   1.413   1.172   0.238  1.9943  0.0132 -1.1970
   74SOL     OW  220   2.118   2.651   2.849  0.7654  0.2150 -0.4093
   74SOL    HW1  221   2.106   2.650   2.745 -0.4236  1.6685 -1.7943
   74SOL    HW2  222   2.193   2.717   2.876 -0.7755 -1.0103 -2.3338
   75SOL     OW  223   2.250   2.089   0.962 -0.4972  0.1714 -0.1840
   75SOL    HW1  224   2.304   2.020   1.010  0.1903 -0.1058  0.4101
   75SOL    HW2  225   2.154   2.086   1.000 -0.0848 -1.1695  2.0547
   76SOL     OW  226   2.367   2.611   1.732  0.1310  0.5019 -0.0305
   76SOL    HW1  227   2.460   2.582   1.760 -0.0953 -1.3179 -1.1173
   76SOL    HW2  228   2.294   2.558   1.778  0.6284 -0.9603 -0.1916
   77SOL     OW  229   2.497   0.084   2.074 -0.6848  0.0312  0.0096
   77SOL    HW1  230   2.406   0.068   2.120 -0.2138 -0.9792  0.0358
   77SOL    HW2  231   2.532   0.008   2.011  0.8972  1.1685 -1.5391
   78SOL     OW  232   1.874   1.040   2.985 -0.1171 -0.2802  0.1290
   78SOL    HW1  233   1.879   0.947   2.942  1.0647 -1.6680  1.8762
   78SOL    HW2  234   1.780   1.073   3.000  1.3378  0.7954 -1.4931
   79SOL     OW  235   2.553   1.476   2.444  0.2018  0.3972 -0.2705
   79SOL    HW1  236   2.622   1.553   2.437 -0.2409  1.3077 -0.6466
   79SOL    HW2  237   2.457   1.514   2.442  2.4555 -1.3849  3.6913
   80SOL     OW  238   2.019   1.641   1.635 -0.1562  0.2062 -0.0794
   80SOL    HW1  239   2.022   1.543   1.647 -0.5367 -1.0645  1.3548
   80SOL    HW2  240   2.084   1.682   1.702 -2.1576 -1.1504  0.4409
   81SOL     OW  241   1.784   0.461   1.485  0.2193  0.6810  0.1110
   81SOL    HW1  242   1.872   0.492   1.527 -0.5356 -2.0035  0.6284
   81SOL    HW2  243   1.724   0.537   1.461  2.2144 -0.8189 -0.1088
   82SOL     OW  244   1.983   2.288   1.599 -0.4287  0.1785 -0.1684
   82SOL    HW1  245   2.079   2.314   1.602 -1.6017 -0.1155  0.3555
   82SOL    HW2  246   1.979   2.208   1.531  1.2041 -0.9285 -0.3886
   83SOL     OW  247   2.754   2.919   0.265 -0.5817  0.5076 -0.2124
   83SOL    HW1  248   2.795   2.990   0.321 -1.1286 -1.4045 -0.5268
   83SOL    HW2  249   2.735   2.956   0.173 -2.1784 -0.2133  0.4052
   84SOL     OW  250   0.470   1.222   0.122 -0.8683  0.3596 -0.5756
   84SOL    HW1  251   0.530   1.142   0.150 -2.5463 -2.4778  1.2239
   84SOL    HW2  252   0.434   1.282   0.198 -2.1250  2.5172  0.8293
   85SOL     OW  253   2.724   2.132   1.572 -0.1413 -0.5499 -0.5367
   85SOL    HW1  254   2.745   2.062   1.647  4.4722  3.0522 -0.5473
   85SOL    HW2  255   2.708   2.084   1.481 -1.4124  1.8800 -2.0071
   86SOL     OW  256   0.259   2.676   1.420 -0.0513 -0.8054  0.0536
   86SOL    HW1  257   0.281   2.611   1.343 -0.0156  0.4036 -0.9366
   86SOL    HW2  258   0.330   2.751   1.421  1.1382  1.7988 -0.6445
   87SOL     OW  259   0.475   2.727   2.548 -0.2128  0.0414  0.2191
   87SOL    HW1  260   0.438   2.700   2.460 -1.0990 -2.1174  0.4444
   87SOL    HW2  261   0.537   2.657   2.584 -3.5894  1.6626  1.2766
   88SOL     OW  262   0.413   2.103   0.841  0.0422  0.2872  0.0650
   88SOL    HW1  263   0.509   2.137   0.859  1.5282  0.0526 -0.4415
   88SOL    HW2  264   0.344   2.130   0.907  1.8719 -1.4393 -2.2588
   89SOL     OW  265   0.951   0.704   1.474  0.2317 -0.0060  0.5823
   89SOL    HW1  266   1.027   0.772   1.477 -1.3168 -1.2762 -0.6051
   89SOL    HW2  267   0.996   0.614   1.447  1.2001 -2.2434 -2.1437
   90SOL     OW  268   3.039   1.360   1.729 -0.2623  0.0804  0.0930
   90SOL    HW1  269   0.013   1.414   1.758 -0.1371 -1.0385 -0.5623
   90SOL    HW2  270   2.985   1.344   1.813  1.4613  1.9726 -0.4686
   91SOL     OW  271   1.089   0.891   0.932  0.2430 -0.0859 -0.3092
   91SOL    HW1  272   1.015   0.954   0.901  2.0737  0.8894  2.9522
   91SOL    HW2  273   1.173   0.951   0.914  3.2957 -1.3871  1.1340
   92SOL     OW  274   2.365   1.341   0.742 -0.1815 -0.3184 -0.0090
   92SOL    HW1  275   2.438   1.273   0.769  0.0287 -0.5509  0.9937
   92SOL    HW2  276   2.280   1.341   0.801 -1.4968  3.0532 -2.2116
   93SOL     OW  277   2.292   0.840   2.586 -0.0738 -0.1054 -0.8346
   93SOL    HW1  278   2.347   0.765   2.546 -2.0683  1.0438  1.2011
   93SOL    HW2  279   2.193   0.828   2.567 -0.1250  1.9008  2.0874
   94SOL     OW  280   2.311   1.920   2.651  0.0705  0.1676 -0.0095
   94SOL    HW1  281   2.224   1.956   2.606 -0.5850  0.4940 -2.7521
   94SOL    HW2  282   2.299   1.864   2.737  0.4889 -0.2729  4.6473
   95SOL     OW  283   2.357   0.608   1.165  0.0190 -0.4159 -0.0987
   95SOL    HW1  284   2.268   0.555   1.162 -0.5354 -2.0741 -0.3411
   95SOL    HW2  285   2.427   0.570   1.231  2.4241 -0.3028  0.1177
   96SOL     OW  286   2.714   2.982   1.765  0.5339  0.7981  0.0728
   96SOL    HW1  287   2.663   2.964   1.850 -0.1915 -1.3298  0.4895
   96SOL    HW2  288   2.669   2.934   1.686  0.6130  1.5193  1.2529
   97SOL     OW  289   2.598   1.015   1.229 -0.1309  0.3004 -0.1988
   97SOL    HW1  290   2.513   1.064   1.215  0.4155 -2.6534  0.2934
   97SOL    HW2  291   2.631   1.036   1.327 -1.0336  1.2074 -1.1322
   98SOL     OW  292   1.602   1.940   1.590  0.4828  0.2497  0.2354
   98SOL    HW1  293   1.521   1.918   1.646 -1.0500  0.0227 -0.7616
   98SOL    HW2  294   1.598   2.039   1.563  0.6708  1.7663  1.3162
   99SOL     OW  295   0.015   2.382   1.655  0.5285  0.1855 -0.2435
   99SOL    HW1  296   3.021   2.401   1.672  1.9953  0.1000  0.5904
   99SOL    HW2  297   0.065   2.468   1.676  0.6439  1.5015 -0.5558
  100SOL     OW  298   1.147   0.783   2.822 -0.6975  0.4289 -0.6273
  100SOL    HW1  299   1.059   0.805   2.783  1.0188 -0.2630  0.2219
  100SOL    HW2  300   1.180   0.860   2.886  0.8532  1.2627  1.9533
  101SOL     OW  301   2.144   0.107   2.717 -0.0179 -0.3735  0.1974
  101SOL    HW1  302   2.126   0.068   2.623  0.7893  1.7102 -0.1849
  101SOL    HW2  303   2.192   0.201   2.711 -0.4524  3.5370  1.5081
  102SOL     OW  304   0.541   0.609   1.625  0.3801 -0.5558  0.1642
  102SOL    HW1  305   0.604   0.673   1.573  0.6473 -1.2874  2.2729
  102SOL    HW2  306   0.595   0.554   1.690 -0.6087  0.1324 -1.1621
  103SOL     OW  307   0.175   0.596   2.921  0.2237  0.5647  0.2197
  103SOL    HW1  308   0.165   0.664   2.992  1.5291  0.8186  0.9112
  103SOL    HW2  309   0.270   0.552   2.932 -1.0068 -0.0515  0.4858
  104SOL     OW  310   0.967   0.620   2.488 -0.0413 -0.2739  0.4705
  104SOL    HW1  311   0.898   0.676   2.434 -3.3070  2.1736 -1.3782
  104SOL    HW2  312   0.946   0.520   2.495 -1.3355 -1.3605 -1.2688
  105SOL     OW  313   2.239   1.721   1.779  0.1079 -0.6570  0.0660
  105SOL    HW1  314   2.208   1.775   1.860  0.2482  1.2012  0.3952
  105SOL    HW2  315   2.310   1.772   1.721  4.7894  2.0220 -0.9323
  106SOL     OW  316   1.709   0.341   0.546 -0.1802 -0.2729 -0.5716
  106SOL    HW1  317   1.623   0.308   0.507 -1.0258  1.6530 -1.5317
  106SOL    HW2  318   1.786   0.329   0.478  1.0717 -0.9039 -1.9704
  107SOL     OW  319   2.810   2.184   1.020 -0.3300 -0.2012  0.3200
  107SOL    HW1  320   2.768   2.211   1.108 -0.3806 -0.0471 -1.9613
  107SOL    HW2  321   2.734   2.138   0.968  0.2511  0.9273 -0.5284
  108SOL     OW  322   2.898   2.744   1.508 -0.2178  0.0417 -0.8181
  108SOL    HW1  323   2.906   2.827   1.564  0.4382 -2.4029  0.1913
  108SOL    HW2  324   2.977   2.742   1.441  0.3951  1.2012 -0.5396
  109SOL     OW  325   2.291   2.731   0.688 -0.1567  0.6193 -0.5649
  109SOL    HW1  326   2.314   2.657   0.754 -0.1484  2.4541 -0.2380
  109SOL    HW2  327   2.274   2.816   0.744  0.9922 -0.9363  0.8909
  110SOL     OW  328   0.730   1.729   2.516 -0.0569  0.5202  0.3798
  110SOL    HW1  329   0.656   1.667   2.544 -2.2561  1.3319  0.5515
  110SOL    HW2  330   0.754   1.801   2.589 -0.5468  2.2237  0.8067
  111SOL     OW  331   1.783   2.452   1.990  0.1555 -0.0442 -0.4740
  111SOL    HW1  332   1.713   2.412   2.057 -1.9654 -0.1198  1.0929
  111SOL    HW2  333   1.830   2.381   1.937  1.5049  0.4812 -0.9997
  112SOL     OW  334   1.801   1.808   2.991  0.6717  0.2229  0.1515
  112SOL    HW1  335   1.895   1.780   3.019  2.5544 -1.2221 -1.2660
  112SOL    HW2  336   1.793   1.901   2.950 -0.5351  1.6008  0.9671
  113SOL     OW  337   2.009   2.054   1.456  0.3448  0.0692  0.3439
  113SOL    HW1  338   2.082   2.002   1.405  0.7525  1.7569 -1.1874
  113SOL    HW2  339   1.963   1.996   1.523  0.0049 -1.7603  0.9798
  114SOL     OW  340   2.827   1.255   0.854  0.2989 -0.3623 -0.5139
  114SOL    HW1  341   2.797   1.258   0.754  0.5753 -0.5483 -3.5570
  114SOL    HW2  342   2.746   1.219   0.905  2.7869  1.8095 -0.1777
  115SOL     OW  343   0.802   0.670   3.000 -0.2451  0.2293 -0.4037
  115SOL    HW1  344   0.712   0.703   3.024  3.6016 -0.9720  0.0624
  115SOL    HW2  345   0.801   0.635   2.904  1.5314  2.9127 -1.3611
  116SOL     OW  346   2.678   1.795   2.667 -0.3213  0.2175 -0.1638
  116SOL    HW1  347   2.630   1.867   2.610 -2.6753  2.3176  1.4540
  116SOL    HW2  348   2.616   1.723   2.697  0.3867 -0.5407 -0.6371
  117SOL     OW  349   2.984   2.879   0.563 -0.1781  0.1281  0.4466
  117SOL    HW1  350   3.052   2.819   0.521 -0.0147 -1.3496  0.0857
  117SOL    HW2  351   2.909   2.823   0.595 -0.8281  1.3350 -2.2991
  118SOL     OW  352   0.901   1.753   2.924  0.0628  0.1189  0.1147
  118SOL    HW1  353   0.874   1.777   3.019 -2.1956 -0.7742 -0.5254
  118SOL    HW2  354   0.995   1.718   2.932  2.2063  0.8121  0.0179
  119SOL     OW  355   0.290   2.195   0.217 -0.4529 -0.0440 -0.3710
  119SOL    HW1  356   0.197   2.177   0.249  0.0032  1.3846 -1.1803
  119SOL    HW2  357   0.355   2.143   0.281  1.1432 -2.4609  1.5549
  120SOL     OW  358   1.259   0.549   2.806 -0.0905 -0.0843 -0.1916
  120SOL    HW1  359   1.347   0.568   2.855 -0.8972  0.1314 -1.4795
  120SOL    HW2  360   1.199   0.636   2.810 -0.6025  1.6199  0.1284
  121SOL     OW  361   1.234   2.597   0.515  0.3798 -0.5647  0.0768
  121SOL    HW1  362   1.293   2.521   0.563  1.3116 -4.2552  2.2042
  121SOL    HW2  363   1.266   2.608   0.419  0.0568 -0.4858  0.9571
  122SOL     OW  364   2.383   2.600   1.458 -0.0870 -0.0233 -0.3150
  122SOL    HW1  365   2.481   2.622   1.446 -0.0823 -0.1347 -1.0492
  122SOL    HW2  366   2.352   2.611   1.556  1.3815 -1.0266 -0.1962
  123SOL     OW  367   0.756   1.859   0.534 -0.0287  0.9989  0.2208
  123SOL    HW1  368   0.820   1.883   0.456  0.0381  0.1176 -1.0943
  123SOL    HW2  369   0.696   1.937   0.542  0.8132 -0.3296  2.6902
  124SOL     OW  370   2.778   0.632   0.267 -0.0976 -0.0033  0.3415
  124SOL    HW1  371   2.818   0.552   0.314 -1.7204  0.2857 -0.9229
  124SOL    HW2  372   2.737   0.694   0.342  1.5596  0.8267 -1.5805
  125SOL     OW  373   0.533   0.856   0.416 -0.1448  0.0613 -0.4646
  125SOL    HW1  374   0.515   0.792   0.340 -1.0482 -0.8741  1.2565
  125SOL    HW2  375   0.453   0.868   0.476  4.5513 -0.4289 -2.4999
  126SOL     OW  376   0.091   1.938   1.181  0.4552  0.3749  0.0752
  126SOL    HW1  377   0.082   1.842   1.148 -0.5676  0.4001 -2.8250
  126SOL    HW2  378   0.005   1.992   1.167 -2.1797 -0.6055  2.5950
  127SOL     OW  379   1.411   1.855   1.773 -0.0451  0.6026 -0.2982
  127SOL    HW1  380   1.467   1.833   1.855 -0.6502 -1.3103  0.7302
  127SOL    HW2  381   1.346   1.933   1.784  1.8065 -2.7944  0.2659
  128SOL     OW  382   1.252   1.140   0.314 -0.1307 -0.1934  0.0100
  128SOL    HW1  383   1.200   1.124   0.225 -0.7192 -1.4538  0.4910
  128SOL    HW2  384   1.207   1.223   0.364 -1.4482 -1.1648  0.3983
  129SOL     OW  385   2.014   1.131   0.823 -0.0830 -0.5572 -0.1061
  129SOL    HW1  386   2.086   1.093   0.764 -0.7318 -0.4781 -0.0504
  129SOL    HW2  387   1.949   1.183   0.762 -0.1167 -1.7456 -1.3496
  130SOL     OW  388   2.676   1.657   1.683 -0.1919 -0.8342 -0.1117
  130SOL    HW1  389   2.603   1.626   1.617  2.4433 -1.6780 -2.4402
  130SOL    HW2  390   2.766   1.617   1.652  2.4741  0.9137  0.1359
  131SOL     OW  391   3.002   2.766   2.968  0.0768 -0.0243  0.4477
  131SOL    HW1  392   2.924   2.732   3.024  3.5001  0.0255 -0.4782
  131SOL    HW2  393   2.967   2.805   2.881  0.4934  2.1191 -2.0850
  132SOL     OW  394   3.083   1.394   0.431 -0.2067 -0.2473 -0.2548
  132SOL    HW1  395   3.047   1.455   0.355  1.3713 -0.0609 -0.8849
  132SOL    HW2  396   3.035   1.309   0.431  3.1171  2.8773 -1.7334
  133SOL     OW  397   0.579   0.300   1.530 -0.1517  0.1106  0.7819
  133SOL    HW1  398   0.499   0.288   1.593  0.1399 -2.6107 -1.0873
  133SOL    HW2  399   0.674   0.293   1.573  1.3924  0.1835 -1.1524
  134SOL     OW  400   0.371   1.724   3.103 -0.0761  0.0104  0.0734
  134SOL    HW1  401   0.319   1.638   3.085  0.0445 -1.7535 -1.7317
  134SOL    HW2  402   0.358   1.795   3.031  0.7881  0.1017 -0.0142
  135SOL     OW  403   1.588   0.541   1.840 -0.0700 -0.1285 -0.2979
  135SOL    HW1  404   1.556   0.637   1.820  1.6525  1.6535 -1.8877
  135SOL    HW2  405   1.539   0.509   1.925 -2.3512 -0.4636  2.2538
  136SOL     OW  406   2.990   0.872   0.303 -0.0382  0.5005  0.0102
  136SOL    HW1  407   3.083   0.846   0.290 -2.6485  0.7002 -0.6862
  136SOL    HW2  408   2.938   0.845   0.221  0.2044 -1.7467  0.0477
  137SOL     OW  409   0.174   1.392   1.337  0.0970 -0.3506  0.0948
  137SOL    HW1  410   0.102   1.355   1.397  2.3024 -1.0676 -0.6764
  137SOL    HW2  411   0.148   1.386   1.237 -0.4756 -0.9223 -0.3588
  138SOL     OW  412   2.078   0.571   1.187  0.1311  0.2525 -0.2666
  138SOL    HW1  413   2.003   0.514   1.145 -0.4336  0.6273 -1.5078
  138SOL    HW2  414   2.074   0.571   1.287  0.5978 -2.3897 -2.7260
  139SOL     OW  415   1.330   2.645   0.264  0.0906  0.3142 -0.5425
  139SOL    HW1  416   1.426   2.681   0.278 -2.3174 -0.1454 -0.4974
  139SOL    HW2  417   1.298   2.650   0.170  1.4344 -0.3736  1.1330
  140SOL     OW  418   1.251   1.381   1.548  0.4415 -0.8108 -0.3605
  140SOL    HW1  419   1.160   1.371   1.499 -0.4015  1.6668  1.9415
  140SOL    HW2  420   1.274   1.479   1.565  0.5166 -0.3281  0.3330
  141SOL     OW  421   1.442   1.921   0.378 -0.7054 -0.2011 -0.0531
  141SOL    HW1  422   1.353   1.881   0.393  2.6161  0.7394 -0.0666
  141SOL    HW2  423   1.503   1.915   0.460 -1.4161  1.4208 -0.7840
  142SOL     OW  424   0.885   0.404   0.404 -0.4270  0.1964 -0.3507
  142SOL    HW1  425   0.943   0.351   0.337 -1.2380  1.0300  0.9597
  142SOL    HW2  426   0.833   0.484   0.365  0.4156 -4.3636  1.1264
  143SOL     OW  427   0.320   1.935   2.913  0.2769  0.7711  0.3359
  143SOL    HW1  428   0.302   2.023   2.963 -2.6414 -1.9206 -0.3829
  143SOL    HW2  429   0.319   1.948   2.811 -3.1784  0.8518 -1.5028
  144SOL     OW  430   1.493   2.511   0.882 -0.4732 -0.2254 -0.3966
  144SOL    HW1  431   1.547   2.434   0.916 -0.9758  0.0300 -0.4793
  144SOL    HW2  432   1.541   2.556   0.804  1.3651  1.1026 -1.2588
  145SOL     OW  433   1.777   0.771   2.764  0.0150 -0.2065  0.5987
  145SOL    HW1  434   1.812   0.699   2.702 -0.9569 -1.1582  1.0524
  145SOL    HW2  435   1.766   0.742   2.864 -0.2610 -2.8724  0.3285
  146SOL     OW  436   0.279   2.682   0.861  0.3883  0.1844  0.2351
  146SOL    HW1  437   0.236   2.775   0.858  4.4286 -2.0770 -0.3088
  146SOL    HW2  438   0.205   2.613   0.855  2.0393  0.9883 -0.2582
  147SOL     OW  439   2.097   3.081   1.965 -0.6560  0.3138  0.2414
  147SOL    HW1  440   2.167   3.005   1.954 -1.8943  2.4166 -3.5793
  147SOL    HW2  441   1.998   3.053   1.959  0.7763  1.0383  3.2614
  148SOL     OW  442   1.173   0.060   1.822 -0.0595 -0.1069 -0.2379
  148SOL    HW1  443   1.246   0.083   1.888 -1.0123  1.8198 -0.2875
  148SOL    HW2  444   1.129   3.075   1.841  1.9245  0.3519 -1.7938
  149SOL     OW  445   1.503   0.457   2.083 -0.8448 -0.2544 -0.1918
  149SOL    HW1  446   1.546   0.402   2.162 -1.0804 -2.6029 -0.6951
  149SOL    HW2  447   1.457   0.539   2.121 -1.1628 -0.1497  1.0154
  150SOL     OW  448   2.751   3.015   0.013 -0.4259 -0.2048  0.3583
  150SOL    HW1  449   2.849   3.051   0.008  1.9281  1.2391  2.2853
  150SOL    HW2  450   2.707   3.018   3.025  0.7705  0.0475 -0.2601
  151SOL     OW  451   0.789   1.611   0.563  0.4906  0.1460 -0.0049
  151SOL    HW1  452   0.770   1.707   0.557 -0.2435 -2.2822  1.1670
  151SOL    HW2  453   0.837   1.576   0.480 -0.2599 -0.8622 -0.2317
  152SOL     OW  454   2.925   0.458   0.397 -0.3947  0.0241  0.3844
  152SOL    HW1  455   2.875   0.436   0.479  2.8391 -0.5800  2.4847
  152SOL    HW2  456   3.013   0.496   0.425 -1.0119 -1.6177  0.9725
  153SOL     OW  457   2.872   0.412   1.669  0.3616 -0.3700 -0.3789
  153SOL    HW1  458   2.849   0.500   1.715 -2.2234 -2.8677  2.5113
  153SOL    HW2  459   2.789   0.352   1.662 -1.8916  1.1937  1.4936
  154SOL     OW  460   1.367   3.096   2.068  0.3218 -0.4237 -0.0518
  154SOL    HW1  461   1.412   3.067   2.157  0.7515 -1.5137  2.2490
  154SOL    HW2  462   1.390   3.029   1.998  2.2758 -1.5184  0.4552
  155SOL     OW  463   0.434   1.735   0.873 -0.5193  0.1251 -0.3349
  155SOL    HW1  464   0.429   1.739   0.772  1.2295  1.5602 -0.9126
  155SOL    HW2  465   0.392   1.814   0.914  0.9525 -1.6089 -1.5306
  156SOL     OW  466   2.155   2.177   3.102  0.5701  0.2666 -0.8350
  156SOL    HW1  467   2.112   2.259   3.057  0.9446 -0.0801  1.1950
  156SOL    HW2  468   2.125   2.168   0.098  1.1121 -1.6532  3.0875
  157SOL     OW  469   0.936   0.453   0.015 -0.3769 -0.0263 -0.2922
  157SOL    HW1  470   0.891   0.528   3.074  2.5499 -4.1053  1.6828
  157SOL    HW2  471   1.004   0.408   3.056 -2.5184  0.6287 -0.8349
  158SOL     OW  472   2.293   3.099   2.908  0.1320 -0.4409  0.1576
  158SOL    HW1  473   2.338   0.057   2.969 -2.3128 -1.0103 -1.5367
  158SOL    HW2  474   2.241   0.044   2.835  1.8306 -0.3827  2.5493
  159SOL     OW  475   2.865   0.078   0.378 -0.0422 -0.1702  0.2590
  159SOL    HW1  476   2.909   0.132   0.302 -1.7195 -1.3393  2.0114
  159SOL    HW2  477   2.936   0.074   0.453  0.1514 -0.7740  1.5429
  160SOL     OW  478   1.422   1.859   2.289  0.1209  0.4031 -0.1246
  160SOL    HW1  479   1.370   1.827   2.370 -1.9412 -1.1687  1.9840
  160SOL    HW2  480   1.395   1.809   2.206  0.1002 -0.3695  0.6679
  161SOL     OW  481   2.677   0.925   2.854  0.0441 -0.1108  0.1026
  161SOL    HW1  482   2.736   0.842   2.848 -2.6331 -0.8899  0.1399
  161SOL    HW2  483   2.580   0.912   2.829  1.4113  2.5237 -1.3409
  162SOL     OW  484   0.587   2.409   1.334 -0.2120 -0.1297  0.1054
  162SOL    HW1  485   0.686   2.418   1.314 -0.2236  1.5838  0.1710
  162SOL    HW2  486   0.580   2.348   1.416  1.9978 -2.6728 -0.3321
  163SOL     OW  487   2.046   0.069   2.461  0.0915  0.1008  0.1629
  163SOL    HW1  488   1.949   0.048   2.483  1.3044 -1.3354 -0.8629
  163SOL    HW2  489   2.070   0.034   2.366 -2.3716 -3.0029 -0.7771
  164SOL     OW  490   2.074   1.818   0.244 -0.3813 -0.2970 -0.1123
  164SOL    HW1  491   2.055   1.786   0.149 -0.1638  1.0594 -0.9923
  164SOL    HW2  492   2.068   1.736   0.308  0.1825 -2.2990 -0.9966
  165SOL     OW  493   3.062   0.279   1.531  0.0467  0.4343  0.1501
  165SOL    HW1  494   3.006   0.350   1.580 -0.9087  1.9104 -1.4883
  165SOL    HW2  495   0.041   0.328   1.489 -1.4538  1.8085  0.6849
  166SOL     OW  496   2.225   1.053   2.975 -0.3236 -0.2633 -0.0865
  166SOL    HW1  497   2.280   1.120   2.921 -0.1280 -1.1475  2.8625
  166SOL    HW2  498   2.139   1.094   3.011  0.2913  0.8719  2.3605
  167SOL     OW  499   2.889   0.759   0.067  0.2628  0.0159 -0.1644
  167SOL    HW1  500   2.839   0.717   0.149  0.3980  2.2046  1.6562
  167SOL    HW2  501   2.921   0.684   0.004 -2.3423  0.1946  0.5585
  168SOL     OW  502   1.557   2.897   2.632 -0.0519 -0.7101  0.2299
  168SOL    HW1  503   1.636   2.841   2.655  1.8552 -0.8729 -0.9695
  168SOL    HW2  504   1.582   2.988   2.593 -0.4208 -0.3551 -0.2206
  169SOL     OW  505   0.125   1.422   0.664  0.0524 -0.2368 -0.0160
  169SOL    HW1  506   0.216   1.377   0.673 -0.1525 -0.9608  2.4397
  169SOL    HW2  507   0.080   1.411   0.571 -0.4884  1.1769  0.0034
  170SOL     OW  508   0.115   0.421   1.349  0.0686 -0.4136 -0.3400
  170SOL    HW1  509   0.199   0.465   1.389 -0.6272 -1.4758 -2.1045
  170SOL    HW2  510   0.091   0.461   1.259 -0.0642  0.5853  1.0059
  171SOL     OW  511   1.572   2.032   2.598  0.4811 -0.4355  0.5761
  171SOL    HW1  512   1.568   2.086   2.510  1.0464  1.3609 -1.4919
  171SOL    HW2  513   1.624   1.942   2.583  0.3194  0.2376  0.7903
  172SOL     OW  514   3.079   2.689   1.332  0.2180 -0.8284 -0.0785
  172SOL    HW1  515   3.095   2.656   1.240 -0.6782  0.0503  0.1304
  172SOL    HW2  516   0.056   2.672   1.392  1.5372 -0.1906 -0.4121
  173SOL     OW  517   1.259   0.854   0.201 -0.2123 -1.0146  0.4490
  173SOL    HW1  518   1.293   0.940   0.233 -3.5610 -0.3521 -1.2761
  173SOL    HW2  519   1.302   0.834   0.113 -3.0539  1.6366  0.7992
  174SOL     OW  520   0.878   0.118   2.631  0.3349 -0.3877  0.3190
  174SOL    HW1  521   0.778   0.106   2.649 -0.2493 -1.4860  1.9760
  174SOL    HW2  522   0.939   0.038   2.652  0.6123  0.5987 -1.0761
  175SOL     OW  523   2.142   1.880   0.625 -0.0382  0.5468 -0.0666
  175SOL    HW1  524   2.129   1.978   0.596 -1.5777 -0.7353 -0.0585
  175SOL    HW2  525   2.065   1.842   0.679  1.1782 -2.1841  0.9947
  176SOL     OW  526   1.237   0.066   0.118 -0.9811  0.1203 -0.6828
  176SOL    HW1  527   1.143   0.064   0.077 -0.3720 -4.0972 -0.5025
  176SOL    HW2  528   1.252   0.153   0.167 -1.0025  1.1318  0.4766
  177SOL     OW  529   1.094   1.372   0.463  0.0702 -0.1969 -0.4944
  177SOL    HW1  530   1.000   1.396   0.430  0.2092  0.9105  1.3566
  177SOL    HW2  531   1.157   1.398   0.389  0.9722  0.3876  2.6322
  178SOL     OW  532   2.556   2.464   3.100  0.3671 -0.2540 -0.3258
  178SOL    HW1  533   2.631   2.393   3.097 -1.4349 -2.8482 -2.1006
  178SOL    HW2  534   2.495   2.451   0.079 -0.7559 -3.1571  0.6495
  179SOL     OW  535   2.559   3.032   2.901  0.1327  0.1527 -0.0439
  179SOL    HW1  536   2.466   3.033   2.933  2.7337 -2.5873 -1.5006
  179SOL    HW2  537   2.562   3.017   2.800 -0.4380 -0.9195 -1.3310
  180SOL     OW  538   1.658   1.519   0.696 -0.5831 -0.2772 -0.2082
  180SOL    HW1  539   1.714   1.440   0.663 -0.1030 -0.1816  3.0440
  180SOL    HW2  540   1.594   1.557   0.626  1.5109  0.6882  0.9422
  181SOL     OW  541   1.776   1.017   2.325  0.3741 -0.2959 -0.6804
  181SOL    HW1  542   1.738   1.030   2.417  0.5708  2.8427  1.5478
  181SOL    HW2  543   1.756   0.921   2.289  1.5338 -1.3044 -0.1331
  182SOL     OW  544   2.566   3.038   2.634 -0.0064  0.1674  0.5548
  182SOL    HW1  545   2.517   0.016   2.594  0.2131  0.7551 -2.1758
  182SOL    HW2  546   2.635   3.001   2.566 -1.0358 -0.8689  1.5964
  183SOL     OW  547   1.663   0.749   2.231 -0.5468  0.2933  0.5211
  183SOL    HW1  548   1.721   0.681   2.179  0.9144 -0.7246 -0.7056
  183SOL    HW2  549   1.563   0.727   2.219 -1.7920  0.9779 -0.3457
  184SOL     OW  550   3.083   1.263   1.470 -0.3244  0.1848 -0.1404
  184SOL    HW1  551   3.015   1.269   1.396  2.3922  0.1738 -0.0547
  184SOL    HW2  552   3.049   1.287   1.562  1.5401  1.5939 -0.4276
  185SOL     OW  553   1.901   0.666   0.520 -0.2128 -0.3696  0.2811
  185SOL    HW1  554   1.920   0.719   0.602 -0.6442  1.1544 -3.1501
  185SOL    HW2  555   1.970   0.591   0.511 -2.5032 -0.3564  0.3265
  186SOL     OW  556   0.295   2.738   2.998 -0.1959 -0.0739  0.2384
  186SOL    HW1  557   0.239   2.681   3.063  0.0793  1.6102 -0.7498
  186SOL    HW2  558   0.247   2.783   2.923  0.8761  0.7285 -1.7408
  187SOL     OW  559   2.558   1.001   0.103  0.1295  0.3419  0.1486
  187SOL    HW1  560   2.645   0.982   0.056  0.5496  2.3479  0.9267
  187SOL    HW2  561   2.526   1.097   0.089 -0.4044 -0.6698  0.3527
  188SOL     OW  562   2.967   1.653   1.323  0.2563  0.3801 -0.0502
  188SOL    HW1  563   2.925   1.598   1.397  1.7415  1.2146  1.2894
  188SOL    HW2  564   2.983   1.746   1.361 -0.0572  1.5730 -1.3603
  189SOL     OW  565   2.508   0.368   2.937  0.5911 -0.5620 -0.0488
  189SOL    HW1  566   2.497   0.414   2.850  1.5825 -0.3364  1.0871
  189SOL    HW2  567   2.536   0.440   3.006  0.6722  1.1566 -0.6442
  190SOL     OW  568   1.553   1.116   1.841  0.2394 -0.0785 -0.2620
  190SOL    HW1  569   1.487   1.136   1.761  0.6333 -0.9120 -2.6276
  190SOL    HW2  570   1.510   1.101   1.931  1.6352 -1.2245  2.0920
  191SOL     OW  571   0.594   0.309   1.852  0.1958 -0.2124  0.1628
  191SOL    HW1  572   0.655   0.231   1.874  0.3758  0.6495  2.8605
  191SOL    HW2  573   0.519   0.284   1.787 -0.9191  0.1037 -0.7004
  192SOL     OW  574   2.012   1.420   1.162  0.3184 -0.1143  0.1874
  192SOL    HW1  575   1.916   1.422   1.130 -1.2011 -3.1098  1.4788
  192SOL    HW2  576   2.022   1.430   1.266  0.4760 -0.2528  2.7461
  193SOL     OW  577   1.658   0.714   0.896 -0.2339 -0.5018  0.5116
  193SOL    HW1  578   1.682   0.802   0.942 -4.8843 -1.5811  0.9558
  193SOL    HW2  579   1.680   0.717   0.798 -1.3791  3.0910  0.7137
  194SOL     OW  580   1.056   2.383   1.565  0.5034  0.1954 -0.1660
  194SOL    HW1  581   1.096   2.424   1.480 -1.9038  2.3632  0.4921
  194SOL    HW2  582   0.994   2.309   1.538  1.4959 -2.1434 -1.6748
  195SOL     OW  583   1.925   3.082   3.006 -0.1433  0.1700  0.2206
  195SOL    HW1  584   1.931   3.009   3.076  0.7256  4.9389 -0.2406
  195SOL    HW2  585   1.940   3.044   2.909 -0.5737 -2.4132 -1.6248
  196SOL     OW  586   0.668   1.949   1.846 -0.0920 -0.1190  0.1814
  196SOL    HW1  587   0.586   1.942   1.783 -0.1844 -0.0197 -5.7906
  196SOL    HW2  588   0.701   1.859   1.874 -3.5029 -1.6262 -0.3787
  197SOL     OW  589   1.057   0.120   1.234 -0.1258 -0.3193  0.7060
  197SOL    HW1  590   1.143   0.170   1.221 -1.1647  0.4318  1.4565
  197SOL    HW2  591   0.975   0.176   1.273 -1.8661  0.1177  1.6611
  198SOL     OW  592   0.747   1.019   1.032 -0.1993  0.1827  0.2742
  198SOL    HW1  593   0.785   0.953   1.101  1.0126 -0.7062  1.3522
  198SOL    HW2  594   0.806   1.031   0.955 -1.6280  0.2696  0.2031
  199SOL     OW  595   0.179   2.600   1.702 -0.2312  0.1657  0.5575
  199SOL    HW1  596   0.263   2.582   1.759 -0.6070  0.3273  0.5696
  199SOL    HW2  597   0.201   2.622   1.603  0.3051  2.0875  0.7041
  200SOL     OW  598   1.779   1.646   2.016 -0.0667  0.2145 -0.2502
  200SOL    HW1  599   1.846   1.572   2.050  1.7839  0.4671  0.8287
  200SOL    HW2  600   1.819   1.671   1.930 -0.3939 -3.4623  3.4577
  201SOL     OW  601   0.372   1.518   2.462 -0.5432 -0.2286  1.0699
  201SOL    HW1  602   0.335   1.428   2.481 -0.5437  2.5709 -0.9050
  201SOL    HW2  603   0.457   1.534   2.505 -5.6434  1.3855 -1.3622
  202SOL     OW  604   1.767   0.518   3.078 -0.3481 -0.2536 -0.1825
  202SOL    HW1  605   1.814   0.437   3.041  1.2613 -1.5814  1.2236
  202SOL    HW2  606   1.746   0.495   0.072 -1.3874 -0.6827  1.3535
  203SOL     OW  607   1.106   2.475   2.007  0.4177 -0.3124  0.8148
  203SOL    HW1  608   1.052   2.481   2.095  2.6002 -1.3445 -1.7275
  203SOL    HW2  609   1.049   2.452   1.924 -0.3094  2.1948 -2.6083
  204SOL     OW  610   1.101   2.038   1.545 -0.1929 -0.4845 -0.4687
  204SOL    HW1  611   1.025   2.102   1.539  1.4712  0.8929 -0.7963
  204SOL    HW2  612   1.154   2.043   1.634 -0.3090 -1.1360  0.9968
  205SOL     OW  613   1.533   1.771   2.011 -0.0231  0.4556 -0.2292
  205SOL    HW1  614   1.623   1.732   2.016  0.4874  1.1258 -1.8923
  205SOL    HW2  615   1.458   1.708   2.036 -0.9576  3.7173 -1.4155
  206SOL     OW  616   0.054   1.083   2.479  0.1132  0.1322 -0.3043
  206SOL    HW1  617   0.013   1.033   2.552 -0.4835  0.8535 -0.8756
  206SOL    HW2  618   0.088   1.029   2.404  0.5084  3.3609  1.2349
  207SOL     OW  619   1.114   2.908   1.881 -0.3351  0.5809 -0.4532
  207SOL    HW1  620   1.095   2.907   1.983  1.1165  1.3084  1.4464
  207SOL    HW2  621   1.079   2.825   1.833  2.3419  1.1460  1.0847
  208SOL     OW  622   0.781   2.924   1.797 -0.1476  0.0995  0.0887
  208SOL    HW1  623   0.862   2.890   1.846  0.9514  0.8191  1.6308
  208SOL    HW2  624   0.707   2.853   1.794  0.0615 -0.5970  0.5412
  209SOL     OW  625   1.552   0.153   0.032 -0.8499 -0.1240 -0.0035
  209SOL    HW1  626   1.588   0.186   0.121  0.4901 -0.5652  0.3245
  209SOL    HW2  627   1.451   0.131   0.027  1.2589  0.1175  0.9626
  210SOL     OW  628   2.834   0.823   0.856 -0.3003  0.3207  0.5355
  210SOL    HW1  629   2.886   0.761   0.916 -1.0808 -0.6714 -0.4370
  210SOL    HW2  630   2.891   0.845   0.774  1.4747  3.4795 -1.1188
  211SOL     OW  631   0.538   0.381   1.274  0.0511  0.1431  0.1114
  211SOL    HW1  632   0.555   0.475   1.248  0.0102 -1.6650  1.8048
  211SOL    HW2  633   0.543   0.364   1.374 -1.0422 -1.0443 -1.9386
  212SOL     OW  634   1.613   1.903   1.329  0.3511 -0.1566  0.0199
  212SOL    HW1  635   1.610   1.906   1.429 -0.1990 -0.1854 -1.0930
  212SOL    HW2  636   1.672   1.979   1.292  1.4922  1.8994 -1.8647
  213SOL     OW  637   2.265   0.365   1.709 -0.4219 -0.6592  0.4836
  213SOL    HW1  638   2.303   0.274   1.677  0.7277  0.1693  0.8818
  213SOL    HW2  639   2.331   0.430   1.671  0.9692 -1.6892  2.9637
  214SOL     OW  640   0.758   2.592   2.356  0.3762 -0.4173 -0.6732
  214SOL    HW1  641   0.781   2.693   2.364  0.5564  3.3611  0.3452
  214SOL    HW2  642   0.705   2.562   2.439 -0.1416 -1.5025  2.6650
  215SOL     OW  643   2.797   1.935   1.737  0.3941 -0.1749  0.2105
  215SOL    HW1  644   2.745   1.855   1.704  1.2032  3.0952 -0.9436
  215SOL    HW2  645   2.900   1.923   1.741 -2.3173 -0.2739 -0.6541
  216SOL     OW  646   0.640   1.017   1.638 -0.0387 -0.1011 -0.3058
  216SOL    HW1  647   0.717   1.043   1.576  0.3863 -0.2998  2.2786
  216SOL    HW2  648   0.589   1.106   1.661 -0.0367  2.3538 -0.6940
  217SOL     OW  649   2.692   0.444   0.622 -0.0804 -0.6538 -0.0035
  217SOL    HW1  650   2.666   0.534   0.662 -1.3948  1.9053  3.0241
  217SOL    HW2  651   2.692   0.386   0.706 -0.4807 -1.2841  2.3572
  218SOL     OW  652   1.994   2.042   1.051 -0.3025  0.2096  0.4914
  218SOL    HW1  653   1.955   2.068   0.963 -1.6211 -1.8210 -0.5648
  218SOL    HW2  654   1.932   2.066   1.128 -2.1718 -2.4316 -0.8737
  219SOL     OW  655   1.641   0.010   0.549 -0.5925  0.0686 -0.5255
  219SOL    HW1  656   1.729   0.001   0.590  0.7936 -0.1992 -0.7230
  219SOL    HW2  657   1.589   3.026   0.553  0.2557 -1.7253  0.4448
  220SOL     OW  658   1.649   2.120   0.649  0.4167  0.1044  0.0884
  220SOL    HW1  659   1.564   2.150   0.595 -1.4442  0.3209 -1.2013
  220SOL    HW2  660   1.657   2.019   0.661  1.1465 -2.5990  0.8257
  221SOL     OW  661   2.768   1.227   0.338 -0.2820 -0.1983  0.0424
  221SOL    HW1  662   2.664   1.245   0.343  0.0547  0.7755 -1.0088
  221SOL    HW2  663   2.799   1.223   0.241 -1.8714 -1.9120 -0.1236
  222SOL     OW  664   0.798   2.107   1.230 -0.0099 -0.6839 -0.0839
  222SOL    HW1  665   0.807   2.043   1.151 -0.0177 -0.7736  0.3098
  222SOL    HW2  666   0.811   2.201   1.187 -1.0628  2.1716 -1.7353
  223SOL     OW  667   1.271   0.255   0.308  0.7029  0.2841 -0.0463
  223SOL    HW1  668   1.239   0.344   0.269  2.2538  0.8415  0.7581
  223SOL    HW2  669   1.200   0.214   0.368 -1.7685  0.2277  1.0241
  224SOL     OW  670   2.882   1.180   1.281  0.0278  0.0061 -0.1331
  224SOL    HW1  671   2.801   1.168   1.347 -1.1273 -2.2591  0.9413
  224SOL    HW2  672   2.877   1.251   1.210  3.9858 -0.4797  1.3919
  225SOL     OW  673   0.581   1.579   1.508  0.0996 -0.0997  0.4995
  225SOL    HW1  674   0.621   1.491   1.533 -1.9862  3.0135 -1.0692
  225SOL    HW2  675   0.484   1.564   1.489  2.3631 -0.1070  0.1175
  226SOL     OW  676   0.751   2.625   0.714  0.5148  0.3668  0.0650
  226SOL    HW1  677   0.706   2.605   0.625  1.3212 -2.0025  2.4186
  226SOL    HW2  678   0.707   2.585   0.799 -4.8675  0.2766  2.3115
  227SOL     OW  679   1.251   1.648   1.705  0.4958 -0.0632 -0.2723
  227SOL    HW1  680   1.190   1.681   1.631 -0.9863 -2.3535  1.1983
  227SOL    HW2  681   1.309   1.722   1.745  1.2472  0.1817  1.4752
  228SOL     OW  682   0.854   0.262   1.725  0.2670  0.0800 -0.0780
  228SOL    HW1  683   0.856   0.367   1.716  1.5642  0.4175  1.5953
  228SOL    HW2  684   0.933   0.227   1.666 -0.9255 -0.2888  0.6561
  229SOL     OW  685   2.806   0.659   2.820  0.0583 -0.0407 -0.5958
  229SOL    HW1  686   2.848   0.683   2.732 -1.3898  2.0434  0.6371
  229SOL    HW2  687   2.874   0.631   2.892 -0.4223 -0.1686  2.0177
  230SOL     OW  688   0.341   1.050   1.428  0.3911 -0.0022  0.0872
  230SOL    HW1  689   0.333   1.066   1.329 -0.8662  1.3297  1.0920
  230SOL    HW2  690   0.321   0.949   1.439  1.2873 -2.2232  0.8812
  231SOL     OW  691   1.153   2.793   1.561 -0.0226 -0.0992 -0.0353
  231SOL    HW1  692   1.078   2.752   1.506  0.2359  0.2443 -2.9278
  231SOL    HW2  693   1.183   2.876   1.507 -1.1264  0.3484 -3.0974
  232SOL     OW  694   0.016   2.210   0.264  0.4988  0.4573  0.0398
  232SOL    HW1  695   3.032   2.193   0.310  2.0880 -0.8643 -0.4371
  232SOL    HW2  696   0.022   2.313   0.254  0.5605  0.0719  0.3463
  233SOL     OW  697   1.200   2.570   2.862  0.3374 -0.0449  0.0620
  233SOL    HW1  698   1.131   2.564   2.789 -0.5872 -0.8876 -0.5975
  233SOL    HW2  699   1.275   2.626   2.817  0.9731  1.0520 -0.9710
  234SOL     OW  700   0.596   1.264   1.801  0.1642 -0.0576  0.3275
  234SOL    HW1  701   0.593   1.300   1.703 -3.2107  0.4075  0.8856
  234SOL    HW2  702   0.520   1.319   1.858 -2.1660  2.9343  2.8871
  235SOL     OW  703   3.070   2.472   2.484  0.4374 -0.1970 -0.6399
  235SOL    HW1  704   0.067   2.480   2.482  0.2752  1.0569  0.0128
  235SOL    HW2  705   3.035   2.426   2.571  0.1273 -0.2394  0.6509
  236SOL     OW  706   1.486   2.146   2.822  0.5113 -0.1685  0.3349
  236SOL    HW1  707   1.499   2.125   2.721  0.3996  0.6833  0.4869
  236SOL    HW2  708   1.424   2.225   2.836 -0.6983 -3.6471 -0.2049
  237SOL     OW  709   1.757   0.994   0.722 -0.0955  0.1453 -0.2112
  237SOL    HW1  710   1.678   0.981   0.659 -3.1099  0.6873  1.9725
  237SOL    HW2  711   1.845   0.966   0.675 -1.7350  1.3277 -2.2462
  238SOL     OW  712   1.349   2.696   2.036  0.0327  0.0728 -0.0769
  238SOL    HW1  713   1.269   2.635   2.004 -1.1453 -1.5481 -3.1949
  238SOL    HW2  714   1.357   2.780   1.981 -1.0615 -0.1142  0.5544
  239SOL     OW  715   0.915   2.327   1.784  0.3583  0.2040  0.3744
  239SOL    HW1  716   0.925   2.236   1.824  1.1328  2.6768 -0.9926
  239SOL    HW2  717   0.980   2.340   1.707  0.2672 -0.2247 -1.2398
  240SOL     OW  718   2.327   0.122   0.944 -0.4903 -0.1676  0.3319
  240SOL    HW1  719   2.412   0.065   0.954 -2.8204 -2.6622  1.7967
  240SOL    HW2  720   2.338   0.185   0.862 -0.7900  2.6907  1.2295
  241SOL     OW  721   1.155   1.676   2.995 -0.9356  0.2746  0.0856
  241SOL    HW1  722   1.186   1.709   3.085 -2.5656 -3.7380 -3.4275
  241SOL    HW2  723   1.209   1.594   2.963  0.4050 -0.9437 -2.1231
  242SOL     OW  724   2.798   0.985   3.078 -0.1770  0.0388 -0.4609
  242SOL    HW1  725   2.829   0.897   0.013 -2.2350  0.5129 -0.0577
  242SOL    HW2  726   2.749   0.966   2.989 -0.7599 -0.2830 -1.4741
  243SOL     OW  727   0.865   0.532   1.696  0.3545 -0.3132  0.5646
  243SOL    HW1  728   0.901   0.581   1.776 -1.0752 -0.1150  1.0782
  243SOL    HW2  729   0.887   0.585   1.614  0.5081 -4.7712  0.3678
  244SOL     OW  730   1.145   2.838   2.941  0.2265 -0.1361  0.2746
  244SOL    HW1  731   1.142   2.741   2.905  0.9752 -2.3667 -1.9352
  244SOL    HW2  732   1.217   2.838   3.012  0.0373  0.8914 -0.0690
  245SOL     OW  733   1.517   2.625   2.943  0.1963 -0.2570  0.5337
  245SOL    HW1  734   1.503   2.548   3.002 -0.8485  2.6232  0.6792
  245SOL    HW2  735   1.598   2.682   2.966 -0.0825  2.7327 -0.6034
  246SOL     OW  736   0.682   1.042   2.122  0.0812  0.5759 -0.5067
  246SOL    HW1  737   0.629   0.998   2.050  1.2650  0.4532  2.5701
  246SOL    HW2  738   0.618   1.076   2.194  0.9146 -1.5277  3.2863
  247SOL     OW  739   3.099   0.624   2.430  0.4987 -0.3096 -0.7387
  247SOL    HW1  740   0.002   0.547   2.362  2.4335 -0.1709  2.3289
  247SOL    HW2  741   0.047   0.602   2.517  2.0872  0.3428  1.3506
  248SOL     OW  742   0.150   1.259   2.067 -0.0047 -0.0034  0.1747
  248SOL    HW1  743   0.064   1.208   2.091  1.8124  1.2202 -1.0259
  248SOL    HW2  744   0.231   1.197   2.075  0.0987  1.9947  1.3725
  249SOL     OW  745   2.974   0.261   0.211 -0.4985 -0.2546  0.1042
  249SOL    HW1  746   3.077   0.258   0.223  3.2367  0.3954 -0.7824
  249SOL    HW2  747   2.932   0.329   0.275  1.1320  0.8059  3.5232
  250SOL     OW  748   2.709   0.175   2.984  0.5258 -0.0334 -0.3174
  250SOL    HW1  749   2.738   0.107   2.915 -0.1265  1.9650  2.3892
  250SOL    HW2  750   2.621   0.221   2.951 -0.7415 -2.5564  2.9940
  251SOL     OW  751   1.030   1.675   1.871 -0.0806  0.4646  0.0694
  251SOL    HW1  752   1.070   1.763   1.901 -0.0960 -1.9595 -2.1105
  251SOL    HW2  753   1.087   1.643   1.798 -1.7169  0.2525  0.2516
  252SOL     OW  754   2.195   1.669   1.435  0.0310 -0.4012 -0.2723
  252SOL    HW1  755   2.215   1.597   1.362  2.5607  1.6943 -3.2632
  252SOL    HW2  756   2.112   1.641   1.492 -1.1389 -2.6713  0.7268
  253SOL     OW  757   1.895   2.158   2.191 -0.6498  0.3511 -0.1406
  253SOL    HW1  758   1.921   2.222   2.267 -1.2098  5.7590  0.3343
  253SOL    HW2  759   1.954   2.181   2.111 -0.1979  0.3326  3.6107
  254SOL     OW  760   0.600   2.461   2.167 -0.8666  0.8376  0.1289
  254SOL    HW1  761   0.637   2.430   2.074  0.7614  0.3566 -4.4114
  254SOL    HW2  762   0.668   2.521   2.215 -0.3977  0.8006 -1.1289
  255SOL     OW  763   1.022   0.448   0.639 -0.4009 -0.2250  0.3142
  255SOL    HW1  764   0.978   0.418   0.555  1.0337 -2.0117  2.3327
  255SOL    HW2  765   1.088   0.525   0.628 -1.2003 -2.3679  0.6959
  256SOL     OW  766   2.371   2.138   1.470  0.3436  0.1196 -0.2670
  256SOL    HW1  767   2.398   2.202   1.396 -0.5206  0.1554 -0.4479
  256SOL    HW2  768   2.293   2.078   1.433 -0.9766 -1.7994 -1.2339
  257SOL     OW  769   0.580   2.525   2.883  0.0787  0.4617 -0.5393
  257SOL    HW1  770   0.634   2.451   2.928 -1.9953 -0.1320  1.5278
  257SOL    HW2  771   0.570   2.603   2.948  0.2894  0.1872  1.8284
  258SOL     OW  772   0.512   0.788   2.111 -0.2240  0.4824 -0.3906
  258SOL    HW1  773   0.555   0.699   2.113 -1.6787 -0.6226 -2.6490
  258SOL    HW2  774   0.489   0.810   2.016 -1.3928  0.2836 -0.4423
  259SOL     OW  775   0.884   1.190   2.224  0.3421 -0.5305  0.1299
  259SOL    HW1  776   0.858   1.289   2.244 -2.6195 -0.0920  1.1746
  259SOL    HW2  777   0.811   1.142   2.171 -0.5761 -1.5119 -1.6221
  260SOL     OW  778   1.998   0.851   0.698  0.9961 -0.4364  0.5010
  260SOL    HW1  779   2.015   0.848   0.801  1.9286 -0.8959  1.7637
  260SOL    HW2  780   2.067   0.898   0.645  0.6479  0.2461 -3.2523
  261SOL     OW  781   0.840   0.268   0.799  0.5655 -0.1327  0.0639
  261SOL    HW1  782   0.792   0.243   0.712 -0.9512 -2.0814  0.7641
  261SOL    HW2  783   0.929   0.319   0.785  2.6056 -1.1747 -1.8173
  262SOL     OW  784   2.332   2.556   2.426  0.0281 -0.6957  0.4028
  262SOL    HW1  785   2.276   2.635   2.460  1.7923 -0.3832 -0.3954
  262SOL    HW2  786   2.323   2.473   2.483  1.2987  2.2538  1.9014
  263SOL     OW  787   0.622   1.615   3.085 -0.1614  0.2399 -0.0177
  263SOL    HW1  788   0.633   1.562   3.000 -2.9515 -0.3843 -1.0004
  263SOL    HW2  789   0.539   1.668   3.078  4.9569 -2.2122  0.3498
  264SOL     OW  790   0.233   1.822   1.566  0.2703  1.1872  0.5731
  264SOL    HW1  791   0.260   1.859   1.659  0.5255 -0.8544 -0.2511
  264SOL    HW2  792   0.230   1.893   1.491  0.6513  0.5025  1.1468
  265SOL     OW  793   0.961   0.786   0.519 -0.1850  0.0794 -0.6229
  265SOL    HW1  794   0.886   0.735   0.468  0.4931 -0.3453  0.0744
  265SOL    HW2  795   0.974   0.746   0.615  0.6244 -0.5559  0.1515
  266SOL     OW  796   1.250   1.996   0.027 -0.3820 -0.0187  0.2023
  266SOL    HW1  797   1.314   2.045   0.088  3.0371  2.1815  0.6255
  266SOL    HW2  798   1.306   1.970   3.050 -0.7258 -1.2992 -1.2777
  267SOL     OW  799   0.407   0.461   2.958 -0.2719  0.8647 -0.0958
  267SOL    HW1  800   0.385   0.370   2.991 -2.1742 -1.3737 -1.3023
  267SOL    HW2  801   0.461   0.454   2.869  0.9811 -0.4807 -2.3638
  268SOL     OW  802   0.808   0.625   2.719  0.2732  0.0122  0.4594
  268SOL    HW1  803   0.865   0.561   2.662 -2.1793 -0.0789  4.0348
  268SOL    HW2  804   0.771   0.701   2.657 -1.7807  1.7198 -0.3634
  269SOL     OW  805   1.801   3.079   2.530  0.9241  0.6754  0.2769
  269SOL    HW1  806   1.757   3.058   2.441 -0.9722  1.5832 -0.0776
  269SOL    HW2  807   1.730   0.015   2.591 -2.1985 -1.5512  0.9687
  270SOL     OW  808   0.714   0.824   2.577 -0.0235 -0.0746 -0.6757
  270SOL    HW1  809   0.749   0.852   2.487  1.8290  2.0503 -0.7673
  270SOL    HW2  810   0.671   0.903   2.622  1.6197 -0.1973 -1.2177
  271SOL     OW  811   0.183   0.823   0.314 -0.1742 -0.1904 -0.4274
  271SOL    HW1  812   0.178   0.884   0.397  0.3241 -2.9275  0.7965
  271SOL    HW2  813   0.218   0.735   0.340 -4.3671 -0.8616  0.4093
  272SOL     OW  814   2.157   1.200   2.435  0.8190  0.1663 -0.2996
  272SOL    HW1  815   2.069   1.177   2.382 -0.9232  1.1701  1.1603
  272SOL    HW2  816   2.232   1.141   2.407 -0.7466  5.4082  0.1628
  273SOL     OW  817   0.019   0.413   2.249  0.8910  0.0031  0.2393
  273SOL    HW1  818   0.093   0.346   2.266 -1.9929  2.5125 -0.1074
  273SOL    HW2  819   0.017   0.430   2.150 -0.1860 -0.6238  1.2112
  274SOL     OW  820   2.637   0.336   1.974 -0.0751  0.3599 -0.5180
  274SOL    HW1  821   2.575   0.261   2.001  0.8351 -1.9027 -0.1497
  274SOL    HW2  822   2.721   0.292   1.934 -0.1176  1.4456 -1.0205
  275SOL     OW  823   1.834   1.360   0.293  0.3309 -0.2677  0.6599
  275SOL    HW1  824   1.846   1.378   0.193  1.2110 -1.1715  1.2184
  275SOL    HW2  825   1.740   1.351   0.333 -0.1018  0.1603  1.9177
  276SOL     OW  826   0.175   1.133   2.892 -0.5098 -0.8829 -0.1166
  276SOL    HW1  827   0.094   1.073   2.906  1.7359  1.3468  1.3831
  276SOL    HW2  828   0.153   1.229   2.915 -2.1254 -0.2645 -1.4517
  277SOL     OW  829   1.858   2.750   1.993 -0.6000  0.3284  0.0711
  277SOL    HW1  830   1.853   2.647   1.979  3.2591 -1.3116  0.5618
  277SOL    HW2  831   1.849   2.764   2.093 -0.4616  0.4343  0.3902
  278SOL     OW  832   1.814   2.912   1.279 -0.0334 -0.1663 -0.2144
  278SOL    HW1  833   1.863   2.979   1.342  2.5768  1.0369 -0.7001
  278SOL    HW2  834   1.756   2.853   1.339 -0.7565 -0.1183 -1.3806
  279SOL     OW  835   1.035   1.380   2.895  0.5078  0.4664 -0.1090
  279SOL    HW1  836   1.129   1.387   2.924 -1.0437 -0.9358  2.5058
  279SOL    HW2  837   0.969   1.365   2.975 -1.3390 -2.1527  2.1659
  280SOL     OW  838   0.789   1.185   0.458 -0.1034  0.5595  0.1108
  280SOL    HW1  839   0.832   1.267   0.414 -1.1164 -2.1497  1.5703
  280SOL    HW2  840   0.859   1.142   0.511  0.8246  2.2632  0.0562
  281SOL     OW  841   0.310   0.002   1.620  0.4258 -0.0016 -0.4814
  281SOL    HW1  842   0.326   3.038   1.694  0.8524  2.7202 -0.1861
  281SOL    HW2  843   0.357   3.094   1.528  0.9565  2.0246 -2.2743
  282SOL     OW  844   0.233   2.200   1.039 -0.1831 -0.4322 -0.0149
  282SOL    HW1  845   0.332   2.200   1.066  0.2050  2.3978 -0.1090
  282SOL    HW2  846   0.175   2.150   1.112 -0.6858 -0.4845  1.8347
  283SOL     OW  847   1.293   2.285   2.118 -0.6205 -0.0461  0.3991
  283SOL    HW1  848   1.230   2.348   2.070  0.8844 -3.7389  1.3117
  283SOL    HW2  849   1.381   2.272   2.061 -2.8242 -0.3790 -1.8463
  284SOL     OW  850   2.412   0.959   0.325 -0.0511 -0.0072  0.0397
  284SOL    HW1  851   2.425   0.869   0.366  0.0813  1.9477  0.7260
  284SOL    HW2  852   2.473   0.971   0.243  0.0378  1.1089  2.4003
  285SOL     OW  853   2.931   2.810   2.713 -0.1878 -0.2710 -0.2668
  285SOL    HW1  854   2.883   2.730   2.674  0.6382 -1.3537  3.1114
  285SOL    HW2  855   3.027   2.810   2.677  0.9387  3.0779 -1.5116
  286SOL     OW  856   2.011   2.725   0.955  0.2642  0.1181 -0.5765
  286SOL    HW1  857   2.088   2.773   1.002 -1.4976  1.1898 -1.5464
  286SOL    HW2  858   1.926   2.736   1.016 -3.3042  0.5034  1.9370
  287SOL     OW  859   0.565   1.394   1.135 -0.0247  1.0660  0.2916
  287SOL    HW1  860   0.659   1.366   1.099  1.5445  1.8046 -1.9141
  287SOL    HW2  861   0.542   1.332   1.217  2.2487  0.1189  1.4571
  288SOL     OW  862   1.520   2.365   0.026  0.1358  0.4546  0.2277
  288SOL    HW1  863   1.490   2.283   0.085 -0.7452 -3.2370  0.3575
  288SOL    HW2  864   1.622   2.356   0.025  1.2905 -1.0759  0.5666
  289SOL     OW  865   0.253   2.030   2.638 -0.1255  0.1989 -0.1257
  289SOL    HW1  866   0.280   2.127   2.653 -0.3921 -0.1040 -0.5792
  289SOL    HW2  867   0.280   1.994   2.545  2.9571 -1.3116  0.7916
  290SOL     OW  868   1.466   2.156   0.919 -0.0035  0.2475  0.1109
  290SOL    HW1  869   1.378   2.188   0.874  0.1204 -1.4292  1.2650
  290SOL    HW2  870   1.509   2.080   0.867 -1.1062  1.9288  1.3468
  291SOL     OW  871   1.522   1.413   0.003  0.7219  0.2922  0.0327
  291SOL    HW1  872   1.585   1.426   3.031 -1.5571 -1.6379  1.1061
  291SOL    HW2  873   1.510   1.506   0.053 -1.5014  2.4969 -2.9036
  292SOL     OW  874   1.438   1.639   1.391 -0.2410 -0.0966 -0.4664
  292SOL    HW1  875   1.414   1.607   1.303 -1.4080  1.0479  1.6287
  292SOL    HW2  876   1.501   1.713   1.390 -0.9672 -2.3242 -0.7681
  293SOL     OW  877   1.890   2.823   0.735  0.3325  0.1437  0.4081
  293SOL    HW1  878   1.946   2.823   0.822 -2.4421  0.2671  1.6839
  293SOL    HW2  879   1.801   2.772   0.755 -0.4512 -1.5431  2.3270
  294SOL     OW  880   2.983   1.437   2.768  0.0184  0.2125  0.2192
  294SOL    HW1  881   2.901   1.480   2.819 -1.2136  0.9407  3.1847
  294SOL    HW2  882   2.952   1.351   2.719 -0.9832 -0.7208 -1.2147
  295SOL     OW  883   1.027   2.067   2.724 -0.0339  0.0113  0.3560
  295SOL    HW1  884   1.113   2.112   2.687  2.3222  2.6476  0.0150
  295SOL    HW2  885   1.017   2.079   2.828 -2.1538 -1.8896  1.4037
  296SOL     OW  886   1.579   1.411   2.015 -0.4801  0.1240 -0.0621
  296SOL    HW1  887   1.656   1.385   1.950  1.7159  0.8479 -0.7529
  296SOL    HW2  888   1.490   1.446   1.965 -0.1179 -1.7256  1.7108
  297SOL     OW  889   2.856   0.710   2.541 -0.5723 -0.0140 -0.3737
  297SOL    HW1  890   2.937   0.677   2.486  1.0674  0.0134  0.9978
  297SOL    HW2  891   2.778   0.720   2.478 -0.1841 -0.2227  0.2972
  298SOL     OW  892   0.941   2.439   2.226 -0.0468  0.2360 -0.3840
  298SOL    HW1  893   0.869   2.489   2.279  0.4837  1.7074 -0.9116
  298SOL    HW2  894   0.924   2.337   2.224  1.7172 -1.0105 -2.8755
  299SOL     OW  895   0.910   2.840   2.654 -0.0380 -0.4501 -0.0153
  299SOL    HW1  896   0.862   2.851   2.565 -0.2094 -0.3972 -0.4292
  299SOL    HW2  897   0.835   2.825   2.723  0.3719  0.2970 -1.0280
  300SOL     OW  898   3.009   0.567   2.962 -0.5753  0.6001  0.2844
  300SOL    HW1  899   2.980   0.468   2.988 -0.7715 -0.4228 -1.2741
  300SOL    HW2  900   0.002   0.579   2.944  0.9117  2.5057  1.6834
  301SOL     OW  901   1.627   0.596   1.314  0.6849  0.4513 -0.1718
  301SOL    HW1  902   1.559   0.521   1.345  1.3918 -1.2028 -0.5426
  301SOL    HW2  903   1.595   0.659   1.245  0.8772 -2.4716 -0.1251
  302SOL     OW  904   2.732   2.059   2.896  0.0471  0.2609  0.0024
  302SOL    HW1  905   2.776   2.113   2.821  0.0881  1.8625  0.6451
  302SOL    HW2  906   2.793   1.987   2.939  2.1610 -0.9314 -1.4280
  303SOL     OW  907   0.085   0.113   2.509  0.2131  0.1415 -0.0321
  303SOL    HW1  908   0.139   0.138   2.427  2.4760  0.5515  0.1222
  303SOL    HW2  909   0.063   0.198   2.565  1.7833  1.2774  0.8123
  304SOL     OW  910   2.847   0.735   1.534  0.1803  0.1061  0.2175
  304SOL    HW1  911   2.915   0.784   1.481 -1.7576 -2.7037  3.2074
  304SOL    HW2  912   2.764   0.726   1.470 -3.5819  0.4177 -0.9091
  305SOL     OW  913   0.031   0.035   2.099 -0.0953  0.7032 -0.6541
  305SOL    HW1  914   3.059   3.094   2.138  4.7079  2.0284 -1.9600
  305SOL    HW2  915   0.008   0.076   2.008  0.0657  0.3395  2.5456
  306SOL     OW  916   2.864   1.493   1.514 -0.2449  0.1495  0.0250
  306SOL    HW1  917   2.901   1.431   1.584 -0.8696  0.5668  2.1941
  306SOL    HW2  918   2.771   1.461   1.487  1.4715 -1.2584 -2.3908
  307SOL     OW  919   2.005   0.221   1.096 -0.1147  0.3618 -0.2156
  307SOL    HW1  920   1.948   0.293   1.134 -1.6295 -2.2777 -2.3034
  307SOL    HW2  921   1.956   0.161   1.028  0.4683 -1.8742  1.7466
  308SOL     OW  922   0.223   2.019   1.389  0.0315  0.0647  0.6507
  308SOL    HW1  923   0.169   1.992   1.308 -0.6562  3.1861  2.6773
  308SOL    HW2  924   0.214   2.118   1.407  2.1964 -1.0813  4.2420
  309SOL     OW  925   2.473   1.694   1.475 -0.2993 -0.1787  0.5057
  309SOL    HW1  926   2.378   1.690   1.432 -0.6070  1.6910 -0.0700
  309SOL    HW2  927   2.461   1.763   1.551  1.4217 -2.1223  1.2874
  310SOL     OW  928   2.701   1.664   0.141 -0.5486  0.1345 -0.7437
  310SOL    HW1  929   2.755   1.753   0.143  0.3159  1.7683 -1.3182
  310SOL    HW2  930   2.695   1.627   0.240 -1.0030 -2.1530  2.2408
  311SOL     OW  931   2.258   1.454   2.489 -0.1859  0.2120 -0.3493
  311SOL    HW1  932   2.205   1.377   2.452  1.7794 -1.7000  0.2635
  311SOL    HW2  933   2.274   1.433   2.588  0.2074  1.3152  0.5191
  312SOL     OW  934   2.312   2.337   1.046  0.6411  0.0738 -0.0966
  312SOL    HW1  935   2.296   2.235   1.049 -1.9347 -1.6314  4.1346
  312SOL    HW2  936   2.387   2.359   0.979  0.8114 -1.0496  0.6248
  313SOL     OW  937   0.020   2.601   1.075  0.1512  0.0429  0.2273
  313SOL    HW1  938   0.062   2.550   0.999 -1.0457  1.4380  2.6275
  313SOL    HW2  939   3.085   2.687   1.043  2.0367  0.3759  0.1917
  314SOL     OW  940   1.198   2.021   1.243 -0.0166  0.1145 -0.1046
  314SOL    HW1  941   1.214   2.121   1.213  1.6110  3.4198 -1.3245
  314SOL    HW2  942   1.164   2.010   1.341 -1.4540 -1.5296 -0.4180
  315SOL     OW  943   0.356   2.949   2.343  0.0752 -0.2934 -0.1479
  315SOL    HW1  944   0.420   2.989   2.413 -0.3651 -0.2259  2.0796
  315SOL    HW2  945   0.329   3.013   2.267 -2.1078  1.8312 -2.6153
  316SOL     OW  946   2.909   1.884   0.928 -0.0985  0.5887  0.4895
  316SOL    HW1  947   2.999   1.886   0.879 -2.8484  1.6290 -0.4331
  316SOL    HW2  948   2.884   1.792   0.953 -0.2250  3.3321 -3.1938
  317SOL     OW  949   1.814   0.249   0.206  0.1829  0.5218  0.3732
  317SOL    HW1  950   1.730   0.215   0.253  0.3609 -1.7467 -0.1947
  317SOL    HW2  951   1.887   0.253   0.276  2.2467  2.2678 -1.2527
  318SOL     OW  952   2.842   2.533   0.210 -0.1501  0.0435 -0.3341
  318SOL    HW1  953   2.812   2.580   0.125  0.8511  0.8876  2.6086
  318SOL    HW2  954   2.812   2.580   0.299 -0.4785 -1.6821  0.7608
  319SOL     OW  955   1.434   1.617   0.192  0.0868 -0.2217  0.1644
  319SOL    HW1  956   1.436   1.652   0.288 -0.6080 -0.6388  0.9908
  319SOL    HW2  957   1.479   1.684   0.134 -0.5383 -0.9667  1.1080
  320SOL     OW  958   0.477   2.915   2.739 -0.6335 -0.2383 -0.4816
  320SOL    HW1  959   0.480   2.846   2.666 -0.7386  2.2092 -0.2606
  320SOL    HW2  960   0.397   2.898   2.803 -0.8401 -1.5730  1.0110
  321SOL     OW  961   0.997   0.007   0.041 -0.7995 -0.3361 -0.4010
  321SOL    HW1  962   1.003   3.025   0.098  3.4490  1.9685 -0.5951
  321SOL    HW2  963   0.986   3.086   3.050 -0.5318  0.4521  1.0008
  322SOL     OW  964   2.417   1.125   1.945 -0.1008  0.3781 -0.3374
  322SOL    HW1  965   2.332   1.118   2.000  1.2202  0.3072 -0.1651
  322SOL    HW2  966   2.476   1.184   1.997 -0.1217 -0.4277  0.8649
  323SOL     OW  967   2.692   1.018   0.531 -0.0589  0.7879 -0.8590
  323SOL    HW1  968   2.693   0.930   0.482  2.9904  0.8867  0.8611
  323SOL    HW2  969   2.716   1.086   0.466 -1.4864  1.3023 -1.1196
  324SOL     OW  970   0.146   0.586   2.643  0.4509  0.2310  0.4518
  324SOL    HW1  971   0.135   0.570   2.744  0.9044  2.0443  1.9769
  324SOL    HW2  972   0.175   0.682   2.630 -0.7387 -1.8300 -0.4887
  325SOL     OW  973   1.384   2.907   1.880  0.1547  0.3676 -0.1877
  325SOL    HW1  974   1.440   2.910   1.799 -0.5616  1.1227  3.7560
  325SOL    HW2  975   1.286   2.919   1.855 -0.7805 -1.7505  0.8639
  326SOL     OW  976   2.536   2.946   1.354  0.4670 -0.0249  0.3853
  326SOL    HW1  977   2.608   3.015   1.321  1.5948  0.7988 -0.6304
  326SOL    HW2  978   2.497   2.912   1.265  0.8712 -2.3196 -0.9993
  327SOL     OW  979   1.865   0.765   3.019  0.1661 -0.7873 -0.2856
  327SOL    HW1  980   1.855   0.671   3.061  1.3634 -1.4568  1.3213
  327SOL    HW2  981   1.962   0.788   3.031 -3.9846 -3.3303 -0.8108
  328SOL     OW  982   2.803   1.592   2.394  0.1326 -0.3011  0.1478
  328SOL    HW1  983   2.862   1.659   2.444  0.8683 -0.5801  1.3306
  328SOL    HW2  984   2.858   1.502   2.398 -0.3726 -1.1856  0.9631
  329SOL     OW  985   1.635   2.545   1.785  0.2496  0.8634  0.4545
  329SOL    HW1  986   1.655   2.511   1.877 -1.6935 -0.4127 -0.1152
  329SOL    HW2  987   1.652   2.475   1.715 -3.1392 -0.8069  1.4541
  330SOL     OW  988   2.606   1.579   1.944  0.2403 -0.2278 -0.8153
  330SOL    HW1  989   2.640   1.605   1.854 -0.4041 -2.2482  2.6626
  330SOL    HW2  990   2.659   1.626   2.019 -1.0319  1.2660 -0.7923
  331SOL     OW  991   3.084   2.079   0.641  0.2407  0.5729 -0.2075
  331SOL    HW1  992   0.012   1.995   0.691 -1.8132 -0.6947  1.7459
  331SOL    HW2  993   3.062   2.145   0.712  0.7015 -1.1093 -0.6912
  332SOL     OW  994   0.306   0.068   0.421  0.3748 -0.3375 -0.3171
  332SOL    HW1  995   0.255   0.118   0.350 -1.1403  1.1295  0.3565
  332SOL    HW2  996   0.271   0.092   0.517  0.5579  2.2147  2.1735
  333SOL     OW  997   2.124   2.882   2.298 -0.1298 -0.2343  0.4986
  333SOL    HW1  998   2.151   2.801   2.240 -0.2561 -1.7955  0.7411
  333SOL    HW2  999   2.171   2.967   2.263 -1.2058  1.4444 -1.9466
  334SOL     OW 1000   0.845   1.411   1.043  0.7128 -0.3249  0.2103
  334SOL    HW1 1001   0.862   1.403   0.943 -0.2043  1.3588  1.2145
  334SOL    HW2 1002   0.926   1.458   1.083  0.2740  0.5679 -0.2239
  335SOL     OW 1003   3.057   2.787   2.370 -0.7202 -0.1940  0.2379
  335SOL    HW1 1004   3.039   2.688   2.371 -1.1631 -1.5172 -0.9045
  335SOL    HW2 1005   0.026   2.822   2.437  0.6022  3.9946  0.3428
  336SOL     OW 1006   2.951   2.703   2.046 -0.2819 -0.1368  0.2826
  336SOL    HW1 1007   2.946   2.788   2.109  0.5960  2.7957 -0.9584
  336SOL    HW2 1008   3.003   2.722   1.962 -1.5733 -2.1305  0.4849
  337SOL     OW 1009   1.959   1.515   0.737 -0.0515 -0.0637  0.0864
  337SOL    HW1 1010   2.032   1.499   0.806  0.1072  1.2211 -2.8001
  337SOL    HW2 1011   1.898   1.435   0.723  1.8444  1.8176  0.3124
  338SOL     OW 1012   1.174   1.703   1.269 -0.0111  0.1637 -0.2977
  338SOL    HW1 1013   1.157   1.693   1.368  0.5095  2.8796  0.4612
  338SOL    HW2 1014   1.244   1.782   1.260  2.4260  2.5642  0.9515
  339SOL     OW 1015   2.877   0.663   1.085  0.2310 -0.0211  0.3380
  339SOL    HW1 1016   2.953   0.617   1.124 -4.6738  1.0101 -3.3639
  339SOL    HW2 1017   2.809   0.702   1.149 -0.8916  0.4216  1.0655
  340SOL     OW 1018   1.741   2.793   1.753  0.3730  0.1178 -1.4100
  340SOL    HW1 1019   1.693   2.706   1.757 -0.3506  0.0732  0.6613
  340SOL    HW2 1020   1.781   2.814   1.843 -0.3558  0.4008 -1.2350
  341SOL     OW 1021   2.180   1.441   0.945 -0.2723  0.0703  0.6033
  341SOL    HW1 1022   2.259   1.496   0.972  1.4240  0.2513 -0.0551
  341SOL    HW2 1023   2.123   1.426   1.025  0.5343  0.2060 -3.6448
  342SOL     OW 1024   0.037   1.837   0.805  0.3082 -0.4754  0.2021
  342SOL    HW1 1025   0.131   1.801   0.815 -0.5964  0.4938 -2.2166
  342SOL    HW2 1026   3.088   1.778   0.744 -3.6370 -0.4707  0.6340
  343SOL     OW 1027   2.686   1.099   1.465  0.2640  0.1395 -0.3172
  343SOL    HW1 1028   2.603   1.150   1.490 -4.3976  1.5080  3.8977
  343SOL    HW2 1029   2.712   1.043   1.546 -0.4432 -1.5881  1.6261
  344SOL     OW 1030   2.127   0.540   0.799 -0.1465 -0.0283 -0.0362
  344SOL    HW1 1031   2.075   0.453   0.807  2.5195  1.4281 -1.3211
  344SOL    HW2 1032   2.067   0.621   0.814 -2.7143 -0.4727 -1.7110
  345SOL     OW 1033   2.941   2.950   2.186 -0.7265  0.6440 -0.3300
  345SOL    HW1 1034   2.995   2.908   2.260  0.4876 -0.2806 -0.8513
  345SOL    HW2 1035   2.851   2.974   2.225  1.0776  0.7831  0.9675
  346SOL     OW 1036   2.935   1.602   0.326 -0.0516 -0.4388 -0.1523
  346SOL    HW1 1037   2.850   1.572   0.369  2.0418 -3.0236  0.1334
  346SOL    HW2 1038   2.924   1.698   0.289  0.2094 -3.4718  0.2097
  347SOL     OW 1039   1.729   2.659   1.449 -0.4723  0.4319  0.3005
  347SOL    HW1 1040   1.795   2.704   1.514 -0.9049 -0.0180  0.8992
  347SOL    HW2 1041   1.728   2.556   1.446  2.2707  1.7403 -1.2103
  348SOL     OW 1042   1.048   1.048   1.734 -0.1538  0.3130 -0.5208
  348SOL    HW1 1043   1.126   1.087   1.785  1.8703 -1.4935 -0.6463
  348SOL    HW2 1044   0.965   1.091   1.776  0.4103 -0.3616  0.7703
  349SOL     OW 1045   2.259   1.617   2.277  0.1831 -0.1542  0.1987
  349SOL    HW1 1046   2.257   1.565   2.363 -0.3086 -0.2524 -0.9185
  349SOL    HW2 1047   2.336   1.683   2.277  3.0926 -1.6460 -0.2360
  350SOL     OW 1048   2.840   2.200   0.586 -0.1422  0.7696  0.7090
  350SOL    HW1 1049   2.842   2.239   0.490  1.0182  2.8960 -1.1557
  350SOL    HW2 1050   2.920   2.133   0.589 -0.3721  1.2257 -0.5364
  351SOL     OW 1051   0.387   0.234   1.714 -0.0626  0.0500  0.0454
  351SOL    HW1 1052   0.367   0.140   1.679 -0.5570  0.1615  0.7589
  351SOL    HW2 1053   0.305   0.287   1.741 -1.1785  1.1715  0.6438
  352SOL     OW 1054   1.262   2.613   1.737  0.4369  0.1720  0.4676
  352SOL    HW1 1055   1.251   2.705   1.694 -0.9165 -2.0927  0.9270
  352SOL    HW2 1056   1.350   2.611   1.788 -2.2571 -0.9115  0.7990
  353SOL     OW 1057   0.637   1.252   2.611 -0.1899  0.0885 -0.2981
  353SOL    HW1 1058   0.719   1.312   2.596  0.3610  3.8153  1.7156
  353SOL    HW2 1059   0.567   1.263   2.541  1.6394  2.4631  2.4211
  354SOL     OW 1060   1.428   1.615   0.510  0.1001 -0.3919 -0.1092
  354SOL    HW1 1061   1.438   1.712   0.539  2.7023  0.5228 -0.4100
  354SOL    HW2 1062   1.340   1.575   0.551  1.2098 -1.7475  0.5397
  355SOL     OW 1063   1.841   0.105   0.913 -0.4635 -0.6169  0.5713
  355SOL    HW1 1064   1.753   0.097   0.957  1.8787 -1.6560  0.8481
  355SOL    HW2 1065   1.849   0.046   0.826  1.0438 -0.2228 -1.9378
  356SOL     OW 1066   3.103   1.316   0.115  0.3493  0.4590 -0.3378
  356SOL    HW1 1067   0.056   1.246   0.165 -0.7707  1.0846 -0.7368
  356SOL    HW2 1068   3.010   1.277   0.096 -2.5268  1.2174 -0.9964
  357SOL     OW 1069   0.358   2.942   1.839 -0.3763  0.1178  0.5704
  357SOL    HW1 1070   0.422   2.987   1.900 -1.9559  1.7349 -2.0842
  357SOL    HW2 1071   0.275   2.921   1.895 -2.3620  0.4879 -2.9998
  358SOL     OW 1072   0.302   1.444   3.064  0.4034  0.5545  1.0977
  358SOL    HW1 1073   0.209   1.402   3.079 -0.6306 -0.8528 -0.4618
  358SOL    HW2 1074   0.369   1.408   0.022  1.9233  1.4630 -3.2947
  359SOL     OW 1075   2.748   2.522   2.723 -0.2433 -0.0296 -0.4303
  359SOL    HW1 1076   2.681   2.548   2.795 -1.6724 -0.7211 -2.9142
  359SOL    HW2 1077   2.736   2.574   2.630  0.6318  1.1367 -1.5360
  360SOL     OW 1078   1.757   1.379   1.090  0.0445  0.1566  0.1025
  360SOL    HW1 1079   1.721   1.303   1.034 -2.3554 -0.5052  3.9657
  360SOL    HW2 1080   1.713   1.469   1.060  0.8519  2.2082 -0.1268
  361SOL     OW 1081   2.071   2.449   1.193  0.2217  0.2896 -0.0541
  361SOL    HW1 1082   2.139   2.430   1.116  0.5072 -1.4978 -0.0469
  361SOL    HW2 1083   2.109   2.523   1.252 -0.2792  0.4927  1.1891
  362SOL     OW 1084   1.698   1.606   0.959 -0.2595  0.1693  0.0947
  362SOL    HW1 1085   1.789   1.646   0.965 -1.8545 -0.3017 -0.9905
  362SOL    HW2 1086   1.679   1.565   0.866  0.5492 -2.2033 -0.8009
  363SOL     OW 1087   2.517   2.236   0.334 -0.1568  0.3987  0.7202
  363SOL    HW1 1088   2.467   2.188   0.406  1.6444  2.2674  0.8550
  363SOL    HW2 1089   2.574   2.165   0.281  2.7079 -3.9944 -0.9506
  364SOL     OW 1090   2.949   0.209   1.284 -0.6903  0.0215 -0.3196
  364SOL    HW1 1091   2.983   0.239   1.379  2.8601 -0.2767  0.5904
  364SOL    HW2 1092   3.031   0.176   1.235  0.0295  0.7264 -0.8485
  365SOL     OW 1093   0.813   2.775   1.075  0.4575 -0.4737  0.1245
  365SOL    HW1 1094   0.836   2.722   0.992 -1.3588  0.5829  2.2802
  365SOL    HW2 1095   0.885   2.748   1.142  0.2998  0.4590 -1.2980
  366SOL     OW 1096   0.494   1.599   0.586  0.0481  0.3620  0.4750
  366SOL    HW1 1097   0.472   1.507   0.623 -1.8697  0.2692 -0.7698
  366SOL    HW2 1098   0.595   1.608   0.563  2.3880 -2.6259 -1.9423
  367SOL     OW 1099   2.589   2.652   2.902 -0.6014 -0.7574 -0.7878
  367SOL    HW1 1100   2.518   2.725   2.900 -2.2317 -1.2002 -0.6060
  367SOL    HW2 1101   2.573   2.586   2.982  3.2881  2.0540 -0.5686
  368SOL     OW 1102   2.544   2.075   0.871  0.0857 -0.4179  0.0903
  368SOL    HW1 1103   2.447   2.076   0.840 -1.5166  2.1188 -0.2567
  368SOL    HW2 1104   2.602   1.999   0.835  1.1492  2.5056 -0.1290
  369SOL     OW 1105   1.038   1.047   0.491  0.0048 -0.3018 -0.2899
  369SOL    HW1 1106   1.013   0.949   0.491  1.3615  0.3550 -1.2853
  369SOL    HW2 1107   1.133   1.058   0.453 -1.4293  1.1174  0.2032
  370SOL     OW 1108   0.509   3.034   0.767 -0.0721 -0.2211 -0.0836
  370SOL    HW1 1109   0.613   3.025   0.771  2.1656 -1.4631  0.6108
  370SOL    HW2 1110   0.468   2.943   0.731  1.8728  1.9812 -0.5575
  371SOL     OW 1111   2.511   1.300   2.650 -0.9272  0.2890 -0.3368
  371SOL    HW1 1112   2.527   1.367   2.576 -1.5110 -1.7266  2.1137
  371SOL    HW2 1113   2.563   1.213   2.633  0.5605  0.5092 -0.1462
  372SOL     OW 1114   0.740   0.585   2.212 -0.1945  0.3828  0.2605
  372SOL    HW1 1115   0.721   0.564   2.112 -0.3295  2.4577 -0.7180
  372SOL    HW2 1116   0.714   0.510   2.275 -0.2472 -0.8028  1.3296
  373SOL     OW 1117   0.584   0.425   2.748  0.0637 -0.1517  0.1120
  373SOL    HW1 1118   0.628   0.496   2.691 -1.5515  1.6571 -0.5377
  373SOL    HW2 1119   0.647   0.369   2.807  0.8266 -1.9600  1.5177
  374SOL     OW 1120   0.904   2.233   0.127 -0.2984  0.5464  0.0160
  374SOL    HW1 1121   0.938   2.211   0.030 -0.2656 -1.2016 -1.0438
  374SOL    HW2 1122   0.814   2.191   0.149 -0.1411  1.0806 -1.1203
  375SOL     OW 1123   0.772   0.001   0.806 -0.6949  0.5786  0.1978
  375SOL    HW1 1124   0.777   3.080   0.902  0.8006  0.6357 -0.6709
  375SOL    HW2 1125   0.797   0.097   0.794 -0.1523  0.2876 -1.9902
  376SOL     OW 1126   0.357   2.493   1.905 -0.5292 -0.4164  0.1428
  376SOL    HW1 1127   0.270   2.519   1.951 -0.0180 -1.6224 -0.1530
  376SOL    HW2 1128   0.444   2.492   1.963  2.9320 -1.5289  0.6301
  377SOL     OW 1129   2.304   1.969   3.036 -0.2078 -0.1677  0.2905
  377SOL    HW1 1130   2.255   2.047   3.075  0.9544 -0.1517  0.7422
  377SOL    HW2 1131   2.353   1.992   2.950 -1.0151  0.1108  0.2236
  378SOL     OW 1132   1.945   0.275   0.447 -0.5591 -0.1307 -0.2800
  378SOL    HW1 1133   1.990   0.362   0.471 -2.6818  0.4951 -1.2626
  378SOL    HW2 1134   1.994   0.193   0.489  1.2786 -2.3583 -0.1643
  379SOL     OW 1135   1.307   1.060   0.768  0.6836 -0.0933 -0.2190
  379SOL    HW1 1136   1.306   1.163   0.758 -2.0620 -1.9718  0.0801
  379SOL    HW2 1137   1.383   1.015   0.722  0.6397  2.5749 -0.7954
  380SOL     OW 1138   2.515   2.083   1.850  0.1019  0.2948 -0.1274
  380SOL    HW1 1139   2.568   2.017   1.910 -0.9830 -1.1261  0.1439
  380SOL    HW2 1140   2.573   2.164   1.820 -4.4382  0.9356 -2.3847
  381SOL     OW 1141   2.918   1.345   2.371 -0.0308  0.1785  0.1986
  381SOL    HW1 1142   2.910   1.298   2.464  0.4125  0.1618 -0.2517
  381SOL    HW2 1143   2.970   1.289   2.302 -1.4740 -1.7149  1.4808
  382SOL     OW 1144   3.041   2.342   3.079 -0.3629  0.2571 -0.5318
  382SOL    HW1 1145   3.070   2.384   2.993 -1.9182 -2.1204 -0.4179
  382SOL    HW2 1146   3.070   2.405   0.050 -0.2810 -1.5436 -0.2983
  383SOL     OW 1147   1.229   0.887   2.253  0.1368  0.0375 -0.1438
  383SOL    HW1 1148   1.145   0.944   2.221 -0.4763  1.6496 -1.6235
  383SOL    HW2 1149   1.209   0.809   2.310  2.9680  0.4620 -2.5645
  384SOL     OW 1150   1.144   2.176   2.358  0.2589 -0.0487  0.6326
  384SOL    HW1 1151   1.181   2.191   2.264 -0.6148 -1.7979 -0.7804
  384SOL    HW2 1152   1.046   2.151   2.356  1.9066 -0.2815  1.1277
  385SOL     OW 1153   2.268   2.606   0.019 -0.5601 -0.2441  0.6362
  385SOL    HW1 1154   2.226   2.554   3.047  0.3718  0.7460 -2.0637
  385SOL    HW2 1155   2.325   2.551   0.085  1.4285 -1.0643  0.1471
  386SOL     OW 1156   1.567   1.222   0.641  0.7969 -0.1178 -0.3316
  386SOL    HW1 1157   1.495   1.269   0.696  2.6887 -1.8761  2.4500
  386SOL    HW2 1158   1.537   1.127   0.621  1.2965 -1.1898 -1.6458
  387SOL     OW 1159   0.077   1.676   1.869 -0.3715  0.1802  0.0156
  387SOL    HW1 1160   0.020   1.642   1.944  0.3509  2.0161 -3.0035
  387SOL    HW2 1161   0.104   1.597   1.813 -0.3543  1.0217 -0.8385
  388SOL     OW 1162   0.656   1.325   1.540  0.2775  0.4188  0.2401
  388SOL    HW1 1163   0.735   1.259   1.525  1.2797 -0.3788  0.2547
  388SOL    HW2 1164   0.597   1.333   1.458  0.2201 -1.0791  1.7878
  389SOL     OW 1165   2.219   1.087   2.138 -0.3438 -0.7592 -0.0057
  389SOL    HW1 1166   2.254   1.046   2.227 -1.3572  3.3664 -2.2463
  389SOL    HW2 1167   2.139   1.149   2.146  0.5245 -1.0941  0.3350
  390SOL     OW 1168   1.180   1.833   0.441  0.3537  0.0648 -1.1936
  390SOL    HW1 1169   1.091   1.880   0.447  0.7807  1.0563  0.7151
  390SOL    HW2 1170   1.176   1.749   0.502 -0.3287  2.8655 -1.1129
  391SOL     OW 1171   1.004   1.910   0.668  0.3569 -0.1316  0.4882
  391SOL    HW1 1172   1.056   1.855   0.738 -0.1663 -0.5668  2.5085
  391SOL    HW2 1173   0.907   1.884   0.662 -0.1093 -0.3392 -1.4231
  392SOL     OW 1174   2.664   2.686   2.054 -0.0200 -0.6955  0.5884
  392SOL    HW1 1175   2.615   2.642   2.132  0.2095  1.2893  0.5556
  392SOL    HW2 1176   2.764   2.696   2.072  1.9891 -1.8567  0.7956
  393SOL     OW 1177   1.335   2.343   2.933 -0.2247  0.3011  0.1607
  393SOL    HW1 1178   1.404   2.362   3.004 -0.0223  1.7187 -0.4672
  393SOL    HW2 1179   1.283   2.427   2.911  2.1888 -0.7362  0.9016
  394SOL     OW 1180   0.220   0.223   2.315 -0.0439 -0.5040 -0.2324
  394SOL    HW1 1181   0.297   0.286   2.349  0.4976  1.8308 -0.8479
  394SOL    HW2 1182   0.265   0.145   2.267 -0.1207  3.1266 -1.7251
  395SOL     OW 1183   0.085   0.883   1.183  0.4333 -0.1317  0.2801
  395SOL    HW1 1184   0.155   0.952   1.165 -2.3802 -3.3175 -0.3465
  395SOL    HW2 1185   0.079   0.809   1.108  1.0497 -3.0647 -1.2062
  396SOL     OW 1186   2.180   1.522   2.847 -0.4045  0.5974  0.9320
  396SOL    HW1 1187   2.086   1.495   2.865  1.1234  0.3732 -0.6404
  396SOL    HW2 1188   2.178   1.622   2.842  1.9035 -2.3989  0.5180
  397SOL     OW 1189   0.377   0.916   2.910 -0.0591 -0.5897  0.0900
  397SOL    HW1 1190   0.301   0.977   2.881 -1.0734  1.1920 -0.4921
  397SOL    HW2 1191   0.449   0.917   2.838 -3.6882  1.3388 -1.8839
  398SOL     OW 1192   0.957   2.545   0.440 -0.0781 -0.0408  0.6309
  398SOL    HW1 1193   1.057   2.549   0.459 -2.8184  0.1414  0.1416
  398SOL    HW2 1194   0.921   2.629   0.485 -1.0621 -1.8587  0.6690
  399SOL     OW 1195   2.213   2.657   2.156  0.1125  0.0044 -0.3643
  399SOL    HW1 1196   2.269   2.614   2.226  0.0976 -1.5823  0.2067
  399SOL    HW2 1197   2.180   2.586   2.087 -2.7026 -0.8415  1.1695
  400SOL     OW 1198   0.386   1.393   1.911  0.1543 -0.4522  0.1919
  400SOL    HW1 1199   0.357   1.399   2.007 -0.7518 -0.9362 -2.0301
  400SOL    HW2 1200   0.410   1.487   1.876 -0.1456 -1.2067 -1.3955
  401SOL     OW 1201   0.700   0.898   0.638 -0.0670  0.6659 -0.9088
  401SOL    HW1 1202   0.637   0.874   0.714  2.7726  0.0329  0.7299
  401SOL    HW2 1203   0.664   0.872   0.547  3.1092  0.4735  1.6175
  402SOL     OW 1204   0.940   3.047   2.252 -0.6751  0.4125 -0.2786
  402SOL    HW1 1205   1.032   3.091   2.259 -2.5723  0.1302  0.7262
  402SOL    HW2 1206   0.873   0.017   2.252 -0.5050 -0.9876  0.4732
  403SOL     OW 1207   2.716   1.932   2.003 -0.1280 -0.2567  0.8054
  403SOL    HW1 1208   2.701   1.834   2.035 -2.6856 -0.1426 -3.9838
  403SOL    HW2 1209   2.762   1.932   1.909  1.3983 -0.5185 -0.7441
  404SOL     OW 1210   2.698   2.289   1.840  0.1182  0.4931 -0.1087
  404SOL    HW1 1211   2.762   2.250   1.907  0.3580 -1.8282 -0.7291
  404SOL    HW2 1212   2.734   2.261   1.748  0.3028 -0.5974  0.2032
  405SOL     OW 1213   1.946   2.988   2.736  0.3605 -0.1025 -0.3343
  405SOL    HW1 1214   1.888   3.025   2.661 -1.7545 -0.1183 -3.1932
  405SOL    HW2 1215   2.040   3.028   2.735  2.6646 -2.6633  2.5278
  406SOL     OW 1216   1.145   1.809   0.175  0.3257  0.3442  0.3746
  406SOL    HW1 1217   1.172   1.896   0.121  2.2006  1.0361 -1.0834
  406SOL    HW2 1218   1.178   1.816   0.274 -1.4772  0.4874  0.8464
  407SOL     OW 1219   1.578   1.374   0.415 -0.4115 -0.0700 -0.1983
  407SOL    HW1 1220   1.523   1.462   0.412  0.1088 -2.7127  0.5759
  407SOL    HW2 1221   1.550   1.308   0.486  1.0031  0.9089 -2.1089
  408SOL     OW 1222   0.308   0.527   1.503 -0.5585 -0.7552 -0.4586
  408SOL    HW1 1223   0.252   0.502   1.585 -1.3443  0.7020 -2.4219
  408SOL    HW2 1224   0.406   0.537   1.530  0.8447  2.5328  0.2656
  409SOL     OW 1225   2.680   1.438   0.012 -0.1329 -0.1255  0.3272
  409SOL    HW1 1226   2.601   1.378   0.032 -0.6867 -1.5230  0.1333
  409SOL    HW2 1227   2.671   1.531   0.062 -2.1679 -0.7392  0.6144
  410SOL     OW 1228   2.791   2.710   0.683  0.1053  0.8482  0.0757
  410SOL    HW1 1229   2.814   2.718   0.781 -2.2606  2.6793  0.4952
  410SOL    HW2 1230   2.771   2.611   0.658 -0.1500  1.8929  0.6608
  411SOL     OW 1231   0.367   0.358   0.329 -0.7518 -0.3332 -0.0034
  411SOL    HW1 1232   0.410   0.392   0.418  0.2224 -0.4059  1.7618
  411SOL    HW2 1233   0.445   0.319   0.273  0.7586 -0.7905 -1.9033
  412SOL     OW 1234   1.449   2.900   0.513  0.7502 -0.4423  0.1821
  412SOL    HW1 1235   1.408   2.925   0.419  2.1470  0.7247  0.5267
  412SOL    HW2 1236   1.374   2.865   0.575  0.9750 -2.3611 -1.0899
  413SOL     OW 1237   1.803   0.587   2.023  0.4015 -0.0286  0.0461
  413SOL    HW1 1238   1.855   0.501   2.048  2.0683 -2.3154  1.2281
  413SOL    HW2 1239   1.739   0.558   1.947  1.4587 -2.6432 -0.6184
  414SOL     OW 1240   0.079   0.766   0.684 -0.1950  0.0566 -0.4357
  414SOL    HW1 1241   3.090   0.784   0.654  2.4440 -1.5461 -0.9006
  414SOL    HW2 1242   0.152   0.836   0.661 -0.1953  0.4879  3.1114
  415SOL     OW 1243   2.987   1.125   0.430 -0.0035  1.0206 -0.2988
  415SOL    HW1 1244   2.892   1.154   0.407  2.3210 -2.4703  2.3521
  415SOL    HW2 1245   2.997   1.029   0.390  0.6147  0.7972 -0.8143
  416SOL     OW 1246   2.555   0.562   2.754 -0.0908  0.2533  0.3446
  416SOL    HW1 1247   2.526   0.589   2.658  1.1907  0.4133  0.3012
  416SOL    HW2 1248   2.642   0.608   2.786  1.3097  0.2534  1.8836
  417SOL     OW 1249   2.343   0.287   0.719 -0.6936 -0.1341  0.4554
  417SOL    HW1 1250   2.338   0.390   0.740  1.9752  3.6025  0.5389
  417SOL    HW2 1251   2.415   0.265   0.647  1.0968 -0.2211 -1.3565
  418SOL     OW 1252   0.575   0.134   3.097  0.7531 -0.7914 -0.1050
  418SOL    HW1 1253   0.612   0.192   0.068 -4.7686  0.3637 -0.5218
  418SOL    HW2 1254   0.473   0.123   0.003  1.1228 -0.4066 -1.0932
  419SOL     OW 1255   0.397   0.646   1.017  0.1692 -0.9995 -0.0771
  419SOL    HW1 1256   0.443   0.656   1.110  2.0705  3.3132 -0.3249
  419SOL    HW2 1257   0.361   0.552   1.004  0.6434 -2.1276  0.2009
  420SOL     OW 1258   3.010   0.931   1.378 -0.4215  0.0358 -0.3170
  420SOL    HW1 1259   3.083   0.901   1.316  1.3054 -2.0758  0.5983
  420SOL    HW2 1260   2.959   1.007   1.337 -2.1451  1.1586  1.2611
  421SOL     OW 1261   0.804   1.791   0.065  0.0673 -0.0308  0.1530
  421SOL    HW1 1262   0.742   1.713   0.045  1.0995  1.0950 -2.0806
  421SOL    HW2 1263   0.755   1.880   0.088  0.9291  2.6290 -2.8203
  422SOL     OW 1264   2.407   0.386   2.393  0.7304 -0.4821  0.3815
  422SOL    HW1 1265   2.478   0.412   2.324  3.1580 -0.0095 -2.5090
  422SOL    HW2 1266   2.315   0.369   2.342 -2.8645 -3.0872 -1.2594
  423SOL     OW 1267   1.883   1.449   0.040 -0.5216 -0.3522 -0.3240
  423SOL    HW1 1268   1.942   1.534   0.028  2.0590  0.9552  1.1180
  423SOL    HW2 1269   1.816   1.429   3.069 -2.2417  0.2979  1.3730
  424SOL     OW 1270   1.191   1.258   1.957 -0.1377 -0.3816  0.1694
  424SOL    HW1 1271   1.122   1.337   1.952  0.2721  2.7968 -0.5499
  424SOL    HW2 1272   1.246   1.271   2.040 -0.4490  0.7017 -0.5307
  425SOL     OW 1273   0.173   2.601   2.086  0.2298 -0.2696 -0.1952
  425SOL    HW1 1274   0.218   2.615   2.180  0.7721 -0.0333  2.1584
  425SOL    HW2 1275   0.171   2.691   2.038 -1.0987 -1.1509 -0.9869
  426SOL     OW 1276   2.517   2.836   0.580 -0.2014  0.0884  0.3094
  426SOL    HW1 1277   2.595   2.815   0.639  0.9664 -0.9858  1.2383
  426SOL    HW2 1278   2.430   2.806   0.631 -0.5299 -2.8149 -0.4328
  427SOL     OW 1279   0.265   0.824   2.547 -0.8977 -0.4916  0.4480
  427SOL    HW1 1280   0.265   0.912   2.596  0.0076  0.5509 -3.3760
  427SOL    HW2 1281   0.305   0.849   2.457  1.8370  0.4310 -1.6440
  428SOL     OW 1282   2.782   1.582   2.921  0.1428 -0.9141  0.1734
  428SOL    HW1 1283   2.745   1.544   3.005 -1.2872  2.1613 -1.4304
  428SOL    HW2 1284   2.704   1.616   2.861  1.0808  0.6150 -0.9797
  429SOL     OW 1285   2.291   0.432   0.319  0.5352  0.3531 -0.3313
  429SOL    HW1 1286   2.245   0.367   0.253  0.5484  0.1552 -0.1075
  429SOL    HW2 1287   2.362   0.386   0.379 -0.8331  0.5524  3.1547
  430SOL     OW 1288   1.506   2.115   2.351  0.4335 -0.0041 -0.5159
  430SOL    HW1 1289   1.495   2.016   2.329 -2.4808  2.3257 -1.2680
  430SOL    HW2 1290   1.474   2.168   2.271  2.3333 -0.2986 -0.7843
  431SOL     OW 1291   0.301   1.787   2.029 -0.3510 -0.0552 -0.3032
  431SOL    HW1 1292   0.200   1.770   2.014 -0.4192  0.9182  0.9450
  431SOL    HW2 1293   0.350   1.732   1.962  0.3998  2.3274  0.6779
  432SOL     OW 1294   1.520   2.269   1.920  0.5350  0.2188  0.2150
  432SOL    HW1 1295   1.565   2.180   1.944  3.1995 -2.4889  3.4015
  432SOL    HW2 1296   1.453   2.258   1.848  2.4901 -1.1188  1.4116
  433SOL     OW 1297   1.069   2.218   0.331 -0.2106  0.6109  0.7854
  433SOL    HW1 1298   1.145   2.287   0.332  0.9190  2.0196  0.2481
  433SOL    HW2 1299   1.019   2.214   0.243  3.2722 -0.0328 -2.0191
  434SOL     OW 1300   0.361   2.285   2.661  0.4455  0.2018  0.1328
  434SOL    HW1 1301   0.456   2.264   2.643 -0.6295  0.6564  0.0479
  434SOL    HW2 1302   0.347   2.331   2.751 -1.9105  1.5952  0.6199
  435SOL     OW 1303   0.160   1.020   0.489 -0.0777  0.1112  0.1871
  435SOL    HW1 1304   0.073   1.058   0.521 -0.8109 -1.1063 -0.1934
  435SOL    HW2 1305   0.238   1.036   0.544 -3.5461  1.3280  0.7177
  436SOL     OW 1306   0.537   2.803   1.684  0.0383 -0.5688  0.1529
  436SOL    HW1 1307   0.458   2.828   1.749  0.1455  0.4078  4.2336
  436SOL    HW2 1308   0.518   2.830   1.587 -1.7687 -3.3903 -2.6841
  437SOL     OW 1309   0.749   0.205   0.561 -0.0276  0.0447  0.2563
  437SOL    HW1 1310   0.787   0.270   0.492  0.1293  2.2225 -2.7660
  437SOL    HW2 1311   0.707   0.121   0.523 -1.7724 -2.2037  1.4685
  438SOL     OW 1312   0.645   2.096   0.564  0.6446  0.3042 -0.3017
  438SOL    HW1 1313   0.685   2.170   0.509 -0.1827  0.8613  0.1533
  438SOL    HW2 1314   0.592   2.125   0.642 -0.5424 -0.6585  1.8200
  439SOL     OW 1315   0.737   2.629   1.630 -0.5167 -0.4491  0.4019
  439SOL    HW1 1316   0.728   2.541   1.679 -0.9591 -3.2476 -0.4667
  439SOL    HW2 1317   0.663   2.695   1.649  1.2831 -0.0955  1.9309
  440SOL     OW 1318   1.941   2.893   1.587 -0.4202  0.3473  0.4344
  440SOL    HW1 1319   1.872   2.866   1.657  1.6526 -1.9902  1.8278
  440SOL    HW2 1320   2.032   2.865   1.620  0.8967 -1.7312  0.5506
  441SOL     OW 1321   2.617   0.564   1.805  0.3616 -0.0133 -0.0876
  441SOL    HW1 1322   2.639   0.478   1.850  0.3669  1.1291  0.2876
  441SOL    HW2 1323   2.700   0.609   1.770  1.9873 -1.3026 -3.3387
  442SOL     OW 1324   1.895   2.236   0.806 -0.1455 -0.4930 -0.0523
  442SOL    HW1 1325   1.914   2.333   0.834 -1.3273 -0.2860 -2.7235
  442SOL    HW2 1326   1.902   2.231   0.706 -1.6944  4.0677  1.6104
  443SOL     OW 1327   2.676   0.700   2.356  0.1146  0.1713  0.2391
  443SOL    HW1 1328   2.651   0.608   2.319  0.4429 -0.5012  0.8063
  443SOL    HW2 1329   2.698   0.767   2.281 -3.7975 -0.3083  1.8850
  444SOL     OW 1330   2.000   1.089   1.850 -0.0418  0.1276 -0.1003
  444SOL    HW1 1331   1.996   1.056   1.752  0.7194 -1.4654  0.3867
  444SOL    HW2 1332   1.931   1.040   1.906  1.4449  1.8114  0.5080
  445SOL     OW 1333   3.033   2.405   1.235  0.0146 -0.0265  0.2051
  445SOL    HW1 1334   2.958   2.425   1.305 -0.4776  0.4688  3.6436
  445SOL    HW2 1335   3.033   2.468   1.148 -0.6225  0.8746 -3.0798
  446SOL     OW 1336   2.862   1.573   0.791  0.1482  0.3151 -0.1166
  446SOL    HW1 1337   2.832   1.477   0.770 -1.4787  2.5794  2.1206
  446SOL    HW2 1338   2.916   1.565   0.876  0.5266 -1.5740  1.0951
  447SOL     OW 1339   0.470   1.004   0.986  0.0418 -0.5221 -0.1264
  447SOL    HW1 1340   0.561   1.027   1.028  0.9092  0.5227 -2.0369
  447SOL    HW2 1341   0.480   0.936   0.915  2.4284  0.3721  0.9023
  448SOL     OW 1342   1.374   1.162   1.642  0.2461  0.0177  0.4479
  448SOL    HW1 1343   1.343   1.089   1.574 -1.3603  0.2623 -3.3187
  448SOL    HW2 1344   1.342   1.255   1.618  0.8681  0.4255  0.6754
  449SOL     OW 1345   1.112   1.101   0.080 -0.0513 -0.0540  0.3219
  449SOL    HW1 1346   1.164   1.020   0.050  0.9778 -0.3866  0.4493
  449SOL    HW2 1347   1.010   1.082   0.085 -1.1291  1.5867  0.7685
  450SOL     OW 1348   2.553   2.281   2.144  0.2956  0.5819 -0.3166
  450SOL    HW1 1349   2.568   2.366   2.193  0.1888 -2.2349 -2.5311
  450SOL    HW2 1350   2.622   2.210   2.176  1.6351 -1.1429 -0.4092
  451SOL     OW 1351   1.869   2.804   2.257  0.0626 -0.2068 -0.1458
  451SOL    HW1 1352   1.847   2.731   2.318  0.7720  1.0647  0.2714
  451SOL    HW2 1353   1.960   2.843   2.288  1.4733 -0.2690  0.2303
  452SOL     OW 1354   1.478   2.642   1.103  0.6688  0.5050  0.2419
  452SOL    HW1 1355   1.469   2.736   1.069  0.8988 -1.0695  3.6383
  452SOL    HW2 1356   1.489   2.576   1.022 -0.5438  2.4214  0.6970
  453SOL     OW 1357   1.726   0.966   0.994 -0.0461  0.5341  0.1392
  453SOL    HW1 1358   1.761   0.985   0.900 -1.2536 -1.4391 -1.9479
  453SOL    HW2 1359   1.805   0.962   1.057 -1.4073  1.6513 -0.6321
  454SOL     OW 1360   0.158   1.299   1.088  0.1733 -0.9328  0.1208
  454SOL    HW1 1361   0.227   1.342   1.029 -1.7442 -2.1684  1.8886
  454SOL    HW2 1362   0.086   1.258   1.032  2.7307  1.4654  2.7361
  455SOL     OW 1363   2.588   0.102   0.354 -0.6517  0.0219 -0.4643
  455SOL    HW1 1364   2.568   0.073   0.263  2.4970  1.7862  2.1502
  455SOL    HW2 1365   2.688   0.084   0.372 -1.2834  1.9125  0.9324
  456SOL     OW 1366   2.806   2.512   1.030  0.4764 -0.1268  0.1394
  456SOL    HW1 1367   2.735   2.530   1.103 -1.9430 -1.0429  1.2242
  456SOL    HW2 1368   2.828   2.411   1.020 -0.9187 -0.2189  0.4398
  457SOL     OW 1369   1.101   0.112   0.449  0.0828 -0.2241 -0.0007
  457SOL    HW1 1370   1.135   0.100   0.545  1.2993 -1.7477  0.9773
  457SOL    HW2 1371   1.019   0.056   0.441  0.9671 -0.2546  0.3254
  458SOL     OW 1372   2.622   0.758   0.464  0.5603 -0.8656 -0.9426
  458SOL    HW1 1373   2.642   0.747   0.564 -0.1932  0.5664 -1.0118
  458SOL    HW2 1374   2.522   0.754   0.450  1.3695 -0.4417  0.4665
  459SOL     OW 1375   2.019   0.335   2.527  0.4466  0.2900 -0.2334
  459SOL    HW1 1376   2.044   0.251   2.475 -1.2144 -0.0364  0.9797
  459SOL    HW2 1377   2.096   0.361   2.591  1.7525 -0.6554 -1.3589
  460SOL     OW 1378   2.865   0.036   2.791  0.2357  0.8975  0.6915
  460SOL    HW1 1379   2.807   3.060   2.773 -0.2904 -1.4914  0.5471
  460SOL    HW2 1380   2.954   0.010   2.836  2.6400 -1.8079 -0.4226
  461SOL     OW 1381   1.077   1.723   0.840 -0.1473 -0.2815  0.1659
  461SOL    HW1 1382   1.116   1.679   0.925  0.7555  3.6028 -0.5923
  461SOL    HW2 1383   0.976   1.709   0.856 -2.3607  2.3143  5.9876
  462SOL     OW 1384   2.626   2.707   1.455  0.5783 -0.7362  0.4654
  462SOL    HW1 1385   2.729   2.703   1.474  1.9318  0.4695  2.0386
  462SOL    HW2 1386   2.599   2.805   1.437  1.4270  0.4733  0.2571
  463SOL     OW 1387   2.551   1.148   0.727  0.4083  0.7039 -0.0156
  463SOL    HW1 1388   2.595   1.085   0.657 -2.0377 -2.8436 -1.0079
  463SOL    HW2 1389   2.559   1.110   0.823 -0.1452 -2.7106 -1.5475
  464SOL     OW 1390   0.412   2.592   1.088 -0.1616 -0.1441 -0.4764
  464SOL    HW1 1391   0.343   2.624   1.020  2.8840 -2.4818 -0.5813
  464SOL    HW2 1392   0.363   2.530   1.153 -2.3726 -0.0830  1.6536
  465SOL     OW 1393   0.101   1.625   0.158 -0.8988 -0.2198 -0.2633
  465SOL    HW1 1394   0.019   1.572   0.195 -1.3884 -4.3762  1.9647
  465SOL    HW2 1395   0.111   1.714   0.209 -1.9403  0.6352 -1.5877
  466SOL     OW 1396   1.609   0.136   2.665 -0.2816 -0.0662 -0.2613
  466SOL    HW1 1397   1.517   0.174   2.661  0.9549 -2.1837  0.1441
  466SOL    HW2 1398   1.651   0.142   2.763  2.5737 -0.2203  1.8138
  467SOL     OW 1399   1.054   0.780   2.016 -0.1629 -0.1017  0.5977
  467SOL    HW1 1400   1.149   0.779   1.985 -0.0915  1.5367  2.4964
  467SOL    HW2 1401   1.036   0.874   2.051  1.2402 -1.8208 -1.4296
  468SOL     OW 1402   0.363   0.931   2.289 -0.4678  0.5111  0.2341
  468SOL    HW1 1403   0.414   0.863   2.228  0.1089 -1.2875 -0.4288
  468SOL    HW2 1404   0.420   1.010   2.318 -1.1611 -2.4932  3.9616
  469SOL     OW 1405   0.028   1.983   0.096  0.2290 -0.0753 -0.3199
  469SOL    HW1 1406   0.029   2.010   3.100  0.4880 -2.0311 -2.0193
  469SOL    HW2 1407   0.006   2.068   0.146  1.9897  0.7533 -0.7809
  470SOL     OW 1408   2.533   1.593   2.785  0.2615 -0.1913 -0.4938
  470SOL    HW1 1409   2.516   1.495   2.784  1.1782  0.9974  0.7571
  470SOL    HW2 1410   2.504   1.640   2.873 -1.8798 -1.5830 -0.2301
  471SOL     OW 1411   2.116   0.643   2.322 -0.4533 -0.2763  0.2241
  471SOL    HW1 1412   2.168   0.701   2.250 -0.2251 -0.6183  1.0266
  471SOL    HW2 1413   2.044   0.692   2.369  4.7252 -3.3271  0.6952
  472SOL     OW 1414   0.647   2.523   0.955 -0.4211 -0.0096  0.4218
  472SOL    HW1 1415   0.694   2.523   1.048  0.3185 -1.8690  1.0797
  472SOL    HW2 1416   0.556   2.567   0.960  2.8714  1.1429 -0.1119
  473SOL     OW 1417   0.601   3.080   2.412  0.0326 -0.6224  0.3495
  473SOL    HW1 1418   0.606   0.001   2.511  2.1166 -0.1456  0.3963
  473SOL    HW2 1419   0.625   0.047   2.346 -0.7974 -1.6736  3.7691
  474SOL     OW 1420   1.675   0.136   2.113  0.2128  0.0555  0.2001
  474SOL    HW1 1421   1.710   0.210   2.174  1.6018 -3.2883 -1.2736
  474SOL    HW2 1422   1.580   0.156   2.091 -0.2759 -2.9316  1.3163
  475SOL     OW 1423   1.677   2.582   0.711 -0.1828  0.1827 -0.1135
  475SOL    HW1 1424   1.752   2.528   0.751  1.2909 -0.8548  0.2754
  475SOL    HW2 1425   1.683   2.598   0.612 -1.7488 -0.6261 -2.6160
  476SOL     OW 1426   0.120   0.708   0.977  0.4680 -0.2517 -0.0859
  476SOL    HW1 1427   0.090   0.712   0.881 -0.3827 -1.4460 -2.7518
  476SOL    HW2 1428   0.220   0.703   0.977 -2.1440  2.1962 -3.5378
  477SOL     OW 1429   1.391   2.194   0.508  0.8154  0.3760 -0.3552
  477SOL    HW1 1430   1.377   2.218   0.414 -1.4933  0.3731  0.9096
  477SOL    HW2 1431   1.303   2.148   0.538 -1.8446  1.3626 -0.3414
  478SOL     OW 1432   0.233   2.477   2.485  0.5450 -0.4051 -0.2698
  478SOL    HW1 1433   0.285   2.400   2.533 -2.8915 -3.0339  0.9709
  478SOL    HW2 1434   0.292   2.523   2.415  0.2480  0.2090 -2.3986
  479SOL     OW 1435   2.363   0.623   0.898 -0.5955  0.0412  0.3884
  479SOL    HW1 1436   2.274   0.595   0.865  2.9251  1.3750  0.3926
  479SOL    HW2 1437   2.357   0.600   0.997 -1.9611 -1.6194 -2.1984
  480SOL     OW 1438   0.001   3.087   0.136 -0.0966  0.5292 -0.4450
  480SOL    HW1 1439   0.051   3.023   0.192 -2.1521  0.5650 -2.3198
  480SOL    HW2 1440   3.103   0.070   0.191  0.9960  1.6823  2.2330
  481SOL     OW 1441   2.869   2.340   1.466  0.6057  0.3915 -0.3703
  481SOL    HW1 1442   2.834   2.250   1.499  0.1124  2.0472  0.1924
  481SOL    HW2 1443   2.876   2.398   1.549 -1.0713 -0.8806  0.8151
  482SOL     OW 1444   1.013   2.559   2.679  0.5256  0.7783 -0.3307
  482SOL    HW1 1445   1.056   2.529   2.590  0.0085 -2.3509 -0.5627
  482SOL    HW2 1446   0.952   2.637   2.668 -0.3040  2.5877 -1.4444
  483SOL     OW 1447   0.615   2.209   2.618  0.5509  0.1085  0.2056
  483SOL    HW1 1448   0.687   2.179   2.686  0.4238  0.9577  1.5362
  483SOL    HW2 1449   0.604   2.160   2.528  0.2618 -2.2400 -0.3066
  484SOL     OW 1450   1.152   0.862   1.525 -0.3076 -0.1059 -0.9406
  484SOL    HW1 1451   1.111   0.900   1.614  2.1189 -2.2317  0.4270
  484SOL    HW2 1452   1.223   0.788   1.551 -0.3799  1.2644  1.3149
  485SOL     OW 1453   2.406   0.887   2.827 -0.0209  0.5037  0.5325
  485SOL    HW1 1454   2.359   0.874   2.736  1.4700 -0.8435 -0.1156
  485SOL    HW2 1455   2.349   0.933   2.894  1.9066  0.1893 -1.5318
  486SOL     OW 1456   2.425   2.832   1.126 -0.1495  0.3376  0.1030
  486SOL    HW1 1457   2.324   2.838   1.122  2.9082  0.2491  2.7694
  486SOL    HW2 1458   2.474   2.841   1.038  0.2394  0.9475  1.0974
  487SOL     OW 1459   0.544   2.019   1.398 -0.1629 -0.1931 -0.4674
  487SOL    HW1 1460   0.623   2.016   1.339 -0.9706  2.3631  2.9831
  487SOL    HW2 1461   0.453   1.991   1.350 -1.4609 -1.8951 -0.7904
  488SOL     OW 1462   2.474   1.242   0.008 -0.4362 -0.1948  0.0532
  488SOL    HW1 1463   2.388   1.252   0.061  1.6379 -1.4558 -0.1310
  488SOL    HW2 1464   2.454   1.241   3.015 -1.1042 -2.9618  0.8009
  489SOL     OW 1465   1.554   0.148   0.956  0.0189  0.8166 -0.3216
  489SOL    HW1 1466   1.570   0.134   1.059 -1.6557  0.9371 -0.1348
  489SOL    HW2 1467   1.570   0.244   0.924  0.1550 -0.5634 -2.6759
  490SOL     OW 1468   0.773   0.627   0.330 -0.4710 -0.4380 -0.3055
  490SOL    HW1 1469   0.679   0.629   0.294  0.2950 -1.3100  0.6111
  490SOL    HW2 1470   0.846   0.675   0.277 -1.6809 -0.3997  0.5623
  491SOL     OW 1471   0.647   2.237   0.831  0.5676 -0.2465  0.0805
  491SOL    HW1 1472   0.741   2.222   0.803  0.8995  1.2682  0.5809
  491SOL    HW2 1473   0.630   2.336   0.839  1.2069  1.8388  0.9805
  492SOL     OW 1474   1.352   1.609   2.147 -0.1124 -0.2769 -0.0030
  492SOL    HW1 1475   1.297   1.574   2.226  0.7352  0.2883  0.2684
  492SOL    HW2 1476   1.348   1.546   2.068  0.4776  0.8345 -1.6499
  493SOL     OW 1477   2.698   2.420   0.650  0.4070 -0.4379 -0.4454
  493SOL    HW1 1478   2.737   2.336   0.602 -0.8155  0.6279  1.5577
  493SOL    HW2 1479   2.607   2.445   0.608  0.6845  2.7749  0.1370
  494SOL     OW 1480   2.656   2.022   0.216  0.0778  0.0377 -0.0010
  494SOL    HW1 1481   2.572   1.961   0.209 -1.8851 -2.4175  2.2761
  494SOL    HW2 1482   2.744   1.972   0.191  0.9117  0.3692 -1.9067
  495SOL     OW 1483   2.765   2.265   0.017 -0.2143 -0.7042 -0.3041
  495SOL    HW1 1484   2.744   2.186   3.058 -0.8327  0.4950 -1.9560
  495SOL    HW2 1485   2.859   2.295   0.009 -1.0784  0.6519 -0.7260
  496SOL     OW 1486   2.783   0.139   1.838 -0.0548 -0.0444 -0.5339
  496SOL    HW1 1487   2.756   0.146   1.737  0.0387 -1.6286 -2.8239
  496SOL    HW2 1488   2.771   0.040   1.850  0.4460  1.4969  0.4256
  497SOL     OW 1489   2.856   1.229   0.087  0.7643  0.2944 -0.8449
  497SOL    HW1 1490   2.837   1.143   0.036  0.0457  0.0528 -1.1189
  497SOL    HW2 1491   2.787   1.307   0.074  0.9886  0.8308 -0.9252
  498SOL     OW 1492   0.057   1.709   2.231  0.2044 -0.3953 -0.2235
  498SOL    HW1 1493   0.067   1.807   2.202  1.9363 -1.5630  2.7056
  498SOL    HW2 1494   0.067   1.704   2.329 -2.1760  2.5647 -2.4224
  499SOL     OW 1495   0.720   2.323   2.974 -0.4343 -0.4207  0.1103
  499SOL    HW1 1496   0.789   2.329   2.897  2.3245  0.7699  0.7768
  499SOL    HW2 1497   0.699   2.224   2.995 -1.4324 -2.8391  0.3565
  500SOL     OW 1498   1.705   0.122   2.914 -0.4628  0.1296  0.0259
  500SOL    HW1 1499   1.639   0.132   2.995  2.2681 -0.0841  0.7503
  500SOL    HW2 1500   1.792   0.081   2.946  0.8780 -1.6480  0.8102
  501SOL     OW 1501   1.182   3.017   1.400  0.6211 -0.1942 -0.4844
  501SOL    HW1 1502   1.259   3.053   1.458 -1.1595 -1.6578  0.4266
  501SOL    HW2 1503   1.201   3.038   1.300 -1.0170 -0.6664 -1.7278
  502SOL     OW 1504   2.607   0.931   1.938 -0.0090  0.0679 -0.5553
  502SOL    HW1 1505   2.546   1.011   1.944  3.2681 -1.4730 -0.3667
  502SOL    HW2 1506   2.553   0.844   1.929  1.4474 -2.9849 -1.2290
  503SOL     OW 1507   2.114   2.010   2.504  0.0469 -0.1444  0.3466
  503SOL    HW1 1508   2.089   2.087   2.570  0.9871  0.0244  2.5655
  503SOL    HW2 1509   2.041   1.964   2.446  2.0871 -1.2407 -1.0832
  504SOL     OW 1510   1.433   0.446   1.446 -0.2250 -0.1909 -0.9577
  504SOL    HW1 1511   1.465   0.366   1.387 -0.8363  0.3431 -1.8704
  504SOL    HW2 1512   1.371   0.411   1.519  2.0040  0.6011 -1.7399
  505SOL     OW 1513   0.825   0.787   1.862  0.0397  0.5259 -0.3642
  505SOL    HW1 1514   0.847   0.839   1.780  0.4822  2.2005  0.3092
  505SOL    HW2 1515   0.905   0.796   1.930  0.2462 -0.2908  1.2108
  506SOL     OW 1516   0.493   0.637   2.539  0.0266  0.2445  0.1597
  506SOL    HW1 1517   0.405   0.688   2.549  1.2559  2.0955  1.2973
  506SOL    HW2 1518   0.576   0.694   2.545  0.4366 -1.2283 -1.4918
  507SOL     OW 1519   0.298   0.051   3.089  0.0068 -0.1478 -0.1136
  507SOL    HW1 1520   0.228   3.081   3.093 -1.6243 -0.1893  0.9314
  507SOL    HW2 1521   0.306   0.078   2.989 -2.4268 -0.9032 -0.7442
  508SOL     OW 1522   1.068   1.029   1.321  0.1292 -0.6962  0.3348
  508SOL    HW1 1523   1.082   0.946   1.264  0.9752  2.4423 -1.6428
  508SOL    HW2 1524   1.118   1.015   1.409 -0.1546  1.2204 -2.5561
  509SOL     OW 1525   1.831   2.096   1.264  0.0228 -0.6257 -0.0989
  509SOL    HW1 1526   1.808   2.199   1.260 -2.5046  3.5094  0.5339
  509SOL    HW2 1527   1.905   2.075   1.331 -0.8838  0.3408  0.2891
  510SOL     OW 1528   2.619   1.322   2.008  0.0774  0.4895 -0.4620
  510SOL    HW1 1529   2.595   1.408   1.960 -1.3383 -0.9189  1.2396
  510SOL    HW2 1530   2.631   1.337   2.108 -1.1209 -0.5092  2.5891
  511SOL     OW 1531   0.856   2.192   1.503 -0.1267 -0.2809 -0.3344
  511SOL    HW1 1532   0.845   2.126   1.425 -0.1340  0.3530 -1.7496
  511SOL    HW2 1533   0.768   2.222   1.538 -0.7872  3.1197  1.7881
  512SOL     OW 1534   2.762   1.959   0.708 -0.1436  0.0889  0.7641
  512SOL    HW1 1535   2.771   2.056   0.678  1.7026 -1.1017  1.0117
  512SOL    HW2 1536   2.820   1.941   0.788 -1.3813 -1.4897 -2.3507
  513SOL     OW 1537   0.040   1.742   3.012  0.1225  0.3019 -0.0206
  513SOL    HW1 1538   0.117   1.808   3.006  1.3123  0.4434 -2.7448
  513SOL    HW2 1539   0.058   1.672   3.083 -0.3983  0.5933 -0.1942
  514SOL     OW 1540   2.864   2.519   2.316 -0.2000  0.2097 -0.1544
  514SOL    HW1 1541   2.926   2.501   2.395  1.0011  0.1391  1.0980
  514SOL    HW2 1542   2.927   2.502   2.235  2.1905  1.3639  1.5921
  515SOL     OW 1543   2.134   1.150   1.086  0.0124  0.5408 -0.1326
  515SOL    HW1 1544   2.100   1.139   0.986 -1.2778  0.2451 -0.5837
  515SOL    HW2 1545   2.108   1.238   1.127  2.6639 -1.8609  0.3917
  516SOL     OW 1546   2.160   2.049   0.367  0.0215 -0.8565 -0.3441
  516SOL    HW1 1547   2.257   2.037   0.402 -1.4698 -1.1933 -3.2760
  516SOL    HW2 1548   2.131   1.960   0.329  3.2827 -0.6635 -1.1466
  517SOL     OW 1549   0.839   1.091   0.060  0.4784  0.0134  0.1377
  517SOL    HW1 1550   0.855   1.187   0.042 -1.3433 -0.1331  0.5660
  517SOL    HW2 1551   0.778   1.076   0.145 -1.9038 -3.0525  0.4289
  518SOL     OW 1552   0.136   2.883   1.997  0.1976 -0.4584 -0.2552
  518SOL    HW1 1553   0.098   2.946   2.063 -0.3573 -1.3470 -1.8916
  518SOL    HW2 1554   0.064   2.842   1.931 -1.6527  4.0956  1.4944
  519SOL     OW 1555   1.266   1.714   2.502 -0.0232  0.8016 -0.5396
  519SOL    HW1 1556   1.196   1.747   2.572 -0.6008  2.5256  1.2041
  519SOL    HW2 1557   1.347   1.675   2.548 -1.9115 -4.2722 -0.4594
  520SOL     OW 1558   2.740   2.947   2.441 -0.7126 -0.2610  0.0436
  520SOL    HW1 1559   2.702   2.991   2.360 -0.8181 -0.5289  1.4361
  520SOL    HW2 1560   2.828   2.988   2.470 -1.3350  1.0854  0.1131
  521SOL     OW 1561   0.027   1.979   2.159 -0.5443 -0.1828  0.4670
  521SOL    HW1 1562   0.065   2.058   2.205 -1.2496  0.0026  2.1154
  521SOL    HW2 1563   3.035   1.992   2.141  2.7927 -0.9431 -1.8005
  522SOL     OW 1564   0.971   2.682   1.786 -0.0230 -0.0284 -0.0697
  522SOL    HW1 1565   0.880   2.689   1.740  0.5109  0.7971  1.4145
  522SOL    HW2 1566   1.027   2.607   1.741  0.0222 -2.5006 -1.0637
  523SOL     OW 1567   0.135   2.281   1.407  0.0765 -0.6128 -0.7049
  523SOL    HW1 1568   0.114   2.318   1.502  2.0496  1.9058  0.9654
  523SOL    HW2 1569   0.062   2.307   1.338 -3.0837  2.7253  0.9786
  524SOL     OW 1570   1.403   2.424   0.632 -0.1101  0.2191 -0.0992
  524SOL    HW1 1571   1.408   2.336   0.580  3.2112  2.5133  0.0408
  524SOL    HW2 1572   1.467   2.438   0.709 -1.9684  3.9079 -0.2519
  525SOL     OW 1573   2.410   1.198   1.182 -0.3670  0.1952  0.6608
  525SOL    HW1 1574   2.466   1.282   1.161  1.1580  1.5681 -0.5072
  525SOL    HW2 1575   2.326   1.195   1.128  0.8118 -3.1871  0.6117
  526SOL     OW 1576   0.907   2.214   0.741 -0.0713  0.0783  0.5089
  526SOL    HW1 1577   0.874   2.263   0.662 -0.3245 -3.0118 -0.5021
  526SOL    HW2 1578   0.971   2.141   0.704 -0.2418 -1.8191  1.0062
  527SOL     OW 1579   2.293   2.227   0.702 -0.0512  0.3404 -0.2235
  527SOL    HW1 1580   2.265   2.209   0.800 -2.2432  0.1837 -0.8150
  527SOL    HW2 1581   2.219   2.272   0.649  2.1336 -1.8637 -1.4036
  528SOL     OW 1582   2.150   0.224   0.136 -0.2067  0.3412 -0.6967
  528SOL    HW1 1583   2.070   0.247   0.081  2.0927 -0.1154  0.3268
  528SOL    HW2 1584   2.143   0.125   0.163  0.4265 -3.8497 -1.5075
  529SOL     OW 1585   1.041   1.475   2.059 -0.3650  0.3698 -0.5276
  529SOL    HW1 1586   1.072   1.515   2.156  2.2373  0.8612  0.7615
  529SOL    HW2 1587   1.024   1.551   1.997 -1.4732  0.8194  2.0093
  530SOL     OW 1588   2.322   1.013   2.370  0.1953 -0.5740 -0.3261
  530SOL    HW1 1589   2.417   1.020   2.408  1.9761 -0.1200 -0.5462
  530SOL    HW2 1590   2.279   0.932   2.408  0.6665  0.2402  1.4613
  531SOL     OW 1591   0.761   0.979   2.929 -0.1813 -0.2392  0.5366
  531SOL    HW1 1592   0.771   1.025   3.017 -3.8713 -0.3447  2.2812
  531SOL    HW2 1593   0.767   0.877   2.938  0.7494  0.1981 -0.0675
  532SOL     OW 1594   1.524   0.968   0.585 -0.0993 -0.4361 -0.3071
  532SOL    HW1 1595   1.550   0.871   0.606  0.0476  0.0473 -2.0120
  532SOL    HW2 1596   1.524   0.983   0.481 -0.6922  2.0295 -1.7869
  533SOL     OW 1597   0.431   0.490   2.109  0.0740 -0.1916 -0.1978
  533SOL    HW1 1598   0.353   0.492   2.046  3.2022 -1.4214  0.6362
  533SOL    HW2 1599   0.519   0.499   2.061 -0.7296 -1.3358  1.4261
  534SOL     OW 1600   1.581   0.311   2.314  0.5105 -0.4487 -0.2124
  534SOL    HW1 1601   1.643   0.313   2.396  0.7414  4.4147  1.7127
  534SOL    HW2 1602   1.499   0.357   2.346 -1.3722 -2.9974  3.1213
  535SOL     OW 1603   0.576   0.058   0.395 -0.1636 -0.7347 -0.2581
  535SOL    HW1 1604   0.609   3.069   0.373 -0.6685  2.1792 -0.5300
  535SOL    HW2 1605   0.475   0.053   0.410 -0.9388  0.2822  0.5597
  536SOL     OW 1606   1.157   0.473   0.220 -0.3171  0.2158 -0.3285
  536SOL    HW1 1607   1.156   0.546   0.292 -0.5680 -1.1299 -0.0443
  536SOL    HW2 1608   1.078   0.474   0.160 -0.8166 -0.8337 -0.1564
  537SOL     OW 1609   1.506   2.867   1.627  0.1504  0.3679 -0.1147
  537SOL    HW1 1610   1.596   2.832   1.666  2.8188 -1.3935  0.6833
  537SOL    HW2 1611   1.482   2.812   1.548 -2.2397  1.1478  0.6950
  538SOL     OW 1612   0.377   2.778   0.178  0.3916 -0.1377  0.7047
  538SOL    HW1 1613   0.347   2.818   0.265  1.5777 -0.9317 -1.2271
  538SOL    HW2 1614   0.426   2.848   0.121 -1.2001  0.4546  1.5528
  539SOL     OW 1615   2.903   1.340   1.957 -0.0977 -0.3419 -0.6408
  539SOL    HW1 1616   2.951   1.416   2.010 -2.5005  1.8999  1.7899
  539SOL    HW2 1617   2.807   1.333   1.989  1.1017  0.2889  0.3726
  540SOL     OW 1618   2.328   2.224   1.989 -0.3529  0.1870  0.2539
  540SOL    HW1 1619   2.382   2.248   2.070 -1.1333  0.8978 -1.8320
  540SOL    HW2 1620   2.387   2.181   1.918  1.3482 -2.2573 -2.0508
  541SOL     OW 1621   0.569   2.781   1.171  0.3537  0.0905  0.1176
  541SOL    HW1 1622   0.509   2.695   1.161 -4.1926 -0.0858  0.8280
  541SOL    HW2 1623   0.665   2.767   1.131  0.1018 -0.1178 -3.3569
  542SOL     OW 1624   2.627   0.462   2.247 -0.0522 -0.0823 -0.1477
  542SOL    HW1 1625   2.689   0.383   2.268 -1.3603  1.7105  0.1032
  542SOL    HW2 1626   2.609   0.461   2.147  0.4983 -1.6469  3.8130
  543SOL     OW 1627   0.810   0.632   1.049 -0.0600 -0.2870  0.1469
  543SOL    HW1 1628   0.797   0.694   1.131  0.9283  3.4019  1.8829
  543SOL    HW2 1629   0.793   0.533   1.058 -1.1704 -1.9308 -3.8064
  544SOL     OW 1630   2.429   2.369   1.312 -0.0280  0.9789  0.5911
  544SOL    HW1 1631   2.385   2.373   1.218  0.8954 -2.1638  2.8121
  544SOL    HW2 1632   2.429   2.454   1.364  2.6487  0.9365 -1.2338
  545SOL     OW 1633   1.381   1.359   1.038 -0.4654 -0.1047  0.5112
  545SOL    HW1 1634   1.427   1.445   1.064 -1.5840 -0.3098  1.2764
  545SOL    HW2 1635   1.454   1.288   1.034 -3.1066  1.7498  1.5714
  546SOL     OW 1636   2.870   0.412   2.654 -0.4141 -0.2331  0.6768
  546SOL    HW1 1637   2.829   0.490   2.602 -0.4048 -1.4193  1.9839
  546SOL    HW2 1638   2.804   0.363   2.714  0.1431  0.1557  0.5011
  547SOL     OW 1639   2.239   0.398   2.659 -0.4403 -0.1707  0.2336
  547SOL    HW1 1640   2.215   0.430   2.751  0.0841  0.2139  0.8164
  547SOL    HW2 1641   2.329   0.434   2.632 -3.4464  1.1817  0.8922
  548SOL     OW 1642   2.479   2.064   2.843  0.2147  0.2385 -0.6558
  548SOL    HW1 1643   2.461   2.020   2.752  1.9914 -2.4217 -1.9016
  548SOL    HW2 1644   2.575   2.055   2.870 -1.0665  1.8896 -1.5473
  549SOL     OW 1645   2.102   0.495   0.498 -0.4748  0.3618 -0.6443
  549SOL    HW1 1646   2.136   0.512   0.592 -1.8194 -1.5596  0.8040
  549SOL    HW2 1647   2.173   0.446   0.441  1.0666 -0.0193  2.5747
  550SOL     OW 1648   2.505   1.233   0.415  0.2304  0.3186 -0.1611
  550SOL    HW1 1649   2.429   1.299   0.402 -2.4955 -1.2700  1.3063
  550SOL    HW2 1650   2.470   1.141   0.394 -0.3583  0.4425 -0.3495
  551SOL     OW 1651   1.547   2.414   1.279 -0.3650  0.2079 -0.3019
  551SOL    HW1 1652   1.511   2.501   1.237  2.4974 -1.5409  1.0698
  551SOL    HW2 1653   1.640   2.398   1.243 -1.2200 -0.1633  2.9090
  552SOL     OW 1654   2.968   2.386   2.722 -0.0987  0.8474 -0.0086
  552SOL    HW1 1655   2.953   2.288   2.691  1.3858  0.4920 -0.0931
  552SOL    HW2 1656   2.878   2.429   2.748 -3.1860 -0.3628  0.3734
  553SOL     OW 1657   0.324   2.911   0.436 -0.5978 -0.6916 -0.3466
  553SOL    HW1 1658   0.320   3.010   0.429 -1.0286 -1.3733 -0.6346
  553SOL    HW2 1659   0.367   2.880   0.527 -0.2741 -1.5999 -2.3008
  554SOL     OW 1660   1.882   1.868   1.620 -0.0219 -0.3484 -0.1937
  554SOL    HW1 1661   1.781   1.866   1.606 -0.1410  0.6383 -1.2543
  554SOL    HW2 1662   1.922   1.772   1.615 -2.2711 -0.8238 -1.1012
  555SOL     OW 1663   1.532   2.473   2.088  0.1107  0.0061 -0.1078
  555SOL    HW1 1664   1.521   2.403   2.010 -0.3055 -2.7298 -1.9568
  555SOL    HW2 1665   1.469   2.554   2.074 -3.3537  1.4565  1.7482
  556SOL     OW 1666   1.649   0.722   0.614  0.4863 -0.0021 -0.2311
  556SOL    HW1 1667   1.724   0.688   0.561 -0.3813 -0.0389  0.1954
  556SOL    HW2 1668   1.560   0.671   0.598 -1.1929 -1.1486 -4.0758
  557SOL     OW 1669   1.534   2.181   1.473  0.3447  0.4049 -0.0721
  557SOL    HW1 1670   1.493   2.143   1.389  0.3804 -0.8495  1.4340
  557SOL    HW2 1671   1.470   2.249   1.517 -1.1394  0.3245 -1.8532
  558SOL     OW 1672   2.925   1.216   2.623  0.0241  0.1069 -0.2206
  558SOL    HW1 1673   2.843   1.159   2.637  3.0386  2.3685 -0.2310
  558SOL    HW2 1674   3.016   1.169   2.624 -0.5382  1.4218  2.2000
  559SOL     OW 1675   2.564   2.532   2.304 -0.4694  0.8909  0.0800
  559SOL    HW1 1676   2.624   2.581   2.368 -0.8854  0.7126 -0.6860
  559SOL    HW2 1677   2.467   2.538   2.341  0.9104 -2.1190  0.3245
  560SOL     OW 1678   0.103   2.941   2.558 -0.2275 -0.4136 -0.6357
  560SOL    HW1 1679   0.086   3.039   2.538  3.0100  0.9381 -0.5714
  560SOL    HW2 1680   0.197   2.925   2.528 -0.0408 -0.3690  0.1884
  561SOL     OW 1681   1.418   0.596   0.548  0.2614  0.2033 -0.0351
  561SOL    HW1 1682   1.338   0.633   0.493 -0.9791 -2.8037 -1.4800
  561SOL    HW2 1683   1.417   0.493   0.551  1.6857  0.8570  0.8466
  562SOL     OW 1684   0.551   1.335   2.150 -0.0533  0.3987 -0.9347
  562SOL    HW1 1685   0.637   1.357   2.096  1.7909  0.3313  0.4564
  562SOL    HW2 1686   0.500   1.425   2.164 -2.9508  3.6076  2.8749
  563SOL     OW 1687   1.763   2.086   0.132  0.1422  0.5724  0.1763
  563SOL    HW1 1688   1.761   2.046   0.041 -0.0648  1.7046  1.1052
  563SOL    HW2 1689   1.836   2.161   0.148 -0.8546  0.8976  1.4580
  564SOL     OW 1690   0.261   2.116   0.628  0.4406  0.4296  0.4415
  564SOL    HW1 1691   0.230   2.025   0.590  0.9632 -1.8658  0.2908
  564SOL    HW2 1692   0.313   2.097   0.710  0.1416 -0.6904  2.7299
  565SOL     OW 1693   0.601   2.979   0.086 -0.0804  0.2972 -0.7057
  565SOL    HW1 1694   0.609   2.902   0.017  0.5305  1.2388 -2.4322
  565SOL    HW2 1695   0.612   3.068   0.044  1.5965  1.8947 -0.0349
  566SOL     OW 1696   1.396   2.685   2.710  0.3865 -0.2771  0.3916
  566SOL    HW1 1697   1.436   2.674   2.802 -2.7552 -2.0486 -0.2095
  566SOL    HW2 1698   1.438   2.761   2.655  2.6859  1.4259 -2.4831
  567SOL     OW 1699   2.601   1.830   1.237  0.9760 -0.7411  0.0977
  567SOL    HW1 1700   2.661   1.904   1.278 -1.1664  0.0092 -0.0429
  567SOL    HW2 1701   2.571   1.755   1.297 -2.1905 -0.5355  0.6951
  568SOL     OW 1702   1.772   1.058   2.598 -0.2715 -0.1692 -0.4108
  568SOL    HW1 1703   1.690   1.016   2.647 -1.8768 -1.9050  1.0008
  568SOL    HW2 1704   1.844   1.096   2.662  1.9502  2.3052 -0.4080
  569SOL     OW 1705   2.101   1.810   1.995 -0.4006 -0.1502 -0.3846
  569SOL    HW1 1706   2.086   1.722   2.048 -0.3644 -1.7903 -1.2266
  569SOL    HW2 1707   2.151   1.880   2.052  1.3699 -0.2114  1.0312
  570SOL     OW 1708   3.084   2.775   1.802 -0.1411 -0.1224 -0.2771
  570SOL    HW1 1709   0.047   2.708   1.769 -0.9864  3.7009 -0.3397
  570SOL    HW2 1710   3.044   2.831   1.722 -0.1309  1.6123 -1.2280
  571SOL     OW 1711   0.278   0.787   1.385 -0.5190 -0.5787 -0.5956
  571SOL    HW1 1712   0.199   0.821   1.336 -0.7842  1.3564 -0.5494
  571SOL    HW2 1713   0.256   0.703   1.444 -1.4191  1.0695 -0.0900
  572SOL     OW 1714   0.395   1.366   0.709 -0.7498 -0.3350 -0.2305
  572SOL    HW1 1715   0.390   1.406   0.801  1.7917 -2.7256 -1.5620
  572SOL    HW2 1716   0.465   1.297   0.692 -1.6113 -0.7278 -0.1319
  573SOL     OW 1717   0.980   0.751   0.186  0.2893 -0.1162 -0.9500
  573SOL    HW1 1718   0.919   0.775   0.106  0.2341  1.1043 -0.2334
  573SOL    HW2 1719   1.071   0.797   0.179  0.2092  1.5238 -1.2312
  574SOL     OW 1720   0.149   0.236   0.204  0.1033  0.2823 -0.4593
  574SOL    HW1 1721   0.193   0.221   0.110  0.1119 -1.7936  2.8788
  574SOL    HW2 1722   0.214   0.286   0.266 -2.1148  1.3051  1.3272
  575SOL     OW 1723   0.853   1.943   1.018  0.0505  0.1782  0.9680
  575SOL    HW1 1724   0.827   1.872   0.952  0.9850 -1.5579  1.5893
  575SOL    HW2 1725   0.926   2.004   0.981  0.7758  1.0256  2.3286
  576SOL     OW 1726   3.054   0.164   1.898  0.2213  0.2903  0.1355
  576SOL    HW1 1727   3.099   0.128   1.811 -0.6398  1.9356 -1.2976
  576SOL    HW2 1728   2.951   0.162   1.880  1.2771 -0.0621  1.1268
  577SOL     OW 1729   2.688   1.712   2.175 -0.1592  0.3291 -0.0708
  577SOL    HW1 1730   2.600   1.738   2.215  0.6314  0.3708 -1.7988
  577SOL    HW2 1731   2.748   1.670   2.248  2.5647 -2.5897  0.4788
  578SOL     OW 1732   1.191   0.002   2.330  0.0604  0.4977 -0.5253
  578SOL    HW1 1733   1.293   0.013   2.326  1.3061  0.7920  1.2500
  578SOL    HW2 1734   1.165   3.069   2.422  0.7744  0.8769  1.4047
  579SOL     OW 1735   1.708   1.742   2.277 -0.1313 -0.3958  0.3845
  579SOL    HW1 1736   1.723   1.694   2.189 -0.5036 -0.1350  1.0958
  579SOL    HW2 1737   1.611   1.785   2.280 -0.9196 -2.1090 -0.0982
  580SOL     OW 1738   1.580   0.844   1.923 -0.3543  0.1468  0.6416
  580SOL    HW1 1739   1.679   0.843   1.938 -2.2060 -0.0485  0.8807
  580SOL    HW2 1740   1.528   0.894   1.994  1.3000  0.5750  2.4471
  581SOL     OW 1741   1.048   1.208   2.463 -0.0982 -0.8588  0.1812
  581SOL    HW1 1742   1.104   1.134   2.504 -0.4165  1.4891 -2.0456
  581SOL    HW2 1743   0.981   1.168   2.394  1.0982 -0.2098  1.0716
  582SOL     OW 1744   3.035   2.456   2.130 -0.0778  0.5341  0.7991
  582SOL    HW1 1745   0.024   2.494   2.138 -2.6362 -0.8001 -1.1203
  582SOL    HW2 1746   2.974   2.523   2.082  0.4801  1.3089  1.7436
  583SOL     OW 1747   1.776   1.236   1.305 -0.0210 -0.0044  0.7005
  583SOL    HW1 1748   1.776   1.286   1.213  0.5545  2.1896  1.6697
  583SOL    HW2 1749   1.792   1.303   1.381  0.5871  0.5423 -2.1216
  584SOL     OW 1750   0.877   2.321   2.726  0.1521 -0.5360  0.1274
  584SOL    HW1 1751   0.940   2.242   2.725  1.7154 -0.1487 -1.7735
  584SOL    HW2 1752   0.930   2.400   2.685 -2.0458 -2.6152  0.4541
  585SOL     OW 1753   0.203   2.480   0.376  0.2509  0.7248 -0.2428
  585SOL    HW1 1754   0.138   2.455   0.302 -0.9453 -1.6076 -0.3844
  585SOL    HW2 1755   0.303   2.455   0.348 -0.1353 -0.6321 -2.4952
  586SOL     OW 1756   2.030   1.530   0.431 -0.3203  0.4292  0.6900
  586SOL    HW1 1757   1.952   1.492   0.380  2.5389  0.3103  1.3889
  586SOL    HW2 1758   2.011   1.557   0.530 -1.1461  1.9442  1.0023
  587SOL     OW 1759   2.978   1.909   0.457  0.0705 -0.1963  0.6953
  587SOL    HW1 1760   3.044   1.978   0.499 -0.2100  2.7603  1.3791
  587SOL    HW2 1761   2.966   1.826   0.520  1.7022 -0.6498 -0.4520
  588SOL     OW 1762   2.616   0.299   0.845 -0.2576 -0.3342  0.1558
  588SOL    HW1 1763   2.633   0.354   0.928 -0.7228  1.7021 -0.2159
  588SOL    HW2 1764   2.587   0.204   0.869 -0.6545 -0.5102  0.5814
  589SOL     OW 1765   0.946   0.707   0.790 -0.4049 -0.7351  0.0340
  589SOL    HW1 1766   1.012   0.777   0.830  0.5859  3.1907  0.0953
  589SOL    HW2 1767   0.880   0.676   0.863  1.2901  1.4429  0.2706
  590SOL     OW 1768   2.395   2.449   0.221 -0.1925 -0.6224 -0.2339
  590SOL    HW1 1769   2.448   2.369   0.261  1.3554 -0.8730 -3.7462
  590SOL    HW2 1770   2.438   2.532   0.267 -0.7248 -2.5644 -1.0441
  591SOL     OW 1771   0.670   2.407   1.862 -0.6095  0.5556 -0.2453
  591SOL    HW1 1772   0.766   2.381   1.832  0.2026  0.3758 -1.9033
  591SOL    HW2 1773   0.599   2.381   1.794  0.2825 -0.2800 -0.2320
  592SOL     OW 1774   0.766   1.680   1.906  0.3120  0.4086 -0.1730
  592SOL    HW1 1775   0.863   1.710   1.889 -0.5726  1.5289  3.1875
  592SOL    HW2 1776   0.762   1.586   1.943  0.9113 -4.6774  1.2655
  593SOL     OW 1777   1.396   1.869   1.151 -0.1933  0.2303  0.0601
  593SOL    HW1 1778   1.484   1.872   1.202 -0.7854  0.6478 -0.3389
  593SOL    HW2 1779   1.344   1.953   1.175 -0.4618 -0.8962  0.2953
  594SOL     OW 1780   0.329   1.056   2.682  0.3409  0.1032 -0.3445
  594SOL    HW1 1781   0.266   1.105   2.747 -0.8678 -1.1043 -0.1359
  594SOL    HW2 1782   0.431   1.070   2.698  0.4489 -1.1739 -1.0849
  595SOL     OW 1783   1.589   0.412   0.862  0.2241  0.5958 -0.2479
  595SOL    HW1 1784   1.600   0.510   0.886 -0.1832 -1.8484 -0.2490
  595SOL    HW2 1785   1.615   0.388   0.770 -1.5240  0.5428  2.5241
  596SOL     OW 1786   0.282   1.066   1.169 -0.4018 -0.1336 -0.0067
  596SOL    HW1 1787   0.350   1.062   1.094  0.4135  1.3117  0.0397
  596SOL    HW2 1788   0.229   1.154   1.153 -2.1696  1.7526  0.6482
  597SOL     OW 1789   0.297   2.443   2.912 -0.0985  0.0732  0.4741
  597SOL    HW1 1790   0.380   2.505   2.919 -0.4778  2.6604  1.0498
  597SOL    HW2 1791   0.209   2.498   2.895 -4.5033  1.5239 -1.1293
  598SOL     OW 1792   2.001   2.069   2.890 -0.2752  0.1916 -0.0867
  598SOL    HW1 1793   2.015   2.118   2.804  0.4431 -2.7890  2.0632
  598SOL    HW2 1794   2.066   2.104   2.959  0.1341 -2.0406 -1.4707
  599SOL     OW 1795   1.716   0.567   0.299 -0.2665  0.4886 -0.0463
  599SOL    HW1 1796   1.637   0.627   0.302 -0.7841 -1.6325  1.2221
  599SOL    HW2 1797   1.769   0.569   0.386  0.8570  0.0864 -0.5074
  600SOL     OW 1798   0.884   0.224   0.167  0.5399 -0.4908  0.3223
  600SOL    HW1 1799   0.944   0.147   0.135 -4.4027  2.3874  0.5041
  600SOL    HW2 1800   0.901   0.311   0.110 -1.5157  0.3537  0.1597
  601SOL     OW 1801   0.501   0.033   1.401  0.1400 -0.1158 -0.0477
  601SOL    HW1 1802   0.544   0.113   1.451  2.2597 -1.4438 -0.7221
  601SOL    HW2 1803   0.509   0.037   1.303 -0.5175 -1.3960  2.9770
  602SOL     OW 1804   0.118   2.915   0.860 -0.1620  0.4791  0.1112
  602SOL    HW1 1805   0.091   2.932   0.764 -2.9836  0.3595 -2.9662
  602SOL    HW2 1806   0.150   3.001   0.905 -0.7141 -0.9344  2.1096
  603SOL     OW 1807   0.776   2.870   2.423 -0.2398 -0.6910 -0.2780
  603SOL    HW1 1808   0.837   2.911   2.354 -0.6713 -2.1095 -1.8522
  603SOL    HW2 1809   0.691   2.928   2.431 -3.7496  1.4688  3.4689
  604SOL     OW 1810   1.154   2.618   0.047  0.0277 -0.2245  0.2271
  604SOL    HW1 1811   1.074   2.567   0.088  2.2353 -1.0555 -1.1841
  604SOL    HW2 1812   1.172   2.585   3.059 -1.2303  4.0025  1.2423
  605SOL     OW 1813   1.362   0.671   1.594  0.1978 -0.3058  0.6494
  605SOL    HW1 1814   1.377   0.605   1.518  0.4858 -0.2125  0.8239
  605SOL    HW2 1815   1.445   0.729   1.607 -2.8959 -1.7612 -0.3923
  606SOL     OW 1816   1.349   0.310   2.633  0.3976  0.0538 -0.7472
  606SOL    HW1 1817   1.395   0.395   2.669  0.9301  1.0332 -1.9015
  606SOL    HW2 1818   1.254   0.319   2.662  0.6714  0.1675  1.5217
  607SOL     OW 1819   0.446   1.324   1.361 -0.3797 -0.5485  0.1359
  607SOL    HW1 1820   0.438   1.228   1.394  1.2762 -0.7166 -0.6714
  607SOL    HW2 1821   0.356   1.371   1.356 -0.4328 -1.2250  0.5903
  608SOL     OW 1822   2.601   2.249   2.540 -0.5550  0.1669  0.2571
  608SOL    HW1 1823   2.678   2.210   2.595  1.1166  0.2042  3.2032
  608SOL    HW2 1824   2.630   2.315   2.473  0.6896 -0.7652 -0.1555
  609SOL     OW 1825   2.159   3.078   0.249  0.0064 -0.4763  0.1305
  609SOL    HW1 1826   2.178   2.982   0.224 -2.0247 -2.1868 -0.1871
  609SOL    HW2 1827   2.210   3.101   0.335 -1.8585 -0.6004 -1.1573
  610SOL     OW 1828   0.851   2.374   1.177  0.4466 -0.0295 -0.4846
  610SOL    HW1 1829   0.866   2.378   1.076 -2.5755  0.6586  1.7672
  610SOL    HW2 1830   0.937   2.405   1.228  0.3103 -0.1661 -2.2301
  611SOL     OW 1831   0.792   1.390   0.743  0.5698  0.3199  0.1631
  611SOL    HW1 1832   0.789   1.480   0.697 -0.3360 -1.1914 -0.0541
  611SOL    HW2 1833   0.724   1.321   0.707 -0.3365  0.3609  0.8462
  612SOL     OW 1834   0.768   0.143   2.166 -0.1339  0.3476  0.0917
  612SOL    HW1 1835   0.769   0.123   2.065 -1.6580 -0.6690  0.3868
  612SOL    HW2 1836   0.845   0.211   2.175 -2.3421  0.6057  0.7730
  613SOL     OW 1837   2.660   1.611   0.415 -0.1015 -0.3215 -0.8033
  613SOL    HW1 1838   2.613   1.566   0.496  0.6294 -0.9297  0.1948
  613SOL    HW2 1839   2.664   1.713   0.432 -0.6699 -1.9113 -3.0869
  614SOL     OW 1840   1.678   0.311   1.721  0.5754  0.4676  0.2051
  614SOL    HW1 1841   1.654   0.396   1.770 -1.7142  0.1713  0.0481
  614SOL    HW2 1842   1.656   0.323   1.622 -0.7975 -0.4091  1.5212
  615SOL     OW 1843   0.891   1.754   1.219  0.3923 -0.4695 -0.7851
  615SOL    HW1 1844   0.989   1.757   1.235 -1.0972 -0.8105 -3.1263
  615SOL    HW2 1845   0.868   1.840   1.165 -0.0229 -0.6169  1.1762
  616SOL     OW 1846   1.504   1.351   2.646 -0.7340 -0.3578 -0.4459
  616SOL    HW1 1847   1.566   1.286   2.598  0.9507 -0.3196  0.5225
  616SOL    HW2 1848   1.537   1.448   2.628  1.1927  1.9595  0.9182
  617SOL     OW 1849   1.661   2.745   0.495 -0.2101  0.0841  0.3473
  617SOL    HW1 1850   1.625   2.693   0.412 -1.4381 -3.4081 -0.8896
  617SOL    HW2 1851   1.591   2.818   0.517 -1.2361 -0.3888 -1.1977
  618SOL     OW 1852   0.598   1.022   2.731 -0.2323 -0.0280 -0.1896
  618SOL    HW1 1853   0.667   1.001   2.801 -0.8322 -0.9955 -3.8918
  618SOL    HW2 1854   0.619   1.108   2.681  2.4226 -1.1784 -1.9394
  619SOL     OW 1855   2.752   1.325   0.606 -0.3603 -0.7806 -0.1353
  619SOL    HW1 1856   2.779   1.339   0.506 -2.0566 -0.1682 -1.5443
  619SOL    HW2 1857   2.659   1.282   0.610  3.5975  0.7659  2.9074
  620SOL     OW 1858   2.208   2.810   0.171  0.4796  0.4864  0.1456
  620SOL    HW1 1859   2.245   2.737   0.104  1.3423 -1.6093 -1.5246
  620SOL    HW2 1860   2.203   2.777   0.265 -0.1847  1.1062 -4.2007
  621SOL     OW 1861   2.241   1.294   0.176  0.2457 -0.1956  0.1345
  621SOL    HW1 1862   2.220   1.318   0.271  0.9617 -1.5909 -1.9747
  621SOL    HW2 1863   2.167   1.239   0.133  2.7040 -0.6688  0.1675
  622SOL     OW 1864   1.113   2.514   2.426 -0.0054 -0.2693 -0.2336
  622SOL    HW1 1865   1.070   2.494   2.335  1.5335 -1.1631 -0.9574
  622SOL    HW2 1866   1.189   2.451   2.445  1.4845  0.5193  0.6624
  623SOL     OW 1867   0.862   1.428   0.332  0.0600 -0.0927  0.2872
  623SOL    HW1 1868   0.916   1.486   0.261 -1.4530 -0.3261 -1.1992
  623SOL    HW2 1869   0.767   1.436   0.293 -0.9994 -4.4750 -2.1113
  624SOL     OW 1870   0.588   0.061   2.648 -1.0258  0.0102 -0.0046
  624SOL    HW1 1871   0.553   0.154   2.659 -2.0398 -3.1590  0.3671
  624SOL    HW2 1872   0.515   3.104   2.674  1.4178 -0.6958  0.9363
  625SOL     OW 1873   0.917   1.936   0.333 -0.2313  0.1205 -0.4099
  625SOL    HW1 1874   0.862   2.009   0.288 -1.4201  0.9227 -1.6008
  625SOL    HW2 1875   0.972   1.888   0.267 -0.8488 -0.4681  3.3904
  626SOL     OW 1876   2.374   0.177   3.076  0.1677  0.2915 -0.2270
  626SOL    HW1 1877   2.279   0.197   0.012 -0.9814  0.2546  3.8133
  626SOL    HW2 1878   2.411   0.260   3.031 -2.3307 -1.9842  1.1971
  627SOL     OW 1879   1.311   1.328   2.422 -0.4135 -0.5542 -0.5409
  627SOL    HW1 1880   1.342   1.347   2.517  0.2662  1.5996  1.3589
  627SOL    HW2 1881   1.216   1.298   2.431  0.0992  0.1276 -0.2300
  628SOL     OW 1882   0.810   0.834   2.268 -0.0722 -0.0965 -0.5663
  628SOL    HW1 1883   0.782   0.906   2.199  1.9365  1.4125  1.0216
  628SOL    HW2 1884   0.794   0.736   2.239  3.4241  0.8624  1.2873
  629SOL     OW 1885   0.516   3.056   2.000 -0.2318  0.8325  0.1601
  629SOL    HW1 1886   0.563   3.006   2.076  3.1295 -0.3383  2.6245
  629SOL    HW2 1887   0.584   0.008   1.956 -1.1767  0.1554 -1.8046
  630SOL     OW 1888   2.343   0.810   1.644 -0.2207 -0.2240 -0.1120
  630SOL    HW1 1889   2.372   0.905   1.661  1.1988 -1.5968  4.0701
  630SOL    HW2 1890   2.252   0.817   1.591  1.2811  3.7847  1.1950
  631SOL     OW 1891   2.267   1.386   0.434 -0.2200 -0.7384  0.5407
  631SOL    HW1 1892   2.274   1.342   0.526  1.2989 -0.6207 -0.4665
  631SOL    HW2 1893   2.182   1.440   0.424  1.2003 -2.8771  0.5749
  632SOL     OW 1894   2.127   0.321   1.967 -0.5389  0.0144  0.0648
  632SOL    HW1 1895   2.176   0.351   1.880  1.6799  0.1324  1.8355
  632SOL    HW2 1896   2.053   0.257   1.941  0.7120 -0.5619  0.5281
  633SOL     OW 1897   0.924   2.846   0.421  0.0350 -0.0439 -0.1107
  633SOL    HW1 1898   0.850   2.894   0.369  1.7883 -0.1542 -0.8006
  633SOL    HW2 1899   0.931   2.877   0.519  2.0560 -0.0843 -1.7312
  634SOL     OW 1900   1.386   3.033   2.834 -0.2569  0.3059  0.5940
  634SOL    HW1 1901   1.393   2.998   2.929 -0.9398  2.2318  0.0940
  634SOL    HW2 1902   1.441   2.978   2.762  2.2733  0.3887  0.4911
  635SOL     OW 1903   2.555   0.549   0.060  0.0830 -0.2484 -0.4908
  635SOL    HW1 1904   2.619   0.612   0.108  1.9134 -1.2877  3.2692
  635SOL    HW2 1905   2.501   0.495   0.125  0.9957 -1.3085  1.0319
  636SOL     OW 1906   0.664   1.691   1.110 -0.2896  0.9530  0.3609
  636SOL    HW1 1907   0.760   1.680   1.146 -0.8286 -0.2821 -1.6057
  636SOL    HW2 1908   0.611   1.606   1.091 -0.1341 -2.6994 -0.3175
  637SOL     OW 1909   0.032   2.661   0.504  0.7055  0.0275  0.1179
  637SOL    HW1 1910   3.068   2.619   0.569 -1.2443  0.0795  2.3739
  637SOL    HW2 1911   0.096   2.592   0.466 -0.6104  0.8854 -1.5452
  638SOL     OW 1912   0.098   2.855   0.294 -0.1863 -0.3484  0.2114
  638SOL    HW1 1913   0.049   2.776   0.338 -0.3907 -0.2535 -3.6845
  638SOL    HW2 1914   0.181   2.863   0.352  0.0573  1.5713  0.9389
  639SOL     OW 1915   1.232   1.423   0.246  0.4848 -0.2741  0.7408
  639SOL    HW1 1916   1.233   1.333   0.196  2.3711 -1.9855 -0.7024
  639SOL    HW2 1917   1.315   1.474   0.228 -2.3345 -3.8391  0.1148
  640SOL     OW 1918   1.194   2.519   0.843 -0.0220  0.1776 -0.1702
  640SOL    HW1 1919   1.295   2.521   0.834 -0.1563 -0.5273 -0.6543
  640SOL    HW2 1920   1.152   2.594   0.791 -1.2930  0.5129  0.6581
  641SOL     OW 1921   2.997   2.507   0.693 -0.1033  0.6057  0.6052
  641SOL    HW1 1922   2.942   2.492   0.775  0.5014 -1.4875  1.6420
  641SOL    HW2 1923   3.054   2.423   0.674  2.2772  1.3041 -0.8356
  642SOL     OW 1924   1.064   0.143   1.584 -0.1151  0.2350 -0.2144
  642SOL    HW1 1925   1.073   0.073   1.513 -0.2022 -1.7742 -0.7725
  642SOL    HW2 1926   1.107   0.100   1.672  2.3465  0.5157  1.6719
  643SOL     OW 1927   0.885   2.122   2.255  0.0307 -0.4358  0.1220
  643SOL    HW1 1928   0.850   2.142   2.157 -0.5495  2.7440  1.4025
  643SOL    HW2 1929   0.840   2.031   2.275 -0.8786 -0.3367 -0.3801
  644SOL     OW 1930   0.983   2.965   0.659  0.3036  0.0004 -0.3032
  644SOL    HW1 1931   1.049   3.036   0.675 -3.1627 -1.7754  1.5743
  644SOL    HW2 1932   0.891   2.989   0.701 -1.8375  1.8631  0.7211
  645SOL     OW 1933   1.125   1.573   2.316  0.4209 -0.6131 -0.0769
  645SOL    HW1 1934   1.035   1.541   2.356 -0.8476 -0.1271 -0.2197
  645SOL    HW2 1935   1.187   1.613   2.386  0.4980 -1.2257  2.0723
  646SOL     OW 1936   0.656   1.059   0.257 -0.2383 -0.0879  0.1362
  646SOL    HW1 1937   0.622   0.973   0.292  0.2168  4.2473 -1.2193
  646SOL    HW2 1938   0.708   1.114   0.325  1.0636 -0.1844 -0.1197
  647SOL     OW 1939   1.146   0.324   0.833 -0.0878 -0.0376  0.9471
  647SOL    HW1 1940   1.110   0.396   0.769  2.5837 -0.7925  1.2519
  647SOL    HW2 1941   1.204   0.369   0.904  1.5840  1.6368  1.3875
  648SOL     OW 1942   2.961   2.971   1.651  0.4817 -0.1379 -0.3543
  648SOL    HW1 1943   2.867   2.994   1.687 -0.6079 -2.7350  2.3602
  648SOL    HW2 1944   3.025   3.055   1.661  1.1939  3.0571 -1.0106
  649SOL     OW 1945   0.687   2.038   0.198 -0.0866  0.2126 -0.3987
  649SOL    HW1 1946   0.661   2.037   0.099  0.0413 -0.9853  1.4899
  649SOL    HW2 1947   0.607   2.016   0.253  4.2441 -2.1113 -0.6895
  650SOL     OW 1948   3.019   1.902   1.441  0.3494  0.2252  0.1886
  650SOL    HW1 1949   3.037   1.896   1.544 -0.7678  2.3387  1.3932
  650SOL    HW2 1950   3.084   1.955   1.391 -2.4329 -0.8511  2.5453
  651SOL     OW 1951   0.009   3.086   2.952 -0.5132 -0.6364  0.4756
  651SOL    HW1 1952   3.101   3.082   3.055 -1.0651  1.6318 -0.3737
  651SOL    HW2 1953   0.013   0.079   2.919 -0.2065  1.3397 -1.4806
  652SOL     OW 1954   2.418   1.877   0.196 -0.6607  0.1115 -0.7784
  652SOL    HW1 1955   2.384   1.908   0.108  1.6026 -1.5076 -0.5562
  652SOL    HW2 1956   2.374   1.789   0.227 -1.2639 -2.6749 -0.0425
  653SOL     OW 1957   0.336   0.379   0.927  0.1522 -0.0597  0.3042
  653SOL    HW1 1958   0.356   0.326   0.842  1.8948  1.8153  1.1706
  653SOL    HW2 1959   0.334   0.325   1.011 -0.6854  1.0711 -0.6081
  654SOL     OW 1960   1.358   2.953   3.096  0.2680  0.1059 -0.0951
  654SOL    HW1 1961   1.384   2.900   0.074 -2.2063 -0.4941 -2.2848
  654SOL    HW2 1962   1.303   3.032   0.027  0.9756  0.2945  1.7123
  655SOL     OW 1963   0.968   2.404   0.938 -0.1763  0.7661  0.2265
  655SOL    HW1 1964   1.051   2.456   0.911 -1.1933  0.4020 -0.2886
  655SOL    HW2 1965   0.948   2.327   0.877  0.3241  0.1147  1.5276
  656SOL     OW 1966   0.624   2.829   2.136 -0.2922 -0.3162  0.2582
  656SOL    HW1 1967   0.585   2.788   2.221 -0.7555  1.5774 -0.0384
  656SOL    HW2 1968   0.701   2.773   2.096 -3.4775  1.8239  2.3539
  657SOL     OW 1969   1.869   0.852   1.948  0.0414  0.6069 -0.1048
  657SOL    HW1 1970   1.969   0.862   1.952 -0.5055 -0.0455 -1.4672
  657SOL    HW2 1971   1.849   0.754   1.970  1.4279 -1.1498  0.8921
  658SOL     OW 1972   2.387   1.894   1.097  0.4232 -0.2056  0.0311
  658SOL    HW1 1973   2.469   1.900   1.153 -2.4526  4.6383 -0.0041
  658SOL    HW2 1974   2.398   1.821   1.028  3.1093  1.2536  0.1475
  659SOL     OW 1975   2.531   2.794   0.126  0.2785  0.8494 -0.0401
  659SOL    HW1 1976   2.501   2.891   0.145 -1.0087  0.6579  0.0622
  659SOL    HW2 1977   2.531   2.739   0.212  1.2551 -1.9465 -1.0300
  660SOL     OW 1978   1.010   1.074   2.804  0.5584  0.4063  0.2289
  660SOL    HW1 1979   1.036   1.164   2.836  1.1071 -2.5027 -2.2942
  660SOL    HW2 1980   0.935   1.027   2.854 -1.5424 -0.7584 -2.0753
  661SOL     OW 1981   2.422   2.620   0.893 -0.0563  0.1183  0.1048
  661SOL    HW1 1982   2.342   2.602   0.957 -1.9138  2.7520  1.6578
  661SOL    HW2 1983   2.472   2.538   0.874  0.2605  1.4450  1.7113
  662SOL     OW 1984   0.491   0.697   0.207  0.0604  0.1679 -0.1139
  662SOL    HW1 1985   0.393   0.669   0.215 -0.7825  0.8387  0.3748
  662SOL    HW2 1986   0.522   0.680   0.109 -2.7200  0.1982 -2.4828
  663SOL     OW 1987   1.225   2.215   2.620  0.0205 -0.5453 -0.0893
  663SOL    HW1 1988   1.322   2.246   2.627 -0.7965  0.3314 -0.9546
  663SOL    HW2 1989   1.203   2.183   2.530  0.5406  0.6089  2.0799
  664SOL     OW 1990   1.070   2.514   1.305  0.3080  0.2440 -0.3396
  664SOL    HW1 1991   1.012   2.578   1.353  0.4702 -2.8138 -0.3281
  664SOL    HW2 1992   1.135   2.564   1.240  1.0024 -2.3340 -0.6589
  665SOL     OW 1993   1.588   1.564   1.601 -0.4752 -0.4585 -0.2923
  665SOL    HW1 1994   1.513   1.584   1.670  1.4193  1.7599 -0.2522
  665SOL    HW2 1995   1.544   1.592   1.511  1.3374  1.9892  0.8793
  666SOL     OW 1996   0.465   2.537   0.275 -0.3425 -0.1773 -0.2172
  666SOL    HW1 1997   0.523   2.489   0.202  0.6541 -1.5257 -0.4695
  666SOL    HW2 1998   0.419   2.622   0.235  0.0783  3.0128 -2.5243
  667SOL     OW 1999   2.053   1.378   1.428  0.1024 -0.1683 -0.3094
  667SOL    HW1 2000   2.132   1.379   1.500  5.4307 -0.2812  3.7375
  667SOL    HW2 2001   1.966   1.368   1.475 -1.5186 -2.6115  0.4839
  668SOL     OW 2002   0.288   0.026   2.146 -0.4292 -0.7074 -0.6881
  668SOL    HW1 2003   0.348   0.012   2.065  1.0563 -1.0866  0.9196
  668SOL    HW2 2004   0.190   0.035   2.116 -3.1457  1.0970 -0.4124
  669SOL     OW 2005   1.967   1.893   2.271  0.2461 -0.0686  0.4098
  669SOL    HW1 2006   1.935   1.971   2.212 -1.4035 -2.3360  2.4424
  669SOL    HW2 2007   1.883   1.835   2.285 -1.7640  3.5993  1.9609
  670SOL     OW 2008   2.408   2.052   0.523 -0.9221 -0.0043  0.2557
  670SOL    HW1 2009   2.431   1.953   0.534 -1.6253  2.0780  1.3987
  670SOL    HW2 2010   2.384   2.088   0.614  3.0356 -2.7000  0.0215
  671SOL     OW 2011   0.853   1.126   1.504 -0.3503  0.1551  0.1533
  671SOL    HW1 2012   0.864   1.123   1.403  1.1015  1.1782  2.3004
  671SOL    HW2 2013   0.939   1.143   1.548 -0.0975 -1.1983 -0.2707
  672SOL     OW 2014   2.665   1.286   2.276  0.3093  0.3331  0.2310
  672SOL    HW1 2015   2.612   1.351   2.333  1.0997  0.9958 -1.9414
  672SOL    HW2 2016   2.763   1.313   2.299  1.1896  0.2370  1.8596
  673SOL     OW 2017   2.929   1.772   2.564 -0.1148  0.1129  0.3118
  673SOL    HW1 2018   2.842   1.779   2.625 -3.2443 -0.3387  2.6094
  673SOL    HW2 2019   3.016   1.770   2.618 -0.5185 -1.6369  1.6575
  674SOL     OW 2020   1.081   2.839   2.155  0.4964  0.2224  0.7135
  674SOL    HW1 2021   1.134   2.817   2.234 -3.0794 -1.2559  0.9075
  674SOL    HW2 2022   1.006   2.906   2.183  0.7562 -0.6369 -0.6455
  675SOL     OW 2023   0.692   0.778   1.470 -0.0533  0.2569 -0.4623
  675SOL    HW1 2024   0.793   0.749   1.479 -1.8034 -0.3999  1.7862
  675SOL    HW2 2025   0.674   0.843   1.545 -1.9335 -2.9847 -1.6454
  676SOL     OW 2026   1.931   0.892   0.346  0.4860 -0.1666  0.2249
  676SOL    HW1 2027   1.899   0.810   0.392 -0.0728  0.1759 -0.1832
  676SOL    HW2 2028   2.027   0.876   0.314  0.6982 -2.1343 -0.2945
  677SOL     OW 2029   2.876   1.814   3.006 -0.0436 -0.8266 -0.0108
  677SOL    HW1 2030   2.823   1.732   2.977  1.8978 -0.3611 -1.5234
  677SOL    HW2 2031   2.975   1.805   2.989 -0.6590  0.3278 -1.0805
  678SOL     OW 2032   0.056   3.031   1.254  0.5332 -0.8156  0.0298
  678SOL    HW1 2033   0.092   0.011   1.289 -2.1208 -2.2708  1.4074
  678SOL    HW2 2034   0.099   2.956   1.300  0.8965  3.5947 -2.6484
  679SOL     OW 2035   2.161   0.130   0.584  1.1299 -0.4898  0.1427
  679SOL    HW1 2036   2.221   0.186   0.641 -1.0639 -2.3753 -3.9513
  679SOL    HW2 2037   2.215   0.071   0.527 -0.5170  4.4752 -3.2229
  680SOL     OW 2038   0.414   2.319   2.286 -0.4694  0.4143  0.0393
  680SOL    HW1 2039   0.465   2.229   2.299  1.8331 -0.2134  3.7329
  680SOL    HW2 2040   0.486   2.387   2.252 -0.4407  3.1534 -1.0903
  681SOL     OW 2041   0.302   1.558   1.491 -0.6500  0.1404 -0.0678
  681SOL    HW1 2042   0.241   1.498   1.439  0.3143 -0.7508  0.0255
  681SOL    HW2 2043   0.273   1.652   1.508  0.3170 -0.7438 -2.3497
  682SOL     OW 2044   0.418   2.257   1.794 -0.3164  0.2205 -0.4150
  682SOL    HW1 2045   0.356   2.183   1.821  0.7564  3.2554  0.6292
  682SOL    HW2 2046   0.391   2.353   1.814  2.4042  1.2770 -1.5565
  683SOL     OW 2047   3.060   1.898   1.704 -0.1360 -0.4315  0.1373
  683SOL    HW1 2048   3.101   1.992   1.724 -1.1255  0.8373  1.0786
  683SOL    HW2 2049   0.003   1.817   1.744 -0.3185 -1.5833 -0.1689
  684SOL     OW 2050   2.507   1.693   3.045 -0.0812 -0.0001  0.0790
  684SOL    HW1 2051   2.427   1.751   3.039 -0.2055 -3.9493  1.9803
  684SOL    HW2 2052   2.556   1.709   0.026 -0.1215 -1.5010 -0.8373
  685SOL     OW 2053   1.537   0.967   0.314 -0.0271  0.1275 -0.1236
  685SOL    HW1 2054   1.614   0.903   0.300  0.6454  0.8031  0.1503
  685SOL    HW2 2055   1.543   1.031   0.237  1.4933 -1.0613 -1.5041
  686SOL     OW 2056   0.189   0.101   0.694  0.2066  0.5265  1.1964
  686SOL    HW1 2057   0.268   0.062   0.741 -1.6664 -0.8550  0.2400
  686SOL    HW2 2058   0.158   0.191   0.729 -1.4826  1.7165  1.8828
  687SOL     OW 2059   0.894   1.358   2.633  0.3384  0.1316 -0.0680
  687SOL    HW1 2060   0.947   1.290   2.583 -0.6516  2.8385 -1.2314
  687SOL    HW2 2061   0.942   1.390   2.717 -0.5754  0.0754  1.5271
  688SOL     OW 2062   1.073   1.751   1.522  0.4474  0.2058 -0.2251
  688SOL    HW1 2063   0.984   1.714   1.498  2.2126  0.8821  1.4047
  688SOL    HW2 2064   1.074   1.858   1.531  2.2664  3.2243  1.0199
  689SOL     OW 2065   2.498   0.226   1.347 -0.3142  0.5308 -0.6951
  689SOL    HW1 2066   2.557   0.146   1.310 -2.6451 -2.6342  0.9732
  689SOL    HW2 2067   2.405   0.219   1.301  0.5118  1.0215 -2.6575
  690SOL     OW 2068   3.092   1.506   0.954  0.1565  0.2800 -0.4253
  690SOL    HW1 2069   0.040   1.567   1.018 -1.7329  1.5674 -1.5475
  690SOL    HW2 2070   0.050   1.468   0.882  0.9571  0.1184  0.7512
  691SOL     OW 2071   0.324   2.439   1.276  0.5708 -0.0233 -0.3853
  691SOL    HW1 2072   0.416   2.416   1.309 -2.0401  1.0576 -0.3936
  691SOL    HW2 2073   0.255   2.391   1.328  3.5519  1.5737 -3.3307
  692SOL     OW 2074   2.136   3.079   1.290 -0.0998  0.3043  0.5987
  692SOL    HW1 2075   2.181   0.063   1.270  1.7026 -1.0889  1.6679
  692SOL    HW2 2076   2.050   3.093   1.339  0.4504 -0.4643 -2.3035
  693SOL     OW 2077   0.323   1.942   2.391  0.6743 -0.3143  0.4679
  693SOL    HW1 2078   0.287   1.846   2.397 -1.5683  1.5428  0.9419
  693SOL    HW2 2079   0.254   2.004   2.341 -3.6660  0.3961  0.7248
  694SOL     OW 2080   1.729   0.967   1.499  0.0127 -0.7377 -0.6179
  694SOL    HW1 2081   1.813   0.907   1.491 -2.0715 -0.2652 -1.4927
  694SOL    HW2 2082   1.679   0.972   1.412  3.0153  2.2571  1.3091
  695SOL     OW 2083   0.831   0.851   1.228  0.4356  0.5939 -0.1370
  695SOL    HW1 2084   0.788   0.846   1.322  1.9241 -0.3108 -1.8865
  695SOL    HW2 2085   0.930   0.835   1.216  0.8963 -0.1408 -2.1437
  696SOL     OW 2086   1.435   0.083   0.716 -0.6588 -0.0790  0.0910
  696SOL    HW1 2087   1.470   0.095   0.811  0.5169 -0.1913 -1.7354
  696SOL    HW2 2088   1.502   0.055   0.647 -1.6490  3.3257  0.4548
  697SOL     OW 2089   1.007   0.447   1.402  0.6248  0.0910 -0.0377
  697SOL    HW1 2090   1.081   0.408   1.458 -1.7114  2.9886 -1.5739
  697SOL    HW2 2091   1.023   0.456   1.302 -0.1912  2.1143  2.6231
  698SOL     OW 2092   1.410   1.030   2.067 -0.0143  0.4353 -0.0165
  698SOL    HW1 2093   1.351   0.974   2.134 -1.9030  0.2060 -2.0859
  698SOL    HW2 2094   1.416   1.133   2.090  0.3791  2.7229 -0.1315
  699SOL     OW 2095   1.841   0.482   1.011 -0.2513 -0.0089  0.5249
  699SOL    HW1 2096   1.874   0.424   0.931  0.2131 -0.7878 -0.2295
  699SOL    HW2 2097   1.764   0.537   0.978  3.2451  0.1846  0.7306
  700SOL     OW 2098   0.955   2.489   0.180  0.1089  0.2377  0.2405
  700SOL    HW1 2099   0.934   2.507   0.278 -3.6589 -1.2926  1.9128
  700SOL    HW2 2100   0.933   2.392   0.158  0.5203 -1.4477  1.6601
  701SOL     OW 2101   2.119   2.398   2.945  0.2915 -0.3151 -0.0205
  701SOL    HW1 2102   2.102   2.496   2.915 -1.3960 -1.2450 -1.5868
  701SOL    HW2 2103   2.217   2.374   2.934  2.2326 -2.4265  1.8070
  702SOL     OW 2104   0.696   0.574   0.710 -0.2452 -0.1088 -0.7157
  702SOL    HW1 2105   0.778   0.630   0.726 -1.6970 -0.5288 -1.1773
  702SOL    HW2 2106   0.689   0.481   0.742 -2.3473  0.9361 -0.1306
  703SOL     OW 2107   2.388   0.131   2.516  0.4187 -0.1293 -0.1276
  703SOL    HW1 2108   2.322   0.073   2.458 -2.3375  0.9724 -1.1198
  703SOL    HW2 2109   2.385   0.232   2.492 -1.3841  1.0075 -0.8424
  704SOL     OW 2110   0.149   2.358   0.629  0.1459 -0.0324  0.3320
  704SOL    HW1 2111   0.177   2.391   0.535  0.3352  0.9227 -0.5534
  704SOL    HW2 2112   0.171   2.257   0.628  1.8080  1.3582 -0.7427
  705SOL     OW 2113   2.762   2.686   2.505 -0.3302  0.4803  0.2105
  705SOL    HW1 2114   2.788   2.641   2.415  2.2534 -1.1722  0.8507
  705SOL    HW2 2115   2.743   2.783   2.489 -1.1448 -0.6326 -0.5875
  706SOL     OW 2116   2.165   2.865   1.120  0.4509 -0.3404 -0.1042
  706SOL    HW1 2117   2.146   2.784   1.183 -0.9259  0.1155  1.0493
  706SOL    HW2 2118   2.134   2.954   1.163 -0.9135 -1.1540  1.9990
  707SOL     OW 2119   0.847   2.718   2.047 -0.6320 -0.2485  0.7379
  707SOL    HW1 2120   0.927   2.747   2.108  2.2700  0.7754 -0.9280
  707SOL    HW2 2121   0.873   2.684   1.957  0.5217 -1.8333 -0.8620
  708SOL     OW 2122   0.184   2.178   2.347 -0.2746 -0.5964 -0.1741
  708SOL    HW1 2123   0.146   2.212   2.436  0.0528  0.9970  0.1008
  708SOL    HW2 2124   0.245   2.243   2.298 -0.7726 -3.0905  1.4578
  709SOL     OW 2125   1.919   0.203   1.788  0.5627  0.1979  0.1039
  709SOL    HW1 2126   1.845   0.262   1.750 -0.5787 -0.3124  1.8636
  709SOL    HW2 2127   1.874   0.124   1.837  0.9005 -1.4480  2.4892
  710SOL     OW 2128   1.622   0.532   2.708 -0.0376  0.2186 -0.2283
  710SOL    HW1 2129   1.706   0.488   2.666 -2.4192  0.5966  0.2328
  710SOL    HW2 2130   1.578   0.609   2.657 -1.1464  0.0879 -1.2159
  711SOL     OW 2131   0.802   1.907   2.721 -0.0250  0.2037 -0.3182
  711SOL    HW1 2132   0.885   1.962   2.699 -2.6813  0.0112  0.9516
  711SOL    HW2 2133   0.817   1.853   2.805  1.9482 -2.7271  0.1572
  712SOL     OW 2134   0.631   2.471   2.593  0.5771  0.1109  0.2350
  712SOL    HW1 2135   0.635   2.493   2.692 -0.6445  0.0822 -0.4146
  712SOL    HW2 2136   0.624   2.365   2.585 -1.2271 -1.9011 -1.4241
  713SOL     OW 2137   1.690   1.283   2.480  0.1396  0.1679  0.2084
  713SOL    HW1 2138   1.727   1.192   2.510  3.7920 -1.0053  3.0116
  713SOL    HW2 2139   1.717   1.301   2.386 -1.6096  0.2867  0.3080
  714SOL     OW 2140   1.363   1.471   1.850 -0.0031 -0.3811 -0.6030
  714SOL    HW1 2141   1.308   1.533   1.794 -0.0807 -3.5058  0.7709
  714SOL    HW2 2142   1.313   1.386   1.859  1.5821  2.5831  0.1689
  715SOL     OW 2143   1.869   0.609   2.521 -0.0355  0.0458  0.2394
  715SOL    HW1 2144   1.925   0.526   2.532 -0.9586  2.6646 -0.6910
  715SOL    HW2 2145   1.811   0.599   2.437  1.2298 -0.2522 -0.1844
  716SOL     OW 2146   3.089   2.150   1.815 -0.4082 -0.6416  0.1360
  716SOL    HW1 2147   3.034   2.182   1.895  3.2415 -0.9470 -1.1826
  716SOL    HW2 2148   0.000   2.227   1.749  1.6709  0.6144 -1.3340
  717SOL     OW 2149   2.524   1.525   0.642  0.0685 -0.4679 -0.5135
  717SOL    HW1 2150   2.549   1.605   0.699 -0.5742  2.6801 -2.0154
  717SOL    HW2 2151   2.450   1.470   0.683  3.0962  0.2401  1.0820
  718SOL     OW 2152   1.211   1.929   2.035  0.3811  0.1818  0.3321
  718SOL    HW1 2153   1.245   2.004   2.097  1.5633  1.1922  1.3819
  718SOL    HW2 2154   1.134   1.882   2.083 -1.6877 -0.0545 -0.3359
  719SOL     OW 2155   2.015   0.842   2.479  0.2879 -0.3591  0.1558
  719SOL    HW1 2156   1.953   0.772   2.517  1.2710 -0.9456  0.5281
  719SOL    HW2 2157   1.987   0.940   2.494 -2.2805  1.8241  0.9961
  720SOL     OW 2158   0.768   0.355   1.049 -0.1279  0.3549 -0.0105
  720SOL    HW1 2159   0.787   0.282   1.119  0.4629 -1.2854  0.4306
  720SOL    HW2 2160   0.788   0.309   0.963  0.8824  1.5982  0.6677
  721SOL     OW 2161   2.958   0.901   0.599  0.4444 -0.0224 -0.0423
  721SOL    HW1 2162   2.995   0.907   0.507  0.0309 -2.5147  0.6826
  721SOL    HW2 2163   2.890   0.972   0.619  1.0783 -2.0801  0.8014
  722SOL     OW 2164   0.018   0.340   2.616 -0.1781  0.1157  0.5643
  722SOL    HW1 2165   3.024   0.362   2.602 -0.7910  0.2717 -0.2512
  722SOL    HW2 2166   0.076   0.422   2.622 -1.1610 -2.7138  4.5203
  723SOL     OW 2167   1.578   0.189   0.323  0.4389  0.0541 -0.8818
  723SOL    HW1 2168   1.475   0.194   0.333  1.1336 -1.4624  0.9129
  723SOL    HW2 2169   1.619   0.115   0.378 -0.3166 -1.0918 -0.5681
  724SOL     OW 2170   0.785   1.881   2.305  0.0637  0.4933  0.3907
  724SOL    HW1 2171   0.699   1.877   2.249 -3.4915 -0.4171  1.2082
  724SOL    HW2 2172   0.769   1.832   2.392 -3.2061  0.7945  0.4256
  725SOL     OW 2173   1.590   2.910   0.989 -0.6664  0.3538  0.5546
  725SOL    HW1 2174   1.669   2.847   1.005  1.2615 -0.9118  0.3401
  725SOL    HW2 2175   1.587   2.990   1.051  1.7361 -2.0173 -0.5994
  726SOL     OW 2176   1.801   2.572   0.123  0.2281  0.0157 -0.1626
  726SOL    HW1 2177   1.795   2.494   0.055  0.0289 -1.6666 -3.3408
  726SOL    HW2 2178   1.884   2.560   0.187 -1.2828 -1.8562  2.9920
  727SOL     OW 2179   1.477   1.601   1.112 -0.1273  0.7045 -0.1334
  727SOL    HW1 2180   1.435   1.692   1.098 -0.8501 -1.7079  0.1990
  727SOL    HW2 2181   1.567   1.613   1.066  3.8182  2.3068  1.1342
  728SOL     OW 2182   2.216   2.835   1.667  0.5212  0.6128 -0.1681
  728SOL    HW1 2183   2.250   2.892   1.590  0.8548  0.5710  0.2063
  728SOL    HW2 2184   2.280   2.767   1.702 -0.5465 -2.3086 -1.4090
  729SOL     OW 2185   2.210   1.932   1.333  0.0446 -0.0007  0.5075
  729SOL    HW1 2186   2.201   1.836   1.370 -0.7752 -0.1315 -1.3281
  729SOL    HW2 2187   2.275   1.942   1.254  0.5618  0.8879  0.5123
  730SOL     OW 2188   1.551   0.613   2.955  0.0496 -0.0679  0.3694
  730SOL    HW1 2189   1.578   0.588   2.860 -1.2158 -4.0786 -0.9112
  730SOL    HW2 2190   1.626   0.588   3.017  1.2606 -0.4503  0.4174
  731SOL     OW 2191   0.493   0.225   0.768 -0.6842  0.3144 -0.1504
  731SOL    HW1 2192   0.511   0.261   0.676 -1.6933 -2.7317 -0.0489
  731SOL    HW2 2193   0.523   0.125   0.771  2.1006  0.2954  0.2647
  732SOL     OW 2194   1.395   0.327   0.562  0.1369  0.7070 -0.2035
  732SOL    HW1 2195   1.342   0.301   0.487  0.6230  2.4416  1.2277
  732SOL    HW2 2196   1.408   0.238   0.618  1.1958 -1.3399  0.0573
  733SOL     OW 2197   0.846   1.628   1.446  0.0888 -0.0881  0.0997
  733SOL    HW1 2198   0.751   1.631   1.473  1.8224  2.1113  0.8333
  733SOL    HW2 2199   0.862   1.664   1.349 -0.8973 -1.4086  0.1402
  734SOL     OW 2200   2.776   2.712   3.100 -0.1401 -0.3456 -0.3283
  734SOL    HW1 2201   2.721   2.774   0.058  0.7330  5.0454  2.1290
  734SOL    HW2 2202   2.716   2.698   3.020 -0.5142  0.3591  1.8310
  735SOL     OW 2203   1.284   3.026   1.143 -0.0359 -0.2732  0.2822
  735SOL    HW1 2204   1.300   0.021   1.145  1.5097 -0.7428  0.0669
  735SOL    HW2 2205   1.282   2.985   1.052 -0.5006 -0.0384  1.1140
  736SOL     OW 2206   1.836   1.929   0.372 -0.2244 -0.5118 -0.0288
  736SOL    HW1 2207   1.787   1.983   0.300  2.8429 -1.2380  0.1322
  736SOL    HW2 2208   1.933   1.925   0.341  0.5315 -0.0004  1.1762
  737SOL     OW 2209   0.086   1.661   1.140  0.2253 -0.2337  0.4619
  737SOL    HW1 2210   0.185   1.660   1.167 -1.1165  0.8859  1.9618
  737SOL    HW2 2211   0.020   1.655   1.218 -1.8615 -1.6170  3.0113
  738SOL     OW 2212   2.045   2.216   2.674 -0.2875 -0.2727  0.0144
  738SOL    HW1 2213   2.129   2.275   2.677  1.9165  0.1368  1.7690
  738SOL    HW2 2214   1.973   2.278   2.635 -1.5488  1.2576 -1.1006
  739SOL     OW 2215   1.200   1.832   2.788 -0.1495 -0.1581 -0.0742
  739SOL    HW1 2216   1.122   1.898   2.780  0.0949 -2.8596 -1.0722
  739SOL    HW2 2217   1.186   1.763   2.860  0.6929  4.5352 -0.9930
  740SOL     OW 2218   1.327   2.904   0.918  0.2031 -0.1030  0.0538
  740SOL    HW1 2219   1.431   2.909   0.915  1.3094  0.8511 -1.1260
  740SOL    HW2 2220   1.290   2.889   0.824 -0.3725 -1.0547  0.4897
  741SOL     OW 2221   0.235   1.016   0.820 -0.3878  0.2100 -0.1221
  741SOL    HW1 2222   0.143   1.056   0.831  2.7373  0.6373 -0.4505
  741SOL    HW2 2223   0.289   1.022   0.903  0.1042 -1.2279  1.3479
  742SOL     OW 2224   0.870   1.507   2.417  0.2118 -0.0092 -0.1091
  742SOL    HW1 2225   0.891   1.439   2.492  0.8346 -1.0680  3.0682
  742SOL    HW2 2226   0.812   1.587   2.449 -0.8487 -0.1675  1.0030
  743SOL     OW 2227   1.064   1.042   2.073  0.3053 -0.0242 -0.2803
  743SOL    HW1 2228   0.991   1.072   2.136  1.2991 -1.5017  2.8448
  743SOL    HW2 2229   1.104   1.109   2.009 -2.8548  3.1468  2.3130
  744SOL     OW 2230   2.045   0.222   1.523  0.0843  0.6239  0.7327
  744SOL    HW1 2231   2.019   0.199   1.619  0.1915 -1.9695 -0.1209
  744SOL    HW2 2232   2.095   0.305   1.509 -1.3549  0.3423  0.5901
  745SOL     OW 2233   2.239   1.341   1.628  0.5894 -0.2187  0.2951
  745SOL    HW1 2234   2.313   1.396   1.668 -2.5851  0.3826 -3.0306
  745SOL    HW2 2235   2.220   1.280   1.706  1.1051 -2.1087  1.6723
  746SOL     OW 2236   1.977   1.174   0.462 -0.5046  0.0813 -0.5035
  746SOL    HW1 2237   1.933   1.240   0.397  0.3950  1.3343  0.4110
  746SOL    HW2 2238   1.958   1.078   0.432 -0.0149  2.0739 -0.7176
  747SOL     OW 2239   2.630   1.715   0.822  0.1174 -0.0044  0.0206
  747SOL    HW1 2240   2.712   1.653   0.835  1.1211  1.0907  2.5773
  747SOL    HW2 2241   2.658   1.794   0.765 -0.1274 -0.3141 -0.1234
  748SOL     OW 2242   0.244   1.895   0.499 -0.6401  0.1580 -0.4622
  748SOL    HW1 2243   0.237   1.875   0.401 -2.7521  1.0999  1.9117
  748SOL    HW2 2244   0.248   1.809   0.553 -0.8048  0.5576 -1.4422
  749SOL     OW 2245   0.006   2.522   2.887  0.2091  0.1877  0.2557
  749SOL    HW1 2246   3.068   2.498   2.801  4.2812 -0.4025  0.8685
  749SOL    HW2 2247   3.092   2.619   2.906 -1.6652 -0.0085  0.3524
  750SOL     OW 2248   2.249   0.994   0.680  0.5279 -0.2094 -0.3579
  750SOL    HW1 2249   2.327   1.043   0.636  0.7047  0.0096 -0.1792
  750SOL    HW2 2250   2.282   0.963   0.773  2.7876  1.7175  0.7532
  751SOL     OW 2251   2.519   3.101   0.111 -0.3753  0.3797 -0.2211
  751SOL    HW1 2252   2.463   0.071   0.070  2.1261  1.4641  0.5838
  751SOL    HW2 2253   2.606   3.087   0.057  1.1089 -3.1428  1.9702
  752SOL     OW 2254   2.803   2.789   0.970 -0.3513  0.3817  0.2829
  752SOL    HW1 2255   2.878   2.846   1.017 -0.1421  1.2446  0.3686
  752SOL    HW2 2256   2.805   2.689   1.000 -0.2060 -0.1650 -1.1388
  753SOL     OW 2257   1.387   1.273   2.177 -0.3786  0.3069  0.2461
  753SOL    HW1 2258   1.435   1.359   2.150 -1.7736  1.0379 -0.1153
  753SOL    HW2 2259   1.358   1.279   2.274 -0.4825  0.5877 -1.5875
  754SOL     OW 2260   1.915   1.969   1.871  0.2705  0.0518  0.5128
  754SOL    HW1 2261   1.892   1.927   1.779  0.0854  0.1011 -0.4394
  754SOL    HW2 2262   1.985   1.912   1.921  3.2960 -1.5109  1.1447
  755SOL     OW 2263   2.627   0.989   0.947 -0.1536  0.4795 -0.3900
  755SOL    HW1 2264   2.709   0.934   0.917  1.4259  0.2770 -4.1672
  755SOL    HW2 2265   2.628   1.007   1.049 -0.0244  2.4369 -1.7100
  756SOL     OW 2266   0.628   1.287   3.023  0.1918  0.6129  0.2684
  756SOL    HW1 2267   0.559   1.246   3.090 -0.0342 -0.7572  0.8282
  756SOL    HW2 2268   0.601   1.252   2.932 -0.3415 -1.8211  1.4590
  757SOL     OW 2269   1.808   2.382   1.203 -0.2272  0.1845 -0.2599
  757SOL    HW1 2270   1.779   2.357   1.108  1.7918  1.1030 -0.6077
  757SOL    HW2 2271   1.909   2.415   1.196  1.8537 -0.1194 -2.2185
  758SOL     OW 2272   1.373   2.392   1.519  0.4207 -0.2338  0.1644
  758SOL    HW1 2273   1.451   2.435   1.464 -0.2743  1.2384 -1.6843
  758SOL    HW2 2274   1.338   2.452   1.592  0.1137  1.2189 -0.9446
  759SOL     OW 2275   2.865   1.368   1.088  0.1265  0.8042  0.3223
  759SOL    HW1 2276   2.942   1.433   1.090 -1.9277  2.0557 -0.8623
  759SOL    HW2 2277   2.869   1.325   0.992  1.7521  0.9201 -1.1054
  760SOL     OW 2278   2.442   1.236   1.451  0.2189 -0.1782 -0.5287
  760SOL    HW1 2279   2.430   1.189   1.359 -2.4198  1.2477  1.4654
  760SOL    HW2 2280   2.352   1.271   1.482  1.1595  1.0905  1.4968
  761SOL     OW 2281   1.873   3.028   0.308 -0.3436 -0.1759  0.3254
  761SOL    HW1 2282   1.835   3.046   0.402 -0.0131  1.8244  2.7060
  761SOL    HW2 2283   1.965   3.077   0.304  0.0405 -0.4206 -2.2353
  762SOL     OW 2284   1.726   1.558   2.934 -0.1607  0.5035 -0.1085
  762SOL    HW1 2285   1.757   1.546   2.840 -3.8484 -1.5521 -1.0165
  762SOL    HW2 2286   1.736   1.660   2.954 -0.0029 -0.6162  1.1702
  763SOL     OW 2287   0.565   2.253   1.563 -0.2883  0.3502  0.6517
  763SOL    HW1 2288   0.532   2.169   1.515  1.3140  0.1605  2.4440
  763SOL    HW2 2289   0.519   2.254   1.654 -1.1628 -0.1599 -1.7687
  764SOL     OW 2290   0.003   2.471   0.199  0.4987 -0.2263  0.2268
  764SOL    HW1 2291   3.003   2.475   0.214 -2.1978 -0.5480  0.8823
  764SOL    HW2 2292   0.038   2.566   0.173 -0.2670  0.2541 -2.9239
  765SOL     OW 2293   0.577   3.054   1.126  0.6330  0.2442 -0.2700
  765SOL    HW1 2294   0.672   3.076   1.103  0.6122 -0.7296 -1.2130
  765SOL    HW2 2295   0.566   2.955   1.135  1.3063  0.8831 -0.7538
  766SOL     OW 2296   2.757   2.091   2.213  0.0102 -0.7093  0.7411
  766SOL    HW1 2297   2.813   2.052   2.291  2.5733  0.9722 -0.2310
  766SOL    HW2 2298   2.742   2.018   2.142 -0.2973  0.0113  0.0623
  767SOL     OW 2299   2.765   0.860   2.160  0.2583 -0.0169 -0.0443
  767SOL    HW1 2300   2.703   0.890   2.080 -1.4232 -0.6901  0.8293
  767SOL    HW2 2301   2.862   0.853   2.133  1.8909  0.2593  2.3907
  768SOL     OW 2302   0.863   0.347   2.483  0.1728  0.0223 -0.3690
  768SOL    HW1 2303   0.770   0.328   2.440 -1.6125 -2.7510  0.1818
  768SOL    HW2 2304   0.882   0.265   2.540 -1.8076 -0.4034 -2.3531
  769SOL     OW 2305   2.564   2.855   0.896 -0.0412 -0.2072 -0.2772
  769SOL    HW1 2306   2.653   2.816   0.929 -2.6077  1.2970  1.3348
  769SOL    HW2 2307   2.500   2.777   0.891  4.5251 -1.4095  0.0025
  770SOL     OW 2308   0.159   2.922   2.826  0.6250 -0.3428  0.6043
  770SOL    HW1 2309   0.149   2.952   2.729  1.0964  1.0028  0.0168
  770SOL    HW2 2310   0.085   2.965   2.884 -1.2600  0.8104  0.1661
  771SOL     OW 2311   1.655   2.031   1.971 -0.0733  0.2190 -0.4521
  771SOL    HW1 2312   1.743   2.028   1.920  0.9272  1.8939 -2.2494
  771SOL    HW2 2313   1.628   1.944   2.024 -1.1075 -0.4148 -0.8744
  772SOL     OW 2314   1.170   0.108   2.896  0.1240 -0.1703  0.1265
  772SOL    HW1 2315   1.092   0.052   2.862 -0.8339  0.3586  1.3953
  772SOL    HW2 2316   1.258   0.052   2.886  1.8604 -2.1659 -1.5645
  773SOL     OW 2317   2.446   0.563   1.598 -0.3668  0.0660 -0.3501
  773SOL    HW1 2318   2.527   0.555   1.660  0.5518 -2.4363 -1.8829
  773SOL    HW2 2319   2.405   0.652   1.604  0.6582 -3.5185  1.0520
  774SOL     OW 2320   0.792   1.217   1.216  0.6084  0.5998  0.0911
  774SOL    HW1 2321   0.830   1.303   1.183 -0.6194 -1.2236  1.1840
  774SOL    HW2 2322   0.765   1.146   1.140 -1.2963 -2.7740 -1.8135
  775SOL     OW 2323   2.325   2.828   2.933 -0.6566  0.1420 -0.1999
  775SOL    HW1 2324   2.304   2.927   2.944 -2.6284 -3.6936 -0.6063
  775SOL    HW2 2325   2.360   2.797   3.024  0.1517 -0.4133 -3.2249
  776SOL     OW 2326   2.394   1.073   1.682  0.0250 -0.6707  0.5170
  776SOL    HW1 2327   2.407   1.077   1.785  0.7575  0.5672  0.6596
  776SOL    HW2 2328   2.448   1.148   1.637  0.1454 -0.8998 -1.0194
  777SOL     OW 2329   0.373   1.106   2.027 -0.2553 -0.4735 -0.0199
  777SOL    HW1 2330   0.453   1.038   2.022  1.7263 -2.1530  2.8188
  777SOL    HW2 2331   0.412   1.202   2.042  1.1188  2.1943 -0.3716
  778SOL     OW 2332   0.520   0.701   3.041 -0.2803  0.0812 -0.5138
  778SOL    HW1 2333   0.497   0.789   2.997 -0.8459 -1.0448 -0.9252
  778SOL    HW2 2334   0.486   0.619   2.991 -0.7558 -1.3074 -0.2936
  779SOL     OW 2335   0.632   0.346   2.314  0.1867 -0.6642 -0.5618
  779SOL    HW1 2336   0.642   0.281   2.238 -1.5154  0.5912  4.3576
  779SOL    HW2 2337   0.534   0.380   2.313  0.3321  0.8954 -0.7493
  780SOL     OW 2338   2.132   1.257   2.700  0.3633  0.0450  0.4764
  780SOL    HW1 2339   2.197   1.216   2.766 -4.5704  0.9999  0.5663
  780SOL    HW2 2340   2.165   1.237   2.606 -1.5402 -1.1007  0.4393
  781SOL     OW 2341   2.995   1.172   2.143 -0.1569  0.4267  0.3155
  781SOL    HW1 2342   2.949   1.219   2.063  1.8632  0.1424  1.1466
  781SOL    HW2 2343   2.978   1.068   2.137  0.0163  0.2875  1.2395
  782SOL     OW 2344   0.310   1.570   2.799 -0.4444  0.6644 -0.1653
  782SOL    HW1 2345   0.307   1.488   2.858 -1.1734 -1.0462 -0.7442
  782SOL    HW2 2346   0.215   1.608   2.783  1.5076 -1.4690 -3.0865
  783SOL     OW 2347   1.091   2.072   0.964 -0.1501 -0.1559 -0.5083
  783SOL    HW1 2348   1.129   2.051   1.060 -0.7072  0.6721  0.9976
  783SOL    HW2 2349   1.143   2.138   0.912 -1.5620 -1.3355 -0.4278
  784SOL     OW 2350   1.748   0.318   2.524 -0.4378  0.2594  0.1405
  784SOL    HW1 2351   1.698   0.251   2.584  1.4256  0.2273 -0.8499
  784SOL    HW2 2352   1.847   0.307   2.541 -0.2979 -3.5301 -1.2396
  785SOL     OW 2353   0.771   0.083   1.890  0.4912  0.9782 -0.5369
  785SOL    HW1 2354   0.772   3.094   1.856 -0.2047 -2.4345  0.1537
  785SOL    HW2 2355   0.827   0.150   1.833 -1.3190  1.2201 -3.8756
  786SOL     OW 2356   0.476   2.022   0.366  0.6239  0.1189 -0.4314
  786SOL    HW1 2357   0.387   2.003   0.408  0.0811  1.0271 -0.7559
  786SOL    HW2 2358   0.542   2.059   0.435  0.0513  2.1311  2.3306
  787SOL     OW 2359   1.203   0.678   0.427  0.0300  0.1589 -0.0505
  787SOL    HW1 2360   1.248   0.730   0.351 -0.4098 -0.5047  0.8281
  787SOL    HW2 2361   1.124   0.728   0.465  1.1281 -1.0203 -2.4822
  788SOL     OW 2362   2.812   1.682   1.088  0.0449 -0.5441  0.1557
  788SOL    HW1 2363   2.881   1.681   1.160  1.2477  0.4306 -2.5092
  788SOL    HW2 2364   2.721   1.712   1.125 -0.9106 -0.1897 -0.2959
  789SOL     OW 2365   2.587   1.044   2.384  0.0709 -0.4976 -0.0087
  789SOL    HW1 2366   2.660   0.984   2.346 -0.4055  3.3554  1.9080
  789SOL    HW2 2367   2.592   1.142   2.352  0.9837 -0.0667  1.1587
  790SOL     OW 2368   0.613   0.276   0.214  0.4347 -0.1829 -0.5106
  790SOL    HW1 2369   0.609   0.192   0.274 -0.8669 -3.0225  0.6659
  790SOL    HW2 2370   0.708   0.300   0.182  0.5836  1.0356 -0.7413
  791SOL     OW 2371   2.912   0.331   3.056 -0.5737  0.7212  0.4028
  791SOL    HW1 2372   2.842   0.261   3.022 -0.2401 -0.2857  1.1028
  791SOL    HW2 2373   2.919   0.315   0.050  0.3114 -2.1373 -2.4821
  792SOL     OW 2374   1.363   0.759   2.631 -0.3726 -0.1017  0.0457
  792SOL    HW1 2375   1.293   0.770   2.704 -0.5382  2.5061  2.2626
  792SOL    HW2 2376   1.325   0.735   2.541  0.3626  1.6159  2.0954
  793SOL     OW 2377   2.956   0.341   0.936 -0.3100 -0.1790 -0.0150
  793SOL    HW1 2378   2.949   0.261   0.873  2.9408 -3.2974 -0.0152
  793SOL    HW2 2379   2.887   0.320   1.012 -1.0363 -1.7239  3.2974
  794SOL     OW 2380   0.206   0.452   1.752  0.2214 -0.3817  0.0668
  794SOL    HW1 2381   0.267   0.528   1.774 -0.6058 -2.6320 -2.4877
  794SOL    HW2 2382   0.126   0.434   1.820 -1.7671 -0.2229  1.7245
  795SOL     OW 2383   0.387   1.004   0.610  0.0396 -0.6109 -0.1900
  795SOL    HW1 2384   0.466   1.066   0.617 -0.5974  0.7304 -0.2889
  795SOL    HW2 2385   0.333   1.004   0.698 -0.2959 -0.8910  0.2612
  796SOL     OW 2386   0.164   0.819   3.099 -0.0735 -0.4116  0.5648
  796SOL    HW1 2387   0.165   0.845   0.093  0.1530  1.5867 -3.0032
  796SOL    HW2 2388   0.256   0.848   3.061 -0.7657 -0.9717 -0.7134
  797SOL     OW 2389   1.769   2.646   2.449  0.3348 -0.2207  0.0145
  797SOL    HW1 2390   1.772   2.681   2.546  0.1060  0.8514  2.3337
  797SOL    HW2 2391   1.677   2.594   2.441 -2.2319 -0.2714 -0.6893
  798SOL     OW 2392   0.189   0.167   1.288  0.3553 -0.0992 -0.1573
  798SOL    HW1 2393   0.153   0.253   1.325  1.4829 -1.1874 -0.3735
  798SOL    HW2 2394   0.288   0.170   1.260  1.1104  0.8305 -1.1015
  799SOL     OW 2395   2.403   0.720   1.890 -0.3213 -0.3006 -0.9399
  799SOL    HW1 2396   2.381   0.759   1.798  0.6440 -1.6257 -0.8156
  799SOL    HW2 2397   2.478   0.650   1.887 -0.6112 -0.3217  2.4790
  800SOL     OW 2398   0.261   1.670   0.648 -0.1679 -0.0516 -0.6386
  800SOL    HW1 2399   0.353   1.644   0.619 -4.0486  0.6500  1.0899
  800SOL    HW2 2400   0.196   1.590   0.650 -2.3552  0.1125 -0.0219
  801SOL     OW 2401   1.470   1.842   0.642 -0.2364  0.6706  0.4713
  801SOL    HW1 2402   1.432   1.837   0.736  1.0281 -0.2334  1.6868
  801SOL    HW2 2403   1.571   1.846   0.641 -1.5577  1.2319 -1.4871
  802SOL     OW 2404   1.472   1.158   2.829 -0.2475 -0.3010 -0.8792
  802SOL    HW1 2405   1.468   1.235   2.765 -0.3771  0.2115  1.2576
  802SOL    HW2 2406   1.476   1.066   2.780 -1.0742  1.6841 -1.8538
  803SOL     OW 2407   0.251   2.036   1.890  0.4416 -0.5714  0.9537
  803SOL    HW1 2408   0.150   2.064   1.885  0.9201 -0.2764 -2.5704
  803SOL    HW2 2409   0.256   1.949   1.943 -1.7606  0.0141 -0.9315
  804SOL     OW 2410   1.681   2.319   0.955  0.1754 -0.3925 -0.7814
  804SOL    HW1 2411   1.762   2.288   0.903 -2.4105 -0.5389  1.4207
  804SOL    HW2 2412   1.607   2.245   0.944  0.2660 -4.0907  1.3654
  805SOL     OW 2413   2.371   2.308   2.894  0.3131  0.2572 -0.2322
  805SOL    HW1 2414   2.436   2.375   2.943  0.9119  1.5891 -0.8854
  805SOL    HW2 2415   2.410   2.215   2.903  0.5343 -0.9808  0.0080
  806SOL     OW 2416   2.909   0.108   0.765  0.0685  0.0058 -0.6282
  806SOL    HW1 2417   2.815   0.106   0.716 -1.2192  0.7018 -1.6572
  806SOL    HW2 2418   2.988   0.084   0.703  0.3900 -0.5352  0.0623
  807SOL     OW 2419   0.043   1.374   2.961 -0.0633 -0.0861  0.0320
  807SOL    HW1 2420   0.004   1.342   3.048  1.0153  1.0905 -0.7836
  807SOL    HW2 2421   3.074   1.391   2.891 -2.0954 -2.6528 -1.3680
  808SOL     OW 2422   0.810   1.698   0.872  0.3743  0.2015  0.3637
  808SOL    HW1 2423   0.767   1.660   0.787 -0.2560 -1.2510  1.5645
  808SOL    HW2 2424   0.759   1.679   0.958 -2.0372  1.0314 -0.6786
  809SOL     OW 2425   2.691   3.104   2.237 -0.4014 -0.1582 -0.0276
  809SOL    HW1 2426   2.622   0.014   2.160  0.3931  0.9885  0.0924
  809SOL    HW2 2427   2.736   0.090   2.257  0.1728 -0.5962  1.7598
  810SOL     OW 2428   1.457   0.690   1.084 -0.5136 -0.6338 -0.3397
  810SOL    HW1 2429   1.519   0.716   1.012 -1.0505 -2.9565  2.9158
  810SOL    HW2 2430   1.424   0.776   1.129  1.5566  2.5441 -0.0842
  811SOL     OW 2431   1.803   3.097   1.918  0.0032 -0.2089  0.6209
  811SOL    HW1 2432   1.734   3.037   1.876 -1.3647 -1.0321 -1.2810
  811SOL    HW2 2433   1.764   0.044   1.995  0.7185 -1.6161 -0.7979
  812SOL     OW 2434   1.873   2.195   0.532 -0.6005 -0.2957 -0.0332
  812SOL    HW1 2435   1.784   2.168   0.571  0.3485  3.5035 -1.2152
  812SOL    HW2 2436   1.908   2.127   0.459  0.4771 -1.3819 -7.0483
  813SOL     OW 2437   1.167   0.490   1.828 -0.5173  0.4160 -0.4615
  813SOL    HW1 2438   1.084   0.513   1.887 -3.3123  1.5376  0.0099
  813SOL    HW2 2439   1.245   0.555   1.847  0.7118 -2.2198 -0.1340
  814SOL     OW 2440   0.302   0.017   0.951 -0.0613 -0.2284  0.2619
  814SOL    HW1 2441   0.386   3.082   0.907 -0.4508 -2.2520  1.6577
  814SOL    HW2 2442   0.323   0.067   1.036  0.0657  0.0778 -0.3079
  815SOL     OW 2443   3.072   0.037   0.552  0.3841  0.8439 -0.1600
  815SOL    HW1 2444   3.043   3.043   0.550 -2.6390 -0.4157 -0.1822
  815SOL    HW2 2445   0.055   0.068   0.599 -0.7584  2.7640  1.9517
  816SOL     OW 2446   2.431   1.817   2.256 -0.1211 -0.0675 -0.0060
  816SOL    HW1 2447   2.341   1.847   2.220  1.0858 -3.4257  1.5440
  816SOL    HW2 2448   2.463   1.876   2.337  0.3814 -1.4058  0.5133
  817SOL     OW 2449   1.160   0.059   0.730 -0.3819  0.2920 -0.5014
  817SOL    HW1 2450   1.166   0.148   0.768  3.5925 -0.7427  0.4622
  817SOL    HW2 2451   1.255   0.011   0.745  4.1255 -2.4122  0.2397
  818SOL     OW 2452   1.917   0.285   3.068 -0.5036  0.2528  0.0412
  818SOL    HW1 2453   1.964   0.204   3.027  0.9577  0.8373 -1.0109
  818SOL    HW2 2454   1.843   0.257   0.024  0.8988 -0.7265  1.0068
  819SOL     OW 2455   1.950   2.888   0.087  0.1783  0.2222  0.0423
  819SOL    HW1 2456   2.048   2.870   0.108  0.7657  2.4501  0.1284
  819SOL    HW2 2457   1.913   2.950   0.161 -0.4157 -0.9336 -3.1100
  820SOL     OW 2458   1.895   1.266   2.833  0.1158  0.2907  0.0608
  820SOL    HW1 2459   1.883   1.183   2.892  2.1617  1.1943 -0.0714
  820SOL    HW2 2460   1.977   1.258   2.774 -0.9918  0.6005  0.7716
  821SOL     OW 2461   3.097   0.523   1.114  0.2771 -0.2616 -0.3310
  821SOL    HW1 2462   3.066   0.459   1.042  2.9201 -0.0859  0.2398
  821SOL    HW2 2463   0.044   0.599   1.071  3.7428  1.2684 -2.5838
  822SOL     OW 2464   1.209   2.784   2.402 -0.0415  0.5055  0.1644
  822SOL    HW1 2465   1.178   2.693   2.441 -0.6073 -0.5636  4.2374
  822SOL    HW2 2466   1.204   2.853   2.478 -0.7078  0.0796  2.0220
  823SOL     OW 2467   0.479   1.648   1.846 -0.2402 -0.3663 -0.5646
  823SOL    HW1 2468   0.465   1.697   1.758  0.6044  0.7234 -3.2546
  823SOL    HW2 2469   0.580   1.638   1.863  1.1149  0.4045  0.3928
  824SOL     OW 2470   1.542   2.531   2.363 -0.4760 -0.4376 -0.0528
  824SOL    HW1 2471   1.543   2.504   2.267  0.5748  1.4395  1.4713
  824SOL    HW2 2472   1.503   2.624   2.376  1.6756  0.6580  3.9429
  825SOL     OW 2473   1.738   0.883   0.139  0.0093 -0.2858  0.1987
  825SOL    HW1 2474   1.770   0.867   0.040  2.0719 -0.5631 -1.3924
  825SOL    HW2 2475   1.818   0.911   0.198  0.8074  0.5532 -0.3379
  826SOL     OW 2476   2.132   0.780   0.008 -0.0039  0.2055  0.0513
  826SOL    HW1 2477   2.144   0.876   3.077  1.0793  0.0861 -3.3387
  826SOL    HW2 2478   2.198   0.711   3.079 -0.4258  1.1581  0.7424
  827SOL     OW 2479   0.576   2.077   3.054  0.1161 -0.3084 -0.7192
  827SOL    HW1 2480   0.480   2.108   3.043  2.5804 -2.0084 -0.3107
  827SOL    HW2 2481   0.605   2.014   2.981  0.0907  0.9777  1.7653
  828SOL     OW 2482   2.611   1.453   1.439 -0.2160  0.1681  0.1759
  828SOL    HW1 2483   2.556   1.537   1.447 -0.2221 -1.2379 -3.0360
  828SOL    HW2 2484   2.567   1.367   1.461  1.3410  0.0927 -0.6077
  829SOL     OW 2485   0.405   1.484   0.944  0.2510  0.2831 -0.7535
  829SOL    HW1 2486   0.421   1.576   0.908  0.4966 -3.0291  0.2411
  829SOL    HW2 2487   0.468   1.456   1.021 -0.1732  1.9723 -0.3990
  830SOL     OW 2488   1.085   1.270   1.219  0.0747  0.4095 -0.4624
  830SOL    HW1 2489   1.157   1.262   1.151 -0.3993  0.0400  2.2592
  830SOL    HW2 2490   1.071   1.179   1.262  1.1520 -1.2056  2.0267
  831SOL     OW 2491   0.247   1.862   0.222  0.5379  0.5721 -0.0871
  831SOL    HW1 2492   0.181   1.922   0.182 -0.2421 -3.8948  3.4442
  831SOL    HW2 2493   0.338   1.841   0.174  2.8882 -0.0977 -1.3899
  832SOL     OW 2494   0.709   0.259   2.898  0.0970  0.1675 -0.0436
  832SOL    HW1 2495   0.799   0.214   2.908  1.5995 -0.6811 -0.1026
  832SOL    HW2 2496   0.653   0.230   2.975  3.3850  2.1784 -1.4268
  833SOL     OW 2497   0.644   0.561   1.955  0.2586 -0.2385  0.0578
  833SOL    HW1 2498   0.711   0.628   1.918 -0.7715  0.9847 -1.1654
  833SOL    HW2 2499   0.648   0.466   1.909 -0.9447  0.6535 -2.7752
  834SOL     OW 2500   0.083   0.369   0.816  0.0891 -0.2276  0.0728
  834SOL    HW1 2501   0.002   0.378   0.883  2.6536  0.5573 -1.1802
  834SOL    HW2 2502   0.172   0.374   0.865  2.3280  0.0876 -1.0915
  835SOL     OW 2503   2.842   0.013   1.004  0.2296 -1.0030  0.4146
  835SOL    HW1 2504   2.851   0.027   0.903 -1.2563 -0.8659 -1.1089
  835SOL    HW2 2505   2.908   3.045   1.029 -0.2055 -0.5459  1.4749
  836SOL     OW 2506   0.301   2.176   3.056 -0.4054  0.5376 -0.4494
  836SOL    HW1 2507   0.297   2.266   3.006  0.1010  1.3202  0.4624
  836SOL    HW2 2508   0.296   2.195   0.050 -0.1138  1.0370  1.7489
  837SOL     OW 2509   1.512   1.639   2.633  0.4714 -0.0677 -0.2877
  837SOL    HW1 2510   1.590   1.696   2.600 -1.0843 -2.9132 -1.6710
  837SOL    HW2 2511   1.497   1.656   2.729 -1.8605  0.9697 -1.5766
  838SOL     OW 2512   2.993   1.010   1.665 -0.7690 -0.0414  0.3377
  838SOL    HW1 2513   3.008   0.990   1.564  1.0032 -2.0774 -0.2697
  838SOL    HW2 2514   3.043   1.093   1.692 -0.7821 -2.9149  0.3393
  839SOL     OW 2515   0.891   1.043   0.788  0.4685  0.7864 -0.9937
  839SOL    HW1 2516   0.944   1.094   0.720 -2.3157  0.0109  3.0205
  839SOL    HW2 2517   0.831   0.976   0.743  0.4460 -1.8228  2.2991
  840SOL     OW 2518   1.468   2.715   1.384 -0.2776  0.3845  0.1491
  840SOL    HW1 2519   1.558   2.681   1.415  0.2985  1.5461 -1.2969
  840SOL    HW2 2520   1.452   2.693   1.286  0.0037 -0.0696  3.4414
  841SOL     OW 2521   0.590   2.557   0.529  0.2179 -0.5467  0.3279
  841SOL    HW1 2522   0.551   2.550   0.433 -0.9892  2.3834 -1.4631
  841SOL    HW2 2523   0.542   2.498   0.589  4.0292  2.5827 -0.1772
  842SOL     OW 2524   0.520   0.801   0.816  0.0494  0.0684  0.1611
  842SOL    HW1 2525   0.494   0.760   0.905  2.7360 -0.0666 -2.5406
  842SOL    HW2 2526   0.552   0.720   0.764 -2.6100  1.1672 -0.8578
  843SOL     OW 2527   0.774   1.411   2.019  0.3403  0.0010  0.2823
  843SOL    HW1 2528   0.868   1.456   2.022 -1.1137  0.7816 -2.3335
  843SOL    HW2 2529   0.783   1.325   1.969  0.5111 -1.4863 -0.8258
  844SOL     OW 2530   1.085   2.176   2.988 -0.2693  0.1247  0.0909
  844SOL    HW1 2531   1.118   2.100   3.049  1.8277  0.7398  0.8299
  844SOL    HW2 2532   1.159   2.236   2.947  0.4260 -0.2075 -2.7720
  845SOL     OW 2533   2.326   2.341   2.613 -0.3069  0.5052  0.3596
  845SOL    HW1 2534   2.399   2.285   2.567  3.7855 -1.8853 -1.1679
  845SOL    HW2 2535   2.355   2.356   2.709  0.7959 -2.9335  2.6294
  846SOL     OW 2536   1.724   2.064   2.945 -0.1001  0.1806  0.3529
  846SOL    HW1 2537   1.648   2.108   2.892  1.5231  1.2717  3.5037
  846SOL    HW2 2538   1.816   2.078   2.905  0.7111 -0.4592 -2.0358
  847SOL     OW 2539   1.804   2.744   2.706  0.6112 -0.5001  0.6197
  847SOL    HW1 2540   1.896   2.789   2.710 -1.4278  2.7726  0.9112
  847SOL    HW2 2541   1.773   2.728   2.801  0.5273 -1.5630 -1.3305
  848SOL     OW 2542   0.533   0.403   0.543  0.0155  0.5461  0.2228
  848SOL    HW1 2543   0.612   0.345   0.518  0.7365  1.5432  0.2128
  848SOL    HW2 2544   0.562   0.491   0.583 -0.8857 -0.6864 -0.6967
  849SOL     OW 2545   0.911   2.966   1.341  0.1754 -0.1885 -0.1986
  849SOL    HW1 2546   1.002   2.967   1.392  1.4757  0.1603  1.0572
  849SOL    HW2 2547   0.878   3.061   1.320 -1.1387  1.5842 -0.6746
  850SOL     OW 2548   0.586   1.502   0.228  0.7372  0.4624  0.4880
  850SOL    HW1 2549   0.482   1.505   0.241 -0.9364 -0.9223 -1.8738
  850SOL    HW2 2550   0.596   1.525   0.131 -1.8256  1.6173 -0.7195
  851SOL     OW 2551   3.094   1.153   0.963 -0.1053 -0.1182 -0.3111
  851SOL    HW1 2552   3.025   1.173   0.888  1.4724  1.8168 -1.0493
  851SOL    HW2 2553   3.049   1.135   1.051  2.2658 -0.9605 -0.3613
  852SOL     OW 2554   1.927   2.242   1.874  0.5688  0.6172  0.0054
  852SOL    HW1 2555   1.933   2.140   1.873  0.7462  1.6666 -0.1535
  852SOL    HW2 2556   1.951   2.278   1.781  1.1701 -1.1090 -0.6350
  853SOL     OW 2557   0.312   1.436   0.238  0.2717 -0.8023  0.6219
  853SOL    HW1 2558   0.240   1.507   0.212 -3.5232  1.8522  0.2482
  853SOL    HW2 2559   0.258   1.360   0.277 -1.1303 -0.7037  0.2097
  854SOL     OW 2560   1.773   1.159   1.694  0.0611  0.5915  0.0718
  854SOL    HW1 2561   1.756   1.100   1.614  2.0763  0.8197 -1.7497
  854SOL    HW2 2562   1.701   1.138   1.762  2.9998  1.2671 -1.7936
  855SOL     OW 2563   0.556   2.740   3.059  0.8077  0.1942  0.2487
  855SOL    HW1 2564   0.457   2.747   3.031 -0.0939  3.9993 -1.7917
  855SOL    HW2 2565   0.563   2.658   0.018 -1.4210  0.4812  1.2269
  856SOL     OW 2566   2.862   0.661   1.792  0.3924  0.3684  0.4907
  856SOL    HW1 2567   2.936   0.686   1.855 -0.7353 -0.6258 -0.2300
  856SOL    HW2 2568   2.859   0.716   1.706 -0.0574 -0.0262  1.5585
  857SOL     OW 2569   0.524   0.910   1.862 -0.0202  0.0806 -0.3888
  857SOL    HW1 2570   0.431   0.911   1.818 -3.4785 -1.5881  2.2337
  857SOL    HW2 2571   0.589   0.944   1.796 -1.4446 -2.3167 -0.6331
  858SOL     OW 2572   0.466   1.170   2.361 -0.0875 -0.3468  0.3767
  858SOL    HW1 2573   0.384   1.206   2.407  1.5272  1.1932  0.0035
  858SOL    HW2 2574   0.490   1.237   2.291 -2.8108 -0.8349  1.8046
  859SOL     OW 2575   2.491   0.323   0.454  0.1839  0.0564  0.2780
  859SOL    HW1 2576   2.570   0.377   0.499 -1.8690 -0.3140 -1.4937
  859SOL    HW2 2577   2.526   0.233   0.412  2.8443 -1.6496 -1.9561
  860SOL     OW 2578   1.755   2.767   2.995 -0.2264 -0.1384  0.3202
  860SOL    HW1 2579   1.775   2.870   2.991 -0.7863  3.0143 -0.9061
  860SOL    HW2 2580   1.814   2.724   3.069  0.9523 -1.9625  2.4054
  861SOL     OW 2581   0.223   0.565   0.404 -0.0028  0.2403 -0.5318
  861SOL    HW1 2582   0.277   0.490   0.362  0.3701 -0.0214  0.6161
  861SOL    HW2 2583   0.144   0.529   0.455  0.8608 -0.0067 -1.9176
  862SOL     OW 2584   1.341   0.289   1.932  0.3787  0.1696  0.2654
  862SOL    HW1 2585   1.253   0.319   1.892 -0.6395 -2.0362 -1.2679
  862SOL    HW2 2586   1.380   0.353   1.997 -1.2729 -2.6604  1.0959
  863SOL     OW 2587   2.699   2.297   1.237  0.0037  0.2864 -0.1235
  863SOL    HW1 2588   2.601   2.287   1.255  0.6846 -0.6020 -2.9933
  863SOL    HW2 2589   2.747   2.331   1.320  0.7092 -1.1454 -0.3875
  864SOL     OW 2590   2.549   2.935   1.986 -0.7166  0.2950  0.0451
  864SOL    HW1 2591   2.453   2.910   1.975  1.0029  1.3708 -0.6431
  864SOL    HW2 2592   2.609   2.860   2.024 -3.1119  2.7898 -0.9434
  865SOL     OW 2593   1.219   0.359   1.586  0.2146  0.2533 -0.6521
  865SOL    HW1 2594   1.167   0.269   1.579  0.6993  1.0137 -1.1792
  865SOL    HW2 2595   1.209   0.407   1.678  4.7677 -0.3395 -1.9891
  866SOL     OW 2596   2.252   2.948   0.861  0.0223  0.0030 -0.1086
  866SOL    HW1 2597   2.248   3.051   0.862 -1.6573  1.8073  0.4895
  866SOL    HW2 2598   2.256   2.914   0.957 -1.2046  2.2732  2.4676
  867SOL     OW 2599   2.781   2.699   0.409  0.2282  0.4654  1.2370
  867SOL    HW1 2600   2.766   2.777   0.345  0.7941  0.0655  1.0111
  867SOL    HW2 2601   2.797   2.719   0.506 -1.6683  0.9902 -0.7100
  868SOL     OW 2602   1.228   2.054   1.794  0.1698  0.5402 -0.3013
  868SOL    HW1 2603   1.208   2.005   1.886 -0.6685 -1.7216  1.8136
  868SOL    HW2 2604   1.228   2.158   1.804 -0.8167  1.9431  2.0061
  869SOL     OW 2605   2.004   2.236   0.247  0.2886  0.2017 -0.0144
  869SOL    HW1 2606   2.068   2.179   0.306 -0.1617  2.6682 -0.2310
  869SOL    HW2 2607   2.011   2.335   0.271  0.5367 -1.5531  1.5932
  870SOL     OW 2608   2.412   2.451   0.568  0.0954 -0.5126 -0.0893
  870SOL    HW1 2609   2.377   2.503   0.487 -0.7202 -0.3870 -3.5797
  870SOL    HW2 2610   2.378   2.358   0.583 -1.3374  0.5091 -0.4069
  871SOL     OW 2611   0.198   1.450   1.731 -0.1944  0.1176 -0.0197
  871SOL    HW1 2612   0.249   1.483   1.651 -0.1882  1.0152 -1.2707
  871SOL    HW2 2613   0.256   1.388   1.793 -1.5498 -0.2856 -0.8253
  872SOL     OW 2614   0.748   1.523   2.836  0.4493  0.7134  0.3454
  872SOL    HW1 2615   0.825   1.577   2.883  1.5383  1.9115  0.3882
  872SOL    HW2 2616   0.783   1.439   2.790 -0.5924 -0.2221  2.4024
  873SOL     OW 2617   0.913   2.708   1.411 -0.0972  0.0397  0.5911
  873SOL    HW1 2618   0.843   2.712   1.485 -0.9947 -1.2137  1.9945
  873SOL    HW2 2619   0.922   2.798   1.359  0.4488  1.3558 -1.1599
  874SOL     OW 2620   1.305   0.763   1.869 -0.3920 -0.5267 -0.3133
  874SOL    HW1 2621   1.358   0.850   1.870  1.5861  0.7377 -0.2171
  874SOL    HW2 2622   1.321   0.708   1.781  0.9539  0.5061 -3.7471
  875SOL     OW 2623   2.605   2.622   1.175 -0.1968 -0.3107 -0.5197
  875SOL    HW1 2624   2.624   2.623   1.275 -1.0469 -0.7020  2.5337
  875SOL    HW2 2625   2.549   2.702   1.149  0.7803 -1.3737  2.1701
  876SOL     OW 2626   1.052   1.311   0.722 -0.1731  0.1311  0.2001
  876SOL    HW1 2627   1.069   1.305   0.620 -2.0262 -1.8994 -2.4818
  876SOL    HW2 2628   0.955   1.330   0.747 -1.7430  1.4642  0.6895
  877SOL     OW 2629   2.749   0.358   1.130 -0.2075 -0.2930 -0.2486
  877SOL    HW1 2630   2.759   0.456   1.153  2.2001  0.0847 -0.1998
  877SOL    HW2 2631   2.802   0.301   1.202  3.7675  0.2455  2.4742
  878SOL     OW 2632   2.248   1.557   0.040 -0.0705 -0.4963  0.3869
  878SOL    HW1 2633   2.293   1.585   0.128  1.2798  0.3248 -0.3640
  878SOL    HW2 2634   2.235   1.452   0.034  2.1819 -1.7957  2.1493
  879SOL     OW 2635   2.753   2.039   1.313 -0.4468 -0.2420 -0.1773
  879SOL    HW1 2636   2.853   2.018   1.302  0.1991  1.5957  0.1472
  879SOL    HW2 2637   2.738   2.136   1.288  0.7850  1.4893 -0.6755
  880SOL     OW 2638   0.506   2.240   1.095 -0.5355 -0.2944  0.1255
  880SOL    HW1 2639   0.546   2.215   1.185  0.6108  0.0445 -3.2228
  880SOL    HW2 2640   0.518   2.339   1.066  0.4429  0.2283 -1.5773
  881SOL     OW 2641   1.584   1.226   0.918 -0.0637 -0.0670  0.2768
  881SOL    HW1 2642   1.606   1.137   0.959 -0.6309  1.0722  1.0348
  881SOL    HW2 2643   1.593   1.220   0.816  4.1141  0.4344 -1.5109
  882SOL     OW 2644   2.704   1.062   2.625  0.2280  0.0359  0.2191
  882SOL    HW1 2645   2.654   1.031   2.543 -0.9817  1.3055  1.1807
  882SOL    HW2 2646   2.673   1.024   2.715  1.7814 -0.7206  3.1080
  883SOL     OW 2647   1.306   0.255   1.186  0.3776  0.5378 -0.3534
  883SOL    HW1 2648   1.384   0.227   1.249  1.5191  0.9982  2.2770
  883SOL    HW2 2649   1.328   0.332   1.122  0.7401  1.7767  2.7586
  884SOL     OW 2650   3.024   2.928   1.063 -0.1802 -0.1484 -0.4500
  884SOL    HW1 2651   3.049   2.983   1.144  0.1905 -4.0392  2.2201
  884SOL    HW2 2652   0.004   2.907   1.014 -0.0100  1.8757  0.3720
  885SOL     OW 2653   1.392   0.901   1.277  0.0075  0.1291 -0.1447
  885SOL    HW1 2654   1.435   0.986   1.316 -0.1924 -2.0477  0.1740
  885SOL    HW2 2655   1.300   0.882   1.318  1.2756 -0.0628  1.6362
  886SOL     OW 2656   1.299   0.968   2.984 -0.0464 -0.4308  0.2444
  886SOL    HW1 2657   1.365   0.930   3.050 -1.6604 -0.1157 -2.0806
  886SOL    HW2 2658   1.338   1.054   2.951 -1.0981  1.4045 -0.2580
  887SOL     OW 2659   1.344   0.468   1.008  0.0930  0.3548 -0.5112
  887SOL    HW1 2660   1.420   0.419   0.955 -0.7223  0.9583 -1.9161
  887SOL    HW2 2661   1.376   0.557   1.049  0.5120 -1.4846 -1.2853
  888SOL     OW 2662   2.103   1.329   1.958  0.0374 -0.3961  0.6514
  888SOL    HW1 2663   2.196   1.357   1.927  0.6995  1.9803 -1.7003
  888SOL    HW2 2664   2.098   1.231   1.933 -0.2204  1.9725  0.1599
  889SOL     OW 2665   2.547   2.351   0.870  0.3713 -0.3181 -0.2482
  889SOL    HW1 2666   2.563   2.250   0.888  1.5793 -0.3458  1.2780
  889SOL    HW2 2667   2.621   2.384   0.803  2.6051  1.2246  2.0851
  890SOL     OW 2668   1.338   1.833   0.877 -0.1277 -0.3379  0.3105
  890SOL    HW1 2669   1.240   1.805   0.858 -1.7174 -0.4511  1.3781
  890SOL    HW2 2670   1.353   1.850   0.975  0.3429 -0.7846  0.1512
  891SOL     OW 2671   2.444   0.628   2.514 -0.0614  0.6358 -0.6766
  891SOL    HW1 2672   2.520   0.668   2.461  2.8806  4.2462 -0.3102
  891SOL    HW2 2673   2.402   0.556   2.452 -1.9696 -1.1993 -1.7420
  892SOL     OW 2674   0.942   0.347   2.218  0.2312 -0.2365  0.5689
  892SOL    HW1 2675   1.032   0.319   2.192 -2.0571 -0.3594  2.7304
  892SOL    HW2 2676   0.932   0.368   2.317 -1.4525  0.6534 -3.3307
  893SOL     OW 2677   1.485   0.156   1.359  0.2596 -0.1628  0.6396
  893SOL    HW1 2678   1.461   0.096   1.438  1.1349  1.5876 -0.2042
  893SOL    HW2 2679   1.545   0.104   1.296 -2.0256 -1.7357 -0.2705
  894SOL     OW 2680   2.600   0.678   0.722 -0.2033 -0.0682  0.3486
  894SOL    HW1 2681   2.519   0.676   0.788  1.0869 -1.4606  0.5755
  894SOL    HW2 2682   2.680   0.731   0.759  0.2843 -1.5025 -2.1069
  895SOL     OW 2683   1.864   2.404   2.585  0.3431 -0.0430 -0.2806
  895SOL    HW1 2684   1.892   2.477   2.520 -3.1915  3.2480  0.4324
  895SOL    HW2 2685   1.800   2.444   2.655 -0.6918  2.2440  3.4331
  896SOL     OW 2686   1.886   0.017   1.442 -0.0677  0.0717  0.5019
  896SOL    HW1 2687   1.928   0.107   1.456 -2.0260  0.8847  0.2424
  896SOL    HW2 2688   1.890   3.059   1.529 -0.4143 -0.7303  2.8095
  897SOL     OW 2689   0.559   1.938   2.115  0.0482 -0.3190  0.1364
  897SOL    HW1 2690   0.468   1.898   2.090 -2.2620 -0.6456  2.3613
  897SOL    HW2 2691   0.612   1.952   2.028  0.6794  1.6594 -1.8619
  898SOL     OW 2692   2.044   1.569   2.108  0.1718  0.1424  0.5375
  898SOL    HW1 2693   2.052   1.473   2.076  3.5214 -0.9111 -0.9379
  898SOL    HW2 2694   2.119   1.590   2.177 -3.8914  0.1790 -0.3743
  899SOL     OW 2695   1.941   2.505   0.786 -0.3439 -0.2354  0.3915
  899SOL    HW1 2696   2.000   2.480   0.705 -2.0635 -0.1165  1.1962
  899SOL    HW2 2697   1.971   2.596   0.819 -0.5414 -0.3501 -0.2800
  900SOL     OW 2698   0.963   3.016   2.902  0.3196 -0.0608 -0.7112
  900SOL    HW1 2699   1.036   2.944   2.922 -1.5004  0.9060 -2.5027
  900SOL    HW2 2700   0.878   2.966   2.871  1.2026 -4.1539  0.8880
  901SOL     OW 2701   1.011   1.791   2.165  0.5776 -0.2597  0.3267
  901SOL    HW1 2702   0.922   1.831   2.198 -2.4090 -2.9834  1.0409
  901SOL    HW2 2703   1.022   1.713   2.219 -3.0039  3.4488 -0.1586
  902SOL     OW 2704   2.204   0.477   2.900  0.3463  0.1363  0.1832
  902SOL    HW1 2705   2.265   0.544   2.951  3.1018  0.8577  1.9681
  902SOL    HW2 2706   2.127   0.432   2.955 -2.6925 -0.3899  0.9040
  903SOL     OW 2707   2.153   0.791   1.996  0.4816 -0.1655 -0.5202
  903SOL    HW1 2708   2.231   0.729   1.978  0.4102  2.8355 -2.7727
  903SOL    HW2 2709   2.176   0.885   2.009 -1.9236 -0.4639  0.0126
  904SOL     OW 2710   1.572   0.811   1.665  0.0119 -0.5283  0.0055
  904SOL    HW1 2711   1.641   0.858   1.606 -0.1331 -0.9644 -0.0702
  904SOL    HW2 2712   1.591   0.825   1.761 -0.7154 -0.5510 -2.4275
  905SOL     OW 2713   2.264   0.221   1.190  0.1208 -0.1360 -0.0367
  905SOL    HW1 2714   2.302   0.213   1.092 -0.2925  1.7622 -1.8554
  905SOL    HW2 2715   2.162   0.216   1.187 -2.9498 -1.9023 -3.3761
  906SOL     OW 2716   2.380   1.776   0.628 -0.5657  0.1446  0.3591
  906SOL    HW1 2717   2.287   1.814   0.628  2.6255 -0.7827  0.2962
  906SOL    HW2 2718   2.387   1.673   0.632 -0.0046 -0.3362 -0.9829
  907SOL     OW 2719   1.235   2.815   0.667  0.0289 -0.3104 -0.0072
  907SOL    HW1 2720   1.241   2.753   0.584 -1.3742 -2.0554  0.2573
  907SOL    HW2 2721   1.135   2.840   0.685  0.6561  0.0488  0.6468
  908SOL     OW 2722   1.469   2.339   2.539  0.1965  0.0700  0.0388
  908SOL    HW1 2723   1.463   2.249   2.485 -0.9940 -0.9618  0.4976
  908SOL    HW2 2724   1.486   2.420   2.477  0.4316  1.5423 -1.6119
  909SOL     OW 2725   2.157   0.378   2.235 -0.4139  0.4056  0.4297
  909SOL    HW1 2726   2.122   0.466   2.271  0.1694 -0.4305  0.4587
  909SOL    HW2 2727   2.142   0.370   2.131  0.1497 -0.0373 -1.4726
  910SOL     OW 2728   1.191   1.049   2.593  0.0903  0.0661 -0.0927
  910SOL    HW1 2729   1.149   1.058   2.688 -1.4174 -0.6509  1.7940
  910SOL    HW2 2730   1.272   0.995   2.600 -3.8769 -0.7057 -1.1697
  911SOL     OW 2731   3.070   0.940   2.945  0.8780  0.4382  0.3305
  911SOL    HW1 2732   3.094   0.863   3.006 -2.0420 -0.6948  0.5056
  911SOL    HW2 2733   2.972   0.967   2.961 -2.9505  1.2894  0.0729
  912SOL     OW 2734   0.143   2.432   0.898  0.2077  0.2051 -0.1072
  912SOL    HW1 2735   0.131   2.406   0.801  2.0485  1.2506  3.1133
  912SOL    HW2 2736   0.176   2.351   0.952 -1.5168  0.6134 -1.4421
  913SOL     OW 2737   2.517   1.953   2.481  0.0341  0.1394  0.0787
  913SOL    HW1 2738   2.437   1.935   2.544  2.1062 -1.4328 -2.7395
  913SOL    HW2 2739   2.529   2.054   2.457 -0.8527  1.0934 -1.1225
  914SOL     OW 2740   1.834   1.288   0.666  0.0022 -0.6887 -0.6423
  914SOL    HW1 2741   1.885   1.247   0.585  0.3954 -1.3611 -0.4871
  914SOL    HW2 2742   1.746   1.236   0.669 -0.9896 -2.6850  1.2230
  915SOL     OW 2743   0.355   2.687   2.274 -0.0089  0.6556 -0.0210
  915SOL    HW1 2744   0.350   2.788   2.278  2.5823 -1.2500 -3.5799
  915SOL    HW2 2745   0.406   2.659   2.189 -1.2169 -0.7772 -2.9094
  916SOL     OW 2746   0.846   3.081   1.086 -0.3565 -0.1942  0.5423
  916SOL    HW1 2747   0.838   2.985   1.119 -0.6483  0.2245 -0.3822
  916SOL    HW2 2748   0.940   0.011   1.107  0.6618  0.7936  1.9411
  917SOL     OW 2749   2.364   0.663   3.001  0.4699  0.1917  0.4929
  917SOL    HW1 2750   2.446   0.630   3.048  1.6714  0.5242 -0.3386
  917SOL    HW2 2751   2.393   0.710   2.911  0.1882  1.3098  1.4559
  918SOL     OW 2752   1.643   2.435   2.750  0.1179  0.1136  0.7402
  918SOL    HW1 2753   1.584   2.510   2.795 -2.2370  1.4199 -0.2414
  918SOL    HW2 2754   1.589   2.400   2.672  0.0238 -1.3023  2.9201
  919SOL     OW 2755   1.773   2.745   1.080 -0.1558 -0.8769 -0.6203
  919SOL    HW1 2756   1.814   2.812   1.154  0.7126  1.4287  1.7732
  919SOL    HW2 2757   1.723   2.665   1.111 -0.1895  2.4000 -0.8771
  920SOL     OW 2758   1.323   0.367   2.368 -0.4759  0.0139 -1.1521
  920SOL    HW1 2759   1.330   0.321   2.464  4.6662 -1.8024  0.2920
  920SOL    HW2 2760   1.266   0.303   2.309  0.8789 -2.6224  0.9638
  921SOL     OW 2761   3.025   0.906   2.648  0.7079 -0.3933  0.3497
  921SOL    HW1 2762   2.942   0.853   2.610  1.0925 -0.6651 -0.2798
  921SOL    HW2 2763   3.038   0.889   2.748  2.4364  0.3170  0.0630
  922SOL     OW 2764   3.020   2.115   1.157  0.3419  0.4239 -0.0282
  922SOL    HW1 2765   3.046   2.212   1.167 -3.6043 -1.8854 -1.1339
  922SOL    HW2 2766   2.932   2.122   1.100 -1.9357  3.1842  0.9514
  923SOL     OW 2767   0.368   1.536   2.177 -0.2269 -0.2067  0.5840
  923SOL    HW1 2768   0.357   1.540   2.275  0.0517  1.2945 -0.9532
  923SOL    HW2 2769   0.343   1.633   2.141 -0.9061  2.9600  0.1836
  924SOL     OW 2770   1.652   2.965   2.309  0.0536 -0.7153 -0.1970
  924SOL    HW1 2771   1.573   2.903   2.298 -0.5853  1.3726 -0.0340
  924SOL    HW2 2772   1.728   2.908   2.269 -0.1354  2.1714  0.9385
  925SOL     OW 2773   3.017   1.686   0.612  0.1625 -0.1318  0.5421
  925SOL    HW1 2774   3.053   1.625   0.539 -0.6836  1.2760  0.8782
  925SOL    HW2 2775   2.953   1.639   0.678 -1.7212 -0.5129 -0.9762
  926SOL     OW 2776   2.361   0.917   0.947 -0.2157  0.4844 -0.1156
  926SOL    HW1 2777   2.363   0.815   0.925 -0.7173  0.0911  1.1211
  926SOL    HW2 2778   2.450   0.956   0.978 -1.3476 -2.1118  0.7755
  927SOL     OW 2779   1.696   0.081   1.188 -0.5327 -0.1618 -0.1489
  927SOL    HW1 2780   1.744   0.170   1.203 -3.5875  0.8307  2.1921
  927SOL    HW2 2781   1.749   0.001   1.228 -1.2634 -0.4521  0.6805
  928SOL     OW 2782   0.093   0.880   2.271  0.6899 -0.4849  0.0494
  928SOL    HW1 2783   0.193   0.882   2.273 -0.1356  2.0487  1.2683
  928SOL    HW2 2784   0.051   0.796   2.319 -2.2902 -3.6604  1.3026
  929SOL     OW 2785   2.285   0.858   1.257  0.4073 -0.1295  0.4472
  929SOL    HW1 2786   2.322   0.786   1.190  1.4155 -2.0991 -0.1199
  929SOL    HW2 2787   2.269   0.949   1.214 -1.0957 -3.2241  2.9468
  930SOL     OW 2788   2.256   2.323   1.659  0.0373 -0.0074  0.5395
  930SOL    HW1 2789   2.300   2.247   1.607 -2.5633  1.3616  3.4063
  930SOL    HW2 2790   2.312   2.404   1.640 -1.5541 -0.9554 -0.0219
  931SOL     OW 2791   1.940   1.016   1.242  0.3902 -0.3690  0.0096
  931SOL    HW1 2792   1.886   1.093   1.289  1.4542  2.6835 -2.4634
  931SOL    HW2 2793   2.022   1.053   1.198 -0.0755 -1.6621  0.3378
  932SOL     OW 2794   0.315   0.682   1.827  0.0043 -0.0129 -0.5125
  932SOL    HW1 2795   0.401   0.695   1.774 -1.4883  2.3184 -1.5490
  932SOL    HW2 2796   0.274   0.774   1.843  0.0492  0.0318  0.4012
  933SOL     OW 2797   2.419   1.927   1.650 -0.0348  0.4639 -0.1175
  933SOL    HW1 2798   2.423   1.982   1.566  1.4647 -0.6155  2.7867
  933SOL    HW2 2799   2.458   1.984   1.723  0.5218 -1.5772 -2.3832
  934SOL     OW 2800   1.215   2.329   1.784  0.0373 -0.2972 -0.7137
  934SOL    HW1 2801   1.209   2.430   1.815 -1.5613  3.0735 -0.6776
  934SOL    HW2 2802   1.166   2.326   1.696 -0.4816  1.4083  0.6555
  935SOL     OW 2803   3.062   1.502   2.085  0.1358 -0.0595 -0.5241
  935SOL    HW1 2804   0.035   1.433   2.074  1.5525 -1.8348 -0.1313
  935SOL    HW2 2805   3.086   1.579   2.153 -0.1034  0.9463 -2.4597
  936SOL     OW 2806   2.709   0.770   1.294 -0.3277  0.2429  0.2180
  936SOL    HW1 2807   2.696   0.866   1.257  0.1069 -0.2718  0.1517
  936SOL    HW2 2808   2.624   0.716   1.298  1.7193 -0.0082 -0.8584
  937SOL     OW 2809   1.800   0.343   1.239 -0.3277 -0.0919  0.6365
  937SOL    HW1 2810   1.771   0.415   1.171 -1.3014 -2.5396 -0.4804
  937SOL    HW2 2811   1.809   0.380   1.332  2.6071  1.2241  2.6980
  938SOL     OW 2812   0.452   2.793   0.661 -0.3054 -0.1446 -0.1895
  938SOL    HW1 2813   0.390   2.724   0.706  3.7919 -0.9557  1.9815
  938SOL    HW2 2814   0.538   2.744   0.670 -0.8433  2.1132 -3.0585
  939SOL     OW 2815   2.923   2.122   2.633  0.0361 -0.5298 -0.0974
  939SOL    HW1 2816   3.008   2.069   2.658 -0.0066 -0.1047  0.4889
  939SOL    HW2 2817   2.882   2.087   2.548 -1.2821  0.4584  0.2359
  940SOL     OW 2818   1.557   1.800   0.020  0.5547 -0.3918 -0.1889
  940SOL    HW1 2819   1.655   1.823   0.001 -1.8448  0.5241  3.2384
  940SOL    HW2 2820   1.499   1.830   3.045  1.3067 -2.5255 -0.4289
  941SOL     OW 2821   2.113   2.471   0.287  0.3251 -0.0134 -0.1492
  941SOL    HW1 2822   2.197   2.450   0.232 -1.7915  1.2482  2.8745
  941SOL    HW2 2823   2.120   2.563   0.330 -0.9173  3.5110  1.5502
  942SOL     OW 2824   1.954   1.744   1.037  0.8753  1.0758  0.1136
  942SOL    HW1 2825   2.006   1.831   1.051  1.0936 -2.6208  0.6630
  942SOL    HW2 2826   1.903   1.726   1.125 -0.2542  1.0930 -0.3425
  943SOL     OW 2827   2.143   0.778   1.466 -0.0826 -0.7405 -0.2244
  943SOL    HW1 2828   2.211   0.807   1.394 -0.0881 -0.4307 -0.4595
  943SOL    HW2 2829   2.051   0.776   1.435  1.1303 -0.8650  0.3523
  944SOL     OW 2830   1.391   0.701   2.126 -0.1395  0.1394  0.0418
  944SOL    HW1 2831   1.346   0.768   2.186 -1.0765  0.0400  0.7910
  944SOL    HW2 2832   1.368   0.713   2.027 -1.1133  0.2660  0.1715
  945SOL     OW 2833   2.300   3.001   1.488  0.4465 -0.0298 -0.4905
  945SOL    HW1 2834   2.388   2.969   1.450  0.1654 -1.8230 -2.4382
  945SOL    HW2 2835   2.235   3.034   1.413 -1.4801 -1.1825 -4.7779
  946SOL     OW 2836   0.612   1.184   0.666  0.0095 -0.4619 -0.2729
  946SOL    HW1 2837   0.652   1.122   0.741  2.3628  1.6420  2.8090
  946SOL    HW2 2838   0.658   1.176   0.575  2.1491  0.9317 -0.0979
  947SOL     OW 2839   1.244   2.255   0.828 -0.1405  0.0961  1.0305
  947SOL    HW1 2840   1.226   2.355   0.841 -2.6091 -2.1614 -1.1589
  947SOL    HW2 2841   1.214   2.221   0.735 -1.9443  2.5556 -2.8515
  948SOL     OW 2842   0.358   1.712   1.167  0.1036  0.0243 -0.1990
  948SOL    HW1 2843   0.401   1.804   1.158 -2.6294  0.1273  0.3746
  948SOL    HW2 2844   0.420   1.640   1.197 -0.4232  1.8675  1.5618
  949SOL     OW 2845   0.864   1.194   1.855 -0.3779  0.4245  0.8829
  949SOL    HW1 2846   0.893   1.279   1.810 -0.4820 -0.3854 -1.1911
  949SOL    HW2 2847   0.770   1.167   1.832  4.2085  3.8141  1.3330
  950SOL     OW 2848   0.500   0.701   1.253 -0.0401 -0.0365  0.1885
  950SOL    HW1 2849   0.584   0.761   1.259  0.8203 -0.0321 -1.8518
  950SOL    HW2 2850   0.430   0.732   1.322 -1.2840 -0.8151  0.7750
  951SOL     OW 2851   0.772   2.150   2.000  0.4033 -0.2299 -0.5375
  951SOL    HW1 2852   0.709   2.230   1.978 -0.9381  2.8169 -0.8467
  951SOL    HW2 2853   0.739   2.073   1.942 -0.1101  1.4918 -0.2515
  952SOL     OW 2854   0.953   1.588   0.146 -0.3599  0.0611 -0.3676
  952SOL    HW1 2855   0.880   1.656   0.116 -0.4083 -1.7019 -0.4978
  952SOL    HW2 2856   1.039   1.637   0.172 -2.1105 -1.7123 -1.2764
  953SOL     OW 2857   1.085   2.865   0.151 -0.1486  0.1361 -0.4687
  953SOL    HW1 2858   1.061   2.854   0.251 -3.1231  0.8803 -2.7355
  953SOL    HW2 2859   1.111   2.780   0.108  0.2222  2.3101  2.7017
  954SOL     OW 2860   1.637   1.125   3.038 -0.0212 -0.6962  0.0795
  954SOL    HW1 2861   1.572   1.143   2.966  0.2261  0.5141 -0.6634
  954SOL    HW2 2862   1.600   1.151   0.024 -0.6530 -0.7382  0.0549
  955SOL     OW 2863   0.077   2.705   0.065 -0.8796 -0.3380  0.1662
  955SOL    HW1 2864   0.097   2.765   0.146  0.5109 -1.1350 -0.3451
  955SOL    HW2 2865   0.008   2.741   0.004  1.4989  0.9136  2.4657
  956SOL     OW 2866   1.093   0.794   1.194 -0.0134 -0.1981 -0.3664
  956SOL    HW1 2867   1.096   0.825   1.094  2.3216 -0.4476 -1.7929
  956SOL    HW2 2868   1.085   0.693   1.209 -2.0329 -4.6033  0.1234
  957SOL     OW 2869   1.823   1.440   1.565 -0.3314 -0.2067  1.0164
  957SOL    HW1 2870   1.736   1.494   1.577 -0.5868 -2.5738 -1.6088
  957SOL    HW2 2871   1.818   1.366   1.634 -0.4493 -2.5136 -0.2807
  958SOL     OW 2872   0.545   1.841   1.620 -0.6498 -0.2117  0.1962
  958SOL    HW1 2873   0.572   1.761   1.563  1.0145  0.2372  0.4246
  958SOL    HW2 2874   0.545   1.927   1.568  0.7971 -0.2703  1.0699
  959SOL     OW 2875   1.512   1.142   1.378 -1.0945 -0.6095 -0.3308
  959SOL    HW1 2876   1.610   1.172   1.383  2.3845  1.9112 -2.3267
  959SOL    HW2 2877   1.459   1.210   1.432 -0.8082 -0.3486  1.0161
  960SOL     OW 2878   0.197   1.158   0.219  0.3178  0.0767  0.4479
  960SOL    HW1 2879   0.177   1.083   0.282  0.6880 -0.4205  0.5004
  960SOL    HW2 2880   0.288   1.142   0.181  0.7459  1.1732  3.8227
  961SOL     OW 2881   0.904   1.430   1.722 -0.2103 -0.3783  0.6313
  961SOL    HW1 2882   0.928   1.404   1.627  0.0332 -0.1004 -1.1963
  961SOL    HW2 2883   0.880   1.530   1.723 -0.8840 -1.2294 -1.0320
  962SOL     OW 2884   1.343   1.331   0.766  0.2242  0.0217 -0.2927
  962SOL    HW1 2885   1.364   1.346   0.866 -0.6903  1.0675  0.7412
  962SOL    HW2 2886   1.247   1.360   0.745 -1.0626  1.8773  1.6996
  963SOL     OW 2887   1.427   1.898   2.919  0.9675  0.5331  0.2531
  963SOL    HW1 2888   1.463   1.996   2.915 -1.0010  1.7449  1.6795
  963SOL    HW2 2889   1.362   1.881   2.842  0.6822 -0.7477  1.4338
  964SOL     OW 2890   0.653   2.917   0.337 -0.0038 -0.3483  0.3702
  964SOL    HW1 2891   0.596   2.846   0.368  3.5009  3.2239 -1.4095
  964SOL    HW2 2892   0.638   2.943   0.241 -1.2110  0.2078 -0.0265
  965SOL     OW 2893   0.412   2.422   0.715 -0.6749  0.6170  0.0385
  965SOL    HW1 2894   0.436   2.341   0.764  1.7994 -1.1790 -0.7341
  965SOL    HW2 2895   0.321   2.419   0.673  0.1458  1.9886  0.1458
  966SOL     OW 2896   0.065   1.648   2.751  0.1879  0.0107  0.2090
  966SOL    HW1 2897   0.017   1.560   2.743 -0.8763 -0.9386  0.7347
  966SOL    HW2 2898   0.050   1.689   2.840  0.3481 -0.5847 -2.0333
  967SOL     OW 2899   2.929   0.049   2.482  0.3868 -0.0226  0.4774
  967SOL    HW1 2900   3.028   0.055   2.457 -1.4606 -0.1371  1.3882
  967SOL    HW2 2901   2.915   0.097   2.569 -1.2474  1.5983  0.5927
  968SOL     OW 2902   2.357   0.702   0.412 -0.4320 -0.0828 -0.0030
  968SOL    HW1 2903   2.340   0.600   0.401 -0.0429  0.0260 -1.5860
  968SOL    HW2 2904   2.285   0.748   0.360  3.1560 -1.6570 -1.5821
  969SOL     OW 2905   0.235   0.954   1.837  0.0155 -0.1106 -0.1309
  969SOL    HW1 2906   0.200   1.005   1.753  1.6586  1.6566 -0.9761
  969SOL    HW2 2907   0.289   1.019   1.894  1.5933  1.3520  0.6459
  970SOL     OW 2908   2.300   1.492   1.220  0.0574 -0.2454 -0.3602
  970SOL    HW1 2909   2.341   1.545   1.140  0.1475  3.4616 -1.9622
  970SOL    HW2 2910   2.207   1.454   1.205  1.3043  0.5859  2.7818
  971SOL     OW 2911   2.712   0.041   1.252  0.8176 -0.0494 -0.0401
  971SOL    HW1 2912   2.742   0.025   1.154 -0.5873 -3.4954 -1.7836
  971SOL    HW2 2913   2.792   0.083   1.299  0.9662  0.8463  0.4922
  972SOL     OW 2914   0.480   2.854   1.423  0.2035 -0.2861 -0.2149
  972SOL    HW1 2915   0.477   2.957   1.437 -0.3916 -0.5390 -0.7296
  972SOL    HW2 2916   0.523   2.836   1.333  0.1941  2.0966 -1.0739
  973SOL     OW 2917   0.283   0.219   2.866  0.2911 -0.2055  0.1611
  973SOL    HW1 2918   0.312   0.250   2.773  2.9185  0.0658 -1.0770
  973SOL    HW2 2919   0.184   0.237   2.875  1.5432  0.7708  0.4165
  974SOL     OW 2920   1.754   1.449   2.235  0.3859  0.0525  0.3474
  974SOL    HW1 2921   1.692   1.446   2.153 -0.3319 -2.3655 -0.5465
  974SOL    HW2 2922   1.763   1.535   2.290 -1.3181  1.3165  1.1500
  975SOL     OW 2923   0.045   0.062   1.671 -0.1694  0.0707 -1.2260
  975SOL    HW1 2924   0.136   0.024   1.645 -0.7481 -2.1297 -0.9658
  975SOL    HW2 2925   0.023   0.144   1.614  0.2652  1.0600 -3.7652
  976SOL     OW 2926   0.575   2.086   2.358  0.5819 -0.0332 -0.8914
  976SOL    HW1 2927   0.498   2.039   2.408 -1.4471  0.2626 -1.2355
  976SOL    HW2 2928   0.573   2.062   2.257  0.3988  0.0775  0.2348
  977SOL     OW 2929   0.730   2.336   0.470  0.4017  0.0482  0.3432
  977SOL    HW1 2930   0.690   2.429   0.484  1.2896  0.7704 -1.7278
  977SOL    HW2 2931   0.823   2.341   0.436 -3.7742 -0.0595 -0.2713
  978SOL     OW 2932   0.171   1.719   2.472 -0.2859 -0.1534  0.2714
  978SOL    HW1 2933   0.224   1.631   2.484 -1.3798  1.6233 -0.4249
  978SOL    HW2 2934   0.109   1.725   2.550  0.9814 -0.0975 -0.3529
  979SOL     OW 2935   1.718   2.376   1.558 -0.6000 -0.6961  0.1647
  979SOL    HW1 2936   1.818   2.353   1.577  0.7033  0.4279 -0.3522
  979SOL    HW2 2937   1.663   2.297   1.517  1.7492  0.8553  1.1673
  980SOL     OW 2938   0.877   1.369   0.007  0.1246  0.1447  0.1018
  980SOL    HW1 2939   0.773   1.353   3.103 -1.9644  0.2786 -0.2649
  980SOL    HW2 2940   0.901   1.449   0.063  0.3994  2.3897 -3.2687
  981SOL     OW 2941   2.203   0.063   2.205 -0.1864  0.0833  0.3054
  981SOL    HW1 2942   2.195   0.166   2.218 -0.1494 -0.1564 -1.3104
  981SOL    HW2 2943   2.187   0.033   2.111  0.5848 -1.2129  2.3813
  982SOL     OW 2944   3.099   0.240   2.879 -0.4843  0.2773  0.7391
  982SOL    HW1 2945   3.022   0.266   2.936 -2.2109 -0.3290 -0.8149
  982SOL    HW2 2946   3.087   0.266   2.782  2.2727  2.9418 -2.2909
  983SOL     OW 2947   1.953   1.192   2.244 -0.3389  0.9048  0.1752
  983SOL    HW1 2948   1.886   1.120   2.279  0.6734 -0.5145 -0.9032
  983SOL    HW2 2949   1.902   1.264   2.195 -1.9505  0.8812 -2.1123
  984SOL     OW 2950   1.532   0.085   1.792 -0.2208  0.3105 -0.5277
  984SOL    HW1 2951   1.465   0.133   1.846  0.2909  0.5937 -1.4252
  984SOL    HW2 2952   1.604   0.153   1.766 -3.8368 -3.2286  0.5498
  985SOL     OW 2953   1.845   1.363   1.906  0.2151 -0.6095  0.1580
  985SOL    HW1 2954   1.825   1.287   1.841 -0.0844 -0.6575  0.7141
  985SOL    HW2 2955   1.940   1.353   1.932 -0.8892  0.9904 -1.2101
  986SOL     OW 2956   2.067   0.522   1.569  0.5778 -0.3166  0.7856
  986SOL    HW1 2957   2.137   0.485   1.629 -0.3288 -1.5665 -1.6304
  986SOL    HW2 2958   2.081   0.622   1.552 -1.5951  1.1243 -1.9737
  987SOL     OW 2959   2.536   0.516   1.356 -0.0402 -0.8675  0.4233
  987SOL    HW1 2960   2.504   0.541   1.448  1.3784 -0.9754 -0.7848
  987SOL    HW2 2961   2.554   0.416   1.344  0.6870 -1.2883 -2.5170
  988SOL     OW 2962   3.014   0.891   2.082  0.2060 -0.1530 -0.3979
  988SOL    HW1 2963   3.055   0.878   1.987 -0.1608  3.3619  2.7656
  988SOL    HW2 2964   3.088   0.883   2.151 -1.3447  0.4530 -0.4707
  989SOL     OW 2965   2.070   1.713   3.068 -0.4653  0.3784  0.3627
  989SOL    HW1 2966   2.119   1.771   2.996  0.6143  0.3800 -1.2463
  989SOL    HW2 2967   2.140   1.641   3.096 -0.0772 -2.2209  1.0830
  990SOL     OW 2968   1.106   0.372   2.920  0.6043  0.3555  0.1397
  990SOL    HW1 2969   1.125   0.273   2.906 -0.9368  2.6593 -0.9837
  990SOL    HW2 2970   1.170   0.435   2.874 -1.4021 -1.8023  0.4535
  991SOL     OW 2971   1.485   0.833   0.028 -0.3668  0.3424  0.2280
  991SOL    HW1 2972   1.578   0.855   0.056  0.2360  1.3020 -1.2251
  991SOL    HW2 2973   1.478   0.750   3.075 -0.5028  0.6444 -0.8387
  992SOL     OW 2974   2.022   1.198   0.049 -0.1594  0.4269 -0.4971
  992SOL    HW1 2975   1.993   1.298   0.053 -0.2447 -1.1192  1.0889
  992SOL    HW2 2976   1.953   1.137   0.003 -0.3782  0.3601  0.6256
  993SOL     OW 2977   0.035   0.524   0.595 -0.5990 -0.2266 -0.1097
  993SOL    HW1 2978   0.059   0.611   0.643  0.2149  0.5167 -0.2382
  993SOL    HW2 2979   0.063   0.444   0.655  0.8525  1.9660  1.0608
  994SOL     OW 2980   2.905   1.980   2.388  0.2464 -0.2203 -0.3154
  994SOL    HW1 2981   2.891   1.888   2.440 -2.6825 -1.9534  1.8978
  994SOL    HW2 2982   3.001   1.978   2.356  0.8739  0.3528  1.9974
  995SOL     OW 2983   1.783   1.465   2.672  0.4841 -0.1543 -0.2234
  995SOL    HW1 2984   1.718   1.441   2.599  0.7618  0.5622  0.3805
  995SOL    HW2 2985   1.799   1.379   2.723 -0.5211  0.1917 -0.9629
  996SOL     OW 2986   2.111   1.806   2.823  0.3272 -0.8021 -0.3932
  996SOL    HW1 2987   2.059   1.890   2.854 -0.9242 -1.3343 -0.4727
  996SOL    HW2 2988   2.074   1.763   2.739 -2.7719  0.9853 -2.6087
  997SOL     OW 2989   2.338   1.479   1.846 -0.1540  0.0003 -0.0068
  997SOL    HW1 2990   2.421   1.509   1.900  4.0038  1.0686 -2.0448
  997SOL    HW2 2991   2.284   1.555   1.808  0.6937  0.0068 -1.6516
  998SOL     OW 2992   2.378   1.599   0.296  0.2225  0.0582 -0.1462
  998SOL    HW1 2993   2.472   1.613   0.328 -2.3802 -2.5263 -1.1518
  998SOL    HW2 2994   2.338   1.518   0.344 -0.3255  0.0836 -0.7607
  999SOL     OW 2995   2.857   2.256   0.323 -0.5096 -0.4560 -0.1025
  999SOL    HW1 2996   2.791   2.198   0.267  0.5313 -1.5628 -3.1785
  999SOL    HW2 2997   2.842   2.352   0.296  2.1092  3.9122  2.6740
 1000SOL     OW 2998   0.951   0.528   1.983 -0.1059  0.1337  0.3938
 1000SOL    HW1 2999   0.948   0.468   2.069  3.5539 -0.7423 -1.1536
 1000SOL    HW2 3000   0.974   0.623   2.003 -0.0438  0.1585 -3.8780
   3.10522   3.10522   3.10522
