1000 SPC/Fw water molecules t= 364.00000 step= 364000
 3000
    1SOL     OW    1   2.542   2.824   1.662  0.1112 -0.0497 -0.1258
    1SOL    HW1    2   2.439   2.835   1.644  0.5563  1.2950  1.5907
    1SOL    HW2    3   2.592   2.883   1.597  2.3639 -1.3224 -0.5201
    2SOL     OW    4   2.584   2.389   0.735 -0.4271  0.7125  0.5047
    2SOL    HW1    5   2.668   2.378   0.795  3.5426 -1.4764 -1.2019
    2SOL    HW2    6   2.584   2.488   0.706  2.9433 -0.4223  1.4719
    3SOL     OW    7   1.322   0.021   0.070 -0.0168  0.5094  0.3555
    3SOL    HW1    8   1.386   0.091   0.036  0.7230 -0.2163  0.3326
    3SOL    HW2    9   1.260   3.101   3.111  1.3310  0.1642 -2.0565
    4SOL     OW   10   1.432   2.789   2.185 -0.6498 -0.2309  0.0560
    4SOL    HW1   11   1.421   2.856   2.259 -2.8600 -1.3598  0.9382
    4SOL    HW2   12   1.343   2.744   2.159  0.5363 -0.9006 -0.0751
    5SOL     OW   13   2.232   0.447   1.724 -0.1417 -0.0285  0.3638
    5SOL    HW1   14   2.281   0.518   1.789  1.0280  0.5295  1.8703
    5SOL    HW2   15   2.142   0.422   1.758  2.1084 -2.6658 -1.1733
    6SOL     OW   16   2.236   2.471   0.561  0.3585 -0.4768  0.7453
    6SOL    HW1   17   2.161   2.521   0.514  1.7509 -2.4644  0.1919
    6SOL    HW2   18   2.321   2.528   0.538  2.2712  3.5074 -1.5009
    7SOL     OW   19   1.865   1.073   1.129  0.0100  0.3972 -0.5402
    7SOL    HW1   20   1.795   1.061   1.055 -0.3785 -0.1236 -1.3523
    7SOL    HW2   21   1.823   1.125   1.205  0.7420  0.2463  0.8666
    8SOL     OW   22   0.938   1.575   1.212  0.8750  0.1908  0.2604
    8SOL    HW1   23   0.846   1.544   1.189  2.3870  1.8100 -0.1268
    8SOL    HW2   24   0.999   1.541   1.136 -1.4439 -0.3021 -0.6852
    9SOL     OW   25   1.075   2.470   1.801  0.3965  0.2037 -0.7989
    9SOL    HW1   26   1.007   2.541   1.765 -0.8861  2.6338  0.4272
    9SOL    HW2   27   1.046   2.377   1.783  1.2540  1.3305 -0.4148
   10SOL     OW   28   0.895   2.307   0.822  0.2363  0.1683 -0.5558
   10SOL    HW1   29   0.824   2.376   0.856 -2.3802  4.7948  0.8940
   10SOL    HW2   30   0.890   2.299   0.722 -1.4687 -1.8407  0.1020
   11SOL     OW   31   1.562   1.798   1.360 -0.0581 -0.4114 -0.1999
   11SOL    HW1   32   1.521   1.878   1.406  0.5391  3.6770 -0.3722
   11SOL    HW2   33   1.595   1.813   1.269 -0.2573  1.3786  0.6213
   12SOL     OW   34   2.660   0.344   2.440  0.0085  0.5352 -0.4250
   12SOL    HW1   35   2.599   0.397   2.377  0.2079  1.0858 -1.7799
   12SOL    HW2   36   2.738   0.402   2.471 -0.5411 -0.7196  0.8400
   13SOL     OW   37   2.631   3.012   0.578 -0.0878  0.3665  0.4062
   13SOL    HW1   38   2.638   2.977   0.676 -0.0414 -0.2056 -2.2987
   13SOL    HW2   39   2.727   3.014   0.544 -1.5074 -0.6360 -1.5821
   14SOL     OW   40   1.615   1.716   2.832 -0.2630 -0.3938  0.0950
   14SOL    HW1   41   1.660   1.627   2.835 -2.5087 -0.5480 -0.4202
   14SOL    HW2   42   1.587   1.751   2.926 -1.9725 -0.9165  1.2474
   15SOL     OW   43   2.485   2.522   1.491  0.1090 -0.3223 -0.0646
   15SOL    HW1   44   2.502   2.445   1.558 -1.1970 -3.1236 -1.7095
   15SOL    HW2   45   2.486   2.613   1.533  1.2511  1.0709 -1.0127
   16SOL     OW   46   2.250   2.819   0.336  0.7687 -0.0034 -0.0604
   16SOL    HW1   47   2.233   2.845   0.430  1.3303 -0.2203 -3.8534
   16SOL    HW2   48   2.342   2.849   0.301  0.8720 -2.6628 -1.1894
   17SOL     OW   49   0.832   0.466   1.129 -0.1532 -0.3974 -0.4150
   17SOL    HW1   50   0.794   0.424   1.042  0.6115 -0.8782  0.9956
   17SOL    HW2   51   0.835   0.568   1.124  2.6412  1.3756  0.3493
   18SOL     OW   52   2.085   0.443   0.439  0.4315 -0.4436 -0.1837
   18SOL    HW1   53   2.042   0.407   0.528 -0.7576 -1.4829 -0.2276
   18SOL    HW2   54   2.041   0.387   0.366 -1.6718  0.1740 -1.7271
   19SOL     OW   55   2.077   1.474   0.177  0.0215  0.3116 -0.0245
   19SOL    HW1   56   2.123   1.489   0.086 -1.2105 -1.0757  0.2874
   19SOL    HW2   57   2.007   1.540   0.206  1.6922 -1.2152  0.7502
   20SOL     OW   58   2.445   1.651   2.431  0.2891 -0.6029  0.4696
   20SOL    HW1   59   2.485   1.726   2.370  1.9849 -1.4538  0.1336
   20SOL    HW2   60   2.464   1.555   2.396 -2.7329 -1.1036 -3.2811
   21SOL     OW   61   1.472   0.382   0.617 -0.0002  0.0003 -0.7486
   21SOL    HW1   62   1.463   0.317   0.692 -2.4451  1.2734 -2.8151
   21SOL    HW2   63   1.388   0.388   0.565  1.6610  0.3242 -0.5809
   22SOL     OW   64   2.812   0.466   1.584 -0.0189  0.1625  0.2305
   22SOL    HW1   65   2.807   0.532   1.506  2.8150 -2.6426  0.5631
   22SOL    HW2   66   2.749   0.390   1.560  1.5531  3.6895 -0.2550
   23SOL     OW   67   0.407   0.365   1.781 -0.0531 -0.4547  0.4787
   23SOL    HW1   68   0.345   0.340   1.706  3.2604 -2.6504  0.1086
   23SOL    HW2   69   0.415   0.469   1.784  0.6043  0.3383  0.9651
   24SOL     OW   70   2.532   2.673   0.224  0.2193  0.3880 -0.4580
   24SOL    HW1   71   2.626   2.653   0.195 -0.3905  1.6196 -1.1598
   24SOL    HW2   72   2.531   2.769   0.263 -0.3172 -0.0928 -0.5112
   25SOL     OW   73   0.935   2.934   2.772 -0.0385 -0.2486 -0.5793
   25SOL    HW1   74   0.939   2.894   2.681  1.3304  0.7400  2.2929
   25SOL    HW2   75   1.017   2.992   2.777 -1.2611 -1.1039 -1.2467
   26SOL     OW   76   1.416   2.523   0.379  0.0910 -0.8298 -0.3553
   26SOL    HW1   77   1.399   2.428   0.414  1.0731  2.0613 -1.1769
   26SOL    HW2   78   1.472   2.572   0.450 -0.6926 -1.0449 -1.0801
   27SOL     OW   79   2.198   0.817   0.907 -0.2093 -0.2932 -0.0342
   27SOL    HW1   80   2.167   0.882   0.975  1.8981  1.0714  0.1994
   27SOL    HW2   81   2.288   0.776   0.929  0.9010  3.0058  2.5451
   28SOL     OW   82   1.103   1.503   1.008  0.3647  0.0766  0.4061
   28SOL    HW1   83   1.031   1.523   0.938  3.4902 -1.1339  0.7077
   28SOL    HW2   84   1.157   1.421   0.974 -1.5771  2.0388 -1.2631
   29SOL     OW   85   2.973   2.982   1.837  0.2005 -0.0871 -0.2737
   29SOL    HW1   86   3.068   3.011   1.864 -1.8729 -0.9596  4.6733
   29SOL    HW2   87   2.929   3.034   1.763  0.7134 -1.7735  1.7131
   30SOL     OW   88   1.375   0.025   1.232  0.2244  0.4875  0.0928
   30SOL    HW1   89   1.335   3.083   1.158 -1.6126 -2.9146 -0.6043
   30SOL    HW2   90   1.323   0.032   1.320 -1.8492 -0.2354  0.7776
   31SOL     OW   91   1.667   2.644   2.191  0.0303 -0.2734 -0.6550
   31SOL    HW1   92   1.590   2.710   2.215 -3.0693  2.4709  1.9258
   31SOL    HW2   93   1.758   2.684   2.216 -1.0764 -2.4340  0.1859
   32SOL     OW   94   0.960   1.403   3.094  0.0731  0.4187 -0.3367
   32SOL    HW1   95   1.017   1.461   3.034 -1.5257  0.0105  2.7558
   32SOL    HW2   96   0.953   1.446   0.069  2.2296 -0.3329  0.5953
   33SOL     OW   97   3.023   0.882   2.333 -0.2335 -0.3375 -0.4803
   33SOL    HW1   98   2.973   0.856   2.248 -1.5038  0.2664 -0.0489
   33SOL    HW2   99   3.068   0.798   2.378  1.2294  1.6692  1.4193
   34SOL     OW  100   2.095   3.086   0.485  0.5183 -0.3745  0.0830
   34SOL    HW1  101   2.072   0.030   0.565  0.9942  4.1648 -1.7565
   34SOL    HW2  102   2.119   2.988   0.513  1.0861 -1.3469 -0.5570
   35SOL     OW  103   2.629   2.356   1.884  0.6853 -0.0624 -0.1559
   35SOL    HW1  104   2.615   2.332   1.983  0.9367  3.9201 -1.8245
   35SOL    HW2  105   2.634   2.463   1.873 -0.5451  3.8659  1.3550
   36SOL     OW  106   2.410   2.126   2.980 -0.4038  0.0700  0.2192
   36SOL    HW1  107   2.444   2.197   2.920  2.0655 -2.2503  1.9607
   36SOL    HW2  108   2.490   2.085   3.029 -0.6347 -1.2060 -0.4305
   37SOL     OW  109   1.977   0.444   1.907  0.0691  0.2890  0.3083
   37SOL    HW1  110   1.961   0.350   1.869  0.7822  2.9743 -0.7733
   37SOL    HW2  111   1.900   0.507   1.877 -2.5747 -0.1535  0.9470
   38SOL     OW  112   3.109   0.403   2.936  0.4122 -0.1230  0.0013
   38SOL    HW1  113   3.033   0.334   2.936 -2.0862 -3.0232  1.3564
   38SOL    HW2  114   0.059   0.393   3.012 -1.0050 -0.1247  0.5870
   39SOL     OW  115   1.907   1.333   1.715  0.1324 -0.0766 -0.0613
   39SOL    HW1  116   1.863   1.422   1.737 -0.5617  0.4429 -1.6607
   39SOL    HW2  117   2.008   1.339   1.726  1.9643 -2.2369 -0.5601
   40SOL     OW  118   1.170   2.145   0.529 -0.0814  0.1176 -0.0953
   40SOL    HW1  119   1.141   2.134   0.626 -2.5477 -1.8569 -1.3544
   40SOL    HW2  120   1.091   2.122   0.471 -1.7912 -0.5307  2.2275
   41SOL     OW  121   1.828   1.749   0.936  0.2413 -0.1219  0.0982
   41SOL    HW1  122   1.921   1.790   0.941  1.1935  0.8170  0.9822
   41SOL    HW2  123   1.807   1.698   0.854 -1.5932  0.7770  2.1735
   42SOL     OW  124   0.552   0.282   1.043 -0.1455 -0.2767  0.1277
   42SOL    HW1  125   0.573   0.300   1.142  1.5866 -0.6942  2.3985
   42SOL    HW2  126   0.627   0.315   0.978 -1.3485 -0.1178 -2.7506
   43SOL     OW  127   3.109   1.681   2.466  0.0002 -0.1304  0.3653
   43SOL    HW1  128   3.034   1.708   2.528 -1.7870 -0.5858  1.6819
   43SOL    HW2  129   3.087   1.589   2.423 -1.2863 -1.5193 -0.6150
   44SOL     OW  130   2.167   2.760   1.376 -0.3015 -0.0490 -0.6864
   44SOL    HW1  131   2.100   2.745   1.304  0.0010  2.3286  0.3630
   44SOL    HW2  132   2.137   2.724   1.468 -0.4730 -0.7652 -1.1066
   45SOL     OW  133   1.079   0.030   2.570 -0.6563 -0.3269 -0.4141
   45SOL    HW1  134   1.166   3.099   2.606  0.2984 -0.0612  0.5407
   45SOL    HW2  135   1.064   3.110   2.475 -0.1166 -0.3090  1.7617
   46SOL     OW  136   0.912   2.842   2.513  0.1039  0.7321  0.1145
   46SOL    HW1  137   0.858   2.878   2.437  0.6906  0.0445 -0.6531
   46SOL    HW2  138   0.862   2.760   2.559 -1.6472 -1.7324 -0.8112
   47SOL     OW  139   0.816   1.978   0.715  0.2863  0.2480  0.0757
   47SOL    HW1  140   0.822   1.993   0.816 -1.0525 -0.0893  0.7073
   47SOL    HW2  141   0.806   2.070   0.672 -0.1050 -0.3951 -1.3741
   48SOL     OW  142   1.298   2.690   1.109 -0.2056  0.3253  0.0689
   48SOL    HW1  143   1.344   2.596   1.104  4.0214 -1.2332  0.9084
   48SOL    HW2  144   1.336   2.747   1.186 -1.0438  1.2064  1.9287
   49SOL     OW  145   2.229   0.281   3.038 -0.3491  0.5090  0.6227
   49SOL    HW1  146   2.232   0.181   3.056 -1.7529  1.8260  2.6028
   49SOL    HW2  147   2.182   0.299   2.949 -0.1968 -2.0227  3.5178
   50SOL     OW  148   1.646   0.169   0.250  0.1562 -0.0181  0.0640
   50SOL    HW1  149   1.681   0.099   0.184  1.1863 -1.9604 -0.0988
   50SOL    HW2  150   1.617   0.254   0.193 -1.2515  2.4283 -4.4546
   51SOL     OW  151   2.345   0.670   1.226  0.0040 -0.5101 -0.5704
   51SOL    HW1  152   2.287   0.748   1.260  0.0966  0.4859 -0.0791
   51SOL    HW2  153   2.412   0.644   1.304  0.6344 -2.3212 -0.0048
   52SOL     OW  154   0.566   1.617   0.171  0.2646 -0.4397  0.2048
   52SOL    HW1  155   0.513   1.631   0.087  2.8885 -0.4809  1.8848
   52SOL    HW2  156   0.661   1.642   0.142 -3.5702  1.4266  0.8757
   53SOL     OW  157   0.197   1.444   2.810  0.3833  0.0321  0.0922
   53SOL    HW1  158   0.169   1.353   2.771 -0.8052 -0.2810  0.4842
   53SOL    HW2  159   0.297   1.443   2.837  0.8300 -0.0785  0.8134
   54SOL     OW  160   2.760   1.174   1.735  0.2177  0.3287 -0.0442
   54SOL    HW1  161   2.732   1.127   1.820 -2.6608  0.7419  0.8148
   54SOL    HW2  162   2.849   1.215   1.748 -2.3123 -0.5339  0.9387
   55SOL     OW  163   2.311   1.972   0.411 -0.6851 -0.0025  0.2220
   55SOL    HW1  164   2.410   1.998   0.407  0.0439  0.4603 -1.8277
   55SOL    HW2  165   2.308   1.874   0.439 -1.6637 -0.1429  2.1760
   56SOL     OW  166   1.945   0.007   1.560 -0.3705 -0.0323  0.1172
   56SOL    HW1  167   1.898   3.047   1.609  0.2421 -1.2345 -0.6389
   56SOL    HW2  168   1.966   3.097   1.463  0.2822  3.3082  1.4844
   57SOL     OW  169   1.502   1.281   2.863 -0.7766 -0.2628  0.1960
   57SOL    HW1  170   1.590   1.230   2.868  1.9466  1.0785 -1.7687
   57SOL    HW2  171   1.493   1.335   2.780 -1.7344  1.6302  2.0370
   58SOL     OW  172   0.316   0.442   1.384  0.2637  0.5591  0.0844
   58SOL    HW1  173   0.271   0.425   1.479 -1.8092 -1.1642  2.0883
   58SOL    HW2  174   0.255   0.422   1.310  1.8450 -0.4193 -0.5033
   59SOL     OW  175   1.289   2.597   0.132  0.3215 -0.2262  0.0001
   59SOL    HW1  176   1.328   2.571   0.222 -2.3835 -0.4663 -1.8027
   59SOL    HW2  177   1.196   2.559   0.106 -1.0563  1.5161 -2.8497
   60SOL     OW  178   0.019   2.061   2.912  0.2471  0.5975  0.9866
   60SOL    HW1  179   0.113   2.029   2.935 -0.5355 -0.5941  1.5926
   60SOL    HW2  180   0.019   2.156   2.883  0.8010 -0.4902  0.7769
   61SOL     OW  181   0.870   2.561   1.115 -0.3690 -0.0328 -0.1781
   61SOL    HW1  182   0.795   2.609   1.162  0.8717  0.4463 -1.8942
   61SOL    HW2  183   0.930   2.631   1.067 -1.0812 -0.1152  0.7980
   62SOL     OW  184   1.724   1.866   2.647 -0.2028 -0.3053 -0.0266
   62SOL    HW1  185   1.676   1.801   2.713 -1.6751 -1.7503  1.7800
   62SOL    HW2  186   1.807   1.913   2.685  0.3198 -0.5165  1.9831
   63SOL     OW  187   2.055   1.896   0.303  0.3600 -0.0960  0.0929
   63SOL    HW1  188   2.011   1.945   0.225 -0.0040  2.2674 -1.0782
   63SOL    HW2  189   2.139   1.940   0.335 -2.0679  1.1473  1.6574
   64SOL     OW  190   2.162   1.180   0.199 -0.2585  0.3286  0.2812
   64SOL    HW1  191   2.172   1.279   0.188 -0.4669  1.4372 -1.9129
   64SOL    HW2  192   2.252   1.133   0.202  1.6625  0.9631  1.0333
   65SOL     OW  193   2.333   1.726   2.098  0.0898 -0.5317 -0.4070
   65SOL    HW1  194   2.264   1.671   2.149 -1.1062  0.5085 -0.2843
   65SOL    HW2  195   2.400   1.763   2.162 -2.7035 -0.7330  1.6219
   66SOL     OW  196   0.557   1.117   1.355  0.1044 -0.1810  0.1123
   66SOL    HW1  197   0.520   1.055   1.424  0.4173 -0.6072 -0.1019
   66SOL    HW2  198   0.488   1.148   1.286  2.7138 -4.5743 -1.3220
   67SOL     OW  199   2.086   0.052   2.645 -0.9960  0.6709  0.5418
   67SOL    HW1  200   2.006   0.060   2.581 -4.0257  1.9299 -1.1493
   67SOL    HW2  201   2.175   0.051   2.599 -1.2313 -1.0791  2.0478
   68SOL     OW  202   1.444   2.010   1.475 -0.2750 -0.4361 -0.0967
   68SOL    HW1  203   1.391   2.055   1.400 -2.9478  1.2973 -1.0920
   68SOL    HW2  204   1.494   2.084   1.529 -0.7285  0.8641 -1.3244
   69SOL     OW  205   0.436   2.585   0.102  0.9709  0.0142  0.0159
   69SOL    HW1  206   0.400   2.490   0.088 -1.7589  3.6478 -1.1255
   69SOL    HW2  207   0.531   2.583   0.062  0.1898  0.8955 -0.8910
   70SOL     OW  208   0.259   0.789   2.232 -0.4400  0.1355  0.3107
   70SOL    HW1  209   0.170   0.771   2.183 -0.2505 -2.7437 -2.3436
   70SOL    HW2  210   0.319   0.844   2.171  0.6710  1.5035  0.6972
   71SOL     OW  211   0.928   1.270   2.745  0.4480 -0.2233 -0.5156
   71SOL    HW1  212   0.920   1.291   2.840 -1.0212 -2.9899 -3.0787
   71SOL    HW2  213   0.998   1.199   2.724 -0.7534 -0.3495  3.4636
   72SOL     OW  214   3.031   1.726   2.176 -0.2867  0.1647  0.5426
   72SOL    HW1  215   3.073   1.728   2.268 -2.4593  2.6040  1.2428
   72SOL    HW2  216   3.003   1.823   2.157 -3.8686  0.9543 -0.8040
   73SOL     OW  217   1.420   1.594   0.332 -0.3150 -0.6024 -0.0745
   73SOL    HW1  218   1.420   1.691   0.362  1.9072  0.6810 -0.2476
   73SOL    HW2  219   1.359   1.587   0.247 -0.6394 -1.1321 -3.1402
   74SOL     OW  220   2.376   3.071   2.793 -0.2009  0.0526 -0.0106
   74SOL    HW1  221   2.392   0.051   2.830  2.9522 -1.7429 -0.6515
   74SOL    HW2  222   2.336   3.073   2.701  1.4818  1.1507  0.9612
   75SOL     OW  223   1.658   1.908   1.120  0.8633  0.3967  0.2485
   75SOL    HW1  224   1.594   1.973   1.074 -1.3250 -2.5392  1.5206
   75SOL    HW2  225   1.713   1.854   1.052  0.1474 -0.1886 -1.8127
   76SOL     OW  226   0.086   1.939   1.798 -0.9560 -0.3032  0.8704
   76SOL    HW1  227   0.015   1.883   1.757  2.2641  0.4367 -2.5619
   76SOL    HW2  228   0.126   2.002   1.724  1.1736  1.7516 -5.2926
   77SOL     OW  229   0.148   2.987   1.860 -0.0809 -0.7972  0.4140
   77SOL    HW1  230   0.151   2.930   1.776  0.2374 -0.4140  0.5810
   77SOL    HW2  231   0.202   3.077   1.845  2.1562  2.7675  0.0607
   78SOL     OW  232   2.400   1.021   0.160 -0.4114  0.5455 -0.1514
   78SOL    HW1  233   2.438   1.050   0.069 -0.9806 -3.2414 -0.1028
   78SOL    HW2  234   2.472   0.998   0.230  2.5899  1.2339  2.0158
   79SOL     OW  235   3.047   1.359   2.457 -0.0203 -0.0720 -0.3182
   79SOL    HW1  236   3.000   1.355   2.546  1.0520  1.4062 -1.2600
   79SOL    HW2  237   3.073   1.264   2.429  0.3822 -1.7508  2.2110
   80SOL     OW  238   1.735   1.395   1.524  0.4939  0.2909  0.3967
   80SOL    HW1  239   1.819   1.363   1.573 -0.0327 -2.5715  0.1768
   80SOL    HW2  240   1.737   1.489   1.492 -0.7860  0.5788  0.0939
   81SOL     OW  241   2.194   1.061   1.967  0.3531  0.0171  0.2425
   81SOL    HW1  242   2.100   1.038   1.951  0.3763  0.1030 -0.8668
   81SOL    HW2  243   2.235   1.116   1.890  4.5659 -0.7498 -2.4236
   82SOL     OW  244   1.608   1.697   1.817 -0.1534  0.0030 -0.3354
   82SOL    HW1  245   1.709   1.696   1.800 -1.7739 -1.3454 -0.2422
   82SOL    HW2  246   1.564   1.611   1.783  0.4647  0.7028 -0.0927
   83SOL     OW  247   0.217   0.401   0.321 -0.0119 -0.2715  0.3300
   83SOL    HW1  248   0.286   0.336   0.287 -1.6887 -2.4713 -2.6241
   83SOL    HW2  249   0.164   0.361   0.395  1.1795  1.2518  1.4217
   84SOL     OW  250   0.088   0.866   0.011 -1.0352 -0.3251 -0.3969
   84SOL    HW1  251   0.036   0.943   0.047  1.1802  0.4582  0.9161
   84SOL    HW2  252   0.189   0.891   0.023  0.1005 -0.8580  1.9100
   85SOL     OW  253   2.439   2.311   1.055 -0.1067 -0.2589 -0.1184
   85SOL    HW1  254   2.417   2.255   0.971 -3.7217 -1.2851 -0.3643
   85SOL    HW2  255   2.535   2.296   1.090 -0.4413 -0.5528  2.1207
   86SOL     OW  256   0.595   2.975   1.420 -0.3251 -0.3363  0.4377
   86SOL    HW1  257   0.692   3.000   1.432  2.3825 -3.4456 -0.4804
   86SOL    HW2  258   0.551   3.043   1.355  1.7004  0.0495 -0.2739
   87SOL     OW  259   0.516   2.598   2.091 -0.1222 -0.0161  0.3260
   87SOL    HW1  260   0.609   2.566   2.069 -0.2632  0.7201 -0.8071
   87SOL    HW2  261   0.470   2.531   2.152  1.5205  0.1511  0.8150
   88SOL     OW  262   0.353   2.060   0.089  0.2055  0.1859  0.0325
   88SOL    HW1  263   0.307   2.017   0.165  0.6134  1.7681 -3.4518
   88SOL    HW2  264   0.324   2.022   3.112  0.1886  1.8952  0.8591
   89SOL     OW  265   0.917   0.871   0.695 -0.8216  0.0079 -0.0413
   89SOL    HW1  266   0.832   0.916   0.659  0.5267 -2.1194 -0.1702
   89SOL    HW2  267   0.969   0.820   0.620  1.1986  0.1943 -2.2407
   90SOL     OW  268   0.212   1.391   2.167 -0.4104 -0.1035  0.6529
   90SOL    HW1  269   0.239   1.466   2.106  0.9626 -2.3201  0.7024
   90SOL    HW2  270   0.119   1.355   2.144 -1.1337 -2.5308 -0.2625
   91SOL     OW  271   1.912   1.032   0.729  0.1352 -0.6354  0.2162
   91SOL    HW1  272   1.916   1.116   0.786 -0.5014 -0.0721 -0.1846
   91SOL    HW2  273   1.816   1.003   0.749 -0.3535 -1.0144  1.4265
   92SOL     OW  274   2.185   1.251   0.793  0.2637 -0.0366  0.2797
   92SOL    HW1  275   2.085   1.253   0.817  1.7654  0.5955 -1.4339
   92SOL    HW2  276   2.217   1.157   0.776  0.5132  0.3750 -0.5545
   93SOL     OW  277   2.731   0.632   2.320  0.1621  0.0501 -0.0756
   93SOL    HW1  278   2.630   0.618   2.321  2.2555  2.6795 -1.3583
   93SOL    HW2  279   2.783   0.572   2.387 -2.0560  0.9630 -1.8742
   94SOL     OW  280   2.162   2.155   2.807 -0.3818  0.1151  0.6204
   94SOL    HW1  281   2.148   2.249   2.766  1.1364  1.5905  1.0461
   94SOL    HW2  282   2.242   2.156   2.869  0.5471  2.7171  0.6991
   95SOL     OW  283   3.064   0.115   1.141 -0.3587  0.3464  0.3223
   95SOL    HW1  284   0.017   0.152   1.076 -1.4039 -3.0842 -0.1305
   95SOL    HW2  285   3.053   0.017   1.132 -1.5799  2.1374  1.6879
   96SOL     OW  286   2.848   2.659   1.564  0.1692  0.5819  0.0018
   96SOL    HW1  287   2.862   2.589   1.633  0.1546 -0.8806 -1.8305
   96SOL    HW2  288   2.772   2.720   1.587  0.0831 -0.3188  0.2977
   97SOL     OW  289   2.652   0.987   1.532  0.5398  0.0650  0.0566
   97SOL    HW1  290   2.673   0.901   1.583  1.0374  0.8512 -2.3274
   97SOL    HW2  291   2.639   1.071   1.593 -1.5738  5.8193  2.2474
   98SOL     OW  292   1.717   2.451   1.798  0.2582  0.1935 -0.7589
   98SOL    HW1  293   1.673   2.366   1.829 -1.6311 -2.0686 -1.2858
   98SOL    HW2  294   1.674   2.488   1.713 -1.1714  1.6564 -0.4534
   99SOL     OW  295   0.402   2.746   1.518  0.2619 -0.5444  0.1894
   99SOL    HW1  296   0.431   2.706   1.603 -2.0120 -0.2456 -0.6691
   99SOL    HW2  297   0.474   2.813   1.483 -1.2569  0.0430  1.2319
  100SOL     OW  298   1.568   0.466   2.431  0.4656  0.1058 -0.4373
  100SOL    HW1  299   1.633   0.513   2.370 -0.5776 -2.0388  0.7457
  100SOL    HW2  300   1.607   0.428   2.517 -0.4740  1.2743 -0.9090
  101SOL     OW  301   2.346   0.350   2.728  0.1725 -0.1781 -0.3909
  101SOL    HW1  302   2.248   0.323   2.751 -0.2587 -1.8525  2.2573
  101SOL    HW2  303   2.356   0.392   2.634  0.3467  0.2479 -0.3041
  102SOL     OW  304   0.476   0.697   1.316  0.6531  0.0665  0.2973
  102SOL    HW1  305   0.417   0.622   1.359  0.8430  0.3273 -0.9846
  102SOL    HW2  306   0.567   0.706   1.362  0.7877 -0.5227  0.8144
  103SOL     OW  307   0.967   0.836   2.601  0.3207  0.0970  0.4160
  103SOL    HW1  308   0.916   0.756   2.562  1.1297  0.7547 -0.5488
  103SOL    HW2  309   1.044   0.804   2.666  1.2215  1.0050  2.8809
  104SOL     OW  310   0.026   0.685   2.455  0.1165  0.2307 -0.5497
  104SOL    HW1  311   3.108   0.631   2.535  0.6282 -0.4062 -2.1526
  104SOL    HW2  312   0.115   0.646   2.422  2.7863 -1.8103 -0.0566
  105SOL     OW  313   2.267   1.943   1.518  0.0965  0.2731  0.0740
  105SOL    HW1  314   2.263   2.026   1.570  0.5717  0.1800 -1.4795
  105SOL    HW2  315   2.214   1.954   1.432 -1.4951  2.2266  0.0487
  106SOL     OW  316   1.696   0.013   0.532  0.4600 -0.2746  0.1620
  106SOL    HW1  317   1.703   0.115   0.545  3.1232  4.6179  0.6878
  106SOL    HW2  318   1.769   3.095   0.465  0.6233  1.3611 -1.5492
  107SOL     OW  319   2.083   2.233   1.172 -0.4551 -0.4226 -0.2938
  107SOL    HW1  320   2.035   2.160   1.231 -0.8222  2.6828  1.0751
  107SOL    HW2  321   2.129   2.293   1.242 -1.2073  0.6877 -0.1626
  108SOL     OW  322   3.111   2.585   1.473  0.5364  0.1306 -0.2235
  108SOL    HW1  323   3.068   2.505   1.429  0.5168  1.3894  0.4847
  108SOL    HW2  324   3.036   2.644   1.517 -1.3180  0.3325 -1.0776
  109SOL     OW  325   2.025   2.277   0.920 -0.2158 -0.2892  0.1622
  109SOL    HW1  326   2.107   2.268   0.862 -1.3563 -1.9400 -0.0093
  109SOL    HW2  327   2.057   2.271   1.017 -0.9023  2.8407 -2.4642
  110SOL     OW  328   1.134   1.801   2.049  0.2535  0.0432 -0.3717
  110SOL    HW1  329   1.053   1.788   2.110 -1.5817 -2.8956 -0.1968
  110SOL    HW2  330   1.106   1.783   1.950  0.4882  1.6100 -1.1421
  111SOL     OW  331   1.611   2.228   2.101 -0.2484 -0.0600 -0.6950
  111SOL    HW1  332   1.621   2.201   2.006 -1.3319 -0.2134  0.4005
  111SOL    HW2  333   1.543   2.307   2.104 -0.5158  1.0062 -0.2692
  112SOL     OW  334   1.483   1.965   2.584  0.0746  0.3109  0.0819
  112SOL    HW1  335   1.504   2.038   2.524 -3.3358 -0.7448  1.0194
  112SOL    HW2  336   1.560   1.909   2.625  0.7589  0.0811  0.4364
  113SOL     OW  337   1.812   1.985   1.817  0.0449 -0.2779 -0.2180
  113SOL    HW1  338   1.730   2.048   1.817 -2.9441 -1.4551 -1.2507
  113SOL    HW2  339   1.806   1.919   1.894 -0.4211 -1.2327 -2.5015
  114SOL     OW  340   3.075   1.135   1.389  0.6448  0.3212 -0.3509
  114SOL    HW1  341   0.002   1.176   1.306  0.7250 -2.5732  0.6457
  114SOL    HW2  342   0.008   1.053   1.412 -2.3199  1.7676  0.1603
  115SOL     OW  343   0.858   0.678   3.108  0.1361 -0.5218 -0.0016
  115SOL    HW1  344   0.882   0.581   0.006 -1.1241 -1.0037 -0.3137
  115SOL    HW2  345   0.906   0.748   0.052 -2.7055 -1.0861  0.7477
  116SOL     OW  346   2.813   2.189   2.334 -0.3010 -0.2151  0.3806
  116SOL    HW1  347   2.835   2.130   2.253 -1.4213  0.7970 -0.2169
  116SOL    HW2  348   2.768   2.130   2.406  0.4749 -1.5402 -0.2686
  117SOL     OW  349   0.003   2.570   0.679  0.1834  0.1706 -0.2193
  117SOL    HW1  350   0.055   2.533   0.602  1.4993  1.4445  0.4867
  117SOL    HW2  351   0.059   2.577   0.765 -0.4915  0.1091 -1.3647
  118SOL     OW  352   0.787   1.886   2.833 -0.7335  0.4720 -0.5850
  118SOL    HW1  353   0.758   1.976   2.859 -0.2215 -1.0049 -0.3796
  118SOL    HW2  354   0.794   1.888   2.731 -0.7319 -2.0609  1.4996
  119SOL     OW  355   0.513   1.946   0.500 -0.3788  0.3781  0.3539
  119SOL    HW1  356   0.458   1.924   0.585  1.0114  0.3414  0.2369
  119SOL    HW2  357   0.519   2.046   0.482  0.7811  1.4620 -0.1615
  120SOL     OW  358   1.274   0.693   0.139  0.5214 -0.7295  0.4710
  120SOL    HW1  359   1.350   0.680   0.203 -1.4601  0.3244 -3.0700
  120SOL    HW2  360   1.199   0.625   0.149 -0.5647  1.1458  1.4030
  121SOL     OW  361   1.446   2.367   0.703  0.1030  0.0127  0.2866
  121SOL    HW1  362   1.454   2.282   0.755  0.0940  0.6392  0.5285
  121SOL    HW2  363   1.439   2.339   0.602  0.8253 -2.5498  0.1197
  122SOL     OW  364   0.017   2.406   1.879  0.0883  0.1841 -0.1733
  122SOL    HW1  365   0.037   2.304   1.872  1.4984 -4.8083  0.1121
  122SOL    HW2  366   0.100   2.464   1.868  1.1576 -0.4000  2.9219
  123SOL     OW  367   0.687   1.717   0.789  0.2783  0.1162 -0.4388
  123SOL    HW1  368   0.741   1.800   0.767 -3.1579  0.1817 -2.1894
  123SOL    HW2  369   0.596   1.744   0.821  2.4768 -0.3983 -1.6800
  124SOL     OW  370   0.049   0.960   0.388 -0.3267  0.0570 -0.0821
  124SOL    HW1  371   0.023   0.862   0.384 -2.0395  0.9168  1.7870
  124SOL    HW2  372   0.014   1.005   0.304 -0.4064  1.2287 -1.4600
  125SOL     OW  373   0.060   0.688   2.896  0.1745  0.2389 -0.0766
  125SOL    HW1  374   0.070   0.766   2.962  0.7865  2.1755  1.8095
  125SOL    HW2  375   0.024   0.602   2.940 -1.9377  0.7429 -0.3792
  126SOL     OW  376   0.121   1.781   0.581 -0.2836  0.0467  0.0278
  126SOL    HW1  377   0.030   1.781   0.542  2.6638  1.9556  0.3912
  126SOL    HW2  378   0.111   1.795   0.681  0.1308 -1.5943  0.3616
  127SOL     OW  379   1.347   2.489   1.867 -0.4620  0.4968  0.2864
  127SOL    HW1  380   1.245   2.501   1.875 -1.6702  0.7113  2.3334
  127SOL    HW2  381   1.384   2.468   1.959 -0.0665  1.4159  0.9574
  128SOL     OW  382   1.259   1.347   3.110  0.1462 -0.0731  0.1903
  128SOL    HW1  383   1.239   1.386   3.023 -1.3237 -1.1256  1.4288
  128SOL    HW2  384   1.360   1.345   0.008 -1.3235 -0.8783 -3.5692
  129SOL     OW  385   1.867   1.893   1.553 -0.4607 -0.0048  0.0815
  129SOL    HW1  386   1.839   1.932   1.468  0.6440 -0.1010  1.4048
  129SOL    HW2  387   1.823   1.930   1.638 -1.4593  0.8953 -1.0732
  130SOL     OW  388   2.087   1.774   1.641  0.0019 -0.3091 -0.0104
  130SOL    HW1  389   2.166   1.832   1.617  0.6634  1.2386  7.2275
  130SOL    HW2  390   2.005   1.821   1.604 -1.3561  1.1603  0.8763
  131SOL     OW  391   2.828   3.024   2.890  0.2611  0.5888  0.1476
  131SOL    HW1  392   2.778   3.095   2.838  0.4637  3.1872  1.4411
  131SOL    HW2  393   2.838   2.936   2.839 -1.4262 -1.6083  1.4020
  132SOL     OW  394   2.579   2.095   0.735 -0.3183  0.0478  0.1251
  132SOL    HW1  395   2.608   2.065   0.643 -3.9183  2.0382  0.7854
  132SOL    HW2  396   2.549   2.192   0.733  0.4138 -1.2020 -1.0167
  133SOL     OW  397   0.658   0.200   2.525  0.0249 -0.2476 -0.0205
  133SOL    HW1  398   0.571   0.233   2.564  2.3401 -0.4598  0.3086
  133SOL    HW2  399   0.654   0.187   2.425  0.4711 -1.8910 -1.8301
  134SOL     OW  400   2.927   2.097   0.041 -0.0270  0.4107 -0.8580
  134SOL    HW1  401   2.976   2.008   0.031  0.0222 -0.6303 -0.1889
  134SOL    HW2  402   2.915   2.111   0.138  1.7987  0.2773  1.0241
  135SOL     OW  403   1.334   1.035   2.300  0.5190  0.5953  0.1784
  135SOL    HW1  404   1.248   1.085   2.302  0.9494 -2.2015  1.3016
  135SOL    HW2  405   1.380   1.051   2.208  0.1274  0.7967  0.4273
  136SOL     OW  406   2.481   1.678   0.721 -0.1192  0.4301 -0.0867
  136SOL    HW1  407   2.580   1.688   0.707 -1.0113 -0.9697 -0.7226
  136SOL    HW2  408   2.448   1.592   0.763  1.2203  0.9488 -2.1765
  137SOL     OW  409   2.752   1.603   0.706  0.0058  0.0764  0.8698
  137SOL    HW1  410   2.717   1.520   0.752  2.3105 -1.2952  2.7940
  137SOL    HW2  411   2.814   1.650   0.778  3.8857  0.9782  3.0323
  138SOL     OW  412   2.922   0.537   1.132 -0.5460  0.2561 -0.0008
  138SOL    HW1  413   2.896   0.626   1.172 -1.8831 -1.2695  0.6747
  138SOL    HW2  414   2.923   0.547   1.030 -2.8811  0.1634  0.6227
  139SOL     OW  415   0.181   2.508   3.044 -0.3538  0.0182 -0.2861
  139SOL    HW1  416   0.250   2.444   3.083 -1.0614 -0.9446  0.1199
  139SOL    HW2  417   0.200   2.533   2.947 -0.6341 -3.0594  1.4901
  140SOL     OW  418   0.715   1.834   1.456  0.2788 -0.0795  0.6699
  140SOL    HW1  419   0.726   1.867   1.549 -1.1369  0.9087 -0.8454
  140SOL    HW2  420   0.806   1.840   1.406  3.3416 -0.1388 -0.6577
  141SOL     OW  421   1.103   2.126   0.791 -0.3460 -0.1565  0.3060
  141SOL    HW1  422   1.080   2.029   0.817 -1.6870  2.0896 -0.8240
  141SOL    HW2  423   1.035   2.200   0.812 -0.1606  0.2069 -2.1682
  142SOL     OW  424   1.121   0.555   0.990 -0.7140  0.1516 -0.1029
  142SOL    HW1  425   1.024   0.566   0.972 -0.4496  0.6716  0.6373
  142SOL    HW2  426   1.152   0.626   1.059 -0.3705 -3.3159  2.5668
  143SOL     OW  427   0.816   0.972   2.812 -0.0603  0.0330  0.4647
  143SOL    HW1  428   0.835   1.034   2.888 -0.1829  0.0150  3.0769
  143SOL    HW2  429   0.901   0.933   2.777 -0.6045 -0.2995 -1.2935
  144SOL     OW  430   1.927   2.496   0.783  0.3143  0.0664 -0.0138
  144SOL    HW1  431   1.822   2.482   0.770 -1.8205 -1.2101 -2.3899
  144SOL    HW2  432   1.971   2.408   0.814  0.2253 -2.0362  0.0660
  145SOL     OW  433   1.964   0.935   2.913  0.7774 -0.3708 -0.6511
  145SOL    HW1  434   1.947   0.964   2.821  1.3654 -1.0380  3.7726
  145SOL    HW2  435   1.992   0.843   2.929 -1.9911  1.7575  2.7302
  146SOL     OW  436   2.996   2.830   0.770 -0.1135 -0.2286 -0.2226
  146SOL    HW1  437   3.002   2.818   0.870  2.1397 -0.8175 -0.0894
  146SOL    HW2  438   3.040   2.747   0.727  0.4350 -3.6969 -0.4601
  147SOL     OW  439   1.179   0.966   1.970  0.0313 -0.4414  0.6458
  147SOL    HW1  440   1.212   1.061   1.942  0.2848 -0.3626 -0.7953
  147SOL    HW2  441   1.184   0.898   1.895 -3.2177 -0.8756  1.7216
  148SOL     OW  442   1.213   0.612   1.990  0.0968 -0.2238  0.1657
  148SOL    HW1  443   1.279   0.638   2.065  1.7805  0.2746 -2.3676
  148SOL    HW2  444   1.115   0.616   2.019  1.0801 -1.8973 -0.2281
  149SOL     OW  445   1.659   0.231   2.127  0.2887  0.3083  0.0565
  149SOL    HW1  446   1.665   0.313   2.063 -1.6948 -0.0663  0.5378
  149SOL    HW2  447   1.590   0.161   2.083 -2.9704 -4.5337 -1.6611
  150SOL     OW  448   2.496   3.096   0.120 -0.1861  0.2648 -0.1631
  150SOL    HW1  449   2.553   3.033   0.066 -2.6178 -1.0691  2.1376
  150SOL    HW2  450   2.548   0.066   0.145  2.0982  1.4428  1.3361
  151SOL     OW  451   0.455   1.381   2.925  0.2213  0.2559  0.0993
  151SOL    HW1  452   0.440   1.281   2.943 -2.8393 -2.6700 -0.6439
  151SOL    HW2  453   0.553   1.402   2.910  0.0441  1.3161 -1.3121
  152SOL     OW  454   0.085   0.207   0.924  0.0674  0.0851  0.1328
  152SOL    HW1  455   0.093   0.140   0.848  2.8195 -1.3553 -0.9463
  152SOL    HW2  456   0.168   0.273   0.931  1.4975 -0.3700  0.3858
  153SOL     OW  457   2.581   0.315   1.549 -0.1408 -0.2649  0.3959
  153SOL    HW1  458   2.592   0.328   1.647  1.6314 -0.5101 -3.0832
  153SOL    HW2  459   2.539   0.226   1.524 -0.3964 -2.9957 -1.9756
  154SOL     OW  460   1.619   0.492   2.038  0.2257 -0.0203  0.6439
  154SOL    HW1  461   1.646   0.566   2.102 -0.5359 -2.6746  0.7981
  154SOL    HW2  462   1.526   0.461   2.057 -1.0747  1.9418  0.6468
  155SOL     OW  463   2.974   1.731   0.218  0.1274 -0.6211 -0.0268
  155SOL    HW1  464   3.044   1.768   0.157  0.4700  0.1755  0.1435
  155SOL    HW2  465   3.008   1.745   0.312 -1.4828 -1.7136 -1.0126
  156SOL     OW  466   2.839   1.715   2.999 -0.0772  0.2446 -0.4868
  156SOL    HW1  467   2.939   1.726   3.029  1.3573  0.2737  1.1676
  156SOL    HW2  468   2.792   1.664   3.073  1.0148  0.6060  0.0059
  157SOL     OW  469   0.847   0.151   0.707 -0.0694 -0.1883 -0.1909
  157SOL    HW1  470   0.787   0.066   0.719 -2.9210 -1.6534  1.1258
  157SOL    HW2  471   0.845   0.182   0.610 -2.3296 -0.4133 -1.0597
  158SOL     OW  472   2.297   0.698   1.567 -0.2706 -0.9372  0.1489
  158SOL    HW1  473   2.269   0.611   1.611  0.5939  1.5362  0.7164
  158SOL    HW2  474   2.370   0.681   1.499  0.7068 -0.6329 -0.8893
  159SOL     OW  475   3.080   0.447   0.461 -0.0703  0.5519 -0.3909
  159SOL    HW1  476   3.038   0.395   0.540 -1.4917  0.3747 -0.5153
  159SOL    HW2  477   3.056   0.396   0.374 -0.9392  0.1212 -3.1076
  160SOL     OW  478   2.062   2.127   1.894 -0.3192 -0.0309 -0.0837
  160SOL    HW1  479   2.061   2.202   1.964 -0.1905 -2.0701  1.3612
  160SOL    HW2  480   1.970   2.090   1.877 -0.5694  0.7101 -0.3510
  161SOL     OW  481   2.860   0.493   2.490 -0.6333 -0.0335  0.1664
  161SOL    HW1  482   2.901   0.573   2.538  2.0180 -0.2772 -0.6375
  161SOL    HW2  483   2.928   0.425   2.463 -1.3773  1.1499 -1.8854
  162SOL     OW  484   1.089   2.571   1.438 -0.2289  0.0315 -0.5867
  162SOL    HW1  485   1.094   2.479   1.399 -0.0848  0.4986  0.3197
  162SOL    HW2  486   1.182   2.617   1.440  0.7947  0.3446  1.3384
  163SOL     OW  487   2.555   0.107   2.482 -0.1690 -0.1111  0.1614
  163SOL    HW1  488   2.621   0.039   2.443  1.4328 -1.3316 -0.6464
  163SOL    HW2  489   2.592   0.201   2.467 -0.7355 -0.5988  1.9904
  164SOL     OW  490   2.140   1.786   0.035  0.1655  0.2144  0.5817
  164SOL    HW1  491   2.132   1.784   0.136  1.0823 -1.0295  0.1245
  164SOL    HW2  492   2.178   1.700   3.110 -0.1582  1.9931  0.5026
  165SOL     OW  493   0.110   0.526   1.149 -0.2823  0.0142 -0.1656
  165SOL    HW1  494   0.164   0.472   1.080  0.6917 -0.2831 -0.7559
  165SOL    HW2  495   0.010   0.498   1.155 -2.8885  1.4815 -1.2288
  166SOL     OW  496   2.388   0.775   0.487  0.0692  0.2845 -0.7008
  166SOL    HW1  497   2.482   0.763   0.519 -4.5804  2.0104  2.4194
  166SOL    HW2  498   2.362   0.870   0.467 -1.9750 -1.1999  0.4622
  167SOL     OW  499   2.690   0.865   3.051 -0.6144 -0.0532 -0.1217
  167SOL    HW1  500   2.596   0.834   3.050  1.5238 -1.8412 -0.3802
  167SOL    HW2  501   2.711   0.948   3.104 -0.5183 -4.4121  0.1581
  168SOL     OW  502   1.684   0.157   2.853 -0.1487  0.2328  0.1673
  168SOL    HW1  503   1.769   0.171   2.904 -1.9987  1.9947 -2.2101
  168SOL    HW2  504   1.692   0.073   2.799  1.8442 -0.2369 -1.6566
  169SOL     OW  505   0.276   1.571   0.922 -0.1124 -0.3200 -0.0034
  169SOL    HW1  506   0.181   1.602   0.915 -0.6518  1.1187 -0.4798
  169SOL    HW2  507   0.283   1.492   0.861 -1.8138 -0.2210  2.3568
  170SOL     OW  508   0.082   0.782   1.158 -0.5567 -0.5918 -0.0811
  170SOL    HW1  509   0.178   0.821   1.156  2.1732 -0.0081  0.2440
  170SOL    HW2  510   0.088   0.679   1.159 -2.2507 -0.3511 -3.9178
  171SOL     OW  511   2.498   2.079   2.046  0.5570 -0.3907  0.4841
  171SOL    HW1  512   2.582   2.039   2.012 -1.7274  2.9253  1.0428
  171SOL    HW2  513   2.416   2.052   1.992 -0.5348  0.7178  1.0088
  172SOL     OW  514   0.313   2.338   1.394  0.1300 -0.5199 -0.3420
  172SOL    HW1  515   0.238   2.305   1.334 -1.1278  0.3864  1.1240
  172SOL    HW2  516   0.373   2.400   1.337  1.0544  3.1573  0.0799
  173SOL     OW  517   1.563   1.421   3.092  0.0916  0.4427  0.1874
  173SOL    HW1  518   1.533   1.342   3.026  0.1669 -4.4426 -2.4413
  173SOL    HW2  519   1.632   1.488   3.054 -0.4587  1.8485  0.6003
  174SOL     OW  520   1.481   0.603   2.798 -0.1174 -0.2363  0.2436
  174SOL    HW1  521   1.540   0.686   2.768  0.7471  2.6320  0.2529
  174SOL    HW2  522   1.451   0.617   2.894 -1.4635  1.6868 -0.1620
  175SOL     OW  523   1.323   1.571   1.143 -0.2883 -0.5193 -0.3276
  175SOL    HW1  524   1.314   1.568   1.245  0.5700 -0.0245  4.4031
  175SOL    HW2  525   1.231   1.547   1.101 -2.4488  0.7916  1.2643
  176SOL     OW  526   1.492   3.028   0.267  0.1878 -0.5152  0.1757
  176SOL    HW1  527   1.426   3.058   0.193  0.6967 -0.9420 -0.3604
  176SOL    HW2  528   1.554   3.102   0.299 -5.2123  0.6345 -1.9607
  177SOL     OW  529   0.472   0.811   3.077 -0.2019  0.5071 -0.2588
  177SOL    HW1  530   0.397   0.860   0.012 -0.0219  0.7960  1.0089
  177SOL    HW2  531   0.560   0.867   3.076  2.5715  0.4586 -1.2871
  178SOL     OW  532   2.234   2.441   2.180  0.4994  0.0405 -0.1192
  178SOL    HW1  533   2.260   2.498   2.259 -0.2583 -1.7633  0.1517
  178SOL    HW2  534   2.297   2.448   2.100 -2.6725 -0.9854 -0.5181
  179SOL     OW  535   2.937   0.052   2.559  0.0164 -0.0774  0.1268
  179SOL    HW1  536   2.867   0.078   2.636 -1.2921  0.1988  2.4870
  179SOL    HW2  537   2.894   3.111   2.491 -0.5973 -0.9525 -0.1709
  180SOL     OW  538   2.063   0.637   0.765 -0.0839 -0.3125  0.0861
  180SOL    HW1  539   2.129   0.560   0.764  0.9282 -0.1507  2.1716
  180SOL    HW2  540   2.114   0.715   0.810 -1.3194 -0.0797 -2.5725
  181SOL     OW  541   2.179   1.239   2.436 -0.2534 -0.1394 -0.4010
  181SOL    HW1  542   2.226   1.197   2.516 -2.2945 -1.4441 -0.2811
  181SOL    HW2  543   2.114   1.170   2.395 -1.2731  1.5912  0.3848
  182SOL     OW  544   2.689   2.402   2.166  0.1227 -0.1087 -0.3642
  182SOL    HW1  545   2.781   2.442   2.128  3.3675 -0.2892  2.5734
  182SOL    HW2  546   2.712   2.330   2.235 -1.5710  0.3984  1.9705
  183SOL     OW  547   2.017   0.748   1.695 -0.0864 -0.7321  0.1638
  183SOL    HW1  548   1.971   0.663   1.703 -1.7963  2.2539 -2.9434
  183SOL    HW2  549   1.991   0.809   1.772 -1.9912 -1.6999 -0.8324
  184SOL     OW  550   0.117   1.680   1.165  0.4611  0.0969 -0.4326
  184SOL    HW1  551   0.063   1.609   1.110 -0.8377  0.4650 -0.3811
  184SOL    HW2  552   0.156   1.628   1.243 -1.0314 -0.7054 -1.7689
  185SOL     OW  553   2.453   0.055   0.920  0.3091 -0.2789  0.5316
  185SOL    HW1  554   2.392   0.101   0.850 -0.1306 -2.9682 -0.3023
  185SOL    HW2  555   2.506   3.100   0.876  0.0432  0.8593  2.1528
  186SOL     OW  556   2.809   2.522   2.852 -0.1669 -0.4806 -0.5792
  186SOL    HW1  557   2.786   2.438   2.798  1.2660 -2.4701  0.8075
  186SOL    HW2  558   2.803   2.503   2.954 -0.8446  0.8791  0.4768
  187SOL     OW  559   3.049   1.517   0.413 -0.2405 -0.0229 -0.4540
  187SOL    HW1  560   3.103   1.478   0.490 -0.3105  1.0175 -1.5443
  187SOL    HW2  561   3.025   1.446   0.344  1.5449  1.5308  1.1355
  188SOL     OW  562   2.464   1.028   1.138  0.5126  0.8531  0.3648
  188SOL    HW1  563   2.383   1.089   1.126 -2.8305 -1.0426  0.0075
  188SOL    HW2  564   2.469   1.018   1.238 -0.5581 -0.2713 -2.7392
  189SOL     OW  565   3.024   0.294   2.409 -0.4613 -0.1090 -0.2364
  189SOL    HW1  566   3.036   0.199   2.446 -0.1152  1.5386  0.3629
  189SOL    HW2  567   3.112   0.342   2.415 -2.7150 -1.7777 -0.7203
  190SOL     OW  568   1.692   0.861   1.744  0.4483 -0.4346 -0.0674
  190SOL    HW1  569   1.645   0.813   1.669  3.3861  1.7846  2.9201
  190SOL    HW2  570   1.737   0.946   1.712  2.1643 -2.6318  3.5337
  191SOL     OW  571   1.008   0.397   2.032  0.0698  0.5645  0.2103
  191SOL    HW1  572   1.063   0.314   2.035 -3.7799 -0.0507 -0.9232
  191SOL    HW2  573   1.041   0.459   2.103 -0.6704  0.7871 -1.8923
  192SOL     OW  574   1.305   2.109   1.843  0.1036 -0.4275 -0.4246
  192SOL    HW1  575   1.330   2.089   1.939 -3.1517 -0.8245  1.6536
  192SOL    HW2  576   1.281   2.026   1.787 -0.0928  2.0637  1.2318
  193SOL     OW  577   1.461   0.216   0.845  0.3564  0.0246  0.2487
  193SOL    HW1  578   1.373   0.231   0.900 -0.7843  0.4039  0.0646
  193SOL    HW2  579   1.546   0.219   0.908 -0.7700 -0.5520 -0.6124
  194SOL     OW  580   0.948   2.139   1.338 -0.1495  0.1428  0.1623
  194SOL    HW1  581   0.994   2.231   1.330  1.1448 -2.0930  2.0747
  194SOL    HW2  582   0.966   2.104   1.431  2.0131 -1.7682  1.2895
  195SOL     OW  583   1.497   0.613   0.297 -0.1392  0.0645  0.7609
  195SOL    HW1  584   1.579   0.658   0.330  1.0688  1.4383 -2.9032
  195SOL    HW2  585   1.522   0.532   0.241 -0.6628  0.6258  0.1078
  196SOL     OW  586   0.697   1.613   1.910 -0.1055  0.7119  0.1927
  196SOL    HW1  587   0.789   1.623   1.872 -0.2326 -0.6405  0.1066
  196SOL    HW2  588   0.628   1.649   1.841 -1.4525 -0.4636 -1.3615
  197SOL     OW  589   0.927   0.526   1.466 -0.1523 -0.2173  0.0762
  197SOL    HW1  590   0.874   0.471   1.400 -1.6179  2.1324 -2.6662
  197SOL    HW2  591   1.026   0.507   1.460 -2.6544  0.0466  2.6484
  198SOL     OW  592   0.858   1.107   0.985  0.1359  0.2020  0.0380
  198SOL    HW1  593   0.948   1.060   0.969  0.5061 -0.8307 -3.0429
  198SOL    HW2  594   0.846   1.109   1.086  0.7820 -1.4806 -2.0062
  199SOL     OW  595   0.176   2.424   1.599  0.1894 -0.6539  0.1268
  199SOL    HW1  596   0.110   2.496   1.569 -0.3278  0.9134  0.2717
  199SOL    HW2  597   0.244   2.413   1.523 -2.0743 -1.8277 -0.1978
  200SOL     OW  598   1.433   1.165   2.055  0.0454  0.0602  0.7168
  200SOL    HW1  599   1.435   1.262   2.088  2.9267  1.9846 -3.1134
  200SOL    HW2  600   1.378   1.163   1.969 -2.1531  1.8938 -2.9339
  201SOL     OW  601   0.775   1.973   2.297  0.7660  0.4754 -0.4025
  201SOL    HW1  602   0.846   2.039   2.275 -1.2926  0.8613 -0.0295
  201SOL    HW2  603   0.801   1.885   2.259  1.1375  2.7419 -0.1702
  202SOL     OW  604   1.183   0.044   0.294  0.0159  0.1835 -0.3000
  202SOL    HW1  605   1.160   3.064   0.328  1.0126  0.7046  1.5910
  202SOL    HW2  606   1.247   0.030   0.217 -0.6204 -0.6441  3.9643
  203SOL     OW  607   1.538   0.046   2.575 -0.3466 -0.2167 -0.1801
  203SOL    HW1  608   1.598   3.094   2.624  4.5291  0.6298 -0.4875
  203SOL    HW2  609   1.586   0.085   2.495 -0.4580 -0.5533  0.8847
  204SOL     OW  610   0.842   1.918   1.696 -0.4685  0.2451 -0.4360
  204SOL    HW1  611   0.933   1.876   1.708  1.9735  0.3840 -0.7315
  204SOL    HW2  612   0.813   1.962   1.784 -0.7518  1.4005 -0.4710
  205SOL     OW  613   1.646   1.495   2.300  0.4399  0.1918  0.1846
  205SOL    HW1  614   1.678   1.487   2.202  1.1818 -1.4318  1.3190
  205SOL    HW2  615   1.707   1.557   2.353 -0.1518 -1.4142 -2.1189
  206SOL     OW  616   0.221   1.779   2.395 -0.2156  0.1851 -0.4652
  206SOL    HW1  617   0.282   1.813   2.468  0.1296  0.1288 -1.1385
  206SOL    HW2  618   0.142   1.719   2.435 -0.6787 -0.9906  2.0527
  207SOL     OW  619   1.210   2.948   1.428  0.2746 -0.5507  0.7683
  207SOL    HW1  620   1.142   2.898   1.477  2.6850  0.2456  0.1985
  207SOL    HW2  621   1.249   3.028   1.478 -1.5360  0.1918 -0.3582
  208SOL     OW  622   0.504   2.591   1.789 -0.2239  0.4422  0.5329
  208SOL    HW1  623   0.545   2.599   1.880 -0.8598  2.7750 -1.1298
  208SOL    HW2  624   0.569   2.585   1.714 -0.6500 -0.1907 -1.3744
  209SOL     OW  625   1.480   2.718   0.539 -0.2523 -0.1675 -0.1902
  209SOL    HW1  626   1.437   2.680   0.626 -0.5725 -1.6651  1.0411
  209SOL    HW2  627   1.427   2.800   0.517 -0.3050  1.1587 -0.4414
  210SOL     OW  628   2.880   0.997   0.901  0.6758  0.2026 -0.1965
  210SOL    HW1  629   2.917   0.962   0.816 -0.7214 -0.7557 -0.0151
  210SOL    HW2  630   2.790   0.947   0.922 -0.8346  0.8049  1.0392
  211SOL     OW  631   0.572   0.308   1.991  0.6460  0.1487  0.4175
  211SOL    HW1  632   0.651   0.268   1.938  1.4648 -0.9208 -2.0352
  211SOL    HW2  633   0.494   0.335   1.927 -1.8134  0.9857  0.5618
  212SOL     OW  634   1.334   2.381   1.595  0.0409  0.1410 -0.1160
  212SOL    HW1  635   1.313   2.480   1.575 -1.8525  0.1102 -0.3368
  212SOL    HW2  636   1.350   2.369   1.696  2.6446 -0.2005  0.7154
  213SOL     OW  637   3.036   0.317   1.688  0.4406  0.3242  0.1420
  213SOL    HW1  638   3.082   0.266   1.614  0.5826  0.6389 -2.1804
  213SOL    HW2  639   2.967   0.381   1.651 -1.5238  2.2024  1.5938
  214SOL     OW  640   0.872   2.646   1.742 -0.1119 -0.2643 -0.2225
  214SOL    HW1  641   0.798   2.614   1.679  2.6070  1.9325  0.4812
  214SOL    HW2  642   0.835   2.732   1.782  0.4607  1.0108  0.7446
  215SOL     OW  643   2.407   1.608   1.356  0.3829  0.3005 -0.1608
  215SOL    HW1  644   2.348   1.582   1.434 -0.3560 -1.2428  0.4399
  215SOL    HW2  645   2.504   1.583   1.375 -0.2690  1.1249 -1.1845
  216SOL     OW  646   0.394   0.938   2.055  0.6245  0.8828 -0.6074
  216SOL    HW1  647   0.358   1.031   2.035  1.6509 -0.1153 -1.3848
  216SOL    HW2  648   0.440   0.903   1.971 -0.7270  1.0758  1.5658
  217SOL     OW  649   2.736   0.068   1.269 -0.4024 -0.4150  0.0271
  217SOL    HW1  650   2.827   0.079   1.234 -1.1333  1.4567 -1.1552
  217SOL    HW2  651   2.696   0.163   1.278 -1.2333  1.0825 -0.9241
  218SOL     OW  652   1.478   2.192   1.080  0.1005  0.0781 -0.9004
  218SOL    HW1  653   1.445   2.173   0.989 -0.6716  1.0813  1.9025
  218SOL    HW2  654   1.571   2.239   1.079 -0.8818  0.1801  1.5031
  219SOL     OW  655   1.789   2.787   0.432 -0.1488 -0.3406  0.2196
  219SOL    HW1  656   1.693   2.771   0.455  0.6628  2.1809  0.5823
  219SOL    HW2  657   1.802   2.828   0.338 -1.2559  1.2808 -2.0019
  220SOL     OW  658   1.727   2.535   0.245 -0.3208  0.2693 -0.0835
  220SOL    HW1  659   1.629   2.524   0.214  0.7554 -0.5705  0.8287
  220SOL    HW2  660   1.765   2.629   0.215  2.2534 -3.7633  0.3327
  221SOL     OW  661   2.668   2.003   0.980 -0.2083  0.0638 -0.5873
  221SOL    HW1  662   2.644   2.025   0.884  0.2077 -1.3548  4.1820
  221SOL    HW2  663   2.603   1.940   1.030  1.4817 -0.9378  0.3127
  222SOL     OW  664   1.060   2.381   1.068  0.4752 -0.1400 -0.3421
  222SOL    HW1  665   1.006   2.351   0.988 -0.3802  2.1933  0.6444
  222SOL    HW2  666   0.999   2.456   1.108  1.0249  0.6221 -0.5259
  223SOL     OW  667   1.027   2.791   3.092 -0.5721  0.1678 -0.4596
  223SOL    HW1  668   0.988   2.729   3.021  1.3017  1.5646 -0.0050
  223SOL    HW2  669   1.018   2.759   0.071  0.7572  2.7160  1.2391
  224SOL     OW  670   3.095   1.003   1.051  0.0890 -0.1547 -0.4110
  224SOL    HW1  671   3.009   1.005   0.993  1.1437 -1.1308 -3.6489
  224SOL    HW2  672   0.001   0.909   1.090  1.8864 -0.4437 -0.8598
  225SOL     OW  673   2.913   1.704   0.890 -0.1104  0.3474  0.1163
  225SOL    HW1  674   2.943   1.797   0.874  0.2134 -2.8799 -0.2508
  225SOL    HW2  675   2.992   1.641   0.884  0.3404 -0.0821  1.1899
  226SOL     OW  676   1.051   2.701   0.981 -0.0234  0.6880 -0.4032
  226SOL    HW1  677   1.070   2.731   0.884 -2.9019 -2.4994  1.4287
  226SOL    HW2  678   1.138   2.677   1.035  1.3965  0.3892  0.6752
  227SOL     OW  679   1.051   1.346   1.298  0.2156  0.3245 -0.1901
  227SOL    HW1  680   0.974   1.276   1.281  0.3756 -4.3437 -1.5573
  227SOL    HW2  681   1.018   1.440   1.294 -1.1285 -2.6660 -0.4986
  228SOL     OW  682   1.386   0.368   2.088  0.1279 -0.0668  0.1935
  228SOL    HW1  683   1.379   0.268   2.068  0.6993 -0.4287 -1.9692
  228SOL    HW2  684   1.354   0.394   2.179  2.6825  2.3516 -0.3677
  229SOL     OW  685   2.859   0.782   2.132 -0.5592 -0.6404  0.0191
  229SOL    HW1  686   2.774   0.741   2.172  0.4525 -1.5147 -0.6781
  229SOL    HW2  687   2.918   0.708   2.095 -3.0413 -0.4619 -0.0014
  230SOL     OW  688   0.176   1.071   0.852  0.5935 -0.0595  0.2940
  230SOL    HW1  689   0.143   1.085   0.756 -0.7434 -1.0104 -1.0527
  230SOL    HW2  690   0.099   1.042   0.913  1.2393  1.7099  0.1042
  231SOL     OW  691   1.642   0.178   2.381 -0.2500 -0.2508 -0.1203
  231SOL    HW1  692   1.632   0.260   2.437 -1.4409  0.1617  0.3633
  231SOL    HW2  693   1.644   0.204   2.283 -3.8953  0.1479  1.0464
  232SOL     OW  694   0.428   1.612   3.034  0.1840  0.1716  0.9452
  232SOL    HW1  695   0.510   1.650   2.992  0.2319 -0.4647  3.9696
  232SOL    HW2  696   0.422   1.516   3.007 -2.2064 -1.3106 -3.7797
  233SOL     OW  697   1.177   2.391   3.041 -0.0244 -0.1585 -0.1848
  233SOL    HW1  698   1.263   2.334   3.041 -0.6244  2.7105  0.5031
  233SOL    HW2  699   1.187   2.469   2.976 -1.2125 -1.0029  3.1514
  234SOL     OW  700   0.888   1.758   2.187 -0.4639  0.2274  0.0146
  234SOL    HW1  701   0.846   1.697   2.114  0.9415 -2.1118 -0.6631
  234SOL    HW2  702   0.951   1.704   2.250  0.6935 -2.2075  2.1276
  235SOL     OW  703   0.522   2.129   1.947 -0.6741 -0.3342  0.5315
  235SOL    HW1  704   0.519   2.091   2.043 -0.0494 -2.0894 -0.4384
  235SOL    HW2  705   0.445   2.190   1.925  0.5404  0.8210 -0.6315
  236SOL     OW  706   1.632   2.335   2.795 -0.2101  0.0273  0.1769
  236SOL    HW1  707   1.551   2.302   2.844  0.5019 -0.6888 -0.5160
  236SOL    HW2  708   1.692   2.393   2.856  0.8931 -2.2138 -0.7054
  237SOL     OW  709   1.524   0.586   0.831  0.4319 -0.1451  0.1579
  237SOL    HW1  710   1.618   0.543   0.813  1.1760 -0.3423 -1.9979
  237SOL    HW2  711   1.453   0.544   0.769 -0.5264 -1.2522 -2.6320
  238SOL     OW  712   0.894   0.201   2.643 -0.2723  0.1141  0.4852
  238SOL    HW1  713   0.810   0.193   2.580 -1.3964 -1.6123 -0.5966
  238SOL    HW2  714   0.964   0.127   2.614  1.1725 -1.9004 -0.8810
  239SOL     OW  715   1.128   3.035   1.805  0.0098 -0.5662  0.1103
  239SOL    HW1  716   1.108   2.979   1.725  1.3505  0.0938  2.9284
  239SOL    HW2  717   1.087   0.014   1.787  0.3452  0.6523  1.5265
  240SOL     OW  718   2.299   2.524   0.911 -0.0543  0.2967  0.0635
  240SOL    HW1  719   2.380   2.475   0.873 -1.4600 -0.9723 -1.4199
  240SOL    HW2  720   2.251   2.459   0.976 -1.0573 -0.6151  0.3961
  241SOL     OW  721   1.472   1.455   1.821 -0.1868  0.0701 -0.0607
  241SOL    HW1  722   1.493   1.359   1.789  0.4693  0.3708 -1.3400
  241SOL    HW2  723   1.420   1.455   1.909 -1.3271 -1.3765 -0.7686
  242SOL     OW  724   2.653   0.670   0.282  0.6134  0.0297  0.6823
  242SOL    HW1  725   2.739   0.623   0.257 -0.7766  1.1799 -0.1458
  242SOL    HW2  726   2.573   0.627   0.236 -0.4442  0.7872 -0.1906
  243SOL     OW  727   0.862   0.723   1.077  0.0643  0.0903 -0.0165
  243SOL    HW1  728   0.883   0.755   1.171 -3.8543 -1.9310  0.1851
  243SOL    HW2  729   0.904   0.788   1.011  1.8613  1.3083  2.0095
  244SOL     OW  730   1.455   0.233   3.047  0.2276 -0.3062 -0.1266
  244SOL    HW1  731   1.362   0.259   3.014 -0.6578 -1.1062 -0.8695
  244SOL    HW2  732   1.525   0.201   2.978 -0.3707 -3.1017  0.5022
  245SOL     OW  733   1.918   0.172   3.020  0.5564  0.2967 -0.3961
  245SOL    HW1  734   1.965   0.261   3.009 -0.0094 -0.4818  0.0675
  245SOL    HW2  735   1.977   0.102   2.975 -2.1528  1.9993 -0.6785
  246SOL     OW  736   0.939   0.836   1.322  0.1799  0.1128  0.0935
  246SOL    HW1  737   0.956   0.889   1.405 -5.0190 -0.2299  0.7128
  246SOL    HW2  738   1.022   0.788   1.293  0.0488  2.3772 -0.9056
  247SOL     OW  739   0.544   0.168   2.254 -0.4812 -0.3609 -0.1384
  247SOL    HW1  740   0.446   0.182   2.285 -2.6882  0.2568 -2.1048
  247SOL    HW2  741   0.554   0.216   2.166 -0.8654 -1.1553 -4.1415
  248SOL     OW  742   0.148   1.600   1.764  0.1675  0.0815  0.1362
  248SOL    HW1  743   0.069   1.655   1.730 -0.7927 -0.4209 -1.1394
  248SOL    HW2  744   0.175   1.621   1.862 -1.0351  0.0723 -0.9436
  249SOL     OW  745   3.054   0.062   2.907  0.2901  0.0912 -0.1360
  249SOL    HW1  746   2.973   3.113   2.911 -3.1031 -0.0416  0.8888
  249SOL    HW2  747   3.096   0.070   2.998 -1.2205 -2.1211 -2.5270
  250SOL     OW  748   2.997   0.061   0.372 -0.2591  0.5479 -0.7955
  250SOL    HW1  749   2.938   0.019   0.444 -0.4299  0.0465  0.5491
  250SOL    HW2  750   3.092   0.070   0.401  0.4523  1.5747  0.1123
  251SOL     OW  751   0.694   1.484   1.112  0.9742  0.0274 -0.2349
  251SOL    HW1  752   0.721   1.437   1.022  1.4770 -0.3101 -1.8181
  251SOL    HW2  753   0.595   1.487   1.134  0.9475  0.4099  0.1355
  252SOL     OW  754   1.608   2.905   1.537  0.5643  0.0717  0.0746
  252SOL    HW1  755   1.644   2.904   1.440 -0.9482 -0.1425  1.3159
  252SOL    HW2  756   1.542   2.982   1.551 -2.3056  1.7051 -2.5417
  253SOL     OW  757   2.354   1.889   2.871  0.5387  0.2109  0.2835
  253SOL    HW1  758   2.379   1.967   2.926 -0.8191 -3.2778  0.6759
  253SOL    HW2  759   2.423   1.816   2.871 -3.0762  1.5208 -1.7499
  254SOL     OW  760   0.514   2.017   2.196 -0.2066 -0.0473  0.1114
  254SOL    HW1  761   0.607   2.015   2.242  0.8554 -1.0989 -0.7367
  254SOL    HW2  762   0.495   1.921   2.180  0.3954  1.5053  3.3865
  255SOL     OW  763   1.022   0.135   1.507 -0.4779  0.4550 -0.8132
  255SOL    HW1  764   0.998   0.189   1.426 -1.6915 -2.0181  1.0117
  255SOL    HW2  765   0.976   0.039   1.506 -0.3585 -1.6592 -1.2208
  256SOL     OW  766   2.363   2.130   1.284  0.1702  0.1324 -0.3696
  256SOL    HW1  767   2.269   2.099   1.313  1.9703  0.7500 -1.0380
  256SOL    HW2  768   2.354   2.167   1.194  0.6570 -2.3673  1.6675
  257SOL     OW  769   0.553   2.652   2.816 -0.1095  0.4526 -0.2876
  257SOL    HW1  770   0.453   2.655   2.796 -2.7439 -0.4732  0.3190
  257SOL    HW2  771   0.586   2.573   2.870  0.5383  1.6028  1.7751
  258SOL     OW  772   0.652   1.657   2.867  0.3213  0.8719  0.0195
  258SOL    HW1  773   0.715   1.739   2.866 -0.3753  1.2194 -1.9686
  258SOL    HW2  774   0.603   1.656   2.775  0.5781  1.0939 -2.5944
  259SOL     OW  775   0.529   1.603   2.624  0.0028  0.4114 -0.4619
  259SOL    HW1  776   0.589   1.618   2.542  0.2394  1.2097  1.0154
  259SOL    HW2  777   0.505   1.507   2.641 -3.8361  1.2619  2.2999
  260SOL     OW  778   2.172   1.165   1.649 -0.2845  0.6341  0.2928
  260SOL    HW1  779   2.224   1.239   1.695  0.0639  0.2372 -1.4171
  260SOL    HW2  780   2.144   1.185   1.551  0.6509  1.2052 -0.7814
  261SOL     OW  781   1.471   0.870   0.835  0.0383 -0.5108  0.6954
  261SOL    HW1  782   1.516   0.780   0.840 -1.2519  1.7804  1.1607
  261SOL    HW2  783   1.428   0.894   0.926 -2.2056  0.0228  0.0009
  262SOL     OW  784   1.741   2.267   2.541 -0.2761  0.2001  0.4549
  262SOL    HW1  785   1.841   2.284   2.523  0.1936 -2.1562 -0.1343
  262SOL    HW2  786   1.712   2.281   2.639  0.1524 -0.5902  1.4211
  263SOL     OW  787   0.181   1.691   0.019 -0.4626 -0.1638 -0.1805
  263SOL    HW1  788   0.131   1.598   0.018  0.1733 -0.2141  0.1341
  263SOL    HW2  789   0.272   1.673   3.099 -1.2867  1.1437  1.9251
  264SOL     OW  790   0.529   2.030   1.202 -0.3739 -1.1119  0.0654
  264SOL    HW1  791   0.569   2.092   1.275  4.4316  0.7316  0.4977
  264SOL    HW2  792   0.581   1.945   1.176 -4.3266 -2.6032  1.0401
  265SOL     OW  793   0.728   0.978   0.278  0.5086  0.4583 -0.0527
  265SOL    HW1  794   0.816   0.991   0.325 -0.5467  0.4451 -0.6007
  265SOL    HW2  795   0.662   1.050   0.300 -0.1240 -0.2675  0.7933
  266SOL     OW  796   1.256   1.809   0.021  0.3287  0.2361 -0.4853
  266SOL    HW1  797   1.237   1.717   0.063 -1.0728 -0.3534  1.2640
  266SOL    HW2  798   1.184   1.822   3.066 -2.7633 -0.0445 -0.8063
  267SOL     OW  799   0.832   0.729   2.095 -0.3314 -0.7904  0.1887
  267SOL    HW1  800   0.752   0.789   2.126  1.8176  1.9589  0.6169
  267SOL    HW2  801   0.802   0.632   2.091  1.6351  1.3322 -2.1217
  268SOL     OW  802   0.319   0.597   2.917  0.3701  0.6793 -0.4424
  268SOL    HW1  803   0.385   0.646   2.972 -1.9762 -1.7824 -0.3238
  268SOL    HW2  804   0.232   0.653   2.896 -1.6334  0.9633  0.8622
  269SOL     OW  805   1.731   2.792   2.568 -0.3071 -0.5628 -0.5838
  269SOL    HW1  806   1.704   2.833   2.481  0.8976 -2.5784 -1.4731
  269SOL    HW2  807   1.664   2.721   2.595  0.5010  3.3910  0.1079
  270SOL     OW  808   1.046   1.598   2.331  0.1114  0.4909 -0.0556
  270SOL    HW1  809   1.015   1.553   2.419  1.0557  2.8816 -0.9721
  270SOL    HW2  810   1.151   1.604   2.323 -0.7943 -0.9450 -0.8595
  271SOL     OW  811   0.131   0.035   0.005 -0.0140  0.0660  0.0245
  271SOL    HW1  812   0.159   0.131   0.027  1.1251 -2.7350 -2.3575
  271SOL    HW2  813   0.201   3.089   3.087 -2.7444  2.0792  0.0540
  272SOL     OW  814   2.248   0.791   0.244  0.7060 -0.0542  0.8571
  272SOL    HW1  815   2.276   0.765   0.336 -1.6835  0.6227 -0.6905
  272SOL    HW2  816   2.294   0.877   0.215  2.2757  2.5225  0.3761
  273SOL     OW  817   0.210   0.120   1.851  0.1753 -0.0898  0.4855
  273SOL    HW1  818   0.116   0.147   1.878  1.1721 -1.9708 -1.8656
  273SOL    HW2  819   0.266   0.202   1.845  0.7285 -0.4673  0.8597
  274SOL     OW  820   3.081   0.199   1.943 -0.7243 -0.0870 -0.0865
  274SOL    HW1  821   3.008   0.165   2.009  0.4307 -1.1429 -3.0818
  274SOL    HW2  822   3.049   0.249   1.862  0.7305 -0.5094  2.9617
  275SOL     OW  823   1.309   1.637   0.594 -0.1717  0.0774 -0.3898
  275SOL    HW1  824   1.236   1.569   0.615 -1.9001 -1.2361 -0.1204
  275SOL    HW2  825   1.385   1.635   0.664 -1.5265  3.0632 -1.2039
  276SOL     OW  826   0.620   0.881   2.209 -0.2006  0.1265  0.0258
  276SOL    HW1  827   0.650   0.970   2.247 -2.2133 -0.6144 -0.5664
  276SOL    HW2  828   0.537   0.895   2.148 -0.6631 -0.7606 -3.0770
  277SOL     OW  829   1.795   2.382   2.203 -0.3562  0.4923 -0.1407
  277SOL    HW1  830   1.728   2.312   2.169  0.1808  0.1515  0.5253
  277SOL    HW2  831   1.750   2.471   2.206  1.8022  0.5247  0.6763
  278SOL     OW  832   1.652   2.927   2.349  0.4239 -0.3798 -0.2765
  278SOL    HW1  833   1.723   2.913   2.277  1.0125  0.1743  2.2178
  278SOL    HW2  834   1.592   3.007   2.332 -1.8188  2.9145 -2.0012
  279SOL     OW  835   1.847   1.246   0.002  0.4957 -0.3544 -0.4618
  279SOL    HW1  836   1.814   1.284   0.089 -0.5294  0.9368 -0.7188
  279SOL    HW2  837   1.940   1.218   0.007 -1.2181 -0.7841  2.4898
  280SOL     OW  838   0.883   1.154   3.069 -0.0525 -0.0084  0.1339
  280SOL    HW1  839   0.909   1.250   3.081 -0.1032 -2.7334 -0.3161
  280SOL    HW2  840   0.954   1.091   3.107  0.9630 -2.4190 -0.9869
  281SOL     OW  841   0.005   0.149   1.446 -0.2134 -0.2012  0.3339
  281SOL    HW1  842   0.084   0.090   1.478  0.6811 -0.6192 -0.4365
  281SOL    HW2  843   0.022   0.184   1.352  0.4199  0.8841  1.3265
  282SOL     OW  844   3.037   2.201   0.802 -0.1242 -0.5973  0.1315
  282SOL    HW1  845   0.006   2.225   0.857 -0.6926 -1.3163  0.5471
  282SOL    HW2  846   2.950   2.243   0.842  2.4652  1.5511 -0.6307
  283SOL     OW  847   1.327   2.009   2.109 -0.3129 -0.2029 -0.4401
  283SOL    HW1  848   1.424   1.970   2.105  1.6514  0.1905 -0.8688
  283SOL    HW2  849   1.264   1.931   2.097 -0.9308 -1.3069 -1.0996
  284SOL     OW  850   1.706   0.294   0.498  0.0351 -0.5881  0.1946
  284SOL    HW1  851   1.686   0.242   0.410 -0.6755  1.7742 -0.4044
  284SOL    HW2  852   1.617   0.323   0.538  4.1629  1.3293  0.0494
  285SOL     OW  853   2.825   2.792   2.742  0.0580  0.0077 -0.3578
  285SOL    HW1  854   2.722   2.807   2.720 -1.8147 -1.3784 -2.6861
  285SOL    HW2  855   2.836   2.697   2.776 -0.3806  1.4112 -2.8020
  286SOL     OW  856   2.419   2.530   1.227 -0.0122  0.4543 -0.1644
  286SOL    HW1  857   2.450   2.501   1.320  2.3554 -1.8731  2.4717
  286SOL    HW2  858   2.414   2.456   1.158 -0.8542 -0.9784  1.2075
  287SOL     OW  859   0.598   1.294   0.569  0.6543 -0.7714  0.1700
  287SOL    HW1  860   0.510   1.305   0.626 -2.5961 -0.2780 -0.6007
  287SOL    HW2  861   0.619   1.381   0.515  0.4637 -3.0447  0.0359
  288SOL     OW  862   2.136   1.768   2.752  0.1484  0.0557  0.3171
  288SOL    HW1  863   2.051   1.774   2.811 -1.4168  1.9588 -2.1514
  288SOL    HW2  864   2.213   1.803   2.804 -3.7608  2.0218 -0.6329
  289SOL     OW  865   0.144   1.718   2.751  0.2130  0.3963  0.4269
  289SOL    HW1  866   0.044   1.734   2.741  0.2853  1.8220 -2.1567
  289SOL    HW2  867   0.176   1.620   2.754 -0.0652 -1.9717  3.0184
  290SOL     OW  868   1.080   1.973   1.120  0.5925 -0.3644 -0.1318
  290SOL    HW1  869   1.073   1.935   1.027 -0.0464 -3.2023 -1.0343
  290SOL    HW2  870   1.027   2.060   1.121  0.3965  1.0036  0.6498
  291SOL     OW  871   1.705   1.128   2.918 -0.2609 -0.0814  0.3891
  291SOL    HW1  872   1.752   1.104   2.832 -0.6060 -0.2520 -1.0622
  291SOL    HW2  873   1.764   1.189   2.982  3.0063 -0.5669 -1.7652
  292SOL     OW  874   1.120   1.435   0.666  0.0600  0.0437  0.9589
  292SOL    HW1  875   1.045   1.454   0.731  0.4027 -4.5398 -1.6508
  292SOL    HW2  876   1.167   1.355   0.697  0.7408  0.6997 -1.2271
  293SOL     OW  877   1.686   2.703   1.103 -0.1920  0.5311 -0.8932
  293SOL    HW1  878   1.758   2.763   1.057  1.3658 -2.5422  0.6893
  293SOL    HW2  879   1.608   2.694   1.032 -2.7013 -2.2242  0.1532
  294SOL     OW  880   2.610   1.262   2.854 -0.3900  0.1961  0.1951
  294SOL    HW1  881   2.591   1.235   2.755 -0.4495 -0.4977 -3.2676
  294SOL    HW2  882   2.709   1.268   2.874  1.8649  1.8020  2.1175
  295SOL     OW  883   1.550   2.166   2.401  0.2933  0.4165 -0.0622
  295SOL    HW1  884   1.621   2.214   2.459  2.3030  0.3481  1.5687
  295SOL    HW2  885   1.574   2.186   2.305  1.0534 -0.7202  0.1623
  296SOL     OW  886   1.759   0.616   1.834 -0.4733  0.0850  0.0737
  296SOL    HW1  887   1.747   0.713   1.811 -0.8139 -0.8733 -1.3671
  296SOL    HW2  888   1.717   0.594   1.925  0.7151 -0.9121 -0.0371
  297SOL     OW  889   0.094   0.690   2.019  0.4198 -0.2936  0.2704
  297SOL    HW1  890   0.021   0.619   2.040  3.0909  0.7802 -1.3875
  297SOL    HW2  891   0.069   0.762   1.950 -0.1087  0.0765  0.6700
  298SOL     OW  892   1.175   2.687   2.139 -0.2956  0.0778 -0.2210
  298SOL    HW1  893   1.225   2.608   2.179 -0.3310 -0.7406  0.1153
  298SOL    HW2  894   1.078   2.692   2.170  2.4485  0.6743  2.3945
  299SOL     OW  895   1.204   2.568   2.829 -0.5445  0.0699 -0.2907
  299SOL    HW1  896   1.278   2.627   2.869  2.8164 -1.7589  0.7396
  299SOL    HW2  897   1.239   2.537   2.741  0.1496  2.8321 -0.5983
  300SOL     OW  898   2.818   0.966   2.834 -0.2352 -0.3208  0.0139
  300SOL    HW1  899   2.762   0.930   2.914 -0.4845  0.7912  0.9045
  300SOL    HW2  900   2.880   0.892   2.797  0.4768  0.0835 -2.3697
  301SOL     OW  901   1.792   1.105   1.640 -0.2586 -0.2191  0.1863
  301SOL    HW1  902   1.841   1.044   1.575  2.9168 -2.5121  0.2128
  301SOL    HW2  903   1.855   1.175   1.678 -0.1439  0.0459 -0.1557
  302SOL     OW  904   2.721   2.001   2.545  0.0321 -0.4984  0.2397
  302SOL    HW1  905   2.720   1.902   2.550 -3.1019 -0.0671  0.4527
  302SOL    HW2  906   2.624   2.035   2.518 -2.4551  0.4251 -2.8350
  303SOL     OW  907   0.262   2.799   2.353 -0.1825 -0.3387  0.0525
  303SOL    HW1  908   0.228   2.890   2.375  0.3689 -0.1666  0.3056
  303SOL    HW2  909   0.287   2.792   2.255  1.2171  2.4576  1.3884
  304SOL     OW  910   0.332   0.889   1.172 -0.4390 -1.1385 -0.4025
  304SOL    HW1  911   0.382   0.926   1.093  1.2327 -1.5208  2.2077
  304SOL    HW2  912   0.389   0.826   1.227  0.2593  0.4145 -2.5659
  305SOL     OW  913   2.765   0.540   1.838 -0.1078  0.6753  0.1986
  305SOL    HW1  914   2.780   0.515   1.737 -0.8807 -0.3164 -0.1751
  305SOL    HW2  915   2.710   0.459   1.875 -1.2250 -1.7391  1.4013
  306SOL     OW  916   2.357   1.038   1.410 -0.2345 -0.3569 -0.3163
  306SOL    HW1  917   2.444   1.013   1.460  0.7344 -0.6155 -2.1382
  306SOL    HW2  918   2.300   1.104   1.458  1.2106  0.6547  0.8264
  307SOL     OW  919   2.622   2.959   0.845  0.0241 -0.0443 -0.3187
  307SOL    HW1  920   2.706   2.971   0.899 -0.9399 -1.7796 -3.1327
  307SOL    HW2  921   2.566   2.884   0.879 -0.4536 -0.8679  1.9176
  308SOL     OW  922   2.820   1.865   1.296 -0.1383  0.3025  0.7022
  308SOL    HW1  923   2.771   1.793   1.242  0.6619  1.3795 -0.0957
  308SOL    HW2  924   2.816   1.852   1.398  1.3176  4.0040  1.4062
  309SOL     OW  925   2.234   2.196   1.690 -0.4790  0.3549  0.1833
  309SOL    HW1  926   2.161   2.246   1.634  1.7967  1.9462 -2.1777
  309SOL    HW2  927   2.196   2.151   1.770  0.2104  0.0093 -3.3956
  310SOL     OW  928   2.051   1.382   2.628 -0.2143  0.0057  0.0109
  310SOL    HW1  929   2.027   1.479   2.618 -0.6591  0.6576  0.6500
  310SOL    HW2  930   2.102   1.350   2.546  0.2321 -2.4367 -0.8488
  311SOL     OW  931   2.119   1.152   3.026  0.4477 -0.6030 -0.1500
  311SOL    HW1  932   2.050   1.085   3.000 -0.0707  0.8162  0.3213
  311SOL    HW2  933   2.163   1.108   3.109  0.6728 -0.7378 -1.6321
  312SOL     OW  934   1.210   2.442   2.260 -0.3125 -0.2562  0.1695
  312SOL    HW1  935   1.224   2.349   2.294  0.3574  0.9982 -0.8026
  312SOL    HW2  936   1.146   2.503   2.310  0.3153 -2.0682 -2.8571
  313SOL     OW  937   0.680   3.038   0.753 -0.0456  0.3362  0.1579
  313SOL    HW1  938   0.641   2.970   0.688  0.9744 -1.4630 -2.5050
  313SOL    HW2  939   0.737   2.987   0.824  0.6033  0.6050 -1.8073
  314SOL     OW  940   0.659   1.799   1.143 -0.0170  0.3172  0.0612
  314SOL    HW1  941   0.659   1.808   1.241 -1.7790 -0.9538 -1.2161
  314SOL    HW2  942   0.660   1.704   1.109 -0.6168 -0.1265  1.7563
  315SOL     OW  943   0.917   2.673   2.228 -1.1675 -0.7987  0.0980
  315SOL    HW1  944   0.854   2.754   2.241  2.0259  2.2261 -0.5459
  315SOL    HW2  945   0.915   2.621   2.315  0.9850  0.7041 -0.8774
  316SOL     OW  946   0.128   2.247   1.011 -0.2135  0.6248 -0.4179
  316SOL    HW1  947   0.085   2.238   1.104 -2.9586 -0.1533  2.7047
  316SOL    HW2  948   0.197   2.176   0.995  4.1378 -0.1774  0.3383
  317SOL     OW  949   1.932   0.678   0.480  0.2039 -0.3519 -0.2692
  317SOL    HW1  950   1.953   0.687   0.579 -1.6314 -2.8552 -1.6356
  317SOL    HW2  951   1.962   0.587   0.449 -0.3233 -0.7235  1.8468
  318SOL     OW  952   2.358   2.624   0.018 -0.2116  0.2171  0.1073
  318SOL    HW1  953   2.407   2.647   0.105  0.0083 -2.0084 -0.5722
  318SOL    HW2  954   2.356   2.520   0.011 -1.2088 -0.6708 -0.6334
  319SOL     OW  955   1.500   1.859   3.056 -0.1276 -0.1086 -0.5706
  319SOL    HW1  956   1.488   1.950   3.013 -1.7476 -2.5278  1.6292
  319SOL    HW2  957   1.413   1.822   3.093 -0.9608 -0.4431 -1.2746
  320SOL     OW  958   0.768   2.669   2.651  0.2810 -0.6483 -0.0357
  320SOL    HW1  959   0.676   2.683   2.695 -2.0387 -1.1845 -1.6729
  320SOL    HW2  960   0.815   2.604   2.711  0.3754  2.2281 -0.8319
  321SOL     OW  961   0.921   2.601   0.196  0.1055  0.0750 -0.0719
  321SOL    HW1  962   0.951   2.504   0.201  2.4424  0.1440 -2.1745
  321SOL    HW2  963   0.869   2.626   0.280 -0.3640 -1.9263 -0.0519
  322SOL     OW  964   1.936   0.390   2.402 -0.3227  0.1993  0.4264
  322SOL    HW1  965   1.954   0.474   2.458 -0.9034  1.5677 -0.8558
  322SOL    HW2  966   1.984   0.383   2.312 -0.5352 -0.5315  0.3015
  323SOL     OW  967   2.984   0.867   0.683  0.4638 -0.5049  0.1807
  323SOL    HW1  968   3.002   0.797   0.755  0.6743  2.5517  2.9322
  323SOL    HW2  969   3.042   0.852   0.602  0.5023 -0.2965  0.5037
  324SOL     OW  970   0.342   0.579   2.375  0.1413 -0.5265 -0.1526
  324SOL    HW1  971   0.304   0.665   2.336  0.7045  0.7651  1.6440
  324SOL    HW2  972   0.438   0.558   2.341  0.9163  0.0172 -2.7786
  325SOL     OW  973   0.304   0.185   2.379  0.5910 -0.4960  0.0493
  325SOL    HW1  974   0.248   0.258   2.424 -0.5697  1.8223  2.2437
  325SOL    HW2  975   0.258   0.095   2.391 -0.0030 -3.0946  0.9548
  326SOL     OW  976   2.535   2.330   0.403 -0.4853 -0.8610 -0.3774
  326SOL    HW1  977   2.581   2.356   0.312 -2.4049 -0.1990 -1.8270
  326SOL    HW2  978   2.511   2.415   0.448  0.9035 -2.2987 -0.9183
  327SOL     OW  979   2.561   1.272   0.616  0.1785  0.1011 -0.8947
  327SOL    HW1  980   2.568   1.178   0.657  1.8451 -1.1441  1.2466
  327SOL    HW2  981   2.495   1.285   0.538  2.7738 -1.2161 -0.0874
  328SOL     OW  982   0.152   2.044   2.322 -0.3920  0.4078 -0.2520
  328SOL    HW1  983   0.193   1.950   2.346 -0.1672 -0.8144 -2.5974
  328SOL    HW2  984   0.122   2.042   2.225  0.2723  0.6610 -1.4117
  329SOL     OW  985   2.896   2.409   1.713  0.3861 -0.1541 -0.2007
  329SOL    HW1  986   2.806   2.390   1.756 -0.6153 -0.8356 -0.6011
  329SOL    HW2  987   2.968   2.425   1.784  0.5622  0.6897  0.1798
  330SOL     OW  988   2.484   1.412   2.301  0.2511 -0.1901  0.2913
  330SOL    HW1  989   2.406   1.380   2.241 -0.3533  0.8908 -0.6208
  330SOL    HW2  990   2.567   1.435   2.248 -0.8200 -1.4269  2.1179
  331SOL     OW  991   2.689   2.238   1.114 -0.2787  0.1713 -0.5345
  331SOL    HW1  992   2.715   2.224   1.212 -1.3514  0.4331 -0.7284
  331SOL    HW2  993   2.679   2.149   1.066 -0.0987 -1.0057 -0.8336
  332SOL     OW  994   0.623   2.749   0.818  0.8833  1.1225  0.4884
  332SOL    HW1  995   0.557   2.761   0.741  0.3497 -0.6165 -0.4832
  332SOL    HW2  996   0.591   2.784   0.908 -0.0793 -0.2899 -0.2127
  333SOL     OW  997   2.146   0.076   2.303  0.6654 -0.0829  0.7260
  333SOL    HW1  998   2.156   0.047   2.208  2.7924  2.7635  0.3556
  333SOL    HW2  999   2.054   0.113   2.312  0.5560  1.1138 -3.2359
  334SOL     OW 1000   0.997   1.022   0.319  0.0444  0.1860  0.2629
  334SOL    HW1 1001   1.058   1.104   0.303 -0.8624  1.2538  0.0659
  334SOL    HW2 1002   1.040   0.967   0.393 -0.2696  1.6094  2.5141
  335SOL     OW 1003   0.365   2.477   2.294  0.2187 -0.0060  0.5093
  335SOL    HW1 1004   0.385   2.386   2.333  0.5851 -1.6981 -0.8718
  335SOL    HW2 1005   0.281   2.517   2.336 -2.3223 -1.0693 -1.7739
  336SOL     OW 1006   2.575   2.852   2.700  0.4439  0.1887  0.0284
  336SOL    HW1 1007   2.502   2.893   2.756 -1.2348 -0.6663  0.9759
  336SOL    HW2 1008   2.552   2.856   2.600  2.7386 -2.1995 -0.3122
  337SOL     OW 1009   1.242   1.291   0.968 -0.2440  0.0881 -0.5353
  337SOL    HW1 1010   1.283   1.254   1.049 -2.6099 -1.6055 -1.8639
  337SOL    HW2 1011   1.273   1.241   0.884  1.0634  0.7452 -1.5154
  338SOL     OW 1012   0.791   1.995   0.980  0.4212 -0.1770  0.1709
  338SOL    HW1 1013   0.764   2.094   0.985  0.2943  0.1345 -0.5390
  338SOL    HW2 1014   0.721   1.933   1.022  1.2267  1.9709  0.8122
  339SOL     OW 1015   0.088   1.239   1.598  0.0899 -0.3562  0.4134
  339SOL    HW1 1016   0.055   1.191   1.515  0.8675 -3.4549 -1.1196
  339SOL    HW2 1017   0.008   1.268   1.654  0.2529 -0.2943  2.7998
  340SOL     OW 1018   1.457   0.062   2.010  0.1311  0.0539  0.2010
  340SOL    HW1 1019   1.413   0.017   2.093 -1.2674 -0.4074  1.1185
  340SOL    HW2 1020   1.455   3.115   1.930 -0.0708 -0.5207 -2.4706
  341SOL     OW 1021   1.508   1.451   0.971  0.0993 -0.0729  0.0798
  341SOL    HW1 1022   1.434   1.498   1.030 -1.3508 -1.1591  3.5455
  341SOL    HW2 1023   1.599   1.437   1.022  1.6339 -0.3576  0.1328
  342SOL     OW 1024   3.111   1.531   0.862  0.0346 -0.5381  0.4044
  342SOL    HW1 1025   0.044   1.500   0.777 -1.3027 -0.0825 -0.8894
  342SOL    HW2 1026   3.099   1.460   0.931 -2.3219  0.4239  1.2532
  343SOL     OW 1027   0.068   0.881   1.424 -0.2692  0.3378 -0.5595
  343SOL    HW1 1028   0.157   0.845   1.458 -1.6807 -1.5352 -0.3114
  343SOL    HW2 1029   0.050   0.850   1.327  0.3280 -1.5671  1.0989
  344SOL     OW 1030   1.864   0.387   0.979 -0.4193 -0.0941 -0.0469
  344SOL    HW1 1031   1.834   0.447   0.902  1.8136  0.1324 -1.6911
  344SOL    HW2 1032   1.947   0.429   1.021  1.3704 -0.1485 -1.5225
  345SOL     OW 1033   0.483   3.010   2.512  0.4828 -0.1980  0.0755
  345SOL    HW1 1034   0.516   2.915   2.501  0.1901  1.4541  1.3574
  345SOL    HW2 1035   0.527   3.061   2.586  1.0913 -2.1214 -0.2125
  346SOL     OW 1036   2.555   1.677   0.321  0.5404 -0.7616  0.4549
  346SOL    HW1 1037   2.469   1.694   0.373 -1.9167 -0.4925  0.0661
  346SOL    HW2 1038   2.632   1.655   0.380  0.1737  2.4870 -2.6637
  347SOL     OW 1039   2.248   0.161   1.820  0.3535 -0.9491  0.3050
  347SOL    HW1 1040   2.279   0.259   1.811 -0.4924  2.6166  1.9579
  347SOL    HW2 1041   2.266   0.102   1.741 -1.2827 -1.2868  0.0140
  348SOL     OW 1042   1.236   1.211   1.446  0.1819 -0.4965  0.5246
  348SOL    HW1 1043   1.166   1.247   1.383  0.9514  0.5163  1.1169
  348SOL    HW2 1044   1.322   1.270   1.445  0.5507  0.3601  0.0496
  349SOL     OW 1045   2.749   0.792   1.720  0.2516  0.4414  0.4647
  349SOL    HW1 1046   2.734   0.699   1.758  1.0138 -0.0788 -0.2105
  349SOL    HW2 1047   2.846   0.799   1.696 -1.2100  1.2809 -1.5915
  350SOL     OW 1048   2.049   2.041   3.115 -0.5774 -0.3437  0.2756
  350SOL    HW1 1049   2.067   2.058   3.017 -0.5186  2.8700  0.8093
  350SOL    HW2 1050   2.093   1.957   0.036 -1.0328 -1.2806 -0.4303
  351SOL     OW 1051   0.765   0.146   1.907 -0.5822 -0.4015 -0.2416
  351SOL    HW1 1052   0.863   0.169   1.914 -2.0570  0.8126 -0.2236
  351SOL    HW2 1053   0.733   0.134   1.812 -1.2278 -0.0147  1.8626
  352SOL     OW 1054   1.989   2.458   1.818  0.3398 -0.4366 -0.2545
  352SOL    HW1 1055   2.027   2.406   1.897 -3.1086  2.0732 -1.0449
  352SOL    HW2 1056   1.885   2.461   1.811 -0.3169 -0.9702  0.5253
  353SOL     OW 1057   0.775   1.178   2.544 -0.8332 -0.0312  0.3508
  353SOL    HW1 1058   0.833   1.109   2.497  2.3323 -0.0757  0.9294
  353SOL    HW2 1059   0.831   1.201   2.627 -0.5398  3.1389  2.0131
  354SOL     OW 1060   1.017   1.798   3.007  0.0245 -0.1229 -0.1127
  354SOL    HW1 1061   0.978   1.850   3.083  0.7547  1.6748  0.6404
  354SOL    HW2 1062   0.982   1.834   2.921 -1.4390 -0.8878  1.6621
  355SOL     OW 1063   1.878   2.862   1.014 -0.3134  0.5057 -0.1644
  355SOL    HW1 1064   1.934   2.851   0.929  0.5215 -1.1550 -0.3793
  355SOL    HW2 1065   1.884   2.956   1.046 -0.4609 -2.9424  1.6689
  356SOL     OW 1066   2.520   1.183   3.096  0.2982 -0.5673  0.3026
  356SOL    HW1 1067   2.547   1.193   2.996 -1.5427 -2.4909  0.3144
  356SOL    HW2 1068   2.588   1.222   0.046  1.5494  0.5183 -0.8604
  357SOL     OW 1069   2.887   0.010   2.112  0.6107  0.1012  0.0726
  357SOL    HW1 1070   2.962   3.062   2.110 -1.4505 -2.1906 -2.6378
  357SOL    HW2 1071   2.811   3.094   2.048 -0.5920 -2.0397 -2.1697
  358SOL     OW 1072   0.135   1.447   0.632  0.1697  0.0133  0.5243
  358SOL    HW1 1073   0.150   1.347   0.614 -0.5185  0.8680 -2.4523
  358SOL    HW2 1074   0.220   1.499   0.612  3.0342 -1.4267 -1.9713
  359SOL     OW 1075   2.541   0.256   2.884  0.1135  0.2541  0.3044
  359SOL    HW1 1076   2.462   0.277   2.825 -0.2152 -2.4705  2.0368
  359SOL    HW2 1077   2.552   0.316   2.967  1.4950  1.3294  0.3655
  360SOL     OW 1078   1.432   0.742   1.182  0.1658 -0.4153  0.1412
  360SOL    HW1 1079   1.468   0.653   1.150  0.2671 -0.0883  1.4044
  360SOL    HW2 1080   1.510   0.793   1.226  1.8864  0.9237  0.4820
  361SOL     OW 1081   2.787   2.390   0.910  0.3067  0.7904 -0.5885
  361SOL    HW1 1082   2.771   2.333   0.995  0.7073 -2.0720 -0.1790
  361SOL    HW2 1083   2.789   2.487   0.937 -0.7628 -0.0231 -0.4711
  362SOL     OW 1084   1.209   0.314   0.937 -0.4558 -0.0219  0.0718
  362SOL    HW1 1085   1.189   0.271   0.845 -1.7080 -0.4634  0.9662
  362SOL    HW2 1086   1.181   0.411   0.943  1.1594 -0.2066 -0.2886
  363SOL     OW 1087   1.874   1.861   0.586 -0.1248  0.5317 -0.8124
  363SOL    HW1 1088   1.916   1.890   0.497 -0.6866 -0.0536 -0.9249
  363SOL    HW2 1089   1.862   1.940   0.647  2.0264 -2.0220 -1.4062
  364SOL     OW 1090   0.557   0.417   1.279 -0.4006 -0.3146 -0.7406
  364SOL    HW1 1091   0.470   0.407   1.325  1.5972 -0.0815 -1.6828
  364SOL    HW2 1092   0.584   0.509   1.254 -0.0082  0.3874  2.1281
  365SOL     OW 1093   0.275   3.023   0.857 -0.1232  0.3891 -0.0963
  365SOL    HW1 1094   0.343   3.100   0.843  1.1114  1.7534 -0.3254
  365SOL    HW2 1095   0.330   2.945   0.903  2.3977  1.6348 -0.2148
  366SOL     OW 1096   2.961   1.486   0.059  0.1965 -0.3278  0.0914
  366SOL    HW1 1097   3.049   1.501   0.009  0.3339 -0.7997 -1.6765
  366SOL    HW2 1098   2.929   1.569   0.112 -0.8710 -1.1519  1.6918
  367SOL     OW 1099   2.350   2.577   2.395  0.3179 -0.0011 -0.1792
  367SOL    HW1 1100   2.302   2.567   2.487 -1.5882 -1.1288  1.6311
  367SOL    HW2 1101   2.450   2.580   2.401 -1.5726 -0.8998 -1.6664
  368SOL     OW 1102   2.339   1.716   0.497 -0.0584 -0.3699  0.2521
  368SOL    HW1 1103   2.386   1.704   0.587  1.2598  0.3314 -1.4485
  368SOL    HW2 1104   2.264   1.654   0.492  0.2465 -0.9766  3.3644
  369SOL     OW 1105   1.684   0.826   3.047 -0.2460 -0.0898 -0.0842
  369SOL    HW1 1106   1.674   0.903   2.985 -2.0426  1.4453  1.2361
  369SOL    HW2 1107   1.597   0.789   3.072  0.8877  1.1731 -0.1535
  370SOL     OW 1108   0.478   0.075   0.857  0.2047 -0.3114 -0.1029
  370SOL    HW1 1109   0.499   0.131   0.943  0.4283 -1.5580  0.8636
  370SOL    HW2 1110   0.555   0.013   0.835  0.2726  0.4619 -0.6282
  371SOL     OW 1111   2.858   1.487   2.660 -0.2043  0.8519 -0.3173
  371SOL    HW1 1112   2.910   1.565   2.692  1.3349 -1.2780 -0.9914
  371SOL    HW2 1113   2.886   1.406   2.719 -1.3825 -0.1267  2.6134
  372SOL     OW 1114   0.606   0.608   2.315 -0.0632  0.0277  0.1218
  372SOL    HW1 1115   0.644   0.565   2.230  0.2658 -0.3077 -0.3170
  372SOL    HW2 1116   0.610   0.709   2.293  0.1087 -0.2045  0.4987
  373SOL     OW 1117   0.481   0.081   2.887  0.1945 -0.0654 -0.2916
  373SOL    HW1 1118   0.466   0.148   2.812 -1.2410 -1.1449  0.9280
  373SOL    HW2 1119   0.570   0.030   2.884  1.1026 -1.3405 -0.1273
  374SOL     OW 1120   1.125   1.556   2.938 -0.1298  0.9015  0.0873
  374SOL    HW1 1121   1.170   1.565   2.849  0.8087 -1.0662  2.6781
  374SOL    HW2 1122   1.104   1.647   2.974 -0.4430 -1.8233 -1.4318
  375SOL     OW 1123   0.952   0.504   1.734  0.1126 -0.1453 -0.5707
  375SOL    HW1 1124   0.942   0.510   1.631 -0.7664 -1.6354 -0.5724
  375SOL    HW2 1125   1.008   0.422   1.765 -0.7306  0.0005 -1.3581
  376SOL     OW 1126   0.357   2.805   2.092  0.1061 -0.4528 -0.0429
  376SOL    HW1 1127   0.370   2.883   2.027  2.7155  0.7064 -1.4337
  376SOL    HW2 1128   0.435   2.739   2.080  0.4460 -0.3297 -0.6008
  377SOL     OW 1129   2.594   2.304   0.129  0.1265  0.3427 -0.5259
  377SOL    HW1 1130   2.499   2.313   0.086 -0.4387 -1.1574  1.7372
  377SOL    HW2 1131   2.643   2.222   0.104 -1.5706  0.3329  1.5127
  378SOL     OW 1132   2.014   0.290   0.257 -0.1490  0.3581 -0.3120
  378SOL    HW1 1133   1.986   0.191   0.248  0.3767 -3.5890  2.6652
  378SOL    HW2 1134   2.113   0.289   0.234  1.3390 -0.4589  0.1186
  379SOL     OW 1135   1.725   0.745   0.323 -0.7082 -0.1385 -0.0748
  379SOL    HW1 1136   1.799   0.735   0.392  0.4764  0.4795  0.3448
  379SOL    HW2 1137   1.750   0.806   0.245  1.1248 -0.9080 -1.0203
  380SOL     OW 1138   2.751   2.114   1.901 -0.0392  0.3131  0.1244
  380SOL    HW1 1139   2.744   2.213   1.884  2.7622 -4.1864 -0.9899
  380SOL    HW2 1140   2.743   2.065   1.810  0.4669 -1.2254 -1.8526
  381SOL     OW 1141   2.703   1.418   2.135 -0.3426  0.2242 -0.3902
  381SOL    HW1 1142   2.806   1.422   2.139  3.4467  1.3130  2.1419
  381SOL    HW2 1143   2.678   1.333   2.087  1.7314  2.2372  1.9664
  382SOL     OW 1144   2.721   2.279   2.670 -0.4739 -0.3093 -0.0354
  382SOL    HW1 1145   2.623   2.295   2.686  1.1277  0.2782  1.0595
  382SOL    HW2 1146   2.753   2.188   2.717  1.8657  1.2127 -0.5700
  383SOL     OW 1147   1.119   1.061   2.767  0.1860  0.5920  0.4613
  383SOL    HW1 1148   1.150   0.977   2.720 -1.2403 -0.8124  0.7592
  383SOL    HW2 1149   1.141   1.061   2.868  0.9556  0.6384  2.6331
  384SOL     OW 1150   1.831   2.016   2.357  0.3325 -0.5191  0.2869
  384SOL    HW1 1151   1.796   2.099   2.404  1.4555  2.7371 -1.8305
  384SOL    HW2 1152   1.928   1.992   2.386  3.4556  0.7460  4.1895
  385SOL     OW 1153   2.103   2.586   0.238 -0.0576  0.0087 -0.1452
  385SOL    HW1 1154   2.086   2.524   0.321 -2.2527  0.0136  1.6283
  385SOL    HW2 1155   2.147   2.673   0.271 -0.3536 -2.4197  0.1675
  386SOL     OW 1156   1.885   1.335   0.565  0.4601  0.4283 -0.2269
  386SOL    HW1 1157   1.925   1.275   0.497  0.6286 -0.3085  0.7635
  386SOL    HW2 1158   1.787   1.351   0.537  1.1680  0.4325  2.7777
  387SOL     OW 1159   2.542   1.785   1.138 -0.2052  0.0466 -0.6190
  387SOL    HW1 1160   2.505   1.762   1.228  1.6295  1.3526  0.2408
  387SOL    HW2 1161   2.634   1.740   1.123  0.4831  0.6478 -1.8001
  388SOL     OW 1162   0.532   1.201   1.688 -0.2144  0.1879  0.1097
  388SOL    HW1 1163   0.566   1.224   1.785  1.5254 -2.1035  1.4984
  388SOL    HW2 1164   0.442   1.253   1.678  0.3757  1.5011  2.6648
  389SOL     OW 1165   2.211   0.950   2.783 -0.1436 -0.0382  0.2238
  389SOL    HW1 1166   2.127   0.948   2.838  0.6980 -1.5317 -0.1247
  389SOL    HW2 1167   2.225   1.039   2.731 -0.5005 -0.3815  0.3551
  390SOL     OW 1168   0.720   1.429   2.989 -0.3822 -0.0276  0.3140
  390SOL    HW1 1169   0.818   1.431   3.010  0.2346 -0.7040 -0.7452
  390SOL    HW2 1170   0.700   1.523   2.950  0.7927 -0.5571  0.0193
  391SOL     OW 1171   0.925   1.997   0.072 -0.0284 -0.6267 -0.1708
  391SOL    HW1 1172   0.970   2.065   0.011 -4.4289  0.5039  3.8439
  391SOL    HW2 1173   0.828   2.022   0.096  1.0421 -0.9143  0.3037
  392SOL     OW 1174   2.624   2.589   2.364 -0.1262  0.4976  0.7835
  392SOL    HW1 1175   2.694   2.535   2.420 -1.3663 -0.0381  2.5932
  392SOL    HW2 1176   2.613   2.539   2.274  0.7722 -1.9730  0.1853
  393SOL     OW 1177   1.523   2.089   0.273 -0.0135  0.5368 -0.0742
  393SOL    HW1 1178   1.577   2.040   0.336 -1.0447  2.4995  1.2893
  393SOL    HW2 1179   1.437   2.037   0.257 -2.1115  3.0412  0.9378
  394SOL     OW 1180   0.422   0.247   2.693  0.0996  0.3697 -0.0882
  394SOL    HW1 1181   0.437   0.352   2.683  2.5709  2.0176  0.7005
  394SOL    HW2 1182   0.321   0.231   2.699  1.9803  0.8083 -1.1610
  395SOL     OW 1183   0.426   1.505   1.140  0.0824 -0.2133 -0.2358
  395SOL    HW1 1184   0.393   1.544   1.055  1.9874 -0.8792 -0.6922
  395SOL    HW2 1185   0.379   1.529   1.228 -1.3435 -0.5374  1.9321
  396SOL     OW 1186   2.043   1.378   2.913  0.1550 -0.5654 -0.1021
  396SOL    HW1 1187   2.092   1.296   2.953  1.2448 -0.7642 -1.2943
  396SOL    HW2 1188   2.030   1.371   2.810  0.5686 -0.9717 -0.2029
  397SOL     OW 1189   0.413   0.644   0.166  0.3322 -0.2937 -0.0529
  397SOL    HW1 1190   0.452   0.696   0.088 -0.5771  0.9682  2.0362
  397SOL    HW2 1191   0.321   0.607   0.148  2.1451  1.2738  2.6568
  398SOL     OW 1192   1.172   2.668   0.465  0.0516 -0.2650  0.0411
  398SOL    HW1 1193   1.277   2.656   0.464  4.0693 -0.6310 -0.9836
  398SOL    HW2 1194   1.128   2.587   0.420  2.1923 -1.9197  0.8151
  399SOL     OW 1195   1.986   2.329   2.440  0.1135  0.1226  0.1270
  399SOL    HW1 1196   1.925   2.376   2.377  1.0386 -0.9726 -1.1410
  399SOL    HW2 1197   2.026   2.241   2.401  1.4779 -1.5334 -0.5290
  400SOL     OW 1198   2.678   1.506   1.521 -0.9973 -0.3081 -0.5992
  400SOL    HW1 1199   2.630   1.445   1.589 -1.3154  0.8478 -1.7189
  400SOL    HW2 1200   2.709   1.451   1.444 -0.7353  1.9270 -1.5860
  401SOL     OW 1201   1.670   1.048   0.881 -0.2014  0.0435  0.1332
  401SOL    HW1 1202   1.596   0.984   0.862  0.2648  0.8245  1.0549
  401SOL    HW2 1203   1.647   1.132   0.827 -3.6118 -0.8786 -1.4902
  402SOL     OW 1204   0.217   3.063   2.503 -0.4893 -0.1063 -0.4007
  402SOL    HW1 1205   0.319   3.059   2.492 -0.2539 -0.1008  2.8298
  402SOL    HW2 1206   0.192   3.115   2.585 -0.4234 -2.0559 -0.4412
  403SOL     OW 1207   2.814   1.734   1.588 -0.5328 -0.0385 -0.8636
  403SOL    HW1 1208   2.762   1.649   1.566  2.6322  1.8204 -0.9355
  403SOL    HW2 1209   2.749   1.812   1.610  1.0640  2.9300 -1.3968
  404SOL     OW 1210   2.428   1.862   1.725 -0.3458  0.2856  0.2830
  404SOL    HW1 1211   2.370   1.899   1.796  0.3466 -2.7633  0.1331
  404SOL    HW2 1212   2.375   1.860   1.638 -0.2848  2.2550  0.6585
  405SOL     OW 1213   2.098   0.284   2.814  0.1182  0.1156  0.3552
  405SOL    HW1 1214   2.073   0.215   2.744  1.5059  0.7428  0.3671
  405SOL    HW2 1215   2.038   0.365   2.803 -1.3335  0.0011  3.3473
  406SOL     OW 1216   0.958   1.485   2.586 -0.5580 -0.2958 -0.2234
  406SOL    HW1 1217   0.914   1.412   2.643  1.7286  0.0250 -0.4224
  406SOL    HW2 1218   1.043   1.522   2.632 -0.9008  0.4957 -1.4462
  407SOL     OW 1219   1.917   2.074   0.765 -0.4814 -0.5347 -0.1124
  407SOL    HW1 1220   1.853   2.130   0.708  1.2305 -0.9318  2.5569
  407SOL    HW2 1221   1.967   2.136   0.826 -0.4770 -1.2002 -2.1278
  408SOL     OW 1222   0.024   3.067   0.746  0.3203  0.2574 -0.2780
  408SOL    HW1 1223   0.113   3.030   0.781  0.2095 -0.5069  0.9271
  408SOL    HW2 1224   3.065   2.994   0.741  0.3370  0.0361  1.7547
  409SOL     OW 1225   1.925   1.292   0.839  0.4163 -0.6137 -0.4234
  409SOL    HW1 1226   1.849   1.317   0.902 -0.5215  1.6756  0.7446
  409SOL    HW2 1227   1.906   1.327   0.742  0.6066 -0.7774 -0.3517
  410SOL     OW 1228   1.861   2.412   0.054  1.3122 -0.3831  0.3746
  410SOL    HW1 1229   1.823   2.470   0.131  3.7779  1.0039 -2.1913
  410SOL    HW2 1230   1.945   2.369   0.094 -1.7703 -1.6441  0.9928
  411SOL     OW 1231   0.016   2.867   0.423 -0.7693 -0.0393 -0.2208
  411SOL    HW1 1232   0.053   2.876   0.327  3.0256  0.8977  1.4631
  411SOL    HW2 1233   3.061   2.935   0.446  2.0059  1.2437 -1.3829
  412SOL     OW 1234   1.570   2.776   0.877 -0.9595 -0.5512 -0.3405
  412SOL    HW1 1235   1.475   2.768   0.844  0.7394 -0.0567  1.8765
  412SOL    HW2 1236   1.622   2.857   0.847 -3.4747  0.1607 -0.4742
  413SOL     OW 1237   1.895   0.141   2.478  0.9512  0.2442  0.2517
  413SOL    HW1 1238   1.811   0.120   2.426 -0.1194  0.2626  0.6959
  413SOL    HW2 1239   1.912   0.242   2.462  0.5433 -0.0507  2.5336
  414SOL     OW 1240   0.302   0.740   0.403  0.3813 -0.5734 -0.1569
  414SOL    HW1 1241   0.316   0.837   0.383 -2.3996 -2.9923  1.5198
  414SOL    HW2 1242   0.342   0.689   0.324  1.7621  1.8097 -2.5439
  415SOL     OW 1243   0.137   1.197   1.179  0.3839 -0.1541 -0.1026
  415SOL    HW1 1244   0.236   1.186   1.171  0.0562  1.9355 -1.7326
  415SOL    HW2 1245   0.090   1.145   1.104  0.2054  0.0441  2.2721
  416SOL     OW 1246   0.188   0.323   0.020  0.4872 -0.0587 -0.0458
  416SOL    HW1 1247   0.172   0.408   0.072  0.7311  1.9759 -0.6107
  416SOL    HW2 1248   0.287   0.318   3.095  2.5110 -2.0198 -1.8769
  417SOL     OW 1249   2.289   0.205   0.713  0.0001  0.1682 -0.0288
  417SOL    HW1 1250   2.367   0.177   0.655 -0.4728 -0.4577  3.5135
  417SOL    HW2 1251   2.294   0.302   0.747 -1.3073  3.4775  0.0516
  418SOL     OW 1252   0.467   0.513   2.647  0.8797 -0.7479 -0.4404
  418SOL    HW1 1253   0.524   0.600   2.656  0.2435  2.6612 -0.2302
  418SOL    HW2 1254   0.421   0.512   2.557  0.0541 -1.4188 -0.4040
  419SOL     OW 1255   0.489   0.803   0.627 -0.3445  0.6541 -0.4105
  419SOL    HW1 1256   0.419   0.790   0.555 -0.6239  2.6939  2.2041
  419SOL    HW2 1257   0.530   0.720   0.673 -2.1879  1.0242  0.2006
  420SOL     OW 1258   2.099   1.490   1.343  0.0193 -0.2638  1.0181
  420SOL    HW1 1259   2.018   1.532   1.293 -1.4140 -1.1865 -0.4923
  420SOL    HW2 1260   2.182   1.516   1.293  0.7387  1.1954 -0.9011
  421SOL     OW 1261   1.179   2.074   2.781  0.3153 -0.2540 -0.1736
  421SOL    HW1 1262   1.132   1.987   2.756  0.8507  2.5199  1.4094
  421SOL    HW2 1263   1.166   2.142   2.702  1.9005 -0.5776 -0.6949
  422SOL     OW 1264   2.625   0.434   0.014 -0.4307 -0.2430  0.4669
  422SOL    HW1 1265   2.550   0.484   0.062 -1.6037  0.1471  2.4685
  422SOL    HW2 1266   2.696   0.501   3.101 -2.1305  0.8532 -0.3160
  423SOL     OW 1267   1.923   1.667   0.249 -0.2253  0.2111 -0.1323
  423SOL    HW1 1268   1.965   1.740   0.298 -1.8101 -1.9876 -0.3599
  423SOL    HW2 1269   1.828   1.686   0.235  1.8957 -0.1139  1.1292
  424SOL     OW 1270   0.779   1.132   1.555  0.4019  0.5210  0.0319
  424SOL    HW1 1271   0.695   1.157   1.612 -0.5660  2.5925  1.4331
  424SOL    HW2 1272   0.768   1.154   1.452  2.4891  0.8531 -2.6681
  425SOL     OW 1273   2.528   2.849   2.414  0.1211 -0.2622  0.1209
  425SOL    HW1 1274   2.430   2.861   2.391  0.5313  0.6989  0.4563
  425SOL    HW2 1275   2.556   2.753   2.393 -1.5601 -2.3083 -0.3400
  426SOL     OW 1276   1.989   2.585   0.512 -0.0099 -0.2674 -0.1380
  426SOL    HW1 1277   1.911   2.643   0.487 -0.9659  1.4773 -0.3625
  426SOL    HW2 1278   1.978   2.543   0.602  1.1098  1.8761 -0.5527
  427SOL     OW 1279   0.579   0.486   2.947 -0.4525 -0.2660 -0.3462
  427SOL    HW1 1280   0.623   0.581   2.947  3.0675  1.1967  0.8926
  427SOL    HW2 1281   0.495   0.480   2.888  0.5121  2.0568  1.8785
  428SOL     OW 1282   2.311   1.185   2.663 -0.1464  0.1977  0.1869
  428SOL    HW1 1283   2.406   1.202   2.634 -3.5482 -0.4472  1.4366
  428SOL    HW2 1284   2.287   1.243   2.739 -0.5435 -0.7351 -0.0641
  429SOL     OW 1285   2.972   0.291   0.654  0.2663  0.4950  0.0527
  429SOL    HW1 1286   3.054   0.239   0.619  1.5474  1.8973 -2.5796
  429SOL    HW2 1287   2.962   0.274   0.754 -0.1192 -1.8156  0.7820
  430SOL     OW 1288   1.158   2.955   2.066 -0.3154  0.3188  0.0734
  430SOL    HW1 1289   1.161   2.853   2.070 -1.5235 -1.2202  1.7497
  430SOL    HW2 1290   1.143   2.986   1.971  0.4316 -0.5294 -3.0396
  431SOL     OW 1291   3.103   1.870   1.320  0.2889  0.7115 -0.0154
  431SOL    HW1 1292   0.045   1.817   1.254 -0.9498 -1.3887  0.1451
  431SOL    HW2 1293   3.010   1.861   1.291  4.3447  0.0290  0.9838
  432SOL     OW 1294   2.357   2.478   1.939 -0.2270  0.6370  0.8218
  432SOL    HW1 1295   2.379   2.407   1.863  1.4966 -1.4512 -2.4327
  432SOL    HW2 1296   2.359   2.573   1.908 -0.3562 -0.2092  3.7827
  433SOL     OW 1297   1.318   1.888   0.287  0.0613 -0.5380  0.4920
  433SOL    HW1 1298   1.334   1.889   0.185  0.8540 -1.5296  0.6201
  433SOL    HW2 1299   1.233   1.848   0.321  0.1078 -0.7701  0.4168
  434SOL     OW 1300   0.040   2.327   2.860 -0.4830 -0.0741 -0.2097
  434SOL    HW1 1301   0.095   2.328   2.778  1.0939  1.8176 -0.2396
  434SOL    HW2 1302   3.087   2.401   2.864 -0.0232 -0.2822  1.3070
  435SOL     OW 1303   0.094   1.148   0.598 -0.0980  0.4597  0.4245
  435SOL    HW1 1304   0.055   1.066   0.549  0.9488  2.6266  0.1439
  435SOL    HW2 1305   0.014   1.208   0.617  0.1293  1.0743 -1.3888
  436SOL     OW 1306   0.770   2.876   1.831  0.1190  0.6027 -0.5115
  436SOL    HW1 1307   0.805   2.898   1.926  1.3264 -0.6930  2.4038
  436SOL    HW2 1308   0.689   2.937   1.800 -0.8101 -0.2876  0.5960
  437SOL     OW 1309   1.332   2.423   1.128  0.1209  0.0413  0.3479
  437SOL    HW1 1310   1.384   2.340   1.110 -1.6835  1.4635 -0.1228
  437SOL    HW2 1311   1.228   2.411   1.108 -4.2980 -2.0041  0.8192
  438SOL     OW 1312   0.375   2.396   0.780 -0.9063 -0.0055  0.3594
  438SOL    HW1 1313   0.356   2.343   0.696 -0.8117 -0.0236  0.3898
  438SOL    HW2 1314   0.299   2.444   0.826 -0.2064  0.0391  0.6121
  439SOL     OW 1315   1.108   2.791   1.641 -0.2058  0.2951 -0.3443
  439SOL    HW1 1316   1.167   2.713   1.605 -0.1823 -0.9554  0.7568
  439SOL    HW2 1317   1.012   2.758   1.636 -1.9120  0.1314 -1.1162
  440SOL     OW 1318   1.907   2.758   2.263  0.5570  0.0948 -0.5365
  440SOL    HW1 1319   1.989   2.727   2.208  0.0087  1.7708  3.1087
  440SOL    HW2 1320   1.943   2.803   2.349  2.9266  0.8731  2.0823
  441SOL     OW 1321   0.262   0.626   1.787  0.0732 -0.6346 -0.7174
  441SOL    HW1 1322   0.272   0.708   1.724 -0.8476  1.1892  0.2159
  441SOL    HW2 1323   0.230   0.653   1.883  1.6380  0.3824 -1.0300
  442SOL     OW 1324   1.706   2.440   0.495  0.2211  0.5520  0.2123
  442SOL    HW1 1325   1.705   2.510   0.561  2.0622 -4.0076 -3.1484
  442SOL    HW2 1326   1.712   2.481   0.401 -1.2209 -1.5858 -1.3947
  443SOL     OW 1327   3.017   0.597   2.668 -0.2119  0.0227 -0.2745
  443SOL    HW1 1328   2.953   0.539   2.721  0.3849 -0.8019  1.3004
  443SOL    HW2 1329   3.075   0.646   2.739 -1.3617  0.9822  0.5514
  444SOL     OW 1330   1.793   1.207   2.151 -0.4544 -0.0548 -0.3582
  444SOL    HW1 1331   1.774   1.143   2.076 -0.1578  1.5884 -0.0379
  444SOL    HW2 1332   1.787   1.304   2.123 -0.8043  3.5146  0.8931
  445SOL     OW 1333   0.210   2.660   1.313  0.0854 -0.4936  0.0311
  445SOL    HW1 1334   0.133   2.661   1.381 -2.1653 -1.9963 -2.0521
  445SOL    HW2 1335   0.297   2.699   1.354 -0.7308  1.1764  0.1781
  446SOL     OW 1336   2.749   1.631   1.118 -0.0355  0.2483 -0.4026
  446SOL    HW1 1337   2.773   1.531   1.141 -1.6516 -1.0122  1.4673
  446SOL    HW2 1338   2.822   1.675   1.057  1.4901  0.7441  0.4679
  447SOL     OW 1339   0.342   0.999   0.351  0.4600 -0.1655 -0.2135
  447SOL    HW1 1340   0.399   1.083   0.339  1.1712  2.3055  2.1535
  447SOL    HW2 1341   0.242   1.027   0.360 -0.3707  0.1293 -0.4500
  448SOL     OW 1342   1.072   2.227   1.999 -0.2197 -1.0558 -0.0309
  448SOL    HW1 1343   1.090   2.321   1.977 -1.1461  2.5229  3.9016
  448SOL    HW2 1344   1.155   2.173   1.983  1.4320  1.7287  1.1839
  449SOL     OW 1345   1.212   1.564   0.148 -0.6593  0.2806  0.5073
  449SOL    HW1 1346   1.226   1.478   0.089 -0.1391 -1.2852 -0.9410
  449SOL    HW2 1347   1.115   1.566   0.178 -0.5577 -0.8028 -2.3356
  450SOL     OW 1348   2.926   2.728   1.910 -0.1483  0.2482 -0.3345
  450SOL    HW1 1349   2.942   2.711   2.007 -1.8903  0.5681 -1.5634
  450SOL    HW2 1350   2.945   2.824   1.886  1.0711  0.2695 -1.1477
  451SOL     OW 1351   1.993   0.649   2.542  0.2638  0.0604  0.1328
  451SOL    HW1 1352   2.072   0.718   2.551  1.7448 -0.7492  1.6593
  451SOL    HW2 1353   1.992   0.592   2.630  1.2183  0.4422  1.4394
  452SOL     OW 1354   1.803   0.559   0.785 -0.2073  0.4253 -0.1961
  452SOL    HW1 1355   1.834   0.492   0.719 -0.9739  5.5338 -2.0257
  452SOL    HW2 1356   1.885   0.612   0.811  0.4742 -1.0191 -1.1217
  453SOL     OW 1357   1.928   0.901   1.498  0.1591  0.6477  0.5871
  453SOL    HW1 1358   1.973   0.854   1.575  0.4267  1.2463 -0.1790
  453SOL    HW2 1359   2.001   0.903   1.426  1.6229  0.2886 -2.3071
  454SOL     OW 1360   3.024   1.310   0.244 -0.3261  0.0286  0.6493
  454SOL    HW1 1361   2.940   1.258   0.272  1.9567 -1.7581 -1.0969
  454SOL    HW2 1362   3.007   1.376   0.167  0.1277 -0.4041 -1.3560
  455SOL     OW 1363   2.634   2.962   1.423 -0.3626  0.0229  0.3699
  455SOL    HW1 1364   2.685   3.045   1.380 -0.5550 -0.7171  0.6802
  455SOL    HW2 1365   2.562   2.919   1.369  0.9020 -0.7637 -3.3614
  456SOL     OW 1366   0.160   2.842   1.584  0.1793 -0.3604 -0.6335
  456SOL    HW1 1367   0.250   2.815   1.548 -0.4092  1.7368  0.2858
  456SOL    HW2 1368   0.122   2.762   1.642 -0.1231 -1.8429  1.8217
  457SOL     OW 1369   1.364   2.963   0.505 -0.1668 -0.2572 -0.0798
  457SOL    HW1 1370   1.431   3.013   0.441  0.4993  2.2234  0.4002
  457SOL    HW2 1371   1.384   2.999   0.599 -0.2216  1.7494  0.9880
  458SOL     OW 1372   2.445   2.738   0.965 -0.2826  0.3700  0.5540
  458SOL    HW1 1373   2.443   2.761   1.067  1.7377 -2.2794 -0.1643
  458SOL    HW2 1374   2.362   2.686   0.935 -2.8679 -0.8255  1.3503
  459SOL     OW 1375   2.307   0.564   2.969 -0.2914 -0.2602 -0.2737
  459SOL    HW1 1376   2.284   0.474   3.007 -0.3316  0.0029 -0.1396
  459SOL    HW2 1377   2.351   0.547   2.879  0.3553 -1.2903 -0.3470
  460SOL     OW 1378   2.310   2.837   2.932 -0.3572 -0.1560 -0.5671
  460SOL    HW1 1379   2.356   2.927   2.915  3.3108 -0.0643  0.6322
  460SOL    HW2 1380   2.360   2.791   3.006 -1.2179  1.8903 -2.8176
  461SOL     OW 1381   0.812   1.771   0.179  0.2262 -0.1551 -0.0456
  461SOL    HW1 1382   0.787   1.801   0.274 -1.6380 -1.7448  3.0232
  461SOL    HW2 1383   0.861   1.842   0.129 -0.4503 -0.6274 -2.1418
  462SOL     OW 1384   2.090   1.888   0.864 -0.1421  0.2454 -0.3743
  462SOL    HW1 1385   2.182   1.917   0.832 -1.6186  0.0028  2.0436
  462SOL    HW2 1386   2.023   1.956   0.828  1.2313  0.6293  0.2257
  463SOL     OW 1387   2.756   0.987   0.546  0.0415 -0.1746 -0.4277
  463SOL    HW1 1388   2.841   0.927   0.555  1.1702  0.0593  2.6050
  463SOL    HW2 1389   2.692   0.971   0.625  1.1926  1.3510  1.4131
  464SOL     OW 1390   0.842   2.920   0.920 -0.3350  0.1795  0.1126
  464SOL    HW1 1391   0.788   2.865   0.987  1.5910 -0.8002  0.1407
  464SOL    HW2 1392   0.942   2.905   0.918  1.9999  0.5378  1.7098
  465SOL     OW 1393   2.439   1.455   0.207  0.5987 -0.1484 -0.5471
  465SOL    HW1 1394   2.482   1.539   0.248 -1.2477  0.9050 -2.5742
  465SOL    HW2 1395   2.399   1.478   0.118  1.0002 -2.1365 -0.0675
  466SOL     OW 1396   1.590   0.361   2.715  0.1555 -0.2024 -0.4431
  466SOL    HW1 1397   1.567   0.442   2.778 -2.1840  0.9928 -0.5600
  466SOL    HW2 1398   1.637   0.284   2.769  0.4827  1.2864 -0.9399
  467SOL     OW 1399   0.678   0.727   1.477 -0.3365  0.1860  0.8411
  467SOL    HW1 1400   0.771   0.743   1.438 -1.8024 -0.2341 -1.7154
  467SOL    HW2 1401   0.675   0.685   1.566  0.1192  0.1637  0.0576
  468SOL     OW 1402   0.351   1.116   2.834  0.4682  0.0296  0.5834
  468SOL    HW1 1403   0.363   1.034   2.890 -1.4706  1.9950  0.3721
  468SOL    HW2 1404   0.420   1.110   2.760 -0.3663  1.2496 -0.9122
  469SOL     OW 1405   0.512   2.204   0.457  0.6717 -0.8936  0.2265
  469SOL    HW1 1406   0.535   2.202   0.359 -2.5839  0.4415 -0.5296
  469SOL    HW2 1407   0.526   2.296   0.503  0.1756  2.1497 -0.5931
  470SOL     OW 1408   2.667   1.712   2.597  0.1975  0.4569  0.1911
  470SOL    HW1 1409   2.737   1.639   2.591  1.1978 -0.0453  1.5233
  470SOL    HW2 1410   2.581   1.685   2.548  0.3976  1.5727  1.6420
  471SOL     OW 1411   2.681   1.163   2.045 -0.0172 -0.3022 -0.0558
  471SOL    HW1 1412   2.680   1.142   2.142 -0.3747  0.0317  0.4121
  471SOL    HW2 1413   2.634   1.090   1.995  0.6295  0.0598  3.7696
  472SOL     OW 1414   0.437   2.834   0.640  0.1087  0.0025 -0.2139
  472SOL    HW1 1415   0.349   2.803   0.599  1.8273  0.5537  0.9576
  472SOL    HW2 1416   0.481   2.896   0.569 -0.5664 -1.4427 -1.2033
  473SOL     OW 1417   0.725   0.031   0.192 -0.2107 -0.2380 -0.0210
  473SOL    HW1 1418   0.627   0.054   0.203  1.4737 -1.8901 -2.5063
  473SOL    HW2 1419   0.735   0.031   0.089 -3.8532 -1.6008 -2.1802
  474SOL     OW 1420   1.879   0.120   2.024 -0.1248 -0.2154 -0.3698
  474SOL    HW1 1421   1.802   0.164   2.076 -0.6879  0.1691 -2.0593
  474SOL    HW2 1422   1.871   0.140   1.922  0.6970 -0.1406 -0.4254
  475SOL     OW 1423   1.378   2.272   0.440  0.0348 -0.2707  0.4913
  475SOL    HW1 1424   1.294   2.218   0.476 -0.1619 -0.9300  2.5046
  475SOL    HW2 1425   1.432   2.214   0.376  0.4578  1.2443  1.9090
  476SOL     OW 1426   0.676   0.996   0.617 -0.5905 -0.3832 -0.3032
  476SOL    HW1 1427   0.614   0.920   0.592 -0.3242  0.6839  0.9071
  476SOL    HW2 1428   0.636   1.082   0.598  1.3752 -0.3967  1.1296
  477SOL     OW 1429   1.696   2.497   1.269 -0.0954 -0.4623 -0.0068
  477SOL    HW1 1430   1.608   2.490   1.319 -0.7162 -0.2432  3.2125
  477SOL    HW2 1431   1.701   2.586   1.209 -3.1544  1.3256 -2.3406
  478SOL     OW 1432   0.346   1.805   2.628 -0.4053  0.4313  0.6816
  478SOL    HW1 1433   0.408   1.729   2.637 -2.2039  0.0130  0.7016
  478SOL    HW2 1434   0.263   1.792   2.682  1.6199 -0.2602 -0.0801
  479SOL     OW 1435   3.088   2.941   1.128 -0.2521 -0.2013 -0.3023
  479SOL    HW1 1436   3.061   2.848   1.099 -0.0181  0.1415  2.5526
  479SOL    HW2 1437   3.068   2.955   1.230 -1.8908 -1.3371 -1.0963
  480SOL     OW 1438   2.892   2.947   0.519 -0.1278  0.4496  0.2564
  480SOL    HW1 1439   2.918   2.896   0.604 -1.7305 -1.3636 -0.0866
  480SOL    HW2 1440   2.870   2.873   0.453  2.7773  0.0553 -0.1261
  481SOL     OW 1441   2.724   2.671   0.980 -0.6420 -0.0206 -0.1000
  481SOL    HW1 1442   2.627   2.689   0.962 -0.3117  1.1695  0.4949
  481SOL    HW2 1443   2.744   2.681   1.078  0.7360 -0.6862  1.0798
  482SOL     OW 1444   1.156   2.280   2.556 -1.0517 -0.9629 -0.2344
  482SOL    HW1 1445   1.179   2.229   2.468  1.0608 -2.2749 -3.3012
  482SOL    HW2 1446   1.223   2.358   2.569 -0.3447 -1.7870 -0.6800
  483SOL     OW 1447   0.469   2.019   2.767 -0.1411 -0.1492 -0.0944
  483SOL    HW1 1448   0.451   1.943   2.708  1.5211  1.4082  1.6043
  483SOL    HW2 1449   0.477   2.102   2.706 -1.2328 -1.1818  1.0343
  484SOL     OW 1450   0.805   1.228   2.082  0.0486 -0.3207 -0.2496
  484SOL    HW1 1451   0.741   1.225   2.163 -1.4565  1.3110 -2.6083
  484SOL    HW2 1452   0.894   1.269   2.111 -0.3777  1.4143  0.6936
  485SOL     OW 1453   2.535   0.336   0.447 -0.0392 -0.5238  0.3636
  485SOL    HW1 1454   2.522   0.245   0.490  1.9123 -1.4387  1.4257
  485SOL    HW2 1455   2.459   0.405   0.468 -2.6850 -1.3531  1.2814
  486SOL     OW 1456   1.692   3.026   0.776 -0.7007 -0.3887  0.1928
  486SOL    HW1 1457   1.688   0.000   0.830  0.0644 -0.0700 -1.6867
  486SOL    HW2 1458   1.703   3.039   0.675 -0.4227 -1.1329  0.1215
  487SOL     OW 1459   0.512   2.065   0.836  0.1042 -0.0104 -0.5447
  487SOL    HW1 1460   0.567   2.122   0.902 -0.0543  0.6071 -1.0238
  487SOL    HW2 1461   0.546   2.070   0.743 -0.3927  0.8087  0.6539
  488SOL     OW 1462   2.734   1.336   0.082  0.6765 -0.2249 -0.1519
  488SOL    HW1 1463   2.820   1.384   0.058  0.9010  3.9913 -1.0886
  488SOL    HW2 1464   2.664   1.406   0.105  0.0986  2.1473  1.2111
  489SOL     OW 1465   1.643   0.088   1.232 -0.3205 -0.3615  0.8393
  489SOL    HW1 1466   1.680   0.118   1.321  2.4901  0.3490 -1.6038
  489SOL    HW2 1467   1.543   0.064   1.248 -0.4015  0.5249 -2.4867
  490SOL     OW 1468   1.037   0.834   0.124  0.3371 -0.2137  1.0813
  490SOL    HW1 1469   1.129   0.804   0.141 -1.1614  0.2762 -0.1464
  490SOL    HW2 1470   1.001   0.903   0.188  0.6248 -2.3402 -2.7876
  491SOL     OW 1471   0.606   2.457   0.514 -0.0551 -0.5992 -0.6359
  491SOL    HW1 1472   0.666   2.510   0.577 -2.1261  2.3940  1.1007
  491SOL    HW2 1473   0.534   2.519   0.473 -3.0232  0.8553  0.8173
  492SOL     OW 1474   1.297   1.443   2.046 -0.0274  0.4764  0.2662
  492SOL    HW1 1475   1.304   1.506   2.124  0.8608 -2.9330  0.1779
  492SOL    HW2 1476   1.210   1.386   2.046 -2.1331 -1.5373 -2.1684
  493SOL     OW 1477   0.168   2.503   0.911  0.4645  0.0021  0.2634
  493SOL    HW1 1478   0.128   2.415   0.928  1.1402  1.5360 -1.1458
  493SOL    HW2 1479   0.235   2.524   0.984 -0.5334 -1.9521 -0.0927
  494SOL     OW 1480   2.631   2.076   0.004 -0.5678  0.5308  0.0653
  494SOL    HW1 1481   2.706   2.094   3.055  0.3599  1.5417 -0.4147
  494SOL    HW2 1482   2.658   2.003   0.071  2.2756  0.9168 -2.8507
  495SOL     OW 1483   2.592   1.730   2.866 -0.4624  0.1742 -0.2225
  495SOL    HW1 1484   2.667   1.761   2.923 -0.5940 -2.1946 -2.5131
  495SOL    HW2 1485   2.618   1.725   2.766 -1.5779 -0.6795 -1.9423
  496SOL     OW 1486   2.637   0.276   1.814  0.2183 -0.3297 -0.3460
  496SOL    HW1 1487   2.586   0.276   1.905 -0.5841  0.0331  4.4940
  496SOL    HW2 1488   2.653   0.178   1.783  0.8165 -3.3651  1.8236
  497SOL     OW 1489   2.608   0.938   0.322 -0.5198 -0.2361 -0.1499
  497SOL    HW1 1490   2.659   0.948   0.412 -0.0263 -1.0114  0.0843
  497SOL    HW2 1491   2.617   0.838   0.292  0.3597 -0.7234  1.3478
  498SOL     OW 1492   0.146   2.346   2.610 -0.1025  0.5032  0.0910
  498SOL    HW1 1493   0.141   2.438   2.566  0.2328 -1.2246 -0.6720
  498SOL    HW2 1494   0.078   2.278   2.575  0.3231  1.9353 -0.0466
  499SOL     OW 1495   0.959   2.100   0.336 -0.4545 -0.4306  0.4134
  499SOL    HW1 1496   0.904   2.027   0.376  3.1767 -0.4393  1.0697
  499SOL    HW2 1497   1.014   2.057   0.261  0.5385  3.2712  0.6107
  500SOL     OW 1498   1.154   3.021   3.005 -0.4836 -0.2881 -0.0829
  500SOL    HW1 1499   1.075   3.091   3.001 -0.7921  0.0949  2.4041
  500SOL    HW2 1500   1.113   2.938   3.045 -0.3087 -0.7694 -2.2999
  501SOL     OW 1501   1.728   0.168   1.476  0.1767 -0.0202  0.2238
  501SOL    HW1 1502   1.662   0.137   1.546  1.2085  3.2965  1.0644
  501SOL    HW2 1503   1.821   0.135   1.496 -0.0363  0.1865 -1.1241
  502SOL     OW 1504   2.851   0.266   2.178  0.6845  0.4974 -0.5381
  502SOL    HW1 1505   2.896   0.314   2.257  0.5674  2.2856  2.6920
  502SOL    HW2 1506   2.878   0.169   2.169  0.0515  0.8821 -0.6137
  503SOL     OW 1507   2.481   2.056   2.440 -0.1096  0.2295 -0.6571
  503SOL    HW1 1508   2.440   2.107   2.360  3.4056  0.2024 -0.6440
  503SOL    HW2 1509   2.424   1.980   2.480 -0.1404 -2.7036 -1.8208
  504SOL     OW 1510   1.328   0.347   1.584  0.0908  0.5119  0.0565
  504SOL    HW1 1511   1.420   0.368   1.549  0.8069  1.1593 -1.2509
  504SOL    HW2 1512   1.322   0.375   1.679  2.2021  0.6412  0.5679
  505SOL     OW 1513   0.264   0.861   1.645 -0.2637  0.3859  0.1124
  505SOL    HW1 1514   0.238   0.936   1.707  1.2529 -0.6675 -0.1092
  505SOL    HW2 1515   0.331   0.891   1.572  0.4192  1.5089 -1.6306
  506SOL     OW 1516   0.343   0.997   2.438 -0.1389 -0.1228  0.1497
  506SOL    HW1 1517   0.400   0.996   2.520  1.2936  1.2250 -1.2132
  506SOL    HW2 1518   0.360   0.914   2.378 -1.0687  2.8764  2.7769
  507SOL     OW 1519   0.128   2.876   2.868  0.3725  0.1446 -0.5412
  507SOL    HW1 1520   0.212   2.929   2.870  0.0131  0.0920  2.3694
  507SOL    HW2 1521   0.056   2.922   2.808  2.7955 -0.3587 -2.1335
  508SOL     OW 1522   1.703   0.752   1.453  0.6420  0.0978  0.1724
  508SOL    HW1 1523   1.713   0.666   1.393 -0.3072 -1.0467  0.3652
  508SOL    HW2 1524   1.791   0.798   1.461 -0.6381 -0.0307  0.8171
  509SOL     OW 1525   1.068   2.008   1.541  0.0884 -0.5119 -0.6422
  509SOL    HW1 1526   1.146   1.970   1.596  3.7780 -3.8256  2.5406
  509SOL    HW2 1527   1.044   1.942   1.469  0.3760 -1.5595 -1.0762
  510SOL     OW 1528   2.239   1.342   2.184  0.1182 -0.2456 -0.4968
  510SOL    HW1 1529   2.230   1.307   2.283 -1.0718  0.4976  0.1551
  510SOL    HW2 1530   2.182   1.286   2.124  1.1179  0.8806 -1.2452
  511SOL     OW 1531   0.437   1.772   0.860  0.0744 -0.5873 -0.0065
  511SOL    HW1 1532   0.379   1.699   0.899 -1.6797  2.6051  0.5388
  511SOL    HW2 1533   0.425   1.854   0.919  0.3953  0.1416  1.0272
  512SOL     OW 1534   2.123   2.284   0.160 -0.7459 -0.1473  0.6477
  512SOL    HW1 1535   2.111   2.196   0.111  0.7356  1.2348  0.9060
  512SOL    HW2 1536   2.157   2.271   0.256  0.6289 -1.5822 -0.5597
  513SOL     OW 1537   2.998   1.975   2.717 -0.2343  0.3470 -0.7586
  513SOL    HW1 1538   3.057   2.011   2.791 -1.0512 -1.5198  0.4908
  513SOL    HW2 1539   3.013   2.026   2.632  0.5236 -3.4607  1.9141
  514SOL     OW 1540   0.254   2.627   2.792  0.6363 -0.3367  0.0494
  514SOL    HW1 1541   0.230   2.624   2.690  2.5406 -1.8325 -2.3031
  514SOL    HW2 1542   0.211   2.703   2.843  1.4030 -3.3741 -0.1445
  515SOL     OW 1543   1.882   1.648   1.789 -0.4265 -0.4744  0.0505
  515SOL    HW1 1544   1.898   1.629   1.888  0.8084 -0.4999 -0.2723
  515SOL    HW2 1545   1.967   1.691   1.750 -1.0679  1.2429  0.8603
  516SOL     OW 1546   2.473   2.324   2.774  0.1665  0.1434 -0.5728
  516SOL    HW1 1547   2.462   2.425   2.786 -1.7854  0.5914 -3.3841
  516SOL    HW2 1548   2.418   2.301   2.691  1.7710  1.4218 -0.0234
  517SOL     OW 1549   1.419   1.020   2.968 -0.0461  0.5134  0.3022
  517SOL    HW1 1550   1.436   1.120   2.953  0.9578  2.3926 -0.5035
  517SOL    HW2 1551   1.410   1.002   3.069  1.3364 -0.9751  0.7241
  518SOL     OW 1552   2.773   3.040   2.367  0.0446 -0.3139  0.1583
  518SOL    HW1 1553   2.805   3.066   2.273 -1.7358 -1.2012  0.6457
  518SOL    HW2 1554   2.698   2.967   2.366 -1.3409 -1.4161 -1.4617
  519SOL     OW 1555   1.792   1.889   2.092 -0.3918 -0.0059 -0.6112
  519SOL    HW1 1556   1.699   1.850   2.091 -2.2465  1.3297 -0.0028
  519SOL    HW2 1557   1.799   1.928   2.185  1.4090  1.1719  0.5167
  520SOL     OW 1558   2.704   0.099   2.721  0.0444  0.4723  0.3654
  520SOL    HW1 1559   2.670   0.161   2.792 -0.5966 -1.3536  1.8361
  520SOL    HW2 1560   2.640   0.094   2.635 -0.9988 -0.8608 -1.1735
  521SOL     OW 1561   0.624   1.556   2.187  0.1229 -0.0956  0.1551
  521SOL    HW1 1562   0.643   1.561   2.084  1.2173 -0.5258 -1.2713
  521SOL    HW2 1563   0.639   1.461   2.221 -0.0216  0.1474  0.6387
  522SOL     OW 1564   1.310   0.076   1.532 -0.2832  0.6630  0.4185
  522SOL    HW1 1565   1.399   0.084   1.581 -1.1772  0.8965  2.2570
  522SOL    HW2 1566   1.252   0.160   1.545  0.7105  1.2042  0.9374
  523SOL     OW 1567   0.350   2.566   1.082 -0.0721  0.0220 -0.6094
  523SOL    HW1 1568   0.282   2.614   1.144 -0.8118  0.2422 -0.0511
  523SOL    HW2 1569   0.427   2.523   1.131  1.1551  1.1808 -1.8290
  524SOL     OW 1570   1.656   2.549   0.768  0.1108  0.4225  0.2788
  524SOL    HW1 1571   1.579   2.481   0.751  0.8391  0.4141  1.0455
  524SOL    HW2 1572   1.625   2.629   0.823  0.0053 -1.1553 -1.4248
  525SOL     OW 1573   2.626   0.893   0.975  0.1256 -0.1755  0.0349
  525SOL    HW1 1574   2.577   0.957   1.039 -1.5535 -1.2837  0.4076
  525SOL    HW2 1575   2.574   0.804   0.974  0.3830 -0.1526  1.7516
  526SOL     OW 1576   1.077   2.675   0.706 -0.1004  0.3833 -0.0260
  526SOL    HW1 1577   1.004   2.610   0.725  0.8481  0.4946 -0.2535
  526SOL    HW2 1578   1.100   2.681   0.608 -0.0005  2.0773  1.0925
  527SOL     OW 1579   2.365   1.949   0.820  0.0734  0.0118  0.0463
  527SOL    HW1 1580   2.440   2.017   0.821  1.2041  0.5280 -1.2261
  527SOL    HW2 1581   2.395   1.861   0.786 -0.9198  2.0307  0.6300
  528SOL     OW 1582   2.323   0.516   0.498 -0.2180  0.3244  0.1251
  528SOL    HW1 1583   2.330   0.618   0.483  1.9763 -1.4894  0.5660
  528SOL    HW2 1584   2.232   0.480   0.462 -2.5505 -2.3753  2.5500
  529SOL     OW 1585   0.999   1.375   2.201 -0.1722 -0.2019 -0.3575
  529SOL    HW1 1586   1.005   1.468   2.244  0.1147  0.6540 -1.4808
  529SOL    HW2 1587   1.044   1.304   2.259 -1.6645  1.9905 -0.8283
  530SOL     OW 1588   2.437   0.802   2.969  0.1707  0.0347 -0.6019
  530SOL    HW1 1589   2.381   0.720   2.994  2.1962  1.4783  0.2831
  530SOL    HW2 1590   2.377   0.866   2.918 -2.6245 -0.2035 -1.5662
  531SOL     OW 1591   1.368   1.007   0.122  0.9095 -0.1328  0.0379
  531SOL    HW1 1592   1.294   1.070   0.151  0.2355 -0.7901 -4.6064
  531SOL    HW2 1593   1.437   0.999   0.198  2.5092  0.7264  0.4684
  532SOL     OW 1594   2.049   0.077   0.756  0.2540  0.0888 -0.2114
  532SOL    HW1 1595   2.037   0.044   0.849  1.2514  0.2362 -1.0726
  532SOL    HW2 1596   2.141   0.120   0.744  0.1221  1.9850  1.8848
  533SOL     OW 1597   0.730   0.971   1.846  0.0126  1.0378 -0.1845
  533SOL    HW1 1598   0.749   1.065   1.880  2.5359  0.5039 -1.1514
  533SOL    HW2 1599   0.820   0.920   1.849 -0.6007  0.4338  1.3673
  534SOL     OW 1600   1.694   3.007   2.751 -0.5432  0.8363  0.1948
  534SOL    HW1 1601   1.719   2.922   2.695  0.6389  0.7997  0.5494
  534SOL    HW2 1602   1.672   2.979   2.847  1.0204 -2.0903  1.0737
  535SOL     OW 1603   0.412   0.231   0.253 -0.3892  0.2577  0.0742
  535SOL    HW1 1604   0.443   0.262   0.162  1.0681 -1.7805  2.9429
  535SOL    HW2 1605   0.391   0.133   0.243 -0.0365  0.5282 -2.5759
  536SOL     OW 1606   0.952   2.812   1.324 -0.0863  0.2749  0.2436
  536SOL    HW1 1607   0.976   2.725   1.368 -1.1429 -1.6149  1.5499
  536SOL    HW2 1608   1.009   2.843   1.246 -1.1797  1.5583  1.8883
  537SOL     OW 1609   1.887   0.219   1.777 -0.2043 -0.3817 -0.2871
  537SOL    HW1 1610   1.797   0.268   1.773 -2.0459  2.9771  1.8747
  537SOL    HW2 1611   1.914   0.170   1.690  1.4908 -1.3315  1.9422
  538SOL     OW 1612   2.818   2.739   0.370 -0.1679  0.9457 -0.4165
  538SOL    HW1 1613   2.827   2.746   0.268  1.1879 -0.2342 -2.3986
  538SOL    HW2 1614   2.850   2.651   0.402 -0.0209 -0.3410 -2.5748
  539SOL     OW 1615   2.939   2.028   2.141 -0.9026 -0.1558  0.4219
  539SOL    HW1 1616   3.032   2.065   2.121  3.0061 -3.5147 -1.7549
  539SOL    HW2 1617   2.880   2.043   2.059  2.1229 -1.2180  0.5260
  540SOL     OW 1618   0.035   2.687   1.757 -0.1991 -0.2357  0.3077
  540SOL    HW1 1619   0.120   2.647   1.795  0.2213  0.6753  0.0694
  540SOL    HW2 1620   3.067   2.673   1.813 -0.7560  0.3935  0.5856
  541SOL     OW 1621   2.671   0.039   1.689  0.0922  0.0239 -0.3061
  541SOL    HW1 1622   2.609   3.089   1.645 -0.0800  2.2132 -1.6585
  541SOL    HW2 1623   2.768   0.023   1.655  0.2469  3.6267 -1.4984
  542SOL     OW 1624   2.971   0.546   1.999  0.3360  0.0563  0.6642
  542SOL    HW1 1625   2.894   0.555   1.930 -0.6526  1.1734 -1.3610
  542SOL    HW2 1626   2.967   0.465   2.058 -2.0396 -0.5840 -0.9627
  543SOL     OW 1627   0.845   0.565   0.633  0.0770  0.5439  0.0118
  543SOL    HW1 1628   0.913   0.638   0.662  1.1105  2.6896 -1.5233
  543SOL    HW2 1629   0.755   0.578   0.675  0.3580  0.7090 -0.1713
  544SOL     OW 1630   2.202   1.828   1.119  0.4447 -0.3449 -0.2012
  544SOL    HW1 1631   2.157   1.836   1.032 -2.0997  0.5166  1.9249
  544SOL    HW2 1632   2.292   1.785   1.107  2.4112 -0.7506  0.2924
  545SOL     OW 1633   1.130   1.761   0.425 -0.2691  0.2661  0.0911
  545SOL    HW1 1634   1.037   1.716   0.426 -3.2072 -0.5209 -1.5898
  545SOL    HW2 1635   1.191   1.733   0.500 -0.0332 -1.3229  0.0930
  546SOL     OW 1636   2.482   0.518   2.280  0.6461 -0.0721  0.2204
  546SOL    HW1 1637   2.511   0.581   2.203 -1.4305  0.5562 -0.1878
  546SOL    HW2 1638   2.427   0.431   2.257 -0.5122  0.3811 -0.5917
  547SOL     OW 1639   0.164   0.411   2.479  0.2928 -0.0616 -0.4874
  547SOL    HW1 1640   0.147   0.424   2.578 -0.4426  0.0423  1.8934
  547SOL    HW2 1641   0.250   0.464   2.453  1.4951 -0.5640  2.5955
  548SOL     OW 1642   2.132   2.087   2.369 -0.0314  0.0078  0.5941
  548SOL    HW1 1643   2.212   2.119   2.312  2.4088 -0.3056 -1.8804
  548SOL    HW2 1644   2.169   2.033   2.447  1.1963 -0.6331 -0.4663
  549SOL     OW 1645   2.559   0.463   0.873 -0.4406  0.4702 -0.0422
  549SOL    HW1 1646   2.615   0.449   0.791  2.9650  0.0873  2.0847
  549SOL    HW2 1647   2.581   0.380   0.935 -0.9605  0.4782  0.7669
  550SOL     OW 1648   1.621   1.411   0.525  0.1180 -0.4026  0.5308
  550SOL    HW1 1649   1.598   1.366   0.436 -0.7660 -2.2022  0.0633
  550SOL    HW2 1650   1.587   1.510   0.522  1.4189  1.1903  0.0308
  551SOL     OW 1651   1.349   0.303   1.197  0.3211  0.8868  0.0278
  551SOL    HW1 1652   1.295   0.297   1.111  1.6522  1.4297  1.9314
  551SOL    HW2 1653   1.374   0.207   1.236  0.7983 -1.6620 -0.2786
  552SOL     OW 1654   2.022   2.341   2.057  0.0564  0.0855 -0.3042
  552SOL    HW1 1655   1.933   2.355   2.108 -0.8431 -1.1329  1.5522
  552SOL    HW2 1656   2.104   2.366   2.113  2.4929 -0.2914  3.1741
  553SOL     OW 1657   0.458   3.082   0.223  0.6902  0.1146 -0.1233
  553SOL    HW1 1658   0.460   3.041   0.314 -0.7774  0.8885 -3.2376
  553SOL    HW2 1659   0.465   3.008   0.149 -3.9657 -2.0641 -1.3138
  554SOL     OW 1660   1.717   2.726   1.898  0.6429  0.2355  0.5173
  554SOL    HW1 1661   1.755   2.636   1.866 -0.9927 -1.0222 -3.1293
  554SOL    HW2 1662   1.670   2.715   1.985 -1.9099  1.6911 -2.4001
  555SOL     OW 1663   2.311   2.773   1.905  0.0779 -0.2101 -0.4843
  555SOL    HW1 1664   2.285   2.798   1.813  2.0480 -0.6286  0.5569
  555SOL    HW2 1665   2.330   2.858   1.958 -0.4176  2.8748 -1.1653
  556SOL     OW 1666   0.820   2.977   0.387 -0.3303  0.0221  0.1810
  556SOL    HW1 1667   0.915   2.970   0.426 -0.2823 -2.1673 -0.3203
  556SOL    HW2 1668   0.803   3.051   0.316  0.9152  2.1364 -2.2764
  557SOL     OW 1669   0.814   2.402   2.269 -0.0464  0.1077  0.4577
  557SOL    HW1 1670   0.810   2.455   2.183 -2.0474  1.0261 -1.3351
  557SOL    HW2 1671   0.746   2.437   2.335 -1.2627  2.2751  0.7201
  558SOL     OW 1672   2.691   0.990   2.323 -0.2924 -0.0724 -0.0078
  558SOL    HW1 1673   2.649   0.900   2.303  0.2723  1.7195 -0.1594
  558SOL    HW2 1674   2.788   0.978   2.348  0.9409  2.5795  0.3840
  559SOL     OW 1675   2.347   2.191   2.242  0.1158  0.2168  0.4604
  559SOL    HW1 1676   2.321   2.286   2.215 -2.3640 -0.3581 -0.5606
  559SOL    HW2 1677   2.419   2.151   2.172  4.4790 -1.1563 -5.6222
  560SOL     OW 1678   0.731   0.476   2.105 -0.1807 -0.5591  0.2840
  560SOL    HW1 1679   0.818   0.463   2.054  3.8713 -0.8085 -0.5234
  560SOL    HW2 1680   0.669   0.402   2.081 -1.9082 -1.1451 -1.7782
  561SOL     OW 1681   1.066   0.509   0.226  0.1942  0.2605 -0.2394
  561SOL    HW1 1682   0.987   0.509   0.290  2.0035 -0.0139  3.5825
  561SOL    HW2 1683   1.043   0.456   0.140  1.3676 -0.7845  0.7376
  562SOL     OW 1684   0.755   1.548   1.546 -0.1094 -0.3231  0.1089
  562SOL    HW1 1685   0.686   1.487   1.509  0.6848 -1.2816 -2.2402
  562SOL    HW2 1686   0.738   1.643   1.508  1.0432  1.4295  2.5154
  563SOL     OW 1687   1.754   2.789   0.132  0.2709  0.3613  0.3566
  563SOL    HW1 1688   1.800   2.860   0.077  0.3516 -1.2045 -0.3804
  563SOL    HW2 1689   1.657   2.780   0.103  0.2673 -3.8039  1.6975
  564SOL     OW 1690   2.981   1.821   0.496  0.7393 -0.0829 -0.1748
  564SOL    HW1 1691   2.885   1.803   0.457 -2.9676  2.1191  2.0782
  564SOL    HW2 1692   2.970   1.847   0.593 -1.6451 -1.1096 -2.4558
  565SOL     OW 1693   0.519   2.726   2.439  0.0319 -0.0964 -0.7394
  565SOL    HW1 1694   0.424   2.737   2.418  2.8934 -1.3868 -0.3183
  565SOL    HW2 1695   0.555   2.632   2.417  3.6201  2.3993 -1.4846
  566SOL     OW 1696   1.571   2.594   2.662 -0.5944  0.0527 -0.3409
  566SOL    HW1 1697   1.573   2.626   2.757 -0.4563 -0.2779 -1.0384
  566SOL    HW2 1698   1.640   2.528   2.647  1.9696  1.0261 -0.5990
  567SOL     OW 1699   1.820   2.017   1.310 -0.6303 -0.6804 -0.0851
  567SOL    HW1 1700   1.817   2.118   1.333 -0.0045 -0.9120 -1.2220
  567SOL    HW2 1701   1.750   1.981   1.243  0.7235  0.2124 -3.0484
  568SOL     OW 1702   2.051   0.687   2.958 -0.4196 -0.2570 -0.5681
  568SOL    HW1 1703   2.019   0.708   3.054  0.3217  1.5347  0.2264
  568SOL    HW2 1704   2.153   0.672   2.967 -0.6811  1.8293 -1.2146
  569SOL     OW 1705   2.957   1.460   2.222 -0.9144 -0.0057  0.3444
  569SOL    HW1 1706   2.992   1.554   2.196 -2.0149  0.4780  0.3288
  569SOL    HW2 1707   2.975   1.439   2.319 -0.5641 -1.3455 -0.6539
  570SOL     OW 1708   2.675   2.647   1.840 -0.2239  0.6041 -0.3389
  570SOL    HW1 1709   2.603   2.707   1.806  1.7838  1.1179  1.8597
  570SOL    HW2 1710   2.771   2.692   1.836  2.5499  2.3973 -1.7413
  571SOL     OW 1711   0.423   0.136   1.573  0.2197  0.7743  0.8146
  571SOL    HW1 1712   0.468   0.216   1.601  0.5849  0.5234  1.3985
  571SOL    HW2 1713   0.455   0.054   1.621 -3.8288 -0.6536  0.3342
  572SOL     OW 1714   3.042   1.930   0.781 -0.1182  0.0238  0.1651
  572SOL    HW1 1715   3.034   2.031   0.790 -2.0981 -0.8753 -0.5505
  572SOL    HW2 1716   3.113   1.895   0.846  1.5134  2.2415  0.5594
  573SOL     OW 1717   0.998   0.575   2.891  0.0479 -0.1284 -0.6748
  573SOL    HW1 1718   0.933   0.622   2.951 -0.5889 -0.0172 -0.2476
  573SOL    HW2 1719   0.948   0.511   2.834  0.2783  3.1617  1.5627
  574SOL     OW 1720   0.067   2.912   0.161  0.1566  0.2328 -0.2518
  574SOL    HW1 1721   0.071   2.993   0.101 -0.5365  1.2842  0.5900
  574SOL    HW2 1722   0.065   2.826   0.101  0.0245  0.2599  2.4192
  575SOL     OW 1723   1.296   2.106   1.256 -0.0890 -0.6638  0.5312
  575SOL    HW1 1724   1.215   2.057   1.221  1.0072 -0.6347  2.2836
  575SOL    HW2 1725   1.364   2.136   1.179  0.1126  1.1479 -4.4338
  576SOL     OW 1726   3.049   2.911   1.437 -0.2972  0.7109 -0.0071
  576SOL    HW1 1727   2.997   2.833   1.469  2.3563  0.7682 -1.4978
  576SOL    HW2 1728   0.023   2.908   1.483 -0.6245  2.9405 -2.4550
  577SOL     OW 1729   2.077   1.498   1.619 -0.7701  0.5415  0.0334
  577SOL    HW1 1730   2.113   1.586   1.650  2.9394  0.7946  0.8418
  577SOL    HW2 1731   2.072   1.493   1.517  0.1596 -0.2363  2.0113
  578SOL     OW 1732   0.968   0.096   2.922 -0.3195  0.2419 -0.6483
  578SOL    HW1 1733   1.047   0.154   2.944  2.2687  0.7185  1.9991
  578SOL    HW2 1734   0.943   0.112   2.825  2.3314 -3.1438 -1.2107
  579SOL     OW 1735   2.548   1.843   2.274 -0.3796  0.5707  0.1612
  579SOL    HW1 1736   2.617   1.796   2.216  2.1767  0.6057  2.4520
  579SOL    HW2 1737   2.562   1.943   2.275  3.2843 -0.3904 -1.7025
  580SOL     OW 1738   1.632   0.338   1.752 -0.5593  0.6887  0.4921
  580SOL    HW1 1739   1.616   0.354   1.652  1.1435 -1.7760  0.1997
  580SOL    HW2 1740   1.620   0.422   1.811  0.2692 -1.7253  0.0842
  581SOL     OW 1741   1.029   1.498   1.643  0.4090  0.1768 -0.2008
  581SOL    HW1 1742   1.036   1.399   1.649  1.6465  2.2270  1.2310
  581SOL    HW2 1743   0.962   1.522   1.568  0.2309 -2.5886 -3.6594
  582SOL     OW 1744   3.042   2.689   2.200  0.0803  0.3751  0.5492
  582SOL    HW1 1745   3.070   2.785   2.189  0.7591 -1.2874 -1.7504
  582SOL    HW2 1746   3.040   2.666   2.298  0.1130  0.0805 -0.0187
  583SOL     OW 1747   1.709   1.218   1.293  0.3949  0.4949 -0.2390
  583SOL    HW1 1748   1.721   1.288   1.369 -1.9316  1.1345  0.3118
  583SOL    HW2 1749   1.667   1.131   1.333 -0.2805 -3.8114 -0.0689
  584SOL     OW 1750   1.432   2.046   2.853  0.2822 -0.2392 -0.5688
  584SOL    HW1 1751   1.503   2.027   2.781  0.0844 -1.1468  1.7143
  584SOL    HW2 1752   1.339   2.048   2.806  3.6614  0.2258 -0.9940
  585SOL     OW 1753   0.139   2.475   0.476  0.2892 -0.0836  0.3686
  585SOL    HW1 1754   0.170   2.379   0.501  1.0852 -0.6570 -0.2537
  585SOL    HW2 1755   0.122   2.485   0.373  0.8862 -0.3005 -2.4032
  586SOL     OW 1756   1.864   2.449   2.890 -0.2122 -0.3134  0.6452
  586SOL    HW1 1757   1.885   2.458   2.989  0.4410  0.5476 -0.4399
  586SOL    HW2 1758   1.948   2.430   2.841 -1.5348  0.1177  2.9053
  587SOL     OW 1759   2.612   2.067   0.451 -0.0613  0.1364 -0.4866
  587SOL    HW1 1760   2.579   2.156   0.426  2.2419 -1.9901  0.8795
  587SOL    HW2 1761   2.662   2.018   0.373 -0.4449 -2.9899  0.0954
  588SOL     OW 1762   2.402   0.330   1.209 -0.0804 -0.2934  0.2625
  588SOL    HW1 1763   2.478   0.301   1.152  1.2092  1.2187 -0.9499
  588SOL    HW2 1764   2.412   0.433   1.231  1.5309  2.3276  0.6011
  589SOL     OW 1765   1.040   0.773   0.446  0.1747 -0.0226 -0.2035
  589SOL    HW1 1766   1.013   0.730   0.362  0.5673  2.6328 -0.6549
  589SOL    HW2 1767   1.135   0.747   0.468  1.0041 -2.6184  0.7630
  590SOL     OW 1768   2.345   2.347   0.025  0.0540 -0.1529  0.2015
  590SOL    HW1 1769   2.249   2.348   0.057  1.8767 -0.2952 -1.6536
  590SOL    HW2 1770   2.366   2.258   3.100  0.6958  1.1959 -3.0501
  591SOL     OW 1771   0.249   2.588   1.906 -0.7718 -0.8825  0.0978
  591SOL    HW1 1772   0.346   2.584   1.875 -1.1871 -0.6096  0.8698
  591SOL    HW2 1773   0.229   2.661   1.970 -0.3441 -1.1360 -1.4265
  592SOL     OW 1774   0.830   1.100   1.256 -0.6421 -0.5562 -0.1361
  592SOL    HW1 1775   0.729   1.092   1.251  2.0193  0.8290 -0.1730
  592SOL    HW2 1776   0.874   1.008   1.273  2.3312  1.9167  1.4822
  593SOL     OW 1777   0.963   1.822   1.335  0.9497 -0.5586 -0.1123
  593SOL    HW1 1778   1.007   1.884   1.265  1.1555  2.3489 -1.4616
  593SOL    HW2 1779   0.965   1.728   1.300  1.4928  3.1047 -1.5088
  594SOL     OW 1780   0.249   1.945   2.926 -0.4291 -0.4112  0.3568
  594SOL    HW1 1781   0.206   1.869   2.875 -1.0767  0.0486 -0.5595
  594SOL    HW2 1782   0.336   1.979   2.888  0.5411 -0.6383  1.6744
  595SOL     OW 1783   1.520   0.493   1.093 -0.3546 -0.2598  0.5085
  595SOL    HW1 1784   1.527   0.507   0.994  0.3876 -2.7272  0.9714
  595SOL    HW2 1785   1.453   0.418   1.120 -0.4982 -1.1607  1.5567
  596SOL     OW 1786   0.164   1.261   0.339 -0.5386 -0.6440  0.1108
  596SOL    HW1 1787   0.075   1.278   0.289 -2.3824  1.2593 -1.4503
  596SOL    HW2 1788   0.144   1.217   0.430 -6.0023 -0.1170 -1.4270
  597SOL     OW 1789   3.049   2.319   0.026 -0.4441 -0.0548 -0.4863
  597SOL    HW1 1790   0.019   2.320   3.083  1.5439 -2.0439  0.7614
  597SOL    HW2 1791   3.021   2.221   0.044 -0.6868  1.2213  1.1088
  598SOL     OW 1792   2.248   1.963   2.588 -0.6751  0.3425  0.4011
  598SOL    HW1 1793   2.226   1.884   2.645 -2.3575 -0.4288  3.0584
  598SOL    HW2 1794   2.241   2.049   2.645  0.8987 -2.1501 -3.2189
  599SOL     OW 1795   1.256   0.453   0.441  0.6918 -0.3714 -0.5523
  599SOL    HW1 1796   1.196   0.446   0.360 -0.2262 -0.1506  1.9966
  599SOL    HW2 1797   1.261   0.551   0.469 -0.4337 -0.1368 -1.1653
  600SOL     OW 1798   0.753   2.726   0.387  0.0104 -0.3542 -0.0747
  600SOL    HW1 1799   0.784   2.827   0.400 -1.0565  3.3692  0.4701
  600SOL    HW2 1800   0.653   2.727   0.363 -3.0677  1.3174  0.2102
  601SOL     OW 1801   0.582   0.696   1.069 -0.2814 -0.4620  0.3016
  601SOL    HW1 1802   0.537   0.706   1.160  0.4956  1.4637  0.7356
  601SOL    HW2 1803   0.681   0.723   1.067 -0.2697 -2.6067  0.4617
  602SOL     OW 1804   0.406   2.826   1.045  0.5495 -0.2262  0.7316
  602SOL    HW1 1805   0.340   2.875   1.108 -2.3197  0.4695  0.0565
  602SOL    HW2 1806   0.387   2.726   1.052 -0.8292  1.1703 -0.8985
  603SOL     OW 1807   1.207   2.808   2.491 -0.4035 -0.3588  0.0722
  603SOL    HW1 1808   1.245   2.892   2.533  2.8266 -2.1771 -0.7590
  603SOL    HW2 1809   1.109   2.815   2.470 -0.0787 -0.7155 -0.5755
  604SOL     OW 1810   0.667   2.860   2.924  0.7358  0.6161  0.2849
  604SOL    HW1 1811   0.736   2.886   2.849 -1.0372  6.5710 -2.2438
  604SOL    HW2 1812   0.606   2.785   2.893  0.3398 -0.6730  0.9315
  605SOL     OW 1813   0.931   0.765   1.828 -0.2982 -0.4616 -0.1183
  605SOL    HW1 1814   0.995   0.696   1.790 -3.3696  1.0650  2.0844
  605SOL    HW2 1815   0.908   0.741   1.924 -1.3465  1.2979  1.0384
  606SOL     OW 1816   1.960   0.504   2.782 -0.2579  0.4917 -0.5779
  606SOL    HW1 1817   1.998   0.573   2.851  0.7679 -0.6539 -2.1976
  606SOL    HW2 1818   1.870   0.476   2.815  3.0570 -0.0416  0.0681
  607SOL     OW 1819   0.615   1.144   0.990 -0.4313 -0.3574  0.1897
  607SOL    HW1 1820   0.712   1.123   0.999  0.1179 -1.5865  1.2947
  607SOL    HW2 1821   0.562   1.068   0.940 -2.0728 -0.6804 -1.2574
  608SOL     OW 1822   0.149   2.605   2.504 -0.7254 -0.3852  0.0158
  608SOL    HW1 1823   0.193   2.690   2.462  1.6455 -0.3764  0.1159
  608SOL    HW2 1824   0.051   2.611   2.490  3.5444  0.5520  1.8677
  609SOL     OW 1825   1.436   0.662   3.059 -0.1862 -0.2393 -0.1757
  609SOL    HW1 1826   1.493   0.582   3.085 -0.2297  1.8464 -3.0522
  609SOL    HW2 1827   1.375   0.691   0.019 -0.2004  0.8221 -2.5745
  610SOL     OW 1828   0.711   2.686   1.304 -0.7301 -0.1095 -0.0534
  610SOL    HW1 1829   0.792   2.737   1.342 -1.3748  2.1244 -1.7441
  610SOL    HW2 1830   0.670   2.743   1.227 -5.2704 -2.2460 -0.7123
  611SOL     OW 1831   1.568   0.935   0.438  0.2202 -0.0636  0.3753
  611SOL    HW1 1832   1.616   1.011   0.392 -1.0419  0.8102 -0.0469
  611SOL    HW2 1833   1.605   0.841   0.417  2.2368 -3.4426 -0.1441
  612SOL     OW 1834   1.521   0.903   2.752 -0.6372  0.0049 -0.2854
  612SOL    HW1 1835   1.448   0.923   2.685  0.1846  0.1733  0.3623
  612SOL    HW2 1836   1.496   0.951   2.841 -1.9726 -2.0894  0.8610
  613SOL     OW 1837   2.537   1.029   0.730  0.0815  0.2010 -0.7017
  613SOL    HW1 1838   2.436   1.036   0.718  0.5411 -0.1051  0.8836
  613SOL    HW2 1839   2.542   0.994   0.825 -2.7181 -0.7461  0.8250
  614SOL     OW 1840   2.345   0.296   2.202  0.4596 -0.3028 -0.1538
  614SOL    HW1 1841   2.297   0.221   2.253 -0.8289  1.4840 -0.1779
  614SOL    HW2 1842   2.426   0.254   2.150  1.6143 -1.2100  1.4284
  615SOL     OW 1843   0.625   2.208   1.011  0.4651 -0.4556 -0.0235
  615SOL    HW1 1844   0.581   2.176   1.095  0.8885  0.5595 -0.2699
  615SOL    HW2 1845   0.619   2.311   1.005  0.9641  1.4299 -0.5916
  616SOL     OW 1846   1.602   1.238   2.345 -0.2763  0.3382  0.4740
  616SOL    HW1 1847   1.665   1.205   2.275  1.4193  1.8315 -1.1672
  616SOL    HW2 1848   1.610   1.337   2.352 -2.2224 -2.9626  1.6680
  617SOL     OW 1849   1.466   2.813   0.082 -0.5980  0.1630 -0.0827
  617SOL    HW1 1850   1.453   2.888   0.150 -4.3682 -1.9260  0.1242
  617SOL    HW2 1851   1.385   2.747   0.092 -0.7479  0.4527 -2.5033
  618SOL     OW 1852   1.358   1.611   2.277  0.9146  0.2546  0.1938
  618SOL    HW1 1853   1.372   1.680   2.353 -2.9617  0.6325  0.8448
  618SOL    HW2 1854   1.427   1.541   2.287 -0.7644  1.5392  0.8096
  619SOL     OW 1855   2.617   1.380   0.844 -0.0188  0.0036  0.2515
  619SOL    HW1 1856   2.595   1.343   0.748 -1.9157 -0.1236  0.8502
  619SOL    HW2 1857   2.650   1.308   0.907  1.8592  0.2539 -0.4967
  620SOL     OW 1858   2.197   2.633   2.646 -0.3651 -0.1705 -0.0500
  620SOL    HW1 1859   2.284   2.654   2.692 -0.8632  1.8122  0.0304
  620SOL    HW2 1860   2.122   2.705   2.657  1.5968 -1.7331  2.0094
  621SOL     OW 1861   2.797   1.225   0.394  0.4764  0.5037  0.1193
  621SOL    HW1 1862   2.710   1.263   0.426  3.0383  1.9293 -0.3410
  621SOL    HW2 1863   2.799   1.126   0.423 -2.3595 -1.2906  2.0209
  622SOL     OW 1864   1.304   2.510   2.588  0.0137 -0.0544 -0.1789
  622SOL    HW1 1865   1.405   2.527   2.607 -0.2351 -0.4648  0.7914
  622SOL    HW2 1866   1.263   2.586   2.537  1.1522 -0.3789  2.0688
  623SOL     OW 1867   0.330   2.338   0.079 -0.0566  0.3152  0.2544
  623SOL    HW1 1868   0.356   2.238   0.070 -0.0233 -1.6983 -1.8273
  623SOL    HW2 1869   0.251   2.352   0.145  1.6809  1.3075  3.0882
  624SOL     OW 1870   0.335   3.021   3.002 -0.4488 -0.1017  0.1999
  624SOL    HW1 1871   0.373   3.099   2.946  0.0803 -0.4610 -2.8166
  624SOL    HW2 1872   0.405   2.967   3.051 -2.8627  2.2710  1.1703
  625SOL     OW 1873   0.792   2.324   3.028 -0.3973 -0.2914 -0.1062
  625SOL    HW1 1874   0.876   2.366   2.992  0.3651  1.4095 -1.3104
  625SOL    HW2 1875   0.766   2.237   2.980  0.8947 -0.2597  0.0680
  626SOL     OW 1876   3.040   0.707   0.372  0.5634  0.1505 -0.0535
  626SOL    HW1 1877   2.995   0.664   0.290  0.8342 -1.7779 -0.0555
  626SOL    HW2 1878   3.060   0.634   0.442  1.8040 -1.2204  3.3476
  627SOL     OW 1879   1.772   1.513   2.927  0.1928 -0.1699 -0.6614
  627SOL    HW1 1880   1.826   1.432   2.944 -0.1033  2.4255 -0.2026
  627SOL    HW2 1881   1.828   1.595   2.948 -1.4026 -2.0458  2.3608
  628SOL     OW 1882   1.240   1.267   2.600 -0.2477 -0.6932 -0.5236
  628SOL    HW1 1883   1.237   1.213   2.684  0.3471 -0.6807  1.1142
  628SOL    HW2 1884   1.335   1.297   2.584  0.3627  2.8257 -1.6809
  629SOL     OW 1885   0.549   3.044   1.689  0.3508  0.1865  0.1611
  629SOL    HW1 1886   0.628   3.107   1.676  2.5044 -1.3682  0.6353
  629SOL    HW2 1887   0.545   2.988   1.605  2.6202 -0.3280  0.1701
  630SOL     OW 1888   2.269   0.913   2.176  0.2297 -0.6423 -0.4478
  630SOL    HW1 1889   2.257   0.989   2.108  0.3473  1.4634 -0.5490
  630SOL    HW2 1890   2.187   0.850   2.178  1.6016  1.0392  0.9841
  631SOL     OW 1891   1.919   0.337   0.645  0.0071 -0.5009  0.1493
  631SOL    HW1 1892   1.930   0.257   0.710  0.8575  0.1387  1.5006
  631SOL    HW2 1893   1.838   0.336   0.590  1.5102 -1.1968 -0.3089
  632SOL     OW 1894   0.171   0.435   1.622 -0.6415 -0.5537  0.3309
  632SOL    HW1 1895   0.098   0.381   1.664  0.5255  0.6646  1.2702
  632SOL    HW2 1896   0.209   0.499   1.690 -0.0865  1.0081  0.1947
  633SOL     OW 1897   0.996   0.379   3.111  0.0946  0.1008 -0.5502
  633SOL    HW1 1898   0.945   0.375   3.024  1.6455  1.2732  2.0339
  633SOL    HW2 1899   0.976   0.298   0.053 -1.8200  1.3356  1.8929
  634SOL     OW 1900   0.707   2.542   0.050 -0.4576  0.0841  0.0102
  634SOL    HW1 1901   0.779   2.600   0.088 -0.3691 -0.8119  1.4506
  634SOL    HW2 1902   0.746   2.465   3.114 -2.2067  0.0336 -1.4634
  635SOL     OW 1903   0.148   0.613   0.589 -0.0759  0.2490 -1.1691
  635SOL    HW1 1904   0.073   0.573   0.535  1.5529 -1.6514  1.0157
  635SOL    HW2 1905   0.209   0.670   0.529 -0.2988  0.9985  0.0838
  636SOL     OW 1906   0.552   1.288   0.067 -0.3211  0.4230 -0.1577
  636SOL    HW1 1907   0.574   1.194   0.053 -1.2718  4.5976  2.3107
  636SOL    HW2 1908   0.611   1.350   0.013 -0.6818  2.2200  1.2598
  637SOL     OW 1909   0.246   2.737   0.495 -0.0604  0.1084  0.3886
  637SOL    HW1 1910   0.223   2.643   0.515  0.7918  0.6153 -0.7685
  637SOL    HW2 1911   0.160   2.786   0.466 -0.9746  0.8216 -0.2119
  638SOL     OW 1912   2.876   2.546   0.562 -0.0946 -0.0672  0.3939
  638SOL    HW1 1913   2.867   2.444   0.557 -2.8099 -2.6791 -0.0983
  638SOL    HW2 1914   2.966   2.566   0.601  1.5199  0.1093  0.2172
  639SOL     OW 1915   1.834   0.903   0.134  0.1936  0.1664 -0.5102
  639SOL    HW1 1916   1.775   0.863   0.058 -2.2707 -1.0323 -0.7628
  639SOL    HW2 1917   1.831   1.005   0.144 -1.2579 -0.6186 -0.0165
  640SOL     OW 1918   1.573   2.241   1.569 -0.0473 -0.3102 -0.7346
  640SOL    HW1 1919   1.483   2.296   1.565 -1.1242  0.4301  1.0605
  640SOL    HW2 1920   1.633   2.263   1.492 -1.8489 -2.1414  2.5310
  641SOL     OW 1921   0.004   2.504   1.179  0.0265 -0.1077  0.2508
  641SOL    HW1 1922   0.059   2.569   1.234 -2.2130  3.1105  0.2955
  641SOL    HW2 1923   0.012   2.411   1.221 -1.6519 -0.9233  1.5946
  642SOL     OW 1924   1.053   0.203   1.765  0.5844 -0.4497 -0.0277
  642SOL    HW1 1925   1.053   0.203   1.667 -2.1351  1.9353  0.9697
  642SOL    HW2 1926   1.134   0.253   1.805 -0.0526  1.7392  1.4676
  643SOL     OW 1927   0.923   2.521   2.820  0.0314 -0.1039 -0.0618
  643SOL    HW1 1928   0.908   2.434   2.765  0.3108  0.7006 -2.1152
  643SOL    HW2 1929   1.023   2.544   2.817  3.1934  3.3374  1.1326
  644SOL     OW 1930   1.364   2.627   0.749  0.3482  0.4746 -0.9482
  644SOL    HW1 1931   1.404   2.530   0.735  0.6286  1.1150  1.8173
  644SOL    HW2 1932   1.263   2.624   0.740 -0.3338 -0.7083 -0.9249
  645SOL     OW 1933   1.519   1.182   1.702 -0.0029  0.2777 -0.2696
  645SOL    HW1 1934   1.614   1.155   1.693  0.4423 -0.2499 -0.9371
  645SOL    HW2 1935   1.485   1.211   1.610  0.5193 -2.0814  0.8682
  646SOL     OW 1936   0.140   0.580   0.127 -0.4070  0.1051  0.0919
  646SOL    HW1 1937   0.127   0.559   0.223  0.4313 -0.2989 -1.9143
  646SOL    HW2 1938   0.070   0.645   0.096  0.9801 -1.1782 -1.4522
  647SOL     OW 1939   1.187   0.216   0.516 -0.1914  0.2310  0.1396
  647SOL    HW1 1940   1.183   0.155   0.434  5.6560  1.4205  0.4064
  647SOL    HW2 1941   1.227   0.310   0.494 -0.2393  2.5645 -1.6166
  648SOL     OW 1942   2.401   2.797   1.216  0.7683  0.3367  0.4897
  648SOL    HW1 1943   2.419   2.695   1.211  0.8781  0.7295  0.2841
  648SOL    HW2 1944   2.323   2.810   1.281 -0.5664 -0.1969  0.3060
  649SOL     OW 1945   0.673   2.085   2.954 -0.0425 -0.0943 -0.2748
  649SOL    HW1 1946   0.594   2.037   2.910  0.4055 -1.6543  0.1912
  649SOL    HW2 1947   0.647   2.110   3.050 -1.5214  1.3495  2.3844
  650SOL     OW 1948   2.274   1.945   1.929  0.1628  0.1609 -0.1112
  650SOL    HW1 1949   2.195   2.005   1.926  3.2299 -0.3290 -0.8624
  650SOL    HW2 1950   2.281   1.886   2.012 -3.0890 -1.6002  0.3272
  651SOL     OW 1951   3.069   2.958   2.686 -0.0013 -0.5118  0.2126
  651SOL    HW1 1952   2.977   2.921   2.709  1.1845  0.4894  0.0908
  651SOL    HW2 1953   3.052   3.043   2.645  0.8534  0.6585 -0.4110
  652SOL     OW 1954   2.770   1.586   0.455 -0.0437  0.2408  0.0675
  652SOL    HW1 1955   2.759   1.595   0.555  1.9698 -0.1513  0.8558
  652SOL    HW2 1956   2.869   1.575   0.429  2.2144  0.9543 -0.5220
  653SOL     OW 1957   0.281   0.383   0.950 -0.5361 -0.3860 -0.2620
  653SOL    HW1 1958   0.289   0.443   0.864  0.6829  1.1611 -1.6297
  653SOL    HW2 1959   0.375   0.352   0.980  4.0451 -1.6232  0.6094
  654SOL     OW 1960   0.947   0.175   0.182 -1.0093  0.4147 -0.2704
  654SOL    HW1 1961   1.030   0.142   0.236  1.0304  0.6807 -1.4580
  654SOL    HW2 1962   0.863   0.118   0.191  1.3530  2.0737 -1.6208
  655SOL     OW 1963   0.650   2.877   1.135  1.0212  0.3762  0.2719
  655SOL    HW1 1964   0.664   2.956   1.196 -0.6251 -0.8886  1.0855
  655SOL    HW2 1965   0.554   2.865   1.101 -1.3572 -0.6890 -2.4657
  656SOL     OW 1966   0.022   2.921   2.099 -0.6762  0.2775  0.2855
  656SOL    HW1 1967   0.085   2.982   2.150  1.7824  1.4396  0.1676
  656SOL    HW2 1968   0.045   2.925   2.002 -0.7349 -1.0497  2.5503
  657SOL     OW 1969   1.879   0.842   2.394  0.2530 -0.2323 -0.5596
  657SOL    HW1 1970   1.809   0.890   2.451  0.5305 -1.7658  0.7854
  657SOL    HW2 1971   1.906   0.755   2.444  0.5585 -0.0803 -1.3242
  658SOL     OW 1972   1.874   1.593   1.249  0.5125 -0.5636  0.9158
  658SOL    HW1 1973   1.878   1.664   1.175  0.9139  0.4425  1.2349
  658SOL    HW2 1974   1.830   1.628   1.330 -0.7618 -2.8308 -4.7695
  659SOL     OW 1975   2.478   2.606   2.787  0.0668 -0.4336  0.2217
  659SOL    HW1 1976   2.553   2.668   2.751 -0.7411  3.4723  0.3491
  659SOL    HW2 1977   2.410   2.654   2.846 -2.3908  0.9379  0.6554
  660SOL     OW 1978   1.303   0.723   0.479  0.3775  0.0864 -0.3797
  660SOL    HW1 1979   1.335   0.810   0.528 -1.8102  0.9659  1.0818
  660SOL    HW2 1980   1.377   0.677   0.421  1.4840 -0.5976 -2.2705
  661SOL     OW 1981   2.533   2.919   0.314 -0.3259  0.4747  0.2772
  661SOL    HW1 1982   2.574   2.951   0.402 -0.1683  0.5273  1.4715
  661SOL    HW2 1983   2.520   2.995   0.252 -1.2339 -3.1425  1.0639
  662SOL     OW 1984   1.000   0.264   1.245  0.2169  0.0857  0.5040
  662SOL    HW1 1985   0.959   0.350   1.206 -1.5003  2.3334  0.2990
  662SOL    HW2 1986   1.030   0.205   1.171 -2.1474  0.8286 -2.3199
  663SOL     OW 1987   1.353   3.069   2.264 -0.1340 -0.1971 -0.1814
  663SOL    HW1 1988   1.263   3.031   2.247 -0.4844  2.8888 -0.0657
  663SOL    HW2 1989   1.356   0.028   2.328 -1.4271 -0.9027 -0.2322
  664SOL     OW 1990   0.708   2.314   1.672 -0.2509 -0.2830  0.6369
  664SOL    HW1 1991   0.782   2.250   1.686 -1.5025  2.5005 -0.4290
  664SOL    HW2 1992   0.625   2.259   1.647 -1.9660 -1.2902  0.9720
  665SOL     OW 1993   0.990   2.207   1.697  0.0311  0.4389  0.8460
  665SOL    HW1 1994   0.937   2.155   1.764  0.3201  2.5099 -2.6365
  665SOL    HW2 1995   1.052   2.150   1.635 -0.0814 -0.4029  0.9890
  666SOL     OW 1996   0.051   2.728   3.081  0.4201 -0.1753  0.6961
  666SOL    HW1 1997   0.071   2.798   3.007  1.2399  0.6088  1.0587
  666SOL    HW2 1998   0.096   2.641   3.071 -1.9289 -1.1593  0.4535
  667SOL     OW 1999   1.394   1.581   1.431  0.1627  0.3807 -0.5877
  667SOL    HW1 2000   1.351   1.592   1.526  0.9321 -1.1129 -0.2873
  667SOL    HW2 2001   1.415   1.676   1.395 -1.7734  1.4776 -2.4209
  668SOL     OW 2002   1.236   0.332   2.345 -0.2709 -0.1079  0.1395
  668SOL    HW1 2003   1.286   0.305   2.429 -1.1241  1.2360 -1.8971
  668SOL    HW2 2004   1.172   0.412   2.364 -2.5200  0.4343  0.9178
  669SOL     OW 2005   2.482   2.290   1.656  0.2142 -0.1845  0.0778
  669SOL    HW1 2006   2.385   2.259   1.674 -2.2196  1.4700  1.9892
  669SOL    HW2 2007   2.529   2.303   1.749  2.7818  4.4012  1.3829
  670SOL     OW 2008   1.806   2.012   0.208  0.1724  0.3631 -0.0551
  670SOL    HW1 2009   1.827   2.074   0.288  0.9044 -0.9683  1.2251
  670SOL    HW2 2010   1.853   2.057   0.131  1.4217 -0.4890  0.9064
  671SOL     OW 2011   1.333   0.972   1.063  0.7370  0.1653  0.3360
  671SOL    HW1 2012   1.364   0.888   1.112 -2.2653  2.1275 -2.3373
  671SOL    HW2 2013   1.350   1.057   1.115 -0.1284 -0.0027 -1.5251
  672SOL     OW 2014   2.581   1.262   2.560 -0.1813  0.4571 -0.1457
  672SOL    HW1 2015   2.587   1.345   2.499 -1.8940  0.1816  0.5791
  672SOL    HW2 2016   2.617   1.178   2.519  0.1805  3.1533  3.0263
  673SOL     OW 2017   3.084   1.711   1.585  0.1726  0.2522 -0.3552
  673SOL    HW1 2018   2.982   1.700   1.602  0.6290 -0.6480  2.0552
  673SOL    HW2 2019   3.100   1.762   1.498 -0.7939 -2.1374  0.0846
  674SOL     OW 2020   0.997   2.562   2.464  0.3285 -0.6269 -0.3142
  674SOL    HW1 2021   1.000   2.653   2.510 -1.8588 -0.2219  1.4612
  674SOL    HW2 2022   0.968   2.493   2.531  1.2024 -0.3123 -0.3405
  675SOL     OW 2023   1.045   1.233   1.652  0.0283 -0.2873 -0.1255
  675SOL    HW1 2024   1.113   1.224   1.584 -2.7480 -0.0280  1.8111
  675SOL    HW2 2025   0.951   1.198   1.628 -0.1450 -0.3531  0.5802
  676SOL     OW 2026   2.307   0.479   0.764 -0.0848 -0.0701  0.5328
  676SOL    HW1 2027   2.317   0.497   0.663  0.2590 -1.2420  1.3749
  676SOL    HW2 2028   2.399   0.498   0.808 -0.4663 -0.2954  0.9096
  677SOL     OW 2029   2.473   1.491   2.959 -0.1495 -0.1340 -0.0902
  677SOL    HW1 2030   2.518   1.400   2.946  1.3906 -2.7094  0.7996
  677SOL    HW2 2031   2.523   1.564   2.906  0.0602  2.1228 -2.4863
  678SOL     OW 2032   0.248   2.979   1.209  0.2708  0.4461  0.2559
  678SOL    HW1 2033   0.158   2.979   1.164  1.2006 -0.2204 -1.8578
  678SOL    HW2 2034   0.245   3.022   1.300 -0.6750  2.8249 -2.0171
  679SOL     OW 2035   2.286   0.329   0.184  0.1794 -0.0368 -0.7789
  679SOL    HW1 2036   2.274   0.315   0.080 -0.9400  2.4775 -1.4258
  679SOL    HW2 2037   2.287   0.237   0.231 -2.3592 -1.9778 -1.0026
  680SOL     OW 2038   0.297   2.237   1.867  0.4425  0.2182 -0.7486
  680SOL    HW1 2039   0.259   2.217   1.778  1.5511  1.2356  0.3462
  680SOL    HW2 2040   0.321   2.337   1.881  0.4470 -3.4918  0.6068
  681SOL     OW 2041   2.099   1.993   1.305 -0.0069 -0.1159  0.0410
  681SOL    HW1 2042   2.003   1.983   1.328  1.0031 -0.3751 -0.4385
  681SOL    HW2 2043   2.133   1.918   1.243 -0.8089  2.0567  0.5114
  682SOL     OW 2044   0.073   2.077   2.022  0.2117 -0.1517 -0.4543
  682SOL    HW1 2045   0.058   2.008   1.951 -0.9567  0.5420 -1.9863
  682SOL    HW2 2046   0.151   2.138   2.000 -3.2175 -1.0719  0.1564
  683SOL     OW 2047   0.063   2.232   1.293 -0.2687  0.0494  0.3309
  683SOL    HW1 2048   0.096   2.135   1.297  0.0517 -1.6586  0.5055
  683SOL    HW2 2049   3.095   2.252   1.349 -0.5369 -0.9073 -0.2260
  684SOL     OW 2050   2.233   0.800   2.565  0.2864  0.3886  0.5964
  684SOL    HW1 2051   2.286   0.857   2.502 -1.0576 -0.5868  0.1711
  684SOL    HW2 2052   2.241   0.833   2.661  0.1120 -0.4783 -0.1034
  685SOL     OW 2053   1.234   1.393   0.384 -0.1444  0.4753  0.0658
  685SOL    HW1 2054   1.302   1.466   0.377 -0.6800 -1.4149  1.1069
  685SOL    HW2 2055   1.180   1.398   0.471 -2.5793  2.5944 -0.2490
  686SOL     OW 2056   0.079   0.137   0.571  0.0799 -0.4448 -0.5387
  686SOL    HW1 2057   0.173   0.168   0.583 -0.7759 -0.9863 -0.4390
  686SOL    HW2 2058   0.057   0.050   0.622  0.3205  0.1268  2.3944
  687SOL     OW 2059   1.479   1.371   2.572  0.6461 -0.1820 -0.4892
  687SOL    HW1 2060   1.509   1.470   2.569  1.1923 -1.0061  1.3495
  687SOL    HW2 2061   1.518   1.311   2.502  0.2528  0.6552  0.8448
  688SOL     OW 2062   1.472   1.334   1.486  0.1166 -0.3967  0.6182
  688SOL    HW1 2063   1.572   1.344   1.503  1.7804 -1.6462  0.6848
  688SOL    HW2 2064   1.432   1.430   1.476 -1.8740  2.7099  0.5462
  689SOL     OW 2065   2.361   0.136   1.377 -0.2253  0.6187  0.4778
  689SOL    HW1 2066   2.372   0.216   1.311 -2.1048  1.8697 -0.6694
  689SOL    HW2 2067   2.334   0.053   1.323  0.6415  2.9653  0.7958
  690SOL     OW 2068   3.112   1.427   1.109 -0.1028  0.6245 -0.6921
  690SOL    HW1 2069   3.014   1.422   1.145 -3.5175  2.0564  0.6317
  690SOL    HW2 2070   0.060   1.353   1.155  2.4325 -0.5487 -0.9620
  691SOL     OW 2071   0.528   2.485   1.265 -0.4896  0.8910  0.0501
  691SOL    HW1 2072   0.597   2.407   1.265  1.8956  1.0725  0.1175
  691SOL    HW2 2073   0.583   2.571   1.275  0.6229  1.4077  0.1087
  692SOL     OW 2074   2.330   0.666   1.881 -0.2181  0.1092 -0.1867
  692SOL    HW1 2075   2.290   0.756   1.856 -0.3936  1.5573 -0.8354
  692SOL    HW2 2076   2.371   0.666   1.972 -1.6832 -0.2146 -0.9683
  693SOL     OW 2077   0.403   1.752   2.202 -0.1687  0.8555  0.2980
  693SOL    HW1 2078   0.472   1.679   2.219  0.2973  0.2142 -0.4276
  693SOL    HW2 2079   0.326   1.743   2.269 -2.2087  0.6455 -0.3517
  694SOL     OW 2080   1.575   0.997   1.402  0.1619  0.4479  0.4741
  694SOL    HW1 2081   1.479   0.978   1.407  2.6844  2.7969 -1.0264
  694SOL    HW2 2082   1.633   0.923   1.434 -1.2425  0.8661 -1.3942
  695SOL     OW 2083   0.772   1.335   0.792 -0.4733  0.3194 -0.0021
  695SOL    HW1 2084   0.791   1.254   0.853 -0.1632  0.0418 -1.1851
  695SOL    HW2 2085   0.703   1.307   0.722 -1.4904 -1.8592  1.1489
  696SOL     OW 2086   1.126   2.926   0.385 -0.2562 -0.0440  0.2700
  696SOL    HW1 2087   1.110   2.824   0.380 -1.6946  0.4046  0.9365
  696SOL    HW2 2088   1.190   2.954   0.462  0.0815  0.5123  1.2446
  697SOL     OW 2089   1.274   0.413   1.834  0.3598  0.3431 -0.0709
  697SOL    HW1 2090   1.336   0.394   1.912  1.5399  0.5529 -0.5378
  697SOL    HW2 2091   1.233   0.502   1.855 -0.9743 -1.3222 -1.2824
  698SOL     OW 2092   1.741   1.462   2.037  0.0340  0.0712  0.5728
  698SOL    HW1 2093   1.808   1.529   2.069  1.2021  1.2843  0.8577
  698SOL    HW2 2094   1.710   1.481   1.942  2.0090  0.1838  0.6743
  699SOL     OW 2095   2.584   0.209   2.084 -0.1188  0.0094 -0.6439
  699SOL    HW1 2096   2.673   0.235   2.129  1.4606  0.1408  0.5622
  699SOL    HW2 2097   2.580   0.107   2.073  0.3887 -0.8023  0.3470
  700SOL     OW 2098   0.812   2.228   0.563 -0.2543 -0.0537  0.0714
  700SOL    HW1 2099   0.761   2.317   0.561 -1.0128 -0.2359  0.4003
  700SOL    HW2 2100   0.836   2.199   0.469 -0.2795  1.3626  2.7924
  701SOL     OW 2101   1.971   2.768   2.685 -0.3205 -0.2831  0.2730
  701SOL    HW1 2102   1.884   2.794   2.641  3.6085  0.3883  0.5685
  701SOL    HW2 2103   1.954   2.770   2.786 -1.3693 -0.5999 -0.8553
  702SOL     OW 2104   1.024   0.059   1.059 -0.2744  0.3877  0.6501
  702SOL    HW1 2105   1.066   3.082   1.050 -1.4996 -2.4155 -0.1199
  702SOL    HW2 2106   1.020   0.092   0.964  0.5588 -0.0123 -1.1654
  703SOL     OW 2107   2.391   2.988   2.083  0.2683 -0.1155 -0.3144
  703SOL    HW1 2108   2.311   3.032   2.036  0.2157  0.5578 -2.8344
  703SOL    HW2 2109   2.362   2.936   2.168 -0.6879 -0.5173  1.6274
  704SOL     OW 2110   2.842   2.257   0.556 -0.3560 -0.4073  0.3087
  704SOL    HW1 2111   2.909   2.226   0.627  2.1886  1.0013 -1.8459
  704SOL    HW2 2112   2.748   2.266   0.593  0.5479  0.3269  1.9066
  705SOL     OW 2113   2.274   2.859   2.288  0.7996  0.5302  0.3184
  705SOL    HW1 2114   2.210   2.900   2.360 -0.4779  1.2924 -2.1710
  705SOL    HW2 2115   2.226   2.785   2.232 -0.9090 -0.6426 -1.7157
  706SOL     OW 2116   2.314   3.048   1.134 -0.0491  0.0688 -0.0203
  706SOL    HW1 2117   2.362   3.105   1.062 -0.7051 -0.0871 -2.0505
  706SOL    HW2 2118   2.367   2.962   1.144 -0.3440 -1.9496 -0.4608
  707SOL     OW 2119   1.028   3.090   2.256  0.2876  0.5398  0.1210
  707SOL    HW1 2120   1.075   3.052   2.176  0.7153  2.0370 -1.4261
  707SOL    HW2 2121   0.933   3.111   2.233 -0.0552 -2.5288 -2.1077
  708SOL     OW 2122   0.161   2.156   1.634 -0.4780  0.8748 -0.1497
  708SOL    HW1 2123   0.142   2.257   1.633 -1.1657  1.0305  1.0940
  708SOL    HW2 2124   0.160   2.124   1.538 -0.4272  1.6795  1.6091
  709SOL     OW 2125   1.567   0.390   1.481  0.8785  0.0744  0.0356
  709SOL    HW1 2126   1.574   0.468   1.415  1.7759  0.2221  0.7716
  709SOL    HW2 2127   1.647   0.331   1.458 -0.0571  1.0099  0.0251
  710SOL     OW 2128   0.705   3.097   2.709  0.0690  1.0035  0.2266
  710SOL    HW1 2129   0.796   3.054   2.695 -0.1386 -1.5061  0.5116
  710SOL    HW2 2130   0.683   0.063   2.652 -0.4096 -0.0789  2.7301
  711SOL     OW 2131   0.695   2.176   2.524  0.1617 -0.0997  0.4946
  711SOL    HW1 2132   0.601   2.186   2.562  0.6351  0.5306  0.7249
  711SOL    HW2 2133   0.705   2.101   2.461  0.6321  2.4819 -1.5821
  712SOL     OW 2134   1.067   2.146   3.010  0.4044  0.5832 -0.3409
  712SOL    HW1 2135   1.109   2.236   3.029 -1.1516 -0.6299 -0.5568
  712SOL    HW2 2136   1.110   2.111   2.925  0.6356  1.1426 -0.2637
  713SOL     OW 2137   1.936   0.884   1.934 -0.0132  0.3232  0.0885
  713SOL    HW1 2138   1.839   0.916   1.941 -2.9335 -2.8599  0.2616
  713SOL    HW2 2139   1.954   0.821   2.011  2.0998  1.2932  1.3168
  714SOL     OW 2140   1.050   1.777   1.763 -0.3013 -0.0727 -0.0826
  714SOL    HW1 2141   1.140   1.811   1.732  0.0410  2.0580  3.3072
  714SOL    HW2 2142   1.030   1.691   1.711  2.7329 -0.7733  4.7740
  715SOL     OW 2143   2.420   0.559   0.194  0.3482 -0.7219 -0.3179
  715SOL    HW1 2144   2.363   0.472   0.200 -3.0996 -0.8251  1.8140
  715SOL    HW2 2145   2.356   0.639   0.202  0.8109  3.9920  1.4119
  716SOL     OW 2146   2.980   2.312   1.453  0.0385  0.4762 -0.3691
  716SOL    HW1 2147   2.905   2.247   1.427  0.5295  1.3140 -1.7081
  716SOL    HW2 2148   2.964   2.349   1.546  0.1387 -3.8703  1.2880
  717SOL     OW 2149   2.736   1.201   1.036 -0.0640 -0.4823 -0.5116
  717SOL    HW1 2150   2.701   1.154   1.120 -2.8976 -0.2805 -0.1542
  717SOL    HW2 2151   2.774   1.130   0.974  0.0955  1.7792  0.1855
  718SOL     OW 2152   1.273   1.614   1.684  0.3418  0.0831  0.3467
  718SOL    HW1 2153   1.335   1.559   1.739 -2.0725 -0.7255 -1.9632
  718SOL    HW2 2154   1.180   1.566   1.666  0.4940  0.7989 -3.5300
  719SOL     OW 2155   2.921   0.577   0.169 -0.5505  0.1296 -0.3128
  719SOL    HW1 2156   2.881   0.595   0.078 -0.8019 -0.3802  1.6745
  719SOL    HW2 2157   2.960   0.486   0.171 -0.8950 -1.1753 -0.1907
  720SOL     OW 2158   1.116   0.119   0.750 -0.4562  0.1207 -0.0523
  720SOL    HW1 2159   1.157   0.171   0.672  0.3319 -2.3854 -2.5187
  720SOL    HW2 2160   1.018   0.107   0.739 -0.3882  2.6208  0.1010
  721SOL     OW 2161   2.645   0.708   0.558  0.6847 -0.8100  0.2722
  721SOL    HW1 2162   2.677   0.694   0.462 -1.8052 -0.2549  1.2968
  721SOL    HW2 2163   2.658   0.620   0.615  2.2690 -1.1127  0.8632
  722SOL     OW 2164   0.634   2.470   2.468 -0.4674 -0.2896 -0.2054
  722SOL    HW1 2165   0.667   2.534   2.539 -2.8972  0.2234  0.4809
  722SOL    HW2 2166   0.641   2.374   2.490  0.9440  1.4395 -0.4555
  723SOL     OW 2167   1.931   0.030   1.024 -0.0591  0.0761 -0.3259
  723SOL    HW1 2168   1.976   0.097   1.089  0.3961  1.8290  1.0864
  723SOL    HW2 2169   1.855   0.075   0.972 -1.5997 -3.4460  0.0408
  724SOL     OW 2170   1.074   1.939   2.359 -0.4645  0.2814 -0.4760
  724SOL    HW1 2171   0.976   1.923   2.375 -2.3020 -0.3641 -0.4207
  724SOL    HW2 2172   1.083   2.036   2.332 -3.6766  3.0852 -0.0555
  725SOL     OW 2173   1.414   2.799   1.319  0.4729  0.0095  0.5198
  725SOL    HW1 2174   1.344   2.862   1.357  1.6313 -0.5849  0.8477
  725SOL    HW2 2175   1.505   2.848   1.299  1.4529  0.4643 -1.0291
  726SOL     OW 2176   2.076   2.883   0.118 -0.9048 -0.1178  0.2840
  726SOL    HW1 2177   2.090   2.811   0.049  0.9603  0.4024 -1.1860
  726SOL    HW2 2178   2.155   2.884   0.188  3.0036 -0.9553  1.8718
  727SOL     OW 2179   1.394   1.781   0.935 -0.5299  0.3996  0.5571
  727SOL    HW1 2180   1.389   1.708   1.005  3.3285  0.5762 -0.7973
  727SOL    HW2 2181   1.449   1.756   0.856  0.5273  2.4680  1.2465
  728SOL     OW 2182   2.120   2.703   2.103  0.4611 -0.3787  0.0614
  728SOL    HW1 2183   2.185   2.741   2.029  1.1507 -0.2782 -0.0673
  728SOL    HW2 2184   2.140   2.608   2.118 -0.2352  2.5686  0.4318
  729SOL     OW 2185   1.807   2.262   1.387 -0.3099 -0.2759  0.2471
  729SOL    HW1 2186   1.785   2.345   1.338 -1.8858  0.7984 -1.3939
  729SOL    HW2 2187   1.866   2.286   1.463 -0.4846 -0.6639 -0.2070
  730SOL     OW 2188   1.695   0.960   2.534  0.0224  0.1124  0.0188
  730SOL    HW1 2189   1.654   0.932   2.626 -2.1154 -1.2292  0.4286
  730SOL    HW2 2190   1.629   1.019   2.482 -2.1118 -3.4754  1.6537
  731SOL     OW 2191   0.861   3.044   1.419  0.0731  0.0615 -0.9503
  731SOL    HW1 2192   0.898   2.952   1.407  0.0288  0.5435 -1.5768
  731SOL    HW2 2193   0.857   3.099   1.333  1.6815 -1.1964  1.6581
  732SOL     OW 2194   1.311   3.041   0.784  0.1213  0.0832 -0.4102
  732SOL    HW1 2195   1.238   3.108   0.755 -1.7663 -0.1183  0.8959
  732SOL    HW2 2196   1.400   3.076   0.810 -1.1504  2.5464 -1.9803
  733SOL     OW 2197   1.290   1.209   0.698 -0.9112  0.2174  0.2279
  733SOL    HW1 2198   1.386   1.247   0.695  1.0252  2.6715  0.2311
  733SOL    HW2 2199   1.283   1.118   0.649 -0.1228  0.8877  1.3141
  734SOL     OW 2200   2.302   2.277   2.550 -0.1959 -0.5616  0.4186
  734SOL    HW1 2201   2.207   2.297   2.521 -1.4584 -1.7417 -6.0169
  734SOL    HW2 2202   2.356   2.254   2.466 -1.9918 -1.2299  0.0920
  735SOL     OW 2203   0.769   0.032   1.162  0.0553 -0.3964 -0.3490
  735SOL    HW1 2204   0.850   0.065   1.109  0.7917 -1.8316  1.2592
  735SOL    HW2 2205   0.684   0.087   1.159 -3.3105 -1.4366  0.6216
  736SOL     OW 2206   1.412   2.260   2.978 -0.7360  0.7377  0.7825
  736SOL    HW1 2207   1.470   2.249   3.064 -0.3330  1.4643 -2.3279
  736SOL    HW2 2208   1.414   2.170   2.924 -1.2815  0.8774  2.6764
  737SOL     OW 2209   0.663   2.250   1.332  0.1018 -0.1389  0.2165
  737SOL    HW1 2210   0.637   2.243   1.429  1.8758 -1.0654 -1.5169
  737SOL    HW2 2211   0.757   2.209   1.326  0.4702 -0.0947  1.2985
  738SOL     OW 2212   1.385   2.986   2.885 -0.3713  0.2934  0.2550
  738SOL    HW1 2213   1.309   3.001   2.940  3.1989 -1.4501 -5.4815
  738SOL    HW2 2214   1.468   2.980   2.944 -2.1410 -0.2953  0.6231
  739SOL     OW 2215   0.976   2.181   2.234 -0.3401 -0.4162  0.1498
  739SOL    HW1 2216   1.018   2.197   2.143 -2.1902 -0.4172  1.8835
  739SOL    HW2 2217   0.938   2.273   2.258  1.4257  1.4580  1.4070
  740SOL     OW 2218   1.462   2.469   1.365  0.5047 -0.6486 -0.8890
  740SOL    HW1 2219   1.411   2.436   1.280  0.8030 -3.2458 -1.2836
  740SOL    HW2 2220   1.425   2.429   1.449  0.2187  2.7155 -2.3252
  741SOL     OW 2221   2.771   1.068   0.130 -0.0572  0.5315  0.1497
  741SOL    HW1 2222   2.708   1.023   0.191  3.1702  1.9811 -2.9913
  741SOL    HW2 2223   2.745   1.165   0.126 -1.4060  2.3239 -2.5365
  742SOL     OW 2224   0.750   1.597   2.470  0.4544  1.1366  0.3271
  742SOL    HW1 2225   0.814   1.523   2.508  0.2679 -2.5878  0.9118
  742SOL    HW2 2226   0.695   1.568   2.389  2.6401  2.7090  2.4589
  743SOL     OW 2227   0.556   1.023   2.625 -0.7228  0.4125 -0.5002
  743SOL    HW1 2228   0.639   1.078   2.615 -0.5713  0.3560 -1.4393
  743SOL    HW2 2229   0.579   0.927   2.598 -1.5978  4.7788 -0.1792
  744SOL     OW 2230   2.149   2.458   1.349 -0.5130  0.2594 -0.0252
  744SOL    HW1 2231   2.243   2.502   1.337  1.4231  0.7558 -0.2656
  744SOL    HW2 2232   2.074   2.518   1.322  1.4812  0.2285 -1.3009
  745SOL     OW 2233   2.078   1.216   1.391 -0.0197  0.6655  0.8330
  745SOL    HW1 2234   2.064   1.149   1.306 -1.1253 -1.8498 -3.8148
  745SOL    HW2 2235   2.057   1.312   1.366  2.3550 -0.5302  3.9404
  746SOL     OW 2236   2.123   0.996   1.088  0.5241 -0.0022  0.1026
  746SOL    HW1 2237   2.169   1.072   1.031 -0.5746  1.4958 -1.2346
  746SOL    HW2 2238   2.023   1.020   1.100 -3.9045 -0.4272  2.2738
  747SOL     OW 2239   1.793   1.594   0.694  0.4847  0.1620  0.3954
  747SOL    HW1 2240   1.837   1.674   0.650 -1.8139 -0.5003  0.8933
  747SOL    HW2 2241   1.849   1.513   0.669 -1.7180  0.0727  0.9586
  748SOL     OW 2242   0.573   1.527   0.447 -0.4510  0.0805  0.1134
  748SOL    HW1 2243   0.491   1.563   0.496  0.9693  1.2174  1.7075
  748SOL    HW2 2244   0.568   1.555   0.352 -1.0618 -0.4023  1.1244
  749SOL     OW 2245   2.996   2.636   2.484 -0.0595  0.1852 -0.4426
  749SOL    HW1 2246   2.932   2.561   2.463  1.2427 -0.5229  0.9109
  749SOL    HW2 2247   2.958   2.687   2.563 -0.0693  0.9386  0.3278
  750SOL     OW 2248   2.097   0.510   1.148 -0.4564  0.1400 -0.2053
  750SOL    HW1 2249   2.151   0.593   1.141 -2.7444  1.8846  0.6719
  750SOL    HW2 2250   2.151   0.447   1.206  0.4823 -0.5613 -0.1616
  751SOL     OW 2251   2.264   0.060   0.298  0.2106  0.7464 -0.3364
  751SOL    HW1 2252   2.250   0.025   0.202  1.0268  1.7382  1.4460
  751SOL    HW2 2253   2.190   0.022   0.361  1.3045  0.0850  1.6920
  752SOL     OW 2254   2.181   2.223   0.416 -0.9506 -0.2497 -0.4748
  752SOL    HW1 2255   2.209   2.292   0.483 -2.6255  1.8516  1.7920
  752SOL    HW2 2256   2.253   2.143   0.421  0.7621 -0.7265  1.3993
  753SOL     OW 2257   1.763   1.725   2.396 -0.8271 -0.0096 -0.2046
  753SOL    HW1 2258   1.821   1.766   2.325 -0.5706 -0.1558 -0.0209
  753SOL    HW2 2259   1.769   1.785   2.480 -0.7590 -0.0486  0.4477
  754SOL     OW 2260   2.595   2.122   1.464  0.2163  0.0163  0.1220
  754SOL    HW1 2261   2.578   2.190   1.541  0.0123 -0.9684  0.0228
  754SOL    HW2 2262   2.513   2.124   1.402 -0.8301 -0.2956  1.5263
  755SOL     OW 2263   2.443   0.695   0.972 -0.3426  0.6297  0.1304
  755SOL    HW1 2264   2.412   0.685   1.067  0.4702  0.6078  1.8262
  755SOL    HW2 2265   2.499   0.614   0.948 -2.0031  1.7318  0.8149
  756SOL     OW 2266   1.210   1.576   2.639  0.2259 -0.1877 -0.2534
  756SOL    HW1 2267   1.260   1.654   2.601 -1.9044 -0.9354 -0.0739
  756SOL    HW2 2268   1.239   1.495   2.592 -1.5556 -0.2192  0.9982
  757SOL     OW 2269   2.005   2.647   1.150  0.1807 -0.6826  0.0319
  757SOL    HW1 2270   1.907   2.663   1.142  2.1360  1.9872  0.0402
  757SOL    HW2 2271   2.044   2.662   1.056  1.2974  1.0898 -3.7072
  758SOL     OW 2272   1.170   2.315   1.383 -0.3415 -0.0012  0.6387
  758SOL    HW1 2273   1.204   2.233   1.330  0.9767 -3.2230 -1.5405
  758SOL    HW2 2274   1.211   2.335   1.474 -0.7448 -1.6717 -0.2268
  759SOL     OW 2275   2.244   1.241   1.063  0.0027  0.5049  0.3739
  759SOL    HW1 2276   2.257   1.312   1.134  0.7570 -3.3837  1.0943
  759SOL    HW2 2277   2.212   1.277   0.969  0.0358  0.4239  1.6549
  760SOL     OW 2278   2.164   0.854   1.336  0.1046  0.0905 -0.1433
  760SOL    HW1 2279   2.145   0.887   1.242  1.3844 -3.8360  0.1783
  760SOL    HW2 2280   2.224   0.918   1.387 -1.3967 -1.0617  0.0614
  761SOL     OW 2281   1.928   3.062   0.267  0.4134  0.3579 -0.0165
  761SOL    HW1 2282   1.984   3.071   0.355  0.2737 -0.8930  3.5221
  761SOL    HW2 2283   1.971   2.994   0.211 -1.4260  1.7925 -2.1183
  762SOL     OW 2284   1.912   1.735   2.994  0.0908 -0.1962 -0.8183
  762SOL    HW1 2285   1.878   1.833   2.985  0.4565  0.4761 -0.4835
  762SOL    HW2 2286   1.972   1.729   3.076  1.2575  0.8236  3.1290
  763SOL     OW 2287   0.416   1.223   1.144  0.3058 -0.3039 -0.0744
  763SOL    HW1 2288   0.421   1.327   1.158  0.6422  0.5464  2.7058
  763SOL    HW2 2289   0.500   1.193   1.091 -0.1296 -1.6534 -0.2843
  764SOL     OW 2290   2.815   2.433   3.105  0.5454 -0.1809  0.4488
  764SOL    HW1 2291   2.732   2.413   0.052 -1.1665 -1.2787  0.0740
  764SOL    HW2 2292   2.891   2.374   0.009 -0.9532  2.7758 -0.2440
  765SOL     OW 2293   0.754   0.010   2.171  0.0347 -0.1071  0.1839
  765SOL    HW1 2294   0.761   0.060   2.084 -1.2867 -2.6798  1.2152
  765SOL    HW2 2295   0.692   0.056   2.236 -0.2153 -1.5960 -0.3366
  766SOL     OW 2296   3.082   2.126   2.498 -0.0697 -0.2080  0.6032
  766SOL    HW1 2297   2.991   2.142   2.458  1.0351 -0.7654  0.6344
  766SOL    HW2 2298   0.043   2.112   2.425  3.0613 -0.5236 -0.1233
  767SOL     OW 2299   2.991   1.311   1.773 -0.0016 -0.2143  0.5997
  767SOL    HW1 2300   3.048   1.316   1.862  0.3606  1.9707  0.7156
  767SOL    HW2 2301   2.951   1.401   1.744 -0.5219  0.6789  0.4950
  768SOL     OW 2302   1.169   0.739   2.768 -0.0014 -0.7777 -0.0147
  768SOL    HW1 2303   1.105   0.687   2.826  2.2545  1.3255 -2.0329
  768SOL    HW2 2304   1.263   0.707   2.784 -0.4761 -1.3086  1.5401
  769SOL     OW 2305   1.901   2.195   0.384 -0.3119 -0.1585 -0.0059
  769SOL    HW1 2306   1.996   2.209   0.417  3.6732  0.6855  1.1268
  769SOL    HW2 2307   1.842   2.261   0.426  2.0959 -0.2968  1.4443
  770SOL     OW 2308   2.864   0.117   0.139  0.0982  0.3384  0.2118
  770SOL    HW1 2309   2.772   0.144   0.167  3.5931  1.4113  2.3648
  770SOL    HW2 2310   2.926   0.093   0.216 -0.8327  2.2584  0.1219
  771SOL     OW 2311   1.573   2.174   1.822 -0.2961 -0.1100  0.1255
  771SOL    HW1 2312   1.590   2.186   1.721  1.0143  1.0168 -0.4649
  771SOL    HW2 2313   1.473   2.157   1.838 -1.6246  0.5832  1.2962
  772SOL     OW 2314   0.816   0.377   2.828 -0.1977 -0.4178  0.4099
  772SOL    HW1 2315   0.729   0.395   2.878  2.2462  1.4586  0.8675
  772SOL    HW2 2316   0.809   0.313   2.752  0.1291  1.6451  1.4791
  773SOL     OW 2317   2.999   0.816   1.622  0.2434  0.0205  0.2786
  773SOL    HW1 2318   3.059   0.813   1.537  0.7529 -0.0344  1.1777
  773SOL    HW2 2319   3.051   0.830   1.710 -1.1513  2.5473 -2.5899
  774SOL     OW 2320   1.680   1.157   0.306  0.4075  0.0008 -0.2575
  774SOL    HW1 2321   1.622   1.238   0.283  0.4545 -0.4711 -0.8370
  774SOL    HW2 2322   1.782   1.169   0.307 -0.1536  0.0892  1.2485
  775SOL     OW 2323   2.259   0.031   0.012  0.1722  0.3781  0.1062
  775SOL    HW1 2324   2.354   0.007   0.040 -0.8233  1.3224  0.1713
  775SOL    HW2 2325   2.215   3.076   3.075  1.8025  0.5346 -1.2499
  776SOL     OW 2326   2.421   0.963   2.409 -0.6850 -0.2902 -0.2520
  776SOL    HW1 2327   2.520   0.981   2.386 -0.6282 -0.1163 -0.0409
  776SOL    HW2 2328   2.359   0.976   2.325  0.5056  0.1851 -2.8924
  777SOL     OW 2329   0.111   1.198   2.704 -0.2962 -0.2533  0.2025
  777SOL    HW1 2330   0.203   1.179   2.735 -1.9154  0.1160  0.1052
  777SOL    HW2 2331   0.094   1.160   2.609  2.6227 -3.2314  1.2070
  778SOL     OW 2332   0.581   0.222   0.465 -0.2646  0.4999  0.2517
  778SOL    HW1 2333   0.669   0.269   0.444  1.3705  0.2022 -0.2792
  778SOL    HW2 2334   0.516   0.213   0.385 -1.3746  0.7582  0.5957
  779SOL     OW 2335   0.658   0.729   2.619 -0.0780 -0.1097 -0.0463
  779SOL    HW1 2336   0.707   0.698   2.703  0.3553  1.7127 -1.3397
  779SOL    HW2 2337   0.713   0.703   2.541  1.2997  1.0836  0.0519
  780SOL     OW 2338   1.990   1.079   2.343 -0.1028  0.0978  0.2268
  780SOL    HW1 2339   1.933   1.144   2.286  3.3837  2.6626 -1.9599
  780SOL    HW2 2340   1.940   0.989   2.368  0.6156  0.9219  2.1139
  781SOL     OW 2341   0.028   0.888   1.851 -0.1287 -0.8628 -0.2433
  781SOL    HW1 2342   0.095   0.951   1.805  1.4572  2.1515 -1.8041
  781SOL    HW2 2343   3.075   0.942   1.909  1.8385  0.6850  0.8232
  782SOL     OW 2344   0.796   1.854   2.563  0.0500 -0.0375 -0.2373
  782SOL    HW1 2345   0.777   1.922   2.486 -2.9306 -0.4861 -1.4624
  782SOL    HW2 2346   0.786   1.756   2.538  0.2120  1.0521 -0.1249
  783SOL     OW 2347   0.685   2.565   1.585 -0.1413  0.2165 -0.0550
  783SOL    HW1 2348   0.698   2.463   1.607 -0.4320 -0.7508  3.9284
  783SOL    HW2 2349   0.691   2.589   1.490 -0.6061 -0.1553 -1.0429
  784SOL     OW 2350   1.263   0.466   2.678  0.6235 -0.3785  0.1972
  784SOL    HW1 2351   1.286   0.383   2.623  2.0323  0.6123 -1.6372
  784SOL    HW2 2352   1.349   0.500   2.724  1.2515  1.3441  2.1629
  785SOL     OW 2353   1.019   0.458   2.580  0.8361  0.1662  0.0901
  785SOL    HW1 2354   1.105   0.492   2.624 -0.0610 -1.0834 -1.0233
  785SOL    HW2 2355   1.001   0.360   2.612 -1.0613  0.3225  1.3285
  786SOL     OW 2356   0.379   1.769   0.326 -0.6001  0.6500 -0.0782
  786SOL    HW1 2357   0.438   1.705   0.274  3.3202 -1.8575  0.9629
  786SOL    HW2 2358   0.437   1.827   0.384 -2.6948  2.0690  0.6346
  787SOL     OW 2359   1.935   1.153   0.352  0.6813 -0.0349  0.2126
  787SOL    HW1 2360   2.008   1.193   0.294  0.9889  0.3072  1.3218
  787SOL    HW2 2361   1.972   1.083   0.415 -3.4882 -0.2651  1.8652
  788SOL     OW 2362   1.747   1.664   1.486 -0.0830  0.3165  0.6355
  788SOL    HW1 2363   1.673   1.713   1.446  2.7186 -0.6403  0.9370
  788SOL    HW2 2364   1.797   1.729   1.548  0.2323 -1.5038  2.0622
  789SOL     OW 2365   0.311   1.605   1.995  0.4778  0.5662  0.3586
  789SOL    HW1 2366   0.389   1.594   1.933  0.4119 -1.7105 -1.4241
  789SOL    HW2 2367   0.332   1.670   2.069  1.1028 -0.5597  1.3497
  790SOL     OW 2368   0.470   2.656   0.364 -0.0830  0.5308 -0.3526
  790SOL    HW1 2369   0.452   2.650   0.263  1.4010 -1.3177  0.2637
  790SOL    HW2 2370   0.396   2.710   0.411  2.0461  0.1943  0.5591
  791SOL     OW 2371   0.458   0.277   3.105  0.1550 -0.5359 -0.1875
  791SOL    HW1 2372   0.513   0.358   3.068  1.0137 -1.5602 -0.3127
  791SOL    HW2 2373   0.461   0.197   3.041 -0.3763 -0.7148  0.1356
  792SOL     OW 2374   1.665   0.686   2.265 -0.2173  0.2401  0.0126
  792SOL    HW1 2375   1.744   0.734   2.302 -2.4620 -0.3769  0.8036
  792SOL    HW2 2376   1.586   0.747   2.265  0.5800 -0.8261  2.8513
  793SOL     OW 2377   0.581   0.597   0.800  0.6212  0.2248 -0.7468
  793SOL    HW1 2378   0.494   0.553   0.775 -2.4258  2.1708  1.5924
  793SOL    HW2 2379   0.566   0.622   0.900  0.5537  0.8232  2.7461
  794SOL     OW 2380   0.715   0.125   1.629  0.0269  0.4330  0.5309
  794SOL    HW1 2381   0.811   0.114   1.596  0.9334  0.2244  2.5496
  794SOL    HW2 2382   0.683   0.218   1.597 -0.1469 -0.7157 -0.3691
  795SOL     OW 2383   0.105   1.440   3.075  0.0915 -0.1623  0.3716
  795SOL    HW1 2384   0.164   1.378   0.016  1.4315 -1.1987  1.9758
  795SOL    HW2 2385   0.122   1.438   2.977 -1.0361 -2.0481 -0.2688
  796SOL     OW 2386   3.047   0.348   0.194  0.3289 -0.6738 -0.2257
  796SOL    HW1 2387   3.109   0.353   0.114  2.8607 -0.3491 -1.6911
  796SOL    HW2 2388   3.006   0.252   0.201 -0.5766 -3.1306  1.4615
  797SOL     OW 2389   1.458   2.550   3.014 -0.4116 -0.1323 -0.4049
  797SOL    HW1 2390   1.418   2.575   3.102  0.3860 -2.0568 -0.8845
  797SOL    HW2 2391   1.440   2.451   2.999  0.6813 -0.6628 -0.4163
  798SOL     OW 2392   2.887   0.535   0.875 -0.0643  0.5589 -0.3377
  798SOL    HW1 2393   2.819   0.508   0.806  0.5576  0.3483  1.9435
  798SOL    HW2 2394   2.971   0.572   0.829 -1.0808 -0.5261 -2.7441
  799SOL     OW 2395   2.509   0.785   2.140 -0.8035  0.0166  0.1490
  799SOL    HW1 2396   2.414   0.821   2.166  0.0325 -0.9956  1.0166
  799SOL    HW2 2397   2.559   0.850   2.078 -1.6731 -1.4151  1.5407
  800SOL     OW 2398   0.095   2.053   0.440 -0.0768 -0.2444 -0.1604
  800SOL    HW1 2399   0.117   1.986   0.513  1.3544 -0.1030 -1.6669
  800SOL    HW2 2400   0.108   2.002   0.348 -1.3272  2.0470 -0.0517
  801SOL     OW 2401   1.120   1.843   0.858  0.4511  0.1797  0.1775
  801SOL    HW1 2402   1.217   1.828   0.885 -1.8646 -0.8058 -0.3994
  801SOL    HW2 2403   1.063   1.757   0.863 -1.8990 -2.2780 -0.9725
  802SOL     OW 2404   1.055   1.841   2.672  0.0510 -0.2218 -0.8036
  802SOL    HW1 2405   0.962   1.854   2.629 -1.1231 -2.9076 -2.0851
  802SOL    HW2 2406   1.118   1.789   2.616 -0.4755  2.1340  1.1142
  803SOL     OW 2407   0.191   2.008   1.402  0.3764  0.5174  0.3895
  803SOL    HW1 2408   0.108   1.949   1.393  2.6798 -0.6654 -1.2987
  803SOL    HW2 2409   0.277   1.957   1.428 -0.9616 -0.3785 -1.1852
  804SOL     OW 2410   1.333   2.639   1.544 -0.3617 -0.2118  0.4291
  804SOL    HW1 2411   1.370   2.684   1.463  0.8883 -0.8275  3.0054
  804SOL    HW2 2412   1.376   2.677   1.630 -0.2425 -0.3898  2.9588
  805SOL     OW 2413   2.222   1.543   3.046  0.3990  0.4337  0.6471
  805SOL    HW1 2414   2.315   1.527   3.006 -4.4222  1.3520 -3.8828
  805SOL    HW2 2415   2.153   1.482   2.995 -0.4653 -0.2637 -1.8225
  806SOL     OW 2416   2.088   2.677   0.829  0.5216 -0.0753  0.0215
  806SOL    HW1 2417   2.166   2.630   0.869 -1.7073  0.6211 -1.0166
  806SOL    HW2 2418   2.007   2.612   0.810 -0.3671  0.3847  0.5459
  807SOL     OW 2419   2.810   0.483   2.808  0.1134  0.1429 -0.1091
  807SOL    HW1 2420   2.800   0.394   2.854 -0.3595 -3.7340  3.0192
  807SOL    HW2 2421   2.728   0.514   2.753  1.1779 -0.0783 -1.1984
  808SOL     OW 2422   0.537   1.187   0.332 -0.3225 -0.5138 -0.2121
  808SOL    HW1 2423   0.545   1.265   0.266 -0.6368 -0.2764  2.8513
  808SOL    HW2 2424   0.578   1.220   0.420 -0.3299  1.8564  1.2924
  809SOL     OW 2425   2.576   0.956   1.886 -0.0848 -0.0798 -0.6375
  809SOL    HW1 2426   2.485   0.979   1.852 -0.8631  0.0884 -0.8305
  809SOL    HW2 2427   2.623   0.880   1.841 -0.9478  0.1248 -2.2226
  810SOL     OW 2428   1.182   0.474   1.386  0.1608  0.3421  0.2064
  810SOL    HW1 2429   1.205   0.414   1.307  0.8379  0.8469 -3.0260
  810SOL    HW2 2430   1.243   0.444   1.467  0.7602  1.5105  0.1121
  811SOL     OW 2431   2.268   2.836   1.663 -0.2158 -0.6209  0.4220
  811SOL    HW1 2432   2.246   2.928   1.630  0.6257 -0.1453  1.1298
  811SOL    HW2 2433   2.184   2.777   1.663  0.7202  1.4528 -0.9392
  812SOL     OW 2434   1.585   2.259   0.054 -0.3598  0.3818  0.0202
  812SOL    HW1 2435   1.592   2.188   0.125  1.9422  0.7662  2.2897
  812SOL    HW2 2436   1.676   2.299   0.045 -1.6895  0.1056  1.1168
  813SOL     OW 2437   1.476   0.745   1.588  0.6487 -0.0315 -0.0181
  813SOL    HW1 2438   1.414   0.799   1.526  0.9469  2.2213  1.1224
  813SOL    HW2 2439   1.560   0.734   1.534 -3.1294 -1.6769  0.1980
  814SOL     OW 2440   0.616   0.379   1.562 -0.2034 -0.5194  0.6903
  814SOL    HW1 2441   0.617   0.401   1.460  1.4762  1.1873 -0.8480
  814SOL    HW2 2442   0.644   0.459   1.612  1.1960 -2.0331 -1.1174
  815SOL     OW 2443   0.622   0.717   0.314 -0.4463  0.2787  0.1654
  815SOL    HW1 2444   0.531   0.672   0.291  0.2029 -0.1632  1.2347
  815SOL    HW2 2445   0.628   0.816   0.302 -2.2084 -2.4395  2.3257
  816SOL     OW 2446   2.185   1.624   2.507  0.1025 -0.3546 -0.0176
  816SOL    HW1 2447   2.171   1.679   2.592  2.6264  0.6498  1.1851
  816SOL    HW2 2448   2.284   1.616   2.486 -1.5330 -3.1182 -2.5058
  817SOL     OW 2449   0.817   2.628   0.665  0.8314 -0.5751 -0.2064
  817SOL    HW1 2450   0.762   2.682   0.730  0.3286  2.5752  2.9118
  817SOL    HW2 2451   0.842   2.674   0.578  1.3888  0.4124 -1.0457
  818SOL     OW 2452   1.756   0.554   2.978  0.2493  0.2022 -0.0628
  818SOL    HW1 2453   1.821   0.523   3.049 -2.5495 -1.3600  1.3047
  818SOL    HW2 2454   1.748   0.650   2.973 -0.1353 -3.8319 -1.3427
  819SOL     OW 2455   1.575   0.410   0.095 -0.0489  0.2409 -0.9006
  819SOL    HW1 2456   1.661   0.448   0.051 -2.6560 -0.4420 -2.0253
  819SOL    HW2 2457   1.527   0.335   0.042  0.7404 -2.2561  0.5145
  820SOL     OW 2458   1.919   0.462   0.061  0.1435 -0.5242  0.2555
  820SOL    HW1 2459   1.948   0.381   0.121 -0.0324 -2.9937  3.3197
  820SOL    HW2 2460   1.969   0.554   0.078  0.7343  1.1902  3.8039
  821SOL     OW 2461   2.457   0.098   0.528 -0.2899  0.7492 -0.0220
  821SOL    HW1 2462   2.382   0.073   0.463  1.4505  2.0578  3.7778
  821SOL    HW2 2463   2.530   0.027   0.523  0.2718 -1.6243  0.6511
  822SOL     OW 2464   0.789   2.541   2.036 -0.4836 -0.5698  0.5094
  822SOL    HW1 2465   0.832   2.532   1.946 -0.4671  1.4181  1.0740
  822SOL    HW2 2466   0.840   2.607   2.092 -1.8008 -0.3225  0.7435
  823SOL     OW 2467   0.266   1.447   1.606  0.4006 -0.1219 -0.0811
  823SOL    HW1 2468   0.218   1.508   1.680 -1.3228  1.5829  2.0927
  823SOL    HW2 2469   0.205   1.368   1.586 -1.4888  1.1400  1.1157
  824SOL     OW 2470   1.320   3.008   2.637 -0.0294  0.1778 -0.8125
  824SOL    HW1 2471   1.392   3.069   2.600  2.6284  2.0991  1.1543
  824SOL    HW2 2472   1.343   2.986   2.735 -1.8108  0.7824 -1.2374
  825SOL     OW 2473   2.275   1.007   0.736  0.3155  0.5584  0.0147
  825SOL    HW1 2474   2.218   0.937   0.784  1.3616 -0.9939  1.0102
  825SOL    HW2 2475   2.264   0.984   0.637 -0.0482 -3.1550 -0.4618
  826SOL     OW 2476   2.003   0.711   0.116  0.2499  0.0113  0.2097
  826SOL    HW1 2477   2.092   0.716   0.171  1.2118  3.2976 -0.7681
  826SOL    HW2 2478   1.948   0.792   0.143  1.0329  0.5636  0.6519
  827SOL     OW 2479   0.482   1.676   1.758  0.0370 -0.2372 -0.5707
  827SOL    HW1 2480   0.468   1.776   1.774  0.6806  1.8849 -2.8133
  827SOL    HW2 2481   0.400   1.635   1.709 -0.8094 -0.4407 -1.5389
  828SOL     OW 2482   2.298   1.379   1.744  0.1212  0.4669  0.0467
  828SOL    HW1 2483   2.342   1.463   1.785  2.0156 -1.3810  1.0818
  828SOL    HW2 2484   2.227   1.407   1.680  0.4489 -0.4024  1.5139
  829SOL     OW 2485   0.168   1.905   0.227  0.6862  0.2550 -0.4021
  829SOL    HW1 2486   0.239   1.854   0.283  0.2223 -0.4746 -0.9556
  829SOL    HW2 2487   0.157   1.847   0.140  0.7090 -2.8078  1.7603
  830SOL     OW 2488   2.028   0.954   0.505 -0.2649  0.1771  0.1795
  830SOL    HW1 2489   2.005   0.979   0.599  0.8476  0.4487 -1.5113
  830SOL    HW2 2490   1.982   0.870   0.477 -2.4570  2.8116 -4.2069
  831SOL     OW 2491   3.076   1.828   3.073  0.0594 -0.5174  0.2790
  831SOL    HW1 2492   3.084   1.916   3.015 -0.7804  2.8504  2.1662
  831SOL    HW2 2493   0.051   1.784   3.081 -1.9792  0.1714 -0.3306
  832SOL     OW 2494   0.875   0.271   0.465 -0.6537 -0.5149  0.0284
  832SOL    HW1 2495   0.894   0.362   0.502 -4.3130 -1.4842  1.3378
  832SOL    HW2 2496   0.893   0.255   0.365  0.8987 -2.0808 -2.6305
  833SOL     OW 2497   0.688   0.613   1.721  0.0861  0.0696  0.6247
  833SOL    HW1 2498   0.627   0.682   1.767  4.0100  1.5873  1.3649
  833SOL    HW2 2499   0.780   0.611   1.765  0.9940  0.6438 -0.5224
  834SOL     OW 2500   0.354   0.481   0.709  0.7683 -0.1444 -0.6156
  834SOL    HW1 2501   0.361   0.391   0.661 -1.6534  0.2355 -0.3166
  834SOL    HW2 2502   0.272   0.535   0.676 -2.2452 -1.2441  1.8668
  835SOL     OW 2503   2.788   2.711   1.266  0.4634 -0.1071 -0.0481
  835SOL    HW1 2504   2.756   2.747   1.356 -0.4476  0.9623 -0.3938
  835SOL    HW2 2505   2.822   2.621   1.276 -1.4702  0.5933 -1.1535
  836SOL     OW 2506   0.663   2.108   0.122  0.4896  0.5145 -0.5916
  836SOL    HW1 2507   0.665   2.201   0.166 -1.0126 -2.0434  1.6205
  836SOL    HW2 2508   0.571   2.069   0.129 -1.9661  1.3068  0.1203
  837SOL     OW 2509   1.513   1.628   2.588  0.0518  0.0602  0.2652
  837SOL    HW1 2510   1.523   1.661   2.685  1.9588 -0.1792  0.5094
  837SOL    HW2 2511   1.567   1.684   2.525  1.4059  0.1083 -0.6552
  838SOL     OW 2512   0.370   1.210   1.999  0.0456  0.6880 -0.6051
  838SOL    HW1 2513   0.448   1.258   1.957 -2.1256 -1.1772 -1.6979
  838SOL    HW2 2514   0.326   1.273   2.064 -2.7386 -0.3072  1.6191
  839SOL     OW 2515   0.426   1.311   0.798 -0.0150 -0.0217 -0.0214
  839SOL    HW1 2516   0.444   1.367   0.879 -0.8942 -0.3754  0.9871
  839SOL    HW2 2517   0.420   1.213   0.815 -1.7444  1.3468 -0.5600
  840SOL     OW 2518   2.321   0.006   2.514  0.4660 -0.5285  0.2024
  840SOL    HW1 2519   2.268   0.005   2.428  2.6163 -1.5807  0.5759
  840SOL    HW2 2520   2.405   0.061   2.501 -1.3034 -2.8163  1.4014
  841SOL     OW 2521   1.106   2.414   0.397  0.1507 -0.1147  0.1612
  841SOL    HW1 2522   1.150   2.345   0.459  0.6472  0.4067 -0.8157
  841SOL    HW2 2523   1.064   2.379   0.310 -1.3318 -0.6785 -3.0067
  842SOL     OW 2524   0.365   0.217   0.618  0.1606 -0.5777 -0.2229
  842SOL    HW1 2525   0.370   0.164   0.708  0.2769 -0.0757  0.4369
  842SOL    HW2 2526   0.450   0.203   0.565 -1.9537  2.0460 -0.2983
  843SOL     OW 2527   0.316   0.982   0.075 -0.2953 -0.3803 -0.0278
  843SOL    HW1 2528   0.352   0.993   0.168 -1.5203 -0.4087 -1.5784
  843SOL    HW2 2529   0.285   1.072   0.032 -0.1917  2.0907 -1.5585
  844SOL     OW 2530   1.001   2.334   0.153 -0.5638 -0.0748  0.1863
  844SOL    HW1 2531   0.915   2.302   0.111 -0.3907 -2.2725  0.5396
  844SOL    HW2 2532   1.072   2.346   0.080 -0.7559  0.5921  0.5501
  845SOL     OW 2533   2.083   2.919   2.465  0.3746  0.5942  0.3736
  845SOL    HW1 2534   2.076   3.014   2.478  0.0872 -1.2110  1.6303
  845SOL    HW2 2535   2.051   2.865   2.546 -2.7947  0.4946  1.8209
  846SOL     OW 2536   1.885   2.055   2.815  0.1504  0.4315  0.4545
  846SOL    HW1 2537   1.834   2.134   2.852 -0.9750 -0.5707 -1.7672
  846SOL    HW2 2538   1.977   2.081   2.782  0.0586 -1.0608 -3.9321
  847SOL     OW 2539   2.617   0.223   0.190 -0.9224 -0.7873 -0.1199
  847SOL    HW1 2540   2.628   0.302   0.121  1.5290  2.6022 -3.0972
  847SOL    HW2 2541   2.588   0.258   0.279 -0.0276 -0.4793 -0.1943
  848SOL     OW 2542   0.850   0.582   0.359 -0.6870  0.1509  0.0607
  848SOL    HW1 2543   0.851   0.561   0.459  3.4962 -0.0725  0.6444
  848SOL    HW2 2544   0.765   0.639   0.332 -2.5870  0.8977  0.2680
  849SOL     OW 2545   1.438   2.717   1.780  0.3280 -0.3457 -0.4343
  849SOL    HW1 2546   1.536   2.720   1.792 -2.1510 -0.9984  1.0031
  849SOL    HW2 2547   1.395   2.636   1.829  0.6191 -5.1334  1.1475
  850SOL     OW 2548   0.927   1.594   0.489  0.0588 -0.8406 -0.1431
  850SOL    HW1 2549   0.988   1.547   0.556 -0.8726 -1.7967 -1.4567
  850SOL    HW2 2550   0.827   1.581   0.509  0.6921  0.9153 -0.1529
  851SOL     OW 2551   0.294   1.295   0.104  0.2579  0.3367  0.4301
  851SOL    HW1 2552   0.397   1.322   0.103  0.6459 -0.4423 -1.9370
  851SOL    HW2 2553   0.258   1.270   0.196  0.5318 -1.9120 -1.7308
  852SOL     OW 2554   1.427   2.986   1.808 -0.1814  0.6940 -0.1758
  852SOL    HW1 2555   1.331   3.018   1.811  0.5076 -0.6535 -0.9258
  852SOL    HW2 2556   1.431   2.886   1.792 -2.3146  0.7326 -0.1488
  853SOL     OW 2557   2.672   1.617   0.082 -0.0734 -0.6485 -0.2383
  853SOL    HW1 2558   2.583   1.608   0.032  1.7679  0.5899 -0.2458
  853SOL    HW2 2559   2.656   1.630   0.181  1.2361  1.6358  3.9735
  854SOL     OW 2560   1.283   1.203   1.821 -0.1388 -0.3492 -0.2296
  854SOL    HW1 2561   1.199   1.213   1.771  1.7905 -2.7729 -0.8476
  854SOL    HW2 2562   1.366   1.197   1.761 -1.1399 -1.2336 -2.7508
  855SOL     OW 2563   0.107   2.437   0.203 -0.3464 -0.4024 -0.0740
  855SOL    HW1 2564   0.041   2.368   0.164 -0.0729 -0.9530 -0.2310
  855SOL    HW2 2565   0.101   2.519   0.144 -1.3509  0.5131 -0.5740
  856SOL     OW 2566   0.499   0.839   1.842  0.2640 -0.6395  0.6462
  856SOL    HW1 2567   0.583   0.900   1.842 -0.7452  0.6889  1.4265
  856SOL    HW2 2568   0.453   0.843   1.747  0.4341  1.6103 -3.7989
  857SOL     OW 2569   1.099   1.186   2.390  0.1221  0.3342 -0.1319
  857SOL    HW1 2570   1.033   1.112   2.414  0.0073  1.1281  1.6426
  857SOL    HW2 2571   1.155   1.223   2.471  2.8651  1.6593  2.0744
  858SOL     OW 2572   0.394   1.270   2.344 -0.1134  0.0493  0.4984
  858SOL    HW1 2573   0.314   1.330   2.319 -1.7446 -0.8404 -0.2244
  858SOL    HW2 2574   0.361   1.180   2.367  0.1793 -0.6441  0.6126
  859SOL     OW 2575   2.588   0.263   1.050 -0.1843  0.2355 -0.1584
  859SOL    HW1 2576   2.557   0.177   1.004  1.7793 -0.4506 -1.0317
  859SOL    HW2 2577   2.687   0.258   1.060 -1.2961  0.2968  1.8535
  860SOL     OW 2578   1.774   3.115   0.075  0.0354 -0.2890 -0.2618
  860SOL    HW1 2579   1.828   3.101   0.159  0.8551  0.4788 -1.1718
  860SOL    HW2 2580   1.821   0.066   0.010  0.5044  1.1663 -1.7153
  861SOL     OW 2581   0.752   0.365   0.868 -0.4591 -0.6853 -0.3046
  861SOL    HW1 2582   0.803   0.302   0.800  0.7713 -2.9502 -2.1994
  861SOL    HW2 2583   0.727   0.456   0.829  0.8317  0.1791  2.3098
  862SOL     OW 2584   1.319   0.231   2.575  0.8442 -0.2155  0.4689
  862SOL    HW1 2585   1.233   0.172   2.567 -1.3128 -0.9160  2.2985
  862SOL    HW2 2586   1.405   0.176   2.588  1.4972  0.0625  0.5281
  863SOL     OW 2587   2.282   2.227   0.769 -0.1091 -0.4594 -0.1193
  863SOL    HW1 2588   2.335   2.297   0.715 -0.3063  0.9742  0.7952
  863SOL    HW2 2589   2.301   2.132   0.748  2.5113 -0.5422  2.7073
  864SOL     OW 2590   2.652   3.053   1.981 -0.0211  0.2969 -0.0245
  864SOL    HW1 2591   2.672   3.075   1.883 -1.4405  0.4229 -1.3874
  864SOL    HW2 2592   2.554   3.016   1.993 -1.4007 -2.2090  2.6977
  865SOL     OW 2593   1.246   0.782   1.759  0.7914 -0.0769  0.0043
  865SOL    HW1 2594   1.335   0.801   1.705  2.3108  1.7223  0.3367
  865SOL    HW2 2595   1.263   0.719   1.835  2.9951  2.6047  0.7784
  866SOL     OW 2596   1.650   2.908   1.265 -0.2978  0.1057  0.3449
  866SOL    HW1 2597   1.693   2.846   1.192  2.6331  0.3844 -1.1722
  866SOL    HW2 2598   1.663   3.010   1.243 -1.1089  0.6356 -0.4793
  867SOL     OW 2599   2.455   2.602   0.483 -0.1442  0.1395  0.2677
  867SOL    HW1 2600   2.470   2.626   0.383 -1.3357  0.1072 -0.9800
  867SOL    HW2 2601   2.526   2.626   0.549 -1.0551  0.0675 -1.1823
  868SOL     OW 2602   0.482   2.184   1.554  0.8505  0.5644  1.1905
  868SOL    HW1 2603   0.420   2.240   1.490  0.2551  1.9229 -0.8663
  868SOL    HW2 2604   0.431   2.142   1.629  4.9982  0.4637 -1.1659
  869SOL     OW 2605   2.078   2.396   2.691  0.3414  0.0842 -0.2213
  869SOL    HW1 2606   2.035   2.373   2.599 -4.4699 -1.4145 -3.7356
  869SOL    HW2 2607   2.136   2.480   2.685 -1.4039  0.2350  1.2719
  870SOL     OW 2608   1.529   1.606   0.753  0.3573 -0.4269  0.1168
  870SOL    HW1 2609   1.629   1.594   0.720  3.0195  0.2176  0.4537
  870SOL    HW2 2610   1.513   1.550   0.837 -1.3672 -0.6304 -1.5054
  871SOL     OW 2611   0.309   1.582   1.371  0.0497  0.2928 -0.1835
  871SOL    HW1 2612   0.336   1.671   1.411  0.3554  1.3765 -0.3290
  871SOL    HW2 2613   0.291   1.515   1.445  0.4087 -0.6237  1.3437
  872SOL     OW 2614   0.479   1.329   2.592  0.0033  0.3426 -0.0178
  872SOL    HW1 2615   0.466   1.298   2.496  0.0243  0.8449  1.5119
  872SOL    HW2 2616   0.536   1.266   2.642  0.4075  0.5079 -1.7018
  873SOL     OW 2617   0.789   2.124   1.876 -0.1948  0.2547  0.1978
  873SOL    HW1 2618   0.845   2.150   1.954 -1.9234 -0.1686 -1.9042
  873SOL    HW2 2619   0.694   2.114   1.901  2.8442  2.5286  0.9510
  874SOL     OW 2620   0.968   0.941   1.568 -0.0920  0.1426  0.3163
  874SOL    HW1 2621   0.977   0.886   1.649  2.7761 -2.2633 -1.2818
  874SOL    HW2 2622   0.894   1.012   1.584 -1.6948  2.6495  2.3657
  875SOL     OW 2623   2.650   2.643   0.663  0.3807 -0.1293 -0.3199
  875SOL    HW1 2624   2.740   2.606   0.628  0.7999  0.0426 -0.6740
  875SOL    HW2 2625   2.660   2.737   0.699  2.0728 -2.0317 -0.6112
  876SOL     OW 2626   0.949   1.541   0.202  0.3635 -0.4995 -0.5358
  876SOL    HW1 2627   0.961   1.520   0.302  1.9587 -1.4234  1.1532
  876SOL    HW2 2628   0.882   1.617   0.194  1.5010  1.8716  1.1108
  877SOL     OW 2629   2.777   2.979   1.058 -0.1130 -0.4175  0.1671
  877SOL    HW1 2630   2.795   2.891   1.108  0.5046  0.7433 -3.2981
  877SOL    HW2 2631   2.786   3.059   1.116 -3.2416 -0.7783 -0.6323
  878SOL     OW 2632   2.136   1.442   0.460  0.1525  0.0873 -0.2731
  878SOL    HW1 2633   2.112   1.454   0.363  0.4584  0.8471 -0.4803
  878SOL    HW2 2634   2.058   1.424   0.522 -1.0702 -1.1841 -0.0529
  879SOL     OW 2635   2.271   1.516   1.133  0.1882  0.4309 -0.1079
  879SOL    HW1 2636   2.338   1.584   1.163  1.5243 -1.0058  0.0539
  879SOL    HW2 2637   2.279   1.501   1.028 -0.8537 -1.0441 -1.6204
  880SOL     OW 2638   0.650   2.464   0.874  0.2697 -0.2922 -0.0451
  880SOL    HW1 2639   0.552   2.442   0.855 -2.3566 -2.0887 -0.4822
  880SOL    HW2 2640   0.670   2.559   0.863  2.8603 -0.8530 -0.9345
  881SOL     OW 2641   1.051   0.919   0.937 -0.0473  0.2460 -0.2168
  881SOL    HW1 2642   1.026   0.905   0.839 -1.3576  0.9203 -0.2795
  881SOL    HW2 2643   1.153   0.932   0.950  1.8037 -0.8202  0.5024
  882SOL     OW 2644   2.291   1.004   0.448  0.3003 -0.2713 -0.9698
  882SOL    HW1 2645   2.326   1.092   0.415 -2.0608  0.2832 -1.1361
  882SOL    HW2 2646   2.193   1.003   0.450  3.1229 -0.7250  1.0570
  883SOL     OW 2647   1.539   0.077   1.690  0.3858  0.6180 -1.0293
  883SOL    HW1 2648   1.565   0.158   1.748 -0.2603 -0.7280 -1.2134
  883SOL    HW2 2649   1.513   3.111   1.745  0.8122  0.8839 -3.1274
  884SOL     OW 2650   2.935   3.111   1.585 -0.1139 -0.1132 -0.0874
  884SOL    HW1 2651   3.004   0.065   1.560 -1.5147 -0.7887 -2.1661
  884SOL    HW2 2652   2.942   3.036   1.518  1.2555 -0.9070 -1.0443
  885SOL     OW 2653   1.042   0.883   2.195  0.6318 -0.3703 -0.1219
  885SOL    HW1 2654   1.094   0.917   2.116  1.7913  2.7280 -0.7859
  885SOL    HW2 2655   0.971   0.817   2.166  1.3107 -1.8288 -0.0001
  886SOL     OW 2656   1.362   0.751   2.216 -0.0290 -0.1530 -0.3519
  886SOL    HW1 2657   1.355   0.851   2.234  1.0899  2.4558 -0.4108
  886SOL    HW2 2658   1.373   0.702   2.304 -0.3295  1.2411 -1.9054
  887SOL     OW 2659   1.696   0.539   1.285  0.6566 -0.0067  0.4354
  887SOL    HW1 2660   1.645   0.513   1.200  0.9299 -1.0450 -2.0780
  887SOL    HW2 2661   1.792   0.565   1.263  2.4910 -0.1417  0.4907
  888SOL     OW 2662   2.416   1.625   1.872  0.5310  0.6027  0.6536
  888SOL    HW1 2663   2.432   1.702   1.800  1.2090  1.7894 -1.4226
  888SOL    HW2 2664   2.392   1.659   1.964 -0.8905 -0.1072 -0.6189
  889SOL     OW 2665   1.717   2.187   0.622  0.5377 -0.5034 -0.0697
  889SOL    HW1 2666   1.686   2.280   0.591  1.5763  3.1338  1.1347
  889SOL    HW2 2667   1.663   2.113   0.582  0.5817  1.8265  1.7970
  890SOL     OW 2668   0.783   1.876   0.428 -0.3357  0.3018  0.2496
  890SOL    HW1 2669   0.831   1.869   0.517 -3.1825 -3.7096  2.6544
  890SOL    HW2 2670   0.684   1.892   0.451 -3.4738  1.8966 -1.2817
  891SOL     OW 2671   2.563   0.626   2.731  0.5248  0.6616 -0.0269
  891SOL    HW1 2672   2.494   0.614   2.653  0.4360  0.1083 -0.5350
  891SOL    HW2 2673   2.558   0.715   2.782 -0.0625 -1.0915 -2.2505
  892SOL     OW 2674   0.857   0.607   2.451 -0.1948  0.1144  0.1915
  892SOL    HW1 2675   0.772   0.573   2.408 -1.3671  0.5323 -0.3076
  892SOL    HW2 2676   0.902   0.534   2.509 -0.8383 -1.8370 -1.3328
  893SOL     OW 2677   1.702   0.179   0.980 -0.0819 -0.2499  0.3817
  893SOL    HW1 2678   1.764   0.263   0.988  0.9916  0.1114  0.1569
  893SOL    HW2 2679   1.667   0.150   1.070  0.0775  1.0895  0.0601
  894SOL     OW 2680   3.001   2.697   1.004  0.1577  0.1678 -0.0791
  894SOL    HW1 2681   3.037   2.606   1.038 -1.9535 -1.7196  2.0782
  894SOL    HW2 2682   2.904   2.687   0.972  1.4885  0.3297 -1.4795
  895SOL     OW 2683   1.904   2.816   2.957 -0.3639  0.0052 -0.3020
  895SOL    HW1 2684   1.805   2.789   2.944 -0.8096 -0.3446 -0.4730
  895SOL    HW2 2685   1.959   2.738   3.008  1.8034 -0.1958  1.4382
  896SOL     OW 2686   2.147   0.014   2.034 -0.2667 -0.3522 -0.0894
  896SOL    HW1 2687   2.177   0.076   1.959 -0.1546 -0.1778  3.2753
  896SOL    HW2 2688   2.047   0.010   2.033 -0.6013 -0.2048 -0.7658
  897SOL     OW 2689   0.373   1.938   1.752  0.5392 -0.0556  0.0056
  897SOL    HW1 2690   0.418   1.984   1.829  0.2709 -1.1653  1.2341
  897SOL    HW2 2691   0.277   1.925   1.787 -0.8021  0.5419  3.0491
  898SOL     OW 2692   2.710   1.697   2.110  0.5153  0.4290 -0.1509
  898SOL    HW1 2693   2.660   1.639   2.044  0.7892 -0.0452 -0.2046
  898SOL    HW2 2694   2.789   1.648   2.143 -0.5640 -0.5851  0.3542
  899SOL     OW 2695   1.377   2.135   0.835  0.0739 -0.1999  0.1401
  899SOL    HW1 2696   1.277   2.151   0.824 -1.7613  3.9465 -1.4684
  899SOL    HW2 2697   1.396   2.045   0.791  1.3367  0.7519 -2.4886
  900SOL     OW 2698   0.742   3.092   3.043 -0.1615 -0.5240  0.7153
  900SOL    HW1 2699   0.695   3.011   3.000  1.8330 -0.9730 -0.8372
  900SOL    HW2 2700   0.825   0.015   3.003 -2.1166  2.2501  1.2384
  901SOL     OW 2701   1.270   1.807   2.498 -0.0990  0.5547 -0.3958
  901SOL    HW1 2702   1.208   1.863   2.441  5.2271  2.1243  2.7485
  901SOL    HW2 2703   1.355   1.862   2.519  0.0466 -1.1153  0.7514
  902SOL     OW 2704   2.870   0.264   2.967  0.0137 -0.6042  0.5300
  902SOL    HW1 2705   2.809   0.264   3.049 -1.7720  2.8881  2.8570
  902SOL    HW2 2706   2.899   0.164   2.946  0.5910 -1.1640 -0.1604
  903SOL     OW 2707   2.042   0.731   2.177  0.2749 -0.4781  0.1017
  903SOL    HW1 2708   2.014   0.773   2.267  1.3670  2.8271  0.1718
  903SOL    HW2 2709   2.056   0.633   2.169  1.1868 -0.3470 -1.6441
  904SOL     OW 2710   1.394   0.662   2.469 -0.2768 -0.1612  0.1990
  904SOL    HW1 2711   1.466   0.591   2.456  1.2538 -1.7236 -0.1066
  904SOL    HW2 2712   1.326   0.638   2.540 -1.2195  2.9706 -2.2073
  905SOL     OW 2713   2.014   2.334   1.579 -0.2555  0.0139  0.8084
  905SOL    HW1 2714   2.064   2.392   1.512 -2.6364  0.7221 -1.6954
  905SOL    HW2 2715   1.997   2.380   1.668 -1.1718  0.4595 -1.1358
  906SOL     OW 2716   1.607   1.958   0.490  0.4198  0.3050  0.5049
  906SOL    HW1 2717   1.665   1.876   0.489  0.5053  0.3845 -1.7584
  906SOL    HW2 2718   1.520   1.954   0.547 -1.4923 -0.7693  2.0057
  907SOL     OW 2719   1.204   2.945   1.007 -0.1159 -0.1593 -0.2454
  907SOL    HW1 2720   1.257   2.976   0.925  2.4162  1.4599 -0.8107
  907SOL    HW2 2721   1.229   2.856   1.041 -0.3236 -1.0653  2.1215
  908SOL     OW 2722   1.452   2.463   2.124 -0.6800  0.4402  0.1154
  908SOL    HW1 2723   1.526   2.529   2.157  2.2566  2.4513  0.7847
  908SOL    HW2 2724   1.386   2.439   2.196 -0.6868 -0.7116 -0.5687
  909SOL     OW 2725   2.064   0.445   2.178 -0.0006  0.6311  0.4639
  909SOL    HW1 2726   2.163   0.451   2.175 -2.3037  3.1076 -0.0260
  909SOL    HW2 2727   2.025   0.449   2.081  0.9918  1.4492  0.0684
  910SOL     OW 2728   1.148   0.980   3.043 -0.6721 -0.1450  0.1091
  910SOL    HW1 2729   1.105   0.907   3.103  0.4515 -0.8274  0.3718
  910SOL    HW2 2730   1.247   0.957   3.016  2.7116  1.4089 -1.8674
  911SOL     OW 2731   3.056   1.065   0.139 -0.5730  0.2056 -0.3489
  911SOL    HW1 2732   3.067   1.167   0.132 -0.8102  0.2783  0.0467
  911SOL    HW2 2733   2.957   1.036   0.119 -0.6042 -0.1768 -0.8728
  912SOL     OW 2734   0.269   2.249   0.552  0.1798 -0.0280 -0.1983
  912SOL    HW1 2735   0.196   2.184   0.538  1.3978  4.1937  0.3916
  912SOL    HW2 2736   0.347   2.229   0.492 -0.6664 -0.9260  1.1014
  913SOL     OW 2737   2.830   2.419   2.473  0.7930 -0.3174  0.2059
  913SOL    HW1 2738   2.842   2.349   2.400  3.2993  0.1274 -1.3144
  913SOL    HW2 2739   2.789   2.375   2.554 -0.2728  1.3374 -1.6470
  914SOL     OW 2740   1.280   1.885   1.663  0.4363 -0.2070  0.1530
  914SOL    HW1 2741   1.338   1.932   1.591  4.4481  0.4239 -0.4359
  914SOL    HW2 2742   1.317   1.796   1.693 -1.4027 -0.4027 -1.7963
  915SOL     OW 2743   0.749   2.877   2.276 -0.1195 -0.4530  0.0843
  915SOL    HW1 2744   0.746   2.969   2.228 -1.7419  0.6301 -2.3686
  915SOL    HW2 2745   0.660   2.833   2.292  2.5910  1.1151  0.3175
  916SOL     OW 2746   0.507   0.953   1.566 -0.2431 -0.3501  0.1530
  916SOL    HW1 2747   0.592   0.896   1.565  0.5047 -1.5325 -0.3757
  916SOL    HW2 2748   0.527   1.046   1.596 -0.9698  0.8520 -1.1623
  917SOL     OW 2749   2.731   0.423   0.623  0.3251  0.1675 -0.3938
  917SOL    HW1 2750   2.824   0.375   0.621  0.6920 -1.5004 -1.3771
  917SOL    HW2 2751   2.667   0.395   0.550  2.5104  3.0528  1.0941
  918SOL     OW 2752   1.681   2.666   2.913  0.4293 -0.4180  0.0799
  918SOL    HW1 2753   1.768   2.614   2.898 -0.5911  1.1308 -0.2179
  918SOL    HW2 2754   1.616   2.620   2.982 -0.8515  0.1830 -0.6237
  919SOL     OW 2755   1.685   2.615   1.571 -0.7393  0.3606 -0.6396
  919SOL    HW1 2756   1.678   2.579   1.476  1.5255  0.5032  1.2649
  919SOL    HW2 2757   1.644   2.707   1.582  2.1695  1.4590  1.3457
  920SOL     OW 2758   0.683   0.722   2.900 -0.2786 -1.0971 -0.0183
  920SOL    HW1 2759   0.725   0.720   2.997  3.7401  2.3162  3.3981
  920SOL    HW2 2760   0.700   0.808   2.850 -0.5752  1.2788  0.1098
  921SOL     OW 2761   2.810   0.610   3.041  0.0582 -0.3570  0.1270
  921SOL    HW1 2762   2.788   0.712   3.040  2.4393  3.5894 -1.2743
  921SOL    HW2 2763   2.809   0.570   2.946 -0.3152  1.7590 -0.7783
  922SOL     OW 2764   0.304   2.038   1.001  0.0153 -0.2346 -0.3400
  922SOL    HW1 2765   0.333   2.026   1.099 -0.4723 -0.2737  2.6034
  922SOL    HW2 2766   0.388   2.058   0.946 -3.2790 -1.6371  0.0182
  923SOL     OW 2767   0.603   1.327   1.919 -0.1624 -0.2534  0.2241
  923SOL    HW1 2768   0.675   1.272   1.966 -0.0006  1.4448  4.1410
  923SOL    HW2 2769   0.633   1.424   1.906  1.4650 -2.3689 -1.9472
  924SOL     OW 2770   1.608   2.962   3.024 -0.4954 -0.2289 -0.1659
  924SOL    HW1 2771   1.562   2.892   3.084  1.9059 -2.7560 -0.8629
  924SOL    HW2 2772   1.675   3.018   3.081 -3.2216 -2.3335 -0.7268
  925SOL     OW 2773   2.837   1.387   1.186  0.4544  0.1135  0.3277
  925SOL    HW1 2774   2.807   1.334   1.110 -1.7198  1.4367  0.9135
  925SOL    HW2 2775   2.813   1.346   1.277 -0.4725 -0.1794  0.5269
  926SOL     OW 2776   2.509   0.586   1.428  0.0527  0.0233  0.2970
  926SOL    HW1 2777   2.605   0.626   1.435 -1.0065  0.2947  0.3079
  926SOL    HW2 2778   2.500   0.489   1.455  0.3508  1.8072 -0.2019
  927SOL     OW 2779   2.027   3.032   1.305 -0.3372  0.5153 -0.2763
  927SOL    HW1 2780   2.072   2.947   1.321 -1.9133 -0.0457 -0.3756
  927SOL    HW2 2781   2.076   3.085   1.235  3.3866  0.4629 -0.5233
  928SOL     OW 2782   0.046   1.092   2.410  0.2026  0.0432 -0.0289
  928SOL    HW1 2783   0.147   1.065   2.403  0.4319 -0.2032  0.9388
  928SOL    HW2 2784   3.107   1.007   2.424  1.4436 -0.1758  2.1362
  929SOL     OW 2785   2.756   0.758   1.195 -0.0937  0.1885  0.1077
  929SOL    HW1 2786   2.698   0.761   1.112 -1.5370  3.2130  1.1466
  929SOL    HW2 2787   2.777   0.859   1.221  3.0443  1.2165  1.7448
  930SOL     OW 2788   2.949   2.451   2.110  0.0988 -0.3319 -0.3369
  930SOL    HW1 2789   2.982   2.542   2.150  2.9090  0.5679 -0.0563
  930SOL    HW2 2790   3.011   2.432   2.031  2.2078  1.5528 -2.2182
  931SOL     OW 2791   1.956   0.614   1.368 -0.3618 -0.4732 -0.2046
  931SOL    HW1 2792   1.986   0.576   1.277  2.5054 -2.0548 -1.1292
  931SOL    HW2 2793   2.043   0.648   1.410  1.2231  1.3849  0.9300
  932SOL     OW 2794   0.208   1.095   1.794 -0.5452  0.2622 -0.8151
  932SOL    HW1 2795   0.261   1.123   1.878 -0.0390 -0.6379 -2.4559
  932SOL    HW2 2796   0.180   1.174   1.735 -0.3378  0.1499  0.6962
  933SOL     OW 2797   2.665   1.962   1.665  0.3077 -0.1976 -0.7673
  933SOL    HW1 2798   2.639   2.004   1.573 -2.4126  2.0122 -3.4130
  933SOL    HW2 2799   2.585   1.920   1.712  3.1452  0.2702 -2.1231
  934SOL     OW 2800   0.418   1.853   1.470 -0.2599  0.0635  0.1775
  934SOL    HW1 2801   0.512   1.858   1.438  0.4459  1.3837 -0.6010
  934SOL    HW2 2802   0.413   1.890   1.567 -1.3384  0.5954  2.5711
  935SOL     OW 2803   2.776   1.268   1.417  0.5696  0.4038  0.3568
  935SOL    HW1 2804   2.707   1.264   1.493  1.1639 -1.4938  0.9914
  935SOL    HW2 2805   2.865   1.232   1.434 -0.4036 -0.2850 -0.9249
  936SOL     OW 2806   2.523   1.273   1.637 -0.0225  0.1061 -0.5766
  936SOL    HW1 2807   2.607   1.247   1.691  0.1055  2.1379 -0.0632
  936SOL    HW2 2808   2.439   1.290   1.688  0.6817 -1.9100 -1.6909
  937SOL     OW 2809   2.204   0.350   1.442 -0.2314  0.2697  0.1945
  937SOL    HW1 2810   2.210   0.372   1.544  2.6360 -1.0990 -2.0514
  937SOL    HW2 2811   2.256   0.269   1.413 -0.0205  1.0218  3.1248
  938SOL     OW 2812   0.502   2.894   0.051  0.5578  0.7249  0.5934
  938SOL    HW1 2813   0.447   2.802   0.050 -1.1025 -4.0970 -1.4558
  938SOL    HW2 2814   0.589   2.877   3.110  1.8815  2.1935  0.7162
  939SOL     OW 2815   2.754   2.050   2.828 -0.3802  0.3075 -0.4959
  939SOL    HW1 2816   2.838   2.008   2.869 -0.8112 -2.5047  0.3181
  939SOL    HW2 2817   2.736   2.006   2.738 -0.3714  0.8896 -0.0841
  940SOL     OW 2818   1.370   1.920   0.613 -0.1152 -0.1611 -0.4813
  940SOL    HW1 2819   1.308   1.997   0.578 -2.5611  0.1766 -0.7071
  940SOL    HW2 2820   1.329   1.831   0.588 -0.5653  3.0517  1.2712
  941SOL     OW 2821   2.068   2.625   3.081  0.1342  0.3723  0.3750
  941SOL    HW1 2822   2.167   2.623   3.058  2.1799  0.1491  1.3698
  941SOL    HW2 2823   2.054   2.592   0.062 -3.3799  2.2668 -1.7606
  942SOL     OW 2824   1.742   2.322   1.025  0.3441 -0.6840  0.1084
  942SOL    HW1 2825   1.754   2.396   1.094  0.7007  0.3283  0.9423
  942SOL    HW2 2826   1.836   2.298   0.992 -1.3741  3.5473  0.0731
  943SOL     OW 2827   2.334   0.950   1.695 -0.0946 -0.6020  0.3908
  943SOL    HW1 2828   2.270   1.028   1.674 -0.1496  0.1624  0.0062
  943SOL    HW2 2829   2.296   0.865   1.656  0.1417 -0.5800  2.1654
  944SOL     OW 2830   1.341   0.927   2.549 -0.2498 -0.2371 -0.2026
  944SOL    HW1 2831   1.342   0.995   2.474  2.0800  2.0285  0.9455
  944SOL    HW2 2832   1.344   0.833   2.512  0.8728  1.5543 -1.6382
  945SOL     OW 2833   2.821   2.129   1.336  0.1577 -0.5263 -0.4955
  945SOL    HW1 2834   2.854   2.035   1.319  2.1333 -1.9847  2.4561
  945SOL    HW2 2835   2.729   2.130   1.384  1.0814  1.3689  2.0483
  946SOL     OW 2836   0.678   0.980   0.014 -0.2843  0.2866 -0.2017
  946SOL    HW1 2837   0.689   0.952   0.108 -0.8622  1.3060 -1.9648
  946SOL    HW2 2838   0.751   1.050   3.108 -0.0615  3.5115 -0.1099
  947SOL     OW 2839   2.036   2.675   1.650  0.3627  0.5395  0.1312
  947SOL    HW1 2840   1.961   2.744   1.673 -0.1893  1.8403  1.4714
  947SOL    HW2 2841   2.024   2.590   1.706  0.4226 -0.8382  0.2643
  948SOL     OW 2842   0.102   1.855   0.962 -0.3937  0.6077  0.4152
  948SOL    HW1 2843   0.168   1.937   0.959 -0.5453 -0.3308  0.9521
  948SOL    HW2 2844   0.127   1.793   1.037 -2.0873  2.8894  0.5985
  949SOL     OW 2845   1.285   0.935   1.470 -0.5872  0.0323 -0.0321
  949SOL    HW1 2846   1.281   1.035   1.481 -0.9720  0.2553  1.3145
  949SOL    HW2 2847   1.199   0.889   1.488 -0.1273 -2.6707  0.6925
  950SOL     OW 2848   0.445   0.989   0.842 -0.7699 -0.3208  0.0090
  950SOL    HW1 2849   0.344   0.997   0.843  1.3602  1.3368  0.2971
  950SOL    HW2 2850   0.475   0.931   0.762  1.4520 -0.0022 -2.7749
  951SOL     OW 2851   0.380   2.209   2.359 -0.3741 -0.1032  0.0910
  951SOL    HW1 2852   0.290   2.163   2.363 -1.6766  0.1567  0.1659
  951SOL    HW2 2853   0.420   2.186   2.267  0.0485 -0.0517 -1.0515
  952SOL     OW 2854   1.591   1.412   0.235  0.4039 -0.8435 -0.3919
  952SOL    HW1 2855   1.542   1.488   0.283  0.0390 -1.2572 -1.7961
  952SOL    HW2 2856   1.599   1.416   0.132  1.4046 -2.3532  0.8059
  953SOL     OW 2857   1.234   0.359   2.940  0.3830 -0.2956 -0.0377
  953SOL    HW1 2858   1.161   0.400   3.001 -2.5794  1.4140  2.4797
  953SOL    HW2 2859   1.227   0.407   2.849 -1.5145  0.6694 -1.7599
  954SOL     OW 2860   2.367   1.283   0.411 -0.1730 -0.4960  0.3430
  954SOL    HW1 2861   2.288   1.339   0.436  0.7000 -3.1849  1.6807
  954SOL    HW2 2862   2.404   1.328   0.325  0.8475  0.2673  0.2158
  955SOL     OW 2863   2.661   2.932   3.115  0.4409  0.4754  0.0829
  955SOL    HW1 2864   2.726   2.971   3.045 -1.1779 -1.8328  0.1503
  955SOL    HW2 2865   2.709   2.848   0.037  2.1025 -1.0800 -0.7869
  956SOL     OW 2866   1.151   0.694   1.243 -0.0885 -0.2412 -0.0057
  956SOL    HW1 2867   1.245   0.722   1.225  2.3105  0.3507 -1.2290
  956SOL    HW2 2868   1.152   0.606   1.300 -0.4132 -0.8243 -2.1728
  957SOL     OW 2869   1.402   1.200   1.183  0.8058  0.3064  0.4056
  957SOL    HW1 2870   1.362   1.217   1.275 -2.6444  1.0637  1.0951
  957SOL    HW2 2871   1.496   1.239   1.180  2.8327  1.0473 -0.3239
  958SOL     OW 2872   0.368   1.637   0.600 -0.2548 -0.0009 -0.1863
  958SOL    HW1 2873   0.409   1.689   0.677  2.8577 -0.3788 -0.7840
  958SOL    HW2 2874   0.298   1.686   0.552  3.5197  0.9335 -0.8591
  959SOL     OW 2875   1.759   1.373   1.057 -0.4200  0.0050  0.0089
  959SOL    HW1 2876   1.800   1.451   1.103 -3.4038 -5.1561 -3.0034
  959SOL    HW2 2877   1.743   1.308   1.131  2.1763  0.6201 -0.4514
  960SOL     OW 2878   2.945   1.221   2.751  0.1015 -0.2449 -0.3079
  960SOL    HW1 2879   3.043   1.203   2.755 -0.3470 -0.0296  1.0038
  960SOL    HW2 2880   2.893   1.132   2.764 -1.8598  1.2338  1.6422
  961SOL     OW 2881   0.910   1.551   0.830  0.6441 -0.3318 -0.1563
  961SOL    HW1 2882   0.861   1.461   0.805 -0.6389  0.7820  2.4158
  961SOL    HW2 2883   0.852   1.637   0.832 -0.0269  2.2136 -1.4330
  962SOL     OW 2884   1.172   1.202   0.217 -0.3157 -0.5515  0.5325
  962SOL    HW1 2885   1.201   1.278   0.281  1.6666  2.0370  0.5662
  962SOL    HW2 2886   1.193   1.238   0.124  0.5661 -2.1193  0.7000
  963SOL     OW 2887   1.296   2.173   2.327  0.6792 -0.5867 -0.1323
  963SOL    HW1 2888   1.377   2.171   2.382 -2.5187 -0.6327  1.4413
  963SOL    HW2 2889   1.305   2.111   2.245  0.9783  0.6872  2.2844
  964SOL     OW 2890   2.862   2.701   0.105 -0.3942  0.1732  0.0117
  964SOL    HW1 2891   2.821   2.630   0.044 -1.2585  2.6631  2.9016
  964SOL    HW2 2892   2.960   2.709   0.085 -3.7511 -1.0205  1.3667
  965SOL     OW 2893   0.649   2.341   0.261 -0.2732  0.1343 -0.1133
  965SOL    HW1 2894   0.645   2.379   0.354  0.2648  0.4489 -1.7772
  965SOL    HW2 2895   0.631   2.410   0.189 -1.3424 -0.0533 -1.5189
  966SOL     OW 2896   2.962   1.708   2.753 -0.6064 -0.7898  0.3269
  966SOL    HW1 2897   2.926   1.687   2.848  0.9573 -1.5549  0.9808
  966SOL    HW2 2898   2.957   1.807   2.744 -0.1588 -3.4780 -0.9020
  967SOL     OW 2899   2.062   3.068   2.886 -0.2537  0.0518 -0.3474
  967SOL    HW1 2900   2.031   2.970   2.893 -1.8724  3.7416  0.9169
  967SOL    HW2 2901   2.076   3.101   2.790 -1.2529  0.6617  0.4106
  968SOL     OW 2902   2.119   2.843   0.596 -0.3519  0.0046  0.5727
  968SOL    HW1 2903   2.077   2.757   0.563  2.4358  2.2562 -2.0654
  968SOL    HW2 2904   2.138   2.836   0.695  0.5317  0.8489 -0.8156
  969SOL     OW 2905   0.661   1.321   2.303  0.4929  0.0989 -0.1373
  969SOL    HW1 2906   0.705   1.290   2.390 -1.8110 -1.0688 -0.4920
  969SOL    HW2 2907   0.562   1.297   2.309  0.3733 -0.9643  1.5773
  970SOL     OW 2908   1.572   1.264   0.761  0.7671  0.1226 -1.1938
  970SOL    HW1 2909   1.587   1.325   0.684 -2.4885  0.6279 -1.6439
  970SOL    HW2 2910   1.532   1.319   0.844 -1.2058  1.4300  0.3202
  971SOL     OW 2911   2.223   3.107   1.595  0.4887 -0.4170 -0.2333
  971SOL    HW1 2912   2.120   3.113   1.587 -2.9960  2.6382 -0.1121
  971SOL    HW2 2913   2.264   0.043   1.517  3.6050  0.4472  0.2062
  972SOL     OW 2914   0.224   3.092   1.475 -0.0545 -0.1294 -0.7211
  972SOL    HW1 2915   0.286   0.051   1.507 -0.9056  0.1017 -3.3151
  972SOL    HW2 2916   0.213   3.021   1.544 -2.6805  1.1440  1.0091
  973SOL     OW 2917   0.177   0.419   2.739  0.4593 -1.0640 -0.4913
  973SOL    HW1 2918   0.107   0.401   2.814 -0.9850 -1.5151  2.7054
  973SOL    HW2 2919   0.232   0.503   2.767  2.3200  0.7553  0.8059
  974SOL     OW 2920   2.113   1.589   2.262 -0.3409 -0.4745  0.2894
  974SOL    HW1 2921   2.136   1.612   2.360  0.2433 -0.7376 -3.4585
  974SOL    HW2 2922   2.153   1.502   2.235  1.0929  0.4823 -1.0596
  975SOL     OW 2923   0.498   0.043   1.283  0.5435 -0.1463 -0.0875
  975SOL    HW1 2924   0.473   0.127   1.338 -0.0638 -0.3820 -1.0600
  975SOL    HW2 2925   0.413   0.009   1.240 -0.5953 -1.3653  1.2367
  976SOL     OW 2926   0.909   2.328   2.599 -0.5544  0.6205  0.1660
  976SOL    HW1 2927   0.995   2.273   2.585  3.0329 -0.4468 -0.0265
  976SOL    HW2 2928   0.830   2.263   2.584  0.8515 -0.1045  0.4252
  977SOL     OW 2929   0.565   3.008   0.478 -0.1310 -0.0480  0.1890
  977SOL    HW1 2930   0.569   3.106   0.498  0.6949 -0.7934  0.8661
  977SOL    HW2 2931   0.660   2.989   0.435  1.3472  2.0688 -1.3539
  978SOL     OW 2932   3.080   1.296   2.043  0.0247 -0.2574  0.1808
  978SOL    HW1 2933   3.044   1.204   2.059 -0.8488  1.0232  2.8235
  978SOL    HW2 2934   3.029   1.361   2.105 -0.7084 -0.1136  0.8954
  979SOL     OW 2935   1.828   2.900   1.682  0.1675 -0.2979 -0.5136
  979SOL    HW1 2936   1.751   2.906   1.617  0.3573 -0.5392  1.2936
  979SOL    HW2 2937   1.805   2.853   1.770  2.7004  1.1362 -2.2388
  980SOL     OW 2938   1.540   1.770   2.077 -0.1042 -0.1987  0.3115
  980SOL    HW1 2939   1.541   1.755   1.978 -0.0815 -1.4345  0.9073
  980SOL    HW2 2940   1.471   1.709   2.119  1.9540  1.0995  0.4017
  981SOL     OW 2941   2.767   0.684   1.431  0.7366  0.3343 -0.4198
  981SOL    HW1 2942   2.805   0.763   1.478 -2.3622  0.0936  0.1113
  981SOL    HW2 2943   2.762   0.705   1.329  1.2116  2.0062 -1.1336
  982SOL     OW 2944   0.170   0.125   2.737 -0.1786 -0.3852  0.4452
  982SOL    HW1 2945   0.098   0.067   2.781 -1.0184 -2.1588 -1.2331
  982SOL    HW2 2946   0.139   0.220   2.724 -0.4859 -0.7383  1.4611
  983SOL     OW 2947   2.345   0.554   2.528 -0.2793  0.0594 -0.3931
  983SOL    HW1 2948   2.296   0.643   2.507 -0.9091 -0.3613  0.9558
  983SOL    HW2 2949   2.380   0.521   2.439  0.1445  1.6411  0.9570
  984SOL     OW 2950   1.141   0.197   2.152  0.0139  0.2582 -0.5809
  984SOL    HW1 2951   1.187   0.254   2.224 -0.5976 -2.2911 -0.9029
  984SOL    HW2 2952   1.082   0.121   2.189 -0.5089 -2.3211 -0.4927
  985SOL     OW 2953   1.925   1.645   2.080  0.1260  0.4872  0.4419
  985SOL    HW1 2954   1.890   1.741   2.086 -0.8709 -0.0752  1.6423
  985SOL    HW2 2955   2.003   1.628   2.139 -2.8979 -1.1927 -0.5474
  986SOL     OW 2956   2.850   0.283   1.142  0.4605 -0.4096 -0.0799
  986SOL    HW1 2957   2.931   0.225   1.127  1.4908  1.0537  0.2900
  986SOL    HW2 2958   2.878   0.378   1.151 -3.2893 -1.8149  0.8080
  987SOL     OW 2959   2.803   0.995   1.296  0.7124  0.4112 -0.1735
  987SOL    HW1 2960   2.734   0.988   1.373  4.0061  1.4518  1.8200
  987SOL    HW2 2961   2.870   1.065   1.312  1.0596  0.0649 -3.4356
  988SOL     OW 2962   3.003   1.040   2.053  0.3408  0.2706 -0.2673
  988SOL    HW1 2963   3.061   1.028   2.137 -0.9442  0.2364  0.3800
  988SOL    HW2 2964   2.933   0.962   2.058  0.6941 -1.4542 -1.4161
  989SOL     OW 2965   1.674   1.785   0.193  0.0010 -0.0425  0.7695
  989SOL    HW1 2966   1.730   1.872   0.215  1.0315  3.4452  0.5202
  989SOL    HW2 2967   1.631   1.787   0.097 -2.7901  2.1128 -1.8220
  990SOL     OW 2968   1.096   0.587   2.288 -0.4425 -0.4138  0.2750
  990SOL    HW1 2969   1.142   0.678   2.282  1.7738 -0.0811 -0.6728
  990SOL    HW2 2970   1.012   0.596   2.353 -0.8577 -0.6336  1.0639
  991SOL     OW 2971   1.369   0.961   0.602  0.4659  0.1105  0.2487
  991SOL    HW1 2972   1.402   0.927   0.688 -1.5424  3.1295 -0.3434
  991SOL    HW2 2973   1.438   0.950   0.527 -2.0227 -1.7538  1.5226
  992SOL     OW 2974   2.355   1.436   0.842  0.5615  0.2728  0.3674
  992SOL    HW1 2975   2.280   1.361   0.826 -2.8587  0.0997 -0.5528
  992SOL    HW2 2976   2.446   1.389   0.836  1.2424 -3.0100 -3.5638
  993SOL     OW 2977   3.111   0.656   0.805 -0.1179  0.4835 -0.2883
  993SOL    HW1 2978   0.046   0.682   0.891  2.0647  0.5858  0.6051
  993SOL    HW2 2979   0.056   0.673   0.730 -1.3806  2.5657  3.5639
  994SOL     OW 2980   0.433   2.240   2.613  0.0954 -0.0652  0.7301
  994SOL    HW1 2981   0.402   2.220   2.517  1.6046  0.5598 -2.2486
  994SOL    HW2 2982   0.376   2.316   2.645  3.5075 -1.4550 -0.5485
  995SOL     OW 2983   1.870   1.144   2.704 -0.4338  0.8506  0.3804
  995SOL    HW1 2984   1.904   1.231   2.673  0.4596 -0.9113 -0.1839
  995SOL    HW2 2985   1.833   1.086   2.629 -2.0302 -0.9541 -1.7560
  996SOL     OW 2986   2.971   1.259   0.589  0.3555  0.3233 -0.0698
  996SOL    HW1 2987   2.899   1.252   0.518  1.6361  0.7305  2.1325
  996SOL    HW2 2988   2.941   1.310   0.669 -2.0765  1.6097 -1.4787
  997SOL     OW 2989   1.653   1.034   1.986  0.2657 -0.1639 -0.3127
  997SOL    HW1 2990   1.572   1.084   2.019 -0.8635 -2.7062  0.0615
  997SOL    HW2 2991   1.627   0.985   1.898  0.7769  0.0073 -0.5794
  998SOL     OW 2992   2.719   1.892   0.258  0.4251 -0.1729  0.2631
  998SOL    HW1 2993   2.794   1.840   0.213 -1.1600  0.0236 -1.2283
  998SOL    HW2 2994   2.647   1.829   0.294 -0.2373 -1.7288 -0.2810
  999SOL     OW 2995   2.995   2.186   0.313  0.5928  0.3123 -0.3086
  999SOL    HW1 2996   3.086   2.145   0.328 -2.1592  0.7806 -0.4466
  999SOL    HW2 2997   2.950   2.217   0.399  0.0003  1.2764 -1.4109
 1000SOL     OW 2998   0.912   0.993   2.408  0.1106  0.4875 -0.1010
 1000SOL    HW1 2999   0.943   0.944   2.492  1.0835 -0.5573  2.3474
 1000SOL    HW2 3000   0.959   0.949   2.329 -0.5319 -0.1779  3.6802
   3.11542   3.11542   3.11542
