1000 SPC/Fw water molecules t= 139.00000 step= 139000
 3000
    1SOL     OW    1   2.118   2.382   0.967 -0.2621  0.8204  0.2801
    1SOL    HW1    2   2.057   2.457   0.944  0.0947  1.7625 -0.5985
    1SOL    HW2    3   2.116   2.365   1.067  0.0141  0.3817 -0.9551
    2SOL     OW    4   1.579   1.922   2.379 -0.2783  0.2362 -0.1958
    2SOL    HW1    5   1.624   2.008   2.356 -0.8544 -3.2031 -1.3499
    2SOL    HW2    6   1.588   1.897   2.477 -0.4683 -0.9165 -2.4777
    3SOL     OW    7   1.652   2.518   2.195 -0.7905 -0.7411 -0.3055
    3SOL    HW1    8   1.728   2.565   2.249  0.0478  0.6707  2.3657
    3SOL    HW2    9   1.676   2.422   2.175 -0.8062  2.6735  3.4296
    4SOL     OW   10   1.579   2.693   1.994  0.6403 -0.2639 -0.0943
    4SOL    HW1   11   1.621   2.628   2.053 -1.9603  1.2230  0.5686
    4SOL    HW2   12   1.623   2.701   1.900  0.5069 -0.7449 -2.0029
    5SOL     OW   13   0.480   0.582   1.440 -0.4662 -0.0316  0.5003
    5SOL    HW1   14   0.550   0.511   1.421 -0.0699  0.4194 -0.6358
    5SOL    HW2   15   0.391   0.544   1.415 -0.6783 -1.3569  1.9720
    6SOL     OW   16   2.578   1.119   2.948  0.4254 -0.5197 -0.2543
    6SOL    HW1   17   2.585   1.035   3.009 -0.1163  1.2367  0.1266
    6SOL    HW2   18   2.590   1.098   2.847 -1.4431  0.1073 -1.9757
    7SOL     OW   19   0.602   0.343   1.345 -0.1132 -0.4923 -0.2082
    7SOL    HW1   20   0.579   0.248   1.362  0.0848  1.2499 -2.0315
    7SOL    HW2   21   0.570   0.365   1.256 -1.2599 -4.9040  1.0775
    8SOL     OW   22   1.009   2.691   1.466  0.5328 -0.0524  0.1803
    8SOL    HW1   23   0.971   2.719   1.376 -2.4760  0.4425 -1.4864
    8SOL    HW2   24   0.947   2.630   1.512  2.0648  2.9562 -0.6751
    9SOL     OW   25   0.754   0.774   0.420 -0.3229  0.0414 -0.1821
    9SOL    HW1   26   0.659   0.789   0.454 -1.8923 -0.8658 -2.2889
    9SOL    HW2   27   0.798   0.861   0.406 -1.6918 -2.4175 -1.0295
   10SOL     OW   28   0.731   2.374   2.512  0.1986 -0.5881  0.3861
   10SOL    HW1   29   0.663   2.420   2.571 -1.6267  0.6616 -0.9259
   10SOL    HW2   30   0.740   2.431   2.430 -0.2454 -0.7551 -1.7183
   11SOL     OW   31   0.376   1.890   0.152 -0.2249  0.3043 -0.2653
   11SOL    HW1   32   0.281   1.930   0.143 -0.9977  1.9809 -0.9316
   11SOL    HW2   33   0.382   1.843   0.245  2.1407  0.7372  2.4905
   12SOL     OW   34   0.590   0.025   1.424 -1.0035 -0.3624  0.5278
   12SOL    HW1   35   0.530   0.008   1.505  3.2242 -2.1994  0.0406
   12SOL    HW2   36   0.540   0.009   1.335  0.2931  1.7044  0.0600
   13SOL     OW   37   0.803   2.556   0.229  1.1194 -0.0242  0.0919
   13SOL    HW1   38   0.835   2.501   0.150 -0.2896 -0.2422  0.5628
   13SOL    HW2   39   0.799   2.657   0.202 -0.1407  2.7347  1.0122
   14SOL     OW   40   1.509   1.961   1.149  0.5229 -0.2134 -0.6054
   14SOL    HW1   41   1.607   1.992   1.145  0.0119 -1.1934 -1.1103
   14SOL    HW2   42   1.443   2.039   1.129 -2.3172  2.9225  0.0917
   15SOL     OW   43   2.557   0.751   2.420  0.2220 -0.0659 -0.3532
   15SOL    HW1   44   2.626   0.781   2.490 -1.7536 -0.4833 -0.7989
   15SOL    HW2   45   2.472   0.810   2.410 -0.5512  0.8518 -0.7638
   16SOL     OW   46   1.522   2.876   3.008 -0.0353 -0.7613  0.0823
   16SOL    HW1   47   1.557   2.825   2.929  0.1016  1.8004 -2.5452
   16SOL    HW2   48   1.595   2.940   3.046 -0.9749  1.4798  0.4652
   17SOL     OW   49   0.589   2.295   1.970 -0.0697 -0.0311  0.2928
   17SOL    HW1   50   0.658   2.261   2.040  1.9052 -1.7405 -0.1475
   17SOL    HW2   51   0.576   2.393   1.990  1.5717 -1.8411  0.5506
   18SOL     OW   52   1.487   1.127   0.404 -0.1139 -0.2838  0.5465
   18SOL    HW1   53   1.440   1.213   0.375 -1.8250  2.1642 -0.3799
   18SOL    HW2   54   1.433   1.085   0.480 -0.6254 -0.4879  2.5273
   19SOL     OW   55   2.511   2.213   2.818 -0.5039 -0.0173  0.4365
   19SOL    HW1   56   2.466   2.183   2.902  1.2698  0.5302 -2.8078
   19SOL    HW2   57   2.554   2.138   2.760 -0.1994  3.4010  2.7182
   20SOL     OW   58   2.144   1.922   2.512 -0.3301  0.1328  0.4488
   20SOL    HW1   59   2.146   1.821   2.508  0.7127 -1.5818 -1.4776
   20SOL    HW2   60   2.058   1.959   2.468  0.5270 -1.3571  0.2694
   21SOL     OW   61   0.657   2.118   2.900  0.2211  0.5583 -0.3544
   21SOL    HW1   62   0.690   2.173   2.980 -0.7016 -0.4597  0.9959
   21SOL    HW2   63   0.622   2.025   2.934  0.5044 -0.4017  1.1880
   22SOL     OW   64   2.031   3.041   1.496 -0.6462 -0.1254  0.1235
   22SOL    HW1   65   1.965   0.015   1.549  0.7182 -1.4017 -2.6837
   22SOL    HW2   66   2.127   3.066   1.522 -0.3396  0.5671 -1.4122
   23SOL     OW   67   0.217   1.335   1.410  0.8661 -0.2269 -0.0309
   23SOL    HW1   68   0.174   1.331   1.503 -0.8665  0.6983  1.8436
   23SOL    HW2   69   0.308   1.288   1.405  0.4155 -0.2877  1.1830
   24SOL     OW   70   2.424   1.993   1.714  0.2701 -0.0953  0.6343
   24SOL    HW1   71   2.469   1.950   1.631  0.3884 -1.2231  0.7779
   24SOL    HW2   72   2.376   2.077   1.694 -0.3308  1.8863  0.5863
   25SOL     OW   73   1.973   2.938   2.854 -0.5519  0.6144 -0.0973
   25SOL    HW1   74   2.067   2.975   2.872 -0.6062 -2.3847  0.8346
   25SOL    HW2   75   1.963   2.925   2.756  0.7437  1.0995  0.2379
   26SOL     OW   76   1.207   2.988   0.855  0.1956  0.4796  0.1628
   26SOL    HW1   77   1.271   2.942   0.921  0.3137  0.6376 -0.5939
   26SOL    HW2   78   1.214   0.000   0.872  1.8521  1.0074 -0.4121
   27SOL     OW   79   1.130   1.952   2.762 -0.1412  0.0605 -0.0486
   27SOL    HW1   80   1.129   1.955   2.863 -0.9358  2.7028  0.8061
   27SOL    HW2   81   1.042   1.923   2.717 -1.0076  1.6394  0.7482
   28SOL     OW   82   3.049   1.655   1.414 -0.4615  0.0842 -0.1433
   28SOL    HW1   83   0.051   1.706   1.396 -0.4876 -1.1942 -0.1989
   28SOL    HW2   84   2.981   1.675   1.344  3.4659 -1.1410 -0.8944
   29SOL     OW   85   2.286   2.267   2.256 -0.2135 -0.1272  0.6817
   29SOL    HW1   86   2.354   2.339   2.283 -0.7491  0.1552 -1.9833
   29SOL    HW2   87   2.305   2.178   2.299  2.7788 -0.8657  0.2786
   30SOL     OW   88   1.031   2.768   1.190  0.7739 -0.0146 -0.1153
   30SOL    HW1   89   1.079   2.834   1.254 -0.5743 -1.4662 -0.2296
   30SOL    HW2   90   1.053   2.789   1.087  0.5466 -1.8425 -1.1392
   31SOL     OW   91   3.071   2.039   2.040  0.1360 -0.0347 -0.4508
   31SOL    HW1   92   3.010   1.964   2.073  0.2100 -0.7123  1.4759
   31SOL    HW2   93   0.075   2.006   2.000  3.8705 -0.9781 -1.2730
   32SOL     OW   94   1.299   1.074   2.011 -0.1158 -0.7351  0.3691
   32SOL    HW1   95   1.278   1.078   1.913 -1.6447 -0.0242  2.8386
   32SOL    HW2   96   1.241   1.137   2.063 -2.2735  0.7792 -1.1197
   33SOL     OW   97   0.486   2.858   2.477  0.6636 -0.0684 -0.0931
   33SOL    HW1   98   0.419   2.929   2.483  1.0330  0.2043 -0.5755
   33SOL    HW2   99   0.515   2.833   2.570  0.3911 -0.3034 -1.4867
   34SOL     OW  100   1.471   3.079   1.523  0.3780  0.0028 -0.2440
   34SOL    HW1  101   1.479   3.006   1.454  1.3812  3.0071  1.0414
   34SOL    HW2  102   1.480   3.051   1.618 -0.6475  1.2942 -0.0592
   35SOL     OW  103   2.018   0.388   1.046 -0.2303  0.0992 -0.3070
   35SOL    HW1  104   1.989   0.286   1.042  0.3562 -0.7719 -0.1919
   35SOL    HW2  105   1.951   0.461   1.013 -1.2276  0.2437 -0.3334
   36SOL     OW  106   2.364   2.897   2.473  0.0417 -0.2447 -0.0718
   36SOL    HW1  107   2.329   2.827   2.539 -0.2678 -1.0965  0.8036
   36SOL    HW2  108   2.460   2.916   2.483 -0.7976  1.2569 -1.0015
   37SOL     OW  109   1.475   2.552   2.554 -0.5721  0.3728  0.1512
   37SOL    HW1  110   1.431   2.609   2.630 -2.4165  3.1137  1.1415
   37SOL    HW2  111   1.407   2.505   2.495  1.9974  2.2160  0.7354
   38SOL     OW  112   2.435   0.635   2.791  0.4615 -0.4109  0.7049
   38SOL    HW1  113   2.366   0.632   2.866 -1.3038 -0.1639  1.8652
   38SOL    HW2  114   2.523   0.668   2.828 -3.2197  0.0944 -2.2871
   39SOL     OW  115   1.964   2.172   2.528 -0.6811 -0.4852  0.1402
   39SOL    HW1  116   2.028   2.164   2.610  0.9000  2.1187 -0.8425
   39SOL    HW2  117   1.968   2.264   2.483 -1.6641 -0.2830  0.7360
   40SOL     OW  118   0.345   0.111   0.001  0.4843 -0.1148 -0.2470
   40SOL    HW1  119   0.345   0.103   2.986 -2.0294  0.9801  0.2210
   40SOL    HW2  120   0.322   0.023   0.048  0.6574  1.6031 -1.9593
   41SOL     OW  121   1.287   0.949   1.527 -0.1843 -0.1986 -0.0636
   41SOL    HW1  122   1.279   1.012   1.446  2.1571  1.0913 -1.1955
   41SOL    HW2  123   1.232   0.869   1.516  4.8761  1.5789  0.5870
   42SOL     OW  124   0.397   0.272   1.611  0.0911  0.0482  0.0736
   42SOL    HW1  125   0.363   0.181   1.590 -1.1707  0.4057 -0.3676
   42SOL    HW2  126   0.488   0.262   1.644 -2.7183  0.4222 -0.5681
   43SOL     OW  127   1.564   1.212   2.243  0.3073 -0.4815  0.6218
   43SOL    HW1  128   1.470   1.250   2.261 -2.2242 -0.6562  0.9028
   43SOL    HW2  129   1.573   1.211   2.141 -0.5096  0.7821  0.3218
   44SOL     OW  130   0.150   2.670   2.599 -0.2262 -0.4153  0.3426
   44SOL    HW1  131   0.214   2.702   2.674  0.9210 -1.2628 -1.4303
   44SOL    HW2  132   0.156   2.732   2.516 -0.2111  0.9655  1.0243
   45SOL     OW  133   0.445   2.437   1.157 -0.1464  0.3249 -0.3217
   45SOL    HW1  134   0.400   2.518   1.120  0.7465 -0.2628  2.2451
   45SOL    HW2  135   0.536   2.417   1.110  0.2711 -1.1792 -1.4953
   46SOL     OW  136   2.260   2.369   1.859  0.5776  0.0951  0.0145
   46SOL    HW1  137   2.213   2.328   1.941  1.2899  1.0581 -1.0270
   46SOL    HW2  138   2.354   2.387   1.888 -2.4363 -1.2605 -0.2983
   47SOL     OW  139   1.837   1.886   1.689 -0.4042 -0.0182 -0.0263
   47SOL    HW1  140   1.775   1.922   1.759  5.1358 -2.3258 -2.4995
   47SOL    HW2  141   1.879   1.796   1.715  3.9498  0.4540 -2.4879
   48SOL     OW  142   0.486   1.972   0.498  0.0859 -0.3977 -0.4871
   48SOL    HW1  143   0.590   1.976   0.499 -0.3316 -2.0319  3.1329
   48SOL    HW2  144   0.452   2.056   0.453  0.4722 -1.5550  1.3730
   49SOL     OW  145   2.859   0.795   2.144  0.7145  0.2013  0.2406
   49SOL    HW1  146   2.886   0.762   2.235  0.8713  0.7264  0.0212
   49SOL    HW2  147   2.845   0.894   2.144  0.0434  0.8340  0.2950
   50SOL     OW  148   2.205   0.503   0.821  0.4755 -0.7323 -0.4905
   50SOL    HW1  149   2.139   0.558   0.869  5.3268  0.3826 -0.6379
   50SOL    HW2  150   2.189   0.403   0.842 -2.2282 -0.6855 -2.1154
   51SOL     OW  151   1.223   0.461   0.789 -0.4194 -0.8576 -0.6716
   51SOL    HW1  152   1.183   0.486   0.880  0.0522  2.2005  2.1647
   51SOL    HW2  153   1.309   0.509   0.775  1.4439 -0.2988 -0.0558
   52SOL     OW  154   1.245   1.203   0.312 -0.3227 -0.4128  0.1044
   52SOL    HW1  155   1.199   1.134   0.245 -3.0584 -3.6994  0.0003
   52SOL    HW2  156   1.186   1.211   0.396 -1.6628 -0.6689 -0.9327
   53SOL     OW  157   1.077   2.264   2.401 -0.3775  0.4043 -0.2069
   53SOL    HW1  158   1.144   2.214   2.462  0.9946 -1.4340  0.6748
   53SOL    HW2  159   1.095   2.366   2.407  1.1116 -1.5317 -0.4014
   54SOL     OW  160   1.529   0.845   1.611 -0.8066 -0.0394  0.3508
   54SOL    HW1  161   1.540   0.797   1.700  1.1035  0.7970  0.4030
   54SOL    HW2  162   1.435   0.884   1.605  0.5704  2.5814  1.4872
   55SOL     OW  163   1.894   2.806   0.573 -0.4032 -0.2660 -0.3293
   55SOL    HW1  164   1.801   2.816   0.613 -0.9013  2.1160 -1.0242
   55SOL    HW2  165   1.927   2.903   0.552  0.3366  0.9132  1.4900
   56SOL     OW  166   0.789   2.670   1.276  0.2546  0.4395  0.2352
   56SOL    HW1  167   0.861   2.700   1.213 -0.0488  0.2211  0.6043
   56SOL    HW2  168   0.761   2.736   1.349 -2.2235 -0.2884  1.1773
   57SOL     OW  169   2.003   1.018   0.120 -0.1272 -0.2821  0.1902
   57SOL    HW1  170   2.102   1.011   0.124 -4.7786  0.1252  0.6108
   57SOL    HW2  171   1.961   0.977   0.041  0.3673  0.9025  0.3117
   58SOL     OW  172   2.937   1.339   2.045 -0.2896  0.3988 -0.0796
   58SOL    HW1  173   2.872   1.370   2.116 -0.7401 -0.5238 -0.3780
   58SOL    HW2  174   3.025   1.383   2.068 -2.4618  0.6628  0.0545
   59SOL     OW  175   0.754   2.546   2.297  0.3195 -0.3904 -0.5020
   59SOL    HW1  176   0.710   2.518   2.210 -2.1846  0.0660 -1.3220
   59SOL    HW2  177   0.761   2.648   2.300 -1.2443  2.9586 -0.6981
   60SOL     OW  178   2.463   2.591   1.093 -0.0083 -0.3252  0.5784
   60SOL    HW1  179   2.412   2.543   1.018 -0.7527 -0.8716 -0.2730
   60SOL    HW2  180   2.544   2.643   1.053 -0.9610  0.8294 -1.0780
   61SOL     OW  181   1.321   2.044   0.386  0.2713 -0.1063  0.4337
   61SOL    HW1  182   1.221   2.052   0.384 -1.5975 -0.4586 -1.8471
   61SOL    HW2  183   1.365   2.102   0.456 -0.6787 -0.1828 -1.9322
   62SOL     OW  184   2.300   2.767   2.985  0.0466  0.6221  0.2705
   62SOL    HW1  185   2.392   2.727   2.972 -0.0091 -0.0964 -1.9055
   62SOL    HW2  186   2.227   2.706   3.015  3.5577 -0.1352 -1.7319
   63SOL     OW  187   1.920   0.255   0.144 -0.1048 -0.6957 -0.1632
   63SOL    HW1  188   2.007   0.212   0.116  0.7930 -0.4948 -1.9502
   63SOL    HW2  189   1.930   0.355   0.131 -0.2065  0.0459 -1.7878
   64SOL     OW  190   0.807   1.068   2.447 -0.2870 -0.2106  0.6735
   64SOL    HW1  191   0.803   1.142   2.512 -0.7831  1.1571  3.5803
   64SOL    HW2  192   0.797   0.979   2.495 -0.8908  2.7592 -1.3550
   65SOL     OW  193   1.245   2.442   0.215  0.0023  0.4072 -0.1813
   65SOL    HW1  194   1.205   2.392   0.134 -1.3431 -0.1747 -2.5809
   65SOL    HW2  195   1.300   2.516   0.179 -0.8919 -1.3525  1.4332
   66SOL     OW  196   0.614   1.555   1.468 -0.0300  0.4318 -0.8248
   66SOL    HW1  197   0.668   1.530   1.553  1.6626  2.2889  1.5011
   66SOL    HW2  198   0.509   1.545   1.484 -2.7970 -0.4138 -1.4434
   67SOL     OW  199   2.581   2.970   2.061  0.1995 -0.8884 -0.0782
   67SOL    HW1  200   2.618   3.059   2.024 -1.3319  2.7874 -1.6071
   67SOL    HW2  201   2.613   2.957   2.159 -2.4646  0.4827 -1.0159
   68SOL     OW  202   0.829   0.725   1.335  0.2940 -0.3895  0.2233
   68SOL    HW1  203   0.816   0.630   1.372 -0.9834 -0.7799 -3.3903
   68SOL    HW2  204   0.769   0.792   1.385 -0.1847 -1.3334  1.7430
   69SOL     OW  205   1.820   2.846   0.304 -0.2718  0.6505  0.1438
   69SOL    HW1  206   1.829   2.944   0.272  0.7282 -2.0397  0.5799
   69SOL    HW2  207   1.849   2.832   0.401 -2.3822 -1.5055  0.6853
   70SOL     OW  208   2.697   1.016   2.465  0.6151 -0.4600 -0.1701
   70SOL    HW1  209   2.625   1.041   2.396 -0.7040 -2.1780 -1.3952
   70SOL    HW2  210   2.794   1.021   2.423  1.1697 -0.8168 -0.6282
   71SOL     OW  211   2.892   1.730   3.068  0.0356  0.4128  0.3290
   71SOL    HW1  212   2.796   1.763   3.055 -0.3917 -5.4132 -0.0551
   71SOL    HW2  213   2.946   1.750   2.981  1.2534 -0.1182 -1.4239
   72SOL     OW  214   0.095   1.682   0.356  0.1275 -0.4104  0.0155
   72SOL    HW1  215   0.104   1.599   0.300  0.2704  0.8914 -1.3994
   72SOL    HW2  216   0.191   1.723   0.368  2.4942  0.9091 -1.1889
   73SOL     OW  217   1.125   1.247   0.560  0.5824 -0.0779  0.1252
   73SOL    HW1  218   1.130   1.181   0.637  0.1390 -0.4923 -1.8116
   73SOL    HW2  219   1.210   1.295   0.564 -3.4054 -2.8982  3.0626
   74SOL     OW  220   0.266   1.702   2.002 -0.0003  0.0494 -0.5875
   74SOL    HW1  221   0.235   1.795   2.024  1.7509 -2.1057  2.8352
   74SOL    HW2  222   0.281   1.679   1.904  0.6274  0.5355 -1.6636
   75SOL     OW  223   1.727   1.631   1.768  0.3237  0.4550 -0.0151
   75SOL    HW1  224   1.666   1.688   1.704  0.0803  1.1912 -2.2622
   75SOL    HW2  225   1.680   1.586   1.847 -0.8579  1.7917  0.2334
   76SOL     OW  226   2.102   2.637   1.440 -0.5049  0.1407  0.1954
   76SOL    HW1  227   2.179   2.571   1.447 -0.7212  1.8348 -1.7334
   76SOL    HW2  228   2.121   2.706   1.365 -1.3259 -0.4678 -2.5495
   77SOL     OW  229   2.380   1.358   1.593  0.0192 -1.0258 -0.0465
   77SOL    HW1  230   2.404   1.338   1.687 -0.8899 -0.4143 -3.4906
   77SOL    HW2  231   2.460   1.401   1.538  3.3931  0.1245 -1.1042
   78SOL     OW  232   1.515   0.759   0.555  0.3511  0.2153  0.1019
   78SOL    HW1  233   1.436   0.819   0.540  1.5226 -0.8835 -0.5862
   78SOL    HW2  234   1.499   0.681   0.618  3.3332 -0.1053 -0.9220
   79SOL     OW  235   2.124   1.426   1.602 -0.0747  0.0270 -0.5602
   79SOL    HW1  236   2.077   1.380   1.525  0.7661 -1.8541 -0.8570
   79SOL    HW2  237   2.219   1.388   1.611  0.3676  0.2814 -1.0745
   80SOL     OW  238   0.824   0.476   1.424 -0.2745  0.0383 -0.0494
   80SOL    HW1  239   0.764   0.397   1.402  1.6963  0.6604  1.2586
   80SOL    HW2  240   0.917   0.463   1.381  1.8021  1.8969 -0.9428
   81SOL     OW  241   0.756   2.898   0.938 -0.0535  0.3799  0.0217
   81SOL    HW1  242   0.737   2.966   0.868  0.4495 -1.9864  5.5904
   81SOL    HW2  243   0.856   2.867   0.932  0.4911 -0.5658 -1.0034
   82SOL     OW  244   1.435   3.029   1.792  0.1942  0.0524 -0.2743
   82SOL    HW1  245   1.359   2.961   1.788  1.1588  2.0526  0.2988
   82SOL    HW2  246   1.504   3.000   1.860  0.4937 -1.0912  1.1624
   83SOL     OW  247   1.249   1.958   0.732  0.2255  0.3142  0.4228
   83SOL    HW1  248   1.250   1.984   0.830  1.4757 -3.0323 -0.2589
   83SOL    HW2  249   1.321   2.014   0.685 -2.7148 -0.6469  1.5010
   84SOL     OW  250   0.089   1.619   2.748 -0.0233  0.0264  0.5927
   84SOL    HW1  251   0.051   1.710   2.717 -2.4852  3.9475  1.0383
   84SOL    HW2  252   0.056   1.546   2.683 -0.8616  1.4398 -0.4541
   85SOL     OW  253   0.351   2.186   1.064  0.1470 -0.2104 -0.2695
   85SOL    HW1  254   0.254   2.209   1.061 -0.2007 -1.3228  1.8129
   85SOL    HW2  255   0.405   2.265   1.098 -0.4130  0.2731  0.2363
   86SOL     OW  256   2.303   2.390   1.462 -0.1747  0.2461  0.3063
   86SOL    HW1  257   2.360   2.446   1.527  1.9390 -0.8073  0.0874
   86SOL    HW2  258   2.287   2.300   1.503  0.9873 -0.3407 -0.7895
   87SOL     OW  259   2.964   2.172   0.857 -0.1726  0.2887  0.0073
   87SOL    HW1  260   3.039   2.214   0.915  0.9732 -4.3865  1.9418
   87SOL    HW2  261   2.987   2.152   0.756  0.7177  1.7319 -0.4355
   88SOL     OW  262   1.032   1.111   1.129  0.5853  0.8162 -0.3311
   88SOL    HW1  263   1.007   1.164   1.048 -1.0877 -0.4612  0.5673
   88SOL    HW2  264   0.990   1.020   1.122  1.2435  0.9405  1.2497
   89SOL     OW  265   0.965   3.034   2.144  0.0861 -0.6240  0.4042
   89SOL    HW1  266   0.920   0.015   2.206  0.9035 -2.0685 -0.2800
   89SOL    HW2  267   0.899   3.000   2.074  3.3181 -0.5174  0.0910
   90SOL     OW  268   3.081   2.072   1.446 -0.0481  0.8337 -0.5489
   90SOL    HW1  269   0.037   2.013   1.371  0.3553  2.3229  1.4384
   90SOL    HW2  270   0.058   2.105   1.516 -1.8620 -0.1469 -0.4233
   91SOL     OW  271   1.345   1.893   1.652 -0.4899  0.3585 -0.2426
   91SOL    HW1  272   1.351   1.855   1.746 -0.9105 -0.9688 -1.3591
   91SOL    HW2  273   1.404   1.829   1.593  4.2006  0.0120 -2.6368
   92SOL     OW  274   2.636   2.716   1.470 -0.8244 -0.3062  0.3687
   92SOL    HW1  275   2.593   2.632   1.497  1.6496  2.7200 -0.9586
   92SOL    HW2  276   2.615   2.796   1.530  0.9964  1.6099  0.4852
   93SOL     OW  277   2.768   1.249   2.739 -0.0766 -0.4087 -0.0264
   93SOL    HW1  278   2.681   1.202   2.711  0.4679  0.5168 -2.5214
   93SOL    HW2  279   2.755   1.311   2.821  0.6287  1.7219 -0.3304
   94SOL     OW  280   2.767   2.547   1.938 -0.8126  0.1292  0.1482
   94SOL    HW1  281   2.861   2.538   1.904 -1.8010  1.0601 -2.1925
   94SOL    HW2  282   2.745   2.645   1.942  2.0961 -0.3876  2.6210
   95SOL     OW  283   1.299   0.558   2.101 -0.2539  0.1213 -0.1698
   95SOL    HW1  284   1.361   0.497   2.149 -2.0102 -0.2852 -1.0237
   95SOL    HW2  285   1.309   0.657   2.130  1.0925  2.8984 -0.6202
   96SOL     OW  286   2.445   0.719   1.446 -0.0091 -0.1083 -0.4443
   96SOL    HW1  287   2.503   0.642   1.470 -0.0394 -0.3644 -0.6803
   96SOL    HW2  288   2.376   0.721   1.524  0.6734  0.4070  0.7634
   97SOL     OW  289   1.861   0.558   1.722 -0.0001  0.9191  0.2691
   97SOL    HW1  290   1.783   0.491   1.710 -0.3801  0.6130  2.0567
   97SOL    HW2  291   1.904   0.578   1.635  0.2127  2.6640  0.7563
   98SOL     OW  292   1.762   2.870   1.441  0.1763  0.4555  0.4840
   98SOL    HW1  293   1.855   2.883   1.487  1.4384 -2.8370 -0.8001
   98SOL    HW2  294   1.697   2.841   1.506 -0.3144  1.2104 -2.9312
   99SOL     OW  295   2.691   0.142   2.005 -0.2072 -0.0035 -0.1252
   99SOL    HW1  296   2.788   0.179   2.022  2.6427  2.7341  0.2038
   99SOL    HW2  297   2.623   0.217   1.997  1.2280  2.0479  0.7604
  100SOL     OW  298   2.290   1.558   1.840 -0.2136 -0.4724  0.3771
  100SOL    HW1  299   2.204   1.544   1.786 -1.9907 -1.7082 -1.0720
  100SOL    HW2  300   2.351   1.478   1.837 -0.3645 -1.0037 -1.7967
  101SOL     OW  301   1.489   0.260   0.699 -0.2276  0.6999  0.3693
  101SOL    HW1  302   1.416   0.230   0.763  0.1814 -0.3998  2.9852
  101SOL    HW2  303   1.532   0.348   0.727 -2.6516  1.9499 -0.8407
  102SOL     OW  304   0.487   0.969   1.088 -0.1283  0.8160  0.0644
  102SOL    HW1  305   0.416   1.035   1.082 -0.6977  1.4815  1.1260
  102SOL    HW2  306   0.486   0.917   1.177 -2.2746  0.2657 -1.0088
  103SOL     OW  307   2.881   0.522   3.048 -0.5118  0.0602  0.0947
  103SOL    HW1  308   2.864   0.438   0.012  1.6964  0.7522 -1.5761
  103SOL    HW2  309   2.903   0.598   0.026  0.9601 -2.3696 -1.3945
  104SOL     OW  310   2.693   0.095   1.723 -0.3399  0.2750  0.1367
  104SOL    HW1  311   2.744   0.181   1.701  0.7718  0.9795 -0.3288
  104SOL    HW2  312   2.671   0.087   1.821 -0.8448  0.3013  1.4768
  105SOL     OW  313   1.944   0.597   2.188 -0.1815 -0.2015  0.4814
  105SOL    HW1  314   1.884   0.553   2.256 -0.6580 -1.3861 -1.1691
  105SOL    HW2  315   1.896   0.680   2.155 -1.5677 -2.1148  1.2105
  106SOL     OW  316   1.752   0.151   0.966  0.2400 -0.1773 -0.1234
  106SOL    HW1  317   1.839   0.107   0.996  0.5899 -1.2753 -1.4843
  106SOL    HW2  318   1.674   0.089   0.935 -0.2308 -0.5475 -3.0110
  107SOL     OW  319   0.742   1.178   0.821 -0.3712  0.4400  0.3646
  107SOL    HW1  320   0.790   1.193   0.731  3.7498 -0.4710  1.6327
  107SOL    HW2  321   0.641   1.171   0.803  1.4210 -0.4656 -1.5080
  108SOL     OW  322   2.961   0.228   2.025 -0.6844  0.5463 -0.4028
  108SOL    HW1  323   2.994   0.270   1.935 -0.6984  3.2648 -0.8227
  108SOL    HW2  324   3.014   0.143   2.052  0.8039  0.8955 -1.8026
  109SOL     OW  325   1.958   0.547   0.179  0.6120  0.2731  0.9269
  109SOL    HW1  326   1.880   0.557   0.112 -1.1421 -1.7690 -2.3003
  109SOL    HW2  327   1.935   0.572   0.272  1.3973  0.0777 -0.7639
  110SOL     OW  328   0.216   2.183   2.642 -0.0853  0.6174 -0.1447
  110SOL    HW1  329   0.196   2.255   2.573 -0.2831  2.6428  2.3671
  110SOL    HW2  330   0.147   2.183   2.717  1.1553  0.0389 -1.6158
  111SOL     OW  331   2.169   0.037   1.949 -0.0869  0.3753 -0.2146
  111SOL    HW1  332   2.164   0.133   1.992 -0.5108  1.4114  0.9236
  111SOL    HW2  333   2.076   0.011   1.916 -0.6827  0.5880  2.6914
  112SOL     OW  334   2.316   2.995   0.429  0.1607  0.3384 -0.4198
  112SOL    HW1  335   2.262   3.050   0.364  0.8602 -0.8890  0.4344
  112SOL    HW2  336   2.258   2.918   0.467  1.4526  2.9731  1.9520
  113SOL     OW  337   2.548   1.820   1.540 -0.7011  0.2940  0.0567
  113SOL    HW1  338   2.648   1.791   1.562  1.7438 -0.9325 -1.1266
  113SOL    HW2  339   2.544   1.867   1.450 -0.3411  1.0786  1.5210
  114SOL     OW  340   2.682   0.868   0.693 -0.2984 -0.7627  0.1503
  114SOL    HW1  341   2.609   0.819   0.743  2.4543 -0.8054 -1.2965
  114SOL    HW2  342   2.768   0.820   0.709 -1.3626  0.0002 -0.8458
  115SOL     OW  343   3.012   1.840   0.196  0.3291 -0.1689 -0.3004
  115SOL    HW1  344   3.060   1.781   0.262 -0.5242 -0.6020  0.0714
  115SOL    HW2  345   2.940   1.788   0.144 -1.4847  0.3093 -0.1270
  116SOL     OW  346   3.004   1.558   1.800 -0.7224  0.2368 -0.2636
  116SOL    HW1  347   2.903   1.538   1.800 -3.2763  0.2472  0.1381
  116SOL    HW2  348   3.045   1.510   1.885 -0.7334 -0.3171  0.4275
  117SOL     OW  349   2.489   3.084   0.627  0.1802  0.3554  0.1576
  117SOL    HW1  350   2.443   0.051   0.702 -0.1030  0.3812  1.2168
  117SOL    HW2  351   2.422   3.067   0.557 -1.8136 -2.7642  1.5068
  118SOL     OW  352   0.517   2.211   1.525  0.3712  0.1803 -0.2680
  118SOL    HW1  353   0.602   2.222   1.577  1.0381 -0.9921  0.1428
  118SOL    HW2  354   0.469   2.294   1.482  0.3971 -0.3760  0.0994
  119SOL     OW  355   1.853   2.223   1.273  0.4880 -0.0343 -0.3348
  119SOL    HW1  356   1.910   2.135   1.295  0.9562  0.5918 -2.0617
  119SOL    HW2  357   1.765   2.217   1.325  2.1895  0.3095 -1.3919
  120SOL     OW  358   0.100   1.677   2.340  0.1327 -0.0635 -0.0656
  120SOL    HW1  359   0.175   1.609   2.363  1.3729 -1.0040 -2.0310
  120SOL    HW2  360   0.133   1.775   2.341 -0.4446  0.5687 -3.1615
  121SOL     OW  361   2.796   1.654   1.139  0.4082  0.0939  0.0045
  121SOL    HW1  362   2.779   1.751   1.110  1.8939  1.6681 -0.0776
  121SOL    HW2  363   2.895   1.626   1.121  0.4609 -0.2647  0.2975
  122SOL     OW  364   2.221   1.410   2.346 -0.4518 -0.2490 -0.3152
  122SOL    HW1  365   2.277   1.447   2.265 -0.8242  0.5662  2.9150
  122SOL    HW2  366   2.171   1.489   2.391  0.6623 -0.1790 -1.5635
  123SOL     OW  367   3.081   0.039   0.730  0.0504 -1.0286  0.1504
  123SOL    HW1  368   2.984   0.024   0.756 -0.5164  0.1761  0.5289
  123SOL    HW2  369   0.033   3.039   0.687  2.1925  3.3530  1.2336
  124SOL     OW  370   1.390   1.245   2.630 -0.0468  0.1629  0.0460
  124SOL    HW1  371   1.322   1.234   2.553  1.1611 -0.1883 -2.0591
  124SOL    HW2  372   1.401   1.155   2.679  0.7019 -0.2843  0.3680
  125SOL     OW  373   0.387   1.464   2.652 -0.3112  0.2335 -0.2546
  125SOL    HW1  374   0.433   1.508   2.731  0.1172 -0.4683 -2.0120
  125SOL    HW2  375   0.361   1.369   2.672  0.7321 -0.0335  2.5964
  126SOL     OW  376   2.874   2.074   0.167  0.1183  0.2726  0.2487
  126SOL    HW1  377   2.906   2.136   0.243  0.4038  1.4281  0.9138
  126SOL    HW2  378   2.922   1.985   0.166  0.4961  0.0833 -1.9594
  127SOL     OW  379   0.628   1.654   0.800 -0.0570  0.1429 -0.4642
  127SOL    HW1  380   0.690   1.722   0.762  1.3027 -0.5573 -1.3380
  127SOL    HW2  381   0.578   1.603   0.726 -0.1674  0.9973  2.6455
  128SOL     OW  382   1.433   0.914   0.261 -0.7079 -0.2711 -0.1085
  128SOL    HW1  383   1.508   0.867   0.211  0.2595  0.7329  1.0431
  128SOL    HW2  384   1.463   0.997   0.312  0.1170 -1.2967 -1.2350
  129SOL     OW  385   2.383   1.733   1.110  0.0243  0.2322 -0.0109
  129SOL    HW1  386   2.294   1.724   1.056 -0.0578 -0.9655  0.4077
  129SOL    HW2  387   2.455   1.765   1.047  0.5596  1.3233 -0.1436
  130SOL     OW  388   2.010   1.414   0.871  0.2317  0.7346 -0.0990
  130SOL    HW1  389   1.951   1.493   0.842  0.7837 -0.6491 -0.7967
  130SOL    HW2  390   1.965   1.344   0.933  0.3643 -2.3997 -0.8857
  131SOL     OW  391   0.108   0.872   2.558 -0.1236 -0.2615 -0.2733
  131SOL    HW1  392   0.079   0.969   2.532  0.5141  0.1437  1.9663
  131SOL    HW2  393   0.182   0.869   2.627  1.5748 -0.9157 -0.5400
  132SOL     OW  394   2.419   1.798   1.902  0.3550  0.2238 -0.2999
  132SOL    HW1  395   2.417   1.865   1.826  0.4182  0.3207 -1.7711
  132SOL    HW2  396   2.388   1.709   1.867 -0.8799  3.6734  1.1514
  133SOL     OW  397   3.061   1.249   2.957  0.2627 -0.5461 -0.6479
  133SOL    HW1  398   2.979   1.253   3.023  0.8407  2.3479  1.4154
  133SOL    HW2  399   3.037   1.195   2.879 -2.3985  2.5213  0.9708
  134SOL     OW  400   0.195   1.411   2.920  0.2843 -0.3782 -0.2154
  134SOL    HW1  401   0.109   1.357   2.942 -0.4214 -1.6748 -1.7296
  134SOL    HW2  402   0.173   1.490   2.854 -0.7011  2.8265 -0.2932
  135SOL     OW  403   2.252   1.436   0.517  0.9611 -0.2847  0.0786
  135SOL    HW1  404   2.221   1.475   0.427  0.8166 -0.7196 -2.5646
  135SOL    HW2  405   2.301   1.507   0.568  1.3160 -1.2011  1.6409
  136SOL     OW  406   1.956   1.327   1.421  0.0841 -0.0302 -0.0156
  136SOL    HW1  407   2.017   1.325   1.333 -0.9877 -2.7563 -1.0788
  136SOL    HW2  408   1.887   1.402   1.426  2.3166 -2.0302 -0.4707
  137SOL     OW  409   2.566   2.260   0.732 -0.0763 -0.1552 -0.2405
  137SOL    HW1  410   2.506   2.184   0.763 -0.9056  0.2064  0.6319
  137SOL    HW2  411   2.593   2.250   0.636 -1.5554  0.7247  4.0737
  138SOL     OW  412   1.362   0.232   1.549  0.7642 -0.5948 -0.3615
  138SOL    HW1  413   1.403   0.140   1.527 -1.6721  3.4868  0.3585
  138SOL    HW2  414   1.286   0.211   1.614 -0.1480 -0.9255  1.6505
  139SOL     OW  415   2.675   0.187   2.959  0.0400 -0.0352  0.3248
  139SOL    HW1  416   2.694   0.244   2.874 -1.3588  1.1472  2.9320
  139SOL    HW2  417   2.652   0.248   3.041 -0.4942  0.3354  1.3838
  140SOL     OW  418   1.703   2.034   2.797  0.3153  0.1821  0.7240
  140SOL    HW1  419   1.685   2.113   2.730 -1.2670  0.9151 -0.8732
  140SOL    HW2  420   1.788   2.035   2.850 -1.4135 -0.9377  1.3262
  141SOL     OW  421   0.687   0.912   1.476  0.4239 -0.2376 -0.5055
  141SOL    HW1  422   0.740   0.998   1.479  1.1069 -3.0246  2.2122
  141SOL    HW2  423   0.664   0.881   1.570 -0.7264 -1.9226  0.6928
  142SOL     OW  424   2.505   2.961   0.073 -0.1101  0.6995  0.1058
  142SOL    HW1  425   2.437   2.908   0.020  2.6184 -0.1476  1.8159
  142SOL    HW2  426   2.586   2.980   0.019 -1.9542  1.2734  0.2538
  143SOL     OW  427   0.825   2.173   2.682  0.0352 -0.2822 -0.0662
  143SOL    HW1  428   0.786   2.251   2.633  0.4260  0.6118  0.8499
  143SOL    HW2  429   0.763   2.145   2.754  2.8177 -2.1066 -2.2027
  144SOL     OW  430   1.019   2.664   3.032 -0.0624 -0.2145 -0.2394
  144SOL    HW1  431   1.088   2.660   2.957  1.5936  1.5490 -3.8507
  144SOL    HW2  432   0.965   2.574   3.037 -1.1121 -0.0753 -0.7417
  145SOL     OW  433   2.397   1.828   0.152 -0.0116 -0.2647  0.4321
  145SOL    HW1  434   2.321   1.875   0.198 -0.1288  0.0571  0.8697
  145SOL    HW2  435   2.488   1.865   0.183  0.6544  0.4632 -0.6369
  146SOL     OW  436   2.762   2.765   2.989  0.2133 -0.1241  0.1185
  146SOL    HW1  437   2.783   2.862   3.009  1.5654  1.6228 -1.0777
  146SOL    HW2  438   2.849   2.714   2.962 -0.4117 -0.6845 -3.3033
  147SOL     OW  439   2.533   1.951   1.285  0.3235  0.1440 -0.0793
  147SOL    HW1  440   2.552   2.039   1.236 -3.8805  0.3871 -1.9903
  147SOL    HW2  441   2.478   1.886   1.226  1.1731 -0.0361  2.5521
  148SOL     OW  442   1.507   0.343   0.096 -0.2704  0.8333  0.2314
  148SOL    HW1  443   1.560   0.362   0.009  1.8531 -1.0736 -2.9800
  148SOL    HW2  444   1.480   0.244   0.101 -0.3412  3.3467  0.0534
  149SOL     OW  445   1.009   1.516   2.765 -0.1901  0.2159  0.0932
  149SOL    HW1  446   1.067   1.442   2.813 -0.6613  2.6360  0.3013
  149SOL    HW2  447   0.938   1.466   2.711 -0.9029  0.7988  0.1845
  150SOL     OW  448   0.925   2.165   0.583 -0.2070  0.6123 -0.1012
  150SOL    HW1  449   0.981   2.153   0.666 -0.7036 -0.7780 -1.9098
  150SOL    HW2  450   0.972   2.125   0.505 -1.5369  1.7466 -0.8531
  151SOL     OW  451   0.530   1.612   2.838  0.2151  0.1572  0.0634
  151SOL    HW1  452   0.571   1.561   2.918 -1.5191  3.0095  1.6407
  151SOL    HW2  453   0.600   1.651   2.776 -1.6225  1.3600 -0.1570
  152SOL     OW  454   2.746   1.361   0.468 -0.0726 -0.3846 -0.2455
  152SOL    HW1  455   2.779   1.449   0.424  2.0119 -0.4814  2.5747
  152SOL    HW2  456   2.828   1.298   0.481  1.6911 -1.9371 -1.2081
  153SOL     OW  457   2.339   2.596   0.605  0.1886 -0.5142  0.2111
  153SOL    HW1  458   2.350   2.557   0.700 -0.0271  0.2389  0.8221
  153SOL    HW2  459   2.429   2.624   0.567 -1.6787  0.0065  0.8838
  154SOL     OW  460   0.620   3.051   1.129  0.4059 -0.0835 -0.1943
  154SOL    HW1  461   0.681   0.043   1.103 -0.0488 -1.1044 -0.8261
  154SOL    HW2  462   0.662   2.962   1.100 -2.4938  0.3362  0.5146
  155SOL     OW  463   0.325   2.020   0.858  0.5233  0.1491  0.2759
  155SOL    HW1  464   0.417   2.009   0.821 -0.6656  0.5385 -0.2374
  155SOL    HW2  465   0.325   2.071   0.941 -0.1609 -0.3220  0.0622
  156SOL     OW  466   2.747   2.351   0.141  0.0759 -0.4235  0.0173
  156SOL    HW1  467   2.753   2.275   0.071 -1.2610 -0.8519  0.1658
  156SOL    HW2  468   2.838   2.386   0.169 -0.3359  0.3782 -1.3744
  157SOL     OW  469   1.047   2.064   1.376 -1.4092 -0.5788 -0.1393
  157SOL    HW1  470   0.974   2.138   1.354  0.5240 -0.7302 -1.6977
  157SOL    HW2  471   1.039   1.984   1.313 -0.9464 -0.3704 -1.7686
  158SOL     OW  472   1.761   0.583   3.083  0.3023 -0.0469 -0.2616
  158SOL    HW1  473   1.726   0.499   3.036  0.4274  1.2656  1.8487
  158SOL    HW2  474   1.792   0.655   3.017 -0.5024  0.1419  0.3060
  159SOL     OW  475   0.997   0.414   0.046 -0.9735 -0.3750  0.5418
  159SOL    HW1  476   0.958   0.409   0.137  0.4957  0.4800  0.9774
  159SOL    HW2  477   1.095   0.435   0.059  0.2607 -1.2805 -2.4502
  160SOL     OW  478   1.210   1.445   0.011 -0.0748  0.2176 -0.0433
  160SOL    HW1  479   1.194   1.548   0.006 -0.6895  1.8839  0.3964
  160SOL    HW2  480   1.253   1.424   0.102 -0.9235  0.3247 -2.6168
  161SOL     OW  481   0.042   2.179   2.858  0.2027  0.1172 -0.0136
  161SOL    HW1  482   3.051   2.164   2.795  3.2783 -0.3958  2.2099
  161SOL    HW2  483   0.101   2.094   2.870  3.2092 -0.0225  0.4885
  162SOL     OW  484   0.571   2.700   0.904 -0.5972 -0.4283 -0.1155
  162SOL    HW1  485   0.635   2.781   0.905 -1.6182 -0.7282  1.6592
  162SOL    HW2  486   0.497   2.713   0.976 -0.5348 -2.3184 -1.7157
  163SOL     OW  487   2.863   1.310   0.044 -0.0115  0.4142 -0.6194
  163SOL    HW1  488   2.911   1.392   0.083 -1.1029  2.6796  2.2956
  163SOL    HW2  489   2.870   1.225   0.100  0.0576 -1.2665 -0.8966
  164SOL     OW  490   0.215   2.804   2.862 -0.4375  0.1649 -0.1339
  164SOL    HW1  491   0.156   2.734   2.906  1.7141  0.4116 -0.2513
  164SOL    HW2  492   0.306   2.822   2.908  0.2817  3.3934  0.8593
  165SOL     OW  493   2.210   0.232   1.343  0.0389  0.6124 -0.3295
  165SOL    HW1  494   2.236   0.329   1.311  0.1903  0.8537 -0.1530
  165SOL    HW2  495   2.166   0.175   1.266 -1.8407 -1.2149 -1.8335
  166SOL     OW  496   2.043   0.349   1.551  0.0381 -0.2609  0.1971
  166SOL    HW1  497   1.967   0.291   1.585 -0.6317  2.0241 -0.7733
  166SOL    HW2  498   2.081   0.310   1.465 -0.2658 -0.4470  0.0722
  167SOL     OW  499   1.056   0.163   1.936  0.1833  0.3789  0.4315
  167SOL    HW1  500   1.084   0.255   1.974  0.2223 -1.2777  0.0524
  167SOL    HW2  501   1.079   0.093   2.006  2.3214 -1.5060 -1.9581
  168SOL     OW  502   2.549   0.368   1.964 -0.1341 -0.1330 -0.3928
  168SOL    HW1  503   2.597   0.455   1.946  2.0916  0.1091  1.1645
  168SOL    HW2  504   2.472   0.350   1.899  1.1745 -0.7523  0.2254
  169SOL     OW  505   0.372   1.386   0.048 -0.4242  0.0787 -0.0080
  169SOL    HW1  506   0.323   1.366   3.042 -2.8858  0.9667  0.4662
  169SOL    HW2  507   0.374   1.304   0.111 -2.5256 -3.0349 -0.9207
  170SOL     OW  508   0.093   1.350   1.657  0.3779 -0.2233  0.6468
  170SOL    HW1  509   0.011   1.292   1.679 -0.3346 -1.3767  0.3672
  170SOL    HW2  510   0.069   1.441   1.690 -0.8406 -0.3493 -0.6090
  171SOL     OW  511   1.303   2.228   2.027 -0.1346  0.3899  0.1467
  171SOL    HW1  512   1.281   2.306   1.961  1.5165  1.7524 -2.7304
  171SOL    HW2  513   1.223   2.171   2.058  0.3792 -0.8527 -1.2188
  172SOL     OW  514   0.404   2.425   1.427  0.4740  0.0841 -0.2234
  172SOL    HW1  515   0.414   2.512   1.466 -2.5440 -1.5804 -1.9175
  172SOL    HW2  516   0.426   2.429   1.326  0.3999 -0.4136  0.2593
  173SOL     OW  517   1.347   2.602   0.973  0.4703 -0.0220  0.1954
  173SOL    HW1  518   1.422   2.579   0.903  1.0774 -1.1533 -0.9339
  173SOL    HW2  519   1.266   2.538   0.952 -2.9683 -2.1977 -0.5945
  174SOL     OW  520   1.181   3.066   0.141  0.0634  0.6370 -0.4810
  174SOL    HW1  521   1.159   0.014   0.238 -1.4716  1.5961 -0.7470
  174SOL    HW2  522   1.177   2.962   0.144 -1.4956 -0.1873 -2.6013
  175SOL     OW  523   0.882   0.887   2.821  0.2707  0.3199 -0.2550
  175SOL    HW1  524   0.872   0.982   2.847  1.8597 -2.6001  0.3039
  175SOL    HW2  525   0.850   0.868   2.724 -0.3665  1.2095 -0.4240
  176SOL     OW  526   1.692   0.749   0.346  0.0811  0.0022  0.5747
  176SOL    HW1  527   1.701   0.851   0.334 -2.1259  0.1946 -2.4861
  176SOL    HW2  528   1.614   0.727   0.406 -0.0688  0.4452  2.6982
  177SOL     OW  529   1.361   0.777   0.963  0.1256 -0.6144  0.0197
  177SOL    HW1  530   1.261   0.765   0.948  2.0509 -0.0225 -0.8194
  177SOL    HW2  531   1.383   0.783   1.060  1.4397 -0.6278 -2.6502
  178SOL     OW  532   2.614   1.576   2.806  0.0796 -0.0589 -0.2049
  178SOL    HW1  533   2.638   1.506   2.879 -0.8434 -0.2946  1.0722
  178SOL    HW2  534   2.552   1.544   2.728 -1.8333 -1.7338 -1.1730
  179SOL     OW  535   0.659   2.614   3.006 -0.0824  0.0424 -0.1314
  179SOL    HW1  536   0.664   2.659   2.910 -0.5883  2.1282 -0.5031
  179SOL    HW2  537   0.743   2.557   3.033  1.6314 -1.6313  1.0574
  180SOL     OW  538   1.985   1.655   1.711 -0.3150 -0.2624  0.0091
  180SOL    HW1  539   2.040   1.588   1.665 -1.0008  3.4927  0.2986
  180SOL    HW2  540   1.892   1.629   1.714  4.0469  1.4158 -1.1434
  181SOL     OW  541   1.104   1.222   2.140  0.0243 -0.7516  0.0681
  181SOL    HW1  542   1.005   1.220   2.116 -1.2064 -1.7575 -1.4376
  181SOL    HW2  543   1.127   1.319   2.153  0.5181  0.3207  1.2924
  182SOL     OW  544   0.259   0.723   2.378  0.0467  0.4028 -0.6040
  182SOL    HW1  545   0.349   0.770   2.392 -2.0161 -0.5179  1.0092
  182SOL    HW2  546   0.184   0.770   2.427 -2.7436 -1.3103 -2.4493
  183SOL     OW  547   1.454   0.401   2.290 -0.2379  0.5156 -0.4318
  183SOL    HW1  548   1.390   0.383   2.366 -2.8036 -1.6309  1.3224
  183SOL    HW2  549   1.553   0.421   2.316  0.9476  1.5330 -0.0860
  184SOL     OW  550   0.044   0.550   1.444  0.2166  0.0679  0.3548
  184SOL    HW1  551   0.061   0.567   1.346  1.9329  1.4765 -1.1305
  184SOL    HW2  552   3.038   0.502   1.450 -1.1071 -0.9942 -1.4767
  185SOL     OW  553   2.589   1.578   0.805  0.3993 -0.3955 -0.5323
  185SOL    HW1  554   2.591   1.678   0.835 -0.1680  2.0768  1.3165
  185SOL    HW2  555   2.652   1.527   0.868  2.0994 -2.2077  1.1413
  186SOL     OW  556   0.475   1.796   2.449  0.4020  0.2212  0.1622
  186SOL    HW1  557   0.426   1.712   2.415 -0.5940 -2.4404  0.1537
  186SOL    HW2  558   0.413   1.858   2.505  0.9595  2.1334  0.5175
  187SOL     OW  559   2.555   2.007   3.029  0.5075  0.5605  0.1639
  187SOL    HW1  560   2.626   2.076   3.011 -2.0403 -0.4113  1.1846
  187SOL    HW2  561   2.475   2.058   3.069  1.4392  3.9333  2.3169
  188SOL     OW  562   0.744   2.238   0.070  0.4145  0.1532  0.4349
  188SOL    HW1  563   0.811   2.162   0.081  1.8542 -1.4491 -1.3318
  188SOL    HW2  564   0.655   2.209   0.107  0.2637  0.1096  0.6055
  189SOL     OW  565   2.265   1.028   0.076 -0.0706 -0.0580  0.4005
  189SOL    HW1  566   2.292   1.106   0.133  1.2267 -3.8039  0.4633
  189SOL    HW2  567   2.289   1.047   3.062  0.6446 -2.2444 -3.1300
  190SOL     OW  568   0.873   1.748   1.932  0.1300 -0.2355 -0.4540
  190SOL    HW1  569   0.800   1.819   1.933  1.0618  1.8198 -0.4621
  190SOL    HW2  570   0.959   1.789   1.904 -1.8371 -1.0421  4.5896
  191SOL     OW  571   2.262   0.686   1.643  0.3112  0.2844 -0.1617
  191SOL    HW1  572   2.290   0.610   1.700 -0.8590  1.7914 -1.6785
  191SOL    HW2  573   2.163   0.708   1.647 -0.8166 -1.4115 -2.4425
  192SOL     OW  574   1.858   0.145   1.661  0.3406  0.1672  0.4592
  192SOL    HW1  575   1.828   0.185   1.748 -0.3760 -0.3960 -0.6487
  192SOL    HW2  576   1.791   0.153   1.588  1.5472  0.2374  3.5178
  193SOL     OW  577   0.144   0.761   0.804 -0.2709 -0.5067  0.3314
  193SOL    HW1  578   0.147   0.755   0.904  1.3386  1.7577  1.5543
  193SOL    HW2  579   0.189   0.680   0.763 -1.0696 -1.2360 -0.5598
  194SOL     OW  580   1.595   2.500   1.576  0.2299  0.5549 -0.1149
  194SOL    HW1  581   1.524   2.489   1.503 -2.4383  3.6059  0.4067
  194SOL    HW2  582   1.572   2.435   1.650 -1.0285  0.4755 -1.2963
  195SOL     OW  583   2.652   0.623   1.005 -0.3140  0.4025 -0.3959
  195SOL    HW1  584   2.700   0.598   0.920  0.1380  0.0670  0.0890
  195SOL    HW2  585   2.624   0.721   1.010  0.2874 -2.0670  0.5677
  196SOL     OW  586   1.566   2.190   2.019 -0.3514 -0.2432 -0.2182
  196SOL    HW1  587   1.608   2.208   2.109  0.2678  1.0121  0.6325
  196SOL    HW2  588   1.463   2.196   2.022 -0.9669 -0.8696  0.0133
  197SOL     OW  589   0.133   3.011   2.728 -0.0580 -0.3783 -0.1768
  197SOL    HW1  590   0.177   2.955   2.800  2.2287  1.9431 -0.4203
  197SOL    HW2  591   0.036   3.027   2.746 -1.3528 -0.0876 -1.3517
  198SOL     OW  592   1.090   1.106   0.782  0.1430  0.0482 -0.2200
  198SOL    HW1  593   1.171   1.094   0.840 -0.5873 -1.1189  2.3183
  198SOL    HW2  594   1.033   1.021   0.784 -0.4583  1.8006  1.1043
  199SOL     OW  595   2.567   1.066   1.650  0.0185 -0.1347 -0.2689
  199SOL    HW1  596   2.617   1.023   1.571  0.2625 -2.1575 -0.6978
  199SOL    HW2  597   2.474   1.021   1.652 -1.3957 -2.0611  1.4749
  200SOL     OW  598   2.276   2.751   2.266  0.3261  0.1207 -0.1765
  200SOL    HW1  599   2.289   2.840   2.214  0.2536  2.4221 -2.1543
  200SOL    HW2  600   2.261   2.781   2.369  0.7059  0.7536  1.5707
  201SOL     OW  601   2.530   0.267   1.588 -0.0277  0.0177  0.1970
  201SOL    HW1  602   2.587   0.187   1.617  0.7238  0.7388  0.1922
  201SOL    HW2  603   2.508   0.261   1.485  1.4350 -0.8161 -3.9755
  202SOL     OW  604   2.109   3.064   0.226  0.3580  0.1996 -0.3148
  202SOL    HW1  605   2.125   0.027   0.139  0.5008 -3.0861  2.1379
  202SOL    HW2  606   2.025   0.009   0.274  0.0870  0.5560  0.0291
  203SOL     OW  607   1.244   1.957   2.271 -0.0903  0.1197 -0.2919
  203SOL    HW1  608   1.199   1.997   2.188  0.3812 -0.2260  0.5574
  203SOL    HW2  609   1.301   2.026   2.311 -1.0382 -1.7711 -0.3836
  204SOL     OW  610   0.804   1.468   2.589  0.0089  0.3375 -0.1927
  204SOL    HW1  611   0.743   1.386   2.594  1.1669  1.4318 -2.7451
  204SOL    HW2  612   0.852   1.469   2.500 -1.0731  2.2345 -1.2618
  205SOL     OW  613   1.235   1.682   1.341 -0.2915  1.0321 -0.2146
  205SOL    HW1  614   1.278   1.708   1.255 -1.6481 -2.2165 -0.1773
  205SOL    HW2  615   1.174   1.605   1.324  1.7967 -0.7336  0.5428
  206SOL     OW  616   0.150   0.248   2.791 -0.1477  0.4485  0.3310
  206SOL    HW1  617   0.136   0.219   2.692  0.5264 -0.9890 -0.4749
  206SOL    HW2  618   0.094   0.185   2.850  1.3248  1.2821 -2.5022
  207SOL     OW  619   1.837   2.656   2.334  0.2077 -0.0478  0.6369
  207SOL    HW1  620   1.831   2.732   2.399  0.5664  1.5221 -0.9101
  207SOL    HW2  621   1.906   2.686   2.266  0.3301  2.6364 -0.9684
  208SOL     OW  622   0.837   2.330   1.076 -0.5305  0.2081 -0.0378
  208SOL    HW1  623   0.917   2.388   1.111  1.0313  0.5752 -0.5487
  208SOL    HW2  624   0.781   2.384   1.009 -0.0218 -0.7507 -0.5922
  209SOL     OW  625   1.254   1.208   2.397  0.1055  0.7802  0.2873
  209SOL    HW1  626   1.233   1.225   2.301 -0.7888  0.5786  3.9109
  209SOL    HW2  627   1.179   1.176   2.452 -0.9500 -2.3477  0.7866
  210SOL     OW  628   1.974   0.775   1.261 -0.4828 -0.1596  0.6944
  210SOL    HW1  629   2.051   0.734   1.223 -1.2727 -2.1067  0.1603
  210SOL    HW2  630   1.890   0.718   1.247  1.4128 -0.2983  0.6908
  211SOL     OW  631   0.800   2.564   0.535 -0.4837  0.0152  0.2676
  211SOL    HW1  632   0.830   2.543   0.441 -0.4151  0.6471 -0.1223
  211SOL    HW2  633   0.877   2.590   0.592 -1.3462 -0.8220  0.6581
  212SOL     OW  634   1.815   1.781   0.415 -0.4664  0.4017 -0.6426
  212SOL    HW1  635   1.746   1.855   0.417  0.2185 -1.5076 -2.3716
  212SOL    HW2  636   1.871   1.787   0.500 -2.8368 -1.5937 -1.8124
  213SOL     OW  637   1.527   0.088   2.889  0.0890 -0.0211  0.2157
  213SOL    HW1  638   1.462   0.080   2.964 -1.4843 -0.4409  2.4924
  213SOL    HW2  639   1.615   0.130   2.915 -0.3819  1.1564 -0.7036
  214SOL     OW  640   1.107   1.510   2.149  0.0377  0.3357  0.0670
  214SOL    HW1  641   1.096   1.515   2.046  1.2412  1.8842 -2.4154
  214SOL    HW2  642   1.084   1.596   2.204  2.1137  2.1252  2.4478
  215SOL     OW  643   0.695   1.826   0.186 -0.3684  0.1763  0.9362
  215SOL    HW1  644   0.602   1.867   0.167  1.3361 -1.9045  0.9252
  215SOL    HW2  645   0.711   1.806   0.282 -1.9527 -1.4754 -4.5300
  216SOL     OW  646   0.254   2.761   2.132  0.1281  0.0327 -0.6513
  216SOL    HW1  647   0.334   2.725   2.183  1.4291  2.7595 -2.9023
  216SOL    HW2  648   0.205   2.696   2.074  0.5498  0.1046 -0.4555
  217SOL     OW  649   2.412   0.778   0.789 -0.2149  0.3319  0.5889
  217SOL    HW1  650   2.348   0.848   0.756  4.2136 -0.7668  1.8621
  217SOL    HW2  651   2.382   0.681   0.786 -0.8095  2.8542 -0.7552
  218SOL     OW  652   1.640   1.503   2.012  0.2221  0.2269 -0.7011
  218SOL    HW1  653   1.563   1.486   2.074 -0.4076 -2.3027 -0.7845
  218SOL    HW2  654   1.707   1.424   2.008  0.8590  1.2086  0.2756
  219SOL     OW  655   1.862   1.533   0.308  0.1314  0.5121  0.0104
  219SOL    HW1  656   1.837   1.547   0.211 -0.8259 -1.0032 -0.0208
  219SOL    HW2  657   1.840   1.620   0.357  0.0071  0.7382 -1.6623
  220SOL     OW  658   1.500   1.590   0.943 -0.1745 -0.3528  0.2977
  220SOL    HW1  659   1.442   1.618   0.864 -1.6105  1.8932  0.4743
  220SOL    HW2  660   1.589   1.642   0.949  0.8659 -0.1354  1.8217
  221SOL     OW  661   0.844   0.542   2.941  0.0839  0.4538  0.6105
  221SOL    HW1  662   0.911   0.611   2.915 -1.4965 -0.8312  1.4683
  221SOL    HW2  663   0.892   0.483   3.008  1.1680  0.0945 -1.9655
  222SOL     OW  664   1.426   1.407   0.345 -0.4219  0.5183  0.7002
  222SOL    HW1  665   1.443   1.413   0.443 -0.0557 -0.2634  1.8454
  222SOL    HW2  666   1.335   1.367   0.326  2.8089  0.6192  2.2672
  223SOL     OW  667   0.990   3.045   3.027 -0.3519 -0.7346  0.5729
  223SOL    HW1  668   1.060   3.059   0.019  1.0682  2.0885  1.3725
  223SOL    HW2  669   0.890   3.059   3.055 -0.3190 -1.8149 -0.7182
  224SOL     OW  670   2.283   0.081   1.571 -0.0720  0.0380 -0.3744
  224SOL    HW1  671   2.254   0.144   1.496  2.4491  3.1675 -1.5874
  224SOL    HW2  672   2.271   0.123   1.665  0.7203  0.2629  0.3127
  225SOL     OW  673   0.364   3.055   1.220  0.6358  0.1648  0.3938
  225SOL    HW1  674   0.344   0.072   1.217  0.8101  0.1648  0.9501
  225SOL    HW2  675   0.453   3.035   1.180 -4.0118 -0.4564  0.1695
  226SOL     OW  676   1.157   1.323   2.863 -0.2915 -0.0669 -0.1665
  226SOL    HW1  677   1.246   1.295   2.823  0.4866  0.1520 -0.1982
  226SOL    HW2  678   1.165   1.355   2.961  0.4594  0.4761  3.4004
  227SOL     OW  679   1.313   1.763   1.096  0.1476  0.3487  0.2542
  227SOL    HW1  680   1.382   1.689   1.076  1.5860  0.3025 -0.1071
  227SOL    HW2  681   1.361   1.853   1.112  2.4858  1.1133 -0.6371
  228SOL     OW  682   0.455   1.558   0.564 -0.0515 -0.3093  0.3525
  228SOL    HW1  683   0.466   1.467   0.517  0.0290 -0.0801  0.9909
  228SOL    HW2  684   0.374   1.553   0.624 -0.7360 -0.3752  0.2940
  229SOL     OW  685   1.269   0.470   0.108 -0.5206  0.3247  0.0674
  229SOL    HW1  686   1.259   0.558   0.061 -2.0100 -0.8433  0.4153
  229SOL    HW2  687   1.365   0.431   0.091  1.6982 -1.8859 -1.7353
  230SOL     OW  688   1.701   0.428   2.445  0.0996  0.3491 -0.3759
  230SOL    HW1  689   1.691   0.337   2.489  0.6005 -0.8462  0.6438
  230SOL    HW2  690   1.789   0.476   2.461  2.1509 -1.5770 -2.1152
  231SOL     OW  691   1.111   1.750   2.373 -0.2534 -0.0609  0.0955
  231SOL    HW1  692   1.022   1.750   2.325  0.3566  2.2072  2.1433
  231SOL    HW2  693   1.184   1.811   2.330  1.3762 -1.2213  1.0595
  232SOL     OW  694   2.387   2.075   0.797  0.1220 -0.1418 -0.6744
  232SOL    HW1  695   2.349   2.099   0.883 -2.5477 -1.0726 -2.7005
  232SOL    HW2  696   2.322   2.093   0.720  1.8519 -0.5322 -0.1231
  233SOL     OW  697   2.546   2.909   0.343 -0.1247 -0.0135 -0.2351
  233SOL    HW1  698   2.553   2.913   0.245  1.8057  2.4839  3.8830
  233SOL    HW2  699   2.453   2.948   0.375 -0.5338  1.9640 -0.4670
  234SOL     OW  700   1.019   0.187   2.886  0.1385 -0.2573  0.3562
  234SOL    HW1  701   0.985   0.256   2.950 -0.2751 -2.1372 -0.3642
  234SOL    HW2  702   1.006   0.092   2.923  2.3410  1.4788  0.0251
  235SOL     OW  703   2.634   0.404   2.772  0.0174 -0.4301 -0.3149
  235SOL    HW1  704   2.545   0.411   2.730  3.4658  1.3803  2.3954
  235SOL    HW2  705   2.652   0.483   2.840 -1.5760 -0.4624  2.6729
  236SOL     OW  706   2.127   2.615   1.869  0.4584  0.5113  0.4746
  236SOL    HW1  707   2.089   2.638   1.959  0.3190 -1.1207 -0.7492
  236SOL    HW2  708   2.170   2.522   1.868 -0.9117 -0.8540 -1.6316
  237SOL     OW  709   0.463   1.273   1.954  0.4284 -0.7921 -0.3195
  237SOL    HW1  710   0.502   1.180   1.941  3.8313 -0.3812 -1.1917
  237SOL    HW2  711   0.481   1.328   1.869 -0.0088  1.9842 -2.4656
  238SOL     OW  712   1.484   3.022   2.642  0.5699 -0.4528 -0.6134
  238SOL    HW1  713   1.494   0.002   2.720 -1.9656 -0.6118  2.1455
  238SOL    HW2  714   1.575   2.991   2.611 -0.5411 -0.1470  2.4581
  239SOL     OW  715   0.146   2.189   1.661  0.1746 -0.1219 -0.2348
  239SOL    HW1  716   0.066   2.185   1.720 -0.3244  0.2873 -0.6190
  239SOL    HW2  717   0.232   2.186   1.714  0.3479 -2.1155 -1.7699
  240SOL     OW  718   3.081   2.449   0.768 -0.4967 -0.2984 -0.0991
  240SOL    HW1  719   2.997   2.506   0.783  1.9667  2.6491 -0.0960
  240SOL    HW2  720   3.060   2.377   0.702 -0.6776 -0.2500  0.1787
  241SOL     OW  721   2.248   0.996   0.713 -0.0727  0.1220  0.6628
  241SOL    HW1  722   2.297   1.069   0.761  1.4958 -1.0447 -0.1047
  241SOL    HW2  723   2.201   1.029   0.633  1.6265  0.9687 -0.0817
  242SOL     OW  724   2.109   2.144   2.748  0.1604  0.0454 -0.0402
  242SOL    HW1  725   2.163   2.060   2.758 -3.1713  0.4959  0.1921
  242SOL    HW2  726   2.030   2.130   2.813 -0.4784  0.4330 -0.3810
  243SOL     OW  727   0.788   2.454   1.468  0.7186  0.1337  0.1074
  243SOL    HW1  728   0.749   2.511   1.392  0.2832  2.6853  0.0493
  243SOL    HW2  729   0.744   2.470   1.562 -0.0744  0.2154  1.1882
  244SOL     OW  730   2.215   3.022   2.923 -0.0303  0.4601 -0.4696
  244SOL    HW1  731   2.248   2.933   2.970 -0.3618  0.5798  1.2820
  244SOL    HW2  732   2.293   3.073   2.875 -1.5425  0.8984  0.3558
  245SOL     OW  733   1.329   2.858   1.065  0.2089  0.0108 -0.0624
  245SOL    HW1  734   1.329   2.858   1.164 -0.0793 -0.0046  1.0408
  245SOL    HW2  735   1.336   2.768   1.019 -0.7998  2.3333 -1.4201
  246SOL     OW  736   1.675   2.456   0.344  0.6899 -0.4956  0.0632
  246SOL    HW1  737   1.688   2.520   0.267 -1.1470  0.5466  2.0156
  246SOL    HW2  738   1.743   2.479   0.417  0.9327  0.4791  0.8988
  247SOL     OW  739   1.191   0.367   2.408 -0.1447 -0.6447  0.0758
  247SOL    HW1  740   1.159   0.463   2.388  3.1012  1.8255 -1.2228
  247SOL    HW2  741   1.158   0.324   2.494  0.1497 -1.4793  2.0215
  248SOL     OW  742   0.347   1.689   1.731 -0.5002  0.5118  0.6357
  248SOL    HW1  743   0.433   1.737   1.730  0.8234 -0.7980 -4.4423
  248SOL    HW2  744   0.360   1.587   1.702 -1.7857 -1.8851 -1.1367
  249SOL     OW  745   2.086   0.315   0.492 -0.2797 -0.6613 -0.3559
  249SOL    HW1  746   2.175   0.289   0.453 -2.0417 -0.2808  0.5419
  249SOL    HW2  747   2.057   0.401   0.450  3.5142 -2.4163 -0.6679
  250SOL     OW  748   0.230   0.571   0.515 -0.3779 -0.1719  0.0881
  250SOL    HW1  749   0.262   0.561   0.611 -0.7278  0.7012  0.3821
  250SOL    HW2  750   0.224   0.668   0.493 -0.0645  1.3432 -0.8921
  251SOL     OW  751   1.615   0.391   2.919 -0.0344  0.8596  0.0209
  251SOL    HW1  752   1.565   0.464   2.874  1.2662 -1.5379 -0.7741
  251SOL    HW2  753   1.642   0.323   2.848  2.2372  0.6177  1.4896
  252SOL     OW  754   1.558   1.796   2.088  0.0674 -0.4332  0.1384
  252SOL    HW1  755   1.521   1.856   2.164  0.8221  2.8920  0.9525
  252SOL    HW2  756   1.623   1.735   2.118 -3.1734  3.1262 -2.3211
  253SOL     OW  757   2.733   2.442   1.703  0.3511 -0.1083  0.2486
  253SOL    HW1  758   2.757   2.476   1.798  0.0834 -0.2522  2.9278
  253SOL    HW2  759   2.708   2.347   1.704 -1.3422  3.1980  2.4875
  254SOL     OW  760   2.771   1.429   0.942 -0.3524 -0.0804 -0.2222
  254SOL    HW1  761   2.835   1.435   1.021 -0.1499  1.9955 -0.0251
  254SOL    HW2  762   2.703   1.353   0.958 -1.7633 -2.2258 -0.3000
  255SOL     OW  763   1.125   0.534   1.292  0.0214 -0.2614  0.0359
  255SOL    HW1  764   1.118   0.446   1.340  0.0594 -0.3318  1.1035
  255SOL    HW2  765   1.224   0.561   1.302  0.2585 -3.5870 -0.4407
  256SOL     OW  766   1.918   2.472   1.666 -0.4989 -0.0888  0.0655
  256SOL    HW1  767   1.899   2.529   1.581 -1.8717  1.1447 -3.1040
  256SOL    HW2  768   1.906   2.372   1.656 -1.3024  1.4756  0.5163
  257SOL     OW  769   0.585   2.748   2.705  0.4294 -0.1369 -0.1832
  257SOL    HW1  770   0.689   2.753   2.707  1.7567 -3.2463 -0.7669
  257SOL    HW2  771   0.568   2.664   2.652 -0.1746  2.8099  1.3384
  258SOL     OW  772   1.068   2.239   2.749 -0.5995  0.2353 -0.1413
  258SOL    HW1  773   1.134   2.169   2.710  0.8986 -3.7150 -0.0435
  258SOL    HW2  774   0.971   2.212   2.727 -1.4890 -0.9641  0.2515
  259SOL     OW  775   1.172   3.082   2.465 -0.2600 -0.0608 -0.3984
  259SOL    HW1  776   1.184   2.980   2.446  0.6920  1.1527 -1.2631
  259SOL    HW2  777   1.235   0.026   2.539 -2.0941  0.1362 -2.0712
  260SOL     OW  778   1.840   0.594   0.988 -0.1977 -0.1570 -0.3172
  260SOL    HW1  779   1.853   0.692   0.952  0.8133  1.3649 -0.2743
  260SOL    HW2  780   1.811   0.595   1.088 -0.0105  0.1113 -0.8049
  261SOL     OW  781   0.542   0.276   2.618  0.0938 -0.0514  0.4596
  261SOL    HW1  782   0.466   0.332   2.574  1.3566  0.4100 -0.6877
  261SOL    HW2  783   0.603   0.331   2.677  1.7731  0.1290  0.5142
  262SOL     OW  784   0.274   1.979   1.941  0.2150  0.1197  0.0569
  262SOL    HW1  785   0.349   1.972   2.006 -2.1321  0.3446 -1.4976
  262SOL    HW2  786   0.298   2.049   1.878 -1.6017 -1.7400  2.6193
  263SOL     OW  787   2.789   1.426   2.249  0.6404  0.0969 -0.5549
  263SOL    HW1  788   2.817   1.522   2.252  1.6808 -1.3482 -2.0963
  263SOL    HW2  789   2.763   1.392   2.340  0.6971  1.6469 -2.7988
  264SOL     OW  790   0.877   1.316   1.010 -0.0855  0.4007  0.0227
  264SOL    HW1  791   0.835   1.273   0.921  0.4944  0.2468 -0.2715
  264SOL    HW2  792   0.813   1.388   1.042 -0.6347  1.5669  0.5752
  265SOL     OW  793   1.150   2.425   0.907 -0.5289 -0.2193 -0.2798
  265SOL    HW1  794   1.128   2.340   0.855  0.9027 -1.4022  3.5281
  265SOL    HW2  795   1.102   2.432   0.995 -2.7854  1.1312  0.4815
  266SOL     OW  796   1.661   1.023   1.115  0.6070  0.1687 -0.0439
  266SOL    HW1  797   1.668   1.059   1.210 -1.2407 -0.4800 -2.5549
  266SOL    HW2  798   1.607   1.089   1.058 -0.0331  0.2732 -3.2147
  267SOL     OW  799   2.302   1.157   2.924  0.2447 -0.2937 -0.1952
  267SOL    HW1  800   2.266   1.133   2.830  1.8220 -0.5383 -0.6159
  267SOL    HW2  801   2.401   1.146   2.926 -0.0031  1.6630 -2.3118
  268SOL     OW  802   1.230   0.332   0.402 -0.0447  0.3355  0.4038
  268SOL    HW1  803   1.331   0.317   0.423  2.0648 -1.4705 -0.9233
  268SOL    HW2  804   1.222   0.388   0.318  1.4801 -0.6036 -1.9500
  269SOL     OW  805   2.373   0.419   2.630 -0.5778  0.0863 -0.0322
  269SOL    HW1  806   2.395   0.500   2.687 -1.7821 -1.0112  0.7630
  269SOL    HW2  807   2.307   0.356   2.674 -1.6096  0.7680 -2.1908
  270SOL     OW  808   0.111   1.027   3.061  0.5864  0.6468  0.0443
  270SOL    HW1  809   0.203   1.027   3.023 -0.5876 -1.3402 -0.1841
  270SOL    HW2  810   0.064   1.118   3.058 -1.8490 -1.6277  1.5463
  271SOL     OW  811   2.924   1.080   0.207 -0.6127 -0.0353  0.2171
  271SOL    HW1  812   2.861   1.002   0.196 -2.3569  0.7998 -0.3630
  271SOL    HW2  813   2.932   1.113   0.303 -1.9090  1.5916  3.0027
  272SOL     OW  814   2.972   2.733   2.666  0.5752  0.3279  0.2145
  272SOL    HW1  815   3.069   2.738   2.636 -1.7467  0.7622 -2.3496
  272SOL    HW2  816   2.958   2.659   2.735 -1.3833  1.7838  0.1252
  273SOL     OW  817   2.779   3.030   3.069  0.3014 -0.6328 -0.0819
  273SOL    HW1  818   2.775   0.044   3.046 -1.5386 -0.6389  1.2398
  273SOL    HW2  819   2.799   3.011   0.086 -0.1073 -1.3311  1.9900
  274SOL     OW  820   0.642   2.435   0.930  0.0064  0.1101  0.5132
  274SOL    HW1  821   0.615   2.533   0.922 -0.2799  0.1824  1.4944
  274SOL    HW2  822   0.618   2.386   0.848  0.9482  1.0223 -1.0131
  275SOL     OW  823   2.495   1.360   0.400  0.6964  0.3776  0.1068
  275SOL    HW1  824   2.439   1.390   0.480 -0.0976 -0.7795  0.1542
  275SOL    HW2  825   2.591   1.350   0.427  0.2628  1.9725  0.3629
  276SOL     OW  826   2.745   1.294   1.676  0.2807  0.1624  0.0465
  276SOL    HW1  827   2.696   1.206   1.657 -1.6781 -0.0227  1.8491
  276SOL    HW2  828   2.805   1.316   1.594 -0.0906 -2.2137 -1.7987
  277SOL     OW  829   2.098   0.091   1.162 -0.2323 -0.9083 -0.5462
  277SOL    HW1  830   2.000   0.069   1.198 -1.6095  0.6337 -0.4846
  277SOL    HW2  831   2.120   0.071   1.064  1.0793 -1.9525 -0.9658
  278SOL     OW  832   1.431   2.372   2.262 -0.3504 -0.5950  0.3508
  278SOL    HW1  833   1.511   2.434   2.246 -2.0174  1.2398  2.1844
  278SOL    HW2  834   1.388   2.355   2.171  0.9120 -0.5984  0.4974
  279SOL     OW  835   1.770   1.987   1.082  0.2050  0.0894 -0.0690
  279SOL    HW1  836   1.858   1.938   1.108 -0.4445  0.2186  1.2126
  279SOL    HW2  837   1.783   2.078   1.033  1.7676 -0.8922  2.8994
  280SOL     OW  838   0.333   1.365   0.970  0.3302  0.0510  0.5554
  280SOL    HW1  839   0.329   1.432   0.892 -2.2115  1.8261  1.0189
  280SOL    HW2  840   0.361   1.406   1.057 -0.2832 -2.1010  2.6623
  281SOL     OW  841   2.946   1.050   2.369  0.0322  0.2095  0.5465
  281SOL    HW1  842   2.902   1.087   2.285  1.2443 -2.5287  2.3144
  281SOL    HW2  843   3.018   1.112   2.398  1.0814 -1.5163  1.9277
  282SOL     OW  844   0.622   1.453   3.024 -0.6244  0.1493  0.2491
  282SOL    HW1  845   0.547   1.431   0.000 -0.0029 -0.8158 -1.6483
  282SOL    HW2  846   0.699   1.496   3.071  1.3116 -0.2315  1.4066
  283SOL     OW  847   2.384   2.459   0.055  0.8260  0.3072  0.0911
  283SOL    HW1  848   2.439   2.451   0.138  1.6659 -0.8994 -0.2939
  283SOL    HW2  849   2.431   2.518   3.072 -1.1901 -1.8617 -1.2617
  284SOL     OW  850   0.738   0.003   0.715  0.1918 -0.1264 -0.1827
  284SOL    HW1  851   0.830   0.044   0.720 -0.3042 -1.7057  0.1369
  284SOL    HW2  852   0.683   0.044   0.638 -1.4566  0.0120 -0.1847
  285SOL     OW  853   2.228   1.171   2.652  0.3599  0.1444  0.1682
  285SOL    HW1  854   2.226   1.178   2.552 -4.9523 -0.7449  1.0775
  285SOL    HW2  855   2.147   1.113   2.687 -0.7612 -0.0857  2.2180
  286SOL     OW  856   1.840   2.631   1.348 -0.4135  0.4169  0.3675
  286SOL    HW1  857   1.937   2.612   1.377  0.2361  2.3260  1.0479
  286SOL    HW2  858   1.819   2.722   1.388  1.5124 -1.9153  0.4561
  287SOL     OW  859   0.987   0.112   0.734 -0.0752  0.6284 -0.2829
  287SOL    HW1  860   0.956   0.190   0.790 -0.2052 -0.6301 -0.0687
  287SOL    HW2  861   1.072   0.130   0.684 -1.4866 -1.4244  1.0747
  288SOL     OW  862   1.170   2.509   2.491 -0.0656  0.0212 -0.3764
  288SOL    HW1  863   1.111   2.511   2.577  0.0885 -0.1240 -0.9842
  288SOL    HW2  864   1.198   2.602   2.463  0.2068 -0.4421 -2.1815
  289SOL     OW  865   3.035   1.647   1.042  0.5133  0.0845  0.1480
  289SOL    HW1  866   3.017   1.682   0.948  0.6691 -2.7487  0.4429
  289SOL    HW2  867   3.074   1.553   1.044  0.8822  1.7525  0.2452
  290SOL     OW  868   1.386   2.185   1.127  0.0583 -0.4697 -0.5862
  290SOL    HW1  869   1.353   2.164   1.221 -2.1226  0.0961 -0.2886
  290SOL    HW2  870   1.428   2.281   1.132  0.9771  0.8303 -1.7483
  291SOL     OW  871   1.481   2.671   0.098 -0.0007  0.2948  0.1237
  291SOL    HW1  872   1.469   2.750   0.031  2.8470  3.3400 -3.5514
  291SOL    HW2  873   1.579   2.662   0.118  3.0298 -2.5425  0.6337
  292SOL     OW  874   0.647   0.272   1.710 -0.0838  0.2112  0.2636
  292SOL    HW1  875   0.673   0.366   1.691 -1.9516 -1.5530  3.8172
  292SOL    HW2  876   0.703   0.231   1.786 -0.0913  1.0404 -1.6262
  293SOL     OW  877   2.338   2.179   1.034 -0.2239 -0.0129  0.3101
  293SOL    HW1  878   2.441   2.184   1.053  1.8265  1.6397  0.2155
  293SOL    HW2  879   2.277   2.190   1.114  2.4030  0.6960 -1.3869
  294SOL     OW  880   0.875   0.374   2.202 -0.1286  0.3168  0.3799
  294SOL    HW1  881   0.813   0.336   2.131 -1.4230 -0.5147 -0.3791
  294SOL    HW2  882   0.817   0.416   2.275  1.3649  0.2285  0.5117
  295SOL     OW  883   1.617   1.715   1.299  0.0239  0.4984  0.2660
  295SOL    HW1  884   1.614   1.723   1.202  0.5389  1.1255  3.6521
  295SOL    HW2  885   1.650   1.800   1.340 -1.2422 -2.0880 -1.5071
  296SOL     OW  886   2.587   2.003   0.266  0.4092 -0.1335 -0.2195
  296SOL    HW1  887   2.674   2.029   0.219  0.8102 -2.7063 -1.5448
  296SOL    HW2  888   2.521   2.079   0.277 -0.9483 -1.2341 -0.2858
  297SOL     OW  889   2.468   0.150   0.134  0.0316  0.1523 -0.1259
  297SOL    HW1  890   2.493   0.054   0.107  0.5813 -0.3001 -1.0730
  297SOL    HW2  891   2.550   0.199   0.173 -0.1048  1.1638 -0.9785
  298SOL     OW  892   0.868   3.062   2.715 -0.0773  0.2948  0.3123
  298SOL    HW1  893   0.942   3.007   2.755 -1.3055 -0.5060 -4.4744
  298SOL    HW2  894   0.806   0.022   2.781  0.6620  2.7212  0.3838
  299SOL     OW  895   0.794   2.140   2.072  0.3470  0.2062  0.7107
  299SOL    HW1  896   0.738   2.081   2.008 -1.1705 -1.0734  1.1457
  299SOL    HW2  897   0.794   2.110   2.170  0.5733  1.2738 -1.0553
  300SOL     OW  898   3.001   2.990   2.276 -0.0385  0.1777 -0.4855
  300SOL    HW1  899   3.050   3.034   2.197 -1.5567  0.4754 -2.8529
  300SOL    HW2  900   2.981   3.059   2.345  2.6708 -0.9416 -2.5303
  301SOL     OW  901   0.857   0.782   2.022 -0.5965  0.0218  0.0716
  301SOL    HW1  902   0.920   0.718   1.972 -1.4406  0.1948 -1.2741
  301SOL    HW2  903   0.905   0.857   2.064 -0.2679  2.1161  1.0843
  302SOL     OW  904   3.069   2.109   0.574 -0.1189 -0.6771  0.2781
  302SOL    HW1  905   0.083   2.136   0.596  2.5662  3.4288 -0.0360
  302SOL    HW2  906   3.058   2.007   0.560  0.3293  0.7974  0.1530
  303SOL     OW  907   2.496   2.527   1.627 -0.4074 -0.0597 -0.5628
  303SOL    HW1  908   2.582   2.474   1.653  2.3184  0.1452 -0.5648
  303SOL    HW2  909   2.458   2.575   1.711  0.0781  0.7030  0.2134
  304SOL     OW  910   2.850   0.928   1.526 -0.2022  0.1984  0.1453
  304SOL    HW1  911   2.899   0.843   1.567  0.5905 -5.3022  3.3589
  304SOL    HW2  912   2.919   0.987   1.481 -0.8568  0.5850  1.7054
  305SOL     OW  913   0.673   1.530   1.048 -0.3075 -0.1706  0.2025
  305SOL    HW1  914   0.646   1.576   0.963  0.9895 -1.4650  0.6705
  305SOL    HW2  915   0.692   1.597   1.121  1.2533 -0.4658 -0.1098
  306SOL     OW  916   0.203   1.275   2.018  0.1608  0.4830  0.4653
  306SOL    HW1  917   0.166   1.185   1.997 -1.0570  4.5671  1.4662
  306SOL    HW2  918   0.298   1.278   1.978 -1.2658  1.9618 -3.7554
  307SOL     OW  919   0.770   0.512   1.694  0.1633  0.6777 -0.5836
  307SOL    HW1  920   0.852   0.530   1.752 -0.4157 -3.1516  0.1809
  307SOL    HW2  921   0.797   0.506   1.596  2.1194  1.0566  0.9479
  308SOL     OW  922   3.013   1.168   1.082 -0.4485 -0.1295 -0.1748
  308SOL    HW1  923   3.007   1.210   1.176  1.9397  0.6803 -7.1770
  308SOL    HW2  924   2.959   1.082   1.064  1.9672 -0.0222 -1.0492
  309SOL     OW  925   2.629   1.272   1.099  0.5113  0.0891 -0.1479
  309SOL    HW1  926   2.596   1.361   1.136  2.0622 -0.0979 -0.0726
  309SOL    HW2  927   2.634   1.215   1.187 -2.0557 -1.9694  4.5270
  310SOL     OW  928   2.923   2.021   2.679  0.2784  0.2059  0.5327
  310SOL    HW1  929   2.820   2.024   2.680  3.8664 -1.1639  1.3351
  310SOL    HW2  930   2.958   2.015   2.585 -0.9948 -0.5054 -0.3281
  311SOL     OW  931   2.698   2.629   2.379  0.2318 -0.1728  0.3611
  311SOL    HW1  932   2.779   2.671   2.330  1.8684  0.2809  0.0198
  311SOL    HW2  933   2.639   2.708   2.412  1.2648  2.5447 -1.8346
  312SOL     OW  934   2.169   2.130   0.210 -0.0649  0.1769  0.3368
  312SOL    HW1  935   2.101   2.201   0.237 -1.1432 -0.9486 -3.1462
  312SOL    HW2  936   2.110   2.046   0.204  0.3472  1.8791  0.8502
  313SOL     OW  937   2.680   2.906   0.665 -0.6727  0.2370  0.6867
  313SOL    HW1  938   2.601   2.969   0.650  1.2353  0.4889  1.6815
  313SOL    HW2  939   2.720   2.872   0.575 -0.2476  1.5117  0.5710
  314SOL     OW  940   1.790   1.103   2.990 -0.4245 -0.2086  0.6200
  314SOL    HW1  941   1.690   1.108   3.013 -0.9429 -2.7388 -1.8438
  314SOL    HW2  942   1.830   1.199   2.991 -0.7084  3.3091 -1.2251
  315SOL     OW  943   1.434   2.988   2.245  0.3633  0.0071 -0.1421
  315SOL    HW1  944   1.522   3.030   2.216 -0.4025  1.4214 -1.0853
  315SOL    HW2  945   1.456   2.907   2.306  1.0665 -0.2201 -0.8773
  316SOL     OW  946   0.070   1.224   0.202  0.0519  0.4014  0.3690
  316SOL    HW1  947   3.074   1.162   0.200  3.0994 -0.4598  1.6783
  316SOL    HW2  948   0.075   1.280   0.287 -0.8164  0.4040 -0.8258
  317SOL     OW  949   0.523   2.821   0.047  0.0931 -0.6816 -0.0775
  317SOL    HW1  950   0.483   2.862   3.046  1.1227  0.5347 -1.1041
  317SOL    HW2  951   0.595   2.751   0.024  1.9572 -0.2588  0.4871
  318SOL     OW  952   2.384   2.453   0.847  0.2292 -0.2576 -0.5674
  318SOL    HW1  953   2.444   2.373   0.821 -0.4269 -1.7844 -0.0711
  318SOL    HW2  954   2.297   2.408   0.885 -0.7698 -1.3938  0.9755
  319SOL     OW  955   1.237   2.093   2.559 -0.3646 -0.0557 -0.0198
  319SOL    HW1  956   1.204   2.023   2.491  2.9109  0.7688 -2.2520
  319SOL    HW2  957   1.241   2.045   2.648  1.2559 -0.6510 -0.4532
  320SOL     OW  958   0.739   1.975   1.257  0.0296 -0.1401  0.1553
  320SOL    HW1  959   0.778   2.065   1.282 -2.1243 -0.3264 -1.2942
  320SOL    HW2  960   0.655   1.988   1.203 -0.9713  0.6893  0.4005
  321SOL     OW  961   1.502   2.739   2.329  0.0568 -0.0017 -0.3590
  321SOL    HW1  962   1.493   2.692   2.423  0.3714  0.7726  2.4668
  321SOL    HW2  963   1.529   2.679   2.253 -0.1061  1.6386 -0.2594
  322SOL     OW  964   2.611   1.491   1.991  0.0386  0.3284 -0.3094
  322SOL    HW1  965   2.672   1.443   2.059 -0.9006 -1.8919  1.4917
  322SOL    HW2  966   2.528   1.522   2.046  0.4851 -0.5096  1.8097
  323SOL     OW  967   2.555   0.880   0.998 -0.2060 -0.0568 -0.0748
  323SOL    HW1  968   2.506   0.830   0.922  0.3405  0.2593 -0.7352
  323SOL    HW2  969   2.491   0.901   1.074  0.2830  0.8337 -3.7761
  324SOL     OW  970   2.677   2.954   2.309  0.0522 -0.2447  0.4685
  324SOL    HW1  971   2.655   2.900   2.391 -1.1539 -0.8061  0.1881
  324SOL    HW2  972   2.777   2.935   2.285  0.4311 -2.5674 -4.9083
  325SOL     OW  973   1.036   0.585   2.593  0.1823 -0.0151  0.3882
  325SOL    HW1  974   0.991   0.500   2.620  1.1183  1.7108  0.5130
  325SOL    HW2  975   1.001   0.626   2.505 -0.9716  2.3665 -0.4203
  326SOL     OW  976   2.056   2.982   2.355  0.3120  0.2142  0.9100
  326SOL    HW1  977   1.990   3.057   2.353  2.4726 -1.9132 -0.5977
  326SOL    HW2  978   2.121   2.995   2.275 -1.3401  3.2722 -2.8069
  327SOL     OW  979   2.337   0.307   3.052 -0.2519  0.5137 -0.4420
  327SOL    HW1  980   2.304   0.389   0.020  0.7555  1.3998  0.4626
  327SOL    HW2  981   2.392   0.238   0.025  1.7276 -2.4094  0.0644
  328SOL     OW  982   0.053   1.210   2.461 -0.1953 -0.0173 -0.2196
  328SOL    HW1  983   0.147   1.199   2.434 -0.5743  0.7779  1.4104
  328SOL    HW2  984   0.038   1.304   2.483 -1.0452 -1.6125 -2.4830
  329SOL     OW  985   1.677   0.185   1.458 -0.4090  0.2712 -0.3508
  329SOL    HW1  986   1.595   0.130   1.472 -0.4475 -0.3145 -0.8465
  329SOL    HW2  987   1.694   0.217   1.365 -0.2455  0.0313  2.6118
  330SOL     OW  988   0.448   1.164   0.805  0.5583 -0.6146  0.4446
  330SOL    HW1  989   0.375   1.096   0.783 -2.4443  1.0122  0.7707
  330SOL    HW2  990   0.421   1.225   0.885  0.2130 -0.0554 -1.2364
  331SOL     OW  991   0.070   1.501   2.019 -0.2001  0.4201  0.2704
  331SOL    HW1  992   0.123   1.417   2.012 -0.1026  0.2910  1.7504
  331SOL    HW2  993   0.132   1.583   2.019 -1.6591 -2.4149 -0.2639
  332SOL     OW  994   0.040   2.591   1.649 -0.2503 -0.0642  0.4546
  332SOL    HW1  995   3.036   2.606   1.602 -1.1226 -0.1026 -2.3229
  332SOL    HW2  996   0.101   2.533   1.591  2.2769 -1.2716 -1.0541
  333SOL     OW  997   2.337   0.171   0.780 -0.0842  0.0503 -0.0424
  333SOL    HW1  998   2.238   0.145   0.802 -0.0122  2.4278  1.3377
  333SOL    HW2  999   2.396   0.206   0.857  1.4193  0.2267 -2.7776
  334SOL     OW 1000   0.750   1.986   0.506  0.0583  0.6134 -0.1438
  334SOL    HW1 1001   0.790   1.896   0.521 -2.0029 -0.7077 -0.6914
  334SOL    HW2 1002   0.808   2.056   0.543  0.1551 -3.4363 -2.4431
  335SOL     OW 1003   0.167   2.608   3.068  0.2658 -0.2728  0.0654
  335SOL    HW1 1004   0.104   2.531   3.065  1.0919 -1.4835  1.2408
  335SOL    HW2 1005   0.259   2.577   3.032 -0.7019  2.2969  0.4380
  336SOL     OW 1006   3.078   2.559   2.115 -0.5474  0.6435 -0.1116
  336SOL    HW1 1007   3.035   2.515   2.036 -2.5886 -0.4852  1.6331
  336SOL    HW2 1008   0.053   2.487   2.155 -1.7285  0.1368  0.4744
  337SOL     OW 1009   1.959   2.414   2.435  0.1795 -0.1371  0.4529
  337SOL    HW1 1010   1.889   2.459   2.376  0.6992  0.9955  2.2345
  337SOL    HW2 1011   1.976   2.490   2.501 -1.1794 -0.6370  0.6856
  338SOL     OW 1012   0.613   0.146   0.501  0.3280 -0.1938 -0.4426
  338SOL    HW1 1013   0.682   0.161   0.430 -0.2998  0.2469 -1.6316
  338SOL    HW2 1014   0.534   0.209   0.486  1.8230  2.3317 -0.5049
  339SOL     OW 1015   0.229   0.965   2.153  0.3802  0.1119 -0.0089
  339SOL    HW1 1016   0.186   0.889   2.203  0.2451 -1.7204 -0.1792
  339SOL    HW2 1017   0.192   0.970   2.058 -0.1400 -0.5237  0.6151
  340SOL     OW 1018   1.827   0.029   0.277 -0.2934 -0.2627 -0.2925
  340SOL    HW1 1019   1.833   0.116   0.225 -2.8900 -2.4910  2.7545
  340SOL    HW2 1020   1.735   0.024   0.312  2.3068  0.4002  0.1892
  341SOL     OW 1021   2.083   0.999   0.953 -0.5981 -0.1542  0.3018
  341SOL    HW1 1022   1.994   0.948   0.950  1.9618 -1.7979 -0.6354
  341SOL    HW2 1023   2.132   1.004   0.860 -2.1180  0.8709 -0.3195
  342SOL     OW 1024   2.147   0.131   0.013 -0.2047  0.1024  0.3762
  342SOL    HW1 1025   2.156   0.063   3.021 -1.0025  2.4956  2.1207
  342SOL    HW2 1026   2.213   0.206   0.001 -0.3211 -0.0648  1.0471
  343SOL     OW 1027   1.423   2.160   1.615 -0.2372 -0.2779  0.0912
  343SOL    HW1 1028   1.483   2.212   1.684  2.0730  0.6995  2.7412
  343SOL    HW2 1029   1.408   2.067   1.642 -2.6077  2.5566 -1.3478
  344SOL     OW 1030   2.333   2.808   0.849  0.3322  0.3090  0.2141
  344SOL    HW1 1031   2.430   2.792   0.858 -0.1120  2.1188 -0.1971
  344SOL    HW2 1032   2.309   2.834   0.752  2.5150  1.5057 -1.3489
  345SOL     OW 1033   3.002   2.409   0.238  0.7637 -0.1598  0.3498
  345SOL    HW1 1034   3.038   2.490   0.280 -0.1558 -2.0875 -2.3710
  345SOL    HW2 1035   2.973   2.341   0.308  0.7098 -0.4790  0.9274
  346SOL     OW 1036   2.561   1.856   0.927  0.4784 -0.7551 -0.7049
  346SOL    HW1 1037   2.500   1.929   0.888 -1.4988  1.5952 -2.1009
  346SOL    HW2 1038   2.637   1.890   0.990 -1.1562  2.5097 -1.0177
  347SOL     OW 1039   1.718   1.966   1.929  0.1200 -0.1411  0.4621
  347SOL    HW1 1040   1.654   2.047   1.926 -0.6213 -1.8364  1.2933
  347SOL    HW2 1041   1.667   1.882   1.962  1.3795 -3.6299  0.5538
  348SOL     OW 1042   0.340   1.532   2.388  0.4207 -0.0753  0.4783
  348SOL    HW1 1043   0.382   1.467   2.320  0.0493  1.6266  0.0166
  348SOL    HW2 1044   0.375   1.507   2.480 -0.3932  0.7964 -1.1672
  349SOL     OW 1045   2.428   1.179   0.866 -0.2747 -0.0510  0.0183
  349SOL    HW1 1046   2.500   1.161   0.934  0.7825  1.0144 -1.2629
  349SOL    HW2 1047   2.462   1.234   0.790  0.4214 -1.5406  1.8654
  350SOL     OW 1048   2.956   2.630   1.092 -0.0738  0.0876 -0.5585
  350SOL    HW1 1049   2.882   2.686   1.134  0.3778 -0.7791  0.7757
  350SOL    HW2 1050   3.003   2.569   1.161 -2.1536 -0.8685  1.2283
  351SOL     OW 1051   0.643   3.016   1.806 -0.5353 -0.2330  0.2322
  351SOL    HW1 1052   0.545   2.992   1.822  0.3087  0.6403  0.8954
  351SOL    HW2 1053   0.650   0.035   1.789  2.3072  3.8727  0.2564
  352SOL     OW 1054   1.083   1.701   0.956 -0.5019 -0.4166  0.0733
  352SOL    HW1 1055   1.099   1.617   0.904 -0.7128  3.0932  2.6716
  352SOL    HW2 1056   1.167   1.725   1.010  1.4115 -0.4258  0.2105
  353SOL     OW 1057   1.189   1.626   2.602  0.4419 -0.5157 -0.5520
  353SOL    HW1 1058   1.133   1.671   2.529 -1.4546 -3.2221 -1.1814
  353SOL    HW2 1059   1.122   1.569   2.656  0.3896 -2.9196 -1.6209
  354SOL     OW 1060   1.556   3.035   0.928  0.5347  0.2195  0.7572
  354SOL    HW1 1061   1.603   2.945   0.942 -0.7318 -2.5882  0.0492
  354SOL    HW2 1062   1.469   3.040   0.981  0.9350  1.1802  2.1233
  355SOL     OW 1063   2.560   1.343   0.673  0.4769  0.2244 -0.5576
  355SOL    HW1 1064   2.571   1.420   0.743 -1.5649  1.9013  0.1445
  355SOL    HW2 1065   2.627   1.340   0.598 -0.4215 -0.0615  0.3386
  356SOL     OW 1066   2.482   1.706   2.354  0.2499 -0.6386 -0.1558
  356SOL    HW1 1067   2.417   1.780   2.325  0.5908  0.1521 -0.7635
  356SOL    HW2 1068   2.566   1.756   2.393  0.4466  0.1290  1.9656
  357SOL     OW 1069   0.471   2.691   1.511 -0.3681 -0.4278 -0.2321
  357SOL    HW1 1070   0.408   2.749   1.450 -0.9780  0.1310  1.3372
  357SOL    HW2 1071   0.564   2.729   1.498  0.2962 -1.4714 -0.4611
  358SOL     OW 1072   2.308   0.980   1.649 -0.3263 -0.8634 -0.3977
  358SOL    HW1 1073   2.251   1.014   1.727 -0.7051  1.4649 -0.2866
  358SOL    HW2 1074   2.310   0.878   1.654  1.4933  0.2041 -1.7026
  359SOL     OW 1075   2.386   2.729   2.689 -0.0730  0.6160  0.3637
  359SOL    HW1 1076   2.377   2.627   2.682 -2.5005  1.1042  2.5233
  359SOL    HW2 1077   2.329   2.762   2.764 -0.2034 -5.2415  0.5904
  360SOL     OW 1078   0.853   0.377   0.891  0.3162 -0.4125  0.3005
  360SOL    HW1 1079   0.937   0.406   0.934  0.7476 -2.2445 -0.2058
  360SOL    HW2 1080   0.805   0.462   0.871  0.4146 -1.3824 -1.4110
  361SOL     OW 1081   1.846   0.002   1.225  0.0260 -0.8533  0.1951
  361SOL    HW1 1082   1.833   3.063   1.321  0.2955  0.4154  0.3389
  361SOL    HW2 1083   1.825   3.011   1.165 -2.4062  0.9966  2.3244
  362SOL     OW 1084   1.334   1.046   0.904 -0.4760 -0.7416 -0.5629
  362SOL    HW1 1085   1.397   1.105   0.951 -0.7227 -2.7349  0.4080
  362SOL    HW2 1086   1.361   0.949   0.909 -1.2932  0.4485  0.4621
  363SOL     OW 1087   2.245   1.430   2.700  0.1105  0.2931  0.1049
  363SOL    HW1 1088   2.245   1.452   2.803  1.7552  0.9776  3.0141
  363SOL    HW2 1089   2.238   1.333   2.680  1.2595  2.6217 -0.5866
  364SOL     OW 1090   0.095   0.231   1.101  0.3614  0.7257 -0.8162
  364SOL    HW1 1091   0.191   0.230   1.130 -2.6030 -2.7683 -4.1398
  364SOL    HW2 1092   0.057   0.317   1.133  1.9208 -0.2015  1.5344
  365SOL     OW 1093   0.125   2.769   0.195  0.0513 -0.0988 -0.0129
  365SOL    HW1 1094   0.124   2.704   0.118 -0.4615  1.7173  2.0735
  365SOL    HW2 1095   0.067   2.738   0.271 -0.0791 -0.2853  1.7565
  366SOL     OW 1096   2.310   2.206   3.037  0.4999  0.6489  0.2537
  366SOL    HW1 1097   2.230   2.173   3.082  3.6187 -2.2115  2.5366
  366SOL    HW2 1098   2.327   2.302   3.065 -0.5899 -1.6445  1.4420
  367SOL     OW 1099   2.940   2.554   2.863 -0.4061 -0.2409  0.3987
  367SOL    HW1 1100   2.870   2.479   2.835 -1.8093 -1.6716 -1.5318
  367SOL    HW2 1101   2.990   2.532   2.947 -1.9787 -1.0950 -0.9431
  368SOL     OW 1102   0.138   1.827   0.880  0.0576 -0.2139 -0.0919
  368SOL    HW1 1103   0.207   1.897   0.851  1.0094  1.3899 -2.6466
  368SOL    HW2 1104   0.043   1.856   0.856 -0.7022  1.1532 -1.3382
  369SOL     OW 1105   0.839   2.740   2.736  0.0173  0.1046  0.1241
  369SOL    HW1 1106   0.899   2.658   2.717  2.5877  1.9019 -1.5650
  369SOL    HW2 1107   0.892   2.813   2.785 -1.1881 -1.4492  0.1431
  370SOL     OW 1108   0.187   1.045   0.778 -0.7108 -0.1224 -0.2139
  370SOL    HW1 1109   0.095   1.093   0.774 -1.0485 -1.1889  0.7552
  370SOL    HW2 1110   0.172   0.947   0.765 -0.2061  2.0602 -1.7656
  371SOL     OW 1111   1.911   2.572   0.931 -0.5616 -0.2039 -0.0116
  371SOL    HW1 1112   1.986   2.642   0.953  1.1938  0.5047 -0.5665
  371SOL    HW2 1113   1.873   2.514   1.010 -0.3684 -1.5039 -0.1617
  372SOL     OW 1114   0.287   0.831   2.749  0.0066 -0.0999 -0.3959
  372SOL    HW1 1115   0.296   0.730   2.764  2.5688 -1.3042  3.6218
  372SOL    HW2 1116   0.348   0.884   2.814 -1.0335  0.7779  1.3474
  373SOL     OW 1117   2.952   1.868   0.852  0.0755 -0.0713 -0.4117
  373SOL    HW1 1118   2.876   1.838   0.794  0.9941  0.8745  0.2888
  373SOL    HW2 1119   2.944   1.969   0.878  3.7791  2.4620  0.7993
  374SOL     OW 1120   0.152   2.431   0.498  0.5915 -0.0311 -0.2800
  374SOL    HW1 1121   0.157   2.342   0.544 -1.8539  0.0266 -0.3522
  374SOL    HW2 1122   0.239   2.484   0.498 -0.5133  1.8383 -0.3645
  375SOL     OW 1123   0.396   0.319   0.484 -0.2761  0.0342  0.5758
  375SOL    HW1 1124   0.430   0.407   0.522 -1.1311  0.4579 -1.3349
  375SOL    HW2 1125   0.340   0.331   0.401 -1.8672  0.2098 -1.2792
  376SOL     OW 1126   0.263   2.518   1.931 -0.1741 -0.3069 -0.1076
  376SOL    HW1 1127   0.170   2.509   1.883 -1.6381 -0.0341 -1.2363
  376SOL    HW2 1128   0.317   2.594   1.891  0.9262 -1.6841 -1.5037
  377SOL     OW 1129   1.448   2.488   2.992  0.3046  0.2222  0.0960
  377SOL    HW1 1130   1.539   2.451   2.971 -0.4390 -0.5678 -3.4541
  377SOL    HW2 1131   1.457   2.552   3.070 -1.9034 -2.9440  0.0249
  378SOL     OW 1132   0.838   0.623   0.624  0.1995  0.2039 -0.2277
  378SOL    HW1 1133   0.810   0.678   0.537 -3.6494  1.5618 -0.8770
  378SOL    HW2 1134   0.904   0.550   0.592  3.1829 -0.2389 -1.3106
  379SOL     OW 1135   0.689   1.695   0.421 -0.3062  0.2634 -0.5660
  379SOL    HW1 1136   0.610   1.653   0.471  0.1779  0.2549 -2.0167
  379SOL    HW2 1137   0.763   1.623   0.415  3.3603 -1.7373 -0.8342
  380SOL     OW 1138   0.428   1.983   1.414 -0.4137 -0.5655 -0.6287
  380SOL    HW1 1139   0.476   1.977   1.324  2.0602 -0.5952 -1.9467
  380SOL    HW2 1140   0.445   2.069   1.468 -0.6038 -1.4370  1.0390
  381SOL     OW 1141   0.553   1.219   1.649  0.0806  0.3514  0.3637
  381SOL    HW1 1142   0.645   1.266   1.658  0.2018 -0.2195 -1.5624
  381SOL    HW2 1143   0.548   1.143   1.713  1.7104  2.4983  1.2732
  382SOL     OW 1144   2.229   1.754   0.453 -0.1555  0.0190  0.2540
  382SOL    HW1 1145   2.212   1.698   0.369  0.1822  0.7820 -0.2779
  382SOL    HW2 1146   2.305   1.711   0.510  0.7622  0.4236  0.5441
  383SOL     OW 1147   2.716   1.759   2.477  0.0119 -0.2097 -0.3870
  383SOL    HW1 1148   2.781   1.734   2.405 -0.3371 -2.0260 -2.3706
  383SOL    HW2 1149   2.767   1.755   2.563 -0.9310  0.3142  0.1875
  384SOL     OW 1150   0.171   1.946   2.346  0.0099  0.3702 -0.1368
  384SOL    HW1 1151   0.216   1.935   2.437  0.3709  0.9343 -0.6452
  384SOL    HW2 1152   0.224   2.017   2.296  0.4851 -0.8161 -0.5188
  385SOL     OW 1153   2.731   2.291   0.939  0.1676  0.3834  0.0451
  385SOL    HW1 1154   2.818   2.253   0.901  1.3690  1.6992  0.8026
  385SOL    HW2 1155   2.664   2.283   0.865  1.5402 -1.0216  0.4984
  386SOL     OW 1156   1.823   0.857   0.936 -0.1749 -0.0332  0.3740
  386SOL    HW1 1157   1.761   0.847   0.857  1.0702  0.9231 -0.1617
  386SOL    HW2 1158   1.778   0.908   1.008 -0.0321 -1.8167 -0.4375
  387SOL     OW 1159   0.326   0.697   1.868  0.4872 -0.5777  0.5857
  387SOL    HW1 1160   0.291   0.697   1.962  1.7798  1.0527  1.1575
  387SOL    HW2 1161   0.426   0.707   1.868  3.2254  0.1584 -2.0975
  388SOL     OW 1162   2.313   0.889   2.410 -0.2252  0.5028  0.1294
  388SOL    HW1 1163   2.303   0.983   2.379  1.5612 -1.2826  1.7301
  388SOL    HW2 1164   2.250   0.819   2.371  0.0173 -3.2475 -0.6737
  389SOL     OW 1165   2.007   1.026   2.211  0.2374  0.6648 -0.5455
  389SOL    HW1 1166   1.996   1.109   2.151 -2.5395 -1.8699  0.7105
  389SOL    HW2 1167   2.020   0.944   2.154 -1.5541  3.2571  3.4872
  390SOL     OW 1168   1.874   2.529   0.522  0.0038 -0.5347  0.2755
  390SOL    HW1 1169   1.893   2.629   0.534  1.6761  2.1302 -0.0403
  390SOL    HW2 1170   1.965   2.481   0.524  1.7980  0.1876 -1.2929
  391SOL     OW 1171   2.045   2.008   1.310  0.0195 -0.1806  0.7323
  391SOL    HW1 1172   2.057   1.958   1.217  1.3598 -2.2422 -2.4374
  391SOL    HW2 1173   2.059   1.944   1.389 -0.1797  1.0512 -2.0676
  392SOL     OW 1174   2.727   2.765   1.184 -0.1675  0.0520  0.1475
  392SOL    HW1 1175   2.717   2.789   1.282 -3.2210 -1.2799  0.3469
  392SOL    HW2 1176   2.700   2.843   1.124 -1.5812  1.6508  1.6108
  393SOL     OW 1177   1.977   1.909   0.211 -0.4182 -0.0741 -0.2360
  393SOL    HW1 1178   1.932   1.875   0.296  0.9715  1.3632  0.4527
  393SOL    HW2 1179   1.927   1.885   0.124  0.5539  0.1697 -0.2603
  394SOL     OW 1180   0.083   0.242   2.502 -0.0703 -0.2919  0.2162
  394SOL    HW1 1181   0.024   0.169   2.463 -1.6293  2.3385 -1.2971
  394SOL    HW2 1182   0.027   0.321   2.515  3.4774 -1.6167 -0.7653
  395SOL     OW 1183   1.087   0.759   0.939 -0.6735  0.3714  0.1076
  395SOL    HW1 1184   1.028   0.801   1.011 -1.3395  1.3281 -0.4581
  395SOL    HW2 1185   1.056   0.795   0.850  0.7507 -0.3615 -0.1152
  396SOL     OW 1186   1.281   0.714   3.070  0.1744  0.4653 -0.0372
  396SOL    HW1 1187   1.202   0.693   3.017  0.2125  2.6302  3.0703
  396SOL    HW2 1188   1.317   0.802   3.040  0.6486  0.6247 -1.6219
  397SOL     OW 1189   0.484   0.518   2.228  0.0163  0.4428 -0.4660
  397SOL    HW1 1190   0.448   0.438   2.179 -1.6951  1.0920 -0.6493
  397SOL    HW2 1191   0.457   0.603   2.176 -0.8174 -1.1085 -0.8063
  398SOL     OW 1192   0.838   0.124   0.327 -0.5985  0.2147  0.3031
  398SOL    HW1 1193   0.844   0.021   0.338 -0.5926 -0.9058  0.8373
  398SOL    HW2 1194   0.780   0.166   0.253 -0.4915  1.4555  0.5756
  399SOL     OW 1195   1.950   3.037   1.816  0.3253  0.0456  0.0078
  399SOL    HW1 1196   2.013   2.970   1.760 -0.0962 -4.6363 -3.6290
  399SOL    HW2 1197   1.914   0.029   1.755  1.1289  3.2059 -2.2118
  400SOL     OW 1198   0.507   1.619   2.125  0.1445 -0.2374 -0.1069
  400SOL    HW1 1199   0.488   1.544   2.192  0.8119 -0.6242 -3.1902
  400SOL    HW2 1200   0.420   1.647   2.075 -0.8391  0.7988 -1.3521
  401SOL     OW 1201   0.758   0.386   2.734 -0.8148 -0.0982  0.1115
  401SOL    HW1 1202   0.840   0.343   2.680  2.8550  0.0299  1.7516
  401SOL    HW2 1203   0.787   0.463   2.799  0.0258 -0.8936 -1.4309
  402SOL     OW 1204   3.005   2.197   1.801 -0.0037 -0.4285  0.1105
  402SOL    HW1 1205   3.034   2.135   1.873 -0.0490  2.4157 -1.0454
  402SOL    HW2 1206   2.927   2.152   1.752  0.2540 -1.3935  1.1719
  403SOL     OW 1207   0.565   1.028   1.841  0.2877  0.3755 -0.0754
  403SOL    HW1 1208   0.612   0.961   1.902 -0.3909 -1.9278  0.2609
  403SOL    HW2 1209   0.486   0.981   1.792  1.3917 -2.3847  0.3618
  404SOL     OW 1210   0.139   2.805   1.826  0.3559  0.0676  0.0347
  404SOL    HW1 1211   0.104   2.749   1.746 -0.3904 -0.1543 -0.7848
  404SOL    HW2 1212   0.069   2.867   1.874 -2.7076  0.0066  1.6159
  405SOL     OW 1213   0.237   0.461   1.731 -0.3249 -0.1118 -0.1696
  405SOL    HW1 1214   0.292   0.524   1.779 -2.7221  0.4059  1.2935
  405SOL    HW2 1215   0.289   0.381   1.695 -2.3294 -0.7463  0.4971
  406SOL     OW 1216   1.967   2.352   0.018 -0.5596 -0.3051  0.0832
  406SOL    HW1 1217   1.974   2.352   0.118  1.9941 -1.3359 -2.9761
  406SOL    HW2 1218   2.018   2.434   3.068 -0.7863 -1.9302  1.0965
  407SOL     OW 1219   1.380   1.449   2.204 -0.3258 -0.2592 -0.1252
  407SOL    HW1 1220   1.304   1.496   2.158  1.4421 -3.8643  2.8880
  407SOL    HW2 1221   1.390   1.494   2.293 -0.2815 -0.4198  0.0652
  408SOL     OW 1222   0.409   0.134   2.811 -0.1900 -0.9488 -0.3072
  408SOL    HW1 1223   0.455   0.130   2.722  2.0596  1.5653  1.1106
  408SOL    HW2 1224   0.334   0.202   2.816 -1.7823  1.2968  0.1365
  409SOL     OW 1225   0.333   1.776   0.407 -0.0678 -0.4176 -0.4460
  409SOL    HW1 1226   0.365   1.683   0.437  0.5184 -1.5686  2.0171
  409SOL    HW2 1227   0.394   1.841   0.458 -1.9790  0.6136  0.7864
  410SOL     OW 1228   2.663   1.774   0.433 -0.0154 -0.1671  0.6230
  410SOL    HW1 1229   2.645   1.827   0.352 -0.7981 -1.2531  4.7633
  410SOL    HW2 1230   2.718   1.692   0.404  1.0560  0.2200 -1.7897
  411SOL     OW 1231   2.868   0.381   1.084 -0.2521  0.1027  0.3282
  411SOL    HW1 1232   2.822   0.361   0.996  0.8036  1.0547 -0.2661
  411SOL    HW2 1233   2.839   0.315   1.158 -0.0997  1.7965  1.0710
  412SOL     OW 1234   1.426   0.860   1.217  0.0100 -0.0901  0.1837
  412SOL    HW1 1235   1.501   0.905   1.172 -2.1348 -0.5000  3.8605
  412SOL    HW2 1236   1.361   0.931   1.245 -0.9017 -0.6162 -4.0553
  413SOL     OW 1237   0.303   2.821   1.304 -0.0868 -0.0595 -0.1795
  413SOL    HW1 1238   0.326   2.915   1.269  1.6554 -3.5805  0.9968
  413SOL    HW2 1239   0.203   2.805   1.307 -0.2265  0.9312  0.6812
  414SOL     OW 1240   3.028   1.839   2.848 -0.4338 -0.0699 -0.4118
  414SOL    HW1 1241   2.996   1.919   2.793  5.1569  0.5048  0.9334
  414SOL    HW2 1242   0.033   1.857   2.895 -0.5010 -0.1721  1.9777
  415SOL     OW 1243   0.426   2.277   2.815  0.3043 -0.5990 -0.3830
  415SOL    HW1 1244   0.506   2.215   2.833 -0.7123  2.6799 -2.4114
  415SOL    HW2 1245   0.361   2.249   2.742 -1.4637  2.2605  1.6724
  416SOL     OW 1246   1.483   0.290   0.439 -0.2407 -0.1533 -0.5262
  416SOL    HW1 1247   1.548   0.362   0.404 -2.5072  1.6406  0.6263
  416SOL    HW2 1248   1.491   0.283   0.546  1.0316 -1.9746  2.4697
  417SOL     OW 1249   0.282   1.149   0.521  0.4032  0.4008 -0.6199
  417SOL    HW1 1250   0.366   1.135   0.468 -1.0391  0.0488 -1.2739
  417SOL    HW2 1251   0.266   1.076   0.594 -0.1313  1.3664  2.1706
  418SOL     OW 1252   2.353   1.001   2.054 -0.2847  0.1172 -0.0144
  418SOL    HW1 1253   2.312   0.908   2.059  0.4296 -0.7572 -0.8945
  418SOL    HW2 1254   2.285   1.076   2.057 -3.1135 -0.4058  0.2293
  419SOL     OW 1255   0.038   0.474   0.238  0.0137 -0.0552 -0.8497
  419SOL    HW1 1256   0.113   0.435   0.187 -1.5822  2.9532 -0.4347
  419SOL    HW2 1257   0.074   0.535   0.313  1.2246 -1.3862  0.4933
  420SOL     OW 1258   0.582   1.306   0.546 -0.0778 -0.6991  0.2716
  420SOL    HW1 1259   0.569   1.247   0.463  1.4991  1.1663  0.8093
  420SOL    HW2 1260   0.544   1.260   0.628  1.1129 -0.9087  0.8692
  421SOL     OW 1261   0.699   2.337   0.653 -0.1055 -0.2245 -0.6452
  421SOL    HW1 1262   0.779   2.275   0.638  1.9227 -1.2965 -0.2253
  421SOL    HW2 1263   0.713   2.422   0.601  1.7250 -1.0292  0.9916
  422SOL     OW 1264   3.050   0.982   1.382 -0.5072 -0.3601 -0.6641
  422SOL    HW1 1265   3.065   1.077   1.352  0.2319 -0.4037  0.4987
  422SOL    HW2 1266   0.052   0.932   1.385  0.6575 -2.6681 -1.2028
  423SOL     OW 1267   1.347   1.537   1.765  0.4775  0.7598 -0.1570
  423SOL    HW1 1268   1.391   1.445   1.787  2.2016  0.5185 -0.0780
  423SOL    HW2 1269   1.386   1.566   1.678 -2.2865 -3.2398  1.9701
  424SOL     OW 1270   1.975   1.069   2.759 -0.0094  0.7127 -0.2453
  424SOL    HW1 1271   1.929   1.078   2.850 -0.2012 -2.7731  1.3808
  424SOL    HW2 1272   1.910   1.043   2.679 -0.6463 -1.0780 -1.4579
  425SOL     OW 1273   3.052   0.416   1.832  0.0209  0.1915 -0.5491
  425SOL    HW1 1274   0.044   0.434   1.773 -0.7051 -2.5087  1.5488
  425SOL    HW2 1275   3.012   0.504   1.862  1.8188  0.4370  1.2942
  426SOL     OW 1276   2.614   2.836   2.533 -0.8915  0.6330 -0.2516
  426SOL    HW1 1277   2.695   2.881   2.580  0.7843  1.8355 -1.7695
  426SOL    HW2 1278   2.545   2.795   2.595  1.7408  1.1353 -0.3322
  427SOL     OW 1279   0.966   0.690   2.343 -0.2427  0.2460  0.6824
  427SOL    HW1 1280   0.885   0.635   2.316 -2.1585 -0.7166  0.2492
  427SOL    HW2 1281   0.965   0.774   2.286 -0.0718  0.1371 -2.3859
  428SOL     OW 1282   2.056   0.835   2.011  0.1053  0.1508  0.3688
  428SOL    HW1 1283   2.144   0.788   2.029 -0.4154  0.1215  2.8515
  428SOL    HW2 1284   2.010   0.802   1.926  0.1346  0.4216  1.1929
  429SOL     OW 1285   2.892   2.839   0.449  0.0521  0.4122 -0.3130
  429SOL    HW1 1286   2.977   2.880   0.481 -2.5039 -0.4719  0.0675
  429SOL    HW2 1287   2.866   2.862   0.352  0.9420  0.0179 -2.3203
  430SOL     OW 1288   1.808   1.696   2.268  0.0365 -0.4666 -0.2999
  430SOL    HW1 1289   1.778   1.600   2.272  0.4099 -2.0440  0.5372
  430SOL    HW2 1290   1.744   1.759   2.317 -0.3137 -0.9779  0.0970
  431SOL     OW 1291   0.034   1.864   1.178 -0.1720 -0.0777  0.1012
  431SOL    HW1 1292   0.005   1.782   1.120  0.4159  1.7566 -0.3496
  431SOL    HW2 1293   0.132   1.846   1.212  0.8348 -1.5941 -0.7882
  432SOL     OW 1294   1.765   2.955   2.625  0.0894 -0.0430  0.3039
  432SOL    HW1 1295   1.857   2.919   2.590  1.2493 -0.1407 -1.1209
  432SOL    HW2 1296   1.788   3.044   2.662 -1.4709 -0.3446 -1.0315
  433SOL     OW 1297   1.680   0.030   2.187 -0.2195 -0.2599 -0.3252
  433SOL    HW1 1298   1.617   0.099   2.144  0.6253 -1.2184 -1.3649
  433SOL    HW2 1299   1.760   0.072   2.236  1.8042 -0.7546 -1.6338
  434SOL     OW 1300   0.586   2.543   2.072 -0.4874 -0.3808 -0.3539
  434SOL    HW1 1301   0.523   2.605   2.124 -1.7492 -1.1544  0.1459
  434SOL    HW2 1302   0.662   2.596   2.027  0.5338  4.6110 -1.8048
  435SOL     OW 1303   0.157   2.219   0.260  0.1312 -0.1310  0.1396
  435SOL    HW1 1304   0.226   2.281   0.213  2.5983  2.1156  0.6176
  435SOL    HW2 1305   0.092   2.271   0.322 -2.3625  0.7546 -1.5269
  436SOL     OW 1306   0.560   0.677   1.721 -0.0736  0.6617  0.2247
  436SOL    HW1 1307   0.644   0.621   1.711 -1.3342  3.4446 -0.1516
  436SOL    HW2 1308   0.491   0.658   1.649  0.3217 -3.1977  0.5833
  437SOL     OW 1309   0.443   2.671   2.278 -0.0606  0.6768 -0.3463
  437SOL    HW1 1310   0.483   2.731   2.352  0.1217 -0.6750  3.2255
  437SOL    HW2 1311   0.411   2.588   2.324  1.6750  0.3674 -0.6102
  438SOL     OW 1312   0.708   1.706   1.244  0.3137 -0.0344 -0.5207
  438SOL    HW1 1313   0.727   1.802   1.253  0.4582 -1.1958  2.7242
  438SOL    HW2 1314   0.678   1.671   1.335  1.7028 -0.7658  2.6905
  439SOL     OW 1315   2.106   0.780   2.806  0.0262 -0.5325 -0.1155
  439SOL    HW1 1316   2.177   0.834   2.756 -0.0402 -0.9094 -0.4589
  439SOL    HW2 1317   2.146   0.706   2.863 -2.7229  0.7801  1.3600
  440SOL     OW 1318   0.588   0.595   0.001 -0.2957  0.3101  0.2405
  440SOL    HW1 1319   0.657   0.599   0.079  0.9464 -0.0570 -3.1420
  440SOL    HW2 1320   0.641   0.599   2.999  4.8020  0.0257 -0.4506
  441SOL     OW 1321   0.842   2.221   1.316  0.0652 -0.2446 -0.1196
  441SOL    HW1 1322   0.830   2.299   1.379  0.2166  0.3165  0.0747
  441SOL    HW2 1323   0.817   2.250   1.219  2.4663 -1.4033 -1.2718
  442SOL     OW 1324   2.878   1.569   0.735  0.0055  0.5607 -0.0418
  442SOL    HW1 1325   2.819   1.644   0.714  1.3362  0.4385 -1.4552
  442SOL    HW2 1326   2.839   1.520   0.815  2.7019  2.6969  0.4282
  443SOL     OW 1327   2.649   2.040   2.658  0.5779  0.0908  0.0846
  443SOL    HW1 1328   2.626   2.084   2.568  2.0049  2.1656 -0.5217
  443SOL    HW2 1329   2.602   1.949   2.684 -1.9465 -2.4306  0.6437
  444SOL     OW 1330   1.539   1.196   2.999 -0.4584 -0.6834 -0.5501
  444SOL    HW1 1331   1.514   1.254   3.079  0.3050  0.2314  2.4621
  444SOL    HW2 1332   1.557   1.243   2.911  1.6039  0.7391  1.0613
  445SOL     OW 1333   2.766   2.818   1.913  0.2345 -0.1052  0.3095
  445SOL    HW1 1334   2.740   2.841   1.818 -0.9149 -0.2477  0.7665
  445SOL    HW2 1335   2.704   2.865   1.978  1.6504  1.2807  0.2850
  446SOL     OW 1336   0.229   1.141   1.109  0.0474  0.7451  0.2020
  446SOL    HW1 1337   0.269   1.221   1.063 -3.2370 -1.4776  0.9001
  446SOL    HW2 1338   0.133   1.131   1.077  2.4630  1.2728  0.2648
  447SOL     OW 1339   0.986   1.869   1.164 -0.1561  0.2395 -0.4713
  447SOL    HW1 1340   0.892   1.909   1.160 -0.5757 -1.0701 -1.0039
  447SOL    HW2 1341   0.978   1.775   1.126  0.3640 -0.0258 -0.2579
  448SOL     OW 1342   0.883   1.103   1.537  0.0788 -0.3933  0.5783
  448SOL    HW1 1343   0.935   1.136   1.455  2.9857  0.0972  0.9900
  448SOL    HW2 1344   0.918   1.015   1.578 -1.3201  1.1881  0.1847
  449SOL     OW 1345   2.813   2.143   2.218  0.8377 -0.0778 -0.1050
  449SOL    HW1 1346   2.846   2.241   2.230 -1.1949 -1.3837 -0.5652
  449SOL    HW2 1347   2.762   2.138   2.130 -0.7553 -0.1271  0.5267
  450SOL     OW 1348   0.096   1.834   1.705 -0.4163 -0.1656  0.1563
  450SOL    HW1 1349   0.021   1.767   1.728  1.2869 -1.5860  0.1517
  450SOL    HW2 1350   0.184   1.797   1.735 -3.0161  0.5518 -0.9395
  451SOL     OW 1351   2.212   0.477   1.217 -0.2397 -0.1513  0.1519
  451SOL    HW1 1352   2.229   0.573   1.244  1.3685 -0.9035 -1.9487
  451SOL    HW2 1353   2.136   0.466   1.152 -0.7757  0.2673  2.8411
  452SOL     OW 1354   0.846   1.196   0.590  0.0562  0.4587  0.1238
  452SOL    HW1 1355   0.786   1.272   0.577  2.2112 -0.1044  0.2977
  452SOL    HW2 1356   0.943   1.223   0.575  2.2833  0.9710 -0.4183
  453SOL     OW 1357   1.430   2.158   0.605 -0.3017 -0.4574 -0.3960
  453SOL    HW1 1358   1.411   2.250   0.565 -1.7588  2.4046 -1.7355
  453SOL    HW2 1359   1.479   2.157   0.697 -1.4514 -1.2391  1.5065
  454SOL     OW 1360   0.577   1.877   3.007  0.4313  0.1702 -0.2008
  454SOL    HW1 1361   0.583   1.778   2.980  0.7942  0.0242  2.7135
  454SOL    HW2 1362   0.490   1.889   3.063 -0.5024 -1.8211  1.4015
  455SOL     OW 1363   1.330   1.006   0.589 -0.6054  0.3408  0.1015
  455SOL    HW1 1364   1.247   0.978   0.536 -1.9624  0.5239 -2.1918
  455SOL    HW2 1365   1.309   1.036   0.684 -0.1703 -2.5892  0.8993
  456SOL     OW 1366   2.175   2.286   1.234  0.4226 -0.4341 -0.0698
  456SOL    HW1 1367   2.119   2.227   1.296  1.8073  0.9984 -1.0746
  456SOL    HW2 1368   2.234   2.353   1.284  2.2422  1.7511  0.7861
  457SOL     OW 1369   1.797   2.925   3.057 -0.4313 -0.0051 -0.2624
  457SOL    HW1 1370   1.797   2.829   0.006 -1.6230 -1.5484  0.4547
  457SOL    HW2 1371   1.860   2.934   2.978 -0.4178  2.5020 -1.5802
  458SOL     OW 1372   2.339   0.789   0.139  0.0806 -0.0100 -0.0139
  458SOL    HW1 1373   2.302   0.882   0.109  0.0774  1.5868  2.8095
  458SOL    HW2 1374   2.343   0.773   0.240  0.5931 -1.7146 -0.0378
  459SOL     OW 1375   2.984   0.452   2.506 -0.5255  0.4879  0.4772
  459SOL    HW1 1376   2.999   0.556   2.516  0.9382  0.0912 -0.1126
  459SOL    HW2 1377   2.927   0.431   2.422 -1.5502 -3.0018 -0.3487
  460SOL     OW 1378   2.941   0.883   2.993 -0.3338  0.9538 -0.5305
  460SOL    HW1 1379   3.009   0.959   3.025  2.8702  2.2034  2.7557
  460SOL    HW2 1380   2.963   0.847   2.898  2.9272 -0.8401  0.7282
  461SOL     OW 1381   2.843   2.559   0.862 -0.4662  0.2243 -0.3514
  461SOL    HW1 1382   2.895   2.587   0.947  2.3095  0.5148 -0.2067
  461SOL    HW2 1383   2.762   2.502   0.875  0.1248  0.3474  1.5861
  462SOL     OW 1384   2.999   0.050   1.708  0.0911 -0.6742  0.5005
  462SOL    HW1 1385   2.958   0.143   1.693 -1.8783 -1.7111  1.3002
  462SOL    HW2 1386   3.033   0.014   1.618  0.0458  0.4462  0.0715
  463SOL     OW 1387   2.122   1.652   2.537 -0.1366 -0.6358 -0.7131
  463SOL    HW1 1388   2.166   1.569   2.574  1.8892  1.1899 -0.8564
  463SOL    HW2 1389   2.023   1.658   2.563  1.2304 -0.0410 -2.7144
  464SOL     OW 1390   0.688   2.853   1.473  0.0575 -0.0267  0.2874
  464SOL    HW1 1391   0.754   2.858   1.550 -2.0776  0.8837 -0.7296
  464SOL    HW2 1392   0.690   2.938   1.418 -2.1330  1.3356 -1.1174
  465SOL     OW 1393   0.841   0.108   1.490  0.0408  0.0441 -0.3751
  465SOL    HW1 1394   0.851   0.168   1.572 -2.9871  0.6944  1.3831
  465SOL    HW2 1395   0.742   0.091   1.468 -1.5564 -3.2956  2.2601
  466SOL     OW 1396   1.617   2.944   1.967 -0.0351  0.2914  0.3508
  466SOL    HW1 1397   1.590   2.845   1.974 -1.9548  1.9834  0.3674
  466SOL    HW2 1398   1.621   2.995   2.052 -1.3360 -2.6171 -2.5381
  467SOL     OW 1399   0.506   1.971   1.132  0.1629  0.0200  0.0770
  467SOL    HW1 1400   0.456   1.879   1.120  0.4734  0.4484 -0.0759
  467SOL    HW2 1401   0.445   2.051   1.121  0.6987  0.7339 -0.2264
  468SOL     OW 1402   2.476   1.503   2.568  0.3870  0.4380 -0.1576
  468SOL    HW1 1403   2.467   1.570   2.497 -0.8401 -0.3970  2.4014
  468SOL    HW2 1404   2.387   1.482   2.607 -0.7567 -0.9597 -1.4453
  469SOL     OW 1405   1.065   1.984   0.387  0.2921 -0.1381  0.5212
  469SOL    HW1 1406   1.105   1.921   0.314 -0.4662 -1.4885 -2.3206
  469SOL    HW2 1407   1.058   1.934   0.472 -0.6297 -0.9222  1.0645
  470SOL     OW 1408   2.325   1.159   1.426 -0.2372 -0.3948 -0.0287
  470SOL    HW1 1409   2.332   1.235   1.494 -1.2700 -0.6242 -1.9543
  470SOL    HW2 1410   2.294   1.074   1.468  1.2793  0.3172  2.2712
  471SOL     OW 1411   0.406   2.490   3.003 -0.5714 -0.8514 -0.1439
  471SOL    HW1 1412   0.405   2.409   2.938 -0.5291  1.7923 -1.7781
  471SOL    HW2 1413   0.506   2.524   3.013  1.8023  0.5294  1.7684
  472SOL     OW 1414   2.899   1.823   2.014  0.3328 -0.4365  0.3478
  472SOL    HW1 1415   2.924   1.768   1.933  2.1814 -0.3500 -1.8374
  472SOL    HW2 1416   2.811   1.869   1.996 -0.6911  1.0992  0.4203
  473SOL     OW 1417   0.910   2.934   0.332 -0.4842  0.4673  0.2650
  473SOL    HW1 1418   0.952   2.852   0.379  1.5387 -0.7930 -2.3307
  473SOL    HW2 1419   0.873   2.901   0.239  0.8932  1.2186 -1.4926
  474SOL     OW 1420   2.611   2.771   0.891  0.7042 -0.5812  0.3399
  474SOL    HW1 1421   2.700   2.732   0.923 -0.5003 -0.2658 -0.5209
  474SOL    HW2 1422   2.629   2.835   0.809 -1.3325  0.4973 -3.8386
  475SOL     OW 1423   2.015   2.778   1.668 -0.7587  0.7210 -0.1027
  475SOL    HW1 1424   2.071   2.767   1.582  4.4496 -0.0014 -0.2112
  475SOL    HW2 1425   2.035   2.702   1.730  1.1356  0.3145 -1.6586
  476SOL     OW 1426   0.760   0.659   0.880 -0.0294  0.6922  0.0398
  476SOL    HW1 1427   0.787   0.649   0.782  1.4531  1.6668 -1.1244
  476SOL    HW2 1428   0.742   0.758   0.912  0.9917 -0.2216  0.5115
  477SOL     OW 1429   0.587   2.106   0.751  0.8977 -0.2169 -0.2999
  477SOL    HW1 1430   0.618   2.196   0.720 -2.5385  0.4125  2.1254
  477SOL    HW2 1431   0.572   2.037   0.678  2.7555 -0.1993 -0.3788
  478SOL     OW 1432   0.015   2.274   2.188  0.0461  0.5792  0.1179
  478SOL    HW1 1433   3.032   2.290   2.261  1.9875 -2.1374 -2.0669
  478SOL    HW2 1434   0.004   2.179   2.141 -0.9047 -3.4252  0.0608
  479SOL     OW 1435   0.159   0.719   1.615 -0.0768 -0.6947 -0.1362
  479SOL    HW1 1436   0.196   0.683   1.703 -1.6784  0.5188 -1.0038
  479SOL    HW2 1437   0.127   0.648   1.549 -1.1582  1.2301 -0.1233
  480SOL     OW 1438   0.024   2.375   3.068  0.0417  0.2015 -0.1474
  480SOL    HW1 1439   0.026   2.302   2.996  1.1064  0.3621 -2.4440
  480SOL    HW2 1440   0.015   2.342   0.080 -1.1223 -0.4548  0.9209
  481SOL     OW 1441   1.830   2.056   2.327  0.1554  0.1573 -0.8915
  481SOL    HW1 1442   1.882   2.092   2.403 -2.6708 -0.7746 -2.3722
  481SOL    HW2 1443   1.889   2.018   2.255  1.2252  1.1320  0.0068
  482SOL     OW 1444   1.705   2.401   2.968  0.2695 -0.0785 -0.5542
  482SOL    HW1 1445   1.708   2.393   2.862  0.9056 -2.4080 -4.1452
  482SOL    HW2 1446   1.802   2.404   3.007  0.8881  1.3157  1.0943
  483SOL     OW 1447   0.482   1.921   2.123 -0.2673 -0.8410  0.1579
  483SOL    HW1 1448   0.503   1.828   2.153 -0.9590  0.5661  1.1568
  483SOL    HW2 1449   0.435   1.968   2.202  0.0915 -0.7149  1.3727
  484SOL     OW 1450   3.072   0.535   1.174 -0.8477 -0.0279  0.2070
  484SOL    HW1 1451   3.004   0.470   1.130  1.1036 -0.7503 -2.5829
  484SOL    HW2 1452   3.026   0.627   1.184  1.8016 -1.5755 -0.7519
  485SOL     OW 1453   2.339   0.733   0.398  0.2563 -0.2061  0.0738
  485SOL    HW1 1454   2.328   0.656   0.462  0.5230  0.7351  1.5319
  485SOL    HW2 1455   2.257   0.791   0.411  0.8116  0.9925 -2.5276
  486SOL     OW 1456   1.892   0.121   2.378 -0.2803 -0.2607  0.2972
  486SOL    HW1 1457   1.868   0.205   2.326  1.0660 -0.7685 -1.2719
  486SOL    HW2 1458   1.934   0.142   2.467 -3.4759 -0.0757 -4.4939
  487SOL     OW 1459   1.339   1.388   1.030  0.1328 -0.7062  0.3857
  487SOL    HW1 1460   1.255   1.429   0.992 -3.1891 -1.4770 -2.3368
  487SOL    HW2 1461   1.413   1.455   1.006 -1.1655  2.3698  1.5539
  488SOL     OW 1462   2.212   1.342   0.019 -0.6283 -0.1100  0.1510
  488SOL    HW1 1463   2.238   1.280   3.024  2.3317 -0.5547 -1.9485
  488SOL    HW2 1464   2.182   1.434   3.079 -0.3495  0.1213 -0.6846
  489SOL     OW 1465   2.298   0.284   0.337  0.0116  0.8322  0.3087
  489SOL    HW1 1466   2.369   0.270   0.412  1.6779 -0.0920  0.7210
  489SOL    HW2 1467   2.330   0.235   0.257  1.0520 -0.8273 -0.4282
  490SOL     OW 1468   1.538   2.651   0.521  0.0536  0.2987  0.6472
  490SOL    HW1 1469   1.599   2.705   0.578 -0.7313 -0.0756  2.0080
  490SOL    HW2 1470   1.545   2.665   0.423  1.6950 -0.7816  2.7779
  491SOL     OW 1471   0.979   0.859   0.701  0.0064 -0.4401 -0.1749
  491SOL    HW1 1472   0.935   0.769   0.682  1.1373 -0.8955 -0.4292
  491SOL    HW2 1473   1.030   0.884   0.615  0.2701 -0.8196  2.4407
  492SOL     OW 1474   1.431   0.083   0.117  0.2282 -0.5759  0.0489
  492SOL    HW1 1475   1.488   0.051   0.194 -3.4588  3.5092  0.2109
  492SOL    HW2 1476   1.336   0.045   0.119 -2.6146 -1.4425  1.5067
  493SOL     OW 1477   1.971   2.297   0.288 -0.2291  0.1737  0.1807
  493SOL    HW1 1478   2.007   2.347   0.371 -0.3047 -0.5527  0.7646
  493SOL    HW2 1479   1.892   2.246   0.321  2.7903  0.0755  0.0661
  494SOL     OW 1480   0.511   1.102   0.343  0.1363  0.1249 -0.2617
  494SOL    HW1 1481   0.530   1.009   0.392  2.0795 -2.5399  0.6448
  494SOL    HW2 1482   0.442   1.092   0.267 -2.2034 -0.1472 -0.1376
  495SOL     OW 1483   0.012   2.866   1.106 -0.3361  0.3302  0.4129
  495SOL    HW1 1484   3.043   2.778   1.104  1.3892  1.5743  0.2296
  495SOL    HW2 1485   0.072   2.883   1.022 -0.8622 -0.5191 -0.4854
  496SOL     OW 1486   2.357   0.247   1.790 -0.8795  0.6272  0.2100
  496SOL    HW1 1487   2.416   0.263   1.709  0.4342 -2.6837  1.6344
  496SOL    HW2 1488   2.295   0.324   1.801 -0.6106  0.1810 -0.6712
  497SOL     OW 1489   1.867   1.668   2.635  0.3549  0.2422  0.0002
  497SOL    HW1 1490   1.840   1.572   2.658 -0.3449  0.9974 -1.8350
  497SOL    HW2 1491   1.783   1.728   2.627 -0.5821  0.5737  2.2708
  498SOL     OW 1492   1.035   1.854   0.620  0.1681  0.3794 -0.1174
  498SOL    HW1 1493   0.960   1.847   0.690 -1.9389 -0.2616  1.0262
  498SOL    HW2 1494   1.121   1.887   0.667 -0.9756 -1.3084 -0.6265
  499SOL     OW 1495   0.789   2.069   0.938 -0.7328 -0.3781 -0.0217
  499SOL    HW1 1496   0.712   2.074   0.873  1.3198 -1.8891  0.2103
  499SOL    HW2 1497   0.780   2.141   1.009 -0.5052 -0.4935  4.0267
  500SOL     OW 1498   1.144   1.984   3.029  0.0160  0.6539 -0.8123
  500SOL    HW1 1499   1.069   2.000   0.013 -2.0565  0.0545  1.2866
  500SOL    HW2 1500   1.213   2.058   3.028 -0.2574 -1.9975  1.4081
  501SOL     OW 1501   2.392   2.848   1.228 -0.0312  0.1813 -0.0013
  501SOL    HW1 1502   2.381   2.745   1.214 -2.2007 -0.8994 -1.1581
  501SOL    HW2 1503   2.393   2.870   1.327 -1.5926 -0.3575  2.2766
  502SOL     OW 1504   0.340   0.937   1.685 -0.3448 -0.2542 -0.1111
  502SOL    HW1 1505   0.285   0.855   1.663 -1.5205 -0.4408 -0.1025
  502SOL    HW2 1506   0.347   0.990   1.599 -0.0514  0.0373  2.2248
  503SOL     OW 1507   1.994   0.625   1.485  0.2044  0.3654 -0.2451
  503SOL    HW1 1508   2.024   0.532   1.457 -1.3465  0.0399  0.7722
  503SOL    HW2 1509   2.003   0.699   1.417  0.6680  0.6273  2.2910
  504SOL     OW 1510   1.334   0.799   2.184 -0.7383 -0.5642 -0.3034
  504SOL    HW1 1511   1.339   0.828   2.283  2.8925 -0.7357  0.8628
  504SOL    HW2 1512   1.292   0.877   2.132 -0.4751 -0.7507 -2.6589
  505SOL     OW 1513   0.907   0.038   2.448  0.2411 -0.9466  0.0105
  505SOL    HW1 1514   1.004   0.012   2.443 -0.7085  0.6937  3.8658
  505SOL    HW2 1515   0.881   0.015   2.545  0.6701  0.1709  1.2712
  506SOL     OW 1516   0.251   0.389   1.405 -0.2434 -0.2543  0.4241
  506SOL    HW1 1517   0.285   0.346   1.489 -0.1358 -0.7686 -2.2844
  506SOL    HW2 1518   0.165   0.435   1.435 -1.2329 -0.5120  1.8262
  507SOL     OW 1519   1.292   3.006   2.950 -0.4307  0.1228 -0.4864
  507SOL    HW1 1520   1.249   3.029   3.039 -1.1513 -0.2263  2.0199
  507SOL    HW2 1521   1.350   2.924   2.957  0.3881 -1.1588 -1.6962
  508SOL     OW 1522   2.187   0.389   2.354 -0.4656 -0.0119 -0.2939
  508SOL    HW1 1523   2.260   0.444   2.319 -1.5217 -2.3460 -1.6032
  508SOL    HW2 1524   2.227   0.307   2.391 -0.5035  2.4187 -2.8343
  509SOL     OW 1525   0.762   1.425   1.689  0.1380 -0.2406 -0.2517
  509SOL    HW1 1526   0.860   1.444   1.668 -0.8939  1.4837  2.5586
  509SOL    HW2 1527   0.730   1.460   1.780  0.2449  0.1814  0.8876
  510SOL     OW 1528   3.034   1.169   0.788  0.3710 -0.1434 -0.6973
  510SOL    HW1 1529   2.940   1.160   0.758  2.4471  1.4660  1.1555
  510SOL    HW2 1530   3.037   1.187   0.890 -0.3845 -0.0101  3.2698
  511SOL     OW 1531   1.718   1.738   0.978  0.6207  0.1370  0.0392
  511SOL    HW1 1532   1.717   1.837   1.011  0.3095 -1.4289  1.2571
  511SOL    HW2 1533   1.782   1.684   1.035 -2.3369  0.3533  0.7866
  512SOL     OW 1534   0.871   1.016   0.405  0.6374 -0.4891  0.6833
  512SOL    HW1 1535   0.860   1.074   0.324  1.2545 -1.2517 -0.4385
  512SOL    HW2 1536   0.844   1.066   0.488  0.6030 -2.5192 -1.2603
  513SOL     OW 1537   0.452   2.311   0.511  0.3407  0.7530  0.1290
  513SOL    HW1 1538   0.472   2.379   0.442  2.3372 -1.1649 -0.2109
  513SOL    HW2 1539   0.528   2.308   0.578 -1.1232 -2.1466 -0.6513
  514SOL     OW 1540   2.571   2.154   2.421 -0.5167 -0.0896 -1.0775
  514SOL    HW1 1541   2.476   2.119   2.409 -0.1780  0.1398  0.7156
  514SOL    HW2 1542   2.639   2.115   2.353  2.8641 -2.6033 -3.3007
  515SOL     OW 1543   2.565   0.858   3.061 -0.0629  0.0342  0.3713
  515SOL    HW1 1544   2.643   0.868   0.039 -1.1539 -0.4560  0.9966
  515SOL    HW2 1545   2.503   0.803   0.036 -2.3997 -1.7504  0.9623
  516SOL     OW 1546   1.978   2.946   0.941  0.0699  0.2668 -0.5202
  516SOL    HW1 1547   2.049   2.879   0.913  1.7660 -0.3759 -1.5957
  516SOL    HW2 1548   1.895   2.899   0.975  0.3149 -2.2074  2.6652
  517SOL     OW 1549   1.432   1.982   2.874  0.0133  0.1122  0.4465
  517SOL    HW1 1550   1.381   1.926   2.804 -0.9648  1.4220  3.2052
  517SOL    HW2 1551   1.527   2.003   2.860 -2.1549 -0.0308  1.2333
  518SOL     OW 1552   0.954   0.869   1.672  0.8190  0.2815 -0.6858
  518SOL    HW1 1553   1.020   0.817   1.615 -0.2652 -0.5224 -1.0270
  518SOL    HW2 1554   0.941   0.832   1.766  2.8179 -1.2387  2.1887
  519SOL     OW 1555   2.982   1.526   0.121 -0.4400 -0.1358 -0.2386
  519SOL    HW1 1556   3.083   1.539   0.121 -0.6682  0.4519  0.8880
  519SOL    HW2 1557   2.948   1.584   0.044  0.6226 -0.4168  1.5726
  520SOL     OW 1558   2.126   2.258   2.045  0.4987 -0.0560 -0.2211
  520SOL    HW1 1559   2.179   2.245   2.131  0.4506 -1.6423 -0.4936
  520SOL    HW2 1560   2.084   2.169   2.017 -0.3601 -0.7394 -0.6243
  521SOL     OW 1561   0.918   2.781   2.481 -0.2518  0.4921  0.0290
  521SOL    HW1 1562   0.895   2.775   2.576 -0.6234 -1.5425 -1.3209
  521SOL    HW2 1563   0.840   2.812   2.423  0.7205  1.1955 -0.6444
  522SOL     OW 1564   2.149   0.275   2.062  0.0967  0.5627 -0.1718
  522SOL    HW1 1565   2.189   0.320   2.146  2.6205 -1.4740 -0.7469
  522SOL    HW2 1566   2.086   0.343   2.012 -2.2075  0.9505 -0.2732
  523SOL     OW 1567   1.652   2.223   1.445  0.5877 -0.1315 -0.2948
  523SOL    HW1 1568   1.553   2.213   1.439  1.1254 -0.8270 -2.0893
  523SOL    HW2 1569   1.667   2.319   1.465  1.1198 -1.2644  1.1800
  524SOL     OW 1570   1.636   2.159   0.047 -0.1063  0.3916 -0.8242
  524SOL    HW1 1571   1.715   2.167   0.109 -2.1511  3.2060 -1.0262
  524SOL    HW2 1572   1.659   2.208   3.050  0.1109  0.4154  4.8992
  525SOL     OW 1573   0.172   0.603   3.075  0.4057 -0.3827  0.4269
  525SOL    HW1 1574   0.243   0.533   3.060  0.0143  2.9192  0.4023
  525SOL    HW2 1575   0.095   0.581   3.014  0.6140 -0.5362  0.2964
  526SOL     OW 1576   1.098   2.699   0.366  0.4531  0.0392 -0.5727
  526SOL    HW1 1577   1.092   2.601   0.331 -3.3138 -0.1647  0.2288
  526SOL    HW2 1578   1.172   2.706   0.436 -2.3728 -1.4262 -3.5499
  527SOL     OW 1579   2.715   1.821   0.700 -0.0762  0.1574  0.0401
  527SOL    HW1 1580   2.631   1.857   0.749 -4.4034  0.8319  1.6255
  527SOL    HW2 1581   2.698   1.809   0.598  0.8776 -0.4394 -0.4760
  528SOL     OW 1582   0.509   0.925   2.157 -0.0096  0.3860 -0.1573
  528SOL    HW1 1583   0.410   0.947   2.135 -0.5225  0.5397  1.0457
  528SOL    HW2 1584   0.541   0.857   2.083 -1.2526  0.1638  1.7098
  529SOL     OW 1585   1.628   1.823   2.652  0.0065  0.3114 -0.2046
  529SOL    HW1 1586   1.546   1.783   2.703 -2.1467 -1.4252 -0.9911
  529SOL    HW2 1587   1.660   1.902   2.704  2.4015  1.4948  1.8041
  530SOL     OW 1588   1.606   0.988   2.412  0.5759  0.1271 -0.1724
  530SOL    HW1 1589   1.584   1.077   2.374  1.3195  2.4437 -1.6912
  530SOL    HW2 1590   1.519   0.939   2.429  0.1747  0.3004  0.1729
  531SOL     OW 1591   0.509   2.478   2.635  0.0909  0.0984 -0.4518
  531SOL    HW1 1592   0.441   2.462   2.556 -0.1070  0.3898 -1.1575
  531SOL    HW2 1593   0.470   2.438   2.720 -0.0696  1.0255 -1.1319
  532SOL     OW 1594   2.598   0.812   0.434 -0.1203 -0.3315  0.1266
  532SOL    HW1 1595   2.628   0.860   0.515 -2.5660 -4.0058 -0.1857
  532SOL    HW2 1596   2.496   0.816   0.410  3.9247  0.1033  0.5161
  533SOL     OW 1597   2.870   0.305   1.668 -0.1892  0.6794 -0.1169
  533SOL    HW1 1598   2.942   0.335   1.734  0.2077  3.6397  0.5344
  533SOL    HW2 1599   2.881   0.356   1.580 -0.9823 -1.9732 -0.9763
  534SOL     OW 1600   0.753   3.076   0.030 -0.1438  0.4316  0.1188
  534SOL    HW1 1601   0.675   3.072   0.093 -2.6048 -0.8270 -0.5561
  534SOL    HW2 1602   0.730   0.052   3.036 -0.2791  2.7565  2.7103
  535SOL     OW 1603   0.279   0.255   0.216  0.2060  0.1041 -0.1571
  535SOL    HW1 1604   0.294   0.204   0.130 -0.9286 -0.3620  0.6157
  535SOL    HW2 1605   0.217   0.206   0.280 -0.0588 -2.2795  4.3030
  536SOL     OW 1606   0.331   1.771   1.107  0.0785  0.2791  0.3221
  536SOL    HW1 1607   0.277   1.781   1.019  0.0629  1.0768 -1.4556
  536SOL    HW2 1608   0.340   1.674   1.144 -1.8527  0.9435  2.0852
  537SOL     OW 1609   0.988   2.717   1.832 -0.0993  0.0712  0.3130
  537SOL    HW1 1610   1.074   2.719   1.769  1.4063  0.4753 -1.2681
  537SOL    HW2 1611   1.010   2.702   1.928  0.0881  1.0079 -0.4811
  538SOL     OW 1612   0.172   1.973   2.924  0.2872  0.0741  0.0320
  538SOL    HW1 1613   0.141   1.995   3.022 -1.5668 -2.6457 -1.8000
  538SOL    HW2 1614   0.244   1.905   2.917 -1.1621 -1.2294  1.5396
  539SOL     OW 1615   2.544   1.113   2.671  0.5314 -0.6146 -0.1930
  539SOL    HW1 1616   2.444   1.086   2.676 -0.4437  0.0103  1.7401
  539SOL    HW2 1617   2.597   1.050   2.616 -3.7506 -0.1635  3.5776
  540SOL     OW 1618   1.861   0.103   2.716 -0.0890  0.0868 -0.4426
  540SOL    HW1 1619   1.877   0.082   2.816  1.8399  0.0332  1.8359
  540SOL    HW2 1620   1.953   0.133   2.677  1.3740  0.6959 -1.6491
  541SOL     OW 1621   0.623   0.181   2.103  0.5018  0.1335  0.1842
  541SOL    HW1 1622   0.640   0.151   2.200 -0.8429 -0.4323  0.5326
  541SOL    HW2 1623   0.530   0.218   2.084 -0.3913  0.0707 -0.9102
  542SOL     OW 1624   2.095   2.800   0.112 -0.0824  0.2241 -0.1444
  542SOL    HW1 1625   2.017   2.785   0.047  0.0064  1.5503 -1.4657
  542SOL    HW2 1626   2.089   2.892   0.157 -1.2332  3.9810  0.3962
  543SOL     OW 1627   1.131   0.068   0.403  0.0364  0.0470 -0.2414
  543SOL    HW1 1628   1.172   0.164   0.389 -1.8038  1.8864  0.3389
  543SOL    HW2 1629   1.028   0.073   0.400  0.4504  1.6852  2.6332
  544SOL     OW 1630   2.413   1.317   1.873  0.3797 -0.0849  0.5585
  544SOL    HW1 1631   2.341   1.273   1.928 -0.1254  1.0700  0.7232
  544SOL    HW2 1632   2.492   1.347   1.922 -1.7041  0.9981  0.2032
  545SOL     OW 1633   2.230   1.643   1.322 -0.1600  0.2952  0.3096
  545SOL    HW1 1634   2.284   1.694   1.247 -0.5284  1.0360  0.7933
  545SOL    HW2 1635   2.213   1.542   1.299 -2.1143 -0.1240  1.5599
  546SOL     OW 1636   0.302   3.035   2.087 -0.5546  0.4504 -0.8955
  546SOL    HW1 1637   0.342   0.007   2.160 -1.6422 -0.6249  0.8055
  546SOL    HW2 1638   0.276   2.943   2.116 -0.2128  1.6161  0.0190
  547SOL     OW 1639   1.464   0.590   0.804  0.0335  0.5001 -0.0032
  547SOL    HW1 1640   1.450   0.672   0.863  0.7810 -0.8366  0.0230
  547SOL    HW2 1641   1.523   0.528   0.860  2.5601 -0.4899 -2.2119
  548SOL     OW 1642   1.725   2.510   2.663  0.4306 -0.2572 -0.0884
  548SOL    HW1 1643   1.636   2.548   2.634  3.2481  2.0663 -1.8911
  548SOL    HW2 1644   1.727   2.411   2.632  0.7911  2.5343  1.4927
  549SOL     OW 1645   2.210   0.478   0.140  0.3286  0.4215 -0.5037
  549SOL    HW1 1646   2.114   0.515   0.134 -2.0074  1.8731 -1.9252
  549SOL    HW2 1647   2.232   0.433   0.228 -1.4305  1.4178  0.2621
  550SOL     OW 1648   3.034   1.847   0.555  0.2637 -0.3751 -0.3733
  550SOL    HW1 1649   3.001   1.779   0.623  1.1852  2.5656  2.5674
  550SOL    HW2 1650   3.072   1.797   0.479 -2.9173  1.3198  2.9808
  551SOL     OW 1651   1.198   2.891   2.152  0.1354  0.3269  0.5177
  551SOL    HW1 1652   1.290   2.930   2.171  1.8539  3.2099 -2.2558
  551SOL    HW2 1653   1.127   2.965   2.150 -1.6666 -0.9133 -1.3625
  552SOL     OW 1654   2.945   2.311   2.426  0.1385  0.1089  0.1795
  552SOL    HW1 1655   2.935   2.210   2.442  0.1244 -0.5108 -1.4465
  552SOL    HW2 1656   2.875   2.353   2.485 -0.8248  1.7518  2.3569
  553SOL     OW 1657   0.139   0.250   0.826  0.4307 -0.1033  0.0875
  553SOL    HW1 1658   0.119   0.246   0.925  0.9753 -2.2062 -1.2912
  553SOL    HW2 1659   0.095   0.170   0.778  0.3490  1.0787 -0.6415
  554SOL     OW 1660   2.258   2.192   1.641  0.2327  0.0445  0.2857
  554SOL    HW1 1661   2.192   2.121   1.673  0.1637 -1.0528  0.9094
  554SOL    HW2 1662   2.260   2.264   1.714  2.8416  0.9819 -1.2167
  555SOL     OW 1663   1.748   2.264   2.190  0.1302  0.1281  0.1785
  555SOL    HW1 1664   1.786   2.190   2.244  0.4417  2.7538  0.7890
  555SOL    HW2 1665   1.827   2.307   2.142  0.8415 -1.9176  0.4053
  556SOL     OW 1666   1.314   1.363   1.299  0.0919 -0.2429 -0.0531
  556SOL    HW1 1667   1.317   1.351   1.198 -2.0030  2.6137  0.2909
  556SOL    HW2 1668   1.225   1.404   1.326  1.7111 -0.9142 -0.2150
  557SOL     OW 1669   2.025   2.711   2.149 -0.3226 -0.1568  0.1376
  557SOL    HW1 1670   2.119   2.730   2.188  0.7922 -1.6859 -2.1173
  557SOL    HW2 1671   1.977   2.799   2.123 -0.8694 -0.3830 -2.4511
  558SOL     OW 1672   0.353   2.984   1.819  0.1296 -0.2839  0.5289
  558SOL    HW1 1673   0.353   3.016   1.918 -1.3529 -0.2872  1.1362
  558SOL    HW2 1674   0.289   2.900   1.806 -2.6946 -3.1391  0.6902
  559SOL     OW 1675   1.942   3.060   0.519 -0.6046 -0.1627  0.3604
  559SOL    HW1 1676   1.964   0.022   0.434 -0.0644  2.2696 -0.2913
  559SOL    HW2 1677   1.947   0.033   0.602  2.2555 -0.1330  2.4306
  560SOL     OW 1678   1.653   2.824   0.692 -0.0823  0.1967 -0.6426
  560SOL    HW1 1679   1.676   2.829   0.791  0.3210 -2.4280 -0.0884
  560SOL    HW2 1680   1.606   2.911   0.668 -1.0286  0.0765  1.2922
  561SOL     OW 1681   0.798   0.132   0.987  0.2851  0.6441  0.3529
  561SOL    HW1 1682   0.826   0.227   0.964  0.1582 -1.1994  0.8262
  561SOL    HW2 1683   0.791   0.081   0.898  1.8238  0.5716 -1.1149
  562SOL     OW 1684   0.480   0.853   2.416 -0.4828 -0.0019  0.3246
  562SOL    HW1 1685   0.476   0.933   2.474  2.2477 -0.8441  0.3652
  562SOL    HW2 1686   0.519   0.872   2.322  2.0791  0.2894  0.0091
  563SOL     OW 1687   1.717   2.236   2.606 -0.2012 -0.2085  0.4655
  563SOL    HW1 1688   1.795   2.186   2.564 -0.5316  0.4712  0.0369
  563SOL    HW2 1689   1.634   2.236   2.540 -0.6786  2.0987 -1.9390
  564SOL     OW 1690   2.829   0.979   1.020 -0.2406 -0.0636 -0.1550
  564SOL    HW1 1691   2.743   0.944   1.060  1.0373  1.7472 -0.8027
  564SOL    HW2 1692   2.817   1.024   0.926  1.7564 -0.3000 -2.2864
  565SOL     OW 1693   0.898   0.856   0.072  0.3831  0.3015 -0.4080
  565SOL    HW1 1694   0.887   0.769   0.124 -3.0366  0.3849 -1.4433
  565SOL    HW2 1695   0.809   0.905   0.069  1.1025 -0.4367  0.3472
  566SOL     OW 1696   2.205   0.267   2.812 -0.1939 -0.2060 -0.4249
  566SOL    HW1 1697   2.257   0.179   2.787  0.7009 -0.6180 -1.0026
  566SOL    HW2 1698   2.236   0.297   2.905  1.2000 -2.3342 -2.0762
  567SOL     OW 1699   1.841   1.093   0.610  0.3582  0.0333  0.6695
  567SOL    HW1 1700   1.908   1.174   0.617  0.3740  0.6383 -1.1502
  567SOL    HW2 1701   1.829   1.063   0.512 -2.0662  1.1724  1.4038
  568SOL     OW 1702   1.869   1.849   3.041 -0.5049 -0.1623 -0.1246
  568SOL    HW1 1703   1.772   1.815   3.049 -2.5951 -2.3414  2.3442
  568SOL    HW2 1704   1.927   1.790   2.983 -0.7808 -0.6770  0.5032
  569SOL     OW 1705   1.914   1.339   2.990 -0.0785  0.1735  0.4259
  569SOL    HW1 1706   1.849   1.403   3.037 -0.6408 -0.5865 -1.7043
  569SOL    HW2 1707   2.002   1.315   3.041  0.6624 -0.4627  2.1258
  570SOL     OW 1708   0.392   2.217   1.782  0.4829 -0.0668 -0.1575
  570SOL    HW1 1709   0.444   2.192   1.698 -2.4882 -0.2526  0.7543
  570SOL    HW2 1710   0.452   2.266   1.852 -1.6675  2.0758  1.4117
  571SOL     OW 1711   0.133   1.022   1.890 -0.4290 -0.5281 -0.5698
  571SOL    HW1 1712   0.193   0.994   1.816 -0.1906  0.4649  2.4164
  571SOL    HW2 1713   0.048   1.061   1.846 -1.4655  2.6983  0.2349
  572SOL     OW 1714   1.239   1.799   0.257 -0.3326  0.2393  0.3385
  572SOL    HW1 1715   1.290   1.887   0.249  0.9230  1.3082 -1.7054
  572SOL    HW2 1716   1.234   1.744   0.171 -3.0120 -0.9817 -1.2054
  573SOL     OW 1717   1.881   2.019   0.622  0.2743  0.0203  0.5307
  573SOL    HW1 1718   1.860   2.069   0.535 -0.4078  2.1727  1.2889
  573SOL    HW2 1719   1.846   2.070   0.703 -2.1039  0.3557 -2.4699
  574SOL     OW 1720   0.967   0.108   1.254 -0.2905 -0.2941 -0.5976
  574SOL    HW1 1721   0.916   0.113   1.341  0.9471  0.8857 -0.4648
  574SOL    HW2 1722   0.909   0.109   1.172 -1.7995 -2.0559 -2.2177
  575SOL     OW 1723   0.451   1.186   1.400  0.0197 -0.2767  0.4721
  575SOL    HW1 1724   0.514   1.177   1.481  1.1870  0.8419  0.1735
  575SOL    HW2 1725   0.505   1.167   1.310  1.1621  0.1771 -2.5949
  576SOL     OW 1726   2.693   3.024   1.065  0.2427 -0.1124 -0.3541
  576SOL    HW1 1727   2.607   3.008   1.016  0.4468 -0.9892 -0.9452
  576SOL    HW2 1728   2.680   3.038   1.166  1.4613 -2.2874  1.8039
  577SOL     OW 1729   0.848   1.261   2.046  0.0352  0.1730  0.1393
  577SOL    HW1 1730   0.797   1.351   2.031 -2.4360 -3.3905  1.2823
  577SOL    HW2 1731   0.802   1.210   2.119  0.4002 -0.7741 -0.0799
  578SOL     OW 1732   1.840   1.048   2.519  0.0634 -0.4745  0.0359
  578SOL    HW1 1733   1.758   1.000   2.480  2.3783 -1.7837 -2.8808
  578SOL    HW2 1734   1.852   1.144   2.484  2.1419 -2.8395  0.2363
  579SOL     OW 1735   1.589   2.327   1.775  0.2672 -0.0001 -0.0416
  579SOL    HW1 1736   1.642   2.407   1.801 -1.1634 -3.9290 -0.6680
  579SOL    HW2 1737   1.586   2.261   1.854  2.5984  1.0020 -1.8377
  580SOL     OW 1738   1.376   1.757   2.740  0.5671 -0.6302 -0.0019
  580SOL    HW1 1739   1.402   1.699   2.814 -2.4512  0.8028 -1.3781
  580SOL    HW2 1740   1.293   1.731   2.688 -1.5067  2.0545 -0.8082
  581SOL     OW 1741   0.953   0.961   2.238 -0.5536  0.3486  0.1671
  581SOL    HW1 1742   0.909   0.982   2.329 -1.6060  2.0067  2.2005
  581SOL    HW2 1743   1.013   1.038   2.201  0.0581  0.8899 -1.7182
  582SOL     OW 1744   0.934   1.272   1.310 -0.0281  0.3566  0.1903
  582SOL    HW1 1745   0.838   1.302   1.291 -2.1042 -0.3850  1.5591
  582SOL    HW2 1746   0.969   1.218   1.228  2.3625 -2.2230  1.8423
  583SOL     OW 1747   0.971   1.187   1.792  0.5009 -0.1014  0.0155
  583SOL    HW1 1748   0.921   1.204   1.707  0.3857 -1.0309 -1.8132
  583SOL    HW2 1749   0.911   1.203   1.875 -1.1372 -0.9338 -0.1395
  584SOL     OW 1750   2.572   2.662   0.465  0.0354 -0.0482 -0.2722
  584SOL    HW1 1751   2.654   2.622   0.510 -0.3297  2.1073  1.0190
  584SOL    HW2 1752   2.595   2.756   0.421 -0.9306  2.2677 -1.0407
  585SOL     OW 1753   1.767   0.134   3.033 -0.7465 -0.0866  0.1522
  585SOL    HW1 1754   1.835   0.175   0.015 -0.1151 -0.0027  2.2990
  585SOL    HW2 1755   1.770   0.036   3.052 -0.9150  1.9829 -0.2704
  586SOL     OW 1756   0.070   2.297   0.992 -0.3121 -0.2967  0.0337
  586SOL    HW1 1757   0.060   2.360   0.914 -0.5735 -1.8194 -0.7721
  586SOL    HW2 1758   0.071   2.353   1.077 -0.3142 -1.8535  1.6055
  587SOL     OW 1759   1.623   1.736   3.046 -0.8250 -0.0093 -0.2900
  587SOL    HW1 1760   1.578   1.824   3.077 -2.3239  1.9139 -0.9182
  587SOL    HW2 1761   1.555   1.674   3.003  0.9712 -0.7653  1.3772
  588SOL     OW 1762   0.351   0.232   1.200  0.0598  0.3596 -0.3734
  588SOL    HW1 1763   0.431   0.270   1.152 -0.9781  3.4824  1.6973
  588SOL    HW2 1764   0.327   0.287   1.286  0.0765  0.5217 -1.6034
  589SOL     OW 1765   1.248   0.178   0.860  0.1382  0.0158  0.2611
  589SOL    HW1 1766   1.219   0.278   0.868 -0.9089  0.6932  2.8500
  589SOL    HW2 1767   1.300   0.153   0.942 -1.8749  1.8015 -2.5626
  590SOL     OW 1768   1.093   1.026   2.598  0.3095 -0.1645 -0.0495
  590SOL    HW1 1769   1.172   1.008   2.659  2.5313  0.9413  0.3709
  590SOL    HW2 1770   1.013   1.062   2.647  2.9530  0.6534 -1.7221
  591SOL     OW 1771   2.704   2.393   2.512 -0.3927 -0.1500  0.8921
  591SOL    HW1 1772   2.659   2.338   2.438 -1.0431  0.2038 -2.2925
  591SOL    HW2 1773   2.721   2.491   2.481  0.7567 -1.7289 -2.4340
  592SOL     OW 1774   2.067   1.817   1.500  0.0610 -0.1598  0.2818
  592SOL    HW1 1775   2.029   1.764   1.579  1.4979 -1.4350  2.3630
  592SOL    HW2 1776   2.125   1.755   1.447 -0.6857  1.6688 -0.7828
  593SOL     OW 1777   1.134   0.712   1.517 -0.2178  0.5567 -0.1961
  593SOL    HW1 1778   1.095   0.688   1.428  0.3263 -0.5375  3.4012
  593SOL    HW2 1779   1.183   0.631   1.557 -1.8945  2.9937  2.3974
  594SOL     OW 1780   2.562   1.021   2.234  0.5239  0.5675  0.2916
  594SOL    HW1 1781   2.642   1.005   2.171 -0.6108 -0.8934  2.5027
  594SOL    HW2 1782   2.480   0.976   2.187  0.6080 -1.6925 -1.3751
  595SOL     OW 1783   3.027   0.209   0.537  0.0595 -0.2745 -0.2495
  595SOL    HW1 1784   3.000   0.307   0.564  1.6467  1.8252  1.6240
  595SOL    HW2 1785   3.041   0.148   0.620  0.2715  0.7449 -1.2222
  596SOL     OW 1786   0.038   1.404   1.033 -0.0734  0.2444  0.3614
  596SOL    HW1 1787   0.143   1.387   1.028 -1.1481  0.8912 -0.7045
  596SOL    HW2 1788   3.078   1.322   1.079  2.6912 -2.8405  3.9978
  597SOL     OW 1789   1.757   1.448   0.609 -0.5730  0.3025  0.2571
  597SOL    HW1 1790   1.800   1.516   0.673 -0.4804 -2.6040  2.0239
  597SOL    HW2 1791   1.772   1.480   0.518 -1.4081 -1.3110  2.8008
  598SOL     OW 1792   0.426   2.679   1.789 -0.4641 -0.2290  0.6023
  598SOL    HW1 1793   0.410   2.692   1.687 -1.3146 -0.0031 -1.8227
  598SOL    HW2 1794   0.512   2.724   1.823  0.6309 -1.9126 -0.0351
  599SOL     OW 1795   2.717   1.374   2.498  0.3091  0.7164  0.1771
  599SOL    HW1 1796   2.761   1.327   2.578  0.1459 -0.7911  0.8614
  599SOL    HW2 1797   2.637   1.436   2.525 -0.4869  1.6732 -0.5611
  600SOL     OW 1798   0.671   1.049   0.021  0.0873 -0.1352 -0.5042
  600SOL    HW1 1799   0.710   1.111   0.093  1.3246  2.6825  1.0986
  600SOL    HW2 1800   0.625   0.965   0.064  0.7078  0.1008  1.6942
  601SOL     OW 1801   0.703   0.920   0.930  0.7261 -0.1487 -0.4800
  601SOL    HW1 1802   0.649   0.949   1.009 -0.5992 -1.6621 -1.1046
  601SOL    HW2 1803   0.719   0.999   0.862  0.3989  0.2882 -0.3697
  602SOL     OW 1804   1.415   2.326   0.381 -0.0965 -0.1920  0.0233
  602SOL    HW1 1805   1.337   2.359   0.326 -1.5299  0.5978  1.8911
  602SOL    HW2 1806   1.490   2.396   0.392  1.6094  0.8025  1.2961
  603SOL     OW 1807   1.154   2.438   1.896 -0.2906 -0.1176 -0.6505
  603SOL    HW1 1808   1.200   2.521   1.927 -1.3295  0.0559 -0.4232
  603SOL    HW2 1809   1.076   2.412   1.958 -0.8969 -0.5728 -2.9119
  604SOL     OW 1810   0.326   0.418   2.506 -0.1025  0.5162  0.4020
  604SOL    HW1 1811   0.241   0.366   2.496  2.3878  2.2574 -0.9817
  604SOL    HW2 1812   0.349   0.467   2.423  0.1608 -1.5471  2.9293
  605SOL     OW 1813   2.586   1.124   1.314 -0.3955 -0.1055 -0.3287
  605SOL    HW1 1814   2.507   1.160   1.368  0.6839  4.3196  0.5802
  605SOL    HW2 1815   2.603   1.021   1.315 -0.7635 -2.8584 -2.0334
  606SOL     OW 1816   0.695   1.697   2.621 -0.4657 -0.1688  0.6920
  606SOL    HW1 1817   0.633   1.713   2.537  1.7125 -0.9842 -4.6043
  606SOL    HW2 1818   0.729   1.599   2.616 -0.0180  0.0469 -1.7841
  607SOL     OW 1819   0.538   3.012   0.231 -0.1569 -0.1496  0.3914
  607SOL    HW1 1820   0.523   2.931   0.177 -1.9751  0.6389 -1.3939
  607SOL    HW2 1821   0.568   2.980   0.320  1.0429 -0.0326 -1.9740
  608SOL     OW 1822   2.315   1.855   2.149  0.6096  0.1293  0.0108
  608SOL    HW1 1823   2.348   1.835   2.056 -1.8400  1.5235  2.7732
  608SOL    HW2 1824   2.216   1.830   2.154 -0.8110 -0.4172  2.3767
  609SOL     OW 1825   2.733   0.263   0.846  0.1947 -0.5097 -0.1451
  609SOL    HW1 1826   2.795   0.190   0.828 -1.4902  1.5680  0.9006
  609SOL    HW2 1827   2.650   0.224   0.896  0.1303 -1.5177 -1.8157
  610SOL     OW 1828   0.339   2.635   0.512  0.0327 -0.5079 -0.1310
  610SOL    HW1 1829   0.421   2.666   0.565 -1.1785  1.6227  2.0449
  610SOL    HW2 1830   0.348   2.674   0.416 -0.8433 -0.4960 -0.7519
  611SOL     OW 1831   1.591   1.304   0.163 -0.2956 -0.4483  0.1422
  611SOL    HW1 1832   1.680   1.285   0.206  0.3476 -1.2748 -2.3899
  611SOL    HW2 1833   1.521   1.324   0.231  1.5750  0.3669 -1.2001
  612SOL     OW 1834   0.633   2.463   1.702 -0.0566 -0.2842  0.2319
  612SOL    HW1 1835   0.660   2.364   1.712 -0.4941 -1.8666  1.6145
  612SOL    HW2 1836   0.530   2.472   1.711 -1.2292  2.4741 -0.0561
  613SOL     OW 1837   0.582   2.710   0.618 -0.1274  0.3894  0.1846
  613SOL    HW1 1838   0.583   2.711   0.723 -3.1917 -0.5263  2.4720
  613SOL    HW2 1839   0.646   2.640   0.580 -1.9072 -0.4533 -3.1360
  614SOL     OW 1840   2.388   2.945   1.500  0.8861 -0.4974  0.4888
  614SOL    HW1 1841   2.337   3.028   1.531  1.0264  1.3780 -0.6920
  614SOL    HW2 1842   2.370   2.877   1.575  1.0172 -1.6382 -0.3606
  615SOL     OW 1843   1.737   1.028   0.367 -0.1750 -0.4814  0.2157
  615SOL    HW1 1844   1.644   1.063   0.387  0.8535 -0.4275  1.6479
  615SOL    HW2 1845   1.773   1.077   0.284  0.7013  1.0247 -2.3192
  616SOL     OW 1846   1.863   1.248   0.228 -0.0442  0.1598  0.6795
  616SOL    HW1 1847   1.903   1.336   0.244 -1.9061 -3.6293  0.1167
  616SOL    HW2 1848   1.929   1.177   0.197 -0.6461  0.3408  1.5228
  617SOL     OW 1849   1.070   0.714   2.878  0.4523  0.0487  0.8318
  617SOL    HW1 1850   1.109   0.675   2.793  0.9890  0.6587  1.2484
  617SOL    HW2 1851   1.009   0.799   2.853 -2.1667  1.8994 -1.1647
  618SOL     OW 1852   0.740   2.889   2.036 -0.2205 -0.1355 -0.3579
  618SOL    HW1 1853   0.761   2.806   1.988  1.8826  4.5592  1.9352
  618SOL    HW2 1854   0.720   2.966   1.972 -1.6923  0.3919  0.1380
  619SOL     OW 1855   2.882   1.427   1.445  0.4598 -0.0185  0.1676
  619SOL    HW1 1856   2.945   1.506   1.438 -2.0930  2.9235  0.4307
  619SOL    HW2 1857   2.786   1.453   1.466  0.8896 -0.7799  1.4479
  620SOL     OW 1858   3.019   0.748   2.737 -0.7375 -0.3810  0.1576
  620SOL    HW1 1859   3.058   0.664   2.773  0.1661 -0.6460  0.2782
  620SOL    HW2 1860   0.006   0.802   2.683  2.5199  3.0977 -3.7182
  621SOL     OW 1861   2.349   2.044   2.385  0.0282 -0.4767 -0.5605
  621SOL    HW1 1862   2.355   1.984   2.303  0.5211 -0.4070  2.6135
  621SOL    HW2 1863   2.278   2.002   2.442 -0.9327 -1.7305 -0.6448
  622SOL     OW 1864   1.086   0.395   2.052 -0.3546 -0.1479  0.7248
  622SOL    HW1 1865   1.026   0.381   2.131  0.5846  0.7362  1.5630
  622SOL    HW2 1866   1.163   0.453   2.084  0.8909  0.4281  0.0879
  623SOL     OW 1867   0.678   1.131   2.223  0.2438  0.2992 -0.0333
  623SOL    HW1 1868   0.599   1.065   2.194 -1.6359 -2.0495  0.2536
  623SOL    HW2 1869   0.722   1.086   2.305 -1.9613 -0.0136  2.6083
  624SOL     OW 1870   2.745   0.829   0.175 -0.1605  0.1128 -0.0715
  624SOL    HW1 1871   2.709   0.788   0.259  1.8799  0.4314 -2.5467
  624SOL    HW2 1872   2.840   0.799   0.153 -0.5494  0.1550 -0.9658
  625SOL     OW 1873   0.892   1.836   0.851  0.1171  0.0432  0.4464
  625SOL    HW1 1874   0.837   1.905   0.902  0.4456 -0.7736 -2.0687
  625SOL    HW2 1875   0.962   1.787   0.905  0.6290  1.2651 -0.0004
  626SOL     OW 1876   2.024   0.807   2.546  0.1989 -0.0475  0.1131
  626SOL    HW1 1877   2.037   0.799   2.650 -0.0148  1.0278  2.7375
  626SOL    HW2 1878   1.966   0.895   2.528  0.4440  1.7370  0.9470
  627SOL     OW 1879   1.282   2.821   2.664 -0.2256  0.2614  0.2914
  627SOL    HW1 1880   1.353   2.900   2.667  2.3702  1.7874 -1.5498
  627SOL    HW2 1881   1.241   2.822   2.572  1.6930  0.3496 -0.5892
  628SOL     OW 1882   2.297   2.990   2.150  0.5417 -0.2840 -0.0226
  628SOL    HW1 1883   2.395   3.011   2.157 -0.7570 -0.7757  1.6654
  628SOL    HW2 1884   2.252   3.042   2.075  3.4485 -0.9370 -3.4187
  629SOL     OW 1885   0.675   0.158   2.904  0.2438 -0.5159  0.0180
  629SOL    HW1 1886   0.578   0.165   2.876 -1.6553  0.9436 -0.1137
  629SOL    HW2 1887   0.728   0.233   2.860  2.1498 -0.9455  1.7400
  630SOL     OW 1888   0.983   0.289   2.614  0.2822  0.2551  0.4233
  630SOL    HW1 1889   0.968   0.222   2.541 -2.1537  2.9838  2.4919
  630SOL    HW2 1890   1.019   0.249   2.700 -0.4537  0.5868 -2.9687
  631SOL     OW 1891   2.068   1.276   0.624 -0.5226 -0.2854 -0.3841
  631SOL    HW1 1892   2.034   1.322   0.710  0.4530  3.3798  1.2668
  631SOL    HW2 1893   2.150   1.326   0.587  0.1326  2.0221  0.9827
  632SOL     OW 1894   1.902   0.829   1.775 -0.2129  0.6416  0.2318
  632SOL    HW1 1895   1.875   0.739   1.741  0.8810  0.4779 -0.3545
  632SOL    HW2 1896   1.838   0.899   1.738  1.4923  0.5651 -0.1729
  633SOL     OW 1897   1.149   1.718   0.001  0.2311  0.4702 -0.6371
  633SOL    HW1 1898   1.050   1.714   3.068 -0.1455 -0.7103 -0.6359
  633SOL    HW2 1899   1.185   1.805   3.049 -0.6826  0.9236  1.5735
  634SOL     OW 1900   2.624   2.927   1.688  0.0006  0.6456  0.4259
  634SOL    HW1 1901   2.535   2.922   1.739 -1.4591 -0.2005  1.2579
  634SOL    HW2 1902   2.658   3.022   1.685  2.2301  1.4112 -2.6236
  635SOL     OW 1903   1.669   0.398   0.888  0.1273  0.3233  0.1610
  635SOL    HW1 1904   1.741   0.468   0.911 -2.3693 -0.4595 -3.5608
  635SOL    HW2 1905   1.699   0.302   0.907 -0.6717 -0.3381 -0.5594
  636SOL     OW 1906   0.878   1.201   0.196 -0.0398  0.2930 -0.3944
  636SOL    HW1 1907   0.891   1.289   0.248  0.7042  2.0451  0.5623
  636SOL    HW2 1908   0.971   1.178   0.157  1.4700  0.6723  0.8475
  637SOL     OW 1909   2.776   2.187   3.001  0.0315 -0.9965 -0.4461
  637SOL    HW1 1910   2.832   2.137   3.064 -0.8251  3.3915 -3.4242
  637SOL    HW2 1911   2.822   2.264   2.949  0.7286 -0.8908  0.9307
  638SOL     OW 1912   1.731   2.723   2.807 -0.1370 -0.2454 -0.2950
  638SOL    HW1 1913   1.734   2.801   2.742 -2.1168  2.6023  1.1807
  638SOL    HW2 1914   1.727   2.633   2.756 -0.2608 -0.2620  1.2220
  639SOL     OW 1915   1.450   1.647   1.529  0.1371  0.0007 -0.2485
  639SOL    HW1 1916   1.354   1.652   1.491 -1.8786  2.2131  1.1770
  639SOL    HW2 1917   1.522   1.667   1.456  1.8556  1.4385  1.8596
  640SOL     OW 1918   2.181   2.808   0.603  0.0691 -0.0721 -0.0970
  640SOL    HW1 1919   2.083   2.786   0.589  3.0630  0.8190  0.6641
  640SOL    HW2 1920   2.246   2.728   0.602 -0.2175 -2.1565 -0.2018
  641SOL     OW 1921   2.977   0.051   2.784 -0.2017  0.0776 -0.3181
  641SOL    HW1 1922   2.937   0.136   2.747  1.4596 -2.1920  0.4519
  641SOL    HW2 1923   2.998   0.056   2.886 -1.9539  1.3924  1.0417
  642SOL     OW 1924   2.990   0.794   1.175 -0.3159  0.8286 -0.3479
  642SOL    HW1 1925   2.961   0.836   1.089  1.8452 -0.7912 -0.7831
  642SOL    HW2 1926   2.996   0.869   1.243 -0.2603  1.0327  0.4178
  643SOL     OW 1927   0.727   1.517   1.949 -0.1664 -0.6078  0.1727
  643SOL    HW1 1928   0.656   1.557   2.007 -0.7143  0.0592 -2.3766
  643SOL    HW2 1929   0.792   1.587   1.918 -1.7600 -1.2936 -0.8621
  644SOL     OW 1930   1.826   2.164   0.867 -0.2293 -0.1541 -0.2933
  644SOL    HW1 1931   1.921   2.133   0.879 -1.7575 -1.2939 -0.2106
  644SOL    HW2 1932   1.834   2.256   0.828  1.9510  1.5911 -0.8007
  645SOL     OW 1933   2.062   1.904   1.040 -0.0505  0.3573  0.2035
  645SOL    HW1 1934   2.107   1.982   0.996 -0.2509  1.2253  2.2695
  645SOL    HW2 1935   2.093   1.811   1.004  1.4365  0.5275  1.8893
  646SOL     OW 1936   1.030   2.508   2.746  0.0583  0.1695 -0.2208
  646SOL    HW1 1937   1.110   2.546   2.793 -1.4412 -0.7191 -2.1734
  646SOL    HW2 1938   1.034   2.405   2.741 -2.2618 -1.3106  1.8070
  647SOL     OW 1939   0.733   2.656   1.870 -0.0235  0.2932 -0.1295
  647SOL    HW1 1940   0.827   2.659   1.835  1.8698 -0.7813 -0.0059
  647SOL    HW2 1941   0.683   2.575   1.837  1.1701  0.1417  2.5118
  648SOL     OW 1942   1.554   0.706   1.810 -0.2569 -0.0031  0.2694
  648SOL    HW1 1943   1.492   0.625   1.831  0.2549 -0.8216  0.9003
  648SOL    HW2 1944   1.616   0.733   1.885  0.7513  0.6668  2.6767
  649SOL     OW 1945   1.759   2.179   0.400 -0.1092  0.1347  0.3240
  649SOL    HW1 1946   1.697   2.099   0.422  0.0446  0.3430 -1.8325
  649SOL    HW2 1947   1.701   2.261   0.386  1.7988 -1.4020  0.8584
  650SOL     OW 1948   2.124   1.990   1.758 -0.3155  0.3966 -0.8790
  650SOL    HW1 1949   2.053   1.940   1.708  0.4182 -0.4967  1.1203
  650SOL    HW2 1950   2.219   1.951   1.767  3.7367 -0.6562  0.7111
  651SOL     OW 1951   1.753   2.628   0.158 -0.4025  0.2746 -0.0907
  651SOL    HW1 1952   1.793   2.696   0.226  2.7235  0.0853  0.0216
  651SOL    HW2 1953   1.821   2.605   0.084  0.2441 -0.0286 -1.2780
  652SOL     OW 1954   0.520   2.123   0.185 -0.0210 -0.3293 -0.2991
  652SOL    HW1 1955   0.461   2.040   0.171 -1.8679 -2.0089 -0.5573
  652SOL    HW2 1956   0.458   2.207   0.202 -1.2291  2.3614 -1.4489
  653SOL     OW 1957   2.529   2.423   1.298 -0.0483  0.3616  0.2057
  653SOL    HW1 1958   2.453   2.418   1.366  1.0815  0.1104 -3.4214
  653SOL    HW2 1959   2.501   2.484   1.226  3.4732  0.9400  1.1268
  654SOL     OW 1960   2.899   2.634   1.466 -0.1301  0.6203  0.1336
  654SOL    HW1 1961   2.811   2.685   1.477 -0.0568  1.5572  1.7673
  654SOL    HW2 1962   2.884   2.537   1.438 -1.4870 -2.5676  1.2697
  655SOL     OW 1963   2.827   1.953   1.138  0.0672  0.2789  0.2410
  655SOL    HW1 1964   2.926   1.946   1.115  0.0321  3.7233 -3.3178
  655SOL    HW2 1965   2.825   2.023   1.207  2.3528 -2.2488 -0.7165
  656SOL     OW 1966   0.127   2.810   2.365 -0.6524 -0.0134 -0.1709
  656SOL    HW1 1967   0.048   2.867   2.338 -0.7664  1.2032  2.8574
  656SOL    HW2 1968   0.172   2.773   2.283 -2.4343  0.7735  0.9964
  657SOL     OW 1969   2.653   1.385   2.976 -0.4385  0.0144  0.3328
  657SOL    HW1 1970   2.729   1.371   3.047  1.0521 -0.6502  2.5058
  657SOL    HW2 1971   2.591   1.303   2.963 -1.2237 -0.5155 -0.6338
  658SOL     OW 1972   1.883   1.622   0.790 -0.1852 -0.3570  0.2747
  658SOL    HW1 1973   1.928   1.683   0.723 -2.0288  0.4196  0.1387
  658SOL    HW2 1974   1.821   1.677   0.846  0.8313 -1.2003  1.4213
  659SOL     OW 1975   1.383   0.602   1.308 -0.3292  0.4637 -0.0854
  659SOL    HW1 1976   1.396   0.698   1.279 -0.7818 -1.0628  1.0102
  659SOL    HW2 1977   1.461   0.567   1.365  1.2524 -2.8268  1.1656
  660SOL     OW 1978   1.432   1.565   2.947  0.2364  0.1523  0.4078
  660SOL    HW1 1979   1.354   1.545   3.007  1.1548  0.6963  0.5587
  660SOL    HW2 1980   1.461   1.492   2.883 -1.4577  2.4113 -0.4216
  661SOL     OW 1981   0.241   2.194   0.640 -0.1743 -0.1123 -0.0469
  661SOL    HW1 1982   0.253   2.125   0.711 -1.6648  1.4741  0.8812
  661SOL    HW2 1983   0.329   2.227   0.602  1.4947 -2.7417  0.4307
  662SOL     OW 1984   0.259   0.662   2.129 -0.2538 -0.3628 -0.1336
  662SOL    HW1 1985   0.246   0.690   2.228 -1.3893 -1.9017  2.5484
  662SOL    HW2 1986   0.213   0.574   2.116  0.2473  1.0433  0.7181
  663SOL     OW 1987   1.843   1.280   1.085 -0.1409 -0.1128  0.2270
  663SOL    HW1 1988   1.754   1.249   1.050  1.6107  1.7388 -0.2146
  663SOL    HW2 1989   1.900   1.204   1.128  0.6167 -1.3362 -1.3371
  664SOL     OW 1990   0.904   0.859   1.110 -0.1894  0.2250  0.3279
  664SOL    HW1 1991   0.881   0.830   1.204 -0.1967  0.7154 -0.4326
  664SOL    HW2 1992   0.819   0.875   1.055 -1.0484 -2.0155  2.8707
  665SOL     OW 1993   1.052   2.886   2.804  0.0376 -0.7323 -0.3103
  665SOL    HW1 1994   1.073   2.940   2.891  0.7470 -1.6437  1.4284
  665SOL    HW2 1995   1.135   2.860   2.747 -0.1968 -0.7360 -0.2416
  666SOL     OW 1996   2.919   0.082   2.478 -0.7093 -0.2696  0.3603
  666SOL    HW1 1997   2.898   0.003   2.540 -1.5265  1.0126  2.4035
  666SOL    HW2 1998   2.884   0.171   2.518  0.8204  2.1622 -1.7092
  667SOL     OW 1999   2.195   1.235   2.052  0.2699 -0.0456  0.6569
  667SOL    HW1 2000   2.157   1.329   2.072 -1.6530 -1.0160  0.9009
  667SOL    HW2 2001   2.144   1.189   1.978 -1.4564 -2.7264 -0.3736
  668SOL     OW 2002   0.423   1.093   2.532 -0.0951 -0.7815 -0.2927
  668SOL    HW1 2003   0.382   1.124   2.620  0.8667  1.0500 -2.6772
  668SOL    HW2 2004   0.357   1.131   2.464  0.6040  0.2104 -1.5224
  669SOL     OW 2005   2.181   2.412   2.734  0.4875 -0.0805 -0.2716
  669SOL    HW1 2006   2.150   2.315   2.725  2.4929  0.8688  1.4100
  669SOL    HW2 2007   2.277   2.426   2.705  1.8414 -2.1802  0.0708
  670SOL     OW 2008   2.202   1.137   2.393  0.3816  0.3471  0.1687
  670SOL    HW1 2009   2.224   1.227   2.353  1.9263 -0.3703  0.3587
  670SOL    HW2 2010   2.134   1.092   2.340 -0.1285  2.3416  0.2710
  671SOL     OW 2011   2.604   1.654   0.080  0.6357  0.1326  0.4214
  671SOL    HW1 2012   2.599   1.593   0.000  1.7690  0.7783 -0.3351
  671SOL    HW2 2013   2.509   1.687   0.100 -0.5826 -1.3355  0.5442
  672SOL     OW 2014   2.599   1.052   1.944  0.0632  0.3807  0.2152
  672SOL    HW1 2015   2.596   1.068   1.843  2.5746 -3.6807 -1.5533
  672SOL    HW2 2016   2.510   1.067   1.991 -3.4889  1.6295  2.0921
  673SOL     OW 2017   2.664   0.866   1.358  0.1289 -0.3247  0.1908
  673SOL    HW1 2018   2.741   0.888   1.421  3.2436 -0.2905 -1.9651
  673SOL    HW2 2019   2.593   0.807   1.402  3.7218 -1.9656 -1.2798
  674SOL     OW 2020   1.974   1.999   2.012 -0.3076  0.2697  0.0466
  674SOL    HW1 2021   2.015   2.016   1.921 -2.4462 -1.0337  1.2305
  674SOL    HW2 2022   1.874   1.992   2.006  1.9426  0.2684 -0.8184
  675SOL     OW 2023   0.433   0.578   0.963 -0.5918  0.0736 -0.0578
  675SOL    HW1 2024   0.530   0.563   0.997 -0.1672  2.0573  0.6821
  675SOL    HW2 2025   0.384   0.641   1.023  0.6514  1.0461  0.3270
  676SOL     OW 2026   1.701   1.179   1.346  0.0391 -0.6613  0.0199
  676SOL    HW1 2027   1.794   1.205   1.314  1.5650 -0.1137 -1.4938
  676SOL    HW2 2028   1.708   1.102   1.413  0.6082  0.5319 -1.4615
  677SOL     OW 2029   2.415   1.494   2.176  0.2584  0.3025 -0.2652
  677SOL    HW1 2030   2.434   1.586   2.219 -0.0660  2.3324 -1.6812
  677SOL    HW2 2031   2.457   1.419   2.230 -1.8545  0.1664  1.6377
  678SOL     OW 2032   0.022   1.422   0.676 -0.3023  0.4527  0.7996
  678SOL    HW1 2033   0.002   1.330   0.722  0.7584  0.9388 -1.2320
  678SOL    HW2 2034   3.031   1.489   0.695 -2.3104  0.3395 -2.4761
  679SOL     OW 2035   2.815   2.593   0.589 -1.1539 -0.8339  0.7006
  679SOL    HW1 2036   2.837   2.687   0.555 -1.1927 -0.7585  0.1671
  679SOL    HW2 2037   2.805   2.599   0.692 -0.1323  0.8835  0.9805
  680SOL     OW 2038   3.050   2.431   1.258  0.1109  0.4789 -0.0178
  680SOL    HW1 2039   0.022   2.445   1.339 -1.7529 -1.4683  1.6950
  680SOL    HW2 2040   2.985   2.355   1.264 -0.6107  3.6265  1.4753
  681SOL     OW 2041   0.407   1.521   1.155  0.2801  0.0563  0.1430
  681SOL    HW1 2042   0.498   1.547   1.132 -0.1827 -1.3315 -1.0887
  681SOL    HW2 2043   0.388   1.534   1.252  0.4944 -0.7082 -0.7418
  682SOL     OW 2044   1.740   2.796   0.957  0.3286 -0.1062  0.1108
  682SOL    HW1 2045   1.703   2.797   1.054  0.0486  0.8333  4.2483
  682SOL    HW2 2046   1.782   2.710   0.927 -0.7138 -0.5696 -0.6973
  683SOL     OW 2047   2.251   1.348   0.979  0.3781  0.2791  0.9544
  683SOL    HW1 2048   2.171   1.373   0.919 -1.7172 -0.2774 -0.2971
  683SOL    HW2 2049   2.314   1.286   0.926 -0.4580  1.7391  1.8111
  684SOL     OW 2050   0.658   1.951   1.920  0.0090 -0.1007 -0.2422
  684SOL    HW1 2051   0.628   1.933   1.821  0.4090  1.2592 -2.1273
  684SOL    HW2 2052   0.586   1.946   1.992  0.8544 -3.0349 -0.3353
  685SOL     OW 2053   2.150   1.550   0.264  1.3171 -0.3010  0.1153
  685SOL    HW1 2054   2.171   1.586   0.171 -2.1342  1.8926  1.1898
  685SOL    HW2 2055   2.051   1.556   0.280  1.6662 -1.1802 -0.5764
  686SOL     OW 2056   3.040   0.512   0.596 -0.1085 -0.2346 -0.3716
  686SOL    HW1 2057   2.998   0.566   0.522 -0.0992 -0.7661 -2.9668
  686SOL    HW2 2058   0.055   0.491   0.585 -1.1253  1.2876  0.3452
  687SOL     OW 2059   1.141   2.799   0.125  0.3317 -0.0709 -0.2568
  687SOL    HW1 2060   1.119   2.749   0.209 -0.7210  1.2415 -1.5043
  687SOL    HW2 2061   1.101   2.744   0.045 -0.0193 -3.4462 -1.7146
  688SOL     OW 2062   2.026   1.771   2.140  0.4029 -0.0299  0.1452
  688SOL    HW1 2063   1.935   1.738   2.175 -0.0391  0.6724 -0.9846
  688SOL    HW2 2064   2.016   1.856   2.081 -0.1658 -0.2970 -1.9183
  689SOL     OW 2065   2.585   0.742   2.140  0.0763  0.7002 -0.1660
  689SOL    HW1 2066   2.673   0.763   2.105 -1.0065  0.0186 -1.0454
  689SOL    HW2 2067   2.592   0.726   2.240 -0.5889 -1.1122  0.1224
  690SOL     OW 2068   1.755   0.603   1.246 -0.1180  0.0376  0.0391
  690SOL    HW1 2069   1.702   0.644   1.324 -1.3974  1.2234  1.2661
  690SOL    HW2 2070   1.734   0.503   1.249 -2.4504 -0.9725  0.5075
  691SOL     OW 2071   1.099   1.795   1.546  0.5532  0.5814  0.0628
  691SOL    HW1 2072   1.134   1.746   1.462  0.6849 -1.2533  0.1884
  691SOL    HW2 2073   1.179   1.839   1.588  0.1551 -4.8952 -1.0788
  692SOL     OW 2074   1.643   0.451   2.037  0.2843  0.4674 -0.0859
  692SOL    HW1 2075   1.635   0.541   2.089  0.0774  0.4347  0.9059
  692SOL    HW2 2076   1.566   0.432   1.971  0.2623 -0.8528 -3.5506
  693SOL     OW 2077   0.430   1.001   2.949 -0.6383 -0.2752 -0.2892
  693SOL    HW1 2078   0.483   1.038   3.029  1.3963  0.9881 -2.3114
  693SOL    HW2 2079   0.493   0.937   2.898 -1.2209  0.9296 -1.8389
  694SOL     OW 2080   2.129   2.709   0.987  0.3000 -0.0826  0.1445
  694SOL    HW1 2081   2.130   2.744   1.081 -0.5648 -1.3281  0.1951
  694SOL    HW2 2082   2.213   2.736   0.933  0.6113 -0.9773 -0.0853
  695SOL     OW 2083   1.422   1.495   2.482  0.6184 -0.0659 -0.0023
  695SOL    HW1 2084   1.367   1.572   2.520  2.6407 -0.9725  1.0704
  695SOL    HW2 2085   1.402   1.413   2.537 -2.4245 -1.4824  1.7947
  696SOL     OW 2086   1.420   0.306   1.267 -0.1524  0.1114  0.5390
  696SOL    HW1 2087   1.393   0.285   1.364 -0.8670 -0.1484  3.1673
  696SOL    HW2 2088   1.399   0.402   1.242  0.9392 -0.7845 -0.9960
  697SOL     OW 2089   1.470   0.217   1.857  0.7551 -0.0653  0.0783
  697SOL    HW1 2090   1.448   0.136   1.807 -2.1464  4.5713 -1.7374
  697SOL    HW2 2091   1.487   0.192   1.958  1.0628  1.1513  0.7448
  698SOL     OW 2092   1.674   1.458   2.325  0.4413 -0.6299 -0.3298
  698SOL    HW1 2093   1.648   1.376   2.268  0.8097  0.4551 -1.5443
  698SOL    HW2 2094   1.598   1.488   2.385  2.4099 -0.9713  1.8121
  699SOL     OW 2095   1.531   1.331   1.477  0.7856  0.1968  0.1396
  699SOL    HW1 2096   1.578   1.261   1.418  2.3015  0.0373 -0.5303
  699SOL    HW2 2097   1.435   1.350   1.442 -1.2773  2.2939  2.2242
  700SOL     OW 2098   1.564   0.028   0.352  0.1117 -0.0513 -0.0955
  700SOL    HW1 2099   1.537   0.123   0.379  1.9798  1.1895  1.2522
  700SOL    HW2 2100   1.564   3.061   0.437  0.0344 -0.4959  1.4725
  701SOL     OW 2101   0.332   0.024   1.551  0.5644 -0.0142  0.0190
  701SOL    HW1 2102   0.321   3.052   1.638  0.3871  0.2701  0.1130
  701SOL    HW2 2103   0.257   0.005   1.484 -4.5604  1.0643 -0.9495
  702SOL     OW 2104   1.266   2.689   0.572  0.6101 -0.3489 -0.1377
  702SOL    HW1 2105   1.252   2.787   0.600 -2.9094 -0.5703  1.3526
  702SOL    HW2 2106   1.361   2.663   0.550 -1.4209  0.3296 -0.9354
  703SOL     OW 2107   2.381   2.968   1.867 -0.2100  0.0575  0.0176
  703SOL    HW1 2108   2.304   3.036   1.883 -0.2061  0.5474  0.2638
  703SOL    HW2 2109   2.435   2.954   1.954 -1.1791  0.2983  0.3043
  704SOL     OW 2110   1.188   2.027   0.995  0.4086  0.5842 -0.3820
  704SOL    HW1 2111   1.115   1.979   1.052  1.8588  0.3365  0.4141
  704SOL    HW2 2112   1.234   2.099   1.047 -2.3722  1.3231 -1.1769
  705SOL     OW 2113   2.718   1.559   1.758  0.4501  0.2598 -0.1980
  705SOL    HW1 2114   2.683   1.542   1.853 -2.0206 -1.7829  4.2495
  705SOL    HW2 2115   2.700   1.467   1.714 -2.0096 -1.9285  0.2675
  706SOL     OW 2116   1.242   2.975   0.581 -0.1596 -1.1508 -0.0180
  706SOL    HW1 2117   1.183   3.019   0.507  0.2411 -0.0414 -3.1121
  706SOL    HW2 2118   1.214   3.007   0.672 -0.2177  1.8388 -1.4618
  707SOL     OW 2119   0.947   2.363   2.058  0.1727 -0.4774 -0.3102
  707SOL    HW1 2120   0.892   2.275   2.048  0.8549  0.4789  0.5981
  707SOL    HW2 2121   0.986   2.365   2.151 -1.4198  0.5100  0.2645
  708SOL     OW 2122   0.154   2.406   1.507 -0.0921  0.0524 -0.1291
  708SOL    HW1 2123   0.148   2.314   1.548  2.0445  0.6524 -0.9287
  708SOL    HW2 2124   0.245   2.409   1.469 -1.0181 -0.1548  2.4633
  709SOL     OW 2125   2.020   0.477   1.945  0.4045  0.2327 -0.0631
  709SOL    HW1 2126   1.993   0.518   2.037 -1.9622  0.3426  2.4258
  709SOL    HW2 2127   1.942   0.494   1.876 -0.5049  0.5275  0.2599
  710SOL     OW 2128   2.623   0.543   1.570  0.1894 -0.5052 -0.0875
  710SOL    HW1 2129   2.587   0.449   1.592  2.0370  1.4895 -0.4195
  710SOL    HW2 2130   2.724   0.538   1.547  1.6410  0.5044 -2.0689
  711SOL     OW 2131   0.127   2.667   0.712  0.2650 -0.2620 -0.1213
  711SOL    HW1 2132   0.203   2.666   0.644 -0.5216  0.9274 -1.1509
  711SOL    HW2 2133   0.078   2.580   0.714  0.5574  0.7181 -2.0246
  712SOL     OW 2134   0.349   2.426   2.370  0.1121  0.4014 -0.7202
  712SOL    HW1 2135   0.333   2.377   2.287 -1.8914  0.9792  0.4084
  712SOL    HW2 2136   0.264   2.422   2.420 -0.9727 -1.2717  1.1697
  713SOL     OW 2137   1.617   0.818   0.099  0.2102 -0.1759 -0.5633
  713SOL    HW1 2138   1.652   0.754   0.172  0.8660  0.7344  0.1327
  713SOL    HW2 2139   1.682   0.825   0.020 -0.8581 -0.8006  1.3333
  714SOL     OW 2140   1.606   1.968   0.462  0.3684  0.0593  0.7622
  714SOL    HW1 2141   1.534   1.975   0.533  1.1497  0.8799 -0.8383
  714SOL    HW2 2142   1.567   1.971   0.368 -2.5371 -1.1628  0.7561
  715SOL     OW 2143   2.800   0.069   0.420  0.3518 -0.6380 -0.3763
  715SOL    HW1 2144   2.711   0.059   0.464 -0.4043 -1.6671 -0.8059
  715SOL    HW2 2145   2.866   0.132   0.465 -0.7750  0.3158 -0.0733
  716SOL     OW 2146   0.650   0.096   2.396 -0.0401  0.4735 -0.3277
  716SOL    HW1 2147   0.664   0.156   2.478  0.5560  0.7713 -0.4228
  716SOL    HW2 2148   0.732   0.035   2.395  1.1767 -1.7120  1.4463
  717SOL     OW 2149   0.027   0.479   2.863 -0.0510 -0.4639 -0.6993
  717SOL    HW1 2150   0.082   0.398   2.843  0.7113  0.2702 -0.1983
  717SOL    HW2 2151   3.018   0.451   2.889  0.0956  1.9410  1.0721
  718SOL     OW 2152   1.022   0.409   0.586 -0.9094  0.3474 -0.3402
  718SOL    HW1 2153   1.067   0.415   0.678 -3.4842  1.4236  0.4975
  718SOL    HW2 2154   1.091   0.370   0.518  2.1686 -0.0805 -1.7335
  719SOL     OW 2155   2.751   2.383   2.782 -0.3685  0.1835 -0.3774
  719SOL    HW1 2156   2.723   2.396   2.687 -0.5256  1.3207  3.0218
  719SOL    HW2 2157   2.689   2.322   2.833  0.9166 -0.0930 -1.4510
  720SOL     OW 2158   1.604   0.621   1.470 -0.0707  0.3910 -0.6145
  720SOL    HW1 2159   1.607   0.546   1.539 -2.5145 -0.2547  1.2383
  720SOL    HW2 2160   1.600   0.712   1.519  2.2407  1.1948 -2.1567
  721SOL     OW 2161   2.943   0.766   0.766  0.0065  0.3935  0.0376
  721SOL    HW1 2162   2.928   0.667   0.761  0.7367 -0.1717 -1.4699
  721SOL    HW2 2163   3.034   0.773   0.811  1.0097  0.6536  0.1234
  722SOL     OW 2164   1.474   2.218   2.463  0.1337 -0.2221 -0.1217
  722SOL    HW1 2165   1.449   2.283   2.390  0.4516  1.1181  3.3257
  722SOL    HW2 2166   1.400   2.160   2.502 -1.7010 -0.8363  1.1050
  723SOL     OW 2167   0.543   0.531   0.578 -0.6422 -0.4115  0.2964
  723SOL    HW1 2168   0.624   0.509   0.519  0.0777  3.2013  1.8690
  723SOL    HW2 2169   0.568   0.604   0.641  1.3717  0.2346 -1.3857
  724SOL     OW 2170   1.082   2.054   2.076  0.6110  0.5614 -0.3581
  724SOL    HW1 2171   1.086   2.003   1.989  1.0382  0.7106 -0.0483
  724SOL    HW2 2172   0.985   2.068   2.103  0.8854  0.3809  0.5982
  725SOL     OW 2173   0.217   0.903   1.269 -0.0278  0.7099  0.0793
  725SOL    HW1 2174   0.215   0.993   1.221  0.6402 -1.8581 -1.4867
  725SOL    HW2 2175   0.310   0.878   1.305 -1.0509 -0.1185 -3.3218
  726SOL     OW 2176   1.806   0.593   0.603  0.0085  0.6167 -0.1781
  726SOL    HW1 2177   1.781   0.684   0.643  0.6367  1.6319  0.4012
  726SOL    HW2 2178   1.744   0.574   0.521 -1.0833  1.9792  0.3745
  727SOL     OW 2179   1.799   0.828   2.287  0.4179 -0.2371 -0.3380
  727SOL    HW1 2180   1.862   0.909   2.276  2.9547 -0.8006 -2.0904
  727SOL    HW2 2181   1.726   0.848   2.355  0.3170  0.4314 -1.5356
  728SOL     OW 2182   1.547   2.769   1.609  0.8276  0.2219  0.2644
  728SOL    HW1 2183   1.595   2.816   1.685 -1.3014 -0.7679 -1.2665
  728SOL    HW2 2184   1.566   2.671   1.598  1.1349  1.4791  1.0032
  729SOL     OW 2185   1.400   0.490   1.865  0.0904 -0.2472 -0.4835
  729SOL    HW1 2186   1.419   0.388   1.855 -0.7458  0.9588 -0.7257
  729SOL    HW2 2187   1.352   0.507   1.957 -1.8084  2.0602  0.1273
  730SOL     OW 2188   0.816   1.828   1.493  0.3147 -0.3059 -0.1570
  730SOL    HW1 2189   0.805   1.878   1.404 -0.2693  0.8608 -0.2589
  730SOL    HW2 2190   0.909   1.809   1.513 -2.3502 -0.5239  2.9405
  731SOL     OW 2191   0.565   0.195   0.227 -1.3430  0.0536  0.0478
  731SOL    HW1 2192   0.482   0.253   0.246  1.1952  2.7270 -1.7564
  731SOL    HW2 2193   0.544   0.097   0.222 -0.4945  0.5715 -0.9712
  732SOL     OW 2194   0.562   0.819   0.153  0.1909 -0.0712 -0.3827
  732SOL    HW1 2195   0.538   0.757   0.078 -0.8639 -0.1867 -0.6509
  732SOL    HW2 2196   0.541   0.773   0.239  0.6249 -0.6065  2.2838
  733SOL     OW 2197   1.347   1.790   1.910 -0.5038 -0.2188 -0.0613
  733SOL    HW1 2198   1.437   1.793   1.963 -0.2016 -0.8388  2.5574
  733SOL    HW2 2199   1.329   1.692   1.881  1.2153 -0.4615 -0.0338
  734SOL     OW 2200   2.899   2.735   2.223  0.1016 -0.3484 -0.6843
  734SOL    HW1 2201   2.961   2.675   2.174 -0.8824  1.5054 -0.4873
  734SOL    HW2 2202   2.944   2.824   2.245  2.4632  2.0683  0.0069
  735SOL     OW 2203   1.005   2.821   0.911 -0.4268 -0.4466  0.3776
  735SOL    HW1 2204   1.020   2.748   0.843 -2.2029  3.0075 -1.4782
  735SOL    HW2 2205   1.064   2.901   0.898  0.8958  0.2309  1.2510
  736SOL     OW 2206   1.288   0.935   2.764 -0.0108  0.0417 -0.2713
  736SOL    HW1 2207   1.282   0.841   2.727 -2.5933 -0.3776  0.0783
  736SOL    HW2 2208   1.345   0.940   2.848  3.5117 -1.7181 -1.2154
  737SOL     OW 2209   0.190   0.839   0.165 -0.8679  0.5841  0.0500
  737SOL    HW1 2210   0.224   0.753   0.117  0.1547  1.0974  1.3915
  737SOL    HW2 2211   0.151   0.909   0.102  2.0890  2.5251  3.0838
  738SOL     OW 2212   0.023   2.797   1.377  0.4306 -0.2028 -0.3402
  738SOL    HW1 2213   3.032   2.735   1.400  0.4484  0.4035 -0.8639
  738SOL    HW2 2214   0.025   2.822   1.277  0.0341  0.6341 -0.2586
  739SOL     OW 2215   1.524   3.044   0.605  0.3697 -0.0053 -0.1838
  739SOL    HW1 2216   1.551   0.046   0.652 -2.0489  0.4378  1.3355
  739SOL    HW2 2217   1.426   3.037   0.599  0.8374  0.3277 -1.8123
  740SOL     OW 2218   1.645   2.835   1.206 -1.0133 -0.1341 -0.1545
  740SOL    HW1 2219   1.697   2.856   1.289  0.2383 -1.7859 -2.1994
  740SOL    HW2 2220   1.550   2.818   1.228  1.1360 -1.7522 -0.9912
  741SOL     OW 2221   2.032   0.615   0.468 -0.4103 -0.3176  0.1261
  741SOL    HW1 2222   1.961   0.587   0.534 -0.8890  0.2782 -2.5712
  741SOL    HW2 2223   2.019   0.711   0.435 -1.2071 -0.3345 -1.3640
  742SOL     OW 2224   1.184   2.296   1.680 -0.1849 -0.4708 -0.2302
  742SOL    HW1 2225   1.175   2.362   1.755  1.7600 -1.3474 -2.4930
  742SOL    HW2 2226   1.274   2.249   1.672 -2.5537  1.3274 -2.3656
  743SOL     OW 2227   2.305   0.731   2.064 -0.1980 -0.1749 -0.6768
  743SOL    HW1 2228   2.255   0.727   2.153  0.2194 -1.4517  3.4300
  743SOL    HW2 2229   2.403   0.737   2.087  0.6523  2.2776 -2.7866
  744SOL     OW 2230   1.915   0.252   0.699 -0.1238 -0.7127  0.0366
  744SOL    HW1 2231   1.978   0.293   0.630  0.2274 -1.4067  0.8686
  744SOL    HW2 2232   1.825   0.300   0.691 -1.1773  1.6365  1.4822
  745SOL     OW 2233   2.102   1.503   2.049  0.3640  0.2179 -0.2450
  745SOL    HW1 2234   2.056   1.577   2.106 -1.1370 -0.5682 -0.0724
  745SOL    HW2 2235   2.180   1.538   1.996 -0.2340  0.5478  1.8337
  746SOL     OW 2236   1.352   1.677   0.607  0.5871 -0.0949  0.4130
  746SOL    HW1 2237   1.315   1.751   0.671 -0.8754 -0.5951 -0.6247
  746SOL    HW2 2238   1.355   1.709   0.511  0.8543  1.2423 -1.9850
  747SOL     OW 2239   1.977   1.054   1.189 -0.3154 -0.7412 -0.2414
  747SOL    HW1 2240   1.954   0.972   1.244  0.2544 -2.8797  0.6132
  747SOL    HW2 2241   2.022   1.026   1.100  0.6878  2.1869 -0.8972
  748SOL     OW 2242   0.089   3.038   0.167  0.0224 -0.1940 -0.1076
  748SOL    HW1 2243   0.086   0.006   0.255 -0.5412 -0.6825  0.3528
  748SOL    HW2 2244   0.125   2.942   0.182  2.9574 -2.8244 -1.1019
  749SOL     OW 2245   0.132   0.404   2.077  0.2357  0.1601  0.4348
  749SOL    HW1 2246   0.053   0.414   2.134  1.7276 -0.5221 -1.6945
  749SOL    HW2 2247   0.100   0.375   1.986 -1.4320 -0.4645  2.6994
  750SOL     OW 2248   1.762   2.805   1.795 -0.2261 -0.3619  0.4287
  750SOL    HW1 2249   1.860   2.804   1.774 -3.3198 -0.7935 -0.2649
  750SOL    HW2 2250   1.739   2.877   1.868 -1.3321  0.7196  4.1195
  751SOL     OW 2251   2.655   0.547   0.470  0.0675 -0.5582  0.0906
  751SOL    HW1 2252   2.626   0.643   0.497 -0.0883 -1.7295 -0.9237
  751SOL    HW2 2253   2.601   0.474   0.517 -2.3729 -3.8534  0.9660
  752SOL     OW 2254   0.198   2.849   0.882 -0.2275  0.5891 -0.0135
  752SOL    HW1 2255   0.152   2.777   0.825  1.3856  0.5762 -0.4141
  752SOL    HW2 2256   0.243   2.924   0.829  0.1462 -0.1548  0.7205
  753SOL     OW 2257   1.050   0.315   1.435 -0.0097 -0.0157  0.3764
  753SOL    HW1 2258   1.059   0.234   1.373 -0.9123 -0.4194  0.7738
  753SOL    HW2 2259   1.061   0.284   1.530 -0.6153 -0.9311  1.0561
  754SOL     OW 2260   0.723   2.833   2.309  0.2068 -0.1030 -0.5161
  754SOL    HW1 2261   0.626   2.838   2.346 -0.6293  1.1602 -0.9180
  754SOL    HW2 2262   0.727   2.869   2.215  3.5577 -0.1337 -1.0962
  755SOL     OW 2263   2.287   1.240   0.262 -0.4213 -0.4599  0.2207
  755SOL    HW1 2264   2.361   1.291   0.312 -1.6358  0.2734  1.2444
  755SOL    HW2 2265   2.239   1.305   0.200  0.0395  0.1561  0.2612
  756SOL     OW 2266   2.240   1.876   2.755  0.6561  0.7699  0.1757
  756SOL    HW1 2267   2.340   1.845   2.751 -1.9492 -2.0901  1.0287
  756SOL    HW2 2268   2.211   1.887   2.656  2.2510 -1.8962 -0.8447
  757SOL     OW 2269   1.699   0.322   1.197  0.5761 -0.0783  0.0375
  757SOL    HW1 2270   1.604   0.285   1.204  0.5892 -1.0659 -2.9306
  757SOL    HW2 2271   1.729   0.336   1.102  1.9616 -1.6673 -0.7320
  758SOL     OW 2272   1.567   2.533   0.827  0.3059  0.2684  0.1513
  758SOL    HW1 2273   1.635   2.458   0.826  1.6432 -0.0497  2.3990
  758SOL    HW2 2274   1.547   2.573   0.734 -3.1152  2.7555 -0.9009
  759SOL     OW 2275   2.499   0.451   1.140 -0.3651  0.5003 -0.3125
  759SOL    HW1 2276   2.564   0.516   1.092 -0.9376 -0.8574 -0.7191
  759SOL    HW2 2277   2.406   0.492   1.160 -3.7642 -2.0892 -0.5616
  760SOL     OW 2278   2.335   0.985   1.141  0.2228  0.2217 -0.0950
  760SOL    HW1 2279   2.361   1.078   1.158 -0.3711 -0.9189  2.6099
  760SOL    HW2 2280   2.254   0.978   1.080 -2.2000 -1.5343 -0.5162
  761SOL     OW 2281   0.506   0.758   0.748 -0.4529  0.4059  0.1796
  761SOL    HW1 2282   0.553   0.819   0.814  2.9359  0.9145 -0.9330
  761SOL    HW2 2283   0.466   0.677   0.793  1.1239 -0.6815  0.0923
  762SOL     OW 2284   1.680   1.938   1.465 -0.9581 -0.5635  0.3267
  762SOL    HW1 2285   1.767   1.906   1.508 -0.3033 -2.7978 -0.8850
  762SOL    HW2 2286   1.671   2.038   1.478  0.7557 -0.1672  1.4601
  763SOL     OW 2287   1.073   1.485   1.362 -0.2777  0.3767 -0.0374
  763SOL    HW1 2288   1.042   1.398   1.316  0.6970 -1.9130 -3.1695
  763SOL    HW2 2289   1.028   1.494   1.455 -0.4558 -1.0514  3.6178
  764SOL     OW 2290   2.906   1.679   2.253 -0.1000 -0.0890  0.0179
  764SOL    HW1 2291   2.887   1.726   2.168  0.7850 -1.6785 -0.6393
  764SOL    HW2 2292   3.006   1.675   2.275 -0.7918 -0.8607  1.8775
  765SOL     OW 2293   1.385   2.392   1.390  0.3785  0.0569  0.0727
  765SOL    HW1 2294   1.344   2.300   1.405 -0.6688  0.0394  1.4807
  765SOL    HW2 2295   1.416   2.400   1.292 -0.5909  1.6801  0.5471
  766SOL     OW 2296   0.104   2.410   2.522  0.0753 -0.7289 -0.3246
  766SOL    HW1 2297   0.098   2.508   2.549 -1.8809 -1.9944 -1.2301
  766SOL    HW2 2298   0.011   2.376   2.500  1.2179  0.4332  0.0733
  767SOL     OW 2299   1.277   0.698   2.658 -0.2564  0.1497  0.3753
  767SOL    HW1 2300   1.361   0.644   2.651  1.9841  2.4705  1.1104
  767SOL    HW2 2301   1.195   0.639   2.636  1.6867  2.1837  2.1588
  768SOL     OW 2302   1.354   2.190   3.052  0.4434  0.0001  0.2433
  768SOL    HW1 2303   1.417   2.246   0.024 -0.9607  4.0875  1.4223
  768SOL    HW2 2304   1.401   2.139   2.978 -0.0414 -1.2577  1.6546
  769SOL     OW 2305   0.355   2.681   1.058 -0.0682 -0.5367 -0.1330
  769SOL    HW1 2306   0.311   2.750   0.991 -0.0253  3.1999  2.7107
  769SOL    HW2 2307   0.346   2.711   1.153  1.5404  0.8211 -0.4473
  770SOL     OW 2308   1.422   0.952   3.016  0.5055 -0.2711  0.5000
  770SOL    HW1 2309   1.446   1.052   3.012  1.1750 -0.4456  2.0045
  770SOL    HW2 2310   1.456   0.913   0.021 -0.5187  1.7554 -0.5779
  771SOL     OW 2311   0.388   0.087   2.316 -0.0226 -0.3809  0.8138
  771SOL    HW1 2312   0.325   0.034   2.379  1.1971 -1.5088  0.0362
  771SOL    HW2 2313   0.490   0.089   2.347  3.0583 -0.1981  0.8981
  772SOL     OW 2314   1.890   2.939   2.072  0.0980  0.0203  0.2586
  772SOL    HW1 2315   1.907   2.963   1.974 -1.4498 -1.7416  0.7728
  772SOL    HW2 2316   1.810   2.986   2.111  1.0827 -3.7679 -0.4563
  773SOL     OW 2317   0.699   2.193   1.715 -0.7103  0.0051  0.2333
  773SOL    HW1 2318   0.779   2.145   1.678 -1.4465  0.5642  2.4332
  773SOL    HW2 2319   0.698   2.207   1.814 -3.8212 -0.9116 -1.7789
  774SOL     OW 2320   1.461   0.187   2.113  0.5278  0.3155  0.2532
  774SOL    HW1 2321   1.372   0.142   2.134  0.5144  2.2701 -0.1716
  774SOL    HW2 2322   1.467   0.263   2.179  1.8244  0.5196  1.1423
  775SOL     OW 2323   2.196   2.576   0.229 -0.3560  0.0205 -0.2262
  775SOL    HW1 2324   2.162   2.664   0.189 -0.8548  0.6321  0.4368
  775SOL    HW2 2325   2.269   2.540   0.170  1.1630 -1.1475 -0.4812
  776SOL     OW 2326   2.445   0.518   2.399 -0.1765 -0.0699  0.2496
  776SOL    HW1 2327   2.420   0.486   2.493  1.0460  0.5671 -0.0765
  776SOL    HW2 2328   2.487   0.612   2.407  1.4068  0.1892 -0.9261
  777SOL     OW 2329   2.521   1.266   2.312  0.3182  0.6788  0.4837
  777SOL    HW1 2330   2.582   1.279   2.387 -5.5857 -3.6799 -2.0812
  777SOL    HW2 2331   2.530   1.169   2.273  0.1694 -1.2866  1.1029
  778SOL     OW 2332   2.146   0.715   2.299  0.0639  0.4950 -0.2194
  778SOL    HW1 2333   2.090   0.638   2.261  0.4350 -1.7082  0.8365
  778SOL    HW2 2334   2.101   0.755   2.384 -0.5966  0.7219  1.2735
  779SOL     OW 2335   2.929   0.301   0.168  0.0364 -0.3918  0.0926
  779SOL    HW1 2336   2.998   0.370   0.199  0.6461 -1.4057  1.4972
  779SOL    HW2 2337   2.917   0.230   0.238  0.2755  1.4418  1.6647
  780SOL     OW 2338   2.681   0.643   2.918  0.4626  0.0510  0.1354
  780SOL    HW1 2339   2.773   0.609   2.952  3.6059  0.5994  2.7694
  780SOL    HW2 2340   2.646   0.712   2.983 -0.0624  2.8007 -0.5852
  781SOL     OW 2341   0.025   3.056   1.467 -1.0546 -0.1125  0.2339
  781SOL    HW1 2342   0.001   0.013   1.377 -1.0313 -3.0594  0.1271
  781SOL    HW2 2343   0.034   2.958   1.457 -2.2099  1.6443  1.6471
  782SOL     OW 2344   1.842   2.398   0.749  0.1312  0.4466 -0.9378
  782SOL    HW1 2345   1.827   2.438   0.657  0.6338 -0.4478 -0.6203
  782SOL    HW2 2346   1.883   2.469   0.816  4.1267  1.3031 -0.6148
  783SOL     OW 2347   0.665   1.336   1.249  0.3173  0.4194  0.1908
  783SOL    HW1 2348   0.662   1.398   1.168  1.8300  0.7391 -0.5445
  783SOL    HW2 2349   0.618   1.383   1.324 -0.2824 -2.3978 -1.0643
  784SOL     OW 2350   1.500   0.545   2.608  0.5677  0.1111  0.3962
  784SOL    HW1 2351   1.453   0.457   2.631  0.7095 -0.9340 -0.4417
  784SOL    HW2 2352   1.567   0.525   2.536 -0.5939 -1.2965  0.1176
  785SOL     OW 2353   2.488   0.239   1.333 -0.4002  0.1207  0.3374
  785SOL    HW1 2354   2.503   0.315   1.267 -1.9280 -0.9036  1.7857
  785SOL    HW2 2355   2.389   0.222   1.345  1.4770  1.6632 -1.3524
  786SOL     OW 2356   1.260   2.635   1.501  0.6720 -0.6734 -0.2821
  786SOL    HW1 2357   1.284   2.547   1.461  1.3714  0.3758  1.3253
  786SOL    HW2 2358   1.156   2.657   1.496 -1.0128 -1.2289  0.4313
  787SOL     OW 2359   1.614   0.407   1.641  0.1099 -0.0474 -0.1065
  787SOL    HW1 2360   1.602   0.340   1.564 -0.0808 -2.4106  2.2301
  787SOL    HW2 2361   1.534   0.389   1.707  1.4147 -0.0945  0.1917
  788SOL     OW 2362   2.972   1.168   0.468 -0.2507 -0.2347  0.3571
  788SOL    HW1 2363   3.068   1.206   0.456  1.5681 -0.2296  0.1615
  788SOL    HW2 2364   2.980   1.079   0.513  0.1235  2.4013  0.4872
  789SOL     OW 2365   0.592   1.852   1.656 -0.5966 -0.2784  0.2081
  789SOL    HW1 2366   0.674   1.834   1.596 -1.7182 -1.7972 -0.1962
  789SOL    HW2 2367   0.510   1.872   1.595 -0.7356  0.6502  0.1124
  790SOL     OW 2368   0.707   0.479   2.387  0.6741 -0.7134 -0.0612
  790SOL    HW1 2369   0.685   0.440   2.479  0.6267 -1.8799 -2.5539
  790SOL    HW2 2370   0.623   0.505   2.340  0.2104 -0.5232  0.6711
  791SOL     OW 2371   2.273   0.527   0.572  0.2231 -0.2187 -0.6736
  791SOL    HW1 2372   2.179   0.551   0.543  2.3679  1.5949  0.7884
  791SOL    HW2 2373   2.281   0.534   0.674  1.4242  1.3891 -2.2427
  792SOL     OW 2374   1.256   2.778   1.732  0.1074 -0.1023 -0.6853
  792SOL    HW1 2375   1.255   2.711   1.813  1.5406 -0.7732  2.4586
  792SOL    HW2 2376   1.301   2.732   1.655  3.4017  0.0035 -0.0410
  793SOL     OW 2377   0.369   3.031   0.805  0.6445  0.0422  0.5025
  793SOL    HW1 2378   0.439   3.014   0.873  1.7975  0.9550 -0.1601
  793SOL    HW2 2379   0.364   0.048   0.790 -0.3199 -2.4040 -2.3112
  794SOL     OW 2380   2.995   1.222   1.806 -0.1044  0.2742 -0.2401
  794SOL    HW1 2381   2.986   1.242   1.903  0.6545 -1.1130 -2.9441
  794SOL    HW2 2382   2.903   1.239   1.764 -1.5188 -1.6841  0.5427
  795SOL     OW 2383   0.362   2.113   2.283  0.3509  0.0967  0.4553
  795SOL    HW1 2384   0.317   2.184   2.222 -0.3615  2.5353 -2.1497
  795SOL    HW2 2385   0.419   2.151   2.358 -1.2252  0.7232  1.1939
  796SOL     OW 2386   2.609   0.357   2.235 -0.3915 -0.6419  0.2948
  796SOL    HW1 2387   2.549   0.421   2.291  0.6491 -2.8981 -0.8899
  796SOL    HW2 2388   2.583   0.363   2.135 -1.2139  0.7516  0.7141
  797SOL     OW 2389   2.446   2.444   2.693  0.0134  0.3233  0.5351
  797SOL    HW1 2390   2.474   2.360   2.748 -1.9762 -0.3727  0.1307
  797SOL    HW2 2391   2.495   2.445   2.607  1.2582  0.6024  1.7577
  798SOL     OW 2392   0.053   0.021   2.078 -0.7549 -0.1826  0.4260
  798SOL    HW1 2393   0.152   0.008   2.069 -1.8830 -0.8541 -1.3455
  798SOL    HW2 2394   0.001   3.063   1.997 -1.9805 -2.7765 -1.0730
  799SOL     OW 2395   0.279   2.312   2.131 -0.4024  0.2681 -0.2560
  799SOL    HW1 2396   0.176   2.303   2.126 -1.4436 -0.9231 -3.1954
  799SOL    HW2 2397   0.317   2.381   2.063  2.6328  1.0529 -1.4264
  800SOL     OW 2398   0.139   2.001   0.116  0.2728 -0.4136  0.1323
  800SOL    HW1 2399   0.138   2.094   0.164  0.0188  1.0508 -1.0453
  800SOL    HW2 2400   0.068   1.947   0.164  2.2588  5.4073 -2.6103
  801SOL     OW 2401   1.734   1.496   1.421  0.0428 -0.4428  0.0748
  801SOL    HW1 2402   1.669   1.429   1.463 -3.1849 -0.9480  0.3498
  801SOL    HW2 2403   1.682   1.583   1.393  0.6162  0.6792 -2.3053
  802SOL     OW 2404   0.241   0.851   0.428 -0.0526 -0.8127  0.7184
  802SOL    HW1 2405   0.146   0.863   0.467 -1.2703  2.3575  1.8974
  802SOL    HW2 2406   0.226   0.854   0.328  4.7587 -0.3602 -0.7192
  803SOL     OW 2407   1.120   1.435   1.878  0.4698 -0.1702  0.3783
  803SOL    HW1 2408   1.208   1.464   1.835 -0.7431  1.2128  0.7737
  803SOL    HW2 2409   1.093   1.339   1.860  0.1141 -1.9937 -1.7024
  804SOL     OW 2410   1.857   1.566   1.143 -0.7942 -0.6372 -0.0263
  804SOL    HW1 2411   1.817   1.554   1.234  0.2733  0.0659 -0.2359
  804SOL    HW2 2412   1.878   1.476   1.098  0.7266 -1.3561 -0.9866
  805SOL     OW 2413   2.852   1.657   2.702  0.2289  0.2109  0.0273
  805SOL    HW1 2414   2.770   1.617   2.751 -1.7203 -1.5073 -3.0491
  805SOL    HW2 2415   2.902   1.717   2.764  0.6772  0.6090  1.3028
  806SOL     OW 2416   0.369   2.380   0.164  0.6157 -0.3556  0.1518
  806SOL    HW1 2417   0.425   2.423   0.242  1.2044 -1.2373  1.0476
  806SOL    HW2 2418   0.373   2.436   0.081 -2.2639  0.5469  1.6720
  807SOL     OW 2419   2.176   1.642   0.016 -0.4228 -0.1990 -0.5269
  807SOL    HW1 2420   2.235   1.723   0.025  2.7668  0.0960 -0.7922
  807SOL    HW2 2421   2.110   1.655   3.024 -0.9250 -1.3450  1.2821
  808SOL     OW 2422   1.311   2.108   1.377  0.0486 -0.1227  0.2725
  808SOL    HW1 2423   1.212   2.090   1.394  0.8826  1.5065 -0.8173
  808SOL    HW2 2424   1.368   2.108   1.460  0.0280 -1.7416 -1.7753
  809SOL     OW 2425   2.912   0.641   0.418 -0.1735 -0.2621 -0.3346
  809SOL    HW1 2426   2.936   0.646   0.321 -3.0663  0.0044  3.5767
  809SOL    HW2 2427   2.839   0.576   0.429  2.9587  3.3694  0.5289
  810SOL     OW 2428   0.890   1.487   0.315 -0.1085 -0.4394 -0.5870
  810SOL    HW1 2429   0.980   1.510   0.358 -1.9118 -1.1039 -1.4441
  810SOL    HW2 2430   0.871   1.534   0.226 -0.7598  0.7602  0.8541
  811SOL     OW 2431   1.803   2.454   1.144  0.4680 -0.0373  0.7734
  811SOL    HW1 2432   1.825   2.360   1.172 -1.2102  0.3884  2.1021
  811SOL    HW2 2433   1.824   2.514   1.221  1.8596 -2.0168  1.2659
  812SOL     OW 2434   1.367   2.862   1.346 -0.1065 -0.2335 -0.0836
  812SOL    HW1 2435   1.344   2.780   1.397  0.7389  0.4415 -2.1564
  812SOL    HW2 2436   1.288   2.924   1.348 -1.5236  0.2934 -1.1317
  813SOL     OW 2437   0.845   2.891   1.680  0.2316 -0.8056  0.3858
  813SOL    HW1 2438   0.774   2.945   1.725  3.5271 -2.1277  0.7235
  813SOL    HW2 2439   0.881   2.813   1.738 -0.1328 -1.1384  0.1476
  814SOL     OW 2440   0.987   2.648   2.086  0.1607  0.3177  0.1253
  814SOL    HW1 2441   0.955   2.668   2.180 -1.2684  0.3085  0.4908
  814SOL    HW2 2442   0.942   2.566   2.052  0.5874  0.3387 -1.5172
  815SOL     OW 2443   0.481   2.921   2.888 -0.0423 -0.0005 -0.2425
  815SOL    HW1 2444   0.504   2.850   2.820 -0.0034  0.6270 -2.2375
  815SOL    HW2 2445   0.497   3.009   2.850 -0.0141 -1.1813 -1.2454
  816SOL     OW 2446   2.281   0.648   3.001  0.3994 -0.4739 -0.1057
  816SOL    HW1 2447   2.310   0.706   3.081  0.5771  2.3647  2.5286
  816SOL    HW2 2448   2.216   0.580   3.031  0.3932 -0.3846 -3.6548
  817SOL     OW 2449   2.464   2.502   2.278  0.2061  0.3992  0.7620
  817SOL    HW1 2450   2.556   2.537   2.294 -2.3074 -1.1569 -0.3843
  817SOL    HW2 2451   2.413   2.591   2.266  0.2729  1.5033  2.0457
  818SOL     OW 2452   1.121   0.922   0.459 -0.5717 -0.3294  0.0364
  818SOL    HW1 2453   1.158   0.852   0.395 -1.5798 -1.4655 -0.9705
  818SOL    HW2 2454   1.045   0.979   0.422 -1.8597 -0.6625  3.3141
  819SOL     OW 2455   1.825   1.399   2.733  0.4945  0.0238 -0.2477
  819SOL    HW1 2456   1.859   1.337   2.660 -0.6152 -1.3883 -1.0132
  819SOL    HW2 2457   1.878   1.384   2.819 -3.3927  2.2305 -0.8383
  820SOL     OW 2458   3.067   1.486   2.521  0.0303  0.6992  0.3596
  820SOL    HW1 2459   2.964   1.488   2.525 -0.9636 -0.6450  0.7868
  820SOL    HW2 2460   0.022   1.555   2.461  2.0671  0.4170 -1.0892
  821SOL     OW 2461   0.358   3.032   0.541 -0.3238 -0.0158 -0.0465
  821SOL    HW1 2462   0.362   3.025   0.644 -2.1620 -0.2655 -1.2751
  821SOL    HW2 2463   0.453   3.047   0.511  0.4516 -3.2652  2.2337
  822SOL     OW 2464   2.532   2.604   2.952  0.3178  0.1834 -0.4680
  822SOL    HW1 2465   2.565   2.538   2.880  0.6654 -2.8052 -0.7335
  822SOL    HW2 2466   2.607   2.664   2.989  2.2223  0.2377  1.6871
  823SOL     OW 2467   1.661   0.182   2.542 -0.4528 -0.3609  0.3047
  823SOL    HW1 2468   1.728   0.161   2.610 -2.0234  0.2954  0.9788
  823SOL    HW2 2469   1.626   0.096   2.497 -0.3953 -1.8717  0.6888
  824SOL     OW 2470   2.800   2.404   2.164  0.0900  0.3878 -0.4632
  824SOL    HW1 2471   2.860   2.461   2.219 -1.8957  0.0287 -0.3956
  824SOL    HW2 2472   2.800   2.441   2.075  2.1397 -0.3639  3.4767
  825SOL     OW 2473   2.992   2.046   2.423 -0.1572 -0.3476  0.5953
  825SOL    HW1 2474   0.004   2.021   2.404  0.7248  1.2128 -0.4214
  825SOL    HW2 2475   2.942   2.058   2.335 -2.1617  1.4888  2.1647
  826SOL     OW 2476   1.852   0.836   2.956 -0.6854  0.2641  0.0915
  826SOL    HW1 2477   1.810   0.932   2.952 -0.0828  2.6921 -2.1394
  826SOL    HW2 2478   1.935   0.837   2.901 -1.5461  0.7655  1.8555
  827SOL     OW 2479   2.852   1.727   1.594 -0.1758  0.5412 -0.0471
  827SOL    HW1 2480   2.936   1.701   1.543  1.4787 -0.1152 -1.7389
  827SOL    HW2 2481   2.823   1.657   1.660  0.9328  1.0415 -1.0330
  828SOL     OW 2482   2.813   0.192   1.274  0.1947 -0.0464 -0.1132
  828SOL    HW1 2483   2.888   0.133   1.233 -0.8292 -0.7334 -0.6007
  828SOL    HW2 2484   2.747   0.133   1.322  0.3901  0.2022 -1.0422
  829SOL     OW 2485   0.717   1.921   2.351 -0.1973  0.1016  0.2343
  829SOL    HW1 2486   0.761   2.008   2.380  0.4069 -0.2188 -0.1076
  829SOL    HW2 2487   0.631   1.903   2.401 -1.1281  3.0495 -0.3863
  830SOL     OW 2488   0.480   0.829   1.318 -0.5901 -0.2308  0.1399
  830SOL    HW1 2489   0.557   0.865   1.372 -0.1844  1.1308  3.7238
  830SOL    HW2 2490   0.446   0.740   1.360  2.0158  1.5182  0.2343
  831SOL     OW 2491   2.490   1.834   2.780  0.2840  0.1184 -0.3920
  831SOL    HW1 2492   2.550   1.752   2.772 -0.7245  0.3494 -1.2485
  831SOL    HW2 2493   2.502   1.884   2.868 -0.6027  0.2671  1.5344
  832SOL     OW 2494   1.923   2.660   3.023 -0.2423 -0.4853  0.2453
  832SOL    HW1 2495   2.005   2.613   2.986  0.1584  0.7196 -2.3632
  832SOL    HW2 2496   1.861   2.679   2.944  1.1160  0.3114 -0.4108
  833SOL     OW 2497   0.785   0.167   1.886  0.7949  0.7286  0.6663
  833SOL    HW1 2498   0.876   0.170   1.922 -2.6076  2.9464 -0.8661
  833SOL    HW2 2499   0.727   0.182   1.968 -0.5639 -0.1086  1.7404
  834SOL     OW 2500   2.875   0.430   1.428  0.0704  0.8037 -0.0616
  834SOL    HW1 2501   2.870   0.342   1.376  2.2370  0.0825  2.3616
  834SOL    HW2 2502   2.840   0.506   1.375 -0.1723 -2.7485  2.0550
  835SOL     OW 2503   2.553   0.558   0.219 -0.1523  0.0591 -0.0445
  835SOL    HW1 2504   2.466   0.612   0.219  0.8954 -0.7748  1.0461
  835SOL    HW2 2505   2.600   0.554   0.311 -0.3650  0.4304 -2.2633
  836SOL     OW 2506   1.516   1.977   0.198 -0.2974 -0.1245  0.3583
  836SOL    HW1 2507   1.428   2.008   0.232  0.0951  0.7379 -0.9128
  836SOL    HW2 2508   1.561   2.042   0.134 -1.1801  1.0044  0.5739
  837SOL     OW 2509   2.007   1.787   0.623 -0.3828 -0.2750 -0.0185
  837SOL    HW1 2510   2.096   1.773   0.574  0.0583 -1.7543  1.2395
  837SOL    HW2 2511   1.971   1.884   0.618 -1.5998 -0.3122 -0.9249
  838SOL     OW 2512   1.330   0.902   2.438 -0.3918 -0.3167  0.0868
  838SOL    HW1 2513   1.320   0.824   2.502 -0.2868 -1.6478 -2.0534
  838SOL    HW2 2514   1.256   0.976   2.450  0.4271  1.0172 -0.2938
  839SOL     OW 2515   0.474   1.355   2.240 -0.3760  0.3886 -0.2348
  839SOL    HW1 2516   0.541   1.302   2.292  1.0736  0.8228  2.1983
  839SOL    HW2 2517   0.489   1.350   2.142 -0.9780 -0.5778  2.5122
  840SOL     OW 2518   1.093   1.605   0.441  0.0705  0.0125 -0.2259
  840SOL    HW1 2519   1.152   1.644   0.370  0.9696  2.3711 -1.3446
  840SOL    HW2 2520   1.067   1.666   0.514  1.7771  1.7874  0.3975
  841SOL     OW 2521   1.544   2.164   0.838  0.0668  0.2935  0.2931
  841SOL    HW1 2522   1.646   2.165   0.835  0.9578  0.9964 -1.1698
  841SOL    HW2 2523   1.507   2.180   0.926  0.4824 -2.1794 -2.9381
  842SOL     OW 2524   0.382   0.417   3.014  0.5443 -0.7048  0.0898
  842SOL    HW1 2525   0.390   0.333   3.068 -2.2699  0.2907  2.8427
  842SOL    HW2 2526   0.451   0.491   3.034  0.1446  1.0796  1.7835
  843SOL     OW 2527   0.458   0.226   0.773 -0.2260 -0.4487  0.4433
  843SOL    HW1 2528   0.490   0.207   0.678 -0.9035 -0.2380  0.5044
  843SOL    HW2 2529   0.378   0.284   0.767 -2.5329  0.6647  1.3454
  844SOL     OW 2530   2.283   0.072   2.484 -0.2971  0.5036  0.0413
  844SOL    HW1 2531   2.373   0.107   2.450  0.4956  0.0488  1.1195
  844SOL    HW2 2532   2.261   3.064   2.443 -1.7683  0.0538  0.6846
  845SOL     OW 2533   3.019   2.478   1.860  0.1923  0.1641 -0.1438
  845SOL    HW1 2534   2.982   2.392   1.823  0.4810 -0.8968  0.5681
  845SOL    HW2 2535   3.061   2.529   1.784 -0.6865 -2.5602  0.4349
  846SOL     OW 2536   1.878   1.319   2.462  0.5992  0.5631 -0.7795
  846SOL    HW1 2537   1.947   1.316   2.391 -2.1403 -1.8715  3.9930
  846SOL    HW2 2538   1.803   1.384   2.437  1.7700  0.8485 -0.1980
  847SOL     OW 2539   0.599   0.768   1.967 -0.7708  0.3244  0.1606
  847SOL    HW1 2540   0.594   0.719   1.876  0.3896 -0.7482 -1.3447
  847SOL    HW2 2541   0.699   0.765   1.997  0.7237  0.0863  0.7900
  848SOL     OW 2542   2.593   3.053   2.830  0.0637 -0.2957 -0.7500
  848SOL    HW1 2543   2.673   3.004   2.791 -1.6753  1.3943 -0.9757
  848SOL    HW2 2544   2.622   0.051   2.879 -2.4485 -2.8556 -1.2250
  849SOL     OW 2545   0.389   2.704   0.250 -0.1998 -0.4553  0.2993
  849SOL    HW1 2546   0.294   2.723   0.241 -1.1251 -0.8794 -2.4075
  849SOL    HW2 2547   0.437   2.737   0.166 -0.6782  2.3184 -1.1621
  850SOL     OW 2548   1.051   2.599   0.712 -0.1463  0.0186  0.0220
  850SOL    HW1 2549   1.075   2.522   0.774 -0.8562  1.0533 -1.2284
  850SOL    HW2 2550   1.134   2.634   0.661  0.0552 -0.7768 -1.7634
  851SOL     OW 2551   2.070   0.205   2.587 -0.4578 -0.2568  0.1660
  851SOL    HW1 2552   2.147   0.155   2.538  0.2756 -0.1547  0.0959
  851SOL    HW2 2553   2.108   0.239   2.676 -0.1806 -1.9203 -0.2805
  852SOL     OW 2554   1.419   0.300   2.659 -0.2097  0.3737  0.2768
  852SOL    HW1 2555   1.490   0.247   2.612 -0.4926 -0.6405  0.8502
  852SOL    HW2 2556   1.355   0.236   2.705 -0.4490  3.7577 -0.8070
  853SOL     OW 2557   3.072   2.627   0.393  0.5360  0.3479  0.5808
  853SOL    HW1 2558   0.043   2.574   0.459 -0.9543 -2.0370  1.6974
  853SOL    HW2 2559   2.992   2.677   0.427  3.7737 -2.0614 -3.8359
  854SOL     OW 2560   1.953   0.525   2.484 -0.3006 -0.2329 -0.0460
  854SOL    HW1 2561   1.959   0.623   2.507 -1.4049  0.0568  0.1582
  854SOL    HW2 2562   2.044   0.480   2.486  1.2947 -0.1199 -0.2739
  855SOL     OW 2563   0.561   2.507   0.340  0.2579 -0.4820  0.1951
  855SOL    HW1 2564   0.507   2.596   0.329 -0.7909  3.2194 -1.1749
  855SOL    HW2 2565   0.660   2.511   0.304  1.5845 -1.6717 -1.9004
  856SOL     OW 2566   0.247   3.014   2.474 -0.1021  0.1604  0.1156
  856SOL    HW1 2567   0.202   2.935   2.424 -4.1607 -1.1408 -3.8145
  856SOL    HW2 2568   0.206   3.026   2.568 -0.1972  1.7862  0.6643
  857SOL     OW 2569   1.095   2.995   1.609 -0.3787 -0.5033 -0.4337
  857SOL    HW1 2570   1.141   2.916   1.653 -0.2521 -1.5016  1.0887
  857SOL    HW2 2571   0.995   2.987   1.619 -0.3472  1.4499  0.2195
  858SOL     OW 2572   2.677   2.197   1.607 -0.2595  0.4680  0.1438
  858SOL    HW1 2573   2.755   2.135   1.617 -1.2002 -0.9951  3.2952
  858SOL    HW2 2574   2.592   2.155   1.625  1.8351  1.5837  1.6821
  859SOL     OW 2575   1.934   2.439   2.099  0.3165  0.0817 -0.4951
  859SOL    HW1 2576   1.963   2.534   2.124  2.1939  1.1342 -1.4626
  859SOL    HW2 2577   2.010   2.388   2.068 -1.4603  1.2703  1.9675
  860SOL     OW 2578   1.630   0.466   0.314 -0.0513  0.4204  0.4115
  860SOL    HW1 2579   1.665   0.560   0.306  0.8100  0.7572 -2.2699
  860SOL    HW2 2580   1.585   0.429   0.232 -0.7916  1.9824  1.8703
  861SOL     OW 2581   2.805   0.508   0.774 -0.0191  0.0406 -0.0814
  861SOL    HW1 2582   2.891   0.502   0.722  2.4909  0.6347  2.2664
  861SOL    HW2 2583   2.767   0.416   0.800  0.8091  1.1737  2.6252
  862SOL     OW 2584   1.161   2.812   2.407  0.0643 -0.4947  0.0507
  862SOL    HW1 2585   1.062   2.796   2.429  0.5436  0.3288 -0.7704
  862SOL    HW2 2586   1.175   2.830   2.304  1.3451 -0.9659 -0.4618
  863SOL     OW 2587   0.668   0.591   1.124 -0.1992 -0.0186  0.9284
  863SOL    HW1 2588   0.727   0.641   1.188 -1.8714  0.4142  0.3413
  863SOL    HW2 2589   0.708   0.609   1.030  0.2120  0.6368  0.1118
  864SOL     OW 2590   2.983   2.978   1.913 -0.3204  0.0002 -0.4726
  864SOL    HW1 2591   2.985   3.035   1.824  0.2397  0.5491 -4.8608
  864SOL    HW2 2592   2.898   2.920   1.917  2.4243  0.3286 -0.4842
  865SOL     OW 2593   0.716   1.218   2.911  0.3843  0.5056  0.9635
  865SOL    HW1 2594   0.700   1.143   2.977 -1.1886  0.6077 -1.1155
  865SOL    HW2 2595   0.676   1.307   2.941 -0.2901 -0.2059 -0.4578
  866SOL     OW 2596   3.061   0.083   3.039 -0.2188 -0.2043  0.2010
  866SOL    HW1 2597   3.033   0.160   0.014 -1.3480 -0.3511 -0.0155
  866SOL    HW2 2598   0.010   0.006   0.011 -1.2417 -0.0325  1.4045
  867SOL     OW 2599   2.825   2.949   2.662 -0.3235  0.0474 -0.3177
  867SOL    HW1 2600   2.890   3.014   2.709 -1.7755 -0.3377  2.3256
  867SOL    HW2 2601   2.869   2.860   2.677 -2.2972  2.9528  2.5351
  868SOL     OW 2602   1.099   1.021   0.132  0.0545 -0.1096  0.3023
  868SOL    HW1 2603   1.020   0.953   0.118 -0.5357 -3.0118  4.1348
  868SOL    HW2 2604   1.176   0.987   0.073 -1.5474 -1.4211 -2.1826
  869SOL     OW 2605   0.102   1.333   0.440  0.1383  0.2619 -0.4665
  869SOL    HW1 2606   0.077   1.379   0.528  1.6376 -1.1588 -2.4550
  869SOL    HW2 2607   0.182   1.269   0.458  0.1772 -1.0471  2.9912
  870SOL     OW 2608   2.433   1.629   0.579 -0.0134  0.1820 -0.5752
  870SOL    HW1 2609   2.510   1.650   0.518  1.0779  0.7311  0.8496
  870SOL    HW2 2610   2.474   1.610   0.669  0.3428  0.3285  0.7697
  871SOL     OW 2611   1.125   1.425   0.864 -0.4169  0.6532  0.0145
  871SOL    HW1 2612   1.132   1.361   0.784  2.0806  1.4873 -0.2606
  871SOL    HW2 2613   1.071   1.382   0.937  0.2287  0.4833  0.4252
  872SOL     OW 2614   1.090   1.891   1.870 -0.0222 -0.3814 -0.1919
  872SOL    HW1 2615   1.057   1.932   1.782  0.0340 -0.5098  0.5106
  872SOL    HW2 2616   1.176   1.838   1.867 -1.9136 -2.6416  1.3871
  873SOL     OW 2617   0.896   1.770   2.217 -0.4363 -0.1602 -0.3420
  873SOL    HW1 2618   0.820   1.821   2.262  1.6728  0.5190  0.6496
  873SOL    HW2 2619   0.880   1.766   2.116  0.7963 -1.5630  1.3711
  874SOL     OW 2620   1.023   2.150   0.832 -0.4293 -0.3881  0.0725
  874SOL    HW1 2621   1.089   2.100   0.892  2.6740  1.5094 -1.6339
  874SOL    HW2 2622   0.928   2.136   0.861  0.1847  0.0044 -0.2122
  875SOL     OW 2623   2.513   0.199   0.976 -0.2950  0.3625  0.2453
  875SOL    HW1 2624   2.515   0.269   1.051  2.4156 -1.1976 -0.4858
  875SOL    HW2 2625   2.499   0.103   1.009  0.2709 -0.0917  1.3208
  876SOL     OW 2626   0.768   0.638   0.188  0.1732  0.0383  0.3053
  876SOL    HW1 2627   0.753   0.688   0.279 -0.0415  0.8038  4.4447
  876SOL    HW2 2628   0.844   0.565   0.192  0.0558 -2.1367  0.1572
  877SOL     OW 2629   2.749   0.621   1.288  0.3479  0.0974  0.2454
  877SOL    HW1 2630   2.733   0.594   1.188 -0.9169 -2.1382 -0.6736
  877SOL    HW2 2631   2.740   0.718   1.306 -0.1707 -0.5228  0.4137
  878SOL     OW 2632   2.095   2.141   0.873  0.3673  0.0935 -0.1169
  878SOL    HW1 2633   2.093   2.156   0.771  0.9490  3.5103  0.4221
  878SOL    HW2 2634   2.134   2.224   0.922  1.2218 -0.9268 -1.6168
  879SOL     OW 2635   2.614   1.513   1.476 -0.4436 -0.5061 -0.0418
  879SOL    HW1 2636   2.591   1.518   1.376 -1.4206 -2.2852 -0.7344
  879SOL    HW2 2637   2.589   1.598   1.525 -0.2994  2.1388  0.3047
  880SOL     OW 2638   1.509   2.437   1.161  0.0991  0.5065 -0.0220
  880SOL    HW1 2639   1.608   2.458   1.139  0.6179  1.2800  1.2334
  880SOL    HW2 2640   1.447   2.508   1.125  1.3934 -0.2641 -0.2374
  881SOL     OW 2641   0.874   2.444   3.056 -1.0012  0.1575 -0.4060
  881SOL    HW1 2642   0.816   2.369   0.005  3.0440  1.0775 -0.3070
  881SOL    HW2 2643   0.962   2.402   3.021  0.5958 -2.0959 -0.8619
  882SOL     OW 2644   1.703   1.022   1.764  0.6186 -0.6450  0.1867
  882SOL    HW1 2645   1.660   1.070   1.841  0.9196  0.8333 -1.2406
  882SOL    HW2 2646   1.638   0.958   1.722 -1.4167 -0.3426 -0.0426
  883SOL     OW 2647   1.196   0.145   2.220 -0.5572  0.1711  0.9055
  883SOL    HW1 2648   1.207   0.235   2.270 -2.6753  3.0835  1.1077
  883SOL    HW2 2649   1.173   0.075   2.289 -1.9291 -1.5657  1.2522
  884SOL     OW 2650   2.985   0.725   0.131  0.3078 -0.4142  0.1095
  884SOL    HW1 2651   3.075   0.683   0.126 -2.2796  3.1914  0.0747
  884SOL    HW2 2652   2.980   0.796   0.055  0.7028 -1.0243  1.0701
  885SOL     OW 2653   0.944   1.163   2.791  0.6990 -0.7945 -0.0281
  885SOL    HW1 2654   1.016   1.221   2.833 -1.5946 -0.7614 -0.8053
  885SOL    HW2 2655   0.855   1.193   2.836 -1.5062  2.3905  0.8377
  886SOL     OW 2656   1.557   1.370   2.802 -0.3291  0.1392  0.4756
  886SOL    HW1 2657   1.491   1.335   2.729  0.2435 -0.4470  0.0934
  886SOL    HW2 2658   1.651   1.390   2.754  1.4044  1.6146 -2.2527
  887SOL     OW 2659   1.003   0.553   1.851 -0.2708  0.2198 -0.9819
  887SOL    HW1 2660   1.080   0.560   1.786  2.2622 -1.4087  2.8527
  887SOL    HW2 2661   1.019   0.473   1.918  2.0259  1.6727 -1.0296
  888SOL     OW 2662   2.650   0.623   1.827 -0.0385 -0.3004  0.1958
  888SOL    HW1 2663   2.585   0.692   1.855  1.5668 -0.1341  0.9799
  888SOL    HW2 2664   2.644   0.598   1.728  1.9299 -1.3461  3.8532
  889SOL     OW 2665   0.081   2.908   0.585 -0.2907  0.3632  0.0399
  889SOL    HW1 2666   0.101   2.822   0.645  0.3992 -2.1039  1.9861
  889SOL    HW2 2667   0.166   2.927   0.528 -1.1153  0.7919  1.2419
  890SOL     OW 2668   2.895   2.226   0.402  0.0405 -0.3425  0.2205
  890SOL    HW1 2669   2.800   2.236   0.440 -0.0474  0.4276  0.9400
  890SOL    HW2 2670   2.960   2.200   0.475  1.3735 -0.7087 -0.4097
  891SOL     OW 2671   0.906   1.738   2.895 -0.1720  0.0782 -0.5801
  891SOL    HW1 2672   0.895   1.821   2.832 -0.8756  0.1675 -3.3041
  891SOL    HW2 2673   0.936   1.658   2.842 -0.4616  2.7897 -0.4477
  892SOL     OW 2674   2.826   0.001   0.834  0.1543 -0.7920  0.0198
  892SOL    HW1 2675   2.783   3.028   0.764 -0.1238  1.3349  0.4513
  892SOL    HW2 2676   2.793   3.068   0.928  3.7432  0.3234 -0.7627
  893SOL     OW 2677   1.143   3.005   1.348 -0.2527 -0.4274  0.2908
  893SOL    HW1 2678   1.128   2.989   1.446  3.0652 -2.6511 -0.6045
  893SOL    HW2 2679   1.091   3.083   1.309  2.1646  0.2019  0.2191
  894SOL     OW 2680   3.053   0.851   0.511  0.7001  0.2087 -0.1466
  894SOL    HW1 2681   2.986   0.785   0.465 -3.0887 -1.7073 -0.2841
  894SOL    HW2 2682   3.033   0.865   0.611  0.7617  1.9852  3.1831
  895SOL     OW 2683   2.307   2.771   1.713  0.3325 -0.3336 -0.1565
  895SOL    HW1 2684   2.226   2.714   1.739 -0.7142  1.7285 -0.7708
  895SOL    HW2 2685   2.328   2.839   1.786  1.0190  4.1042  0.5930
  896SOL     OW 2686   1.145   0.167   1.688  0.0839 -0.5322  0.1441
  896SOL    HW1 2687   1.133   0.074   1.650 -0.1861  1.7046  0.8040
  896SOL    HW2 2688   1.125   0.161   1.790  1.0240 -0.1522  2.1360
  897SOL     OW 2689   1.036   1.522   1.631  0.2978 -0.0472 -0.2463
  897SOL    HW1 2690   1.018   1.618   1.603 -3.3542  2.1784  0.1517
  897SOL    HW2 2691   1.069   1.510   1.729  1.2003 -0.5420  1.4140
  898SOL     OW 2692   1.765   2.493   1.885 -0.3089 -0.4146 -0.0668
  898SOL    HW1 2693   1.810   2.492   1.793  0.0397 -1.0516  2.1529
  898SOL    HW2 2694   1.834   2.479   1.956 -3.0312 -0.0085 -0.8107
  899SOL     OW 2695   1.077   0.477   1.025  0.2584  0.4678 -0.0337
  899SOL    HW1 2696   1.084   0.490   1.126 -2.3160 -0.0771 -0.2193
  899SOL    HW2 2697   1.066   0.569   0.986 -0.1190 -4.0890 -0.8386
  900SOL     OW 2698   2.006   2.609   2.628 -0.9072 -0.5637 -0.1157
  900SOL    HW1 2699   1.918   2.559   2.645 -1.3306 -1.4472  0.2923
  900SOL    HW2 2700   2.083   2.578   2.684 -0.1233 -0.7336  0.8157
  901SOL     OW 2701   0.838   2.161   2.356 -0.1018 -0.2471 -0.5290
  901SOL    HW1 2702   0.932   2.196   2.354 -0.8070  1.4216  0.0379
  901SOL    HW2 2703   0.781   2.224   2.411 -0.1539 -0.8550  1.5046
  902SOL     OW 2704   2.147   1.089   0.445 -0.2983  0.2540 -0.3638
  902SOL    HW1 2705   2.183   1.140   0.361  1.2258 -0.5781  0.0406
  902SOL    HW2 2706   2.116   1.153   0.520  1.5238  4.2166 -0.7313
  903SOL     OW 2707   2.031   0.865   0.371  0.3290 -0.0936  0.2072
  903SOL    HW1 2708   1.978   0.891   0.291  2.6868 -1.6719  0.7399
  903SOL    HW2 2709   2.077   0.948   0.411 -0.5556 -1.3892  0.0686
  904SOL     OW 2710   0.603   0.795   2.847  0.1629  0.0144 -0.5675
  904SOL    HW1 2711   0.704   0.807   2.857 -1.2041  0.8388  1.2363
  904SOL    HW2 2712   0.572   0.762   2.758 -0.4224  0.7881  3.0857
  905SOL     OW 2713   2.082   0.101   0.852 -0.0306 -0.0712 -0.1124
  905SOL    HW1 2714   2.038   0.017   0.890 -1.0671  0.4208 -0.4259
  905SOL    HW2 2715   2.020   0.155   0.790  0.8635  1.2909  1.6176
  906SOL     OW 2716   2.905   2.182   1.283  0.0472 -0.3087  0.0589
  906SOL    HW1 2717   2.979   2.145   1.345  1.4219  1.0416  1.0675
  906SOL    HW2 2718   2.843   2.245   1.331  0.4478 -0.7058 -0.5524
  907SOL     OW 2719   1.250   0.728   0.322  0.5629 -0.2898 -0.1016
  907SOL    HW1 2720   1.308   0.809   0.294 -0.7832 -0.9197 -3.4571
  907SOL    HW2 2721   1.271   0.649   0.261  0.7220  1.5349 -1.6865
  908SOL     OW 2722   2.128   2.849   1.271  0.2750  0.3718  0.3613
  908SOL    HW1 2723   2.227   2.858   1.244 -2.3737 -0.5359 -1.4300
  908SOL    HW2 2724   2.099   2.934   1.315 -1.1788 -1.2773 -0.4935
  909SOL     OW 2725   2.263   0.742   1.268  0.1218  0.5099 -0.0969
  909SOL    HW1 2726   2.344   0.725   1.331  1.4635 -0.1924  1.3007
  909SOL    HW2 2727   2.271   0.839   1.243  2.1307 -0.1759 -1.4243
  910SOL     OW 2728   1.288   2.682   1.982 -0.2143 -0.1502  0.3539
  910SOL    HW1 2729   1.232   2.737   2.044 -0.0938 -0.1574  0.4585
  910SOL    HW2 2730   1.380   2.679   2.019  0.5373  2.0288 -3.1182
  911SOL     OW 2731   2.877   0.369   2.247 -0.4100  0.0157  0.3074
  911SOL    HW1 2732   2.777   0.380   2.230  0.3242 -0.2604  2.8631
  911SOL    HW2 2733   2.920   0.314   2.170  0.3284 -1.3664  2.3318
  912SOL     OW 2734   3.063   1.241   1.336 -0.0865  0.0740 -0.5903
  912SOL    HW1 2735   3.001   1.315   1.379 -2.0426  3.1309  1.0934
  912SOL    HW2 2736   0.074   1.270   1.337 -1.4758 -0.2345 -0.3449
  913SOL     OW 2737   2.874   2.008   1.623 -0.0596  0.2409 -0.5001
  913SOL    HW1 2738   2.851   1.908   1.619  0.4233 -0.7620 -0.4963
  913SOL    HW2 2739   2.939   2.026   1.547 -1.1396  2.3462  3.3876
  914SOL     OW 2740   1.771   0.945   1.455 -0.4696 -0.3356  0.2870
  914SOL    HW1 2741   1.851   0.891   1.492  2.2550  0.4905 -1.1557
  914SOL    HW2 2742   1.681   0.911   1.484 -1.1872 -0.8190 -0.1541
  915SOL     OW 2743   1.262   0.508   1.624  0.3349 -0.1419 -0.3079
  915SOL    HW1 2744   1.312   0.519   1.711 -0.2366 -1.0180 -2.8554
  915SOL    HW2 2745   1.281   0.418   1.586 -0.6425  0.0476 -1.3270
  916SOL     OW 2746   2.767   2.368   1.409 -0.0054 -0.1525 -0.5002
  916SOL    HW1 2747   2.688   2.424   1.369 -1.0706  0.5801 -0.3743
  916SOL    HW2 2748   2.745   2.324   1.497 -1.9131 -2.6426 -0.9985
  917SOL     OW 2749   2.398   2.208   0.317 -0.4782  0.2448 -0.0732
  917SOL    HW1 2750   2.315   2.170   0.272 -0.3910 -0.8925 -1.2585
  917SOL    HW2 2751   2.415   2.306   0.299 -2.8998 -1.0022  0.6576
  918SOL     OW 2752   2.006   2.872   2.593  0.0864 -0.0840  0.0237
  918SOL    HW1 2753   2.034   2.915   2.504  0.5400 -2.1741  1.4149
  918SOL    HW2 2754   2.029   2.772   2.602  0.9917 -0.1502  0.6044
  919SOL     OW 2755   1.072   2.396   1.448 -0.4885 -0.1100 -0.5339
  919SOL    HW1 2756   0.974   2.419   1.468 -2.5652  1.6593 -0.1668
  919SOL    HW2 2757   1.128   2.386   1.537  3.4512  1.1631  2.8875
  920SOL     OW 2758   0.358   0.297   2.152  0.1168  0.0108 -0.0275
  920SOL    HW1 2759   0.341   0.213   2.201  1.8453 -1.8762 -1.2734
  920SOL    HW2 2760   0.268   0.340   2.123  3.2673 -1.6216 -0.7619
  921SOL     OW 2761   2.967   0.749   1.689  0.9712  0.3720  0.4836
  921SOL    HW1 2762   2.947   0.735   1.791  1.2295 -0.2497 -0.5365
  921SOL    HW2 2763   3.063   0.734   1.661 -0.6034  1.2335  1.3332
  922SOL     OW 2764   2.227   2.180   0.583 -0.1065  0.0801 -0.1717
  922SOL    HW1 2765   2.165   2.254   0.549  1.3374 -0.5246 -1.4904
  922SOL    HW2 2766   2.314   2.177   0.524  2.7026 -0.5256  0.1891
  923SOL     OW 2767   0.896   1.898   2.659  0.2663  0.0330 -0.2357
  923SOL    HW1 2768   0.826   1.833   2.631  0.8675  3.2017  0.6042
  923SOL    HW2 2769   0.865   1.992   2.644  0.2082 -0.2855 -0.4153
  924SOL     OW 2770   0.924   0.384   0.323  0.1592 -0.4072 -0.1418
  924SOL    HW1 2771   0.895   0.289   0.321  0.2573 -1.5943  1.6080
  924SOL    HW2 2772   0.947   0.415   0.416  0.2715 -0.9365  0.8015
  925SOL     OW 2773   2.493   0.352   0.553  0.1676  0.0874 -0.0063
  925SOL    HW1 2774   2.420   0.420   0.570  2.3149  1.4837 -0.4857
  925SOL    HW2 2775   2.496   0.279   0.617 -0.6778  1.0951 -1.3017
  926SOL     OW 2776   0.194   0.712   1.066 -0.5164  0.1505 -0.5341
  926SOL    HW1 2777   0.184   0.790   1.135 -1.6706  0.7188  2.5886
  926SOL    HW2 2778   0.129   0.641   1.094  0.5297  0.1258 -1.2129
  927SOL     OW 2779   3.021   1.150   2.699 -0.3384  0.3192 -0.5843
  927SOL    HW1 2780   3.051   1.172   2.607  0.5370  2.9340  0.2031
  927SOL    HW2 2781   2.923   1.172   2.713 -0.9789  2.3519  0.2504
  928SOL     OW 2782   2.748   0.749   2.644  0.5618 -0.5118 -0.2992
  928SOL    HW1 2783   2.688   0.677   2.683 -1.1700  3.9261 -1.6963
  928SOL    HW2 2784   2.838   0.764   2.695 -1.7933  1.7503 -1.5823
  929SOL     OW 2785   2.605   3.077   1.320 -0.1187 -0.3937  0.3493
  929SOL    HW1 2786   2.568   0.082   1.350  4.7198 -0.7985 -4.4838
  929SOL    HW2 2787   2.549   3.004   1.357 -0.8479  2.3968 -0.1549
  930SOL     OW 2788   1.920   1.149   1.658 -0.0118  0.5154  0.2086
  930SOL    HW1 2789   1.837   1.096   1.691  3.0286 -0.2765 -0.2273
  930SOL    HW2 2790   1.907   1.186   1.563 -0.6549  1.3436 -2.1686
  931SOL     OW 2791   1.618   1.248   0.690 -0.3989  0.5093  0.5192
  931SOL    HW1 2792   1.669   1.162   0.662  0.9011 -3.7463 -1.6520
  931SOL    HW2 2793   1.667   1.331   0.653  0.9720 -2.0273  1.5636
  932SOL     OW 2794   2.769   1.122   0.746  0.0922  0.6373 -0.1937
  932SOL    HW1 2795   2.693   1.189   0.737  1.0198  1.9313  2.8545
  932SOL    HW2 2796   2.746   1.030   0.700  0.1837  0.4003 -0.7730
  933SOL     OW 2797   2.576   1.540   1.208  0.3974 -0.1296 -0.1247
  933SOL    HW1 2798   2.496   1.602   1.188 -2.2446  0.5780  0.2944
  933SOL    HW2 2799   2.671   1.584   1.190 -0.2852  1.0120 -0.8990
  934SOL     OW 2800   1.863   0.313   2.180 -0.0314 -0.4605  0.2107
  934SOL    HW1 2801   1.954   0.361   2.197  0.8199  2.0635 -0.7746
  934SOL    HW2 2802   1.792   0.374   2.133 -1.7706 -0.3230  1.7178
  935SOL     OW 2803   0.264   1.546   0.762 -0.0444 -0.2039 -0.9207
  935SOL    HW1 2804   0.193   1.503   0.704  2.9885 -0.2065  0.5663
  935SOL    HW2 2805   0.219   1.590   0.843  3.0174 -0.8544  0.7337
  936SOL     OW 2806   0.500   0.874   0.498 -0.2230  0.1100 -0.1046
  936SOL    HW1 2807   0.408   0.888   0.466  0.6019 -0.5902  0.3543
  936SOL    HW2 2808   0.499   0.823   0.583 -1.1766 -1.5362 -0.9114
  937SOL     OW 2809   2.427   3.018   1.013  0.1490 -0.0633 -0.3526
  937SOL    HW1 2810   2.387   2.966   0.939  1.3077 -1.3107 -2.5587
  937SOL    HW2 2811   2.415   2.977   1.104  3.8019  1.6481 -0.0184
  938SOL     OW 2812   2.617   2.191   0.480 -0.7587 -0.1133 -0.2410
  938SOL    HW1 2813   2.634   2.103   0.440 -0.9173  0.4536 -0.5567
  938SOL    HW2 2814   2.534   2.232   0.445  2.3233 -1.9650  0.5887
  939SOL     OW 2815   0.931   1.997   0.121 -0.6878 -0.1615 -0.1498
  939SOL    HW1 2816   0.866   1.923   0.108 -0.1242 -0.8183  1.2774
  939SOL    HW2 2817   0.949   2.006   0.221 -0.9390 -1.1537  0.0221
  940SOL     OW 2818   2.850   0.275   2.674 -0.6175  0.1896 -0.0324
  940SOL    HW1 2819   2.910   0.346   2.631 -0.7604  2.4723  0.3106
  940SOL    HW2 2820   2.756   0.310   2.663  1.5650  0.7537  0.7384
  941SOL     OW 2821   1.251   0.108   2.728  0.1563  0.2160  0.6558
  941SOL    HW1 2822   1.310   0.056   2.798 -2.0890  0.4899 -1.2891
  941SOL    HW2 2823   1.161   0.122   2.766  0.4792  0.2878 -2.8229
  942SOL     OW 2824   1.246   1.106   1.300  0.1249  0.1216 -0.2470
  942SOL    HW1 2825   1.286   1.200   1.307 -2.3006  0.6462 -0.5981
  942SOL    HW2 2826   1.158   1.105   1.248 -0.6916 -0.5408  0.6092
  943SOL     OW 2827   1.243   1.114   1.751 -0.1376  0.7746 -0.1030
  943SOL    HW1 2828   1.282   1.056   1.675 -0.6682  1.6889  0.0503
  943SOL    HW2 2829   1.147   1.130   1.738  3.1664 -0.3643 -0.3354
  944SOL     OW 2830   1.556   1.143   1.944 -0.4684 -0.1205 -0.2408
  944SOL    HW1 2831   1.531   1.206   1.868  1.4936  1.1302 -1.0378
  944SOL    HW2 2832   1.469   1.112   1.983 -0.8514 -2.0862  0.1692
  945SOL     OW 2833   2.858   2.993   0.231  0.8325  0.0483  0.1333
  945SOL    HW1 2834   2.957   3.008   0.220  1.5333 -1.9861  1.8833
  945SOL    HW2 2835   2.819   3.060   0.295  1.2458  1.7603 -1.8433
  946SOL     OW 2836   2.920   0.625   1.929 -0.1482 -0.3057 -0.3894
  946SOL    HW1 2837   2.920   0.664   2.024  0.1187 -0.7163  0.3656
  946SOL    HW2 2838   2.822   0.627   1.894 -0.0175 -1.0185 -0.2063
  947SOL     OW 2839   0.617   2.932   0.479 -0.0080  0.0939 -0.4589
  947SOL    HW1 2840   0.614   2.851   0.545 -1.0501 -0.8909  0.8182
  947SOL    HW2 2841   0.709   2.978   0.484  2.2564  0.3023 -0.9726
  948SOL     OW 2842   2.108   1.080   1.843  0.2311 -0.1894 -0.0921
  948SOL    HW1 2843   2.069   0.993   1.883  0.2027 -2.5058 -0.0462
  948SOL    HW2 2844   2.032   1.124   1.784  0.0342  0.7906  2.0710
  949SOL     OW 2845   0.575   0.676   2.595  0.2072  0.0416 -0.0789
  949SOL    HW1 2846   0.515   0.725   2.531  0.5344 -0.9176  0.6115
  949SOL    HW2 2847   0.519   0.625   2.662 -1.6139 -0.2146  0.3330
  950SOL     OW 2848   0.545   0.323   1.046  0.0687  0.1266  0.1797
  950SOL    HW1 2849   0.600   0.269   0.984  0.3400  1.6721 -1.0552
  950SOL    HW2 2850   0.483   0.377   0.989 -0.1557  2.2058 -1.6823
  951SOL     OW 2851   0.906   1.509   2.344  1.0038  0.0257  0.3030
  951SOL    HW1 2852   0.876   1.605   2.328 -1.2778 -1.9661  0.1219
  951SOL    HW2 2853   0.956   1.466   2.264 -0.8725  0.8036  1.5142
  952SOL     OW 2854   0.826   1.609   0.067  0.7625  0.1746 -0.1431
  952SOL    HW1 2855   0.869   1.629   3.059  0.5360  1.2479 -1.9269
  952SOL    HW2 2856   0.769   1.687   0.094  0.1248 -0.1796 -0.0102
  953SOL     OW 2857   2.500   0.135   2.349 -0.2291  0.2114 -0.6105
  953SOL    HW1 2858   2.540   0.215   2.295  1.1304  0.3146  0.9103
  953SOL    HW2 2859   2.558   0.048   2.335  1.6550 -2.6219 -0.3154
  954SOL     OW 2860   1.544   1.209   0.965 -0.0982 -0.5186 -0.8722
  954SOL    HW1 2861   1.569   1.218   0.869  1.5945  0.0960  1.3005
  954SOL    HW2 2862   1.475   1.284   0.992 -1.8548 -1.6076  2.0534
  955SOL     OW 2863   0.307   1.937   2.603  0.0961  0.0798 -0.1700
  955SOL    HW1 2864   0.300   1.864   2.677 -0.3460 -0.3757 -0.1465
  955SOL    HW2 2865   0.273   2.030   2.626  1.3510 -0.8658 -2.6132
  956SOL     OW 2866   1.590   0.704   2.140  0.1779 -0.3051  0.4512
  956SOL    HW1 2867   1.515   0.776   2.132 -0.9532  3.2601  0.2374
  956SOL    HW2 2868   1.681   0.746   2.167  1.0961  1.2906  2.3548
  957SOL     OW 2869   1.918   2.126   2.949  0.1819  0.2432 -0.3763
  957SOL    HW1 2870   1.906   2.034   2.990  4.4582 -2.2896  0.8932
  957SOL    HW2 2871   1.936   2.201   3.014  1.5666  0.9913 -1.6774
  958SOL     OW 2872   0.966   2.118   1.646 -0.0460 -0.1734  0.4391
  958SOL    HW1 2873   1.036   2.190   1.650  0.3010  1.5280 -0.8617
  958SOL    HW2 2874   0.991   2.057   1.568  0.5299 -1.6155  1.8274
  959SOL     OW 2875   2.160   2.516   3.001  0.3771  0.2872  0.0074
  959SOL    HW1 2876   2.169   2.457   2.913  0.2808 -1.0378 -2.6959
  959SOL    HW2 2877   2.249   2.508   3.054 -2.0671  0.2532  0.7528
  960SOL     OW 2878   2.909   0.769   2.411  0.1001 -0.9652 -0.1607
  960SOL    HW1 2879   2.942   0.866   2.432 -0.6999  2.4429 -0.2047
  960SOL    HW2 2880   2.838   0.746   2.480 -2.5943  0.0428  1.0169
  961SOL     OW 2881   0.810   0.814   2.533 -0.2748  0.0899  0.0872
  961SOL    HW1 2882   0.729   0.763   2.568  0.8982  0.4580 -1.0864
  961SOL    HW2 2883   0.862   0.754   2.467  0.9366 -0.7812  1.1451
  962SOL     OW 2884   0.648   1.244   2.592  0.0079  0.2981  0.2191
  962SOL    HW1 2885   0.646   1.260   2.693 -0.4427  2.3015  0.1718
  962SOL    HW2 2886   0.560   1.199   2.559 -2.9075  0.1977 -1.9522
  963SOL     OW 2887   2.536   2.461   0.282  0.2283 -0.4899  0.5694
  963SOL    HW1 2888   2.622   2.423   0.245 -0.2591  1.8484  4.1094
  963SOL    HW2 2889   2.542   2.542   0.349 -3.2226 -0.5276  2.2055
  964SOL     OW 2890   1.044   2.466   1.185 -0.3284 -0.1580 -0.0176
  964SOL    HW1 2891   1.083   2.418   1.267 -0.5509  0.5331  1.0314
  964SOL    HW2 2892   1.056   2.563   1.206 -1.2804 -0.6431  1.5377
  965SOL     OW 2893   1.367   1.402   0.618  0.4095 -0.7229  0.6476
  965SOL    HW1 2894   1.452   1.376   0.666 -2.9765  1.7664 -2.8095
  965SOL    HW2 2895   1.341   1.501   0.633 -1.4119  1.4812 -1.5068
  966SOL     OW 2896   0.179   1.561   0.117 -0.2513  0.2203  0.5171
  966SOL    HW1 2897   0.254   1.497   0.082 -0.3494 -0.9639  1.2218
  966SOL    HW2 2898   0.174   1.633   0.047 -1.3723 -1.8620 -0.8583
  967SOL     OW 2899   1.768   0.258   1.907  0.2464  0.6828  0.2284
  967SOL    HW1 2900   1.801   0.184   1.969  1.1728 -0.5993 -1.2210
  967SOL    HW2 2901   1.727   0.333   1.961  2.2901 -1.9212 -0.3600
  968SOL     OW 2902   1.729   0.848   0.690 -0.1677 -0.1791 -0.1571
  968SOL    HW1 2903   1.763   0.937   0.649 -1.4777 -0.0434  1.3222
  968SOL    HW2 2904   1.643   0.831   0.641  0.2207  0.2577  1.1037
  969SOL     OW 2905   0.274   1.184   2.333  0.1478 -0.6252 -0.0894
  969SOL    HW1 2906   0.337   1.255   2.297 -0.8675 -0.4159 -0.0450
  969SOL    HW2 2907   0.235   1.126   2.256 -1.0745  2.5993  2.1591
  970SOL     OW 2908   2.175   1.343   1.262 -0.1388 -0.1557 -0.4701
  970SOL    HW1 2909   2.233   1.283   1.317  0.2824  5.6319 -2.8349
  970SOL    HW2 2910   2.210   1.350   1.169 -0.6437  1.1613  1.7199
  971SOL     OW 2911   3.043   0.025   1.211  0.2151 -0.5980 -0.6948
  971SOL    HW1 2912   0.001   0.101   1.156 -0.8630 -0.7145 -2.3632
  971SOL    HW2 2913   3.050   3.019   1.166  0.9082  0.7430  1.3213
  972SOL     OW 2914   0.360   0.537   2.740 -0.6048 -0.1223 -0.0332
  972SOL    HW1 2915   0.364   0.474   2.814 -3.0026  3.6564 -3.2571
  972SOL    HW2 2916   0.330   0.495   2.650 -2.1893 -2.0186 -1.3805
  973SOL     OW 2917   0.262   0.499   0.775  0.3345  0.3451 -0.1969
  973SOL    HW1 2918   0.202   0.417   0.795 -0.3935 -0.1101 -0.8094
  973SOL    HW2 2919   0.323   0.517   0.856 -0.1379  0.4957 -0.6734
  974SOL     OW 2920   2.270   0.515   1.868 -0.4265  0.6664  0.5982
  974SOL    HW1 2921   2.318   0.569   1.933 -0.7412 -0.4731  0.5486
  974SOL    HW2 2922   2.174   0.508   1.894  2.6224  0.3017 -0.9873
  975SOL     OW 2923   2.676   0.332   0.118  0.2038  0.0046  0.5018
  975SOL    HW1 2924   2.637   0.423   0.135 -0.5868  2.9245 -0.7403
  975SOL    HW2 2925   2.775   0.323   0.132 -3.9812 -0.7709  0.5761
  976SOL     OW 2926   0.353   1.556   1.424  0.1167  0.3043  0.4061
  976SOL    HW1 2927   0.292   1.470   1.415  0.4437 -0.2778  1.4209
  976SOL    HW2 2928   0.302   1.643   1.418 -0.3428 -1.3440 -1.0766
  977SOL     OW 2929   1.109   2.352   2.996  0.4378  0.0141 -0.1341
  977SOL    HW1 2930   1.161   2.288   3.055 -0.2809 -1.9490  3.1375
  977SOL    HW2 2931   1.108   2.314   2.900  0.3943 -0.4273  0.6906
  978SOL     OW 2932   0.323   1.181   2.751  0.2876  0.3277  0.1131
  978SOL    HW1 2933   0.237   1.232   2.788 -0.6504  2.2373  0.7992
  978SOL    HW2 2934   0.363   1.120   2.820 -0.0872 -1.9845  1.9237
  979SOL     OW 2935   2.121   1.649   0.992  0.5158  0.2558  0.4597
  979SOL    HW1 2936   2.094   1.573   0.919 -3.7547 -0.9855 -0.1764
  979SOL    HW2 2937   2.081   1.608   1.077 -1.2073 -1.9273  0.6460
  980SOL     OW 2938   0.364   1.409   1.730  0.6363 -0.1889 -0.2510
  980SOL    HW1 2939   0.271   1.403   1.698  3.6202  1.4870  0.4957
  980SOL    HW2 2940   0.428   1.358   1.673 -0.1707 -0.8203  1.2075
  981SOL     OW 2941   2.790   1.584   0.289  0.0280  0.3679  0.3097
  981SOL    HW1 2942   2.865   1.521   0.255  1.0040  1.1870  1.9518
  981SOL    HW2 2943   2.733   1.605   0.208 -0.0857 -1.9105 -0.5076
  982SOL     OW 2944   2.514   2.424   1.977 -0.1481 -0.6387  0.2681
  982SOL    HW1 2945   2.610   2.455   1.964  1.0337 -0.1018  1.0440
  982SOL    HW2 2946   2.496   2.425   2.078  1.3373 -0.9232  0.1923
  983SOL     OW 2947   1.361   0.101   1.103 -0.9202 -0.4529 -0.3874
  983SOL    HW1 2948   1.337   0.006   1.137  0.9032  0.5395 -1.4325
  983SOL    HW2 2949   1.377   0.160   1.185  1.0364  2.3312 -0.5616
  984SOL     OW 2950   1.239   2.625   2.856 -0.3570  0.7550  0.1217
  984SOL    HW1 2951   1.265   2.700   2.795 -0.7193 -3.1347  2.7633
  984SOL    HW2 2952   1.314   2.596   2.921 -0.8979 -1.4376  0.1731
  985SOL     OW 2953   1.875   2.210   1.645 -0.5265 -0.6883 -0.4660
  985SOL    HW1 2954   1.903   2.127   1.698  0.9775 -2.5492 -3.1013
  985SOL    HW2 2955   1.853   2.181   1.549 -0.2235  3.1897 -0.5261
  986SOL     OW 2956   2.365   0.068   2.733  0.1530  0.1026 -0.2347
  986SOL    HW1 2957   2.361   0.067   2.633  0.5270 -0.7219  2.3181
  986SOL    HW2 2958   2.441   0.009   2.763  1.5962  1.2368 -3.3105
  987SOL     OW 2959   2.824   1.083   2.099  0.6233 -0.1894  0.4493
  987SOL    HW1 2960   2.746   1.072   2.034  2.7399 -0.7454 -0.9557
  987SOL    HW2 2961   2.867   1.176   2.088 -0.9683  0.9972  1.0779
  988SOL     OW 2962   2.339   0.886   2.689  0.3261  0.4011  0.2680
  988SOL    HW1 2963   2.375   0.796   2.719  1.5779  0.1671  1.3812
  988SOL    HW2 2964   2.329   0.884   2.588  1.2897  0.1106  1.1535
  989SOL     OW 2965   1.868   1.307   2.017  0.5679 -0.4030  0.1371
  989SOL    HW1 2966   1.862   1.265   1.929  0.1493  3.5171 -1.1457
  989SOL    HW2 2967   1.933   1.387   2.024  2.4072  3.5865 -0.6198
  990SOL     OW 2968   0.318   1.115   0.142 -0.4325 -0.0763 -0.2424
  990SOL    HW1 2969   0.300   1.021   0.149  1.0586  1.3023  0.5011
  990SOL    HW2 2970   0.230   1.167   0.147 -1.7444 -0.3862 -1.3931
  991SOL     OW 2971   0.316   1.764   2.833  0.2568 -0.0465  0.1447
  991SOL    HW1 2972   0.236   1.705   2.814  0.3365 -2.0904 -0.1714
  991SOL    HW2 2973   0.399   1.708   2.850 -2.2669  1.0885  1.5155
  992SOL     OW 2974   2.658   1.939   1.969  0.5712 -0.2731 -0.4135
  992SOL    HW1 2975   2.670   1.922   1.872 -0.4974 -0.1359 -1.4911
  992SOL    HW2 2976   2.569   1.902   2.003 -0.6451 -1.4403 -0.8657
  993SOL     OW 2977   0.166   0.096   0.397 -0.0306 -0.6879  0.0863
  993SOL    HW1 2978   0.244   0.054   0.453  1.4274 -1.6675 -1.2728
  993SOL    HW2 2979   0.099   0.139   0.461  1.5108  0.5018  1.7248
  994SOL     OW 2980   0.211   1.791   1.416 -0.0059  0.1033  0.2442
  994SOL    HW1 2981   0.146   1.824   1.485 -3.0519  0.9477  1.5104
  994SOL    HW2 2982   0.290   1.854   1.408  1.5004  1.3029 -0.8630
  995SOL     OW 2983   2.030   1.734   2.851  0.7983  0.2666 -0.5418
  995SOL    HW1 2984   2.113   1.779   2.819 -1.0764 -2.5950  1.6691
  995SOL    HW2 2985   1.973   1.699   2.777  1.4751 -0.6258 -0.3624
  996SOL     OW 2986   1.736   1.515   0.067  0.3263  0.1465 -0.1031
  996SOL    HW1 2987   1.664   1.443   0.078 -0.3068  0.3585  0.2284
  996SOL    HW2 2988   1.684   1.601   0.046 -3.6179  2.5502 -0.1429
  997SOL     OW 2989   1.452   1.297   1.735  0.0364 -0.3868 -0.0145
  997SOL    HW1 2990   1.498   1.292   1.639  1.2514 -1.8608 -3.7785
  997SOL    HW2 2991   1.371   1.240   1.739  4.1529 -0.6238 -0.2631
  998SOL     OW 2992   2.573   2.201   1.134  0.4410  0.3635 -0.3474
  998SOL    HW1 2993   2.559   2.275   1.208  0.6915  0.3913  2.9048
  998SOL    HW2 2994   2.652   2.237   1.082  0.1231 -0.7466 -0.5692
  999SOL     OW 2995   2.120   2.439   0.468 -0.7496  0.0748  0.3459
  999SOL    HW1 2996   2.141   2.473   0.374  0.9966 -2.6307 -0.5243
  999SOL    HW2 2997   2.180   2.476   0.537  1.0346 -1.9638  0.3432
 1000SOL     OW 2998   0.822   2.814   0.119  0.0861 -0.0388  0.2149
 1000SOL    HW1 2999   0.898   2.788   0.052  1.1353 -2.3457 -0.4789
 1000SOL    HW2 3000   0.786   2.901   0.087  2.4333 -1.8855  0.6796
   3.08471   3.08471   3.08471
