1000 SPC/Fw water molecules t= 446.00000 step= 446000
 3000
    1SOL     OW    1   0.231   0.124   1.479  0.5576  0.5376 -0.4623
    1SOL    HW1    2   0.221   0.097   1.381  0.8919 -0.2677 -0.6819
    1SOL    HW2    3   0.321   0.111   1.520 -0.2844 -0.9336  1.9498
    2SOL     OW    4   2.807   0.095   0.026 -0.1989  0.2054  0.2401
    2SOL    HW1    5   2.884   0.085   0.093 -1.2490 -1.0266  0.1736
    2SOL    HW2    6   2.718   0.098   0.077 -0.1330  0.0868  0.0481
    3SOL     OW    7   1.267   2.768   0.110  0.2932 -0.1262 -0.2908
    3SOL    HW1    8   1.259   2.708   0.029 -0.0189 -1.3232 -0.5447
    3SOL    HW2    9   1.364   2.771   0.135 -1.6809 -0.1738 -2.8176
    4SOL     OW   10   1.240   2.715   2.425  0.6195  0.0437  0.6288
    4SOL    HW1   11   1.291   2.639   2.378 -0.0997 -1.9479 -0.4616
    4SOL    HW2   12   1.177   2.682   2.496 -0.9383 -1.3116  2.4510
    5SOL     OW   13   2.500   0.419   1.837  0.1183 -0.6025 -0.5840
    5SOL    HW1   14   2.535   0.367   1.760  1.1816  1.3759  1.7742
    5SOL    HW2   15   2.565   0.407   1.916 -0.9372 -0.9517  0.4161
    6SOL     OW   16   2.569   2.102   1.049 -0.6006 -0.1568  0.6640
    6SOL    HW1   17   2.604   2.020   1.098 -0.9585  3.3108 -2.3851
    6SOL    HW2   18   2.601   2.184   1.102  0.5487  0.1474  1.5906
    7SOL     OW   19   1.471   1.827   0.497 -0.1993  0.5649 -0.6798
    7SOL    HW1   20   1.441   1.911   0.454  2.8935 -0.3530  3.2801
    7SOL    HW2   21   1.403   1.807   0.576 -2.3337 -0.9249  2.2900
    8SOL     OW   22   0.431   0.842   0.815 -0.1644 -0.0922  0.0560
    8SOL    HW1   23   0.518   0.897   0.821  1.3675  0.1243 -1.4722
    8SOL    HW2   24   0.437   0.791   0.732  0.9829  0.8779  1.1149
    9SOL     OW   25   0.469   0.086   1.638 -0.0003 -0.1438  0.3232
    9SOL    HW1   26   0.565   0.102   1.665 -0.9368 -1.7972 -2.3659
    9SOL    HW2   27   0.413   0.066   1.725  0.2383  0.2092 -1.3776
   10SOL     OW   28   1.183   2.413   0.555  0.5808 -0.3715 -0.0967
   10SOL    HW1   29   1.273   2.427   0.594 -2.0052  0.2718 -1.0729
   10SOL    HW2   30   1.100   2.432   0.616 -1.2632 -2.5225 -1.1659
   11SOL     OW   31   2.196   1.050   1.203 -0.7072 -0.0180  0.3247
   11SOL    HW1   32   2.115   1.000   1.226  3.3256 -0.1131  0.7080
   11SOL    HW2   33   2.167   1.112   1.123 -0.0092  2.0030 -1.5341
   12SOL     OW   34   0.115   0.939   2.104 -0.2627 -0.3808 -0.4426
   12SOL    HW1   35   0.092   0.923   2.007 -1.6548  0.4124  1.1867
   12SOL    HW2   36   0.212   0.904   2.121  3.2959  1.7613 -0.8090
   13SOL     OW   37   2.374   2.998   0.023 -0.1588  0.3653  0.1927
   13SOL    HW1   38   2.356   2.902   0.048  1.4495  3.4397 -0.9969
   13SOL    HW2   39   2.294   3.041   3.087 -1.2628  0.1707  1.2398
   14SOL     OW   40   1.349   2.067   0.108  0.0262 -0.0810  0.0875
   14SOL    HW1   41   1.329   2.033   0.200 -1.6248  1.7342 -2.2337
   14SOL    HW2   42   1.327   2.165   0.106 -2.7563 -0.0805 -1.7402
   15SOL     OW   43   2.934   2.325   1.809  0.1872  0.1885 -0.2821
   15SOL    HW1   44   2.985   2.387   1.751  0.9206  0.0883 -3.0546
   15SOL    HW2   45   2.999   2.274   1.869  0.7629  2.5218 -1.1394
   16SOL     OW   46   2.866   0.415   0.889 -0.4211 -0.3536 -0.5115
   16SOL    HW1   47   2.869   0.352   0.810  0.8120  2.0097  0.4634
   16SOL    HW2   48   2.941   0.397   0.958 -1.1043 -0.3324  0.1972
   17SOL     OW   49   0.778   0.231   0.853  0.1226 -0.0172  0.2138
   17SOL    HW1   50   0.852   0.300   0.837  3.3318  1.2848 -0.0458
   17SOL    HW2   51   0.819   0.135   0.860 -0.0075  0.4014 -1.6448
   18SOL     OW   52   0.463   0.078   0.557 -0.1494 -0.0211  0.2248
   18SOL    HW1   53   0.561   0.068   0.532 -1.7126  0.1568  0.4992
   18SOL    HW2   54   0.421   0.155   0.504  1.0191  0.8099 -1.2388
   19SOL     OW   55   1.535   1.063   1.039  0.3232 -0.0222  0.8727
   19SOL    HW1   56   1.479   1.103   0.961 -1.6776 -1.6346 -0.9288
   19SOL    HW2   57   1.497   1.073   1.132  0.4340 -0.7841 -1.6451
   20SOL     OW   58   2.204   1.784   2.661 -0.3495 -0.5414  0.0748
   20SOL    HW1   59   2.205   1.876   2.618 -1.5152  1.3617  0.6548
   20SOL    HW2   60   2.279   1.778   2.729  2.0823 -1.4494  1.4563
   21SOL     OW   61   1.466   2.947   0.378 -0.1053 -0.8530 -0.5897
   21SOL    HW1   62   1.492   2.879   0.310 -1.0933  2.0236 -0.8441
   21SOL    HW2   63   1.534   2.951   0.454  1.9240 -0.8073  1.9153
   22SOL     OW   64   2.576   0.823   0.331  0.1359 -0.2088  1.0501
   22SOL    HW1   65   2.551   0.847   0.426  0.5113 -0.5415  0.2550
   22SOL    HW2   66   2.574   0.907   0.274 -0.6296 -0.3019  2.2063
   23SOL     OW   67   0.938   0.371   2.099 -0.6569  0.9459  0.6206
   23SOL    HW1   68   1.002   0.356   2.018  2.4410 -0.5286 -2.3089
   23SOL    HW2   69   0.981   0.401   2.184  1.0627 -0.1732  3.2075
   24SOL     OW   70   1.844   2.327   0.450  0.4450  0.1883 -0.4036
   24SOL    HW1   71   1.933   2.327   0.500  1.8582 -1.2692 -2.3743
   24SOL    HW2   72   1.782   2.258   0.491 -0.4150 -1.6456  1.2933
   25SOL     OW   73   1.891   0.161   2.421  0.4348 -0.1153  0.0789
   25SOL    HW1   74   1.871   0.061   2.445  0.8659 -2.5261  0.6122
   25SOL    HW2   75   1.846   0.202   2.337  2.5828  1.8671  0.2548
   26SOL     OW   76   1.579   2.723   2.663 -0.3705 -0.0784  0.6006
   26SOL    HW1   77   1.643   2.732   2.740 -0.3495 -0.4610 -2.2294
   26SOL    HW2   78   1.514   2.647   2.678 -2.2535 -0.2224 -0.6613
   27SOL     OW   79   1.274   0.275   1.126  0.0410 -0.1713  0.1233
   27SOL    HW1   80   1.192   0.303   1.180 -0.4129 -0.1956 -0.0596
   27SOL    HW2   81   1.282   0.172   1.129 -2.7807  0.1222 -0.4058
   28SOL     OW   82   0.563   1.669   0.879  0.0073 -0.5923  0.0018
   28SOL    HW1   83   0.622   1.644   0.958  0.2362 -2.9993 -1.0413
   28SOL    HW2   84   0.471   1.701   0.911 -4.2583 -2.1627 -0.0634
   29SOL     OW   85   2.621   0.566   1.248  0.3424  0.4777  0.7131
   29SOL    HW1   86   2.594   0.513   1.167  0.5664  1.2865  2.0356
   29SOL    HW2   87   2.678   0.506   1.311  0.4723 -3.1975  0.7822
   30SOL     OW   88   1.659   2.420   1.397 -0.0266 -0.4639  0.0853
   30SOL    HW1   89   1.754   2.401   1.361 -0.4114  0.1346 -2.7522
   30SOL    HW2   90   1.599   2.449   1.319  0.4420  0.1063  0.8177
   31SOL     OW   91   1.644   2.860   1.326 -0.0811  0.3946  0.3041
   31SOL    HW1   92   1.727   2.810   1.293 -1.6893  0.3216  0.5484
   31SOL    HW2   93   1.590   2.886   1.242  0.2115 -2.0299 -0.5722
   32SOL     OW   94   2.040   1.383   2.102 -0.0804  0.7341  0.5651
   32SOL    HW1   95   2.088   1.298   2.067  2.7044 -2.8887 -0.9277
   32SOL    HW2   96   2.092   1.466   2.083 -0.1621 -0.3931 -1.9630
   33SOL     OW   97   2.495   3.060   2.334 -0.4116 -0.6039 -0.3298
   33SOL    HW1   98   2.505   0.055   2.318 -0.4452 -0.5812  1.7718
   33SOL    HW2   99   2.408   3.022   2.294 -0.3940 -0.7037  0.2027
   34SOL     OW  100   2.058   0.329   0.732  0.1581 -0.3296 -0.1081
   34SOL    HW1  101   2.083   0.331   0.633 -2.7385 -2.8287  0.5564
   34SOL    HW2  102   1.966   0.363   0.749  1.8008  0.5667 -0.6086
   35SOL     OW  103   0.155   1.656   1.813  0.4327 -0.3144 -0.2501
   35SOL    HW1  104   0.168   1.654   1.911  0.8677 -3.4294 -1.9443
   35SOL    HW2  105   0.079   1.599   1.787  2.1620  2.2903 -0.5592
   36SOL     OW  106   2.644   2.259   2.905 -0.2061 -0.1147 -0.0946
   36SOL    HW1  107   2.666   2.326   2.831  0.8272 -2.2367  1.1439
   36SOL    HW2  108   2.560   2.285   2.956  2.8696 -1.5148  0.7177
   37SOL     OW  109   1.168   2.883   1.800 -0.7896  0.1998 -0.1322
   37SOL    HW1  110   1.177   2.925   1.890 -2.0658  1.2811  3.3798
   37SOL    HW2  111   1.210   2.791   1.800  0.7673  3.5672 -2.2516
   38SOL     OW  112   0.897   0.861   2.280  0.1986 -0.0837 -0.8114
   38SOL    HW1  113   0.936   0.765   2.276 -0.1448  0.2085 -0.6314
   38SOL    HW2  114   0.900   0.902   2.185 -1.8292 -0.1087 -1.8735
   39SOL     OW  115   1.876   0.795   1.625 -0.2120  0.3461 -0.4616
   39SOL    HW1  116   1.957   0.804   1.558 -1.0351  0.2487 -0.8448
   39SOL    HW2  117   1.868   0.873   1.693  0.3184  2.4269 -1.5262
   40SOL     OW  118   0.829   2.226   0.720  0.5326  0.1723  0.3416
   40SOL    HW1  119   0.890   2.148   0.717 -0.6062 -1.3435  1.7469
   40SOL    HW2  120   0.752   2.209   0.778  0.6901  1.4153 -0.7279
   41SOL     OW  121   2.277   2.052   1.154  0.4882  0.3867  0.2851
   41SOL    HW1  122   2.262   2.145   1.119  1.3220  0.5471 -2.2622
   41SOL    HW2  123   2.355   2.007   1.105  0.2090  1.6376  2.0039
   42SOL     OW  124   2.583   0.593   0.585 -0.2671  0.3633  0.7968
   42SOL    HW1  125   2.568   0.523   0.512  1.0954  0.6533 -1.3499
   42SOL    HW2  126   2.576   0.686   0.558 -0.4410  0.0043  1.7585
   43SOL     OW  127   0.953   1.069   2.451  0.3374  0.2769 -0.4980
   43SOL    HW1  128   0.932   0.982   2.405 -1.3376  2.7503  2.0383
   43SOL    HW2  129   0.883   1.139   2.428 -1.0151 -0.6135  0.6305
   44SOL     OW  130   1.867   2.703   1.252  0.0956 -0.2258 -0.2771
   44SOL    HW1  131   1.852   2.602   1.232  0.0102 -1.4082  0.2639
   44SOL    HW2  132   1.926   2.754   1.192  0.5348  0.2809 -2.8000
   45SOL     OW  133   0.666   2.743   2.984  0.6239  0.1467 -0.2215
   45SOL    HW1  134   0.633   2.797   3.065 -2.9684 -0.8048  3.0727
   45SOL    HW2  135   0.731   2.794   2.919  1.9952 -0.0176 -0.3603
   46SOL     OW  136   0.567   2.672   2.092  0.3301  0.0561 -0.0190
   46SOL    HW1  137   0.605   2.765   2.101  0.1779 -0.2509 -0.0587
   46SOL    HW2  138   0.569   2.629   2.184 -1.9077 -0.7454  3.4953
   47SOL     OW  139   0.571   2.027   0.510 -0.2107 -0.0170  0.5224
   47SOL    HW1  140   0.657   1.976   0.488  1.0803 -2.0342  1.5543
   47SOL    HW2  141   0.524   1.999   0.601 -0.8776 -4.0529  1.5660
   48SOL     OW  142   0.837   2.983   1.216  0.1612 -0.3886 -0.0868
   48SOL    HW1  143   0.846   2.926   1.299  2.1617  2.3087 -1.9425
   48SOL    HW2  144   0.759   2.952   1.161  1.3418  0.0162 -0.1973
   49SOL     OW  145   2.879   2.782   2.759  0.4562  0.0923  0.2962
   49SOL    HW1  146   2.805   2.810   2.695 -1.2216 -2.2802  1.6854
   49SOL    HW2  147   2.885   2.857   2.828  1.2902  0.2829  1.4465
   50SOL     OW  148   1.277   1.100   0.208 -0.1603 -0.1268 -0.1187
   50SOL    HW1  149   1.197   1.153   0.164 -0.8837  0.2855 -0.4180
   50SOL    HW2  150   1.319   1.036   0.142  0.9354  0.4342 -1.6962
   51SOL     OW  151   1.880   3.084   0.520 -0.1270  0.0712 -0.3995
   51SOL    HW1  152   1.943   0.023   0.458  0.9717  1.3229 -3.4886
   51SOL    HW2  153   1.902   0.004   0.613  1.7672 -0.4427 -5.9431
   52SOL     OW  154   0.546   1.629   0.616  0.5384 -0.2454  0.4011
   52SOL    HW1  155   0.563   1.632   0.713  2.8493  0.6039 -1.8478
   52SOL    HW2  156   0.611   1.690   0.565  0.8924  0.6409 -1.0739
   53SOL     OW  157   0.318   1.292   2.936 -0.0787 -0.1400 -0.0366
   53SOL    HW1  158   0.217   1.292   2.918  1.3365  0.7219  1.2891
   53SOL    HW2  159   0.332   1.245   3.026 -0.5843 -1.5694 -1.5192
   54SOL     OW  160   2.493   1.999   2.994 -0.1242 -0.3602 -0.4075
   54SOL    HW1  161   2.550   1.945   3.063  0.9037 -0.1807  2.6466
   54SOL    HW2  162   2.546   2.021   2.910 -0.7497  0.6803  0.1382
   55SOL     OW  163   2.715   2.320   1.091 -0.0134 -0.2718  0.0336
   55SOL    HW1  164   2.799   2.319   1.144  3.4283  0.5457 -1.2424
   55SOL    HW2  165   2.707   2.419   1.059 -0.2069  1.8739 -2.5863
   56SOL     OW  166   1.703   0.182   1.556  0.3279  0.3356  0.0356
   56SOL    HW1  167   1.648   0.260   1.516 -1.0563  1.3272 -1.2918
   56SOL    HW2  168   1.693   0.183   1.656  1.0656 -1.2388 -0.5349
   57SOL     OW  169   1.775   1.769   1.098  0.0195  0.7552  0.0872
   57SOL    HW1  170   1.804   1.867   1.104  1.7475  1.8915 -1.6003
   57SOL    HW2  171   1.671   1.765   1.081  0.3426  1.3412 -0.7544
   58SOL     OW  172   2.649   0.470   2.082  0.1839  0.4209 -0.1397
   58SOL    HW1  173   2.710   0.459   2.165 -0.0258 -1.9333  0.7571
   58SOL    HW2  174   2.583   0.543   2.115  2.7221 -0.1188  0.9303
   59SOL     OW  175   1.082   2.501   2.091 -0.6256 -0.1378 -0.6107
   59SOL    HW1  176   1.026   2.546   2.161  3.8742 -1.7197 -1.9726
   59SOL    HW2  177   1.024   2.462   2.019  2.4033 -0.0344  1.8447
   60SOL     OW  178   0.812   2.928   2.834 -0.0270 -0.6359 -0.1252
   60SOL    HW1  179   0.739   2.913   2.758 -2.9445 -1.4441 -1.7973
   60SOL    HW2  180   0.832   3.030   2.841 -0.2062 -0.5056  0.7615
   61SOL     OW  181   0.550   2.288   0.512 -0.2150 -0.1850  0.1714
   61SOL    HW1  182   0.564   2.324   0.418  1.0697  3.6822 -0.6503
   61SOL    HW2  183   0.554   2.186   0.510  1.5222 -2.7259 -0.6171
   62SOL     OW  184   1.048   1.572   1.785 -0.2060 -0.4819  0.2046
   62SOL    HW1  185   1.030   1.653   1.723  0.0801  0.0797 -0.0734
   62SOL    HW2  186   1.046   1.600   1.882  3.4125  0.5069 -4.3332
   63SOL     OW  187   1.060   1.965   0.629 -0.1124 -0.8305  0.1127
   63SOL    HW1  188   0.974   1.909   0.637  0.3347 -0.2897  1.2716
   63SOL    HW2  189   1.035   2.054   0.579 -0.9649 -0.9826 -0.6122
   64SOL     OW  190   1.245   1.710   2.697 -0.2247  0.6492  0.6737
   64SOL    HW1  191   1.210   1.728   2.786  3.7245 -3.0937 -1.7412
   64SOL    HW2  192   1.184   1.645   2.643  0.0644 -1.6638 -2.2573
   65SOL     OW  193   1.661   2.172   2.181 -0.4358 -0.0115 -0.0928
   65SOL    HW1  194   1.720   2.137   2.104 -0.3159 -0.4063  0.2824
   65SOL    HW2  195   1.683   2.114   2.264  1.4511 -3.1398 -4.0626
   66SOL     OW  196   0.057   0.789   1.017 -0.0508 -0.0468  0.1732
   66SOL    HW1  197   3.108   0.804   0.935  0.7207 -2.2513  1.6418
   66SOL    HW2  198   0.014   0.719   1.081 -0.1443 -1.5288 -0.5325
   67SOL     OW  199   2.331   2.431   0.509  0.3050 -0.0450  0.2857
   67SOL    HW1  200   2.323   2.331   0.488  0.2317 -0.5274 -0.3319
   67SOL    HW2  201   2.272   2.487   0.455  0.6021 -0.3683  2.2554
   68SOL     OW  202   2.604   2.655   1.419 -0.7756  0.2420  0.2647
   68SOL    HW1  203   2.681   2.722   1.427  0.3356 -1.1597  1.2828
   68SOL    HW2  204   2.642   2.564   1.447 -0.0706 -1.8075  1.4292
   69SOL     OW  205   2.582   2.688   2.994  0.6871 -0.0939 -0.1170
   69SOL    HW1  206   2.516   2.751   2.946  1.6101  3.3377  0.3745
   69SOL    HW2  207   2.640   2.748   3.054  0.5518  2.3147 -1.6258
   70SOL     OW  208   0.440   1.447   2.763 -0.1711  0.3391 -0.3245
   70SOL    HW1  209   0.536   1.424   2.738  1.6562 -0.1782 -1.6448
   70SOL    HW2  210   0.410   1.389   2.841  1.5962 -0.8511  0.2554
   71SOL     OW  211   0.895   1.220   1.964 -0.1810  0.4630 -0.0455
   71SOL    HW1  212   0.802   1.214   2.000 -1.2815  0.5297  1.3448
   71SOL    HW2  213   0.899   1.263   1.870 -0.6621  0.2734  0.5868
   72SOL     OW  214   2.527   1.220   1.815  0.0179  0.5573  0.1117
   72SOL    HW1  215   2.537   1.139   1.879  0.5086 -2.6783 -2.4405
   72SOL    HW2  216   2.600   1.290   1.832  2.2765 -0.9608  0.8976
   73SOL     OW  217   0.692   2.100   2.566  0.8725 -0.2701 -0.2821
   73SOL    HW1  218   0.603   2.151   2.558 -0.6373 -1.1475 -0.3026
   73SOL    HW2  219   0.723   2.066   2.475 -2.1066  0.3714 -0.3605
   74SOL     OW  220   1.458   2.857   1.737  0.8745  0.1665 -0.8367
   74SOL    HW1  221   1.404   2.856   1.823 -0.5579  0.2393 -1.1019
   74SOL    HW2  222   1.553   2.878   1.761  0.1125  2.6182  0.2658
   75SOL     OW  223   1.098   2.645   1.061 -0.4257  0.9236 -0.7688
   75SOL    HW1  224   1.058   2.559   1.027 -3.1198  0.2418 -0.1676
   75SOL    HW2  225   1.177   2.627   1.124 -1.4812 -1.4698  0.9127
   76SOL     OW  226   0.491   1.970   2.837  0.0520  0.0945  0.2324
   76SOL    HW1  227   0.572   2.027   2.854 -0.0561 -1.2716 -1.6584
   76SOL    HW2  228   0.517   1.904   2.762 -1.2959  0.3092 -0.3353
   77SOL     OW  229   0.666   2.558   1.108  0.3818 -0.1564  0.0166
   77SOL    HW1  230   0.627   2.646   1.144  0.4287 -0.7759  1.0371
   77SOL    HW2  231   0.731   2.510   1.173  0.6805 -1.6908 -0.7670
   78SOL     OW  232   2.695   1.264   0.212 -0.5709 -0.3898  0.4989
   78SOL    HW1  233   2.792   1.255   0.177 -0.2115  0.5852 -0.4545
   78SOL    HW2  234   2.685   1.355   0.251 -2.0378  1.0928  0.4540
   79SOL     OW  235   0.422   1.823   3.065  0.0721  0.2529  0.0108
   79SOL    HW1  236   0.471   1.733   3.064  0.0102  1.0562 -2.5500
   79SOL    HW2  237   0.452   1.880   2.985 -0.2190  2.2106  0.3341
   80SOL     OW  238   1.793   1.789   1.507  0.1171 -0.4245  0.0780
   80SOL    HW1  239   1.712   1.774   1.567 -0.8043  1.0276 -0.0060
   80SOL    HW2  240   1.777   1.870   1.447 -1.0656  0.3321 -1.0370
   81SOL     OW  241   2.298   0.684   2.484 -0.0449 -0.2902 -0.2395
   81SOL    HW1  242   2.197   0.665   2.495  0.5689 -0.2029  0.2366
   81SOL    HW2  243   2.342   0.734   2.559 -3.3671 -0.2104 -0.1960
   82SOL     OW  244   1.577   1.727   1.670 -0.1006 -0.1028  0.5106
   82SOL    HW1  245   1.660   1.727   1.733 -0.1806 -0.7879  0.6110
   82SOL    HW2  246   1.504   1.793   1.704 -1.6346  1.7197 -0.2525
   83SOL     OW  247   0.087   0.203   2.937 -0.2306  0.3489 -0.3845
   83SOL    HW1  248   0.016   0.150   2.885 -0.5976  0.7047 -2.3220
   83SOL    HW2  249   0.155   0.142   2.983  1.2645  1.9540  2.3643
   84SOL     OW  250   0.736   1.211   0.253 -0.2947 -0.1450  0.1437
   84SOL    HW1  251   0.766   1.115   0.230  1.1953  0.6404  1.0435
   84SOL    HW2  252   0.818   1.271   0.240 -1.6488  2.0245 -0.2780
   85SOL     OW  253   1.999   1.682   1.202 -0.1608  0.3581  0.1909
   85SOL    HW1  254   1.919   1.711   1.145 -0.3600 -1.6524 -3.4384
   85SOL    HW2  255   2.061   1.635   1.136 -1.4301 -0.9030 -0.5192
   86SOL     OW  256   0.740   0.683   1.137 -0.4813 -0.2007  0.5256
   86SOL    HW1  257   0.711   0.783   1.136 -0.5180  1.7697 -0.2146
   86SOL    HW2  258   0.727   0.647   1.229 -0.6724  1.1444  0.3695
   87SOL     OW  259   2.597   2.042   2.419 -0.0984 -0.0119  0.3892
   87SOL    HW1  260   2.585   2.043   2.520 -0.2969 -0.3410 -1.0424
   87SOL    HW2  261   2.505   2.028   2.382 -0.5322 -2.8404  2.0875
   88SOL     OW  262   0.163   2.891   0.102 -0.1507 -0.5257 -0.0737
   88SOL    HW1  263   0.160   2.982   0.060  0.9018 -1.6453 -1.2446
   88SOL    HW2  264   0.210   2.895   0.195  3.0242  0.8237  1.5832
   89SOL     OW  265   1.472   0.081   0.257 -0.7810 -0.6448  0.6160
   89SOL    HW1  266   1.395   0.097   0.191  0.9870  0.9143  0.1260
   89SOL    HW2  267   1.464   3.105   0.306  2.3093  4.0643 -1.9674
   90SOL     OW  268   2.964   1.311   2.272 -0.1479 -0.2925 -0.5881
   90SOL    HW1  269   2.924   1.311   2.361 -0.6676  0.0033  0.2769
   90SOL    HW2  270   3.064   1.297   2.289 -0.6251  0.2223  1.3222
   91SOL     OW  271   2.137   2.940   0.983 -0.1652  0.4251 -0.7083
   91SOL    HW1  272   2.181   2.866   1.037  1.7005  2.4377  1.1050
   91SOL    HW2  273   2.196   2.960   0.905 -1.1959 -0.1228 -2.3109
   92SOL     OW  274   1.536   1.416   0.764 -0.2070  0.3109 -0.2232
   92SOL    HW1  275   1.501   1.319   0.750  0.9947 -2.7148 -1.9115
   92SOL    HW2  276   1.511   1.455   0.850 -0.2024  0.3323 -3.1624
   93SOL     OW  277   0.263   1.700   0.275 -0.4214 -0.0983 -0.6623
   93SOL    HW1  278   0.188   1.753   0.300  1.6471 -0.8927  0.0945
   93SOL    HW2  279   0.327   1.747   0.207  2.5554 -0.2128 -1.7631
   94SOL     OW  280   0.977   2.602   1.372 -0.7256  0.2351  0.2836
   94SOL    HW1  281   1.080   2.587   1.362  4.5132  1.5854 -2.0478
   94SOL    HW2  282   0.954   2.698   1.365 -1.8574 -1.1426 -1.2589
   95SOL     OW  283   3.073   0.805   0.787  0.1725 -0.4479  0.3210
   95SOL    HW1  284   0.024   0.886   0.767  1.0481 -1.1789  1.3139
   95SOL    HW2  285   3.048   0.756   0.705 -2.2045  0.6415  2.9702
   96SOL     OW  286   0.578   2.955   1.801  0.0254 -0.2242 -0.3261
   96SOL    HW1  287   0.673   2.981   1.778  1.9187 -0.1697  1.1290
   96SOL    HW2  288   0.546   2.893   1.727  1.7012  1.4689 -0.8208
   97SOL     OW  289   2.323   0.580   0.986 -1.0934 -0.5099 -0.3199
   97SOL    HW1  290   2.257   0.501   0.976 -0.8789  0.6029 -1.9840
   97SOL    HW2  291   2.319   0.633   0.903  2.0808 -1.8919  1.5759
   98SOL     OW  292   3.088   2.472   1.627  0.0247 -0.1572  0.2711
   98SOL    HW1  293   3.067   2.453   1.528  1.5997 -0.8538 -0.4078
   98SOL    HW2  294   0.017   2.564   1.642  0.5200  0.2155  0.0176
   99SOL     OW  295   3.031   0.372   1.627  0.1206  0.5987 -0.3365
   99SOL    HW1  296   3.084   0.294   1.670 -0.9165 -1.2549  1.6112
   99SOL    HW2  297   2.938   0.354   1.655 -0.7937  0.1163 -0.5067
  100SOL     OW  298   2.062   0.292   2.575  0.0228  0.2153  0.2665
  100SOL    HW1  299   2.156   0.284   2.533 -0.6403  0.3095  0.5703
  100SOL    HW2  300   1.999   0.241   2.516 -0.1327  0.1189  2.3063
  101SOL     OW  301   0.908   3.096   2.307  0.3271  0.1333  0.0287
  101SOL    HW1  302   0.939   3.036   2.229  2.0099  1.8262 -1.5764
  101SOL    HW2  303   0.987   0.033   2.353 -0.7965 -1.0125  0.0370
  102SOL     OW  304   0.949   0.845   1.667 -0.1171  0.0453  0.5906
  102SOL    HW1  305   0.884   0.835   1.744  1.2205 -0.2251  1.6294
  102SOL    HW2  306   0.908   0.868   1.575  2.4968  0.9305 -0.8000
  103SOL     OW  307   1.040   0.659   2.763 -0.0413  0.6853  0.1424
  103SOL    HW1  308   1.071   0.667   2.667 -1.0006 -1.2059  1.5992
  103SOL    HW2  309   0.956   0.715   2.778 -0.6700 -1.9183 -0.5988
  104SOL     OW  310   0.510   0.228   2.013 -0.7374  0.3040  0.2946
  104SOL    HW1  311   0.549   0.214   2.102  0.8196  0.8184 -0.3434
  104SOL    HW2  312   0.442   0.154   1.991  5.6055  0.8077  2.2821
  105SOL     OW  313   2.675   2.389   1.464 -0.4147 -0.3684 -0.1581
  105SOL    HW1  314   2.677   2.291   1.444  0.6985 -0.5177  3.3872
  105SOL    HW2  315   2.636   2.403   1.558 -1.4276  0.0355  0.7392
  106SOL     OW  316   1.160   0.116   0.747  0.6464  0.0571  0.9215
  106SOL    HW1  317   1.202   0.168   0.669 -1.8413  0.8050 -2.1116
  106SOL    HW2  318   1.214   0.037   0.776 -3.9781 -1.6680  1.8434
  107SOL     OW  319   2.932   1.998   1.208  0.1273  0.0639  0.1258
  107SOL    HW1  320   2.976   1.915   1.244  1.4291 -1.4970  3.3284
  107SOL    HW2  321   2.930   2.000   1.107  0.4893 -0.5158 -0.3612
  108SOL     OW  322   0.046   2.154   0.650 -0.1416 -0.2982  0.5421
  108SOL    HW1  323   0.128   2.116   0.602 -0.0793 -0.1323  0.2640
  108SOL    HW2  324   0.077   2.228   0.711  1.9116 -0.8664  0.3699
  109SOL     OW  325   1.489   0.027   0.721 -0.1089 -0.6376 -0.1278
  109SOL    HW1  326   1.418   3.087   0.775  0.3457 -0.2588  0.8568
  109SOL    HW2  327   1.459   0.120   0.704 -1.4139 -1.5852  1.5073
  110SOL     OW  328   1.466   1.587   0.991  0.0596  0.4902 -0.0345
  110SOL    HW1  329   1.496   1.686   0.998 -0.1867  0.4946 -0.0395
  110SOL    HW2  330   1.499   1.533   1.072  3.8245 -0.4099  2.7278
  111SOL     OW  331   1.696   2.587   1.861  0.1089  0.9216 -0.3759
  111SOL    HW1  332   1.736   2.492   1.845 -1.0595 -1.6088  0.1887
  111SOL    HW2  333   1.679   2.607   1.960 -0.2496 -0.7374  0.8649
  112SOL     OW  334   1.703   2.225   2.572 -0.6029  0.1137  0.2109
  112SOL    HW1  335   1.664   2.251   2.664 -0.1937 -2.6211  0.9813
  112SOL    HW2  336   1.771   2.295   2.539  1.7299 -1.0000  0.4453
  113SOL     OW  337   2.047   1.817   1.974  0.2733  0.0088 -0.3392
  113SOL    HW1  338   2.105   1.740   1.996 -1.2510 -0.5533 -0.8038
  113SOL    HW2  339   2.045   1.823   1.877 -2.8938  1.6567 -0.5949
  114SOL     OW  340   0.107   1.050   1.051 -0.2991  0.1626 -0.2185
  114SOL    HW1  341   0.094   0.951   1.045  1.5484  0.5454 -1.4089
  114SOL    HW2  342   0.022   1.101   1.041 -0.3686 -1.4577 -0.8732
  115SOL     OW  343   2.913   0.682   2.713  1.0577 -0.1577  0.1056
  115SOL    HW1  344   3.007   0.707   2.673  0.3964  1.9303 -3.5899
  115SOL    HW2  345   2.845   0.693   2.635 -0.3354  0.6132 -1.3429
  116SOL     OW  346   2.898   0.400   2.739  0.3256 -0.2347 -0.1914
  116SOL    HW1  347   2.890   0.502   2.741 -1.1425 -0.5422 -3.2086
  116SOL    HW2  348   2.840   0.361   2.662 -0.7144 -2.1326  0.1480
  117SOL     OW  349   2.495   2.687   0.510 -0.1357 -0.2065  0.1383
  117SOL    HW1  350   2.529   2.629   0.587 -1.8501 -0.8915 -0.3052
  117SOL    HW2  351   2.526   2.654   0.421 -1.0641  0.3781 -0.6510
  118SOL     OW  352   0.591   2.053   2.183 -0.2532  0.0947 -0.0917
  118SOL    HW1  353   0.577   2.146   2.224 -0.4230  1.2891  0.0193
  118SOL    HW2  354   0.603   2.049   2.081  0.3316 -2.0195 -0.5870
  119SOL     OW  355   0.570   2.826   0.456 -0.4945  0.5881  0.4903
  119SOL    HW1  356   0.664   2.863   0.449  0.9488  0.0061 -0.2788
  119SOL    HW2  357   0.521   2.864   0.539  0.4464  0.0332  2.3983
  120SOL     OW  358   1.461   0.752   0.456 -0.9708  0.2543 -1.4164
  120SOL    HW1  359   1.471   0.782   0.556  0.1560  0.9985  1.7174
  120SOL    HW2  360   1.519   0.803   0.400  0.5271 -0.4227  2.5641
  121SOL     OW  361   1.805   0.409   0.864  0.3783  0.4347  0.1731
  121SOL    HW1  362   1.836   0.363   0.951 -1.6280  1.1146  0.7235
  121SOL    HW2  363   1.792   0.507   0.889  0.4724  1.1988  0.6834
  122SOL     OW  364   2.017   1.293   2.397  0.1362  0.3125  0.5966
  122SOL    HW1  365   1.982   1.380   2.430  3.4622 -0.3912 -3.5383
  122SOL    HW2  366   2.054   1.290   2.303 -0.2792 -0.6988  0.6781
  123SOL     OW  367   0.913   1.135   1.000  0.0195  0.3120  0.0359
  123SOL    HW1  368   0.984   1.062   1.014 -1.8183 -0.4632 -3.0961
  123SOL    HW2  369   0.892   1.154   0.900  1.1278 -0.6463 -2.1169
  124SOL     OW  370   0.740   0.606   2.778 -0.1314 -0.2362 -0.4162
  124SOL    HW1  371   0.641   0.600   2.751  0.0173 -1.5724  0.7585
  124SOL    HW2  372   0.775   0.526   2.831  3.6644  2.8274 -1.6997
  125SOL     OW  373   0.831   0.306   0.214  0.1338  0.2041 -0.5137
  125SOL    HW1  374   0.892   0.224   0.231  3.8538 -0.0169  0.6606
  125SOL    HW2  375   0.843   0.371   0.292  0.8331  0.4597  0.4783
  126SOL     OW  376   0.609   1.679   0.263  0.1465  0.1307 -0.1341
  126SOL    HW1  377   0.588   1.582   0.243 -1.4364  1.2430 -1.0979
  126SOL    HW2  378   0.647   1.693   0.357 -0.0139 -0.7656 -1.0290
  127SOL     OW  379   0.992   2.487   1.630 -0.3100  0.4631 -0.2574
  127SOL    HW1  380   0.974   2.548   1.549  2.6099 -1.1722  1.8453
  127SOL    HW2  381   1.086   2.501   1.669  0.6848 -2.1901  0.7516
  128SOL     OW  382   0.875   1.944   0.325 -0.5103 -0.0419 -0.4085
  128SOL    HW1  383   0.948   1.887   0.288 -0.3967 -2.3254  3.4642
  128SOL    HW2  384   0.890   2.035   0.291  2.2328  1.0688 -0.5479
  129SOL     OW  385   1.779   1.529   2.179  0.7042 -0.0208 -0.1220
  129SOL    HW1  386   1.686   1.494   2.173 -1.1084  2.3286  1.1958
  129SOL    HW2  387   1.848   1.464   2.141  1.8018 -1.0730 -0.9941
  130SOL     OW  388   2.004   1.835   1.710 -0.1890 -0.0596  0.4657
  130SOL    HW1  389   2.063   1.913   1.685 -0.1803 -1.2484 -0.2277
  130SOL    HW2  390   1.920   1.836   1.649 -0.6256 -3.4351 -0.7555
  131SOL     OW  391   0.314   2.259   2.056 -0.2916  0.3433  0.0408
  131SOL    HW1  392   0.287   2.164   2.031 -0.4501 -1.4845 -0.5982
  131SOL    HW2  393   0.242   2.321   2.020  1.0957 -0.3478  0.2870
  132SOL     OW  394   2.451   1.648   0.706 -0.0002  0.5839 -0.0748
  132SOL    HW1  395   2.499   1.562   0.684  1.8353  0.8776 -1.9025
  132SOL    HW2  396   2.502   1.730   0.668  0.6370  2.8287 -1.5915
  133SOL     OW  397   0.377   1.293   1.793  0.0635  0.5271 -0.4070
  133SOL    HW1  398   0.383   1.279   1.892 -0.4504  0.0437 -1.3785
  133SOL    HW2  399   0.290   1.323   1.764 -0.5640 -2.2960  2.1113
  134SOL     OW  400   2.825   1.290   0.640 -0.4926  0.5780  0.1821
  134SOL    HW1  401   2.789   1.200   0.609 -1.5816 -0.3755  0.3395
  134SOL    HW2  402   2.884   1.327   0.568 -1.0551 -1.6636 -0.2555
  135SOL     OW  403   1.920   1.143   2.786  0.1670 -0.1911  0.0599
  135SOL    HW1  404   1.865   1.226   2.792  1.7236 -1.0269 -0.2718
  135SOL    HW2  405   1.869   1.063   2.758  3.3584  4.0525 -1.8718
  136SOL     OW  406   2.765   1.604   1.059  0.1297  0.7521 -0.0456
  136SOL    HW1  407   2.730   1.688   1.010 -1.7709  0.8220  1.6750
  136SOL    HW2  408   2.701   1.580   1.135 -0.8822  1.0710  1.9774
  137SOL     OW  409   2.215   1.681   0.551 -0.4075 -0.2806  0.0171
  137SOL    HW1  410   2.154   1.596   0.546  0.4569 -0.5657  0.0165
  137SOL    HW2  411   2.302   1.666   0.606  2.2448 -1.0152  0.7247
  138SOL     OW  412   2.508   0.346   0.419 -0.2472 -0.2984 -0.2238
  138SOL    HW1  413   2.503   0.247   0.396  1.0151  3.7817 -0.2685
  138SOL    HW2  414   2.421   0.372   0.471  0.7837  0.2538  0.7681
  139SOL     OW  415   2.801   2.997   2.954 -0.4623 -0.1251 -0.4118
  139SOL    HW1  416   2.823   3.083   3.007  0.5449 -0.5758 -1.1847
  139SOL    HW2  417   2.779   3.014   2.859  1.3736 -0.0084  1.1400
  140SOL     OW  418   0.670   1.328   1.522 -0.4635 -0.4370 -0.1776
  140SOL    HW1  419   0.704   1.354   1.615  2.2768  0.6614  0.3676
  140SOL    HW2  420   0.590   1.385   1.494 -1.2118  0.6035 -1.3129
  141SOL     OW  421   1.199   1.527   0.722  0.2218 -0.5043 -0.4365
  141SOL    HW1  422   1.193   1.473   0.808  5.4494  0.1748 -1.4995
  141SOL    HW2  423   1.241   1.618   0.738 -2.7249 -2.7275 -1.6625
  142SOL     OW  424   1.407   0.776   1.170  0.1791 -0.5315 -0.3224
  142SOL    HW1  425   1.367   0.703   1.226  0.5972  0.1900 -0.3751
  142SOL    HW2  426   1.438   0.856   1.226 -0.0878 -0.6079  2.7824
  143SOL     OW  427   0.828   0.868   2.849  0.2555  0.2566  0.1679
  143SOL    HW1  428   0.756   0.922   2.900 -0.8216  1.3421  0.2683
  143SOL    HW2  429   0.788   0.780   2.820  0.3722  0.9235 -1.7153
  144SOL     OW  430   2.575   0.058   0.146 -0.0574 -0.0067 -0.2205
  144SOL    HW1  431   2.513   3.107   0.089  0.3292 -0.1924 -2.4727
  144SOL    HW2  432   2.552   0.062   0.247 -0.3477  4.5587 -1.6902
  145SOL     OW  433   2.105   3.082   2.461 -0.3121  0.2034  0.8019
  145SOL    HW1  434   2.179   3.104   2.523 -1.2941 -1.4917  0.1998
  145SOL    HW2  435   2.115   0.029   2.375 -0.9713  1.9519 -1.0634
  146SOL     OW  436   2.932   2.995   0.357  0.0318  0.3803  0.2132
  146SOL    HW1  437   2.985   2.926   0.297  2.7960 -0.4376 -1.8496
  146SOL    HW2  438   2.910   3.080   0.307 -0.5856 -0.7882  1.3945
  147SOL     OW  439   1.377   0.839   2.628 -0.4563 -0.0430 -0.1130
  147SOL    HW1  440   1.461   0.825   2.686  2.6936  0.0851  0.2464
  147SOL    HW2  441   1.320   0.915   2.655 -1.3342 -0.6136  0.1345
  148SOL     OW  442   1.210   0.224   0.488  0.0870 -0.3731  0.6220
  148SOL    HW1  443   1.290   0.278   0.503 -4.5379 -2.3156 -0.9516
  148SOL    HW2  444   1.176   0.237   0.392  0.1569 -2.1520  0.2581
  149SOL     OW  445   1.372   0.770   2.118 -0.0653 -0.5369 -0.8616
  149SOL    HW1  446   1.288   0.826   2.126 -0.0339  0.9014 -0.2708
  149SOL    HW2  447   1.433   0.766   2.204  0.1499 -0.2526 -0.2165
  150SOL     OW  448   1.841   3.059   2.821  0.2979 -0.0362  0.3741
  150SOL    HW1  449   1.905   0.031   2.814  3.7572 -0.9113 -0.4977
  150SOL    HW2  450   1.896   2.982   2.858  0.5746  2.3628 -1.4922
  151SOL     OW  451   0.561   1.428   0.212  0.6703  0.1308 -0.0388
  151SOL    HW1  452   0.459   1.413   0.231 -3.6511  1.8787  0.6041
  151SOL    HW2  453   0.624   1.363   0.250 -0.0125  1.0089 -0.4016
  152SOL     OW  454   0.719   0.558   1.399 -0.2034 -0.3782 -0.0532
  152SOL    HW1  455   0.671   0.618   1.465  1.2686  1.1716 -2.9144
  152SOL    HW2  456   0.809   0.529   1.432  0.2075  0.9831 -0.8477
  153SOL     OW  457   2.525   2.986   1.853 -0.3568 -0.6610 -0.7501
  153SOL    HW1  458   2.563   3.066   1.901 -0.5212 -1.7125 -1.6615
  153SOL    HW2  459   2.427   2.976   1.881 -2.1220  1.2420 -0.1828
  154SOL     OW  460   2.255   2.979   1.891  0.0364 -0.3735  0.4534
  154SOL    HW1  461   2.193   3.051   1.857  2.2306  0.7699  1.6035
  154SOL    HW2  462   2.227   2.879   1.878  0.6233 -0.1281 -0.9656
  155SOL     OW  463   0.044   1.091   0.741  0.2521  0.6389 -0.3684
  155SOL    HW1  464   0.056   1.130   0.647  3.0312 -2.5662  1.5377
  155SOL    HW2  465   3.084   1.145   0.795  1.9730  2.5234 -1.7490
  156SOL     OW  466   2.091   1.450   0.558 -0.1363  0.4941 -0.2364
  156SOL    HW1  467   2.119   1.348   0.564  0.7582 -2.3897 -0.7639
  156SOL    HW2  468   1.999   1.449   0.513 -1.3252 -1.0190 -2.9803
  157SOL     OW  469   0.797   0.111   2.980 -0.2606  0.4687 -0.3636
  157SOL    HW1  470   0.719   0.056   3.028 -2.0082  0.6794  2.0284
  157SOL    HW2  471   0.782   0.212   2.994  1.7121  0.2148  1.6543
  158SOL     OW  472   1.772   1.196   1.297 -0.3065 -0.0703  0.4594
  158SOL    HW1  473   1.713   1.256   1.356  0.0413  1.1556 -0.3706
  158SOL    HW2  474   1.763   1.219   1.198  0.2210 -0.2664  0.9381
  159SOL     OW  475   0.033   0.339   0.295  0.0589  0.1264  0.0784
  159SOL    HW1  476   0.108   0.265   0.290  2.0035 -0.5968 -1.7014
  159SOL    HW2  477   0.043   0.395   0.379 -0.5765  1.4924 -0.3733
  160SOL     OW  478   2.509   2.080   1.862  0.2132 -0.3594 -0.3346
  160SOL    HW1  479   2.563   2.079   1.950  0.1446  1.1566  0.7676
  160SOL    HW2  480   2.460   2.165   1.848 -0.1155 -1.0430 -0.3084
  161SOL     OW  481   0.509   0.829   3.057  0.1328 -0.2946 -0.1036
  161SOL    HW1  482   0.554   0.905   3.002 -2.3921 -1.1105  2.4433
  161SOL    HW2  483   0.412   0.823   3.024 -2.3803  0.7933 -2.0662
  162SOL     OW  484   0.819   0.430   1.720  0.1355  0.0055  0.0385
  162SOL    HW1  485   0.731   0.480   1.698 -3.3301 -1.0047 -2.7835
  162SOL    HW2  486   0.798   0.340   1.763  0.3209  0.8801  0.4149
  163SOL     OW  487   2.757   3.053   2.437 -0.4003 -0.4154  0.4933
  163SOL    HW1  488   2.812   2.976   2.405  3.2768  0.4026  1.5491
  163SOL    HW2  489   2.661   3.039   2.395  0.8680 -2.1478 -0.3660
  164SOL     OW  490   2.260   1.709   0.272  0.5983  0.4258 -0.0002
  164SOL    HW1  491   2.245   1.802   0.238 -1.1614  1.2900 -0.3524
  164SOL    HW2  492   2.243   1.704   0.372 -0.1158  2.2296 -1.3180
  165SOL     OW  493   0.434   0.020   1.022  0.1845 -0.2433 -0.2800
  165SOL    HW1  494   0.438   0.101   0.957  0.9542 -2.6440  2.0733
  165SOL    HW2  495   0.491   0.037   1.103 -0.0475 -2.8100  0.2687
  166SOL     OW  496   2.884   0.339   3.019 -0.0212  0.1495 -0.3219
  166SOL    HW1  497   2.880   0.350   2.915  0.8430 -0.1068  0.0355
  166SOL    HW2  498   2.876   0.240   3.047 -3.3372 -1.2816  0.3159
  167SOL     OW  499   2.149   0.505   0.272  0.0245  0.3645  0.3509
  167SOL    HW1  500   2.123   0.596   0.315 -0.1316 -0.4382 -1.1788
  167SOL    HW2  501   2.203   0.524   0.188  1.7547  2.5551  2.4308
  168SOL     OW  502   1.654   0.010   2.189 -0.5197  0.3206  0.0011
  168SOL    HW1  503   1.589   0.032   2.261  1.0746 -0.1077  2.8032
  168SOL    HW2  504   1.614   0.027   2.092 -2.3080 -0.6774 -0.7700
  169SOL     OW  505   0.426   2.018   0.751  0.4248 -0.0111 -0.7614
  169SOL    HW1  506   0.361   1.955   0.799 -1.6411 -1.2824  1.5015
  169SOL    HW2  507   0.397   2.113   0.773  0.4622  1.6088 -3.0478
  170SOL     OW  508   0.440   0.370   1.629  0.0072  0.2849 -0.3438
  170SOL    HW1  509   0.372   0.410   1.701 -1.4569  4.3154 -0.9780
  170SOL    HW2  510   0.441   0.269   1.627 -1.0154 -1.1380 -2.0493
  171SOL     OW  511   2.687   1.509   2.590 -0.4024 -0.1558 -0.3962
  171SOL    HW1  512   2.676   1.474   2.495 -0.6572  0.1326  2.8466
  171SOL    HW2  513   2.683   1.614   2.590  0.5886 -0.6157 -0.6874
  172SOL     OW  514   0.807   1.712   1.225  0.4574  0.3133 -0.2078
  172SOL    HW1  515   0.729   1.664   1.183  1.6753  0.2646 -0.5448
  172SOL    HW2  516   0.867   1.658   1.288 -0.2515  0.1261 -2.6339
  173SOL     OW  517   1.876   2.113   2.916 -0.5441  0.0781 -0.1940
  173SOL    HW1  518   1.826   2.026   2.895  0.9899  0.4125 -0.0983
  173SOL    HW2  519   1.872   2.133   3.015 -1.1540  1.6672 -2.0522
  174SOL     OW  520   1.822   0.626   3.094  0.7049  0.9100  0.0072
  174SOL    HW1  521   1.897   0.686   3.060  0.2045 -2.1708  0.8807
  174SOL    HW2  522   1.779   0.666   0.069 -0.4781 -0.5027 -1.7990
  175SOL     OW  523   0.397   1.748   1.728 -0.1684 -0.2213  0.4433
  175SOL    HW1  524   0.398   1.851   1.745 -0.6291  2.9581  2.1835
  175SOL    HW2  525   0.300   1.715   1.742  0.9520  1.3681 -0.1443
  176SOL     OW  526   0.831   0.401   0.466 -0.5791  0.2887  0.6834
  176SOL    HW1  527   0.907   0.467   0.494  0.4714  3.4092  1.5412
  176SOL    HW2  528   0.748   0.406   0.531 -0.2778  2.8177  1.4317
  177SOL     OW  529   0.154   1.587   3.057 -0.2181  0.1109  0.2880
  177SOL    HW1  530   0.078   1.513   3.064 -0.2405 -2.8211 -0.9054
  177SOL    HW2  531   0.248   1.564   3.087 -0.2471 -1.7386 -0.9427
  178SOL     OW  532   0.088   2.120   2.262  0.1338  0.4268  0.1228
  178SOL    HW1  533   0.173   2.070   2.256 -6.0710 -1.5220  1.9100
  178SOL    HW2  534   0.046   2.136   2.167  1.6541 -0.5465  0.0575
  179SOL     OW  535   2.286   0.075   2.681  0.3572 -0.3432 -0.2407
  179SOL    HW1  536   2.341   0.160   2.700  1.2115 -0.7356 -0.7791
  179SOL    HW2  537   2.236   0.057   2.763  0.1518 -1.4779  0.2265
  180SOL     OW  538   2.624   0.114   0.986  0.0527 -0.1950 -0.5962
  180SOL    HW1  539   2.637   0.213   1.018  2.2583  1.5974 -0.2058
  180SOL    HW2  540   2.615   0.126   0.885 -1.3666 -1.3717  0.0140
  181SOL     OW  541   3.060   3.017   2.551 -0.0497  0.6976 -0.8198
  181SOL    HW1  542   2.974   3.020   2.506 -0.8760  1.2264  2.6572
  181SOL    HW2  543   0.008   2.942   2.516 -0.0323  1.9116  0.9333
  182SOL     OW  544   2.245   2.349   2.367  0.3125  0.8929 -0.3125
  182SOL    HW1  545   2.333   2.365   2.415 -0.3853  0.7426 -1.5032
  182SOL    HW2  546   2.269   2.331   2.270  1.3766  0.2708 -0.5143
  183SOL     OW  547   2.537   1.196   1.540  0.1514  0.1583 -0.6269
  183SOL    HW1  548   2.539   1.195   1.644  0.8944  2.1525  3.8019
  183SOL    HW2  549   2.492   1.112   1.495 -2.1880 -0.7145  0.3487
  184SOL     OW  550   2.772   1.375   0.906 -0.0058  0.4677  0.2019
  184SOL    HW1  551   2.755   1.473   0.922 -0.1151  0.5655 -0.4200
  184SOL    HW2  552   2.788   1.357   0.806 -1.1158 -1.1538 -1.9409
  185SOL     OW  553   0.027   0.112   0.841 -0.3214 -0.0395 -0.0421
  185SOL    HW1  554   0.086   0.110   0.762  0.0874  0.2301  1.8286
  185SOL    HW2  555   3.067   0.036   0.834  0.6806 -0.9446 -1.4041
  186SOL     OW  556   2.168   2.588   2.269 -0.0356 -0.3039  0.0929
  186SOL    HW1  557   2.112   2.650   2.328 -0.2172  0.5719  2.0466
  186SOL    HW2  558   2.197   2.510   2.325 -0.5096 -0.0072  1.7521
  187SOL     OW  559   0.266   1.580   0.534 -0.3138  0.6450  0.5509
  187SOL    HW1  560   0.258   1.628   0.441 -0.3229  1.5030 -2.1182
  187SOL    HW2  561   0.361   1.587   0.570 -0.4548 -2.2828  1.8221
  188SOL     OW  562   1.749   1.767   0.483 -0.3962 -0.0037  0.1510
  188SOL    HW1  563   1.726   1.667   0.478 -0.3144 -0.5170 -1.2464
  188SOL    HW2  564   1.666   1.821   0.483  0.4482 -0.8555  0.7751
  189SOL     OW  565   3.080   1.380   3.053  0.5235  0.3058  0.3584
  189SOL    HW1  566   0.006   1.330   2.973  1.7303  1.4308  0.2583
  189SOL    HW2  567   2.985   1.410   3.032 -1.2118  1.6351 -0.2420
  190SOL     OW  568   2.533   0.220   2.274 -0.1979 -0.5830  0.2304
  190SOL    HW1  569   2.472   0.302   2.268 -0.2646 -0.3505  0.0125
  190SOL    HW2  570   2.625   0.239   2.239 -1.6558 -0.2436  2.7616
  191SOL     OW  571   0.965   0.970   2.028  0.2023  0.1193  0.3127
  191SOL    HW1  572   0.915   0.911   1.963  0.6613 -0.3604  1.1288
  191SOL    HW2  573   0.958   1.069   2.007 -0.9680 -0.0265  0.1764
  192SOL     OW  574   1.519   1.362   2.136 -0.0663 -0.5622  0.3119
  192SOL    HW1  575   1.483   1.396   2.044 -0.4809 -0.1726  0.8411
  192SOL    HW2  576   1.582   1.279   2.130 -0.4614 -0.3696  0.6114
  193SOL     OW  577   1.413   2.706   1.058  0.0490  0.5922 -0.1525
  193SOL    HW1  578   1.448   2.804   1.057  1.9472  1.9882  0.4321
  193SOL    HW2  579   1.399   2.669   0.965  0.6646  1.4317  0.5331
  194SOL     OW  580   1.493   1.423   1.873  0.6144  0.0850  0.3234
  194SOL    HW1  581   1.581   1.404   1.824 -0.5809 -2.2129 -1.4376
  194SOL    HW2  582   1.416   1.404   1.812  1.0987 -3.6428  3.0807
  195SOL     OW  583   1.974   0.078   0.750  0.6135 -0.4924  0.1700
  195SOL    HW1  584   2.039   0.154   0.720  1.2305  1.5754  0.8001
  195SOL    HW2  585   1.968   0.076   0.853 -0.7077  2.9449 -0.9479
  196SOL     OW  586   1.191   1.343   2.414  0.3064 -0.2732  0.2952
  196SOL    HW1  587   1.173   1.289   2.326  1.3956 -3.3907 -0.8911
  196SOL    HW2  588   1.198   1.280   2.492 -1.6218  1.1097 -1.4993
  197SOL     OW  589   0.421   0.259   2.358 -0.1209  0.2082  0.1798
  197SOL    HW1  590   0.352   0.275   2.282  0.4848 -0.3648  0.2985
  197SOL    HW2  591   0.388   0.190   2.426  0.6423  0.1881 -1.6522
  198SOL     OW  592   2.995   1.223   0.969  0.2874  0.2598 -0.6171
  198SOL    HW1  593   2.915   1.274   0.940 -0.3104 -0.8483  1.5067
  198SOL    HW2  594   3.078   1.270   0.932 -1.0778  2.4062 -1.2265
  199SOL     OW  595   0.376   2.298   0.767 -0.7266 -0.6392 -0.3577
  199SOL    HW1  596   0.436   2.285   0.686  0.5837 -1.1676  2.0262
  199SOL    HW2  597   0.426   2.331   0.847  0.6482 -0.7583  0.9753
  200SOL     OW  598   2.498   1.984   2.688 -0.1185  0.3511 -0.1839
  200SOL    HW1  599   2.589   2.005   2.730 -1.4710  1.5007  2.8281
  200SOL    HW2  600   2.461   1.902   2.739 -1.5421 -2.9529 -0.1826
  201SOL     OW  601   0.892   1.981   1.301 -0.9168 -0.0406  0.0236
  201SOL    HW1  602   0.904   1.987   1.401 -0.4517 -0.7521  1.8304
  201SOL    HW2  603   0.862   1.891   1.266 -2.1746 -1.1310 -3.4923
  202SOL     OW  604   1.005   2.483   3.049 -0.0760 -0.1149 -0.1984
  202SOL    HW1  605   0.982   2.496   0.038  0.8173 -1.9464  0.1265
  202SOL    HW2  606   1.082   2.542   3.018 -3.1104 -0.5066  1.3389
  203SOL     OW  607   2.117   0.437   2.110  0.4935  0.6107  0.1856
  203SOL    HW1  608   2.152   0.422   2.019 -0.1701  2.4433  1.7046
  203SOL    HW2  609   2.049   0.365   2.144 -1.7325 -0.2496  0.1609
  204SOL     OW  610   0.194   1.337   1.557 -0.1892 -0.0305  0.4504
  204SOL    HW1  611   0.096   1.337   1.531  0.9678  0.6448  2.1398
  204SOL    HW2  612   0.238   1.249   1.540  0.0750 -0.1618 -1.7903
  205SOL     OW  613   2.404   1.489   2.701 -0.2977 -0.5994 -0.7709
  205SOL    HW1  614   2.499   1.498   2.664  0.3018 -2.2758  0.6599
  205SOL    HW2  615   2.354   1.578   2.712 -0.1067 -1.0193 -1.5872
  206SOL     OW  616   3.008   2.118   2.474 -0.0628 -0.1910  0.9329
  206SOL    HW1  617   2.987   2.027   2.516  0.8697  3.5686 -1.8063
  206SOL    HW2  618   3.065   2.108   2.385 -3.1747 -0.4117 -2.1599
  207SOL     OW  619   0.842   2.986   1.622 -0.4150  0.1052 -0.0425
  207SOL    HW1  620   0.925   2.971   1.568  1.4684  2.0928  3.0873
  207SOL    HW2  621   0.849   3.062   1.693  0.9832 -1.0150 -0.4323
  208SOL     OW  622   0.586   2.529   1.465  0.5090 -0.4231  0.3917
  208SOL    HW1  623   0.561   2.489   1.556 -1.8050  0.7665  1.6667
  208SOL    HW2  624   0.675   2.494   1.427  0.6647 -0.3967  0.3780
  209SOL     OW  625   0.980   2.664   2.557 -0.2416 -0.2769 -0.5570
  209SOL    HW1  626   0.956   2.586   2.618 -1.7762  0.4903 -0.5062
  209SOL    HW2  627   0.980   2.747   2.617  1.2195 -2.2567  1.0120
  210SOL     OW  628   2.812   1.472   2.119 -0.0939 -0.3555  0.0190
  210SOL    HW1  629   2.898   1.428   2.154  0.4458  1.6737 -2.7993
  210SOL    HW2  630   2.803   1.571   2.144  0.9795 -0.5401 -0.6353
  211SOL     OW  631   1.193   3.064   2.023 -0.0753 -0.2305  0.3175
  211SOL    HW1  632   1.205   2.999   2.104  1.6789 -0.3584  4.4210
  211SOL    HW2  633   1.160   0.045   2.054  1.5780 -2.8427  0.0997
  212SOL     OW  634   1.258   2.610   1.756  0.4781 -1.0320 -0.3137
  212SOL    HW1  635   1.297   2.581   1.848  1.5452  0.3981  1.2746
  212SOL    HW2  636   1.336   2.603   1.691 -1.4442 -0.9373  0.4328
  213SOL     OW  637   2.521   0.863   1.706 -0.0749  0.0631 -0.4153
  213SOL    HW1  638   2.446   0.861   1.639  0.8001  0.9697  1.5391
  213SOL    HW2  639   2.612   0.867   1.662  1.0878 -1.5139 -1.0072
  214SOL     OW  640   0.939   2.090   1.568  0.1914 -0.3931  0.6876
  214SOL    HW1  641   0.861   2.157   1.555 -0.7521  0.2037 -0.8684
  214SOL    HW2  642   0.926   2.031   1.647 -0.7171  1.1704 -1.3393
  215SOL     OW  643   2.409   2.053   0.717  0.6162  0.0437  0.0208
  215SOL    HW1  644   2.419   2.143   0.765 -0.4991  2.6848 -0.1606
  215SOL    HW2  645   2.330   2.009   0.756  0.1449  1.2513  0.4208
  216SOL     OW  646   0.079   0.797   1.425  0.8090 -0.5390  0.4695
  216SOL    HW1  647   0.014   0.720   1.412 -1.6481  4.0767  0.8981
  216SOL    HW2  648   0.042   0.879   1.375 -1.3853  1.7929 -2.1846
  217SOL     OW  649   2.113   0.327   1.370  0.0020  0.1545  0.4813
  217SOL    HW1  650   2.185   0.342   1.305  0.6460 -0.1813  0.2426
  217SOL    HW2  651   2.056   0.252   1.334  2.5623 -2.5253  3.5000
  218SOL     OW  652   1.636   2.440   0.941 -0.1026 -0.6321  0.7380
  218SOL    HW1  653   1.658   2.528   0.899  2.2865 -0.9804  0.6957
  218SOL    HW2  654   1.564   2.447   1.014 -0.3518  0.8012  1.9336
  219SOL     OW  655   1.326   2.340   0.070 -0.6150  0.4405  0.6062
  219SOL    HW1  656   1.408   2.396   0.062 -2.2424 -2.4782  1.3526
  219SOL    HW2  657   1.272   2.378   0.142  2.2933  0.1024 -2.1423
  220SOL     OW  658   1.561   2.352   2.766 -0.0764 -0.2760 -0.7570
  220SOL    HW1  659   1.507   2.427   2.717 -0.4696  0.6525  1.7672
  220SOL    HW2  660   1.526   2.260   2.744  1.1175 -1.1603 -1.3607
  221SOL     OW  661   0.313   2.521   1.405  0.1518  0.0434 -0.3281
  221SOL    HW1  662   0.413   2.509   1.413 -2.0151 -0.3125  2.5903
  221SOL    HW2  663   0.264   2.451   1.463  1.3177  0.4166  0.8632
  222SOL     OW  664   2.118   2.502   0.809  0.0307 -0.1490 -0.5810
  222SOL    HW1  665   2.023   2.523   0.773  0.7789  2.3387  0.6153
  222SOL    HW2  666   2.163   2.583   0.851 -1.4961 -0.6987  3.0224
  223SOL     OW  667   0.748   2.273   2.054 -0.2115  0.1388 -0.1864
  223SOL    HW1  668   0.696   2.196   2.005  0.3121 -2.0330  0.6820
  223SOL    HW2  669   0.694   2.354   2.080 -2.1304  0.7796  0.9065
  224SOL     OW  670   2.965   2.471   1.358  0.5332  0.0826 -0.0366
  224SOL    HW1  671   2.980   2.558   1.309 -1.3420 -0.6319  1.7932
  224SOL    HW2  672   2.873   2.465   1.397 -1.4419  1.3769  1.3561
  225SOL     OW  673   2.282   2.162   0.499  0.2130 -0.6254 -0.1551
  225SOL    HW1  674   2.358   2.125   0.555 -0.5816  0.3363 -0.1761
  225SOL    HW2  675   2.214   2.094   0.481 -0.1500  2.1651  1.7341
  226SOL     OW  676   1.443   2.327   0.394 -0.4641 -0.0951  0.4147
  226SOL    HW1  677   1.357   2.344   0.348  3.1302  0.0106  0.6271
  226SOL    HW2  678   1.449   2.365   0.490 -0.9990 -5.0308 -1.7892
  227SOL     OW  679   2.010   0.971   0.879  0.1249  0.5315  0.3543
  227SOL    HW1  680   1.933   0.974   0.942  3.0190  1.8199 -1.5883
  227SOL    HW2  681   2.053   1.061   0.867  1.5392 -2.5880  0.7829
  228SOL     OW  682   1.501   0.418   2.347  0.0029  0.1264 -0.0507
  228SOL    HW1  683   1.435   0.477   2.397 -2.4399 -0.4054 -1.6266
  228SOL    HW2  684   1.567   0.474   2.297  0.0778  3.6018 -0.4450
  229SOL     OW  685   0.039   1.202   2.866  0.7794  0.2713 -0.8498
  229SOL    HW1  686   0.090   1.114   2.850  0.1493  1.1657  0.2118
  229SOL    HW2  687   0.012   1.239   2.774 -2.0164 -0.8545  0.4995
  230SOL     OW  688   0.685   1.305   1.220 -0.8519  0.1724  0.3959
  230SOL    HW1  689   0.622   1.231   1.252  1.5080  1.5514  0.2942
  230SOL    HW2  690   0.752   1.327   1.294  0.4855  0.7966  1.6854
  231SOL     OW  691   2.437   2.978   2.597 -0.0204 -0.2227  0.3031
  231SOL    HW1  692   2.382   3.058   2.631 -0.6929 -0.4187 -0.5066
  231SOL    HW2  693   2.471   2.995   2.501 -1.6082 -0.3654 -3.1057
  232SOL     OW  694   0.285   2.337   0.296 -0.1513 -0.2463  0.5458
  232SOL    HW1  695   0.332   2.405   0.233 -0.5953 -0.2371  0.9030
  232SOL    HW2  696   0.258   2.248   0.244 -0.5130 -4.7714 -1.0835
  233SOL     OW  697   1.139   2.225   2.205  0.7493  0.4200 -0.2028
  233SOL    HW1  698   1.125   2.293   2.136 -2.1080 -1.4732  4.3429
  233SOL    HW2  699   1.179   2.267   2.290  1.7279  0.4983  0.7978
  234SOL     OW  700   1.261   1.421   1.729 -0.0866 -0.2970  0.0927
  234SOL    HW1  701   1.312   1.478   1.660  2.0833  0.1949 -1.1052
  234SOL    HW2  702   1.173   1.464   1.760 -1.7397 -1.2615  0.8661
  235SOL     OW  703   0.890   1.861   1.770 -0.1747 -0.6666  0.9912
  235SOL    HW1  704   0.987   1.889   1.798 -1.7962  0.0659 -0.6764
  235SOL    HW2  705   0.835   1.831   1.853  2.9248 -1.2992  1.6149
  236SOL     OW  706   1.555   2.989   2.807  0.2635 -0.2002 -0.1103
  236SOL    HW1  707   1.654   3.007   2.800 -0.7984  0.0336  0.5038
  236SOL    HW2  708   1.534   2.917   2.876 -2.1903 -1.2099  3.6542
  237SOL     OW  709   1.237   0.407   1.515  0.4941  0.5562  0.2657
  237SOL    HW1  710   1.289   0.424   1.597  0.9906  0.5775 -3.8466
  237SOL    HW2  711   1.256   0.312   1.477  0.2372  2.1562 -1.0551
  238SOL     OW  712   1.528   0.456   0.054  0.6791 -0.5668  0.0910
  238SOL    HW1  713   1.598   0.522   0.094  0.5958  1.0330 -0.0061
  238SOL    HW2  714   1.440   0.505   0.034  0.4107  0.7331 -0.9093
  239SOL     OW  715   0.037   0.824   2.663  0.1074  0.1405 -0.3945
  239SOL    HW1  716   3.070   0.882   2.632  1.0562 -2.1402 -0.2681
  239SOL    HW2  717   0.104   0.879   2.721 -0.1100 -1.3873  1.0851
  240SOL     OW  718   2.457   2.508   0.723  0.1380 -0.1051  0.0354
  240SOL    HW1  719   2.458   2.435   0.793  0.6146 -1.3899  1.4950
  240SOL    HW2  720   2.395   2.481   0.646 -2.4328 -1.7888 -2.9013
  241SOL     OW  721   1.000   1.360   1.132  0.3685 -0.5492  0.1471
  241SOL    HW1  722   0.994   1.339   1.232  0.3083 -0.2712 -0.2721
  241SOL    HW2  723   0.947   1.292   1.075  1.2470 -0.5853 -0.6658
  242SOL     OW  724   0.667   0.605   0.762  0.3169  0.1494 -0.5952
  242SOL    HW1  725   0.684   0.676   0.692  2.2744  2.4172 -2.0842
  242SOL    HW2  726   0.751   0.594   0.824  2.9980  1.5553 -0.6214
  243SOL     OW  727   0.351   0.499   0.975 -0.2487 -0.5362  0.2145
  243SOL    HW1  728   0.345   0.597   1.016 -0.1978  2.3952  2.3884
  243SOL    HW2  729   0.445   0.465   0.982 -2.3564  1.0121 -1.4486
  244SOL     OW  730   0.944   0.129   0.479  0.3476  0.7222 -0.2894
  244SOL    HW1  731   0.887   0.205   0.454  1.2375 -0.3857  0.0145
  244SOL    HW2  732   1.043   0.151   0.493  0.3466  1.7059  2.7203
  245SOL     OW  733   2.054   0.801   0.250  0.2046 -0.0394 -0.0521
  245SOL    HW1  734   2.036   0.795   0.149 -0.0606  4.3352 -2.2400
  245SOL    HW2  735   2.148   0.841   0.263  2.2397  2.5572 -1.1251
  246SOL     OW  736   0.132   0.690   1.669  0.2726  0.0429  0.3739
  246SOL    HW1  737   0.199   0.746   1.723  1.7123 -0.5810  0.8733
  246SOL    HW2  738   0.127   0.723   1.572 -0.4236 -1.1792 -1.5697
  247SOL     OW  739   0.655   2.937   2.076  0.0694 -0.1321  0.1678
  247SOL    HW1  740   0.626   2.981   1.988 -0.7423 -2.8576  2.1490
  247SOL    HW2  741   0.756   2.936   2.094  1.6179 -3.7842  1.7519
  248SOL     OW  742   0.750   1.601   2.279 -0.2079 -0.0919 -0.6343
  248SOL    HW1  743   0.767   1.604   2.380  0.2653 -2.6879  0.8700
  248SOL    HW2  744   0.817   1.537   2.238  1.1194  0.3499  1.3773
  249SOL     OW  745   0.578   3.062   0.001  0.1470  0.0819  0.5171
  249SOL    HW1  746   0.521   3.064   3.027  1.2109  2.0540  2.1289
  249SOL    HW2  747   0.575   2.975   0.053 -1.7207  2.1595  1.2323
  250SOL     OW  748   0.571   0.473   2.379 -0.9777  0.4627 -0.4548
  250SOL    HW1  749   0.658   0.462   2.427 -0.6960  2.0228 -0.1320
  250SOL    HW2  750   0.516   0.383   2.379 -2.4209 -0.6710  0.2882
  251SOL     OW  751   3.042   1.526   1.186 -0.0629  0.2162  0.1027
  251SOL    HW1  752   2.982   1.539   1.103 -0.2384  0.7236 -1.4995
  251SOL    HW2  753   3.034   1.431   1.220  0.8576  0.0640 -1.7683
  252SOL     OW  754   1.885   3.068   1.842 -0.2946  0.0533 -0.2464
  252SOL    HW1  755   1.921   3.049   1.937  0.2851  0.8566  1.5208
  252SOL    HW2  756   1.850   2.985   1.796  2.3412  1.2738  0.2602
  253SOL     OW  757   2.127   1.560   2.489 -0.2078 -0.4250  0.3512
  253SOL    HW1  758   2.027   1.582   2.471 -0.9112 -0.2015 -0.5146
  253SOL    HW2  759   2.165   1.600   2.576 -0.0831 -0.2517 -0.7889
  254SOL     OW  760   0.582   1.545   1.846  0.6843  0.3822  0.3544
  254SOL    HW1  761   0.527   1.616   1.799  1.6169 -2.1205 -0.6852
  254SOL    HW2  762   0.524   1.485   1.904  0.1792  0.3384 -2.2423
  255SOL     OW  763   0.892   0.034   1.834 -0.1760  0.2683 -0.0376
  255SOL    HW1  764   0.995   0.027   1.816  0.8637  0.0421 -1.3333
  255SOL    HW2  765   0.882   0.082   1.921 -0.4866 -2.1009  0.2102
  256SOL     OW  766   0.131   2.409   0.739  0.4772  0.0432  0.2279
  256SOL    HW1  767   0.232   2.395   0.751  1.0962 -0.2215  1.0783
  256SOL    HW2  768   0.066   2.402   0.821 -3.4064 -1.1714 -0.4540
  257SOL     OW  769   0.272   2.612   2.304  0.0355 -0.3371 -0.1099
  257SOL    HW1  770   0.232   2.520   2.320 -0.3918  0.1755 -0.1785
  257SOL    HW2  771   0.360   2.624   2.356  0.3182  0.3255 -1.4591
  258SOL     OW  772   1.402   1.650   1.981  0.1776 -0.3145  0.3410
  258SOL    HW1  773   1.442   1.562   1.947  1.0481  1.6467  1.8874
  258SOL    HW2  774   1.378   1.711   1.900 -0.2650  0.2946 -2.2010
  259SOL     OW  775   1.191   1.505   2.106  0.2102 -0.4473 -0.3307
  259SOL    HW1  776   1.118   1.576   2.093 -2.0883 -0.6999  1.6218
  259SOL    HW2  777   1.277   1.538   2.068 -2.4164  0.4248 -0.7117
  260SOL     OW  778   2.371   0.433   2.225  0.4490 -0.0751  0.4382
  260SOL    HW1  779   2.282   0.445   2.180 -0.3449 -1.7886  1.5831
  260SOL    HW2  780   2.431   0.517   2.219  0.7169  2.0850 -0.4017
  261SOL     OW  781   0.832   1.231   0.764 -0.4747  0.5416  0.2714
  261SOL    HW1  782   0.767   1.288   0.713 -1.9166  2.5920  2.9304
  261SOL    HW2  783   0.891   1.179   0.701 -1.1106  0.8450  1.1106
  262SOL     OW  784   2.229   2.048   2.608 -0.9112 -0.1385  0.4000
  262SOL    HW1  785   2.324   2.020   2.633 -0.7551  1.9251  0.9476
  262SOL    HW2  786   2.183   2.101   2.682  0.0446  1.2246 -2.4156
  263SOL     OW  787   0.864   2.209   1.144  0.5714  0.3966 -0.5213
  263SOL    HW1  788   0.883   2.130   1.208 -2.3650  0.1604  0.2124
  263SOL    HW2  789   0.803   2.176   1.068 -2.8425  0.6878 -0.1184
  264SOL     OW  790   3.038   2.226   0.334 -0.0802  0.2435 -0.2930
  264SOL    HW1  791   3.003   2.307   0.385 -2.7828 -0.5598  3.3074
  264SOL    HW2  792   0.005   2.186   0.392 -0.2371 -0.8484 -2.7944
  265SOL     OW  793   1.333   1.235   2.971 -0.1175 -0.5065 -0.1477
  265SOL    HW1  794   1.355   1.135   2.987  0.6862 -1.6949  3.0388
  265SOL    HW2  795   1.259   1.251   2.903 -2.3440  1.3810 -2.0748
  266SOL     OW  796   0.815   1.952   2.348  0.4903  0.0631 -0.0699
  266SOL    HW1  797   0.856   2.041   2.327 -0.5426 -0.8897  0.8918
  266SOL    HW2  798   0.731   1.931   2.287 -3.1153  1.0797 -0.0179
  267SOL     OW  799   2.545   1.101   2.561  0.1728 -0.0338 -0.2602
  267SOL    HW1  800   2.554   1.118   2.662 -1.2056  0.4251  0.1577
  267SOL    HW2  801   2.475   1.174   2.537 -1.0217  1.0361 -1.5432
  268SOL     OW  802   0.951   1.379   0.261  0.3845  0.1110 -0.0883
  268SOL    HW1  803   1.028   1.345   0.200  0.4068  2.5386  0.0717
  268SOL    HW2  804   0.991   1.373   0.356 -1.6483 -0.1302  0.8972
  269SOL     OW  805   2.710   1.789   2.528  0.0159  0.5891 -0.6948
  269SOL    HW1  806   2.667   1.861   2.472  2.1332  1.3269 -0.4889
  269SOL    HW2  807   2.810   1.819   2.544 -0.0995 -1.0647  2.1609
  270SOL     OW  808   0.588   2.335   0.006  0.6587  0.0155 -0.0946
  270SOL    HW1  809   0.647   2.366   3.040 -2.5027 -1.4646  1.8864
  270SOL    HW2  810   0.499   2.304   3.074 -0.9696  2.6068 -2.9182
  271SOL     OW  811   0.301   0.556   0.223  0.1451 -0.0427 -0.2217
  271SOL    HW1  812   0.261   0.462   0.239  0.2072 -0.7025  0.2580
  271SOL    HW2  813   0.231   0.628   0.244 -1.0541 -1.1414  2.8268
  272SOL     OW  814   2.929   0.162   0.272 -0.0486 -0.1327  0.0435
  272SOL    HW1  815   3.008   0.225   0.260 -0.8544  2.9462 -1.8583
  272SOL    HW2  816   2.844   0.215   0.288 -1.0523 -0.7375 -1.1446
  273SOL     OW  817   0.373   3.102   1.915  0.2063 -0.2572 -0.1989
  273SOL    HW1  818   0.447   3.038   1.887  3.6587  0.2768 -0.8917
  273SOL    HW2  819   0.310   3.063   1.982 -0.6212  1.0664  1.2978
  274SOL     OW  820   0.002   0.529   1.421 -0.2699 -0.5725 -0.1001
  274SOL    HW1  821   3.081   0.475   1.497  1.0425 -0.3692 -1.3649
  274SOL    HW2  822   0.104   0.534   1.424  1.9588  0.2183 -0.1248
  275SOL     OW  823   0.682   1.515   1.070  0.5153  0.3087  0.4660
  275SOL    HW1  824   0.752   1.511   1.002  0.9565 -1.9734  1.5474
  275SOL    HW2  825   0.683   1.429   1.127 -0.6054  0.5508  3.2809
  276SOL     OW  826   0.652   1.187   2.088  0.3847 -0.8922 -0.4600
  276SOL    HW1  827   0.585   1.266   2.088 -1.5562  0.1849  1.3169
  276SOL    HW2  828   0.647   1.139   2.181  0.7322 -2.2764 -1.0015
  277SOL     OW  829   1.129   1.971   1.885 -0.1097  0.1736  0.3300
  277SOL    HW1  830   1.195   1.984   1.962  0.2901 -1.1659  0.6185
  277SOL    HW2  831   1.136   2.059   1.835  0.3938 -2.9407  0.6263
  278SOL     OW  832   2.409   2.719   2.159 -0.6008 -0.1529 -0.1927
  278SOL    HW1  833   2.386   2.818   2.157  0.8864  1.5869 -0.5000
  278SOL    HW2  834   2.327   2.666   2.179  4.1916  0.6327 -0.1627
  279SOL     OW  835   1.127   1.982   3.082 -0.3474 -0.2548 -0.3294
  279SOL    HW1  836   1.215   2.001   0.017 -1.3081 -1.8934 -0.1264
  279SOL    HW2  837   1.070   2.066   3.070 -1.9409 -2.8283  0.2926
  280SOL     OW  838   1.288   0.542   0.416 -0.1284  0.1146 -0.1572
  280SOL    HW1  839   1.338   0.461   0.381  1.1437 -1.5255  0.7612
  280SOL    HW2  840   1.344   0.628   0.417  0.6846  1.6355  1.2152
  281SOL     OW  841   0.568   0.585   1.682 -0.2395 -0.0758  0.1864
  281SOL    HW1  842   0.517   0.675   1.657  0.6116  3.3693  0.8505
  281SOL    HW2  843   0.525   0.499   1.655 -0.0129 -0.1229 -0.7089
  282SOL     OW  844   0.062   2.637   0.614 -0.5555 -0.0053  0.2096
  282SOL    HW1  845   0.049   2.550   0.669 -0.2939  0.6313  2.9362
  282SOL    HW2  846   0.098   2.624   0.520  3.3132  0.7190 -0.0318
  283SOL     OW  847   1.372   1.881   1.747 -0.1075 -0.1779  0.0573
  283SOL    HW1  848   1.326   1.861   1.657 -0.5931 -4.1541 -1.1319
  283SOL    HW2  849   1.309   1.928   1.810  2.1411 -0.5650 -0.9406
  284SOL     OW  850   2.793   2.831   1.426 -0.2350  0.2066 -0.0611
  284SOL    HW1  851   2.809   2.919   1.481  0.5793  1.7938 -0.0022
  284SOL    HW2  852   2.880   2.809   1.379 -1.8231  1.5608  3.2421
  285SOL     OW  853   0.168   2.567   0.360  0.1780  0.5483 -0.1249
  285SOL    HW1  854   0.102   2.569   0.283 -1.8874 -0.9818  0.7201
  285SOL    HW2  855   0.214   2.476   0.357 -1.3676  1.0511 -1.0893
  286SOL     OW  856   0.493   2.793   1.216 -0.6006  0.4140  0.3425
  286SOL    HW1  857   0.489   2.870   1.285  0.8404 -1.0453  0.7027
  286SOL    HW2  858   0.412   2.739   1.231  1.3039  0.4581 -0.8076
  287SOL     OW  859   0.669   1.378   0.610 -0.8850 -0.1812  0.1798
  287SOL    HW1  860   0.640   1.295   0.553 -1.9307 -1.0941  0.1681
  287SOL    HW2  861   0.594   1.441   0.630  1.4085  0.2083  1.6097
  288SOL     OW  862   1.433   2.166   2.438 -0.1850 -0.1978  0.1071
  288SOL    HW1  863   1.454   2.090   2.501 -1.6660  1.6694  1.3860
  288SOL    HW2  864   1.518   2.211   2.401 -0.4820  0.1169 -0.6642
  289SOL     OW  865   2.499   1.620   0.132 -0.3289 -0.3367  0.8716
  289SOL    HW1  866   2.400   1.623   0.160 -1.1366 -1.5830 -0.2442
  289SOL    HW2  867   2.525   1.529   0.090  1.9526  3.6988  3.9725
  290SOL     OW  868   1.234   1.419   0.972  1.0811 -0.1720 -0.5980
  290SOL    HW1  869   1.305   1.492   0.993  0.8928  0.2567  0.7193
  290SOL    HW2  870   1.166   1.431   1.050 -2.4858 -0.7560  3.0370
  291SOL     OW  871   1.348   0.955   3.065 -0.1555 -0.5479  0.1480
  291SOL    HW1  872   1.303   0.870   3.027 -0.7139 -0.9618  0.4256
  291SOL    HW2  873   1.451   0.942   3.057 -1.4346  1.2368 -0.2906
  292SOL     OW  874   1.325   1.561   0.261  0.1915 -0.2771  0.1674
  292SOL    HW1  875   1.259   1.634   0.285  1.0592  1.4395 -1.0953
  292SOL    HW2  876   1.368   1.583   0.170 -0.3783  0.6865  0.3717
  293SOL     OW  877   1.517   0.046   1.280  0.3133  0.0862  0.7611
  293SOL    HW1  878   1.522   3.092   1.362 -0.3375 -0.1041 -2.0341
  293SOL    HW2  879   1.449   0.117   1.297  0.9493  1.7253 -0.5567
  294SOL     OW  880   2.153   1.087   2.619  0.0185  0.1475 -0.6301
  294SOL    HW1  881   2.061   1.114   2.666 -1.6984 -0.3655  1.6994
  294SOL    HW2  882   2.185   1.163   2.564 -0.1226  1.0898 -0.7338
  295SOL     OW  883   1.719   1.889   2.940 -0.5212 -0.3919 -0.5603
  295SOL    HW1  884   1.659   1.877   3.024 -2.0781 -2.3828  0.5607
  295SOL    HW2  885   1.695   1.825   2.868 -0.0288  0.9851 -0.3117
  296SOL     OW  886   1.382   1.226   1.438 -0.1591  0.0290  0.0417
  296SOL    HW1  887   1.288   1.231   1.482 -2.3423  2.4533  0.3698
  296SOL    HW2  888   1.460   1.254   1.501  2.7281 -1.2385 -1.8430
  297SOL     OW  889   0.364   0.830   2.134 -0.3871 -0.3319  0.0292
  297SOL    HW1  890   0.434   0.787   2.076 -3.4043 -0.5667  0.6628
  297SOL    HW2  891   0.363   0.782   2.224 -3.4759  0.7839 -0.0835
  298SOL     OW  892   1.526   1.845   1.347  0.2392 -0.7826  0.0094
  298SOL    HW1  893   1.530   1.758   1.393  2.2362  0.1933 -1.1045
  298SOL    HW2  894   1.584   1.917   1.391 -2.1545  0.2279  0.2879
  299SOL     OW  895   1.179   3.093   2.690 -0.2792  0.4144  0.1892
  299SOL    HW1  896   1.233   3.011   2.673 -0.9648 -1.4135  1.4249
  299SOL    HW2  897   1.114   3.093   2.771  0.0750 -0.5073  0.7552
  300SOL     OW  898   2.687   2.076   0.454 -0.4010  0.1965  0.8162
  300SOL    HW1  899   2.763   2.093   0.519 -1.9976 -1.3804  0.5002
  300SOL    HW2  900   2.636   2.164   0.443  2.7106 -0.1662  1.2745
  301SOL     OW  901   2.314   0.308   2.476 -0.1141  0.5689  0.2973
  301SOL    HW1  902   2.352   0.386   2.422  1.3357  0.7457 -2.0420
  301SOL    HW2  903   2.377   0.287   2.554  1.3000 -0.5080 -1.8777
  302SOL     OW  904   2.308   2.201   3.014 -0.4646 -0.2141  0.6795
  302SOL    HW1  905   2.375   2.119   3.007 -1.7094 -0.8605  0.2409
  302SOL    HW2  906   2.351   2.291   3.033 -1.7270 -1.2211  1.5025
  303SOL     OW  907   3.047   2.449   2.547 -0.3550 -0.1583  0.0201
  303SOL    HW1  908   3.071   2.532   2.601 -0.2204  1.1523  1.5716
  303SOL    HW2  909   3.006   2.372   2.607 -1.5329 -1.1395  0.4320
  304SOL     OW  910   0.186   1.549   1.086  0.2826  0.8525  0.1618
  304SOL    HW1  911   0.092   1.553   1.125  2.3533  0.9510  0.7753
  304SOL    HW2  912   0.239   1.633   1.102 -0.3604  1.4765  0.7396
  305SOL     OW  913   3.101   0.572   1.879 -0.6584 -0.3856  0.2791
  305SOL    HW1  914   0.007   0.604   1.783 -1.5623  1.4082  0.5293
  305SOL    HW2  915   3.002   0.566   1.901  2.4432 -0.6431  0.6247
  306SOL     OW  916   1.305   1.317   0.589 -0.5503 -0.4099 -0.5422
  306SOL    HW1  917   1.278   1.402   0.633 -0.2062 -3.5422  0.1550
  306SOL    HW2  918   1.358   1.329   0.503  0.5678 -2.2059  2.0368
  307SOL     OW  919   0.170   0.022   0.640 -0.1521  0.0206 -0.3470
  307SOL    HW1  920   0.173   0.009   0.536 -0.1695 -1.9758 -3.2030
  307SOL    HW2  921   0.144   3.045   0.682  2.4080  1.5176  0.2262
  308SOL     OW  922   0.147   1.187   2.243  0.0029 -0.7342  0.1481
  308SOL    HW1  923   0.178   1.189   2.342 -0.7607  0.9049  0.1767
  308SOL    HW2  924   0.113   1.096   2.216 -0.3628 -0.9951 -0.4349
  309SOL     OW  925   2.956   1.869   2.556  0.9280  0.0815  0.1279
  309SOL    HW1  926   3.044   1.828   2.527  1.1897 -0.1783 -0.1184
  309SOL    HW2  927   2.954   1.888   2.657 -0.3404  0.0170  0.9016
  310SOL     OW  928   2.273   0.588   0.048  0.1169 -0.5313  0.2381
  310SOL    HW1  929   2.366   0.615   0.087  1.1272 -2.3566  1.1783
  310SOL    HW2  930   2.261   0.621   3.059 -1.6606 -0.1291 -1.9955
  311SOL     OW  931   2.043   0.797   3.060 -0.0098 -0.7061  0.3730
  311SOL    HW1  932   2.105   0.884   3.051  2.2174  0.2435 -1.3710
  311SOL    HW2  933   2.081   0.715   3.014  1.0799  0.2716  1.9573
  312SOL     OW  934   1.420   1.916   2.612  0.1294  0.2693 -0.0316
  312SOL    HW1  935   1.427   1.852   2.532  2.0991 -0.2029 -1.1980
  312SOL    HW2  936   1.338   1.878   2.663 -0.5903  0.3768  3.4138
  313SOL     OW  937   0.229   0.550   0.552  0.0591 -0.4373  0.0940
  313SOL    HW1  938   0.299   0.482   0.527 -1.0495  4.3564  0.4041
  313SOL    HW2  939   0.163   0.517   0.627 -1.3610 -0.6049  0.4167
  314SOL     OW  940   0.452   1.568   1.297 -0.6084  1.0206  0.0396
  314SOL    HW1  941   0.514   1.526   1.227 -0.8026 -0.8347 -0.8117
  314SOL    HW2  942   0.499   1.605   1.379 -0.7025 -0.1279 -0.6215
  315SOL     OW  943   0.752   1.746   1.976  0.0184  0.0857  0.0755
  315SOL    HW1  944   0.693   1.673   1.940  1.6226  0.3168  1.1444
  315SOL    HW2  945   0.695   1.825   2.004  0.1191 -1.0308 -2.1536
  316SOL     OW  946   0.366   2.650   0.676 -0.0742 -0.0696 -0.2176
  316SOL    HW1  947   0.261   2.639   0.673 -2.6714 -0.4349 -0.3282
  316SOL    HW2  948   0.399   2.748   0.666  0.2914  0.1457  0.0175
  317SOL     OW  949   2.441   0.126   1.347  0.3014  0.4715 -0.0898
  317SOL    HW1  950   2.453   0.044   1.288  2.2601 -1.4372  0.7972
  317SOL    HW2  951   2.388   0.195   1.295  2.4913 -2.7603 -0.5879
  318SOL     OW  952   1.637   2.975   0.570  0.1667 -0.5938 -0.0339
  318SOL    HW1  953   1.583   3.043   0.624 -1.4422  0.6418 -0.9715
  318SOL    HW2  954   1.731   3.010   0.546  0.5032 -0.5239  2.2543
  319SOL     OW  955   1.765   0.561   2.731 -0.1723 -0.4749  0.3941
  319SOL    HW1  956   1.741   0.492   2.662  0.3694  1.9294  0.9584
  319SOL    HW2  957   1.864   0.555   2.753  0.0030 -0.3769 -0.8555
  320SOL     OW  958   2.873   2.046   1.743 -0.1427 -0.6980 -0.1404
  320SOL    HW1  959   2.853   2.108   1.823  1.2944 -2.8271 -2.2081
  320SOL    HW2  960   2.792   1.986   1.723 -0.9322  0.6481 -2.7271
  321SOL     OW  961   0.094   2.422   3.074 -0.0506  1.0161  0.3608
  321SOL    HW1  962   0.134   2.514   3.087  0.6525 -0.6266  2.3915
  321SOL    HW2  963   0.008   2.402   3.023  2.9664 -1.5204  1.6946
  322SOL     OW  964   2.770   0.675   2.479  0.0989 -0.3529  0.3681
  322SOL    HW1  965   2.759   0.765   2.426  0.1684  1.1999 -0.3108
  322SOL    HW2  966   2.793   0.603   2.412 -0.1783 -1.7785  0.3554
  323SOL     OW  967   2.189   1.199   0.586  0.2455  0.0650 -0.2008
  323SOL    HW1  968   2.260   1.228   0.654  0.9415 -2.2244  2.8084
  323SOL    HW2  969   2.199   1.101   0.581 -0.9262  0.7007 -2.4487
  324SOL     OW  970   0.206   0.372   1.186 -0.1888 -0.1846  0.4585
  324SOL    HW1  971   0.250   0.418   1.108 -2.0098 -0.0355  0.1325
  324SOL    HW2  972   0.248   0.405   1.271  0.4739 -1.1878  0.8514
  325SOL     OW  973   2.755   0.153   1.680  0.0527 -0.1358  0.0071
  325SOL    HW1  974   2.739   0.132   1.779  0.7526  0.2067 -0.5626
  325SOL    HW2  975   2.670   0.179   1.630  1.1654 -0.4919 -1.1308
  326SOL     OW  976   1.524   2.761   0.188  0.1386  0.0808 -0.3019
  326SOL    HW1  977   1.539   2.666   0.214  0.8641  0.2535 -0.6915
  326SOL    HW2  978   1.593   2.781   0.113 -0.9040  0.8317 -0.4490
  327SOL     OW  979   1.776   1.940   0.243 -0.5470  0.1778  0.0444
  327SOL    HW1  980   1.710   2.014   0.274 -2.2416 -0.8775  1.0636
  327SOL    HW2  981   1.794   1.870   0.315 -1.6098 -0.2114 -0.0455
  328SOL     OW  982   3.045   2.139   1.994 -0.1808 -0.1519  0.1620
  328SOL    HW1  983   2.950   2.118   2.024  1.0525  1.1604 -1.5647
  328SOL    HW2  984   3.088   2.068   1.932 -1.8737 -0.0416  0.0775
  329SOL     OW  985   3.003   2.261   1.180 -0.2120 -0.1592 -0.3630
  329SOL    HW1  986   2.985   2.323   1.258  2.7187  4.1396 -2.7266
  329SOL    HW2  987   2.981   2.161   1.195  3.8386 -1.5865 -1.3026
  330SOL     OW  988   2.590   0.845   2.632 -0.2611 -0.3330  0.0472
  330SOL    HW1  989   2.615   0.769   2.566 -2.1022  0.9291  1.5283
  330SOL    HW2  990   2.581   0.935   2.586  2.8849 -1.2099 -0.6547
  331SOL     OW  991   2.371   1.783   0.946  0.0312  0.5007 -0.2339
  331SOL    HW1  992   2.313   1.865   0.924 -1.7136  0.9292 -0.2122
  331SOL    HW2  993   2.402   1.745   0.858  1.6476 -0.5693 -2.2404
  332SOL     OW  994   0.356   2.872   0.906 -0.2787  0.4435 -0.4128
  332SOL    HW1  995   0.389   2.950   0.963 -1.0354  0.6747 -0.8564
  332SOL    HW2  996   0.306   2.807   0.966 -3.3047 -1.3084  2.2418
  333SOL     OW  997   2.808   1.694   2.269 -0.0088  0.2706 -0.1830
  333SOL    HW1  998   2.890   1.751   2.291 -1.7172  2.4910  1.2408
  333SOL    HW2  999   2.746   1.695   2.350  1.8656 -0.9998  1.5801
  334SOL     OW 1000   0.624   1.028   0.861  0.8354 -0.5258 -0.4205
  334SOL    HW1 1001   0.634   0.982   0.948 -2.6828  0.7003 -3.2132
  334SOL    HW2 1002   0.676   1.113   0.860 -0.4065  1.1819  1.9348
  335SOL     OW 1003   3.080   1.752   2.308 -0.4651 -0.1297 -0.2319
  335SOL    HW1 1004   3.094   1.688   2.386  1.9648  1.9167  0.4243
  335SOL    HW2 1005   0.016   1.717   2.223  1.5312  0.6737 -0.3590
  336SOL     OW 1006   2.281   2.966   2.198  0.4181  0.0113  0.3304
  336SOL    HW1 1007   2.193   2.955   2.249 -0.9543  1.0127  0.6613
  336SOL    HW2 1008   2.263   3.021   2.117  0.0384 -1.8403  1.0664
  337SOL     OW 1009   0.878   0.621   0.928  0.2324  0.0739  0.2840
  337SOL    HW1 1010   0.827   0.662   1.006 -0.9297 -2.0441  2.9611
  337SOL    HW2 1011   0.970   0.589   0.954 -1.9300  3.9647 -0.5028
  338SOL     OW 1012   1.513   1.824   1.074  0.3288 -0.1818  0.3079
  338SOL    HW1 1013   1.496   1.833   1.174 -2.2655  0.0626  1.3232
  338SOL    HW2 1014   1.481   1.907   1.029  0.4861 -2.3382  2.2138
  339SOL     OW 1015   0.384   1.784   1.091 -0.2251 -0.3306 -0.2806
  339SOL    HW1 1016   0.407   1.722   1.169 -2.7931  2.0259  0.9861
  339SOL    HW2 1017   0.339   1.866   1.133 -1.2942  1.9435 -0.6753
  340SOL     OW 1018   0.934   2.760   1.843 -0.8936 -0.7564 -0.3015
  340SOL    HW1 1019   1.017   2.808   1.800 -0.7357 -0.8218  0.3017
  340SOL    HW2 1020   0.934   2.663   1.815 -0.2409  1.1790 -0.5067
  341SOL     OW 1021   2.003   1.532   0.804  0.3361 -0.1460 -0.1806
  341SOL    HW1 1022   1.930   1.459   0.818 -1.0726  1.5068  0.3542
  341SOL    HW2 1023   2.057   1.523   0.714 -0.5825  1.1753 -0.2560
  342SOL     OW 1024   2.273   0.983   0.271 -0.4309 -0.2930 -0.1544
  342SOL    HW1 1025   2.374   1.004   0.264  0.2039 -1.9976  1.3293
  342SOL    HW2 1026   2.220   1.059   0.234 -1.7944 -0.2545 -0.9889
  343SOL     OW 1027   1.999   0.047   1.002  0.0475 -0.5844  0.0974
  343SOL    HW1 1028   1.996   0.076   1.100  0.7730  1.4011  0.5449
  343SOL    HW2 1029   2.068   3.079   1.000 -0.4236  2.1006  0.6092
  344SOL     OW 1030   2.655   0.440   0.037 -0.0825 -0.4206  0.0202
  344SOL    HW1 1031   2.740   0.404   3.099  0.1393 -0.1189 -1.5592
  344SOL    HW2 1032   2.567   0.392   0.019  0.2073  2.4335  0.6584
  345SOL     OW 1033   0.959   2.387   1.883  0.5200 -0.3962 -0.0619
  345SOL    HW1 1034   0.925   2.415   1.790  0.0626  0.9770  1.2093
  345SOL    HW2 1035   0.884   2.352   1.939 -0.0820  1.2113  0.1831
  346SOL     OW 1036   2.436   2.265   0.883 -0.0730  0.0668  0.0307
  346SOL    HW1 1037   2.359   2.299   0.933  1.5264 -0.9841 -2.1562
  346SOL    HW2 1038   2.503   2.211   0.938 -0.0014  1.1451 -0.6443
  347SOL     OW 1039   2.042   2.988   1.569  0.3759 -0.2045 -0.2677
  347SOL    HW1 1040   2.096   3.070   1.599 -0.1697 -0.6357  1.2908
  347SOL    HW2 1041   1.950   3.013   1.528  0.5004  1.3766 -0.8706
  348SOL     OW 1042   0.855   1.017   1.440  0.7346 -0.1461 -0.3180
  348SOL    HW1 1043   0.879   1.075   1.361  0.3581 -0.9713 -0.3437
  348SOL    HW2 1044   0.756   1.022   1.458  2.1152  0.3729  0.3042
  349SOL     OW 1045   2.465   0.497   2.859  0.0417  0.1544 -0.1377
  349SOL    HW1 1046   2.502   0.591   2.835 -1.8417  3.2930 -2.0457
  349SOL    HW2 1047   2.519   0.459   2.943  2.4264 -2.9942  0.9869
  350SOL     OW 1048   2.127   2.146   2.827  0.0191  0.2845 -0.2928
  350SOL    HW1 1049   2.037   2.133   2.867  1.3573 -2.6463 -0.1870
  350SOL    HW2 1050   2.190   2.174   2.900  0.9588  0.3894  1.4971
  351SOL     OW 1051   1.050   0.525   0.562 -0.6988  0.0538  0.1080
  351SOL    HW1 1052   1.053   0.611   0.614 -1.5638 -2.8011  1.4358
  351SOL    HW2 1053   1.142   0.513   0.517 -0.4995  0.4665 -1.5377
  352SOL     OW 1054   1.499   2.090   2.794 -0.2785  0.0060 -0.4008
  352SOL    HW1 1055   1.563   2.066   2.870 -1.6417 -0.1342  1.9865
  352SOL    HW2 1056   1.495   2.021   2.717  1.4518 -1.8134 -2.0121
  353SOL     OW 1057   0.614   1.020   2.916  0.3169  0.3567  0.8192
  353SOL    HW1 1058   0.605   1.035   2.812 -0.8530 -0.3613 -0.7064
  353SOL    HW2 1059   0.600   1.107   2.967  1.8666 -0.3470  1.3292
  354SOL     OW 1060   0.509   2.595   2.809 -0.3770 -0.4351 -0.2881
  354SOL    HW1 1061   0.515   2.493   2.825 -0.2102  1.2927  0.2017
  354SOL    HW2 1062   0.530   2.651   2.889 -0.2918 -0.1337 -2.3059
  355SOL     OW 1063   2.737   2.690   1.669  0.0851 -0.3430 -0.0664
  355SOL    HW1 1064   2.748   2.739   1.760 -1.3571 -0.7813 -1.8826
  355SOL    HW2 1065   2.784   2.735   1.588 -0.1921  1.9298 -2.2826
  356SOL     OW 1066   2.671   1.200   1.309  0.0399 -0.3404 -0.3735
  356SOL    HW1 1067   2.620   1.212   1.399 -0.6899  1.4404  1.0473
  356SOL    HW2 1068   2.623   1.244   1.235  0.1794 -1.0622  4.2414
  357SOL     OW 1069   2.800   0.448   1.393  0.0551  0.4128 -0.3120
  357SOL    HW1 1070   2.797   0.479   1.487 -2.4972  1.0352 -0.1082
  357SOL    HW2 1071   2.878   0.387   1.376  0.4161  2.4094 -0.7079
  358SOL     OW 1072   0.603   2.000   1.464  1.0372  0.4650 -0.7697
  358SOL    HW1 1073   0.638   2.074   1.405 -0.6470  2.5997  0.8117
  358SOL    HW2 1074   0.517   2.029   1.513  0.5955 -0.5217 -1.8791
  359SOL     OW 1075   2.672   2.805   2.582 -0.3733  0.2114 -0.0844
  359SOL    HW1 1076   2.582   2.847   2.578  0.4930  0.8487 -0.3994
  359SOL    HW2 1077   2.678   2.744   2.502 -1.5551 -1.2670  0.1215
  360SOL     OW 1078   1.194   0.920   1.748 -0.6226  0.0125 -0.5795
  360SOL    HW1 1079   1.107   0.875   1.720  1.6618  1.1351 -0.7282
  360SOL    HW2 1080   1.266   0.849   1.769 -2.0660  1.2602  0.0940
  361SOL     OW 1081   2.326   0.137   0.682 -0.0603 -0.6612  0.0639
  361SOL    HW1 1082   2.328   0.240   0.683  3.1667  2.7270 -1.1123
  361SOL    HW2 1083   2.307   0.107   0.587  0.4133  0.9895  2.4355
  362SOL     OW 1084   0.808   3.069   0.640 -0.2391 -0.4257 -0.5759
  362SOL    HW1 1085   0.851   0.031   0.581  1.3663 -2.8397  1.1621
  362SOL    HW2 1086   0.855   3.063   0.729  2.5927  1.3373 -1.1567
  363SOL     OW 1087   0.888   1.551   0.581 -0.0141 -0.0241 -0.6770
  363SOL    HW1 1088   0.820   1.476   0.588 -0.2615 -0.5806 -1.1394
  363SOL    HW2 1089   0.982   1.512   0.563  1.7620  0.0650 -2.3867
  364SOL     OW 1090   0.299   0.853   1.811 -0.0477 -0.1552 -0.9282
  364SOL    HW1 1091   0.391   0.820   1.846 -1.7432 -0.7051  0.0187
  364SOL    HW2 1092   0.292   0.953   1.829 -1.8677 -1.1651  0.3052
  365SOL     OW 1093   2.782   0.944   0.811  0.5385 -0.3086  0.3298
  365SOL    HW1 1094   2.839   0.968   0.887  0.0278 -2.0371  0.3410
  365SOL    HW2 1095   2.780   0.839   0.795 -1.7503 -0.1222  2.1808
  366SOL     OW 1096   2.592   1.415   0.603 -0.2079  0.1434 -0.3558
  366SOL    HW1 1097   2.582   1.423   0.504  0.7614 -0.5702  2.7108
  366SOL    HW2 1098   2.686   1.377   0.627  2.1243 -0.1620  0.4358
  367SOL     OW 1099   2.083   2.105   2.110  0.0279  0.3073  0.2759
  367SOL    HW1 1100   2.056   2.029   2.045  1.4480 -1.0358  0.1809
  367SOL    HW2 1101   2.017   2.112   2.187  0.1227 -0.0969  0.1415
  368SOL     OW 1102   2.635   1.805   0.889  0.5951  0.3077 -0.2092
  368SOL    HW1 1103   2.546   1.809   0.942  0.3314  0.2874  2.9136
  368SOL    HW2 1104   2.624   1.806   0.785 -0.5315 -0.3909  0.9163
  369SOL     OW 1105   2.078   2.396   2.739 -0.1026 -0.1520 -0.0655
  369SOL    HW1 1106   2.104   2.298   2.736 -1.4886  2.6932 -0.5033
  369SOL    HW2 1107   2.006   2.417   2.811  0.1281 -2.1670  2.0499
  370SOL     OW 1108   0.234   0.089   1.208  0.1860 -0.1827  0.1955
  370SOL    HW1 1109   0.213   0.186   1.191 -0.2828  0.1234 -0.3091
  370SOL    HW2 1110   0.285   0.051   1.125  3.4792 -3.6854 -0.2729
  371SOL     OW 1111   0.626   2.199   0.234  0.0522 -0.4742  0.1216
  371SOL    HW1 1112   0.598   2.242   0.140  1.3701  3.7260  0.1705
  371SOL    HW2 1113   0.586   2.107   0.249  0.0940  2.4136 -0.6887
  372SOL     OW 1114   1.118   1.246   0.070  0.1869  0.1407  0.2439
  372SOL    HW1 1115   1.187   1.250   3.106 -2.2160  1.5117 -1.0128
  372SOL    HW2 1116   1.024   1.245   0.028 -1.2299 -1.6307 -0.0704
  373SOL     OW 1117   1.370   2.491   2.375  0.3623 -0.2270 -0.2196
  373SOL    HW1 1118   1.325   2.409   2.420 -1.3527 -1.5998 -1.2879
  373SOL    HW2 1119   1.442   2.466   2.301  0.0988  0.2056 -1.1451
  374SOL     OW 1120   0.334   2.245   3.083 -0.1057 -0.1546 -0.8623
  374SOL    HW1 1121   0.316   2.172   0.039 -0.9649 -0.9176 -1.9511
  374SOL    HW2 1122   0.255   2.310   3.074  1.3766  1.6719  1.2578
  375SOL     OW 1123   0.538   1.061   1.642 -0.2091 -0.1687  0.0061
  375SOL    HW1 1124   0.617   1.122   1.665  2.1834 -0.1640  2.4346
  375SOL    HW2 1125   0.446   1.104   1.660 -2.7837 -0.1940  1.2571
  376SOL     OW 1126   0.511   2.424   1.707 -0.0306 -0.2132 -0.3964
  376SOL    HW1 1127   0.516   2.435   1.809 -2.4359 -0.6098  0.5756
  376SOL    HW2 1128   0.415   2.401   1.689  1.9030 -0.9408 -0.8861
  377SOL     OW 1129   2.949   1.511   2.597 -0.6945 -0.5427 -0.0277
  377SOL    HW1 1130   2.849   1.525   2.596 -0.2650  1.6997  2.4844
  377SOL    HW2 1131   2.972   1.410   2.608 -0.4403 -0.2613  1.4366
  378SOL     OW 1132   1.278   0.091   0.063  0.3113 -0.0658  0.1577
  378SOL    HW1 1133   1.343   0.113   3.097  0.0091 -2.2298  1.6044
  378SOL    HW2 1134   1.233   0.001   0.047 -0.4555  0.2563  2.0699
  379SOL     OW 1135   1.816   0.705   0.898 -0.5009 -0.0768 -0.0194
  379SOL    HW1 1136   1.809   0.796   0.944  0.2356  1.2239  3.1557
  379SOL    HW2 1137   1.838   0.713   0.802 -0.7288 -0.2375  0.4982
  380SOL     OW 1138   0.247   2.022   1.177 -0.1520  0.2694 -0.4677
  380SOL    HW1 1139   0.221   2.055   1.268  2.3644  1.3460  1.2032
  380SOL    HW2 1140   0.177   2.048   1.108  0.9941  2.7944  2.1416
  381SOL     OW 1141   2.315   1.582   2.275 -0.0739  0.2890 -0.8063
  381SOL    HW1 1142   2.258   1.593   2.363 -4.0206 -0.9778  2.6395
  381SOL    HW2 1143   2.359   1.494   2.267  0.0729  1.5978  1.0508
  382SOL     OW 1144   0.089   0.130   2.502  0.9844  0.4511  0.3150
  382SOL    HW1 1145   0.028   0.047   2.502  2.6169  0.0335 -1.8425
  382SOL    HW2 1146   0.184   0.101   2.523 -1.7140 -0.0981  2.2910
  383SOL     OW 1147   1.801   1.372   2.862  1.0705  0.5647  0.2503
  383SOL    HW1 1148   1.867   1.427   2.916  1.0182 -1.8777  0.1770
  383SOL    HW2 1149   1.714   1.354   2.912  0.9352 -1.0503 -0.6119
  384SOL     OW 1150   1.188   2.145   1.434 -0.3425 -0.3421  0.7628
  384SOL    HW1 1151   1.094   2.129   1.473 -2.3688 -0.8772 -0.8449
  384SOL    HW2 1152   1.255   2.181   1.499  1.8867 -0.1445  1.6967
  385SOL     OW 1153   1.724   2.689   0.870 -0.2096  0.0130 -0.0816
  385SOL    HW1 1154   1.780   2.762   0.919 -1.2498  1.6886  0.3756
  385SOL    HW2 1155   1.755   2.677   0.771 -0.4580 -0.5053  3.6769
  386SOL     OW 1156   1.877   2.285   1.038  0.2605  0.3612  0.2089
  386SOL    HW1 1157   1.919   2.245   0.957 -1.3338  1.1542  0.8218
  386SOL    HW2 1158   1.811   2.356   1.006 -1.2499 -1.4209 -0.0742
  387SOL     OW 1159   3.030   2.146   1.532 -0.1853 -0.1371  0.2981
  387SOL    HW1 1160   2.966   2.141   1.613  0.2925 -1.5543 -1.6821
  387SOL    HW2 1161   2.973   2.175   1.451 -1.2282 -1.2496  1.4942
  388SOL     OW 1162   2.746   0.593   1.637  0.4362 -0.8028  0.2450
  388SOL    HW1 1163   2.759   0.693   1.607 -0.1319  3.3998 -1.3281
  388SOL    HW2 1164   2.648   0.562   1.642  1.6189 -0.3317  1.4600
  389SOL     OW 1165   1.978   0.857   0.522 -0.2890 -0.1470  0.0765
  389SOL    HW1 1166   1.964   0.839   0.423  0.6104  0.5682  0.1624
  389SOL    HW2 1167   1.905   0.813   0.574  0.6407 -1.6286 -1.4365
  390SOL     OW 1168   0.907   1.936   2.659 -0.1678 -0.5984 -0.3284
  390SOL    HW1 1169   0.826   1.976   2.608  0.8109  0.4300  0.9877
  390SOL    HW2 1170   0.981   1.914   2.593 -0.2984 -0.7298  1.0869
  391SOL     OW 1171   0.927   2.204   3.047 -0.2144  0.6167  0.1111
  391SOL    HW1 1172   0.966   2.288   3.014 -0.9619 -1.3630 -0.2859
  391SOL    HW2 1173   0.842   2.191   2.997  0.7083  4.4664 -0.3028
  392SOL     OW 1174   0.148   2.750   1.731 -0.0217  0.0735  0.5816
  392SOL    HW1 1175   0.218   2.736   1.800 -1.0391 -0.0260 -1.3755
  392SOL    HW2 1176   0.078   2.824   1.755  1.7021  0.4388  4.2113
  393SOL     OW 1177   1.597   2.514   0.284 -0.2596 -0.0954  0.1951
  393SOL    HW1 1178   1.671   2.481   0.222  0.9434 -1.4615  1.6868
  393SOL    HW2 1179   1.536   2.439   0.306  2.2417  1.1952 -3.5803
  394SOL     OW 1180   0.773   0.581   2.098 -0.6989 -0.5761  0.0508
  394SOL    HW1 1181   0.819   0.492   2.101 -0.4204  0.4474 -1.2270
  394SOL    HW2 1182   0.673   0.568   2.085 -0.2672 -0.4434 -0.5598
  395SOL     OW 1183   0.284   1.091   1.260  0.7446 -0.1529 -0.0793
  395SOL    HW1 1184   0.216   1.055   1.187  0.7469  0.4107  0.3084
  395SOL    HW2 1185   0.321   1.182   1.222 -1.3272  0.3116 -0.3471
  396SOL     OW 1186   1.857   1.099   2.266 -0.3749 -0.2782  0.4825
  396SOL    HW1 1187   1.840   1.186   2.312  0.9222 -2.7333 -0.0118
  396SOL    HW2 1188   1.901   1.035   2.331 -1.3973  2.6075 -0.2938
  397SOL     OW 1189   0.713   0.380   2.994 -0.0471 -0.1936  0.4530
  397SOL    HW1 1190   0.732   0.467   3.042 -1.7947  1.5956  0.1916
  397SOL    HW2 1191   0.613   0.358   2.984  0.4924 -1.6679 -1.3723
  398SOL     OW 1192   0.702   2.153   2.867  0.2737  0.1755 -0.0357
  398SOL    HW1 1193   0.673   2.251   2.859  0.6337 -0.7190 -0.4266
  398SOL    HW2 1194   0.710   2.114   2.772 -0.4252 -0.7862  0.3044
  399SOL     OW 1195   2.389   1.318   2.906  0.2632  0.0206 -0.3714
  399SOL    HW1 1196   2.398   1.390   2.836  0.8251  2.3195 -0.6685
  399SOL    HW2 1197   2.290   1.289   2.925 -1.1928 -0.8073 -0.5334
  400SOL     OW 1198   2.231   1.281   1.384  0.2769  0.5334  0.0171
  400SOL    HW1 1199   2.298   1.335   1.326 -0.4180 -1.0642 -1.1867
  400SOL    HW2 1200   2.190   1.211   1.323  2.1174  1.0701  2.6894
  401SOL     OW 1201   1.260   1.666   1.245  0.7010 -0.1137 -0.3487
  401SOL    HW1 1202   1.337   1.606   1.241 -0.6150  1.9719 -0.7745
  401SOL    HW2 1203   1.174   1.627   1.290  0.8399  1.5733 -0.3362
  402SOL     OW 1204   0.183   2.520   1.995 -0.1321  0.4005 -0.3059
  402SOL    HW1 1205   0.096   2.536   2.041  0.1320  1.1917 -0.7938
  402SOL    HW2 1206   0.235   2.605   1.967  0.7169  3.1240 -1.9954
  403SOL     OW 1207   0.237   1.174   2.500 -0.2463  0.2443  0.4893
  403SOL    HW1 1208   0.268   1.266   2.530 -1.4766 -1.1576  1.6214
  403SOL    HW2 1209   0.299   1.099   2.533 -0.2098 -2.4508 -0.4123
  404SOL     OW 1210   2.058   1.930   1.282 -0.7230  0.4254  0.2021
  404SOL    HW1 1211   2.135   1.980   1.237 -1.9161 -0.7362 -0.4190
  404SOL    HW2 1212   2.060   1.828   1.271  0.5103  0.6356 -0.1457
  405SOL     OW 1213   2.734   0.225   2.607  0.2327  0.2017  0.0701
  405SOL    HW1 1214   2.780   0.205   2.515  2.9245 -1.1234 -2.9654
  405SOL    HW2 1215   2.713   0.134   2.645 -1.6340  1.0369 -1.5724
  406SOL     OW 1216   0.620   1.270   3.055  0.0121  1.0232  0.0107
  406SOL    HW1 1217   0.588   1.309   0.034  0.7361 -1.5595  0.6593
  406SOL    HW2 1218   0.721   1.278   3.047 -1.1499 -1.5546  1.6893
  407SOL     OW 1219   1.849   2.453   2.875  0.2991  0.1878  0.0540
  407SOL    HW1 1220   1.764   2.409   2.833 -0.6465  2.1879  0.0991
  407SOL    HW2 1221   1.839   2.553   2.866 -1.6988  0.5059  2.0761
  408SOL     OW 1222   0.219   0.004   3.065 -0.2000  0.9314  0.0365
  408SOL    HW1 1223   0.273   0.048   0.027 -2.4521 -0.6334 -0.1346
  408SOL    HW2 1224   0.280   3.050   3.014 -2.7998 -0.9967  1.0393
  409SOL     OW 1225   2.201   1.580   0.998 -0.4315  0.2104  0.1089
  409SOL    HW1 1226   2.128   1.563   0.927 -1.8474 -3.1072 -2.6219
  409SOL    HW2 1227   2.271   1.644   0.966 -1.0458 -1.3010  1.2810
  410SOL     OW 1228   2.267   1.772   3.041  0.2825 -0.6206 -0.6226
  410SOL    HW1 1229   2.171   1.774   3.072  1.1150  1.6241  0.2576
  410SOL    HW2 1230   2.323   1.848   3.077 -0.9177  0.4900 -1.6383
  411SOL     OW 1231   0.152   1.365   0.881 -0.2063 -0.1869  0.2206
  411SOL    HW1 1232   0.178   1.420   0.961 -0.6380 -2.2958 -2.3232
  411SOL    HW2 1233   0.220   1.291   0.861 -1.7457  0.6653  0.5076
  412SOL     OW 1234   1.699   2.649   0.500 -0.6226  0.0154 -0.1258
  412SOL    HW1 1235   1.657   2.743   0.518 -0.4411  0.7215  1.1032
  412SOL    HW2 1236   1.647   2.597   0.430 -1.4991  1.6568 -0.9523
  413SOL     OW 1237   1.952   0.598   2.231 -0.3624 -0.1244  0.1168
  413SOL    HW1 1238   1.891   0.639   2.161 -0.6707  1.8478  1.5049
  413SOL    HW2 1239   2.025   0.546   2.186 -3.1199 -0.0959 -0.5409
  414SOL     OW 1240   2.908   0.439   0.507  1.2023 -0.5015 -0.2801
  414SOL    HW1 1241   2.849   0.433   0.424  1.8147  0.4071 -1.1504
  414SOL    HW2 1242   2.904   0.354   0.564  0.8275  0.8425  1.3070
  415SOL     OW 1243   0.842   1.729   1.546 -0.2682 -0.4791  0.4903
  415SOL    HW1 1244   0.874   1.793   1.619  0.1128 -1.9431  0.8639
  415SOL    HW2 1245   0.744   1.739   1.521  1.2971  0.6228 -2.7268
  416SOL     OW 1246   0.436   3.101   2.888  0.0271 -0.0379  0.0899
  416SOL    HW1 1247   0.504   0.031   2.824  1.0917  0.9126  1.5154
  416SOL    HW2 1248   0.368   3.043   2.838  0.6269 -0.7466 -0.3233
  417SOL     OW 1249   2.575   2.937   0.930 -0.4995  0.2846 -0.4292
  417SOL    HW1 1250   2.592   2.876   1.012 -0.3589  0.1936  0.3777
  417SOL    HW2 1251   2.574   3.035   0.955  1.0540 -2.3063  0.4146
  418SOL     OW 1252   0.505   0.536   2.640 -0.2796 -0.3599 -0.3593
  418SOL    HW1 1253   0.432   0.475   2.670  0.2832  0.8301  0.7426
  418SOL    HW2 1254   0.526   0.525   2.540 -1.4902  0.2808  1.4464
  419SOL     OW 1255   3.040   1.359   1.475 -0.3593 -0.1200  0.3312
  419SOL    HW1 1256   2.997   1.453   1.478 -0.4436  0.1758  3.2148
  419SOL    HW2 1257   3.005   1.308   1.395  0.3140 -1.8462 -2.7441
  420SOL     OW 1258   0.800   1.833   0.824  0.3394  0.5187 -0.0337
  420SOL    HW1 1259   0.828   1.761   0.891 -0.5207 -0.7294  0.8198
  420SOL    HW2 1260   0.705   1.819   0.786 -0.5377 -1.3347  1.2381
  421SOL     OW 1261   2.026   2.198   2.425 -0.2938  0.6707  0.3788
  421SOL    HW1 1262   1.973   2.279   2.469 -2.9444 -0.3061  1.3329
  421SOL    HW2 1263   2.119   2.232   2.403  1.3157 -1.3788 -1.3653
  422SOL     OW 1264   0.080   0.353   2.664  0.1890 -0.4157  0.0051
  422SOL    HW1 1265   0.076   0.276   2.598  0.4774  0.8981  1.6339
  422SOL    HW2 1266   3.101   0.367   2.711 -1.0567  1.4042  0.5595
  423SOL     OW 1267   1.442   2.069   0.994 -0.7020  0.4382  0.0855
  423SOL    HW1 1268   1.358   2.049   0.945  0.0511  0.1791  0.9700
  423SOL    HW2 1269   1.414   2.118   1.077  0.0335 -0.9144 -0.3283
  424SOL     OW 1270   0.549   1.723   1.485  0.4282  0.2445 -0.6713
  424SOL    HW1 1271   0.557   1.821   1.457 -0.5578  0.1598  1.7586
  424SOL    HW2 1272   0.487   1.729   1.568  1.0215  2.2575  0.6150
  425SOL     OW 1273   2.995   2.843   2.062  0.1191 -0.4776 -0.1494
  425SOL    HW1 1274   3.032   2.753   2.094  1.3987 -2.3209  1.2048
  425SOL    HW2 1275   3.012   2.845   1.961  1.0538 -0.1151 -1.5872
  426SOL     OW 1276   1.685   0.466   0.621  0.3456 -0.1026  0.1910
  426SOL    HW1 1277   1.718   0.432   0.531  1.7577  1.7603 -0.2362
  426SOL    HW2 1278   1.739   0.431   0.699  0.7065  0.4783 -2.6854
  427SOL     OW 1279   1.246   0.512   0.021  0.0768 -0.0751 -0.3939
  427SOL    HW1 1280   1.213   0.509   0.118  2.2983 -0.2318  2.1787
  427SOL    HW2 1281   1.186   0.451   3.077  0.8330 -3.3401  0.2693
  428SOL     OW 1282   1.613   1.222   0.141 -0.3133 -0.1584 -0.0136
  428SOL    HW1 1283   1.539   1.236   0.210 -0.5626  0.3552  1.5581
  428SOL    HW2 1284   1.587   1.261   0.049 -1.0542  1.0982 -0.3118
  429SOL     OW 1285   2.923   2.716   0.486 -0.5721 -0.0570 -0.1495
  429SOL    HW1 1286   3.012   2.690   0.529 -0.6629 -0.8047 -0.1670
  429SOL    HW2 1287   2.916   2.813   0.463  2.2497  1.7782 -0.3690
  430SOL     OW 1288   0.504   3.038   2.295  0.0442 -0.0085 -0.5815
  430SOL    HW1 1289   0.554   3.082   2.367 -1.2454 -0.7454  0.0886
  430SOL    HW2 1290   0.572   3.009   2.216  6.7009 -0.2508 -0.0530
  431SOL     OW 1291   2.614   0.828   1.296 -0.6073 -0.3342 -0.7287
  431SOL    HW1 1292   2.622   0.728   1.271 -3.4692 -0.0369 -0.1045
  431SOL    HW2 1293   2.529   0.851   1.349  0.6646  2.9899  1.4786
  432SOL     OW 1294   2.073   2.540   2.019 -0.2157 -0.4097 -0.2637
  432SOL    HW1 1295   2.105   2.565   2.112  1.0350 -2.8837 -2.8835
  432SOL    HW2 1296   2.061   2.441   2.013 -1.9874  0.9022  1.8852
  433SOL     OW 1297   1.437   2.441   0.653 -0.5803  0.2372  0.1198
  433SOL    HW1 1298   1.473   2.364   0.712 -0.1372 -0.2016 -0.9294
  433SOL    HW2 1299   1.436   2.529   0.705 -0.3324  0.9426 -0.8298
  434SOL     OW 1300   0.227   1.987   1.971  0.7586  0.0727 -0.6200
  434SOL    HW1 1301   0.229   1.911   2.040  2.7339  0.2583 -0.1745
  434SOL    HW2 1302   0.143   1.975   1.917  2.1721 -1.3411  0.4235
  435SOL     OW 1303   0.213   0.916   0.235 -0.0683 -0.6819 -0.3054
  435SOL    HW1 1304   0.166   0.844   0.294 -2.1717 -1.6383 -0.6263
  435SOL    HW2 1305   0.316   0.895   0.227  2.0762 -0.7252 -0.5587
  436SOL     OW 1306   0.368   2.711   1.901  0.4748  0.7560  0.3665
  436SOL    HW1 1307   0.444   2.728   1.961 -0.5506 -1.3715  1.5493
  436SOL    HW2 1308   0.398   2.698   1.803 -2.5717 -1.4362 -0.8895
  437SOL     OW 1309   1.528   2.494   1.625  0.7259 -0.2472  0.2112
  437SOL    HW1 1310   1.586   2.452   1.554 -3.2787  0.2788  1.8109
  437SOL    HW2 1311   1.576   2.524   1.709 -0.6618 -2.9574  0.9270
  438SOL     OW 1312   0.089   1.915   0.386 -0.0747  0.2317 -0.2902
  438SOL    HW1 1313   0.168   1.981   0.407  0.9479  2.4554  1.8497
  438SOL    HW2 1314   0.022   1.955   0.324  0.5232 -2.5571  3.6933
  439SOL     OW 1315   0.152   0.401   0.786 -0.3575 -0.1459  0.3537
  439SOL    HW1 1316   0.217   0.452   0.851  1.9140  1.4278  2.9543
  439SOL    HW2 1317   0.098   0.333   0.834  1.1589 -0.2716 -1.1925
  440SOL     OW 1318   0.107   2.790   2.446  0.2002  0.4208  0.2161
  440SOL    HW1 1319   0.087   2.747   2.536 -2.3196 -0.0884 -2.3871
  440SOL    HW2 1320   0.145   2.725   2.376 -1.2846 -0.3349 -0.9115
  441SOL     OW 1321   2.904   0.230   0.707 -0.0835 -0.5569 -0.1062
  441SOL    HW1 1322   2.994   0.195   0.735 -0.0841  2.5571 -0.4613
  441SOL    HW2 1323   2.822   0.176   0.738  1.6184 -0.2498  1.4103
  442SOL     OW 1324   1.190   2.285   2.483 -0.6454 -0.0882  0.5883
  442SOL    HW1 1325   1.118   2.259   2.551 -0.3118 -0.7373 -2.1155
  442SOL    HW2 1326   1.277   2.234   2.483 -3.7918 -0.4520  1.0824
  443SOL     OW 1327   0.816   0.973   0.153 -0.0102  0.4172  0.0278
  443SOL    HW1 1328   0.768   0.893   0.191  1.8191 -0.9013  2.1577
  443SOL    HW2 1329   0.891   0.946   0.087  1.5637 -0.7680 -3.0140
  444SOL     OW 1330   1.699   1.425   2.618  0.0044 -0.0393 -0.0131
  444SOL    HW1 1331   1.607   1.473   2.615 -3.6177 -0.6736  0.1831
  444SOL    HW2 1332   1.732   1.428   2.714  1.3802  0.9866 -2.6559
  445SOL     OW 1333   2.975   3.023   0.807  0.1300  0.2011 -0.1137
  445SOL    HW1 1334   3.048   2.957   0.790 -2.2322 -0.2811 -1.0060
  445SOL    HW2 1335   2.887   2.994   0.765  0.3093 -0.0643 -0.9646
  446SOL     OW 1336   2.143   0.374   0.995  0.7293  0.0882  0.3494
  446SOL    HW1 1337   2.121   0.334   0.905  2.3735 -0.0441  1.2191
  446SOL    HW2 1338   2.061   0.401   1.053  1.5897  0.8615  1.6780
  447SOL     OW 1339   0.221   0.693   2.960 -0.0196 -0.3818 -0.2356
  447SOL    HW1 1340   0.192   0.598   2.959  0.3280  2.1014  0.5292
  447SOL    HW2 1341   0.165   0.758   3.021 -0.2980  1.1612  0.6117
  448SOL     OW 1342   1.489   2.088   1.595  0.0297 -0.6322 -0.0024
  448SOL    HW1 1343   1.539   2.070   1.509 -0.9576 -0.5200  2.3164
  448SOL    HW2 1344   1.449   2.007   1.633 -1.8388  1.8291 -3.5044
  449SOL     OW 1345   0.874   1.567   0.884  0.0964  0.0380 -0.3074
  449SOL    HW1 1346   0.937   1.495   0.918 -1.9560 -0.0789 -0.2503
  449SOL    HW2 1347   0.865   1.576   0.782 -0.7469  0.7973 -2.3327
  450SOL     OW 1348   2.802   2.461   2.265  0.0726  0.2514 -0.5181
  450SOL    HW1 1349   2.766   2.397   2.195  1.3138  0.3183  0.6514
  450SOL    HW2 1350   2.810   2.412   2.355  2.2285 -0.1939 -1.0606
  451SOL     OW 1351   2.545   1.074   2.838  0.3263 -0.4867  0.1371
  451SOL    HW1 1352   2.620   1.055   2.906 -1.7505 -0.1635  0.5535
  451SOL    HW2 1353   2.489   1.149   2.879  1.6497  1.4690  0.0070
  452SOL     OW 1354   1.939   0.946   1.266  0.2826 -0.4590 -0.1940
  452SOL    HW1 1355   1.896   1.034   1.286  2.9392 -0.1580  0.9461
  452SOL    HW2 1356   1.990   0.905   1.339  0.2174  0.8181 -4.3360
  453SOL     OW 1357   2.101   0.823   1.434 -0.2667 -0.3732  0.0059
  453SOL    HW1 1358   2.163   0.821   1.511  2.4885  2.3922 -2.0250
  453SOL    HW2 1359   2.151   0.767   1.361 -0.9288 -1.1446 -1.2678
  454SOL     OW 1360   3.060   1.034   0.260  0.0796 -0.3940 -0.3476
  454SOL    HW1 1361   0.045   0.996   0.248  1.8944 -0.0387 -3.8756
  454SOL    HW2 1362   3.001   0.962   0.308 -0.4344 -3.6741  2.6330
  455SOL     OW 1363   2.383   1.453   1.198 -0.4226 -0.1857  0.1251
  455SOL    HW1 1364   2.456   1.391   1.155  3.5979  0.9907  1.4170
  455SOL    HW2 1365   2.340   1.507   1.126  1.4325 -1.4422 -0.9754
  456SOL     OW 1366   0.961   0.481   1.517 -0.5480  0.3204 -0.2511
  456SOL    HW1 1367   0.908   0.455   1.602 -1.9627  0.6038  2.9213
  456SOL    HW2 1368   1.054   0.440   1.523  1.1947 -1.4177  0.0236
  457SOL     OW 1369   1.858   2.878   0.979  0.1577  0.3234 -0.2837
  457SOL    HW1 1370   1.959   2.896   0.965 -0.6787  0.4484  0.6529
  457SOL    HW2 1371   1.800   2.959   0.955  0.3961  0.0610  2.2970
  458SOL     OW 1372   2.738   0.378   0.293  0.6046  0.1405  0.3006
  458SOL    HW1 1373   2.709   0.401   0.198 -0.4906  0.0622 -1.0252
  458SOL    HW2 1374   2.652   0.367   0.352 -3.2616  1.5434  0.7415
  459SOL     OW 1375   1.689   0.652   0.240  0.2714  0.6998 -0.3116
  459SOL    HW1 1376   1.674   0.753   0.254 -0.8584  3.2305  1.7796
  459SOL    HW2 1377   1.710   0.598   0.326  0.1639 -0.1209  0.8871
  460SOL     OW 1378   0.018   2.685   2.673  0.2058 -0.1934  0.3349
  460SOL    HW1 1379   3.031   2.717   2.702 -1.1631 -0.9010  2.0188
  460SOL    HW2 1380   0.088   2.714   2.744  0.6530  0.5968 -0.9708
  461SOL     OW 1381   0.452   1.945   0.204 -0.8625 -0.0193  0.1383
  461SOL    HW1 1382   0.498   1.879   0.265  0.0243 -3.7062 -0.3936
  461SOL    HW2 1383   0.459   1.905   0.104 -0.1475 -0.2894 -2.5992
  462SOL     OW 1384   2.087   2.299   0.620  0.0278  0.1676 -0.3235
  462SOL    HW1 1385   2.156   2.253   0.564 -2.7552  3.1084 -0.1133
  462SOL    HW2 1386   2.123   2.379   0.667 -1.6794 -2.9961  0.0516
  463SOL     OW 1387   2.964   0.696   0.559 -0.1682  0.0479 -0.2655
  463SOL    HW1 1388   2.911   0.704   0.646  2.5678  2.0653 -1.4246
  463SOL    HW2 1389   2.966   0.595   0.536 -0.9406  1.0977 -0.1871
  464SOL     OW 1390   0.585   2.573   0.359 -0.0375  1.3239 -0.8754
  464SOL    HW1 1391   0.572   2.661   0.410  1.5656 -0.8010 -1.5039
  464SOL    HW2 1392   0.648   2.505   0.412  0.6824 -2.6269  3.8588
  465SOL     OW 1393   2.356   0.434   0.661  0.1795  0.3453 -0.2516
  465SOL    HW1 1394   2.449   0.476   0.676 -1.9465  1.1337  2.7276
  465SOL    HW2 1395   2.278   0.498   0.644 -1.9124  2.7442  1.6711
  466SOL     OW 1396   2.061   0.133   0.270  0.1172  0.1444  0.2744
  466SOL    HW1 1397   2.037   0.218   0.225 -2.7124 -1.8296  3.1558
  466SOL    HW2 1398   2.016   0.055   0.220 -3.2999 -1.4170 -1.9413
  467SOL     OW 1399   1.199   0.208   2.127  0.2012 -0.1678 -0.1931
  467SOL    HW1 1400   1.184   0.173   2.224  0.6402 -1.3645  2.9930
  467SOL    HW2 1401   1.291   0.253   2.119  0.9175 -2.1182  2.2301
  468SOL     OW 1402   3.012   0.808   2.232  0.5491 -0.4582 -0.2629
  468SOL    HW1 1403   3.097   0.855   2.200 -0.1915 -1.1370  0.7389
  468SOL    HW2 1404   3.036   0.728   2.286  0.7555 -0.3657 -2.2211
  469SOL     OW 1405   0.786   2.423   2.434 -0.1859  0.3667  0.5333
  469SOL    HW1 1406   0.811   2.439   2.530 -1.9697  0.4728 -1.7588
  469SOL    HW2 1407   0.830   2.336   2.400 -0.0358 -0.6609 -2.1777
  470SOL     OW 1408   2.127   1.146   2.000 -0.0273  0.6896  0.2103
  470SOL    HW1 1409   2.217   1.106   2.028  0.9355  2.3610 -2.3249
  470SOL    HW2 1410   2.053   1.073   2.007  0.6142 -2.5191  0.8804
  471SOL     OW 1411   2.931   1.190   0.101  0.2556  0.5026  0.0855
  471SOL    HW1 1412   2.994   1.254   0.054 -0.4592  0.7815  0.8320
  471SOL    HW2 1413   2.983   1.134   0.169  0.0944  2.7147  1.4541
  472SOL     OW 1414   0.261   2.826   0.353 -0.0054  0.7744 -0.5829
  472SOL    HW1 1415   0.254   2.724   0.359 -0.0838 -1.6004 -1.3911
  472SOL    HW2 1416   0.332   2.864   0.414 -0.5234 -2.1104 -1.3647
  473SOL     OW 1417   0.943   2.666   2.285 -0.0079  0.0846 -0.5631
  473SOL    HW1 1418   0.845   2.634   2.285  0.5451  1.0611  0.0029
  473SOL    HW2 1419   0.981   2.653   2.378 -0.2699 -2.4910  0.0733
  474SOL     OW 1420   1.613   3.095   2.545 -0.2049  0.1846  0.1989
  474SOL    HW1 1421   1.560   3.056   2.620 -2.8756 -2.3196  1.0437
  474SOL    HW2 1422   1.694   3.042   2.510 -2.5398 -1.7909 -0.4231
  475SOL     OW 1423   0.953   2.522   0.197 -0.4368  0.1745  0.1856
  475SOL    HW1 1424   0.936   2.623   0.227 -0.2058  1.9365  1.1697
  475SOL    HW2 1425   0.918   2.463   0.274 -3.0869  0.7036 -0.3673
  476SOL     OW 1426   0.623   0.414   1.028 -0.2444 -0.9201 -0.1173
  476SOL    HW1 1427   0.662   0.511   1.021  0.0236  0.7618 -2.5676
  476SOL    HW2 1428   0.679   0.349   0.975 -2.7727 -1.3918  1.9706
  477SOL     OW 1429   1.847   2.033   1.149 -0.0524 -0.4220  0.3097
  477SOL    HW1 1430   1.866   2.126   1.110 -0.3801 -0.6222  1.9681
  477SOL    HW2 1431   1.928   2.003   1.208  2.4135 -0.9413 -1.0205
  478SOL     OW 1432   0.178   0.984   2.806  0.1337 -0.5326  0.1763
  478SOL    HW1 1433   0.269   1.007   2.758  5.1442  2.0143 -0.4610
  478SOL    HW2 1434   0.187   0.974   2.905  1.6926 -0.0515  0.6006
  479SOL     OW 1435   0.954   3.108   0.879  0.2986 -0.1737  0.3893
  479SOL    HW1 1436   0.976   3.037   0.946  1.2816  1.7958 -2.0254
  479SOL    HW2 1437   1.036   0.042   0.844 -0.9213 -0.0582  2.1638
  480SOL     OW 1438   2.631   2.658   0.224  0.0923  0.4551  0.1311
  480SOL    HW1 1439   2.683   2.727   0.174  0.8298 -2.0568  0.0707
  480SOL    HW2 1440   2.643   2.564   0.192 -1.7292  0.5091 -0.9184
  481SOL     OW 1441   2.975   0.601   1.209 -0.1769 -0.0668 -0.6429
  481SOL    HW1 1442   2.897   0.547   1.181  3.5597 -1.0224  0.6094
  481SOL    HW2 1443   3.026   0.554   1.285  0.9830 -1.3936  1.9952
  482SOL     OW 1444   1.239   2.560   1.382 -0.0928 -0.2868 -0.0298
  482SOL    HW1 1445   1.230   2.468   1.427 -0.6367  0.3201 -1.4007
  482SOL    HW2 1446   1.308   2.622   1.434  2.2715 -0.1463 -2.0293
  483SOL     OW 1447   0.443   1.530   3.075  0.0950  0.4350  0.0549
  483SOL    HW1 1448   0.472   1.513   0.061 -2.0522  1.5531 -0.7110
  483SOL    HW2 1449   0.448   1.448   3.014 -0.8072  2.1413 -0.9534
  484SOL     OW 1450   1.415   1.484   2.372  0.2965  0.1032  0.4766
  484SOL    HW1 1451   1.331   1.427   2.378  0.7468  1.8021 -0.4563
  484SOL    HW2 1452   1.470   1.446   2.293  1.6039 -3.0878 -1.1038
  485SOL     OW 1453   0.336   0.049   2.580 -0.5466  0.3313 -0.4961
  485SOL    HW1 1454   0.285   3.103   2.650 -2.3745 -2.1401  0.6140
  485SOL    HW2 1455   0.411   0.105   2.619 -0.2418 -2.1020 -1.7546
  486SOL     OW 1456   1.330   2.852   0.617 -0.0968  0.1381 -0.7271
  486SOL    HW1 1457   1.295   2.944   0.640  1.2347  0.8584  0.1465
  486SOL    HW2 1458   1.363   2.853   0.523 -0.8565  0.2594  1.8400
  487SOL     OW 1459   1.496   2.983   1.080  0.0828 -0.2034  0.4754
  487SOL    HW1 1460   1.486   3.046   1.161  0.8522  0.9751 -1.8311
  487SOL    HW2 1461   1.578   3.017   1.022  0.1318  0.2071 -1.5858
  488SOL     OW 1462   2.205   0.731   0.756 -0.1485  0.2252  0.2847
  488SOL    HW1 1463   2.124   0.760   0.814  0.3663  0.7344 -2.6177
  488SOL    HW2 1464   2.214   0.788   0.667 -0.9918 -1.6490 -1.0334
  489SOL     OW 1465   1.220   0.009   1.202 -0.3652  0.4709 -0.4313
  489SOL    HW1 1466   1.238   3.022   1.235 -1.3331 -0.1413 -0.5457
  489SOL    HW2 1467   1.132   0.011   1.150 -0.9068  0.3748 -1.4400
  490SOL     OW 1468   0.855   0.796   0.525  0.4096  0.2221 -0.1608
  490SOL    HW1 1469   0.797   0.869   0.563 -0.9492  1.2148  0.5228
  490SOL    HW2 1470   0.941   0.792   0.578  3.5006  0.5630 -0.6600
  491SOL     OW 1471   1.057   2.782   0.299  0.2727  0.4708  0.0822
  491SOL    HW1 1472   1.073   2.763   0.392 -3.7989  0.9874 -2.7407
  491SOL    HW2 1473   1.141   2.788   0.248 -1.0970 -0.6218  1.5358
  492SOL     OW 1474   0.931   1.385   2.200 -0.6083  0.1368 -0.7506
  492SOL    HW1 1475   1.019   1.423   2.187  0.8520 -0.4898  1.4474
  492SOL    HW2 1476   0.920   1.311   2.136  1.0244  0.9977  1.9073
  493SOL     OW 1477   3.028   1.935   0.166  0.2312 -0.5217 -0.1235
  493SOL    HW1 1478   3.057   2.007   0.099  1.4017  3.9446 -1.2601
  493SOL    HW2 1479   2.928   1.938   0.187 -0.5103 -2.8356 -0.8748
  494SOL     OW 1480   1.856   1.457   0.383 -0.6816 -0.2476  0.4424
  494SOL    HW1 1481   1.761   1.472   0.416 -0.6313  0.3780  0.9061
  494SOL    HW2 1482   1.867   1.362   0.349  0.7522 -2.0712 -0.5951
  495SOL     OW 1483   0.525   1.334   2.355 -0.2992  0.4299  0.2113
  495SOL    HW1 1484   0.482   1.242   2.365 -3.1339  0.2793 -2.3388
  495SOL    HW2 1485   0.464   1.404   2.399 -2.1602 -3.0568 -0.7520
  496SOL     OW 1486   0.014   0.188   2.225  0.0184  0.3124  0.0614
  496SOL    HW1 1487   0.032   0.188   2.325  2.6371  1.0086  0.6241
  496SOL    HW2 1488   0.030   0.096   2.181  2.0962  1.1157 -3.5655
  497SOL     OW 1489   2.230   0.938   0.531  0.6501 -0.2102  0.0377
  497SOL    HW1 1490   2.252   0.962   0.433  3.9045  2.4052 -0.0400
  497SOL    HW2 1491   2.132   0.907   0.534 -2.1744  1.0189 -0.9615
  498SOL     OW 1492   2.779   2.549   2.875  0.0340  0.1795  0.3920
  498SOL    HW1 1493   2.698   2.585   2.919  3.0901 -0.2390 -3.4003
  498SOL    HW2 1494   2.843   2.622   2.844  0.7668  0.1666 -0.2410
  499SOL     OW 1495   1.900   2.538   0.658  0.2312 -0.0603  0.4792
  499SOL    HW1 1496   1.932   2.630   0.633  3.8922 -1.9255 -0.2420
  499SOL    HW2 1497   1.815   2.523   0.609  1.3164  0.4589  0.4941
  500SOL     OW 1498   1.322   0.581   2.541  0.3318  0.1588  0.0996
  500SOL    HW1 1499   1.357   0.532   2.625  0.2482  1.2029  1.1413
  500SOL    HW2 1500   1.344   0.678   2.547 -1.8564 -2.1702 -0.0675
  501SOL     OW 1501   1.296   0.141   1.454 -0.4903  0.3982  0.3629
  501SOL    HW1 1502   1.366   0.080   1.498 -1.3205 -1.2426 -0.0701
  501SOL    HW2 1503   1.242   0.088   1.384 -0.9592 -1.9793  0.8089
  502SOL     OW 1504   3.109   0.076   1.885  0.2257  0.2184  0.3628
  502SOL    HW1 1505   0.050   0.068   1.970 -1.6212  0.0361 -0.0061
  502SOL    HW2 1506   0.060   0.126   1.816 -2.3556 -1.1339  0.5416
  503SOL     OW 1507   1.555   2.409   2.163  0.3850 -0.0072  0.5002
  503SOL    HW1 1508   1.621   2.488   2.168 -2.1125  0.8040 -2.3904
  503SOL    HW2 1509   1.606   2.322   2.160 -1.8281 -0.0581 -0.9073
  504SOL     OW 1510   2.061   0.143   1.787 -0.3096  0.1513 -0.2877
  504SOL    HW1 1511   2.016   0.224   1.737 -1.7185 -1.1869 -1.1895
  504SOL    HW2 1512   1.984   0.072   1.807 -1.1328 -3.2883  0.6244
  505SOL     OW 1513   2.619   1.475   1.560  0.1152  0.0891  0.0940
  505SOL    HW1 1514   2.567   1.386   1.559 -0.1367  0.1056  1.2872
  505SOL    HW2 1515   2.563   1.545   1.613 -0.1411  2.3631  1.3242
  506SOL     OW 1516   0.169   1.408   2.069 -0.3152  0.0677 -0.2527
  506SOL    HW1 1517   0.168   1.315   2.117 -0.1716 -2.5725 -1.2459
  506SOL    HW2 1518   0.126   1.405   1.977 -2.9987 -2.6376 -2.0296
  507SOL     OW 1519   0.166   2.867   1.238 -0.1010  0.0864 -0.4099
  507SOL    HW1 1520   0.158   2.969   1.236  0.3323  1.7800 -0.2171
  507SOL    HW2 1521   0.174   2.833   1.333 -0.4368  0.3364 -0.6168
  508SOL     OW 1522   1.446   0.826   1.526 -0.0349 -0.8410 -0.2033
  508SOL    HW1 1523   1.409   0.754   1.459  0.5659 -3.8814 -2.7158
  508SOL    HW2 1524   1.392   0.823   1.610  1.2199  0.3114 -2.3077
  509SOL     OW 1525   1.320   2.305   1.600 -0.4344 -0.3145 -0.4875
  509SOL    HW1 1526   1.362   2.392   1.623 -1.1182  0.9767 -1.6031
  509SOL    HW2 1527   1.390   2.229   1.607 -0.0571 -0.1626  1.2874
  510SOL     OW 1528   2.569   1.386   0.023  0.5948  0.7783  0.2427
  510SOL    HW1 1529   2.597   1.315   0.093 -0.4267  0.6524  2.7284
  510SOL    HW2 1530   2.501   1.360   3.062 -0.8104  1.5953  1.6970
  511SOL     OW 1531   0.243   1.581   1.472  0.1179 -0.2105 -0.1612
  511SOL    HW1 1532   0.319   1.567   1.405  0.2581  2.0372 -0.2056
  511SOL    HW2 1533   0.232   1.490   1.518 -0.2074  0.2932  1.2471
  512SOL     OW 1534   2.648   2.377   0.187 -0.3376 -0.0719  0.1583
  512SOL    HW1 1535   2.736   2.329   0.187 -0.6373 -1.8212 -1.1588
  512SOL    HW2 1536   2.596   2.356   0.274  0.8021 -1.8707  0.8270
  513SOL     OW 1537   0.751   1.664   2.576 -0.0288 -0.4536 -0.2301
  513SOL    HW1 1538   0.781   1.566   2.598  0.2546 -1.4220 -1.7913
  513SOL    HW2 1539   0.819   1.731   2.607 -0.5021 -0.5390  0.5062
  514SOL     OW 1540   0.110   2.376   2.354 -0.8413 -0.4440  0.0581
  514SOL    HW1 1541   0.106   2.282   2.312  1.3601 -2.0014 -1.8434
  514SOL    HW2 1542   0.037   2.393   2.425 -0.6491  1.4185  2.5821
  515SOL     OW 1543   2.013   1.238   1.767 -0.2828 -0.0497 -0.0919
  515SOL    HW1 1544   2.048   1.218   1.863 -1.0325 -0.3766  0.3975
  515SOL    HW2 1545   2.086   1.280   1.712 -2.0919  0.2023  1.5439
  516SOL     OW 1546   1.743   2.421   0.054  0.1934  0.0715  0.3272
  516SOL    HW1 1547   1.808   2.438   3.082  1.8107  0.2604 -0.5055
  516SOL    HW2 1548   1.752   2.329   0.093 -0.5468 -1.4602  0.5045
  517SOL     OW 1549   0.768   1.773   0.497 -0.1583 -0.3913 -0.6304
  517SOL    HW1 1550   0.813   1.842   0.438  0.1683 -0.2442 -2.4791
  517SOL    HW2 1551   0.826   1.689   0.507  1.3524  0.9041  1.8460
  518SOL     OW 1552   2.005   2.431   1.650 -0.4618  0.2223  0.3303
  518SOL    HW1 1553   2.012   2.522   1.606  2.0410 -1.8807  1.0286
  518SOL    HW2 1554   1.937   2.434   1.724 -0.5062  0.5306 -2.3819
  519SOL     OW 1555   2.199   2.314   1.044  0.1186 -0.4098  0.2685
  519SOL    HW1 1556   2.204   2.381   1.116 -2.8545 -0.3905 -2.8851
  519SOL    HW2 1557   2.141   2.352   0.967 -0.3516  2.2031 -0.4481
  520SOL     OW 1558   2.789   2.265   2.487  0.0225 -0.1099  0.0952
  520SOL    HW1 1559   2.715   2.201   2.469  1.4753 -1.3252 -0.4472
  520SOL    HW2 1560   2.877   2.210   2.486  1.1809  0.4248  0.3162
  521SOL     OW 1561   2.778   1.118   2.433 -0.0514  0.1382 -0.0099
  521SOL    HW1 1562   2.767   1.139   2.334 -1.7762  1.0697 -1.7415
  521SOL    HW2 1563   2.698   1.151   2.490  0.3515  1.4497  1.3165
  522SOL     OW 1564   1.033   0.616   2.217 -0.2450  0.2167 -0.0694
  522SOL    HW1 1565   1.115   0.617   2.156  0.3930  0.7989  1.4479
  522SOL    HW2 1566   0.951   0.613   2.159 -1.2074 -0.9182  1.3984
  523SOL     OW 1567   0.102   2.115   0.961 -0.4211  0.8800 -0.9052
  523SOL    HW1 1568   0.129   2.058   0.884  0.1143  1.3412  2.9048
  523SOL    HW2 1569   0.028   2.179   0.931 -0.9763 -1.3217  0.3972
  524SOL     OW 1570   1.935   2.806   0.118  0.4803 -0.2413  0.1845
  524SOL    HW1 1571   1.940   2.750   0.202 -0.4543 -1.6762  1.8889
  524SOL    HW2 1572   1.999   2.778   0.045 -3.0925  2.5715  0.2941
  525SOL     OW 1573   2.203   0.657   1.227 -0.0585  0.2069  0.1467
  525SOL    HW1 1574   2.112   0.607   1.226  0.2961 -2.3452  0.2187
  525SOL    HW2 1575   2.259   0.633   1.145 -1.3220 -1.7402  2.4279
  526SOL     OW 1576   0.949   2.462   0.699 -0.0469 -0.6562 -0.1853
  526SOL    HW1 1577   0.899   2.529   0.757 -0.0015 -0.7101 -0.7553
  526SOL    HW2 1578   0.881   2.387   0.684  0.3088 -1.1792  1.7639
  527SOL     OW 1579   2.261   2.897   0.544  0.3726 -0.4453 -0.8428
  527SOL    HW1 1580   2.293   2.911   0.637 -1.3038 -2.1020 -1.6360
  527SOL    HW2 1581   2.306   2.812   0.507  0.9154  0.9415  0.4567
  528SOL     OW 1582   1.762   0.751   0.637  0.2172 -0.3320 -0.5303
  528SOL    HW1 1583   1.695   0.823   0.669  1.6638  2.9147  0.2394
  528SOL    HW2 1584   1.724   0.657   0.630 -1.6403  0.2787  2.5008
  529SOL     OW 1585   1.448   1.557   2.619 -0.1613 -0.3190 -0.2033
  529SOL    HW1 1586   1.379   1.628   2.646 -3.0816 -3.0885  0.8226
  529SOL    HW2 1587   1.431   1.530   2.524 -1.8124  0.3911  1.2776
  530SOL     OW 1588   2.393   0.322   0.009 -0.3580 -0.3567 -0.7145
  530SOL    HW1 1589   2.320   0.396   0.014  0.4082  0.0860 -0.6032
  530SOL    HW2 1590   2.365   0.236   3.072 -0.3955 -1.8975 -1.7435
  531SOL     OW 1591   1.623   0.792   2.770  0.0104  0.2128 -0.3324
  531SOL    HW1 1592   1.695   0.852   2.728 -2.1166 -0.3508  2.4367
  531SOL    HW2 1593   1.646   0.696   2.751  0.5003  1.0661 -1.5008
  532SOL     OW 1594   1.580   0.623   1.017 -0.1073 -0.1149  0.0501
  532SOL    HW1 1595   1.529   0.702   1.063 -1.0036  2.3469 -0.7577
  532SOL    HW2 1596   1.671   0.663   0.985  0.7731  0.8443  0.6251
  533SOL     OW 1597   0.634   1.039   2.655  0.3739 -0.4142  0.1031
  533SOL    HW1 1598   0.662   0.964   2.591 -1.2786 -2.6536 -2.0705
  533SOL    HW2 1599   0.690   1.124   2.643  2.5971  1.0619 -1.4139
  534SOL     OW 1600   1.630   0.237   2.669 -0.0606  0.2236  0.9113
  534SOL    HW1 1601   1.682   0.228   2.756  0.1804 -1.0295  0.4388
  534SOL    HW2 1602   1.641   0.153   2.611  0.4849 -1.2683 -0.5741
  535SOL     OW 1603   0.184   3.019   2.776  0.3023 -0.2980  0.2525
  535SOL    HW1 1604   0.194   2.914   2.804 -1.2950 -3.9373 -1.3285
  535SOL    HW2 1605   0.091   3.055   2.785  0.2807  1.8368  3.7238
  536SOL     OW 1606   0.433   0.376   0.457 -0.3852 -0.1928  0.0753
  536SOL    HW1 1607   0.485   0.360   0.372 -2.7370  0.5001 -0.9665
  536SOL    HW2 1608   0.491   0.382   0.542 -3.0879 -2.1634  0.6724
  537SOL     OW 1609   1.453   0.352   0.289 -0.0749 -0.1284  0.2006
  537SOL    HW1 1610   1.479   0.387   0.194 -3.2115 -1.2316  0.1634
  537SOL    HW2 1611   1.457   0.250   0.287 -0.1951 -1.3741  0.2697
  538SOL     OW 1612   2.741   2.017   2.773 -0.2150 -0.2536 -0.1818
  538SOL    HW1 1613   2.814   1.947   2.807  0.9382 -0.7510  3.8692
  538SOL    HW2 1614   2.743   2.104   2.824 -2.5050 -1.7954 -1.8157
  539SOL     OW 1615   1.994   1.825   0.024  0.3715 -0.1718 -0.1160
  539SOL    HW1 1616   1.932   1.787   0.092  2.0635  1.4861 -0.2723
  539SOL    HW2 1617   1.954   1.814   3.037 -3.8688 -0.3089 -1.5243
  540SOL     OW 1618   0.460   2.738   1.631 -0.1124 -0.1199  0.0729
  540SOL    HW1 1619   0.539   2.689   1.585 -0.4864 -0.5224  1.7181
  540SOL    HW2 1620   0.387   2.768   1.565 -0.7472  0.5420 -0.3980
  541SOL     OW 1621   2.358   0.157   2.068  0.1872 -0.3479  0.1751
  541SOL    HW1 1622   2.429   0.195   2.128 -0.3971  0.8877  0.0708
  541SOL    HW2 1623   2.311   0.225   2.009  1.8050 -1.0064  1.5216
  542SOL     OW 1624   0.405   0.770   2.776  0.5318  0.0353 -0.0007
  542SOL    HW1 1625   0.449   0.689   2.734  1.8900 -1.8369 -1.3902
  542SOL    HW2 1626   0.331   0.736   2.837  0.2319 -0.4510 -2.4303
  543SOL     OW 1627   0.335   0.754   1.328 -0.5180 -0.1748  0.4944
  543SOL    HW1 1628   0.347   0.762   1.227  0.0449 -0.1670  0.4292
  543SOL    HW2 1629   0.244   0.785   1.354  0.1866  1.0607 -0.9873
  544SOL     OW 1630   2.609   0.440   1.021 -0.9011  0.1089  0.3268
  544SOL    HW1 1631   2.698   0.436   0.968 -3.7598 -3.8854  0.3749
  544SOL    HW2 1632   2.553   0.517   0.982  0.9648 -2.0253  2.0794
  545SOL     OW 1633   1.706   2.132   0.584  0.5965 -0.6906  0.5315
  545SOL    HW1 1634   1.765   2.061   0.622 -1.4945 -0.6353 -1.3686
  545SOL    HW2 1635   1.643   2.169   0.652 -0.6325  0.6069  1.9553
  546SOL     OW 1636   2.246   2.837   1.482  0.3647 -0.2884 -0.5664
  546SOL    HW1 1637   2.326   2.864   1.543  0.9720 -1.6075  0.0841
  546SOL    HW2 1638   2.164   2.897   1.496  0.3452 -0.0409 -0.7692
  547SOL     OW 1639   0.354   2.897   2.533 -0.6168 -0.4372  0.3235
  547SOL    HW1 1640   0.267   2.865   2.500  1.4856  2.3984 -0.3804
  547SOL    HW2 1641   0.355   3.000   2.521 -0.7339  2.8347 -0.4736
  548SOL     OW 1642   1.611   0.949   3.010 -0.2578  0.0320  0.5010
  548SOL    HW1 1643   1.629   0.876   2.941  0.4882  0.0327  0.3892
  548SOL    HW2 1644   1.696   1.000   3.029 -1.4706  1.6992 -1.4888
  549SOL     OW 1645   2.866   0.810   0.325  0.8954  0.3462  0.1659
  549SOL    HW1 1646   2.913   0.752   0.396 -1.2036  0.6382 -1.7253
  549SOL    HW2 1647   2.765   0.828   0.342  0.0280  1.1542  3.1466
  550SOL     OW 1648   1.896   1.917   0.664  0.6716 -0.0414 -0.0207
  550SOL    HW1 1649   1.848   1.858   0.593  1.1549  2.1657 -0.0405
  550SOL    HW2 1650   1.911   1.871   0.753 -2.0815  2.4009 -0.0632
  551SOL     OW 1651   1.270   3.011   0.891  0.2098 -0.4944 -0.0526
  551SOL    HW1 1652   1.339   2.992   0.965  1.3972  1.1423  2.5865
  551SOL    HW2 1653   1.193   2.943   0.896 -2.4586  0.4630 -3.9643
  552SOL     OW 1654   2.914   2.874   2.327 -0.3831  0.0321  0.1967
  552SOL    HW1 1655   2.981   2.810   2.369  2.9205 -0.3948  0.1324
  552SOL    HW2 1656   2.909   2.880   2.224 -2.6318  1.0375 -0.1212
  553SOL     OW 1657   0.308   2.920   2.177 -0.4619 -0.0316 -0.4326
  553SOL    HW1 1658   0.308   2.821   2.188  0.3781  0.4240 -0.0061
  553SOL    HW2 1659   0.383   2.961   2.237  1.4789  0.5978  0.6709
  554SOL     OW 1660   0.631   0.055   1.265  0.2307  0.2339 -0.4903
  554SOL    HW1 1661   0.636   0.155   1.256 -0.8093  0.9979 -4.7842
  554SOL    HW2 1662   0.723   0.014   1.252 -0.6963 -0.0500 -0.4693
  555SOL     OW 1663   2.565   2.137   2.137  0.0582 -0.2827 -0.6488
  555SOL    HW1 1664   2.602   2.111   2.228 -0.4047 -0.1566 -2.2266
  555SOL    HW2 1665   2.473   2.173   2.140 -0.6383  2.3007 -2.7442
  556SOL     OW 1666   1.208   0.269   2.688 -0.0781 -0.8454 -0.1036
  556SOL    HW1 1667   1.109   0.299   2.704  0.3187  2.6380  1.3453
  556SOL    HW2 1668   1.212   0.171   2.691  0.8077  0.6711 -0.2172
  557SOL     OW 1669   0.473   1.664   2.236 -0.1844 -0.1243  0.0405
  557SOL    HW1 1670   0.438   1.701   2.322  0.5938 -1.1453 -1.8591
  557SOL    HW2 1671   0.573   1.647   2.249 -1.5470  2.6375  0.3250
  558SOL     OW 1672   2.474   0.875   3.093 -0.2642  0.1476  0.0314
  558SOL    HW1 1673   2.522   0.859   3.007 -2.1944 -0.4141  0.2335
  558SOL    HW2 1674   2.474   0.797   0.051 -0.8740 -1.5792  1.4823
  559SOL     OW 1675   2.506   1.963   1.612  0.3729  0.2730 -0.0680
  559SOL    HW1 1676   2.443   2.010   1.544  1.8547  2.6079 -2.2039
  559SOL    HW2 1677   2.487   1.996   1.706  1.0237 -0.6026 -3.4148
  560SOL     OW 1678   2.602   0.977   1.944  0.5075 -0.5530  0.5073
  560SOL    HW1 1679   2.564   0.930   1.861 -2.3277 -0.0132 -2.3566
  560SOL    HW2 1680   2.672   0.917   1.983  0.2035  2.7224  0.3579
  561SOL     OW 1681   3.021   0.050   2.796  0.4420  0.3719  0.1629
  561SOL    HW1 1682   3.023   3.082   2.732  2.3168  0.8534 -0.9586
  561SOL    HW2 1683   2.948   0.117   2.769 -0.2192  2.1742 -1.8656
  562SOL     OW 1684   0.930   1.305   1.428  0.2532  0.0244 -0.1030
  562SOL    HW1 1685   1.009   1.270   1.483 -2.5102 -1.1588 -0.0777
  562SOL    HW2 1686   0.839   1.290   1.472 -0.0392  1.2482  1.6453
  563SOL     OW 1687   1.360   0.103   2.906 -0.0629  0.5497  0.3350
  563SOL    HW1 1688   1.391   0.027   2.842 -1.6998  1.9128 -1.2109
  563SOL    HW2 1689   1.261   0.115   2.885  1.8181  0.7497  0.8152
  564SOL     OW 1690   3.037   2.320   0.928 -0.2280 -0.4718 -0.1614
  564SOL    HW1 1691   3.026   2.313   1.027  0.2237 -1.9783 -0.0648
  564SOL    HW2 1692   2.961   2.265   0.887  2.0004 -0.9754  1.0610
  565SOL     OW 1693   0.521   2.286   1.313 -0.1135  0.2442  0.1449
  565SOL    HW1 1694   0.612   2.335   1.314  1.0584 -0.1642 -1.1903
  565SOL    HW2 1695   0.504   2.230   1.231  0.5139 -0.0077  0.4871
  566SOL     OW 1696   1.331   2.532   2.009 -0.5433 -0.2135  0.2309
  566SOL    HW1 1697   1.234   2.516   2.040  2.3952  0.7045  4.0421
  566SOL    HW2 1698   1.392   2.467   2.062 -1.8578 -0.0347 -0.7106
  567SOL     OW 1699   2.283   2.709   0.855 -0.1499 -0.3259 -0.3651
  567SOL    HW1 1700   2.257   2.806   0.834  0.8313  0.0954  0.9449
  567SOL    HW2 1701   2.344   2.671   0.784  0.0017 -0.8188  1.2760
  568SOL     OW 1702   1.796   1.105   0.574 -0.8675  0.0174 -0.7143
  568SOL    HW1 1703   1.860   1.026   0.574  0.1753  0.2610 -2.1234
  568SOL    HW2 1704   1.787   1.148   0.484  1.6372  2.1071  2.2650
  569SOL     OW 1705   0.056   1.676   2.575  0.0491  0.0106 -0.2431
  569SOL    HW1 1706   0.062   1.709   2.672  0.2451 -1.6833 -1.2440
  569SOL    HW2 1707   3.093   1.601   2.573 -0.3336 -3.0459  0.2404
  570SOL     OW 1708   3.061   0.081   1.429 -0.4633  0.3367  0.3290
  570SOL    HW1 1709   3.011   0.142   1.359 -0.6946 -0.3874 -1.3763
  570SOL    HW2 1710   0.036   0.120   1.473 -0.4293  1.5599 -1.1426
  571SOL     OW 1711   0.264   0.481   1.792  0.1929 -0.6653 -0.2623
  571SOL    HW1 1712   0.253   0.504   1.889 -1.3335 -0.4158  1.2533
  571SOL    HW2 1713   0.188   0.524   1.739  0.1847 -0.6870 -0.2199
  572SOL     OW 1714   0.199   2.458   1.143  0.1693  0.5693  0.6716
  572SOL    HW1 1715   0.189   2.363   1.111 -1.8056  1.1138 -1.4128
  572SOL    HW2 1716   0.248   2.468   1.231  0.4774  1.1619 -1.3926
  573SOL     OW 1717   0.990   0.422   0.023  0.3693  0.2668  0.0959
  573SOL    HW1 1718   0.945   0.513   0.012 -1.1741  1.1475 -1.0366
  573SOL    HW2 1719   0.935   0.365   0.088  2.9366  1.0122  0.9272
  574SOL     OW 1720   2.772   2.816   0.072  0.0491 -0.0606  0.5192
  574SOL    HW1 1721   2.869   2.813   0.109 -0.3098  0.0767 -1.6240
  574SOL    HW2 1722   2.750   2.889   3.106 -1.9882  2.1067 -3.4642
  575SOL     OW 1723   1.485   2.472   1.161 -0.4758  0.6277 -0.1461
  575SOL    HW1 1724   1.405   2.405   1.159 -1.7026 -1.9886 -0.8264
  575SOL    HW2 1725   1.451   2.564   1.144  0.6158 -2.0183  0.0905
  576SOL     OW 1726   1.057   2.912   1.039 -0.3477 -0.0833  0.0024
  576SOL    HW1 1727   1.077   2.810   1.032  0.1002  1.4606 -1.0932
  576SOL    HW2 1728   0.970   2.925   1.086  1.0778 -1.1122 -1.7224
  577SOL     OW 1729   2.401   1.267   0.742 -0.4053 -0.2019 -0.1144
  577SOL    HW1 1730   2.469   1.318   0.685 -1.8537 -0.6314 -1.3058
  577SOL    HW2 1731   2.443   1.184   0.778 -1.2030  1.2464 -0.6415
  578SOL     OW 1732   1.425   0.298   0.695 -0.3515  0.3341 -0.4533
  578SOL    HW1 1733   1.500   0.364   0.686  0.1788 -0.7120 -0.0673
  578SOL    HW2 1734   1.357   0.339   0.762 -2.7454  1.2193  1.7809
  579SOL     OW 1735   2.233   0.645   2.880 -0.3247 -0.9735 -0.3800
  579SOL    HW1 1736   2.308   0.584   2.853 -2.6171  1.4339  0.8538
  579SOL    HW2 1737   2.240   0.736   2.832 -1.8273  2.9911 -1.5000
  580SOL     OW 1738   1.684   0.642   2.294  0.4536 -0.4935  0.1067
  580SOL    HW1 1739   1.776   0.659   2.330 -1.7774 -1.7108 -1.3310
  580SOL    HW2 1740   1.622   0.727   2.316  0.2518  1.5727 -0.7736
  581SOL     OW 1741   0.322   0.758   1.048  0.0662  0.5985  0.2517
  581SOL    HW1 1742   0.370   0.791   0.964 -1.3617  0.7468 -2.7864
  581SOL    HW2 1743   0.221   0.763   1.040  4.6698 -1.7682 -1.6866
  582SOL     OW 1744   2.887   0.181   2.024 -0.7391  0.5663 -0.6906
  582SOL    HW1 1745   2.958   0.208   2.094 -1.9946  2.2111  1.1148
  582SOL    HW2 1746   2.941   0.148   1.941 -0.2499 -0.4088 -2.4556
  583SOL     OW 1747   0.519   0.530   2.100  0.1884  0.2224  0.6434
  583SOL    HW1 1748   0.529   0.536   2.200 -1.3033  2.8904 -1.6024
  583SOL    HW2 1749   0.491   0.438   2.072  1.2686 -0.3727  2.2400
  584SOL     OW 1750   1.258   2.237   2.914  0.1701 -0.0291 -0.2487
  584SOL    HW1 1751   1.336   2.183   2.878 -0.4545 -2.8597  1.6101
  584SOL    HW2 1752   1.288   2.287   3.001  0.9802 -0.8296 -0.5196
  585SOL     OW 1753   0.217   2.756   2.864 -0.2184  0.5396  0.0246
  585SOL    HW1 1754   0.232   2.720   2.957 -0.7460  1.1622 -3.5489
  585SOL    HW2 1755   0.289   2.727   2.803 -1.7066  2.8865  2.4744
  586SOL     OW 1756   1.857   1.800   2.590  0.6373  0.0347  0.2037
  586SOL    HW1 1757   1.902   1.886   2.553 -0.5027 -1.6959 -2.0513
  586SOL    HW2 1758   1.864   1.720   2.528  0.8668 -2.0675 -0.2818
  587SOL     OW 1759   2.175   2.224   0.144 -0.0320  0.1439 -0.2274
  587SOL    HW1 1760   2.220   2.231   0.054  1.4993  0.0514  3.1037
  587SOL    HW2 1761   2.187   2.126   0.168 -0.6433  3.3468 -0.4017
  588SOL     OW 1762   2.762   3.095   1.193  0.2605 -0.1183 -0.2127
  588SOL    HW1 1763   2.704   3.079   1.278  0.2228  2.1941  0.9263
  588SOL    HW2 1764   2.709   0.032   1.121  0.0316  0.5388  2.9433
  589SOL     OW 1765   0.432   0.746   0.563  0.1557  0.7003 -0.0179
  589SOL    HW1 1766   0.473   0.768   0.471  0.6935 -0.8150  0.9384
  589SOL    HW2 1767   0.379   0.657   0.561 -0.7310 -2.3740 -0.8625
  590SOL     OW 1768   2.160   1.950   0.196 -0.1910 -0.3478  0.1692
  590SOL    HW1 1769   2.140   1.954   0.297  0.4823 -0.8081  0.1606
  590SOL    HW2 1770   2.074   1.931   0.146 -2.0146  1.9312 -0.9882
  591SOL     OW 1771   0.453   2.400   1.014  0.4191 -0.5520  0.1413
  591SOL    HW1 1772   0.368   2.459   1.019 -4.4333 -0.2749  1.6029
  591SOL    HW2 1773   0.536   2.457   1.030 -1.8069  0.8444  0.4512
  592SOL     OW 1774   1.280   0.662   1.372  0.4270 -0.1923  0.1480
  592SOL    HW1 1775   1.199   0.717   1.364  0.2464 -0.6556  1.0994
  592SOL    HW2 1776   1.257   0.566   1.407 -1.7643 -2.2555 -2.3043
  593SOL     OW 1777   1.007   1.581   1.380  0.1758 -0.0855 -0.5533
  593SOL    HW1 1778   0.986   1.484   1.403 -1.5829 -1.0960  0.0955
  593SOL    HW2 1779   0.944   1.641   1.434  3.1467 -1.6632  1.6989
  594SOL     OW 1780   1.030   2.194   0.478  0.7444  0.2162 -0.8348
  594SOL    HW1 1781   1.021   2.172   0.379  0.6840  1.3342 -0.2759
  594SOL    HW2 1782   1.093   2.268   0.506  1.5525 -0.5606  1.8401
  595SOL     OW 1783   1.676   0.673   1.499 -0.2183  0.2297 -0.2943
  595SOL    HW1 1784   1.764   0.704   1.541  0.3252  1.6368  0.5614
  595SOL    HW2 1785   1.606   0.738   1.525 -0.1949 -1.0946 -3.0198
  596SOL     OW 1786   2.758   0.893   1.538 -0.2832  0.2102  0.1819
  596SOL    HW1 1787   2.824   0.975   1.534  3.6002  1.8338 -1.2410
  596SOL    HW2 1788   2.748   0.856   1.446  1.5978  2.9897  0.7062
  597SOL     OW 1789   0.577   2.569   2.340 -0.0402 -0.4679  0.0857
  597SOL    HW1 1790   0.530   2.615   2.422 -0.0342 -2.4109  2.1910
  597SOL    HW2 1791   0.660   2.516   2.372  2.6799  1.0003  0.0582
  598SOL     OW 1792   2.473   1.695   1.652  0.7579  0.7891  0.4866
  598SOL    HW1 1793   2.485   1.796   1.638 -3.1889 -2.1930  0.2215
  598SOL    HW2 1794   2.373   1.684   1.672  0.0550  1.8858 -0.1653
  599SOL     OW 1795   0.902   3.058   0.165 -0.3181  0.0579  0.2239
  599SOL    HW1 1796   0.815   3.066   0.113 -2.4242  1.1995 -3.0761
  599SOL    HW2 1797   0.885   3.029   0.263 -1.5682  0.0553  2.0614
  600SOL     OW 1798   2.954   2.244   2.731 -0.4942 -1.2915  0.4079
  600SOL    HW1 1799   2.978   2.241   2.830  0.7717  1.0209 -1.8539
  600SOL    HW2 1800   2.915   2.160   2.689 -0.6573  3.3522  1.4226
  601SOL     OW 1801   0.508   0.807   1.536 -0.0162 -0.0543  0.2496
  601SOL    HW1 1802   0.439   0.801   1.457 -0.2844 -0.4833 -2.2871
  601SOL    HW2 1803   0.508   0.904   1.565  0.1780 -1.5941 -0.6775
  602SOL     OW 1804   0.623   0.384   0.649  0.9906  0.0719 -0.5732
  602SOL    HW1 1805   0.634   0.470   0.710  0.2663  0.2523 -0.1913
  602SOL    HW2 1806   0.634   0.295   0.704  1.1785 -2.2112 -1.5330
  603SOL     OW 1807   0.337   0.341   2.753  0.1611  0.3343  0.2591
  603SOL    HW1 1808   0.243   0.340   2.710 -2.8654 -0.7934 -1.4815
  603SOL    HW2 1809   0.342   0.358   2.853  0.0541 -0.5589 -0.4481
  604SOL     OW 1810   0.786   2.807   1.411  0.4256 -0.2760  0.1280
  604SOL    HW1 1811   0.785   2.858   1.498 -1.2728  0.3360 -1.6927
  604SOL    HW2 1812   0.696   2.759   1.394  1.4326 -2.1117 -0.4289
  605SOL     OW 1813   1.460   1.079   2.290 -0.4021  0.5392 -0.1501
  605SOL    HW1 1814   1.375   1.087   2.238  1.7760  2.8384  1.7433
  605SOL    HW2 1815   1.539   1.112   2.233  0.4558  1.2278  1.0122
  606SOL     OW 1816   2.239   2.746   3.019 -0.3527  0.3618 -0.0583
  606SOL    HW1 1817   2.281   2.706   3.106  2.4825  1.6633  3.8581
  606SOL    HW2 1818   2.311   2.763   2.946  1.2694  1.0459 -3.5301
  607SOL     OW 1819   1.042   0.367   1.239  0.1448  0.2356 -0.0225
  607SOL    HW1 1820   0.992   0.416   1.315 -2.5975  0.8077  0.7592
  607SOL    HW2 1821   0.979   0.312   1.181 -1.5804  0.4912 -3.5153
  608SOL     OW 1822   0.331   1.774   2.479 -0.0130  0.0456  0.0443
  608SOL    HW1 1823   0.376   1.779   2.566 -3.9915 -1.0257 -0.5474
  608SOL    HW2 1824   0.236   1.751   2.492  2.9876  0.4932 -0.7193
  609SOL     OW 1825   1.406   1.314   0.315 -0.1001 -0.4868 -0.9089
  609SOL    HW1 1826   1.385   1.409   0.280 -1.0211  3.2037 -0.8624
  609SOL    HW2 1827   1.347   1.244   0.273 -0.9498  1.8269  1.5954
  610SOL     OW 1828   3.080   0.291   1.030  0.3303 -0.1388 -0.1656
  610SOL    HW1 1829   0.001   0.215   0.971  2.2424 -0.5801  1.7548
  610SOL    HW2 1830   0.055   0.321   1.078  2.6045  0.2330 -0.3568
  611SOL     OW 1831   1.264   1.044   0.657  0.0397 -0.1976 -0.1908
  611SOL    HW1 1832   1.293   1.136   0.625  0.6274  1.7150 -2.0903
  611SOL    HW2 1833   1.223   0.995   0.576 -0.5551  2.1271 -1.7545
  612SOL     OW 1834   2.047   1.537   0.178 -0.3350  0.2192  0.0643
  612SOL    HW1 1835   1.980   1.523   0.248  1.1555  0.9510  0.4667
  612SOL    HW2 1836   2.115   1.609   0.204 -0.1295 -2.1284  3.5395
  613SOL     OW 1837   1.658   0.911   0.296 -0.7447 -0.4738 -0.1497
  613SOL    HW1 1838   1.618   0.985   0.234 -1.7349 -1.2012  1.0944
  613SOL    HW2 1839   1.707   0.944   0.382  0.6855  1.2510  2.3282
  614SOL     OW 1840   2.825   0.197   2.351 -0.0944 -0.0699  0.1112
  614SOL    HW1 1841   2.927   0.211   2.335  2.8497  0.4383  1.4338
  614SOL    HW2 1842   2.806   0.096   2.357  2.9817  0.2763  1.4562
  615SOL     OW 1843   0.713   2.112   0.926  0.1420  0.0821 -0.4327
  615SOL    HW1 1844   0.733   2.014   0.901 -1.6980  1.8579  0.2098
  615SOL    HW2 1845   0.623   2.124   0.978 -0.2460  1.6497  1.2519
  616SOL     OW 1846   1.774   0.978   2.631  0.1823  0.0323  0.0692
  616SOL    HW1 1847   1.733   1.060   2.583 -0.1478 -1.0564 -1.6382
  616SOL    HW2 1848   1.825   0.921   2.565  0.4621 -1.4073  0.7370
  617SOL     OW 1849   1.125   0.271   0.233  0.5411 -0.6032 -0.3030
  617SOL    HW1 1850   1.111   0.350   0.173  0.3087  0.3333 -1.8107
  617SOL    HW2 1851   1.162   0.193   0.187  0.6412  1.2300 -2.4292
  618SOL     OW 1852   2.329   2.026   2.336 -0.0066  0.4072 -0.1113
  618SOL    HW1 1853   2.276   2.078   2.269  1.3064  0.4493  1.2949
  618SOL    HW2 1854   2.285   2.034   2.427 -0.5710 -0.4630 -0.4311
  619SOL     OW 1855   2.174   1.949   0.869 -0.4684  0.5387  0.3387
  619SOL    HW1 1856   2.127   2.040   0.858 -1.4424  2.1337 -1.0323
  619SOL    HW2 1857   2.104   1.884   0.892 -2.0037  2.0744 -0.4432
  620SOL     OW 1858   2.231   2.684   1.831  0.5587  0.0046  0.8950
  620SOL    HW1 1859   2.325   2.649   1.826 -0.4516  1.4994  0.9029
  620SOL    HW2 1860   2.184   2.621   1.898 -1.7637 -4.2702  0.3483
  621SOL     OW 1861   3.051   1.791   0.795 -0.0835 -0.6377  0.2756
  621SOL    HW1 1862   3.055   1.687   0.792 -2.4787 -1.5095 -1.0464
  621SOL    HW2 1863   3.035   1.834   0.710 -2.6339 -1.9306 -0.9359
  622SOL     OW 1864   0.998   1.828   2.896 -0.3454 -0.1853 -0.1193
  622SOL    HW1 1865   0.952   1.869   2.816  0.4827  1.5143  2.2946
  622SOL    HW2 1866   1.026   1.896   2.968  0.7581 -0.9533 -1.8542
  623SOL     OW 1867   2.606   2.642   2.325 -0.6203  0.5313  0.2690
  623SOL    HW1 1868   2.547   2.681   2.251  0.7405  0.9817 -0.1845
  623SOL    HW2 1869   2.675   2.576   2.292 -3.9493  2.1727 -1.2033
  624SOL     OW 1870   0.862   2.426   0.442  0.5609  0.5944 -0.4053
  624SOL    HW1 1871   0.904   2.461   0.528 -0.5121 -2.5000  1.6992
  624SOL    HW2 1872   0.876   2.327   0.446  1.2534  0.1568 -1.4678
  625SOL     OW 1873   0.340   2.005   2.307  0.1107 -0.3685 -0.0299
  625SOL    HW1 1874   0.336   1.910   2.347  0.1562 -1.3183 -0.0139
  625SOL    HW2 1875   0.426   2.023   2.256 -0.2208 -0.7215 -2.5433
  626SOL     OW 1876   0.553   2.816   0.116  0.0466 -0.0638  0.4823
  626SOL    HW1 1877   0.564   2.845   0.213  0.7133 -2.0429 -0.3001
  626SOL    HW2 1878   0.518   2.719   0.109 -2.0826 -4.3263 -0.1129
  627SOL     OW 1879   1.459   1.612   0.030 -0.1464  0.3304 -0.2615
  627SOL    HW1 1880   1.416   1.609   3.048  0.2211  1.8191  2.4223
  627SOL    HW2 1881   1.493   1.702   0.051 -0.3107 -1.0531 -0.1852
  628SOL     OW 1882   1.561   2.237   0.796 -0.2355  0.6615 -0.0784
  628SOL    HW1 1883   1.550   2.164   0.868 -0.3478  0.2003  2.9959
  628SOL    HW2 1884   1.594   2.317   0.849 -0.8780  0.2283  0.4678
  629SOL     OW 1885   0.688   0.198   1.800 -0.1126  0.5845  0.2960
  629SOL    HW1 1886   0.635   0.210   1.887  0.3015  2.0493  2.6910
  629SOL    HW2 1887   0.770   0.140   1.818 -2.4475 -2.2060  4.3271
  630SOL     OW 1888   2.495   0.565   1.550  0.1401  0.1648 -0.1054
  630SOL    HW1 1889   2.395   0.574   1.569 -0.2483  1.1352  0.0635
  630SOL    HW2 1890   2.505   0.528   1.456 -1.9231  0.0483  0.5061
  631SOL     OW 1891   1.516   0.411   1.167  0.0543 -0.1485  0.3072
  631SOL    HW1 1892   1.517   0.483   1.096  2.3873  0.6119  0.5860
  631SOL    HW2 1893   1.436   0.353   1.160  4.1048  1.8369  1.5869
  632SOL     OW 1894   2.833   0.872   2.032  0.1059  0.1652 -0.2748
  632SOL    HW1 1895   2.890   0.893   1.952  0.5558  1.2791  2.2406
  632SOL    HW2 1896   2.900   0.851   2.112  1.8207  1.7943  1.0450
  633SOL     OW 1897   1.191   0.754   2.963  0.0678  0.4853  0.4719
  633SOL    HW1 1898   1.205   0.679   3.024 -2.5292  1.6515 -0.4040
  633SOL    HW2 1899   1.130   0.725   2.882 -2.7975  2.5390 -2.6505
  634SOL     OW 1900   0.453   2.531   0.132  0.0222 -0.0168  0.1480
  634SOL    HW1 1901   0.484   2.549   0.227 -2.6360  0.2185  1.8911
  634SOL    HW2 1902   0.529   2.480   0.089  2.0488 -0.8262  0.0833
  635SOL     OW 1903   2.903   1.590   1.546  0.5432 -0.6602  0.4587
  635SOL    HW1 1904   2.806   1.560   1.553  1.3830  1.3312 -0.5655
  635SOL    HW2 1905   2.945   1.606   1.636 -2.0108  0.7631 -1.7390
  636SOL     OW 1906   3.056   1.692   0.088  0.0340  0.2097 -0.1883
  636SOL    HW1 1907   0.041   1.669   0.060  3.0016 -1.6755  2.1874
  636SOL    HW2 1908   3.041   1.791   0.115 -1.2455 -2.6279  2.0078
  637SOL     OW 1909   2.886   2.450   0.444 -0.4752 -0.0421 -0.1263
  637SOL    HW1 1910   2.907   2.548   0.455  0.9416  0.0117 -1.2344
  637SOL    HW2 1911   2.831   2.408   0.518  0.1001  0.8245 -0.9009
  638SOL     OW 1912   3.019   2.802   0.195 -0.2173  0.0615  0.3491
  638SOL    HW1 1913   3.019   2.699   0.215  0.1095 -1.1314  3.8815
  638SOL    HW2 1914   3.102   2.833   0.149 -0.5496 -0.1335  2.6891
  639SOL     OW 1915   1.597   0.213   2.988  0.3324  0.6570 -0.4348
  639SOL    HW1 1916   1.567   0.307   3.027 -0.0704 -0.2772  0.5475
  639SOL    HW2 1917   1.517   0.171   2.943  1.4941 -0.1693  0.7469
  640SOL     OW 1918   2.348   2.127   1.428 -0.2688 -0.4933  0.8798
  640SOL    HW1 1919   2.325   2.107   1.329  0.3266 -1.8482  1.6778
  640SOL    HW2 1920   2.312   2.217   1.462 -0.9799  0.6417 -1.3434
  641SOL     OW 1921   2.936   2.921   1.093  0.5441  0.2030 -0.5834
  641SOL    HW1 1922   2.861   2.978   1.139 -2.4110  0.7735  3.4461
  641SOL    HW2 1923   2.948   2.956   1.003  1.3727  0.0132  1.4004
  642SOL     OW 1924   1.621   1.275   1.555 -0.0595  0.4640 -0.0682
  642SOL    HW1 1925   1.670   1.345   1.616 -1.2032  1.7943 -1.6964
  642SOL    HW2 1926   1.667   1.185   1.569  0.2785 -0.6960 -0.4629
  643SOL     OW 1927   1.051   1.837   2.438 -0.3722 -0.3004  0.1046
  643SOL    HW1 1928   1.108   1.818   2.350  1.7239 -0.6477 -1.1949
  643SOL    HW2 1929   0.957   1.868   2.419 -0.0199 -1.8894  4.7113
  644SOL     OW 1930   1.945   3.075   2.130 -0.0996 -0.4077 -0.5758
  644SOL    HW1 1931   2.018   0.036   2.150  1.8903 -0.9207 -2.9564
  644SOL    HW2 1932   1.848   3.103   2.151 -0.2637  0.8368 -0.0586
  645SOL     OW 1933   1.572   1.061   1.845 -0.1256  0.4074 -0.4432
  645SOL    HW1 1934   1.486   1.109   1.821  1.6320 -1.7417  1.5437
  645SOL    HW2 1935   1.645   1.070   1.776 -1.1005  0.6343 -0.3998
  646SOL     OW 1936   1.269   2.600   3.011  0.1142 -0.3557  0.3326
  646SOL    HW1 1937   1.241   2.584   2.918  0.6313 -0.4597  1.3172
  646SOL    HW2 1938   1.366   2.560   3.025  2.2891 -1.2465  2.1360
  647SOL     OW 1939   1.267   2.356   1.083  0.2206 -0.3811 -0.3298
  647SOL    HW1 1940   1.193   2.390   1.023  2.0757 -0.4960  0.0818
  647SOL    HW2 1941   1.254   2.266   1.130 -1.5337 -2.5140  1.5378
  648SOL     OW 1942   3.023   2.720   1.286 -0.4369  0.2871 -0.4130
  648SOL    HW1 1943   0.003   2.727   1.338 -1.2355  3.5921  3.5616
  648SOL    HW2 1944   3.029   2.790   1.210  2.5160 -0.2621 -0.4313
  649SOL     OW 1945   0.906   2.437   2.688  0.8660  0.3324  0.2045
  649SOL    HW1 1946   0.960   2.353   2.702 -0.2725  0.4757  0.0187
  649SOL    HW2 1947   0.839   2.452   2.758  1.4660 -0.4038 -0.5908
  650SOL     OW 1948   2.927   1.850   2.830 -0.3549  0.1351  0.0177
  650SOL    HW1 1949   2.872   1.792   2.892 -0.2944  1.6270  0.3937
  650SOL    HW2 1950   3.028   1.823   2.836  1.1941 -0.6489  1.4068
  651SOL     OW 1951   2.317   2.238   2.055  0.0269  0.0928 -0.3267
  651SOL    HW1 1952   2.231   2.181   2.064 -0.3258  2.4969  0.8023
  651SOL    HW2 1953   2.314   2.293   1.971 -0.0658  0.3299  0.8866
  652SOL     OW 1954   2.237   2.761   1.212 -0.2257  0.1039 -0.3823
  652SOL    HW1 1955   2.229   2.770   1.315  0.6667  1.4456  0.1524
  652SOL    HW2 1956   2.333   2.741   1.181  1.1317 -0.4771  0.7067
  653SOL     OW 1957   2.943   1.261   1.229  0.0209 -0.0323 -0.0080
  653SOL    HW1 1958   2.847   1.243   1.263  0.7928 -1.6132  3.6892
  653SOL    HW2 1959   2.957   1.239   1.130  2.9281 -0.3149  0.0638
  654SOL     OW 1960   0.981   0.386   2.817 -0.4824  0.0224 -0.2281
  654SOL    HW1 1961   1.034   0.474   2.805 -1.0230 -0.2796  0.7573
  654SOL    HW2 1962   0.984   0.351   2.914  1.8298 -2.1286  0.3417
  655SOL     OW 1963   1.056   0.628   1.133  0.0912 -0.0188 -0.3879
  655SOL    HW1 1964   1.050   0.709   1.198 -0.2125  0.9776 -1.0722
  655SOL    HW2 1965   1.042   0.537   1.173 -2.6514  0.9375 -1.5572
  656SOL     OW 1966   0.517   2.448   1.962  0.3479  0.3115  0.2568
  656SOL    HW1 1967   0.436   2.398   2.002  1.7278 -1.9774  1.8176
  656SOL    HW2 1968   0.524   2.540   2.007  0.9116 -1.5436 -0.2163
  657SOL     OW 1969   2.538   1.050   0.204  0.0765 -0.1491  0.2167
  657SOL    HW1 1970   2.535   1.026   0.102 -1.5934 -1.1816 -1.2851
  657SOL    HW2 1971   2.598   1.130   0.222  1.8952  1.4244 -3.2671
  658SOL     OW 1972   1.742   2.020   1.398  0.0628  0.1813  0.0923
  658SOL    HW1 1973   1.789   2.074   1.469  2.7810 -1.6305  0.4968
  658SOL    HW2 1974   1.781   2.025   1.302  2.4678  1.8311 -3.0530
  659SOL     OW 1975   2.622   1.821   0.036 -0.2476  0.1386  0.1010
  659SOL    HW1 1976   2.710   1.791   0.002 -3.3632  0.8284 -0.6432
  659SOL    HW2 1977   2.576   1.744   0.075  2.4219  2.4313 -0.0771
  660SOL     OW 1978   0.992   0.365   0.764  0.0736  0.1755  0.1509
  660SOL    HW1 1979   1.026   0.270   0.758  0.5937  3.1960  3.7282
  660SOL    HW2 1980   0.998   0.407   0.672 -2.6365 -0.3382  2.7686
  661SOL     OW 1981   1.769   0.330   0.390  0.4339 -0.3409  1.0446
  661SOL    HW1 1982   1.677   0.295   0.356 -1.0914  0.6480  1.2986
  661SOL    HW2 1983   1.835   0.330   0.311  1.9790  0.7939 -2.8046
  662SOL     OW 1984   0.384   0.205   0.833 -0.4424 -0.0801  0.1976
  662SOL    HW1 1985   0.311   0.271   0.839 -0.9461 -1.6464  0.5234
  662SOL    HW2 1986   0.374   0.149   0.746 -0.3222  0.1447 -0.4923
  663SOL     OW 1987   1.242   2.906   2.229 -0.0663 -0.1665  0.2423
  663SOL    HW1 1988   1.215   2.989   2.284  1.9618 -1.2889 -0.4040
  663SOL    HW2 1989   1.250   2.822   2.284  0.7286  1.9491 -0.8729
  664SOL     OW 1990   0.745   2.267   1.610 -0.4739 -0.6423 -0.3253
  664SOL    HW1 1991   0.655   2.301   1.629 -0.2098 -1.3375 -0.2745
  664SOL    HW2 1992   0.815   2.344   1.615  0.3000  1.2996 -1.0465
  665SOL     OW 1993   1.132   2.205   1.774 -0.3349 -0.0846  0.3679
  665SOL    HW1 1994   1.065   2.275   1.798  2.4826 -1.0851 -2.2372
  665SOL    HW2 1995   1.198   2.244   1.703  0.6327  1.2082 -3.9473
  666SOL     OW 1996   0.621   2.909   2.650 -0.1074  0.0641 -0.4969
  666SOL    HW1 1997   0.535   2.872   2.628  0.0710 -1.5135 -3.1171
  666SOL    HW2 1998   0.652   2.977   2.573  0.6175  1.7108 -3.0214
  667SOL     OW 1999   2.388   0.971   1.406 -0.2629  0.0992 -0.1270
  667SOL    HW1 2000   2.335   1.009   1.331  1.8217 -2.6223 -0.1948
  667SOL    HW2 2001   2.326   0.942   1.480  4.5445 -2.6398 -0.7933
  668SOL     OW 2002   1.676   0.122   1.819 -0.0621 -0.3763 -0.2175
  668SOL    HW1 2003   1.764   0.073   1.845  3.0336 -1.5220  0.2607
  668SOL    HW2 2004   1.597   0.079   1.868  0.5518 -0.0830 -0.3557
  669SOL     OW 2005   2.491   2.669   1.154  0.1755 -0.1267 -0.2467
  669SOL    HW1 2006   2.526   2.637   1.244  2.6643  0.3169  1.9450
  669SOL    HW2 2007   2.550   2.636   1.079 -0.4126 -0.2297  0.8348
  670SOL     OW 2008   1.412   2.518   2.644 -0.5915 -0.0115 -0.2563
  670SOL    HW1 2009   1.321   2.527   2.686  0.6535 -0.6826  1.1666
  670SOL    HW2 2010   1.404   2.527   2.541  0.8872  0.5070  0.7494
  671SOL     OW 2011   0.549   1.187   0.459  0.4751 -0.3883  0.0801
  671SOL    HW1 2012   0.610   1.201   0.375 -0.7639  1.7109 -1.4449
  671SOL    HW2 2013   0.451   1.163   0.436 -1.2079 -0.9826 -1.0022
  672SOL     OW 2014   2.762   1.035   3.021 -0.7549  0.5069  0.2867
  672SOL    HW1 2015   2.807   1.077   3.098  0.0860 -3.2696 -0.1751
  672SOL    HW2 2016   2.811   0.946   3.010  1.3234  0.2387 -2.2584
  673SOL     OW 2017   0.165   2.055   1.439  0.0535  0.1831 -0.4859
  673SOL    HW1 2018   0.079   2.105   1.460  1.5906 -2.5497  0.2488
  673SOL    HW2 2019   0.147   1.956   1.447  1.7153  1.3343  1.8642
  674SOL     OW 2020   0.894   2.188   2.295  0.2455 -0.8727 -0.5294
  674SOL    HW1 2021   0.994   2.208   2.277  3.7348 -1.1226 -3.2590
  674SOL    HW2 2022   0.841   2.205   2.208  1.0101 -2.1481 -1.7709
  675SOL     OW 2023   1.123   1.107   1.536  0.0689  0.6280 -0.0370
  675SOL    HW1 2024   1.171   1.029   1.588  0.7545  0.1322 -0.1397
  675SOL    HW2 2025   1.031   1.075   1.499  0.5270 -1.8545 -0.5686
  676SOL     OW 2026   1.956   0.123   1.276 -0.4662  0.8867 -0.3862
  676SOL    HW1 2027   1.874   0.180   1.263 -2.2071 -1.8618 -0.6955
  676SOL    HW2 2028   1.936   0.051   1.345 -2.0340 -0.2216 -0.5029
  677SOL     OW 2029   2.983   0.733   0.088  0.5737 -0.0076 -0.4725
  677SOL    HW1 2030   3.011   0.634   0.104  0.1176 -1.7809  2.0158
  677SOL    HW2 2031   2.943   0.770   0.175  0.2185 -1.2893  1.0606
  678SOL     OW 2032   2.530   1.281   1.076 -0.2476  0.2319  0.1020
  678SOL    HW1 2033   2.599   1.320   1.010  2.5411 -1.0973  1.5683
  678SOL    HW2 2034   2.517   1.177   1.075 -0.2274 -1.0351  0.0063
  679SOL     OW 2035   2.598   0.778   2.873  0.3004 -0.4668  0.0721
  679SOL    HW1 2036   2.596   0.822   2.783 -1.7196  1.0141  0.8768
  679SOL    HW2 2037   2.694   0.778   2.908 -1.8946  0.3762  0.2239
  680SOL     OW 2038   0.435   1.415   2.054  0.3571 -0.4373 -0.0481
  680SOL    HW1 2039   0.481   1.439   2.140  0.3496  0.1242 -1.9300
  680SOL    HW2 2040   0.334   1.417   2.067 -1.1882  0.5888  0.4160
  681SOL     OW 2041   2.715   2.133   1.405 -0.4434 -0.3136  0.3495
  681SOL    HW1 2042   2.661   2.077   1.470  1.0018  1.3723  4.4416
  681SOL    HW2 2043   2.724   2.079   1.317 -0.0470 -0.0512 -2.1525
  682SOL     OW 2044   0.040   2.057   3.052  0.6841 -0.3507 -0.2439
  682SOL    HW1 2045   3.105   2.149   3.068  0.1078 -0.2293 -0.6755
  682SOL    HW2 2046   0.097   2.056   2.970  1.6691  1.0788  1.1503
  683SOL     OW 2047   2.806   2.189   0.852  0.2620  0.4463 -0.2634
  683SOL    HW1 2048   2.831   2.094   0.883  0.1640 -0.5496  0.2820
  683SOL    HW2 2049   2.752   2.224   0.929  2.4062 -0.0303  0.2108
  684SOL     OW 2050   2.761   1.161   2.152 -0.6379 -0.0457  0.4559
  684SOL    HW1 2051   2.692   1.150   2.079 -5.4242 -1.8078 -1.6963
  684SOL    HW2 2052   2.824   1.241   2.145  1.9468  0.2600  2.6117
  685SOL     OW 2053   1.304   0.710   0.902 -0.0364 -0.1174 -0.0709
  685SOL    HW1 2054   1.271   0.615   0.899  1.8640  0.4891 -0.0688
  685SOL    HW2 2055   1.343   0.739   0.994  2.5828  3.7714  1.1993
  686SOL     OW 2056   0.567   0.350   0.213 -0.0530  0.5490 -0.3466
  686SOL    HW1 2057   0.570   0.437   0.164  0.8898 -1.4928  0.3741
  686SOL    HW2 2058   0.661   0.305   0.221  1.6294 -0.8445 -0.6564
  687SOL     OW 2059   0.450   2.222   2.554 -0.0915 -0.2472 -0.4913
  687SOL    HW1 2060   0.465   2.275   2.467 -1.5321  0.8041  1.2814
  687SOL    HW2 2061   0.364   2.169   2.541 -1.9359 -0.1312 -0.2321
  688SOL     OW 2062   1.945   0.333   1.609 -0.0761 -0.2053 -0.0352
  688SOL    HW1 2063   2.003   0.344   1.528 -2.0248 -3.1267  5.4192
  688SOL    HW2 2064   1.855   0.293   1.578  0.5762  1.0150 -2.0353
  689SOL     OW 2065   1.774   0.929   1.033  0.6436 -0.2905  0.0133
  689SOL    HW1 2066   1.830   0.926   1.117  0.6100  0.9644 -0.7574
  689SOL    HW2 2067   1.685   0.965   1.049  0.2288 -1.5460 -0.9225
  690SOL     OW 2068   3.068   1.009   1.324  0.1617 -0.0169  0.5618
  690SOL    HW1 2069   3.070   1.100   1.278 -1.8148  0.2092  2.5752
  690SOL    HW2 2070   3.004   0.946   1.274  1.5021 -0.5791 -1.3753
  691SOL     OW 2071   2.888   1.333   1.721  0.2272 -0.3196  0.7183
  691SOL    HW1 2072   2.922   1.396   1.650  0.2758 -0.9368 -0.4744
  691SOL    HW2 2073   2.802   1.371   1.755  0.9974 -1.2028 -0.1018
  692SOL     OW 2074   1.017   0.594   1.799 -0.2793  0.6204 -0.0465
  692SOL    HW1 2075   1.037   0.641   1.713 -0.3722 -0.2807  3.3470
  692SOL    HW2 2076   0.949   0.514   1.794 -0.1784 -1.8439  1.4461
  693SOL     OW 2077   0.779   1.306   2.431 -0.5081 -0.5316 -0.3164
  693SOL    HW1 2078   0.834   1.348   2.357  0.7415  0.3355 -0.9115
  693SOL    HW2 2079   0.679   1.313   2.401 -3.0052  2.9138  1.7758
  694SOL     OW 2080   1.620   1.507   0.489 -0.2326  0.3030 -0.6625
  694SOL    HW1 2081   1.581   1.465   0.573  0.3110  1.7922 -2.3822
  694SOL    HW2 2082   1.552   1.504   0.410 -0.6881 -1.3458 -0.4840
  695SOL     OW 2083   0.565   1.072   1.341 -0.5024  0.3069 -0.3157
  695SOL    HW1 2084   0.472   1.087   1.298 -0.1520  0.7985 -1.5850
  695SOL    HW2 2085   0.558   1.085   1.438 -0.7028  0.5253 -0.7500
  696SOL     OW 2086   0.095   3.033   0.382 -0.1117 -0.3275  0.4625
  696SOL    HW1 2087   3.105   3.034   0.407  0.8351  1.0323  4.0955
  696SOL    HW2 2088   0.137   2.940   0.383 -0.1316 -0.7684 -0.6698
  697SOL     OW 2089   1.880   0.383   1.121  0.1403 -0.2457 -0.4753
  697SOL    HW1 2090   1.895   0.479   1.148  0.1834 -0.7749  1.6069
  697SOL    HW2 2091   1.808   0.335   1.176  1.0769 -0.7362  0.8894
  698SOL     OW 2092   1.750   1.410   1.763  0.3382 -0.5673 -0.4183
  698SOL    HW1 2093   1.775   1.498   1.805 -0.1775 -0.7460 -0.2659
  698SOL    HW2 2094   1.830   1.354   1.755  0.0980  3.4403 -0.5380
  699SOL     OW 2095   0.239   0.305   2.156 -0.1309 -0.3875  0.2983
  699SOL    HW1 2096   0.244   0.394   2.109 -3.1510 -0.4146  0.1395
  699SOL    HW2 2097   0.145   0.275   2.162  2.0643  0.4895 -1.7671
  700SOL     OW 2098   1.439   2.679   0.782 -0.3066  0.3873  0.2189
  700SOL    HW1 2099   1.533   2.703   0.823  0.2197  0.2601 -0.3521
  700SOL    HW2 2100   1.393   2.752   0.730 -2.2774 -1.4414  1.8803
  701SOL     OW 2101   0.276   1.423   2.529  0.0395  0.0548 -0.0940
  701SOL    HW1 2102   0.205   1.491   2.511  0.9561 -0.3286  0.3146
  701SOL    HW2 2103   0.330   1.449   2.609 -2.4686 -1.9499 -1.6453
  702SOL     OW 2104   0.428   0.343   3.017  0.0820  0.1651  0.0971
  702SOL    HW1 2105   0.438   0.414   3.086 -0.3606 -2.7122  1.1961
  702SOL    HW2 2106   0.370   0.268   3.051 -0.7057 -0.5359 -0.2273
  703SOL     OW 2107   1.853   2.984   2.485  0.5064 -0.0331 -0.1070
  703SOL    HW1 2108   1.862   2.890   2.518  0.4263  2.5887 -0.1313
  703SOL    HW2 2109   1.946   3.027   2.505 -1.0280  0.1308 -1.6635
  704SOL     OW 2110   2.576   1.868   0.639  0.3595 -0.8440  0.4129
  704SOL    HW1 2111   2.510   1.939   0.670  0.1679 -0.4880  0.2131
  704SOL    HW2 2112   2.637   1.915   0.570 -2.0758  0.1591  0.0732
  705SOL     OW 2113   2.807   2.047   2.050 -0.1867 -0.2025 -0.7904
  705SOL    HW1 2114   2.774   1.949   2.045  0.5838 -0.5371  0.6555
  705SOL    HW2 2115   2.742   2.108   2.094  1.5724 -0.2921 -1.8537
  706SOL     OW 2116   2.817   2.595   0.712  0.3549 -0.5287 -0.0023
  706SOL    HW1 2117   2.854   2.652   0.788 -0.0439 -1.1962  2.2930
  706SOL    HW2 2118   2.816   2.635   0.624 -0.9127  0.1566  2.7873
  707SOL     OW 2119   0.820   2.914   0.407  0.1416 -0.0477  0.2232
  707SOL    HW1 2120   0.903   2.880   0.368 -0.9060  0.6140  1.1881
  707SOL    HW2 2121   0.833   2.952   0.498 -0.8971  1.1948 -1.3095
  708SOL     OW 2122   0.398   2.165   1.525  0.9395  0.1367  0.2409
  708SOL    HW1 2123   0.311   2.129   1.486  1.0873  0.8840 -2.9745
  708SOL    HW2 2124   0.443   2.233   1.471 -2.5052 -2.8010  2.1604
  709SOL     OW 2125   1.391   2.785   2.027  0.6622 -0.7773 -0.0839
  709SOL    HW1 2126   1.356   2.686   2.007 -1.4634 -2.8647 -0.2083
  709SOL    HW2 2127   1.339   2.838   2.095  1.0406 -1.8278 -2.2935
  710SOL     OW 2128   1.763   2.662   2.491 -0.0775 -0.7947 -0.1482
  710SOL    HW1 2129   1.681   2.700   2.541 -0.8782  0.8878 -2.2719
  710SOL    HW2 2130   1.739   2.637   2.394  1.1023 -1.6428 -0.2055
  711SOL     OW 2131   1.155   2.547   2.769 -0.1200  0.6402 -0.0365
  711SOL    HW1 2132   1.127   2.644   2.783 -1.4242  2.0054  0.6155
  711SOL    HW2 2133   1.074   2.481   2.770 -1.7032 -1.7876  1.0220
  712SOL     OW 2134   1.044   2.208   2.732  0.1655  0.7861  0.2473
  712SOL    HW1 2135   1.122   2.215   2.794 -1.2211  1.0972 -1.0850
  712SOL    HW2 2136   1.004   2.114   2.744 -1.6327 -0.2073  4.0204
  713SOL     OW 2137   1.296   1.170   1.837  0.0280 -0.0804  0.3617
  713SOL    HW1 2138   1.262   1.246   1.779 -0.7837 -2.6489  0.4922
  713SOL    HW2 2139   1.244   1.088   1.819  0.3991  1.3099 -2.6817
  714SOL     OW 2140   1.453   1.454   1.236  0.0297 -0.0574 -0.3773
  714SOL    HW1 2141   1.430   1.354   1.251 -1.0732 -0.1273  3.5038
  714SOL    HW2 2142   1.546   1.467   1.262 -1.4843 -1.1296 -2.5203
  715SOL     OW 2143   2.636   2.947   0.437  0.1468 -0.0524  0.3008
  715SOL    HW1 2144   2.726   2.963   0.395  0.7516  0.8924  2.5104
  715SOL    HW2 2145   2.606   2.851   0.435 -0.5374 -0.1999 -0.4232
  716SOL     OW 2146   0.702   2.863   1.004  0.2337 -0.4624 -0.0410
  716SOL    HW1 2147   0.726   2.801   0.926 -0.7648 -0.3871  1.8422
  716SOL    HW2 2148   0.603   2.854   1.034 -0.6586 -3.7457 -2.1093
  717SOL     OW 2149   3.050   0.483   0.088 -0.0082 -0.0797  0.0990
  717SOL    HW1 2150   2.983   0.426   0.036  0.0662  3.7702  1.5524
  717SOL    HW2 2151   3.084   0.435   0.170  0.8870  0.0832  0.1116
  718SOL     OW 2152   1.683   1.559   1.309  0.1025  0.1323  0.2661
  718SOL    HW1 2153   1.763   1.539   1.369 -0.2988 -1.8473 -3.2633
  718SOL    HW2 2154   1.694   1.646   1.258 -1.3522  1.3727 -0.2349
  719SOL     OW 2155   3.050   2.516   0.213  0.4501  0.2542  0.0053
  719SOL    HW1 2156   3.088   2.433   0.171 -0.8869  1.4218 -0.7626
  719SOL    HW2 2157   2.971   2.494   0.278 -2.8434  1.9255  0.6745
  720SOL     OW 2158   1.103   0.959   1.040  0.1459 -0.4999 -0.6126
  720SOL    HW1 2159   1.117   0.868   0.998 -0.5358  0.4827 -1.4449
  720SOL    HW2 2160   1.186   1.020   1.034  2.1987  0.3793  0.6539
  721SOL     OW 2161   1.708   0.244   1.248 -0.0028  0.0793 -0.0341
  721SOL    HW1 2162   1.642   0.319   1.219 -0.6923 -2.2871  1.2048
  721SOL    HW2 2163   1.668   0.149   1.247  0.6906 -0.0408  1.5979
  722SOL     OW 2164   1.017   1.686   2.042  0.2200 -0.7224 -0.4676
  722SOL    HW1 2165   0.916   1.703   2.044 -1.5437  0.0410  1.3642
  722SOL    HW2 2166   1.078   1.745   2.101  2.4229 -3.0316 -1.9606
  723SOL     OW 2167   1.158   0.056   1.734 -0.2238  0.4944  0.1105
  723SOL    HW1 2168   1.170   0.073   1.635  1.6988  0.3461  0.4470
  723SOL    HW2 2169   1.222   3.093   1.763 -0.3071  0.5012  1.4491
  724SOL     OW 2170   1.728   2.049   1.940 -0.5029  0.2681  0.0485
  724SOL    HW1 2171   1.650   1.986   1.966  0.7965 -2.9010  1.2173
  724SOL    HW2 2172   1.741   2.056   1.841  1.5217 -0.9728  0.6101
  725SOL     OW 2173   1.239   2.881   1.304  0.4721  0.1412 -0.3842
  725SOL    HW1 2174   1.307   2.827   1.363 -0.0307 -3.9938  1.9768
  725SOL    HW2 2175   1.194   2.822   1.239  1.3629 -1.1793  2.3138
  726SOL     OW 2176   1.681   2.848   3.097  0.4660 -0.6834  0.3176
  726SOL    HW1 2177   1.664   2.946   0.017  0.6513  1.6044  0.3997
  726SOL    HW2 2178   1.777   2.827   0.011 -0.1338  0.5724  0.1730
  727SOL     OW 2179   1.360   1.741   0.756  0.1527  0.1650 -0.2153
  727SOL    HW1 2180   1.330   1.819   0.808  1.6164 -0.2583 -0.1750
  727SOL    HW2 2181   1.413   1.669   0.810  0.0972  1.4634 -0.8550
  728SOL     OW 2182   1.961   2.828   2.246  0.4172 -0.0289 -0.3310
  728SOL    HW1 2183   1.958   2.910   2.182 -0.2306  1.2457  1.5485
  728SOL    HW2 2184   1.929   2.854   2.340 -0.4974  2.1903 -2.3250
  729SOL     OW 2185   2.129   2.018   1.553  0.0008 -0.1999  0.2323
  729SOL    HW1 2186   2.199   2.074   1.508  2.9939 -0.0196 -0.4500
  729SOL    HW2 2187   2.094   1.951   1.485  0.9568  0.5777 -1.2384
  730SOL     OW 2188   2.035   0.681   2.516  0.1479 -0.1994  0.7401
  730SOL    HW1 2189   2.008   0.625   2.437 -1.5882  0.6937  2.3134
  730SOL    HW2 2190   1.995   0.642   2.598 -0.2303  2.0668  0.7456
  731SOL     OW 2191   0.631   0.340   1.274  0.3289  0.3807 -0.2597
  731SOL    HW1 2192   0.642   0.417   1.344  1.1918  1.6760  0.7142
  731SOL    HW2 2193   0.614   0.379   1.179 -1.7448 -0.2464 -2.1042
  732SOL     OW 2194   1.688   3.101   0.903  0.8056  0.2513  0.5196
  732SOL    HW1 2195   1.620   0.002   0.828  2.3961  0.6908 -0.6211
  732SOL    HW2 2196   1.761   0.063   0.902 -0.7681  1.8856 -2.2145
  733SOL     OW 2197   0.695   0.969   1.108 -0.3116  0.1502  0.6084
  733SOL    HW1 2198   0.660   1.018   1.192 -0.5596  1.1915 -1.1405
  733SOL    HW2 2199   0.770   1.024   1.067 -0.4252 -3.5656  0.4960
  734SOL     OW 2200   2.577   2.327   0.431 -0.5488  0.2916 -0.0937
  734SOL    HW1 2201   2.489   2.378   0.441 -2.7477  0.7373  1.8944
  734SOL    HW2 2202   2.622   2.320   0.524  0.0504  2.5079 -0.3916
  735SOL     OW 2203   0.540   0.625   0.122 -0.0432  0.0408  0.2292
  735SOL    HW1 2204   0.535   0.680   0.033  0.9552  0.3521 -3.0676
  735SOL    HW2 2205   0.443   0.608   0.148 -0.4372  1.9325  1.1701
  736SOL     OW 2206   1.906   2.431   2.522 -0.6470 -0.3661 -0.4791
  736SOL    HW1 2207   1.847   2.514   2.516 -2.8021  0.7265  0.3750
  736SOL    HW2 2208   1.962   2.423   2.609  2.0836 -2.1660 -0.1558
  737SOL     OW 2209   1.219   2.105   1.170 -0.2946  0.3904 -0.3797
  737SOL    HW1 2210   1.180   2.014   1.160  0.1990  1.2872  1.3135
  737SOL    HW2 2211   1.195   2.140   1.265  3.0576  2.1546  2.8147
  738SOL     OW 2212   1.641   2.858   2.197 -0.2050 -0.0320  0.8687
  738SOL    HW1 2213   1.551   2.854   2.142  1.6122  0.8674 -2.7591
  738SOL    HW2 2214   1.666   2.957   2.210 -1.4473  0.0481 -0.8516
  739SOL     OW 2215   1.294   2.025   2.088  0.2321  0.5592  0.1283
  739SOL    HW1 2216   1.384   2.001   2.115 -3.0827  2.3534 -1.1725
  739SOL    HW2 2217   1.260   2.109   2.135 -0.5037  1.5370 -0.3487
  740SOL     OW 2218   1.907   2.188   1.568 -0.4086 -0.3908  0.4881
  740SOL    HW1 2219   1.990   2.132   1.598  1.5423  1.2767  2.0495
  740SOL    HW2 2220   1.933   2.282   1.544 -0.6342  0.4185 -1.0850
  741SOL     OW 2221   1.977   1.748   2.844  0.5472 -0.2391 -0.4453
  741SOL    HW1 2222   1.885   1.759   2.808 -0.8908 -0.0216  1.3406
  741SOL    HW2 2223   2.044   1.783   2.780 -1.1279 -0.7262  1.0183
  742SOL     OW 2224   0.904   1.308   3.031 -0.0541 -0.0711  0.0954
  742SOL    HW1 2225   0.955   1.393   3.004 -1.3288  3.4826  1.7857
  742SOL    HW2 2226   0.905   1.230   2.960 -1.8387 -2.2262 -1.9483
  743SOL     OW 2227   2.261   0.873   2.751  0.5672 -0.0575  0.0055
  743SOL    HW1 2228   2.336   0.924   2.796 -1.9267 -1.9974  0.4375
  743SOL    HW2 2229   2.192   0.934   2.701 -1.8071 -1.9143  0.0257
  744SOL     OW 2230   2.044   2.704   1.641  0.1132  0.4673  0.3083
  744SOL    HW1 2231   2.058   2.794   1.595 -0.3371 -0.9953  1.9458
  744SOL    HW2 2232   2.107   2.693   1.718 -1.2227 -0.4510  0.7369
  745SOL     OW 2233   2.666   1.909   1.201  0.1394 -0.2336  0.1432
  745SOL    HW1 2234   2.765   1.925   1.190 -0.0373  0.3307  1.1409
  745SOL    HW2 2235   2.651   1.827   1.259 -1.3118 -1.7128 -1.1456
  746SOL     OW 2236   2.868   1.952   0.933 -0.3560  0.0980  0.3702
  746SOL    HW1 2237   2.769   1.914   0.926 -0.2028 -0.5750 -2.2659
  746SOL    HW2 2238   2.930   1.886   0.893 -0.7047  4.7202  1.0751
  747SOL     OW 2239   1.931   2.597   0.335  0.0600 -0.4128  0.4631
  747SOL    HW1 2240   1.912   2.503   0.367 -1.4719  1.7576  0.6442
  747SOL    HW2 2241   1.886   2.662   0.397 -0.6892 -2.6134 -1.2138
  748SOL     OW 2242   0.923   2.191   0.227  0.0205 -0.4087  0.2546
  748SOL    HW1 2243   0.950   2.198   0.129  3.0208  0.6824  0.5181
  748SOL    HW2 2244   0.829   2.225   0.232 -0.0614  0.7599 -0.7097
  749SOL     OW 2245   2.834   0.498   2.289  0.2380  0.0883 -0.3866
  749SOL    HW1 2246   2.838   0.410   2.340  0.8669  1.9732  0.1273
  749SOL    HW2 2247   2.926   0.528   2.262 -1.7296 -1.8329  1.4246
  750SOL     OW 2248   1.399   0.704   1.778  0.4709  0.0483  0.1533
  750SOL    HW1 2249   1.479   0.728   1.843  0.6177  0.9509 -0.1870
  750SOL    HW2 2250   1.384   0.600   1.782  0.6200  0.3831  1.9339
  751SOL     OW 2251   2.343   2.321   1.804 -0.3327  0.1133 -0.2490
  751SOL    HW1 2252   2.318   2.294   1.708 -1.1744  1.1978  3.5389
  751SOL    HW2 2253   2.385   2.421   1.810 -2.4658  1.5959  0.4221
  752SOL     OW 2254   1.948   1.781   0.888  0.3192  0.0915  0.3374
  752SOL    HW1 2255   1.874   1.772   0.952  2.1354 -2.8732 -0.2231
  752SOL    HW2 2256   1.974   1.695   0.841 -0.2070  1.7764  1.6988
  753SOL     OW 2257   1.499   0.813   2.365  0.8593 -0.2075  0.0880
  753SOL    HW1 2258   1.496   0.911   2.332 -1.1944  1.8021  1.9310
  753SOL    HW2 2259   1.442   0.807   2.453  0.2622  0.3249 -1.0950
  754SOL     OW 2260   0.108   2.691   1.014  0.1571 -0.5733  0.4137
  754SOL    HW1 2261   0.112   2.761   1.087 -1.6850 -0.4476 -2.4510
  754SOL    HW2 2262   0.146   2.602   1.045  0.2000  0.6903  1.2194
  755SOL     OW 2263   2.320   3.108   1.581 -0.3599 -0.5384  0.2688
  755SOL    HW1 2264   2.388   3.035   1.604 -2.1530 -1.9582 -2.5843
  755SOL    HW2 2265   2.349   0.056   1.502  0.5235 -2.6284  2.4286
  756SOL     OW 2266   1.656   1.185   2.483 -0.4418 -0.0366  0.0029
  756SOL    HW1 2267   1.647   1.268   2.537  0.9146  0.8459 -0.2543
  756SOL    HW2 2268   1.570   1.150   2.443  1.5677 -0.9413  0.4270
  757SOL     OW 2269   3.062   2.929   1.806 -0.4742 -0.0675  0.0739
  757SOL    HW1 2270   3.072   3.027   1.843  1.3908  2.1537  2.2372
  757SOL    HW2 2271   3.021   2.941   1.716  3.3650 -0.3604  0.9579
  758SOL     OW 2272   0.491   2.973   1.411  0.0672 -0.2581  0.0434
  758SOL    HW1 2273   0.470   3.017   1.497 -0.7808  1.4270  0.8200
  758SOL    HW2 2274   0.543   3.038   1.349  0.6711  0.2598 -0.1942
  759SOL     OW 2275   2.138   1.244   0.913 -0.9308 -0.0405  0.4757
  759SOL    HW1 2276   2.226   1.284   0.878  1.3307  0.2257 -1.8744
  759SOL    HW2 2277   2.065   1.314   0.898  1.8316 -1.1788  0.5917
  760SOL     OW 2278   1.446   0.061   1.944  0.1822  0.2034 -0.2272
  760SOL    HW1 2279   1.362   0.009   1.973  3.3634  0.6314  1.2981
  760SOL    HW2 2280   1.453   0.140   2.008  0.4610  1.1035  0.4781
  761SOL     OW 2281   2.156   0.327   0.462  0.8310 -0.3715 -0.0394
  761SOL    HW1 2282   2.135   0.250   0.397  0.2403  3.5824 -0.5806
  761SOL    HW2 2283   2.169   0.416   0.416  0.9121 -0.3358  1.8569
  762SOL     OW 2284   2.370   2.693   0.153 -0.2496 -0.4278 -0.0588
  762SOL    HW1 2285   2.461   2.687   0.196 -3.0779 -1.0513 -1.5820
  762SOL    HW2 2286   2.299   2.641   0.200  0.3004  2.1100  0.8733
  763SOL     OW 2287   1.058   0.846   1.290 -0.6345  0.0472 -0.2017
  763SOL    HW1 2288   1.087   0.901   1.206 -1.3288 -0.4027 -1.1813
  763SOL    HW2 2289   0.960   0.852   1.315 -0.8997  0.4005 -4.6483
  764SOL     OW 2290   2.256   2.592   2.639 -0.3307 -0.3905 -0.7386
  764SOL    HW1 2291   2.315   2.557   2.562  0.6016  1.6099 -3.9372
  764SOL    HW2 2292   2.199   2.516   2.676  1.3158  0.1227  0.4851
  765SOL     OW 2293   0.343   0.778   2.398 -0.3506  0.6287  0.0535
  765SOL    HW1 2294   0.290   0.692   2.425 -0.2353  3.6760  1.0323
  765SOL    HW2 2295   0.330   0.848   2.470 -0.4777 -0.7177 -0.5424
  766SOL     OW 2296   2.803   1.394   2.982  0.3048  0.2861 -0.3763
  766SOL    HW1 2297   2.720   1.390   3.047 -1.0628  0.6847  1.7972
  766SOL    HW2 2298   2.806   1.312   2.917 -3.1863 -0.4156  1.1690
  767SOL     OW 2299   0.016   1.955   1.800  0.0374 -0.3478 -0.1860
  767SOL    HW1 2300   3.038   1.994   1.756 -0.7538  1.5306 -1.9851
  767SOL    HW2 2301   0.069   1.899   1.740 -2.8117 -2.2478 -0.2812
  768SOL     OW 2302   1.024   0.848   0.047  0.2330 -0.6954  0.0891
  768SOL    HW1 2303   1.061   0.795   0.122  0.1538  2.0171 -1.3237
  768SOL    HW2 2304   1.077   0.832   3.070  1.3690 -2.0061 -0.4236
  769SOL     OW 2305   1.764   2.722   2.865  0.1830 -0.4978  0.2131
  769SOL    HW1 2306   1.855   2.770   2.857 -1.7901  0.7280 -0.2367
  769SOL    HW2 2307   1.719   2.750   2.951 -2.4254 -1.3407 -0.3413
  770SOL     OW 2308   0.694   0.010   2.486  0.0109  0.5537  0.0801
  770SOL    HW1 2309   0.776   0.017   2.425  0.6290  0.9610  1.9925
  770SOL    HW2 2310   0.666   0.104   2.511 -0.1506 -2.8106 -1.7333
  771SOL     OW 2311   0.788   2.616   0.862  0.2086 -0.2092 -0.2474
  771SOL    HW1 2312   0.707   2.598   0.801 -2.6627  3.0490 -0.0183
  771SOL    HW2 2313   0.757   2.606   0.962  2.5565 -0.7777 -0.3755
  772SOL     OW 2314   0.095   0.764   0.421 -0.1173  1.1000  0.0378
  772SOL    HW1 2315   0.156   0.702   0.472 -2.1697 -2.1425 -0.1522
  772SOL    HW2 2316   0.002   0.743   0.455 -1.1538  2.1093  3.3093
  773SOL     OW 2317   1.937   0.951   2.059 -0.0077 -0.0369  0.1715
  773SOL    HW1 2318   1.929   0.853   2.044 -0.3298  3.3731 -1.2699
  773SOL    HW2 2319   1.907   0.982   2.150  0.7305  0.1291 -2.7044
  774SOL     OW 2320   0.694   0.993   0.601 -0.4637  0.4428 -0.2202
  774SOL    HW1 2321   0.627   1.053   0.549 -1.2776 -0.6701  1.0418
  774SOL    HW2 2322   0.671   0.982   0.699  0.3463  2.0439 -1.2224
  775SOL     OW 2323   1.684   0.032   0.042 -0.4257 -0.0185 -0.1574
  775SOL    HW1 2324   1.615   0.046   0.115  1.3863  2.3338  1.2593
  775SOL    HW2 2325   1.659   0.100   3.076  0.7097 -1.6618 -0.7521
  776SOL     OW 2326   2.179   0.141   2.273 -0.0706 -0.0500  0.2606
  776SOL    HW1 2327   2.209   0.202   2.354 -1.3553  1.0677  3.2032
  776SOL    HW2 2328   2.254   0.118   2.213 -0.8287  0.3098  1.0873
  777SOL     OW 2329   0.879   1.627   0.171  0.5540  0.0950 -0.5605
  777SOL    HW1 2330   0.899   1.537   0.215  0.3426  0.5038  0.3888
  777SOL    HW2 2331   0.782   1.661   0.178  2.2832 -1.7666 -0.9370
  778SOL     OW 2332   0.237   2.652   0.006  0.9484  0.1758  0.1434
  778SOL    HW1 2333   0.200   2.739   0.045 -0.7592 -0.8725  2.4311
  778SOL    HW2 2334   0.318   2.619   0.064  2.8610 -0.7950  0.0261
  779SOL     OW 2335   0.302   1.160   0.072  0.2435  0.0117 -0.5583
  779SOL    HW1 2336   0.281   1.234   0.137 -0.1938 -0.8521 -2.3576
  779SOL    HW2 2337   0.305   1.070   0.122 -0.1286  0.9245  1.0189
  780SOL     OW 2338   2.235   0.311   1.894 -0.4883 -0.6896 -0.0240
  780SOL    HW1 2339   2.304   0.362   1.841  1.0025 -0.3108 -1.0295
  780SOL    HW2 2340   2.186   0.242   1.839  3.5088 -0.5146  0.6150
  781SOL     OW 2341   1.861   1.017   1.785 -0.3102 -0.3613 -0.3905
  781SOL    HW1 2342   1.915   1.103   1.767 -1.8260  2.7913  1.0598
  781SOL    HW2 2343   1.883   0.978   1.876 -0.0724  0.8562 -0.6899
  782SOL     OW 2344   1.693   1.801   2.226 -0.0075  0.5683 -0.2427
  782SOL    HW1 2345   1.753   1.855   2.289  1.5818 -2.6243  0.9637
  782SOL    HW2 2346   1.740   1.712   2.193  0.8428 -1.7510 -1.2549
  783SOL     OW 2347   1.458   3.099   1.561 -0.2921 -0.4152 -0.6851
  783SOL    HW1 2348   1.545   0.035   1.598  1.6165  2.1842  0.5845
  783SOL    HW2 2349   1.448   2.999   1.583 -0.2078 -0.5349  0.6446
  784SOL     OW 2350   1.989   0.924   2.422 -0.3008 -0.2502 -0.0259
  784SOL    HW1 2351   2.042   0.992   2.471 -0.1463  0.7417 -2.2542
  784SOL    HW2 2352   2.011   0.833   2.467  0.8891  0.3534  1.9605
  785SOL     OW 2353   1.931   0.349   0.178 -0.1665  0.9487  0.2240
  785SOL    HW1 2354   1.910   0.351   0.076  1.2869 -0.6204 -1.4831
  785SOL    HW2 2355   2.010   0.410   0.196  0.0348  0.2113  0.6930
  786SOL     OW 2356   2.976   1.835   0.520 -0.0462  0.0119  0.3230
  786SOL    HW1 2357   2.923   1.919   0.556 -1.8373  2.2541  0.3589
  786SOL    HW2 2358   3.055   1.870   0.464  2.9012  0.4003  0.9259
  787SOL     OW 2359   1.581   2.070   0.342  0.2561  0.3161 -0.2276
  787SOL    HW1 2360   1.622   2.088   0.436  0.2975  1.1191  2.0683
  787SOL    HW2 2361   1.518   2.150   0.323  0.9556  0.2146  0.5908
  788SOL     OW 2362   1.946   1.582   1.447 -0.1969  0.3871  0.0052
  788SOL    HW1 2363   1.974   1.576   1.350  3.6588 -1.8926  0.5354
  788SOL    HW2 2364   1.903   1.670   1.468 -1.2039  0.5098 -1.4568
  789SOL     OW 2365   3.061   1.247   2.603  0.0867  0.1650 -0.3332
  789SOL    HW1 2366   0.040   1.224   2.562 -3.0239 -0.6150  1.1423
  789SOL    HW2 2367   3.010   1.160   2.615 -0.2246 -1.2456  0.9767
  790SOL     OW 2368   0.556   0.188   2.696  0.7432 -0.6849  0.2542
  790SOL    HW1 2369   0.505   0.273   2.735  0.2516  0.6404  0.8207
  790SOL    HW2 2370   0.653   0.186   2.708 -3.8635  0.2101 -1.4312
  791SOL     OW 2371   1.074   0.042   2.944 -0.4845 -0.1345  0.2021
  791SOL    HW1 2372   0.981   0.081   2.963 -1.4647 -3.8601  1.8639
  791SOL    HW2 2373   1.096   3.076   3.015  1.4519  0.1225  2.4700
  792SOL     OW 2374   1.849   0.331   2.206 -0.3653 -0.8421 -0.1496
  792SOL    HW1 2375   1.791   0.338   2.120  3.0665  1.0031 -2.0420
  792SOL    HW2 2376   1.881   0.424   2.232  1.7453  3.6746  1.5963
  793SOL     OW 2377   2.853   0.526   1.869  0.9514  0.5286  0.2406
  793SOL    HW1 2378   2.822   0.556   1.772  2.6481  0.4906  0.1696
  793SOL    HW2 2379   2.780   0.523   1.938  2.6220 -1.0659 -0.2423
  794SOL     OW 2380   0.552   0.780   1.898 -0.4758  0.4745 -0.2043
  794SOL    HW1 2381   0.644   0.824   1.893  1.0858  2.0727  1.9333
  794SOL    HW2 2382   0.556   0.693   1.840  0.5888 -0.5751 -0.9937
  795SOL     OW 2383   2.991   1.456   0.496  0.1036 -0.1330  0.0729
  795SOL    HW1 2384   2.944   1.532   0.445  1.1322  1.4818  0.6816
  795SOL    HW2 2385   3.032   1.506   0.574 -1.2272 -0.6807 -0.4478
  796SOL     OW 2386   2.962   2.336   3.003 -0.4902 -0.5052 -0.1568
  796SOL    HW1 2387   2.932   2.296   3.094  1.6328 -0.0222  0.8311
  796SOL    HW2 2388   2.890   2.401   2.967  1.8333  0.4388  0.3668
  797SOL     OW 2389   2.194   2.495   0.256  0.3554 -0.0276  0.7456
  797SOL    HW1 2390   2.096   2.526   0.266  1.2603  1.5521  0.6563
  797SOL    HW2 2391   2.198   2.396   0.233  1.3530 -0.5697  0.1166
  798SOL     OW 2392   0.208   1.078   1.515 -0.5589 -0.0690  0.6780
  798SOL    HW1 2393   0.154   0.991   1.519  2.6729 -0.3607  1.0027
  798SOL    HW2 2394   0.237   1.092   1.417  0.1954 -0.6046 -1.9826
  799SOL     OW 2395   0.021   0.524   2.294 -0.3690 -0.2312  0.1368
  799SOL    HW1 2396   0.076   0.535   2.382  1.0322 -0.3595  1.2279
  799SOL    HW2 2397   0.081   0.529   2.213  1.0659  0.3558 -0.1774
  800SOL     OW 2398   2.887   2.058   0.627  0.0222  0.5820  0.2009
  800SOL    HW1 2399   2.976   2.102   0.601  1.5445 -0.3524 -0.3998
  800SOL    HW2 2400   2.855   2.084   0.718  1.5787  1.5282 -1.5620
  801SOL     OW 2401   1.257   1.142   0.920 -0.3411  0.1861  0.4540
  801SOL    HW1 2402   1.253   1.109   0.824 -1.9504  0.6763  1.6191
  801SOL    HW2 2403   1.217   1.235   0.936  3.1870 -0.4334  2.1037
  802SOL     OW 2404   1.260   1.860   1.507 -0.4728 -0.5524  0.3762
  802SOL    HW1 2405   1.272   1.782   1.445  0.8218  1.1169  1.2537
  802SOL    HW2 2406   1.247   1.951   1.453  0.3640  3.2340 -0.9194
  803SOL     OW 2407   2.893   1.670   0.325  0.2614  0.2122  0.1674
  803SOL    HW1 2408   2.966   1.665   0.255 -0.0627  0.7555 -0.3635
  803SOL    HW2 2409   2.919   1.738   0.397  2.9783  0.3551  0.1727
  804SOL     OW 2410   1.026   2.394   0.978 -0.1521  0.0363 -0.5183
  804SOL    HW1 2411   1.017   2.373   0.875  0.4301  0.7811 -5.5290
  804SOL    HW2 2412   0.976   2.320   1.034 -1.5356 -1.2321 -1.4710
  805SOL     OW 2413   1.573   1.347   3.016  0.3490  0.4609  0.2322
  805SOL    HW1 2414   1.552   1.433   3.064 -0.6184  1.8615  1.0081
  805SOL    HW2 2415   1.489   1.299   2.986  0.7731  0.6981  2.2702
  806SOL     OW 2416   1.416   2.771   1.479  0.6761  0.2871 -0.1744
  806SOL    HW1 2417   1.427   2.801   1.580  0.0579  0.7969  2.5496
  806SOL    HW2 2418   1.498   2.726   1.441 -1.0206  1.1287  0.3051
  807SOL     OW 2419   2.005   2.834   2.844  0.1001 -0.0215  0.0021
  807SOL    HW1 2420   2.043   2.834   2.750 -0.0223  2.2010 -0.7568
  807SOL    HW2 2421   2.081   2.820   2.912 -0.2845 -0.7116  0.3306
  808SOL     OW 2422   0.291   1.417   0.276  0.4279  0.2054 -0.5390
  808SOL    HW1 2423   0.248   1.362   0.348  1.2998 -0.1258  0.9677
  808SOL    HW2 2424   0.265   1.513   0.281  1.0354 -2.4229  0.3856
  809SOL     OW 2425   2.695   0.871   2.286  0.4152  0.2526  0.1696
  809SOL    HW1 2426   2.722   0.862   2.188 -1.1294 -1.7752 -0.7499
  809SOL    HW2 2427   2.698   0.968   2.321 -1.5386  0.6211 -3.2468
  810SOL     OW 2428   2.634   0.135   1.935  0.3520 -0.0145  0.4054
  810SOL    HW1 2429   2.543   0.135   1.975  2.7314 -0.9999 -1.0491
  810SOL    HW2 2430   2.715   0.162   1.996 -2.1934 -0.3688 -1.0394
  811SOL     OW 2431   2.239   2.334   1.540 -0.0324  0.5509  0.2905
  811SOL    HW1 2432   2.151   2.369   1.575 -0.1182  0.9092  1.0239
  811SOL    HW2 2433   2.291   2.418   1.512 -4.2489 -2.0811 -1.3487
  812SOL     OW 2434   1.882   0.363   3.000  0.4461 -0.1882  0.3070
  812SOL    HW1 2435   1.792   0.316   2.993 -2.3178 -0.2957  0.7636
  812SOL    HW2 2436   1.867   0.461   3.017  1.7111  0.1759  0.8920
  813SOL     OW 2437   1.701   0.372   1.950 -0.4811  0.2841 -0.0790
  813SOL    HW1 2438   1.759   0.448   1.923 -0.9542  1.0021  1.1994
  813SOL    HW2 2439   1.693   0.298   1.878  1.1993 -0.1082 -1.6716
  814SOL     OW 2440   2.119   1.425   1.577  0.1641 -0.6136  0.6796
  814SOL    HW1 2441   2.155   1.365   1.504  0.5880  1.6759 -1.6113
  814SOL    HW2 2442   2.040   1.481   1.541  0.7470 -1.2099 -1.1162
  815SOL     OW 2443   0.283   1.139   0.393 -0.2737 -0.4133  0.4062
  815SOL    HW1 2444   0.193   1.169   0.423  0.6370 -0.6265 -0.8229
  815SOL    HW2 2445   0.274   1.046   0.352  3.1140  0.3788  2.6090
  816SOL     OW 2446   1.670   1.711   2.748 -0.0822  0.0370  0.1777
  816SOL    HW1 2447   1.717   1.764   2.678 -0.1800 -0.5178 -0.8876
  816SOL    HW2 2448   1.587   1.669   2.705  0.6582 -1.2872 -1.2540
  817SOL     OW 2449   0.096   2.895   0.746  0.0947  0.2959 -0.1085
  817SOL    HW1 2450   0.179   2.873   0.798 -1.7880  1.5746 -0.9903
  817SOL    HW2 2451   0.072   2.819   0.683  1.0056 -1.3319  0.9822
  818SOL     OW 2452   1.447   0.416   2.705  0.3663  0.1786 -0.4071
  818SOL    HW1 2453   1.505   0.336   2.703 -1.9874 -0.0786 -6.6089
  818SOL    HW2 2454   1.351   0.393   2.703  4.7404  0.2520  0.1928
  819SOL     OW 2455   0.936   1.094   0.558 -0.4954  0.3215 -0.1784
  819SOL    HW1 2456   0.995   1.044   0.494 -1.4376  1.4150  2.7647
  819SOL    HW2 2457   0.842   1.055   0.563 -0.2727 -2.5092  0.0806
  820SOL     OW 2458   2.473   0.985   1.088 -0.2834 -0.2194 -0.0016
  820SOL    HW1 2459   2.538   0.962   1.160  0.7170  1.1155 -1.2270
  820SOL    HW2 2460   2.379   0.991   1.118  0.6195 -0.2029 -0.9066
  821SOL     OW 2461   2.264   0.039   0.430 -0.0610 -0.0084  0.1467
  821SOL    HW1 2462   2.254   3.050   0.457 -1.9342 -0.4107 -0.7346
  821SOL    HW2 2463   2.196   0.064   0.356 -0.7142 -1.6247 -0.2925
  822SOL     OW 2464   0.446   2.654   2.546  0.1484  0.2404  0.0356
  822SOL    HW1 2465   0.482   2.628   2.640  0.0379 -0.7252  1.2898
  822SOL    HW2 2466   0.391   2.742   2.544 -0.3746 -0.1896  0.0364
  823SOL     OW 2467   0.231   2.388   1.743  0.1964  0.9043  0.3227
  823SOL    HW1 2468   0.144   2.377   1.692  0.8803 -1.6863 -0.7706
  823SOL    HW2 2469   0.213   2.443   1.830 -0.7499 -0.3611 -2.6424
  824SOL     OW 2470   0.918   2.895   2.095 -0.3416 -0.2248 -0.3841
  824SOL    HW1 2471   0.915   2.882   1.995  2.8895  2.0062  0.8987
  824SOL    HW2 2472   0.944   2.810   2.142 -1.1536 -0.6763 -1.6481
  825SOL     OW 2473   1.240   1.967   0.352  0.1946 -0.0017  0.1608
  825SOL    HW1 2474   1.169   1.908   0.298 -2.5977 -0.2273 -2.5024
  825SOL    HW2 2475   1.205   1.986   0.443  1.0409 -0.9170  0.0599
  826SOL     OW 2476   1.123   2.972   0.024 -0.0605 -0.0019 -0.0632
  826SOL    HW1 2477   1.040   2.994   0.078 -0.9255  1.3514 -0.9930
  826SOL    HW2 2478   1.175   2.894   0.066  0.4343  3.1604  0.8031
  827SOL     OW 2479   0.077   1.816   1.522 -0.1844  0.2472  0.4288
  827SOL    HW1 2480   3.103   1.804   1.458  0.2683 -0.5301 -2.4223
  827SOL    HW2 2481   0.147   1.741   1.509  3.2160 -1.1886 -1.2982
  828SOL     OW 2482   2.572   1.668   1.315  0.2277  0.0506 -0.1376
  828SOL    HW1 2483   2.491   1.621   1.277 -0.5445  1.6766 -1.6018
  828SOL    HW2 2484   2.614   1.618   1.390  0.0879  0.4682  2.3412
  829SOL     OW 2485   2.867   2.197   0.107  0.5234 -0.0100  0.3006
  829SOL    HW1 2486   2.931   2.197   0.188 -0.0019  0.1152  2.3666
  829SOL    HW2 2487   2.811   2.109   0.123 -0.0202 -1.4987  1.6060
  830SOL     OW 2488   1.042   0.737   0.714 -0.0406 -0.1882 -0.1837
  830SOL    HW1 2489   1.137   0.743   0.748  0.4773 -0.9950 -0.2649
  830SOL    HW2 2490   0.982   0.712   0.791  4.0439 -1.6204  0.6091
  831SOL     OW 2491   2.762   1.963   0.205 -0.0235 -0.0626  0.5617
  831SOL    HW1 2492   2.684   1.915   0.165  0.8580  3.5095  1.0097
  831SOL    HW2 2493   2.731   2.018   0.282  1.3075 -1.7842 -1.0454
  832SOL     OW 2494   1.081   2.720   0.579  0.7730 -0.2663  0.2666
  832SOL    HW1 2495   1.047   2.651   0.644  1.1129  0.4101 -0.6983
  832SOL    HW2 2496   1.177   2.748   0.600 -0.7879  1.4793  1.1563
  833SOL     OW 2497   1.070   0.613   2.488  0.1372 -0.3281  0.5520
  833SOL    HW1 2498   1.063   0.625   2.386  2.9801 -0.1103  1.5789
  833SOL    HW2 2499   1.167   0.599   2.517  0.2078  0.4882 -2.4195
  834SOL     OW 2500   2.798   0.678   0.753  0.4752  0.3460  0.1462
  834SOL    HW1 2501   2.713   0.656   0.699  0.3588 -1.5862  2.0054
  834SOL    HW2 2502   2.814   0.595   0.815 -1.0769 -1.1583  1.8139
  835SOL     OW 2503   2.505   0.666   2.194  0.1213  0.2989  0.0162
  835SOL    HW1 2504   2.470   0.719   2.112  0.3681  1.0274  1.5896
  835SOL    HW2 2505   2.569   0.728   2.238 -1.9593 -0.8269 -3.7536
  836SOL     OW 2506   0.583   2.491   0.705 -0.2592 -0.2582  0.1467
  836SOL    HW1 2507   0.489   2.531   0.701  0.8337  1.8683 -1.5973
  836SOL    HW2 2508   0.606   2.417   0.639  0.3565 -1.6753 -1.2953
  837SOL     OW 2509   2.427   1.802   2.188  0.7086 -0.0329  0.2280
  837SOL    HW1 2510   2.392   1.712   2.230 -1.7774 -0.1568  1.7210
  837SOL    HW2 2511   2.389   1.887   2.230  0.6655 -0.7761 -0.4371
  838SOL     OW 2512   0.032   1.336   1.845 -0.1287 -0.2258  0.1084
  838SOL    HW1 2513   0.065   1.242   1.827 -1.2382 -2.0040  0.4070
  838SOL    HW2 2514   3.041   1.344   1.826 -0.6285  0.6124  0.0479
  839SOL     OW 2515   0.220   0.127   0.313 -0.3420 -0.0016  0.6625
  839SOL    HW1 2516   0.313   0.115   0.271  2.0941  1.2053 -0.7941
  839SOL    HW2 2517   0.172   0.045   0.344  2.1827 -0.0194  0.4126
  840SOL     OW 2518   0.127   0.600   2.553  0.2355 -0.2135  0.0544
  840SOL    HW1 2519   0.121   0.688   2.603 -2.1043 -2.8414  0.4491
  840SOL    HW2 2520   0.113   0.516   2.606 -1.3332  2.5333 -2.2267
  841SOL     OW 2521   0.484   2.320   2.840 -0.0329  0.4693  0.3210
  841SOL    HW1 2522   0.426   2.282   2.918 -0.4680 -1.7111  1.1222
  841SOL    HW2 2523   0.463   2.297   2.741 -1.0852 -0.6289  0.2742
  842SOL     OW 2524   0.889   0.178   1.083 -0.3650 -0.1832 -0.1300
  842SOL    HW1 2525   0.942   0.091   1.070 -0.1583 -1.2703 -1.9288
  842SOL    HW2 2526   0.808   0.196   1.022  0.5663 -0.5305 -1.4145
  843SOL     OW 2527   0.502   1.726   2.702  0.3977  0.9019 -0.3209
  843SOL    HW1 2528   0.593   1.703   2.664 -2.6796  0.9383  1.6484
  843SOL    HW2 2529   0.447   1.642   2.725  2.8443  1.7359 -0.9321
  844SOL     OW 2530   1.183   1.798   2.209 -0.4573  0.2367 -0.7755
  844SOL    HW1 2531   1.191   1.892   2.174  2.2684 -0.5099  1.3481
  844SOL    HW2 2532   1.276   1.761   2.234  3.2706 -0.5590 -1.0035
  845SOL     OW 2533   2.393   2.761   2.799 -0.1913  1.0306 -0.6584
  845SOL    HW1 2534   2.428   2.815   2.725 -2.4463 -0.4894  1.2893
  845SOL    HW2 2535   2.337   2.685   2.761 -0.5516 -0.3900  0.7850
  846SOL     OW 2536   2.013   1.515   2.992  0.1387 -0.6668  0.2369
  846SOL    HW1 2537   2.017   1.592   2.923  1.5365  1.2757 -1.8505
  846SOL    HW2 2538   2.019   1.556   3.085 -0.9887  0.3623 -0.0177
  847SOL     OW 2539   2.483   0.278   2.695 -0.0879  0.0297 -0.1015
  847SOL    HW1 2540   2.580   0.263   2.671 -4.0112  0.6512  1.1884
  847SOL    HW2 2541   2.478   0.358   2.758 -0.1150  0.9361 -1.9359
  848SOL     OW 2542   0.090   0.883   3.096  0.1705  0.3338 -0.1818
  848SOL    HW1 2543   0.132   0.918   0.077 -0.3180  2.3961  2.6575
  848SOL    HW2 2544   3.098   0.862   3.108  0.2071 -0.5975 -0.2855
  849SOL     OW 2545   1.440   0.150   2.399 -0.2073 -0.1604  0.0439
  849SOL    HW1 2546   1.505   0.081   2.437  0.9363 -1.3242 -0.0721
  849SOL    HW2 2547   1.474   0.247   2.419  0.1875  1.9409  2.2868
  850SOL     OW 2548   2.746   1.042   0.560  0.3627  0.1392  0.3351
  850SOL    HW1 2549   2.779   0.989   0.641  1.5404  2.2577 -2.2845
  850SOL    HW2 2550   2.660   1.007   0.528 -2.1432  1.3523  2.1128
  851SOL     OW 2551   0.335   1.163   0.938  0.3236  0.3983 -0.0110
  851SOL    HW1 2552   0.260   1.112   0.983  0.9172  0.2850 -1.5303
  851SOL    HW2 2553   0.407   1.098   0.896  1.8609 -0.3792 -1.8193
  852SOL     OW 2554   1.229   1.234   2.112 -0.2549  0.7819  0.3649
  852SOL    HW1 2555   1.206   1.335   2.100 -1.2290 -0.7929 -0.2916
  852SOL    HW2 2556   1.277   1.202   2.027  0.1387 -2.3727  0.4730
  853SOL     OW 2557   2.117   1.237   0.207  0.5429 -0.0496 -0.1926
  853SOL    HW1 2558   2.126   1.275   0.107 -1.9921  3.1058 -2.9756
  853SOL    HW2 2559   2.148   1.308   0.277  0.0893  0.0190 -1.1256
  854SOL     OW 2560   1.655   1.135   2.102  0.4909 -0.0147  0.0011
  854SOL    HW1 2561   1.749   1.127   2.141  2.1897  0.6375 -2.3606
  854SOL    HW2 2562   1.662   1.102   2.001 -0.3216  0.4753 -1.4831
  855SOL     OW 2563   0.497   2.300   2.267 -0.2862  0.4765 -0.7136
  855SOL    HW1 2564   0.423   2.297   2.197 -0.9488  3.5063  1.2861
  855SOL    HW2 2565   0.514   2.393   2.303 -0.8722 -1.1573  1.6024
  856SOL     OW 2566   1.192   0.974   2.158  0.2534  0.1721 -0.1288
  856SOL    HW1 2567   1.109   0.949   2.102  0.6312  0.6861 -2.2997
  856SOL    HW2 2568   1.191   1.074   2.167  1.7933 -0.1407 -0.4192
  857SOL     OW 2569   1.203   1.087   2.543  0.5180  1.0976  0.1475
  857SOL    HW1 2570   1.103   1.075   2.516 -3.2249  1.4139  0.4530
  857SOL    HW2 2571   1.267   1.041   2.476  0.4053 -0.4130 -0.6613
  858SOL     OW 2572   3.013   0.920   1.777  0.1326 -0.0076 -0.2843
  858SOL    HW1 2573   2.993   0.988   1.706 -0.3946 -0.5853  0.9175
  858SOL    HW2 2574   3.041   0.826   1.753  0.3020 -0.5274  0.2483
  859SOL     OW 2575   2.341   2.985   0.800 -0.1665  0.1855 -0.2705
  859SOL    HW1 2576   2.347   3.076   0.754  1.0834  1.4864  2.3742
  859SOL    HW2 2577   2.430   2.957   0.842 -1.3644 -2.0060  1.5770
  860SOL     OW 2578   1.567   0.406   1.509 -0.5897 -0.2393 -1.0228
  860SOL    HW1 2579   1.594   0.508   1.499 -1.0398  0.9977 -1.8042
  860SOL    HW2 2580   1.502   0.386   1.436 -3.0109 -0.4547 -1.8354
  861SOL     OW 2581   1.900   0.604   1.294 -0.0304  0.6470  0.1779
  861SOL    HW1 2582   1.915   0.697   1.332  0.3648 -2.0695 -1.1889
  861SOL    HW2 2583   1.828   0.557   1.341  1.5246  0.4787 -1.2379
  862SOL     OW 2584   1.363   2.898   2.589  0.2565  0.3892  0.6156
  862SOL    HW1 2585   1.311   2.837   2.528 -0.3518  2.1640  0.4620
  862SOL    HW2 2586   1.439   2.845   2.635  0.3130 -0.0714  0.9094
  863SOL     OW 2587   2.915   3.028   1.596  0.1094 -0.3244 -0.3135
  863SOL    HW1 2588   2.869   3.107   1.636 -0.9833  3.9562 -0.7391
  863SOL    HW2 2589   2.974   3.056   1.520 -0.1530  0.6720  0.7938
  864SOL     OW 2590   2.745   2.837   1.884 -0.7265 -0.2338 -0.8115
  864SOL    HW1 2591   2.796   2.866   1.967  0.4120  1.3135  0.2589
  864SOL    HW2 2592   2.681   2.908   1.861  0.6298  2.3249  0.2612
  865SOL     OW 2593   1.128   1.201   2.782 -0.3424  0.5985 -0.1348
  865SOL    HW1 2594   1.030   1.173   2.796 -0.8020 -2.5916  1.0668
  865SOL    HW2 2595   1.167   1.162   2.698  1.3131 -1.1192 -2.6482
  866SOL     OW 2596   2.468   2.991   1.202  0.1616 -0.0750  0.1199
  866SOL    HW1 2597   2.377   2.984   1.152 -3.4466 -0.5467 -1.0944
  866SOL    HW2 2598   2.487   2.908   1.263  0.5523 -1.2178  0.5732
  867SOL     OW 2599   2.938   2.714   0.914 -0.3508 -0.8994  0.5353
  867SOL    HW1 2600   3.029   2.676   0.928 -1.7766  1.8257 -0.2569
  867SOL    HW2 2601   2.918   2.788   0.984 -1.1850 -0.5326  0.8827
  868SOL     OW 2602   3.006   1.745   1.334  0.0972 -0.1508 -0.0511
  868SOL    HW1 2603   3.040   1.668   1.280 -3.3204  0.7306  4.9269
  868SOL    HW2 2604   2.947   1.704   1.410 -2.2738 -0.8140  1.1027
  869SOL     OW 2605   1.829   2.030   2.361  0.2047 -0.2378  0.1047
  869SOL    HW1 2606   1.758   2.059   2.433 -3.5879 -0.6631  0.9917
  869SOL    HW2 2607   1.915   2.084   2.372 -1.0957  0.4474 -2.4877
  870SOL     OW 2608   1.457   0.862   0.731  0.7488  0.1135 -0.6660
  870SOL    HW1 2609   1.392   0.940   0.707 -2.4637  0.9072  0.0422
  870SOL    HW2 2610   1.415   0.806   0.806 -1.7438 -1.5893  3.3513
  871SOL     OW 2611   2.717   1.786   1.800  0.4675 -0.1467 -0.2381
  871SOL    HW1 2612   2.650   1.776   1.727  0.3490 -2.3898 -0.7801
  871SOL    HW2 2613   2.677   1.817   1.889  0.6900 -0.9388 -0.1759
  872SOL     OW 2614   0.962   1.574   2.983 -0.4189 -0.3395 -0.3918
  872SOL    HW1 2615   0.969   1.670   2.947  0.6274 -0.6060  0.5828
  872SOL    HW2 2616   0.941   1.581   3.083 -2.6082  3.0322  0.5313
  873SOL     OW 2617   0.813   1.391   1.748  0.1878  0.7593  0.4583
  873SOL    HW1 2618   0.738   1.437   1.796  0.4496  0.2227 -0.2150
  873SOL    HW2 2619   0.894   1.452   1.756 -0.3979  0.7843 -0.6477
  874SOL     OW 2620   1.482   0.986   1.320 -0.2609  0.2065  0.0230
  874SOL    HW1 2621   1.470   1.081   1.345  0.7135  0.7556  1.2124
  874SOL    HW2 2622   1.478   0.926   1.400 -0.7156  1.6685 -0.7418
  875SOL     OW 2623   2.745   3.068   2.708  0.8730 -0.1619 -0.2877
  875SOL    HW1 2624   2.649   3.031   2.718 -0.5245 -2.1386 -0.2611
  875SOL    HW2 2625   2.772   3.070   2.610  2.1484  0.7839  0.2302
  876SOL     OW 2626   1.049   1.338   0.507 -0.2557  0.5283  0.0947
  876SOL    HW1 2627   1.010   1.246   0.517 -0.2487 -0.4732 -3.1517
  876SOL    HW2 2628   1.131   1.347   0.567  2.5518  1.0386  0.9889
  877SOL     OW 2629   1.978   2.814   0.597  0.0134 -0.1449  0.0035
  877SOL    HW1 2630   1.924   2.889   0.563  4.1590 -0.2418 -2.0382
  877SOL    HW2 2631   2.077   2.825   0.578  0.7085 -4.0881  0.8002
  878SOL     OW 2632   1.906   2.174   0.109  0.4649  0.4429  0.4659
  878SOL    HW1 2633   1.997   2.212   0.135  4.6703 -0.3766 -2.6432
  878SOL    HW2 2634   1.871   2.101   0.173 -0.4888  0.2479 -1.2411
  879SOL     OW 2635   0.413   2.025   1.771 -0.1196 -0.4975 -0.1552
  879SOL    HW1 2636   0.377   2.077   1.693 -0.3792 -0.0089 -0.2142
  879SOL    HW2 2637   0.338   2.014   1.838  0.7084  1.2720 -1.1644
  880SOL     OW 2638   0.223   1.870   0.865  0.3184 -0.5655 -0.4182
  880SOL    HW1 2639   0.231   1.834   0.960  0.5909 -3.1387  0.0263
  880SOL    HW2 2640   0.135   1.840   0.821 -0.2465 -0.4305 -2.8087
  881SOL     OW 2641   1.172   0.056   2.381  0.3523 -0.4309 -0.0128
  881SOL    HW1 2642   1.135   0.032   2.473 -0.8678 -1.3608  1.1956
  881SOL    HW2 2643   1.265   0.087   2.403  1.2411 -0.1000 -1.6496
  882SOL     OW 2644   2.525   1.037   0.820 -0.2088 -0.2461 -0.2318
  882SOL    HW1 2645   2.627   1.039   0.808 -1.9589  0.5031 -3.9911
  882SOL    HW2 2646   2.493   1.004   0.913 -0.0327  1.0681  0.1244
  883SOL     OW 2647   1.462   0.272   2.106  0.2210  0.1515 -0.0495
  883SOL    HW1 2648   1.469   0.273   2.209 -1.9317 -1.0203 -0.0890
  883SOL    HW2 2649   1.535   0.329   2.065 -3.3662 -2.0007  0.8252
  884SOL     OW 2650   0.138   0.224   1.723  0.0188 -0.3973  0.2357
  884SOL    HW1 2651   0.174   0.203   1.628  0.7574 -1.6818 -1.1187
  884SOL    HW2 2652   0.186   0.307   1.760  0.3692 -0.8700  1.2185
  885SOL     OW 2653   2.289   1.308   2.528  0.1434 -0.3795  0.6578
  885SOL    HW1 2654   2.323   1.383   2.594  0.9322  3.2796  0.2555
  885SOL    HW2 2655   2.222   1.338   2.460  1.2645  3.5398  0.5018
  886SOL     OW 2656   1.978   0.188   2.815 -0.2240  0.8386  0.2982
  886SOL    HW1 2657   1.989   0.233   2.730  2.9334  2.0474  2.8199
  886SOL    HW2 2658   1.950   0.263   2.876 -1.7807  2.6647 -0.8897
  887SOL     OW 2659   1.066   2.906   1.525 -0.1249  0.7180  0.5383
  887SOL    HW1 2660   1.115   2.907   1.612 -1.9874  1.5458 -0.8534
  887SOL    HW2 2661   1.124   2.899   1.439  2.1758  0.2476 -2.1365
  888SOL     OW 2662   2.228   1.594   2.032 -0.5905 -0.2111  0.4324
  888SOL    HW1 2663   2.263   1.629   2.124 -1.0270 -0.8701 -1.6668
  888SOL    HW2 2664   2.293   1.582   1.957 -1.5877 -0.8710  1.8665
  889SOL     OW 2665   1.917   2.422   1.286 -0.0465  0.3175 -0.2747
  889SOL    HW1 2666   2.014   2.457   1.277  1.4321 -0.0007 -0.5480
  889SOL    HW2 2667   1.896   2.369   1.201  2.1561  0.8641  1.0242
  890SOL     OW 2668   1.226   1.984   0.858  0.1758 -0.6090 -0.1088
  890SOL    HW1 2669   1.172   1.945   0.934  1.2270  1.1276 -0.0876
  890SOL    HW2 2670   1.159   1.999   0.780 -0.2642 -2.4737 -2.2490
  891SOL     OW 2671   0.032   1.215   0.492 -0.0993  0.0741  0.4870
  891SOL    HW1 2672   3.083   1.151   0.439  1.6252 -3.5614 -0.1252
  891SOL    HW2 2673   3.093   1.307   0.501 -1.3350  2.5241 -1.3680
  892SOL     OW 2674   2.435   1.755   2.828 -0.0456 -0.1434 -0.6740
  892SOL    HW1 2675   2.526   1.730   2.864 -2.2728 -0.0462  0.9307
  892SOL    HW2 2676   2.389   1.774   2.919 -0.8967 -1.5163  1.2908
  893SOL     OW 2677   2.171   2.496   1.257 -0.1455  0.5934  0.2469
  893SOL    HW1 2678   2.192   2.588   1.225 -1.6751  0.1089  0.6092
  893SOL    HW2 2679   2.207   2.475   1.351 -0.7559  2.1811  0.7366
  894SOL     OW 2680   2.619   0.118   0.714 -0.0651  0.5691  0.2964
  894SOL    HW1 2681   2.639   0.121   0.611  0.7457 -0.7116 -3.6028
  894SOL    HW2 2682   2.519   0.127   0.727  0.2668 -1.2818 -1.2194
  895SOL     OW 2683   2.470   2.488   2.487 -0.7213  0.5697  0.0567
  895SOL    HW1 2684   2.525   2.553   2.428 -0.0322 -1.3879  3.3770
  895SOL    HW2 2685   2.530   2.454   2.564 -0.6767  1.3163 -0.6435
  896SOL     OW 2686   2.096   2.812   2.603 -0.4771  0.0199 -0.5514
  896SOL    HW1 2687   2.149   2.725   2.605  0.2285  1.8650  2.1635
  896SOL    HW2 2688   2.133   2.867   2.520  3.2930  3.2480 -3.1769
  897SOL     OW 2689   0.199   1.679   2.104 -0.2523  0.3734  0.5999
  897SOL    HW1 2690   0.181   1.578   2.099  1.5698 -3.0657 -1.7036
  897SOL    HW2 2691   0.292   1.682   2.149  0.5712 -0.5570  0.7877
  898SOL     OW 2692   2.968   1.670   1.798  0.1142 -0.3109  0.5227
  898SOL    HW1 2693   2.879   1.717   1.784 -3.5363 -0.6887  0.7477
  898SOL    HW2 2694   3.000   1.706   1.884  0.0267  1.5561 -1.1069
  899SOL     OW 2695   1.807   3.070   1.443 -0.1043 -0.5380 -0.1423
  899SOL    HW1 2696   1.756   0.046   1.464 -0.9474 -2.1200 -1.2907
  899SOL    HW2 2697   1.744   3.005   1.405  2.2551 -0.1059 -1.0453
  900SOL     OW 2698   1.180   0.953   0.406 -0.0325  0.1300 -0.4523
  900SOL    HW1 2699   1.183   0.858   0.379 -0.4720 -1.8049  1.4860
  900SOL    HW2 2700   1.215   1.010   0.328  0.3636 -2.1285 -0.9367
  901SOL     OW 2701   0.880   1.129   2.847  0.1832 -0.0510  0.2413
  901SOL    HW1 2702   0.868   1.026   2.839  0.5193  0.4530 -2.3072
  901SOL    HW2 2703   0.812   1.181   2.791  0.3548 -0.4283 -2.1618
  902SOL     OW 2704   2.734   2.355   0.652 -0.0754 -0.1980 -0.1131
  902SOL    HW1 2705   2.752   2.448   0.683 -0.0627 -1.3456  0.6149
  902SOL    HW2 2706   2.760   2.277   0.721  1.6336 -2.4779  0.1366
  903SOL     OW 2707   2.686   1.455   1.866  0.1603 -0.3203  0.5726
  903SOL    HW1 2708   2.615   1.523   1.850  1.0544 -0.7476 -0.3503
  903SOL    HW2 2709   2.730   1.466   1.959 -1.1942 -0.0926  0.1380
  904SOL     OW 2710   1.582   1.107   0.728 -0.3327 -0.1524  0.0559
  904SOL    HW1 2711   1.557   1.012   0.749 -1.2057 -0.6001 -1.1311
  904SOL    HW2 2712   1.665   1.107   0.666 -0.5899  0.0614  0.6099
  905SOL     OW 2713   2.355   2.585   1.459  0.0624  0.0183 -0.3978
  905SOL    HW1 2714   2.292   2.664   1.472  1.2241 -1.3428 -0.2389
  905SOL    HW2 2715   2.447   2.622   1.436 -1.3541  0.5124 -1.0488
  906SOL     OW 2716   1.520   2.484   3.002  0.1899 -0.4063 -0.1074
  906SOL    HW1 2717   1.602   2.468   3.059 -0.3113  0.2031  1.1876
  906SOL    HW2 2718   1.525   2.429   2.917  1.4579 -0.2159  2.0188
  907SOL     OW 2719   0.398   2.923   0.640  0.1812 -0.2249  0.0152
  907SOL    HW1 2720   0.401   3.025   0.615 -3.5620  0.4530 -1.4315
  907SOL    HW2 2721   0.400   2.913   0.740 -1.4098  2.2468  2.8604
  908SOL     OW 2722   0.789   0.145   2.092 -1.2382  0.0326 -0.3233
  908SOL    HW1 2723   0.811   0.080   2.163  0.2698  0.5134 -1.1414
  908SOL    HW2 2724   0.845   0.225   2.101 -2.5207 -4.1352  0.4621
  909SOL     OW 2725   2.205   0.530   1.562 -0.6966  0.0030 -0.2200
  909SOL    HW1 2726   2.206   0.439   1.509 -4.0141  1.1522 -0.1792
  909SOL    HW2 2727   2.113   0.569   1.584  0.3176  1.7341  4.5121
  910SOL     OW 2728   1.093   0.687   0.266  0.6403 -0.4153 -0.1660
  910SOL    HW1 2729   1.003   0.681   0.313 -0.2863  1.8481  2.5342
  910SOL    HW2 2730   1.172   0.638   0.312  1.1522 -1.6997 -0.7673
  911SOL     OW 2731   0.105   0.461   2.978  0.4138  0.0289  0.0093
  911SOL    HW1 2732   0.032   0.491   3.043  1.0132 -2.3129 -1.6794
  911SOL    HW2 2733   0.102   0.365   2.957 -0.8551  0.9965  0.3283
  912SOL     OW 2734   2.678   2.430   2.666  0.2695  0.5891  0.1990
  912SOL    HW1 2735   2.738   2.461   2.744 -1.0384  1.7011  1.1806
  912SOL    HW2 2736   2.731   2.382   2.593 -0.8892 -0.9023 -1.0969
  913SOL     OW 2737   2.477   2.407   3.082 -0.3911 -0.1773 -0.0329
  913SOL    HW1 2738   2.529   2.396   0.063  2.2374 -2.4191  2.0538
  913SOL    HW2 2739   2.510   2.488   3.034 -2.5502 -2.3786 -2.3614
  914SOL     OW 2740   1.765   1.675   1.860 -0.1362  0.1954  0.4899
  914SOL    HW1 2741   1.866   1.689   1.862 -2.7539 -0.8435  0.7312
  914SOL    HW2 2742   1.741   1.653   1.955  0.4114 -0.6999 -0.4550
  915SOL     OW 2743   3.062   2.564   2.160 -0.6363  0.3231 -0.0518
  915SOL    HW1 2744   0.004   2.501   2.226  2.0692 -0.1347  3.1718
  915SOL    HW2 2745   2.965   2.561   2.193 -1.3301 -0.6002  0.0528
  916SOL     OW 2746   2.933   1.084   1.567 -0.5486 -0.3539  0.0994
  916SOL    HW1 2747   2.928   1.179   1.604 -2.4728  1.3847  0.5684
  916SOL    HW2 2748   2.990   1.090   1.483  1.4924 -1.7086  0.0324
  917SOL     OW 2749   2.144   0.054   3.012  0.1626 -0.9689 -0.7365
  917SOL    HW1 2750   2.084   0.011   3.082 -0.5885 -0.1373  3.1768
  917SOL    HW2 2751   2.090   0.102   2.938 -1.8041  1.0749 -1.9347
  918SOL     OW 2752   1.726   2.605   2.148 -0.3484  0.0571 -0.1834
  918SOL    HW1 2753   1.827   2.616   2.140  2.4823 -0.5678  0.7455
  918SOL    HW2 2754   1.679   2.698   2.161  0.3508  1.5165 -2.6103
  919SOL     OW 2755   1.810   2.349   1.820 -0.3643  0.4127 -0.4044
  919SOL    HW1 2756   1.814   2.303   1.728  2.3457 -2.0219  0.2447
  919SOL    HW2 2757   1.767   2.285   1.888  0.4358  0.7092 -1.7165
  920SOL     OW 2758   0.482   0.881   0.239  1.3963  0.8946 -0.1546
  920SOL    HW1 2759   0.563   0.921   0.287 -1.8729  0.6706 -0.4793
  920SOL    HW2 2760   0.505   0.876   0.142  0.2898  2.0334 -0.8420
  921SOL     OW 2761   2.927   0.996   2.616  0.5905 -0.0053  0.4922
  921SOL    HW1 2762   2.874   0.956   2.693  1.6669  0.4399 -0.4432
  921SOL    HW2 2763   2.869   1.025   2.537  0.2046  0.0013  1.5441
  922SOL     OW 2764   0.240   2.093   0.171  0.3035 -0.2212 -0.3706
  922SOL    HW1 2765   0.162   2.048   0.128 -0.5290 -0.0543 -0.3432
  922SOL    HW2 2766   0.320   2.035   0.191 -6.0459  0.1473 -0.6167
  923SOL     OW 2767   0.517   1.057   2.320  0.1150  0.5551 -0.3034
  923SOL    HW1 2768   0.455   1.018   2.249  3.0034  0.4383  0.2621
  923SOL    HW2 2769   0.564   0.988   2.372 -0.7303 -0.4878 -0.2966
  924SOL     OW 2770   1.047   2.780   2.850 -0.0339 -0.4247 -0.4335
  924SOL    HW1 2771   0.955   2.823   2.842 -0.5400 -1.1517 -0.2578
  924SOL    HW2 2772   1.093   2.804   2.937 -3.5604 -0.5494  0.1644
  925SOL     OW 2773   1.832   1.327   0.748  0.2369 -0.3470  0.0039
  925SOL    HW1 2774   1.746   1.385   0.761 -2.5304 -0.0672  0.3895
  925SOL    HW2 2775   1.821   1.255   0.680 -0.8405  1.9335  1.1912
  926SOL     OW 2776   1.830   0.687   1.999 -1.0463  0.7163  0.5195
  926SOL    HW1 2777   1.842   0.638   1.911  1.2090  1.4276  0.0864
  926SOL    HW2 2778   1.747   0.742   1.992  1.3464 -0.5096 -0.3482
  927SOL     OW 2779   2.690   2.433   1.727 -0.2528  0.4034  0.4009
  927SOL    HW1 2780   2.778   2.389   1.750 -0.4896 -0.3455  1.7879
  927SOL    HW2 2781   2.698   2.537   1.721 -0.3060  0.9173  1.1955
  928SOL     OW 2782   0.370   0.976   2.613  0.0007 -0.2430  0.5204
  928SOL    HW1 2783   0.374   0.889   2.665  0.8963 -0.4836 -0.3950
  928SOL    HW2 2784   0.462   1.022   2.623  1.6446 -1.5609  3.2658
  929SOL     OW 2785   2.757   2.903   0.686  0.3615 -0.2980 -0.0363
  929SOL    HW1 2786   2.685   2.894   0.761 -1.9052  0.1096  2.7588
  929SOL    HW2 2787   2.711   2.912   0.598  0.0025  1.1275  2.0407
  930SOL     OW 2788   2.500   0.228   1.590 -0.0717  0.6664 -0.1536
  930SOL    HW1 2789   2.427   0.186   1.641  1.5972 -0.3284 -0.5606
  930SOL    HW2 2790   2.484   0.214   1.491 -0.6865 -0.3253  1.4874
  931SOL     OW 2791   2.228   0.990   3.045 -0.1102 -0.3219  0.2829
  931SOL    HW1 2792   2.329   0.970   3.048  1.3862  3.5981 -1.0951
  931SOL    HW2 2793   2.203   1.085   3.023 -1.6646 -1.1918  1.7331
  932SOL     OW 2794   2.223   1.653   1.709 -0.2260 -0.0581  0.7047
  932SOL    HW1 2795   2.139   1.704   1.707  2.7771 -1.1242  1.9835
  932SOL    HW2 2796   2.210   1.561   1.667 -0.6155 -0.6250 -0.8718
  933SOL     OW 2797   0.178   2.748   1.479  0.1045  0.8051  0.5836
  933SOL    HW1 2798   0.234   2.665   1.460  0.4798  1.5056  0.9152
  933SOL    HW2 2799   0.156   2.757   1.579  2.7793 -2.7458 -2.7788
  934SOL     OW 2800   0.787   2.430   1.325  0.3367 -0.2746  0.0029
  934SOL    HW1 2801   0.840   2.366   1.271 -0.5461  1.7485 -0.0664
  934SOL    HW2 2802   0.853   2.502   1.352  0.3438  0.1106  1.5454
  935SOL     OW 2803   2.417   1.286   2.252  0.0474 -0.4142  0.3305
  935SOL    HW1 2804   2.370   1.250   2.334 -1.1533 -1.4254 -1.8129
  935SOL    HW2 2805   2.401   1.224   2.175 -0.4265  2.2765  0.3962
  936SOL     OW 2806   2.280   1.175   1.695  0.1211  0.4082  0.3222
  936SOL    HW1 2807   2.282   1.241   1.616 -0.8177 -0.8247 -0.5967
  936SOL    HW2 2808   2.364   1.188   1.749 -2.1544 -0.7091 -2.0025
  937SOL     OW 2809   2.197   0.834   2.213  0.0240  0.0448 -0.9465
  937SOL    HW1 2810   2.109   0.863   2.256 -0.0799  2.9710  1.1331
  937SOL    HW2 2811   2.253   0.784   2.282 -2.1066  0.0581  4.3883
  938SOL     OW 2812   0.776   2.481   2.920  0.3273  0.1054  0.0541
  938SOL    HW1 2813   0.861   2.470   2.978  3.0312  0.9979  0.0956
  938SOL    HW2 2814   0.739   2.571   2.942 -0.0884 -0.0897 -1.2025
  939SOL     OW 2815   2.857   0.793   2.948  0.6319  0.1530 -0.6345
  939SOL    HW1 2816   2.894   0.743   2.867 -1.4283  0.0788 -0.7312
  939SOL    HW2 2817   2.912   0.767   3.031  1.3546 -1.9067  0.1898
  940SOL     OW 2818   1.095   1.871   1.094 -0.0355  0.0725  0.0951
  940SOL    HW1 2819   1.158   1.802   1.132 -2.8791 -1.4282  2.6574
  940SOL    HW2 2820   0.998   1.850   1.116  1.0983 -0.0124  0.5311
  941SOL     OW 2821   0.642   2.076   1.897  0.0697  0.2592 -0.1292
  941SOL    HW1 2822   0.548   2.055   1.854  0.3479 -0.7559  0.6473
  941SOL    HW2 2823   0.724   2.055   1.840  2.4999  1.8178  0.2877
  942SOL     OW 2824   0.220   2.034   2.828 -0.0017  0.1421 -0.6437
  942SOL    HW1 2825   0.182   2.099   2.760 -1.5387  0.8805  1.3183
  942SOL    HW2 2826   0.323   2.026   2.811  1.1769  1.6773 -0.8216
  943SOL     OW 2827   1.777   2.838   1.759  0.0421 -0.2219  0.4620
  943SOL    HW1 2828   1.723   2.759   1.797 -1.0022 -1.1171  2.6362
  943SOL    HW2 2829   1.856   2.805   1.707  2.5578 -1.9244 -1.5022
  944SOL     OW 2830   1.076   1.809   0.211  0.3705 -0.2121  0.3733
  944SOL    HW1 2831   1.069   1.866   0.128 -3.2282  0.1408 -0.9487
  944SOL    HW2 2832   1.011   1.730   0.200  0.9734 -0.6102  0.9283
  945SOL     OW 2833   2.654   2.619   0.955  0.7704 -0.4411  0.3383
  945SOL    HW1 2834   2.750   2.655   0.955 -1.5550 -0.2517  2.0668
  945SOL    HW2 2835   2.617   2.603   0.861 -0.9018  2.6396  0.2314
  946SOL     OW 2836   0.886   1.498   2.736 -0.2202 -0.3364  0.1307
  946SOL    HW1 2837   0.958   1.515   2.667 -0.2435  1.6788 -2.0023
  946SOL    HW2 2838   0.902   1.537   2.829 -0.6716  0.2274 -1.9225
  947SOL     OW 2839   0.203   0.580   2.055 -0.8079 -0.0069  0.2332
  947SOL    HW1 2840   0.257   0.658   2.070 -4.5444 -1.1016  0.3297
  947SOL    HW2 2841   0.123   0.586   1.990  1.3521 -0.1881  2.2005
  948SOL     OW 2842   0.045   1.540   0.699 -0.2374  0.0070  0.5071
  948SOL    HW1 2843   0.120   1.567   0.638 -1.3365  0.4662  1.4860
  948SOL    HW2 2844   0.076   1.468   0.758 -0.3434  3.2433  0.0091
  949SOL     OW 2845   0.686   0.860   2.458 -0.3447  0.4435 -0.8332
  949SOL    HW1 2846   0.665   0.760   2.461  0.7563  1.0056 -1.4801
  949SOL    HW2 2847   0.783   0.874   2.437 -0.1544  1.4088 -0.1271
  950SOL     OW 2848   0.294   0.498   1.407  0.4578 -0.0110  0.2424
  950SOL    HW1 2849   0.323   0.592   1.385 -2.1631 -1.4164  0.3751
  950SOL    HW2 2850   0.365   0.457   1.464  0.4117  3.3329 -0.5640
  951SOL     OW 2851   0.719   1.294   2.693 -0.3414  0.2505 -0.6673
  951SOL    HW1 2852   0.778   1.372   2.733 -0.7731  4.2274  1.0847
  951SOL    HW2 2853   0.723   1.301   2.593 -0.3195 -0.5446  0.0414
  952SOL     OW 2854   1.974   2.149   0.808 -0.4495  0.4035  0.0386
  952SOL    HW1 2855   1.916   2.071   0.782 -1.0268  1.5314  1.9622
  952SOL    HW2 2856   2.020   2.187   0.725  1.3207 -2.0519  2.7609
  953SOL     OW 2857   0.769   0.703   0.261 -0.4909 -0.0364 -0.8881
  953SOL    HW1 2858   0.787   0.733   0.362  0.9420  0.3422 -0.4005
  953SOL    HW2 2859   0.677   0.667   0.252  0.5934  0.9732  0.3275
  954SOL     OW 2860   2.328   0.330   1.176 -0.2290  0.4486 -0.1739
  954SOL    HW1 2861   2.406   0.378   1.131 -0.9702  1.1552  2.2013
  954SOL    HW2 2862   2.248   0.332   1.111  1.9430 -0.6944 -0.3756
  955SOL     OW 2863   1.842   1.205   0.289 -0.2960 -0.2645  0.1581
  955SOL    HW1 2864   1.931   1.177   0.244 -0.1247 -2.0937 -1.8903
  955SOL    HW2 2865   1.770   1.225   0.218 -1.0165  0.1478  0.7547
  956SOL     OW 2866   1.197   0.580   1.998 -0.0003 -0.4172  0.1511
  956SOL    HW1 2867   1.134   0.589   1.915 -0.3167 -0.4508  0.8968
  956SOL    HW2 2868   1.285   0.628   1.978  1.1107  0.3959 -1.5019
  957SOL     OW 2869   1.345   0.436   1.782 -0.0479  0.6224 -0.6428
  957SOL    HW1 2870   1.251   0.430   1.826 -2.5025  0.4147  1.1804
  957SOL    HW2 2871   1.403   0.367   1.825  1.0698  0.4814  0.0630
  958SOL     OW 2872   0.279   2.103   0.488  0.7045 -0.4108  0.6220
  958SOL    HW1 2873   0.304   2.185   0.432  0.4611  2.1777  2.4333
  958SOL    HW2 2874   0.360   2.054   0.529 -0.7828 -2.1176  0.4490
  959SOL     OW 2875   2.221   0.881   1.670 -0.1117 -0.1782 -0.4812
  959SOL    HW1 2876   2.208   0.984   1.665  0.3251  1.1076 -3.3346
  959SOL    HW2 2877   2.230   0.838   1.762 -1.4579  0.6146 -0.1737
  960SOL     OW 2878   0.097   1.789   2.830  0.0758  0.0394 -0.0433
  960SOL    HW1 2879   0.146   1.876   2.837 -0.1082 -1.0378  1.4019
  960SOL    HW2 2880   0.123   1.729   2.906  1.2581  2.1298  1.3692
  961SOL     OW 2881   0.494   2.150   1.063  0.5928  0.0537  0.5561
  961SOL    HW1 2882   0.408   2.109   1.096 -1.9404  0.4247  1.4011
  961SOL    HW2 2883   0.487   2.247   1.028 -1.0135  1.6424  2.6384
  962SOL     OW 2884   0.347   1.335   1.154  0.0760  0.1515  0.9564
  962SOL    HW1 2885   0.362   1.288   1.067  0.3942  3.6330  0.8460
  962SOL    HW2 2886   0.319   1.434   1.127  3.3553 -0.5771 -1.0302
  963SOL     OW 2887   1.450   1.763   2.376 -0.4564 -0.1952 -0.0244
  963SOL    HW1 2888   1.454   1.661   2.386 -0.9475  1.6211 -1.5768
  963SOL    HW2 2889   1.526   1.796   2.319 -0.1386  0.1067 -2.1344
  964SOL     OW 2890   0.072   3.052   2.125 -0.2850  0.6614 -0.2734
  964SOL    HW1 2891   3.105   2.987   2.117  1.5628  1.8763  0.5798
  964SOL    HW2 2892   0.164   3.012   2.131  2.8333  0.3447 -1.2112
  965SOL     OW 2893   0.147   2.209   2.622  0.2401 -0.0956  0.3975
  965SOL    HW1 2894   0.171   2.298   2.589 -0.0084 -0.9956 -0.0952
  965SOL    HW2 2895   0.056   2.176   2.580 -3.3110 -4.3862  0.3402
  966SOL     OW 2896   2.838   1.711   3.034  0.0099 -0.3889  0.0079
  966SOL    HW1 2897   2.820   1.618   2.991 -1.1728 -1.7906 -0.6532
  966SOL    HW2 2898   2.908   1.698   3.105 -1.7643  1.3556 -0.5318
  967SOL     OW 2899   1.954   3.075   0.076 -0.3391  0.5387 -0.0618
  967SOL    HW1 2900   1.943   2.979   0.105 -2.6396  1.9483 -1.1599
  967SOL    HW2 2901   1.865   3.107   0.044  2.4237  0.5792 -2.0977
  968SOL     OW 2902   2.528   0.085   0.403 -0.3134 -0.0541  0.5590
  968SOL    HW1 2903   2.578   0.003   0.429 -0.1265  1.7049  0.5940
  968SOL    HW2 2904   2.431   0.067   0.424  1.6953  0.1489 -1.6615
  969SOL     OW 2905   0.112   1.087   1.784 -0.1173  0.2656  0.1535
  969SOL    HW1 2906   0.139   1.097   1.686 -0.0306 -0.6714 -1.1399
  969SOL    HW2 2907   0.040   1.016   1.799  0.5437 -1.3079  2.3570
  970SOL     OW 2908   1.595   1.854   0.055  0.0653 -0.6353  0.1356
  970SOL    HW1 2909   1.674   1.883   0.115  0.3515 -0.0340  0.6701
  970SOL    HW2 2910   1.518   1.920   0.073 -2.3540 -0.8131 -0.0285
  971SOL     OW 2911   2.499   2.878   1.603  0.1534  0.2957 -0.5815
  971SOL    HW1 2912   2.553   2.800   1.560  1.7380  0.8816 -0.0226
  971SOL    HW2 2913   2.536   2.911   1.693  0.9984  1.3993  0.7522
  972SOL     OW 2914   2.927   0.235   1.257  0.0860  0.1616 -0.1085
  972SOL    HW1 2915   2.964   0.268   1.166 -0.6099 -1.5975 -2.1009
  972SOL    HW2 2916   2.863   0.157   1.245  0.4501  1.1907  1.1113
  973SOL     OW 2917   0.813   0.490   2.517  0.2025  0.3269  0.4682
  973SOL    HW1 2918   0.908   0.525   2.499 -0.2218  1.5161 -0.7523
  973SOL    HW2 2919   0.780   0.513   2.612 -0.2412  0.0832 -1.1082
  974SOL     OW 2920   2.673   1.421   2.346 -0.0624  0.6967  0.0273
  974SOL    HW1 2921   2.595   1.362   2.312  0.5882 -3.0755  0.8090
  974SOL    HW2 2922   2.730   1.449   2.264  1.4895 -0.5339  0.4838
  975SOL     OW 2923   1.104   0.258   1.888  0.3395  0.1253 -0.2382
  975SOL    HW1 2924   1.144   0.244   1.980  0.3373  1.1313  0.1374
  975SOL    HW2 2925   1.120   0.178   1.825 -3.2558  0.2915  2.9143
  976SOL     OW 2926   1.407   1.543   1.535  0.6383  0.0943 -0.7014
  976SOL    HW1 2927   1.492   1.584   1.578  0.3234 -1.2681  0.1291
  976SOL    HW2 2928   1.419   1.509   1.437 -0.3703 -1.1068  0.7837
  977SOL     OW 2929   0.416   0.131   0.120  0.2413  0.4592  0.4239
  977SOL    HW1 2930   0.468   0.212   0.157  1.3252  1.3254  1.3689
  977SOL    HW2 2931   0.477   0.074   0.062  3.1680  3.1354  0.1136
  978SOL     OW 2932   2.362   1.042   2.117  0.7833 -0.0816  0.0886
  978SOL    HW1 2933   2.435   1.028   2.053 -3.4048  0.3980  1.7287
  978SOL    HW2 2934   2.305   0.959   2.142  0.1457 -2.5422  0.9009
  979SOL     OW 2935   1.581   0.827   1.973 -0.7485 -0.6838  0.2416
  979SOL    HW1 2936   1.497   0.809   2.028 -0.0144  0.6783  2.6409
  979SOL    HW2 2937   1.576   0.914   1.920  1.3510  1.3641 -0.5805
  980SOL     OW 2938   1.847   1.567   2.446  0.3201  0.3170  0.0637
  980SOL    HW1 2939   1.828   1.532   2.349  0.3090  0.1524  0.1442
  980SOL    HW2 2940   1.793   1.508   2.509  1.9872  0.3274  2.0157
  981SOL     OW 2941   1.882   0.537   1.779  0.5196  0.0886  0.7810
  981SOL    HW1 2942   1.897   0.462   1.715 -2.3093  1.2004 -1.5209
  981SOL    HW2 2943   1.880   0.623   1.728  1.1421 -0.3686 -1.2459
  982SOL     OW 2944   0.831   0.650   3.097 -0.1757 -0.2608  0.3092
  982SOL    HW1 2945   0.786   0.678   0.070 -0.2927  0.4517 -0.4237
  982SOL    HW2 2946   0.867   0.735   3.050 -0.4295 -0.6484 -2.8080
  983SOL     OW 2947   2.505   0.662   0.130  0.0801 -0.2095 -0.2848
  983SOL    HW1 2948   2.538   0.716   0.207 -0.6370 -0.4517 -0.4051
  983SOL    HW2 2949   2.570   0.592   0.100 -0.3839  1.6388  3.8573
  984SOL     OW 2950   0.853   0.243   2.605  0.1703 -0.3805 -0.1202
  984SOL    HW1 2951   0.918   0.275   2.676  2.0071  0.8116 -0.3416
  984SOL    HW2 2952   0.819   0.321   2.550 -0.5997  4.2218 -0.3991
  985SOL     OW 2953   1.540   1.899   2.043  0.2990  0.3275 -0.1789
  985SOL    HW1 2954   1.479   1.825   2.015  0.6488 -1.5437  1.3594
  985SOL    HW2 2955   1.604   1.868   2.120  1.6737  0.5085 -1.2875
  986SOL     OW 2956   2.467   2.533   1.917  0.4499 -0.0131  0.2416
  986SOL    HW1 2957   2.565   2.526   1.884  0.9459  1.3273 -0.7338
  986SOL    HW2 2958   2.463   2.582   2.003  1.4122 -1.0426 -1.5372
  987SOL     OW 2959   1.756   1.243   1.022  0.5967 -0.4859 -0.0029
  987SOL    HW1 2960   1.778   1.247   0.925 -1.2907  0.2901  0.6781
  987SOL    HW2 2961   1.686   1.178   1.042  1.4722  1.9074 -2.1108
  988SOL     OW 2962   2.670   1.810   2.076  0.2280 -0.3621 -0.2061
  988SOL    HW1 2963   2.727   1.744   2.134  1.1914 -0.6668  1.5477
  988SOL    HW2 2964   2.575   1.818   2.115  3.1234 -0.9878 -1.5991
  989SOL     OW 2965   1.201   2.423   0.288  0.2557  0.0139  0.9823
  989SOL    HW1 2966   1.133   2.473   0.231  0.2206  0.1633  1.2706
  989SOL    HW2 2967   1.185   2.427   0.386 -4.2279  0.3686 -2.0692
  990SOL     OW 2968   2.044   0.525   2.735  0.3486 -0.3908  0.4718
  990SOL    HW1 2969   2.116   0.562   2.792 -1.9952  0.2622 -2.0426
  990SOL    HW2 2970   2.049   0.425   2.721  2.0909 -1.4329  4.0295
  991SOL     OW 2971   1.229   0.423   0.887  0.5363 -0.0369 -0.8893
  991SOL    HW1 2972   1.137   0.398   0.848  1.2587  3.1466  0.1038
  991SOL    HW2 2973   1.247   0.361   0.963  0.4359 -0.9491  1.4834
  992SOL     OW 2974   2.874   0.857   1.210  0.1035 -0.3287  0.3143
  992SOL    HW1 2975   2.783   0.881   1.224  2.2971 -3.4028 -1.2424
  992SOL    HW2 2976   2.884   0.753   1.213 -0.5583 -0.9343  0.0480
  993SOL     OW 2977   2.458   0.685   1.895 -0.7381 -0.2767  0.2470
  993SOL    HW1 2978   2.485   0.596   1.856 -3.4002  2.4408 -1.8012
  993SOL    HW2 2979   2.472   0.755   1.823  1.6090 -0.6608  1.1091
  994SOL     OW 2980   1.072   1.564   2.538  0.0125 -0.1919  0.1660
  994SOL    HW1 2981   1.123   1.493   2.486  0.4149  1.8786  0.9580
  994SOL    HW2 2982   1.067   1.658   2.497 -2.3627  2.2112  0.3088
  995SOL     OW 2983   2.116   1.255   2.962 -0.1638  0.0357 -0.0894
  995SOL    HW1 2984   2.058   1.211   2.890  0.0971  0.3996 -2.4582
  995SOL    HW2 2985   2.084   1.349   2.989 -0.9925 -1.0299  2.0384
  996SOL     OW 2986   2.120   1.922   0.455  0.5129 -0.1322  0.0924
  996SOL    HW1 2987   2.044   1.950   0.515 -0.3078 -0.7390 -0.6025
  996SOL    HW2 2988   2.171   1.836   0.480 -2.4493 -1.7154  0.3327
  997SOL     OW 2989   2.220   0.796   1.912 -0.3894  0.1818 -0.2116
  997SOL    HW1 2990   2.179   0.785   2.001 -1.5189 -0.3436 -0.7555
  997SOL    HW2 2991   2.318   0.757   1.907 -0.9694  1.4331  1.8437
  998SOL     OW 2992   2.494   0.920   0.562  0.6188 -0.3177  0.1957
  998SOL    HW1 2993   2.389   0.918   0.554 -1.1334  0.1519  0.4563
  998SOL    HW2 2994   2.518   0.953   0.652 -2.6857  0.9313 -0.8350
  999SOL     OW 2995   2.666   1.512   0.308 -0.1593  0.6252 -0.6975
  999SOL    HW1 2996   2.590   1.561   0.262 -0.8296 -0.4735  0.7069
  999SOL    HW2 2997   2.736   1.580   0.321 -0.6036 -2.9961  0.8918
 1000SOL     OW 2998   0.832   0.780   1.896  0.3953  0.0618 -0.0686
 1000SOL    HW1 2999   0.916   0.723   1.877  2.1594 -1.1434  1.7787
 1000SOL    HW2 3000   0.772   0.730   1.966 -1.7229 -1.2781  1.9991
   3.10859   3.10859   3.10859
