1000 SPC/Fw water molecules t= 478.00000 step= 478000
 3000
    1SOL     OW    1   2.688   0.079   1.585 -0.2126 -0.6726 -0.5385
    1SOL    HW1    2   2.707   0.176   1.548  1.8211  0.6741 -0.0310
    1SOL    HW2    3   2.604   0.076   1.645  1.1701  2.5438 -1.2780
    2SOL     OW    4   3.069   2.961   2.884  0.4253 -0.0005  0.1009
    2SOL    HW1    5   3.092   2.868   2.917  2.0266 -3.3285 -1.3340
    2SOL    HW2    6   3.006   2.954   2.804  1.0808  0.3377 -0.5265
    3SOL     OW    7   1.085   2.063   0.069  0.1472 -0.0921 -0.0343
    3SOL    HW1    8   1.031   1.985   0.027 -1.6648 -0.7443 -0.0420
    3SOL    HW2    9   1.080   2.057   0.172 -0.4634 -0.4594 -0.0713
    4SOL     OW   10   1.341   2.824   2.368  0.4159  0.4916 -0.0581
    4SOL    HW1   11   1.245   2.828   2.327 -1.0179  0.5468 -1.6888
    4SOL    HW2   12   1.335   2.875   2.455 -0.6230 -3.0141  0.3268
    5SOL     OW   13   2.090   0.315   2.844  0.1483 -0.6923  0.0739
    5SOL    HW1   14   2.139   0.316   2.935 -2.2638  0.1023 -0.9740
    5SOL    HW2   15   2.019   0.393   2.846 -0.4916  0.0598 -0.0400
    6SOL     OW   16   0.055   1.704   1.022 -0.4242 -0.4653 -0.2922
    6SOL    HW1   17   0.142   1.755   1.038  3.2431 -1.4094  0.6586
    6SOL    HW2   18   0.066   1.628   0.958 -0.0593 -2.6343 -1.0583
    7SOL     OW   19   1.019   1.907   0.542 -0.2128 -0.3791  0.1928
    7SOL    HW1   20   1.046   1.902   0.643  2.1030 -0.1530  0.1686
    7SOL    HW2   21   1.097   1.868   0.489 -1.0383  1.7660  2.2187
    8SOL     OW   22   0.322   0.549   0.422 -0.1981 -0.0893 -0.2925
    8SOL    HW1   23   0.369   0.620   0.369 -2.3057  0.4676 -0.3217
    8SOL    HW2   24   0.226   0.574   0.428  2.0053  1.5369 -0.6287
    9SOL     OW   25   0.225   2.641   1.693  0.2651 -0.0209 -0.0243
    9SOL    HW1   26   0.314   2.679   1.664  1.5642  1.3243  1.8603
    9SOL    HW2   27   0.164   2.614   1.610 -2.5167  0.1611 -1.6823
   10SOL     OW   28   1.151   1.644   0.151  0.1521  0.3960 -0.2132
   10SOL    HW1   29   1.144   1.642   0.050  1.1001 -1.9578 -0.4289
   10SOL    HW2   30   1.063   1.607   0.192 -3.4387 -2.2386 -0.3976
   11SOL     OW   31   2.131   0.625   1.518 -0.1510  0.4148  0.2968
   11SOL    HW1   32   2.206   0.674   1.567  1.4257  1.1372  1.5123
   11SOL    HW2   33   2.044   0.630   1.572  1.5247  1.0636 -0.2877
   12SOL     OW   34   0.325   0.949   2.201  0.1789  0.0831  0.0275
   12SOL    HW1   35   0.389   1.014   2.158 -2.3183 -0.4153 -0.5510
   12SOL    HW2   36   0.366   0.860   2.214 -2.8169  0.6587 -0.8275
   13SOL     OW   37   2.137   0.021   0.371  0.2671 -0.0638  0.0853
   13SOL    HW1   38   2.201   0.062   0.308 -0.4686  0.2186  2.4154
   13SOL    HW2   39   2.050   0.006   0.320 -1.1877 -2.4447 -1.0618
   14SOL     OW   40   2.347   2.128   0.058  0.2208 -0.0177 -0.0705
   14SOL    HW1   41   2.407   2.096   3.086 -1.1203  1.9415 -0.7776
   14SOL    HW2   42   2.356   2.229   0.060 -2.5762 -0.3296 -2.5718
   15SOL     OW   43   2.860   2.931   3.046  0.0589 -0.3275  0.7819
   15SOL    HW1   44   2.933   2.971   2.989 -0.3978 -0.6395 -0.9581
   15SOL    HW2   45   2.772   2.983   3.039 -2.2069  1.4907 -0.1915
   16SOL     OW   46   3.054   0.538   0.869 -0.5301 -0.2120 -0.0726
   16SOL    HW1   47   3.045   0.452   0.924  0.3326 -0.1461 -2.5181
   16SOL    HW2   48   3.021   0.520   0.771 -3.1805  0.5513 -2.8272
   17SOL     OW   49   0.716   0.407   1.067  0.5069 -1.0468 -0.2986
   17SOL    HW1   50   0.694   0.306   1.085 -0.2723 -1.4032 -0.7955
   17SOL    HW2   51   0.645   0.462   1.114 -0.8694 -2.1664 -1.7367
   18SOL     OW   52   2.808   0.120   0.759  0.4827  0.0369  0.0928
   18SOL    HW1   53   2.731   0.118   0.689  1.2393 -0.5841 -0.4875
   18SOL    HW2   54   2.790   0.188   0.837 -1.6058  1.8525  1.3992
   19SOL     OW   55   1.894   1.615   1.072  0.2040  0.1291  0.3583
   19SOL    HW1   56   1.889   1.662   0.981  1.0742 -0.1287  0.2842
   19SOL    HW2   57   1.868   1.516   1.081  0.9383  0.4462  0.7955
   20SOL     OW   58   1.970   1.743   2.471  0.7223  0.0178  0.0849
   20SOL    HW1   59   1.873   1.764   2.457 -0.6780 -1.0420  1.4686
   20SOL    HW2   60   2.034   1.811   2.432  1.8051 -0.4635  2.0830
   21SOL     OW   61   1.334   0.025   0.507 -0.5612  0.1670 -0.3234
   21SOL    HW1   62   1.252   0.077   0.477  0.3996 -1.6259 -1.0587
   21SOL    HW2   63   1.387   0.001   0.427 -2.0264  2.5363  3.9234
   22SOL     OW   64   2.325   1.038   3.064 -0.2166  0.1549 -0.7339
   22SOL    HW1   65   2.414   1.075   3.100 -0.6386  2.6424  0.6742
   22SOL    HW2   66   2.334   0.972   2.988 -2.2501  1.1207  1.9357
   23SOL     OW   67   0.619   0.514   2.157  0.7529 -0.0991  0.0703
   23SOL    HW1   68   0.608   0.415   2.167 -0.5765  0.8635 -1.0148
   23SOL    HW2   69   0.704   0.536   2.107 -2.7235 -3.7081 -0.0771
   24SOL     OW   70   2.084   2.154   0.890  0.1459 -0.4962 -0.2014
   24SOL    HW1   71   2.053   2.241   0.936 -1.4630 -0.8017  1.1870
   24SOL    HW2   72   2.031   2.134   0.804  1.0417  0.2710 -1.0202
   25SOL     OW   73   1.203   3.061   0.107 -0.6754  0.1036  0.1547
   25SOL    HW1   74   1.203   3.082   0.005 -1.7481  0.7830 -2.5212
   25SOL    HW2   75   1.276   0.006   0.153 -1.4931 -0.1030 -1.6855
   26SOL     OW   76   1.153   2.851   2.790  0.4920 -0.4673  1.2140
   26SOL    HW1   77   1.079   2.867   2.856  0.9547 -1.7095  1.1359
   26SOL    HW2   78   1.175   2.753   2.778 -0.7733 -2.1082  2.2057
   27SOL     OW   79   1.129   0.627   1.410 -0.4217  0.1438  0.3555
   27SOL    HW1   80   1.109   0.652   1.314 -0.3247  0.1412  0.1332
   27SOL    HW2   81   1.076   0.545   1.438 -1.4603  0.4977 -0.1602
   28SOL     OW   82   0.714   1.961   1.120  0.2588  1.1039 -0.0625
   28SOL    HW1   83   0.669   1.957   1.029 -0.4287 -1.6560 -0.1921
   28SOL    HW2   84   0.660   1.915   1.192 -0.0678  0.7444  2.1760
   29SOL     OW   85   2.771   0.851   0.685  0.2487 -0.1163  0.1807
   29SOL    HW1   86   2.679   0.808   0.690  0.8936 -0.2246  1.1166
   29SOL    HW2   87   2.791   0.874   0.782  1.4453 -0.9160  0.5458
   30SOL     OW   88   1.425   3.057   1.763  0.2789 -0.0059 -0.3555
   30SOL    HW1   89   1.443   3.026   1.670 -1.6566  2.6069  0.4429
   30SOL    HW2   90   1.351   3.001   1.802 -1.0594  0.8945 -0.5539
   31SOL     OW   91   1.362   3.079   1.254  0.3412  0.3363 -0.1846
   31SOL    HW1   92   1.447   3.048   1.209 -0.7179 -0.8349 -0.2835
   31SOL    HW2   93   1.279   3.050   1.204 -1.7521 -0.9105 -0.8678
   32SOL     OW   94   2.345   1.235   1.863 -0.2095 -0.0465 -0.3427
   32SOL    HW1   95   2.251   1.233   1.892  1.3763  0.1723  0.2662
   32SOL    HW2   96   2.367   1.323   1.812  0.3888  0.8360  2.0079
   33SOL     OW   97   2.395   2.645   2.781  0.6420  0.1954 -0.0262
   33SOL    HW1   98   2.428   2.595   2.696 -1.6874  2.1952  1.2191
   33SOL    HW2   99   2.467   2.710   2.808  0.3935 -1.1657  1.0252
   34SOL     OW  100   1.796   0.978   3.068 -0.0255  0.2561 -0.4184
   34SOL    HW1  101   1.893   0.984   3.042 -3.4263  1.4206  1.1488
   34SOL    HW2  102   1.755   0.904   3.015 -0.3237  2.5242  0.8123
   35SOL     OW  103   3.014   1.145   1.375 -0.5425  0.4289 -0.6815
   35SOL    HW1  104   2.986   1.222   1.317 -0.5825  1.3686 -1.5019
   35SOL    HW2  105   0.006   1.106   1.356 -0.4274  1.6571  0.9332
   36SOL     OW  106   2.465   2.320   2.684 -0.6280 -0.2006  0.4862
   36SOL    HW1  107   2.497   2.399   2.632 -1.1461  0.0480 -2.5739
   36SOL    HW2  108   2.365   2.329   2.705 -2.7110  0.4942 -1.4251
   37SOL     OW  109   1.762   3.089   2.150 -0.8555  0.1192  1.1975
   37SOL    HW1  110   1.823   0.061   2.175 -0.2832 -3.2714 -0.4060
   37SOL    HW2  111   1.731   3.098   2.051 -2.7205  0.0667 -3.9076
   38SOL     OW  112   0.933   1.104   2.477 -0.3565 -0.5714 -0.1893
   38SOL    HW1  113   0.861   1.165   2.439  0.8367  1.3389 -0.5365
   38SOL    HW2  114   0.995   1.061   2.407  1.9528 -2.4808  1.4785
   39SOL     OW  115   1.712   0.390   1.701 -0.4022 -0.4133 -0.0657
   39SOL    HW1  116   1.624   0.354   1.663 -1.0983  0.7473 -0.8434
   39SOL    HW2  117   1.729   0.337   1.783 -1.8493  0.1432  0.6017
   40SOL     OW  118   0.854   2.333   0.550 -0.2661 -0.4985  0.2882
   40SOL    HW1  119   0.825   2.275   0.469 -1.5115  1.1304 -1.9548
   40SOL    HW2  120   0.934   2.394   0.540  2.8916 -1.1612  3.8225
   41SOL     OW  121   2.411   2.232   1.358 -0.0813 -0.1551 -0.5615
   41SOL    HW1  122   2.403   2.289   1.271  0.8106 -1.7019 -2.1869
   41SOL    HW2  123   2.503   2.239   1.405 -0.9785  1.2742 -0.9051
   42SOL     OW  124   2.597   3.094   0.449  0.2692 -0.1717  0.0112
   42SOL    HW1  125   2.688   0.025   0.429 -1.4451 -0.0130  1.8997
   42SOL    HW2  126   2.529   0.067   0.443 -1.4543  0.4911 -1.0501
   43SOL     OW  127   0.747   1.358   2.361 -0.3769  0.1065  0.3083
   43SOL    HW1  128   0.776   1.371   2.264  1.7186 -0.4335 -3.1364
   43SOL    HW2  129   0.653   1.316   2.364 -1.3344  0.9996  1.5411
   44SOL     OW  130   2.126   2.788   1.015 -0.1960  0.5439 -0.5536
   44SOL    HW1  131   2.034   2.803   1.042  1.7892  0.0888  0.0918
   44SOL    HW2  132   2.148   2.864   0.950  0.4572  0.8036  3.0730
   45SOL     OW  133   0.193   2.347   2.763  0.0666 -0.7724  0.1730
   45SOL    HW1  134   0.237   2.344   2.673 -1.2153  0.5981  0.7153
   45SOL    HW2  135   0.149   2.440   2.767 -0.0784 -0.6671 -3.0372
   46SOL     OW  136   0.702   2.626   2.094 -0.1451 -0.9264  0.1162
   46SOL    HW1  137   0.612   2.645   2.136  0.4233 -2.8802 -0.9882
   46SOL    HW2  138   0.709   2.532   2.050 -0.4856 -1.0532  0.9110
   47SOL     OW  139   0.442   1.616   0.575  0.3872  0.6445  0.0618
   47SOL    HW1  140   0.421   1.707   0.544 -0.4634 -1.8160 -0.5765
   47SOL    HW2  141   0.468   1.559   0.496 -1.7907  0.6808 -1.1767
   48SOL     OW  142   0.758   2.752   1.340 -0.4427 -0.1191  0.3475
   48SOL    HW1  143   0.707   2.671   1.300  1.8471  0.2961  2.3465
   48SOL    HW2  144   0.699   2.806   1.406  1.0286 -0.9562  0.3142
   49SOL     OW  145   0.198   2.834   0.052 -0.2099  0.4984  0.2512
   49SOL    HW1  146   0.233   2.859   0.145 -0.4153  0.2928 -0.0079
   49SOL    HW2  147   0.101   2.812   0.058  0.9265  1.7110  2.0627
   50SOL     OW  148   1.574   0.544   0.334 -0.0084 -0.1302 -0.0908
   50SOL    HW1  149   1.544   0.572   0.427 -0.9707  1.1504 -0.3445
   50SOL    HW2  150   1.614   0.628   0.283  1.6935  1.5219 -0.3113
   51SOL     OW  151   1.814   0.105   0.835 -0.2100  0.4503 -0.2306
   51SOL    HW1  152   1.783   0.016   0.803 -0.2476  0.7312 -1.0212
   51SOL    HW2  153   1.915   0.102   0.845 -1.7695  0.3520  0.3315
   52SOL     OW  154   0.468   1.588   1.024 -0.8220  0.0850 -0.6955
   52SOL    HW1  155   0.541   1.516   1.037  0.7745 -0.6539  0.6810
   52SOL    HW2  156   0.454   1.634   1.115 -1.2707 -0.2885 -0.4910
   53SOL     OW  157   0.364   1.159   2.720  0.0370  0.2123 -0.4523
   53SOL    HW1  158   0.332   1.071   2.682 -4.6849  0.3819 -1.1167
   53SOL    HW2  159   0.383   1.145   2.818  1.1056  1.7334 -1.7521
   54SOL     OW  160   2.578   2.220   2.442 -0.6627 -0.6818  0.0238
   54SOL    HW1  161   2.539   2.241   2.534 -2.9494  0.5429 -1.1431
   54SOL    HW2  162   2.564   2.120   2.426  1.0152 -0.5432 -0.9708
   55SOL     OW  163   2.666   2.213   1.503 -0.2202 -0.2402 -0.4175
   55SOL    HW1  164   2.728   2.293   1.484  1.7370  0.7432  2.9489
   55SOL    HW2  165   2.668   2.192   1.602 -0.4027 -0.3632  2.1396
   56SOL     OW  166   1.366   0.867   1.516  0.6365 -0.4435  0.4631
   56SOL    HW1  167   1.466   0.850   1.517  2.4786  1.8201  1.1362
   56SOL    HW2  168   1.332   0.835   1.424  1.3084  0.9116 -1.6992
   57SOL     OW  169   1.950   1.784   0.810  0.3754  0.0226 -0.1380
   57SOL    HW1  170   2.012   1.835   0.875 -1.2762  1.3220 -1.6578
   57SOL    HW2  171   2.000   1.727   0.747  1.9327 -2.7628 -0.0280
   58SOL     OW  172   2.249   0.113   2.235  0.1688  0.2492 -0.4830
   58SOL    HW1  173   2.306   0.100   2.320  0.5639  3.3644 -1.8052
   58SOL    HW2  174   2.232   0.213   2.208 -3.0987  0.7394 -1.4689
   59SOL     OW  175   1.660   0.223   2.779  0.0790 -0.3170  0.4046
   59SOL    HW1  176   1.761   0.209   2.766 -0.3980 -0.5040 -2.2201
   59SOL    HW2  177   1.613   0.250   2.688 -1.8337  1.7285 -3.3286
   60SOL     OW  178   1.610   1.947   2.832  0.0467 -0.1005 -0.2387
   60SOL    HW1  179   1.696   1.981   2.872  1.1545 -0.5382  1.3521
   60SOL    HW2  180   1.600   1.988   2.738 -0.1884  1.2463 -0.3084
   61SOL     OW  181   0.326   2.181   2.972 -0.0386 -0.3011 -0.0919
   61SOL    HW1  182   0.262   2.105   2.983 -0.2486  0.3302 -2.1772
   61SOL    HW2  183   0.342   2.204   2.875 -1.3679 -1.0603  3.1645
   62SOL     OW  184   1.588   1.893   1.372 -0.0160  0.3224  0.6168
   62SOL    HW1  185   1.594   1.832   1.455  0.1663  0.5421 -2.6358
   62SOL    HW2  186   1.681   1.900   1.330  1.6890  2.0734 -0.5071
   63SOL     OW  187   1.020   2.112   0.338  0.3892 -0.0877  0.6960
   63SOL    HW1  188   0.925   2.162   0.337 -2.1694 -1.4304  1.5451
   63SOL    HW2  189   1.020   2.029   0.396  1.2393  0.9654 -0.8422
   64SOL     OW  190   1.682   1.786   2.442 -0.1659 -0.4066 -0.1931
   64SOL    HW1  191   1.620   1.705   2.451 -1.6414  0.2638 -0.2074
   64SOL    HW2  192   1.668   1.842   2.357  0.3458  0.6253  2.7626
   65SOL     OW  193   1.822   1.819   1.305 -0.0788 -0.1028 -0.6430
   65SOL    HW1  194   1.820   1.760   1.226 -2.0630  1.4861  0.4106
   65SOL    HW2  195   1.916   1.857   1.324  1.8978  0.7307 -0.9833
   66SOL     OW  196   2.880   0.601   0.602 -0.0725 -0.0097  0.2270
   66SOL    HW1  197   2.815   0.567   0.529 -2.4425 -0.2784 -0.5881
   66SOL    HW2  198   2.853   0.692   0.637 -0.8750 -0.6581 -0.3801
   67SOL     OW  199   2.025   2.417   0.978 -0.3084  0.4757  0.1951
   67SOL    HW1  200   1.975   2.481   1.040  1.6299  0.0241  3.3259
   67SOL    HW2  201   2.123   2.453   0.966 -0.3825  1.7915  0.7537
   68SOL     OW  202   2.604   2.703   1.778  0.3609 -0.3272 -0.3613
   68SOL    HW1  203   2.548   2.619   1.797 -0.5836 -1.9815  2.8298
   68SOL    HW2  204   2.553   2.785   1.813  0.8831  0.1030  0.1770
   69SOL     OW  205   2.769   2.823   2.725 -0.5508 -0.5406  0.0790
   69SOL    HW1  206   2.744   2.807   2.627 -1.8473 -0.5169 -2.4171
   69SOL    HW2  207   2.689   2.805   2.787 -0.8161  2.5946  0.5510
   70SOL     OW  208   1.142   1.469   2.355  0.0259 -0.2991 -0.1280
   70SOL    HW1  209   1.112   1.423   2.268 -2.2511  1.1269 -0.5401
   70SOL    HW2  210   1.131   1.414   2.438 -0.5414 -1.1276 -2.0526
   71SOL     OW  211   0.893   1.771   1.979 -0.0205 -0.0900 -0.3049
   71SOL    HW1  212   0.942   1.680   1.993 -0.6528  0.2601  1.8166
   71SOL    HW2  213   0.896   1.798   1.879  0.7958  0.2706 -1.6445
   72SOL     OW  214   2.786   1.632   1.763 -0.1356  0.3697 -0.1540
   72SOL    HW1  215   2.745   1.578   1.833  0.5829 -3.8483 -0.3134
   72SOL    HW2  216   2.714   1.667   1.699  1.3569 -0.5249  2.3979
   73SOL     OW  217   0.699   2.207   2.783 -0.4836  0.1582  0.2701
   73SOL    HW1  218   0.723   2.256   2.695 -2.4012 -0.3009  1.0499
   73SOL    HW2  219   0.692   2.270   2.862  0.6698  0.7230 -0.1318
   74SOL     OW  220   1.015   0.394   2.233 -0.7166 -0.1702  0.2754
   74SOL    HW1  221   0.984   0.302   2.258  2.3563  2.9768  2.4799
   74SOL    HW2  222   1.057   0.448   2.310 -0.2057  0.4323  1.3139
   75SOL     OW  223   0.962   3.028   0.585 -0.3232 -0.1482  0.0121
   75SOL    HW1  224   0.893   2.960   0.616 -0.7282  1.8265 -2.2230
   75SOL    HW2  225   1.053   2.993   0.610  0.9320 -0.7992 -1.7197
   76SOL     OW  226   0.628   1.590   2.782  0.0899 -0.7356 -0.3845
   76SOL    HW1  227   0.699   1.649   2.740 -2.2756  2.4871 -1.0091
   76SOL    HW2  228   0.569   1.548   2.707 -1.1871  0.7018  0.8278
   77SOL     OW  229   0.534   2.673   0.660  0.5735  0.1126  0.2230
   77SOL    HW1  230   0.450   2.669   0.722  0.9848 -1.6361  1.0044
   77SOL    HW2  231   0.557   2.582   0.615  1.5185 -2.4001 -1.9816
   78SOL     OW  232   2.677   1.095   2.943 -0.3614 -0.0007  0.3954
   78SOL    HW1  233   2.757   1.029   2.937  0.8070  0.3161  0.4511
   78SOL    HW2  234   2.631   1.092   3.030  2.2328  1.9975 -2.1880
   79SOL     OW  235   0.826   1.494   2.580 -0.6824 -0.3885 -0.6708
   79SOL    HW1  236   0.799   1.451   2.489  1.9940  0.4523  0.5921
   79SOL    HW2  237   0.818   1.593   2.583  0.8707 -0.9437 -1.2437
   80SOL     OW  238   2.253   0.923   1.339 -0.1253 -0.4254  1.2381
   80SOL    HW1  239   2.195   0.940   1.421 -1.2428 -0.0447 -0.4607
   80SOL    HW2  240   2.255   1.011   1.284 -1.4594  0.5957 -0.3398
   81SOL     OW  241   2.024   1.052   2.670  0.2129  0.1343 -0.2215
   81SOL    HW1  242   1.981   1.082   2.760  0.8996  2.0463  1.5630
   81SOL    HW2  243   1.961   1.075   2.592 -0.5258  1.7185  1.5754
   82SOL     OW  244   2.357   1.950   1.374 -0.3316 -0.0036 -0.5781
   82SOL    HW1  245   2.351   2.050   1.370 -1.2665 -0.1135 -0.9331
   82SOL    HW2  246   2.322   1.914   1.467  4.7129 -1.9092 -1.6574
   83SOL     OW  247   2.236   2.715   0.148  0.6873 -0.0184  0.0544
   83SOL    HW1  248   2.335   2.719   0.173  0.1511 -1.2499 -2.1933
   83SOL    HW2  249   2.178   2.684   0.220  0.4404 -3.6151  1.0817
   84SOL     OW  250   0.747   0.860   0.681  0.0017 -0.3773 -0.2909
   84SOL    HW1  251   0.815   0.900   0.746 -0.5616  2.1339  0.3861
   84SOL    HW2  252   0.693   0.781   0.718 -1.0139  1.4902  1.0989
   85SOL     OW  253   2.098   1.657   1.243  0.1035 -0.4949  0.2669
   85SOL    HW1  254   2.015   1.639   1.187  0.3578  0.6746  0.2520
   85SOL    HW2  255   2.117   1.758   1.250 -1.0644 -0.9164  0.5154
   86SOL     OW  256   0.614   0.861   0.925  0.1605 -0.3883  0.2081
   86SOL    HW1  257   0.519   0.877   0.959  1.3510  1.9130 -0.5129
   86SOL    HW2  258   0.659   0.954   0.909 -0.4937  0.7497 -0.1094
   87SOL     OW  259   0.064   2.205   2.379  0.5154 -0.1558 -0.0124
   87SOL    HW1  260   0.134   2.135   2.350  2.2411 -0.6784 -1.1844
   87SOL    HW2  261   0.080   2.291   2.327  0.7346  1.4290  1.1283
   88SOL     OW  262   0.247   2.903   0.299 -0.1190 -0.3133  0.2981
   88SOL    HW1  263   0.254   2.833   0.374  1.6632 -2.2696  0.6396
   88SOL    HW2  264   0.334   2.955   0.292 -3.2888 -3.1603 -0.8746
   89SOL     OW  265   1.563   0.342   1.355  0.1415  0.0253  0.0851
   89SOL    HW1  266   1.532   0.415   1.294 -2.5675 -0.9476  3.3348
   89SOL    HW2  267   1.520   0.350   1.446  1.3191 -0.8895  0.2122
   90SOL     OW  268   0.027   0.994   2.025  0.3379  0.0758  0.1132
   90SOL    HW1  269   0.069   1.030   2.112  0.7302  0.7485  1.2990
   90SOL    HW2  270   0.095   0.976   1.954  1.0220 -0.1154 -0.2248
   91SOL     OW  271   1.878   2.699   0.691 -0.4899  0.1167 -0.0859
   91SOL    HW1  272   1.954   2.632   0.680 -1.7217 -2.8904 -0.9578
   91SOL    HW2  273   1.796   2.647   0.716  0.5582  2.6711 -1.0444
   92SOL     OW  274   1.685   1.792   0.763 -0.4434 -0.2041  0.0667
   92SOL    HW1  275   1.784   1.802   0.789  0.0646 -0.5621 -0.1929
   92SOL    HW2  276   1.668   1.766   0.668  0.5812 -1.3722  1.2882
   93SOL     OW  277   0.308   1.323   0.361 -0.1214 -0.2863 -0.0177
   93SOL    HW1  278   0.288   1.241   0.299  1.6806  0.2580  2.0294
   93SOL    HW2  279   0.392   1.374   0.328  0.6185  0.9022 -3.2511
   94SOL     OW  280   0.740   2.333   0.912 -0.3322 -0.2278 -0.0040
   94SOL    HW1  281   0.773   2.249   0.864 -2.8693  0.9050  1.2544
   94SOL    HW2  282   0.689   2.305   0.993 -1.0912  1.1095 -0.4146
   95SOL     OW  283   0.363   0.825   0.335 -0.1750 -0.2025  0.0535
   95SOL    HW1  284   0.379   0.910   0.385 -0.6178 -0.1872  0.1636
   95SOL    HW2  285   0.458   0.791   0.314 -1.2510 -1.8257 -0.7138
   96SOL     OW  286   0.725   2.373   1.977 -0.2376  0.3777 -0.3808
   96SOL    HW1  287   0.747   2.304   2.048 -0.0450  0.9298 -0.2217
   96SOL    HW2  288   0.687   2.323   1.900  0.5103  0.5233  1.3650
   97SOL     OW  289   2.254   0.867   0.429  0.0919 -0.9994  0.2343
   97SOL    HW1  290   2.278   0.958   0.386 -0.3954  1.7462  1.4785
   97SOL    HW2  291   2.154   0.867   0.417 -0.4458  2.0085 -0.6463
   98SOL     OW  292   0.148   1.925   1.738 -0.3105  0.1937 -0.3699
   98SOL    HW1  293   0.211   1.859   1.697 -2.8683  0.4000 -0.2448
   98SOL    HW2  294   0.067   1.877   1.775  0.5307  0.0944 -2.1182
   99SOL     OW  295   0.038   0.355   1.766 -0.0782  0.2749 -0.1683
   99SOL    HW1  296   3.055   0.385   1.796  4.6534 -2.3992 -1.0604
   99SOL    HW2  297   0.062   0.263   1.814 -0.3844  0.1906  3.1821
  100SOL     OW  298   1.977   0.588   2.418 -0.6841 -0.0427  0.5996
  100SOL    HW1  299   2.058   0.529   2.444  0.7229  1.2095 -2.1717
  100SOL    HW2  300   1.962   0.656   2.492  0.9795  3.8736 -0.1969
  101SOL     OW  301   1.261   2.908   1.919  0.2014 -0.0217  0.2393
  101SOL    HW1  302   1.177   2.867   1.871  0.0198  0.7096  0.4983
  101SOL    HW2  303   1.245   2.992   1.972  0.6130  0.8173 -0.1307
  102SOL     OW  304   0.579   0.599   1.635 -0.0537  0.0554  0.3391
  102SOL    HW1  305   0.495   0.568   1.581  0.2866 -0.7709 -0.0304
  102SOL    HW2  306   0.607   0.532   1.705 -2.1057  0.3718  0.5050
  103SOL     OW  307   0.487   0.837   2.811 -0.8942 -0.0744 -0.0741
  103SOL    HW1  308   0.403   0.836   2.874  0.1929  3.3489  2.1469
  103SOL    HW2  309   0.556   0.905   2.840 -1.6587 -1.9923 -2.6319
  104SOL     OW  310   0.501   3.026   2.057  0.2524  0.1883  0.1504
  104SOL    HW1  311   0.479   3.003   1.962  1.2388 -0.4156  1.5827
  104SOL    HW2  312   0.445   0.002   2.080 -1.9636 -0.2118  1.4349
  105SOL     OW  313   2.593   2.694   2.185  0.4554  0.5906  0.3550
  105SOL    HW1  314   2.500   2.663   2.158 -1.1604 -0.6287 -2.1237
  105SOL    HW2  315   2.592   2.748   2.270  2.4273 -2.5260  3.1454
  106SOL     OW  316   0.657   3.061   0.872 -0.7447  0.3842  0.0140
  106SOL    HW1  317   0.728   0.020   0.829  0.4537  2.4755  2.3988
  106SOL    HW2  318   0.700   2.975   0.919  2.1651 -1.6372 -1.0997
  107SOL     OW  319   3.047   1.929   1.153  0.4770  0.2593 -0.2643
  107SOL    HW1  320   0.028   1.985   1.127  2.7138  0.7820 -1.3385
  107SOL    HW2  321   3.062   1.831   1.145 -1.1948 -1.2509  1.7844
  108SOL     OW  322   0.341   2.206   0.836  0.5736 -0.1262 -0.5341
  108SOL    HW1  323   0.319   2.307   0.855 -3.1709  3.7509 -0.3533
  108SOL    HW2  324   0.345   2.183   0.738  0.8617 -1.1260 -0.4846
  109SOL     OW  325   1.521   2.963   0.727  0.2946  0.5922  0.0297
  109SOL    HW1  326   1.512   2.942   0.824  2.5603  0.7378  0.6771
  109SOL    HW2  327   1.623   2.974   0.708  2.6257 -0.5138 -0.7507
  110SOL     OW  328   1.611   1.986   0.460  0.0893  0.1276  0.0676
  110SOL    HW1  329   1.684   2.030   0.403 -1.7160 -0.7227 -2.9643
  110SOL    HW2  330   1.623   1.887   0.450 -0.5394 -0.2035 -1.6842
  111SOL     OW  331   1.789   2.685   2.103  0.1589 -0.4382 -0.3787
  111SOL    HW1  332   1.701   2.671   2.154 -0.4474  1.1334 -3.0478
  111SOL    HW2  333   1.828   2.775   2.134  1.3502 -1.6962  0.0522
  112SOL     OW  334   1.727   2.490   2.746  0.2683  0.0151 -0.2710
  112SOL    HW1  335   1.705   2.581   2.785  1.5820  1.3549  0.3483
  112SOL    HW2  336   1.666   2.455   2.671 -1.9895  0.3159  1.6925
  113SOL     OW  337   2.342   2.215   1.975 -0.0342 -0.6215  0.5431
  113SOL    HW1  338   2.406   2.202   2.053 -1.1244  3.5310 -1.5325
  113SOL    HW2  339   2.378   2.288   1.914 -0.3033  0.5166  0.1515
  114SOL     OW  340   0.220   1.158   1.687  0.4077 -0.1985 -0.0417
  114SOL    HW1  341   0.271   1.200   1.614 -0.7864 -2.8493  0.4306
  114SOL    HW2  342   0.130   1.208   1.702  0.9849  0.8791  1.4707
  115SOL     OW  343   2.629   0.730   2.850  0.3268 -0.0183 -0.3228
  115SOL    HW1  344   2.556   0.796   2.847  0.4346 -1.4516 -0.5826
  115SOL    HW2  345   2.684   0.745   2.936  1.2340 -0.3722  1.1796
  116SOL     OW  346   2.825   0.269   0.008  0.6662  0.1666 -0.2594
  116SOL    HW1  347   2.919   0.233   0.018 -0.1574  2.4808  0.0335
  116SOL    HW2  348   2.772   0.231   3.033  0.5549 -2.7140 -1.3154
  117SOL     OW  349   2.602   2.797   0.813  0.2804  0.0817  0.8937
  117SOL    HW1  350   2.537   2.833   0.742 -0.4606 -2.5373 -2.5674
  117SOL    HW2  351   2.595   2.696   0.812  2.2924  2.8943  2.9036
  118SOL     OW  352   1.052   2.107   2.086 -0.1643 -0.2959 -0.1223
  118SOL    HW1  353   1.068   2.010   2.058 -1.3780  2.7152  2.0693
  118SOL    HW2  354   1.103   2.126   2.174 -1.4645  2.7562  1.7896
  119SOL     OW  355   0.627   2.645   0.061 -0.0159 -0.1946 -0.5237
  119SOL    HW1  356   0.546   2.649   3.100 -0.6030  0.9485 -0.1156
  119SOL    HW2  357   0.626   2.724   0.127  0.2434  0.5130 -0.0304
  120SOL     OW  358   1.244   0.812   0.366  0.1987 -0.5343  0.5716
  120SOL    HW1  359   1.244   0.719   0.324  1.4495 -0.0736  1.7931
  120SOL    HW2  360   1.289   0.883   0.312 -0.1974 -2.8023  0.8864
  121SOL     OW  361   1.698   0.781   0.948 -0.1460  0.1760 -0.6825
  121SOL    HW1  362   1.753   0.848   1.000 -0.0864 -0.4093 -3.4224
  121SOL    HW2  363   1.675   0.696   1.003 -0.8928 -0.1748 -0.0046
  122SOL     OW  364   1.829   1.633   2.124  0.1421 -0.0952 -0.0543
  122SOL    HW1  365   1.734   1.616   2.087 -1.4560 -2.4268 -1.4989
  122SOL    HW2  366   1.827   1.578   2.210 -2.9994 -1.2069  2.3221
  123SOL     OW  367   0.342   0.992   0.562 -0.4815 -0.2767 -0.3493
  123SOL    HW1  368   0.288   1.077   0.576 -1.4957 -3.4951  0.1296
  123SOL    HW2  369   0.288   0.908   0.574 -1.6746 -0.5747 -0.7264
  124SOL     OW  370   0.775   0.257   2.630 -0.1727  0.0759  0.0860
  124SOL    HW1  371   0.864   0.225   2.589  0.7748 -1.2018  2.0400
  124SOL    HW2  372   0.787   0.258   2.731 -2.8308 -0.2806 -0.5702
  125SOL     OW  373   0.754   3.073   2.840 -0.0357 -0.0337 -0.9689
  125SOL    HW1  374   0.820   3.006   2.876  0.1926 -1.2921 -2.0016
  125SOL    HW2  375   0.713   3.023   2.759  0.5145 -2.2717 -1.5569
  126SOL     OW  376   0.647   1.521   3.042  0.3944 -0.6860 -0.3405
  126SOL    HW1  377   0.639   1.536   2.942 -0.5400 -0.6450 -2.8028
  126SOL    HW2  378   0.747   1.508   3.067 -1.1826  0.1873 -0.9264
  127SOL     OW  379   1.015   2.709   0.816  0.0735  0.1525 -0.0040
  127SOL    HW1  380   0.929   2.747   0.775 -2.2523 -0.8763 -2.3024
  127SOL    HW2  381   1.077   2.786   0.839 -1.4601  1.0338 -0.9000
  128SOL     OW  382   1.669   2.037   0.080 -0.2567  0.2775  0.2138
  128SOL    HW1  383   1.613   1.953   0.068  1.9460  1.1292 -2.2174
  128SOL    HW2  384   1.734   2.045   0.003  0.1332  0.0762  0.2529
  129SOL     OW  385   1.726   1.690   1.521 -0.0929 -0.1138  0.1930
  129SOL    HW1  386   1.742   1.759   1.452 -0.1873 -1.0837  2.3493
  129SOL    HW2  387   1.756   1.598   1.490 -1.4826  1.4369 -1.3056
  130SOL     OW  388   2.110   1.716   1.759 -0.2497 -0.2520  0.3017
  130SOL    HW1  389   2.021   1.752   1.732  1.4614 -0.9213  0.1601
  130SOL    HW2  390   2.128   1.743   1.853  2.0809 -0.1441 -1.5847
  131SOL     OW  391   0.959   2.707   2.056 -0.3646  0.3037 -0.2718
  131SOL    HW1  392   0.991   2.712   1.960 -3.3395  1.6467 -1.4677
  131SOL    HW2  393   0.861   2.689   2.057 -1.2987  2.2772 -0.1074
  132SOL     OW  394   2.555   1.494   0.887  0.1532  0.2543 -0.1061
  132SOL    HW1  395   2.528   1.580   0.839 -0.6971  1.0304 -0.6299
  132SOL    HW2  396   2.618   1.433   0.832 -2.5027 -1.2398 -0.5126
  133SOL     OW  397   0.631   1.732   1.643  0.1297 -0.0556 -0.4110
  133SOL    HW1  398   0.625   1.764   1.549 -3.5412 -0.1732  4.3020
  133SOL    HW2  399   0.539   1.698   1.675 -0.5538 -1.1932  0.3495
  134SOL     OW  400   0.049   1.279   0.986  0.5306  0.4159  0.3241
  134SOL    HW1  401   3.078   1.270   0.914 -1.9602 -0.6548 -0.9338
  134SOL    HW2  402   0.135   1.301   0.936  1.9949 -3.5517  0.5745
  135SOL     OW  403   2.143   1.731   3.003  0.3265 -0.6205 -0.2153
  135SOL    HW1  404   2.153   1.832   2.999 -2.4470 -3.3509 -0.8193
  135SOL    HW2  405   2.102   1.696   2.916  0.4757  2.7805 -1.9799
  136SOL     OW  406   0.017   1.741   1.495  0.0203  0.3105 -0.9457
  136SOL    HW1  407   0.117   1.736   1.484 -3.0032 -2.4965  2.2128
  136SOL    HW2  408   3.085   1.835   1.489  3.5311 -0.3151  0.5457
  137SOL     OW  409   3.030   1.252   2.940  0.5592 -0.4142  0.4364
  137SOL    HW1  410   3.001   1.160   2.919  1.3636  1.6105 -0.9171
  137SOL    HW2  411   2.970   1.314   2.888 -0.3054  2.1287 -0.9777
  138SOL     OW  412   2.788   0.297   0.968  0.7277 -0.2941  0.1905
  138SOL    HW1  413   2.722   0.240   1.022  0.7411 -1.5399  0.6118
  138SOL    HW2  414   2.750   0.366   0.899 -0.7183 -0.3326  0.8549
  139SOL     OW  415   1.920   2.284   2.794  0.2967 -0.1686 -0.2897
  139SOL    HW1  416   1.856   2.361   2.787 -0.0032 -0.5961 -0.2094
  139SOL    HW2  417   2.015   2.320   2.794 -1.2194 -0.3418  0.2909
  140SOL     OW  418   0.886   1.579   0.816  0.0454 -0.2213  0.0103
  140SOL    HW1  419   0.797   1.634   0.806 -4.0702  2.3471 -2.9220
  140SOL    HW2  420   0.875   1.488   0.772 -0.4205 -1.7123 -0.5771
  141SOL     OW  421   1.183   1.387   0.941 -0.2005  0.3870 -0.0686
  141SOL    HW1  422   1.155   1.444   0.865 -0.2260 -1.4183 -0.7809
  141SOL    HW2  423   1.245   1.441   1.003  1.2720  2.0446  0.2502
  142SOL     OW  424   1.313   0.786   1.238 -0.1370 -0.0526 -0.0566
  142SOL    HW1  425   1.223   0.783   1.187 -2.7927  3.5475  0.3614
  142SOL    HW2  426   1.347   0.688   1.253 -2.6782 -0.3687 -1.9687
  143SOL     OW  427   0.293   0.461   2.827 -0.2121  0.2605  0.4104
  143SOL    HW1  428   0.275   0.521   2.904  0.0157  1.6913 -2.1677
  143SOL    HW2  429   0.337   0.523   2.760 -0.0956  2.0485  0.6926
  144SOL     OW  430   2.407   0.194   0.449  0.1282  0.0061 -0.6059
  144SOL    HW1  431   2.444   0.263   0.381 -0.5465 -1.4546 -0.1017
  144SOL    HW2  432   2.400   0.242   0.545 -3.0293  1.4292  1.0206
  145SOL     OW  433   2.319   2.943   2.866  0.1501  0.8438 -0.6051
  145SOL    HW1  434   2.250   2.901   2.799  0.4851 -0.2876  0.0774
  145SOL    HW2  435   2.378   3.019   2.826 -0.1472  1.1685  3.0484
  146SOL     OW  436   3.039   2.807   0.507 -0.5742  0.1872 -0.0122
  146SOL    HW1  437   2.945   2.771   0.482 -1.2739  1.7846  1.4188
  146SOL    HW2  438   0.001   2.807   0.428 -0.8493  0.8529  2.7971
  147SOL     OW  439   1.383   0.859   0.132  0.0704 -0.5431 -0.0568
  147SOL    HW1  440   1.291   0.889   0.101  1.4050 -2.5418 -5.0186
  147SOL    HW2  441   1.416   0.782   0.077  0.8074  1.6546 -0.9222
  148SOL     OW  442   0.960   0.088   0.163 -0.4468  0.0108  0.0271
  148SOL    HW1  443   0.982   0.103   0.261  0.8668 -1.1480 -0.0921
  148SOL    HW2  444   1.044   0.047   0.119  1.9205  0.8579 -0.7643
  149SOL     OW  445   1.366   0.752   2.549 -0.0331 -0.7320  0.4006
  149SOL    HW1  446   1.285   0.763   2.486  0.3975 -0.8659  0.3387
  149SOL    HW2  447   1.344   0.766   2.650 -1.5621 -0.3179  1.6067
  150SOL     OW  448   1.433   2.874   2.932  0.4876  0.4222 -0.0865
  150SOL    HW1  449   1.353   2.887   2.993  1.8300  0.2704  0.4133
  150SOL    HW2  450   1.482   2.788   2.952 -1.2456  1.1050  1.9517
  151SOL     OW  451   3.098   1.312   0.110 -0.2912 -0.0398  0.4085
  151SOL    HW1  452   3.093   1.296   0.008  2.3002 -2.0924 -2.3887
  151SOL    HW2  453   3.016   1.349   0.149  4.2779 -2.6031 -0.4118
  152SOL     OW  454   0.719   0.013   1.566  0.0205 -0.2516  0.1689
  152SOL    HW1  455   0.677   0.105   1.573  1.3425 -1.1839 -1.1851
  152SOL    HW2  456   0.821   0.023   1.557 -0.6759  1.6924 -0.1175
  153SOL     OW  457   2.445   0.088   1.731 -0.1383 -0.7976 -0.5557
  153SOL    HW1  458   2.395   0.030   1.662 -0.3053 -0.4598  0.1437
  153SOL    HW2  459   2.381   0.104   1.809  0.1035  0.8086 -0.9027
  154SOL     OW  460   2.285   0.101   1.941  0.2229  0.3033  0.2291
  154SOL    HW1  461   2.203   0.088   1.879 -0.0250 -2.6462 -2.3777
  154SOL    HW2  462   2.277   0.043   2.029 -1.8450 -0.9267  1.9772
  155SOL     OW  463   0.215   1.138   0.180 -0.4748  0.1049  0.3345
  155SOL    HW1  464   0.193   1.054   0.232  3.6036  1.0177 -0.9408
  155SOL    HW2  465   0.139   1.201   0.166  1.4910  2.3206 -0.6731
  156SOL     OW  466   1.582   1.074   0.135 -0.6759  0.4955 -0.4039
  156SOL    HW1  467   1.664   1.070   0.074  1.7249 -1.6424 -0.1050
  156SOL    HW2  468   1.525   0.993   0.117  2.6970  0.4881  0.0862
  157SOL     OW  469   0.957   2.312   0.074  0.2042 -0.5066 -0.5375
  157SOL    HW1  470   1.011   2.226   0.070  2.8670  1.1802  0.2544
  157SOL    HW2  471   0.866   2.303   0.026 -2.6249 -0.4884  0.4645
  158SOL     OW  472   1.652   0.851   1.583  0.6868  0.2852  0.4660
  158SOL    HW1  473   1.718   0.832   1.658 -0.3282 -1.2368 -0.3415
  158SOL    HW2  474   1.660   0.952   1.550 -1.7393  2.7543 -2.0250
  159SOL     OW  475   0.226   0.170   0.716  0.3958 -0.2170  0.2336
  159SOL    HW1  476   0.288   0.091   0.713 -2.2172  1.9621  0.2549
  159SOL    HW2  477   0.133   0.141   0.691 -1.6919  1.4716 -0.2838
  160SOL     OW  478   2.531   1.852   1.723  1.1877  0.1922 -0.2758
  160SOL    HW1  479   2.492   1.791   1.648  0.8874 -1.2453  0.6125
  160SOL    HW2  480   2.587   1.925   1.681  0.3547 -1.0879  1.2636
  161SOL     OW  481   0.058   3.101   0.216  0.2819 -0.2176  0.5384
  161SOL    HW1  482   3.074   3.053   0.236  1.3501 -2.5222 -2.8774
  161SOL    HW2  483   0.132   3.042   0.248 -1.7060  0.3580 -0.8424
  162SOL     OW  484   0.346   0.596   2.188  0.2435  0.1844 -0.0926
  162SOL    HW1  485   0.329   0.594   2.291  0.0953  0.8150  2.2344
  162SOL    HW2  486   0.438   0.556   2.165 -0.7425 -1.0111 -2.5024
  163SOL     OW  487   3.014   3.032   2.562  0.3468  0.1386 -0.0734
  163SOL    HW1  488   2.943   3.082   2.612 -1.1252  0.5920  0.0009
  163SOL    HW2  489   2.974   2.951   2.510  0.4256  1.9667  0.2017
  164SOL     OW  490   2.403   1.685   0.259 -0.5388  0.3700 -0.0024
  164SOL    HW1  491   2.472   1.751   0.219  0.0602  1.7619  1.2791
  164SOL    HW2  492   2.323   1.673   0.194  0.4022  0.7261 -1.8828
  165SOL     OW  493   0.899   0.221   1.273 -0.2801  0.1309  0.4615
  165SOL    HW1  494   0.896   0.311   1.313  1.5251 -2.7328 -1.8410
  165SOL    HW2  495   0.913   0.155   1.347  2.9007  0.4782 -1.1263
  166SOL     OW  496   0.022   0.304   0.429  0.1473 -0.4436  0.3059
  166SOL    HW1  497   0.087   0.273   0.361 -0.6599 -1.3927  2.4781
  166SOL    HW2  498   3.099   0.241   0.507 -2.0754 -0.2758  0.3118
  167SOL     OW  499   2.033   0.626   0.691 -0.7904 -0.0860 -0.5911
  167SOL    HW1  500   2.061   0.636   0.792  2.2827  1.2314 -0.4140
  167SOL    HW2  501   1.938   0.589   0.685  0.6207  0.2559  2.1298
  168SOL     OW  502   1.158   0.500   2.453  0.0173 -0.5595  0.2211
  168SOL    HW1  503   1.220   0.477   2.529 -0.5942  0.9967 -2.4941
  168SOL    HW2  504   1.157   0.599   2.432 -1.1646  0.7735 -1.3798
  169SOL     OW  505   1.030   1.820   1.187  0.2831  0.5470  0.0799
  169SOL    HW1  506   1.088   1.783   1.110 -0.2482  0.1627 -4.4339
  169SOL    HW2  507   1.002   1.915   1.180 -0.1517 -1.3007 -1.2102
  170SOL     OW  508   2.932   3.100   1.752  0.0476  0.1401  0.3181
  170SOL    HW1  509   2.995   3.042   1.694  0.5636 -0.2954 -1.7057
  170SOL    HW2  510   2.852   0.029   1.700 -1.5198  4.1016  1.1599
  171SOL     OW  511   2.810   0.828   2.170  0.3944 -0.3066  0.1489
  171SOL    HW1  512   2.747   0.810   2.092 -2.3736  0.2565  5.5919
  171SOL    HW2  513   2.768   0.792   2.256  1.8611 -0.6447  0.5543
  172SOL     OW  514   1.316   2.146   1.111 -0.4332  0.9527  0.1468
  172SOL    HW1  515   1.234   2.175   1.051  1.2193  3.2103 -0.6396
  172SOL    HW2  516   1.388   2.211   1.107 -1.6722 -4.8973  0.0710
  173SOL     OW  517   2.517   2.345   0.012 -0.0806 -0.0754 -0.3664
  173SOL    HW1  518   2.556   2.325   3.024  1.5282 -0.0582 -1.3067
  173SOL    HW2  519   2.551   2.434   0.044 -1.6561 -1.7264 -1.1820
  174SOL     OW  520   1.726   0.761   0.164 -0.1602  0.0347 -0.4196
  174SOL    HW1  521   1.706   0.859   0.146 -1.6047 -0.4914 -1.4693
  174SOL    HW2  522   1.793   0.722   0.095 -0.2902 -0.4138  0.9104
  175SOL     OW  523   0.806   1.617   1.417 -0.0903 -0.1888 -0.1776
  175SOL    HW1  524   0.754   1.537   1.447  0.7777 -0.8019  2.0097
  175SOL    HW2  525   0.865   1.593   1.336 -2.4222 -2.2574 -0.0029
  176SOL     OW  526   0.395   3.068   0.716 -0.2740 -0.1096  0.3213
  176SOL    HW1  527   0.483   3.069   0.766 -0.7806  1.6397  1.1934
  176SOL    HW2  528   0.347   2.979   0.721  0.4760  1.7870 -1.3403
  177SOL     OW  529   2.628   1.319   0.226 -0.2924  0.1845  0.3421
  177SOL    HW1  530   2.693   1.290   0.298  2.4338  0.3523 -3.2817
  177SOL    HW2  531   2.561   1.384   0.265 -1.6370 -0.7280  1.4786
  178SOL     OW  532   2.714   2.457   2.096 -0.0278 -0.5839  0.3759
  178SOL    HW1  533   2.653   2.533   2.127  0.7642 -0.6055 -3.1852
  178SOL    HW2  534   2.783   2.430   2.170  3.9371  0.5722  0.6033
  179SOL     OW  535   2.538   3.040   0.190 -0.2416  0.2041  0.3145
  179SOL    HW1  536   2.582   3.082   0.276  3.2790 -0.3667  5.1157
  179SOL    HW2  537   2.447   3.081   0.171  0.8523 -2.0413 -2.7225
  180SOL     OW  538   2.273   0.637   0.559 -0.8026 -0.0804  0.3214
  180SOL    HW1  539   2.180   0.632   0.606  1.5162 -0.2247 -1.8989
  180SOL    HW2  540   2.282   0.728   0.515 -2.4771 -1.5732  1.0800
  181SOL     OW  541   3.065   0.226   2.729 -0.2026 -0.1271  0.7323
  181SOL    HW1  542   0.017   0.183   2.799 -1.5430 -1.2034 -1.0919
  181SOL    HW2  543   3.090   0.186   2.641  1.0065  2.7860 -0.3713
  182SOL     OW  544   2.499   1.955   2.507  0.0720 -0.1962 -0.2605
  182SOL    HW1  545   2.476   1.878   2.450  1.0681 -1.6345 -0.1283
  182SOL    HW2  546   2.431   1.975   2.576  0.2895  0.1099 -3.2291
  183SOL     OW  547   0.201   0.935   1.532  0.1143 -0.1695  0.1067
  183SOL    HW1  548   0.145   0.955   1.454  0.0306 -2.5666  2.7304
  183SOL    HW2  549   0.210   1.015   1.595 -0.4638  0.3061 -0.3635
  184SOL     OW  550   0.270   1.381   1.216 -0.3228 -0.1972  0.0331
  184SOL    HW1  551   0.175   1.378   1.182  2.4884 -2.5068  1.2332
  184SOL    HW2  552   0.334   1.309   1.179  0.8371  2.1404 -0.0357
  185SOL     OW  553   2.927   2.897   1.354 -0.2903  0.4722  0.2662
  185SOL    HW1  554   2.921   2.845   1.266 -0.0819  1.7370  2.6949
  185SOL    HW2  555   2.972   2.987   1.335 -1.5311  2.0498 -0.6810
  186SOL     OW  556   2.144   2.779   2.722 -0.1692  0.1512  0.0992
  186SOL    HW1  557   2.177   2.687   2.722 -1.0038  2.8627  1.4959
  186SOL    HW2  558   2.042   2.788   2.715 -1.3784  0.3559  0.6113
  187SOL     OW  559   0.209   1.233   0.611  0.0048  0.5240  0.1310
  187SOL    HW1  560   0.236   1.284   0.531  1.5928 -0.6995  2.0790
  187SOL    HW2  561   0.252   1.260   0.700 -1.8963 -3.4730 -0.2886
  188SOL     OW  562   1.949   1.812   0.234 -0.5498  0.2656  0.0009
  188SOL    HW1  563   2.024   1.876   0.204  2.7071  0.1753 -0.8749
  188SOL    HW2  564   1.992   1.742   0.286 -3.4355  2.5303  1.5353
  189SOL     OW  565   0.025   1.677   2.995 -0.6921  0.0466  0.0791
  189SOL    HW1  566   0.086   1.595   3.002  1.9052 -0.7203  0.2977
  189SOL    HW2  567   0.074   1.754   2.952 -0.3655  0.7434 -0.6672
  190SOL     OW  568   2.406   0.839   2.154  0.2024 -0.3569  0.4510
  190SOL    HW1  569   2.402   0.942   2.154 -0.1662  0.4230 -0.2994
  190SOL    HW2  570   2.421   0.805   2.244 -3.2288 -0.0079  0.5733
  191SOL     OW  571   0.855   1.215   2.057 -0.0426 -0.7069 -0.1099
  191SOL    HW1  572   0.803   1.201   1.974  2.6536 -0.4396 -0.5137
  191SOL    HW2  573   0.812   1.153   2.125  0.3895 -1.6814  0.4992
  192SOL     OW  574   2.031   1.473   1.929  0.3241 -0.0090 -0.4336
  192SOL    HW1  575   1.936   1.438   1.917  0.4743 -0.5779  0.3941
  192SOL    HW2  576   2.035   1.571   1.892 -1.0948  0.3523 -1.0464
  193SOL     OW  577   0.839   0.121   0.739 -0.3493 -0.5435  0.0453
  193SOL    HW1  578   0.765   0.162   0.681  0.8880  0.6373  1.9174
  193SOL    HW2  579   0.882   0.042   0.694 -0.7926  1.7936 -0.8687
  194SOL     OW  580   1.293   1.402   1.691  0.1990  0.0053 -0.6953
  194SOL    HW1  581   1.338   1.313   1.667  0.7937 -0.8217  1.3812
  194SOL    HW2  582   1.321   1.432   1.786  2.2911  0.9310  1.8290
  195SOL     OW  583   1.860   0.378   0.991  0.4931  0.0913 -0.0175
  195SOL    HW1  584   1.822   0.299   0.939 -1.2036 -3.0327 -2.5692
  195SOL    HW2  585   1.880   0.451   0.922 -1.8345  1.5468 -0.0442
  196SOL     OW  586   1.059   1.540   1.917 -0.3354  0.3894 -0.5797
  196SOL    HW1  587   1.159   1.517   1.907  3.8235  1.3110 -0.7243
  196SOL    HW2  588   1.013   1.557   1.825 -0.3306  0.9482  1.0561
  197SOL     OW  589   0.537   0.160   2.526 -0.1862 -0.1311 -0.2908
  197SOL    HW1  590   0.525   0.204   2.437 -0.6563 -1.2906  2.7125
  197SOL    HW2  591   0.623   0.190   2.567 -2.3148  0.7107 -0.4794
  198SOL     OW  592   0.046   0.842   0.817 -0.6606  0.5257 -0.4168
  198SOL    HW1  593   0.106   0.824   0.739 -1.0435  0.4877 -1.6845
  198SOL    HW2  594   3.104   0.756   0.854  1.0563 -0.5329  2.2848
  199SOL     OW  595   0.449   2.019   0.990 -0.4608  0.2332  0.1690
  199SOL    HW1  596   0.530   2.018   0.931 -2.7078  1.6912  0.4016
  199SOL    HW2  597   0.383   2.081   0.938  0.1039  0.7132 -0.8626
  200SOL     OW  598   2.651   1.876   2.788 -0.6874 -0.1763 -0.7873
  200SOL    HW1  599   2.742   1.838   2.763 -1.2905 -1.3471  2.5255
  200SOL    HW2  600   2.578   1.804   2.784 -1.1430 -2.2231  0.5982
  201SOL     OW  601   0.928   2.402   1.218  0.2020  0.6377 -0.4415
  201SOL    HW1  602   0.936   2.460   1.133  1.1310  3.5280 -0.7802
  201SOL    HW2  603   0.881   2.314   1.207 -2.0194  1.3023 -1.9728
  202SOL     OW  604   0.974   2.498   0.259  0.3339 -0.1253 -0.6609
  202SOL    HW1  605   0.957   2.423   0.195  2.1129  0.0743  1.8260
  202SOL    HW2  606   1.064   2.493   0.308 -0.1780  3.0061 -1.2272
  203SOL     OW  607   1.656   3.052   0.018  0.5482  0.2121  0.0591
  203SOL    HW1  608   1.739   0.007   0.018  0.7952  1.0808  1.3352
  203SOL    HW2  609   1.587   3.089   3.058  0.5232 -1.0338  3.2401
  204SOL     OW  610   0.518   1.539   1.327  0.5866 -0.0530  0.7135
  204SOL    HW1  611   0.544   1.479   1.250 -0.3128 -1.5085  0.2989
  204SOL    HW2  612   0.567   1.506   1.414  3.1036 -0.8274  0.1204
  205SOL     OW  613   1.898   1.319   2.351 -0.2329 -0.3490  0.1250
  205SOL    HW1  614   1.998   1.308   2.348  1.3315  1.1426 -0.0367
  205SOL    HW2  615   1.861   1.226   2.380  0.3925 -0.7128 -0.3940
  206SOL     OW  616   0.047   2.044   3.099 -0.6908 -0.2277 -0.1562
  206SOL    HW1  617   0.024   1.983   3.022  4.5227  2.5881  2.9917
  206SOL    HW2  618   0.039   1.979   0.074  0.3454 -1.9356 -1.0482
  207SOL     OW  619   0.451   2.258   2.182  0.4921  0.0226  0.2792
  207SOL    HW1  620   0.504   2.194   2.119 -1.3547  2.2440 -1.0851
  207SOL    HW2  621   0.371   2.296   2.131  0.5235 -1.2551  0.6463
  208SOL     OW  622   0.277   2.736   1.393  0.3150 -0.4036 -0.3872
  208SOL    HW1  623   0.190   2.683   1.411 -2.0214  1.2138 -0.3047
  208SOL    HW2  624   0.352   2.721   1.459  0.6882  3.2734 -1.2947
  209SOL     OW  625   1.101   2.880   2.222  0.5608 -0.0278  0.3745
  209SOL    HW1  626   1.047   2.810   2.167  2.3822  3.1183 -0.6981
  209SOL    HW2  627   1.043   2.942   2.277  0.4948 -2.4112 -1.5044
  210SOL     OW  628   2.639   1.196   1.920  0.2425  0.0208 -0.0625
  210SOL    HW1  629   2.655   1.095   1.902 -3.7769  0.6162 -0.2086
  210SOL    HW2  630   2.540   1.212   1.923  4.4485 -0.1356  0.0978
  211SOL     OW  631   1.224   0.043   2.048 -0.2180 -0.5959  0.1981
  211SOL    HW1  632   1.306   0.006   2.102 -1.9288  0.5870 -2.0082
  211SOL    HW2  633   1.219   0.142   2.054  0.1645 -1.0988 -2.7301
  212SOL     OW  634   1.947   2.564   1.909  0.4233 -0.6544 -0.2268
  212SOL    HW1  635   1.866   2.595   1.962  1.0346 -0.3055 -1.7222
  212SOL    HW2  636   1.996   2.491   1.956  0.2016  0.3714  0.2022
  213SOL     OW  637   2.680   0.480   1.656 -0.2355 -0.8172 -0.2842
  213SOL    HW1  638   2.671   0.426   1.571  0.2884 -0.5236  1.6926
  213SOL    HW2  639   2.690   0.581   1.633  0.1323  4.0441 -1.3534
  214SOL     OW  640   0.845   2.131   0.756  0.3135 -0.0216  0.0394
  214SOL    HW1  641   0.933   2.077   0.756  0.4417 -0.4736  2.8011
  214SOL    HW2  642   0.843   2.199   0.683 -0.1658 -0.9033  0.1342
  215SOL     OW  643   2.544   1.745   0.774 -0.5210  0.1970  0.1159
  215SOL    HW1  644   2.611   1.783   0.838  2.2917  1.4629  0.1095
  215SOL    HW2  645   2.520   1.812   0.698 -2.4220  1.7730 -1.0665
  216SOL     OW  646   2.911   0.846   1.702  0.0474  0.0276 -0.0967
  216SOL    HW1  647   2.944   0.936   1.676 -2.0142 -1.7803 -1.5073
  216SOL    HW2  648   2.984   0.785   1.740  0.5586  2.3414  1.3954
  217SOL     OW  649   2.218   0.341   1.491 -0.6532 -0.2313 -0.0239
  217SOL    HW1  650   2.275   0.339   1.407  1.2413  1.9703  0.3587
  217SOL    HW2  651   2.201   0.440   1.510  1.2416  1.8960 -1.0752
  218SOL     OW  652   1.971   2.423   1.322  0.1441  0.2897  0.3434
  218SOL    HW1  653   1.925   2.502   1.278  1.7562 -1.4855  1.5465
  218SOL    HW2  654   2.016   2.458   1.409 -0.1365  1.4739  0.9595
  219SOL     OW  655   2.222   2.436   0.202  0.1506  1.1566  0.6899
  219SOL    HW1  656   2.144   2.371   0.216  1.4963  0.7401  0.6547
  219SOL    HW2  657   2.214   2.473   0.108 -1.9920  1.4099  2.0719
  220SOL     OW  658   1.526   2.834   0.357 -0.2725  0.5308 -0.3474
  220SOL    HW1  659   1.546   2.745   0.409  2.7911 -2.5224  1.5440
  220SOL    HW2  660   1.427   2.849   0.336 -0.8085  1.7835  0.9196
  221SOL     OW  661   0.076   2.180   1.669 -0.2493 -0.1723  0.0904
  221SOL    HW1  662   3.077   2.178   1.676  0.0785 -3.9064 -0.9414
  221SOL    HW2  663   0.117   2.090   1.690  3.4880  3.1747 -1.6036
  222SOL     OW  664   1.812   2.433   0.818  0.3389 -0.2766  0.1615
  222SOL    HW1  665   1.893   2.420   0.880  0.3691 -0.3561  1.5968
  222SOL    HW2  666   1.798   2.345   0.766 -3.1332 -0.2532  0.4367
  223SOL     OW  667   1.345   2.520   1.290 -0.4829  0.2215 -0.7219
  223SOL    HW1  668   1.396   2.563   1.369 -2.8183 -0.0157  0.8187
  223SOL    HW2  669   1.307   2.427   1.316  2.0062 -0.0761  0.5900
  224SOL     OW  670   2.823   2.422   1.385 -0.5201  0.3841 -0.6791
  224SOL    HW1  671   2.794   2.484   1.312 -0.0857 -2.2902 -0.9590
  224SOL    HW2  672   2.849   2.480   1.467 -0.0795  1.0561  3.7021
  225SOL     OW  673   2.345   2.254   0.888 -0.2834 -0.1167  0.2759
  225SOL    HW1  674   2.253   2.219   0.905  0.2846 -0.7518 -1.1774
  225SOL    HW2  675   2.354   2.282   0.786  0.8071  2.2137  0.7912
  226SOL     OW  676   1.388   2.407   0.241 -0.5335 -0.2874 -0.8944
  226SOL    HW1  677   1.466   2.365   0.191 -2.0115  2.3052  5.0295
  226SOL    HW2  678   1.352   2.339   0.311  0.1708 -0.4524  0.3479
  227SOL     OW  679   1.917   1.124   0.648 -0.2581 -0.0021 -0.2220
  227SOL    HW1  680   1.837   1.132   0.704  1.1191  0.6464 -1.5865
  227SOL    HW2  681   1.926   1.022   0.630  2.1264 -0.8284  1.2531
  228SOL     OW  682   1.295   0.547   0.308  0.3278  0.1381  0.4765
  228SOL    HW1  683   1.237   0.461   0.304  0.8851 -2.0750 -0.4776
  228SOL    HW2  684   1.386   0.533   0.260  0.7693  2.4002  0.6114
  229SOL     OW  685   2.641   1.134   2.252  0.0258  0.2752 -0.3208
  229SOL    HW1  686   2.599   1.087   2.176 -1.6403  1.1363  1.2417
  229SOL    HW2  687   2.734   1.173   2.228  0.2135  0.4412  1.8977
  230SOL     OW  688   0.429   1.200   1.085  0.0168 -0.0299  1.0137
  230SOL    HW1  689   0.478   1.153   1.162  2.9190 -1.6079 -0.2298
  230SOL    HW2  690   0.488   1.191   1.002  2.6766 -1.4269 -1.5397
  231SOL     OW  691   2.393   0.520   2.723  0.3320 -0.3383  0.6672
  231SOL    HW1  692   2.361   0.539   2.817  1.7501 -0.1532 -0.9252
  231SOL    HW2  693   2.490   0.491   2.722 -0.6751 -0.8747 -0.1528
  232SOL     OW  694   2.956   1.912   0.799 -0.5817  0.1093 -0.4560
  232SOL    HW1  695   3.039   1.964   0.823 -0.5235 -3.8313 -0.1144
  232SOL    HW2  696   2.890   1.970   0.747 -1.5906 -0.4438 -0.9377
  233SOL     OW  697   1.840   2.782   2.683  0.1495  0.0327  0.0621
  233SOL    HW1  698   1.828   2.771   2.786  1.0756 -1.3255  0.7268
  233SOL    HW2  699   1.816   2.878   2.657 -1.1369 -1.3713  0.7798
  234SOL     OW  700   1.420   1.883   1.158 -0.2206  0.1990  0.2537
  234SOL    HW1  701   1.496   1.897   1.223 -0.3306 -1.3868  0.2753
  234SOL    HW2  702   1.372   1.968   1.148  1.1811 -1.5613 -2.0239
  235SOL     OW  703   0.878   1.797   1.702  0.2075 -0.4668 -0.1577
  235SOL    HW1  704   0.778   1.776   1.687  2.3202  0.0042 -1.7655
  235SOL    HW2  705   0.915   1.816   1.607 -1.0674 -0.5579  0.1355
  236SOL     OW  706   0.804   2.514   2.716 -0.1348  0.6061 -0.3874
  236SOL    HW1  707   0.870   2.546   2.781  1.6159 -3.9848 -0.2431
  236SOL    HW2  708   0.719   2.573   2.729 -3.0143 -0.1330  3.3433
  237SOL     OW  709   0.562   2.903   1.463  0.3269 -0.7497  0.5093
  237SOL    HW1  710   0.527   2.836   1.533  1.4378 -0.7764 -0.7440
  237SOL    HW2  711   0.611   2.972   1.514  0.9718 -0.9896 -0.9610
  238SOL     OW  712   1.002   0.626   0.377  0.3283 -0.7564  0.3753
  238SOL    HW1  713   1.101   0.638   0.356 -1.5249 -2.4442 -1.2575
  238SOL    HW2  714   0.961   0.706   0.425  0.3932 -1.8175  1.8218
  239SOL     OW  715   2.377   0.872   2.849 -0.0705  0.2523  0.3631
  239SOL    HW1  716   2.346   0.895   2.757  0.4113  0.3321 -0.1460
  239SOL    HW2  717   2.335   0.783   2.881  3.6880  1.1119 -0.2456
  240SOL     OW  718   2.869   2.133   1.046 -0.0815  0.7026 -0.0983
  240SOL    HW1  719   2.785   2.076   1.028 -0.3723 -1.2268  0.9034
  240SOL    HW2  720   2.943   2.068   1.046 -4.0441 -0.8111 -0.4611
  241SOL     OW  721   1.141   1.572   0.754  0.2258 -0.0021  0.2313
  241SOL    HW1  722   1.164   1.522   0.664  1.0566 -0.7524 -0.1004
  241SOL    HW2  723   1.041   1.597   0.763  0.6381  0.7570  2.6850
  242SOL     OW  724   1.024   0.702   0.871  0.2591  0.1792 -0.1435
  242SOL    HW1  725   0.926   0.675   0.862 -0.7774  0.4473 -0.4812
  242SOL    HW2  726   1.061   0.731   0.781 -0.5199 -2.4358  1.6484
  243SOL     OW  727   0.467   0.542   1.159 -0.4779 -0.4362  0.0749
  243SOL    HW1  728   0.419   0.460   1.191  4.1377 -0.4057  0.7458
  243SOL    HW2  729   0.432   0.584   1.074  1.2227  0.9702  1.4558
  244SOL     OW  730   1.070   0.115   0.431  0.4848  0.3976 -0.3942
  244SOL    HW1  731   1.008   0.038   0.464  0.0339  0.9905  1.3967
  244SOL    HW2  732   1.050   0.201   0.484  0.5403  0.6376 -0.4157
  245SOL     OW  733   1.997   0.851   0.363  0.3835 -0.3394  0.1064
  245SOL    HW1  734   1.930   0.844   0.439 -1.2817  0.6851  0.6515
  245SOL    HW2  735   1.996   0.940   0.311  1.6802  0.5758  0.6212
  246SOL     OW  736   0.325   0.169   1.812  0.1061 -0.0656  0.7539
  246SOL    HW1  737   0.355   0.072   1.807 -3.7732  0.5399  1.4372
  246SOL    HW2  738   0.224   0.176   1.812 -0.2048 -1.8016 -0.3973
  247SOL     OW  739   0.982   0.015   1.909 -0.1536  0.3046 -0.4108
  247SOL    HW1  740   1.015   0.058   1.830  1.6824 -0.6789  0.5609
  247SOL    HW2  741   1.058   0.007   1.973  2.3301 -0.1669  0.6215
  248SOL     OW  742   0.417   1.825   1.958 -0.4671  0.4384 -0.5420
  248SOL    HW1  743   0.460   1.909   2.000  0.2259  4.0447  1.5115
  248SOL    HW2  744   0.353   1.784   2.029 -3.6604 -1.3689  3.0148
  249SOL     OW  745   0.537   2.478   0.236  0.2380 -0.5702 -0.0269
  249SOL    HW1  746   0.437   2.498   0.221 -0.3865  1.4817 -0.9865
  249SOL    HW2  747   0.589   2.520   0.161  0.8537 -0.1882  1.2082
  250SOL     OW  748   0.602   0.252   2.177  0.0908  0.2735 -0.1749
  250SOL    HW1  749   0.512   0.210   2.174  1.4654  3.2766 -0.7225
  250SOL    HW2  750   0.658   0.233   2.094  0.1952  1.3888  1.8455
  251SOL     OW  751   2.933   2.083   1.726 -0.0783 -0.2259  0.3522
  251SOL    HW1  752   2.947   2.031   1.815 -2.0635 -0.1072 -1.1223
  251SOL    HW2  753   2.835   2.106   1.719  2.3522 -0.7313 -0.2438
  252SOL     OW  754   1.390   0.218   1.819 -0.4530 -0.3821 -0.2252
  252SOL    HW1  755   1.368   0.242   1.916 -1.3311  0.4198  0.1465
  252SOL    HW2  756   1.419   0.118   1.806 -1.7395  1.8536 -3.4842
  253SOL     OW  757   2.198   1.915   2.355  0.0921 -0.3124 -0.5738
  253SOL    HW1  758   2.247   1.856   2.283  0.1945 -2.2108 -2.2795
  253SOL    HW2  759   2.133   1.986   2.316 -1.2469  0.2736  1.5833
  254SOL     OW  760   0.871   1.607   1.112 -0.6587 -0.0306 -0.4600
  254SOL    HW1  761   0.921   1.689   1.150 -0.4958  1.3162  1.1471
  254SOL    HW2  762   0.881   1.595   1.011  0.2915  1.3329  0.1293
  255SOL     OW  763   0.131   2.761   1.948 -0.5947  1.0238  0.2012
  255SOL    HW1  764   0.054   2.709   1.990  0.8022  0.7104  1.8728
  255SOL    HW2  765   0.173   2.719   1.866  1.2920  3.5562  0.2190
  256SOL     OW  766   0.279   2.725   0.495 -0.0853 -0.2488 -0.0510
  256SOL    HW1  767   0.366   2.680   0.514  0.1294  4.4422  4.5119
  256SOL    HW2  768   0.206   2.660   0.477  1.3599 -0.9122  0.3680
  257SOL     OW  769   1.109   2.555   2.212  0.1277 -0.2568 -0.2905
  257SOL    HW1  770   1.207   2.573   2.187 -0.2176  1.7944 -1.1567
  257SOL    HW2  771   1.039   2.595   2.147  0.2575  0.4051  0.7634
  258SOL     OW  772   1.533   2.011   1.883 -0.3725 -0.0789  0.1076
  258SOL    HW1  773   1.462   2.070   1.832 -1.2420  1.4884 -1.5714
  258SOL    HW2  774   1.618   1.999   1.829 -0.6546 -0.7435  0.3682
  259SOL     OW  775   0.917   0.864   2.076 -0.5850 -0.1785 -0.3248
  259SOL    HW1  776   1.003   0.867   2.019  0.3157  1.4297 -0.1976
  259SOL    HW2  777   0.841   0.889   2.018  1.7307 -2.7816  2.6995
  260SOL     OW  778   2.772   0.898   2.636  0.4094  0.1048 -0.2095
  260SOL    HW1  779   2.825   0.966   2.690 -0.7100 -1.3705  0.8709
  260SOL    HW2  780   2.734   0.831   2.697  3.0581  3.3611  1.2544
  261SOL     OW  781   0.850   1.241   0.972 -0.0398 -0.1123 -0.3218
  261SOL    HW1  782   0.924   1.222   1.037 -1.4869 -0.7199  2.8588
  261SOL    HW2  783   0.900   1.278   0.889  1.9653  0.0597 -1.6351
  262SOL     OW  784   2.025   2.109   2.290 -0.0734 -0.4156 -0.2403
  262SOL    HW1  785   2.031   2.209   2.276 -0.6899 -2.4245 -0.6191
  262SOL    HW2  786   1.974   2.090   2.379  0.0816 -1.0716  0.8338
  263SOL     OW  787   0.773   2.830   0.974 -0.1681  0.5346 -0.9590
  263SOL    HW1  788   0.845   2.853   1.044  2.8030  1.4139 -0.1294
  263SOL    HW2  789   0.745   2.730   0.975  0.5519  0.9470 -3.3383
  264SOL     OW  790   2.813   2.062   0.627  0.2030  0.3209  0.3053
  264SOL    HW1  791   2.809   2.165   0.641 -0.0932  2.3545 -1.7275
  264SOL    HW2  792   2.731   2.026   0.575  0.5092 -0.5553 -0.1878
  265SOL     OW  793   1.951   1.447   2.618 -0.1847  0.6947 -0.0427
  265SOL    HW1  794   1.907   1.439   2.525 -1.5282  0.7732 -0.3627
  265SOL    HW2  795   2.055   1.447   2.603  1.8614 -2.7679 -0.1004
  266SOL     OW  796   1.394   1.789   1.937  0.2695  0.3492  0.1316
  266SOL    HW1  797   1.435   1.880   1.916 -0.3444  1.5172  2.0861
  266SOL    HW2  798   1.324   1.799   2.010 -0.6438  0.7920  0.2398
  267SOL     OW  799   2.453   0.781   2.414 -0.0883  0.0679 -0.4944
  267SOL    HW1  800   2.466   0.887   2.430 -0.8661  1.3858  1.4926
  267SOL    HW2  801   2.384   0.740   2.477 -0.7910 -4.1550 -2.0476
  268SOL     OW  802   0.989   1.227   2.962  0.0230 -0.4343 -0.1938
  268SOL    HW1  803   0.972   1.315   2.915 -1.1991  1.3141  0.5921
  268SOL    HW2  804   1.027   1.154   2.902 -0.3392 -0.2466 -2.5201
  269SOL     OW  805   0.110   2.040   2.068 -0.3982 -0.6248 -0.5438
  269SOL    HW1  806   0.126   1.951   2.108 -2.1347 -1.0666  0.6660
  269SOL    HW2  807   0.012   2.059   2.069 -0.8614 -0.1689  2.4235
  270SOL     OW  808   3.069   1.882   0.208 -0.3653  0.1456 -0.2374
  270SOL    HW1  809   3.006   1.921   0.278 -0.3646 -0.2380 -0.4957
  270SOL    HW2  810   3.071   1.783   0.220  0.7958 -0.4390 -0.4406
  271SOL     OW  811   0.323   0.294   0.262  0.1157  0.0290  0.5456
  271SOL    HW1  812   0.359   0.215   0.316  0.6822 -0.2854 -1.8970
  271SOL    HW2  813   0.308   0.376   0.323 -0.5657  0.5730 -0.1981
  272SOL     OW  814   3.059   2.942   0.739 -0.6291  0.5018  0.0883
  272SOL    HW1  815   2.977   2.940   0.794 -0.8673 -2.1878 -2.3254
  272SOL    HW2  816   3.057   2.880   0.656  0.3654  0.9261 -2.7593
  273SOL     OW  817   0.116   3.013   2.073  0.0901  0.6095  0.1693
  273SOL    HW1  818   0.189   3.002   2.133 -2.9482 -1.4302  0.5695
  273SOL    HW2  819   0.097   2.922   2.028  0.5799  1.4780  0.2274
  274SOL     OW  820   0.345   0.297   1.417  0.0514  0.1390  0.1239
  274SOL    HW1  821   0.354   0.287   1.314 -0.9781  0.8335 -2.2578
  274SOL    HW2  822   0.366   0.391   1.442 -1.5247 -2.3939 -1.4579
  275SOL     OW  823   1.174   1.729   0.967 -0.1613  0.4023  0.0611
  275SOL    HW1  824   1.278   1.743   0.965  2.8249  1.8183  3.1271
  275SOL    HW2  825   1.156   1.676   0.882 -1.3472 -1.2915 -0.9465
  276SOL     OW  826   0.601   1.425   1.782  0.4617  0.3428 -0.2087
  276SOL    HW1  827   0.673   1.475   1.834 -2.5402 -0.5172 -0.1141
  276SOL    HW2  828   0.523   1.398   1.842 -1.1262 -0.2825  0.7799
  277SOL     OW  829   1.312   2.135   1.807  0.4005 -0.0556  0.0075
  277SOL    HW1  830   1.331   2.235   1.826 -0.0269 -0.1035  0.3655
  277SOL    HW2  831   1.214   2.122   1.780  1.4190  0.2982  1.7571
  278SOL     OW  832   2.175   2.960   2.258 -0.7425  0.1460 -0.2166
  278SOL    HW1  833   2.078   2.950   2.274  2.9798  0.1830 -1.1523
  278SOL    HW2  834   2.199   3.055   2.232  0.2259  0.8657  1.4127
  279SOL     OW  835   1.519   1.684   2.800 -0.4431 -0.3841  0.3947
  279SOL    HW1  836   1.595   1.615   2.815  3.3612 -2.5419  1.1946
  279SOL    HW2  837   1.548   1.781   2.817  1.8895 -3.4068  1.4012
  280SOL     OW  838   1.520   0.410   0.762 -0.3507  0.2387  0.4267
  280SOL    HW1  839   1.525   0.327   0.820  0.5935  0.5242  2.0594
  280SOL    HW2  840   1.425   0.426   0.727 -1.6375  0.8378  0.0510
  281SOL     OW  841   0.192   0.382   2.075 -0.3836  0.2391 -0.0438
  281SOL    HW1  842   0.188   0.390   1.972  2.3065  0.2725  0.1116
  281SOL    HW2  843   0.252   0.453   2.109 -0.6180 -0.4889 -0.6608
  282SOL     OW  844   0.238   2.848   0.727  0.2677 -0.5276  0.1541
  282SOL    HW1  845   0.147   2.890   0.743 -1.0082 -0.1474  1.4940
  282SOL    HW2  846   0.251   2.834   0.632  0.1918 -1.1683  1.7517
  283SOL     OW  847   1.276   2.250   1.371 -0.0261 -0.1416 -0.5853
  283SOL    HW1  848   1.252   2.183   1.301  1.5089  3.7672  2.8009
  283SOL    HW2  849   1.339   2.203   1.436 -0.1299 -0.9076  0.2316
  284SOL     OW  850   2.097   2.691   1.474 -0.8383 -0.3460  0.5013
  284SOL    HW1  851   2.042   2.624   1.525 -2.1742 -0.8872 -0.4746
  284SOL    HW2  852   2.195   2.685   1.499 -0.5539 -2.0050  1.0013
  285SOL     OW  853   0.666   1.956   0.860 -0.2228  0.2462  0.1770
  285SOL    HW1  854   0.750   2.004   0.835  0.4534 -0.4642  2.2058
  285SOL    HW2  855   0.666   1.863   0.822  2.0061 -0.0249  0.1736
  286SOL     OW  856   3.026   2.621   2.036 -0.0058  0.0580 -0.1027
  286SOL    HW1  857   2.954   2.675   2.082  0.9368 -1.6803 -2.3841
  286SOL    HW2  858   2.997   2.536   1.992  0.5426 -1.1245 -0.4930
  287SOL     OW  859   0.593   1.166   0.861 -0.0294 -0.2415 -0.2936
  287SOL    HW1  860   0.687   1.193   0.885 -2.6975 -0.7777 -2.6053
  287SOL    HW2  861   0.592   1.137   0.765  1.0734  1.2033 -2.2070
  288SOL     OW  862   1.372   2.201   2.747  0.6058 -0.2601  0.0056
  288SOL    HW1  863   1.326   2.143   2.676  1.7550  0.9621 -2.7930
  288SOL    HW2  864   1.311   2.212   2.831  0.5856  0.6969  0.6234
  289SOL     OW  865   2.336   1.288   2.713  0.4251  0.2930 -0.8974
  289SOL    HW1  866   2.294   1.266   2.805  0.7658  0.3104 -0.0272
  289SOL    HW2  867   2.293   1.365   2.665  1.5049 -1.9287  0.0717
  290SOL     OW  868   1.528   1.471   0.962  0.0399  0.1265  0.6955
  290SOL    HW1  869   1.508   1.442   0.864 -0.3399 -1.2811 -0.8452
  290SOL    HW2  870   1.533   1.574   0.965  2.4216 -1.7768 -2.6343
  291SOL     OW  871   0.966   0.771   0.054  0.4444 -0.9115  0.0750
  291SOL    HW1  872   0.949   0.792   0.152 -1.2308  0.3147  0.1147
  291SOL    HW2  873   1.000   0.676   0.040 -1.4071  3.4954 -2.3518
  292SOL     OW  874   1.714   1.429   0.537  0.6546  0.0008  0.2267
  292SOL    HW1  875   1.667   1.415   0.447 -2.4821  2.6132 -0.6688
  292SOL    HW2  876   1.795   1.371   0.538 -2.0680  0.5045 -1.9198
  293SOL     OW  877   1.641   3.023   1.158  0.9155 -0.4101  0.6409
  293SOL    HW1  878   1.681   2.989   1.245  0.2234 -1.0095 -1.3204
  293SOL    HW2  879   1.656   0.024   1.154 -0.8818  0.3191  2.4706
  294SOL     OW  880   2.070   0.948   3.093 -0.0536 -0.4007 -0.2496
  294SOL    HW1  881   2.173   0.959   3.082  1.5332  0.3017  2.6117
  294SOL    HW2  882   2.048   0.989   0.077 -1.5714 -1.3768 -1.4824
  295SOL     OW  883   2.222   2.013   2.636  0.3300 -0.5249 -0.3446
  295SOL    HW1  884   2.174   2.100   2.611  0.7974  1.2204 -0.1365
  295SOL    HW2  885   2.212   1.956   2.552  0.9132  3.2579  1.6326
  296SOL     OW  886   1.481   1.429   1.236 -0.6464  0.1449 -0.2880
  296SOL    HW1  887   1.519   1.430   1.142 -1.2639  0.3419  0.8361
  296SOL    HW2  888   1.429   1.513   1.245 -0.9029 -0.4547 -0.1226
  297SOL     OW  889   0.507   0.840   2.432 -0.2042 -0.7805  0.2527
  297SOL    HW1  890   0.456   0.779   2.494  1.6866 -1.8302 -0.9265
  297SOL    HW2  891   0.553   0.920   2.476  0.5790  2.1238  0.6460
  298SOL     OW  892   1.629   2.442   1.438 -0.1405 -0.1806  0.8172
  298SOL    HW1  893   1.615   2.537   1.471  0.2131  0.8579 -1.3863
  298SOL    HW2  894   1.614   2.376   1.515 -0.6569 -3.1350  3.0652
  299SOL     OW  895   1.096   0.523   2.787 -0.1254 -0.3299 -0.2312
  299SOL    HW1  896   1.032   0.602   2.791  0.7522 -0.1675 -2.1483
  299SOL    HW2  897   1.050   0.440   2.827 -1.8017  0.4618  1.6804
  300SOL     OW  898   1.900   1.319   0.243 -0.7532  0.7247 -0.2174
  300SOL    HW1  899   1.945   1.361   0.163  0.3984 -1.6971  1.1285
  300SOL    HW2  900   1.805   1.353   0.255  1.5995 -0.7928  1.5096
  301SOL     OW  901   2.281   0.468   2.477 -0.7031  0.8930  0.3421
  301SOL    HW1  902   2.344   0.436   2.404  2.0955 -0.8257 -1.7251
  301SOL    HW2  903   2.326   0.492   2.562 -2.0897 -0.0057 -5.1525
  302SOL     OW  904   2.690   1.453   2.545 -0.3515  0.0307  0.3999
  302SOL    HW1  905   2.664   1.356   2.578 -0.3788 -1.2243 -1.1604
  302SOL    HW2  906   2.608   1.516   2.547  0.6943 -0.3565  1.1837
  303SOL     OW  907   0.262   2.522   2.434 -0.0858  0.0999 -0.1156
  303SOL    HW1  908   0.205   2.473   2.362  2.7958  0.8077 -2.4150
  303SOL    HW2  909   0.213   2.609   2.457  0.8923  1.4647  1.4721
  304SOL     OW  910   2.974   1.352   1.175  0.0630 -0.1491 -0.0582
  304SOL    HW1  911   2.888   1.390   1.141 -0.8269  1.6615 -0.3436
  304SOL    HW2  912   3.040   1.319   1.111 -2.1119  0.4061 -1.3599
  305SOL     OW  913   3.100   0.318   2.256 -0.1762  0.2341 -0.3615
  305SOL    HW1  914   0.060   0.366   2.195 -1.4419  2.0429 -1.3856
  305SOL    HW2  915   0.033   0.287   2.342 -3.2714  0.1973 -0.7232
  306SOL     OW  916   1.217   1.452   0.524 -0.0361  0.4983  0.3595
  306SOL    HW1  917   1.234   1.354   0.501  1.1786  1.7910 -1.3861
  306SOL    HW2  918   1.274   1.512   0.464 -1.4178  0.8096 -0.0378
  307SOL     OW  919   3.068   0.024   1.328  0.1958  0.3758  0.3747
  307SOL    HW1  920   0.060   0.038   1.363  1.9153 -0.6384  1.6987
  307SOL    HW2  921   3.017   0.115   1.330  1.2663  2.3751 -0.2361
  308SOL     OW  922   2.890   1.766   2.738 -0.2219 -1.0882  0.1152
  308SOL    HW1  923   2.897   1.704   2.822 -4.0401  0.2937 -0.3558
  308SOL    HW2  924   2.927   1.721   2.653 -0.0587 -0.1867 -0.0750
  309SOL     OW  925   3.077   1.944   2.862 -0.0269  0.1484  0.3822
  309SOL    HW1  926   3.012   1.877   2.825  0.1343 -1.7190 -1.7189
  309SOL    HW2  927   3.101   2.015   2.792  0.2714 -0.1248  1.7085
  310SOL     OW  928   2.417   0.496   0.039 -0.4409 -0.0637  0.0693
  310SOL    HW1  929   2.515   0.464   0.048  2.0977 -1.6597 -0.6128
  310SOL    HW2  930   2.373   0.513   0.128  0.6198  1.5528 -2.1191
  311SOL     OW  931   1.933   1.262   2.996 -0.3004 -0.3666 -0.4797
  311SOL    HW1  932   1.867   1.231   2.924  0.5012  1.0844 -2.9514
  311SOL    HW2  933   1.917   1.359   3.013 -3.9564 -0.0076  0.1033
  312SOL     OW  934   1.291   1.189   2.177 -0.1613  0.5863  0.2179
  312SOL    HW1  935   1.201   1.240   2.180  0.2903  1.4382  1.1001
  312SOL    HW2  936   1.275   1.093   2.137 -0.3101  0.3871 -0.0573
  313SOL     OW  937   0.035   0.504   0.102  0.0137  0.3981 -0.0408
  313SOL    HW1  938   0.074   0.409   0.086 -0.0779 -0.9712  2.5592
  313SOL    HW2  939   3.060   0.498   0.169  1.3487  2.6059  0.7321
  314SOL     OW  940   0.424   1.914   1.512 -0.6556  0.1970 -0.0108
  314SOL    HW1  941   0.385   1.829   1.550  0.2011 -0.9650  0.0285
  314SOL    HW2  942   0.522   1.906   1.489  1.5474  0.0481  0.1213
  315SOL     OW  943   1.324   1.658   1.278 -0.1220 -0.4468 -0.1758
  315SOL    HW1  944   1.297   1.664   1.375 -0.1946  1.2405  1.2197
  315SOL    HW2  945   1.377   1.742   1.248  3.8812  1.4197  2.2227
  316SOL     OW  946   0.155   2.160   0.598  0.0322  0.2835 -0.4384
  316SOL    HW1  947   0.102   2.082   0.553 -1.7607  0.7111 -0.0912
  316SOL    HW2  948   0.238   2.180   0.539 -0.2515  0.1851  0.9960
  317SOL     OW  949   2.567   0.195   1.087 -0.3287 -0.0019  0.2064
  317SOL    HW1  950   2.562   0.265   1.161 -1.9481 -1.4877 -1.0570
  317SOL    HW2  951   2.556   0.099   1.120  0.4247 -2.2105  0.7035
  318SOL     OW  952   1.270   2.844   0.263  0.3341  0.3323  0.2014
  318SOL    HW1  953   1.201   2.820   0.336  0.0459  0.1799 -1.4438
  318SOL    HW2  954   1.238   2.921   0.208 -0.6834 -0.4479  1.7385
  319SOL     OW  955   1.478   0.113   3.000  0.4798 -0.0167 -0.8524
  319SOL    HW1  956   1.422   0.148   3.077 -0.7885  1.3591 -0.4202
  319SOL    HW2  957   1.530   0.189   2.954 -0.2173  0.3892  0.8957
  320SOL     OW  958   2.565   1.995   1.981  0.2981  0.0919  0.3061
  320SOL    HW1  959   2.595   1.956   2.068  0.0146  0.9191 -0.2682
  320SOL    HW2  960   2.531   1.921   1.918  0.9875 -0.5662 -0.3512
  321SOL     OW  961   0.106   2.526   3.070  0.0537 -0.4527 -0.6588
  321SOL    HW1  962   0.050   2.610   3.085 -0.9490  1.2092  0.5223
  321SOL    HW2  963   0.060   2.438   3.084  1.6798  1.1731  0.2327
  322SOL     OW  964   2.757   1.245   1.692 -0.0134 -0.3617 -0.1632
  322SOL    HW1  965   2.696   1.210   1.620  1.1116  0.3758  0.1506
  322SOL    HW2  966   2.710   1.238   1.782 -0.0673  0.4649 -3.1462
  323SOL     OW  967   1.563   1.314   0.035  0.0824 -0.2612 -0.0140
  323SOL    HW1  968   1.479   1.373   0.035  2.1345 -0.6745  0.1746
  323SOL    HW2  969   1.554   1.225   0.087  2.3917 -1.6653 -1.0935
  324SOL     OW  970   0.091   0.355   1.514  0.0512 -0.8847  0.1061
  324SOL    HW1  971   0.185   0.320   1.511 -0.4503  2.4962  0.6203
  324SOL    HW2  972   0.056   0.354   1.613  0.9128  2.1643 -1.7850
  325SOL     OW  973   2.650   2.949   1.432 -0.6924  0.3556  0.4527
  325SOL    HW1  974   2.747   2.909   1.431  3.6690 -1.2022  0.2787
  325SOL    HW2  975   2.650   3.036   1.484  0.0869 -1.0078 -2.0454
  326SOL     OW  976   1.822   2.623   0.346 -0.2074  0.0668  0.0580
  326SOL    HW1  977   1.799   2.705   0.294 -0.3771 -0.7101 -2.2262
  326SOL    HW2  978   1.743   2.591   0.406 -2.5273 -0.1990  0.3897
  327SOL     OW  979   2.110   2.216   0.525 -0.5322 -0.4544  0.5061
  327SOL    HW1  980   2.049   2.144   0.556 -0.4212  0.1284  0.2699
  327SOL    HW2  981   2.087   2.242   0.429 -1.0180  1.7148  1.0579
  328SOL     OW  982   2.720   2.399   1.824  0.2277  0.0134  0.1966
  328SOL    HW1  983   2.776   2.466   1.764  0.8504 -0.0973 -2.8604
  328SOL    HW2  984   2.723   2.424   1.925 -0.0447  1.5976  1.1140
  329SOL     OW  985   0.148   2.117   1.110 -0.0988 -0.2012 -0.4088
  329SOL    HW1  986   0.145   2.219   1.098  0.4890  0.9420  1.3944
  329SOL    HW2  987   0.185   2.092   1.205 -1.7203 -2.7667  0.6387
  330SOL     OW  988   2.398   1.120   2.120 -0.3427  0.4025 -0.0532
  330SOL    HW1  989   2.322   1.159   2.176  0.8681  0.1194 -0.2929
  330SOL    HW2  990   2.379   1.133   2.022  1.8365 -0.4973  1.5713
  331SOL     OW  991   2.097   1.601   0.617  0.1231  0.2182  0.2473
  331SOL    HW1  992   2.173   1.571   0.677 -0.4830 -0.2540 -1.1259
  331SOL    HW2  993   2.060   1.520   0.565  4.2502 -0.3791  1.0269
  332SOL     OW  994   0.203   2.992   1.608  0.8495  0.5317  0.4589
  332SOL    HW1  995   0.132   2.917   1.598 -1.0411 -1.3380 -1.4549
  332SOL    HW2  996   0.207   3.052   1.525 -1.6175 -2.5641 -1.6736
  333SOL     OW  997   0.083   1.673   2.051 -0.2580  0.3083  0.1127
  333SOL    HW1  998   0.074   1.740   1.972  1.9396  3.2455  0.6387
  333SOL    HW2  999   0.107   1.581   2.014 -0.7603  0.7558 -3.2453
  334SOL     OW 1000   0.356   0.800   1.331  0.6028 -0.1357  0.0251
  334SOL    HW1 1001   0.279   0.845   1.370  2.5439 -1.5372 -0.4686
  334SOL    HW2 1002   0.344   0.801   1.229  2.1065  1.4679 -0.0169
  335SOL     OW 1003   2.934   1.896   1.977  0.3726  0.1532 -0.5422
  335SOL    HW1 1004   2.969   1.841   1.901 -0.4068  1.6445  2.7026
  335SOL    HW2 1005   2.877   1.826   2.030 -2.6068 -2.1604  1.0672
  336SOL     OW 1006   1.955   2.991   2.963  0.3559  0.2380 -0.0034
  336SOL    HW1 1007   1.877   2.922   2.957 -0.3343 -0.8969  0.6899
  336SOL    HW2 1008   2.040   2.956   3.006 -0.3119 -1.1870 -1.0303
  337SOL     OW 1009   0.681   0.631   1.304 -0.2824 -0.7103  0.1496
  337SOL    HW1 1010   0.710   0.724   1.272  1.1940  1.3058 -3.0878
  337SOL    HW2 1011   0.595   0.596   1.256 -0.3139  0.0153 -1.1355
  338SOL     OW 1012   1.513   2.206   0.693 -0.3080  0.4979  0.2276
  338SOL    HW1 1013   1.592   2.251   0.645  2.9215  2.4926 -0.4380
  338SOL    HW2 1014   1.556   2.141   0.760  2.7056 -2.1660  1.7813
  339SOL     OW 1015   0.275   1.837   1.132 -0.0070 -0.0498 -0.0013
  339SOL    HW1 1016   0.224   1.886   1.209  1.6244 -0.3105  0.3480
  339SOL    HW2 1017   0.359   1.891   1.106 -1.1261  1.2459 -2.5240
  340SOL     OW 1018   0.352   0.158   2.175 -0.0451  0.0760  0.3513
  340SOL    HW1 1019   0.291   0.232   2.136 -0.0869  0.5245 -0.7094
  340SOL    HW2 1020   0.297   0.087   2.211  1.3172  0.3820 -1.4460
  341SOL     OW 1021   2.120   1.448   0.889  0.7097  0.2008  0.2113
  341SOL    HW1 1022   2.027   1.470   0.844 -3.0856 -2.2290  0.1274
  341SOL    HW2 1023   2.181   1.528   0.880  0.9252 -1.3683  0.8770
  342SOL     OW 1024   1.660   1.702   0.507  0.5711  0.1567 -0.1320
  342SOL    HW1 1025   1.667   1.600   0.532  2.0798 -1.0807  1.2727
  342SOL    HW2 1026   1.699   1.707   0.412  1.4376 -2.1846 -2.4497
  343SOL     OW 1027   2.085   0.118   0.850  0.2068  0.3598 -0.4627
  343SOL    HW1 1028   2.121   0.024   0.841  2.8628 -0.0242  0.8993
  343SOL    HW2 1029   2.114   0.176   0.773  1.7754 -1.0897  0.9610
  344SOL     OW 1030   2.672   0.191   2.841  0.1101 -0.4293  0.3584
  344SOL    HW1 1031   2.673   0.296   2.830 -0.4652  2.9321  1.9716
  344SOL    HW2 1032   2.715   0.144   2.759  0.6288 -0.9923  0.6601
  345SOL     OW 1033   1.165   2.634   1.131  0.4878  0.2151 -0.2923
  345SOL    HW1 1034   1.228   2.590   1.198  0.1917 -0.3220 -1.3192
  345SOL    HW2 1035   1.109   2.568   1.080 -0.1497  1.9388 -2.0909
  346SOL     OW 1036   2.288   2.344   1.579 -0.2479  0.0831  0.3546
  346SOL    HW1 1037   2.199   2.298   1.605 -1.0289 -0.9260  1.5123
  346SOL    HW2 1038   2.331   2.305   1.497 -0.8048  1.1998  1.0461
  347SOL     OW 1039   2.476   3.018   0.900 -0.0663  0.4174  0.3179
  347SOL    HW1 1040   2.531   2.928   0.884  2.5975 -1.5701 -1.2968
  347SOL    HW2 1041   2.470   3.040   0.998 -1.5359  2.0126 -1.5884
  348SOL     OW 1042   0.794   0.874   1.257  0.0722  0.3641  0.4945
  348SOL    HW1 1043   0.852   0.902   1.332 -0.9356  0.7379 -0.9166
  348SOL    HW2 1044   0.746   0.957   1.218 -1.0188  0.5403  0.7411
  349SOL     OW 1045   2.289   0.278   3.036 -0.2557 -0.9031 -0.8330
  349SOL    HW1 1046   2.332   0.365   3.074  3.4153  0.0408 -2.0243
  349SOL    HW2 1047   2.329   0.250   2.949 -2.7635 -1.7678  0.8977
  350SOL     OW 1048   2.499   2.063   2.932  0.0816  0.4564 -0.4561
  350SOL    HW1 1049   2.568   1.997   2.902  1.1432  1.7222 -0.0434
  350SOL    HW2 1050   2.521   2.152   2.892  1.0517  0.0952  0.3806
  351SOL     OW 1051   1.256   0.382   0.693  0.2383  0.0145  0.0781
  351SOL    HW1 1052   1.264   0.322   0.775  0.9639  0.1918 -0.0915
  351SOL    HW2 1053   1.170   0.374   0.642 -0.8514  0.7790  0.7557
  352SOL     OW 1054   2.180   2.380   2.798  0.0407  0.1175 -0.4215
  352SOL    HW1 1055   2.210   2.430   2.882  0.8209  1.3826 -2.7077
  352SOL    HW2 1056   2.169   2.452   2.725 -0.5304 -2.7348 -1.6728
  353SOL     OW 1057   0.305   0.612   3.063  0.2700 -0.1968  0.8901
  353SOL    HW1 1058   0.232   0.575   0.022  0.5258 -0.8796 -2.7392
  353SOL    HW2 1059   0.302   0.712   3.053 -1.1107 -1.0427  0.9174
  354SOL     OW 1060   0.893   1.869   3.082  0.1371 -0.0340 -0.2619
  354SOL    HW1 1061   0.952   1.813   3.023 -1.2356  1.8334  0.5531
  354SOL    HW2 1062   0.854   1.816   0.056  0.6707  0.8544  2.2267
  355SOL     OW 1063   2.851   2.786   1.762  0.5080 -0.1516  0.5107
  355SOL    HW1 1064   2.845   2.848   1.838  1.4408 -0.0058 -3.1284
  355SOL    HW2 1065   2.761   2.745   1.746  3.0019 -0.9647  2.7800
  356SOL     OW 1066   2.855   1.048   0.503  0.9273  0.6775 -0.1020
  356SOL    HW1 1067   2.948   1.073   0.536  0.1828  0.9350  0.2347
  356SOL    HW2 1068   2.825   0.957   0.540  1.0365 -0.7752 -1.8329
  357SOL     OW 1069   2.406   0.412   0.944 -0.1692  0.0276  0.1619
  357SOL    HW1 1070   2.448   0.505   0.956 -0.4714  2.4094  2.1472
  357SOL    HW2 1071   2.458   0.343   0.994  0.4498  1.5019  2.2551
  358SOL     OW 1072   0.960   2.488   0.957  0.5614 -0.0250 -0.1193
  358SOL    HW1 1073   0.881   2.442   0.916  1.0388  1.3714  0.6199
  358SOL    HW2 1074   0.978   2.578   0.906  0.3327  2.0850  0.2638
  359SOL     OW 1075   0.073   2.587   2.794 -0.3679 -0.2957  0.1632
  359SOL    HW1 1076   0.118   2.562   2.883  0.8258 -2.3194 -0.5598
  359SOL    HW2 1077   3.073   2.602   2.806 -1.4251  0.0595 -4.3431
  360SOL     OW 1078   0.528   1.085   1.656 -0.6992  0.1962  0.0885
  360SOL    HW1 1079   0.428   1.098   1.660 -0.6336 -0.0910 -1.0599
  360SOL    HW2 1080   0.546   1.006   1.598  1.8314  2.9344 -1.1766
  361SOL     OW 1081   2.445   2.891   0.584  0.5813  0.2918  0.7447
  361SOL    HW1 1082   2.343   2.909   0.563 -0.1733  0.6817  0.6951
  361SOL    HW2 1083   2.504   2.971   0.557  0.0754  0.1259 -0.0368
  362SOL     OW 1084   0.085   3.033   1.087 -0.2620 -0.0848 -0.2607
  362SOL    HW1 1085   0.157   2.963   1.106 -1.0574  0.8427  1.3577
  362SOL    HW2 1086   0.029   3.062   1.167  0.1244  2.0331 -1.4201
  363SOL     OW 1087   0.756   1.234   0.487  0.5262  0.1519  0.1738
  363SOL    HW1 1088   0.829   1.188   0.431  1.3722  1.3648 -0.4810
  363SOL    HW2 1089   0.686   1.161   0.507  1.8786  0.2145  0.4869
  364SOL     OW 1090   0.666   1.414   1.522 -0.2461  0.4426  0.1911
  364SOL    HW1 1091   0.712   1.325   1.516 -1.3398  0.2300  3.1635
  364SOL    HW2 1092   0.628   1.423   1.614  1.2293 -0.9172 -0.8772
  365SOL     OW 1093   2.303   1.103   0.283  0.0697  0.3195 -0.0486
  365SOL    HW1 1094   2.339   1.157   0.362  1.0945 -1.4717  1.5762
  365SOL    HW2 1095   2.375   1.077   0.216 -1.0534 -0.7035  1.0965
  366SOL     OW 1096   2.780   1.754   1.213 -0.0874  0.0013 -0.3143
  366SOL    HW1 1097   2.766   1.830   1.278  0.0766  0.3554  1.2373
  366SOL    HW2 1098   2.846   1.691   1.256  0.0981  0.7859  0.5729
  367SOL     OW 1099   2.134   2.062   1.831 -0.0845 -0.2901 -0.1114
  367SOL    HW1 1100   2.056   2.016   1.884 -0.9020  0.8077  1.2272
  367SOL    HW2 1101   2.207   2.100   1.895 -0.7287 -1.3345 -1.5839
  368SOL     OW 1102   2.719   1.139   1.049 -0.1015  0.2807  0.2078
  368SOL    HW1 1103   2.778   1.171   0.973 -0.1426 -1.9739  2.9399
  368SOL    HW2 1104   2.767   1.087   1.123  1.8134 -3.9630  1.5854
  369SOL     OW 1105   2.597   2.645   0.002 -0.4016  0.2464 -0.1337
  369SOL    HW1 1106   2.546   2.673   0.088  0.5892  0.8257  1.1675
  369SOL    HW2 1107   2.575   2.712   3.033  0.4227 -0.2409  1.9896
  370SOL     OW 1108   3.047   2.889   1.604 -0.3688 -0.4732  0.5055
  370SOL    HW1 1109   2.966   2.857   1.660 -0.0139 -0.0426 -1.3388
  370SOL    HW2 1110   3.017   2.904   1.506  2.3754 -1.0750  0.4265
  371SOL     OW 1111   0.825   1.768   2.629  0.7677  0.1296  0.4176
  371SOL    HW1 1112   0.755   1.814   2.687 -1.4307 -1.8475 -0.0287
  371SOL    HW2 1113   0.860   1.838   2.566 -1.9572  0.6892 -0.4421
  372SOL     OW 1114   0.899   1.093   0.307 -0.3262  0.2507 -0.6932
  372SOL    HW1 1115   0.879   1.017   0.370  0.8176 -2.8160  1.8585
  372SOL    HW2 1116   0.894   1.063   0.209  0.5865 -4.6580 -0.4004
  373SOL     OW 1117   1.545   2.631   3.028  0.0876  0.5405  0.3343
  373SOL    HW1 1118   1.483   2.658   3.101  1.7121 -0.1339  1.0318
  373SOL    HW2 1119   1.525   2.535   2.994  2.7163  0.2282  1.2893
  374SOL     OW 1120   0.257   1.983   0.260  0.3646 -0.0245  0.1085
  374SOL    HW1 1121   0.299   2.073   0.224 -0.6049  1.5437  0.6311
  374SOL    HW2 1122   0.156   1.991   0.239 -1.3776  0.5843 -0.3099
  375SOL     OW 1123   0.911   1.521   1.689  0.2224 -0.2896  0.1086
  375SOL    HW1 1124   0.864   1.611   1.691  1.0288 -1.5574  0.3202
  375SOL    HW2 1125   0.944   1.502   1.593  0.2538 -2.9673  1.4756
  376SOL     OW 1126   0.741   2.259   1.546 -0.2679 -0.1805  0.4227
  376SOL    HW1 1127   0.687   2.330   1.501 -0.3959  1.2171 -1.0100
  376SOL    HW2 1128   0.833   2.296   1.565  0.4247  1.6889  0.1905
  377SOL     OW 1129   2.306   1.460   2.264  0.0634 -0.3983 -0.5665
  377SOL    HW1 1130   2.266   1.396   2.197 -1.0811  0.9423  0.0893
  377SOL    HW2 1131   2.410   1.445   2.276  0.0273  0.2020  0.8207
  378SOL     OW 1132   0.917   2.891   2.918  0.3047  0.2189 -0.8836
  378SOL    HW1 1133   0.908   2.790   2.939  0.8495 -0.7313 -0.0492
  378SOL    HW2 1134   0.952   2.934   3.006 -0.0408 -0.5279  0.6099
  379SOL     OW 1135   1.786   0.487   0.691  0.0074  0.1715 -0.1326
  379SOL    HW1 1136   1.689   0.463   0.715  5.2841  3.2593 -1.5300
  379SOL    HW2 1137   1.831   0.417   0.626  0.4728  2.1394  0.3716
  380SOL     OW 1138   3.052   1.991   1.480  0.2840  0.6719 -0.0382
  380SOL    HW1 1139   2.996   2.001   1.566 -0.3021  1.5236 -0.2256
  380SOL    HW2 1140   3.036   2.066   1.412  1.6277 -0.4118  0.2734
  381SOL     OW 1141   1.867   1.862   1.687  0.0067 -0.5814 -0.2046
  381SOL    HW1 1142   1.861   1.955   1.638 -3.0445  0.5475 -3.1836
  381SOL    HW2 1143   1.816   1.787   1.639 -0.6333  0.7709 -2.3729
  382SOL     OW 1144   2.921   0.448   2.708  0.3861  0.0854 -0.0257
  382SOL    HW1 1145   2.976   0.363   2.729  1.0612 -1.8830  3.2115
  382SOL    HW2 1146   2.911   0.451   2.606  0.1175 -0.1417 -2.7635
  383SOL     OW 1147   1.813   1.249   2.746 -0.1140 -0.5610  0.5121
  383SOL    HW1 1148   1.725   1.244   2.694 -1.5202 -0.4511  2.2815
  383SOL    HW2 1149   1.885   1.309   2.702 -1.8223 -0.4501  1.3420
  384SOL     OW 1150   1.103   2.243   1.007  0.9206  0.6327  0.5697
  384SOL    HW1 1151   1.049   2.325   0.980 -0.2231  1.4832 -0.3382
  384SOL    HW2 1152   1.047   2.182   1.066  0.6318 -2.5254  0.7917
  385SOL     OW 1153   1.859   2.189   0.706 -0.1225 -0.2143  0.3509
  385SOL    HW1 1154   1.807   2.233   0.634  0.6179 -0.3537  3.3165
  385SOL    HW2 1155   1.844   2.091   0.705  0.1784  0.4049 -0.0265
  386SOL     OW 1156   2.110   1.895   0.995  0.5085 -0.5544 -0.2809
  386SOL    HW1 1157   2.099   1.993   0.958 -1.6639  1.3057  1.1684
  386SOL    HW2 1158   2.189   1.896   1.056 -1.5413  2.0395  1.6790
  387SOL     OW 1159   0.376   2.311   1.472 -0.4926  0.1296 -0.3007
  387SOL    HW1 1160   0.290   2.291   1.418 -1.6914 -1.3835  0.1057
  387SOL    HW2 1161   0.390   2.243   1.544 -4.2318  1.0146  0.2591
  388SOL     OW 1162   3.077   0.669   1.830  0.4100 -0.4459  0.1221
  388SOL    HW1 1163   2.997   0.605   1.817 -3.3125  0.4641 -2.8451
  388SOL    HW2 1164   0.008   0.662   1.929  0.3524  1.2776  1.3845
  389SOL     OW 1165   1.744   1.148   0.847 -0.0434  0.1099 -0.1513
  389SOL    HW1 1166   1.760   1.224   0.912 -0.8411  0.3294 -0.2541
  389SOL    HW2 1167   1.649   1.144   0.809  2.6228 -2.0685 -1.0988
  390SOL     OW 1168   1.006   2.190   2.480  0.2447  0.5643  0.1429
  390SOL    HW1 1169   0.921   2.244   2.492 -3.2780  0.5303  1.2111
  390SOL    HW2 1170   1.088   2.247   2.472 -0.0092 -0.0251 -1.2983
  391SOL     OW 1171   0.988   2.071   2.809 -0.1716  0.1307  0.4235
  391SOL    HW1 1172   0.902   2.037   2.854 -2.9698  1.8590 -1.4099
  391SOL    HW2 1173   0.974   2.083   2.713 -0.9933  1.3025  0.1774
  392SOL     OW 1174   2.826   2.795   2.166 -0.2174 -0.2209  0.7203
  392SOL    HW1 1175   2.739   2.746   2.167  1.3183 -1.2092 -0.7083
  392SOL    HW2 1176   2.826   2.860   2.087  0.8010 -1.4863 -2.9584
  393SOL     OW 1177   2.083   2.695   0.435  0.2108  0.2026  0.7791
  393SOL    HW1 1178   1.980   2.683   0.435 -0.8809  0.6270 -0.8072
  393SOL    HW2 1179   2.118   2.628   0.506  0.7708  0.9371 -0.3037
  394SOL     OW 1180   0.702   0.665   2.364  0.6374  0.3001 -0.0439
  394SOL    HW1 1181   0.631   0.739   2.385 -2.7916  3.9310  2.5213
  394SOL    HW2 1182   0.682   0.614   2.282  2.5044  2.7509 -0.6502
  395SOL     OW 1183   0.574   1.099   1.302 -0.3001  0.4420  0.0996
  395SOL    HW1 1184   0.567   1.022   1.363 -2.6643 -0.5088 -0.0604
  395SOL    HW2 1185   0.658   1.151   1.324  1.4023  2.1313  0.7679
  396SOL     OW 1186   1.437   1.449   2.171  0.3236  0.3641 -0.1250
  396SOL    HW1 1187   1.429   1.349   2.178  0.4451  0.6311 -0.5727
  396SOL    HW2 1188   1.484   1.493   2.249  0.9338 -0.3269  1.9384
  397SOL     OW 1189   0.818   0.618   2.872  0.3472  0.2942  0.1706
  397SOL    HW1 1190   0.747   0.590   2.936  0.8627  0.9941 -2.4839
  397SOL    HW2 1191   0.798   0.590   2.777  1.9759 -0.3690 -1.2468
  398SOL     OW 1192   0.327   1.950   2.619  0.5733 -0.0598  0.8133
  398SOL    HW1 1193   0.367   2.036   2.660 -1.2193  2.5615  1.6921
  398SOL    HW2 1194   0.319   1.965   2.518  0.1486 -0.1802 -1.6828
  399SOL     OW 1195   0.186   1.833   2.248 -0.4077  0.5839 -0.3539
  399SOL    HW1 1196   0.182   1.798   2.341  0.3189  1.8217 -1.9297
  399SOL    HW2 1197   0.152   1.765   2.182  0.8373 -0.7403  0.7141
  400SOL     OW 1198   2.682   0.735   1.589 -0.0753  0.2631 -0.6521
  400SOL    HW1 1199   2.621   0.799   1.542  2.8777  1.3824 -0.4302
  400SOL    HW2 1200   2.770   0.783   1.627  2.5160  0.4604  1.0445
  401SOL     OW 1201   1.005   1.583   0.391  0.2794  0.0753 -0.3597
  401SOL    HW1 1202   1.045   1.678   0.381  0.2635  0.7181 -0.9617
  401SOL    HW2 1203   1.061   1.515   0.441  0.6791 -2.7480 -2.9785
  402SOL     OW 1204   0.072   2.431   2.232 -0.0086  0.4689 -0.0844
  402SOL    HW1 1205   0.051   2.522   2.190 -1.7823 -2.4321  3.0505
  402SOL    HW2 1206   0.126   2.379   2.159 -0.3904 -0.3953  2.2748
  403SOL     OW 1207   0.445   1.517   2.182  0.0333 -0.5569 -0.4378
  403SOL    HW1 1208   0.410   1.561   2.266 -2.6866  0.4329  1.6030
  403SOL    HW2 1209   0.504   1.575   2.124 -2.1865  0.8832  2.3491
  404SOL     OW 1210   1.817   2.114   1.547 -0.2247 -0.5135 -0.5481
  404SOL    HW1 1211   1.726   2.134   1.582  1.0216  2.8165  1.6659
  404SOL    HW2 1212   1.824   2.130   1.447 -0.7865  0.8296  2.3419
  405SOL     OW 1213   2.923   2.612   2.846  0.5274  0.0559 -0.2806
  405SOL    HW1 1214   2.867   2.576   2.925  5.1540 -0.6537  0.2605
  405SOL    HW2 1215   2.866   2.678   2.794 -3.6450 -2.9842 -1.5537
  406SOL     OW 1216   0.607   1.245   0.008 -0.4467 -0.2392  0.1173
  406SOL    HW1 1217   0.691   1.195   0.034  1.0089  1.3118  0.0400
  406SOL    HW2 1218   0.621   1.348   0.007 -1.2755  0.3358 -0.9766
  407SOL     OW 1219   2.272   2.548   3.020  0.1933  0.2328 -0.0627
  407SOL    HW1 1220   2.318   2.589   2.938 -1.5003 -1.2100 -1.7892
  407SOL    HW2 1221   2.300   2.593   0.004 -1.9785  2.2168 -0.2658
  408SOL     OW 1222   2.916   2.951   0.238  0.2157  0.2282 -0.0740
  408SOL    HW1 1223   2.879   2.872   0.292 -3.1250 -0.6121 -1.0321
  408SOL    HW2 1224   2.883   2.940   0.142  0.0858 -0.3324  0.2890
  409SOL     OW 1225   2.142   1.186   0.816  0.6793 -0.1019 -0.7515
  409SOL    HW1 1226   2.125   1.277   0.855 -1.7841  0.1743 -1.6824
  409SOL    HW2 1227   2.080   1.162   0.738 -0.8359 -1.1071  0.2754
  410SOL     OW 1228   2.959   1.630   0.695 -0.1242  0.0717 -0.3059
  410SOL    HW1 1229   2.967   1.715   0.752 -2.6925  0.5173  1.7554
  410SOL    HW2 1230   3.034   1.625   0.625  3.4472 -0.4779 -1.7234
  411SOL     OW 1231   0.272   1.329   0.867  0.1265  0.2666  0.0199
  411SOL    HW1 1232   0.290   1.429   0.855  1.4795  1.5523  1.9595
  411SOL    HW2 1233   0.325   1.295   0.942 -1.2450  2.3524 -0.7209
  412SOL     OW 1234   2.354   2.317   0.625 -0.0039  0.7536 -0.2465
  412SOL    HW1 1235   2.388   2.386   0.556 -0.8821  0.9269 -0.0383
  412SOL    HW2 1236   2.263   2.278   0.585  0.0989  0.3189 -4.8982
  413SOL     OW 1237   1.799   1.090   2.488  0.0942 -0.1664 -0.0140
  413SOL    HW1 1238   1.817   1.039   2.402 -2.1886  0.1502  0.1219
  413SOL    HW2 1239   1.700   1.084   2.517 -2.4404 -3.0239 -0.8762
  414SOL     OW 1240   2.852   0.076   0.377 -0.0726  0.1538 -0.5037
  414SOL    HW1 1241   2.868   3.097   0.321 -0.5585 -0.6419 -1.1685
  414SOL    HW2 1242   2.937   0.089   0.435  2.6118  0.8530  0.7021
  415SOL     OW 1243   0.930   2.094   1.172 -0.0709  0.6526 -0.1134
  415SOL    HW1 1244   0.916   2.106   1.273  1.0213 -0.6081  0.9567
  415SOL    HW2 1245   0.848   2.043   1.145  0.8621  1.3869 -0.1972
  416SOL     OW 1246   0.224   2.770   2.677 -0.1192  0.0598  0.1224
  416SOL    HW1 1247   0.202   2.800   2.582 -0.0041  2.2511 -1.7027
  416SOL    HW2 1248   0.166   2.685   2.693  0.0034 -3.0555  0.0220
  417SOL     OW 1249   2.917   0.706   1.256  0.0245 -0.5523 -0.1228
  417SOL    HW1 1250   2.972   0.700   1.171 -0.0345 -0.2043  0.2805
  417SOL    HW2 1251   2.977   0.689   1.338 -1.4938  0.6770 -0.0491
  418SOL     OW 1252   3.078   0.193   0.036 -0.2121 -0.1131 -0.2540
  418SOL    HW1 1253   0.016   0.119   0.094 -0.3864 -0.3616  0.1603
  418SOL    HW2 1254   0.009   0.189   3.041  0.2667  4.9570 -2.7604
  419SOL     OW 1255   0.164   1.484   1.653  0.3901 -0.0759  0.0792
  419SOL    HW1 1256   0.071   1.464   1.614  0.2784 -2.9869  1.0714
  419SOL    HW2 1257   0.235   1.448   1.593  0.6014 -0.3348  1.3048
  420SOL     OW 1258   0.496   1.533   0.309  0.0490  0.1108  0.2510
  420SOL    HW1 1259   0.467   1.618   0.268  0.0983 -3.7165  1.3668
  420SOL    HW2 1260   0.591   1.525   0.340  0.5450 -0.3731 -0.3543
  421SOL     OW 1261   2.153   2.518   2.568 -0.3458 -0.3919  0.1838
  421SOL    HW1 1262   2.063   2.561   2.534 -2.1459  0.2554 -2.1164
  421SOL    HW2 1263   2.217   2.501   2.493  0.6126 -0.7772 -1.8093
  422SOL     OW 1264   3.013   0.756   2.778 -0.0116  0.0140 -0.1955
  422SOL    HW1 1265   3.065   0.751   2.688  0.4833  2.0986  0.4384
  422SOL    HW2 1266   2.965   0.667   2.790  1.4666 -3.5622 -1.9419
  423SOL     OW 1267   1.260   2.242   0.427 -0.2316 -0.1412 -0.3576
  423SOL    HW1 1268   1.249   2.276   0.521  1.9982 -1.3698  1.0679
  423SOL    HW2 1269   1.169   2.206   0.393 -1.2035  2.5402 -0.4243
  424SOL     OW 1270   0.675   1.851   1.404 -0.3002 -0.1635 -0.0972
  424SOL    HW1 1271   0.751   1.919   1.405 -0.5703  0.8720 -1.0776
  424SOL    HW2 1272   0.722   1.764   1.382  1.2908  1.1920 -3.4026
  425SOL     OW 1273   2.802   2.595   2.507  0.1863  0.8683  0.1830
  425SOL    HW1 1274   2.823   2.564   2.414  0.3756 -1.3397 -0.1001
  425SOL    HW2 1275   2.805   2.514   2.571  0.7446  2.0014  0.0027
  426SOL     OW 1276   1.621   0.506   1.021 -0.1574 -0.9877 -0.1697
  426SOL    HW1 1277   1.713   0.469   1.037  0.2131  0.9754  0.5438
  426SOL    HW2 1278   1.585   0.474   0.937 -1.7362 -0.0896  1.5022
  427SOL     OW 1279   0.194   1.486   0.011 -0.2924 -0.1683 -0.4898
  427SOL    HW1 1280   0.218   1.567   0.069  0.4689 -1.8774  0.5189
  427SOL    HW2 1281   0.144   1.409   0.066  1.1264 -0.2173  0.5136
  428SOL     OW 1282   1.246   1.199   0.023  0.2270  0.0146  0.2559
  428SOL    HW1 1283   1.222   1.102   0.050  1.3937 -1.0635  0.4357
  428SOL    HW2 1284   1.253   1.215   3.026  0.2727 -1.2009 -2.4865
  429SOL     OW 1285   2.795   2.687   0.644 -0.1285  0.1878  0.6611
  429SOL    HW1 1286   2.737   2.727   0.719 -0.8591  0.3849  1.6579
  429SOL    HW2 1287   2.755   2.719   0.554  0.2646  1.5554 -1.8907
  430SOL     OW 1288   0.588   2.419   2.350 -0.1530  0.6308  0.4584
  430SOL    HW1 1289   0.521   2.408   2.426 -0.0690 -1.8672 -0.1762
  430SOL    HW2 1290   0.553   2.369   2.270  0.8506  3.5298 -0.3150
  431SOL     OW 1291   2.817   1.304   0.431 -0.0617  0.4646  0.2292
  431SOL    HW1 1292   2.900   1.357   0.445  1.4892 -3.2824 -2.3242
  431SOL    HW2 1293   2.826   1.202   0.450 -2.5547  0.8102 -2.6608
  432SOL     OW 1294   1.926   2.648   2.410 -0.1780 -0.5160  0.3560
  432SOL    HW1 1295   1.898   2.716   2.338 -2.1570  2.2837 -2.7106
  432SOL    HW2 1296   1.880   2.668   2.501 -2.0506 -0.7745  3.5469
  433SOL     OW 1297   1.480   2.687   0.644  0.0984 -0.2407  0.6530
  433SOL    HW1 1298   1.472   2.787   0.655 -0.5034  0.9835  0.1328
  433SOL    HW2 1299   1.516   2.641   0.725  0.6477 -0.5858 -1.9678
  434SOL     OW 1300   1.176   1.827   2.090  0.2785  0.2121 -0.0954
  434SOL    HW1 1301   1.098   1.768   2.048 -2.0299 -0.6315 -2.7050
  434SOL    HW2 1302   1.189   1.817   2.190 -3.2484 -0.9998 -2.2840
  435SOL     OW 1303   2.748   0.722   0.079 -0.4198 -0.0132  0.4471
  435SOL    HW1 1304   2.807   0.782   0.022 -0.2762 -0.8942 -0.4173
  435SOL    HW2 1305   2.668   0.778   0.111  0.2390  2.0883  0.2854
  436SOL     OW 1306   0.240   2.716   2.175  0.4446  0.2365 -0.1012
  436SOL    HW1 1307   0.213   2.740   2.081 -1.8857  0.2458 -0.5426
  436SOL    HW2 1308   0.323   2.657   2.169  1.1184 -0.6545 -0.2581
  437SOL     OW 1309   1.971   2.924   1.514 -0.0859 -0.3031 -0.4887
  437SOL    HW1 1310   2.022   2.841   1.485  0.9489  2.4168  2.7110
  437SOL    HW2 1311   2.019   3.014   1.495  0.6117 -1.2319  1.4413
  438SOL     OW 1312   0.222   1.826   0.701 -0.2337  0.1730 -0.9037
  438SOL    HW1 1313   0.211   1.889   0.783 -0.3198  0.4211  1.0316
  438SOL    HW2 1314   0.257   1.740   0.735 -0.9179  0.2239 -0.7130
  439SOL     OW 1315   0.372   0.274   1.150  0.2268  0.3527  0.2671
  439SOL    HW1 1316   0.449   0.221   1.116 -0.3335  0.2900  1.2929
  439SOL    HW2 1317   0.291   0.244   1.104  2.7400  1.3389  2.2375
  440SOL     OW 1318   2.973   2.796   2.417 -0.5980  0.0410 -0.1607
  440SOL    HW1 1319   2.930   2.712   2.460 -2.0112 -1.6487  0.2733
  440SOL    HW2 1320   2.945   2.810   2.318  0.6638  0.2448 -4.2606
  441SOL     OW 1321   0.115   0.902   0.277 -0.6185  0.0425 -0.2528
  441SOL    HW1 1322   0.203   0.855   0.291  0.5530  1.2417 -1.6318
  441SOL    HW2 1323   0.036   0.839   0.282 -1.7335  0.9008 -0.2864
  442SOL     OW 1324   1.469   2.379   2.189 -0.1595  0.0479  0.0711
  442SOL    HW1 1325   1.400   2.313   2.151 -3.1873 -1.4941 -1.5003
  442SOL    HW2 1326   1.541   2.326   2.239  1.4957  3.4373 -0.0544
  443SOL     OW 1327   0.613   3.047   3.083  0.1570 -0.4204  0.2229
  443SOL    HW1 1328   0.656   3.069   2.994  2.5887  2.1767 -0.6437
  443SOL    HW2 1329   0.694   3.018   0.039  2.7137 -2.3921  0.4589
  444SOL     OW 1330   1.288   2.030   2.559 -0.3715  0.0823  0.4787
  444SOL    HW1 1331   1.269   2.044   2.458  1.4921 -0.6336 -0.9086
  444SOL    HW2 1332   1.205   1.992   2.603  0.6065  1.3575 -0.5022
  445SOL     OW 1333   0.374   0.443   0.650  0.4555 -0.6716  0.0413
  445SOL    HW1 1334   0.328   0.354   0.652 -1.1560  0.8379 -3.4848
  445SOL    HW2 1335   0.349   0.486   0.561  0.9229 -3.0154  1.4848
  446SOL     OW 1336   1.604   0.872   0.678  0.2709 -0.2571 -0.1350
  446SOL    HW1 1337   1.540   0.794   0.662 -1.0103  2.6534  1.2340
  446SOL    HW2 1338   1.604   0.901   0.775 -1.2382  1.1411  0.5462
  447SOL     OW 1339   2.741   0.952   0.260  0.0995  0.5340  0.1349
  447SOL    HW1 1340   2.757   0.976   0.359 -0.4772 -2.4951  2.8886
  447SOL    HW2 1341   2.827   0.932   0.219 -2.0205  1.4787  1.8667
  448SOL     OW 1342   2.054   1.933   1.374 -0.3936 -0.0336  0.1446
  448SOL    HW1 1343   2.098   1.916   1.468  1.1177 -0.4086  0.2037
  448SOL    HW2 1344   2.081   2.022   1.331 -1.0324  0.4743 -0.1063
  449SOL     OW 1345   0.910   1.502   3.089  0.5137 -0.1488  0.1781
  449SOL    HW1 1346   0.975   1.510   3.013 -0.1556 -1.9182  3.2353
  449SOL    HW2 1347   0.947   1.439   0.055 -2.9286  0.7832 -0.7190
  450SOL     OW 1348   2.282   2.897   2.512  0.3507 -0.2249 -0.3460
  450SOL    HW1 1349   2.232   2.850   2.587  1.5099 -0.9313  2.7478
  450SOL    HW2 1350   2.234   2.898   2.423  2.8423  3.5073  0.2622
  451SOL     OW 1351   2.260   0.927   2.598 -0.6913  0.3054 -0.4955
  451SOL    HW1 1352   2.169   0.977   2.618 -1.8591 -0.1181 -1.1670
  451SOL    HW2 1353   2.327   0.994   2.557  1.9997  1.5367 -0.2851
  452SOL     OW 1354   1.724   1.086   1.248  0.1620 -0.6991 -0.4756
  452SOL    HW1 1355   1.629   1.048   1.244  2.3686  0.6845  1.5433
  452SOL    HW2 1356   1.794   1.014   1.270  1.3377 -0.2722  1.3943
  453SOL     OW 1357   1.917   0.564   1.698  0.1612  0.0965  0.3358
  453SOL    HW1 1358   1.831   0.508   1.718 -1.6968 -1.1003  0.6227
  453SOL    HW2 1359   1.901   0.664   1.710  1.0945 -0.3086  0.8209
  454SOL     OW 1360   2.962   1.041   2.770 -0.2153 -0.5109  0.0130
  454SOL    HW1 1361   3.007   0.949   2.751  1.7643 -0.2987 -2.4435
  454SOL    HW2 1362   2.960   1.094   2.684  0.9823 -3.8141 -1.0782
  455SOL     OW 1363   2.911   1.597   1.413 -0.4369 -0.1866  0.1819
  455SOL    HW1 1364   2.990   1.659   1.442 -0.3154 -0.9000 -0.5447
  455SOL    HW2 1365   2.936   1.502   1.428 -2.0851  0.2645  1.7209
  456SOL     OW 1366   1.450   2.664   1.577  0.0676  0.0194 -0.0766
  456SOL    HW1 1367   1.506   2.628   1.656 -0.0442 -2.7801  0.4722
  456SOL    HW2 1368   1.469   2.763   1.560 -2.3463  2.5014  0.4535
  457SOL     OW 1369   1.512   2.895   0.977  0.4806  0.0207 -0.0913
  457SOL    HW1 1370   1.538   2.800   0.982  1.2705 -0.1033 -2.5097
  457SOL    HW2 1371   1.557   2.956   1.046 -3.0201  3.9659 -0.4621
  458SOL     OW 1372   2.827   2.940   0.895 -0.0549  0.2553  0.2750
  458SOL    HW1 1373   2.736   2.908   0.860 -1.8655  1.0609 -0.2712
  458SOL    HW2 1374   2.822   3.041   0.900 -1.5660  0.3387  0.9180
  459SOL     OW 1375   1.635   1.081   0.497  0.4083 -0.0618 -0.1292
  459SOL    HW1 1376   1.657   1.055   0.403  0.9644 -1.3672  0.2366
  459SOL    HW2 1377   1.624   0.994   0.555  3.2236 -2.6777  1.1700
  460SOL     OW 1378   0.502   2.678   2.256  0.1869  0.7145  0.3240
  460SOL    HW1 1379   0.514   2.588   2.301  0.7157 -1.7664  1.5123
  460SOL    HW2 1380   0.437   2.728   2.317 -0.9305  1.5965 -2.0353
  461SOL     OW 1381   0.148   1.569   0.342  0.1068  0.0525  0.6292
  461SOL    HW1 1382   0.185   1.472   0.359  2.1292 -3.4327 -2.1496
  461SOL    HW2 1383   0.216   1.621   0.287 -1.3420 -1.5796  1.8690
  462SOL     OW 1384   1.805   2.127   0.305  0.0950 -0.0808  0.4981
  462SOL    HW1 1385   1.880   2.188   0.282  0.0543 -0.1942 -1.0945
  462SOL    HW2 1386   1.769   2.079   0.220  0.1536 -2.1438 -0.2688
  463SOL     OW 1387   2.666   0.484   0.465  0.0895  0.0496  0.1188
  463SOL    HW1 1388   2.619   0.560   0.417  0.8430  1.0023 -0.2467
  463SOL    HW2 1389   2.655   0.399   0.412  0.4322  0.8555 -0.9861
  464SOL     OW 1390   0.760   2.224   0.312 -0.5901  0.7837 -0.4606
  464SOL    HW1 1391   0.749   2.230   0.208  1.5805 -0.3469 -4.0718
  464SOL    HW2 1392   0.694   2.159   0.361 -1.8549 -1.9977  2.5555
  465SOL     OW 1393   2.299   0.366   1.234 -0.0172  0.5972 -0.0416
  465SOL    HW1 1394   2.257   0.277   1.209  2.1899 -0.3586  0.1156
  465SOL    HW2 1395   2.273   0.446   1.182  0.8276  1.6152 -1.3245
  466SOL     OW 1396   2.108   0.235   0.595  0.3569  0.2351 -0.1628
  466SOL    HW1 1397   2.120   0.178   0.510 -0.6610 -0.5759 -3.5915
  466SOL    HW2 1398   2.193   0.278   0.627 -1.8789  0.4254  0.9059
  467SOL     OW 1399   0.857   0.576   2.057 -0.2811  0.1704  0.7617
  467SOL    HW1 1400   0.879   0.671   2.090  4.5355 -0.2122 -3.8476
  467SOL    HW2 1401   0.894   0.501   2.113 -0.3585  1.4026 -0.6686
  468SOL     OW 1402   2.605   0.391   2.106 -0.4294 -0.5812  0.1421
  468SOL    HW1 1403   2.573   0.423   2.015  1.2035  2.5433 -1.0195
  468SOL    HW2 1404   2.701   0.413   2.127 -1.0179  0.5365 -1.9311
  469SOL     OW 1405   1.062   2.759   1.811  0.3879 -0.6379 -0.5342
  469SOL    HW1 1406   1.101   2.714   1.727  2.4347  1.0082 -3.9427
  469SOL    HW2 1407   0.978   2.816   1.789  2.4727 -1.2220  1.2011
  470SOL     OW 1408   2.433   1.021   1.708 -0.6279 -0.2687 -0.3490
  470SOL    HW1 1409   2.517   0.964   1.728 -0.1469 -1.5672 -1.4916
  470SOL    HW2 1410   2.405   1.069   1.792 -0.8621 -1.7487 -0.4718
  471SOL     OW 1411   2.872   1.647   3.021 -0.4201 -0.0239 -0.2459
  471SOL    HW1 1412   2.971   1.649   3.005 -1.9513  1.2393  0.8450
  471SOL    HW2 1413   2.847   1.722   3.085  1.2406 -2.6837  1.1142
  472SOL     OW 1414   0.406   2.196   0.511  0.0146  0.1223 -0.1797
  472SOL    HW1 1415   0.485   2.134   0.511  0.3799  1.1662  0.3898
  472SOL    HW2 1416   0.437   2.289   0.483 -1.0516  2.5725  0.6123
  473SOL     OW 1417   1.020   2.330   1.923  0.4093  0.4648 -0.4366
  473SOL    HW1 1418   0.933   2.362   1.964 -2.3339 -0.0106  1.0911
  473SOL    HW2 1419   1.038   2.239   1.969  0.0099 -0.3189  2.3228
  474SOL     OW 1420   0.976   2.911   2.551 -0.6224  0.3495  0.4986
  474SOL    HW1 1421   0.935   2.821   2.543  1.4697  5.4778  1.6071
  474SOL    HW2 1422   1.053   2.904   2.621  1.9948  2.8615  1.6717
  475SOL     OW 1423   0.660   2.011   0.027 -0.1069 -0.3445 -0.3311
  475SOL    HW1 1424   0.747   1.963   0.012  1.7831 -0.7587 -1.2417
  475SOL    HW2 1425   0.583   1.944   0.015  1.6349  0.5878  2.2095
  476SOL     OW 1426   1.055   0.731   1.145  0.1049  0.1023  0.1489
  476SOL    HW1 1427   1.062   0.703   1.048 -0.0070 -1.3086  0.7130
  476SOL    HW2 1428   0.960   0.722   1.183  0.5585  1.2225  0.9209
  477SOL     OW 1429   2.138   2.196   1.304  0.0667  0.4646  0.1603
  477SOL    HW1 1430   2.243   2.212   1.309  0.0198  1.9275 -1.2692
  477SOL    HW2 1431   2.085   2.282   1.299  0.5765  0.1989  3.2094
  478SOL     OW 1432   0.054   0.731   3.021  0.3370  0.1015 -0.0068
  478SOL    HW1 1433   0.012   0.701   2.936  1.9059  2.4959 -0.5331
  478SOL    HW2 1434   0.053   0.656   3.093 -0.2465  0.5751 -0.4145
  479SOL     OW 1435   0.988   0.027   1.460  0.2710  0.3772 -0.1152
  479SOL    HW1 1436   1.056   0.078   1.519  0.4647 -0.4840 -0.5204
  479SOL    HW2 1437   0.985   3.032   1.477 -0.3710  0.2898  0.4601
  480SOL     OW 1438   2.634   2.357   0.323  0.3758 -0.5362 -0.2446
  480SOL    HW1 1439   2.637   2.283   0.251  1.1048  0.8547 -2.0156
  480SOL    HW2 1440   2.688   2.338   0.410  1.8300  0.1578  1.8398
  481SOL     OW 1441   0.186   0.675   1.625  0.3068  0.1726 -0.2915
  481SOL    HW1 1442   0.195   0.776   1.610 -1.4750 -0.4405  1.1527
  481SOL    HW2 1443   0.116   0.660   1.697 -0.6291 -0.1821  4.0629
  482SOL     OW 1444   1.112   3.026   1.110 -0.2009  0.5931  0.1263
  482SOL    HW1 1445   1.033   3.099   1.122 -1.1083 -0.1565 -0.4314
  482SOL    HW2 1446   1.062   2.937   1.136 -2.3756  1.5302 -0.5577
  483SOL     OW 1447   0.052   1.571   2.694 -0.2940 -0.1817 -0.3350
  483SOL    HW1 1448   0.070   1.471   2.698  2.0026 -1.1599  0.9546
  483SOL    HW2 1449   3.075   1.592   2.746 -1.5187 -0.8058  0.7388
  484SOL     OW 1450   1.590   1.623   2.010 -0.1321 -0.1405 -0.6234
  484SOL    HW1 1451   1.538   1.710   1.989  1.4436 -1.6374  0.9555
  484SOL    HW2 1452   1.531   1.552   2.060  0.1365  0.7594 -2.8877
  485SOL     OW 1453   0.287   3.037   2.307 -0.4048  0.2638 -0.1050
  485SOL    HW1 1454   0.231   3.036   2.393 -0.9798 -0.6345 -0.4177
  485SOL    HW2 1455   0.383   3.021   2.328 -0.0273  1.7090 -0.8725
  486SOL     OW 1456   1.204   2.944   0.641  0.1140  0.1378  0.0418
  486SOL    HW1 1457   1.233   2.930   0.739  1.4073  1.4755  1.8715
  486SOL    HW2 1458   1.269   3.011   0.599  2.0704  0.8356 -0.6042
  487SOL     OW 1459   1.567   0.209   0.933  0.1316 -0.1765 -0.5183
  487SOL    HW1 1460   1.645   0.180   0.881  0.2935 -0.9420  1.1434
  487SOL    HW2 1461   1.589   0.196   1.032 -0.1717  1.1313 -1.5394
  488SOL     OW 1462   2.254   0.803   1.010  0.2501  0.4970 -0.0642
  488SOL    HW1 1463   2.255   0.895   0.974  0.3422 -0.6606 -0.8526
  488SOL    HW2 1464   2.171   0.749   1.001  1.0473 -1.2398 -2.5178
  489SOL     OW 1465   1.272   0.170   1.431  0.5539  0.5857  0.1747
  489SOL    HW1 1466   1.246   0.097   1.361 -1.3379 -0.6608 -3.5807
  489SOL    HW2 1467   1.342   0.233   1.393  2.9206  3.9655  0.4674
  490SOL     OW 1468   0.581   0.581   3.010 -0.0856  0.1876 -0.3573
  490SOL    HW1 1469   0.576   0.487   3.049 -1.6385 -0.0996  1.1732
  490SOL    HW2 1470   0.498   0.629   3.030  1.3932 -1.3515 -2.3970
  491SOL     OW 1471   0.885   2.776   0.306 -0.3641  0.0946  0.0292
  491SOL    HW1 1472   0.960   2.775   0.376  1.3953 -0.9630  1.0408
  491SOL    HW2 1473   0.863   2.680   0.279  0.3187  2.4902 -1.5267
  492SOL     OW 1474   1.187   1.619   1.559 -0.1884  0.2145  0.1382
  492SOL    HW1 1475   1.243   1.698   1.594 -0.4407 -2.0078  2.9505
  492SOL    HW2 1476   1.223   1.530   1.600 -1.2384 -0.8684  1.6000
  493SOL     OW 1477   0.333   1.724   0.163  0.2227 -0.1285  0.3967
  493SOL    HW1 1478   0.296   1.799   0.223 -2.4098 -0.3778  2.5005
  493SOL    HW2 1479   0.399   1.764   0.093  1.3996  0.4509 -0.4380
  494SOL     OW 1480   1.986   1.972   0.517  0.1080 -0.4208  0.0999
  494SOL    HW1 1481   2.070   1.922   0.492 -3.3946  1.0949  0.3284
  494SOL    HW2 1482   1.938   1.998   0.434  1.7177  1.0185  0.3020
  495SOL     OW 1483   0.325   1.532   2.428  0.5239 -0.4271 -0.7412
  495SOL    HW1 1484   0.339   1.489   2.518 -1.5620 -0.5812  0.9021
  495SOL    HW2 1485   0.260   1.606   2.440 -1.6192 -2.5335  1.8262
  496SOL     OW 1486   0.551   3.004   2.377  0.0873  0.0036 -0.2007
  496SOL    HW1 1487   0.541   3.094   2.429 -1.0481  0.2036 -1.0732
  496SOL    HW2 1488   0.636   3.000   2.319 -3.1152  0.6106 -1.2318
  497SOL     OW 1489   1.509   1.168   0.717  0.2110  0.3510  0.0841
  497SOL    HW1 1490   1.544   1.130   0.631  0.2871 -1.1833  0.8884
  497SOL    HW2 1491   1.476   1.265   0.714  0.2351 -0.7841  0.7991
  498SOL     OW 1492   2.820   2.741   0.363 -0.0653 -0.1066  0.4285
  498SOL    HW1 1493   2.876   2.682   0.303  0.1797 -2.6456  0.6264
  498SOL    HW2 1494   2.724   2.707   0.365 -0.1790 -3.3449 -1.4799
  499SOL     OW 1495   2.098   2.522   0.653 -0.4678  0.5105 -0.0180
  499SOL    HW1 1496   2.077   2.424   0.645 -1.9849  1.2934  1.9818
  499SOL    HW2 1497   2.150   2.541   0.736  0.7762  0.8016 -0.7858
  500SOL     OW 1498   0.466   0.613   2.643  0.1746 -0.5843  0.4646
  500SOL    HW1 1499   0.458   0.688   2.715 -0.1329 -0.0442  2.8879
  500SOL    HW2 1500   0.560   0.571   2.648  0.3004 -0.2073 -1.8304
  501SOL     OW 1501   1.617   2.676   1.811  0.8245 -0.2206 -0.1046
  501SOL    HW1 1502   1.704   2.730   1.822 -2.2541  2.8795  1.8947
  501SOL    HW2 1503   1.548   2.695   1.884  1.2940 -2.0004 -2.2584
  502SOL     OW 1504   0.160   0.006   2.531  0.0294 -0.2482  0.5040
  502SOL    HW1 1505   0.072   3.066   2.542  1.1617  2.0717  1.8227
  502SOL    HW2 1506   0.232   3.084   2.603  1.7917  1.2460 -2.6817
  503SOL     OW 1507   1.981   2.376   2.294  0.2099 -0.6523  0.4305
  503SOL    HW1 1508   1.984   2.389   2.194 -2.5528 -0.6810  3.4982
  503SOL    HW2 1509   1.978   2.467   2.344 -0.2144 -0.4736  0.0906
  504SOL     OW 1510   2.069   0.054   1.768  0.8568  0.4088  0.1720
  504SOL    HW1 1511   1.991   0.119   1.775  1.4563  2.0136  1.4348
  504SOL    HW2 1512   2.115   0.061   1.676  0.3953  2.0172  1.8132
  505SOL     OW 1513   2.414   1.686   1.532 -0.1921  0.6860 -0.0367
  505SOL    HW1 1514   2.513   1.653   1.535  1.2709 -1.2123 -4.7434
  505SOL    HW2 1515   2.374   1.663   1.445 -1.3094 -0.1390  4.1535
  506SOL     OW 1516   0.135   1.446   1.912  0.1051  0.4817  0.3816
  506SOL    HW1 1517   0.049   1.391   1.920  0.3488  1.3821  5.8624
  506SOL    HW2 1518   0.143   1.472   1.814 -3.1557  0.6373  0.1819
  507SOL     OW 1519   0.490   2.680   1.627  0.1239 -0.5158 -0.2005
  507SOL    HW1 1520   0.546   2.694   1.713  1.9911  2.0342  0.0835
  507SOL    HW2 1521   0.518   2.604   1.569 -0.0480 -0.9506  1.5676
  508SOL     OW 1522   0.799   0.728   1.744  0.2471  0.3504  0.5040
  508SOL    HW1 1523   0.838   0.641   1.781  2.2558 -3.9066  3.8419
  508SOL    HW2 1524   0.710   0.713   1.698  1.1777 -1.0826 -0.7880
  509SOL     OW 1525   1.584   2.407   1.804  0.4562 -0.5371 -0.6384
  509SOL    HW1 1526   1.634   2.496   1.794 -0.0620 -0.1338  0.4114
  509SOL    HW2 1527   1.491   2.433   1.829  1.4888 -1.0061 -1.0049
  510SOL     OW 1528   2.617   1.214   2.652  0.0102  0.0677  0.0318
  510SOL    HW1 1529   2.647   1.143   2.724 -0.4230 -0.1931  1.0678
  510SOL    HW2 1530   2.522   1.251   2.674 -2.7968 -1.0492  0.3082
  511SOL     OW 1531   0.819   1.198   1.397  0.7387 -0.4641 -0.4438
  511SOL    HW1 1532   0.901   1.207   1.336 -1.6293 -0.8542 -1.9862
  511SOL    HW2 1533   0.844   1.140   1.478 -3.0917 -2.0917  1.2748
  512SOL     OW 1534   2.703   1.634   0.588  0.2148  0.1900 -0.2302
  512SOL    HW1 1535   2.795   1.634   0.627 -1.9475 -0.6671 -0.3963
  512SOL    HW2 1536   2.635   1.678   0.651  1.3702  0.2718  0.0543
  513SOL     OW 1537   0.977   1.921   2.458 -0.3932  0.4298  0.4351
  513SOL    HW1 1538   0.991   2.021   2.457  0.2803  0.5134  0.5403
  513SOL    HW2 1539   1.062   1.876   2.423  0.5631 -0.1729  0.6555
  514SOL     OW 1540   0.096   2.315   1.422  0.6641 -0.2904 -0.0456
  514SOL    HW1 1541   0.007   2.293   1.372  0.4738 -2.1889 -3.9098
  514SOL    HW2 1542   0.101   2.257   1.507  0.5529  2.5857 -0.9640
  515SOL     OW 1543   2.180   1.000   1.599  0.7045  0.3867  0.1909
  515SOL    HW1 1544   2.270   1.028   1.633 -0.9852 -0.8834 -1.3078
  515SOL    HW2 1545   2.119   1.078   1.573  0.2577 -0.6203  2.9423
  516SOL     OW 1546   2.630   3.076   3.040  0.1068  0.6712  0.3549
  516SOL    HW1 1547   2.604   0.057   2.985 -1.4881  2.0237 -0.3464
  516SOL    HW2 1548   2.598   3.084   0.033  0.9146 -1.2173  0.0628
  517SOL     OW 1549   1.128   1.735   2.971  0.3587 -0.1983  0.2173
  517SOL    HW1 1550   1.201   1.808   2.981 -0.8337  2.4267  0.7015
  517SOL    HW2 1551   1.145   1.668   2.890  1.5135 -3.1056 -1.3940
  518SOL     OW 1552   1.488   2.972   1.513  0.4223  0.1449 -0.1764
  518SOL    HW1 1553   1.585   2.990   1.490 -0.5118 -0.0505  0.7129
  518SOL    HW2 1554   1.431   3.000   1.433  2.9424  0.6231  1.4606
  519SOL     OW 1555   2.230   2.572   0.873  0.2363  0.2733 -0.1878
  519SOL    HW1 1556   2.330   2.557   0.871 -1.8081  0.1233 -1.5054
  519SOL    HW2 1557   2.205   2.646   0.939 -1.8958 -0.4260 -0.7684
  520SOL     OW 1558   2.967   2.170   2.022 -0.0063  0.0304 -0.0618
  520SOL    HW1 1559   2.944   2.072   1.998 -0.0292 -0.2225  1.3576
  520SOL    HW2 1560   2.951   2.179   2.123  0.5942  1.5191 -1.9793
  521SOL     OW 1561   2.866   0.900   3.008 -0.5420 -0.1423 -0.1338
  521SOL    HW1 1562   2.925   0.889   2.925 -0.2669 -2.4690  0.8393
  521SOL    HW2 1563   2.917   0.937   3.093  0.9060  3.4227 -1.5145
  522SOL     OW 1564   0.918   0.807   2.491  0.5389  0.3202  0.3621
  522SOL    HW1 1565   0.933   0.909   2.485 -0.1451 -0.8482  0.5458
  522SOL    HW2 1566   0.853   0.768   2.423  1.2065  1.5246  0.2415
  523SOL     OW 1567   0.083   2.408   0.691 -0.1307 -0.2534 -0.7461
  523SOL    HW1 1568   0.142   2.434   0.770 -0.8877 -0.4321  1.0697
  523SOL    HW2 1569   0.105   2.325   0.647 -1.6456  2.3883 -1.7112
  524SOL     OW 1570   1.954   2.578   3.031  0.3231  0.6994 -0.3506
  524SOL    HW1 1571   2.056   2.561   3.022  0.6643 -0.7521 -0.0115
  524SOL    HW2 1572   1.918   2.524   0.009 -3.0546 -0.7004  1.9562
  525SOL     OW 1573   2.574   0.430   1.251  0.1849 -0.9170  0.0530
  525SOL    HW1 1574   2.594   0.523   1.218  1.3390  0.2316  0.3260
  525SOL    HW2 1575   2.471   0.424   1.264 -0.3755 -0.2000  0.6680
  526SOL     OW 1576   1.121   2.738   0.485  0.2198 -0.3608 -0.0880
  526SOL    HW1 1577   1.152   2.810   0.555  1.4478  0.8591 -0.1398
  526SOL    HW2 1578   1.093   2.650   0.532 -2.8744 -0.1570  3.5170
  527SOL     OW 1579   2.178   2.920   0.549 -0.5771  0.4103  0.1317
  527SOL    HW1 1580   2.134   2.833   0.510 -1.4598 -1.4548  1.4179
  527SOL    HW2 1581   2.169   2.996   0.484 -0.8437 -2.6941  0.6955
  528SOL     OW 1582   1.708   0.774   2.911 -0.0140  0.3422  0.0799
  528SOL    HW1 1583   1.749   0.792   2.819 -1.0310 -0.7682 -0.7769
  528SOL    HW2 1584   1.705   0.674   2.926 -0.3363  3.0905 -2.9123
  529SOL     OW 1585   1.544   1.525   2.452  0.2789  0.0894 -0.3786
  529SOL    HW1 1586   1.464   1.587   2.475 -2.5170  1.9483 -0.5622
  529SOL    HW2 1587   1.564   1.464   2.535  1.2356 -0.2347  3.1160
  530SOL     OW 1588   2.557   2.820   2.886  0.3196  0.2218 -0.1873
  530SOL    HW1 1589   2.463   2.850   2.873  3.3122 -0.3300  1.6304
  530SOL    HW2 1590   2.608   2.892   2.932  0.0428  1.5964  1.2539
  531SOL     OW 1591   1.908   1.531   3.052 -0.4413 -0.1266  0.6112
  531SOL    HW1 1592   1.831   1.532   2.983  0.8815  0.1659  0.9211
  531SOL    HW2 1593   1.959   1.620   3.043 -0.0527  1.1303 -1.0948
  532SOL     OW 1594   1.702   0.195   1.174  0.3908 -0.2595  0.0254
  532SOL    HW1 1595   1.648   0.277   1.209 -0.7041  0.8348 -0.9828
  532SOL    HW2 1596   1.805   0.216   1.181  1.6961  1.0380  1.1301
  533SOL     OW 1597   0.649   1.032   2.865  0.1330 -0.6615 -0.3437
  533SOL    HW1 1598   0.660   1.106   2.796  0.3836  0.7773 -1.5148
  533SOL    HW2 1599   0.629   1.074   2.954  2.0304  0.1320  0.9250
  534SOL     OW 1600   1.239   0.251   3.094  0.1361  0.6864  0.7437
  534SOL    HW1 1601   1.306   0.325   3.078 -2.4262 -0.2753  0.6974
  534SOL    HW2 1602   1.166   0.260   3.026  0.2293 -1.1544 -0.5276
  535SOL     OW 1603   0.702   2.281   3.083 -0.0946 -0.4950  0.0720
  535SOL    HW1 1604   0.617   2.342   3.060 -2.9758  0.4450  1.1371
  535SOL    HW2 1605   0.668   2.187   3.078 -0.9894  0.3386  0.3220
  536SOL     OW 1606   0.497   3.032   0.260  0.0207  1.1057  0.2150
  536SOL    HW1 1607   0.531   3.082   0.178 -1.3822 -0.5948  0.5525
  536SOL    HW2 1608   0.555   2.958   0.289 -1.5976  1.0915 -1.5103
  537SOL     OW 1609   1.842   0.435   0.295  0.0745 -0.3714 -0.0239
  537SOL    HW1 1610   1.865   0.362   0.362  0.8699  0.0120 -1.9953
  537SOL    HW2 1611   1.755   0.480   0.329 -0.4035  2.3247 -1.0722
  538SOL     OW 1612   2.655   2.277   2.892 -0.2586 -0.0156  0.5620
  538SOL    HW1 1613   2.728   2.219   2.861 -0.0145 -0.0380  1.4640
  538SOL    HW2 1614   2.606   2.318   2.811  0.0407  1.0474 -0.4083
  539SOL     OW 1615   2.592   1.352   2.918  0.1947  0.4093 -0.2566
  539SOL    HW1 1616   2.501   1.329   2.880 -0.4190  0.6870  1.4513
  539SOL    HW2 1617   2.649   1.265   2.922  1.0279 -0.4799  1.8129
  540SOL     OW 1618   0.856   2.925   1.780 -0.1309  0.3385  0.6141
  540SOL    HW1 1619   0.889   2.992   1.847 -0.3262 -0.5352  3.2511
  540SOL    HW2 1620   0.795   2.972   1.711 -2.5966  0.6414 -1.6437
  541SOL     OW 1621   2.388   0.086   2.473  0.1680 -0.1780  0.0236
  541SOL    HW1 1622   2.354   0.155   2.542 -0.1832  3.6316 -0.1881
  541SOL    HW2 1623   2.357   3.095   2.492 -0.9552  0.1893  0.5476
  542SOL     OW 1624   0.282   0.877   2.995 -0.4111 -0.6101  0.0955
  542SOL    HW1 1625   0.185   0.846   3.010 -4.2269  0.3834  1.8374
  542SOL    HW2 1626   0.295   0.974   3.031 -1.8478  1.1821  1.5727
  543SOL     OW 1627   0.307   0.823   1.012  0.9524 -0.0822 -0.3347
  543SOL    HW1 1628   0.218   0.875   1.006 -4.7792  2.8192  0.9673
  543SOL    HW2 1629   0.301   0.728   0.971 -0.3512  1.0713 -0.9432
  544SOL     OW 1630   2.635   0.700   1.215 -0.3114 -0.0326  0.4902
  544SOL    HW1 1631   2.731   0.683   1.241 -0.4913  1.0676 -0.5253
  544SOL    HW2 1632   2.588   0.756   1.286  0.4005 -2.4019 -0.0780
  545SOL     OW 1633   1.174   1.829   0.336 -0.1263 -0.1916  0.7540
  545SOL    HW1 1634   1.252   1.894   0.342  1.9995 -0.6605 -2.6117
  545SOL    HW2 1635   1.186   1.766   0.258  0.0473 -2.5457  1.2901
  546SOL     OW 1636   2.349   2.626   1.604 -0.0309  0.2302  0.2747
  546SOL    HW1 1637   2.344   2.528   1.628 -1.1949 -0.9170 -0.8601
  546SOL    HW2 1638   2.434   2.650   1.548  2.1113 -2.0743  0.7570
  547SOL     OW 1639   0.821   2.208   2.156 -0.4847  0.4683 -0.5612
  547SOL    HW1 1640   0.910   2.171   2.136 -0.3802 -1.8557 -3.0346
  547SOL    HW2 1641   0.819   2.272   2.235 -1.1183  2.0423 -0.6238
  548SOL     OW 1642   1.273   0.779   2.818 -0.4146 -0.1538  0.7093
  548SOL    HW1 1643   1.177   0.788   2.785  0.5991 -0.7106 -1.7980
  548SOL    HW2 1644   1.269   0.718   2.899 -1.3197  1.2126  1.6113
  549SOL     OW 1645   2.531   0.693   0.343 -0.0595 -0.4764  0.0472
  549SOL    HW1 1646   2.460   0.633   0.307  0.9758 -0.0317 -2.7847
  549SOL    HW2 1647   2.488   0.780   0.379 -0.3322 -0.8191  0.5784
  550SOL     OW 1648   2.048   1.072   0.225 -0.0977  0.1358 -0.1406
  550SOL    HW1 1649   2.144   1.097   0.245 -0.5800  4.5040  0.6098
  550SOL    HW2 1650   2.002   1.165   0.231  2.7826 -2.5695  3.2396
  551SOL     OW 1651   1.756   0.181   1.476  0.6589  0.2073  0.2163
  551SOL    HW1 1652   1.810   0.255   1.516 -0.8456 -2.2862  0.5435
  551SOL    HW2 1653   1.690   0.220   1.413  2.3249 -2.0620  0.3846
  552SOL     OW 1654   1.928   0.109   2.749 -0.3895 -0.1147  0.2143
  552SOL    HW1 1655   1.990   0.183   2.781 -0.8497  1.5082  0.1721
  552SOL    HW2 1656   1.926   0.029   2.816  0.8746 -2.4397 -0.0318
  553SOL     OW 1657   0.737   2.957   2.194  0.4484 -0.0711 -0.2380
  553SOL    HW1 1658   0.719   2.859   2.189 -0.6224 -1.3844  0.1660
  553SOL    HW2 1659   0.655   2.998   2.148  0.1937 -1.8571 -1.6567
  554SOL     OW 1660   0.220   0.058   1.386 -0.3211  0.1440 -0.0657
  554SOL    HW1 1661   0.264   0.147   1.405  0.3927 -2.0365 -3.6799
  554SOL    HW2 1662   0.275   0.010   1.311  0.8363 -1.5880  0.1095
  555SOL     OW 1663   2.344   1.722   2.184 -0.4582 -0.2154  0.3214
  555SOL    HW1 1664   2.437   1.763   2.186  1.6457  0.5689 -0.5979
  555SOL    HW2 1665   2.346   1.623   2.209  0.1815  0.3818  0.3254
  556SOL     OW 1666   1.017   0.525   3.062  0.7433 -0.0330  0.0332
  556SOL    HW1 1667   0.955   0.453   0.003  0.4695  0.4764 -1.5593
  556SOL    HW2 1668   0.968   0.565   2.982  0.9376 -0.1523  0.7328
  557SOL     OW 1669   0.304   2.061   2.346 -0.2151  0.2560  0.5198
  557SOL    HW1 1670   0.355   2.135   2.307 -0.7271  0.9351  1.4029
  557SOL    HW2 1671   0.294   1.980   2.280 -0.7937 -2.6492 -4.1707
  558SOL     OW 1672   1.938   0.542   2.835 -0.3339  0.0424  0.1586
  558SOL    HW1 1673   1.987   0.591   2.759 -0.9645 -0.7090 -1.9455
  558SOL    HW2 1674   1.953   0.597   2.913 -1.5755 -2.0252 -1.5334
  559SOL     OW 1675   2.212   1.918   1.608  0.8344  0.1399  0.3322
  559SOL    HW1 1676   2.235   1.822   1.640  0.2356  0.5160 -0.0988
  559SOL    HW2 1677   2.183   1.967   1.689 -1.1826 -0.6702 -0.7005
  560SOL     OW 1678   1.962   1.072   2.027 -0.0941 -0.2060 -0.3741
  560SOL    HW1 1679   1.998   1.001   1.965  0.6752  3.1664  1.2170
  560SOL    HW2 1680   1.880   1.121   1.993  1.9931 -0.9361 -0.5877
  561SOL     OW 1681   0.117   0.093   2.927 -0.6845 -0.1400 -0.1133
  561SOL    HW1 1682   0.054   0.017   2.926  0.0382  0.8525 -2.7923
  561SOL    HW2 1683   0.208   0.055   2.953  3.8515 -0.6592  1.2156
  562SOL     OW 1684   1.028   1.817   1.469  0.2187 -0.6886 -0.1052
  562SOL    HW1 1685   1.074   1.733   1.511 -0.0458  1.0561  1.6779
  562SOL    HW2 1686   1.031   1.822   1.364 -0.1546  1.6196  0.0044
  563SOL     OW 1687   0.845   0.325   0.079 -0.1923 -0.2626 -0.0017
  563SOL    HW1 1688   0.893   0.247   0.124 -0.4631  2.5562 -0.7321
  563SOL    HW2 1689   0.784   0.287   0.005 -1.2123 -1.9707 -3.7970
  564SOL     OW 1690   2.917   2.467   0.736 -0.1747  0.1346  0.1500
  564SOL    HW1 1691   2.997   2.436   0.686 -0.0139  0.2417  1.0978
  564SOL    HW2 1692   2.876   2.553   0.693 -3.5679  1.0771 -1.7863
  565SOL     OW 1693   0.586   2.279   1.109  0.1803 -0.1799 -0.4406
  565SOL    HW1 1694   0.536   2.344   1.163  1.5240 -0.1093 -0.9355
  565SOL    HW2 1695   0.534   2.192   1.105  0.2727 -0.3479  0.4715
  566SOL     OW 1696   1.279   0.133   2.613  0.4642  0.0728 -0.0984
  566SOL    HW1 1697   1.310   0.040   2.599 -1.4857 -0.3783 -0.2587
  566SOL    HW2 1698   1.182   0.152   2.583 -0.7403  0.4694 -4.4186
  567SOL     OW 1699   2.214   2.972   0.834  0.1217 -0.2092  0.2496
  567SOL    HW1 1700   2.312   2.986   0.858 -1.7078 -1.2743  0.6434
  567SOL    HW2 1701   2.201   2.921   0.748 -1.4669 -0.0448 -0.6392
  568SOL     OW 1702   1.487   1.437   0.677  0.2335 -1.1904  0.0813
  568SOL    HW1 1703   1.583   1.421   0.654 -0.3158  0.5830 -0.6954
  568SOL    HW2 1704   1.464   1.539   0.664  0.9163  0.8310  2.8501
  569SOL     OW 1705   2.154   1.136   2.358 -0.8704 -0.5589 -0.0783
  569SOL    HW1 1706   2.109   1.043   2.351 -0.3588 -0.0058  0.8711
  569SOL    HW2 1707   2.248   1.122   2.396 -1.7363 -1.2204  1.3181
  570SOL     OW 1708   2.954   0.072   2.169 -0.3124 -0.1481  0.0035
  570SOL    HW1 1709   3.004   0.148   2.217  1.8823 -2.0621 -1.3544
  570SOL    HW2 1710   3.020   0.007   2.128 -0.7534  2.8687  0.9488
  571SOL     OW 1711   0.349   2.991   1.821  0.8761 -0.1153  0.5362
  571SOL    HW1 1712   0.312   2.908   1.863  1.3449 -0.4751 -2.5693
  571SOL    HW2 1713   0.299   2.992   1.730 -1.3393 -1.4351 -0.5075
  572SOL     OW 1714   2.975   2.197   1.309  0.3528 -0.5844  0.3616
  572SOL    HW1 1715   2.916   2.286   1.328  0.2382  3.3860  2.4673
  572SOL    HW2 1716   2.964   2.171   1.211 -0.3003  2.0108 -0.9099
  573SOL     OW 1717   0.996   0.798   2.765  0.3404 -0.7644  0.1625
  573SOL    HW1 1718   0.917   0.764   2.824  3.0541 -1.5392 -4.6792
  573SOL    HW2 1719   0.981   0.781   2.665 -0.1600 -1.1700  0.2762
  574SOL     OW 1720   2.488   2.552   2.549  0.5349  1.4479 -0.8259
  574SOL    HW1 1721   2.550   2.630   2.541 -1.1407  2.0481  2.8649
  574SOL    HW2 1722   2.442   2.537   2.459  0.9960 -1.7693  0.6635
  575SOL     OW 1723   1.240   2.911   0.905 -0.7501 -0.1083  0.0046
  575SOL    HW1 1724   1.199   2.960   0.988 -0.6782 -0.5013  3.4946
  575SOL    HW2 1725   1.337   2.891   0.922 -1.2623  0.9079 -2.8290
  576SOL     OW 1726   1.252   0.522   0.975  0.7060 -0.1225 -0.5384
  576SOL    HW1 1727   1.261   0.426   0.947  1.6151 -0.1771  0.0146
  576SOL    HW2 1728   1.173   0.566   0.930  1.3801  1.9965 -1.3302
  577SOL     OW 1729   2.011   1.366   0.501 -0.1417  0.0630 -0.4386
  577SOL    HW1 1730   1.998   1.345   0.403 -0.6784 -0.9567 -1.1916
  577SOL    HW2 1731   2.022   1.275   0.550  0.2808  0.5349  1.0887
  578SOL     OW 1732   2.025   0.682   0.978  0.4719 -0.0986 -0.0252
  578SOL    HW1 1733   1.937   0.732   0.965  0.0195 -0.9118 -1.6166
  578SOL    HW2 1734   2.028   0.645   1.074 -1.1379  1.6260  0.9294
  579SOL     OW 1735   1.802   0.840   2.664  0.4939  0.3828  0.9145
  579SOL    HW1 1736   1.735   0.793   2.602 -0.5459 -0.2673 -0.9479
  579SOL    HW2 1737   1.805   0.938   2.635 -0.0470  0.3404 -0.8623
  580SOL     OW 1738   1.656   0.920   1.980  0.2455 -0.1249  0.0630
  580SOL    HW1 1739   1.607   1.003   1.945 -1.2859  0.7712  2.5067
  580SOL    HW2 1740   1.589   0.854   2.019 -3.2036 -1.0813 -1.8069
  581SOL     OW 1741   0.323   0.565   0.907 -0.0898  0.6920 -0.5172
  581SOL    HW1 1742   0.242   0.509   0.936  1.5751  1.4646 -0.5854
  581SOL    HW2 1743   0.365   0.526   0.821 -0.2017 -0.8655  0.3513
  582SOL     OW 1744   2.903   0.460   1.815  0.2280 -0.4184  0.6418
  582SOL    HW1 1745   2.823   0.470   1.752 -2.5126  1.0495  1.8236
  582SOL    HW2 1746   2.866   0.474   1.910  1.3260  2.1926  0.1118
  583SOL     OW 1747   0.277   0.555   2.458  0.7353  0.2917  0.0444
  583SOL    HW1 1748   0.358   0.566   2.517  0.9754  0.6920 -3.0531
  583SOL    HW2 1749   0.222   0.474   2.495 -1.8177 -4.1978  3.4308
  584SOL     OW 1750   2.019   2.256   0.212  0.7669  0.3192  0.3738
  584SOL    HW1 1751   2.040   2.185   0.139 -0.8824 -1.6967 -1.7581
  584SOL    HW2 1752   1.949   2.325   0.181 -0.8121  1.9850  2.1174
  585SOL     OW 1753   0.111   2.277   0.131  0.5211 -0.2704 -0.3784
  585SOL    HW1 1754   0.085   2.202   0.065 -1.8757  0.2620 -0.5900
  585SOL    HW2 1755   0.209   2.273   0.150 -0.1743 -1.1915 -0.3903
  586SOL     OW 1756   1.717   1.898   2.203 -0.6406 -0.2992  0.1518
  586SOL    HW1 1757   1.777   1.824   2.168 -0.3786  0.6208  2.0450
  586SOL    HW2 1758   1.758   1.994   2.187 -1.9030  1.9530 -0.4675
  587SOL     OW 1759   2.396   1.690   2.832  0.3379  0.1906 -0.2327
  587SOL    HW1 1760   2.430   1.651   2.924 -2.3885  1.0688  2.9526
  587SOL    HW2 1761   2.317   1.753   2.847 -2.1761  0.6423  1.5100
  588SOL     OW 1762   2.992   0.286   1.311 -0.4762  0.5642  0.6407
  588SOL    HW1 1763   3.009   0.311   1.212  1.1396  1.4157 -0.4287
  588SOL    HW2 1764   3.072   0.313   1.366 -0.6570 -0.6716 -3.0099
  589SOL     OW 1765   0.983   0.313   0.580  0.1492 -0.0377 -0.4898
  589SOL    HW1 1766   0.904   0.355   0.528 -1.8073 -0.2347  1.1564
  589SOL    HW2 1767   0.955   0.239   0.638  0.9232  2.8979 -1.4807
  590SOL     OW 1768   2.497   1.930   0.588 -0.2270  0.5991 -0.5112
  590SOL    HW1 1769   2.412   1.979   0.617 -0.4447  2.2723 -1.6730
  590SOL    HW2 1770   2.523   1.953   0.493 -3.0781 -0.8574 -0.1829
  591SOL     OW 1771   0.674   2.582   0.938 -0.3250 -0.2187  0.3826
  591SOL    HW1 1772   0.697   2.481   0.935 -0.6286 -1.9866  0.8465
  591SOL    HW2 1773   0.640   2.617   0.848 -0.4567 -0.6136 -0.3121
  592SOL     OW 1774   1.493   0.981   1.196 -0.0942 -0.0443  0.4060
  592SOL    HW1 1775   1.441   1.066   1.227 -1.7842  2.0789  0.2382
  592SOL    HW2 1776   1.434   0.905   1.220  1.9353  3.9740  0.4422
  593SOL     OW 1777   0.984   2.306   1.655  0.4928 -0.2207  0.1323
  593SOL    HW1 1778   1.024   2.384   1.607 -0.7412 -0.2375 -0.4408
  593SOL    HW2 1779   0.997   2.322   1.752 -0.7072 -1.8931 -2.4095
  594SOL     OW 1780   1.019   1.322   0.154  0.1806 -0.4016 -0.1519
  594SOL    HW1 1781   1.075   1.268   0.090 -0.7254 -0.3902 -1.3996
  594SOL    HW2 1782   0.969   1.263   0.220 -2.2791  0.3173  2.0704
  595SOL     OW 1783   1.643   1.118   1.501  0.0340  0.7327  0.4350
  595SOL    HW1 1784   1.709   1.150   1.569 -0.8184  0.0534 -0.0103
  595SOL    HW2 1785   1.671   1.138   1.405 -2.0689  2.7495 -1.5887
  596SOL     OW 1786   2.878   1.226   2.180  0.7503  0.4055 -0.2645
  596SOL    HW1 1787   2.937   1.144   2.185 -0.2841  0.4159 -1.4151
  596SOL    HW2 1788   2.919   1.294   2.118  0.8178  0.1099 -2.3814
  597SOL     OW 1789   1.378   2.676   1.994 -0.2777 -0.1092  0.2542
  597SOL    HW1 1790   1.347   2.769   1.963 -3.0146  1.0396  4.5378
  597SOL    HW2 1791   1.455   2.684   2.062 -0.0043 -2.1234  1.1715
  598SOL     OW 1792   2.343   1.306   1.474 -0.1092 -0.6175 -0.2021
  598SOL    HW1 1793   2.344   1.380   1.407  2.3893 -2.3555 -0.2885
  598SOL    HW2 1794   2.347   1.344   1.569 -2.2865 -0.8971 -0.6923
  599SOL     OW 1795   0.871   2.625   2.988  0.4062  0.4795  0.1553
  599SOL    HW1 1796   0.788   2.629   3.044 -0.9608  0.3436  0.8922
  599SOL    HW2 1797   0.925   2.553   3.032  0.8770  0.8762  0.5434
  600SOL     OW 1798   3.055   2.342   0.333  0.1551  0.9643 -0.4732
  600SOL    HW1 1799   3.045   2.268   0.404  1.0039  0.2494  0.8498
  600SOL    HW2 1800   0.006   2.308   0.254 -1.7680 -1.8191 -2.5348
  601SOL     OW 1801   0.570   0.873   1.462 -0.4360  0.3959  0.7590
  601SOL    HW1 1802   0.479   0.836   1.439  2.1817 -0.9255  1.1672
  601SOL    HW2 1803   0.648   0.815   1.427  1.9666 -0.7698  0.3989
  602SOL     OW 1804   0.627   0.144   1.092  0.0102 -0.1424  0.2211
  602SOL    HW1 1805   0.720   0.140   1.131 -1.3506 -0.4169  0.4374
  602SOL    HW2 1806   0.620   0.085   1.007  0.8519  0.3690 -0.0669
  603SOL     OW 1807   0.394   3.102   2.663  0.0998 -0.1335  0.6613
  603SOL    HW1 1808   0.441   0.071   2.611 -2.1637 -0.2960  0.3570
  603SOL    HW2 1809   0.455   3.040   2.712  3.4168  1.6361  0.0433
  604SOL     OW 1810   1.087   2.431   1.432  0.2472 -0.0105  0.6016
  604SOL    HW1 1811   1.161   2.361   1.418  0.4077 -1.8298 -1.0631
  604SOL    HW2 1812   1.025   2.438   1.352  0.6038 -3.0505  0.9460
  605SOL     OW 1813   1.760   1.217   1.945  0.6862 -0.0829  0.2324
  605SOL    HW1 1814   1.786   1.231   1.844 -1.9821 -0.0649 -1.1752
  605SOL    HW2 1815   1.655   1.224   1.949 -3.3958 -0.8523 -0.5688
  606SOL     OW 1816   2.179   2.912   3.087 -0.1511  0.3359  0.0493
  606SOL    HW1 1817   2.202   2.833   0.046 -1.6955 -0.3327  2.6368
  606SOL    HW2 1818   2.236   2.907   3.005 -1.1912  1.9200  0.4004
  607SOL     OW 1819   0.770   0.234   1.950  0.3015 -0.5445 -0.5125
  607SOL    HW1 1820   0.748   0.191   1.860 -2.2464 -2.7694 -1.0649
  607SOL    HW2 1821   0.862   0.214   1.983  0.2438  0.6998 -2.3516
  608SOL     OW 1822   0.203   2.311   2.060  0.0448 -0.5505  0.1543
  608SOL    HW1 1823   0.165   2.216   2.065 -1.7495 -1.6771  0.6343
  608SOL    HW2 1824   0.197   2.345   1.964  0.2322 -2.7377 -0.7903
  609SOL     OW 1825   1.148   0.968   0.093  0.5646 -0.1220  0.1198
  609SOL    HW1 1826   1.086   1.034   0.142 -1.8744  0.8056 -2.0524
  609SOL    HW2 1827   1.086   0.893   0.056 -2.1474 -0.8322 -2.4589
  610SOL     OW 1828   0.274   2.863   1.160 -0.2279  0.9567  0.1185
  610SOL    HW1 1829   0.360   2.918   1.160 -1.4330  1.0031  0.6345
  610SOL    HW2 1830   0.260   2.808   1.247 -1.5820 -2.4086 -0.0077
  611SOL     OW 1831   0.904   1.323   0.715 -0.0938 -0.0613 -0.0012
  611SOL    HW1 1832   0.830   1.281   0.655 -0.4104 -1.3679 -0.2297
  611SOL    HW2 1833   0.994   1.288   0.680  1.7429  0.4379 -0.3732
  612SOL     OW 1834   2.211   1.976   0.237 -0.5265 -0.0170  0.1713
  612SOL    HW1 1835   2.272   2.034   0.179  3.1937 -2.5439 -1.2862
  612SOL    HW2 1836   2.245   1.965   0.333 -0.9867 -0.9061  0.7478
  613SOL     OW 1837   1.373   1.576   0.337 -0.9876 -0.2245  0.4243
  613SOL    HW1 1838   1.464   1.533   0.325  0.9044 -0.7490  0.8541
  613SOL    HW2 1839   1.325   1.590   0.247  1.9595  0.4182  0.3678
  614SOL     OW 1840   2.704   0.265   2.475  0.4325  0.4522  0.1671
  614SOL    HW1 1841   2.617   0.304   2.448  1.2640  2.2981  0.7507
  614SOL    HW2 1842   2.776   0.340   2.470 -1.0139  0.7652  1.0354
  615SOL     OW 1843   0.744   1.493   0.409 -0.2824  0.6448  0.1259
  615SOL    HW1 1844   0.840   1.516   0.398  1.4506 -1.6945 -3.8304
  615SOL    HW2 1845   0.738   1.389   0.422  1.1161  1.2479  0.8344
  616SOL     OW 1846   1.493   0.928   2.844 -0.3415 -0.5225 -0.0670
  616SOL    HW1 1847   1.566   0.877   2.891  1.0431  1.3824 -2.3251
  616SOL    HW2 1848   1.411   0.874   2.843  2.5669 -0.2871  1.1824
  617SOL     OW 1849   1.481   0.282   0.335  0.1573 -0.0931 -0.7864
  617SOL    HW1 1850   1.530   0.371   0.323  0.1115 -1.4025  1.6573
  617SOL    HW2 1851   1.382   0.292   0.332 -0.1753 -0.9700 -0.2892
  618SOL     OW 1852   2.742   1.932   2.415 -0.1776 -0.1997  0.0226
  618SOL    HW1 1853   2.785   1.842   2.439 -1.1164 -0.8665  0.0317
  618SOL    HW2 1854   2.659   1.950   2.469  1.4864 -0.8858 -3.3126
  619SOL     OW 1855   2.268   1.678   0.843 -0.0491 -0.1513  0.3289
  619SOL    HW1 1856   2.236   1.748   0.909 -1.2024  0.7014 -3.3438
  619SOL    HW2 1857   2.355   1.712   0.803  0.6406  1.4247 -0.5013
  620SOL     OW 1858   2.246   3.039   1.309 -0.3593  0.1524  0.2741
  620SOL    HW1 1859   2.188   3.100   1.246 -2.0902 -0.4178  1.1027
  620SOL    HW2 1860   2.241   2.941   1.272 -1.6064 -0.1353 -0.3346
  621SOL     OW 1861   0.095   2.036   0.861 -0.6438  0.1543 -0.2970
  621SOL    HW1 1862   0.126   2.078   0.949  0.0847  0.5359 -3.1098
  621SOL    HW2 1863   0.119   2.093   0.781  1.6364  0.7545 -3.2907
  622SOL     OW 1864   0.628   1.651   2.003 -0.1420  0.4205  0.1260
  622SOL    HW1 1865   0.571   1.715   1.947 -1.2018  3.1072  0.6927
  622SOL    HW2 1866   0.718   1.693   2.029  1.7042 -0.3484  2.7072
  623SOL     OW 1867   2.579   2.849   2.437 -0.3628  0.5102  0.1013
  623SOL    HW1 1868   2.485   2.881   2.464 -0.7184 -1.9390  0.1062
  623SOL    HW2 1869   2.635   2.930   2.409 -1.5634  0.2952  0.5277
  624SOL     OW 1870   0.772   1.812   0.492 -0.0677  0.2635  0.0642
  624SOL    HW1 1871   0.762   1.713   0.519  1.4041  1.5078  2.1091
  624SOL    HW2 1872   0.866   1.850   0.501 -1.2401 -0.4415 -2.7231
  625SOL     OW 1873   0.743   1.913   2.164 -0.0468  0.1049  0.2209
  625SOL    HW1 1874   0.822   1.866   2.121 -1.7358 -0.7047  4.5119
  625SOL    HW2 1875   0.772   1.936   2.257  0.1929 -2.0134 -3.0539
  626SOL     OW 1876   0.093   2.543   0.427 -0.3821 -0.0881  0.1003
  626SOL    HW1 1877   0.091   2.510   0.523 -3.7127  2.3541 -2.6990
  626SOL    HW2 1878   0.025   2.480   0.377 -1.3617  0.2348 -0.7805
  627SOL     OW 1879   1.204   1.739   2.346  0.5412  0.5380  0.0864
  627SOL    HW1 1880   1.179   1.639   2.324  0.3820  0.4150  2.9341
  627SOL    HW2 1881   1.257   1.739   2.430 -1.9847 -2.4184 -2.6092
  628SOL     OW 1882   1.388   2.010   0.312  0.4550  0.2088 -0.8928
  628SOL    HW1 1883   1.326   2.085   0.334  0.7736 -4.5049 -1.9987
  628SOL    HW2 1884   1.469   2.012   0.372 -1.3453 -1.6041 -0.6017
  629SOL     OW 1885   0.942   0.467   1.817  0.6384  0.4289 -0.2752
  629SOL    HW1 1886   0.904   0.514   1.901  2.0992  1.8561  0.7816
  629SOL    HW2 1887   1.036   0.482   1.821 -2.2956 -3.0905 -0.6547
  630SOL     OW 1888   2.309   3.040   1.580 -0.4007  0.2335  0.7331
  630SOL    HW1 1889   2.270   3.050   1.487  0.3984 -0.2559 -1.1444
  630SOL    HW2 1890   2.276   2.955   1.623 -0.3385  1.6466 -1.6483
  631SOL     OW 1891   1.449   0.623   0.566 -0.5032  0.2398  0.2117
  631SOL    HW1 1892   1.411   0.619   0.660  2.1443  1.1590  0.7470
  631SOL    HW2 1893   1.371   0.597   0.505  0.5793  0.3992 -0.3393
  632SOL     OW 1894   2.121   0.357   2.124  0.2179 -0.0263 -0.0908
  632SOL    HW1 1895   2.152   0.444   2.161 -2.6636  0.2698  1.7478
  632SOL    HW2 1896   2.060   0.380   2.049  0.2676 -0.0943  2.0274
  633SOL     OW 1897   1.472   1.203   2.894  0.2788  0.1932 -0.0594
  633SOL    HW1 1898   1.508   1.210   2.988  0.2550 -2.3123 -0.5656
  633SOL    HW2 1899   1.459   1.104   2.864  1.0318  0.9092 -2.0083
  634SOL     OW 1900   0.395   2.218   0.160  0.2144 -0.0911 -0.3231
  634SOL    HW1 1901   0.480   2.269   0.183  0.9262 -2.5834 -0.9142
  634SOL    HW2 1902   0.401   2.195   0.063  0.7943  0.1460 -1.4906
  635SOL     OW 1903   2.804   1.688   2.095 -0.2647  0.0632  0.3032
  635SOL    HW1 1904   2.864   1.650   2.168 -0.1089  1.5554  0.4990
  635SOL    HW2 1905   2.758   1.603   2.058  0.7636  0.8051  1.7875
  636SOL     OW 1906   0.425   1.774   2.800 -0.3420  0.0233 -0.8500
  636SOL    HW1 1907   0.407   1.673   2.801 -1.0432 -0.2763 -0.3163
  636SOL    HW2 1908   0.379   1.827   2.724 -0.0909 -0.9361  2.8169
  637SOL     OW 1909   3.038   1.993   0.467 -0.2369  0.7577  0.3085
  637SOL    HW1 1910   3.059   1.898   0.503 -0.1449 -0.4769  2.3133
  637SOL    HW2 1911   2.956   2.036   0.509 -0.2945 -2.9788  0.2759
  638SOL     OW 1912   2.549   2.674   0.454  0.1743 -0.5288 -0.2626
  638SOL    HW1 1913   2.516   2.763   0.501  2.0799  2.9897 -0.2060
  638SOL    HW2 1914   2.487   2.590   0.459 -0.8324  0.5346 -0.2763
  639SOL     OW 1915   0.838   0.410   0.349 -0.1465  0.4901 -0.5847
  639SOL    HW1 1916   0.840   0.389   0.246 -1.3857  1.0941 -0.8820
  639SOL    HW2 1917   0.893   0.487   0.376  1.2594 -0.9668  0.4238
  640SOL     OW 1918   2.433   2.435   1.797 -0.3189  0.0953  0.0696
  640SOL    HW1 1919   2.532   2.415   1.817 -0.2644  1.4038  1.0219
  640SOL    HW2 1920   2.399   2.394   1.707  0.2005 -1.7218  0.0657
  641SOL     OW 1921   2.512   2.726   1.381 -0.2095  0.6541 -0.6078
  641SOL    HW1 1922   2.435   2.771   1.328  0.7786 -1.5106  0.1402
  641SOL    HW2 1923   2.564   2.796   1.434  0.0877  0.8872  1.5400
  642SOL     OW 1924   1.211   1.039   1.650  0.3370  0.2833 -0.0105
  642SOL    HW1 1925   1.148   1.098   1.596  3.2146 -0.9284  0.1627
  642SOL    HW2 1926   1.273   0.982   1.591  3.5838 -0.1331  2.1550
  643SOL     OW 1927   1.070   1.354   2.118 -0.3157 -0.0124  0.4295
  643SOL    HW1 1928   1.000   1.286   2.087  0.4893  2.0765  3.4549
  643SOL    HW2 1929   1.090   1.422   2.044  1.5870 -0.0255  0.5327
  644SOL     OW 1930   1.240   0.313   2.101  0.0573  0.3580  0.1876
  644SOL    HW1 1931   1.159   0.362   2.138 -1.7679 -0.5269  0.2408
  644SOL    HW2 1932   1.315   0.304   2.172 -1.2692  1.3594  0.0049
  645SOL     OW 1933   2.046   1.241   1.543 -0.0711 -0.3922 -0.1420
  645SOL    HW1 1934   1.991   1.254   1.457  2.6986 -0.9004 -3.2686
  645SOL    HW2 1935   2.068   1.330   1.589 -0.2942 -0.7815  1.3534
  646SOL     OW 1936   1.590   2.305   0.091 -0.7208  0.1225 -0.1085
  646SOL    HW1 1937   1.554   2.334   0.001  0.9525 -0.0813  1.2558
  646SOL    HW2 1938   1.597   2.201   0.085 -0.7056  2.3100 -2.3611
  647SOL     OW 1939   1.605   2.590   0.891 -0.3202 -0.2470 -0.3061
  647SOL    HW1 1940   1.682   2.526   0.872  0.6802 -2.7946 -0.4792
  647SOL    HW2 1941   1.523   2.532   0.905 -0.1470 -1.6572  1.1588
  648SOL     OW 1942   0.076   2.573   1.456 -0.6044 -0.4442  0.1265
  648SOL    HW1 1943   3.088   2.607   1.493 -0.5056 -0.6076 -2.3178
  648SOL    HW2 1944   0.081   2.470   1.449  2.4866 -1.6502 -1.1594
  649SOL     OW 1945   1.187   2.600   2.715  0.3676 -0.5885 -0.2054
  649SOL    HW1 1946   1.179   2.535   2.796 -2.9536 -2.1714  0.0832
  649SOL    HW2 1947   1.264   2.584   2.648  0.6266  0.2047 -0.0971
  650SOL     OW 1948   2.705   1.782   0.092 -0.1910  0.7066  0.0603
  650SOL    HW1 1949   2.736   1.758   0.188 -0.7655  1.2812  0.3387
  650SOL    HW2 1950   2.648   1.706   0.048 -2.6539 -0.3232  0.8831
  651SOL     OW 1951   2.539   2.311   2.194 -0.0924  0.0789 -0.2296
  651SOL    HW1 1952   2.613   2.361   2.146 -1.7291  1.0065  1.0434
  651SOL    HW2 1953   2.567   2.256   2.275 -0.5288  1.8293 -1.3640
  652SOL     OW 1954   2.408   2.468   0.405 -0.0559 -0.0470  0.0696
  652SOL    HW1 1955   2.335   2.430   0.343 -0.8524 -2.3634  0.5225
  652SOL    HW2 1956   2.497   2.424   0.378  3.7553  1.6835  0.2337
  653SOL     OW 1957   2.670   1.682   1.511 -0.0624  0.4915 -0.0657
  653SOL    HW1 1958   2.684   1.779   1.488  1.1726 -0.1260 -1.9056
  653SOL    HW2 1959   2.760   1.633   1.493  1.1734  0.8148 -1.5663
  654SOL     OW 1960   0.848   1.073   0.039  0.4986  0.0605 -0.7317
  654SOL    HW1 1961   0.906   1.119   3.072 -0.1226  0.2263  0.3840
  654SOL    HW2 1962   0.800   0.990   0.006  2.8323 -1.1099  0.3880
  655SOL     OW 1963   1.155   1.114   0.976  0.1593 -0.1729  0.4896
  655SOL    HW1 1964   1.223   1.051   0.940  0.0615  0.2285  0.6516
  655SOL    HW2 1965   1.175   1.211   0.944  3.2004 -0.4545  0.4597
  656SOL     OW 1966   1.519   2.673   2.233 -0.1419  0.4694 -0.0172
  656SOL    HW1 1967   1.451   2.734   2.276 -1.8573 -2.3800 -1.0325
  656SOL    HW2 1968   1.480   2.580   2.232  2.3386  0.1306  1.8061
  657SOL     OW 1969   1.620   1.442   0.281 -0.3840 -0.1469 -0.7649
  657SOL    HW1 1970   1.612   1.391   0.193  0.8029  0.2166 -0.0568
  657SOL    HW2 1971   1.655   1.537   0.264 -0.2294  0.0522  0.3544
  658SOL     OW 1972   1.851   2.872   1.789 -0.4336  0.3199 -0.3891
  658SOL    HW1 1973   1.935   2.852   1.849  1.6870  1.5074  0.7204
  658SOL    HW2 1974   1.873   2.931   1.711 -3.1450 -0.3597  0.3907
  659SOL     OW 1975   2.798   1.755   0.368 -0.2753 -0.4789  0.0104
  659SOL    HW1 1976   2.868   1.699   0.317  1.5744  1.9044  1.1565
  659SOL    HW2 1977   2.772   1.704   0.454 -0.1274  3.3620  0.6787
  660SOL     OW 1978   1.260   0.244   0.929 -0.1109 -0.4683  0.7822
  660SOL    HW1 1979   1.192   0.165   0.936 -3.1462  0.4045 -0.9517
  660SOL    HW2 1980   1.353   0.216   0.955 -0.6586  1.5511 -0.2422
  661SOL     OW 1981   1.722   0.309   0.055  0.3297 -0.0765 -0.3019
  661SOL    HW1 1982   1.756   0.349   0.142 -0.7685 -2.2492 -0.1451
  661SOL    HW2 1983   1.773   0.225   0.041 -3.6047  0.5874  1.7320
  662SOL     OW 1984   0.429   0.086   0.447 -0.1685  0.0817 -0.1734
  662SOL    HW1 1985   0.419   0.031   0.530 -1.3343  1.1559  1.2751
  662SOL    HW2 1986   0.470   0.024   0.375  1.7445 -2.5724 -2.9423
  663SOL     OW 1987   1.372   2.575   2.511  0.5093 -0.1618 -0.1317
  663SOL    HW1 1988   1.366   2.658   2.453 -0.2228  0.4096  1.8919
  663SOL    HW2 1989   1.463   2.522   2.496  0.3976 -3.2682 -1.5717
  664SOL     OW 1990   0.586   2.466   1.448 -0.0476 -0.5158  0.2927
  664SOL    HW1 1991   0.504   2.401   1.462  0.2567 -0.7741 -0.9744
  664SOL    HW2 1992   0.599   2.495   1.354  1.9582 -0.3752  1.6180
  665SOL     OW 1993   1.595   2.457   1.163 -0.1438 -0.1315  0.5482
  665SOL    HW1 1994   1.518   2.525   1.174 -1.2525  0.9824  1.7617
  665SOL    HW2 1995   1.626   2.430   1.259  0.9116 -0.1079  0.1097
  666SOL     OW 1996   0.975   2.643   2.471 -0.2032 -0.4348 -0.2291
  666SOL    HW1 1997   1.006   2.603   2.381 -0.7748 -0.3353 -1.4934
  666SOL    HW2 1998   1.007   2.594   2.553  3.3476 -1.6533 -1.0748
  667SOL     OW 1999   3.101   0.606   1.446 -0.8703  0.1762  0.2916
  667SOL    HW1 2000   0.084   0.647   1.493  2.1809 -1.6074 -3.4226
  667SOL    HW2 2001   0.007   0.505   1.442  1.1993  0.9280 -0.4425
  668SOL     OW 2002   1.137   0.122   1.668  0.0991 -0.8142 -0.2318
  668SOL    HW1 2003   1.172   0.142   1.575  0.9340 -0.1880  2.1707
  668SOL    HW2 2004   1.210   0.142   1.734 -2.5962 -0.5554  3.6122
  669SOL     OW 2005   1.828   2.595   1.148  0.5761  0.1370  0.2569
  669SOL    HW1 2006   1.741   2.542   1.127 -2.4760 -2.0961  0.6992
  669SOL    HW2 2007   1.832   2.670   1.084 -0.1483  0.1627  0.1317
  670SOL     OW 2008   1.559   2.344   2.925  0.0171  0.2967 -0.1014
  670SOL    HW1 2009   1.494   2.289   2.870  0.9447 -1.2753 -0.2934
  670SOL    HW2 2010   1.629   2.388   2.868 -4.8736  2.0006  3.1025
  671SOL     OW 2011   0.364   1.154   3.049  0.3216  0.1597 -0.3610
  671SOL    HW1 2012   0.456   1.191   3.073  0.0448  0.4503 -0.6356
  671SOL    HW2 2013   0.309   1.153   0.032 -0.2161 -1.4646 -1.3261
  672SOL     OW 2014   2.670   0.458   2.790 -0.3916 -0.0242  0.0424
  672SOL    HW1 2015   2.650   0.553   2.818 -0.5440 -2.1733  0.5247
  672SOL    HW2 2016   2.767   0.452   2.765 -2.2512  1.3679  0.7909
  673SOL     OW 2017   0.228   2.033   1.358  0.7900 -0.4010 -0.3359
  673SOL    HW1 2018   0.164   2.042   1.434  3.0288  0.7714  0.1372
  673SOL    HW2 2019   0.321   2.008   1.398  0.1306  1.9027  0.7917
  674SOL     OW 2020   1.395   2.049   1.505  0.1023 -0.5819 -0.3028
  674SOL    HW1 2021   1.354   1.979   1.570 -1.0461 -1.8465  2.5631
  674SOL    HW2 2022   1.454   2.002   1.433 -1.6095 -2.0235  0.4185
  675SOL     OW 2023   1.077   1.448   1.276 -0.3489 -0.4131 -0.1068
  675SOL    HW1 2024   1.174   1.486   1.270 -0.9208 -0.0883 -2.0012
  675SOL    HW2 2025   1.016   1.486   1.203 -0.6283  0.1673  0.5518
  676SOL     OW 2026   2.495   0.700   0.974  0.0848 -0.3415 -0.6234
  676SOL    HW1 2027   2.401   0.734   0.997 -0.4168  1.3331  1.4733
  676SOL    HW2 2028   2.560   0.726   1.047 -0.2348 -0.9894 -0.6831
  677SOL     OW 2029   2.640   0.262   0.315  0.0393  0.4288  0.1734
  677SOL    HW1 2030   2.727   0.207   0.319  1.2291 -0.2408  0.0027
  677SOL    HW2 2031   2.633   0.311   0.226 -1.7565  1.0946 -2.2333
  678SOL     OW 2032   2.490   1.275   1.057  0.0907  0.5258 -0.5799
  678SOL    HW1 2033   2.573   1.220   1.065 -0.5167  1.2440  0.3825
  678SOL    HW2 2034   2.511   1.355   0.997  0.3827  0.6673  0.3214
  679SOL     OW 2035   2.696   0.467   0.153 -0.4303 -0.4085  0.0770
  679SOL    HW1 2036   2.726   0.566   0.150  1.0231 -2.0303 -0.2704
  679SOL    HW2 2037   2.757   0.409   0.094 -1.8710 -2.3010 -0.7068
  680SOL     OW 2038   0.452   1.278   2.328 -0.2933  0.2017 -0.0375
  680SOL    HW1 2039   0.445   1.239   2.235 -0.5836  1.3698 -0.4859
  680SOL    HW2 2040   0.417   1.374   2.324 -1.1392 -3.2481  1.5663
  681SOL     OW 2041   2.679   2.144   1.782  0.1327  0.7925  0.1730
  681SOL    HW1 2042   2.669   2.241   1.804  1.7172 -0.2764 -0.5542
  681SOL    HW2 2043   2.632   2.088   1.857 -1.5556  0.1414  3.6122
  682SOL     OW 2044   0.658   1.910   2.782 -0.1106  0.0871 -0.3061
  682SOL    HW1 2045   0.564   1.871   2.805 -4.0929  1.0323 -0.9426
  682SOL    HW2 2046   0.647   2.010   2.788  3.3132  0.8628  1.0204
  683SOL     OW 2047   2.649   1.945   1.418 -0.1282  0.2984 -0.1282
  683SOL    HW1 2048   2.554   1.945   1.377 -0.4146 -2.0594 -1.3919
  683SOL    HW2 2049   2.674   2.040   1.452 -0.3224  0.5811  1.0857
  684SOL     OW 2050   2.676   1.471   1.981  0.2069 -0.5190 -0.3286
  684SOL    HW1 2051   2.590   1.518   1.959 -2.1763 -1.2183  0.8370
  684SOL    HW2 2052   2.669   1.369   1.984  2.8781 -0.8044  0.1501
  685SOL     OW 2053   0.935   0.969   0.869  0.6385  0.2526  0.0503
  685SOL    HW1 2054   1.006   1.020   0.914 -0.3503 -1.7603 -2.1814
  685SOL    HW2 2055   0.950   0.870   0.895  0.8835 -1.9442  0.5522
  686SOL     OW 2056   0.739   0.247   2.909  0.2518 -0.0514 -0.3483
  686SOL    HW1 2057   0.732   0.147   2.877  2.0407 -1.9151 -0.5817
  686SOL    HW2 2058   0.646   0.295   2.899 -1.0705  0.4460 -1.8686
  687SOL     OW 2059   0.569   2.065   2.024  1.0519  0.2266 -0.1451
  687SOL    HW1 2060   0.612   2.105   1.940  1.6579 -2.5788  1.9953
  687SOL    HW2 2061   0.635   2.011   2.074 -1.4895  0.9951 -2.3082
  688SOL     OW 2062   2.037   0.112   1.500 -0.2313  0.3463  0.8081
  688SOL    HW1 2063   1.958   0.137   1.442  0.3898  1.2835  0.6608
  688SOL    HW2 2064   2.110   0.179   1.495 -1.5384 -0.6598 -2.9243
  689SOL     OW 2065   1.886   0.852   0.626 -0.0433 -0.1962 -0.1140
  689SOL    HW1 2066   1.786   0.855   0.648  0.0967 -1.9162 -1.2307
  689SOL    HW2 2067   1.932   0.765   0.653 -0.5041  0.4561 -2.4251
  690SOL     OW 2068   2.867   0.962   1.216 -0.6209  0.0350  0.2545
  690SOL    HW1 2069   2.920   1.014   1.284  3.0569 -1.8751 -2.0312
  690SOL    HW2 2070   2.856   0.865   1.241 -0.0963 -0.8116 -0.4119
  691SOL     OW 2071   0.269   0.954   1.856  0.0829  0.2312 -0.0048
  691SOL    HW1 2072   0.250   1.035   1.797 -1.9511 -0.1855  0.1467
  691SOL    HW2 2073   0.346   0.897   1.826 -0.4388  0.8491  1.7741
  692SOL     OW 2074   0.630   0.928   1.980 -0.1405  0.6152 -0.1444
  692SOL    HW1 2075   0.662   0.984   1.902 -0.9175  0.0753 -2.1721
  692SOL    HW2 2076   0.581   0.843   1.946  2.3940 -0.0772 -0.3540
  693SOL     OW 2077   0.392   1.384   1.960  0.3610 -0.2970 -0.3893
  693SOL    HW1 2078   0.296   1.415   1.939 -3.6092 -1.0234 -1.0701
  693SOL    HW2 2079   0.425   1.427   2.046 -0.1539 -1.5692 -0.5041
  694SOL     OW 2080   1.412   1.774   0.576  0.6320  0.6322  0.1633
  694SOL    HW1 2081   1.497   1.756   0.525 -0.3762 -0.7154 -1.8224
  694SOL    HW2 2082   1.337   1.729   0.522 -0.9660 -1.8671 -1.0019
  695SOL     OW 2083   0.038   1.011   1.034 -0.4682 -0.1195 -0.3323
  695SOL    HW1 2084   0.017   1.108   1.026  0.1538  2.2029 -0.6532
  695SOL    HW2 2085   0.034   0.960   0.948 -1.6694 -0.6974  0.1279
  696SOL     OW 2086   0.601   2.446   0.524 -0.5093  0.2155 -0.0771
  696SOL    HW1 2087   0.580   2.462   0.426 -2.1088  0.3407  1.6903
  696SOL    HW2 2088   0.694   2.411   0.532  0.4980  0.8092 -0.8001
  697SOL     OW 2089   1.283   0.599   1.633  0.3116  0.4565  0.2361
  697SOL    HW1 2090   1.309   0.691   1.665 -1.9266  2.5577 -0.1993
  697SOL    HW2 2091   1.230   0.599   1.544  0.2702 -0.8977 -2.5597
  698SOL     OW 2092   1.787   1.524   1.761  0.6015  0.3664 -0.7971
  698SOL    HW1 2093   1.717   1.561   1.824 -2.1963 -1.9413  0.0451
  698SOL    HW2 2094   1.747   1.520   1.669 -0.4614 -1.7683  2.7942
  699SOL     OW 2095   0.028   0.700   2.518 -0.3587  0.7415  0.2679
  699SOL    HW1 2096   3.073   0.657   2.443  2.3146  0.5027 -2.5378
  699SOL    HW2 2097   0.114   0.644   2.527 -1.5352  2.4892 -1.7332
  700SOL     OW 2098   1.704   2.313   0.515  0.2118  0.0742 -0.8217
  700SOL    HW1 2099   1.695   2.237   0.445 -0.5015 -3.8555 -0.9921
  700SOL    HW2 2100   1.673   2.401   0.476  3.0003  0.5109  3.4174
  701SOL     OW 2101   0.185   1.739   2.510  0.5512  0.0767  0.1657
  701SOL    HW1 2102   0.125   1.686   2.575 -1.5582  1.3880  0.6290
  701SOL    HW2 2103   0.231   1.815   2.554  1.8268 -4.3439  1.2104
  702SOL     OW 2104   0.463   0.246   2.880  0.1659 -0.2227  0.2539
  702SOL    HW1 2105   0.432   0.158   2.846 -0.0100  0.8026  2.4367
  702SOL    HW2 2106   0.394   0.321   2.852 -0.9506  0.8582 -0.8408
  703SOL     OW 2107   1.430   0.414   2.953  0.3433 -0.4596 -0.0811
  703SOL    HW1 2108   1.521   0.454   2.967 -1.5778  0.6826  0.2958
  703SOL    HW2 2109   1.419   0.405   2.851  0.9991  2.1926 -0.9842
  704SOL     OW 2110   2.748   1.873   0.969 -0.0145  0.4059 -0.2837
  704SOL    HW1 2111   2.767   1.820   1.055 -2.1926 -2.1583  0.7393
  704SOL    HW2 2112   2.836   1.886   0.921 -0.4019  2.8572  0.7369
  705SOL     OW 2113   2.611   1.839   2.204 -0.2191  0.0907  0.4753
  705SOL    HW1 2114   2.691   1.785   2.172  1.3706  2.3406  2.0016
  705SOL    HW2 2115   2.641   1.887   2.291  1.1756 -0.6077  2.3976
  706SOL     OW 2116   2.984   2.838   1.092 -0.1246  0.0522 -0.8644
  706SOL    HW1 2117   2.923   2.875   1.024  3.0501 -1.3241  0.6311
  706SOL    HW2 2118   3.071   2.890   1.089 -1.0021  0.6321  2.1085
  707SOL     OW 2119   0.861   2.954   0.094 -0.2546  0.1358 -0.1170
  707SOL    HW1 2120   0.845   2.869   0.150 -3.2565  1.5422 -2.8567
  707SOL    HW2 2121   0.902   3.028   0.151 -0.7363 -0.5381  0.2426
  708SOL     OW 2122   0.874   2.049   1.430 -0.0318  0.7884  0.1906
  708SOL    HW1 2123   0.957   2.010   1.477  1.1345  1.2795  0.5324
  708SOL    HW2 2124   0.823   2.115   1.486 -0.9267 -1.3133 -0.2125
  709SOL     OW 2125   1.811   0.361   2.403  0.1101  0.3510 -0.2934
  709SOL    HW1 2126   1.728   0.381   2.459 -0.2767  0.3182 -0.6795
  709SOL    HW2 2127   1.870   0.445   2.401  1.3668 -0.3361 -1.6357
  710SOL     OW 2128   1.355   2.951   2.619  0.3479 -0.1694  0.4070
  710SOL    HW1 2129   1.286   2.918   2.686 -2.3706 -0.8277 -1.1084
  710SOL    HW2 2130   1.434   2.985   2.669  0.2723 -1.6457  1.8507
  711SOL     OW 2131   1.210   2.367   2.413  0.4861 -0.3151 -0.5304
  711SOL    HW1 2132   1.277   2.419   2.469 -0.1523  3.4913  1.0659
  711SOL    HW2 2133   1.164   2.435   2.347 -1.0645  1.6542  0.2180
  712SOL     OW 2134   1.201   2.166   2.954 -0.0283  0.4987  0.3993
  712SOL    HW1 2135   1.112   2.146   2.910  1.4519  1.0966 -1.1691
  712SOL    HW2 2136   1.197   2.166   3.059 -0.2699 -1.7347  1.8944
  713SOL     OW 2137   1.108   0.866   1.894 -0.3208 -0.3267 -0.2966
  713SOL    HW1 2138   1.113   0.944   1.825  0.9255  1.1732 -1.6104
  713SOL    HW2 2139   1.136   0.776   1.862 -1.4619  0.8754  1.3182
  714SOL     OW 2140   1.484   1.727   0.942 -0.0555  0.1209 -0.0064
  714SOL    HW1 2141   1.553   1.772   0.882  0.8197 -0.3772 -2.0694
  714SOL    HW2 2142   1.475   1.791   1.018  1.2697 -4.3556 -1.1046
  715SOL     OW 2143   0.039   0.568   0.531 -0.3225  0.4784  0.0008
  715SOL    HW1 2144   0.034   0.475   0.488 -0.2426 -0.0166 -1.0384
  715SOL    HW2 2145   3.050   0.607   0.539 -0.2240  1.4976  1.1647
  716SOL     OW 2146   0.610   2.797   0.304 -0.6638 -0.0966  0.5140
  716SOL    HW1 2147   0.710   2.782   0.313 -1.1430  1.1072  1.2907
  716SOL    HW2 2148   0.562   2.750   0.377 -0.1576 -0.4178 -3.6303
  717SOL     OW 2149   2.948   0.469   0.277 -0.2224  0.4334 -0.1963
  717SOL    HW1 2150   2.978   0.385   0.327  0.9088  0.2052  0.0988
  717SOL    HW2 2151   2.847   0.464   0.274 -1.1963  0.0257  1.1442
  718SOL     OW 2152   1.839   2.047   1.047  0.1159 -0.5744  0.0774
  718SOL    HW1 2153   1.928   1.993   1.041  1.6237  1.2860 -0.3655
  718SOL    HW2 2154   1.822   2.091   1.130  1.3752 -0.9145 -2.7059
  719SOL     OW 2155   2.964   2.392   1.009  0.0128 -0.4854  0.2511
  719SOL    HW1 2156   2.940   2.292   1.020 -0.6413 -2.1872  0.5874
  719SOL    HW2 2157   2.934   2.428   0.917  0.5672 -3.1515  1.5133
  720SOL     OW 2158   1.007   1.185   1.194  0.1539  0.2239 -0.5351
  720SOL    HW1 2159   1.049   1.270   1.225 -1.2625 -2.6636 -2.1170
  720SOL    HW2 2160   1.073   1.139   1.136 -0.0771  0.8336  0.1045
  721SOL     OW 2161   1.428   0.533   1.198  0.0353 -0.3208  0.1938
  721SOL    HW1 2162   1.344   0.518   1.139 -3.4760 -0.6183 -1.5969
  721SOL    HW2 2163   1.510   0.552   1.137  0.5410  0.1207  3.4798
  722SOL     OW 2164   1.445   1.186   1.675 -0.2659 -0.1735 -0.6203
  722SOL    HW1 2165   1.513   1.164   1.601  0.3157 -0.7595  2.0765
  722SOL    HW2 2166   1.376   1.108   1.681  1.2683  1.2292  2.3737
  723SOL     OW 2167   0.992   2.867   1.524  0.2308 -0.0539  0.4095
  723SOL    HW1 2168   0.942   2.807   1.454  0.8231  1.1219 -0.0028
  723SOL    HW2 2169   1.078   2.822   1.557  0.3728 -0.8138  1.0965
  724SOL     OW 2170   2.051   2.245   1.640  0.1226  0.2563  0.3127
  724SOL    HW1 2171   2.088   2.181   1.709 -2.6477 -1.0647 -0.0285
  724SOL    HW2 2172   1.972   2.202   1.592 -0.4572 -1.6162 -2.1121
  725SOL     OW 2173   0.956   2.820   1.183  0.3284 -0.2517 -0.7219
  725SOL    HW1 2174   0.882   2.783   1.244 -0.2454  1.1556  0.9419
  725SOL    HW2 2175   1.031   2.751   1.173  1.6247 -4.0204 -2.4165
  726SOL     OW 2176   1.454   0.037   0.233  0.0379  0.4059  0.1370
  726SOL    HW1 2177   1.485   0.134   0.258  1.5853  0.2648  1.9743
  726SOL    HW2 2178   1.534   3.082   0.206 -0.1392  2.5153 -0.9917
  727SOL     OW 2179   1.343   1.999   0.724  0.8642  0.3138  0.0218
  727SOL    HW1 2180   1.403   2.079   0.713  1.7350  1.7313 -0.0141
  727SOL    HW2 2181   1.363   1.919   0.662 -1.9165 -0.0421  2.1096
  728SOL     OW 2182   1.888   0.217   2.205  0.0133 -0.3439  0.6385
  728SOL    HW1 2183   1.854   0.273   2.285  0.0962  1.2320 -0.3329
  728SOL    HW2 2184   1.982   0.252   2.182 -0.8646  0.1307 -3.2785
  729SOL     OW 2185   2.340   1.501   1.292  0.2112 -0.1394 -0.5310
  729SOL    HW1 2186   2.243   1.535   1.272  1.0261  1.0199 -1.5815
  729SOL    HW2 2187   2.411   1.545   1.230 -0.4495 -1.4617  1.9801
  730SOL     OW 2188   2.054   0.714   2.650  0.0849  0.4742  0.0834
  730SOL    HW1 2189   2.131   0.778   2.653 -1.6286 -1.9175 -3.7848
  730SOL    HW2 2190   1.970   0.757   2.680  0.1463 -1.1595  0.6921
  731SOL     OW 2191   0.547   0.226   1.620 -0.1766  0.1600  0.0079
  731SOL    HW1 2192   0.474   0.267   1.562  2.9887  1.2826  2.6753
  731SOL    HW2 2193   0.508   0.208   1.713 -0.4451 -0.3796  2.6471
  732SOL     OW 2194   1.939   0.304   1.227 -0.0471  1.4688 -0.0577
  732SOL    HW1 2195   1.908   0.370   1.299  0.3838 -0.8262  2.0484
  732SOL    HW2 2196   1.939   0.357   1.140  1.2221  0.1431  2.3390
  733SOL     OW 2197   0.899   1.067   1.619  0.3528 -0.1300  0.6906
  733SOL    HW1 2198   0.823   1.088   1.684 -1.2827 -0.9275 -0.3108
  733SOL    HW2 2199   0.895   0.971   1.589 -0.0979  0.5254  1.4848
  734SOL     OW 2200   2.511   1.499   0.432  0.0302 -0.7754  0.1650
  734SOL    HW1 2201   2.464   1.571   0.374 -1.4790  1.0388 -0.3474
  734SOL    HW2 2202   2.588   1.542   0.486 -1.9160  0.2996 -0.2805
  735SOL     OW 2203   0.598   0.771   0.263 -0.0183 -0.4051 -0.0329
  735SOL    HW1 2204   0.620   0.812   0.172 -1.6497 -0.6769  2.3407
  735SOL    HW2 2205   0.597   0.671   0.244  0.7841 -0.1642 -0.9366
  736SOL     OW 2206   1.774   2.734   2.945  0.1625  0.3615  0.0231
  736SOL    HW1 2207   1.842   2.657   2.958 -3.6482 -4.0758 -0.2102
  736SOL    HW2 2208   1.684   2.705   2.987  0.0026  0.2677  2.5643
  737SOL     OW 2209   1.077   1.946   0.796  0.1638  0.1286 -0.3971
  737SOL    HW1 2210   1.087   1.881   0.873  0.9557 -0.3831  0.1986
  737SOL    HW2 2211   1.167   1.984   0.780  0.2121 -2.9629  1.7226
  738SOL     OW 2212   2.262   0.243   2.639 -0.1315 -0.0233  0.1470
  738SOL    HW1 2213   2.270   0.320   2.573  1.4085  0.7224 -0.8825
  738SOL    HW2 2214   2.198   0.266   2.716  1.0395 -2.3227 -3.6506
  739SOL     OW 2215   1.669   2.268   2.321 -0.0281 -0.6300 -0.5537
  739SOL    HW1 2216   1.697   2.206   2.243 -0.4339  0.9414  0.7447
  739SOL    HW2 2217   1.747   2.322   2.355  0.9287  0.2520  0.9335
  740SOL     OW 2218   1.828   2.255   1.883  0.0600  0.1904  0.4062
  740SOL    HW1 2219   1.760   2.328   1.872 -2.0410 -1.4092 -0.6767
  740SOL    HW2 2220   1.850   2.202   1.798  2.7407  0.0213 -0.6881
  741SOL     OW 2221   2.464   1.597   2.560 -0.6953 -0.2161 -0.1560
  741SOL    HW1 2222   2.377   1.548   2.536 -0.9230 -1.8718  0.5895
  741SOL    HW2 2223   2.456   1.633   2.657  0.6600  2.8203 -0.5500
  742SOL     OW 2224   0.972   1.471   2.810 -0.6715 -0.1063  0.1805
  742SOL    HW1 2225   1.069   1.499   2.791  1.2553  2.3924 -0.4002
  742SOL    HW2 2226   0.915   1.483   2.727  1.6178 -0.2016 -0.9085
  743SOL     OW 2227   1.555   1.330   2.656  0.1146 -0.8931 -0.3568
  743SOL    HW1 2228   1.490   1.300   2.586 -0.0903  0.2606  0.7472
  743SOL    HW2 2229   1.519   1.303   2.747  1.5282  2.9226 -1.0406
  744SOL     OW 2230   2.289   2.767   1.238 -0.1404 -0.2076  0.5885
  744SOL    HW1 2231   2.240   2.735   1.318 -1.0103 -2.6186 -1.9499
  744SOL    HW2 2232   2.227   2.763   1.155 -3.4980 -0.7981 -1.4893
  745SOL     OW 2233   2.340   1.069   0.936 -0.3847  0.3668  0.4474
  745SOL    HW1 2234   2.387   1.129   1.003 -0.0579  1.6293 -0.9887
  745SOL    HW2 2235   2.257   1.115   0.896  2.4678 -0.5855  0.5541
  746SOL     OW 2236   2.333   1.824   1.127  0.6212 -0.3445  0.1201
  746SOL    HW1 2237   2.393   1.740   1.126 -1.5715 -1.3619 -2.3494
  746SOL    HW2 2238   2.336   1.872   1.214  1.4195 -1.0635 -4.5463
  747SOL     OW 2239   1.906   3.034   0.255  0.2908 -0.6636 -0.0827
  747SOL    HW1 2240   1.840   3.032   0.334 -0.8622  1.4835 -0.8869
  747SOL    HW2 2241   1.918   2.941   0.213 -2.4475 -0.9596 -1.9368
  748SOL     OW 2242   0.796   1.720   0.178  0.3567  0.4299 -0.3779
  748SOL    HW1 2243   0.767   1.743   0.270 -0.6951 -3.8945 -3.1283
  748SOL    HW2 2244   0.796   1.621   0.154 -0.4407 -1.0389 -1.6316
  749SOL     OW 2245   2.900   0.458   2.108 -0.3127 -0.5273 -0.8450
  749SOL    HW1 2246   2.912   0.552   2.145 -0.7134  0.2872 -1.6963
  749SOL    HW2 2247   2.962   0.388   2.153  1.0702 -0.1705 -1.2163
  750SOL     OW 2248   1.211   0.577   1.890  0.0283 -0.4090 -0.2100
  750SOL    HW1 2249   1.262   0.504   1.942  1.1355 -0.1866  1.0589
  750SOL    HW2 2250   1.245   0.579   1.793 -2.0300  1.4973  1.1767
  751SOL     OW 2251   2.405   2.572   2.022 -0.1543  0.0602  0.1099
  751SOL    HW1 2252   2.411   2.514   1.936  0.2241  3.3471  0.8509
  751SOL    HW2 2253   2.374   2.668   2.003  0.5902  0.3094  1.2734
  752SOL     OW 2254   1.907   1.253   1.305 -0.1560 -0.7594 -0.3290
  752SOL    HW1 2255   1.851   1.175   1.264 -0.4155 -1.1606  0.3424
  752SOL    HW2 2256   1.979   1.267   1.233  0.4267  0.1953 -2.2055
  753SOL     OW 2257   1.272   0.918   2.099  0.4927  0.0701 -0.1778
  753SOL    HW1 2258   1.210   0.891   2.018 -3.1049 -1.2365 -1.8452
  753SOL    HW2 2259   1.358   0.863   2.102 -2.9094  2.7307 -1.3135
  754SOL     OW 2260   0.259   2.450   0.911  0.0567 -0.0154  1.1629
  754SOL    HW1 2261   0.303   2.544   0.906  1.4158  1.0794  2.8909
  754SOL    HW2 2262   0.208   2.434   0.995  3.2699 -1.6578 -0.0983
  755SOL     OW 2263   2.498   3.056   1.204  0.3490 -0.1887 -0.0775
  755SOL    HW1 2264   2.570   3.022   1.264 -3.6145  2.2135  1.4605
  755SOL    HW2 2265   2.409   3.062   1.252  0.6439  1.2352 -1.8392
  756SOL     OW 2266   1.796   2.132   2.125 -0.2759  0.3182  0.0104
  756SOL    HW1 2267   1.890   2.119   2.164  1.9690  0.1841  1.1959
  756SOL    HW2 2268   1.809   2.176   2.036  0.0595  0.9636  0.6402
  757SOL     OW 2269   2.786   2.983   1.968 -0.5530 -0.2811  0.1358
  757SOL    HW1 2270   2.853   3.044   1.922 -0.4840 -1.8304 -1.5089
  757SOL    HW2 2271   2.700   3.029   1.997  2.0250 -1.1424 -0.7885
  758SOL     OW 2272   0.575   2.580   1.204  0.3765  0.0557  0.0926
  758SOL    HW1 2273   0.623   2.578   1.111  1.7901  0.9552 -0.8917
  758SOL    HW2 2274   0.474   2.585   1.196  1.8190  1.7567  0.9964
  759SOL     OW 2275   1.928   1.037   0.995 -0.1779  0.2665  0.6248
  759SOL    HW1 2276   1.850   1.048   0.928 -1.9419 -0.0856 -2.7828
  759SOL    HW2 2277   1.996   1.113   0.991  0.2133 -1.1753  2.4148
  760SOL     OW 2278   1.447   0.356   1.598 -0.8947  0.3832  0.6943
  760SOL    HW1 2279   1.434   0.294   1.673 -1.2859  1.9088 -1.6195
  760SOL    HW2 2280   1.392   0.442   1.613 -0.6483  1.3403 -0.3574
  761SOL     OW 2281   2.128   0.139   1.133 -0.0798 -0.2624  0.3134
  761SOL    HW1 2282   2.121   0.132   1.030  1.0658 -1.1533 -2.4465
  761SOL    HW2 2283   2.058   0.202   1.175  0.1620  1.6495  1.2549
  762SOL     OW 2284   1.702   3.032   0.436 -0.3032 -1.0198 -0.2550
  762SOL    HW1 2285   1.660   0.016   0.471 -0.7736  2.4635 -0.4568
  762SOL    HW2 2286   1.633   2.964   0.398 -0.8932 -1.3451 -0.9711
  763SOL     OW 2287   0.879   0.461   1.427  0.1760 -0.1895  0.4753
  763SOL    HW1 2288   0.860   0.420   1.517  1.2360 -1.1855  0.2425
  763SOL    HW2 2289   0.809   0.537   1.412 -0.1793  2.7668  1.1991
  764SOL     OW 2290   2.375   2.481   2.304 -0.1382 -0.2569  0.3398
  764SOL    HW1 2291   2.426   2.410   2.260  0.4734 -1.0710  0.8526
  764SOL    HW2 2292   2.309   2.529   2.231 -4.0685  1.2554 -3.5945
  765SOL     OW 2293   0.054   1.365   2.344 -0.2460  0.2182 -0.8509
  765SOL    HW1 2294   0.080   1.276   2.301  0.1201  0.7125  1.2404
  765SOL    HW2 2295   0.126   1.388   2.411  0.2441 -0.9029  0.2873
  766SOL     OW 2296   2.908   1.153   2.521  0.2118 -0.4198 -0.4310
  766SOL    HW1 2297   2.972   1.224   2.477  2.2810  1.6160 -0.1667
  766SOL    HW2 2298   2.812   1.169   2.497  0.1610 -2.2256  1.2374
  767SOL     OW 2299   0.361   2.108   1.691  0.3405  0.6481 -0.5995
  767SOL    HW1 2300   0.379   2.026   1.634  0.4653 -1.0862 -0.3139
  767SOL    HW2 2301   0.288   2.082   1.757 -3.2554  0.8338  0.9298
  768SOL     OW 2302   0.694   0.813   0.017  1.1000 -0.5470  0.1633
  768SOL    HW1 2303   0.637   0.742   3.074  1.3349 -1.5973 -0.7350
  768SOL    HW2 2304   0.791   0.796   0.005 -2.9033  3.7453  3.7305
  769SOL     OW 2305   1.314   2.630   0.086  0.2258  0.0621  0.3766
  769SOL    HW1 2306   1.294   2.720   0.131 -1.0298 -0.3954  0.6078
  769SOL    HW2 2307   1.314   2.560   0.157 -1.4460 -0.5258  2.2388
  770SOL     OW 2308   1.047   0.220   2.512  0.0090  0.6388  0.2245
  770SOL    HW1 2309   1.106   0.302   2.494  0.6030  1.0391 -2.1596
  770SOL    HW2 2310   0.981   0.217   2.438  1.8060  1.9776  2.7215
  771SOL     OW 2311   0.803   2.821   0.672  0.1123 -0.1114  0.0105
  771SOL    HW1 2312   0.786   2.747   0.604 -2.1812  0.4868  1.0104
  771SOL    HW2 2313   0.721   2.835   0.728  0.3928 -0.8451  0.4986
  772SOL     OW 2314   2.553   1.072   0.092  0.1586  0.8421 -0.1259
  772SOL    HW1 2315   2.568   1.168   0.123  0.3094  1.1262  1.4939
  772SOL    HW2 2316   2.605   1.013   0.155 -3.1314 -0.7077 -1.5110
  773SOL     OW 2317   2.107   0.888   1.842  0.1371  0.3536  0.0205
  773SOL    HW1 2318   2.157   0.800   1.869  1.2902 -0.9145  0.9398
  773SOL    HW2 2319   2.150   0.916   1.752  0.1239 -0.9650  2.1011
  774SOL     OW 2320   0.643   0.248   0.593  0.6490 -0.4791  0.2667
  774SOL    HW1 2321   0.587   0.326   0.625  1.3067  0.6541 -0.2859
  774SOL    HW2 2322   0.602   0.210   0.510 -0.7795  0.7988  2.6185
  775SOL     OW 2323   1.602   0.146   0.548  0.2384  0.2186  0.3171
  775SOL    HW1 2324   1.538   0.114   0.622  0.7167 -0.2077  0.0608
  775SOL    HW2 2325   1.548   0.196   0.476 -0.0620  1.7760 -1.4644
  776SOL     OW 2326   2.463   0.325   2.348 -0.1464  0.2117 -0.5171
  776SOL    HW1 2327   2.518   0.338   2.263 -0.2905 -0.8406  0.1288
  776SOL    HW2 2328   2.447   0.224   2.377 -0.1243 -2.7189  0.7475
  777SOL     OW 2329   1.333   1.430   0.067  0.1361 -0.3376  0.4664
  777SOL    HW1 2330   1.274   1.494   0.017  2.6221 -0.5543  2.9404
  777SOL    HW2 2331   1.288   1.339   0.085  2.3355 -0.9225 -0.7268
  778SOL     OW 2332   0.275   2.541   0.184 -0.3341  0.1839 -0.4099
  778SOL    HW1 2333   0.212   2.565   0.262  0.9311  0.3937  0.7422
  778SOL    HW2 2334   0.220   2.536   0.097  1.7579 -0.0651  0.0530
  779SOL     OW 2335   2.988   1.616   0.250  0.0034 -0.6401 -0.4077
  779SOL    HW1 2336   2.939   1.546   0.186  0.8012  2.0509 -1.9906
  779SOL    HW2 2337   3.073   1.574   0.291 -1.3916 -0.8739  2.0806
  780SOL     OW 2338   1.727   0.276   1.975 -0.3068 -0.0048  0.3868
  780SOL    HW1 2339   1.762   0.261   2.070  0.3292  0.2807 -2.2380
  780SOL    HW2 2340   1.702   0.186   1.938  1.5449  1.5639  3.3540
  781SOL     OW 2341   1.740   1.434   1.424  0.0049  0.2603 -0.5226
  781SOL    HW1 2342   1.639   1.413   1.410  0.0122  1.0098  2.2966
  781SOL    HW2 2343   1.796   1.358   1.391  0.3265 -0.1700  1.3309
  782SOL     OW 2344   2.067   2.351   2.028  0.7704 -0.0008 -0.3887
  782SOL    HW1 2345   2.004   2.291   1.978  0.9335 -2.2546  2.5561
  782SOL    HW2 2346   2.164   2.337   2.004 -0.1638  2.2139 -0.7953
  783SOL     OW 2347   1.568   0.517   1.982 -0.2094 -0.1988  0.9807
  783SOL    HW1 2348   1.634   0.476   2.045 -1.5358 -1.5889 -2.1844
  783SOL    HW2 2349   1.524   0.447   1.926  0.5351  0.4576 -1.4216
  784SOL     OW 2350   1.682   1.083   2.201  0.6494 -0.6016  0.3292
  784SOL    HW1 2351   1.679   1.041   2.109 -0.4000  0.8672  0.6457
  784SOL    HW2 2352   1.708   1.178   2.190  0.0495 -1.2209 -1.4312
  785SOL     OW 2353   2.004   0.619   0.196  0.4458 -0.0387 -0.0021
  785SOL    HW1 2354   2.024   0.706   0.244  3.8062  1.0529  1.4389
  785SOL    HW2 2355   1.942   0.557   0.244 -0.4407  2.6510  0.4345
  786SOL     OW 2356   2.907   1.219   0.841  0.0603 -0.1001  0.0403
  786SOL    HW1 2357   2.831   1.265   0.791  1.0562  2.3332  0.8589
  786SOL    HW2 2358   2.970   1.177   0.772  0.3919  0.3493  0.6544
  787SOL     OW 2359   1.700   1.695   0.226 -0.2902  0.3086  0.1350
  787SOL    HW1 2360   1.789   1.744   0.230 -1.5757 -3.4033  0.3360
  787SOL    HW2 2361   1.636   1.741   0.159 -2.9267  0.5251 -0.1027
  788SOL     OW 2362   2.294   1.184   1.236 -0.2185  0.0449 -0.0228
  788SOL    HW1 2363   2.374   1.220   1.188  1.4932  0.3405 -0.8335
  788SOL    HW2 2364   2.282   1.230   1.329  0.7097 -0.5383  1.7833
  789SOL     OW 2365   2.864   1.653   2.486 -0.4894  0.7058  0.0376
  789SOL    HW1 2366   2.792   1.586   2.498 -1.7163 -0.0138  0.6557
  789SOL    HW2 2367   2.910   1.629   2.399  0.1678  1.9950  0.8621
  790SOL     OW 2368   0.713   2.985   2.589 -0.3871 -0.5957 -0.5090
  790SOL    HW1 2369   0.812   2.977   2.575 -1.1367  2.8194 -0.7372
  790SOL    HW2 2370   0.663   2.950   2.505 -0.0929  3.3732 -0.1040
  791SOL     OW 2371   0.548   2.596   2.765 -0.4044  0.2890 -0.3363
  791SOL    HW1 2372   0.537   2.698   2.762 -0.2960 -1.1663 -3.1167
  791SOL    HW2 2373   0.512   2.551   2.850  1.6976  0.6343  0.3734
  792SOL     OW 2374   1.435   0.227   2.271 -0.1578  0.2525  0.5859
  792SOL    HW1 2375   1.499   0.270   2.340 -0.3019  0.1483  2.5309
  792SOL    HW2 2376   1.439   0.124   2.276 -2.0212 -4.7061 -0.5565
  793SOL     OW 2377   2.669   0.089   2.132 -0.2796  0.5207 -0.1985
  793SOL    HW1 2378   2.638   0.185   2.122  3.3111 -1.0024  2.3205
  793SOL    HW2 2379   2.772   0.097   2.133  2.2097  0.1874  3.2119
  794SOL     OW 2380   0.598   0.434   1.856 -0.6479 -0.0678  0.1498
  794SOL    HW1 2381   0.514   0.430   1.915 -2.2767  0.1333 -2.8091
  794SOL    HW2 2382   0.668   0.366   1.885  2.2619  2.9232 -2.3907
  795SOL     OW 2383   2.675   1.309   0.710 -0.3847  0.4013 -0.0287
  795SOL    HW1 2384   2.724   1.286   0.620  0.7435 -1.0546 -3.7223
  795SOL    HW2 2385   2.612   1.232   0.727  2.1680 -1.8059 -1.1295
  796SOL     OW 2386   2.804   2.317   2.557  0.6932  0.0771 -0.2380
  796SOL    HW1 2387   2.723   2.296   2.496 -1.0586  0.6799 -2.2116
  796SOL    HW2 2388   2.828   2.238   2.617 -1.0352  2.6331  0.4896
  797SOL     OW 2389   2.674   2.172   0.131 -0.4374 -0.8084 -0.6320
  797SOL    HW1 2390   2.737   2.115   0.076  0.5155  0.0905 -0.8156
  797SOL    HW2 2391   2.621   2.241   0.071 -1.4218 -1.2649 -0.7934
  798SOL     OW 2392   0.482   0.717   1.873 -0.2086  1.1158  0.2356
  798SOL    HW1 2393   0.405   0.668   1.914 -2.7807 -2.1654  0.7063
  798SOL    HW2 2394   0.511   0.663   1.788 -0.3366 -0.1514  0.3638
  799SOL     OW 2395   2.713   0.736   2.411  0.5376 -0.0438 -0.4012
  799SOL    HW1 2396   2.610   0.745   2.408 -0.5997 -0.4080 -0.0479
  799SOL    HW2 2397   2.761   0.794   2.479  1.6774  0.0762 -0.5435
  800SOL     OW 2398   2.734   2.325   0.595 -0.3655  0.5107 -0.4501
  800SOL    HW1 2399   2.656   2.282   0.644  1.0612  2.1326 -2.1293
  800SOL    HW2 2400   2.785   2.392   0.660  1.4898  0.9029  2.0669
  801SOL     OW 2401   1.361   0.727   0.804 -0.8014 -0.2323  0.4318
  801SOL    HW1 2402   1.336   0.660   0.874 -0.4128  2.6851 -1.2673
  801SOL    HW2 2403   1.385   0.817   0.843  1.5720 -1.7598 -1.6524
  802SOL     OW 2404   1.633   2.034   0.875  0.1825  0.6279  0.1838
  802SOL    HW1 2405   1.707   2.035   0.947  1.6461  0.5040 -0.5529
  802SOL    HW2 2406   1.629   1.942   0.826 -0.1929 -1.2822 -0.9903
  803SOL     OW 2407   0.043   1.748   0.513 -0.2567 -0.3360  0.1835
  803SOL    HW1 2408   0.083   1.689   0.440 -1.2364 -0.5524 -1.2082
  803SOL    HW2 2409   0.118   1.786   0.571  0.2670 -1.2426 -0.7896
  804SOL     OW 2410   1.588   2.540   0.428 -0.4191 -1.0284 -0.1618
  804SOL    HW1 2411   1.504   2.542   0.371  0.8432 -1.0541  0.1179
  804SOL    HW2 2412   1.562   2.594   0.512  1.5551  1.4391 -2.1390
  805SOL     OW 2413   1.261   2.122   2.319 -0.6371  0.0622  0.0762
  805SOL    HW1 2414   1.266   2.217   2.357 -3.4903  0.4879 -1.4995
  805SOL    HW2 2415   1.339   2.099   2.256 -1.3232  0.9030 -0.3584
  806SOL     OW 2416   1.731   3.007   1.423 -0.1963  0.5153 -0.5976
  806SOL    HW1 2417   1.812   2.951   1.450 -2.0545  0.7660  2.1207
  806SOL    HW2 2418   1.748   0.001   1.422  0.9732 -1.3645 -1.6201
  807SOL     OW 2419   2.301   0.049   0.092 -0.2749  0.0525 -0.4817
  807SOL    HW1 2420   2.253   3.073   0.047  0.4290 -0.8333  0.4049
  807SOL    HW2 2421   2.277   0.128   0.035  0.4561 -1.1385  0.7242
  808SOL     OW 2422   0.506   1.788   3.063 -0.6899 -0.4969  0.0252
  808SOL    HW1 2423   0.466   1.795   2.965 -0.0680 -0.8405 -1.0992
  808SOL    HW2 2424   0.584   1.726   3.065 -0.7498  1.1508  0.7605
  809SOL     OW 2425   0.000   0.965   2.530 -0.1358  0.3517  0.2604
  809SOL    HW1 2426   0.023   0.868   2.515  0.3993 -1.2361  1.6037
  809SOL    HW2 2427   3.008   0.993   2.507 -2.5384 -1.2169 -1.1646
  810SOL     OW 2428   2.880   0.480   2.445 -0.2153  0.5751  0.7612
  810SOL    HW1 2429   2.828   0.565   2.451  1.2132 -0.2807  1.6999
  810SOL    HW2 2430   2.935   0.475   2.361 -1.3164  0.4473  3.3497
  811SOL     OW 2431   1.976   2.497   1.652 -0.0009 -0.3625  0.0785
  811SOL    HW1 2432   1.959   2.527   1.746  1.1093 -1.7145 -3.4663
  811SOL    HW2 2433   2.007   2.396   1.649  2.0660 -0.3094 -0.9871
  812SOL     OW 2434   1.214   0.293   0.258  0.2907 -1.1318  0.1087
  812SOL    HW1 2435   1.159   0.225   0.311 -1.8720 -0.0765  0.9753
  812SOL    HW2 2436   1.211   0.266   0.162 -0.5031 -0.5193  4.0279
  813SOL     OW 2437   1.915   0.486   1.968  0.0757  0.6917 -0.3398
  813SOL    HW1 2438   1.938   0.525   1.875  1.2914 -2.5577  0.4004
  813SOL    HW2 2439   1.841   0.418   1.965  2.1412 -0.0853 -0.8489
  814SOL     OW 2440   1.973   0.925   1.241  0.2141 -0.1583  0.0779
  814SOL    HW1 2441   2.071   0.918   1.265  0.5126  0.3434 -0.9379
  814SOL    HW2 2442   1.960   0.962   1.149  0.6958  0.3980  1.2553
  815SOL     OW 2443   0.602   1.064   0.594 -0.5776  0.7110 -0.5470
  815SOL    HW1 2444   0.661   0.993   0.641 -0.7880  1.6366 -1.7594
  815SOL    HW2 2445   0.506   1.033   0.587  2.8393 -0.9154 -0.3745
  816SOL     OW 2446   2.063   2.034   0.012  0.5371  0.5799 -0.1111
  816SOL    HW1 2447   2.124   2.048   3.034  1.0835 -2.9448 -1.6414
  816SOL    HW2 2448   2.105   1.997   0.094 -0.3775  0.4622  1.0999
  817SOL     OW 2449   2.880   2.592   1.171 -0.8025 -0.0372 -0.0067
  817SOL    HW1 2450   2.914   2.513   1.115 -1.2110 -4.3552 -1.2372
  817SOL    HW2 2451   2.932   2.681   1.154  1.2928  2.9694 -1.4382
  818SOL     OW 2452   1.278   0.612   3.029 -0.1012  0.2056 -0.2135
  818SOL    HW1 2453   1.189   0.568   3.039  1.4922  0.1321 -0.5885
  818SOL    HW2 2454   1.336   0.533   2.990 -0.3979 -0.7960  1.0390
  819SOL     OW 2455   0.775   0.634   0.894  0.1717 -0.7402 -0.1396
  819SOL    HW1 2456   0.714   0.713   0.915 -0.2266  3.1014  0.5430
  819SOL    HW2 2457   0.750   0.551   0.950  0.1040  1.1669  0.6996
  820SOL     OW 2458   2.176   0.625   1.231  0.3420  0.2088 -0.0256
  820SOL    HW1 2459   2.225   0.711   1.223  2.3359 -3.9493  0.1462
  820SOL    HW2 2460   2.176   0.590   1.325 -0.5317  1.0514 -3.2027
  821SOL     OW 2461   3.094   0.101   0.636 -0.7056  0.1466  0.2379
  821SOL    HW1 2462   3.019   0.145   0.676  3.7516 -1.8918 -1.4404
  821SOL    HW2 2463   3.089   0.004   0.662 -1.6999  0.7440  1.5381
  822SOL     OW 2464   0.766   2.321   2.539  0.1167 -0.3884  0.2176
  822SOL    HW1 2465   0.782   2.411   2.580  2.5684 -2.5231 -2.1427
  822SOL    HW2 2466   0.710   2.331   2.452  0.9619  0.7816 -0.7194
  823SOL     OW 2467   3.043   1.248   1.947 -0.4609  0.2085 -0.2018
  823SOL    HW1 2468   3.020   1.217   1.853  4.1174 -2.9927  1.6043
  823SOL    HW2 2469   3.083   1.169   1.995 -0.3388 -3.0329 -1.1448
  824SOL     OW 2470   0.927   3.061   2.334  0.0558 -0.1770 -0.1669
  824SOL    HW1 2471   0.939   3.005   2.419 -0.4467 -2.9559 -0.7588
  824SOL    HW2 2472   0.857   3.017   2.272 -0.4192 -1.7859  1.0359
  825SOL     OW 2473   1.333   1.936   2.938  0.2097 -0.5591  0.7381
  825SOL    HW1 2474   1.279   2.023   2.937 -1.0037 -0.0366 -1.1359
  825SOL    HW2 2475   1.426   1.954   2.903  1.4743  0.5157 -0.9963
  826SOL     OW 2476   1.211   2.452   2.953  0.6180 -0.2010  0.5255
  826SOL    HW1 2477   1.231   2.504   3.038  1.2061  2.3632  1.9077
  826SOL    HW2 2478   1.194   2.351   2.972 -3.7438  4.4217 -0.4185
  827SOL     OW 2479   0.364   1.723   1.711 -0.1265  0.2219 -0.0951
  827SOL    HW1 2480   0.302   1.644   1.725  0.5605  0.1468  1.2615
  827SOL    HW2 2481   0.394   1.769   1.796 -0.1309 -0.4165 -0.3685
  828SOL     OW 2482   0.263   1.659   1.364  0.0858  0.4027 -0.0005
  828SOL    HW1 2483   0.353   1.617   1.347  0.7391  2.9893 -3.0501
  828SOL    HW2 2484   0.218   1.671   1.275 -0.6361  2.0269 -0.9747
  829SOL     OW 2485   2.933   2.545   0.188 -0.5182 -0.6021 -0.0882
  829SOL    HW1 2486   2.972   2.473   0.245  1.3154  1.0165 -1.8833
  829SOL    HW2 2487   2.896   2.497   0.105 -0.9853 -1.5585 -0.4247
  830SOL     OW 2488   1.202   0.870   0.624 -0.0268  0.1048  0.3133
  830SOL    HW1 2489   1.219   0.847   0.527  2.9302 -1.2810  1.3918
  830SOL    HW2 2490   1.268   0.822   0.685  1.0072  0.1251  1.4215
  831SOL     OW 2491   2.800   2.471   3.049  0.1165  0.0942  0.5295
  831SOL    HW1 2492   2.781   2.393   2.990  1.1609  2.3612  1.8856
  831SOL    HW2 2493   2.717   2.514   3.086  0.0758  1.2808 -0.2067
  832SOL     OW 2494   1.831   2.447   0.134 -0.6330 -0.1951 -0.4123
  832SOL    HW1 2495   1.736   2.410   0.119  0.4254 -0.0499 -0.7601
  832SOL    HW2 2496   1.840   2.508   0.214  1.6648 -0.3171  0.2394
  833SOL     OW 2497   0.589   1.089   2.465 -0.3233  0.6781 -0.0203
  833SOL    HW1 2498   0.530   1.146   2.405 -0.9524  1.6784 -1.9510
  833SOL    HW2 2499   0.619   1.143   2.545 -0.0912 -0.7955  0.5181
  834SOL     OW 2500   2.659   0.448   0.785 -0.0183 -0.6194 -0.1540
  834SOL    HW1 2501   2.629   0.430   0.690 -0.2254  1.8064 -0.9248
  834SOL    HW2 2502   2.658   0.548   0.802 -2.9884 -1.9589  1.4952
  835SOL     OW 2503   2.193   0.614   2.156  0.2313  0.4950  0.1402
  835SOL    HW1 2504   2.266   0.665   2.192 -2.6788 -5.7097 -2.3281
  835SOL    HW2 2505   2.110   0.673   2.157  1.1368  0.7891  0.9047
  836SOL     OW 2506   0.662   2.066   0.516 -0.1934  0.2680  0.0292
  836SOL    HW1 2507   0.659   2.079   0.618 -1.4091 -0.1584  1.7424
  836SOL    HW2 2508   0.694   1.971   0.489 -0.0679 -0.9260 -0.7691
  837SOL     OW 2509   2.342   1.462   1.710  0.5524  0.4464  0.4933
  837SOL    HW1 2510   2.350   1.530   1.631  2.1724 -1.5813  0.6971
  837SOL    HW2 2511   2.273   1.497   1.777  0.2715  0.1654  0.8475
  838SOL     OW 2512   0.118   1.095   2.294  0.7881 -0.0260  0.1389
  838SOL    HW1 2513   0.079   1.036   2.372 -1.8823  0.3688 -1.9924
  838SOL    HW2 2514   0.211   1.064   2.269 -0.2770 -0.8676 -0.6751
  839SOL     OW 2515   0.441   2.873   2.817  0.6771 -0.2447 -0.1545
  839SOL    HW1 2516   0.371   2.815   2.767 -2.9565  0.4923 -0.5960
  839SOL    HW2 2517   0.388   2.937   2.878 -0.0004 -1.3985 -2.5915
  840SOL     OW 2518   0.100   1.313   2.701  0.4087  0.5474 -0.3588
  840SOL    HW1 2519   0.199   1.297   2.708  2.6482  2.9657 -0.7635
  840SOL    HW2 2520   0.046   1.244   2.750  2.4004 -1.3194  2.3286
  841SOL     OW 2521   0.438   2.182   2.718 -0.3357 -0.6648  0.1891
  841SOL    HW1 2522   0.434   2.271   2.666 -2.4553  0.8103 -2.6342
  841SOL    HW2 2523   0.534   2.174   2.738 -3.9219  0.0831 -2.2388
  842SOL     OW 2524   0.976   0.142   0.973  0.4521 -0.8372  0.5811
  842SOL    HW1 2525   0.957   0.213   1.044 -0.3032  0.5699  2.9818
  842SOL    HW2 2526   0.918   0.168   0.896  1.1935  0.8966  2.8557
  843SOL     OW 2527   2.991   1.586   2.255  0.2119  0.0084 -0.0111
  843SOL    HW1 2528   3.048   1.640   2.191 -2.8400 -2.0266 -0.6740
  843SOL    HW2 2529   3.042   1.499   2.284 -0.3179  0.2424 -0.0855
  844SOL     OW 2530   1.459   2.071   2.148 -0.3398  0.9314 -0.1746
  844SOL    HW1 2531   1.478   2.057   2.050 -0.7849 -3.3179  0.0307
  844SOL    HW2 2532   1.509   1.995   2.200  2.7949 -1.9921  1.2703
  845SOL     OW 2533   1.809   3.039   2.557  0.7449 -0.0570 -0.2807
  845SOL    HW1 2534   1.717   3.049   2.591  1.4856 -1.0710 -0.8864
  845SOL    HW2 2535   1.871   0.008   2.602 -1.4626  1.1487  1.9224
  846SOL     OW 2536   2.486   1.579   3.055 -0.2222 -0.0204  0.0167
  846SOL    HW1 2537   2.406   1.546   0.011 -0.8850  1.1936 -1.4473
  846SOL    HW2 2538   2.534   1.506   2.999 -0.3794  0.5120  0.5888
  847SOL     OW 2539   2.414   0.138   2.837 -0.0575 -0.4747  0.1520
  847SOL    HW1 2540   2.366   0.169   2.752 -0.7387  0.2474 -2.6287
  847SOL    HW2 2541   2.511   0.167   2.846  1.2053  0.5464  0.1921
  848SOL     OW 2542   2.305   0.536   0.299  0.6656 -0.3658 -0.1592
  848SOL    HW1 2543   2.217   0.493   0.272 -0.8226 -0.3923  1.6902
  848SOL    HW2 2544   2.296   0.547   0.400  0.4879 -1.5116 -0.3756
  849SOL     OW 2545   1.211   0.006   2.920  0.4469  0.1278  0.8089
  849SOL    HW1 2546   1.204   3.029   2.857 -0.2099  0.9228 -1.4902
  849SOL    HW2 2547   1.309   0.035   2.926  3.1773 -0.4573 -1.6224
  850SOL     OW 2548   2.988   0.759   0.334  0.0205  0.3648 -0.0630
  850SOL    HW1 2549   3.004   0.661   0.316 -1.5290  1.2715  0.8993
  850SOL    HW2 2550   2.891   0.778   0.349 -3.2035  0.1098  0.6935
  851SOL     OW 2551   0.340   1.293   1.481  0.0109 -0.2036  0.3480
  851SOL    HW1 2552   0.442   1.296   1.474  0.0907 -1.4748 -1.4914
  851SOL    HW2 2553   0.302   1.326   1.388 -1.0993 -0.4424 -1.8012
  852SOL     OW 2554   1.478   0.741   2.085 -0.1751 -0.0342  0.0304
  852SOL    HW1 2555   1.526   0.751   2.174 -1.6448 -0.3331 -0.2935
  852SOL    HW2 2556   1.490   0.646   2.049 -1.3136  3.0580 -0.0460
  853SOL     OW 2557   2.238   1.495   0.049 -0.4064 -0.5940 -0.0837
  853SOL    HW1 2558   2.239   1.408   3.101  0.6600  0.0024  2.9737
  853SOL    HW2 2559   2.179   1.563   0.002 -2.3659 -2.4124  1.5756
  854SOL     OW 2560   1.492   1.136   1.925  0.3292 -0.4059  0.1146
  854SOL    HW1 2561   1.471   1.172   1.829 -1.5735  2.6783  1.1813
  854SOL    HW2 2562   1.418   1.144   1.993 -3.5156  0.9422  0.2921
  855SOL     OW 2563   0.173   2.397   1.802  0.6542 -0.6094  0.0191
  855SOL    HW1 2564   0.215   2.481   1.757  1.5624  0.3930  1.1172
  855SOL    HW2 2565   0.159   2.322   1.734 -1.2342 -0.3061 -1.0433
  856SOL     OW 2566   1.246   1.277   2.651  0.7883  0.0212 -0.2113
  856SOL    HW1 2567   1.285   1.260   2.555 -0.5214 -3.3347 -2.4488
  856SOL    HW2 2568   1.190   1.199   2.691  0.1213  0.7050  1.1471
  857SOL     OW 2569   1.064   1.067   2.740 -0.5239 -0.1479  0.3666
  857SOL    HW1 2570   1.030   0.972   2.761  0.3137 -2.6584  0.5455
  857SOL    HW2 2571   1.015   1.100   2.658  0.4254 -1.4930  1.9284
  858SOL     OW 2572   0.304   0.443   1.830  0.3916  0.0277 -0.2620
  858SOL    HW1 2573   0.319   0.340   1.815 -2.9648 -1.5032 -2.3223
  858SOL    HW2 2574   0.228   0.479   1.777  2.5259  1.5486  2.1763
  859SOL     OW 2575   2.345   0.341   0.694  0.3411  0.7512  0.1945
  859SOL    HW1 2576   2.346   0.428   0.640 -0.9146 -0.7597 -2.1589
  859SOL    HW2 2577   2.368   0.366   0.792 -0.3886  0.7873 -0.4138
  860SOL     OW 2578   0.913   0.819   1.526  0.0816  0.5737  0.3204
  860SOL    HW1 2579   0.872   0.783   1.612  1.3968 -0.8536 -0.4158
  860SOL    HW2 2580   0.974   0.748   1.485 -4.0604  0.4784 -0.4530
  861SOL     OW 2581   1.818   0.711   1.344  0.7132  0.0046  0.5600
  861SOL    HW1 2582   1.867   0.782   1.295 -0.9741 -0.4903  0.3998
  861SOL    HW2 2583   1.741   0.742   1.401 -2.4445 -0.6620 -1.4728
  862SOL     OW 2584   0.864   0.205   2.326  0.4676  1.0259 -0.4279
  862SOL    HW1 2585   0.892   0.104   2.325  0.0702 -5.9757 -1.2516
  862SOL    HW2 2586   0.768   0.205   2.296  2.2645  0.4682  1.2247
  863SOL     OW 2587   2.733   0.332   1.441 -0.3818 -0.1992  0.0412
  863SOL    HW1 2588   2.664   0.369   1.378  1.4509 -1.4267 -0.4793
  863SOL    HW2 2589   2.828   0.338   1.395  0.8159 -1.3984 -0.6637
  864SOL     OW 2590   2.726   3.063   2.360  0.4214  0.1870  0.7034
  864SOL    HW1 2591   2.819   3.047   2.322  3.0101 -3.3429 -0.8898
  864SOL    HW2 2592   2.667   0.011   2.290 -1.6205  2.4730  0.8603
  865SOL     OW 2593   1.403   1.231   2.445  0.4538 -0.4155  0.3434
  865SOL    HW1 2594   1.473   1.162   2.459 -1.4698 -0.2520  0.3222
  865SOL    HW2 2595   1.366   1.237   2.350 -0.2899  1.7713  1.1418
  866SOL     OW 2596   2.521   2.516   0.890 -0.4193 -0.1643  0.0552
  866SOL    HW1 2597   2.549   2.543   0.987  1.0817 -2.0125  0.3626
  866SOL    HW2 2598   2.550   2.424   0.868  0.4422 -0.2497 -0.4041
  867SOL     OW 2599   2.587   2.595   1.138 -1.1821  0.2112 -0.2672
  867SOL    HW1 2600   2.551   2.644   1.218  2.9395 -2.1132 -1.0670
  867SOL    HW2 2601   2.687   2.605   1.142  1.4815  1.2826  2.2238
  868SOL     OW 2602   3.011   1.418   1.620  0.7088 -0.2057  0.1331
  868SOL    HW1 2603   2.940   1.435   1.692 -0.1329 -0.6594  1.0583
  868SOL    HW2 2604   2.997   1.324   1.591 -0.6853  2.5256 -2.7942
  869SOL     OW 2605   2.091   1.749   2.029 -0.3340 -1.1522 -0.0391
  869SOL    HW1 2606   2.170   1.739   2.094  2.0072  1.7925 -0.6465
  869SOL    HW2 2607   2.007   1.708   2.059  1.2928 -1.3397 -0.4587
  870SOL     OW 2608   1.440   0.965   0.917 -0.9806  0.3555  0.0812
  870SOL    HW1 2609   1.485   0.957   1.010  0.8807  0.8159  0.9931
  870SOL    HW2 2610   1.447   1.051   0.864  0.5862  1.6187 -2.4461
  871SOL     OW 2611   2.459   1.638   1.930 -0.0673 -0.3627  0.1932
  871SOL    HW1 2612   2.389   1.657   2.002 -0.7302  1.4850  0.5008
  871SOL    HW2 2613   2.473   1.718   1.870  0.8777 -0.7828  3.4779
  872SOL     OW 2614   1.380   1.734   2.585  0.3113 -0.1645 -0.0162
  872SOL    HW1 2615   1.436   1.706   2.666 -0.3045  0.7832 -1.8036
  872SOL    HW2 2616   1.306   1.791   2.615  0.2780  0.3815 -0.4230
  873SOL     OW 2617   1.178   1.262   1.450 -0.2679  0.4016 -0.4032
  873SOL    HW1 2618   1.123   1.330   1.399  1.1926 -0.8349  1.7360
  873SOL    HW2 2619   1.211   1.296   1.541  0.4231 -1.2652  2.4582
  874SOL     OW 2620   1.343   1.198   1.268  0.5773  0.2995  0.8032
  874SOL    HW1 2621   1.261   1.208   1.326 -0.2413  1.1119 -2.6807
  874SOL    HW2 2622   1.407   1.275   1.284 -1.9434 -2.9630  0.3498
  875SOL     OW 2623   2.785   0.061   2.624  0.0080 -0.4806  0.3271
  875SOL    HW1 2624   2.756   0.136   2.559 -0.2000  1.1414 -0.9601
  875SOL    HW2 2625   2.729   3.082   2.603 -0.1192 -2.0805 -1.1225
  876SOL     OW 2626   0.825   0.836   0.426  0.3477 -0.6309  0.1156
  876SOL    HW1 2627   0.788   0.826   0.519 -1.1074  1.5435 -2.7246
  876SOL    HW2 2628   0.744   0.810   0.364 -3.1947 -2.9781 -2.7778
  877SOL     OW 2629   1.800   2.969   0.693 -0.6150 -0.5706  0.3881
  877SOL    HW1 2630   1.784   3.004   0.599  2.0090  0.5648  0.3942
  877SOL    HW2 2631   1.855   2.873   0.686  2.5876 -4.3309  0.3859
  878SOL     OW 2632   2.579   1.976   0.342  0.3195  0.0487 -0.1483
  878SOL    HW1 2633   2.646   1.898   0.351  2.3428  0.0330  0.7460
  878SOL    HW2 2634   2.609   2.041   0.265  1.7092 -0.1885 -2.5870
  879SOL     OW 2635   2.995   2.391   1.855 -0.4258 -0.3356  0.3920
  879SOL    HW1 2636   2.955   2.318   1.911  0.1534 -1.3293 -0.1701
  879SOL    HW2 2637   3.098   2.380   1.854  0.8068 -2.0581  1.0620
  880SOL     OW 2638   0.309   1.584   0.817  0.7206 -0.3440  0.1885
  880SOL    HW1 2639   0.376   1.595   0.892 -1.5353 -0.1332 -3.2165
  880SOL    HW2 2640   0.356   1.588   0.726 -1.1388 -3.4556  0.7835
  881SOL     OW 2641   1.317   0.375   2.688 -0.1089 -0.2487 -0.0833
  881SOL    HW1 2642   1.289   0.278   2.667  1.5423 -0.9286  1.6214
  881SOL    HW2 2643   1.248   0.439   2.727  1.7754  0.3329  0.5427
  882SOL     OW 2644   2.510   1.105   0.731  0.2157 -0.4981 -0.2736
  882SOL    HW1 2645   2.425   1.106   0.784  0.2982 -0.1634 -2.2038
  882SOL    HW2 2646   2.537   1.011   0.707  2.4515  1.9084  0.8154
  883SOL     OW 2647   1.630   0.707   2.510 -0.6409 -0.1071  0.2587
  883SOL    HW1 2648   1.535   0.709   2.542  1.2761  0.0564 -2.4064
  883SOL    HW2 2649   1.642   0.751   2.417 -1.3960  1.0274 -0.1652
  884SOL     OW 2650   0.071   0.106   1.878  0.1905 -0.2927 -0.4118
  884SOL    HW1 2651   3.082   0.093   1.838  1.9134  0.0981 -0.3162
  884SOL    HW2 2652   0.106   0.026   1.934  1.0493 -1.4109  0.7392
  885SOL     OW 2653   1.987   0.938   2.291 -0.3327 -0.0500  0.2720
  885SOL    HW1 2654   1.993   1.004   2.208 -0.3962 -1.5461 -3.8235
  885SOL    HW2 2655   1.937   0.856   2.258 -0.2699 -0.4868 -2.4379
  886SOL     OW 2656   1.709   0.497   2.963  0.2371  0.0250 -0.8246
  886SOL    HW1 2657   1.717   0.427   3.040 -1.0723 -2.5546  0.3179
  886SOL    HW2 2658   1.784   0.477   2.899 -1.6500  0.2484  1.3696
  887SOL     OW 2659   1.166   2.647   1.599 -0.3076 -0.0268 -0.1116
  887SOL    HW1 2660   1.267   2.641   1.593  0.2029  0.6591 -3.1155
  887SOL    HW2 2661   1.122   2.581   1.533  0.5786  0.5818 -1.5572
  888SOL     OW 2662   2.511   0.871   1.405 -0.0794 -0.2760 -0.0477
  888SOL    HW1 2663   2.409   0.872   1.384  0.4960 -0.0413  1.1798
  888SOL    HW2 2664   2.547   0.961   1.416  0.5208 -0.9723  0.3712
  889SOL     OW 2665   1.833   2.837   0.994 -0.1812  0.5314  0.4003
  889SOL    HW1 2666   1.854   2.883   0.902  1.1065 -0.1953 -5.3018
  889SOL    HW2 2667   1.766   2.891   1.046 -0.9372  0.0932  0.3196
  890SOL     OW 2668   1.083   2.508   0.645  0.7173 -0.1083 -0.4332
  890SOL    HW1 2669   1.160   2.446   0.663  1.5160 -0.9179  0.3352
  890SOL    HW2 2670   1.074   2.571   0.726  1.2906  2.3466 -0.1425
  891SOL     OW 2671   2.848   1.436   0.113  0.0731  0.3111  0.1843
  891SOL    HW1 2672   2.765   1.382   0.140  1.0252 -2.1802 -1.0981
  891SOL    HW2 2673   2.837   1.485   0.023  0.9608  1.6316 -0.8207
  892SOL     OW 2674   2.204   1.554   2.508 -0.1851 -0.1233 -0.6392
  892SOL    HW1 2675   2.234   1.525   2.415  2.1963 -1.2466 -1.6951
  892SOL    HW2 2676   2.125   1.616   2.496  1.5266 -0.7374 -1.9880
  893SOL     OW 2677   2.405   2.375   1.126  0.4169  0.2711  0.2731
  893SOL    HW1 2678   2.379   2.329   1.036 -0.1128  1.6009 -2.2077
  893SOL    HW2 2679   2.482   2.442   1.112  2.6805 -2.7939 -1.0621
  894SOL     OW 2680   0.212   0.759   0.622 -0.2576 -0.7800 -0.1726
  894SOL    HW1 2681   0.307   0.739   0.653 -0.6160 -1.6731  0.4036
  894SOL    HW2 2682   0.154   0.684   0.586 -2.3421  0.8549 -0.0135
  895SOL     OW 2683   2.880   2.152   2.307 -0.4851 -0.2132  0.3676
  895SOL    HW1 2684   2.950   2.197   2.364  0.0947 -0.1955 -1.4202
  895SOL    HW2 2685   2.829   2.088   2.364 -0.0806  3.1348 -1.5920
  896SOL     OW 2686   1.583   3.040   2.766  0.2273 -0.2282 -0.0942
  896SOL    HW1 2687   1.550   2.978   2.842  1.5089 -0.2072  1.9806
  896SOL    HW2 2688   1.612   0.029   2.795  3.3310 -2.1729 -1.9957
  897SOL     OW 2689   3.025   1.751   1.768 -0.1598  1.1907 -0.1362
  897SOL    HW1 2690   3.082   1.698   1.700  1.5494  0.2100  2.1642
  897SOL    HW2 2691   2.924   1.724   1.762 -1.0611 -0.4870  1.1803
  898SOL     OW 2692   0.623   2.184   1.786  0.0695  0.1335  0.2895
  898SOL    HW1 2693   0.536   2.147   1.750 -2.6464  0.3249  0.3399
  898SOL    HW2 2694   0.680   2.203   1.700 -1.8580  0.7498 -0.1845
  899SOL     OW 2695   1.678   3.101   1.878 -0.1939 -0.1785  0.1618
  899SOL    HW1 2696   1.737   3.020   1.858 -0.1864 -0.9013 -0.8266
  899SOL    HW2 2697   1.592   3.096   1.826 -1.6583  0.6072  0.9567
  900SOL     OW 2698   1.235   1.190   0.470  0.4064 -0.6016  0.0629
  900SOL    HW1 2699   1.327   1.155   0.500 -1.4941 -1.0316 -3.0531
  900SOL    HW2 2700   1.160   1.135   0.508  2.4446  3.1722 -0.9978
  901SOL     OW 2701   1.528   1.008   2.582 -0.0723 -0.5134  0.9624
  901SOL    HW1 2702   1.513   0.989   2.682 -0.5880  0.4469 -4.9737
  901SOL    HW2 2703   1.498   0.931   2.528  1.1869  1.7792  4.6149
  902SOL     OW 2704   0.110   2.403   1.133 -0.3305  0.9476 -0.3289
  902SOL    HW1 2705   0.019   2.418   1.091  0.7416 -0.0787  1.3808
  902SOL    HW2 2706   0.114   2.426   1.231  0.1756 -0.7999 -0.0618
  903SOL     OW 2707   2.552   1.383   2.313 -0.2846  0.2895  0.3856
  903SOL    HW1 2708   2.603   1.304   2.275  0.6425 -1.2979  0.3663
  903SOL    HW2 2709   2.602   1.422   2.397  0.0064  0.1567  1.4683
  904SOL     OW 2710   1.489   1.838   0.079 -0.3667  0.6364  0.3179
  904SOL    HW1 2711   1.445   1.903   0.143  1.2969  0.0819 -2.0569
  904SOL    HW2 2712   1.434   1.831   3.096 -1.6176 -0.5040 -2.5789
  905SOL     OW 2713   2.068   2.805   1.914  0.5370  0.2835  0.3181
  905SOL    HW1 2714   2.017   2.717   1.910  1.8121  1.1273  2.5361
  905SOL    HW2 2715   2.141   2.808   1.988  0.7584 -0.6995 -0.4218
  906SOL     OW 2716   1.768   2.805   0.119 -0.4990  0.1292  0.6999
  906SOL    HW1 2717   1.792   2.775   0.025 -0.0818  1.1444  0.9616
  906SOL    HW2 2718   1.713   2.895   0.111  0.0646  2.3462 -1.5741
  907SOL     OW 2719   0.355   2.697   0.921 -0.0612  0.1396  0.0569
  907SOL    HW1 2720   0.345   2.753   1.008 -1.4785  1.3331 -0.8952
  907SOL    HW2 2721   0.291   2.733   0.849 -0.1952  1.4848  0.2019
  908SOL     OW 2722   0.636   2.734   1.844  0.8236 -0.6781 -0.4118
  908SOL    HW1 2723   0.724   2.785   1.816  1.1273 -0.0582 -0.8943
  908SOL    HW2 2724   0.632   2.705   1.943  0.5835 -0.3197 -1.7380
  909SOL     OW 2725   1.851   0.449   1.443  0.4094  0.0612 -0.0573
  909SOL    HW1 2726   1.851   0.532   1.389 -1.6560 -3.3755  1.3003
  909SOL    HW2 2727   1.862   0.471   1.538 -1.2742 -3.9268 -3.1364
  910SOL     OW 2728   0.592   0.503   0.220 -0.4790  0.6058  0.1411
  910SOL    HW1 2729   0.543   0.430   0.164 -2.8546 -3.1153  1.4731
  910SOL    HW2 2730   0.660   0.461   0.284  2.7076 -0.6924 -3.2556
  911SOL     OW 2731   0.347   3.058   3.010 -0.6748 -0.1396 -0.2931
  911SOL    HW1 2732   0.448   3.080   3.007 -0.2801  1.2293 -0.5391
  911SOL    HW2 2733   0.326   3.007   3.093 -0.6154 -0.5376 -0.0194
  912SOL     OW 2734   0.011   2.139   2.666  0.0952 -0.8144 -0.1386
  912SOL    HW1 2735   0.067   2.215   2.701 -0.8164  1.2585  3.0906
  912SOL    HW2 2736   0.010   2.138   2.563  1.2863  1.4539 -1.9307
  913SOL     OW 2737   2.494   2.749   0.209 -0.4081 -0.0685 -0.4230
  913SOL    HW1 2738   2.504   2.850   0.195  2.0690  1.8896 -0.4628
  913SOL    HW2 2739   2.516   2.715   0.304  1.6815 -0.8094  0.2390
  914SOL     OW 2740   1.322   1.526   1.932  0.6137  0.6904 -0.1741
  914SOL    HW1 2741   1.362   1.476   2.005  0.9298  0.7096 -2.6717
  914SOL    HW2 2742   1.360   1.620   1.941 -0.0136 -0.2397  1.4076
  915SOL     OW 2743   2.918   2.449   2.316  0.0385  0.6804  0.1501
  915SOL    HW1 2744   3.019   2.440   2.306 -1.1242 -1.4316  0.6558
  915SOL    HW2 2745   2.882   2.355   2.327 -3.5186  1.5780 -1.0055
  916SOL     OW 2746   3.019   0.672   2.256 -0.2205 -0.0562  0.2212
  916SOL    HW1 2747   2.953   0.745   2.233 -1.1239 -0.0151 -0.6008
  916SOL    HW2 2748   0.004   0.696   2.207  2.3795 -0.1945 -2.0609
  917SOL     OW 2749   1.892   0.094   0.033  0.5167  0.4943  0.4822
  917SOL    HW1 2750   1.908   0.054   0.125  0.7093 -0.0925 -0.7108
  917SOL    HW2 2751   1.946   0.046   3.064 -3.0995 -1.4010 -2.3649
  918SOL     OW 2752   1.889   2.913   2.295 -0.4797 -0.5950 -0.2530
  918SOL    HW1 2753   1.857   2.937   2.392 -2.6377  0.4398 -1.3721
  918SOL    HW2 2754   1.853   2.984   2.225 -3.4670  0.9739 -0.9947
  919SOL     OW 2755   1.591   2.227   1.623 -0.0737 -0.1219 -0.9693
  919SOL    HW1 2756   1.587   2.290   1.705  2.3037 -1.8422 -0.3011
  919SOL    HW2 2757   1.505   2.171   1.607 -0.5817 -1.4882 -0.3003
  920SOL     OW 2758   3.007   1.031   0.111 -0.3874  0.6712  0.4065
  920SOL    HW1 2759   3.099   0.989   0.135  1.7198 -3.2949 -0.6614
  920SOL    HW2 2760   3.011   1.130   0.113  1.2162 -3.9041  2.1542
  921SOL     OW 2761   2.458   1.056   2.465 -0.4303  0.0025 -0.4871
  921SOL    HW1 2762   2.494   1.090   2.381 -2.0563 -0.3221  3.2233
  921SOL    HW2 2763   2.524   1.068   2.540 -3.2238 -1.6406 -1.2746
  922SOL     OW 2764   1.141   1.837   2.695 -0.7781  0.4590 -0.0213
  922SOL    HW1 2765   1.127   1.856   2.796  0.8844  1.8508  0.1867
  922SOL    HW2 2766   1.064   1.788   2.650  2.9931 -0.2948  1.8348
  923SOL     OW 2767   0.724   1.030   2.210 -0.7605  0.4125  0.2026
  923SOL    HW1 2768   0.679   1.006   2.300 -2.8014  0.8581  3.1407
  923SOL    HW2 2769   0.688   0.987   2.125 -1.2480  0.1400 -0.4428
  924SOL     OW 2770   0.440   2.430   2.589 -0.2895  0.4811  0.6454
  924SOL    HW1 2771   0.479   2.497   2.657  1.5027 -2.5183  0.1271
  924SOL    HW2 2772   0.366   2.470   2.530 -0.4080 -0.1548  1.9716
  925SOL     OW 2773   1.757   1.366   1.051 -0.4642 -0.0437  0.0331
  925SOL    HW1 2774   1.758   1.328   1.147  0.4689  1.6644 -1.4760
  925SOL    HW2 2775   1.661   1.390   1.018  1.4706  0.0838  2.4427
  926SOL     OW 2776   1.575   0.420   2.564 -0.5803 -0.0604 -0.1770
  926SOL    HW1 2777   1.483   0.396   2.601  2.8535 -0.4343 -1.8807
  926SOL    HW2 2778   1.594   0.518   2.575 -1.4927  1.0144 -1.7613
  927SOL     OW 2779   2.300   2.830   2.044  0.7932  0.1275 -0.8184
  927SOL    HW1 2780   2.366   2.875   1.985  1.5300  1.3509  0.9327
  927SOL    HW2 2781   2.275   2.890   2.120  2.6005 -1.7917 -0.1167
  928SOL     OW 2782   0.672   1.254   2.690 -0.3689 -0.0668 -0.2597
  928SOL    HW1 2783   0.592   1.297   2.738 -0.1605 -1.3739  0.1360
  928SOL    HW2 2784   0.739   1.327   2.655 -1.2422  2.6691  3.7350
  929SOL     OW 2785   0.151   0.179   0.967  0.3283  0.3430  0.1021
  929SOL    HW1 2786   0.204   0.195   0.883 -2.0122  1.5098 -0.1166
  929SOL    HW2 2787   0.137   0.082   0.983 -0.7016  0.5178 -0.4879
  930SOL     OW 2788   2.513   0.520   1.860 -0.0266  0.6436  0.6248
  930SOL    HW1 2789   2.423   0.474   1.845  0.1249 -0.3584  2.7244
  930SOL    HW2 2790   2.580   0.506   1.783 -1.0910 -0.4043 -0.1116
  931SOL     OW 2791   2.205   1.240   2.956 -0.0633  0.5524 -0.1242
  931SOL    HW1 2792   2.105   1.231   2.978  0.7879 -0.2368 -1.2196
  931SOL    HW2 2793   2.249   1.161   3.003  0.1809 -0.5349 -0.0291
  932SOL     OW 2794   2.527   1.613   1.145  0.5437 -0.0661  0.0088
  932SOL    HW1 2795   2.615   1.645   1.184 -0.4941  1.2239  1.2556
  932SOL    HW2 2796   2.551   1.585   1.049  0.9381  0.4572  1.0968
  933SOL     OW 2797   2.895   2.535   1.651  0.1181  0.2576  0.3748
  933SOL    HW1 2798   2.937   2.473   1.721 -1.1895  0.0258  1.6212
  933SOL    HW2 2799   2.886   2.630   1.687 -2.5359 -0.6977 -0.5602
  934SOL     OW 2800   0.458   3.073   1.240  0.0541 -0.2500 -0.0279
  934SOL    HW1 2801   0.504   3.009   1.310 -2.1049 -0.5270  1.5475
  934SOL    HW2 2802   0.530   0.016   1.187  0.0175  1.9435 -1.4230
  935SOL     OW 2803   2.607   0.722   2.001  0.1806 -0.1522 -0.1664
  935SOL    HW1 2804   2.530   0.746   2.070 -0.7844  1.2028  0.6672
  935SOL    HW2 2805   2.574   0.640   1.948 -1.7832 -1.5602  0.3629
  936SOL     OW 2806   2.666   0.936   1.850  0.0286 -0.3224  0.0825
  936SOL    HW1 2807   2.772   0.939   1.848  0.9178 -0.0293 -2.1241
  936SOL    HW2 2808   2.627   0.860   1.912 -3.1075 -0.2801 -0.2737
  937SOL     OW 2809   1.814   1.228   1.688  0.2807  0.2454  0.6360
  937SOL    HW1 2810   1.805   1.326   1.707 -1.4616 -1.8209  2.5128
  937SOL    HW2 2811   1.906   1.195   1.663  2.4472  0.1237  0.4383
  938SOL     OW 2812   0.463   2.405   2.994  0.3206 -0.4315 -0.3633
  938SOL    HW1 2813   0.413   2.491   3.018 -1.8221 -0.8514  1.6854
  938SOL    HW2 2814   0.396   2.326   2.981  1.9593 -1.5423 -0.4184
  939SOL     OW 2815   2.297   0.649   2.962  1.1231 -0.2421  0.4497
  939SOL    HW1 2816   2.200   0.669   2.994 -0.6683  2.0139  0.8461
  939SOL    HW2 2817   2.350   0.598   3.028 -2.1270  2.9026 -1.5194
  940SOL     OW 2818   1.246   2.305   0.743  0.2962 -0.6306 -0.8935
  940SOL    HW1 2819   1.343   2.280   0.733  1.7834  1.7923 -0.5643
  940SOL    HW2 2820   1.206   2.279   0.832 -1.2377  2.1654 -1.1551
  941SOL     OW 2821   1.076   2.048   1.715 -0.0794  0.0073  0.1796
  941SOL    HW1 2822   1.042   2.132   1.671  1.7967 -1.6210  0.5259
  941SOL    HW2 2823   1.015   1.968   1.700  1.0333  0.4065 -3.0388
  942SOL     OW 2824   2.829   2.013   3.063  0.6680  0.2315  0.2796
  942SOL    HW1 2825   2.810   1.931   0.017  0.9577  0.1297  1.8864
  942SOL    HW2 2826   2.915   2.001   3.015  1.2141 -0.6831 -0.8782
  943SOL     OW 2827   2.236   2.846   1.727 -0.1171  0.3189 -0.1425
  943SOL    HW1 2828   2.257   2.756   1.691  0.0174  1.8731 -1.5167
  943SOL    HW2 2829   2.157   2.845   1.792  0.3009  1.4406 -2.4875
  944SOL     OW 2830   1.915   2.108   2.568  0.1619  0.0133  0.2099
  944SOL    HW1 2831   1.825   2.067   2.591 -0.6552 -0.2055  0.5216
  944SOL    HW2 2832   1.952   2.173   2.639  2.3352  1.0953  1.0554
  945SOL     OW 2833   2.582   2.183   0.814 -0.6690 -0.5023  0.6486
  945SOL    HW1 2834   2.614   2.087   0.841 -1.1486 -1.3042 -0.4388
  945SOL    HW2 2835   2.485   2.198   0.834  1.5065 -0.9344 -0.1686
  946SOL     OW 2836   1.253   1.530   2.807 -0.0239 -0.0115  0.2036
  946SOL    HW1 2837   1.262   1.438   2.758 -0.8734 -0.8269 -0.7430
  946SOL    HW2 2838   1.331   1.591   2.787 -0.3679 -2.2551 -0.9051
  947SOL     OW 2839   0.126   0.711   2.078  0.1859 -0.2444  0.3320
  947SOL    HW1 2840   0.115   0.809   2.080  0.7199 -4.4280 -1.8323
  947SOL    HW2 2841   0.220   0.682   2.111  5.6339  0.5250  0.2324
  948SOL     OW 2842   3.070   1.070   0.671  0.7023 -0.2383 -0.0011
  948SOL    HW1 2843   0.052   1.105   0.629  0.5689 -0.2175  4.0139
  948SOL    HW2 2844   3.091   0.982   0.723 -0.3559 -2.2771 -1.4017
  949SOL     OW 2845   0.742   0.552   2.608  0.2248 -0.8700 -0.1279
  949SOL    HW1 2846   0.752   0.601   2.517  0.1369 -1.2995 -0.1055
  949SOL    HW2 2847   0.744   0.448   2.603 -0.1530 -1.0786 -0.5926
  950SOL     OW 2848   0.357   0.550   1.464 -0.4639 -0.5582 -0.4062
  950SOL    HW1 2849   0.286   0.574   1.532  2.3387 -1.0087 -2.1025
  950SOL    HW2 2850   0.355   0.610   1.381  0.4235  2.2616 -0.6002
  951SOL     OW 2851   0.400   1.422   2.673  0.1356 -0.0673 -0.3572
  951SOL    HW1 2852   0.382   1.450   2.767 -2.1450  1.8718 -3.3209
  951SOL    HW2 2853   0.381   1.320   2.665 -2.4329  0.8393 -0.1846
  952SOL     OW 2854   1.792   2.197   1.294 -0.5024 -0.4537  0.0931
  952SOL    HW1 2855   1.692   2.211   1.290  0.6542  1.5172  0.1036
  952SOL    HW2 2856   1.847   2.285   1.289 -2.5661  2.4672  0.1915
  953SOL     OW 2857   0.402   2.675   3.017 -0.1626  0.2345  0.1688
  953SOL    HW1 2858   0.324   2.700   3.078 -1.0651  0.6463  2.5008
  953SOL    HW2 2859   0.403   2.744   2.938  0.6429  0.7375 -3.1657
  954SOL     OW 2860   2.802   0.899   0.938  0.2860 -0.2504  0.3952
  954SOL    HW1 2861   2.777   0.992   0.976 -1.3061  3.9700 -1.5122
  954SOL    HW2 2862   2.828   0.835   1.014 -2.3682  1.4186  0.7507
  955SOL     OW 2863   1.682   1.481   2.900 -0.3550  0.0762 -0.1103
  955SOL    HW1 2864   1.688   1.417   2.825  0.7677  2.4934  1.0500
  955SOL    HW2 2865   1.637   1.428   2.980 -1.2598  0.1779  1.3023
  956SOL     OW 2866   1.162   0.750   2.361 -0.7536  0.2273  0.0002
  956SOL    HW1 2867   1.072   0.784   2.398 -2.5165  3.3924 -0.0041
  956SOL    HW2 2868   1.158   0.770   2.261  0.4059 -0.2610 -0.9900
  957SOL     OW 2869   0.812   0.290   1.639  0.2307 -0.5276 -0.2963
  957SOL    HW1 2870   0.711   0.288   1.645  1.3163 -2.8658  0.1528
  957SOL    HW2 2871   0.853   0.360   1.706  0.2644  1.1338  1.2138
  958SOL     OW 2872   0.359   1.868   0.474  0.2674  0.2739 -0.0055
  958SOL    HW1 2873   0.295   1.871   0.553 -1.8085 -1.2932  0.2167
  958SOL    HW2 2874   0.324   1.922   0.393  0.0133  1.0490  1.0989
  959SOL     OW 2875   2.368   0.710   1.611  0.4178  0.3791  0.2505
  959SOL    HW1 2876   2.459   0.729   1.574 -2.2980 -1.0438 -3.5186
  959SOL    HW2 2877   2.361   0.718   1.715  0.4645 -0.4911  4.5759
  960SOL     OW 2878   0.368   1.503   2.924 -0.5925  0.4804 -0.0889
  960SOL    HW1 2879   0.448   1.528   2.979  0.8766 -3.1724  1.6841
  960SOL    HW2 2880   0.289   1.489   2.985  0.7844 -1.0202 -0.4760
  961SOL     OW 2881   0.621   1.666   0.802 -0.8293  0.4400  0.0957
  961SOL    HW1 2882   0.574   1.638   0.718  0.1717 -1.8249  1.5482
  961SOL    HW2 2883   0.568   1.626   0.880  0.9170 -0.6860 -0.3832
  962SOL     OW 2884   0.673   1.406   1.110  0.0458  0.2103  0.5599
  962SOL    HW1 2885   0.726   1.492   1.117 -1.3960 -1.1918 -1.6624
  962SOL    HW2 2886   0.731   1.328   1.073  3.7079  2.2546 -1.2454
  963SOL     OW 2887   1.576   2.367   2.566  0.5869  0.2381 -0.0309
  963SOL    HW1 2888   1.499   2.322   2.619 -1.5938  2.0750  0.8321
  963SOL    HW2 2889   1.627   2.308   2.507 -2.3823  0.8026  1.7186
  964SOL     OW 2890   0.139   2.768   2.412 -0.1946 -0.1975 -0.5909
  964SOL    HW1 2891   0.158   2.771   2.312  1.0739 -1.1592  0.6332
  964SOL    HW2 2892   0.038   2.783   2.431 -0.7550  1.3345  1.1129
  965SOL     OW 2893   2.837   2.115   2.741 -0.2624 -0.9462  0.0132
  965SOL    HW1 2894   2.938   2.105   2.719 -1.2589 -0.2143 -2.8426
  965SOL    HW2 2895   2.793   2.027   2.757  2.4977 -0.0715 -0.6153
  966SOL     OW 2896   2.875   1.443   2.798  0.7670 -0.6730  0.0135
  966SOL    HW1 2897   2.794   1.479   2.856 -0.9329  2.4628  3.5607
  966SOL    HW2 2898   2.859   1.452   2.696 -2.2586  0.9727 -2.5289
  967SOL     OW 2899   1.836   0.287   0.534  0.4084 -0.1054  0.6031
  967SOL    HW1 2900   1.928   0.252   0.547 -2.6682  0.8749 -5.2070
  967SOL    HW2 2901   1.762   0.237   0.581  2.7498 -2.8421 -0.0240
  968SOL     OW 2902   2.518   0.127   0.698  0.1981 -0.1893  0.5561
  968SOL    HW1 2903   2.502   0.043   0.754  1.2410  1.9027 -0.6254
  968SOL    HW2 2904   2.449   0.201   0.712  0.9991 -0.7585 -0.4032
  969SOL     OW 2905   0.470   1.136   2.071  0.6481  0.4441 -0.5798
  969SOL    HW1 2906   0.506   1.062   2.010 -2.2714 -0.6492  2.2129
  969SOL    HW2 2907   0.444   1.220   2.021 -0.1270 -0.7423 -1.8835
  970SOL     OW 2908   1.992   1.668   2.766  0.1065 -0.1583  0.8054
  970SOL    HW1 2909   1.971   1.580   2.723  1.2611  0.3692 -2.7380
  970SOL    HW2 2910   1.988   1.737   2.688  0.8461  2.8219  1.2713
  971SOL     OW 2911   2.276   0.347   1.794  0.6091 -0.2661  0.3012
  971SOL    HW1 2912   2.287   0.276   1.865  0.2697 -0.2288 -0.1172
  971SOL    HW2 2913   2.253   0.308   1.700 -1.7676  0.0922 -1.5990
  972SOL     OW 2914   3.039   0.321   1.042  0.3455 -0.0081 -0.2861
  972SOL    HW1 2915   2.943   0.306   1.024  2.2506 -1.7998  0.0660
  972SOL    HW2 2916   3.103   0.251   1.007 -0.8541  0.7435  0.3169
  973SOL     OW 2917   0.152   0.278   2.493 -0.1889 -0.1023 -0.3349
  973SOL    HW1 2918   0.165   0.177   2.497  0.6218 -3.1082  0.5921
  973SOL    HW2 2919   0.162   0.317   2.587 -2.0347 -1.3689 -1.8829
  974SOL     OW 2920   2.976   1.127   1.642  0.1949  0.2455  0.3887
  974SOL    HW1 2921   2.972   1.125   1.539  4.0462 -0.8429 -0.1184
  974SOL    HW2 2922   2.904   1.188   1.681 -0.1112 -2.8089  0.9847
  975SOL     OW 2923   1.448   3.048   2.199 -0.0203  0.3373  0.3203
  975SOL    HW1 2924   1.546   3.064   2.172  4.4625 -0.6821 -2.2857
  975SOL    HW2 2925   1.430   2.967   2.263  1.3216  0.1804 -0.2144
  976SOL     OW 2926   2.099   1.529   1.547 -0.5839 -0.4603  0.2337
  976SOL    HW1 2927   2.045   1.572   1.471 -1.2552 -0.6740 -1.2253
  976SOL    HW2 2928   2.118   1.584   1.628  2.3915 -2.0334  0.0953
  977SOL     OW 2929   3.039   2.754   0.046 -0.9212 -0.7557  0.2025
  977SOL    HW1 2930   3.002   2.674   0.089  0.6282  1.4304 -0.4140
  977SOL    HW2 2931   2.971   2.805   3.099  0.1678 -0.4018  0.4236
  978SOL     OW 2932   2.159   1.283   2.089  0.4519 -0.1355 -0.3329
  978SOL    HW1 2933   2.102   1.357   2.052 -0.5879 -0.1112  3.5093
  978SOL    HW2 2934   2.112   1.192   2.079  1.0058 -0.8809  0.9113
  979SOL     OW 2935   1.072   1.017   2.260  0.1760 -0.4728  0.3857
  979SOL    HW1 2936   1.157   0.982   2.223 -0.1099 -1.3137 -1.2898
  979SOL    HW2 2937   0.992   0.991   2.203 -1.4571  0.3666 -0.0347
  980SOL     OW 2938   1.560   2.002   2.588 -0.4551  0.5979  0.0415
  980SOL    HW1 2939   1.460   2.014   2.574  1.6225 -0.4406  0.6588
  980SOL    HW2 2940   1.599   1.919   2.541 -0.3607  0.3927  1.0514
  981SOL     OW 2941   1.821   0.804   1.797 -0.0115  0.3563 -0.3668
  981SOL    HW1 2942   1.914   0.827   1.832  1.0557 -2.2080  0.2296
  981SOL    HW2 2943   1.751   0.849   1.859  0.6850  0.6516 -2.3397
  982SOL     OW 2944   0.464   0.331   0.042 -0.0397 -0.3316 -0.1060
  982SOL    HW1 2945   0.388   0.294   0.097 -0.2475 -2.5156 -0.8917
  982SOL    HW2 2946   0.455   0.300   3.051 -0.8159 -1.7422  1.6467
  983SOL     OW 2947   2.040   0.684   3.049  0.3685  0.3546  0.1636
  983SOL    HW1 2948   2.021   0.633   0.031 -0.8066  1.7887 -1.6809
  983SOL    HW2 2949   2.031   0.787   3.061 -1.2251  3.6997  0.2736
  984SOL     OW 2950   1.033   0.258   2.909 -0.5208 -0.3265  0.6663
  984SOL    HW1 2951   1.072   0.167   2.890  0.4997  1.4582 -1.4029
  984SOL    HW2 2952   0.931   0.267   2.899 -0.6611  1.6211  1.5192
  985SOL     OW 2953   1.297   2.420   1.878 -0.1823  0.0467  0.7202
  985SOL    HW1 2954   1.201   2.402   1.900  1.5982 -1.2239 -2.4251
  985SOL    HW2 2955   1.336   2.506   1.922 -0.9346  0.2895  0.9384
  986SOL     OW 2956   2.473   2.919   1.850  0.2387  0.1959 -0.6590
  986SOL    HW1 2957   2.392   2.899   1.791 -2.3746  0.0848  0.1116
  986SOL    HW2 2958   2.517   3.008   1.830  1.0085 -0.5862  0.4311
  987SOL     OW 2959   2.074   1.266   1.084 -0.0858 -0.2788 -0.0229
  987SOL    HW1 2960   2.089   1.342   1.015 -0.0967  1.7834  0.9142
  987SOL    HW2 2961   2.163   1.220   1.104 -2.2676 -0.8164 -0.2880
  988SOL     OW 2962   2.558   1.131   1.497  0.3109  0.3372 -0.2550
  988SOL    HW1 2963   2.504   1.090   1.572  0.5522  1.5218 -0.2775
  988SOL    HW2 2964   2.501   1.193   1.441 -0.4619  0.1259 -0.9275
  989SOL     OW 2965   1.836   2.056   2.966 -0.2151 -0.4308 -0.5200
  989SOL    HW1 2966   1.866   2.133   2.907  0.1480  0.6753 -1.3097
  989SOL    HW2 2967   1.914   2.027   3.028 -1.0052 -2.3392 -2.6277
  990SOL     OW 2968   1.654   0.802   2.266 -0.0705  0.4986  0.0878
  990SOL    HW1 2969   1.744   0.756   2.235  3.0577 -1.7480  0.5839
  990SOL    HW2 2970   1.662   0.903   2.245 -1.1307 -0.4445  5.1128
  991SOL     OW 2971   1.057   1.084   0.637 -0.0987  0.1259  0.2634
  991SOL    HW1 2972   1.128   1.014   0.627  1.2421 -1.2309  1.9426
  991SOL    HW2 2973   0.995   1.065   0.715  1.0588 -0.5321  1.8631
  992SOL     OW 2974   0.127   1.027   1.283  0.3096  0.2685 -0.1187
  992SOL    HW1 2975   0.213   1.067   1.247  2.6585 -0.7719  1.1123
  992SOL    HW2 2976   0.077   0.980   1.210  3.0699  1.2236 -0.4099
  993SOL     OW 2977   2.198   0.620   1.851  0.3554 -0.5549 -0.0908
  993SOL    HW1 2978   2.193   0.598   1.950 -0.1604 -1.2808 -2.4074
  993SOL    HW2 2979   2.190   0.532   1.802  0.4050  1.3568  2.1402
  994SOL     OW 2980   1.313   1.847   1.667 -0.1507  0.2529  0.4359
  994SOL    HW1 2981   1.370   1.828   1.748 -1.2788  0.9795 -0.9973
  994SOL    HW2 2982   1.224   1.893   1.693 -0.2349  2.6284 -2.0606
  995SOL     OW 2983   2.238   1.990   2.915 -0.7267  0.1190  0.8041
  995SOL    HW1 2984   2.337   2.004   2.930  0.0513  0.3011 -1.2578
  995SOL    HW2 2985   2.220   1.998   2.816  0.3315 -2.0034  1.7531
  996SOL     OW 2986   2.223   1.835   0.487 -0.0183 -0.2276 -0.1847
  996SOL    HW1 2987   2.287   1.799   0.417 -3.2246  0.2563 -0.7778
  996SOL    HW2 2988   2.200   1.758   0.550  1.2054  1.2310 -1.3179
  997SOL     OW 2989   1.888   0.690   2.195 -0.0887  0.0346 -0.1628
  997SOL    HW1 2990   1.913   0.627   2.118 -1.3418 -0.1245  0.0554
  997SOL    HW2 2991   1.918   0.649   2.282 -0.4562  1.6717  1.8288
  998SOL     OW 2992   2.516   0.770   0.711 -0.1636 -0.0732 -0.2752
  998SOL    HW1 2993   2.518   0.784   0.812  0.2747 -1.7040 -1.0246
  998SOL    HW2 2994   2.431   0.721   0.682 -1.8385 -0.9836 -1.5929
  999SOL     OW 2995   2.455   1.223   0.473 -0.2154  0.2082  0.0252
  999SOL    HW1 2996   2.477   1.182   0.566 -0.9514  1.7765  1.8130
  999SOL    HW2 2997   2.473   1.326   0.474 -0.1487  1.8480 -1.8750
 1000SOL     OW 2998   0.727   1.164   1.801  0.1938 -0.3220 -0.3143
 1000SOL    HW1 2999   0.732   1.264   1.795 -0.9316 -0.4292  3.4473
 1000SOL    HW2 3000   0.644   1.132   1.749 -2.1986 -1.1105 -0.9864
   3.10384   3.10384   3.10384
