1000 SPC/Fw water molecules t= 142.00000 step= 142000
 3000
    1SOL     OW    1   2.225   2.461   0.964 -0.0499  0.4830 -0.1920
    1SOL    HW1    2   2.148   2.516   0.925 -2.2564  1.5227 -3.3724
    1SOL    HW2    3   2.209   2.450   1.063  0.4468 -0.0024  0.7100
    2SOL     OW    4   1.727   1.737   2.257 -0.8890 -0.3623 -0.2530
    2SOL    HW1    5   1.824   1.772   2.281 -0.5347  1.2797 -1.6230
    2SOL    HW2    6   1.664   1.807   2.307  0.1495  2.0291  2.3726
    3SOL     OW    7   1.687   2.485   2.170 -0.6720  0.1283  0.4140
    3SOL    HW1    8   1.698   2.559   2.239 -2.3993 -2.7157 -3.3892
    3SOL    HW2    9   1.775   2.438   2.151  0.1763  1.2453  0.6590
    4SOL     OW   10   1.565   2.534   1.944  0.3695  0.1211  0.1945
    4SOL    HW1   11   1.625   2.526   2.027  3.8667 -0.6563  1.8617
    4SOL    HW2   12   1.606   2.488   1.865 -1.6544 -2.0484  1.2227
    5SOL     OW   13   0.518   0.664   1.288  0.3437  0.7726  0.4577
    5SOL    HW1   14   0.593   0.598   1.259  1.3915  1.3029 -0.3581
    5SOL    HW2   15   0.455   0.612   1.349  0.4280  1.3546  1.7166
    6SOL     OW   16   2.669   0.988   2.946 -0.3384  0.4924  0.2026
    6SOL    HW1   17   2.613   0.927   3.006 -0.5812  0.4727 -1.4339
    6SOL    HW2   18   2.627   0.995   2.852 -3.8232  2.4803 -0.8711
    7SOL     OW   19   0.667   0.410   1.273 -0.4093  0.1218 -0.4518
    7SOL    HW1   20   0.642   0.329   1.334  1.7794 -2.3051  0.6308
    7SOL    HW2   21   0.679   0.389   1.171  0.3971 -0.9284 -2.0507
    8SOL     OW   22   0.993   2.476   1.500 -0.0330  0.2625 -0.1104
    8SOL    HW1   23   0.898   2.507   1.500  1.2012  0.2339  0.5261
    8SOL    HW2   24   1.013   2.423   1.583 -0.2061  1.3227 -0.3474
    9SOL     OW   25   0.797   0.886   0.412 -0.2618  0.3989 -0.1753
    9SOL    HW1   26   0.702   0.849   0.433 -1.7537 -1.4902  1.3093
    9SOL    HW2   27   0.784   0.988   0.385  0.4352  1.6105 -1.1991
   10SOL     OW   28   0.789   2.348   2.720  1.0763 -0.3056  0.0959
   10SOL    HW1   29   0.711   2.351   2.655 -1.7677  0.9683 -3.1303
   10SOL    HW2   30   0.832   2.444   2.713 -0.5213  2.0797 -0.1896
   11SOL     OW   31   0.214   1.696   0.054 -0.5422  0.4679  0.5792
   11SOL    HW1   32   0.138   1.764   0.059  2.8345 -1.4485  0.6339
   11SOL    HW2   33   0.219   1.654   3.055  0.7354  1.3799  1.1946
   12SOL     OW   34   0.501   0.026   1.493 -0.0931  0.1710 -0.4737
   12SOL    HW1   35   0.445   0.072   1.566 -1.8949  0.0968  2.9171
   12SOL    HW2   36   0.457   0.039   1.400 -2.2558 -1.0349  0.9038
   13SOL     OW   37   0.889   2.479   0.409 -0.3006 -0.6419 -0.1087
   13SOL    HW1   38   0.926   2.389   0.431 -1.9591 -0.2407 -0.2306
   13SOL    HW2   39   0.797   2.463   0.364  0.7942  0.9635 -1.5004
   14SOL     OW   40   1.404   1.807   1.017  0.0519  0.3286 -0.3245
   14SOL    HW1   41   1.505   1.840   1.011  2.1326  3.0862  1.0651
   14SOL    HW2   42   1.366   1.845   1.101 -1.8499 -1.9408  1.9467
   15SOL     OW   43   2.446   0.752   2.339  0.6153 -0.2273  0.3164
   15SOL    HW1   44   2.513   0.712   2.400 -2.6105  0.0118  0.6250
   15SOL    HW2   45   2.416   0.837   2.384  0.9216 -2.3455 -0.1698
   16SOL     OW   46   1.557   2.813   3.069 -0.1244 -0.3979 -0.0940
   16SOL    HW1   47   1.594   2.742   3.006 -1.7610 -0.8291 -2.2779
   16SOL    HW2   48   1.638   2.872   0.007 -2.0804  1.7292  1.4439
   17SOL     OW   49   0.672   2.315   2.039  0.1083 -0.1192 -0.0409
   17SOL    HW1   50   0.677   2.232   2.104  0.0580 -1.0374  0.9560
   17SOL    HW2   51   0.603   2.388   2.071 -0.9341  1.0201  2.4125
   18SOL     OW   52   1.634   1.031   0.338  0.2742  0.5419  0.2997
   18SOL    HW1   53   1.542   1.071   0.309 -1.4260 -1.6877 -2.1863
   18SOL    HW2   54   1.653   0.938   0.297 -2.2651 -3.4764  1.1689
   19SOL     OW   55   2.449   2.281   2.711  0.2460 -0.1312 -0.3440
   19SOL    HW1   56   2.386   2.248   2.784 -1.1696 -0.3245  0.8409
   19SOL    HW2   57   2.481   2.200   2.658  0.6420 -1.9421  1.8272
   20SOL     OW   58   1.937   1.869   2.365 -0.2938 -0.6495 -0.0299
   20SOL    HW1   59   2.025   1.818   2.375 -0.6996 -0.5224 -2.7611
   20SOL    HW2   60   1.879   1.855   2.447  2.6175  0.3673  2.1034
   21SOL     OW   61   0.525   2.059   2.925 -0.1661  0.4496 -0.5738
   21SOL    HW1   62   0.513   2.096   3.022  2.6360  2.1231 -0.1312
   21SOL    HW2   63   0.469   1.978   2.907  1.2737  1.1599  1.2738
   22SOL     OW   64   2.121   3.057   1.604 -0.1658 -0.5075  0.1675
   22SOL    HW1   65   2.019   3.070   1.606 -2.5241 -1.4333  4.0991
   22SOL    HW2   66   2.170   0.048   1.571 -0.4410 -1.0774 -0.1160
   23SOL     OW   67   0.167   1.280   1.545 -0.1923  0.3074  0.0342
   23SOL    HW1   68   0.204   1.287   1.640  1.4753 -1.7524 -0.0518
   23SOL    HW2   69   0.219   1.214   1.488  1.7531  2.0860 -1.0866
   24SOL     OW   70   2.262   2.029   1.729 -0.5047  0.6899  0.2852
   24SOL    HW1   71   2.332   2.047   1.662 -1.3261 -4.4404  0.9862
   24SOL    HW2   72   2.245   2.102   1.796 -0.5715 -1.4384  0.3117
   25SOL     OW   73   1.989   2.936   2.932  0.0857 -0.1441  0.1290
   25SOL    HW1   74   2.078   2.981   2.913 -1.6133 -1.5966 -0.3190
   25SOL    HW2   75   1.951   2.892   2.849  1.3902 -1.6226 -0.1913
   26SOL     OW   76   1.200   3.044   0.937 -0.4006 -0.4499 -0.0906
   26SOL    HW1   77   1.291   2.998   0.956 -1.3948  1.6376  1.7103
   26SOL    HW2   78   1.210   0.035   0.885  1.1655 -0.1916  2.1668
   27SOL     OW   79   1.227   1.988   2.889  0.4115  0.5010  0.0520
   27SOL    HW1   80   1.236   1.985   2.991  2.4300  1.2200  0.9711
   27SOL    HW2   81   1.133   1.987   2.852  2.4644 -0.6031 -2.1993
   28SOL     OW   82   0.011   1.926   1.424 -0.4648  0.5035 -0.4651
   28SOL    HW1   83   0.080   1.905   1.346  2.1705  0.1196 -2.1126
   28SOL    HW2   84   3.004   1.912   1.401 -2.1491  1.5536  1.6684
   29SOL     OW   85   2.210   2.252   2.314  0.6703 -0.1136 -0.1356
   29SOL    HW1   86   2.280   2.318   2.276  0.9421 -3.3341 -0.1963
   29SOL    HW2   87   2.241   2.155   2.299 -3.7867 -0.6312  1.5455
   30SOL     OW   88   0.959   2.770   1.231 -0.6581  0.1996 -0.9177
   30SOL    HW1   89   0.972   2.848   1.296  0.3831  0.1853  4.7346
   30SOL    HW2   90   0.980   2.792   1.137  2.0533 -1.6193 -0.6605
   31SOL     OW   91   0.009   2.078   2.099 -0.1386  0.1881 -0.1697
   31SOL    HW1   92   3.014   2.033   2.068 -2.9664 -2.6972 -1.4472
   31SOL    HW2   93   0.090   2.023   2.077 -1.2016  0.5615  0.5308
   32SOL     OW   94   1.191   1.103   2.073  0.5749  0.2572 -0.2428
   32SOL    HW1   95   1.175   1.196   2.035  2.7265 -0.4582 -2.7035
   32SOL    HW2   96   1.196   1.100   2.179 -2.0234 -0.3904  2.6932
   33SOL     OW   97   0.516   2.857   2.479 -0.1468 -0.1341  0.3662
   33SOL    HW1   98   0.444   2.906   2.526  1.9875 -1.0273  1.6314
   33SOL    HW2   99   0.594   2.850   2.546 -0.2286  0.9492 -2.7177
   34SOL     OW  100   1.444   2.960   1.498 -0.6816 -0.2266 -0.2626
   34SOL    HW1  101   1.364   2.923   1.444 -1.6218  1.5228  0.2913
   34SOL    HW2  102   1.527   2.970   1.442  0.1930 -0.4643  1.2370
   35SOL     OW  103   2.041   0.526   0.966  0.0494 -0.0295  0.1468
   35SOL    HW1  104   2.039   0.421   0.974  0.1855 -0.9351 -0.1368
   35SOL    HW2  105   1.950   0.567   0.967  0.2310 -0.8186 -0.5720
   36SOL     OW  106   2.008   2.881   2.514  0.5097  0.0654 -0.3612
   36SOL    HW1  107   2.088   2.847   2.459  0.7106  1.4889  2.4342
   36SOL    HW2  108   1.936   2.909   2.452  0.7757 -0.0957  1.0642
   37SOL     OW  109   1.366   2.447   2.486  0.4231 -0.3741  0.3056
   37SOL    HW1  110   1.266   2.469   2.497  0.8055  2.8719  0.3158
   37SOL    HW2  111   1.369   2.365   2.420  0.0731  1.2365 -1.0203
   38SOL     OW  112   2.391   0.708   2.875 -0.2000 -0.4220 -0.6126
   38SOL    HW1  113   2.288   0.697   2.881 -0.1784  0.7396  2.5118
   38SOL    HW2  114   2.424   0.749   2.964  0.1924 -0.9973  0.5612
   39SOL     OW  115   1.802   2.147   2.477 -0.2103 -0.7406 -0.0906
   39SOL    HW1  116   1.875   2.114   2.539 -3.6829  0.3639 -0.1250
   39SOL    HW2  117   1.835   2.196   2.401 -2.7446 -0.4419  0.4952
   40SOL     OW  118   0.445   0.034   3.016 -0.4665 -0.3180 -1.0250
   40SOL    HW1  119   0.492   0.061   2.928 -0.4369 -0.0235 -2.6897
   40SOL    HW2  120   0.369   3.067   2.994  1.9656  0.5783 -0.1030
   41SOL     OW  121   1.462   0.919   1.625 -0.6988 -0.2156  0.2328
   41SOL    HW1  122   1.465   0.966   1.535 -0.1689 -0.8917  0.4222
   41SOL    HW2  123   1.385   0.851   1.625 -0.2479  3.5370 -0.0891
   42SOL     OW  124   0.335   0.369   1.699 -0.1127 -0.0575 -0.0828
   42SOL    HW1  125   0.285   0.284   1.662 -1.3508 -2.5721 -0.3660
   42SOL    HW2  126   0.422   0.346   1.744 -0.7809 -0.9166 -2.2210
   43SOL     OW  127   1.639   1.011   1.955  0.0318 -0.1161  0.2096
   43SOL    HW1  128   1.638   1.110   1.977  1.0240  1.8721 -0.4989
   43SOL    HW2  129   1.719   0.987   1.893  0.8802 -0.6959  0.3092
   44SOL     OW  130   0.107   2.690   2.622  0.4256 -0.4339  0.3092
   44SOL    HW1  131   0.137   2.694   2.718 -1.9115  0.0063  1.2173
   44SOL    HW2  132   0.122   2.774   2.568 -1.0760  0.0554 -0.7692
   45SOL     OW  133   0.422   2.421   1.070 -0.6246  0.1149 -0.0104
   45SOL    HW1  134   0.397   2.521   1.075 -0.1811 -0.5776  3.0025
   45SOL    HW2  135   0.506   2.410   1.020  0.5334  0.5324  2.6128
   46SOL     OW  136   2.249   2.306   1.839 -0.0386 -0.3219 -0.0090
   46SOL    HW1  137   2.192   2.281   1.922 -2.3755 -0.8480 -0.8042
   46SOL    HW2  138   2.347   2.336   1.864  0.5242  0.4681 -1.3853
   47SOL     OW  139   1.833   1.917   1.584  0.1263 -0.5540 -0.5053
   47SOL    HW1  140   1.791   1.900   1.679 -1.4627 -0.1943  0.7430
   47SOL    HW2  141   1.896   1.844   1.558 -0.7042  2.8759 -0.1611
   48SOL     OW  142   0.452   1.902   0.531  0.1661 -0.2261  0.0574
   48SOL    HW1  143   0.458   1.850   0.617  2.0907 -1.3193  0.3960
   48SOL    HW2  144   0.448   2.002   0.554  1.3482  1.7406 -1.4350
   49SOL     OW  145   2.877   0.759   2.209 -0.1875 -0.2400  0.1786
   49SOL    HW1  146   2.902   0.715   2.299  0.4648  0.7319 -0.1060
   49SOL    HW2  147   2.908   0.857   2.200  0.4169 -1.6209  3.4617
   50SOL     OW  148   2.233   0.729   0.922  0.5969 -0.4172  0.2080
   50SOL    HW1  149   2.186   0.638   0.930 -0.4010  0.3531  0.6289
   50SOL    HW2  150   2.319   0.730   0.975 -1.0141 -1.2934  0.2296
   51SOL     OW  151   1.288   0.389   0.773  0.0515 -0.1859 -0.5571
   51SOL    HW1  152   1.225   0.417   0.848 -0.0858 -0.4335 -0.6688
   51SOL    HW2  153   1.367   0.455   0.777  1.4335  0.8314  0.6972
   52SOL     OW  154   1.388   1.157   0.280  0.2739 -0.8217  0.4272
   52SOL    HW1  155   1.315   1.145   0.206 -3.0756  0.6554 -1.4758
   52SOL    HW2  156   1.359   1.103   0.365 -0.2413 -1.3318  1.2490
   53SOL     OW  157   1.094   2.104   2.581  0.0956 -0.2670  0.4868
   53SOL    HW1  158   1.170   2.037   2.588 -0.6739 -1.4611 -0.2672
   53SOL    HW2  159   1.121   2.193   2.622  1.0698 -0.6273  0.9339
   54SOL     OW  160   1.739   0.883   1.714 -0.3518 -0.3595  0.1448
   54SOL    HW1  161   1.714   0.784   1.719 -0.4423  0.7124  2.0168
   54SOL    HW2  162   1.656   0.937   1.712  0.9817  1.3440  1.8242
   55SOL     OW  163   1.941   2.769   0.582  0.5031  0.0240  0.2452
   55SOL    HW1  164   1.919   2.814   0.670 -0.2494  0.7906 -0.3835
   55SOL    HW2  165   2.043   2.767   0.581 -1.4729  2.2646 -1.2299
   56SOL     OW  166   0.755   2.653   1.410  0.3082 -0.4857  0.3518
   56SOL    HW1  167   0.807   2.667   1.321  0.2414  1.2271 -2.4089
   56SOL    HW2  168   0.714   2.746   1.438 -2.3187  1.6916  0.0292
   57SOL     OW  169   2.013   1.063   0.166  0.1450 -0.1260 -0.1690
   57SOL    HW1  170   2.110   1.081   0.186  2.5220  1.6219  0.4306
   57SOL    HW2  171   1.996   1.057   0.065  2.0526 -1.2654  0.0705
   58SOL     OW  172   3.038   1.117   2.069 -0.4149 -0.4298 -0.0937
   58SOL    HW1  173   3.074   1.156   2.159 -0.1042 -1.7298  3.7353
   58SOL    HW2  174   3.011   1.196   2.005  0.8133  0.7782 -1.2549
   59SOL     OW  175   0.810   2.471   2.386 -0.1177 -0.1331 -0.3820
   59SOL    HW1  176   0.736   2.404   2.408 -2.9544 -1.1537 -0.1344
   59SOL    HW2  177   0.767   2.563   2.377 -0.3851 -1.8234 -0.6160
   60SOL     OW  178   2.385   2.702   1.006  0.6796 -0.1664  0.7575
   60SOL    HW1  179   2.310   2.633   1.018  1.4084  0.1362 -0.1093
   60SOL    HW2  180   2.432   2.686   0.916 -1.0405  0.9662  1.0562
   61SOL     OW  181   1.339   1.990   0.266 -0.0301 -0.2844 -0.6163
   61SOL    HW1  182   1.301   1.942   0.350  0.3566  0.4064  1.1530
   61SOL    HW2  183   1.395   2.070   0.290 -0.2230 -2.2209 -0.9014
   62SOL     OW  184   2.343   2.884   0.045 -0.2413  0.0100 -0.7413
   62SOL    HW1  185   2.381   2.793   0.013 -0.3190  0.2982  0.6813
   62SOL    HW2  186   2.270   2.870   0.117 -0.2445 -0.5117  1.5035
   63SOL     OW  187   1.926   0.230   0.252  0.5062  0.4052  0.1098
   63SOL    HW1  188   1.945   0.217   0.353 -0.1103 -0.0722  0.5262
   63SOL    HW2  189   1.973   0.313   0.212  0.1321 -0.1869 -0.8132
   64SOL     OW  190   0.829   1.105   2.545 -0.5921  0.2921 -0.3443
   64SOL    HW1  191   0.905   1.166   2.576  0.7820 -0.1288  0.0500
   64SOL    HW2  192   0.837   1.008   2.571 -2.9908  0.9160 -0.4323
   65SOL     OW  193   1.330   2.497   0.438  0.7441  0.1644  0.5674
   65SOL    HW1  194   1.406   2.492   0.369 -1.4529  1.4557  0.3125
   65SOL    HW2  195   1.360   2.527   0.529 -0.2015  0.5081 -1.7845
   66SOL     OW  196   0.634   1.615   1.510  0.0212  0.0195  0.4020
   66SOL    HW1  197   0.633   1.673   1.591 -0.0258 -0.7947 -0.0844
   66SOL    HW2  198   0.596   1.527   1.528  1.3731  0.3079 -0.4824
   67SOL     OW  199   2.564   2.941   2.110 -0.5345 -0.0040  0.0967
   67SOL    HW1  200   2.599   3.034   2.125 -0.7083 -1.5541  0.2956
   67SOL    HW2  201   2.590   2.867   2.177  0.0926  1.0005  1.2124
   68SOL     OW  202   0.833   0.813   1.436 -0.2573  0.4313  0.2693
   68SOL    HW1  203   0.814   0.714   1.442  0.9943  2.2616  1.2240
   68SOL    HW2  204   0.806   0.869   1.520  1.5172 -1.1736  0.1026
   69SOL     OW  205   1.900   2.868   0.330 -0.4122 -0.1375  0.1957
   69SOL    HW1  206   1.854   2.963   0.324 -3.0503  2.6257  1.2760
   69SOL    HW2  207   1.913   2.836   0.424  0.1357 -1.2990 -0.8300
   70SOL     OW  208   2.887   1.041   2.391 -0.0004  0.3710  0.4835
   70SOL    HW1  209   2.838   1.030   2.302  0.2101 -0.6254 -0.3996
   70SOL    HW2  210   2.948   1.123   2.385  2.0570  2.6031  0.9682
   71SOL     OW  211   2.895   1.653   3.026  0.4133  0.2669  0.1289
   71SOL    HW1  212   2.824   1.581   3.009  2.3719 -2.3030 -0.8501
   71SOL    HW2  213   2.933   1.691   2.940 -3.9169 -1.0745  2.0292
   72SOL     OW  214   0.015   1.648   0.327  0.1503  0.6083 -0.3982
   72SOL    HW1  215   0.054   1.559   0.366 -2.2073 -1.1365 -0.8822
   72SOL    HW2  216   0.054   1.728   0.377  1.3291 -3.4259 -2.0594
   73SOL     OW  217   1.101   1.346   0.594  0.2900  0.4071  0.3569
   73SOL    HW1  218   1.090   1.249   0.611  0.3221  1.0085 -0.9426
   73SOL    HW2  219   1.191   1.378   0.622 -1.6150  1.0784  1.1934
   74SOL     OW  220   0.348   1.710   2.007 -0.4217 -0.5015 -0.4894
   74SOL    HW1  221   0.305   1.803   2.000 -0.0754  0.3231 -0.8067
   74SOL    HW2  222   0.342   1.668   1.914  1.1475 -1.8517  0.2413
   75SOL     OW  223   1.788   1.591   1.651  0.0536 -0.1593 -0.1227
   75SOL    HW1  224   1.693   1.627   1.633  3.4479 -0.6699 -1.0234
   75SOL    HW2  225   1.788   1.541   1.739  2.2593  2.3573  1.0591
   76SOL     OW  226   2.096   2.651   1.378 -0.2649 -0.2346  0.4402
   76SOL    HW1  227   2.157   2.613   1.452 -1.6500  0.4402  1.5034
   76SOL    HW2  228   2.084   2.752   1.394  1.7294  0.6937 -0.7668
   77SOL     OW  229   2.637   1.425   1.293  0.2910 -0.2767 -0.1271
   77SOL    HW1  230   2.661   1.454   1.390 -1.8703 -0.5053  1.0334
   77SOL    HW2  231   2.637   1.322   1.290 -1.0093 -0.5062 -2.2473
   78SOL     OW  232   1.546   0.784   0.578  0.1643 -0.7688  0.5359
   78SOL    HW1  233   1.469   0.838   0.534  0.0819 -2.9554  1.4854
   78SOL    HW2  234   1.497   0.722   0.642 -0.3047  1.1063  1.9167
   79SOL     OW  235   2.353   1.486   1.297 -0.5075 -0.7610 -0.2604
   79SOL    HW1  236   2.296   1.457   1.219 -0.0928 -0.7703 -0.3699
   79SOL    HW2  237   2.453   1.473   1.273  2.1952 -2.3886  2.2052
   80SOL     OW  238   0.801   0.476   1.535  0.0259 -0.2462  0.0763
   80SOL    HW1  239   0.713   0.448   1.496  1.8004 -2.5634 -0.5105
   80SOL    HW2  240   0.880   0.425   1.497  0.2273  0.6054 -0.5695
   81SOL     OW  241   0.710   2.955   0.970 -0.4957 -0.1669  0.5801
   81SOL    HW1  242   0.679   2.979   0.880 -1.3378 -1.6003  2.0198
   81SOL    HW2  243   0.806   2.922   0.968 -0.7409  1.1552 -1.2844
   82SOL     OW  244   1.361   2.995   1.757  0.0100 -0.1627  0.1480
   82SOL    HW1  245   1.310   2.923   1.804 -0.3643 -0.6796 -1.2600
   82SOL    HW2  246   1.393   2.963   1.660 -0.0295  0.8717  0.7695
   83SOL     OW  247   1.210   2.141   0.617  0.3990 -0.4664 -0.1670
   83SOL    HW1  248   1.238   2.197   0.697 -0.3954  0.2811  1.8849
   83SOL    HW2  249   1.301   2.108   0.578 -0.0442 -0.1845  1.0819
   84SOL     OW  250   0.170   1.614   2.880 -0.0132  0.3133  0.3296
   84SOL    HW1  251   0.091   1.678   2.877 -1.5924  0.1758 -2.9295
   84SOL    HW2  252   0.171   1.568   2.788 -1.2284  1.7114 -0.6142
   85SOL     OW  253   0.253   2.231   0.996  0.4539  0.5098 -0.6362
   85SOL    HW1  254   0.159   2.250   1.036 -0.7201 -0.0208 -1.5256
   85SOL    HW2  255   0.328   2.300   1.020  1.7441 -0.0199 -0.5168
   86SOL     OW  256   2.335   2.541   1.458 -0.2744 -0.2247 -0.1249
   86SOL    HW1  257   2.409   2.580   1.522 -2.1817  1.8118  0.6365
   86SOL    HW2  258   2.285   2.463   1.509  2.0431  1.8464 -0.0096
   87SOL     OW  259   0.037   1.966   0.985 -0.2276  0.3848 -0.1318
   87SOL    HW1  260   0.084   1.875   0.992  1.6631 -1.2812 -2.5790
   87SOL    HW2  261   0.098   2.047   1.004 -0.4756 -1.4854 -0.2704
   88SOL     OW  262   1.089   1.081   1.147 -0.2236 -0.3956 -0.5034
   88SOL    HW1  263   1.024   1.144   1.099  1.2258 -1.8264  0.7265
   88SOL    HW2  264   1.044   0.992   1.149 -0.8490  0.8459 -0.5934
   89SOL     OW  265   0.783   2.839   2.101  0.0550  0.1024 -0.1089
   89SOL    HW1  266   0.692   2.872   2.062 -1.1627  0.7942 -0.5448
   89SOL    HW2  267   0.826   2.773   2.038  0.8896 -1.2552  1.4897
   90SOL     OW  268   0.125   2.142   1.341  0.3491  0.3331 -0.0115
   90SOL    HW1  269   0.076   2.064   1.390 -0.6524 -1.9434  2.3032
   90SOL    HW2  270   0.203   2.180   1.397  0.2214  3.0454  2.1969
   91SOL     OW  271   1.348   1.914   1.682  0.0803 -0.0188 -0.0140
   91SOL    HW1  272   1.368   1.864   1.768 -0.0571  0.0913 -0.2698
   91SOL    HW2  273   1.426   1.918   1.620 -0.7379  0.4004  2.7215
   92SOL     OW  274   2.537   2.875   1.480  0.0641  0.0035  0.1283
   92SOL    HW1  275   2.564   2.792   1.533 -0.0031 -1.0003 -3.2245
   92SOL    HW2  276   2.502   2.948   1.536  0.5518 -1.9761  0.6668
   93SOL     OW  277   2.799   1.293   2.746  0.3150  0.2970  0.7410
   93SOL    HW1  278   2.751   1.212   2.705  0.9565 -1.9156 -0.9672
   93SOL    HW2  279   2.763   1.311   2.835 -0.4484 -1.2719  1.2595
   94SOL     OW  280   2.768   2.692   1.954 -0.0165  0.6930 -0.4875
   94SOL    HW1  281   2.788   2.734   2.044 -0.7807  0.3866  0.2573
   94SOL    HW2  282   2.723   2.748   1.884  0.5533 -0.3559 -0.3393
   95SOL     OW  283   1.271   0.559   2.012 -0.4650 -0.0580  0.0161
   95SOL    HW1  284   1.292   0.479   2.071 -1.4682 -0.5066 -2.4392
   95SOL    HW2  285   1.311   0.641   2.054 -1.1187 -2.1100  0.5784
   96SOL     OW  286   2.532   0.764   1.583  0.3237  0.0980  0.9573
   96SOL    HW1  287   2.613   0.705   1.559 -0.2750  2.1612 -0.6257
   96SOL    HW2  288   2.451   0.705   1.590  1.2068  1.2816 -0.6698
   97SOL     OW  289   1.904   0.525   1.619  0.0036 -0.1474  0.0305
   97SOL    HW1  290   1.819   0.563   1.663 -0.0967  0.6130  0.2244
   97SOL    HW2  291   1.883   0.462   1.540 -1.6037 -1.7889 -1.5657
   98SOL     OW  292   1.695   2.950   1.369 -0.4522  0.2306  0.6837
   98SOL    HW1  293   1.766   3.017   1.345 -0.5896  0.3234  2.9751
   98SOL    HW2  294   1.735   2.891   1.439 -1.4579  0.2623 -1.0486
   99SOL     OW  295   2.664   0.097   2.031 -0.2612 -0.0068  0.2389
   99SOL    HW1  296   2.748   0.113   2.089  0.7234 -0.1851  1.4742
   99SOL    HW2  297   2.612   0.184   2.010  1.7724 -1.4902 -0.2551
  100SOL     OW  298   2.676   1.593   1.789 -0.1904 -0.2344 -0.2542
  100SOL    HW1  299   2.693   1.531   1.867 -2.1600 -1.1356  2.9150
  100SOL    HW2  300   2.648   1.532   1.714  0.5317 -0.6825  0.2311
  101SOL     OW  301   1.517   0.222   0.716 -0.3172 -0.0553  0.1507
  101SOL    HW1  302   1.593   0.242   0.780 -1.8777 -0.1769  0.7762
  101SOL    HW2  303   1.434   0.212   0.769  0.9204 -0.3547 -2.1809
  102SOL     OW  304   0.504   1.140   1.179  0.4802  0.3026 -0.1013
  102SOL    HW1  305   0.478   1.237   1.182 -0.1808  1.1349  1.2123
  102SOL    HW2  306   0.558   1.115   1.262  1.0077 -1.1658  0.6810
  103SOL     OW  307   2.884   0.485   0.090  0.3874  0.3114 -0.1684
  103SOL    HW1  308   2.963   0.433   0.126  0.5132  0.4216  0.0271
  103SOL    HW2  309   2.912   0.576   0.050 -0.1132  2.7571  1.1922
  104SOL     OW  310   2.700   0.137   1.732  0.0353  0.4274 -0.1441
  104SOL    HW1  311   2.778   0.192   1.694 -2.0455 -0.8205 -0.9527
  104SOL    HW2  312   2.721   0.107   1.831  1.8149 -1.1152 -1.0810
  105SOL     OW  313   1.881   0.582   2.108 -0.3990  0.4425  0.3329
  105SOL    HW1  314   1.940   0.569   2.188  0.6290  1.8751 -0.1070
  105SOL    HW2  315   1.855   0.681   2.103 -0.2197  1.1089 -1.1290
  106SOL     OW  316   1.665   0.230   0.975  0.0810 -0.1038  0.2698
  106SOL    HW1  317   1.735   0.158   0.961 -1.2644 -0.4515 -0.7918
  106SOL    HW2  318   1.577   0.190   1.009  0.6878 -0.4863  0.3061
  107SOL     OW  319   0.713   1.036   0.728  0.4177  0.7202  0.1794
  107SOL    HW1  320   0.759   1.111   0.676 -1.7469 -2.2191 -1.1972
  107SOL    HW2  321   0.611   1.040   0.719 -2.5419 -0.3655 -1.4299
  108SOL     OW  322   2.883   0.262   2.152  0.4856  0.0393  0.2505
  108SOL    HW1  323   2.916   0.352   2.118  2.1307  1.4530  0.7728
  108SOL    HW2  324   2.937   0.183   2.127 -3.0396  1.2258 -2.1973
  109SOL     OW  325   2.066   0.671   0.081  0.7730  0.0465  0.0719
  109SOL    HW1  326   1.989   0.714   0.031  4.1609 -1.8921  0.0727
  109SOL    HW2  327   2.110   0.737   0.139 -1.3842  3.5556  0.4519
  110SOL     OW  328   0.222   2.192   2.652 -0.4232  0.4641 -0.0236
  110SOL    HW1  329   0.168   2.275   2.633  0.0979  1.5691  1.1068
  110SOL    HW2  330   0.192   2.134   2.728 -0.1226 -2.4907 -2.4501
  111SOL     OW  331   2.153   0.061   2.167 -0.3187  0.1912 -0.3488
  111SOL    HW1  332   2.183   0.157   2.144  2.0009  2.7294 -1.1885
  111SOL    HW2  333   2.067   0.038   2.118 -0.8978  1.1072  0.0339
  112SOL     OW  334   2.420   2.927   0.543  0.6969 -0.0537  0.2066
  112SOL    HW1  335   2.358   2.984   0.488 -1.9689  0.6561  0.8507
  112SOL    HW2  336   2.466   2.852   0.494 -0.3145 -4.1684  3.7168
  113SOL     OW  337   2.391   2.092   1.509  0.0503 -0.4791 -0.1861
  113SOL    HW1  338   2.364   2.027   1.437  1.0051  2.1892  0.8305
  113SOL    HW2  339   2.344   2.181   1.498  0.5813 -1.5953 -0.8834
  114SOL     OW  340   2.735   1.042   0.890 -0.2556  0.1586  0.3059
  114SOL    HW1  341   2.632   1.036   0.877 -1.4982 -0.3672 -1.1261
  114SOL    HW2  342   2.780   0.949   0.881  0.2878 -1.4698  1.1531
  115SOL     OW  343   3.002   1.799   0.125 -0.4570  0.1118  0.6586
  115SOL    HW1  344   3.032   1.738   0.198 -2.3700  2.4365 -1.7821
  115SOL    HW2  345   2.947   1.750   0.059  3.1117  0.7059  0.9145
  116SOL     OW  346   3.074   1.509   1.892  1.0480 -0.3146  0.0128
  116SOL    HW1  347   3.002   1.435   1.888  2.4969 -1.0923  1.0115
  116SOL    HW2  348   0.059   1.479   1.837 -0.6685 -0.7167  0.3075
  117SOL     OW  349   2.561   0.059   0.630  0.1358 -0.0834  0.5227
  117SOL    HW1  350   2.504   0.132   0.672  0.9579  0.2548 -0.4799
  117SOL    HW2  351   2.508   3.070   0.593 -1.0940 -0.5110  0.4144
  118SOL     OW  352   0.359   2.226   1.461 -0.1418 -0.4390 -0.2730
  118SOL    HW1  353   0.462   2.227   1.456 -0.2414  0.2301 -2.2511
  118SOL    HW2  354   0.329   2.322   1.465  0.8748 -0.1556  0.2791
  119SOL     OW  355   1.646   2.161   1.106 -0.1309 -0.0234 -0.8528
  119SOL    HW1  356   1.657   2.062   1.092  0.8503  0.5613  0.3260
  119SOL    HW2  357   1.630   2.182   1.207  0.0576 -0.3976 -4.3151
  120SOL     OW  358   0.123   1.592   2.368 -0.5548 -0.1275 -0.3771
  120SOL    HW1  359   0.215   1.604   2.419  2.5289  0.5556  1.0883
  120SOL    HW2  360   0.066   1.678   2.384 -0.5891  3.1610  1.5793
  121SOL     OW  361   2.860   1.882   1.329  0.2517 -0.3176 -0.0449
  121SOL    HW1  362   2.790   1.917   1.262  1.2378 -1.3749  0.9189
  121SOL    HW2  363   2.812   1.842   1.408  1.4650  0.8063  2.0741
  122SOL     OW  364   2.191   1.411   2.305 -0.4578  0.0198 -0.3438
  122SOL    HW1  365   2.207   1.387   2.208 -0.6102 -2.0424  1.0677
  122SOL    HW2  366   2.250   1.360   2.370 -0.5055  2.0242  0.0869
  123SOL     OW  367   3.083   0.047   0.697  0.3334 -0.0956 -0.0269
  123SOL    HW1  368   3.009   0.029   0.768  0.9940 -0.0525 -1.3567
  123SOL    HW2  369   0.035   3.050   0.671 -0.9960 -1.0721  0.3647
  124SOL     OW  370   1.606   1.062   2.665  0.1019 -0.2588  1.0987
  124SOL    HW1  371   1.691   1.062   2.612 -1.7769 -0.8628 -0.7338
  124SOL    HW2  372   1.596   0.969   2.704 -3.3970  0.9533 -0.6428
  125SOL     OW  373   0.413   1.511   2.739 -0.1950 -0.4601  0.2667
  125SOL    HW1  374   0.458   1.566   2.814  1.1432  2.6277  2.2374
  125SOL    HW2  375   0.397   1.417   2.764 -1.1653  0.7210 -3.3831
  126SOL     OW  376   2.807   1.982   0.155 -0.0825 -0.9264 -0.2263
  126SOL    HW1  377   2.835   2.054   0.224  1.1466  0.2955  0.1504
  126SOL    HW2  378   2.871   1.903   0.163  0.1580  1.2637  1.1833
  127SOL     OW  379   0.752   1.562   0.920  0.0949 -0.5308  0.5477
  127SOL    HW1  380   0.851   1.582   0.901 -0.5908  0.3472  2.0848
  127SOL    HW2  381   0.693   1.584   0.838 -0.3472  0.7441  0.6531
  128SOL     OW  382   1.394   0.592   0.357  0.0576 -0.3837 -0.1865
  128SOL    HW1  383   1.461   0.622   0.288 -0.6464 -2.5041 -0.5605
  128SOL    HW2  384   1.415   0.499   0.391  1.3894  1.6139  1.7070
  129SOL     OW  385   2.327   1.715   1.113 -0.1585 -0.0066 -0.1786
  129SOL    HW1  386   2.272   1.692   1.028 -2.3026  0.4316 -0.9846
  129SOL    HW2  387   2.427   1.684   1.109  1.2696  0.4667  0.1022
  130SOL     OW  388   2.025   1.437   0.797  0.0029 -0.5255  0.4014
  130SOL    HW1  389   1.962   1.508   0.761  1.7058 -2.1164  0.5307
  130SOL    HW2  390   1.987   1.372   0.863  0.4098  0.7553 -3.8927
  131SOL     OW  391   3.072   0.968   2.782  0.2705 -0.6279 -0.5091
  131SOL    HW1  392   3.056   1.068   2.785  2.0943 -1.1525  1.6268
  131SOL    HW2  393   0.079   0.952   2.787  0.2080  1.1059  0.4526
  132SOL     OW  394   2.498   1.850   1.845  0.1041  0.1697  0.3368
  132SOL    HW1  395   2.430   1.891   1.779 -1.1561 -0.6613  0.7113
  132SOL    HW2  396   2.543   1.755   1.818  2.0383 -3.9265 -1.5013
  133SOL     OW  397   0.065   1.212   3.052  0.0692 -0.1046  0.0487
  133SOL    HW1  398   0.020   1.293   0.003  2.2150 -0.2472  0.2555
  133SOL    HW2  399   0.051   1.221   2.952  1.0955 -2.3125 -0.9051
  134SOL     OW  400   0.307   1.341   0.020 -0.2612 -0.7169 -0.2552
  134SOL    HW1  401   0.221   1.293   0.004 -0.3990  1.8570 -2.4910
  134SOL    HW2  402   0.296   1.422   0.082 -2.1610  2.3988 -0.3784
  135SOL     OW  403   2.424   1.300   0.584 -0.4422  0.3998 -0.2921
  135SOL    HW1  404   2.420   1.330   0.483  0.3441 -1.0928  0.2310
  135SOL    HW2  405   2.517   1.330   0.625 -0.3562  1.0867 -1.0159
  136SOL     OW  406   2.049   1.521   1.338 -0.0518 -0.3437  0.6263
  136SOL    HW1  407   2.135   1.506   1.292 -0.9304  1.4362 -0.2034
  136SOL    HW2  408   1.967   1.498   1.282 -0.1318 -1.6775  2.1191
  137SOL     OW  409   2.603   2.207   0.705  0.5728  0.2375 -0.1816
  137SOL    HW1  410   2.543   2.128   0.740  0.3715 -2.2182  1.3612
  137SOL    HW2  411   2.612   2.207   0.604 -2.3489 -1.6541 -0.1808
  138SOL     OW  412   1.265   0.104   1.464 -1.1248  0.0541 -0.2907
  138SOL    HW1  413   1.338   0.037   1.486 -0.2389 -0.2940  0.0903
  138SOL    HW2  414   1.213   0.122   1.547  2.9220 -0.9088  0.0328
  139SOL     OW  415   2.600   0.128   2.995 -0.2101  0.5088  0.1723
  139SOL    HW1  416   2.623   0.186   2.916  0.8732  0.7272  0.7831
  139SOL    HW2  417   2.647   0.164   3.076 -0.2943 -2.2872  0.2434
  140SOL     OW  418   1.627   2.156   2.682 -0.4057  0.3789 -0.6619
  140SOL    HW1  419   1.685   2.187   2.599 -0.3636 -0.3223  1.1420
  140SOL    HW2  420   1.676   2.100   2.751  0.9447 -0.3899  0.4095
  141SOL     OW  421   0.754   0.963   1.631 -0.2767 -0.0716 -0.2890
  141SOL    HW1  422   0.697   1.046   1.650  0.8698  3.1584  0.5839
  141SOL    HW2  423   0.839   0.950   1.691  3.8160 -2.4442 -1.4571
  142SOL     OW  424   2.747   2.978   0.082  0.2814 -0.0793 -0.5200
  142SOL    HW1  425   2.671   3.045   0.086  0.5838  0.8102  0.5908
  142SOL    HW2  426   2.815   2.992   0.005  0.3874  0.1886 -1.6584
  143SOL     OW  427   0.798   2.118   2.879 -0.2380 -0.5442 -0.3873
  143SOL    HW1  428   0.806   2.184   2.809  0.0095 -4.4946  2.7898
  143SOL    HW2  429   0.704   2.114   2.911  1.5299  1.2782  0.8532
  144SOL     OW  430   0.995   2.626   2.981  0.4239  0.1783 -0.0678
  144SOL    HW1  431   1.069   2.650   2.917 -0.7519  0.6281 -0.6212
  144SOL    HW2  432   1.016   2.543   3.037  0.2471 -0.0023 -2.2418
  145SOL     OW  433   2.391   1.869   0.123 -0.2161 -0.3086  0.2167
  145SOL    HW1  434   2.434   1.939   0.066  3.1215 -2.3532 -0.3976
  145SOL    HW2  435   2.294   1.853   0.092  2.8069  2.7388  0.6260
  146SOL     OW  436   2.727   2.808   2.879  0.1636 -0.4332 -0.2034
  146SOL    HW1  437   2.787   2.879   2.924 -0.1268 -1.7821 -1.2341
  146SOL    HW2  438   2.781   2.721   2.885  0.9189  1.8163 -0.3107
  147SOL     OW  439   2.634   2.010   1.248  0.3422  0.5854 -0.2971
  147SOL    HW1  440   2.673   2.077   1.317 -0.1211  2.0952 -0.2860
  147SOL    HW2  441   2.628   2.056   1.157 -1.9830  1.8790 -2.9416
  148SOL     OW  442   1.591   0.348   0.169 -0.2616 -0.1342  0.5196
  148SOL    HW1  443   1.645   0.403   0.100  3.6918  2.0115 -0.6056
  148SOL    HW2  444   1.563   0.255   0.132 -0.4225 -3.5895 -0.5861
  149SOL     OW  445   1.079   1.529   2.816  0.1733  0.0706  0.2271
  149SOL    HW1  446   1.125   1.440   2.835 -1.7534  0.9265  1.5547
  149SOL    HW2  447   0.982   1.517   2.779  1.4617  1.3831  0.7573
  150SOL     OW  448   0.968   2.182   0.481  0.1538 -0.3624 -0.3086
  150SOL    HW1  449   1.054   2.140   0.514 -0.1888  1.5215 -0.5838
  150SOL    HW2  450   0.891   2.116   0.498 -4.3353 -2.1279 -1.4418
  151SOL     OW  451   0.570   1.628   2.939  0.6550 -0.4101  0.0458
  151SOL    HW1  452   0.633   1.560   2.978 -0.2123 -1.2360  1.9795
  151SOL    HW2  453   0.617   1.709   2.895 -1.8216 -1.3815 -0.6660
  152SOL     OW  454   2.836   1.342   0.517 -0.0543  0.0458 -0.0385
  152SOL    HW1  455   2.907   1.393   0.568 -0.0549 -0.0132 -0.5297
  152SOL    HW2  456   2.872   1.250   0.494  2.3820 -0.6964  1.1316
  153SOL     OW  457   2.386   2.579   0.480  0.3467 -0.1881  0.2024
  153SOL    HW1  458   2.373   2.521   0.561  2.7804 -1.1698 -3.4698
  153SOL    HW2  459   2.462   2.645   0.491  0.2021 -0.9545  2.2524
  154SOL     OW  460   0.619   0.118   1.087 -0.7375  0.0911 -0.4107
  154SOL    HW1  461   0.645   0.197   1.027  2.2272  3.2749 -0.9805
  154SOL    HW2  462   0.626   0.026   1.043 -2.4541 -0.4819  2.8810
  155SOL     OW  463   0.332   2.030   0.801 -0.5702 -0.6849  0.0641
  155SOL    HW1  464   0.354   2.063   0.705  1.6213 -0.8889 -2.0698
  155SOL    HW2  465   0.302   2.110   0.857 -0.8480  2.2357  1.2527
  156SOL     OW  466   2.633   2.479   0.056 -0.1616  0.4888  0.0893
  156SOL    HW1  467   2.626   2.461   3.047 -0.7683  2.4459  0.8256
  156SOL    HW2  468   2.723   2.464   0.100  1.8581  2.0203  2.7117
  157SOL     OW  469   0.974   2.044   1.320  0.1467 -0.8065  0.1693
  157SOL    HW1  470   0.880   2.059   1.274 -1.8112  0.4606 -0.2687
  157SOL    HW2  471   0.979   1.956   1.364  1.0497  2.7246 -2.9348
  158SOL     OW  472   1.734   0.530   3.091 -0.0655  0.1581 -0.0098
  158SOL    HW1  473   1.755   0.462   3.018  0.4579  1.0684  0.4658
  158SOL    HW2  474   1.781   0.616   3.065  1.3802  1.2393 -0.7801
  159SOL     OW  475   1.099   0.207   0.045  0.3929 -0.1348 -0.0694
  159SOL    HW1  476   1.018   0.259   0.066  3.7712 -1.4590 -2.7874
  159SOL    HW2  477   1.181   0.265   0.064  0.5850 -1.6323  2.3760
  160SOL     OW  478   1.266   1.421   0.091  0.1205 -0.5263 -0.0042
  160SOL    HW1  479   1.288   1.519   0.094  0.4390  0.8685 -5.0345
  160SOL    HW2  480   1.184   1.404   0.146  1.7382 -0.5829  0.5081
  161SOL     OW  481   2.983   2.170   2.891  0.4792  0.1779  0.0646
  161SOL    HW1  482   2.948   2.198   2.805  0.5004  0.0839  1.2222
  161SOL    HW2  483   3.060   2.109   2.887  2.0363  3.3207  0.3244
  162SOL     OW  484   0.591   2.692   0.992 -0.3671  0.7994 -0.1472
  162SOL    HW1  485   0.642   2.772   1.026  1.2813 -1.2157 -0.6956
  162SOL    HW2  486   0.494   2.717   1.013  2.3804  1.8316 -0.9777
  163SOL     OW  487   2.693   1.239   0.002  0.5798 -0.3026 -0.1313
  163SOL    HW1  488   2.694   1.169   3.020  3.0548 -1.1866 -0.9811
  163SOL    HW2  489   2.663   1.188   0.085  0.9116 -1.0547 -1.0684
  164SOL     OW  490   0.280   2.668   2.860 -0.2797 -0.4151  0.2673
  164SOL    HW1  491   0.240   2.623   2.944 -0.1047 -0.3948  3.0719
  164SOL    HW2  492   0.377   2.642   2.849 -5.6287  0.6313 -0.4204
  165SOL     OW  493   2.111   0.373   1.303 -0.1318 -0.2515  0.2492
  165SOL    HW1  494   2.161   0.462   1.290  3.5096 -0.7349  1.0860
  165SOL    HW2  495   2.147   0.299   1.236  1.8807 -3.0917 -0.4135
  166SOL     OW  496   1.858   0.383   1.412 -0.8417 -0.5512  0.0062
  166SOL    HW1  497   1.789   0.318   1.373 -0.7506  2.2415  0.0129
  166SOL    HW2  498   1.949   0.371   1.366  2.3357  1.1716 -1.2901
  167SOL     OW  499   1.027   0.254   1.896  0.0543 -0.2675 -0.3422
  167SOL    HW1  500   0.928   0.242   1.916 -1.7038 -0.2616 -0.5485
  167SOL    HW2  501   1.092   0.190   1.948 -2.3636  0.5408  2.1421
  168SOL     OW  502   2.555   0.343   1.917 -0.7877  0.2546 -0.3062
  168SOL    HW1  503   2.609   0.428   1.901 -1.1317 -2.3888  1.0236
  168SOL    HW2  504   2.506   0.317   1.834  0.0319 -0.5751  3.2928
  169SOL     OW  505   0.566   1.311   0.193 -0.2927 -0.5325 -0.4143
  169SOL    HW1  506   0.494   1.373   0.226  0.7344  2.2265  0.5086
  169SOL    HW2  507   0.519   1.233   0.151 -1.3449  0.9224 -3.5972
  170SOL     OW  508   0.235   1.334   1.827 -0.5123  0.4754  0.4455
  170SOL    HW1  509   0.231   1.233   1.827 -3.7758  0.7204 -0.7174
  170SOL    HW2  510   0.252   1.358   1.921 -0.9712 -0.4865 -2.8786
  171SOL     OW  511   1.227   2.154   2.105  0.0692 -0.0737 -0.3664
  171SOL    HW1  512   1.237   2.236   2.044  0.2402 -0.9037 -1.2510
  171SOL    HW2  513   1.131   2.117   2.097  1.8987  1.9741  0.3696
  172SOL     OW  514   0.265   2.478   1.354 -0.0376  0.3692  0.0453
  172SOL    HW1  515   0.285   2.576   1.383 -1.1245 -0.4844 -0.7072
  172SOL    HW2  516   0.312   2.454   1.270 -0.7911  0.2427  1.3838
  173SOL     OW  517   1.299   2.577   0.869  0.1227 -0.0187 -0.8005
  173SOL    HW1  518   1.305   2.588   0.769 -0.1794  3.2461 -0.4003
  173SOL    HW2  519   1.205   2.545   0.897  1.5151  1.5648  1.6169
  174SOL     OW  520   1.139   2.920   0.047  0.1722  0.4532  0.2202
  174SOL    HW1  521   1.109   2.989   0.112 -1.3573 -1.5072 -0.9292
  174SOL    HW2  522   1.141   2.828   0.096  1.0086  0.2611  0.8906
  175SOL     OW  523   0.914   0.952   2.844  0.3053  1.1365  0.8846
  175SOL    HW1  524   0.885   1.051   2.833  1.2413 -0.9211 -0.5915
  175SOL    HW2  525   0.921   0.902   2.755  1.7678  0.3838 -0.7635
  176SOL     OW  526   1.733   0.762   0.394 -0.2744  0.6365  0.0908
  176SOL    HW1  527   1.811   0.820   0.412 -1.1181 -0.7509  0.4075
  176SOL    HW2  528   1.659   0.767   0.468 -2.1524 -0.9723  1.4813
  177SOL     OW  529   1.314   0.824   0.956 -0.1888 -0.0122 -0.2536
  177SOL    HW1  530   1.212   0.801   0.954 -2.2330  1.5904 -1.5889
  177SOL    HW2  531   1.351   0.813   1.046  2.1018  2.3106 -2.9382
  178SOL     OW  532   2.573   1.759   2.789  0.2633 -0.7479 -0.5782
  178SOL    HW1  533   2.620   1.708   2.867  1.5514 -0.7467 -1.1537
  178SOL    HW2  534   2.557   1.691   2.712 -2.8911 -1.8560 -1.1114
  179SOL     OW  535   0.665   2.416   2.985 -0.5051  0.1086  0.1322
  179SOL    HW1  536   0.708   2.399   2.895 -1.6867  0.6081  1.1941
  179SOL    HW2  537   0.733   2.417   3.060  2.5258 -0.7899 -2.6481
  180SOL     OW  538   2.013   1.709   1.536 -0.4276  0.5502 -0.2181
  180SOL    HW1  539   2.037   1.645   1.460 -1.7872  0.0277  0.5437
  180SOL    HW2  540   1.940   1.665   1.598  2.0805 -2.2166  0.4542
  181SOL     OW  541   1.093   1.394   2.278  0.0280  0.0531 -0.0578
  181SOL    HW1  542   1.051   1.367   2.194 -0.2003  0.2547  1.1344
  181SOL    HW2  543   1.178   1.447   2.264 -0.4921 -1.0192  0.6431
  182SOL     OW  544   0.025   0.708   2.639  0.0582 -0.1046  0.4581
  182SOL    HW1  545   0.004   0.633   2.707  1.7195  1.9170  0.1999
  182SOL    HW2  546   0.033   0.797   2.685  0.0686  0.8014 -3.6577
  183SOL     OW  547   1.294   0.299   2.361  0.3227 -0.0473  0.5558
  183SOL    HW1  548   1.331   0.269   2.451 -3.4101 -0.1497 -1.6678
  183SOL    HW2  549   1.360   0.290   2.288 -2.7942  1.0065  2.7352
  184SOL     OW  550   0.109   0.517   1.411 -0.2063  0.1678  0.2339
  184SOL    HW1  551   0.092   0.590   1.344  1.3755 -1.5867  1.3807
  184SOL    HW2  552   0.030   0.461   1.434  2.3576  3.7888  0.8858
  185SOL     OW  553   2.583   1.651   1.061 -0.0263 -0.1695 -0.4573
  185SOL    HW1  554   2.620   1.738   1.018 -0.6402  0.0957 -0.5155
  185SOL    HW2  555   2.658   1.595   1.098 -1.1248  2.1003  0.8577
  186SOL     OW  556   0.360   1.915   2.567 -0.4299 -0.5230  0.7076
  186SOL    HW1  557   0.368   1.821   2.533  2.0165 -2.7644 -0.1704
  186SOL    HW2  558   0.302   1.969   2.505 -1.2233  1.5974 -0.6893
  187SOL     OW  559   2.488   2.080   3.074  0.1499 -0.9162  0.0035
  187SOL    HW1  560   2.580   2.127   3.081 -0.7158  0.2568  0.1130
  187SOL    HW2  561   2.422   2.136   3.019 -2.5137 -1.2930  0.5900
  188SOL     OW  562   0.720   2.047   0.224 -0.0204 -0.4127 -0.2301
  188SOL    HW1  563   0.792   1.976   0.209 -0.1483 -2.1291  2.4056
  188SOL    HW2  564   0.626   2.024   0.183 -2.5657  1.2378  0.2939
  189SOL     OW  565   2.264   1.122   0.257  0.6202  0.3327  0.7062
  189SOL    HW1  566   2.306   1.208   0.293 -1.9470 -0.2481  2.7739
  189SOL    HW2  567   2.300   1.107   0.160  1.9972 -1.2884 -1.6963
  190SOL     OW  568   0.883   1.744   2.042  0.2373 -0.4739  0.2119
  190SOL    HW1  569   0.859   1.807   1.965  0.8614  0.7027 -2.3996
  190SOL    HW2  570   0.976   1.711   2.027 -0.9638  0.1192 -0.1883
  191SOL     OW  571   2.283   0.647   1.639 -0.2360 -0.5253 -0.0425
  191SOL    HW1  572   2.272   0.635   1.742 -2.8160  0.7988 -0.0486
  191SOL    HW2  573   2.197   0.655   1.588  1.2454  1.0085  0.1188
  192SOL     OW  574   2.016   0.080   1.867  0.4525 -0.0589  0.2817
  192SOL    HW1  575   1.970   0.136   1.940  0.8989  0.3943 -3.3231
  192SOL    HW2  576   1.962   0.101   1.783 -1.0407  0.9199  0.2766
  193SOL     OW  577   0.048   0.874   0.765 -0.1042  0.1338 -0.3637
  193SOL    HW1  578   0.059   0.875   0.866  1.9873 -0.3706 -1.3142
  193SOL    HW2  579   0.085   0.789   0.734  2.3857  3.6063  3.3862
  194SOL     OW  580   1.455   2.504   1.598 -0.2430 -0.3957  0.1493
  194SOL    HW1  581   1.420   2.476   1.507 -1.4548 -2.2237 -1.5409
  194SOL    HW2  582   1.482   2.419   1.649  2.1807  0.4518 -0.8494
  195SOL     OW  583   2.647   0.636   1.023 -0.3621 -0.0268 -0.1948
  195SOL    HW1  584   2.636   0.572   0.951  0.9692  1.6855 -0.6624
  195SOL    HW2  585   2.564   0.687   1.039 -0.0345  0.6343  1.2113
  196SOL     OW  586   1.507   2.079   1.935  0.0404  0.2422  0.0733
  196SOL    HW1  587   1.536   2.131   2.020 -1.3344 -1.8177  0.8453
  196SOL    HW2  588   1.442   2.011   1.966  0.1843 -0.0950 -1.7957
  197SOL     OW  589   0.276   2.926   2.946  0.5264  0.3446 -0.6393
  197SOL    HW1  590   0.266   2.825   2.928 -1.2510 -0.7768  2.0785
  197SOL    HW2  591   0.229   2.951   3.033 -2.0630  2.2053 -0.3374
  198SOL     OW  592   1.095   1.109   0.702  0.0875 -0.2001  0.1195
  198SOL    HW1  593   1.187   1.100   0.742 -1.1271 -2.8975  0.5527
  198SOL    HW2  594   1.038   1.025   0.715 -0.0573  1.1654  1.8710
  199SOL     OW  595   2.557   1.091   1.763 -0.3813 -0.0066  0.2700
  199SOL    HW1  596   2.552   1.051   1.667 -0.8592  0.7665 -3.7132
  199SOL    HW2  597   2.504   1.175   1.766  0.9684 -1.6752  1.1977
  200SOL     OW  598   2.254   2.609   2.404  0.5314 -0.5465 -0.3184
  200SOL    HW1  599   2.245   2.712   2.410  1.2598 -0.0770  0.3323
  200SOL    HW2  600   2.290   2.571   2.491 -0.1323  1.0867  0.4601
  201SOL     OW  601   2.566   0.298   1.549 -0.5737 -0.5444 -0.8126
  201SOL    HW1  602   2.599   0.224   1.613  1.7054  1.0574  1.6382
  201SOL    HW2  603   2.541   0.263   1.455  0.4169  1.1843  0.1628
  202SOL     OW  604   2.249   3.077   0.412  0.4509 -0.1512  0.0364
  202SOL    HW1  605   2.311   0.063   0.405  1.0427 -0.5542  1.8219
  202SOL    HW2  606   2.189   3.083   0.496 -0.8820 -1.0424  0.4475
  203SOL     OW  607   1.164   1.878   2.193  0.4023 -0.0742 -0.2228
  203SOL    HW1  608   1.106   1.943   2.139 -0.7489 -1.5811 -1.9590
  203SOL    HW2  609   1.220   1.926   2.261  3.7264 -0.9722  0.1615
  204SOL     OW  610   0.837   1.460   2.680 -0.4066  0.1756  0.2401
  204SOL    HW1  611   0.762   1.400   2.706  2.1140  0.0708  1.3093
  204SOL    HW2  612   0.842   1.455   2.577  0.2060  0.4387 -2.4123
  205SOL     OW  613   1.001   1.776   1.361 -0.4200  0.0496  0.2616
  205SOL    HW1  614   1.038   1.740   1.271 -0.0632 -0.7551 -0.7328
  205SOL    HW2  615   0.901   1.755   1.371 -0.3071 -2.3999 -0.4754
  206SOL     OW  616   0.117   0.408   2.999 -0.5761 -0.2417  0.4255
  206SOL    HW1  617   0.114   0.352   2.914 -0.7898  1.5100 -1.0085
  206SOL    HW2  618   0.171   0.368   3.078  2.8354 -0.2542  2.8905
  207SOL     OW  619   1.735   2.695   2.367  0.4492  0.0497  0.1230
  207SOL    HW1  620   1.780   2.662   2.447 -0.4885  2.5378 -1.2200
  207SOL    HW2  621   1.783   2.781   2.335 -0.8476 -1.9986  2.5741
  208SOL     OW  622   0.729   2.341   1.165 -0.4761 -0.5881 -0.5872
  208SOL    HW1  623   0.796   2.412   1.195 -1.7771  0.9867 -3.0283
  208SOL    HW2  624   0.681   2.367   1.079  2.1484  1.3797  0.4083
  209SOL     OW  625   1.504   1.134   2.328 -0.0651 -0.3567 -0.3742
  209SOL    HW1  626   1.404   1.112   2.330 -1.6791 -2.8902 -0.1286
  209SOL    HW2  627   1.531   1.224   2.365  0.5517 -1.4001 -1.4489
  210SOL     OW  628   1.989   0.817   1.270 -0.0861 -0.1635  0.2658
  210SOL    HW1  629   2.017   0.861   1.188 -0.6484 -2.2786  0.9735
  210SOL    HW2  630   1.899   0.764   1.258  0.8529 -1.2606  0.2072
  211SOL     OW  631   0.747   2.649   0.594 -0.0291  0.1637  0.0127
  211SOL    HW1  632   0.800   2.609   0.512 -2.1875 -2.0087 -2.4715
  211SOL    HW2  633   0.808   2.698   0.659  0.9803 -0.1663  0.1708
  212SOL     OW  634   1.837   1.691   0.503  0.3029  0.0976 -0.3545
  212SOL    HW1  635   1.749   1.739   0.517  1.3230  0.4798  1.5649
  212SOL    HW2  636   1.863   1.655   0.592 -1.0280  0.1040  1.2810
  213SOL     OW  637   1.624   0.019   2.894 -0.0062 -0.0910 -0.6715
  213SOL    HW1  638   1.664   3.064   2.976  2.9453  0.9970 -0.8557
  213SOL    HW2  639   1.562   0.096   2.923 -1.3849 -0.6899 -0.1215
  214SOL     OW  640   1.349   1.519   2.259  0.1828 -0.3439 -0.1533
  214SOL    HW1  641   1.385   1.542   2.163 -3.3077 -0.6298 -1.5987
  214SOL    HW2  642   1.288   1.588   2.301  2.0237 -0.6319  1.1267
  215SOL     OW  643   0.746   1.705   0.229 -0.4156 -0.0333  0.1838
  215SOL    HW1  644   0.646   1.711   0.208  0.7579  1.4178 -1.1456
  215SOL    HW2  645   0.761   1.724   0.329 -0.1714 -0.4981 -3.6803
  216SOL     OW  646   0.203   2.775   2.240 -0.1690 -0.1187  0.2434
  216SOL    HW1  647   0.299   2.736   2.247 -0.7087 -1.7864 -3.8811
  216SOL    HW2  648   0.131   2.701   2.224 -0.0019  0.1457 -0.4276
  217SOL     OW  649   2.477   0.979   0.872 -0.1582 -0.2824  0.0339
  217SOL    HW1  650   2.398   1.046   0.895  0.1506  0.6759 -1.8722
  217SOL    HW2  651   2.454   0.932   0.784 -0.7631 -0.0025 -0.7163
  218SOL     OW  652   1.722   1.423   1.900  0.4415 -0.7935 -0.0505
  218SOL    HW1  653   1.695   1.356   1.971  0.3491  2.2026  0.2037
  218SOL    HW2  654   1.822   1.439   1.895  3.0279 -0.3058 -1.5869
  219SOL     OW  655   1.957   1.719   0.226 -0.9004  0.2612  0.1407
  219SOL    HW1  656   1.878   1.667   0.182 -1.2835  2.2467  0.8262
  219SOL    HW2  657   1.935   1.720   0.325 -4.3296 -2.4163 -0.9945
  220SOL     OW  658   1.477   1.515   0.958  0.0085  0.0927  0.5687
  220SOL    HW1  659   1.538   1.555   0.885 -1.3076  0.2759 -0.0181
  220SOL    HW2  660   1.466   1.585   1.033  0.1499  1.4252  0.1821
  221SOL     OW  661   0.735   0.456   2.947  0.0535  0.2916 -0.1462
  221SOL    HW1  662   0.764   0.551   2.948 -1.3713 -2.1574  1.4400
  221SOL    HW2  663   0.786   0.406   3.017  0.3487  0.9143  2.6205
  222SOL     OW  664   1.408   1.422   0.389 -0.0380  0.8016  0.1400
  222SOL    HW1  665   1.403   1.395   0.487 -0.6126 -0.0827  4.2624
  222SOL    HW2  666   1.393   1.340   0.328  0.1357 -0.8155 -0.3273
  223SOL     OW  667   1.026   2.979   2.895  0.3193 -0.0769 -0.5518
  223SOL    HW1  668   1.084   2.965   2.978 -0.2332 -2.3256  1.6425
  223SOL    HW2  669   0.929   2.999   2.917 -0.2536 -2.5840 -1.0897
  224SOL     OW  670   2.205   0.199   1.499  0.0476  0.2534 -0.0319
  224SOL    HW1  671   2.160   0.249   1.422  0.7399 -1.0223 -1.7850
  224SOL    HW2  672   2.264   0.258   1.555  0.1634  1.8016 -1.2563
  225SOL     OW  673   0.405   0.080   1.258  0.1659  0.3284 -0.1205
  225SOL    HW1  674   0.347   0.164   1.242 -2.0057  2.2064  2.3925
  225SOL    HW2  675   0.487   0.087   1.198 -0.4136 -0.6475 -3.3885
  226SOL     OW  676   1.282   1.308   2.887 -0.0899 -0.0123 -0.2494
  226SOL    HW1  677   1.382   1.313   2.866 -1.5031  1.5332  2.7039
  226SOL    HW2  678   1.265   1.332   2.983 -2.6388  0.8626  0.5081
  227SOL     OW  679   1.116   1.717   1.119 -0.3605 -0.3126 -0.5784
  227SOL    HW1  680   1.125   1.616   1.111  2.4538  1.8175 -1.7852
  227SOL    HW2  681   1.199   1.768   1.087  2.1739 -0.5108  1.2785
  228SOL     OW  682   0.640   1.603   0.661  0.4654  0.0930  0.0099
  228SOL    HW1  683   0.604   1.521   0.612 -0.5544  0.5894 -3.7453
  228SOL    HW2  684   0.563   1.666   0.683 -1.9212  3.9074 -1.2145
  229SOL     OW  685   1.295   0.382   0.115  0.3195  0.7204 -0.4465
  229SOL    HW1  686   1.284   0.473   0.067  0.4607 -0.1126  2.5269
  229SOL    HW2  687   1.395   0.360   0.133  4.7083 -0.6828  1.9527
  230SOL     OW  688   1.461   0.311   2.139 -0.1936  0.2806  0.7247
  230SOL    HW1  689   1.518   0.385   2.096 -3.0345 -0.2321 -0.1032
  230SOL    HW2  690   1.518   0.229   2.159  0.6775 -1.0244  0.4633
  231SOL     OW  691   1.138   1.658   2.366  0.1378 -0.3983 -0.3519
  231SOL    HW1  692   1.070   1.596   2.320 -0.2218  3.0461 -0.2859
  231SOL    HW2  693   1.119   1.755   2.340 -1.2981  0.4341 -1.1054
  232SOL     OW  694   2.456   2.032   0.840  0.0122 -0.2195 -0.1285
  232SOL    HW1  695   2.426   2.088   0.921 -0.7232  0.5077 -0.7668
  232SOL    HW2  696   2.379   1.973   0.814 -2.1948  0.1540  0.2455
  233SOL     OW  697   2.678   2.723   0.206  0.4843  0.3680 -0.5467
  233SOL    HW1  698   2.645   2.644   0.150  4.0753  2.2386  2.5919
  233SOL    HW2  699   2.688   2.804   0.146 -3.1889 -0.0399 -0.5483
  234SOL     OW  700   1.045   0.165   2.887  0.3826 -0.0169  0.1047
  234SOL    HW1  701   1.053   0.176   2.988 -1.9824 -0.9807  2.2684
  234SOL    HW2  702   1.019   0.070   2.862 -0.8063  2.8273 -1.5672
  235SOL     OW  703   2.619   0.317   2.803 -0.2825  0.1664 -0.3270
  235SOL    HW1  704   2.525   0.309   2.755 -0.8009 -0.0696 -2.4480
  235SOL    HW2  705   2.627   0.392   2.868  1.6906  0.3143  0.9807
  236SOL     OW  706   2.125   2.607   1.864 -0.5219 -0.2890 -0.1988
  236SOL    HW1  707   2.081   2.599   1.957  0.0140 -0.0272  1.1988
  236SOL    HW2  708   2.134   2.517   1.814  3.2017  2.0497 -2.0595
  237SOL     OW  709   0.642   1.451   1.775 -0.3245  0.1802  0.4583
  237SOL    HW1  710   0.666   1.467   1.877  0.8631  1.5556  1.8981
  237SOL    HW2  711   0.728   1.446   1.719  1.4773 -0.1601 -0.9962
  238SOL     OW  712   1.682   2.943   2.689  0.1585 -0.1577 -0.4361
  238SOL    HW1  713   1.641   2.998   2.769 -1.7236  3.3174  1.2610
  238SOL    HW2  714   1.758   2.992   2.647  1.9902  0.2492  1.6032
  239SOL     OW  715   0.016   2.213   1.701 -0.7778 -0.2671  0.1356
  239SOL    HW1  716   3.081   2.278   1.775  1.8278 -1.5355  0.0424
  239SOL    HW2  717   0.099   2.162   1.726  2.2268 -0.7883 -3.1787
  240SOL     OW  718   3.029   2.495   0.620  0.1577  0.1542 -0.2327
  240SOL    HW1  719   2.978   2.503   0.709 -0.9011  2.0881  1.8512
  240SOL    HW2  720   3.038   2.397   0.598  3.3003 -0.4239  1.3690
  241SOL     OW  721   2.298   1.204   0.907  0.0362 -0.1108  0.1846
  241SOL    HW1  722   2.365   1.278   0.927  0.4527 -2.5926 -0.9144
  241SOL    HW2  723   2.228   1.226   0.835  1.9014 -1.0275 -0.1912
  242SOL     OW  724   2.030   2.095   2.662  0.2534 -0.1172 -0.1825
  242SOL    HW1  725   2.100   2.020   2.655 -0.9289 -0.9982  0.6974
  242SOL    HW2  726   1.957   2.066   2.728 -0.3730  0.7587  0.3407
  243SOL     OW  727   0.717   2.427   1.554 -0.0308  0.3817  0.4438
  243SOL    HW1  728   0.731   2.509   1.495  1.0571  0.2927  0.1686
  243SOL    HW2  729   0.704   2.456   1.649 -0.9763  1.7871 -0.7610
  244SOL     OW  730   2.202   0.009   2.895  0.3546  0.3788 -0.0870
  244SOL    HW1  731   2.277   0.001   2.961 -2.0117 -0.7703 -0.7280
  244SOL    HW2  732   2.237   0.023   2.803  0.9538  0.5637  3.3476
  245SOL     OW  733   1.441   2.935   0.980 -0.1166  0.1007  0.2853
  245SOL    HW1  734   1.457   2.873   1.061 -1.9775 -0.6398  2.4288
  245SOL    HW2  735   1.457   2.883   0.895 -1.4797 -0.3071  2.2945
  246SOL     OW  736   1.561   2.503   0.279 -0.1114 -0.2290  0.1078
  246SOL    HW1  737   1.560   2.548   0.188  2.5856 -0.0467 -1.1804
  246SOL    HW2  738   1.661   2.482   0.304  0.9628  3.2854 -1.1228
  247SOL     OW  739   1.056   0.314   2.239 -0.1930 -0.5877  0.4099
  247SOL    HW1  740   0.989   0.391   2.253  1.1187  3.3876 -1.9303
  247SOL    HW2  741   1.144   0.316   2.290 -0.5663  0.7833 -0.5860
  248SOL     OW  742   0.365   1.827   1.666  0.0611 -0.5402  0.0178
  248SOL    HW1  743   0.425   1.870   1.736  0.9370 -2.9695  1.6696
  248SOL    HW2  744   0.358   1.724   1.678  3.4302  1.2006 -0.5263
  249SOL     OW  745   2.166   0.321   0.433 -0.2900 -0.0850 -0.1285
  249SOL    HW1  746   2.259   0.339   0.470  1.1152 -0.4589  0.7647
  249SOL    HW2  747   2.148   0.381   0.352 -0.6221 -0.5354 -2.2759
  250SOL     OW  748   0.082   0.392   0.585  0.4276  0.1467  0.4517
  250SOL    HW1  749   0.147   0.339   0.641  1.5870  1.3465 -1.3034
  250SOL    HW2  750   0.113   0.393   0.486  0.7646 -0.0375 -1.6462
  251SOL     OW  751   1.773   0.328   2.892  0.7554 -0.4760  0.7996
  251SOL    HW1  752   1.836   0.370   2.823  3.1986 -1.1566  0.2867
  251SOL    HW2  753   1.814   0.257   2.947 -1.4717  2.6528  1.2525
  252SOL     OW  754   1.625   1.669   2.022 -0.3644  0.0129  0.3639
  252SOL    HW1  755   1.662   1.691   2.110  0.9541 -1.1468 -0.5498
  252SOL    HW2  756   1.647   1.572   1.988 -0.0240 -2.9880 -0.4440
  253SOL     OW  757   2.665   2.403   1.680 -0.6872 -0.2108  0.7140
  253SOL    HW1  758   2.702   2.403   1.777 -0.2797  0.2993 -0.7759
  253SOL    HW2  759   2.645   2.308   1.645 -1.8158  3.0891  1.2676
  254SOL     OW  760   2.922   1.660   1.076 -0.0261  0.1353 -0.6293
  254SOL    HW1  761   2.869   1.572   1.083 -2.9207 -2.9673  0.9040
  254SOL    HW2  762   2.879   1.729   1.141 -1.6317  0.5907  2.7205
  255SOL     OW  763   1.175   0.415   1.242 -0.0562 -0.2613  0.3529
  255SOL    HW1  764   1.102   0.388   1.307  1.3668 -0.2256 -0.0230
  255SOL    HW2  765   1.226   0.496   1.273 -0.3165 -0.4755 -0.6139
  256SOL     OW  766   1.927   2.359   1.518  0.4349 -0.1439 -0.1562
  256SOL    HW1  767   1.900   2.416   1.435  0.3976  1.5860 -2.3722
  256SOL    HW2  768   1.934   2.262   1.487 -0.0461  3.1284  1.2415
  257SOL     OW  769   0.535   2.625   2.745  0.0864 -0.0439  0.3813
  257SOL    HW1  770   0.632   2.664   2.747  1.6642  1.4417  0.8759
  257SOL    HW2  771   0.522   2.568   2.659  1.0631  1.0786 -2.3721
  258SOL     OW  772   0.990   2.216   3.033  0.1498 -0.7213  0.0668
  258SOL    HW1  773   1.028   2.147   0.002  0.9043 -1.7882 -0.2947
  258SOL    HW2  774   0.914   2.185   2.974  0.9245  0.7759 -2.7362
  259SOL     OW  775   0.968   0.111   2.384  0.1077 -0.1502 -0.6004
  259SOL    HW1  776   1.034   0.031   2.371 -1.9127 -5.3680 -1.2783
  259SOL    HW2  777   0.989   0.188   2.322  2.3585 -3.7715  0.8658
  260SOL     OW  778   1.804   0.647   1.016 -0.4560  0.7024 -0.3224
  260SOL    HW1  779   1.759   0.738   1.002 -0.0932 -2.5084  2.2452
  260SOL    HW2  780   1.795   0.622   1.114 -2.8538  0.3254 -0.4155
  261SOL     OW  781   0.556   0.297   2.546  0.4968 -0.4333  0.4039
  261SOL    HW1  782   0.473   0.360   2.544 -0.5091  0.6907 -0.1291
  261SOL    HW2  783   0.635   0.342   2.595 -1.9275  0.3671  1.8849
  262SOL     OW  784   0.195   1.946   1.957  0.6038 -0.1155 -0.1556
  262SOL    HW1  785   0.248   2.032   1.973 -0.3589  2.4820 -0.7688
  262SOL    HW2  786   0.172   1.948   1.860  1.0649  3.1024  1.1889
  263SOL     OW  787   2.813   1.483   2.235 -0.1513  0.7314 -0.6743
  263SOL    HW1  788   2.814   1.584   2.218  1.0665  1.0425  0.1970
  263SOL    HW2  789   2.909   1.451   2.242  0.2762 -0.9739  6.7620
  264SOL     OW  790   0.850   1.257   1.049 -0.0467  0.2964 -0.3868
  264SOL    HW1  791   0.786   1.195   1.002  2.1154 -1.6240  2.2171
  264SOL    HW2  792   0.798   1.322   1.108 -1.9713 -0.5542 -0.2015
  265SOL     OW  793   1.052   2.479   0.930 -0.1469 -0.1955 -0.4535
  265SOL    HW1  794   1.013   2.393   0.899  1.2953 -0.8235  0.1857
  265SOL    HW2  795   1.029   2.493   1.028 -1.6252 -3.1112  0.8645
  266SOL     OW  796   1.587   1.062   1.101 -0.5541 -0.6522  0.9856
  266SOL    HW1  797   1.623   1.113   1.180 -1.0843 -1.7431 -0.7373
  266SOL    HW2  798   1.542   1.127   1.031 -1.6984 -0.7724 -0.1794
  267SOL     OW  799   2.360   1.094   3.092  0.6016  0.2132  0.4314
  267SOL    HW1  800   2.333   1.100   2.995  1.4754  0.4430  0.2597
  267SOL    HW2  801   2.407   1.006   0.018  1.1179 -0.0589 -2.5790
  268SOL     OW  802   1.206   0.263   0.347  0.2621  0.0741  0.2300
  268SOL    HW1  803   1.284   0.282   0.411 -0.7261 -0.5772  1.8670
  268SOL    HW2  804   1.214   0.317   0.258 -0.1108  0.7219 -0.9237
  269SOL     OW  805   2.436   0.543   2.665 -0.1104 -0.6435 -0.2332
  269SOL    HW1  806   2.424   0.602   2.754  1.5076  0.8515  2.4625
  269SOL    HW2  807   2.418   0.443   2.678  1.3879 -1.7673  0.3704
  270SOL     OW  808   0.244   0.989   3.032 -0.0950  0.0937 -0.4570
  270SOL    HW1  809   0.243   0.947   2.940 -0.8575  2.6191  4.0844
  270SOL    HW2  810   0.161   1.040   3.057 -0.2246  0.3074 -2.4179
  271SOL     OW  811   2.692   1.106   0.237  0.3712  0.8209  0.8113
  271SOL    HW1  812   2.701   1.013   0.196 -0.4633 -0.0166 -0.5657
  271SOL    HW2  813   2.778   1.128   0.287  0.1116 -1.6466 -0.9918
  272SOL     OW  814   2.906   2.773   2.619 -0.2700  0.0332  0.4683
  272SOL    HW1  815   3.000   2.741   2.587 -2.3172  1.4166 -1.7814
  272SOL    HW2  816   2.866   2.730   2.701  0.1820  0.3716 -2.2927
  273SOL     OW  817   2.891   3.046   2.945  0.1467  0.6547  0.2140
  273SOL    HW1  818   2.961   0.011   2.993 -0.1990 -3.6757 -0.4058
  273SOL    HW2  819   2.910   3.044   2.845  2.8065 -0.3153  1.6268
  274SOL     OW  820   0.640   2.433   0.927 -0.2502  0.0014 -0.8845
  274SOL    HW1  821   0.627   2.533   0.934 -0.5525 -0.8112  1.4631
  274SOL    HW2  822   0.689   2.416   0.843 -0.5957 -1.6653 -3.3350
  275SOL     OW  823   2.613   1.450   0.185  0.9419 -0.0768  0.0187
  275SOL    HW1  824   2.680   1.491   0.241  1.0740 -1.5504 -2.8354
  275SOL    HW2  825   2.641   1.358   0.148 -0.6602  0.5544 -0.0743
  276SOL     OW  826   2.834   1.242   1.653 -0.1889 -0.2751 -0.3091
  276SOL    HW1  827   2.831   1.139   1.657  1.4578 -1.0984 -1.5817
  276SOL    HW2  828   2.895   1.276   1.583 -1.1948  1.9077  1.4880
  277SOL     OW  829   2.198   0.173   1.144 -0.5420  0.0298 -0.1167
  277SOL    HW1  830   2.252   0.093   1.148 -2.3659  2.7545  0.6219
  277SOL    HW2  831   2.145   0.171   1.059 -0.5613  0.1957  1.4294
  278SOL     OW  832   1.372   2.240   2.308  1.1365 -0.1353  0.1798
  278SOL    HW1  833   1.468   2.234   2.276 -1.0936  0.7982 -0.4900
  278SOL    HW2  834   1.317   2.219   2.224  0.2793  0.3546 -0.9056
  279SOL     OW  835   1.739   2.039   0.834 -0.5379  0.2427 -0.4184
  279SOL    HW1  836   1.826   2.084   0.857  0.1030  0.3787 -0.2527
  279SOL    HW2  837   1.690   2.096   0.773  0.1827 -0.2974  0.3155
  280SOL     OW  838   0.336   1.348   0.966  0.2304 -0.1439  0.0204
  280SOL    HW1  839   0.334   1.431   0.905 -0.5161 -0.3236 -1.7092
  280SOL    HW2  840   0.361   1.371   1.063 -0.0222 -0.2902 -0.2704
  281SOL     OW  841   0.009   1.229   2.355 -0.1271 -0.3181  0.0271
  281SOL    HW1  842   0.061   1.241   2.446  1.6451  2.2575  1.0462
  281SOL    HW2  843   3.088   1.325   2.309  0.4338  0.3689 -2.1831
  282SOL     OW  844   0.702   1.407   3.045  0.0134  0.6173 -0.0957
  282SOL    HW1  845   0.653   1.360   0.035 -2.4122 -1.4179  1.5957
  282SOL    HW2  846   0.781   1.473   3.074  1.4360 -0.0859 -1.1850
  283SOL     OW  847   2.341   2.475   0.010  0.5720 -0.1294 -0.1349
  283SOL    HW1  848   2.305   2.493   0.106 -1.7235 -0.1019  2.4599
  283SOL    HW2  849   2.383   2.561   3.065 -1.2172 -0.6786 -0.3217
  284SOL     OW  850   0.603   3.032   0.732 -0.4783 -0.1588 -0.1623
  284SOL    HW1  851   0.578   2.936   0.702  0.5081 -2.5582 -0.3277
  284SOL    HW2  852   0.591   0.011   0.662 -0.6338 -0.9123  1.4517
  285SOL     OW  853   2.304   1.115   2.837  0.0889  0.2330  0.3316
  285SOL    HW1  854   2.372   1.055   2.790 -0.7270 -0.1352  1.4434
  285SOL    HW2  855   2.209   1.104   2.798  1.7206 -0.0383 -0.9215
  286SOL     OW  856   1.879   2.522   1.319  0.3476 -0.0717 -0.2842
  286SOL    HW1  857   1.969   2.570   1.332  1.3652 -0.2372 -0.7280
  286SOL    HW2  858   1.803   2.575   1.362  2.9553  0.0213  0.4755
  287SOL     OW  859   0.890   0.223   0.745 -0.3468 -0.1938 -0.4508
  287SOL    HW1  860   0.859   0.308   0.788  0.8359  1.4851  0.6208
  287SOL    HW2  861   0.891   0.232   0.646 -1.8278  2.0131  2.6987
  288SOL     OW  862   1.130   2.534   2.685 -0.1035  0.0421  0.7461
  288SOL    HW1  863   1.120   2.433   2.711  1.2577 -3.1302 -0.6298
  288SOL    HW2  864   1.195   2.581   2.749 -0.7097  1.5363  0.2594
  289SOL     OW  865   0.186   1.700   0.982  0.1312 -0.5120 -0.0499
  289SOL    HW1  866   0.166   1.606   1.010 -0.4748 -0.3594 -0.4800
  289SOL    HW2  867   0.165   1.708   0.883  0.9510 -0.3110 -0.5767
  290SOL     OW  868   1.472   2.297   0.951 -0.2480 -0.3536 -0.0497
  290SOL    HW1  869   1.537   2.248   1.017  1.9838 -0.8211  1.1061
  290SOL    HW2  870   1.431   2.384   0.991  1.7822  0.1717  1.3049
  291SOL     OW  871   1.421   2.769   0.200  0.1000  0.7861  0.7095
  291SOL    HW1  872   1.323   2.740   0.178 -1.2713  0.6238  0.1919
  291SOL    HW2  873   1.474   2.790   0.113  2.0998  0.8850  0.6825
  292SOL     OW  874   0.595   0.335   1.820  0.1042 -0.1154 -0.1673
  292SOL    HW1  875   0.622   0.434   1.806  0.8501  1.0559  1.1438
  292SOL    HW2  876   0.650   0.292   1.893  0.3852  1.9441  2.0733
  293SOL     OW  877   2.360   2.189   1.035 -0.3124 -0.0126  0.1600
  293SOL    HW1  878   2.455   2.232   1.063  2.0714 -4.1340 -2.0169
  293SOL    HW2  879   2.278   2.228   1.084  0.7933 -2.2259  0.1064
  294SOL     OW  880   0.780   0.580   2.294 -0.0018  0.0495 -0.0946
  294SOL    HW1  881   0.690   0.564   2.251  1.3703  1.0814 -0.4714
  294SOL    HW2  882   0.768   0.621   2.390 -1.1087  2.9126 -0.2201
  295SOL     OW  883   1.420   1.767   1.417 -0.0570  0.3996 -0.4691
  295SOL    HW1  884   1.343   1.812   1.366  1.5169  1.7879  0.4740
  295SOL    HW2  885   1.477   1.842   1.459 -0.6325 -0.0306  0.7294
  296SOL     OW  886   2.564   1.920   0.303 -0.1887  0.1634 -0.1115
  296SOL    HW1  887   2.648   1.934   0.245 -1.7126 -0.6742  2.7733
  296SOL    HW2  888   2.482   1.900   0.243 -0.4636 -2.2060 -1.6279
  297SOL     OW  889   2.427   0.162   0.344  0.4097 -0.1191 -0.5408
  297SOL    HW1  890   2.526   0.184   0.365 -1.8994  0.9642 -0.2501
  297SOL    HW2  891   2.418   0.118   0.249  1.6827 -0.4379 -3.3303
  298SOL     OW  892   0.733   2.890   2.619  0.6318  0.1872 -0.4696
  298SOL    HW1  893   0.813   2.835   2.590 -0.5768 -1.1926  2.1179
  298SOL    HW2  894   0.742   2.987   2.584  1.7634 -1.5599 -1.3897
  299SOL     OW  895   0.768   2.116   2.213  0.6229  0.1301 -0.0286
  299SOL    HW1  896   0.723   2.029   2.181  1.0810  0.0045 -1.4612
  299SOL    HW2  897   0.774   2.121   2.315  2.2517 -1.1653 -0.9357
  300SOL     OW  898   2.956   2.986   2.356  0.1620  0.3476 -0.0521
  300SOL    HW1  899   2.978   3.032   2.266  4.8761  1.3056 -0.2863
  300SOL    HW2  900   2.871   3.021   2.399 -2.3763 -0.9544  2.1948
  301SOL     OW  901   0.974   0.941   2.059  0.0822  0.6564  0.0375
  301SOL    HW1  902   0.974   0.849   2.103  0.2924  0.3300 -0.0341
  301SOL    HW2  903   1.068   0.983   2.053 -3.5531  0.1791  1.9164
  302SOL     OW  904   3.047   2.237   0.491 -0.5101  0.0020  0.2305
  302SOL    HW1  905   0.047   2.249   0.442  2.3542  0.9192 -0.4849
  302SOL    HW2  906   3.045   2.141   0.530 -2.3486 -0.3906  0.7603
  303SOL     OW  907   2.529   2.654   1.667 -0.3290  0.4931 -0.2176
  303SOL    HW1  908   2.584   2.568   1.689 -0.9822  0.9124  0.5432
  303SOL    HW2  909   2.476   2.685   1.751 -0.4839  1.5607  0.2567
  304SOL     OW  910   2.902   0.972   1.640  0.4259 -0.1355 -0.6347
  304SOL    HW1  911   2.915   0.906   1.717 -2.0250 -0.2069 -0.1025
  304SOL    HW2  912   2.993   0.974   1.593  0.4191 -1.1916  1.4908
  305SOL     OW  913   0.733   1.480   1.166 -0.0399 -0.1974  0.5588
  305SOL    HW1  914   0.761   1.504   1.070  0.3232  0.3722  0.5482
  305SOL    HW2  915   0.725   1.571   1.215 -2.2824  1.1126 -1.0703
  306SOL     OW  916   0.497   1.276   2.134 -0.4216  0.1979 -0.5116
  306SOL    HW1  917   0.498   1.199   2.075 -1.1285  1.1677  0.3898
  306SOL    HW2  918   0.586   1.290   2.184  0.8642 -1.2035  1.1598
  307SOL     OW  919   0.735   0.593   1.768 -0.4873  0.0302  0.2094
  307SOL    HW1  920   0.819   0.591   1.831  2.8797  2.4232  0.8887
  307SOL    HW2  921   0.749   0.532   1.686 -2.5081 -0.7744  0.6346
  308SOL     OW  922   3.030   1.249   1.193  0.1445  0.0656 -0.0730
  308SOL    HW1  923   3.024   1.279   1.287  2.3137  0.3411 -1.7499
  308SOL    HW2  924   2.975   1.159   1.187 -0.3905  1.9034 -1.3935
  309SOL     OW  925   2.810   1.424   1.084 -0.2999  0.2666  0.0601
  309SOL    HW1  926   2.758   1.430   1.173  0.0407 -0.2768  1.6972
  309SOL    HW2  927   2.870   1.340   1.084 -1.1764 -1.5455 -0.2708
  310SOL     OW  928   2.764   2.188   2.535  0.0086  0.1633 -0.1400
  310SOL    HW1  929   2.679   2.172   2.582  1.7398 -0.8236  1.3525
  310SOL    HW2  930   2.786   2.108   2.473  2.6686  0.0614 -0.4128
  311SOL     OW  931   2.772   2.601   2.423 -0.1361 -0.1309 -0.7286
  311SOL    HW1  932   2.783   2.664   2.339  3.5644  4.0711 -2.2002
  311SOL    HW2  933   2.725   2.650   2.500  1.3079  0.5250 -1.5647
  312SOL     OW  934   2.189   2.075   0.041  0.7056 -0.0593  0.7711
  312SOL    HW1  935   2.104   2.126   0.068 -0.0292  1.3281 -1.6492
  312SOL    HW2  936   2.175   1.989   3.082  2.6417 -0.1159 -0.8051
  313SOL     OW  937   2.687   2.962   0.794  0.2763  0.2227  0.5578
  313SOL    HW1  938   2.629   3.016   0.733  0.9467 -0.7365  1.6888
  313SOL    HW2  939   2.718   2.880   0.748 -3.6233  3.2503  2.3859
  314SOL     OW  940   1.900   1.129   2.979 -0.1870 -0.0226 -0.4482
  314SOL    HW1  941   1.798   1.123   2.973 -0.0661  0.3389 -2.1107
  314SOL    HW2  942   1.928   1.221   3.009  0.9056 -1.2529  3.7653
  315SOL     OW  943   1.362   2.896   2.256 -0.4733 -0.0161 -0.3233
  315SOL    HW1  944   1.401   2.926   2.169 -2.7878  2.2414 -0.8629
  315SOL    HW2  945   1.407   2.821   2.307  0.9210 -1.8252  0.3203
  316SOL     OW  946   3.037   1.040   0.145 -0.2597 -0.3118 -0.2782
  316SOL    HW1  947   0.010   1.119   0.133  1.3563  3.3540  0.2723
  316SOL    HW2  948   2.989   1.028   0.059 -0.9000  0.5760  0.0781
  317SOL     OW  949   0.547   2.737   3.093 -0.5588 -0.4790 -0.0869
  317SOL    HW1  950   0.541   2.749   2.994  2.2177 -0.1105  1.1562
  317SOL    HW2  951   0.647   2.745   0.022  1.3498 -2.5014  0.7754
  318SOL     OW  952   2.416   2.431   0.742  0.1708  0.0264  0.1786
  318SOL    HW1  953   2.482   2.356   0.721 -1.0144 -1.2190  0.2415
  318SOL    HW2  954   2.370   2.416   0.829  1.3879  1.7609 -0.0447
  319SOL     OW  955   1.260   1.910   2.626  0.2943 -0.3182  1.0946
  319SOL    HW1  956   1.257   1.810   2.615 -1.2942 -1.0820  1.8622
  319SOL    HW2  957   1.259   1.927   2.726  4.9429 -2.1933 -1.2644
  320SOL     OW  958   0.620   1.961   1.455  0.0819  0.0116  0.3166
  320SOL    HW1  959   0.616   2.062   1.429 -2.5652  0.1482 -1.0696
  320SOL    HW2  960   0.559   1.898   1.399 -1.0167  0.4983  2.2237
  321SOL     OW  961   1.470   2.687   2.413  0.2469  0.4660 -0.3345
  321SOL    HW1  962   1.431   2.595   2.436 -1.1114 -1.9446 -2.5033
  321SOL    HW2  963   1.570   2.674   2.414  1.3994 -0.5404  0.3127
  322SOL     OW  964   2.667   1.406   1.996 -0.1276 -0.4207 -0.1126
  322SOL    HW1  965   2.726   1.427   2.080  2.4173  4.4812 -0.2018
  322SOL    HW2  966   2.567   1.406   2.025 -1.7839  2.5839  1.4253
  323SOL     OW  967   2.452   0.801   1.060 -0.5273  0.5373  0.1006
  323SOL    HW1  968   2.490   0.866   0.988  0.9903  1.5029  0.0071
  323SOL    HW2  969   2.425   0.854   1.141  1.3897 -3.5764  0.3482
  324SOL     OW  970   2.634   2.906   2.411  0.2273 -0.3970  0.2621
  324SOL    HW1  971   2.624   2.830   2.474  0.1085  0.6507 -2.7366
  324SOL    HW2  972   2.689   2.981   2.455 -0.5434  0.1909  2.9377
  325SOL     OW  973   1.149   0.547   2.624 -0.0969  0.1199 -0.3314
  325SOL    HW1  974   1.099   0.458   2.617  0.9183  0.5842 -0.5083
  325SOL    HW2  975   1.135   0.598   2.536  1.5907  0.2358 -0.0200
  326SOL     OW  976   1.837   2.944   2.298 -0.4010  0.2914  0.3455
  326SOL    HW1  977   1.800   3.038   2.280  1.6952 -1.4658  1.9178
  326SOL    HW2  978   1.834   2.895   2.207  0.7922  1.5270  1.4280
  327SOL     OW  979   2.182   0.318   2.938 -0.1963  0.1015  0.1865
  327SOL    HW1  980   2.102   0.262   2.967  2.1981 -0.5710  0.1906
  327SOL    HW2  981   2.254   0.308   3.010  0.8862 -0.5472  0.8758
  328SOL     OW  982   0.001   1.444   2.186 -0.2756 -0.1915 -0.3337
  328SOL    HW1  983   0.067   1.510   2.228 -1.3665  1.1652 -0.5181
  328SOL    HW2  984   3.087   1.451   2.086 -0.6068  2.5699  2.0850
  329SOL     OW  985   1.865   0.029   1.635 -0.1778 -0.3019  1.0880
  329SOL    HW1  986   1.821   3.031   1.634  1.4004  1.3463 -0.9820
  329SOL    HW2  987   1.791   0.101   1.616 -0.4960  0.6781 -0.5687
  330SOL     OW  988   0.417   1.185   0.756  0.2619 -0.1464 -0.0450
  330SOL    HW1  989   0.337   1.154   0.701  0.5157 -0.8871 -3.0816
  330SOL    HW2  990   0.379   1.237   0.836  4.4928  1.4174  1.1468
  331SOL     OW  991   0.291   1.425   2.068 -0.0486  0.1738  0.3718
  331SOL    HW1  992   0.380   1.382   2.106  0.4784  0.5491  1.0817
  331SOL    HW2  993   0.291   1.527   2.058  0.4398  0.7854 -1.1770
  332SOL     OW  994   0.021   2.724   1.516  0.4351 -0.2313 -0.3876
  332SOL    HW1  995   3.024   2.762   1.492 -0.9053  2.3295 -2.2347
  332SOL    HW2  996   0.022   2.625   1.493 -1.7108  0.1136 -0.7893
  333SOL     OW  997   2.325   0.176   0.795 -0.1293  0.6641 -0.0400
  333SOL    HW1  998   2.284   0.090   0.754  1.3296 -1.9104 -0.0265
  333SOL    HW2  999   2.262   0.255   0.775  2.7726  0.5318  0.4865
  334SOL     OW 1000   0.767   1.991   0.515 -0.2516  0.6153  0.7117
  334SOL    HW1 1001   0.772   1.891   0.519 -1.1216  1.5465  0.2341
  334SOL    HW2 1002   0.737   2.025   0.424 -0.9242 -0.9627 -3.4315
  335SOL     OW 1003   0.183   2.481   3.070  0.5011 -0.1613  0.3185
  335SOL    HW1 1004   0.096   2.433   3.057 -1.7022  0.6926  0.9720
  335SOL    HW2 1005   0.253   2.436   3.013 -2.3763  0.4882 -0.5529
  336SOL     OW 1006   0.039   2.578   2.151 -0.2485  0.2754  0.5983
  336SOL    HW1 1007   0.075   2.574   2.056 -1.1042 -0.9826 -0.5075
  336SOL    HW2 1008   3.082   2.492   2.179  2.3464 -1.0214 -0.9415
  337SOL     OW 1009   2.005   2.435   2.357  0.0721 -0.6821  0.3425
  337SOL    HW1 1010   2.045   2.519   2.411  0.0260  2.9677 -2.1374
  337SOL    HW2 1011   2.069   2.358   2.354  0.1773  0.3647 -0.8612
  338SOL     OW 1012   0.578   0.145   0.532 -0.2918 -0.0211 -0.2806
  338SOL    HW1 1013   0.588   0.244   0.551 -0.7772 -0.9369 -0.8477
  338SOL    HW2 1014   0.655   0.107   0.482  0.3346  2.0447  0.6902
  339SOL     OW 1015   0.281   0.838   2.217 -0.9612  0.0742  0.2139
  339SOL    HW1 1016   0.247   0.773   2.292 -1.8924 -1.5861  0.7754
  339SOL    HW2 1017   0.202   0.860   2.156 -3.0687  1.9758 -0.4799
  340SOL     OW 1018   1.774   0.014   0.286 -0.5123  0.2063 -0.6669
  340SOL    HW1 1019   1.821   0.094   0.246  2.0423  1.0727  0.1330
  340SOL    HW2 1020   1.685   0.037   0.327  0.6806 -0.9244  0.2082
  341SOL     OW 1021   2.011   0.902   0.984 -0.0692  0.1143 -0.2712
  341SOL    HW1 1022   1.919   0.879   0.950 -0.6609  2.6245 -0.3322
  341SOL    HW2 1023   2.083   0.844   0.945 -2.5402 -0.1302 -0.0129
  342SOL     OW 1024   2.419   0.053   0.093  0.3452  0.0550 -0.0806
  342SOL    HW1 1025   2.489   0.088   0.024 -1.0068  1.8998  1.3680
  342SOL    HW2 1026   2.403   3.046   0.098  1.1445  2.6061 -1.3826
  343SOL     OW 1027   1.285   2.160   1.604 -0.1694  0.6890 -0.0672
  343SOL    HW1 1028   1.351   2.222   1.658  1.0066  2.6557  2.7627
  343SOL    HW2 1029   1.308   2.061   1.623  2.5497 -1.3103  2.7259
  344SOL     OW 1030   2.298   2.922   0.823 -0.2034  0.7703  0.2624
  344SOL    HW1 1031   2.310   2.986   0.906  0.5960  3.2127  0.5632
  344SOL    HW2 1032   2.326   2.825   0.845 -1.2311 -0.2113 -1.2725
  345SOL     OW 1033   2.881   2.408   0.166 -0.1233  0.4064 -0.0054
  345SOL    HW1 1034   2.931   2.466   0.235  1.1948  0.2623 -0.6955
  345SOL    HW2 1035   2.871   2.313   0.200 -1.6443  0.5981  2.3592
  346SOL     OW 1036   2.689   1.893   0.922 -0.1807  0.0414 -0.4444
  346SOL    HW1 1037   2.599   1.938   0.917  0.0355 -0.2887  1.1619
  346SOL    HW2 1038   2.753   1.950   0.980  0.3973  1.8309 -1.4627
  347SOL     OW 1039   1.708   1.888   1.872 -0.1923  0.0050 -0.2773
  347SOL    HW1 1040   1.640   1.965   1.889 -0.9670  2.8134 -0.8772
  347SOL    HW2 1041   1.678   1.802   1.927  1.9052 -2.3351 -0.3450
  348SOL     OW 1042   0.358   1.631   2.504  0.1468 -0.0010 -0.1782
  348SOL    HW1 1043   0.423   1.556   2.471 -0.5361 -2.3924 -0.6633
  348SOL    HW2 1044   0.335   1.625   2.606 -1.6811  2.2430  1.4895
  349SOL     OW 1045   2.466   1.419   0.905  0.0693 -0.5607  0.8224
  349SOL    HW1 1046   2.443   1.504   0.956 -0.9929  0.4006  2.0750
  349SOL    HW2 1047   2.525   1.430   0.821 -1.7600  0.7196 -2.2493
  350SOL     OW 1048   2.887   2.724   1.078 -0.3948 -0.2112 -0.4846
  350SOL    HW1 1049   2.815   2.763   1.141 -2.7302  2.2051 -0.0819
  350SOL    HW2 1050   2.936   2.650   1.125 -3.2064  0.0730  0.9208
  351SOL     OW 1051   0.415   0.086   1.946 -0.7720 -0.0280  0.2529
  351SOL    HW1 1052   0.341   0.051   1.889  0.9036 -0.4501  0.4919
  351SOL    HW2 1053   0.402   0.179   1.973  0.3097 -0.3722 -0.6096
  352SOL     OW 1054   1.018   1.593   0.828 -0.0726  0.1748 -0.0313
  352SOL    HW1 1055   1.033   1.489   0.807  1.4142 -2.8570  0.8100
  352SOL    HW2 1056   1.103   1.624   0.864  0.1081 -1.2959 -3.2194
  353SOL     OW 1057   1.242   1.635   2.613 -0.0324 -0.1011 -0.1000
  353SOL    HW1 1058   1.201   1.639   2.524  3.4533 -0.6917  1.3477
  353SOL    HW2 1059   1.185   1.592   2.686  3.5488  0.6994 -0.5744
  354SOL     OW 1060   1.464   0.087   1.073  0.5950 -0.4135  0.3942
  354SOL    HW1 1061   1.478   3.084   1.039 -0.4694  2.2622  0.2393
  354SOL    HW2 1062   1.368   0.106   1.103  0.5339 -1.2875 -0.7670
  355SOL     OW 1063   2.639   1.420   0.673  0.3104  0.0616  0.6820
  355SOL    HW1 1064   2.651   1.519   0.695 -0.8212  0.0607  0.1282
  355SOL    HW2 1065   2.704   1.388   0.602  1.6333 -0.0502  2.0856
  356SOL     OW 1066   2.497   1.631   2.272  0.0319  0.1511 -0.2858
  356SOL    HW1 1067   2.459   1.711   2.225 -1.4567 -1.1524 -1.0473
  356SOL    HW2 1068   2.602   1.635   2.275 -0.3905  0.5069 -0.7837
  357SOL     OW 1069   0.383   2.725   1.393 -0.1354  0.1319  0.3311
  357SOL    HW1 1070   0.371   2.800   1.327  1.4734  0.3239 -1.3428
  357SOL    HW2 1071   0.459   2.743   1.453 -2.1035 -0.6806 -2.2010
  358SOL     OW 1072   2.305   0.975   1.571 -0.0236 -0.2186 -0.6790
  358SOL    HW1 1073   2.248   1.024   1.643 -3.1020 -0.9326 -1.0766
  358SOL    HW2 1074   2.326   0.880   1.600 -2.3495  2.6345 -0.0265
  359SOL     OW 1075   2.288   2.768   2.813  0.3983 -0.1485 -0.2665
  359SOL    HW1 1076   2.187   2.770   2.798 -1.0886  0.1142 -0.6356
  359SOL    HW2 1077   2.315   2.868   2.828 -2.0994  0.0893  0.5715
  360SOL     OW 1078   0.852   0.486   0.888 -0.6138 -0.4058 -0.0311
  360SOL    HW1 1079   0.949   0.472   0.900 -0.3384  0.1967 -2.3104
  360SOL    HW2 1080   0.822   0.573   0.838  2.8435 -0.5710  1.0782
  361SOL     OW 1081   1.907   0.098   1.247  0.3890  0.1388 -0.0331
  361SOL    HW1 1082   1.821   0.157   1.255 -2.1354  0.4589  0.3767
  361SOL    HW2 1083   1.986   0.153   1.217 -0.2750 -1.4291 -0.2854
  362SOL     OW 1084   1.343   1.068   0.801  0.0104  0.0053  0.4007
  362SOL    HW1 1085   1.393   1.133   0.856 -1.7624 -0.6198 -0.0064
  362SOL    HW2 1086   1.338   0.986   0.857 -0.2141  0.9123 -1.6505
  363SOL     OW 1087   2.349   1.392   2.729 -0.4702  0.8300  0.1392
  363SOL    HW1 1088   2.289   1.463   2.775  1.7295  0.1997  0.1397
  363SOL    HW2 1089   2.351   1.308   2.788  1.1904 -3.0084  1.2629
  364SOL     OW 1090   0.149   0.309   1.044 -0.0805  0.3081  1.0413
  364SOL    HW1 1091   0.234   0.340   1.091  0.2454 -0.5899  2.0217
  364SOL    HW2 1092   0.077   0.381   1.061  0.8520  2.5707  0.6164
  365SOL     OW 1093   0.106   2.683   0.164  0.3259 -0.0987 -0.3746
  365SOL    HW1 1094   0.088   2.616   0.087  2.8119 -0.0366 -0.9497
  365SOL    HW2 1095   0.059   2.651   0.253 -1.0669 -2.9728  1.8772
  366SOL     OW 1096   2.299   2.241   2.960  0.5125  0.2821 -0.4266
  366SOL    HW1 1097   2.255   2.176   3.023 -0.5299 -2.8465  1.8868
  366SOL    HW2 1098   2.321   2.324   3.011  0.6997 -2.4375  3.5772
  367SOL     OW 1099   2.867   2.573   2.849  0.0108  0.3378 -0.7778
  367SOL    HW1 1100   2.777   2.533   2.852 -2.2904  0.3917  1.4222
  367SOL    HW2 1101   2.944   2.524   2.898 -1.1362 -0.0070 -1.4121
  368SOL     OW 1102   0.452   1.783   0.781  0.2875  0.0767 -0.0340
  368SOL    HW1 1103   0.491   1.727   0.856 -2.4997 -0.8877 -1.2696
  368SOL    HW2 1104   0.408   1.872   0.808  2.2355 -1.0025  0.8899
  369SOL     OW 1105   0.802   2.628   2.773 -0.0256  0.7071  0.3754
  369SOL    HW1 1106   0.845   2.679   2.699 -0.0121  0.1303 -0.5323
  369SOL    HW2 1107   0.856   2.636   2.859  2.3853  0.3119 -0.2561
  370SOL     OW 1108   0.150   1.118   0.714 -0.1984 -0.2457 -0.4105
  370SOL    HW1 1109   0.103   1.189   0.774 -1.1407  0.3665  0.9097
  370SOL    HW2 1110   0.120   1.024   0.733  3.1511  0.6363 -1.0138
  371SOL     OW 1111   1.998   2.610   0.926  0.0494  0.0248  0.1391
  371SOL    HW1 1112   1.940   2.665   0.861  0.7564  3.0085  1.6211
  371SOL    HW2 1113   1.930   2.551   0.982 -0.3561 -1.9623  2.3194
  372SOL     OW 1114   0.245   0.875   2.783 -0.5812 -0.4239  0.1705
  372SOL    HW1 1115   0.274   0.957   2.726  1.9065  1.1958  1.1919
  372SOL    HW2 1116   0.284   0.788   2.752 -0.2015 -1.7365 -0.5642
  373SOL     OW 1117   0.152   1.782   0.734 -0.1280  0.0370 -0.2993
  373SOL    HW1 1118   0.054   1.760   0.759 -0.3584  1.9402 -1.3493
  373SOL    HW2 1119   0.168   1.879   0.766  0.1780 -2.3181  1.5127
  374SOL     OW 1120   0.203   2.298   0.406  0.0621 -0.2682 -0.8966
  374SOL    HW1 1121   0.232   2.243   0.323 -1.7034 -1.3080 -0.0516
  374SOL    HW2 1122   0.247   2.392   0.408  0.7554 -0.4666 -1.0325
  375SOL     OW 1123   0.468   0.474   0.309  0.1041  0.3476  0.2573
  375SOL    HW1 1124   0.520   0.461   0.398 -1.5949  0.8423  0.7074
  375SOL    HW2 1125   0.486   0.568   0.264 -0.4287 -1.7391 -1.0442
  376SOL     OW 1126   0.271   2.375   1.908  0.1208  0.1309  0.0500
  376SOL    HW1 1127   0.279   2.298   1.838 -1.7389  2.1350 -1.2332
  376SOL    HW2 1128   0.181   2.424   1.906  1.2419  0.0859  1.4846
  377SOL     OW 1129   1.628   2.443   3.016 -0.1577  0.2321 -0.9146
  377SOL    HW1 1130   1.630   2.541   2.983  0.2523  0.5820 -0.0818
  377SOL    HW2 1131   1.719   2.408   3.035  1.6303 -0.1638 -2.0027
  378SOL     OW 1132   0.888   0.462   0.518  0.0347 -0.2105 -0.4577
  378SOL    HW1 1133   0.926   0.376   0.486  0.0515  0.5214 -0.9851
  378SOL    HW2 1134   0.964   0.513   0.567 -1.6627  1.8930 -0.3598
  379SOL     OW 1135   0.801   1.723   0.499 -0.0154  0.4943  0.4392
  379SOL    HW1 1136   0.736   1.682   0.569  0.8432 -0.7231  1.1484
  379SOL    HW2 1137   0.892   1.676   0.502  0.5090 -0.3569  0.3983
  380SOL     OW 1138   0.376   2.084   1.187 -0.2117 -0.1403  0.0314
  380SOL    HW1 1139   0.341   2.133   1.109 -1.1056  1.2088  1.4728
  380SOL    HW2 1140   0.357   2.130   1.277  0.1059 -1.3998 -0.7918
  381SOL     OW 1141   0.599   1.189   1.711  0.7264 -0.0512  0.0191
  381SOL    HW1 1142   0.612   1.292   1.719  0.8554 -0.6891  0.3627
  381SOL    HW2 1143   0.569   1.161   1.808  1.5389 -0.4962  3.7310
  382SOL     OW 1144   2.266   1.864   0.726 -0.1638 -0.1050 -0.0022
  382SOL    HW1 1145   2.328   1.790   0.703 -1.0537 -2.1802 -1.5118
  382SOL    HW2 1146   2.280   1.936   0.655  1.6730 -2.3840 -0.9159
  383SOL     OW 1147   2.758   1.767   2.221 -0.0606 -0.1490  0.4938
  383SOL    HW1 1148   2.843   1.814   2.251  0.5298  0.5450  0.5693
  383SOL    HW2 1149   2.678   1.823   2.245 -0.8918 -1.5866  0.6121
  384SOL     OW 1150   0.011   1.871   2.338  0.1157 -0.0377  0.2482
  384SOL    HW1 1151   0.075   1.947   2.337  0.2674 -1.7521 -0.1615
  384SOL    HW2 1152   3.085   1.834   2.246 -2.2878  1.8490 -1.9368
  385SOL     OW 1153   2.804   2.307   0.878 -0.2194 -0.1397  0.0041
  385SOL    HW1 1154   2.862   2.230   0.909  2.3083  0.1128  0.3670
  385SOL    HW2 1155   2.731   2.273   0.814 -0.1388 -1.3352 -4.7071
  386SOL     OW 1156   1.728   0.888   0.947 -0.1440  0.0988 -0.3749
  386SOL    HW1 1157   1.710   0.912   0.849  1.6191 -0.3942 -1.6409
  386SOL    HW2 1158   1.667   0.940   1.014 -0.1860 -0.3210 -1.1285
  387SOL     OW 1159   0.394   0.651   2.031  0.5809  0.0302  0.1228
  387SOL    HW1 1160   0.369   0.719   2.098  0.7903 -0.0454 -3.3259
  387SOL    HW2 1161   0.451   0.694   1.962  1.0950 -1.2875 -0.9232
  388SOL     OW 1162   2.332   0.951   2.484  0.4399 -0.1132  0.1829
  388SOL    HW1 1163   2.318   1.048   2.494  0.1703 -3.1953 -1.9260
  388SOL    HW2 1164   2.239   0.920   2.451 -3.0745  0.3801  2.1348
  389SOL     OW 1165   1.929   1.192   2.028  0.3300 -0.3319 -0.0427
  389SOL    HW1 1166   1.938   1.271   1.964 -3.1237 -0.2212 -2.0443
  389SOL    HW2 1167   1.968   1.105   1.985  0.8219 -2.6506 -0.2897
  390SOL     OW 1168   1.837   2.449   0.268  0.0971  0.0822 -0.1698
  390SOL    HW1 1169   1.813   2.530   0.216 -1.6698  0.5690 -0.4763
  390SOL    HW2 1170   1.932   2.412   0.258  0.2749  0.6606  0.4115
  391SOL     OW 1171   1.894   2.029   1.172 -0.2502  0.6102  0.5128
  391SOL    HW1 1172   1.934   2.074   1.088  1.2577 -0.7043 -3.4773
  391SOL    HW2 1173   1.947   1.942   1.181 -0.6576  1.0947  1.7742
  392SOL     OW 1174   2.682   2.820   1.253 -0.2742 -0.1468 -0.0816
  392SOL    HW1 1175   2.640   2.850   1.339  2.4239 -2.2021 -3.4181
  392SOL    HW2 1176   2.633   2.855   1.171 -0.7874 -1.9023 -0.5431
  393SOL     OW 1177   2.134   1.812   0.003 -0.2559 -0.3984 -0.5601
  393SOL    HW1 1178   2.072   1.803   0.088 -1.1158  0.1508  3.6987
  393SOL    HW2 1179   2.082   1.773   3.016 -0.9247  2.6070  0.8493
  394SOL     OW 1180   0.103   0.204   2.546 -1.0472 -0.1250  0.1133
  394SOL    HW1 1181   0.093   0.171   2.644 -2.1075  0.7452  1.1051
  394SOL    HW2 1182   0.026   0.258   2.523  1.1748 -1.3837  0.6901
  395SOL     OW 1183   1.050   0.763   0.965 -0.0815 -0.2098 -0.4899
  395SOL    HW1 1184   0.996   0.804   1.041  3.0645 -3.5104 -0.8301
  395SOL    HW2 1185   1.019   0.799   0.876  2.4658  0.9630  4.4126
  396SOL     OW 1186   1.295   0.648   3.091 -0.1052 -0.4602 -0.1314
  396SOL    HW1 1187   1.253   0.659   2.998 -0.2440 -1.6183  0.4261
  396SOL    HW2 1188   1.352   0.731   0.021  2.0741  1.4563 -1.9051
  397SOL     OW 1189   0.458   0.588   2.382  0.3107  0.0314 -0.1076
  397SOL    HW1 1190   0.367   0.632   2.387  0.6952  1.0724  0.3376
  397SOL    HW2 1191   0.483   0.560   2.288  1.8953 -2.2615  0.0876
  398SOL     OW 1192   0.789   3.080   0.347  0.1077  0.1865  0.4215
  398SOL    HW1 1193   0.816   2.981   0.344 -0.1826  1.7696  1.1047
  398SOL    HW2 1194   0.714   0.007   0.282 -1.5812  1.0604 -2.8780
  399SOL     OW 1195   2.098   2.922   1.914 -0.0117 -0.0122 -0.3321
  399SOL    HW1 1196   2.191   2.937   1.956 -0.2030 -0.4067  2.8954
  399SOL    HW2 1197   2.058   3.015   1.883  1.6436 -1.1887 -0.8376
  400SOL     OW 1198   0.510   1.706   2.231 -0.3982 -0.4278 -0.0363
  400SOL    HW1 1199   0.469   1.678   2.323  0.1121  2.1952  4.3615
  400SOL    HW2 1200   0.438   1.692   2.157 -3.5855 -1.3820 -0.4062
  401SOL     OW 1201   0.767   0.411   2.695 -0.1880  0.3178 -0.1349
  401SOL    HW1 1202   0.859   0.365   2.696 -1.0465 -4.0766  0.6556
  401SOL    HW2 1203   0.735   0.416   2.792  0.7326 -1.3723  1.9414
  402SOL     OW 1204   3.029   2.346   1.947 -0.1432 -0.4249  0.0508
  402SOL    HW1 1205   3.050   2.262   2.001  1.8761 -1.5852 -2.1622
  402SOL    HW2 1206   2.925   2.363   1.940 -0.7562  1.7116 -0.3533
  403SOL     OW 1207   0.539   1.080   1.947 -0.4492  0.2110  0.3512
  403SOL    HW1 1208   0.591   1.012   2.008  0.7955 -1.9238 -1.0717
  403SOL    HW2 1209   0.451   1.040   1.914  1.4509  1.0484 -0.2317
  404SOL     OW 1210   0.020   2.829   1.765  0.0362 -0.3916 -0.1346
  404SOL    HW1 1211   0.023   2.804   1.665  1.1521  0.9970 -0.2217
  404SOL    HW2 1212   3.053   2.912   1.778 -0.3497  0.7598 -2.6930
  405SOL     OW 1213   0.204   0.561   1.854  0.1310  0.4076 -0.0418
  405SOL    HW1 1214   0.241   0.579   1.947 -0.1896  0.6972  2.1329
  405SOL    HW2 1215   0.262   0.495   1.794  2.3541 -2.7066 -1.2620
  406SOL     OW 1216   1.872   2.318   3.051  0.4518 -0.4544 -0.3086
  406SOL    HW1 1217   1.933   2.288   0.030 -3.7964  1.1231 -0.5308
  406SOL    HW2 1218   1.924   2.354   2.970  0.0582  0.4861 -0.1930
  407SOL     OW 1219   1.593   1.257   2.072 -0.5109  0.2792  0.2038
  407SOL    HW1 1220   1.513   1.315   2.047 -1.9881 -2.1433 -0.0624
  407SOL    HW2 1221   1.569   1.201   2.155 -0.7475  1.3662  0.5733
  408SOL     OW 1222   0.541   0.079   2.774 -0.2007 -0.1185 -0.0902
  408SOL    HW1 1223   0.634   0.051   2.757  0.2989  0.1081 -0.7477
  408SOL    HW2 1224   0.506   0.133   2.697  2.8525  0.0760 -1.5100
  409SOL     OW 1225   0.151   1.838   0.480  0.0577  0.6391  0.4113
  409SOL    HW1 1226   0.150   1.825   0.584  1.2140  2.5878 -0.9377
  409SOL    HW2 1227   0.210   1.918   0.452 -0.8122  0.8866 -2.5060
  410SOL     OW 1228   2.680   1.725   0.466 -0.0787  0.6920  0.3031
  410SOL    HW1 1229   2.636   1.804   0.416  0.6810  2.2894 -0.6262
  410SOL    HW2 1230   2.714   1.648   0.400  1.2625 -3.0867 -0.5663
  411SOL     OW 1231   2.979   0.438   1.048 -0.3111 -0.0762  0.1584
  411SOL    HW1 1232   2.925   0.426   0.964 -3.4053  1.3856 -0.1485
  411SOL    HW2 1233   2.922   0.406   1.128  0.5786  0.9023  1.3031
  412SOL     OW 1234   1.389   0.841   1.238  0.3422 -0.5493  0.5537
  412SOL    HW1 1235   1.459   0.908   1.221 -1.5612 -1.0014  0.1995
  412SOL    HW2 1236   1.342   0.863   1.323 -1.1776 -1.0532 -2.8664
  413SOL     OW 1237   0.347   2.923   1.206 -0.6326  0.3844  0.2729
  413SOL    HW1 1238   0.368   3.020   1.197  0.2650 -2.4838 -0.1151
  413SOL    HW2 1239   0.249   2.917   1.236 -2.2578  0.8829 -0.2590
  414SOL     OW 1240   3.054   1.792   2.824 -0.1209 -0.4825 -0.1689
  414SOL    HW1 1241   2.982   1.788   2.754  0.3959  1.7730  0.6276
  414SOL    HW2 1242   0.001   1.884   2.843 -1.7275  0.0360 -0.6006
  415SOL     OW 1243   0.498   2.189   2.671 -0.0700  0.2914  0.0795
  415SOL    HW1 1244   0.511   2.142   2.760  3.2683 -0.5945  1.6341
  415SOL    HW2 1245   0.405   2.168   2.634  1.8830  0.0387  1.5178
  416SOL     OW 1246   1.456   0.350   0.485 -0.3728  0.0160  0.2848
  416SOL    HW1 1247   1.547   0.384   0.453 -0.8071 -0.8988  0.7775
  416SOL    HW2 1248   1.457   0.324   0.584 -1.4257  0.6779 -0.8022
  417SOL     OW 1249   0.223   1.191   0.467 -0.2784 -0.3408 -0.0802
  417SOL    HW1 1250   0.311   1.139   0.449 -1.3020  0.4524 -0.7029
  417SOL    HW2 1251   0.191   1.174   0.562  2.1117  1.7787 -2.3174
  418SOL     OW 1252   2.362   1.197   2.161  0.3030  0.1783  0.0152
  418SOL    HW1 1253   2.381   1.279   2.105 -0.6576  0.7991 -1.5318
  418SOL    HW2 1254   2.404   1.205   2.253  1.6253  1.1425 -0.2665
  419SOL     OW 1255   0.515   0.749   0.160  0.0823  0.0719 -0.2116
  419SOL    HW1 1256   0.580   0.810   0.105 -0.4351  3.8654 -1.2287
  419SOL    HW2 1257   0.431   0.735   0.102  1.9007  0.1789  1.0563
  420SOL     OW 1258   0.517   1.339   0.550 -0.1932 -0.0504  0.5529
  420SOL    HW1 1259   0.441   1.336   0.489 -1.6738  0.3739  1.1465
  420SOL    HW2 1260   0.490   1.288   0.634  1.5844 -2.5187 -0.4367
  421SOL     OW 1261   0.765   2.390   0.711  0.2311  0.7440  0.3264
  421SOL    HW1 1262   0.844   2.325   0.725  1.1356 -0.1251  1.4214
  421SOL    HW2 1263   0.797   2.478   0.662  2.1479  2.3028 -0.6364
  422SOL     OW 1264   0.039   0.923   1.496 -0.3931  0.1140 -0.2311
  422SOL    HW1 1265   0.119   0.972   1.455  1.1134 -0.0912 -0.7503
  422SOL    HW2 1266   0.062   0.820   1.498  0.0115 -1.6127  0.8793
  423SOL     OW 1267   1.526   1.621   1.641 -0.0530  0.2370  0.0645
  423SOL    HW1 1268   1.487   1.528   1.651 -2.0124  4.9976 -0.7558
  423SOL    HW2 1269   1.476   1.664   1.565 -0.6272 -0.8034 -2.0477
  424SOL     OW 1270   2.034   1.062   2.776 -0.0304 -0.0873  0.0709
  424SOL    HW1 1271   1.985   1.091   2.861  1.2189  0.8913 -0.0141
  424SOL    HW2 1272   1.969   1.081   2.695 -1.9402  1.3891 -2.9571
  425SOL     OW 1273   3.045   0.381   1.919 -0.2861  0.0055 -0.4445
  425SOL    HW1 1274   0.053   0.391   1.927 -0.8689 -0.4685  0.6953
  425SOL    HW2 1275   2.993   0.465   1.952 -3.3854 -0.1026  0.1359
  426SOL     OW 1276   2.558   2.724   2.610 -0.1104 -0.0430 -0.4677
  426SOL    HW1 1277   2.596   2.744   2.702  2.2154  1.1559 -0.2439
  426SOL    HW2 1278   2.499   2.640   2.615  1.4950 -0.2754  1.4710
  427SOL     OW 1279   1.116   0.710   2.410  0.0821  0.4037 -0.0921
  427SOL    HW1 1280   1.070   0.715   2.322  1.6130  1.2529  0.1556
  427SOL    HW2 1281   1.216   0.720   2.401 -0.5748 -1.3715 -1.0891
  428SOL     OW 1282   2.039   0.941   1.976  0.3693  0.0974  0.4896
  428SOL    HW1 1283   2.098   0.887   2.042 -0.2053 -1.0695  2.8010
  428SOL    HW2 1284   2.069   0.947   1.879  0.3123  1.2383  0.8755
  429SOL     OW 1285   2.972   2.829   0.443  0.5205 -0.5665  0.2564
  429SOL    HW1 1286   3.059   2.862   0.490  2.5624  2.3313 -0.8439
  429SOL    HW2 1287   2.941   2.906   0.387 -4.5722 -1.2730  1.7623
  430SOL     OW 1288   1.940   1.563   2.149  0.7154 -0.5117 -0.6229
  430SOL    HW1 1289   1.895   1.481   2.191 -1.4166 -0.9022 -1.9543
  430SOL    HW2 1290   1.880   1.643   2.137  0.9657 -1.3555  0.5851
  431SOL     OW 1291   0.197   1.856   1.202  0.2570 -0.6227 -0.0694
  431SOL    HW1 1292   0.182   1.793   1.121 -0.3750  1.8366 -0.8889
  431SOL    HW2 1293   0.244   1.944   1.174  1.7369 -0.3152  1.6532
  432SOL     OW 1294   1.816   0.038   2.551 -0.2289  0.6199  0.1944
  432SOL    HW1 1295   1.847   0.091   2.470  1.6976 -0.3416  0.4769
  432SOL    HW2 1296   1.778   0.108   2.613  2.5207 -1.6818 -1.9563
  433SOL     OW 1297   1.556   2.976   2.013  0.3171 -0.1627  0.0131
  433SOL    HW1 1298   1.501   3.030   1.944 -0.2418  0.4508 -2.0891
  433SOL    HW2 1299   1.586   3.040   2.086 -0.8430 -0.6871  1.7181
  434SOL     OW 1300   0.505   2.500   2.116  0.0125  0.3219 -0.1638
  434SOL    HW1 1301   0.493   2.555   2.201  0.1636  1.5077  2.8561
  434SOL    HW2 1302   0.429   2.523   2.053 -0.3050  0.7410  2.1387
  435SOL     OW 1303   0.282   2.140   0.215  0.0751 -0.4161  0.0726
  435SOL    HW1 1304   0.327   2.202   0.146  0.3665 -2.6789 -2.4261
  435SOL    HW2 1305   0.341   2.062   0.236 -0.5539  0.0428 -0.4333
  436SOL     OW 1306   0.543   0.773   1.844 -0.2739  0.1097 -0.3576
  436SOL    HW1 1307   0.611   0.702   1.815  2.3909 -0.7452 -1.9508
  436SOL    HW2 1308   0.497   0.812   1.761 -0.2035  0.0756 -0.5219
  437SOL     OW 1309   0.421   2.653   2.314  0.6086 -0.1975  0.2807
  437SOL    HW1 1310   0.446   2.727   2.379  1.0668 -0.3007 -1.3362
  437SOL    HW2 1311   0.370   2.585   2.370  0.8423 -0.2307 -1.6076
  438SOL     OW 1312   0.713   1.727   1.268  0.5883 -0.4243 -0.5133
  438SOL    HW1 1313   0.677   1.810   1.220 -1.0985 -2.2928 -0.5332
  438SOL    HW2 1314   0.674   1.713   1.361 -1.1500 -0.2186 -2.4734
  439SOL     OW 1315   1.938   0.785   2.730 -0.3233 -0.2775 -0.1333
  439SOL    HW1 1316   1.990   0.872   2.716  0.4143 -0.3859 -0.2453
  439SOL    HW2 1317   1.995   0.717   2.785  0.1082 -0.6669 -1.8916
  440SOL     OW 1318   0.891   0.353   0.126 -0.9112 -0.2998 -0.2481
  440SOL    HW1 1319   0.793   0.328   0.137  0.0041 -0.2929  3.7080
  440SOL    HW2 1320   0.901   0.446   0.167 -0.2108 -1.6750  0.1319
  441SOL     OW 1321   0.629   2.220   1.405  0.0640 -0.2233 -0.4163
  441SOL    HW1 1322   0.669   2.295   1.462 -0.6745  0.8946 -0.3414
  441SOL    HW2 1323   0.648   2.234   1.309  0.0608  0.4925  0.8791
  442SOL     OW 1324   3.006   1.694   0.815  0.8747  0.1392 -0.0665
  442SOL    HW1 1325   2.921   1.739   0.776 -1.1173 -0.0572 -1.1844
  442SOL    HW2 1326   3.005   1.683   0.916  0.9949 -2.6830 -1.6820
  443SOL     OW 1327   2.552   2.031   2.618  0.3216  0.2992  0.2191
  443SOL    HW1 1328   2.551   1.981   2.529 -0.6348 -1.4720 -2.1164
  443SOL    HW2 1329   2.519   1.970   2.694  0.4119 -1.1075 -0.1918
  444SOL     OW 1330   1.621   1.084   3.000  0.4784  0.1022 -0.4532
  444SOL    HW1 1331   1.578   1.152   3.062 -1.4632  1.0442  2.0526
  444SOL    HW2 1332   1.605   1.113   2.900  0.0930 -2.4145  0.5576
  445SOL     OW 1333   2.621   2.902   1.825 -0.1413  0.5330 -0.2131
  445SOL    HW1 1334   2.561   2.974   1.778 -4.1984 -0.5619  0.4318
  445SOL    HW2 1335   2.615   2.919   1.927 -0.9473  1.2752  1.2962
  446SOL     OW 1336   0.197   1.146   1.133 -0.6043 -0.0386  0.1497
  446SOL    HW1 1337   0.229   1.188   1.044  0.8273 -1.2989 -0.1573
  446SOL    HW2 1338   0.110   1.191   1.158  2.1733 -1.0175 -0.2410
  447SOL     OW 1339   1.110   2.030   1.075 -1.0886 -0.0669 -0.4508
  447SOL    HW1 1340   1.056   2.037   1.157  2.0870  1.1303 -1.4514
  447SOL    HW2 1341   1.048   1.994   1.005 -1.1521  1.8748 -2.4428
  448SOL     OW 1342   0.997   1.179   1.690 -0.3634 -0.2576  0.8322
  448SOL    HW1 1343   1.038   1.174   1.595  1.6809 -1.4477 -0.9077
  448SOL    HW2 1344   0.988   1.083   1.722  1.7896  0.6413 -2.0061
  449SOL     OW 1345   2.726   2.140   2.219  0.2157  0.5045  0.2940
  449SOL    HW1 1346   2.706   2.234   2.251 -0.1240 -2.2016 -0.6729
  449SOL    HW2 1347   2.694   2.126   2.122  0.6099 -0.8981 -1.7614
  450SOL     OW 1348   0.101   1.913   1.685  0.1571  0.2674 -0.3514
  450SOL    HW1 1349   0.067   1.917   1.588 -0.3170  0.6944 -2.8063
  450SOL    HW2 1350   0.194   1.871   1.699  2.7294 -0.0671  2.6068
  451SOL     OW 1351   2.258   0.616   1.253  0.2782 -0.0970 -0.0092
  451SOL    HW1 1352   2.310   0.690   1.296  0.0730  0.0536 -3.2949
  451SOL    HW2 1353   2.176   0.645   1.205  1.3311 -2.1094  0.4880
  452SOL     OW 1354   0.828   1.254   0.591 -0.1137  0.0053 -0.4917
  452SOL    HW1 1355   0.744   1.313   0.616 -3.0189  0.5904  1.1545
  452SOL    HW2 1356   0.909   1.319   0.578 -2.8652 -0.5512  1.4684
  453SOL     OW 1357   1.488   2.066   0.537 -0.4657 -0.4704 -0.1395
  453SOL    HW1 1358   1.479   2.129   0.455 -2.5764 -2.3943  0.1017
  453SOL    HW2 1359   1.533   2.113   0.614  0.8844 -3.1080 -2.6688
  454SOL     OW 1360   0.504   1.712   0.108  0.1955 -0.4538  0.2410
  454SOL    HW1 1361   0.526   1.677   0.014 -1.0924 -0.2088  1.6456
  454SOL    HW2 1362   0.420   1.664   0.142  0.4633 -0.6154 -2.0924
  455SOL     OW 1363   1.337   0.975   0.514  0.3902 -0.3000  0.1668
  455SOL    HW1 1364   1.237   0.958   0.499  1.3457  1.4264  3.7241
  455SOL    HW2 1365   1.355   1.006   0.606 -2.3771  0.5673 -1.5330
  456SOL     OW 1366   2.156   2.431   1.214 -0.7815  0.2169 -0.5071
  456SOL    HW1 1367   2.123   2.377   1.293 -3.0416 -1.1802  2.6644
  456SOL    HW2 1368   2.154   2.528   1.241  1.6272  0.8990 -0.6838
  457SOL     OW 1369   1.752   2.991   0.031  0.6226  0.3935  0.1393
  457SOL    HW1 1370   1.760   3.029   0.127  0.5012 -0.5612 -1.3321
  457SOL    HW2 1371   1.837   2.979   3.071 -1.5081 -0.1757 -0.5486
  458SOL     OW 1372   2.259   0.821   0.229  0.7519 -0.1578  0.1374
  458SOL    HW1 1373   2.246   0.921   0.247 -0.5051 -0.0768  1.2059
  458SOL    HW2 1374   2.303   0.777   0.310  2.0525 -0.4225  2.4450
  459SOL     OW 1375   2.962   0.358   2.461 -0.4566 -0.5804 -0.1020
  459SOL    HW1 1376   2.993   0.444   2.419  1.2118 -1.9136  0.9574
  459SOL    HW2 1377   2.878   0.333   2.413  1.6506  3.0999  2.1586
  460SOL     OW 1378   2.915   0.928   2.986 -0.1551  0.2702 -0.4426
  460SOL    HW1 1379   2.816   0.950   2.978 -1.3735 -0.1358  1.3721
  460SOL    HW2 1380   2.971   0.942   2.905 -1.9720 -1.7216  1.4884
  461SOL     OW 1381   2.908   2.549   0.846  0.1764 -0.0100  0.7087
  461SOL    HW1 1382   2.922   2.607   0.925 -2.6129 -1.1576 -0.2304
  461SOL    HW2 1383   2.855   2.466   0.870  0.1748  2.0615  0.2379
  462SOL     OW 1384   2.945   0.020   1.550 -0.2131 -0.4816 -0.3117
  462SOL    HW1 1385   2.918   0.118   1.547 -1.2913  2.6634 -0.4702
  462SOL    HW2 1386   3.041   0.012   1.540 -1.6429  1.4384 -0.7946
  463SOL     OW 1387   2.161   1.707   2.412  0.2310  0.1349  0.1462
  463SOL    HW1 1388   2.180   1.666   2.323 -0.5882  0.4913 -1.3737
  463SOL    HW2 1389   2.089   1.660   2.470  1.0247  2.3194 -0.4336
  464SOL     OW 1390   0.606   2.871   1.498 -0.2870  0.4124 -0.1368
  464SOL    HW1 1391   0.629   2.852   1.597 -0.4352 -0.4605  2.4266
  464SOL    HW2 1392   0.569   2.967   1.493 -0.0069  0.2787  0.1666
  465SOL     OW 1393   0.620   0.265   1.512 -0.3718 -0.1808 -0.3185
  465SOL    HW1 1394   0.641   0.281   1.608  1.9518 -0.0414 -1.5568
  465SOL    HW2 1395   0.584   0.172   1.497  3.4626 -0.6530  1.3083
  466SOL     OW 1396   1.642   2.795   1.852 -0.1193  0.7618 -0.4191
  466SOL    HW1 1397   1.590   2.709   1.865  1.1946  1.5222 -1.4849
  466SOL    HW2 1398   1.598   2.870   1.900  2.0571 -5.7233 -2.3488
  467SOL     OW 1399   0.566   1.912   1.118  0.3491  0.0411  0.0526
  467SOL    HW1 1400   0.540   1.819   1.086  0.9511  0.7252 -0.2053
  467SOL    HW2 1401   0.482   1.963   1.141 -0.1120  0.5614  0.7045
  468SOL     OW 1402   2.477   1.605   2.586  0.2723 -0.3330 -0.1687
  468SOL    HW1 1403   2.471   1.593   2.486  3.1210  1.9113 -2.8745
  468SOL    HW2 1404   2.446   1.520   2.641 -0.1226  0.5929  1.2345
  469SOL     OW 1405   1.144   1.842   0.435  0.2101  0.7453 -0.1894
  469SOL    HW1 1406   1.219   1.776   0.430  0.8897 -0.5034 -2.4531
  469SOL    HW2 1407   1.109   1.868   0.531 -2.6280 -1.2736  2.5098
  470SOL     OW 1408   2.256   1.229   1.432 -0.1645  0.3387  0.3189
  470SOL    HW1 1409   2.306   1.316   1.437  3.7397 -0.1619  0.2004
  470SOL    HW2 1410   2.269   1.173   1.515  0.1798 -0.1434 -1.2252
  471SOL     OW 1411   0.392   2.385   2.907 -0.6841 -0.0523 -0.0273
  471SOL    HW1 1412   0.369   2.349   2.813  0.5729  0.9496  0.6700
  471SOL    HW2 1413   0.493   2.411   2.912  0.9031 -2.5679 -0.5348
  472SOL     OW 1414   2.876   1.942   1.954 -0.1633  0.6103  0.1044
  472SOL    HW1 1415   2.882   1.921   1.859 -2.3638 -1.8519  3.0846
  472SOL    HW2 1416   2.783   1.983   1.979 -1.1859  1.4114 -0.2611
  473SOL     OW 1417   0.862   2.820   0.322 -0.1211  0.1604  0.2668
  473SOL    HW1 1418   0.963   2.808   0.345  0.9092 -0.8431  0.2940
  473SOL    HW2 1419   0.831   2.794   0.229  1.9341  1.2098 -0.1902
  474SOL     OW 1420   2.512   2.691   0.761  0.1704  0.0532 -0.5673
  474SOL    HW1 1421   2.490   2.593   0.752  1.4117  1.4995  1.7062
  474SOL    HW2 1422   2.590   2.726   0.705  0.4844  2.7833  1.4174
  475SOL     OW 1423   2.053   2.763   1.642  0.3263 -0.1767 -0.0528
  475SOL    HW1 1424   2.116   2.842   1.645  1.3112  0.3676  1.6110
  475SOL    HW2 1425   2.060   2.715   1.732 -1.5704  1.2899 -1.6961
  476SOL     OW 1426   0.759   0.722   0.815 -0.2627  0.4151  0.1438
  476SOL    HW1 1427   0.671   0.721   0.760 -3.3103  0.5174  0.5850
  476SOL    HW2 1428   0.736   0.756   0.911  0.8370  1.2307  3.6615
  477SOL     OW 1429   0.656   2.086   0.765  0.6359  0.0416 -0.1664
  477SOL    HW1 1430   0.557   2.100   0.781 -1.1188  1.7594 -1.7973
  477SOL    HW2 1431   0.672   2.040   0.672 -0.0441 -0.6454 -1.8689
  478SOL     OW 1432   0.028   2.294   2.231 -0.5233  0.8286  0.5549
  478SOL    HW1 1433   3.061   2.306   2.310  3.3529 -1.4831 -0.7723
  478SOL    HW2 1434   0.011   2.200   2.199 -0.3866 -0.1802 -0.0290
  479SOL     OW 1435   0.164   0.674   1.632  0.0541  0.1967 -0.8222
  479SOL    HW1 1436   0.175   0.626   1.726 -0.3436 -1.7637  2.6945
  479SOL    HW2 1437   0.148   0.604   1.564 -2.5294 -0.0515 -1.3195
  480SOL     OW 1438   3.010   2.418   3.012  0.0949  0.0653  0.1662
  480SOL    HW1 1439   3.000   2.324   2.967  4.5791 -3.3469 -2.0305
  480SOL    HW2 1440   2.973   2.414   0.013  1.0043 -1.1293  0.0530
  481SOL     OW 1441   1.835   2.056   2.158  0.2476 -0.2974  0.4745
  481SOL    HW1 1442   1.844   1.990   2.235  2.2119 -0.1185  0.5333
  481SOL    HW2 1443   1.883   2.017   2.075 -2.4042  1.1337  1.0520
  482SOL     OW 1444   1.725   2.098   3.082  0.4915 -0.2872  0.2664
  482SOL    HW1 1445   1.630   2.142   3.084 -2.3288  2.4075  0.8836
  482SOL    HW2 1446   1.791   2.175   3.059 -0.2343  0.9143 -2.0271
  483SOL     OW 1447   0.615   1.916   2.118 -0.2055  0.5926  0.3012
  483SOL    HW1 1448   0.594   1.925   2.015 -1.9100  1.2990 -1.6542
  483SOL    HW2 1449   0.581   1.830   2.164  2.5486  0.0816  2.1016
  484SOL     OW 1450   0.036   0.649   1.196 -0.3901 -0.1291  0.0890
  484SOL    HW1 1451   3.087   0.573   1.135  1.4169 -0.5299  1.4656
  484SOL    HW2 1452   3.064   0.729   1.208  0.6492  0.1408  2.2242
  485SOL     OW 1453   2.433   0.809   0.472  1.0177 -0.0571  0.8641
  485SOL    HW1 1454   2.369   0.753   0.533 -1.2281 -0.8351 -0.9988
  485SOL    HW2 1455   2.421   0.907   0.503  0.6902 -0.7929 -0.3280
  486SOL     OW 1456   1.578   0.070   2.268 -0.3797  0.5083 -0.6855
  486SOL    HW1 1457   1.670   0.109   2.292  1.2569 -0.8041  2.2246
  486SOL    HW2 1458   1.539   0.020   2.348 -1.0694 -0.2416  0.1599
  487SOL     OW 1459   1.212   1.438   1.074  0.4486  0.3522  0.5553
  487SOL    HW1 1460   1.152   1.380   1.011 -1.9228  1.7137 -0.9017
  487SOL    HW2 1461   1.290   1.478   1.026 -1.0299 -0.6428 -0.1281
  488SOL     OW 1462   2.212   1.392   3.076 -0.0114 -0.4536  0.0802
  488SOL    HW1 1463   2.272   1.312   3.076  1.6180  1.7219 -1.2076
  488SOL    HW2 1464   2.241   1.463   3.009  0.9347  0.6833 -1.9703
  489SOL     OW 1465   2.320   0.300   0.078  0.5506  0.0014  0.5792
  489SOL    HW1 1466   2.392   0.352   0.117 -0.7616 -0.9077  0.0694
  489SOL    HW2 1467   2.347   0.203   0.074 -0.9932 -0.1228  3.0117
  490SOL     OW 1468   1.591   2.785   0.427  0.7863 -0.5490 -0.0734
  490SOL    HW1 1469   1.669   2.749   0.373 -0.4547  0.3859 -0.6686
  490SOL    HW2 1470   1.505   2.796   0.365 -3.8233  0.4744 -4.7179
  491SOL     OW 1471   0.999   0.845   0.696  0.0870  0.2130  0.0911
  491SOL    HW1 1472   0.915   0.783   0.704 -2.5626 -0.6675  1.8033
  491SOL    HW2 1473   1.035   0.844   0.602  1.0012 -1.2141 -1.0575
  492SOL     OW 1474   1.509   0.092   0.095  0.2950 -0.5281 -0.2804
  492SOL    HW1 1475   1.525   0.066   0.196  1.7872  1.1513  0.0599
  492SOL    HW2 1476   1.449   0.025   0.045 -1.0636 -2.0305 -0.1657
  493SOL     OW 1477   2.001   2.222   0.181  0.0331  0.3127  0.3704
  493SOL    HW1 1478   2.066   2.286   0.232  0.8245 -0.2825 -0.5716
  493SOL    HW2 1479   1.938   2.182   0.248  0.1924 -0.6117  1.7182
  494SOL     OW 1480   0.452   1.085   0.393 -0.6179  0.2279  0.6108
  494SOL    HW1 1481   0.532   1.143   0.409 -2.6825 -3.0675 -2.2064
  494SOL    HW2 1482   0.443   1.072   0.292  0.8578  0.3574 -0.0707
  495SOL     OW 1483   3.080   2.913   1.010  0.5886  0.0371 -0.3856
  495SOL    HW1 1484   3.007   2.844   1.016  0.2092 -1.0647 -1.6440
  495SOL    HW2 1485   0.051   2.896   0.931  2.4928  2.7384  0.9815
  496SOL     OW 1486   2.358   0.352   1.684  0.2019 -0.0456 -0.2859
  496SOL    HW1 1487   2.443   0.345   1.629 -2.8514  0.8902 -1.7432
  496SOL    HW2 1488   2.325   0.449   1.695 -1.1889  3.1731 -0.5767
  497SOL     OW 1489   1.948   1.596   2.563 -0.0698  0.1796 -0.2508
  497SOL    HW1 1490   1.960   1.500   2.531  0.9387 -3.3386 -0.9592
  497SOL    HW2 1491   1.853   1.631   2.556 -3.7386 -1.2644  1.2835
  498SOL     OW 1492   1.099   1.900   0.699  0.7111 -0.1703  0.4524
  498SOL    HW1 1493   1.011   1.933   0.744 -0.9106  5.0402 -0.4429
  498SOL    HW2 1494   1.150   1.979   0.663 -1.6253 -1.4665  3.1456
  499SOL     OW 1495   0.784   2.062   1.129  0.5997 -0.2249  0.0599
  499SOL    HW1 1496   0.691   2.029   1.103  3.3643  2.2536 -1.4244
  499SOL    HW2 1497   0.791   2.162   1.118 -2.4630 -2.5330  2.2289
  500SOL     OW 1498   1.149   2.024   0.072  0.3266 -0.2819  0.6949
  500SOL    HW1 1499   1.073   1.960   0.093 -1.4399 -0.0555  0.4476
  500SOL    HW2 1500   1.220   2.015   0.143 -1.7984  0.2105 -1.9218
  501SOL     OW 1501   2.265   2.949   1.375  0.3954 -0.8823  0.0769
  501SOL    HW1 1502   2.359   2.938   1.397 -2.9828  1.7585  1.6467
  501SOL    HW2 1503   2.214   2.991   1.450  1.3036 -2.3970  0.8057
  502SOL     OW 1504   0.343   0.868   1.657 -0.5643 -0.1805  0.1626
  502SOL    HW1 1505   0.271   0.798   1.636 -1.1725  0.9654 -1.2605
  502SOL    HW2 1506   0.389   0.903   1.567 -2.4077 -2.1876 -2.2629
  503SOL     OW 1507   2.043   0.741   1.535  0.0320 -0.0030 -0.3740
  503SOL    HW1 1508   1.986   0.661   1.566 -2.7220 -1.0452  2.1137
  503SOL    HW2 1509   2.010   0.769   1.438 -2.2947  1.4808 -3.0608
  504SOL     OW 1510   1.464   0.715   2.174  0.0885 -0.4275  0.0285
  504SOL    HW1 1511   1.439   0.730   2.274 -0.2859 -1.0129  2.7377
  504SOL    HW2 1512   1.456   0.801   2.117 -0.6641  0.8986 -1.0568
  505SOL     OW 1513   0.742   0.022   2.207  0.0058  0.1001  0.1630
  505SOL    HW1 1514   0.827   0.023   2.264  0.5730 -1.0702  0.2294
  505SOL    HW2 1515   0.736   3.020   2.163 -1.3123 -2.0419 -0.0872
  506SOL     OW 1516   0.357   0.462   1.434  0.4852  0.6574  0.8380
  506SOL    HW1 1517   0.386   0.416   1.518  0.0455 -2.7963 -0.3014
  506SOL    HW2 1518   0.254   0.479   1.431 -2.7481  0.7144 -1.8248
  507SOL     OW 1519   1.367   3.010   3.032  0.4555  0.0396  0.2757
  507SOL    HW1 1520   1.279   2.976   3.068  2.0627 -1.7157 -3.0297
  507SOL    HW2 1521   1.437   2.939   3.039 -0.5033  1.9932  0.4189
  508SOL     OW 1522   2.119   0.341   2.475  0.4957 -0.1431 -0.4094
  508SOL    HW1 1523   2.189   0.376   2.413  0.1851 -1.5673 -0.4111
  508SOL    HW2 1524   2.130   0.237   2.486  0.3246 -0.9100  0.3658
  509SOL     OW 1525   0.865   1.433   1.651 -0.2675 -0.0557  0.3002
  509SOL    HW1 1526   0.891   1.342   1.691  1.4647 -1.8506 -0.7026
  509SOL    HW2 1527   0.937   1.509   1.672 -0.4989  0.4208 -0.1290
  510SOL     OW 1528   0.023   1.311   0.842 -0.0148  0.2511 -0.2861
  510SOL    HW1 1529   3.026   1.258   0.848 -0.1624  0.2382  0.6919
  510SOL    HW2 1530   0.055   1.353   0.930 -0.3417  1.1083 -1.1730
  511SOL     OW 1531   1.663   1.869   1.012  0.1249 -0.3884  0.4875
  511SOL    HW1 1532   1.697   1.929   0.938 -0.3414 -1.9843  1.0857
  511SOL    HW2 1533   1.742   1.826   1.063 -0.7704  0.4323  0.9207
  512SOL     OW 1534   0.728   1.145   0.357  0.2100  0.8076  0.3749
  512SOL    HW1 1535   0.681   1.221   0.304  1.6191 -0.9453 -1.7567
  512SOL    HW2 1536   0.791   1.191   0.422 -3.1172 -0.7835 -1.2733
  513SOL     OW 1537   0.568   2.359   0.527 -0.1878  0.1907 -0.1349
  513SOL    HW1 1538   0.611   2.374   0.435  0.3396  0.7447  1.2471
  513SOL    HW2 1539   0.641   2.374   0.596 -0.6386  0.0920  0.3466
  514SOL     OW 1540   2.549   1.934   2.330  0.1631  0.2162 -0.1505
  514SOL    HW1 1541   2.451   1.934   2.293 -2.1457 -0.1410  1.0027
  514SOL    HW2 1542   2.615   2.006   2.293 -1.1480 -3.0114  1.3454
  515SOL     OW 1543   2.481   0.829   0.028 -0.0036 -0.2855 -0.1482
  515SOL    HW1 1544   2.554   0.761   0.044  0.3319 -3.8525  1.7612
  515SOL    HW2 1545   2.410   0.820   0.099 -0.9377  3.3538 -2.3085
  516SOL     OW 1546   1.855   0.014   0.973 -0.0463  0.4963  0.0126
  516SOL    HW1 1547   1.867   3.076   1.070  0.5604  0.9911 -0.1617
  516SOL    HW2 1548   1.834   3.027   0.910 -0.1701 -0.1513  1.4357
  517SOL     OW 1549   1.383   2.182   2.796  0.1336 -0.2036 -0.2944
  517SOL    HW1 1550   1.347   2.091   2.824 -2.6943  2.8216 -2.2926
  517SOL    HW2 1551   1.473   2.169   2.747 -0.8881  1.1132  1.1617
  518SOL     OW 1552   1.004   0.928   1.762  0.5260 -0.3674  0.6933
  518SOL    HW1 1553   1.074   0.857   1.737 -1.4138 -0.2005  0.8458
  518SOL    HW2 1554   0.987   0.923   1.859 -0.5798  1.6896 -1.5674
  519SOL     OW 1555   3.053   1.425   0.063  0.1947  0.2980 -0.2767
  519SOL    HW1 1556   3.056   1.475   0.150 -1.0549  1.0105 -0.3076
  519SOL    HW2 1557   3.029   1.491   3.080 -2.3110 -0.8360 -3.1391
  520SOL     OW 1558   2.115   2.171   2.031  0.1604  0.6789  0.1265
  520SOL    HW1 1559   2.141   2.173   2.127  1.6214 -0.5936 -1.2494
  520SOL    HW2 1560   2.072   2.084   2.005  2.2619 -0.4128 -0.1912
  521SOL     OW 1561   0.955   2.728   2.558  0.1700  0.3148  0.2852
  521SOL    HW1 1562   0.930   2.723   2.462 -0.1324  0.6391  0.0339
  521SOL    HW2 1563   1.033   2.662   2.585  1.4953 -0.4272 -0.2740
  522SOL     OW 1564   2.318   0.259   2.059  0.9281  0.8651  0.2199
  522SOL    HW1 1565   2.306   0.200   1.980 -1.1147 -0.5922  2.3248
  522SOL    HW2 1566   2.368   0.339   2.028 -2.7029 -0.7801 -0.6191
  523SOL     OW 1567   1.571   2.208   1.421  0.2471  0.0393  0.1952
  523SOL    HW1 1568   1.491   2.267   1.395  0.8771 -0.3969 -2.9051
  523SOL    HW2 1569   1.644   2.256   1.479  1.0809  2.4644  0.3762
  524SOL     OW 1570   1.458   2.240   0.292 -0.4920 -0.0150 -0.1132
  524SOL    HW1 1571   1.462   2.341   0.309 -0.5722  1.4448 -1.5317
  524SOL    HW2 1572   1.475   2.225   0.194 -0.2390  0.7063 -3.2445
  525SOL     OW 1573   0.272   0.674   0.027 -0.1689  0.1401 -0.5116
  525SOL    HW1 1574   0.321   0.632   3.037  2.4944  0.2237 -2.1748
  525SOL    HW2 1575   0.211   0.608   0.063 -0.0391  2.8184 -0.7218
  526SOL     OW 1576   1.076   2.685   0.410  0.3182 -0.4939  0.0781
  526SOL    HW1 1577   1.018   2.600   0.417  2.7075 -0.9103 -0.7343
  526SOL    HW2 1578   1.110   2.708   0.502 -0.9729 -0.0973 -1.7215
  527SOL     OW 1579   2.794   1.811   0.690  0.1727 -0.2425  0.6544
  527SOL    HW1 1580   2.736   1.850   0.759  2.0039 -1.1123 -1.3125
  527SOL    HW2 1581   2.748   1.777   0.612  3.7047  0.7467  6.4105
  528SOL     OW 1582   0.527   0.963   2.262  0.2363  0.1424 -0.1497
  528SOL    HW1 1583   0.427   0.931   2.238 -2.6207 -1.2941 -2.2031
  528SOL    HW2 1584   0.599   0.916   2.201 -1.3741  0.4613 -1.1695
  529SOL     OW 1585   1.710   1.738   2.573 -0.4514 -0.5431  0.3407
  529SOL    HW1 1586   1.644   1.661   2.579  1.3649  0.2880 -2.3423
  529SOL    HW2 1587   1.663   1.817   2.527  1.6293 -1.4994  1.3748
  530SOL     OW 1588   1.694   0.926   2.350 -0.3113  0.0468  0.5083
  530SOL    HW1 1589   1.713   0.895   2.257 -0.2873 -0.5655  3.4357
  530SOL    HW2 1590   1.621   0.996   2.340  1.3422 -0.6968 -0.1683
  531SOL     OW 1591   0.580   2.405   2.530  0.0077 -0.3987  0.1731
  531SOL    HW1 1592   0.507   2.440   2.475  0.3623  0.3296  0.5839
  531SOL    HW2 1593   0.551   2.317   2.568  1.0851  0.4030  1.2006
  532SOL     OW 1594   2.700   0.743   0.459 -0.2479  0.0672  0.8289
  532SOL    HW1 1595   2.772   0.797   0.498 -2.2362  0.9692 -1.3232
  532SOL    HW2 1596   2.609   0.792   0.440 -1.9460  1.9220 -1.8829
  533SOL     OW 1597   2.917   0.285   1.711 -0.1843 -0.1673 -0.2418
  533SOL    HW1 1598   2.960   0.303   1.803 -0.3121 -1.9851 -0.6859
  533SOL    HW2 1599   2.977   0.327   1.637  3.6683  1.2418 -1.7459
  534SOL     OW 1600   0.745   3.026   3.011  0.1343  0.4034 -0.0157
  534SOL    HW1 1601   0.705   0.006   3.076 -4.0114  0.4043  2.7682
  534SOL    HW2 1602   0.674   2.968   2.957 -2.3981 -2.4502  0.6231
  535SOL     OW 1603   0.266   0.212   0.051  0.6768  0.8629 -0.1297
  535SOL    HW1 1604   0.335   0.146   0.011  1.9409 -0.5538  2.3394
  535SOL    HW2 1605   0.236   0.170   0.144 -0.7210 -0.9109  0.9490
  536SOL     OW 1606   0.500   1.661   1.017 -1.0526 -0.0046 -0.3150
  536SOL    HW1 1607   0.441   1.637   1.094 -1.6164  0.5930  1.7973
  536SOL    HW2 1608   0.580   1.597   1.010  1.3246 -1.3526  0.6274
  537SOL     OW 1609   0.937   2.683   1.947  0.4736  0.2255  0.3148
  537SOL    HW1 1610   1.035   2.709   1.932  1.4423  0.8299 -1.1541
  537SOL    HW2 1611   0.931   2.590   1.994 -0.8404 -1.0076 -1.2422
  538SOL     OW 1612   0.107   2.008   2.893 -0.1661  0.0768 -0.4006
  538SOL    HW1 1613   0.088   2.026   2.994 -0.2409  0.1429 -0.4252
  538SOL    HW2 1614   0.194   1.959   2.881 -0.3982  0.2208 -2.2328
  539SOL     OW 1615   2.681   1.077   2.627 -0.3815 -0.1471  0.1708
  539SOL    HW1 1616   2.611   1.013   2.656  0.8265 -0.8922 -1.8314
  539SOL    HW2 1617   2.717   1.034   2.543 -0.0549 -2.5095  1.1701
  540SOL     OW 1618   1.793   0.310   2.565  0.0732  0.5774  0.1251
  540SOL    HW1 1619   1.716   0.352   2.607 -0.8356 -1.2404  0.0954
  540SOL    HW2 1620   1.888   0.320   2.609  2.9477  2.0623  1.6837
  541SOL     OW 1621   0.565   0.458   2.136  0.0272  0.3728  0.6263
  541SOL    HW1 1622   0.511   0.379   2.173  1.9581 -1.2148  1.5272
  541SOL    HW2 1623   0.512   0.514   2.065  3.0050  1.3763 -1.6648
  542SOL     OW 1624   2.166   2.894   0.250  0.1940  0.2891 -0.1889
  542SOL    HW1 1625   2.067   2.883   0.270  0.1426  2.1340 -1.0746
  542SOL    HW2 1626   2.207   2.969   0.309  0.4134  3.0566 -1.0948
  543SOL     OW 1627   1.021   0.004   0.216 -0.4050  0.3773 -1.0653
  543SOL    HW1 1628   1.052   0.077   0.153 -0.8342  0.6246  0.4299
  543SOL    HW2 1629   0.926   0.017   0.253  0.0294 -1.8998  4.4202
  544SOL     OW 1630   2.625   1.399   1.600  0.0267 -0.4378 -0.0454
  544SOL    HW1 1631   2.534   1.374   1.647  0.1930 -0.6842  1.4102
  544SOL    HW2 1632   2.700   1.331   1.629  0.7562 -4.9099 -2.0703
  545SOL     OW 1633   2.083   1.812   1.225 -0.4943  0.2033 -0.3639
  545SOL    HW1 1634   2.169   1.779   1.178  1.9113 -0.5864  2.7146
  545SOL    HW2 1635   2.101   1.842   1.323 -0.4092  3.0297  4.3097
  546SOL     OW 1636   0.170   3.011   2.101 -0.1739  0.5291  0.9388
  546SOL    HW1 1637   0.206   3.083   2.162  2.6004  2.1097 -0.5545
  546SOL    HW2 1638   0.187   2.918   2.140  1.7952 -1.1728  3.0365
  547SOL     OW 1639   1.436   0.630   0.777  0.2470  0.3811  0.0973
  547SOL    HW1 1640   1.408   0.708   0.836 -0.8869  0.1853 -3.5043
  547SOL    HW2 1641   1.520   0.582   0.804 -0.0347  0.6939 -0.2426
  548SOL     OW 1642   1.598   2.466   2.661 -0.0787  0.2738  0.5170
  548SOL    HW1 1643   1.508   2.455   2.617 -0.1578 -0.3230  0.4085
  548SOL    HW2 1644   1.615   2.378   2.710 -1.3373  0.5190 -0.7243
  549SOL     OW 1645   2.084   0.414   0.152 -0.1948  0.1562 -0.0176
  549SOL    HW1 1646   2.064   0.503   0.105  0.3610 -0.6596 -2.1445
  549SOL    HW2 1647   2.175   0.376   0.124 -0.8724 -2.5317 -2.9817
  550SOL     OW 1648   2.982   1.950   0.518 -0.0385 -0.1351 -0.1462
  550SOL    HW1 1649   2.922   1.920   0.593 -3.0233  0.4609  0.3489
  550SOL    HW2 1650   3.066   1.894   0.508  0.4929  2.1465  1.2577
  551SOL     OW 1651   1.183   2.597   2.210  0.0633  0.0499 -0.5923
  551SOL    HW1 1652   1.176   2.683   2.265 -1.1461 -0.6780 -0.7787
  551SOL    HW2 1653   1.152   2.516   2.264  0.3184 -0.2046  0.8143
  552SOL     OW 1654   2.951   2.377   2.466 -0.4566 -0.0747 -0.1459
  552SOL    HW1 1655   2.878   2.314   2.498  1.3764  0.6435  1.8274
  552SOL    HW2 1656   2.900   2.462   2.458 -3.8480 -0.8468  1.1212
  553SOL     OW 1657   0.204   0.205   0.776  0.0938 -0.5204 -0.2729
  553SOL    HW1 1658   0.203   0.245   0.871 -0.9797 -0.3385  0.6378
  553SOL    HW2 1659   0.114   0.177   0.744  1.8414 -1.5642  1.4097
  554SOL     OW 1660   2.187   2.347   1.560  0.2515  0.3877 -0.7795
  554SOL    HW1 1661   2.083   2.366   1.558 -3.3658 -3.0321 -0.2018
  554SOL    HW2 1662   2.222   2.337   1.657  0.2823 -0.3514 -0.2837
  555SOL     OW 1663   1.596   2.208   2.164 -0.5559  0.3082  0.5101
  555SOL    HW1 1664   1.678   2.151   2.161 -2.3236  0.9227  1.0180
  555SOL    HW2 1665   1.615   2.307   2.168 -1.0940 -2.9243  1.0321
  556SOL     OW 1666   1.353   1.223   1.230  0.2979 -0.3709 -0.4712
  556SOL    HW1 1667   1.264   1.175   1.213  1.5832  0.3162  0.9246
  556SOL    HW2 1668   1.341   1.320   1.197  0.7686 -0.6369 -1.3295
  557SOL     OW 1669   1.982   2.584   2.109  0.1428 -0.7889  0.1946
  557SOL    HW1 1670   1.998   2.544   2.200  1.6164  1.2252 -1.8550
  557SOL    HW2 1671   1.937   2.676   2.109  1.2154  0.3213 -0.9652
  558SOL     OW 1672   0.193   3.027   1.839  0.4107 -0.0132  0.4814
  558SOL    HW1 1673   0.198   3.029   1.941  0.1240 -3.4536 -1.4297
  558SOL    HW2 1674   0.128   2.951   1.804 -1.4575  0.5677  0.8766
  559SOL     OW 1675   2.148   0.002   0.668  0.0636 -0.2989  0.3029
  559SOL    HW1 1676   2.173   3.016   0.726 -0.4678 -1.0398  0.2084
  559SOL    HW2 1677   2.068   0.053   0.705 -0.9612 -2.7541  1.6006
  560SOL     OW 1678   1.795   2.866   0.817  0.3206  0.0656  0.3215
  560SOL    HW1 1679   1.758   2.805   0.890 -0.8582 -2.4550 -0.1661
  560SOL    HW2 1680   1.721   2.906   0.757 -2.2355 -4.9621 -0.5615
  561SOL     OW 1681   0.978   0.188   1.045  0.1020  0.1764 -0.7721
  561SOL    HW1 1682   0.958   0.192   0.945  1.7367  3.7173 -0.9645
  561SOL    HW2 1683   1.065   0.142   1.069 -2.1545  2.3756  1.0518
  562SOL     OW 1684   0.505   0.990   2.535 -0.0993  0.2664 -0.5033
  562SOL    HW1 1685   0.501   0.967   2.437 -0.7088 -1.0632 -0.7297
  562SOL    HW2 1686   0.425   1.046   2.563 -0.9408 -1.2989 -2.8054
  563SOL     OW 1687   1.622   1.955   2.406  0.1367 -0.5152 -0.1386
  563SOL    HW1 1688   1.658   2.045   2.413 -1.1341 -0.1853 -1.2992
  563SOL    HW2 1689   1.519   1.962   2.390 -3.1633  0.2293  0.0848
  564SOL     OW 1690   2.835   1.071   1.141  0.0369 -0.3813 -0.3330
  564SOL    HW1 1691   2.757   1.113   1.191  0.0686  0.4839 -1.3241
  564SOL    HW2 1692   2.801   1.063   1.048 -0.5906 -0.6635  2.1816
  565SOL     OW 1693   1.037   0.879   3.053 -0.8720  0.4408  0.8011
  565SOL    HW1 1694   0.983   0.903   2.974 -1.5535 -0.2204  2.4997
  565SOL    HW2 1695   0.975   0.836   0.029  1.1859 -1.1651 -0.7038
  566SOL     OW 1696   2.360   0.282   2.723 -0.3366 -0.1015 -0.3034
  566SOL    HW1 1697   2.362   0.187   2.689 -2.9760  0.3220  0.7079
  566SOL    HW2 1698   2.284   0.303   2.784 -2.2068 -0.1801  3.7918
  567SOL     OW 1699   1.972   1.103   0.600 -0.1839  0.8654 -0.4441
  567SOL    HW1 1700   2.055   1.157   0.605 -1.0868  0.4666  0.8222
  567SOL    HW2 1701   1.892   1.162   0.590 -1.1778  2.3199  0.0739
  568SOL     OW 1702   1.758   1.738   2.843 -0.2160  0.5299  0.8733
  568SOL    HW1 1703   1.700   1.678   2.900  1.4766  0.7980  0.7426
  568SOL    HW2 1704   1.728   1.723   2.742  0.0790 -3.2170 -2.9468
  569SOL     OW 1705   1.932   1.386   3.035  0.1450 -0.0603 -0.1580
  569SOL    HW1 1706   1.872   1.450   3.085 -0.3019  0.4703 -0.9628
  569SOL    HW2 1707   2.030   1.404   3.057  1.7765  0.7632  0.2400
  570SOL     OW 1708   0.287   2.168   1.728 -0.7738  0.7559 -0.0157
  570SOL    HW1 1709   0.270   2.115   1.644  0.4593 -1.2974 -0.4588
  570SOL    HW2 1710   0.377   2.210   1.730 -1.9725 -0.2598  0.6424
  571SOL     OW 1711   0.216   1.062   1.822 -0.0058  0.2031 -0.7708
  571SOL    HW1 1712   0.261   0.994   1.760 -3.1911  1.4045 -1.4632
  571SOL    HW2 1713   0.129   1.027   1.858  0.4856  0.0666  1.2356
  572SOL     OW 1714   1.349   1.678   0.355  0.1085 -0.0310  0.1394
  572SOL    HW1 1715   1.369   1.579   0.352  0.6675  0.8286  0.1195
  572SOL    HW2 1716   1.310   1.701   0.266  2.6959 -0.9528  0.2414
  573SOL     OW 1717   1.957   2.123   0.557  0.2974  0.4509  0.1665
  573SOL    HW1 1718   1.884   2.080   0.495  1.8163  0.8607  0.0632
  573SOL    HW2 1719   1.919   2.204   0.602 -0.4523  1.8630 -0.1143
  574SOL     OW 1720   0.869   0.115   1.275 -0.8510 -0.4523  0.6406
  574SOL    HW1 1721   0.771   0.101   1.247 -0.9860  1.0548 -1.7992
  574SOL    HW2 1722   0.932   0.136   1.198  1.2207  1.1716 -0.6989
  575SOL     OW 1723   0.627   1.166   1.440  0.3758  0.3966  0.4035
  575SOL    HW1 1724   0.607   1.184   1.540  1.1532 -0.6930 -0.4221
  575SOL    HW2 1725   0.704   1.228   1.411  0.2882 -0.4539 -2.8541
  576SOL     OW 1726   2.574   3.000   1.051 -0.3420 -0.0433  0.2006
  576SOL    HW1 1727   2.617   2.981   0.958  0.2880  1.0179 -1.8847
  576SOL    HW2 1728   2.472   2.979   1.061 -2.5974 -1.1360  1.7243
  577SOL     OW 1729   0.868   1.231   2.101 -0.2216 -0.2993  0.0412
  577SOL    HW1 1730   0.894   1.147   2.055  1.1060 -0.9917 -1.3416
  577SOL    HW2 1731   0.791   1.219   2.168  2.2516 -1.8821 -0.8329
  578SOL     OW 1732   1.865   1.088   2.548 -0.0223 -0.5722  0.7431
  578SOL    HW1 1733   1.833   1.035   2.468 -0.7254  1.4791 -0.5664
  578SOL    HW2 1734   1.879   1.188   2.533 -0.6119  0.9266 -0.4937
  579SOL     OW 1735   1.509   2.278   1.738  0.2835 -0.0170 -0.5582
  579SOL    HW1 1736   1.601   2.315   1.740 -2.9397 -0.5950 -0.7888
  579SOL    HW2 1737   1.489   2.206   1.813 -0.0583 -0.2608  1.8030
  580SOL     OW 1738   1.498   1.579   2.632 -0.0165  0.2721 -0.2287
  580SOL    HW1 1739   1.514   1.503   2.698 -2.0226  0.1654 -1.3294
  580SOL    HW2 1740   1.398   1.594   2.633  2.7216  1.3168  2.8474
  581SOL     OW 1741   1.237   1.133   2.358  0.6349 -0.1315  0.0568
  581SOL    HW1 1742   1.252   1.091   2.451 -1.3155 -0.3134  1.3785
  581SOL    HW2 1743   1.188   1.222   2.365  1.0985  1.5661 -0.5559
  582SOL     OW 1744   1.065   1.178   1.398 -0.2211  0.3239 -0.4577
  582SOL    HW1 1745   0.977   1.227   1.378 -1.1539 -0.9632  3.2875
  582SOL    HW2 1746   1.095   1.109   1.324  3.7773 -2.9198 -1.9318
  583SOL     OW 1747   1.093   1.345   1.966  0.1129 -0.3951 -0.0586
  583SOL    HW1 1748   1.088   1.380   1.872  0.3157  0.4532  0.4156
  583SOL    HW2 1749   1.004   1.331   2.012 -1.3082 -0.7753  1.3902
  584SOL     OW 1750   2.625   2.709   0.467  0.4089  0.2283 -0.4213
  584SOL    HW1 1751   2.705   2.703   0.523 -2.0870  0.4913 -0.5835
  584SOL    HW2 1752   2.640   2.741   0.370 -0.2390  0.7819 -1.6792
  585SOL     OW 1753   1.967   0.141   3.002  0.5575  0.0585 -0.1839
  585SOL    HW1 1754   1.998   0.135   0.006 -1.7986  0.8866 -0.7160
  585SOL    HW2 1755   1.993   0.065   2.944 -3.5350  2.2597  2.0331
  586SOL     OW 1756   3.075   2.249   1.131  0.4420  0.4876  0.2771
  586SOL    HW1 1757   3.030   2.336   1.157  2.0318  0.0203 -0.2979
  586SOL    HW2 1758   0.036   2.213   1.209 -0.2037  1.0754  0.4449
  587SOL     OW 1759   1.589   1.603   3.008  0.4772 -0.3324  0.3467
  587SOL    HW1 1760   1.521   1.672   3.040 -3.0904  1.5952 -3.3237
  587SOL    HW2 1761   1.548   1.509   3.013  0.2643  0.9270 -0.4708
  588SOL     OW 1762   0.366   0.385   1.183 -0.4027 -0.4832 -0.3111
  588SOL    HW1 1763   0.460   0.390   1.144 -1.2622  1.9053  0.8957
  588SOL    HW2 1764   0.364   0.413   1.282  2.7637 -2.6800 -0.4112
  589SOL     OW 1765   1.154   0.141   0.733  0.2189  0.0811 -0.2985
  589SOL    HW1 1766   1.054   0.134   0.736  2.1074  0.2608 -0.7576
  589SOL    HW2 1767   1.185   0.239   0.740 -0.0726  1.2905 -1.5991
  590SOL     OW 1768   1.326   1.060   2.596  0.3034  0.3740  0.0315
  590SOL    HW1 1769   1.412   1.011   2.609 -0.9923  0.0767  1.9418
  590SOL    HW2 1770   1.281   1.090   2.682 -1.5286 -0.3716 -0.0678
  591SOL     OW 1771   2.667   2.421   2.245 -0.5077  0.0067 -0.4154
  591SOL    HW1 1772   2.565   2.408   2.247  0.5065  2.2847  0.7253
  591SOL    HW2 1773   2.693   2.475   2.328 -1.7302  1.1557  0.7720
  592SOL     OW 1774   2.307   1.619   1.560 -0.2616 -0.2183 -0.0348
  592SOL    HW1 1775   2.225   1.685   1.566 -2.1951  2.4163  1.0670
  592SOL    HW2 1776   2.322   1.579   1.465  2.5493  0.2166 -0.4912
  593SOL     OW 1777   1.235   0.782   1.616 -0.4940  0.4895 -0.0451
  593SOL    HW1 1778   1.177   0.785   1.531 -1.3412 -0.4601  1.6868
  593SOL    HW2 1779   1.228   0.693   1.668 -0.5205  1.6246 -0.2199
  594SOL     OW 1780   2.598   1.275   2.322 -0.1084 -0.4986  0.4501
  594SOL    HW1 1781   2.676   1.340   2.311  2.3103  3.6366  0.4295
  594SOL    HW2 1782   2.630   1.181   2.338 -2.1359  3.4533  1.9359
  595SOL     OW 1783   3.047   0.128   0.430  0.2439  0.1185  0.1042
  595SOL    HW1 1784   3.077   0.091   0.522 -0.9853 -1.2210 -0.4354
  595SOL    HW2 1785   2.966   0.081   0.393 -0.6635  1.4495 -1.1544
  596SOL     OW 1786   0.044   1.472   1.084  0.1135 -0.2816 -0.3253
  596SOL    HW1 1787   0.013   1.384   1.120  1.6357  3.3429 -0.7009
  596SOL    HW2 1788   3.072   1.548   1.106  1.2274 -1.1426  0.7227
  597SOL     OW 1789   1.621   1.624   0.721  0.5674  0.2066 -0.2526
  597SOL    HW1 1790   1.709   1.654   0.753 -1.0893 -3.5048 -1.7154
  597SOL    HW2 1791   1.570   1.693   0.669 -0.1347 -0.9799  2.3225
  598SOL     OW 1792   0.403   2.605   1.750  0.1469  1.1848 -1.0666
  598SOL    HW1 1793   0.370   2.679   1.689  4.0287  1.2278 -0.4850
  598SOL    HW2 1794   0.328   2.555   1.799 -0.7819  0.2437 -0.9028
  599SOL     OW 1795   2.914   1.519   2.578  0.2109  0.6779 -0.0134
  599SOL    HW1 1796   2.850   1.441   2.607  0.6877 -1.1537  0.3231
  599SOL    HW2 1797   2.886   1.610   2.611 -2.6864 -1.5686  0.3419
  600SOL     OW 1798   0.723   1.046   0.047 -0.8918  0.0438  0.2281
  600SOL    HW1 1799   0.779   1.121   0.093  1.7409 -0.8244  0.9700
  600SOL    HW2 1800   0.775   0.959   0.063  1.3064  1.3516 -2.1938
  601SOL     OW 1801   0.752   0.994   0.992 -0.0583  0.7113 -0.4287
  601SOL    HW1 1802   0.667   0.957   1.029 -0.1477 -2.4567 -0.3397
  601SOL    HW2 1803   0.749   1.001   0.888 -0.4934  0.8153  1.2421
  602SOL     OW 1804   1.163   2.340   0.293 -0.1417  0.7043  0.4417
  602SOL    HW1 1805   1.220   2.405   0.352 -0.9543 -0.1425  0.2650
  602SOL    HW2 1806   1.116   2.270   0.350 -0.3526  0.8553  0.2616
  603SOL     OW 1807   1.161   2.346   1.943  0.1549 -0.2631  0.5127
  603SOL    HW1 1808   1.225   2.428   1.934  1.4466  1.7235 -0.4684
  603SOL    HW2 1809   1.075   2.373   1.992 -0.4957 -0.6847  2.5811
  604SOL     OW 1810   0.312   0.411   2.556 -0.5956  0.2978  0.0681
  604SOL    HW1 1811   0.262   0.324   2.571 -0.8131  3.0861 -2.2685
  604SOL    HW2 1812   0.313   0.434   2.455 -0.5961 -0.7383  1.2086
  605SOL     OW 1813   2.619   1.169   1.287  0.4031  0.2821 -0.3802
  605SOL    HW1 1814   2.529   1.156   1.240 -0.7974 -1.2174 -0.8840
  605SOL    HW2 1815   2.626   1.103   1.365  1.9641 -1.6500  1.6956
  606SOL     OW 1816   0.756   1.730   2.732  0.1111 -0.0117  0.4256
  606SOL    HW1 1817   0.724   1.779   2.642 -0.2540  2.1072 -4.4812
  606SOL    HW2 1818   0.762   1.633   2.717  0.1726  1.0547 -3.6037
  607SOL     OW 1819   0.560   0.011   0.178  0.3769 -0.1706  0.2327
  607SOL    HW1 1820   0.519   3.092   0.085  0.4181  1.9945 -0.7120
  607SOL    HW2 1821   0.538   3.026   0.240  1.2431 -0.8960  0.8065
  608SOL     OW 1822   2.393   1.809   2.095 -0.0095  0.2148 -0.3886
  608SOL    HW1 1823   2.439   1.828   2.009  0.6730  0.0440  1.5067
  608SOL    HW2 1824   2.305   1.760   2.081 -2.3107 -0.7991  1.1493
  609SOL     OW 1825   2.807   0.284   0.861  0.0894 -0.1678 -0.2415
  609SOL    HW1 1826   2.875   0.215   0.893 -3.1460 -0.9405 -0.7404
  609SOL    HW2 1827   2.710   0.242   0.860 -0.9994 -1.8616 -0.1032
  610SOL     OW 1828   0.352   2.515   0.455 -0.0873 -0.2671  0.4978
  610SOL    HW1 1829   0.413   2.441   0.488  1.0552  0.6047  1.0935
  610SOL    HW2 1830   0.391   2.558   0.376 -0.7519  2.6045  0.6051
  611SOL     OW 1831   1.640   1.403   0.260  0.0450  0.2023  0.6472
  611SOL    HW1 1832   1.711   1.362   0.320 -3.5013  1.5121 -1.2441
  611SOL    HW2 1833   1.549   1.412   0.308 -1.8277 -2.3859 -0.1374
  612SOL     OW 1834   0.643   2.526   1.808  0.5311  0.5709  0.4572
  612SOL    HW1 1835   0.658   2.473   1.892 -1.0020  2.5180 -1.4540
  612SOL    HW2 1836   0.543   2.527   1.778 -1.9379 -1.1369 -1.4837
  613SOL     OW 1837   0.537   2.791   0.623  0.2939  0.1983 -0.1239
  613SOL    HW1 1838   0.455   2.734   0.654 -1.0231  0.8534  0.0354
  613SOL    HW2 1839   0.622   2.738   0.596 -0.5942 -0.8033  0.7743
  614SOL     OW 1840   2.289   0.119   1.829 -0.0540 -0.3185  0.4516
  614SOL    HW1 1841   2.192   0.090   1.835  1.3224 -1.6744  0.8619
  614SOL    HW2 1842   2.296   0.209   1.778 -1.6394  0.9137 -2.7171
  615SOL     OW 1843   1.760   1.228   0.483  0.2534 -0.2691 -0.1389
  615SOL    HW1 1844   1.704   1.143   0.463 -1.3674  1.3984  0.8064
  615SOL    HW2 1845   1.830   1.251   0.411  2.8281 -0.1595  0.1415
  616SOL     OW 1846   1.938   1.309   0.304  0.0811  0.1310 -0.0604
  616SOL    HW1 1847   2.009   1.376   0.270  0.3786 -1.1454 -0.0222
  616SOL    HW2 1848   1.962   1.213   0.276  1.9538  0.7034 -1.7370
  617SOL     OW 1849   1.174   0.706   2.861  0.1379  0.0334  0.0489
  617SOL    HW1 1850   1.148   0.695   2.763 -0.2137  0.1533 -2.3705
  617SOL    HW2 1851   1.143   0.795   2.896  3.2788  0.3645  1.3188
  618SOL     OW 1852   0.595   2.964   1.953  0.2832 -0.1650  0.1939
  618SOL    HW1 1853   0.581   2.900   1.873 -0.0014 -2.6240 -2.5701
  618SOL    HW2 1854   0.546   3.050   1.939 -1.3318  1.4000  1.5353
  619SOL     OW 1855   2.994   1.605   1.458  0.2313 -0.1265  0.6375
  619SOL    HW1 1856   3.066   1.659   1.410  1.1119  3.8011 -0.3199
  619SOL    HW2 1857   2.902   1.643   1.450 -0.6122 -0.8850  0.1124
  620SOL     OW 1858   2.819   0.746   2.815  0.4695  0.2892  0.1145
  620SOL    HW1 1859   2.832   0.828   2.868  0.9449 -0.9840 -1.6787
  620SOL    HW2 1860   2.890   0.681   2.843 -1.2240  1.4240 -0.9972
  621SOL     OW 1861   2.271   1.961   2.272  0.7065 -0.1167  0.2206
  621SOL    HW1 1862   2.295   1.904   2.192 -0.6736  0.0898 -0.4692
  621SOL    HW2 1863   2.252   1.904   2.354 -1.6033 -0.8934 -1.2934
  622SOL     OW 1864   0.984   0.683   2.151  0.6395  0.4289  0.2544
  622SOL    HW1 1865   0.901   0.643   2.201  1.2865 -1.3030 -1.4978
  622SOL    HW2 1866   0.995   0.629   2.065 -1.3503 -0.3752  0.5798
  623SOL     OW 1867   0.706   1.176   2.293  0.3562  0.1906 -0.4772
  623SOL    HW1 1868   0.633   1.104   2.286  0.8096 -0.8203  2.1093
  623SOL    HW2 1869   0.751   1.168   2.388  0.6082  2.5615  1.2047
  624SOL     OW 1870   2.674   0.677   0.180 -0.3789 -0.2712 -0.1902
  624SOL    HW1 1871   2.680   0.711   0.275 -0.0561  0.1862  0.5880
  624SOL    HW2 1872   2.767   0.640   0.156  3.3300 -1.1346  0.0039
  625SOL     OW 1873   0.873   1.989   0.890  0.0548  0.3406  0.7893
  625SOL    HW1 1874   0.796   2.017   0.829 -0.6699  0.0417 -0.2996
  625SOL    HW2 1875   0.836   1.996   0.990 -1.1989  1.2900  3.2647
  626SOL     OW 1876   1.879   0.742   2.468 -0.4972 -0.2361 -0.2451
  626SOL    HW1 1877   1.892   0.743   2.571  0.3029  1.1988  0.0099
  626SOL    HW2 1878   1.800   0.800   2.442  0.8483 -0.9119  0.4790
  627SOL     OW 1879   1.426   2.806   2.677 -0.7232  0.1913 -0.1567
  627SOL    HW1 1880   1.500   2.874   2.690  1.1447  2.5269  0.5241
  627SOL    HW2 1881   1.441   2.750   2.593 -0.6586 -0.1915 -2.0440
  628SOL     OW 1882   2.222   2.883   2.355  0.0824 -0.1134  0.2433
  628SOL    HW1 1883   2.299   2.947   2.390  0.4147  0.3921 -0.3636
  628SOL    HW2 1884   2.208   2.902   2.254 -0.3993 -1.6370 -0.9236
  629SOL     OW 1885   0.730   0.058   2.525  0.3221  0.3992  0.3435
  629SOL    HW1 1886   0.820   0.080   2.485 -2.8362  1.1087  1.9545
  629SOL    HW2 1887   0.670   0.141   2.529  1.2675  0.2975 -0.6333
  630SOL     OW 1888   1.020   0.285   2.618  0.6456 -0.7154  0.4906
  630SOL    HW1 1889   1.011   0.224   2.539 -2.5095  3.3753  0.3069
  630SOL    HW2 1890   1.054   0.240   2.703 -2.7060  2.4705  0.1235
  631SOL     OW 1891   2.186   1.262   0.654 -0.0907  0.3788  0.0055
  631SOL    HW1 1892   2.125   1.329   0.703  2.1901 -0.3189 -1.0301
  631SOL    HW2 1893   2.282   1.297   0.639 -0.0487  1.8479  1.0284
  632SOL     OW 1894   2.014   0.948   1.709  0.0787  0.2763  0.2434
  632SOL    HW1 1895   2.065   0.880   1.651 -0.0798 -3.4390  0.7996
  632SOL    HW2 1896   1.910   0.932   1.693 -0.5520  1.8373 -0.6668
  633SOL     OW 1897   1.302   1.692   0.094  0.1880 -0.3298 -0.0238
  633SOL    HW1 1898   1.220   1.716   0.035  2.0768 -0.0315 -0.0871
  633SOL    HW2 1899   1.374   1.763   0.089 -1.3905 -1.2649 -2.2884
  634SOL     OW 1900   2.469   3.071   1.651 -0.1012 -0.1385 -0.3145
  634SOL    HW1 1901   2.391   0.019   1.699 -0.2239  0.3216  0.1900
  634SOL    HW2 1902   2.553   0.033   1.667  0.3283 -1.1014 -1.2444
  635SOL     OW 1903   1.646   0.491   0.863 -0.0416  0.2998 -0.3118
  635SOL    HW1 1904   1.701   0.563   0.920  0.7547  3.1700  0.9404
  635SOL    HW2 1905   1.650   0.404   0.921  1.0570 -2.6649  1.0908
  636SOL     OW 1906   0.998   1.199   0.079 -0.2577 -0.2660 -0.0881
  636SOL    HW1 1907   1.001   1.271   0.149  2.7366 -0.1114 -2.3053
  636SOL    HW2 1908   1.082   1.139   0.101  2.0011  0.5490 -1.6006
  637SOL     OW 1909   2.750   2.138   3.035 -0.3472  0.1352 -0.4178
  637SOL    HW1 1910   2.765   2.072   0.016 -0.5579  0.3636 -1.1601
  637SOL    HW2 1911   2.835   2.171   2.989  2.9611  0.9700 -0.7136
  638SOL     OW 1912   1.629   2.680   2.850 -0.2258 -1.0663 -0.3583
  638SOL    HW1 1913   1.683   2.756   2.809 -2.8755 -2.5241  0.5377
  638SOL    HW2 1914   1.578   2.625   2.777 -2.7977 -1.6133 -0.7339
  639SOL     OW 1915   1.424   1.524   1.312  0.2149 -0.5358  0.0041
  639SOL    HW1 1916   1.336   1.485   1.352 -1.6236 -1.2182  0.4361
  639SOL    HW2 1917   1.427   1.626   1.321  0.9289 -0.1807 -0.9566
  640SOL     OW 1918   2.194   2.768   0.556  0.2674 -0.0373  0.3294
  640SOL    HW1 1919   2.240   2.850   0.595 -1.2619 -1.3145 -1.8730
  640SOL    HW2 1920   2.256   2.687   0.544  1.6346 -0.2315 -0.3568
  641SOL     OW 1921   0.051   0.192   2.810  0.1833  0.1918 -0.4209
  641SOL    HW1 1922   3.044   0.217   2.812  0.4438 -1.2703 -0.4272
  641SOL    HW2 1923   0.077   0.147   2.898 -2.6027 -3.6636 -0.2144
  642SOL     OW 1924   2.950   0.827   1.262  0.6701  0.0298  0.1285
  642SOL    HW1 1925   2.876   0.884   1.234  3.6329 -1.4626  0.5953
  642SOL    HW2 1926   2.991   0.871   1.344  2.6928  1.7398 -3.2745
  643SOL     OW 1927   0.701   1.536   2.031  0.7489  0.1500 -0.1260
  643SOL    HW1 1928   0.643   1.537   2.112  0.3259 -1.6418 -0.0038
  643SOL    HW2 1929   0.770   1.614   2.036  2.4664  1.7656 -0.2260
  644SOL     OW 1930   1.859   2.334   0.725 -0.1874 -0.7926  0.2534
  644SOL    HW1 1931   1.947   2.336   0.778  1.9839 -0.4880  1.8225
  644SOL    HW2 1932   1.829   2.417   0.677  1.6491 -1.0617  1.8664
  645SOL     OW 1933   2.011   2.065   0.930  0.2581  0.0532  0.4647
  645SOL    HW1 1934   2.063   2.150   0.902 -0.2161  1.9594 -0.9577
  645SOL    HW2 1935   2.012   2.001   0.853  0.5923  0.7147  1.5481
  646SOL     OW 1936   1.128   2.291   2.781 -0.4077  0.3862 -0.3364
  646SOL    HW1 1937   1.222   2.251   2.790  0.8130 -0.6051  1.0475
  646SOL    HW2 1938   1.075   2.273   2.866  1.2717  0.4219  2.3739
  647SOL     OW 1939   0.723   2.772   1.748 -0.2451 -0.1639 -0.0505
  647SOL    HW1 1940   0.816   2.761   1.785 -2.2068  0.0908  0.8673
  647SOL    HW2 1941   0.679   2.685   1.765 -0.4352  2.0678 -3.4680
  648SOL     OW 1942   1.695   0.606   1.770  0.3651 -0.0612 -0.2894
  648SOL    HW1 1943   1.624   0.554   1.714  1.8673 -0.3964  0.5718
  648SOL    HW2 1944   1.682   0.594   1.872 -1.0588  0.8113  0.4998
  649SOL     OW 1945   1.791   2.002   0.386  0.2911  0.0877  0.7019
  649SOL    HW1 1946   1.781   1.914   0.437  0.1042 -2.6023 -1.0055
  649SOL    HW2 1947   1.765   2.000   0.293 -0.5662 -0.2468  3.7754
  650SOL     OW 1948   2.144   1.796   1.764 -0.3715 -0.3426  0.1863
  650SOL    HW1 1949   2.085   1.775   1.688  0.9876  1.5279 -0.5594
  650SOL    HW2 1950   2.206   1.874   1.740 -1.5556 -2.8240 -0.8882
  651SOL     OW 1951   1.783   2.686   0.160 -0.1590 -0.5042  0.2916
  651SOL    HW1 1952   1.819   2.754   0.225  3.0655  0.2433  3.9095
  651SOL    HW2 1953   1.851   2.691   0.089 -2.0164  1.3993 -2.7665
  652SOL     OW 1954   0.432   1.921   0.266 -0.4845  0.4492 -0.1669
  652SOL    HW1 1955   0.432   1.912   0.369  0.3968  0.7353  1.3358
  652SOL    HW2 1956   0.456   1.831   0.226  1.7093 -0.7642 -2.2690
  653SOL     OW 1957   2.513   2.532   1.236 -0.5238 -0.6619 -0.2804
  653SOL    HW1 1958   2.430   2.524   1.297  0.4549 -0.5200 -1.3676
  653SOL    HW2 1959   2.505   2.611   1.174 -0.4267 -3.6980  0.3065
  654SOL     OW 1960   2.888   2.848   1.436  0.9376  0.1001 -0.0210
  654SOL    HW1 1961   2.883   2.943   1.472  1.4594 -0.0168  0.3622
  654SOL    HW2 1962   2.814   2.826   1.371  2.3646 -0.3790  0.7896
  655SOL     OW 1963   2.873   2.056   1.057  0.2274 -0.4030 -0.5112
  655SOL    HW1 1964   2.957   2.009   1.020  0.3496 -0.5986 -0.5107
  655SOL    HW2 1965   2.905   2.124   1.125  2.1212  0.9711 -3.3324
  656SOL     OW 1966   0.106   2.920   2.449  0.3785 -0.1399  0.3975
  656SOL    HW1 1967   0.012   2.951   2.422  0.0327 -3.0330 -1.2084
  656SOL    HW2 1968   0.145   2.870   2.367 -0.7362  1.9781 -0.3387
  657SOL     OW 1969   2.656   1.482   2.974  0.3824  0.2767  0.3095
  657SOL    HW1 1970   2.681   1.395   3.022 -1.9354 -0.3002  0.3400
  657SOL    HW2 1971   2.600   1.541   3.035  3.1578  0.7139 -0.0435
  658SOL     OW 1972   1.882   1.666   0.801  0.2012  0.4049  0.3369
  658SOL    HW1 1973   1.917   1.753   0.761  1.0879  1.5694 -5.0474
  658SOL    HW2 1974   1.881   1.676   0.902 -0.1910  1.8428 -1.2133
  659SOL     OW 1975   1.347   0.596   1.360  0.3730  0.1798 -0.2466
  659SOL    HW1 1976   1.415   0.670   1.334  0.3807 -0.2278 -0.5857
  659SOL    HW2 1977   1.293   0.628   1.439 -2.8673 -0.7077  1.4495
  660SOL     OW 1978   1.502   1.314   0.051  0.1819  0.4338  0.4751
  660SOL    HW1 1979   1.564   1.341   0.124 -1.9821 -0.8506 -3.3443
  660SOL    HW2 1980   1.405   1.344   0.071  1.1837  1.2947  0.7408
  661SOL     OW 1981   0.382   2.156   0.579 -0.4763  0.0113  0.2241
  661SOL    HW1 1982   0.295   2.196   0.537 -2.0864  2.5283 -0.1501
  661SOL    HW2 1983   0.459   2.222   0.569  0.2500 -3.3055 -2.1908
  662SOL     OW 1984   0.197   0.660   2.400  0.3193  0.3946 -0.4251
  662SOL    HW1 1985   0.156   0.702   2.482  1.3170 -1.2508 -1.7724
  662SOL    HW2 1986   0.169   0.563   2.394  1.2849 -0.8204  0.2106
  663SOL     OW 1987   1.851   1.288   0.965 -0.4122 -0.2837  0.1808
  663SOL    HW1 1988   1.774   1.228   0.936 -0.5796  0.1999 -0.5140
  663SOL    HW2 1989   1.923   1.226   1.011 -0.9451 -2.9443 -0.2846
  664SOL     OW 1990   0.913   0.871   1.183  0.1735  0.0467  0.1696
  664SOL    HW1 1991   0.884   0.839   1.275  1.4254 -0.8595  0.8864
  664SOL    HW2 1992   0.837   0.917   1.136 -1.7290  0.8737 -2.5951
  665SOL     OW 1993   1.202   2.954   2.654 -0.2010  0.2332 -0.6531
  665SOL    HW1 1994   1.129   2.958   2.725  1.3658  2.6241  2.8650
  665SOL    HW2 1995   1.290   2.913   2.685  1.3513 -2.3530  0.7886
  666SOL     OW 1996   2.754   0.046   2.477 -1.4115  0.1797 -0.1387
  666SOL    HW1 1997   2.806   0.047   2.565 -1.3129 -0.9300 -0.7465
  666SOL    HW2 1998   2.743   0.135   2.431  4.0573 -0.8205  2.7264
  667SOL     OW 1999   2.394   1.320   1.725  0.7124  0.0706 -0.3936
  667SOL    HW1 2000   2.372   1.410   1.763  4.0409 -1.8882 -1.9153
  667SOL    HW2 2001   2.316   1.247   1.734 -1.3926 -2.7041  1.7942
  668SOL     OW 2002   0.275   1.124   2.645  0.7067 -0.3100  0.1706
  668SOL    HW1 2003   0.293   1.169   2.734  2.1042  2.2388 -0.8396
  668SOL    HW2 2004   0.252   1.191   2.569 -1.3422 -1.1231  0.8103
  669SOL     OW 2005   2.095   2.347   2.634 -0.0254  0.0358 -0.5386
  669SOL    HW1 2006   2.042   2.258   2.644 -1.3594 -2.1699  0.6072
  669SOL    HW2 2007   2.181   2.342   2.584  0.1298  2.1801  0.7943
  670SOL     OW 2008   2.107   1.124   2.237 -0.2858 -0.0860 -0.1616
  670SOL    HW1 2009   2.198   1.159   2.230 -4.7432 -0.0076  1.0857
  670SOL    HW2 2010   2.047   1.164   2.165  0.3830 -1.4969 -1.4502
  671SOL     OW 2011   2.502   1.639   0.022 -0.0544  0.4586 -0.2454
  671SOL    HW1 2012   2.532   1.584   0.103  0.2471 -1.2344  0.5077
  671SOL    HW2 2013   2.464   1.724   0.062  1.0231 -2.9482 -0.0244
  672SOL     OW 2014   2.561   1.061   2.037 -0.0690 -0.2816 -0.3251
  672SOL    HW1 2015   2.558   1.065   1.933  3.3719  0.7786 -1.6925
  672SOL    HW2 2016   2.485   1.113   2.078  2.4191  0.6158 -3.3507
  673SOL     OW 2017   2.647   0.997   1.508  0.5822 -0.1595 -0.2550
  673SOL    HW1 2018   2.741   0.982   1.542  1.3307 -1.2346 -1.6915
  673SOL    HW2 2019   2.597   0.909   1.528 -2.4109 -2.2943 -2.2924
  674SOL     OW 2020   1.963   1.934   1.943  0.3247  0.6035  0.5936
  674SOL    HW1 2021   2.026   1.903   1.868  1.0972 -0.8051  2.1860
  674SOL    HW2 2022   1.869   1.918   1.907 -0.9736 -1.6314  1.6902
  675SOL     OW 2023   0.394   0.757   0.833 -0.5379 -0.2412 -0.0620
  675SOL    HW1 2024   0.440   0.783   0.918 -2.2267  2.5892 -1.7277
  675SOL    HW2 2025   0.293   0.760   0.840  0.3943  0.7444 -0.1807
  676SOL     OW 2026   1.735   1.159   1.360  0.2884 -0.3026 -0.6431
  676SOL    HW1 2027   1.709   1.258   1.357  0.5313 -2.3010 -1.6495
  676SOL    HW2 2028   1.834   1.147   1.333  2.0344 -1.2542  0.0325
  677SOL     OW 2029   2.390   1.444   2.066  0.5385 -0.0720  0.1615
  677SOL    HW1 2030   2.362   1.509   1.995  1.8176 -0.1267 -0.4291
  677SOL    HW2 2031   2.404   1.494   2.153  0.5615  0.0204  1.3018
  678SOL     OW 2032   3.056   1.475   0.649 -0.5393  0.0265 -0.1422
  678SOL    HW1 2033   0.003   1.409   0.717  2.2382 -3.1377  0.7747
  678SOL    HW2 2034   3.024   1.557   0.698  0.4036  0.2598  0.0951
  679SOL     OW 2035   2.823   2.729   0.656 -0.1562 -0.1284 -0.2167
  679SOL    HW1 2036   2.905   2.772   0.605 -0.0038  1.9530 -2.2084
  679SOL    HW2 2037   2.852   2.653   0.721 -2.2631  0.1964  0.8454
  680SOL     OW 2038   2.967   2.482   1.270 -0.0795  0.6381  0.4352
  680SOL    HW1 2039   3.045   2.486   1.333 -1.0768  0.3224  0.4337
  680SOL    HW2 2040   2.877   2.491   1.318 -2.4320 -0.1091 -1.5460
  681SOL     OW 2041   0.469   1.432   1.203 -0.1704 -0.9336  0.5137
  681SOL    HW1 2042   0.575   1.446   1.188  5.8577  1.0446  1.4015
  681SOL    HW2 2043   0.438   1.470   1.293  1.0830  1.3519  1.4285
  682SOL     OW 2044   1.701   2.721   1.028 -0.7366 -0.1852 -0.1657
  682SOL    HW1 2045   1.638   2.755   1.098  0.4805 -1.0827  1.1758
  682SOL    HW2 2046   1.731   2.626   1.054 -0.4808 -1.3748  0.9974
  683SOL     OW 2047   2.185   1.624   0.893  0.0890 -0.3561 -0.5146
  683SOL    HW1 2048   2.112   1.566   0.853 -1.0354  1.7459  0.9608
  683SOL    HW2 2049   2.199   1.717   0.848 -1.8651  2.7293  0.7823
  684SOL     OW 2050   0.514   1.958   1.860  0.7795  0.1225 -0.7987
  684SOL    HW1 2051   0.506   2.059   1.832 -1.0588  1.1508  0.6067
  684SOL    HW2 2052   0.601   1.918   1.825  0.1150  2.9816 -0.3453
  685SOL     OW 2053   2.160   1.483   0.229 -0.0606  0.1753  0.0257
  685SOL    HW1 2054   2.183   1.469   0.131  3.6164 -1.2842 -0.2003
  685SOL    HW2 2055   2.099   1.563   0.244 -0.4780  0.3965  1.4214
  686SOL     OW 2056   2.882   0.372   0.609  0.0392 -0.2735 -0.0192
  686SOL    HW1 2057   2.889   0.336   0.704 -1.6153 -0.1171 -1.2139
  686SOL    HW2 2058   2.974   0.392   0.573 -2.0641 -0.0349 -3.6243
  687SOL     OW 2059   1.178   2.677   0.173  0.5208  0.0630  0.1337
  687SOL    HW1 2060   1.163   2.670   0.274  2.3702 -2.5826 -0.0023
  687SOL    HW2 2061   1.141   2.601   0.120  1.9575 -0.8859  0.1872
  688SOL     OW 2062   2.155   1.692   2.061 -0.0357  0.0312  0.2964
  688SOL    HW1 2063   2.078   1.635   2.103 -0.4545 -2.5157 -1.7685
  688SOL    HW2 2064   2.113   1.748   1.988  2.9992  1.7263  1.7607
  689SOL     OW 2065   2.512   0.791   2.046 -0.3713 -0.2276 -0.2590
  689SOL    HW1 2066   2.520   0.889   2.031  0.6457  0.1460  1.1813
  689SOL    HW2 2067   2.517   0.764   2.145  2.5976  0.0020  1.6433
  690SOL     OW 2068   1.800   0.624   1.301  0.0911  0.4463 -0.0302
  690SOL    HW1 2069   1.721   0.666   1.356 -3.0144  1.1627  4.5629
  690SOL    HW2 2070   1.834   0.531   1.343  1.1053 -4.8548  0.7954
  691SOL     OW 2071   1.105   1.855   1.630 -0.2066 -0.0660 -0.1893
  691SOL    HW1 2072   1.080   1.854   1.531 -1.6028  3.9694  0.4439
  691SOL    HW2 2073   1.202   1.886   1.649  0.6058 -0.8745 -0.8681
  692SOL     OW 2074   1.657   0.255   1.873  0.0550 -0.2464  0.6102
  692SOL    HW1 2075   1.653   0.352   1.902  0.2296  1.9042  1.1526
  692SOL    HW2 2076   1.567   0.205   1.858 -0.4043  1.0180 -1.5232
  693SOL     OW 2077   0.586   1.086   2.881 -0.0834  0.3930 -0.1503
  693SOL    HW1 2078   0.661   1.069   2.953  1.4543 -1.6981 -0.4767
  693SOL    HW2 2079   0.556   0.995   2.838 -1.2364  0.3028  1.1165
  694SOL     OW 2080   2.093   2.867   1.042 -0.2070 -0.5950  0.1586
  694SOL    HW1 2081   2.057   2.871   1.136 -1.4351 -1.8319  1.3372
  694SOL    HW2 2082   2.061   2.783   0.996  0.3498  3.3510 -2.1297
  695SOL     OW 2083   1.525   1.380   2.416  0.0646  0.1309  0.1248
  695SOL    HW1 2084   1.450   1.432   2.371  0.9275  0.4395 -1.1231
  695SOL    HW2 2085   1.543   1.413   2.509 -1.2617  2.6482 -3.6227
  696SOL     OW 2086   1.431   0.333   1.405 -0.1522 -0.0599 -0.1730
  696SOL    HW1 2087   1.368   0.254   1.392 -0.6314 -1.4142 -3.8388
  696SOL    HW2 2088   1.385   0.417   1.374  1.9191 -2.1185  3.0814
  697SOL     OW 2089   1.403   0.146   1.880 -0.4918 -0.0695 -0.0155
  697SOL    HW1 2090   1.379   0.069   1.815  3.0680 -1.4626  1.2323
  697SOL    HW2 2091   1.340   0.133   1.956  1.0407  0.6450 -0.5723
  698SOL     OW 2092   1.760   1.355   2.289 -0.3259 -0.2681  0.3796
  698SOL    HW1 2093   1.737   1.304   2.207 -1.1245  1.1604 -1.6437
  698SOL    HW2 2094   1.675   1.377   2.344 -1.8802 -0.1489  0.2846
  699SOL     OW 2095   1.474   1.060   1.399 -0.0078 -0.4831 -0.4329
  699SOL    HW1 2096   1.570   1.095   1.389  2.0921 -1.4778 -1.3378
  699SOL    HW2 2097   1.416   1.118   1.337  1.6387  2.5240  1.0155
  700SOL     OW 2098   1.506   0.080   0.428 -0.1614 -0.1624  0.3287
  700SOL    HW1 2099   1.514   0.172   0.460 -2.2604 -2.3471 -1.4675
  700SOL    HW2 2100   1.424   0.033   0.461  0.7738  0.3544  0.6245
  701SOL     OW 2101   0.225   0.153   1.633 -0.4132 -0.0116  0.0202
  701SOL    HW1 2102   0.206   0.099   1.717 -3.7423 -0.3810  1.3706
  701SOL    HW2 2103   0.198   0.100   1.550 -1.0254 -1.1983 -0.8091
  702SOL     OW 2104   1.210   2.798   0.633 -0.3162  0.4769  0.3563
  702SOL    HW1 2105   1.197   2.875   0.563 -2.1864  0.5336 -1.3415
  702SOL    HW2 2106   1.309   2.781   0.650 -0.2296  1.5750  0.6092
  703SOL     OW 2107   2.310   2.957   2.067 -0.1574  0.5832  0.0464
  703SOL    HW1 2108   2.284   3.042   2.117 -0.5098 -2.3954  0.1775
  703SOL    HW2 2109   2.413   2.937   2.082  0.5599  1.1060  1.3328
  704SOL     OW 2110   1.241   2.187   0.887 -0.2190 -0.2682 -0.8511
  704SOL    HW1 2111   1.200   2.134   0.966  0.4499  2.0339  0.3411
  704SOL    HW2 2112   1.338   2.214   0.909  0.8091 -0.3330 -0.5130
  705SOL     OW 2113   2.892   1.310   1.904 -0.1271 -0.1479  0.9346
  705SOL    HW1 2114   2.810   1.361   1.935  1.4426 -0.1541 -1.3890
  705SOL    HW2 2115   2.880   1.271   1.807 -1.8196 -2.1112 -1.9450
  706SOL     OW 2116   1.245   3.078   0.523  0.1878  0.6965 -0.0101
  706SOL    HW1 2117   1.185   0.031   0.457  1.0463  0.9709  1.8923
  706SOL    HW2 2118   1.217   0.016   0.615 -0.2818 -2.4073 -0.9649
  707SOL     OW 2119   1.063   2.379   2.379  0.0450 -0.5201 -0.5016
  707SOL    HW1 2120   0.970   2.423   2.398 -3.4921  1.4638 -0.7479
  707SOL    HW2 2121   1.070   2.286   2.423 -0.6430  1.1540 -0.0694
  708SOL     OW 2122   0.042   2.431   1.506  0.2068  0.3109 -0.4716
  708SOL    HW1 2123   0.021   2.346   1.557  0.8875  0.2313  1.5929
  708SOL    HW2 2124   0.116   2.420   1.440 -2.8572 -0.2484  2.2871
  709SOL     OW 2125   1.996   0.454   1.887  0.3048  0.0787  0.4127
  709SOL    HW1 2126   1.952   0.514   1.958  0.2999  0.0367  1.0951
  709SOL    HW2 2127   1.964   0.472   1.794 -0.3766  0.3111 -0.2930
  710SOL     OW 2128   2.706   0.539   1.527  0.4609 -0.2725 -0.4333
  710SOL    HW1 2129   2.698   0.440   1.536  2.2926  0.4281  0.8664
  710SOL    HW2 2130   2.724   0.559   1.426  1.1243  0.3638 -2.5267
  711SOL     OW 2131   0.175   2.651   0.595  0.3301  0.1459  0.4239
  711SOL    HW1 2132   0.245   2.602   0.534  1.4483  1.7681  0.4059
  711SOL    HW2 2133   0.097   2.587   0.609 -1.1419 -1.4494 -0.6286
  712SOL     OW 2134   0.317   2.423   2.438  0.1741  0.2225  0.1578
  712SOL    HW1 2135   0.319   2.374   2.348  1.7021 -2.1620 -0.7603
  712SOL    HW2 2136   0.237   2.398   2.494  2.9973  0.7902 -1.8607
  713SOL     OW 2137   1.585   0.689   0.178  0.4823 -0.5979 -0.3911
  713SOL    HW1 2138   1.640   0.715   0.263 -0.4366  0.6340 -1.6437
  713SOL    HW2 2139   1.629   0.626   0.109  0.2201 -0.4841 -2.1492
  714SOL     OW 2140   1.568   1.793   0.526 -0.0143  0.4508 -0.0169
  714SOL    HW1 2141   1.560   1.895   0.521  0.6007 -3.8481 -1.0164
  714SOL    HW2 2142   1.489   1.744   0.478 -2.9289 -1.4709  0.3363
  715SOL     OW 2143   2.724   0.180   0.447 -0.5990 -0.2860 -0.5051
  715SOL    HW1 2144   2.666   0.136   0.518 -0.9835  1.8511 -0.5548
  715SOL    HW2 2145   2.785   0.255   0.480 -1.4841 -2.1615 -1.2453
  716SOL     OW 2146   0.511   0.179   2.276  0.3585 -0.7912 -0.0378
  716SOL    HW1 2147   0.535   0.204   2.374  0.9526 -0.3731  0.3559
  716SOL    HW2 2148   0.569   0.101   2.242  2.1570 -0.1349 -3.4090
  717SOL     OW 2149   2.997   0.557   2.859 -0.7973 -0.6699  0.5425
  717SOL    HW1 2150   2.963   0.473   2.803 -4.3999  0.0530 -1.8255
  717SOL    HW2 2151   3.070   0.533   2.925  1.7973  0.6083 -0.2528
  718SOL     OW 2152   1.133   0.562   0.588  0.3912  0.0542 -0.0635
  718SOL    HW1 2153   1.167   0.554   0.684  1.3288 -1.9986  2.3090
  718SOL    HW2 2154   1.205   0.541   0.521 -0.3949  1.5689  1.2707
  719SOL     OW 2155   2.636   2.388   2.889  0.0814  0.2961  1.0155
  719SOL    HW1 2156   2.575   2.358   2.814 -1.5628  1.8116 -1.8064
  719SOL    HW2 2157   2.662   2.310   2.942  1.2797  3.4672 -3.1497
  720SOL     OW 2158   1.579   0.714   1.452  0.4665 -0.3639  0.3956
  720SOL    HW1 2159   1.548   0.629   1.501 -0.2784  0.3166 -3.0848
  720SOL    HW2 2160   1.587   0.795   1.512 -1.0527 -1.6216  2.6372
  721SOL     OW 2161   2.835   0.769   0.877 -0.0112 -0.4569 -0.0261
  721SOL    HW1 2162   2.760   0.716   0.920  0.3557  1.7571  1.8000
  721SOL    HW2 2163   2.924   0.740   0.918  0.5816 -3.8084 -1.5418
  722SOL     OW 2164   1.342   1.973   2.376 -0.3867  0.1606 -0.5541
  722SOL    HW1 2165   1.333   2.076   2.361 -0.1815  1.1885 -2.9209
  722SOL    HW2 2166   1.314   1.946   2.472  0.5803  0.6724  0.9601
  723SOL     OW 2167   0.636   0.420   0.526  0.0991  0.5315  0.4438
  723SOL    HW1 2168   0.739   0.428   0.522 -1.5657  0.8044  1.1424
  723SOL    HW2 2169   0.602   0.506   0.580 -1.6465  1.2922  1.2046
  724SOL     OW 2170   0.997   2.043   2.053  0.6821 -0.0867 -0.4937
  724SOL    HW1 2171   0.988   2.002   1.961 -0.6638  1.5379  0.7534
  724SOL    HW2 2172   0.906   2.080   2.089 -0.6105 -1.4803  3.4498
  725SOL     OW 2173   0.241   1.042   1.375 -0.0846  0.7314 -0.2399
  725SOL    HW1 2174   0.232   1.084   1.284 -1.7745  3.0366  0.0801
  725SOL    HW2 2175   0.335   1.003   1.384 -1.5383  0.0443 -0.4804
  726SOL     OW 2176   1.830   0.473   0.668  0.4867 -0.2944 -0.3857
  726SOL    HW1 2177   1.759   0.477   0.735  1.3698 -0.4121 -2.0765
  726SOL    HW2 2178   1.780   0.473   0.578  0.4232 -2.1993  0.3401
  727SOL     OW 2179   1.826   0.836   2.074  0.1907  0.0657  0.1626
  727SOL    HW1 2180   1.907   0.874   2.025  2.2503  0.9544  1.1728
  727SOL    HW2 2181   1.739   0.868   2.036 -0.6289  1.0454 -1.4010
  728SOL     OW 2182   1.675   2.615   1.463  0.1135 -0.4795  0.0457
  728SOL    HW1 2183   1.708   2.698   1.513 -0.0557 -2.0392 -0.7581
  728SOL    HW2 2184   1.591   2.584   1.506 -2.9137 -1.4133 -3.5709
  729SOL     OW 2185   1.333   0.394   1.799 -0.4947 -0.0034 -0.5429
  729SOL    HW1 2186   1.344   0.295   1.829 -0.0792  0.2976  0.6000
  729SOL    HW2 2187   1.302   0.453   1.879  0.8134  2.3720 -0.8143
  730SOL     OW 2188   0.911   1.944   1.807  0.5587 -0.0612 -0.8559
  730SOL    HW1 2189   0.871   2.027   1.766  2.2896 -1.4725 -0.9101
  730SOL    HW2 2190   0.993   1.905   1.755 -1.5845 -1.1212 -2.5980
  731SOL     OW 2191   0.629   0.279   0.141  0.1753 -0.3779 -0.1181
  731SOL    HW1 2192   0.583   0.354   0.187 -0.4861  1.3238 -0.9130
  731SOL    HW2 2193   0.582   0.189   0.162 -3.1287 -1.3648 -0.0870
  732SOL     OW 2194   0.810   0.812   0.104  0.5618  0.1171 -0.1468
  732SOL    HW1 2195   0.823   0.752   0.187  0.9692 -0.4868 -0.3319
  732SOL    HW2 2196   0.775   0.758   0.026  2.6524  1.7992 -0.6526
  733SOL     OW 2197   1.431   1.727   1.859  0.2988 -0.1094  0.1938
  733SOL    HW1 2198   1.484   1.686   1.935 -0.1194 -1.4450  1.0266
  733SOL    HW2 2199   1.452   1.678   1.774 -0.8087  2.9068  5.5711
  734SOL     OW 2200   2.883   2.736   2.188  0.2551  0.3964  0.2504
  734SOL    HW1 2201   2.972   2.691   2.181  0.7258 -1.2889  2.0324
  734SOL    HW2 2202   2.877   2.827   2.238  0.3009  0.8969  0.9870
  735SOL     OW 2203   0.990   2.874   0.981  0.8884 -0.1289 -0.2489
  735SOL    HW1 2204   0.984   2.810   0.903  1.6306  0.9763 -0.8689
  735SOL    HW2 2205   1.060   2.945   0.969 -1.0109 -2.4240 -0.3639
  736SOL     OW 2206   1.500   0.825   2.746  0.1042 -0.1874  0.6672
  736SOL    HW1 2207   1.466   0.731   2.719  1.8094  0.5718 -3.6585
  736SOL    HW2 2208   1.460   0.852   2.831  0.9558  0.4137 -3.7939
  737SOL     OW 2209   0.094   0.791   0.207  0.2324  0.9339 -0.0983
  737SOL    HW1 2210   0.167   0.766   0.140  1.3200  2.1027  0.9077
  737SOL    HW2 2211   0.052   0.884   0.192 -0.9432  1.5134 -0.1273
  738SOL     OW 2212   0.104   2.875   1.283  0.6779 -0.5795 -0.0582
  738SOL    HW1 2213   0.094   2.804   1.354  2.0447 -0.0900 -0.4855
  738SOL    HW2 2214   0.036   2.869   1.211  2.1731 -0.4359  3.3122
  739SOL     OW 2215   1.638   2.977   0.620  0.2151  0.3776 -0.1688
  739SOL    HW1 2216   1.641   3.072   0.584  1.6431 -1.4197 -0.8785
  739SOL    HW2 2217   1.604   2.903   0.555  0.2276 -1.1565 -0.7998
  740SOL     OW 2218   1.520   2.815   1.218 -0.8746  0.0401  0.1838
  740SOL    HW1 2219   1.591   2.869   1.274  0.0282  2.9627 -2.6943
  740SOL    HW2 2220   1.433   2.805   1.269  0.8137  3.3329 -1.3285
  741SOL     OW 2221   2.072   0.621   0.541 -0.4170 -0.0914  0.6436
  741SOL    HW1 2222   2.016   0.563   0.599  0.8397  0.1687 -3.2076
  741SOL    HW2 2223   2.019   0.702   0.509 -0.6210 -0.1364  0.9836
  742SOL     OW 2224   1.061   2.288   1.701  0.6636 -0.1848 -0.4174
  742SOL    HW1 2225   1.097   2.304   1.796  1.1924  0.0560 -0.1178
  742SOL    HW2 2226   1.120   2.225   1.647  0.1352  1.0897 -1.4210
  743SOL     OW 2227   2.199   0.811   2.148  0.2287  0.2879  0.5194
  743SOL    HW1 2228   2.149   0.814   2.239 -3.5365  2.1489 -1.0395
  743SOL    HW2 2229   2.295   0.772   2.162  1.1089 -0.3871 -0.0690
  744SOL     OW 2230   2.005   0.258   0.661  0.3709  0.2606 -0.0646
  744SOL    HW1 2231   2.056   0.285   0.578 -0.5179 -1.3764 -1.4217
  744SOL    HW2 2232   1.927   0.327   0.678 -0.3730  0.6951 -1.3695
  745SOL     OW 2233   2.312   1.557   1.822 -0.4671 -0.1941  0.1124
  745SOL    HW1 2234   2.264   1.625   1.878  0.2444  1.6853 -0.2084
  745SOL    HW2 2235   2.319   1.585   1.721 -0.1789 -1.1935 -2.4849
  746SOL     OW 2236   1.310   1.693   0.778 -0.0736 -0.5286 -0.5717
  746SOL    HW1 2237   1.240   1.759   0.740 -2.1936  1.9781 -0.8763
  746SOL    HW2 2238   1.367   1.733   0.860 -0.4773  2.0198 -0.5778
  747SOL     OW 2239   2.026   1.152   1.087 -1.0726  0.7511 -0.2054
  747SOL    HW1 2240   2.043   1.129   1.185 -0.8779  0.3708 -1.7123
  747SOL    HW2 2241   2.022   1.060   1.037  0.7920  1.2002  3.4773
  748SOL     OW 2242   0.130   2.963   0.068 -0.0174 -0.1925 -0.0932
  748SOL    HW1 2243   0.175   3.010   0.143 -0.4582 -1.0860 -4.7732
  748SOL    HW2 2244   0.102   2.866   0.084 -3.4613  1.9650 -0.9549
  749SOL     OW 2245   0.016   0.579   2.180 -0.3587  0.0925  0.5284
  749SOL    HW1 2246   0.070   0.667   2.172  1.3192  1.6437  1.3058
  749SOL    HW2 2247   3.008   0.597   2.159 -0.3497  2.0880 -0.7587
  750SOL     OW 2248   1.797   2.814   1.606  0.3864  0.1438  0.4658
  750SOL    HW1 2249   1.899   2.790   1.612 -0.3648 -0.2848 -1.5708
  750SOL    HW2 2250   1.742   2.794   1.689  0.3789 -1.1486  1.4187
  751SOL     OW 2251   2.661   0.481   0.527 -0.1704  0.2036  0.0381
  751SOL    HW1 2252   2.677   0.576   0.499  0.5906  0.5592  1.9282
  751SOL    HW2 2253   2.749   0.430   0.545 -0.8168  0.6509  1.2439
  752SOL     OW 2254   0.160   2.790   0.836 -0.0376  0.2009  0.3001
  752SOL    HW1 2255   0.158   2.730   0.755 -1.7570  0.2907 -1.4699
  752SOL    HW2 2256   0.228   2.862   0.819 -1.5317 -0.7611  1.1247
  753SOL     OW 2257   0.979   0.296   1.444 -0.3596  0.2058  0.5859
  753SOL    HW1 2258   0.922   0.246   1.377  0.2342  2.4791  3.0317
  753SOL    HW2 2259   1.029   0.238   1.510  0.0117  1.1772 -2.1064
  754SOL     OW 2260   0.731   2.715   2.338 -0.2503 -0.1334 -0.0650
  754SOL    HW1 2261   0.650   2.745   2.390  1.0323 -1.8529 -2.0095
  754SOL    HW2 2262   0.757   2.769   2.259  3.2502 -2.5899 -0.0032
  755SOL     OW 2263   2.379   1.362   0.317 -0.1317  0.1252 -0.4731
  755SOL    HW1 2264   2.463   1.408   0.275  2.7294  1.0477 -1.7720
  755SOL    HW2 2265   2.295   1.420   0.297 -2.4108  0.1294  1.7441
  756SOL     OW 2266   2.207   1.877   2.663  0.1033 -0.5566  0.2853
  756SOL    HW1 2267   2.263   1.902   2.742  0.4838 -0.5661 -1.6052
  756SOL    HW2 2268   2.246   1.798   2.612 -0.2006 -0.5762 -0.9007
  757SOL     OW 2269   1.661   0.251   1.279 -0.5516 -0.2511 -0.0499
  757SOL    HW1 2270   1.578   0.284   1.330  0.1335  1.3344 -0.6273
  757SOL    HW2 2271   1.628   0.208   1.195 -0.6818 -2.1115  1.6048
  758SOL     OW 2272   1.490   2.611   0.621 -0.1714 -0.3355  0.7188
  758SOL    HW1 2273   1.568   2.552   0.644 -0.2386  1.7091  1.1464
  758SOL    HW2 2274   1.521   2.676   0.546  0.2114 -3.2505 -0.5842
  759SOL     OW 2275   2.462   0.443   1.162 -0.3005  0.3408  0.3755
  759SOL    HW1 2276   2.499   0.446   1.068 -2.0135  0.2871  0.6093
  759SOL    HW2 2277   2.394   0.520   1.178  0.6677 -0.5440  0.1483
  760SOL     OW 2278   2.360   1.152   1.194  0.1323  0.0601  0.4017
  760SOL    HW1 2279   2.308   1.189   1.276 -1.5889 -0.7842 -1.0090
  760SOL    HW2 2280   2.306   1.154   1.107  1.6730 -0.7673 -0.4732
  761SOL     OW 2281   0.533   0.650   0.622 -0.8452 -0.1939  0.4147
  761SOL    HW1 2282   0.515   0.724   0.552 -0.3606  1.1502 -1.4605
  761SOL    HW2 2283   0.506   0.677   0.717 -1.4347 -0.1422 -2.4037
  762SOL     OW 2284   1.559   1.979   1.511 -0.0411 -0.4837  0.1374
  762SOL    HW1 2285   1.644   1.943   1.548 -2.2153 -2.2914  3.8905
  762SOL    HW2 2286   1.570   2.069   1.460  3.6566  1.3050  0.9902
  763SOL     OW 2287   1.199   1.429   1.505  0.5031  0.3987  0.1323
  763SOL    HW1 2288   1.178   1.337   1.461 -0.5756  1.0239  0.3943
  763SOL    HW2 2289   1.119   1.488   1.501  1.0335  0.1625  3.1234
  764SOL     OW 2290   3.044   1.746   2.105  0.0153 -0.3288  0.0256
  764SOL    HW1 2291   3.009   1.801   2.026 -2.3001 -0.3442 -1.8638
  764SOL    HW2 2292   3.072   1.654   2.073  1.4819 -0.7721 -0.6745
  765SOL     OW 2293   1.391   2.403   1.339 -0.5708  0.6373 -0.1632
  765SOL    HW1 2294   1.305   2.348   1.326  0.6478 -1.1994  0.4092
  765SOL    HW2 2295   1.407   2.473   1.267  1.5122  2.5887 -2.5515
  766SOL     OW 2296   0.091   2.407   2.598 -0.4741 -0.2264  0.0417
  766SOL    HW1 2297   0.093   2.509   2.623 -0.5955  2.3398  1.2863
  766SOL    HW2 2298   0.009   2.389   2.538 -3.3155  1.6189 -1.2398
  767SOL     OW 2299   1.416   0.587   2.632  0.0368 -0.1857 -1.0703
  767SOL    HW1 2300   1.487   0.512   2.630  5.0770 -0.0493 -0.4056
  767SOL    HW2 2301   1.319   0.556   2.619 -3.0940 -0.6766  1.4138
  768SOL     OW 2302   1.491   2.230   3.063 -0.0681 -0.2876  0.3157
  768SOL    HW1 2303   1.546   2.318   3.053  0.8376 -1.1709  2.3390
  768SOL    HW2 2304   1.427   2.227   2.985  0.1538  0.1615  1.7647
  769SOL     OW 2305   0.311   2.700   1.066  0.2438  0.5894  0.1444
  769SOL    HW1 2306   0.271   2.711   0.974 -1.5003 -3.0130 -0.4686
  769SOL    HW2 2307   0.304   2.785   1.119 -0.4066  0.5483  2.9818
  770SOL     OW 2308   1.445   0.878   0.049 -0.0553 -0.2459  0.4266
  770SOL    HW1 2309   1.507   0.945   3.090 -0.3905  0.7139 -0.9128
  770SOL    HW2 2310   1.508   0.826   0.105 -0.2833  3.4844 -1.7276
  771SOL     OW 2311   0.250   0.107   2.327  0.0269  0.1621 -0.8172
  771SOL    HW1 2312   0.208   0.119   2.417 -2.3695 -0.0605 -0.7685
  771SOL    HW2 2313   0.356   0.107   2.327  1.8331 -2.2274  1.9544
  772SOL     OW 2314   1.874   2.844   2.047  0.3634  0.3378 -0.2341
  772SOL    HW1 2315   1.950   2.873   1.990 -1.5855 -0.5385  1.4518
  772SOL    HW2 2316   1.784   2.854   1.993 -2.8860  0.4603 -1.2697
  773SOL     OW 2317   0.575   2.208   1.790 -0.2423  0.3076  0.2745
  773SOL    HW1 2318   0.652   2.195   1.725  5.0610  0.4578 -0.1760
  773SOL    HW2 2319   0.600   2.270   1.869  0.4636  0.5419 -1.7599
  774SOL     OW 2320   1.196   0.116   2.061 -0.2348 -0.3413 -0.2134
  774SOL    HW1 2321   1.132   0.033   2.083 -0.9235 -0.2412  1.6396
  774SOL    HW2 2322   1.178   0.200   2.121 -0.6987  1.0429 -0.9839
  775SOL     OW 2323   2.167   2.632   0.171  0.1088 -0.7579  0.1988
  775SOL    HW1 2324   2.193   2.731   0.189 -0.3093  1.0360  0.1785
  775SOL    HW2 2325   2.086   2.632   0.107  1.2067 -1.1000 -1.9066
  776SOL     OW 2326   2.360   0.470   2.428  0.0350  0.0560 -0.8184
  776SOL    HW1 2327   2.397   0.495   2.521 -0.0591 -2.3854  1.8631
  776SOL    HW2 2328   2.330   0.561   2.398  0.4837 -2.3497  3.1254
  777SOL     OW 2329   2.369   1.245   2.496 -0.2738 -0.3649  0.1609
  777SOL    HW1 2330   2.343   1.316   2.560 -2.8261 -0.4190 -1.4457
  777SOL    HW2 2331   2.463   1.262   2.459  2.1012  0.9597 -1.1124
  778SOL     OW 2332   2.088   0.902   2.384 -0.0608 -0.7668  0.7507
  778SOL    HW1 2333   2.070   1.000   2.354 -0.0480 -0.4912 -0.4618
  778SOL    HW2 2334   2.007   0.850   2.416  1.1454 -0.2074 -1.1837
  779SOL     OW 2335   3.069   0.324   0.225 -0.1944 -0.2304  0.4718
  779SOL    HW1 2336   0.062   0.372   0.254 -0.1551 -0.5005 -1.1165
  779SOL    HW2 2337   3.054   0.236   0.281  0.8688 -3.2003  2.0438
  780SOL     OW 2338   2.689   0.533   2.926  0.5729 -0.5097  0.2732
  780SOL    HW1 2339   2.730   0.607   2.871  1.5004  0.5629  0.2300
  780SOL    HW2 2340   2.745   0.528   3.014  0.5897  1.6273  3.1216
  781SOL     OW 2341   0.095   0.014   1.414  0.4786 -0.0890 -0.8702
  781SOL    HW1 2342   0.053   0.059   1.336  2.3645  2.0886  1.9194
  781SOL    HW2 2343   0.125   3.016   1.383 -1.5271  2.4616 -0.6755
  782SOL     OW 2344   1.812   2.531   0.551  0.2642  0.4119 -0.4401
  782SOL    HW1 2345   1.826   2.501   0.454  3.3186 -1.9776 -2.6649
  782SOL    HW2 2346   1.854   2.625   0.558 -0.9312 -0.6140  0.2801
  783SOL     OW 2347   0.841   1.331   1.391 -0.5207  0.2169 -0.2096
  783SOL    HW1 2348   0.815   1.404   1.321  0.6974  1.3680  2.1310
  783SOL    HW2 2349   0.842   1.377   1.481 -0.0624  0.6149 -1.8239
  784SOL     OW 2350   1.559   0.365   2.667  0.4016  0.0581 -1.0321
  784SOL    HW1 2351   1.583   0.375   2.764  0.0004 -1.7576  2.5999
  784SOL    HW2 2352   1.505   0.278   2.655  2.2332 -0.7501 -1.6547
  785SOL     OW 2353   2.451   0.212   1.302 -0.1695  0.2009  0.6745
  785SOL    HW1 2354   2.458   0.298   1.242  0.9434  1.3482 -2.5242
  785SOL    HW2 2355   2.354   0.176   1.309 -1.7622  1.1151  1.5354
  786SOL     OW 2356   1.188   2.636   1.546  0.2708 -0.7112 -0.2424
  786SOL    HW1 2357   1.266   2.595   1.589 -1.7746  1.5764 -0.4729
  786SOL    HW2 2358   1.127   2.557   1.512 -1.5733 -1.6312  0.9090
  787SOL     OW 2359   1.514   0.481   1.615  0.0911  0.2745  0.5118
  787SOL    HW1 2360   1.510   0.413   1.536 -1.3466 -1.3893  0.4776
  787SOL    HW2 2361   1.450   0.443   1.687 -0.8583 -0.0505  1.9790
  788SOL     OW 2362   2.922   1.105   0.416 -0.2736  0.3979 -0.0476
  788SOL    HW1 2363   2.963   1.067   0.335 -0.3843 -0.0045  2.9435
  788SOL    HW2 2364   2.891   1.030   0.484 -1.3194 -1.2077  0.4538
  789SOL     OW 2365   0.697   1.824   1.672 -0.2425 -0.1464  0.9501
  789SOL    HW1 2366   0.783   1.860   1.712 -2.0195  2.4755  1.0640
  789SOL    HW2 2367   0.671   1.881   1.587 -2.4448  1.6164  0.3997
  790SOL     OW 2368   0.705   0.626   2.557  0.3700 -0.1089 -0.1429
  790SOL    HW1 2369   0.724   0.539   2.612 -2.0239 -0.7192  0.1222
  790SOL    HW2 2370   0.606   0.642   2.555  2.9199  0.6063  2.9488
  791SOL     OW 2371   2.299   0.697   0.658 -0.2644 -0.0498  0.3446
  791SOL    HW1 2372   2.211   0.688   0.606  1.3438  0.4603 -0.1963
  791SOL    HW2 2373   2.287   0.727   0.754 -0.4670  2.1662  1.3443
  792SOL     OW 2374   1.179   2.779   1.771  0.4432  0.6103  0.1481
  792SOL    HW1 2375   1.217   2.717   1.839  1.9349  1.1590 -0.1695
  792SOL    HW2 2376   1.169   2.728   1.681 -1.9776 -3.4738 -2.1195
  793SOL     OW 2377   0.312   3.038   0.819 -0.6116  0.4173 -0.1355
  793SOL    HW1 2378   0.260   0.026   0.789 -1.4961  0.1966  2.0838
  793SOL    HW2 2379   0.412   3.064   0.829 -0.1578 -0.8428  0.1231
  794SOL     OW 2380   0.064   0.854   2.054 -0.2195 -0.6124  0.2065
  794SOL    HW1 2381   0.020   0.942   2.071  1.1220 -1.1372 -1.9736
  794SOL    HW2 2382   0.033   0.823   1.963  1.7498  1.1065  0.7050
  795SOL     OW 2383   0.448   2.061   2.271  0.3134  0.2482 -0.3250
  795SOL    HW1 2384   0.445   2.152   2.226  0.0369 -2.8799  0.4992
  795SOL    HW2 2385   0.509   1.994   2.225 -0.0455  1.4379 -1.1830
  796SOL     OW 2386   2.446   0.238   2.311  0.6960 -0.2103 -0.0236
  796SOL    HW1 2387   2.435   0.329   2.357 -1.8100  1.2693  1.7277
  796SOL    HW2 2388   2.391   0.241   2.223 -2.4630 -0.9533 -3.0547
  797SOL     OW 2389   2.379   2.540   2.651  0.8296  0.2381 -0.1419
  797SOL    HW1 2390   2.397   2.447   2.693 -0.7635 -1.2037  1.6312
  797SOL    HW2 2391   2.350   2.614   2.713 -4.0288 -1.8933 -1.2867
  798SOL     OW 2392   2.981   0.009   2.083 -0.1132  0.5226  0.1933
  798SOL    HW1 2393   3.079   3.068   2.088  2.7822 -3.2166  0.1776
  798SOL    HW2 2394   2.935   3.073   1.992 -1.4143 -2.1041 -2.6758
  799SOL     OW 2395   0.292   2.296   2.200  0.4657 -0.4649 -0.0609
  799SOL    HW1 2396   0.194   2.308   2.226  3.2167  2.1737 -0.8330
  799SOL    HW2 2397   0.297   2.290   2.097 -0.7589 -0.6323 -2.0784
  800SOL     OW 2398   0.086   2.036   0.079  0.1832 -0.6704 -0.5518
  800SOL    HW1 2399   0.148   2.072   0.151  0.7160  0.1634  0.1812
  800SOL    HW2 2400   0.032   1.957   0.107  0.8809  0.8604 -1.9918
  801SOL     OW 2401   1.663   1.407   1.395 -0.2710  0.5556 -0.2608
  801SOL    HW1 2402   1.702   1.457   1.473  3.3665  3.4839  0.7932
  801SOL    HW2 2403   1.568   1.446   1.371 -0.7202  1.6495  1.1264
  802SOL     OW 2404   0.174   0.709   0.466 -0.0182 -0.0740  0.0564
  802SOL    HW1 2405   0.125   0.735   0.378 -2.6622 -0.0012 -0.3367
  802SOL    HW2 2406   0.268   0.750   0.465  0.1632 -0.9295 -0.0715
  803SOL     OW 2407   1.376   1.436   1.980 -0.0817  0.1070  0.4464
  803SOL    HW1 2408   1.395   1.431   1.879  0.5864  0.1212 -2.4436
  803SOL    HW2 2409   1.278   1.416   1.991  2.1701 -0.0843 -2.3370
  804SOL     OW 2410   1.819   1.461   1.170 -0.5522  0.2925  0.2747
  804SOL    HW1 2411   1.750   1.446   1.238  0.1902  0.8793 -2.5929
  804SOL    HW2 2412   1.822   1.386   1.101  0.5397 -3.1522 -0.6792
  805SOL     OW 2413   2.853   1.822   2.657  0.3488 -0.1524  0.3330
  805SOL    HW1 2414   2.867   1.888   2.584 -0.7571 -0.7602  0.2312
  805SOL    HW2 2415   2.762   1.834   2.704 -0.0065 -1.9938  0.2910
  806SOL     OW 2416   0.454   2.273   0.055  0.3537 -0.0695 -0.3426
  806SOL    HW1 2417   0.545   2.313   0.067  0.1457  2.1073 -0.9471
  806SOL    HW2 2418   0.411   2.312   3.064  1.2082  0.0861  0.0962
  807SOL     OW 2419   2.260   1.584   2.901 -0.3716  0.2794  0.5309
  807SOL    HW1 2420   2.328   1.631   2.963 -0.7413 -0.6370  0.6461
  807SOL    HW2 2421   2.170   1.638   2.902 -0.8981  2.0912 -0.2601
  808SOL     OW 2422   1.280   1.937   1.263  0.0246 -0.7529 -0.8818
  808SOL    HW1 2423   1.214   1.960   1.186 -1.1569  1.0972  1.9948
  808SOL    HW2 2424   1.302   2.027   1.310  1.5815  1.3642  0.0260
  809SOL     OW 2425   0.191   0.439   0.331  0.2722  0.2554  0.1728
  809SOL    HW1 2426   0.153   0.530   0.359  1.7948 -0.2087  1.7213
  809SOL    HW2 2427   0.294   0.449   0.333 -0.6679  2.6900  1.3770
  810SOL     OW 2428   1.019   1.421   0.244 -0.1027 -0.4738 -0.2907
  810SOL    HW1 2429   0.999   1.467   0.332  1.4599  0.5287 -2.5487
  810SOL    HW2 2430   0.967   1.471   0.172 -0.6507 -0.0777  2.2960
  811SOL     OW 2431   1.811   2.477   1.073 -0.3398  0.3733  0.1801
  811SOL    HW1 2432   1.766   2.386   1.059  0.8059 -3.8968 -0.2390
  811SOL    HW2 2433   1.841   2.489   1.166 -2.4176 -1.7689  0.4650
  812SOL     OW 2434   1.251   2.823   1.355  0.0605  0.1759 -0.1311
  812SOL    HW1 2435   1.255   2.736   1.401  0.5548  2.7158  0.2399
  812SOL    HW2 2436   1.164   2.833   1.304  1.3728  0.9397  0.0270
  813SOL     OW 2437   0.806   0.003   1.821  0.3078 -0.0285 -0.1085
  813SOL    HW1 2438   0.773   0.077   1.887 -2.2284  0.8151 -0.5546
  813SOL    HW2 2439   0.747   3.012   1.828 -0.2232 -0.1814  0.5919
  814SOL     OW 2440   0.915   2.423   2.072 -0.0610 -0.4228  0.4586
  814SOL    HW1 2441   0.957   2.378   2.154  0.8284 -0.1454  1.0560
  814SOL    HW2 2442   0.823   2.378   2.052 -0.1187 -1.1362  2.1091
  815SOL     OW 2443   0.601   2.880   2.861  0.1101 -0.5165 -0.1420
  815SOL    HW1 2444   0.653   2.876   2.774 -1.6070  1.5765  1.3907
  815SOL    HW2 2445   0.509   2.894   2.826  0.2103 -3.4340 -0.3406
  816SOL     OW 2446   2.123   0.621   2.908  0.0248 -0.0653  0.0324
  816SOL    HW1 2447   2.129   0.521   2.896 -1.4731 -3.4019  2.4786
  816SOL    HW2 2448   2.110   0.647   3.003 -1.3410 -0.5793 -1.8291
  817SOL     OW 2449   2.392   2.453   2.227  0.1593  0.0473 -0.1149
  817SOL    HW1 2450   2.383   2.484   2.132  0.5021  2.2574  0.7472
  817SOL    HW2 2451   2.335   2.503   2.296 -1.4274  0.6481  0.3676
  818SOL     OW 2452   1.058   0.832   0.432 -0.6706  0.3109 -0.1128
  818SOL    HW1 2453   1.099   0.777   0.357 -1.5074 -0.6527 -1.4149
  818SOL    HW2 2454   0.958   0.833   0.415  1.1836 -1.6961 -0.9032
  819SOL     OW 2455   1.838   1.428   2.764 -0.1373  0.4611 -0.2286
  819SOL    HW1 2456   1.902   1.476   2.702 -0.6500 -1.0997  0.6159
  819SOL    HW2 2457   1.867   1.425   2.858 -0.7803  1.9558 -0.6104
  820SOL     OW 2458   0.094   1.443   2.627 -0.1069  0.5540 -0.4352
  820SOL    HW1 2459   0.008   1.481   2.584 -0.4511 -0.0029  0.5196
  820SOL    HW2 2460   0.168   1.435   2.562  0.0420 -1.5562  0.5720
  821SOL     OW 2461   0.339   0.001   0.484 -0.0147 -0.3778 -0.7045
  821SOL    HW1 2462   0.392   0.082   0.515  0.5841 -0.9537 -0.3278
  821SOL    HW2 2463   0.400   3.033   0.431 -2.2384 -1.0320  0.1021
  822SOL     OW 2464   2.472   2.683   2.976 -0.0305 -0.0570 -0.4100
  822SOL    HW1 2465   2.397   2.707   2.913  3.3194 -2.2059 -0.4007
  822SOL    HW2 2466   2.565   2.711   2.943  0.8879 -0.3379 -1.3381
  823SOL     OW 2467   1.523   3.017   2.494  0.0090 -0.1449 -0.0926
  823SOL    HW1 2468   1.605   2.983   2.547 -0.6096  0.3305  2.1226
  823SOL    HW2 2469   1.498   2.948   2.426  1.4252  0.0955 -2.6118
  824SOL     OW 2470   2.774   2.423   1.968  0.1199 -0.5970 -0.1002
  824SOL    HW1 2471   2.784   2.524   1.944 -2.3682  0.7997 -0.1545
  824SOL    HW2 2472   2.769   2.414   2.068 -0.0642  1.1341 -0.6144
  825SOL     OW 2473   2.874   1.965   2.405 -0.1020  0.0144  0.2670
  825SOL    HW1 2474   2.963   1.919   2.392 -1.2854  3.4173 -1.4436
  825SOL    HW2 2475   2.863   2.036   2.329 -2.5486 -0.4231 -1.5399
  826SOL     OW 2476   1.859   0.785   3.018 -0.2520  0.1931  0.0249
  826SOL    HW1 2477   1.839   0.869   3.067  0.7884  0.9155 -1.7018
  826SOL    HW2 2478   1.871   0.802   2.917  0.5060 -1.8262 -0.8274
  827SOL     OW 2479   2.866   1.788   1.721 -0.6704 -0.5735 -0.9156
  827SOL    HW1 2480   2.951   1.761   1.766 -1.9393  1.6642 -0.2688
  827SOL    HW2 2481   2.782   1.732   1.740  0.7091  2.2903 -0.5588
  828SOL     OW 2482   2.928   0.231   1.299  0.8311 -0.2215  0.1200
  828SOL    HW1 2483   3.012   0.194   1.253 -0.1194 -2.5922  1.9919
  828SOL    HW2 2484   2.841   0.190   1.257 -1.9534 -0.6109 -0.2908
  829SOL     OW 2485   0.670   1.874   2.498  0.3819  0.3962 -0.0377
  829SOL    HW1 2486   0.723   1.961   2.481  1.7252  2.0815 -3.0092
  829SOL    HW2 2487   0.574   1.892   2.527  0.6841 -0.4660 -0.0607
  830SOL     OW 2488   0.477   0.947   1.418  0.1792  0.2802  0.8875
  830SOL    HW1 2489   0.540   1.023   1.421 -1.2643 -0.0641  1.1888
  830SOL    HW2 2490   0.509   0.867   1.368 -2.5829  4.4267  1.4469
  831SOL     OW 2491   2.390   1.948   2.846 -0.7418 -0.0056  0.0692
  831SOL    HW1 2492   2.455   1.871   2.827  1.8075  0.9342 -0.7868
  831SOL    HW2 2493   2.414   1.988   2.937  1.4614 -0.0498  3.5026
  832SOL     OW 2494   1.965   2.661   3.040  0.0400  0.0414  0.0215
  832SOL    HW1 2495   1.983   2.579   2.978  1.6495  0.1363  2.0393
  832SOL    HW2 2496   1.970   2.750   2.997  0.3515 -0.5717  0.0423
  833SOL     OW 2497   0.754   0.223   2.013 -0.4930  0.0342 -0.1945
  833SOL    HW1 2498   0.741   0.151   2.080 -3.2386  1.2147  2.1379
  833SOL    HW2 2499   0.744   0.315   2.057 -1.4334  0.1531 -0.0562
  834SOL     OW 2500   2.966   0.418   1.469  0.3531 -0.5950  1.0227
  834SOL    HW1 2501   2.959   0.340   1.400 -0.6204 -1.4381 -1.6035
  834SOL    HW2 2502   2.882   0.465   1.493  4.3260 -0.2381  3.2839
  835SOL     OW 2503   2.506   0.474   0.187  0.0995  0.2223  0.4779
  835SOL    HW1 2504   2.572   0.547   0.166  0.1900 -2.1278 -0.0029
  835SOL    HW2 2505   2.477   0.480   0.283 -2.2416  2.1592 -0.5412
  836SOL     OW 2506   1.514   1.884   0.074 -0.0343  0.1285 -0.4517
  836SOL    HW1 2507   1.456   1.934   0.144 -1.0876  1.1326  2.0607
  836SOL    HW2 2508   1.587   1.947   0.036  0.1255 -1.1961 -1.7591
  837SOL     OW 2509   1.990   1.893   0.687 -0.1689  0.2061 -0.0534
  837SOL    HW1 2510   2.088   1.871   0.688 -1.1042  0.0956 -0.8217
  837SOL    HW2 2511   1.969   1.964   0.617 -1.4248  2.3765  1.4112
  838SOL     OW 2512   1.407   0.775   2.420 -0.1233 -0.3773 -0.3421
  838SOL    HW1 2513   1.415   0.708   2.501  0.5010  1.5755 -0.0296
  838SOL    HW2 2514   1.411   0.871   2.444  0.0901 -2.9128  0.4420
  839SOL     OW 2515   0.560   1.428   2.451  0.0904  0.2688 -0.1248
  839SOL    HW1 2516   0.568   1.402   2.550  0.7393 -1.5916  0.1408
  839SOL    HW2 2517   0.655   1.418   2.414  0.1941  1.8445  0.2618
  840SOL     OW 2518   1.016   1.574   0.479  0.3751  0.0063  0.0831
  840SOL    HW1 2519   1.073   1.647   0.524 -3.4573 -0.2062  1.4793
  840SOL    HW2 2520   1.028   1.486   0.530  1.2358 -0.0370  1.1074
  841SOL     OW 2521   1.594   2.247   0.708 -0.1283  0.1887 -0.2522
  841SOL    HW1 2522   1.695   2.276   0.708  3.0972  0.2839 -0.5921
  841SOL    HW2 2523   1.553   2.265   0.797 -0.6180  0.5367  0.9474
  842SOL     OW 2524   0.446   0.481   2.981 -0.1170  0.6047 -0.1594
  842SOL    HW1 2525   0.407   0.401   3.027 -0.7271 -2.2378  1.8215
  842SOL    HW2 2526   0.548   0.475   2.971  2.5973  0.3105 -0.1250
  843SOL     OW 2527   0.467   0.330   0.787 -0.0618  0.4594 -0.0612
  843SOL    HW1 2528   0.547   0.285   0.742  0.8314 -2.2208  0.3209
  843SOL    HW2 2529   0.380   0.301   0.745  2.1529 -0.0875 -2.0281
  844SOL     OW 2530   2.096   0.073   2.457  0.1452 -0.2061 -0.3095
  844SOL    HW1 2531   2.099   0.064   2.356 -1.3185  3.4011 -0.1677
  844SOL    HW2 2532   2.057   3.088   2.510  1.1190  0.0814  2.6026
  845SOL     OW 2533   0.089   2.572   1.870  0.0773  0.1449  0.3910
  845SOL    HW1 2534   0.005   2.515   1.854 -1.9601  2.5153  0.1913
  845SOL    HW2 2535   0.084   2.660   1.818 -1.4029 -1.6087 -0.2356
  846SOL     OW 2536   1.959   1.345   2.466 -0.3145  0.2148  0.1380
  846SOL    HW1 2537   2.043   1.312   2.419 -0.6822  1.0754  0.3970
  846SOL    HW2 2538   1.886   1.355   2.394  0.0922 -2.7674  0.6718
  847SOL     OW 2539   0.695   0.858   2.039 -0.2621  0.4997 -0.2656
  847SOL    HW1 2540   0.638   0.821   1.958 -0.0661  1.7548  1.6168
  847SOL    HW2 2541   0.796   0.859   2.019  0.8732  2.4681  1.3683
  848SOL     OW 2542   2.536   2.996   2.847  0.2366  0.1293 -0.3332
  848SOL    HW1 2543   2.605   2.918   2.848 -0.6441 -0.3757  0.9131
  848SOL    HW2 2544   2.572   3.084   2.894 -0.8420  1.4221  0.9625
  849SOL     OW 2545   0.402   2.631   0.200  0.2805 -0.2818  0.7591
  849SOL    HW1 2546   0.311   2.607   0.163  0.5218 -1.9370  0.9586
  849SOL    HW2 2547   0.460   2.673   0.125 -1.4206  1.2471 -0.4158
  850SOL     OW 2548   0.981   2.678   0.765 -0.4667 -0.0028 -0.9400
  850SOL    HW1 2549   0.992   2.584   0.806 -1.1624 -3.6464  2.9009
  850SOL    HW2 2550   1.066   2.726   0.747  0.8789  0.6613  1.2669
  851SOL     OW 2551   2.006   0.340   2.730 -0.0084  0.2670 -0.0923
  851SOL    HW1 2552   2.066   0.331   2.651 -3.6705 -0.1389 -0.3124
  851SOL    HW2 2553   2.054   0.334   2.819 -1.8872  1.7182 -0.7159
  852SOL     OW 2554   1.407   0.161   2.583 -0.1046 -0.2098  0.2607
  852SOL    HW1 2555   1.440   0.066   2.563  1.5865 -0.1043  2.3122
  852SOL    HW2 2556   1.373   0.157   2.679 -0.0832  0.1638 -1.8452
  853SOL     OW 2557   2.998   2.551   0.350  0.3376  0.0139  0.4282
  853SOL    HW1 2558   2.985   2.512   0.439 -1.5302  0.4515 -2.8949
  853SOL    HW2 2559   2.965   2.647   0.352 -0.3071  3.9947  1.6362
  854SOL     OW 2560   2.013   0.547   2.335 -0.1776 -0.6163  1.0812
  854SOL    HW1 2561   1.960   0.617   2.390 -0.7750 -0.5062  2.5018
  854SOL    HW2 2562   2.046   0.476   2.401  0.8018  1.1269  0.8089
  855SOL     OW 2563   0.629   2.473   0.272 -0.3188  0.1730 -0.2406
  855SOL    HW1 2564   0.563   2.541   0.249  0.1549 -1.8273  1.6929
  855SOL    HW2 2565   0.673   2.422   0.195 -2.7734  0.3974  2.0876
  856SOL     OW 2566   0.287   2.983   2.678  0.5772  0.1544 -0.2111
  856SOL    HW1 2567   0.214   2.971   2.607 -2.1106 -3.3606 -1.6654
  856SOL    HW2 2568   0.253   2.970   2.779 -0.6642  2.5747  1.3655
  857SOL     OW 2569   0.995   2.989   1.662  0.4509 -0.2360  0.1019
  857SOL    HW1 2570   1.062   2.936   1.709 -1.6608  1.6132  1.6329
  857SOL    HW2 2571   0.926   3.034   1.727 -0.3743  0.1846 -0.4152
  858SOL     OW 2572   2.647   2.131   1.680  0.4463  0.3476  0.0575
  858SOL    HW1 2573   2.731   2.082   1.662 -4.8166 -2.1147 -1.3046
  858SOL    HW2 2574   2.583   2.111   1.599  0.7990  1.5083  0.9508
  859SOL     OW 2575   1.916   2.351   1.981 -0.2567 -0.2301 -0.3065
  859SOL    HW1 2576   1.955   2.445   2.001  2.2340 -1.0828 -2.2329
  859SOL    HW2 2577   1.991   2.285   1.999 -2.2038  0.7975 -1.1787
  860SOL     OW 2578   1.708   0.458   0.400 -0.2496 -0.1210 -0.2861
  860SOL    HW1 2579   1.743   0.554   0.390  1.5443 -1.3158 -0.4041
  860SOL    HW2 2580   1.694   0.406   0.311 -1.0092 -1.2506 -1.0967
  861SOL     OW 2581   2.605   0.487   0.798 -0.0368  0.1638  0.0358
  861SOL    HW1 2582   2.597   0.480   0.699 -1.1686  0.7858  1.5532
  861SOL    HW2 2583   2.627   0.395   0.843  2.2876 -1.7771 -0.3424
  862SOL     OW 2584   1.149   2.996   2.372 -0.0830  0.1249  0.5644
  862SOL    HW1 2585   1.166   2.991   2.472  0.1617  2.0013 -2.5577
  862SOL    HW2 2586   1.237   2.983   2.320  2.1692 -0.5400 -0.9347
  863SOL     OW 2587   0.534   0.862   1.096  0.0157  0.5316  0.1553
  863SOL    HW1 2588   0.528   0.796   1.178 -1.8388  0.1496 -1.1372
  863SOL    HW2 2589   0.500   0.955   1.119  3.1332 -0.7337 -0.8280
  864SOL     OW 2590   2.877   3.007   1.829 -0.1413 -0.4256  0.6883
  864SOL    HW1 2591   2.897   3.060   1.744 -1.1129  0.2337 -2.7878
  864SOL    HW2 2592   2.795   2.944   1.824 -1.0085  0.1183  0.9733
  865SOL     OW 2593   0.876   1.229   2.936 -0.3056 -0.9356 -0.1955
  865SOL    HW1 2594   0.923   1.217   3.027  1.8203 -1.5155 -1.7639
  865SOL    HW2 2595   0.800   1.297   2.946  1.2916  0.2210 -0.1264
  866SOL     OW 2596   3.066   0.104   0.004  0.4817 -0.2463 -0.3810
  866SOL    HW1 2597   3.067   0.179   0.078  1.6206  3.3065  2.8396
  866SOL    HW2 2598   0.043   0.035   0.035  0.6412  0.9136 -0.7639
  867SOL     OW 2599   2.951   3.028   2.672  0.3113  0.2946  0.1194
  867SOL    HW1 2600   3.034   3.066   2.632 -0.1059  1.6175 -2.2598
  867SOL    HW2 2601   2.935   2.932   2.638 -0.7417 -2.9030 -1.0135
  868SOL     OW 2602   1.225   1.046   0.094  0.5738 -0.0211 -0.2448
  868SOL    HW1 2603   1.168   1.013   0.023  1.3853  2.6494  1.8754
  868SOL    HW2 2604   1.303   0.980   0.107 -1.9213 -2.5774  3.3448
  869SOL     OW 2605   0.053   1.398   0.424  0.4302 -0.1151 -0.2008
  869SOL    HW1 2606   0.008   1.417   0.515  2.4281  1.6512  0.0293
  869SOL    HW2 2607   0.104   1.309   0.438 -0.1179  1.6906 -1.1319
  870SOL     OW 2608   2.463   1.684   0.625 -0.1484 -0.5693 -0.0805
  870SOL    HW1 2609   2.535   1.691   0.549  0.4713 -0.8623 -1.4692
  870SOL    HW2 2610   2.401   1.609   0.622  2.7255  6.2901  0.7088
  871SOL     OW 2611   1.043   1.317   0.880 -1.0708  0.3980  0.0371
  871SOL    HW1 2612   1.057   1.249   0.809  0.0221  1.8484  0.4515
  871SOL    HW2 2613   0.969   1.292   0.944  2.4945  1.1219  0.3146
  872SOL     OW 2614   1.161   1.689   1.998  0.1265  0.3735  0.1066
  872SOL    HW1 2615   1.257   1.689   1.964 -1.4050  1.5777  1.4292
  872SOL    HW2 2616   1.148   1.760   2.072 -1.0041 -0.2924 -1.9671
  873SOL     OW 2617   0.816   1.705   2.331  0.2997 -0.9460  0.3813
  873SOL    HW1 2618   0.777   1.766   2.401  0.3912 -0.3312  0.1858
  873SOL    HW2 2619   0.808   1.739   2.234  3.7600 -1.6173  0.8831
  874SOL     OW 2620   0.973   2.231   0.805  0.0172  0.1668  0.0065
  874SOL    HW1 2621   1.072   2.209   0.824 -0.8908  0.7536  0.1228
  874SOL    HW2 2622   0.916   2.159   0.849  1.0970  0.0176 -0.5530
  875SOL     OW 2623   2.548   0.214   0.938 -0.2073 -0.5979  0.2701
  875SOL    HW1 2624   2.469   0.202   0.875  0.1787 -2.5732  1.2026
  875SOL    HW2 2625   2.539   0.149   1.018 -2.4648 -1.1992  1.6814
  876SOL     OW 2626   0.909   0.596   0.265 -0.2764 -0.1303  0.6296
  876SOL    HW1 2627   0.873   0.581   0.363 -0.5294 -0.9361  1.1268
  876SOL    HW2 2628   1.006   0.624   0.261 -0.6608 -1.9100  0.6612
  877SOL     OW 2629   2.785   0.630   1.279 -0.2161 -0.1498 -0.4491
  877SOL    HW1 2630   2.728   0.615   1.197  2.0260 -1.4894 -0.5803
  877SOL    HW2 2631   2.849   0.707   1.274 -1.4102 -4.1950  0.4759
  878SOL     OW 2632   2.154   2.240   0.800 -0.1502 -0.4100  0.7421
  878SOL    HW1 2633   2.206   2.228   0.711  0.0902  3.6682  1.6473
  878SOL    HW2 2634   2.202   2.298   0.868 -0.7033  3.2864 -0.9007
  879SOL     OW 2635   2.705   1.691   1.468 -0.3191 -0.1442 -0.0046
  879SOL    HW1 2636   2.609   1.722   1.451  0.2191  0.1292 -1.1782
  879SOL    HW2 2637   2.701   1.630   1.548 -2.0989  0.9365 -1.9642
  880SOL     OW 2638   1.397   2.592   1.128  0.3298  0.1835 -0.6605
  880SOL    HW1 2639   1.455   2.670   1.151  1.2118 -1.3334 -4.2041
  880SOL    HW2 2640   1.383   2.589   1.030  1.3993 -0.6966  0.5617
  881SOL     OW 2641   0.789   2.315   0.125  0.2685 -0.2079 -0.2089
  881SOL    HW1 2642   0.763   2.228   0.166 -1.4572  0.6114  0.7935
  881SOL    HW2 2643   0.880   2.309   0.090 -2.4490 -0.5723  1.2755
  882SOL     OW 2644   1.770   1.224   1.620 -0.9523 -0.1636 -0.1316
  882SOL    HW1 2645   1.680   1.237   1.652  2.1551 -0.4857 -0.7156
  882SOL    HW2 2646   1.768   1.194   1.524 -0.4391  0.6328  2.2316
  883SOL     OW 2647   1.021   2.992   2.130 -0.0401  0.0320 -0.5089
  883SOL    HW1 2648   1.069   2.985   2.222  2.6498  0.8103 -0.3378
  883SOL    HW2 2649   0.944   2.929   2.123 -0.7292  3.2453  2.7934
  884SOL     OW 2650   2.952   0.740   0.089  0.6786 -0.5399  0.2438
  884SOL    HW1 2651   3.039   0.746   0.153  0.4839  2.1000 -1.3427
  884SOL    HW2 2652   2.957   0.815   0.023 -0.9071 -0.8562 -2.9152
  885SOL     OW 2653   1.087   1.195   2.734  0.1883  0.0161 -0.5407
  885SOL    HW1 2654   1.172   1.239   2.775  0.2682  0.8246 -2.0347
  885SOL    HW2 2655   1.007   1.205   2.793 -0.1563  0.2667 -0.3853
  886SOL     OW 2656   1.586   1.334   2.758  0.2462  0.0166  0.3887
  886SOL    HW1 2657   1.583   1.257   2.691  0.0036  1.2504  0.4083
  886SOL    HW2 2658   1.685   1.358   2.776  0.5726 -1.1737 -0.5982
  887SOL     OW 2659   1.022   0.550   1.858 -0.3011 -0.0820  0.0367
  887SOL    HW1 2660   1.024   0.448   1.869  0.4249  0.7370  2.8633
  887SOL    HW2 2661   1.118   0.584   1.862  0.8260 -0.8249  1.4656
  888SOL     OW 2662   2.626   0.611   1.843 -0.4634  0.0900  0.1066
  888SOL    HW1 2663   2.573   0.682   1.886 -3.6929 -1.8359 -0.6899
  888SOL    HW2 2664   2.641   0.626   1.741  0.4107  0.4680  0.3526
  889SOL     OW 2665   0.105   2.916   0.524  0.5600 -0.0684 -0.6627
  889SOL    HW1 2666   0.144   2.823   0.558  0.1702 -3.2563  1.4378
  889SOL    HW2 2667   0.179   2.982   0.504  1.9727 -1.7717  0.3748
  890SOL     OW 2668   2.846   2.180   0.321 -0.0807 -0.0491 -0.1731
  890SOL    HW1 2669   2.763   2.176   0.381  0.0057  1.1952  1.2585
  890SOL    HW2 2670   2.923   2.185   0.384 -0.0875 -0.5191 -0.2148
  891SOL     OW 2671   1.090   1.726   3.010  0.4238 -0.3226 -0.2185
  891SOL    HW1 2672   1.044   1.802   2.966 -0.1068  1.4611 -0.4739
  891SOL    HW2 2673   1.108   1.650   2.947 -0.9538  2.4664  0.4250
  892SOL     OW 2674   2.908   0.023   0.899 -0.0289  0.1230 -0.2779
  892SOL    HW1 2675   2.819   3.068   0.879 -0.0612  1.0105  1.9737
  892SOL    HW2 2676   2.966   3.051   0.954 -0.5154 -1.2935  1.2409
  893SOL     OW 2677   0.979   2.983   1.390 -0.6904 -0.0258  0.0525
  893SOL    HW1 2678   0.986   2.986   1.497  1.6580  1.1793  0.1481
  893SOL    HW2 2679   0.922   3.068   1.360 -3.2245  3.2931 -2.5921
  894SOL     OW 2680   2.890   0.893   0.609  0.5127  0.0401  0.5720
  894SOL    HW1 2681   2.852   0.833   0.679  3.0561  2.5966 -0.8103
  894SOL    HW2 2682   2.983   0.924   0.637  2.8636 -0.1345  3.9152
  895SOL     OW 2683   2.371   2.702   1.919 -0.1831  0.3279  0.2407
  895SOL    HW1 2684   2.273   2.676   1.895  1.0803 -0.4156 -1.7874
  895SOL    HW2 2685   2.367   2.804   1.946 -1.6352 -1.1668  2.3606
  896SOL     OW 2686   1.079   0.155   1.658  0.2990  0.6662  0.2117
  896SOL    HW1 2687   1.045   0.058   1.649 -1.2658  1.1801  0.0384
  896SOL    HW2 2688   1.077   0.202   1.744  1.9460  0.8268  0.4317
  897SOL     OW 2689   1.027   1.606   1.759 -0.0426  0.7541  0.1029
  897SOL    HW1 2690   1.038   1.694   1.701 -0.9643 -0.9317  0.4209
  897SOL    HW2 2691   1.075   1.627   1.845  0.7604  0.9889  0.0371
  898SOL     OW 2692   1.755   2.380   1.764  0.2646 -0.7978  0.3842
  898SOL    HW1 2693   1.815   2.384   1.684  0.8925  0.8086  1.8559
  898SOL    HW2 2694   1.814   2.371   1.843  1.5113  1.5319 -0.1177
  899SOL     OW 2695   1.124   0.486   0.969 -0.4599 -0.4782  0.2605
  899SOL    HW1 2696   1.123   0.468   1.070  0.8222 -1.4539  3.0721
  899SOL    HW2 2697   1.091   0.583   0.952 -0.3850  0.3356  0.1119
  900SOL     OW 2698   1.837   2.552   2.598  0.0443  0.0960 -0.1980
  900SOL    HW1 2699   1.737   2.523   2.621 -2.1784 -1.2916 -0.0834
  900SOL    HW2 2700   1.895   2.471   2.582 -0.2762  1.4199 -1.5204
  901SOL     OW 2701   0.823   2.110   2.498  0.0696 -0.2858 -0.1350
  901SOL    HW1 2702   0.925   2.093   2.500 -2.3791  1.8494  0.9864
  901SOL    HW2 2703   0.797   2.176   2.569  0.3153 -0.3998  0.4935
  902SOL     OW 2704   2.338   1.029   0.595 -0.5720  0.0318 -0.6269
  902SOL    HW1 2705   2.378   1.120   0.589 -0.8169 -1.1751  2.6303
  902SOL    HW2 2706   2.235   1.036   0.615 -1.5797 -1.8380 -1.3178
  903SOL     OW 2707   1.964   0.890   0.430 -0.5289  0.4692 -0.4794
  903SOL    HW1 2708   1.986   0.936   0.344  0.9395  2.1793  3.0791
  903SOL    HW2 2709   1.957   0.962   0.501  2.4891 -1.7555  1.9478
  904SOL     OW 2710   0.754   0.744   2.925  0.3671  0.3213  0.5778
  904SOL    HW1 2711   0.825   0.808   2.900  0.9365 -2.1237 -0.3815
  904SOL    HW2 2712   0.671   0.767   2.873 -0.3344  0.3358  2.3486
  905SOL     OW 2713   2.036   0.212   0.916 -0.2288 -0.3940  0.3790
  905SOL    HW1 2714   1.968   0.136   0.941 -1.2366  0.1337 -0.2724
  905SOL    HW2 2715   2.038   0.225   0.813 -0.3625  1.8674  0.0009
  906SOL     OW 2716   2.798   2.176   1.399 -0.2295 -0.4454  0.1603
  906SOL    HW1 2717   2.850   2.152   1.484 -1.8328 -2.6187  1.3388
  906SOL    HW2 2718   2.784   2.276   1.387  0.2654 -1.7573 -0.1178
  907SOL     OW 2719   1.159   0.668   0.244  0.2564 -0.3594 -0.4435
  907SOL    HW1 2720   1.246   0.630   0.277  0.6141  0.2909 -1.3885
  907SOL    HW2 2721   1.171   0.686   0.145  2.4840 -2.3542  2.1110
  908SOL     OW 2722   2.004   2.927   1.279  0.1081  0.1352 -0.4747
  908SOL    HW1 2723   2.105   2.938   1.296  0.6885  1.0810 -0.1195
  908SOL    HW2 2724   1.956   3.021   1.268  1.3900  0.1995 -1.4685
  909SOL     OW 2725   2.381   0.910   1.323 -0.0909  0.1978 -0.0952
  909SOL    HW1 2726   2.369   0.917   1.424  2.1241  0.2123 -0.1467
  909SOL    HW2 2727   2.359   1.000   1.287 -0.1403  1.3311  1.1603
  910SOL     OW 2728   1.306   2.583   1.955 -0.6413 -0.3612 -0.1474
  910SOL    HW1 2729   1.273   2.589   2.050 -1.7327  0.0368  1.6513
  910SOL    HW2 2730   1.405   2.556   1.950  0.8787  3.1522 -0.4897
  911SOL     OW 2731   2.711   0.293   2.346 -0.3588  0.7428 -0.1272
  911SOL    HW1 2732   2.612   0.271   2.343  1.4292  1.7890  1.4401
  911SOL    HW2 2733   2.751   0.279   2.255 -2.4936  0.3256  0.6392
  912SOL     OW 2734   3.021   1.344   1.457  0.1044  0.4389 -0.8099
  912SOL    HW1 2735   3.006   1.447   1.470 -1.7243 -0.1652  0.5504
  912SOL    HW2 2736   0.012   1.314   1.499  1.3152 -1.1749 -1.1959
  913SOL     OW 2737   2.909   2.047   1.620 -0.2670 -0.1652  0.6273
  913SOL    HW1 2738   2.935   1.947   1.620 -0.0599  1.8996 -0.8947
  913SOL    HW2 2739   2.984   2.104   1.661  0.2737  0.7633  1.8758
  914SOL     OW 2740   2.006   1.116   1.349 -0.0516 -0.7322  0.0226
  914SOL    HW1 2741   2.006   1.040   1.413 -1.1258  0.3366  1.0513
  914SOL    HW2 2742   2.066   1.189   1.384 -0.0154 -3.0687  1.2635
  915SOL     OW 2743   1.167   0.512   1.606  0.2377  0.0285  0.0754
  915SOL    HW1 2744   1.210   0.439   1.658  1.3064 -1.4591 -2.1744
  915SOL    HW2 2745   1.071   0.523   1.635 -1.5847  0.6966 -0.5848
  916SOL     OW 2746   2.709   2.433   1.416 -0.1450  0.4675 -0.4541
  916SOL    HW1 2747   2.639   2.478   1.350  0.1081 -0.2117 -0.3313
  916SOL    HW2 2748   2.684   2.410   1.512 -0.7571 -0.4393 -2.5109
  917SOL     OW 2749   2.288   2.166   0.291  0.5365  0.0152  0.2974
  917SOL    HW1 2750   2.246   2.128   0.206 -1.0901 -1.4899 -0.9404
  917SOL    HW2 2751   2.361   2.231   0.265  0.3355  0.6171 -2.1624
  918SOL     OW 2752   2.000   2.745   2.730 -0.4495  0.1973  0.3882
  918SOL    HW1 2753   2.002   2.814   2.651 -0.7377 -0.3439 -0.4704
  918SOL    HW2 2754   1.947   2.664   2.695 -0.6920  1.0909 -0.7170
  919SOL     OW 2755   1.186   2.194   1.346  0.2623 -0.3170 -0.1015
  919SOL    HW1 2756   1.216   2.188   1.447  4.2771  0.4676  3.7696
  919SOL    HW2 2757   1.100   2.141   1.325  1.6693  0.3343  1.6327
  920SOL     OW 2758   0.169   0.393   2.302 -0.2933  0.2450  0.4203
  920SOL    HW1 2759   0.142   0.296   2.314 -1.0291  4.6675  0.4235
  920SOL    HW2 2760   0.101   0.443   2.248  0.4608  0.6225  0.0823
  921SOL     OW 2761   2.996   0.782   1.824 -0.0800 -0.1558  0.0019
  921SOL    HW1 2762   2.941   0.729   1.890 -0.7711 -0.7285 -0.8223
  921SOL    HW2 2763   3.046   0.711   1.773 -1.4089  0.9843  1.1303
  922SOL     OW 2764   2.220   2.133   0.543  0.3280 -0.1058  0.5281
  922SOL    HW1 2765   2.116   2.123   0.540 -0.9292 -1.4673 -3.3243
  922SOL    HW2 2766   2.261   2.139   0.447 -0.1929 -0.1623  0.3651
  923SOL     OW 2767   0.957   1.904   2.858  0.4286  0.1383  0.2705
  923SOL    HW1 2768   0.895   1.836   2.816  2.3265  1.4809  2.7172
  923SOL    HW2 2769   0.905   1.990   2.868 -1.6414  0.2589  0.8903
  924SOL     OW 2770   0.951   0.212   0.449  0.2959  0.1981 -0.4116
  924SOL    HW1 2771   0.903   0.132   0.405 -2.8183 -0.3156  0.0012
  924SOL    HW2 2772   1.044   0.228   0.409  0.2218  0.3575  1.6920
  925SOL     OW 2773   2.410   0.445   0.463  0.1042 -0.2664 -0.0785
  925SOL    HW1 2774   2.365   0.522   0.511  1.4463 -0.4742  0.8342
  925SOL    HW2 2775   2.512   0.451   0.483  1.5784  1.2837 -0.5401
  926SOL     OW 2776   0.173   0.846   1.018  0.1113  0.4419  0.5967
  926SOL    HW1 2777   0.215   0.922   1.068 -1.3658 -1.3705  0.9322
  926SOL    HW2 2778   0.160   0.771   1.083 -0.9179  2.2378 -1.2780
  927SOL     OW 2779   3.066   1.252   2.796  0.1570 -0.0454 -0.1274
  927SOL    HW1 2780   0.019   1.329   2.740  1.4706  2.2390 -0.3520
  927SOL    HW2 2781   2.966   1.266   2.786  0.3815 -0.8734  1.3070
  928SOL     OW 2782   2.673   0.683   2.580  0.5792 -0.0004  0.2262
  928SOL    HW1 2783   2.597   0.618   2.591 -2.6030  1.2616 -0.0898
  928SOL    HW2 2784   2.710   0.723   2.670  3.3762 -1.5385  2.5613
  929SOL     OW 2785   2.686   0.101   1.214  0.3233  0.3450  0.0224
  929SOL    HW1 2786   2.597   0.146   1.229  0.8577 -1.2205 -0.2012
  929SOL    HW2 2787   2.672   0.009   1.169 -2.1781 -2.2089 -0.0231
  930SOL     OW 2788   2.020   1.370   1.604 -0.6501  0.3268  0.2491
  930SOL    HW1 2789   1.932   1.321   1.601  2.2662 -1.0326  0.4560
  930SOL    HW2 2790   2.024   1.437   1.525 -2.1011  0.2422  0.4452
  931SOL     OW 2791   1.597   1.354   0.657  0.1716 -0.3198 -0.2047
  931SOL    HW1 2792   1.663   1.292   0.608  0.2847 -2.6903 -0.3922
  931SOL    HW2 2793   1.629   1.450   0.653 -2.3581  0.6471  1.8228
  932SOL     OW 2794   2.841   1.272   0.822 -0.1079  0.3700 -0.2204
  932SOL    HW1 2795   2.783   1.351   0.850 -0.1889  1.3487  1.3616
  932SOL    HW2 2796   2.796   1.185   0.843 -0.3182 -2.1878  1.7469
  933SOL     OW 2797   2.359   1.921   1.282 -0.1010  0.1323  0.3428
  933SOL    HW1 2798   2.333   1.837   1.221 -0.3149  1.3309  0.8009
  933SOL    HW2 2799   2.460   1.947   1.276  1.3352 -2.2511  2.4685
  934SOL     OW 2800   1.827   0.184   2.311  0.1797  0.3480  0.1516
  934SOL    HW1 2801   1.835   0.264   2.370  0.5143  0.2381 -0.6222
  934SOL    HW2 2802   1.843   0.203   2.213 -0.2639 -3.7455 -0.1136
  935SOL     OW 2803   0.253   1.514   0.716  0.0593 -0.4468  0.5564
  935SOL    HW1 2804   0.182   1.477   0.651 -1.0296  3.5505 -1.6683
  935SOL    HW2 2805   0.258   1.619   0.711 -0.2113 -1.1942 -0.2766
  936SOL     OW 2806   0.471   0.810   0.420  0.6843  0.6091  0.2633
  936SOL    HW1 2807   0.475   0.783   0.323 -0.8517 -1.4442 -0.3457
  936SOL    HW2 2808   0.468   0.910   0.429  1.2520 -1.7999 -0.3462
  937SOL     OW 2809   2.307   2.997   1.097 -0.9570 -0.8506 -0.1604
  937SOL    HW1 2810   2.237   2.938   1.052  0.1783  0.9057 -1.2653
  937SOL    HW2 2811   2.311   2.972   1.196  0.4669 -0.4062  0.8525
  938SOL     OW 2812   2.597   2.180   0.436  0.1096 -0.3997 -0.5146
  938SOL    HW1 2813   2.557   2.092   0.399  0.0595  0.2470  0.0416
  938SOL    HW2 2814   2.572   2.260   0.377  2.1012  0.9204  2.5017
  939SOL     OW 2815   0.964   1.870   0.194  0.2314 -0.6033 -0.3441
  939SOL    HW1 2816   0.891   1.801   0.174  0.0983 -0.1323  0.0454
  939SOL    HW2 2817   1.015   1.850   0.282 -0.4569  1.4724 -0.5744
  940SOL     OW 2818   2.901   0.313   2.730 -0.0194  0.1782  0.4639
  940SOL    HW1 2819   2.923   0.319   2.630 -0.6846 -0.4906 -0.5852
  940SOL    HW2 2820   2.805   0.327   2.750  1.9722 -1.0839 -1.0083
  941SOL     OW 2821   1.332   0.112   2.853 -0.1652 -0.0757 -0.1017
  941SOL    HW1 2822   1.336   0.030   2.912  0.8248 -0.4730 -1.4249
  941SOL    HW2 2823   1.239   0.154   2.859 -2.0139  1.0272  0.3338
  942SOL     OW 2824   1.121   0.827   1.387 -0.0863  0.4906  0.1625
  942SOL    HW1 2825   1.130   0.791   1.291  1.0346  2.2955 -1.4172
  942SOL    HW2 2826   1.026   0.834   1.417  1.9204 -1.4416 -1.8399
  943SOL     OW 2827   1.358   1.151   1.772 -0.3152 -0.3403 -0.2821
  943SOL    HW1 2828   1.409   1.065   1.747 -0.6451  2.6404  1.4780
  943SOL    HW2 2829   1.258   1.135   1.756  1.0773  0.3532 -1.1739
  944SOL     OW 2830   1.411   0.935   2.030  0.2860 -0.0049 -0.1118
  944SOL    HW1 2831   1.336   1.005   2.035 -1.1222  0.4546  3.1688
  944SOL    HW2 2832   1.497   0.968   1.988 -0.3997  0.7487  0.4006
  945SOL     OW 2833   2.853   3.056   0.341  0.1995  0.2181 -0.1943
  945SOL    HW1 2834   2.838   3.029   0.246 -0.6166  0.9624  1.7079
  945SOL    HW2 2835   2.784   0.031   0.371  1.2022 -0.3577  2.4699
  946SOL     OW 2836   2.855   0.573   1.979  0.0685 -0.1536  0.2191
  946SOL    HW1 2837   2.819   0.604   2.069 -0.9325  0.1083 -0.1150
  946SOL    HW2 2838   2.779   0.571   1.912 -1.1303 -2.0821 -0.8655
  947SOL     OW 2839   0.497   2.897   0.369 -0.4999 -0.2290 -0.3279
  947SOL    HW1 2840   0.511   2.868   0.470 -0.2359 -2.3880  1.0351
  947SOL    HW2 2841   0.504   2.809   0.321 -3.1701  0.6548  0.8671
  948SOL     OW 2842   2.170   1.161   1.711 -0.6212  0.1038 -0.2779
  948SOL    HW1 2843   2.102   1.086   1.725  1.5748  1.3193  0.9674
  948SOL    HW2 2844   2.120   1.240   1.675  1.8423 -1.0180 -2.3671
  949SOL     OW 2845   0.556   0.853   2.761 -0.2421  0.2300  0.0169
  949SOL    HW1 2846   0.570   0.905   2.674 -1.3582  0.3497 -0.9089
  949SOL    HW2 2847   0.499   0.768   2.743 -1.7150 -1.2319 -2.8383
  950SOL     OW 2848   0.634   0.389   0.999  0.2159  0.3560 -0.5155
  950SOL    HW1 2849   0.559   0.385   0.927 -0.1748 -1.2087  0.8368
  950SOL    HW2 2850   0.720   0.433   0.972 -1.3335  0.8447 -2.4767
  951SOL     OW 2851   0.829   1.446   2.415 -0.0800 -0.0297 -0.2752
  951SOL    HW1 2852   0.834   1.544   2.375  0.7738  0.1506  1.5052
  951SOL    HW2 2853   0.893   1.387   2.363 -1.1738 -1.9932 -0.5104
  952SOL     OW 2854   0.880   1.569   0.048  0.2980 -0.6163 -0.0866
  952SOL    HW1 2855   0.948   1.635   0.007  0.9927  2.9194 -1.5917
  952SOL    HW2 2856   0.816   1.621   0.112 -1.2658  2.7269  3.0970
  953SOL     OW 2857   2.415   3.075   2.408 -0.6069  0.0308  0.5824
  953SOL    HW1 2858   2.419   0.072   2.364 -2.4060 -2.2446  1.6531
  953SOL    HW2 2859   2.506   3.029   2.405  0.6819 -2.5367 -1.7451
  954SOL     OW 2860   1.509   1.244   0.922  0.2743 -0.0777 -0.4040
  954SOL    HW1 2861   1.555   1.239   0.835 -0.2027  2.0090  3.9433
  954SOL    HW2 2862   1.467   1.332   0.947  1.3830  0.0872 -2.3406
  955SOL     OW 2863   0.214   2.071   2.399  0.2383  0.2713 -0.2574
  955SOL    HW1 2864   0.234   2.126   2.481  1.4222  1.1895 -0.8819
  955SOL    HW2 2865   0.303   2.064   2.343  0.3625 -1.5901 -4.1581
  956SOL     OW 2866   1.637   0.503   2.023 -0.6295  0.1341 -0.6742
  956SOL    HW1 2867   1.578   0.571   2.069  2.4973  1.2865  0.9508
  956SOL    HW2 2868   1.728   0.511   2.067 -0.6752 -0.0695  4.8503
  957SOL     OW 2869   1.838   2.028   2.851 -0.2346 -0.6157  0.0752
  957SOL    HW1 2870   1.830   1.925   2.850 -0.1024 -1.0629 -1.0927
  957SOL    HW2 2871   1.806   2.061   2.941  0.8636 -2.2598 -5.8869
  958SOL     OW 2872   0.819   2.121   1.630 -0.0100  0.2197 -0.2386
  958SOL    HW1 2873   0.885   2.197   1.638 -1.7432  0.8074  1.4086
  958SOL    HW2 2874   0.791   2.102   1.533 -0.1208  2.0134  2.3589
  959SOL     OW 2875   2.077   2.443   2.905 -0.0219 -0.2599  0.1041
  959SOL    HW1 2876   2.071   2.410   2.808  0.2732 -0.3310  0.0401
  959SOL    HW2 2877   2.171   2.456   2.942  0.4536  2.2639 -1.6214
  960SOL     OW 2878   2.918   0.641   2.471  0.1278  0.0505 -0.0240
  960SOL    HW1 2879   2.989   0.690   2.527  2.1441  0.8431  1.2724
  960SOL    HW2 2880   2.824   0.652   2.513  1.3518  1.3564 -0.5048
  961SOL     OW 2881   0.902   0.823   2.571 -0.0219  0.1828  0.1437
  961SOL    HW1 2882   0.824   0.762   2.554  2.8455  3.3333 -1.1155
  961SOL    HW2 2883   0.985   0.790   2.523 -2.7173  0.8590 -0.7596
  962SOL     OW 2884   0.634   1.272   2.677 -0.2510  0.5417  0.4521
  962SOL    HW1 2885   0.626   1.220   2.767 -1.6610  0.9870  1.0219
  962SOL    HW2 2886   0.662   1.203   2.604  0.5389 -1.3898  0.5217
  963SOL     OW 2887   2.471   2.403   0.297  0.6414 -0.0584  0.2723
  963SOL    HW1 2888   2.526   2.451   0.224 -1.3679 -0.0117 -1.3074
  963SOL    HW2 2889   2.442   2.471   0.371 -3.9558  0.7133  1.0219
  964SOL     OW 2890   0.982   2.507   1.216 -0.2488 -0.2880 -0.2889
  964SOL    HW1 2891   0.993   2.472   1.314 -0.6256 -0.9875  3.1211
  964SOL    HW2 2892   0.992   2.611   1.214  0.3366 -1.0946 -1.0259
  965SOL     OW 2893   1.350   1.432   0.670  0.1679  0.6940  0.5787
  965SOL    HW1 2894   1.451   1.404   0.677 -0.1438  0.8408  1.7403
  965SOL    HW2 2895   1.333   1.529   0.706  1.3035 -0.8185  0.6255
  966SOL     OW 2896   0.311   1.533   0.249  0.5866  0.1247 -0.1656
  966SOL    HW1 2897   0.240   1.479   0.304  1.2874 -1.8075 -0.9391
  966SOL    HW2 2898   0.266   1.597   0.182 -0.4309  1.3356  1.1273
  967SOL     OW 2899   1.890   0.239   2.034 -0.1205 -0.4532  0.8463
  967SOL    HW1 2900   1.958   0.315   2.022 -0.2691  0.9372  2.2553
  967SOL    HW2 2901   1.814   0.257   1.969  1.7573 -0.6862 -0.4068
  968SOL     OW 2902   1.699   0.982   0.684  0.4047  0.1324 -0.5510
  968SOL    HW1 2903   1.782   0.990   0.629  0.6507  3.6760  0.3759
  968SOL    HW2 2904   1.633   0.915   0.647 -0.1281 -0.2766  1.9209
  969SOL     OW 2905   0.287   1.326   2.437  0.3134  0.0225 -0.0879
  969SOL    HW1 2906   0.270   1.310   2.341  1.1703  0.3246  0.5908
  969SOL    HW2 2907   0.376   1.373   2.442  2.2914  1.6140 -1.2814
  970SOL     OW 2908   2.189   1.425   1.111  0.2605 -0.3907 -0.5606
  970SOL    HW1 2909   2.127   1.343   1.093 -1.2540 -4.1613 -0.9150
  970SOL    HW2 2910   2.199   1.477   1.024 -0.2039 -0.6664  0.0318
  971SOL     OW 2911   0.025   0.092   1.145 -0.3698  0.3084 -0.4322
  971SOL    HW1 2912   0.062   0.156   1.079  1.3532 -2.1316  1.6413
  971SOL    HW2 2913   0.032   0.002   1.104 -1.9272  1.7449  0.9566
  972SOL     OW 2914   0.375   0.618   2.721 -0.0292  0.1458 -0.0203
  972SOL    HW1 2915   0.399   0.566   2.808  3.0128 -0.3830  3.1793
  972SOL    HW2 2916   0.343   0.556   2.649  0.6561  0.3201  0.0299
  973SOL     OW 2917   0.153   0.615   0.747 -0.1430  0.1459 -0.1437
  973SOL    HW1 2918   0.088   0.574   0.680  3.5985 -1.3232 -0.1369
  973SOL    HW2 2919   0.249   0.585   0.728  0.3857 -1.3553 -0.9395
  974SOL     OW 2920   2.245   0.572   1.882  0.1624  0.3155  0.7044
  974SOL    HW1 2921   2.272   0.629   1.961  3.8493 -2.6905 -2.1214
  974SOL    HW2 2922   2.168   0.508   1.890  2.0059  2.3555  0.1507
  975SOL     OW 2923   2.696   0.274   0.104  0.0386  0.4652 -0.1308
  975SOL    HW1 2924   2.612   0.328   0.140 -1.8067  0.3586  2.1748
  975SOL    HW2 2925   2.783   0.326   0.113 -0.6983  0.4632 -0.4151
  976SOL     OW 2926   0.382   1.499   1.454 -0.5921  0.3927 -0.5941
  976SOL    HW1 2927   0.310   1.433   1.484 -0.9917 -0.0077 -0.3938
  976SOL    HW2 2928   0.356   1.594   1.469 -0.5216 -2.0269 -0.7293
  977SOL     OW 2929   1.073   2.437   0.052  0.0160  0.3101 -0.4756
  977SOL    HW1 2930   1.106   2.409   0.144 -1.2203 -0.8531  1.1167
  977SOL    HW2 2931   1.061   2.355   3.083  1.2022  2.0451  0.2848
  978SOL     OW 2932   0.376   1.261   2.862  0.3626 -0.0081 -0.2360
  978SOL    HW1 2933   0.360   1.296   2.956 -0.6394  0.5125 -2.3719
  978SOL    HW2 2934   0.458   1.200   2.860  0.6984  0.2007  0.0197
  979SOL     OW 2935   1.882   1.704   1.080 -0.4805 -0.4667 -0.3704
  979SOL    HW1 2936   1.848   1.611   1.105  0.3000  3.9101  0.3374
  979SOL    HW2 2937   1.970   1.726   1.132  0.0820 -2.0020  2.5183
  980SOL     OW 2938   0.380   1.562   1.751  0.3544 -0.2787 -0.5821
  980SOL    HW1 2939   0.328   1.478   1.763 -0.2971  0.0814  1.6229
  980SOL    HW2 2940   0.480   1.546   1.770  0.1013 -2.1689 -0.6001
  981SOL     OW 2941   2.827   1.557   0.322 -0.4557 -0.3452  0.1790
  981SOL    HW1 2942   2.912   1.610   0.343 -1.0823  1.7320  0.0100
  981SOL    HW2 2943   2.833   1.471   0.377 -0.2754  2.6437  0.6513
  982SOL     OW 2944   2.468   2.439   1.926 -0.1699  0.5891  0.5070
  982SOL    HW1 2945   2.446   2.535   1.929 -0.7081 -0.3465 -0.1426
  982SOL    HW2 2946   2.556   2.420   1.974  1.5920  1.4011  1.1111
  983SOL     OW 2947   1.245   0.165   1.202 -0.6784  0.2927  0.1101
  983SOL    HW1 2948   1.237   0.121   1.293 -0.2256  0.2637 -1.4909
  983SOL    HW2 2949   1.227   0.266   1.210  0.8548  2.5059 -0.2838
  984SOL     OW 2950   1.295   2.661   2.859 -0.5213 -0.3486 -0.1225
  984SOL    HW1 2951   1.350   2.715   2.790 -0.9364  4.6685  0.8114
  984SOL    HW2 2952   1.339   2.679   2.947  2.1722 -1.3882 -0.7345
  985SOL     OW 2953   1.903   2.118   1.422 -0.6880 -0.3850  0.1595
  985SOL    HW1 2954   1.888   2.034   1.482 -1.2294 -2.2924  1.3888
  985SOL    HW2 2955   1.872   2.093   1.330  1.1376 -0.8426 -0.9032
  986SOL     OW 2956   2.370   0.024   2.683  0.3099  0.1675  0.2095
  986SOL    HW1 2957   2.381   0.011   2.586 -2.0843 -1.2120  0.8856
  986SOL    HW2 2958   2.440   3.067   2.739  0.2761  0.8841 -2.0032
  987SOL     OW 2959   2.797   1.016   2.139 -0.0980 -0.0584 -0.3743
  987SOL    HW1 2960   2.703   1.034   2.105 -1.4766  0.2749  1.7783
  987SOL    HW2 2961   2.864   1.068   2.095 -4.7914 -0.3986  1.3053
  988SOL     OW 2962   2.469   0.930   2.720 -0.0389 -0.0348 -0.3999
  988SOL    HW1 2963   2.444   0.836   2.755  0.8737  0.7423  0.5011
  988SOL    HW2 2964   2.430   0.929   2.624  2.3490 -0.4576  0.3568
  989SOL     OW 2965   1.998   1.466   1.864 -0.1503  0.1540 -0.5702
  989SOL    HW1 2966   2.033   1.445   1.770  1.9760 -1.2169  2.8767
  989SOL    HW2 2967   2.071   1.491   1.926 -1.0397 -1.6721 -2.0880
  990SOL     OW 2968   0.443   1.075   0.104 -0.3162 -0.4057  0.7016
  990SOL    HW1 2969   0.544   1.075   0.073  0.5757  0.2980  2.7183
  990SOL    HW2 2970   0.381   1.058   0.026  0.0566  0.3412 -0.0841
  991SOL     OW 2971   0.359   1.845   2.840 -0.1840  0.5623 -0.4821
  991SOL    HW1 2972   0.335   1.757   2.884  1.0170  0.7310 -0.2408
  991SOL    HW2 2973   0.369   1.824   2.741 -0.8509  0.2776  0.9665
  992SOL     OW 2974   2.632   2.062   1.967 -0.1288 -0.2354  0.3034
  992SOL    HW1 2975   2.628   2.087   1.870  0.1320 -0.1521 -0.0677
  992SOL    HW2 2976   2.589   1.974   1.976  0.5818  1.3940 -1.7962
  993SOL     OW 2977   0.197   0.063   0.263 -0.3221 -0.6554  0.2673
  993SOL    HW1 2978   0.273   0.066   0.328 -1.4096 -1.2624 -2.6336
  993SOL    HW2 2979   0.111   0.091   0.303  0.4233  3.8164 -2.4337
  994SOL     OW 2980   0.394   1.784   1.397 -0.4332 -0.0097  0.2468
  994SOL    HW1 2981   0.371   1.811   1.495  0.2891  1.8245  2.7780
  994SOL    HW2 2982   0.323   1.809   1.331  0.4364  0.6434  2.7835
  995SOL     OW 2983   2.022   1.697   2.868  0.2938 -0.5544  0.8460
  995SOL    HW1 2984   2.058   1.719   2.775  2.4328  0.0478  0.0458
  995SOL    HW2 2985   1.924   1.716   2.876  1.8404  1.5554  1.5378
  996SOL     OW 2986   1.760   1.595   0.112  0.2652  0.4037 -0.6034
  996SOL    HW1 2987   1.711   1.536   0.177 -1.7976 -0.4558 -0.1795
  996SOL    HW2 2988   1.694   1.615   0.041  0.9352  0.0755  2.4180
  997SOL     OW 2989   1.379   1.401   1.704  0.0352  0.2573 -0.6275
  997SOL    HW1 2990   1.298   1.414   1.638 -1.1674  1.5068 -1.8818
  997SOL    HW2 2991   1.396   1.302   1.717 -1.7826  1.3099 -2.6277
  998SOL     OW 2992   2.603   2.291   1.098 -0.0342  0.3236 -1.1588
  998SOL    HW1 2993   2.615   2.366   1.166  1.5225  2.4497 -2.1882
  998SOL    HW2 2994   2.665   2.301   1.018 -0.2948  1.7992 -0.1899
  999SOL     OW 2995   2.108   2.428   0.328 -0.0580 -0.4730  0.4198
  999SOL    HW1 2996   2.135   2.514   0.283  2.7581  1.2356 -1.0459
  999SOL    HW2 2997   2.176   2.391   0.391 -1.3461 -0.8577 -0.4792
 1000SOL     OW 2998   0.817   2.783   0.048 -0.5529 -0.4118  0.2514
 1000SOL    HW1 2999   0.891   2.730   0.002  4.2838 -2.1718 -0.0855
 1000SOL    HW2 3000   0.807   2.873   3.092  4.1763 -2.1916 -1.3750
   3.09303   3.09303   3.09303
