1000 SPC/Fw water molecules t=  30.00000 step= 30000
 3000
    1SOL     OW    1   1.903   2.779   0.344 -0.2465  0.1284  0.1319
    1SOL    HW1    2   1.990   2.722   0.334  0.8494 -1.3779  1.0168
    1SOL    HW2    3   1.825   2.721   0.365  2.9248  1.3704 -0.2722
    2SOL     OW    4   1.198   0.579   2.045  0.5410 -0.0498  0.2468
    2SOL    HW1    5   1.257   0.649   2.092  1.1333 -0.5376 -0.1552
    2SOL    HW2    6   1.100   0.582   2.080 -1.1142 -1.7702  1.3348
    3SOL     OW    7   0.926   3.012   2.780 -0.6002 -0.0245  0.6145
    3SOL    HW1    8   0.919   2.913   2.768 -0.6557 -0.9747 -0.9104
    3SOL    HW2    9   0.853   3.048   2.838  1.4833 -0.2276  0.1564
    4SOL     OW   10   1.409   1.464   3.100 -0.3789  0.2215  0.3825
    4SOL    HW1   11   1.472   1.514   0.035  3.0938 -0.8721 -1.9215
    4SOL    HW2   12   1.375   1.521   3.026 -1.7172  0.6327 -1.5113
    5SOL     OW   13   0.787   1.249   2.130 -0.5067  0.2206  0.6284
    5SOL    HW1   14   0.813   1.151   2.118  0.0962 -1.6736  2.0949
    5SOL    HW2   15   0.866   1.307   2.107  0.6048  1.8781 -0.4797
    6SOL     OW   16   1.999   0.749   2.531 -0.1955  0.1651  0.4732
    6SOL    HW1   17   2.002   0.674   2.599  1.5769 -0.4655 -2.0982
    6SOL    HW2   18   2.074   0.737   2.465  1.0518  0.2726  2.7616
    7SOL     OW   19   0.421   0.796   1.209 -0.0696 -0.3111  0.0343
    7SOL    HW1   20   0.440   0.782   1.109  0.7392 -0.5255 -1.1769
    7SOL    HW2   21   0.393   0.896   1.224  0.9479  1.6576  0.8859
    8SOL     OW   22   2.058   2.765   1.907  0.1250 -0.0545  0.5509
    8SOL    HW1   23   1.988   2.703   1.946 -1.2172  1.2787 -0.4325
    8SOL    HW2   24   2.012   2.836   1.844  1.2082 -0.2890 -2.4432
    9SOL     OW   25   0.086   2.875   0.581 -0.1370  0.0945 -0.1313
    9SOL    HW1   26   3.119   2.910   0.566 -1.9311  0.1277  1.9786
    9SOL    HW2   27   0.150   2.907   0.507 -0.7897 -1.9223 -1.5338
   10SOL     OW   28   3.124   2.338   2.458 -0.1025 -0.6695 -0.2450
   10SOL    HW1   29   0.089   2.379   2.434 -3.6625  0.8244 -1.1309
   10SOL    HW2   30   3.102   2.262   2.396 -0.9826 -0.5321 -0.5686
   11SOL     OW   31   0.823   1.735   3.103  0.4583  0.6856  0.0976
   11SOL    HW1   32   0.864   1.747   0.069 -0.8157  2.1423 -0.4370
   11SOL    HW2   33   0.837   1.819   3.050 -1.6434 -1.7060  0.4159
   12SOL     OW   34   2.192   2.747   1.226  0.3224  0.5783  0.5307
   12SOL    HW1   35   2.211   2.848   1.221 -0.9019 -0.2851 -0.4532
   12SOL    HW2   36   2.195   2.692   1.135 -0.9342 -3.4218 -0.5736
   13SOL     OW   37   0.334   0.007   2.835 -0.1352  0.7259 -0.0172
   13SOL    HW1   38   0.297   0.043   2.920  2.8448  0.3638 -0.8814
   13SOL    HW2   39   0.405   0.067   2.784  0.2462  1.7574 -2.4606
   14SOL     OW   40   1.458   1.422   1.562 -0.2279  0.2970  0.8816
   14SOL    HW1   41   1.403   1.402   1.640  2.0542 -0.8418 -0.1663
   14SOL    HW2   42   1.404   1.457   1.482 -1.0764 -0.3570 -2.0779
   15SOL     OW   43   0.530   1.526   2.131 -0.2492 -0.6641  0.0738
   15SOL    HW1   44   0.456   1.498   2.067 -0.2695 -0.6334 -0.9343
   15SOL    HW2   45   0.555   1.448   2.187 -3.1016  1.3653 -1.7709
   16SOL     OW   46   1.488   0.754   2.870 -0.2420  0.3412 -0.2409
   16SOL    HW1   47   1.391   0.775   2.890  2.4682 -1.1247 -0.9359
   16SOL    HW2   48   1.548   0.836   2.869 -0.9167  0.7705  2.9366
   17SOL     OW   49   0.002   2.378   1.968  0.1589  0.4723 -0.6696
   17SOL    HW1   50   3.116   2.475   2.003 -2.6018  0.4070  0.9390
   17SOL    HW2   51   0.018   2.370   1.869 -1.1600 -0.3445 -0.3945
   18SOL     OW   52   1.705   1.247   0.541  0.0858 -0.0047 -0.1902
   18SOL    HW1   53   1.743   1.334   0.584  2.6380  1.0048  1.7359
   18SOL    HW2   54   1.645   1.199   0.605  0.6295  0.0115 -0.8110
   19SOL     OW   55   0.306   1.462   1.956 -0.0304  0.7637 -0.2222
   19SOL    HW1   56   0.349   1.380   1.920 -2.2228  1.3774  1.7428
   19SOL    HW2   57   0.307   1.530   1.882  1.7916 -3.7269  0.0421
   20SOL     OW   58   2.185   2.263   2.848 -0.0738 -0.1236 -0.3032
   20SOL    HW1   59   2.157   2.353   2.799  0.4026  2.9001  1.4789
   20SOL    HW2   60   2.268   2.278   2.902 -1.2356 -0.6919 -1.8731
   21SOL     OW   61   1.872   1.984   0.722 -0.5662  0.5557  0.1710
   21SOL    HW1   62   1.894   2.077   0.681 -3.7375  1.2485  1.9787
   21SOL    HW2   63   1.846   1.987   0.823 -0.1399 -2.2727  4.0726
   22SOL     OW   64   2.122   2.109   1.307 -0.2314 -0.0053 -0.2541
   22SOL    HW1   65   2.210   2.117   1.252 -1.3259 -0.0806 -1.1784
   22SOL    HW2   66   2.118   2.192   1.360  1.1851 -1.9255  1.0400
   23SOL     OW   67   0.166   1.104   1.317 -0.3442 -0.0371 -0.4357
   23SOL    HW1   68   0.153   1.202   1.349 -1.7386 -0.0111  2.3477
   23SOL    HW2   69   0.091   1.073   1.256  2.9642  1.9409 -0.4527
   24SOL     OW   70   1.549   1.266   1.970  0.0582 -0.0211 -0.2409
   24SOL    HW1   71   1.576   1.168   1.980 -1.3328  4.4347  1.1666
   24SOL    HW2   72   1.634   1.323   1.963  0.1088  2.0448 -1.6202
   25SOL     OW   73   1.895   0.044   2.202  0.5576  0.1465 -0.2060
   25SOL    HW1   74   1.926   3.090   2.257 -0.9963  0.9149 -1.4727
   25SOL    HW2   75   1.907   0.130   2.254  0.5733 -1.1238  0.9774
   26SOL     OW   76   0.770   3.092   0.826  0.3297 -0.0358  0.2649
   26SOL    HW1   77   0.794   0.057   0.871  1.6690  1.0822  2.2373
   26SOL    HW2   78   0.767   3.107   0.725  0.7698  0.3316 -2.1803
   27SOL     OW   79   1.380   1.237   0.900  0.5403 -0.2377  0.0449
   27SOL    HW1   80   1.380   1.316   0.838 -0.8679 -3.0330 -0.4548
   27SOL    HW2   81   1.402   1.263   0.997 -3.3728  2.7494  2.2902
   28SOL     OW   82   2.344   2.374   1.148 -0.0457  0.0761 -0.3912
   28SOL    HW1   83   2.347   2.371   1.252 -0.1368 -0.3083  2.5644
   28SOL    HW2   84   2.293   2.455   1.110  0.1661 -1.5942  3.2848
   29SOL     OW   85   2.011   2.964   2.360  0.0607  0.2195  0.1329
   29SOL    HW1   86   2.010   2.861   2.340  0.8725  0.2306 -3.6637
   29SOL    HW2   87   2.079   2.990   2.432 -0.4656  1.9349  3.5259
   30SOL     OW   88   3.114   2.891   1.965 -0.1793  0.0328  0.6494
   30SOL    HW1   89   3.031   2.938   1.926 -0.7559  1.6968 -2.2696
   30SOL    HW2   90   0.043   2.963   2.007  0.5163 -1.7677  0.9422
   31SOL     OW   91   3.058   1.639   2.149 -0.0800  0.0922 -0.8762
   31SOL    HW1   92   3.051   1.737   2.172  0.6691 -2.3234  1.1572
   31SOL    HW2   93   3.018   1.625   2.056 -0.2172  3.1104  1.8590
   32SOL     OW   94   1.337   2.482   2.373  0.3537 -0.0149  0.2908
   32SOL    HW1   95   1.386   2.430   2.301 -0.9261  1.8373  0.2498
   32SOL    HW2   96   1.373   2.467   2.462 -2.0999  3.7146 -1.0629
   33SOL     OW   97   0.154   0.167   2.993  0.2912  0.6550 -0.6378
   33SOL    HW1   98   0.126   0.090   3.053  0.8231 -1.3147  0.0218
   33SOL    HW2   99   0.071   0.217   2.973  0.9630 -1.9552  1.0388
   34SOL     OW  100   2.713   0.161   0.403 -0.3193 -0.0830 -0.0024
   34SOL    HW1  101   2.740   0.199   0.496 -1.2467  0.3940 -0.1626
   34SOL    HW2  102   2.773   0.199   0.328  0.8579 -0.9104 -1.7625
   35SOL     OW  103   2.831   2.648   1.721  0.1638 -0.3531  0.1981
   35SOL    HW1  104   2.821   2.620   1.818  0.9673  0.9623  2.0834
   35SOL    HW2  105   2.741   2.693   1.694 -3.7567  3.1247 -0.7961
   36SOL     OW  106   2.447   2.907   2.321  0.6188 -0.1778  0.0425
   36SOL    HW1  107   2.391   2.918   2.407 -2.0849 -0.5515  0.3270
   36SOL    HW2  108   2.452   3.003   2.279 -3.0663  1.4867 -1.8010
   37SOL     OW  109   1.527   3.120   0.059 -0.0295 -0.1744 -0.1933
   37SOL    HW1  110   1.573   3.108   0.149  2.8524  0.3343  0.6844
   37SOL    HW2  111   1.428   3.123   0.059  1.2015  0.7179  0.2431
   38SOL     OW  112   0.328   0.493   0.166 -0.3210 -0.2748  0.2167
   38SOL    HW1  113   0.279   0.519   0.254  0.9064  1.6608  0.3040
   38SOL    HW2  114   0.294   0.559   0.091  1.7166  0.4073 -0.3203
   39SOL     OW  115   0.784   1.854   2.163 -0.3407  0.1285 -0.2201
   39SOL    HW1  116   0.852   1.837   2.237  2.4681 -0.6001 -1.1178
   39SOL    HW2  117   0.703   1.903   2.202  1.9127  1.6717  1.4912
   40SOL     OW  118   0.167   0.593   2.743  0.6793 -0.4320 -0.0215
   40SOL    HW1  119   0.242   0.649   2.700 -2.1327 -3.9076 -2.1891
   40SOL    HW2  120   0.208   0.509   2.790 -0.6158 -0.0463  1.0761
   41SOL     OW  121   1.308   0.875   1.925 -0.5350  0.3586  0.5348
   41SOL    HW1  122   1.376   0.919   1.867 -1.9626 -1.0880 -0.5245
   41SOL    HW2  123   1.353   0.810   1.988  2.6687  2.3193  0.2435
   42SOL     OW  124   2.791   0.322   1.320 -0.9186 -0.3733  0.5866
   42SOL    HW1  125   2.803   0.299   1.418  0.7880 -0.0040 -0.1868
   42SOL    HW2  126   2.700   0.361   1.304  0.0209 -1.1569  3.0687
   43SOL     OW  127   1.542   0.933   1.774  0.1719 -0.4659  0.2480
   43SOL    HW1  128   1.623   0.972   1.727  1.8504 -0.0580  1.5864
   43SOL    HW2  129   1.526   0.835   1.750  0.9344  2.0214 -0.6104
   44SOL     OW  130   3.043   0.300   3.058 -0.1290  0.1129 -0.5126
   44SOL    HW1  131   3.080   0.335   0.019 -0.0745  0.4083 -1.9936
   44SOL    HW2  132   2.973   0.228   3.077  0.2392  0.1541  0.2321
   45SOL     OW  133   0.373   1.888   1.589 -0.0678 -0.0005  0.4364
   45SOL    HW1  134   0.473   1.897   1.600 -2.3617  1.6998  1.4830
   45SOL    HW2  135   0.339   1.967   1.536  0.0563 -2.8976 -2.1225
   46SOL     OW  136   2.285   2.692   1.757 -0.1607 -0.3529  0.0677
   46SOL    HW1  137   2.207   2.708   1.820  0.1230 -1.6930  0.6044
   46SOL    HW2  138   2.317   2.596   1.764  2.0538  1.3851 -0.7196
   47SOL     OW  139   0.192   1.925   1.273  0.0640  0.1866  0.7267
   47SOL    HW1  140   0.220   1.842   1.328  1.0663 -1.7737  0.4289
   47SOL    HW2  141   0.132   1.898   1.195  0.9873  0.1779 -0.0361
   48SOL     OW  142   0.651   2.849   2.759  0.0580  0.5717  0.0826
   48SOL    HW1  143   0.662   2.767   2.699 -1.1252 -4.1859  1.8153
   48SOL    HW2  144   0.702   2.836   2.847 -0.6217  3.5764 -1.6493
   49SOL     OW  145   2.847   1.382   1.860  0.0748  0.5748  0.0946
   49SOL    HW1  146   2.837   1.338   1.769  0.8884 -0.2137 -1.7574
   49SOL    HW2  147   2.793   1.465   1.877 -0.7837 -0.0608  0.8356
   50SOL     OW  148   1.347   2.781   0.635  0.3197 -0.1947 -0.3440
   50SOL    HW1  149   1.332   2.688   0.674 -1.6705  2.3306  2.2525
   50SOL    HW2  150   1.255   2.825   0.607  0.3665  0.2661 -0.0013
   51SOL     OW  151   1.078   0.337   0.929  0.0158  0.0977  0.5553
   51SOL    HW1  152   1.081   0.437   0.940 -1.0101  0.3858 -0.6887
   51SOL    HW2  153   1.172   0.299   0.936 -0.2615  1.8371  0.4274
   52SOL     OW  154   0.790   1.437   0.226  0.4733  0.1712  0.6745
   52SOL    HW1  155   0.821   1.338   0.243  3.1020 -1.5474  0.4772
   52SOL    HW2  156   0.750   1.481   0.312 -0.9246 -0.6418  1.9862
   53SOL     OW  157   1.116   2.798   2.505  0.2944 -0.2240 -0.0651
   53SOL    HW1  158   1.178   2.839   2.570 -1.3350 -0.8798 -1.0195
   53SOL    HW2  159   1.173   2.771   2.424  1.3412  1.3647 -1.7633
   54SOL     OW  160   1.956   0.064   1.934 -0.3155  0.2548 -0.0824
   54SOL    HW1  161   1.923   0.040   2.028  0.0302  2.0896 -3.4093
   54SOL    HW2  162   2.019   0.148   1.926  0.5459 -0.0112  0.5076
   55SOL     OW  163   2.856   2.338   0.292 -0.1275  0.0755 -0.1897
   55SOL    HW1  164   2.916   2.331   0.206 -1.7210 -0.2716  1.3777
   55SOL    HW2  165   2.882   2.420   0.348 -0.6857 -3.3459 -0.6241
   56SOL     OW  166   0.951   2.996   1.603 -0.1827 -0.2471  0.1078
   56SOL    HW1  167   0.893   2.977   1.523 -0.4915  2.7622 -0.4859
   56SOL    HW2  168   0.972   2.907   1.656  0.2048 -1.2079  1.7988
   57SOL     OW  169   1.840   0.985   2.584  0.8246 -0.4854 -0.4814
   57SOL    HW1  170   1.912   0.916   2.557 -0.5098  0.4049 -0.7613
   57SOL    HW2  171   1.805   1.038   2.505 -2.2820  0.5768 -0.1924
   58SOL     OW  172   3.040   0.982   2.199 -0.1382  0.7684 -0.5581
   58SOL    HW1  173   3.121   0.932   2.227  0.9770  2.0213 -0.4448
   58SOL    HW2  174   3.052   1.084   2.214  1.5287  0.8628 -0.3936
   59SOL     OW  175   0.904   2.552   1.555 -0.2471 -0.0862 -0.2909
   59SOL    HW1  176   0.811   2.591   1.549  2.0483  0.9029 -0.8505
   59SOL    HW2  177   0.917   2.498   1.473  0.0564  1.7655  5.0072
   60SOL     OW  178   2.148   2.603   0.273  0.1854  0.0211  0.4498
   60SOL    HW1  179   2.162   2.505   0.270  0.6149  2.1876  0.2212
   60SOL    HW2  180   2.164   2.640   0.181 -0.0750 -2.2173  3.1611
   61SOL     OW  181   1.571   2.499   0.586  0.3619  0.1356 -0.1854
   61SOL    HW1  182   1.631   2.439   0.644  1.2701  1.3148  0.0478
   61SOL    HW2  183   1.486   2.530   0.634 -0.7933  1.8679  1.3031
   62SOL     OW  184   1.745   3.024   3.046 -0.0372  0.3444 -0.1645
   62SOL    HW1  185   1.665   3.067   3.091 -0.0695 -0.8833 -1.3568
   62SOL    HW2  186   1.767   2.942   3.103 -3.1551  0.5211 -0.1870
   63SOL     OW  187   2.401   0.549   0.114  0.1540  0.2016 -0.5015
   63SOL    HW1  188   2.331   0.592   0.175 -2.0763 -3.6288  1.7932
   63SOL    HW2  189   2.417   0.609   0.031 -0.7258  0.4438  1.1837
   64SOL     OW  190   1.348   1.076   2.898 -0.2997  0.3427  0.2163
   64SOL    HW1  191   1.296   1.007   2.950 -2.7108 -2.4713  1.3559
   64SOL    HW2  192   1.288   1.117   2.833  0.7738 -1.3880  0.6144
   65SOL     OW  193   0.549   2.425   1.208  0.3034  0.2043 -0.8797
   65SOL    HW1  194   0.560   2.339   1.159 -1.3476 -1.3426  0.0103
   65SOL    HW2  195   0.602   2.502   1.161  0.5738  4.8239 -2.6497
   66SOL     OW  196   1.044   1.269   1.435 -0.0300 -0.2738  0.3320
   66SOL    HW1  197   1.136   1.238   1.457 -0.8257  1.3974 -1.5997
   66SOL    HW2  198   0.991   1.256   1.521  0.3926 -0.3990 -0.3071
   67SOL     OW  199   2.327   1.924   1.911 -0.3797  0.1614 -0.2303
   67SOL    HW1  200   2.409   1.963   1.862 -2.5492  0.3653 -1.0491
   67SOL    HW2  201   2.279   1.854   1.859 -1.6063  0.8967 -2.3696
   68SOL     OW  202   0.741   1.300   1.862 -0.0862 -0.1196  0.3279
   68SOL    HW1  203   0.758   1.300   1.964 -1.5740  2.6926  0.5826
   68SOL    HW2  204   0.755   1.393   1.825 -2.2336  1.3145  1.3659
   69SOL     OW  205   0.018   2.783   0.024 -0.3589 -0.3057  0.3969
   69SOL    HW1  206   0.118   2.783   0.036  0.8027  1.0395 -0.8396
   69SOL    HW2  207   3.099   2.845   0.093 -1.1481  0.1843 -1.7197
   70SOL     OW  208   2.228   0.739   2.409  0.0087 -0.0802  0.0505
   70SOL    HW1  209   2.304   0.788   2.456 -1.2765  0.4933 -2.2520
   70SOL    HW2  210   2.254   0.728   2.310 -2.7050 -1.0394 -2.1974
   71SOL     OW  211   0.755   1.842   0.811  0.1858 -0.2034 -0.0698
   71SOL    HW1  212   0.809   1.886   0.889  1.9312  2.2978  1.8904
   71SOL    HW2  213   0.721   1.753   0.841  3.0482  1.2174  0.9447
   72SOL     OW  214   2.623   2.116   0.517  0.2928 -0.3508 -0.2164
   72SOL    HW1  215   2.630   2.210   0.476 -0.4144  0.3460  0.5127
   72SOL    HW2  216   2.606   2.122   0.618 -2.0850  0.9429 -1.6792
   73SOL     OW  217   1.431   0.496   0.936  0.3741 -0.0292 -0.0973
   73SOL    HW1  218   1.455   0.503   0.838  1.7145 -1.7045  0.4024
   73SOL    HW2  219   1.487   0.560   0.991 -2.7446  1.1243  2.5988
   74SOL     OW  220   2.578   2.025   1.819  0.7783 -0.2585 -0.4736
   74SOL    HW1  221   2.662   2.058   1.779 -0.3051 -1.0770  1.2440
   74SOL    HW2  222   2.590   2.024   1.919  0.9788 -1.4337 -1.1837
   75SOL     OW  223   1.652   1.666   1.874 -0.3756  0.5972 -0.0197
   75SOL    HW1  224   1.554   1.645   1.887 -0.5346  0.6944  1.2208
   75SOL    HW2  225   1.697   1.573   1.861 -0.1214  0.4486  2.1465
   76SOL     OW  226   1.385   1.891   1.129 -0.2960 -0.0999  0.8453
   76SOL    HW1  227   1.441   1.950   1.190  0.5121  0.0484 -0.0047
   76SOL    HW2  228   1.442   1.854   1.049 -0.3932  1.4997 -0.4259
   77SOL     OW  229   2.841   1.215   2.068 -0.1606  0.1208  0.3567
   77SOL    HW1  230   2.918   1.206   2.135  0.8771  0.9371  1.4137
   77SOL    HW2  231   2.863   1.286   1.995  1.0035 -1.2888 -0.1132
   78SOL     OW  232   1.671   0.787   0.296  0.5757 -0.2994  0.2671
   78SOL    HW1  233   1.655   0.749   0.202 -1.0666  1.3283  1.3310
   78SOL    HW2  234   1.681   0.714   0.366  0.3947  0.7557 -0.6836
   79SOL     OW  235   1.168   1.441   2.260 -0.4495 -0.1750  0.2119
   79SOL    HW1  236   1.241   1.372   2.239 -0.6884  2.4720 -2.0704
   79SOL    HW2  237   1.094   1.431   2.195  3.2332  1.6699  0.3375
   80SOL     OW  238   0.950   0.307   1.609  0.8385  0.0969 -0.3102
   80SOL    HW1  239   0.991   0.389   1.565  0.4891 -1.3829  1.5863
   80SOL    HW2  240   0.979   0.285   1.703 -0.6958 -1.9033 -2.9909
   81SOL     OW  241   0.596   2.546   0.241  0.5090  0.2000  0.0804
   81SOL    HW1  242   0.552   2.540   0.149  1.5878  0.7243 -1.1095
   81SOL    HW2  243   0.599   2.453   0.287  0.0804 -0.8147 -0.1215
   82SOL     OW  244   1.200   0.248   1.769  0.3529 -0.5370 -0.5234
   82SOL    HW1  245   1.201   0.161   1.715  2.1853  2.8429 -0.4503
   82SOL    HW2  246   1.210   0.228   1.863  0.1483  0.4110 -3.9568
   83SOL     OW  247   0.568   2.214   0.992 -0.1446 -0.0754 -0.6567
   83SOL    HW1  248   0.546   2.278   0.913 -0.2819  0.3129 -0.8017
   83SOL    HW2  249   0.488   2.158   1.019 -0.0532 -0.0942  1.2379
   84SOL     OW  250   2.879   1.687   0.558 -0.1295 -0.4818 -0.1042
   84SOL    HW1  251   2.851   1.585   0.573 -1.1339 -4.7517  0.8793
   84SOL    HW2  252   2.979   1.692   0.536  0.8132  0.5713  0.0010
   85SOL     OW  253   2.163   1.861   1.381  0.1927 -0.0055  0.4278
   85SOL    HW1  254   2.140   1.956   1.350  1.3529 -1.6336  0.2843
   85SOL    HW2  255   2.087   1.791   1.370 -1.4298  0.3183  0.7434
   86SOL     OW  256   1.555   2.382   1.730 -0.4447  0.0347 -0.1711
   86SOL    HW1  257   1.491   2.392   1.652  2.8721  0.3980  1.9340
   86SOL    HW2  258   1.549   2.290   1.775 -0.9327 -1.4443  1.8176
   87SOL     OW  259   2.353   1.455   0.436 -0.1979 -0.0568 -0.2844
   87SOL    HW1  260   2.263   1.492   0.470 -0.5368 -1.1517 -0.0315
   87SOL    HW2  261   2.411   1.517   0.377 -0.0820 -0.7565 -0.8609
   88SOL     OW  262   0.459   3.098   0.793  0.3835  0.4066 -0.0801
   88SOL    HW1  263   0.543   3.051   0.762  1.3059 -0.9346 -3.4030
   88SOL    HW2  264   0.469   0.013   0.885  0.1081  1.2112 -0.5691
   89SOL     OW  265   0.712   0.425   1.632  0.0066 -0.2112  0.4047
   89SOL    HW1  266   0.710   0.526   1.644 -0.3597  2.3820  1.1477
   89SOL    HW2  267   0.804   0.391   1.637 -3.3683  1.8768 -0.2620
   90SOL     OW  268   3.088   1.907   0.495  0.3168 -0.3091 -0.4073
   90SOL    HW1  269   0.019   1.935   0.575 -0.3039 -1.4199 -1.8966
   90SOL    HW2  270   3.001   1.965   0.495 -1.3636 -1.3929 -1.3458
   91SOL     OW  271   1.064   1.654   0.903 -0.0843  0.0699 -0.6736
   91SOL    HW1  272   1.011   1.737   0.921  2.0831 -0.8466 -1.2009
   91SOL    HW2  273   1.147   1.675   0.847  0.4649  0.4006  3.4279
   92SOL     OW  274   2.286   3.043   1.684 -0.4969  0.5824  0.4898
   92SOL    HW1  275   2.346   3.048   1.762 -1.1752 -2.4136 -0.8720
   92SOL    HW2  276   2.328   2.976   1.617  1.1754 -0.2026 -1.1931
   93SOL     OW  277   0.509   1.395   2.913 -0.0705 -0.2433 -0.1499
   93SOL    HW1  278   0.526   1.461   2.989  0.3146  1.4902 -0.9643
   93SOL    HW2  279   0.487   1.445   2.826  1.4505 -2.4886  0.9926
   94SOL     OW  280   2.536   3.045   1.847  0.4179 -0.3082  0.2008
   94SOL    HW1  281   2.502   0.004   1.898  0.0403  1.3290  1.4605
   94SOL    HW2  282   2.615   3.000   1.894 -0.7630 -0.4681  0.8441
   95SOL     OW  283   1.904   0.529   1.759 -0.5891  0.1748 -0.6631
   95SOL    HW1  284   1.830   0.554   1.693 -1.0116  0.3500 -0.9798
   95SOL    HW2  285   1.992   0.506   1.714  1.2481  0.3632 -0.2802
   96SOL     OW  286   2.973   0.370   1.890 -0.2369  0.1129 -0.0890
   96SOL    HW1  287   2.938   0.386   1.795  0.3583  2.0778  1.3923
   96SOL    HW2  288   2.901   0.395   1.953  0.6782  1.2017 -2.9760
   97SOL     OW  289   2.186   0.178   1.596  0.4058  0.0213  0.0875
   97SOL    HW1  290   2.101   0.167   1.537 -1.1970 -0.2928 -1.5523
   97SOL    HW2  291   2.218   0.091   1.642  0.4902  0.2827  1.1923
   98SOL     OW  292   2.118   2.281   1.812  0.2352  0.4264 -0.0721
   98SOL    HW1  293   2.121   2.217   1.894  2.4238 -1.2526  0.5159
   98SOL    HW2  294   2.209   2.315   1.790 -1.4749  0.5318  2.3765
   99SOL     OW  295   0.689   0.823   0.983 -0.0697  0.0647  0.0723
   99SOL    HW1  296   0.714   0.905   0.927 -0.4343  2.3748  2.4432
   99SOL    HW2  297   0.591   0.809   0.963  0.8523  1.2308  0.4210
  100SOL     OW  298   2.721   1.631   1.927 -0.2285 -0.1667 -0.0854
  100SOL    HW1  299   2.683   1.652   2.020 -1.7717  1.6463  1.2028
  100SOL    HW2  300   2.651   1.674   1.863  1.1052  2.3489 -0.4219
  101SOL     OW  301   2.003   0.163   0.096  0.0817 -0.3805 -0.1780
  101SOL    HW1  302   2.096   0.145   0.069 -2.5697 -0.6654  2.3818
  101SOL    HW2  303   1.945   0.193   0.019  0.9843 -0.8760  3.2436
  102SOL     OW  304   0.119   2.898   1.015  0.2161 -0.0022  0.2309
  102SOL    HW1  305   0.035   2.951   0.992  1.3685  0.8987 -1.5244
  102SOL    HW2  306   0.184   2.901   0.934  4.6557 -0.3438  0.3925
  103SOL     OW  307   0.078   3.100   2.449 -0.1706  0.4403  0.6967
  103SOL    HW1  308   3.114   3.065   2.414  0.5172 -0.2858 -0.9338
  103SOL    HW2  309   0.145   3.021   2.450  2.6033  0.2551 -0.3429
  104SOL     OW  310   0.284   2.137   1.471  0.2997  0.4061 -0.3232
  104SOL    HW1  311   0.228   2.073   1.415  0.6901  1.1712  0.8855
  104SOL    HW2  312   0.228   2.214   1.497  1.7675 -2.8969 -1.0186
  105SOL     OW  313   0.529   1.983   2.183  0.5903  0.2214 -0.2928
  105SOL    HW1  314   0.508   2.069   2.232 -0.0600  0.1703 -0.3883
  105SOL    HW2  315   0.561   1.998   2.089  0.4283 -1.7493  0.5190
  106SOL     OW  316   2.243   0.178   0.643  0.3608  0.6249  0.4075
  106SOL    HW1  317   2.154   0.133   0.621 -2.6431  1.8654 -0.1224
  106SOL    HW2  318   2.250   0.262   0.590  0.6266 -3.3471  0.1703
  107SOL     OW  319   0.634   1.190   1.405 -0.0178  0.4094 -0.4287
  107SOL    HW1  320   0.564   1.149   1.338 -3.6529 -2.8198 -1.8359
  107SOL    HW2  321   0.722   1.135   1.399  0.3417 -0.6748 -2.0316
  108SOL     OW  322   2.891   1.086   2.585 -0.4905  0.4140  0.5367
  108SOL    HW1  323   2.927   1.174   2.552  0.5340 -2.6336  0.5050
  108SOL    HW2  324   2.844   1.035   2.506 -0.6270 -1.6490 -1.0302
  109SOL     OW  325   2.028   3.019   2.938  0.1615 -0.6492 -0.2326
  109SOL    HW1  326   2.029   3.122   2.923 -1.0207  0.4672  2.4529
  109SOL    HW2  327   1.930   2.992   2.958 -3.5105  0.8413  3.2457
  110SOL     OW  328   0.272   2.120   0.069  0.1088  0.6518  0.0209
  110SOL    HW1  329   0.182   2.072   0.058 -0.6220 -1.3915 -0.7839
  110SOL    HW2  330   0.346   2.065   0.021  0.0445  1.1132 -0.6548
  111SOL     OW  331   2.758   0.643   2.347  0.1650  0.0260  0.4145
  111SOL    HW1  332   2.848   0.604   2.329 -2.3777  0.5986 -0.3804
  111SOL    HW2  333   2.702   0.581   2.408  0.7589  0.5103 -0.9431
  112SOL     OW  334   2.008   2.629   1.386  0.3491 -0.0990 -0.2262
  112SOL    HW1  335   1.976   2.698   1.461 -3.2303  1.4014 -1.0859
  112SOL    HW2  336   2.071   2.674   1.316  0.5398 -0.7657 -1.5687
  113SOL     OW  337   2.115   2.065   2.652 -0.0292 -0.3126 -0.3211
  113SOL    HW1  338   2.204   2.040   2.614 -1.1973  2.3531  1.9955
  113SOL    HW2  339   2.126   2.134   2.729  2.1728  0.0554  1.7195
  114SOL     OW  340   0.477   0.252   0.447 -0.2409 -0.1816 -0.6772
  114SOL    HW1  341   0.388   0.217   0.407  1.0425  1.2248  3.8635
  114SOL    HW2  342   0.541   0.282   0.372  0.8286  2.2552  2.6932
  115SOL     OW  343   2.991   1.352   3.067  0.0720 -0.2327  0.3722
  115SOL    HW1  344   3.066   1.418   3.050 -0.4246  0.2553  3.2293
  115SOL    HW2  345   3.004   1.305   0.031  0.5473 -1.5914  3.0668
  116SOL     OW  346   2.985   0.860   1.955  0.2568 -0.0703  0.7027
  116SOL    HW1  347   3.040   0.874   1.869 -0.0510  1.1009  0.2706
  116SOL    HW2  348   3.017   0.922   2.032 -0.1031 -0.2276 -1.1596
  117SOL     OW  349   2.356   0.240   1.406 -0.2650 -0.3267  0.5909
  117SOL    HW1  350   2.432   0.303   1.425  0.9383 -0.6619  0.3608
  117SOL    HW2  351   2.314   0.211   1.490  1.3222 -0.2614 -3.3063
  118SOL     OW  352   2.897   2.236   2.009  0.8866  0.1068  0.1017
  118SOL    HW1  353   2.983   2.283   1.999 -3.2811 -1.5562 -1.0602
  118SOL    HW2  354   2.903   2.146   1.967  0.5073  3.7169  0.5084
  119SOL     OW  355   0.628   1.944   1.277 -0.1372  0.2290 -0.1633
  119SOL    HW1  356   0.638   2.036   1.316 -0.6359 -1.1750  2.8594
  119SOL    HW2  357   0.644   1.872   1.350 -2.1052  0.2421  2.7946
  120SOL     OW  358   0.273   1.370   1.488 -0.2062 -0.0423 -0.6555
  120SOL    HW1  359   0.346   1.410   1.429  0.2383  1.0757 -1.5111
  120SOL    HW2  360   0.306   1.311   1.567 -0.7660  0.8069  1.1375
  121SOL     OW  361   1.793   0.987   0.844 -0.0458  0.2654 -0.1366
  121SOL    HW1  362   1.811   1.027   0.938 -1.0738  1.1119 -2.2699
  121SOL    HW2  363   1.698   1.002   0.820  1.2960  0.8679  1.6590
  122SOL     OW  364   2.122   2.500   2.728  0.1595  0.4169  0.1198
  122SOL    HW1  365   2.021   2.523   2.754 -0.6284  0.2238 -0.3249
  122SOL    HW2  366   2.130   2.507   2.621 -1.5103  0.4045 -1.0727
  123SOL     OW  367   2.965   2.989   0.484 -0.0695 -0.2481  0.5288
  123SOL    HW1  368   2.872   2.945   0.461 -4.3896 -1.1119 -2.2750
  123SOL    HW2  369   2.950   3.071   0.546 -0.6799  0.3172  2.2928
  124SOL     OW  370   1.711   1.399   0.286  0.2183 -0.1405 -0.4150
  124SOL    HW1  371   1.671   1.344   0.210 -0.1813 -2.3964 -1.5614
  124SOL    HW2  372   1.694   1.348   0.375 -3.6759  1.0341 -0.8166
  125SOL     OW  373   0.146   0.875   2.253  0.3583 -0.1912  0.4863
  125SOL    HW1  374   0.171   0.967   2.289  1.0128  1.7633 -0.6162
  125SOL    HW2  375   0.205   0.849   2.173 -0.3602 -2.9767  1.3047
  126SOL     OW  376   3.051   2.543   0.085  0.8283  0.3942 -0.0040
  126SOL    HW1  377   3.096   2.528   0.180 -0.0349 -0.0585  3.4094
  126SOL    HW2  378   3.063   2.636   0.052 -2.3790 -1.1489  0.0593
  127SOL     OW  379   0.053   1.985   0.249 -0.3155 -0.3175  0.2417
  127SOL    HW1  380   0.017   1.940   0.332  1.5565  0.2538 -0.7757
  127SOL    HW2  381   3.108   1.969   0.175  0.4018  0.7348  0.6920
  128SOL     OW  382   1.253   0.866   0.994  0.4684  0.2993  0.2627
  128SOL    HW1  383   1.200   0.951   0.978  2.0209  0.1244 -1.4017
  128SOL    HW2  384   1.315   0.851   0.915 -1.7413  1.1958  2.0417
  129SOL     OW  385   2.537   2.038   1.291  0.0264  0.6931  0.6005
  129SOL    HW1  386   2.467   1.972   1.251 -0.5243 -0.9566  1.9492
  129SOL    HW2  387   2.510   2.069   1.384 -0.4828 -2.3606 -2.5296
  130SOL     OW  388   1.922   0.947   0.159 -0.1879 -0.2701 -0.7731
  130SOL    HW1  389   1.967   1.022   0.105 -1.1914 -0.2999  2.0320
  130SOL    HW2  390   1.923   0.973   0.254  2.3360 -0.2223 -2.0611
  131SOL     OW  391   3.012   1.360   2.489 -0.2262  0.1989  0.3341
  131SOL    HW1  392   2.980   1.441   2.434  0.3907  1.8011  0.0365
  131SOL    HW2  393   3.011   1.377   2.587  2.6369 -0.9583 -1.7067
  132SOL     OW  394   0.985   1.391   2.018  0.3725  0.2668  0.4079
  132SOL    HW1  395   0.961   1.469   1.956 -0.9741  0.3700 -2.3195
  132SOL    HW2  396   1.045   1.325   1.971  2.7508 -0.0826  0.5448
  133SOL     OW  397   0.391   1.444   0.509 -0.7574 -0.4694  0.3101
  133SOL    HW1  398   0.335   1.432   0.426 -0.1032 -1.4309  2.7518
  133SOL    HW2  399   0.491   1.419   0.500 -0.0316 -0.7800  1.6482
  134SOL     OW  400   2.696   1.034   0.125 -0.3932 -0.0793 -0.2328
  134SOL    HW1  401   2.733   1.130   0.122  0.3533  0.7896  0.8183
  134SOL    HW2  402   2.670   0.992   0.035 -1.3810 -0.5772  1.8856
  135SOL     OW  403   1.635   0.624   0.044  0.1633 -0.5266 -0.2435
  135SOL    HW1  404   1.684   0.681   3.105 -1.6405 -4.8300  3.2000
  135SOL    HW2  405   1.683   0.538   0.076  0.0602 -0.3000 -1.2984
  136SOL     OW  406   1.925   1.527   1.646 -0.4539  0.0856 -0.8442
  136SOL    HW1  407   1.960   1.535   1.553 -2.1858 -1.5681 -0.7278
  136SOL    HW2  408   1.982   1.467   1.706 -1.7602  1.2641 -0.8047
  137SOL     OW  409   2.267   2.642   1.008 -0.1608 -0.3444 -0.1066
  137SOL    HW1  410   2.363   2.668   0.990 -0.6097 -3.9296 -2.4240
  137SOL    HW2  411   2.214   2.650   0.925  0.0800  0.1198  0.1281
  138SOL     OW  412   2.269   0.492   1.928 -0.2399  0.0050 -0.0753
  138SOL    HW1  413   2.248   0.560   2.003  1.5526  1.4042 -0.2765
  138SOL    HW2  414   2.234   0.524   1.835  2.3083 -1.6296  0.7032
  139SOL     OW  415   2.454   2.827   2.864 -0.5751  0.3672  0.3886
  139SOL    HW1  416   2.359   2.814   2.827  1.1296  0.0207 -1.3121
  139SOL    HW2  417   2.458   2.917   2.919  2.4286  0.3249  2.4701
  140SOL     OW  418   1.578   1.943   2.455 -0.2722 -0.6185 -0.5820
  140SOL    HW1  419   1.541   1.933   2.364  1.1923  0.5975  1.9954
  140SOL    HW2  420   1.524   1.886   2.519  1.8474  0.2675 -2.5145
  141SOL     OW  421   0.873   0.991   2.528 -0.7460 -0.5911  0.3481
  141SOL    HW1  422   0.812   1.068   2.558  0.7633  1.6577  0.6797
  141SOL    HW2  423   0.944   0.977   2.595  1.7376 -2.3471 -3.7689
  142SOL     OW  424   2.580   2.522   2.198  0.4561  0.2791  0.1669
  142SOL    HW1  425   2.578   2.622   2.187 -0.2329 -2.1430 -2.2149
  142SOL    HW2  426   2.511   2.470   2.140  0.8047 -0.1932 -0.3998
  143SOL     OW  427   1.222   2.415   0.300 -0.0961  0.2015  0.2566
  143SOL    HW1  428   1.273   2.500   0.283 -1.3642 -2.9482  0.6895
  143SOL    HW2  429   1.128   2.432   0.335 -1.7777 -2.4795 -1.3122
  144SOL     OW  430   0.931   2.658   0.652 -0.1647  0.0461  0.1678
  144SOL    HW1  431   0.977   2.741   0.610  1.9119 -1.8351 -2.6469
  144SOL    HW2  432   0.830   2.667   0.633 -2.4595  0.5349  0.2260
  145SOL     OW  433   1.631   2.644   2.392  0.2121  0.4192  0.5444
  145SOL    HW1  434   1.613   2.559   2.443 -1.2325  0.1710  0.8938
  145SOL    HW2  435   1.599   2.723   2.443  0.7446 -1.6720 -3.9560
  146SOL     OW  436   2.139   2.971   0.066  0.4092  0.1047 -0.0263
  146SOL    HW1  437   2.198   3.053   0.071  2.4026 -1.1786  2.6755
  146SOL    HW2  438   2.112   2.953   3.098 -0.1494 -1.0373  0.7729
  147SOL     OW  439   0.204   1.610   1.322  0.4758 -0.5001 -0.1101
  147SOL    HW1  440   0.226   1.566   1.231 -2.5582  1.7987  1.1983
  147SOL    HW2  441   0.117   1.578   1.361  0.5124 -1.4958 -1.3962
  148SOL     OW  442   1.964   3.078   0.266  0.1897 -0.5338  1.1166
  148SOL    HW1  443   2.018   3.014   0.206 -0.3727 -0.3740  4.1823
  148SOL    HW2  444   1.962   0.047   0.211  1.2670  3.2137 -1.5916
  149SOL     OW  445   0.571   1.745   2.975  0.2238 -0.1775 -0.3860
  149SOL    HW1  446   0.632   1.708   3.048 -2.1612 -1.6178  0.3769
  149SOL    HW2  447   0.624   1.790   2.900  0.4352 -0.8066 -0.1585
  150SOL     OW  448   0.356   2.630   0.846  0.1532  0.2453 -0.2611
  150SOL    HW1  449   0.348   2.596   0.942 -1.5153 -0.0995  0.8772
  150SOL    HW2  450   0.338   2.733   0.841 -0.0454 -0.3629 -0.2694
  151SOL     OW  451   0.438   1.132   3.034 -0.1168 -0.3882 -0.1777
  151SOL    HW1  452   0.474   1.217   2.997  0.6799 -1.2805 -0.8232
  151SOL    HW2  453   0.339   1.127   3.066  0.8690  0.6087 -1.1525
  152SOL     OW  454   3.059   1.955   0.883  0.1199 -0.8283  0.1422
  152SOL    HW1  455   2.998   2.003   0.822  3.0807 -3.0238 -1.0558
  152SOL    HW2  456   3.080   1.857   0.853 -0.6195 -1.0644  1.1535
  153SOL     OW  457   1.682   2.321   0.762 -0.0681 -0.4054  0.0155
  153SOL    HW1  458   1.756   2.279   0.714 -2.8662  0.7321  1.6454
  153SOL    HW2  459   1.633   2.257   0.823  0.9236  0.3017  1.0780
  154SOL     OW  460   0.768   2.897   1.398  0.3586  0.7389 -0.2078
  154SOL    HW1  461   0.696   2.963   1.405  2.0517 -2.1453  0.2700
  154SOL    HW2  462   0.778   2.866   1.300 -0.1465 -0.1140  1.0392
  155SOL     OW  463   2.894   2.084   0.566 -0.9419 -0.0229 -0.2002
  155SOL    HW1  464   2.936   2.178   0.569  1.5233  1.4852 -1.4033
  155SOL    HW2  465   2.796   2.088   0.546 -0.6890 -1.4606 -1.4282
  156SOL     OW  466   2.511   2.083   0.116  0.3483  0.2136  0.0234
  156SOL    HW1  467   2.588   2.073   0.049 -0.1559 -1.0505 -1.6970
  156SOL    HW2  468   2.524   2.029   0.202 -1.1088 -0.1250  2.2792
  157SOL     OW  469   0.361   2.750   1.619  0.0528 -0.1403  0.6167
  157SOL    HW1  470   0.287   2.786   1.676  6.3829 -2.0409  1.9801
  157SOL    HW2  471   0.437   2.720   1.676  0.7691 -2.8780 -1.1838
  158SOL     OW  472   1.591   0.676   1.102  1.1598 -0.4114 -0.2090
  158SOL    HW1  473   1.664   0.696   1.036  0.0192 -0.5475 -0.4046
  158SOL    HW2  474   1.576   0.754   1.165  1.8590  1.8854 -1.2948
  159SOL     OW  475   1.674   0.954   0.014 -0.0007 -0.1946  0.1609
  159SOL    HW1  476   1.762   0.973   0.066 -0.7260 -0.8007  3.3861
  159SOL    HW2  477   1.699   0.907   3.052  1.0970 -1.7604 -0.1805
  160SOL     OW  478   1.281   1.923   0.468 -0.1001 -0.2808 -0.1553
  160SOL    HW1  479   1.278   2.026   0.469  2.6713  1.7303  0.7589
  160SOL    HW2  480   1.264   1.882   0.377 -2.1251 -1.1715  0.2464
  161SOL     OW  481   2.374   2.058   2.563 -0.3258 -0.4423 -0.1951
  161SOL    HW1  482   2.389   2.160   2.555  0.0601  0.5868 -0.5333
  161SOL    HW2  483   2.462   2.017   2.592 -0.9151  0.2565  0.2279
  162SOL     OW  484   0.133   2.378   1.451 -0.0228 -0.4834  0.0047
  162SOL    HW1  485   0.040   2.397   1.402 -5.5369 -0.7246 -1.6345
  162SOL    HW2  486   0.192   2.459   1.457  0.7128 -0.8616  0.6413
  163SOL     OW  487   0.299   0.382   2.857 -0.4746  0.5765 -0.0304
  163SOL    HW1  488   0.259   0.298   2.895 -1.2842  2.1237 -1.1531
  163SOL    HW2  489   0.394   0.402   2.884 -1.7060 -2.7463  0.7989
  164SOL     OW  490   3.077   2.736   2.890 -0.5781  0.0681 -0.4849
  164SOL    HW1  491   3.092   2.828   2.848 -1.5417 -1.0438 -1.7145
  164SOL    HW2  492   3.107   2.729   2.989  2.0858 -1.1817  2.6129
  165SOL     OW  493   2.951   0.980   1.518 -0.2147  0.0150  0.1963
  165SOL    HW1  494   2.856   0.961   1.488  1.1598 -0.5862  1.1913
  165SOL    HW2  495   3.018   0.921   1.471  0.3686 -1.2450  0.3913
  166SOL     OW  496   1.950   1.529   1.381  0.1808  0.2642 -0.2641
  166SOL    HW1  497   2.026   1.462   1.375  2.5141 -1.8318 -0.5869
  166SOL    HW2  498   1.933   1.586   1.295  0.7119  0.4180 -0.4600
  167SOL     OW  499   0.330   0.647   2.502 -0.0987  0.0614  0.3556
  167SOL    HW1  500   0.349   0.660   2.405  0.1896  0.0645  2.0286
  167SOL    HW2  501   0.229   0.637   2.521 -2.4188 -0.8170 -0.4052
  168SOL     OW  502   2.224   0.312   2.275  0.3246  0.0370 -0.0445
  168SOL    HW1  503   2.201   0.269   2.362 -0.8638 -1.4197 -0.5403
  168SOL    HW2  504   2.286   0.393   2.293  1.2589  0.1499 -0.4179
  169SOL     OW  505   0.572   1.079   0.131  0.3130  0.1016 -0.0548
  169SOL    HW1  506   0.496   1.075   0.203 -3.3097  0.8194 -1.0245
  169SOL    HW2  507   0.523   1.098   0.048 -0.6694 -1.4122  2.3090
  170SOL     OW  508   0.931   1.187   1.704 -0.0211  0.1625 -0.0420
  170SOL    HW1  509   0.851   1.230   1.750 -1.3207 -0.5082  1.9709
  170SOL    HW2  510   1.015   1.181   1.765 -0.9151 -1.0167 -0.3977
  171SOL     OW  511   1.313   2.670   1.458 -0.0583  0.4384 -0.3120
  171SOL    HW1  512   1.297   2.707   1.552  0.3994 -0.9714 -1.1228
  171SOL    HW2  513   1.389   2.712   1.406  0.8165  1.2101 -1.7698
  172SOL     OW  514   1.159   3.010   1.978 -0.7240 -0.7246 -0.3930
  172SOL    HW1  515   1.086   2.990   2.045  1.7088 -1.4521 -5.2575
  172SOL    HW2  516   1.117   3.032   1.893  0.9142  1.6429 -1.4877
  173SOL     OW  517   1.099   2.527   0.828 -0.3503  0.6275 -0.1032
  173SOL    HW1  518   1.038   2.588   0.770  0.3866 -0.0338  1.4701
  173SOL    HW2  519   1.048   2.453   0.879  0.8887 -1.3316  0.7151
  174SOL     OW  520   2.355   3.103   0.509  0.0705  0.3034  0.2115
  174SOL    HW1  521   2.318   0.053   0.569  3.1490 -1.3376  1.2087
  174SOL    HW2  522   2.389   0.019   0.417  2.2869 -0.8531  0.6603
  175SOL     OW  523   1.538   1.095   0.744 -0.6476  0.0981 -0.1769
  175SOL    HW1  524   1.488   1.162   0.804 -3.9332 -0.9753  0.9415
  175SOL    HW2  525   1.490   1.005   0.730 -1.0136 -4.3431  0.3827
  176SOL     OW  526   1.056   1.677   0.450  0.7682 -0.2143 -0.1422
  176SOL    HW1  527   1.072   1.767   0.493  0.0588  0.5382 -3.3936
  176SOL    HW2  528   1.040   1.602   0.521 -0.7890 -0.4281 -0.3009
  177SOL     OW  529   1.728   1.580   0.960  0.7103  0.4386 -0.1673
  177SOL    HW1  530   1.706   1.561   0.865 -1.0108 -1.5196  1.1518
  177SOL    HW2  531   1.828   1.596   0.962 -0.5686  0.5391  0.0579
  178SOL     OW  532   2.302   1.677   0.094  0.4237 -0.1482 -0.4466
  178SOL    HW1  533   2.319   1.772   0.058  3.1882  0.4562 -0.7085
  178SOL    HW2  534   2.359   1.658   0.177  0.7486 -0.8270 -0.3484
  179SOL     OW  535   1.308   2.929   0.000 -0.1277  0.0942  0.1370
  179SOL    HW1  536   1.392   2.877   3.110  0.5014 -1.4727  0.4777
  179SOL    HW2  537   1.245   2.914   3.046  1.5328 -0.0319  2.0698
  180SOL     OW  538   2.105   1.214   1.560 -0.2211 -0.7297 -0.1589
  180SOL    HW1  539   2.091   1.292   1.631  0.5583  2.2537  0.8072
  180SOL    HW2  540   2.153   1.256   1.481 -1.2508  0.2848 -0.6435
  181SOL     OW  541   0.975   0.700   1.870  0.2046 -0.4712 -0.2078
  181SOL    HW1  542   1.070   0.709   1.902  1.2907  0.0666  2.3685
  181SOL    HW2  543   0.931   0.626   1.928  0.0813 -1.6018  0.7645
  182SOL     OW  544   0.129   1.210   2.555 -0.6275  0.4232 -0.4262
  182SOL    HW1  545   0.067   1.288   2.571  0.8923  0.5318 -1.3601
  182SOL    HW2  546   0.162   1.219   2.458  0.2044 -0.6020 -0.0219
  183SOL     OW  547   1.386   0.718   2.447 -0.4816 -0.2496 -0.2699
  183SOL    HW1  548   1.474   0.715   2.498 -0.7411  0.9556 -0.1440
  183SOL    HW2  549   1.311   0.683   2.510  0.1098 -2.2262 -0.8150
  184SOL     OW  550   0.561   0.439   1.100 -0.7825 -0.3073 -0.1007
  184SOL    HW1  551   0.655   0.464   1.130 -1.7241 -0.9903 -0.6956
  184SOL    HW2  552   0.508   0.411   1.182 -0.2999  1.4437 -0.6649
  185SOL     OW  553   2.479   1.368   0.671 -0.2640 -0.0352  0.4300
  185SOL    HW1  554   2.544   1.431   0.719 -1.7544  0.4682 -0.3381
  185SOL    HW2  555   2.435   1.401   0.584 -1.3600 -0.2853 -0.1444
  186SOL     OW  556   0.324   2.148   0.357  0.1707 -0.1488 -0.6540
  186SOL    HW1  557   0.312   2.136   0.253 -0.9119 -3.2120 -1.6015
  186SOL    HW2  558   0.243   2.192   0.400 -4.3816  0.7086  0.0706
  187SOL     OW  559   1.954   2.131   3.011  0.0135 -0.2196  0.5346
  187SOL    HW1  560   1.962   2.031   3.022 -0.5637  0.6694  2.4869
  187SOL    HW2  561   2.027   2.170   2.952  3.6966  0.9026 -0.4057
  188SOL     OW  562   1.393   2.045   1.603  0.2300 -0.5577  0.5276
  188SOL    HW1  563   1.423   1.952   1.568 -0.2880 -1.0443 -0.9582
  188SOL    HW2  564   1.293   2.060   1.593 -2.4929 -1.4146 -0.9257
  189SOL     OW  565   2.332   1.435   2.559 -0.5158 -0.2318  0.4072
  189SOL    HW1  566   2.260   1.437   2.634 -2.3455  3.0581  0.6368
  189SOL    HW2  567   2.285   1.442   2.472  0.8265  1.9959  0.2801
  190SOL     OW  568   0.772   2.642   1.998 -0.9668 -0.2827  0.0798
  190SOL    HW1  569   0.856   2.676   2.048  0.0749  0.5342 -4.1839
  190SOL    HW2  570   0.693   2.696   2.038  2.7373 -0.0688  0.2232
  191SOL     OW  571   2.793   1.075   1.147  0.1403 -0.0780  0.1962
  191SOL    HW1  572   2.743   1.045   1.228 -0.5140 -2.4297 -1.9495
  191SOL    HW2  573   2.789   1.009   1.066 -0.8135 -1.8374 -0.5753
  192SOL     OW  574   2.540   0.739   1.701  0.2682 -0.1214  0.0570
  192SOL    HW1  575   2.469   0.671   1.681  1.2084  0.0955 -0.7991
  192SOL    HW2  576   2.635   0.698   1.716  2.2058  0.1139  1.7328
  193SOL     OW  577   0.913   0.340   0.059 -0.9161  0.1195 -0.1276
  193SOL    HW1  578   0.908   0.240   0.075 -1.8195 -0.6664  0.1712
  193SOL    HW2  579   0.890   0.365   3.087 -0.6658  2.2153 -3.1328
  194SOL     OW  580   1.152   2.530   1.281  0.2910  0.1711 -0.0205
  194SOL    HW1  581   1.192   2.570   1.366 -2.3959 -2.2365  0.3549
  194SOL    HW2  582   1.183   2.584   1.197  1.4069  1.8616  1.0680
  195SOL     OW  583   2.720   1.169   0.514  0.1647  0.6041 -0.2062
  195SOL    HW1  584   2.766   1.169   0.605  0.1156 -1.4521 -0.6661
  195SOL    HW2  585   2.696   1.072   0.488 -2.3325 -2.1308  2.0279
  196SOL     OW  586   0.561   2.234   1.472 -0.2334 -0.2309  0.3140
  196SOL    HW1  587   0.472   2.186   1.480 -0.3497  0.5681  2.3224
  196SOL    HW2  588   0.537   2.332   1.457 -0.7006  2.6014  0.2003
  197SOL     OW  589   3.005   0.525   2.273 -0.0636  0.6067  0.0944
  197SOL    HW1  590   3.092   0.500   2.225  2.6331  1.2620  0.8784
  197SOL    HW2  591   2.935   0.452   2.256 -2.8038 -1.1095 -0.0787
  198SOL     OW  592   2.124   1.280   0.148  0.2357  0.0271 -0.0810
  198SOL    HW1  593   2.146   1.276   0.046  1.2575  0.6413 -4.2059
  198SOL    HW2  594   2.060   1.363   0.165 -2.7675  1.1138 -0.0461
  199SOL     OW  595   2.504   0.360   1.863 -0.5618 -0.3853 -0.4599
  199SOL    HW1  596   2.423   0.416   1.892 -1.4210 -0.2922  1.1597
  199SOL    HW2  597   2.544   0.397   1.778 -0.1075 -1.8251 -1.1407
  200SOL     OW  598   2.245   0.151   3.124 -0.6405 -0.9581 -0.6754
  200SOL    HW1  599   2.328   0.196   0.038 -0.2425  0.6704  0.5921
  200SOL    HW2  600   2.217   0.197   3.035 -0.7139 -1.9646  1.0064
  201SOL     OW  601   2.661   0.186   1.100 -0.2428 -0.2081  0.3161
  201SOL    HW1  602   2.757   0.212   1.101  3.3214 -0.8945  0.5955
  201SOL    HW2  603   2.597   0.260   1.069  1.0639  0.0899 -1.4807
  202SOL     OW  604   2.896   2.567   0.451 -0.5094 -0.0124 -0.0885
  202SOL    HW1  605   2.993   2.586   0.426 -0.6307  1.1184 -1.6460
  202SOL    HW2  606   2.850   2.658   0.439  1.7074  2.6036 -1.3571
  203SOL     OW  607   1.526   1.844   0.445  0.2562  0.2080 -0.7947
  203SOL    HW1  608   1.432   1.873   0.458  1.7824  0.6471  1.7600
  203SOL    HW2  609   1.557   1.817   0.536  1.4866 -1.6383  0.8185
  204SOL     OW  610   0.308   1.887   2.412  0.3289  0.3205  0.0086
  204SOL    HW1  611   0.390   1.834   2.376  1.3570  0.6884 -2.7122
  204SOL    HW2  612   0.233   1.820   2.448 -2.6113 -1.1839  2.6596
  205SOL     OW  613   0.767   0.421   0.716 -0.2326 -1.0216  0.9528
  205SOL    HW1  614   0.785   0.495   0.785 -4.9422  0.3684 -0.5860
  205SOL    HW2  615   0.854   0.397   0.663  1.2022  0.5220 -4.3346
  206SOL     OW  616   0.234   0.632   3.057 -0.5531 -0.0549 -0.3609
  206SOL    HW1  617   0.300   0.705   3.029 -0.9089  0.9056 -1.0836
  206SOL    HW2  618   0.204   0.584   2.973 -1.7232 -2.4528  2.1712
  207SOL     OW  619   1.178   2.530   1.908 -0.3581 -0.7939 -0.1152
  207SOL    HW1  620   1.122   2.447   1.900  3.8016  0.7109  0.0789
  207SOL    HW2  621   1.129   2.597   1.968 -0.9299 -0.0144 -1.0606
  208SOL     OW  622   2.716   0.055   1.648 -0.1869  0.1448 -0.2581
  208SOL    HW1  623   2.663   0.020   1.722 -0.2731 -0.6525  0.3734
  208SOL    HW2  624   2.689   0.005   1.563 -1.0468  0.5077  0.4215
  209SOL     OW  625   1.962   0.898   0.552  0.5053  0.2946  0.1344
  209SOL    HW1  626   1.893   0.850   0.613 -0.4748 -2.2982  1.6958
  209SOL    HW2  627   1.909   0.947   0.475 -0.3339 -0.4603 -0.1095
  210SOL     OW  628   2.677   0.939   0.371 -0.4052 -0.2320 -0.2408
  210SOL    HW1  629   2.577   0.918   0.377  1.6669 -0.8854  0.6104
  210SOL    HW2  630   2.690   0.978   0.277 -2.1761 -2.1825 -0.8503
  211SOL     OW  631   1.161   3.072   0.155 -0.5755 -0.1579 -0.5195
  211SOL    HW1  632   1.223   0.014   0.196  1.6991 -1.3641 -1.1645
  211SOL    HW2  633   1.216   3.010   0.102  1.1139  1.4290  0.3933
  212SOL     OW  634   1.912   2.237   0.624  0.1190  0.1877 -0.4118
  212SOL    HW1  635   2.005   2.241   0.658 -1.6854 -0.9039  0.7585
  212SOL    HW2  636   1.901   2.238   0.521 -1.2358 -0.8917 -3.8424
  213SOL     OW  637   2.485   0.283   0.083  0.0276 -0.0435 -0.4002
  213SOL    HW1  638   2.549   0.267   0.010  0.3658  1.3008 -0.2334
  213SOL    HW2  639   2.452   0.382   0.083 -3.9994  1.4729 -1.3227
  214SOL     OW  640   0.833   2.177   2.045 -0.3688 -0.5392  0.2202
  214SOL    HW1  641   0.901   2.182   2.118  0.7336 -0.9640 -1.9058
  214SOL    HW2  642   0.762   2.254   2.055  0.5866  0.4947  0.7571
  215SOL     OW  643   0.464   1.240   0.988  0.3349  0.4232 -0.0565
  215SOL    HW1  644   0.406   1.305   1.040  1.3586  0.3961  0.1442
  215SOL    HW2  645   0.544   1.290   0.946  0.9325  2.2152 -1.4997
  216SOL     OW  646   0.127   2.598   2.730  0.2623 -0.0264 -0.0270
  216SOL    HW1  647   0.216   2.582   2.783 -1.1646  0.3825 -3.6050
  216SOL    HW2  648   0.075   2.683   2.759 -1.3948  0.2128 -0.7056
  217SOL     OW  649   2.812   1.327   1.294  0.0324 -0.5716  0.3506
  217SOL    HW1  650   2.897   1.366   1.257  0.4695  1.3276 -0.3515
  217SOL    HW2  651   2.800   1.228   1.270 -1.5474  0.6306 -0.7640
  218SOL     OW  652   0.752   2.458   1.783  0.0918 -0.2690 -0.2129
  218SOL    HW1  653   0.822   2.494   1.714  0.5901 -0.4352 -0.2214
  218SOL    HW2  654   0.746   2.509   1.872 -2.4385 -0.0313  0.9075
  219SOL     OW  655   2.108   1.601   0.538 -0.3932  0.5810  0.2821
  219SOL    HW1  656   2.126   1.644   0.446 -1.9250 -3.2684  0.0304
  219SOL    HW2  657   2.102   1.674   0.612  0.2450 -2.2252 -0.1339
  220SOL     OW  658   1.972   0.709   0.288 -0.0697 -0.3203  0.0989
  220SOL    HW1  659   1.947   0.800   0.249 -1.5887 -1.7107 -0.5193
  220SOL    HW2  660   1.906   0.677   0.359  0.3119 -2.8280 -0.3428
  221SOL     OW  661   3.004   0.903   0.166 -0.2079  0.2006  0.2940
  221SOL    HW1  662   2.960   0.841   0.231  0.1452  1.5573  0.9832
  221SOL    HW2  663   3.038   0.855   0.078 -1.3627 -0.1551 -2.3735
  222SOL     OW  664   1.630   1.563   0.685 -0.0904  0.3778  0.0460
  222SOL    HW1  665   1.542   1.514   0.711  2.1929  1.7000 -0.5849
  222SOL    HW2  666   1.605   1.662   0.675  0.8640 -1.0596 -0.7746
  223SOL     OW  667   1.064   0.135   2.715  0.1959 -0.9158  0.0073
  223SOL    HW1  668   1.139   0.115   2.646 -2.1595  1.6477 -0.0098
  223SOL    HW2  669   0.999   0.063   2.722  2.7215  1.3264 -0.1676
  224SOL     OW  670   0.818   2.896   1.135 -0.0588 -0.3015  0.2343
  224SOL    HW1  671   0.790   2.993   1.139 -0.0634 -1.2217  1.2644
  224SOL    HW2  672   0.912   2.879   1.104 -1.9401  0.6431 -1.8381
  225SOL     OW  673   0.558   2.798   1.800 -0.1945  0.0836 -0.3557
  225SOL    HW1  674   0.584   2.768   1.894  0.4933  0.4489  1.1635
  225SOL    HW2  675   0.509   2.888   1.808  0.1295  0.9244  0.4414
  226SOL     OW  676   1.542   1.625   0.259 -0.2933  0.0850  0.7549
  226SOL    HW1  677   1.570   1.713   0.308 -3.2814 -2.5567 -0.9356
  226SOL    HW2  678   1.613   1.553   0.262 -0.1601 -2.1128  0.3443
  227SOL     OW  679   0.562   1.864   1.038 -0.7166 -0.7076  0.0624
  227SOL    HW1  680   0.584   1.902   1.131 -0.2745 -0.0892  0.3388
  227SOL    HW2  681   0.605   1.906   0.956 -0.1522 -0.5346  1.1033
  228SOL     OW  682   0.200   1.985   0.644  0.1185 -0.3530  0.3206
  228SOL    HW1  683   0.286   1.966   0.598 -2.0783  1.4948  1.6850
  228SOL    HW2  684   0.171   2.077   0.614 -0.3422  0.4441 -0.8879
  229SOL     OW  685   2.839   0.139   3.090 -0.0829  0.4693  0.5333
  229SOL    HW1  686   2.746   0.151   3.049 -1.8034  0.3002 -0.3483
  229SOL    HW2  687   2.881   0.045   3.066 -0.9471 -1.8968 -1.0507
  230SOL     OW  688   2.341   0.959   0.369  0.8486  0.0255  0.1664
  230SOL    HW1  689   2.332   1.057   0.352  1.2256 -5.6302  1.0359
  230SOL    HW2  690   2.347   0.937   0.468  1.0535  0.0231 -0.6821
  231SOL     OW  691   1.866   1.501   3.032 -0.2254  0.0546  0.3768
  231SOL    HW1  692   1.893   1.502   0.001 -2.1427  0.7378  1.0144
  231SOL    HW2  693   1.921   1.576   2.986 -0.6587 -0.1731 -1.5810
  232SOL     OW  694   2.357   1.846   1.199  0.2283 -0.4304 -0.0537
  232SOL    HW1  695   2.380   1.746   1.195 -0.7167 -0.1046 -0.8723
  232SOL    HW2  696   2.274   1.861   1.259 -1.1498  0.7148  2.4400
  233SOL     OW  697   0.222   2.655   1.411 -0.1497  0.0030 -0.9429
  233SOL    HW1  698   0.247   2.669   1.509  0.5752 -0.2737  4.2203
  233SOL    HW2  699   0.184   2.731   1.361 -0.1985 -3.2049 -0.3649
  234SOL     OW  700   0.785   0.242   2.447 -0.5862  0.5526 -0.0034
  234SOL    HW1  701   0.870   0.183   2.447 -0.0928  0.0964 -0.9064
  234SOL    HW2  702   0.722   0.214   2.523  0.4423 -0.7677 -1.3208
  235SOL     OW  703   2.843   0.918   2.379 -0.3367 -0.0793  0.2181
  235SOL    HW1  704   2.923   0.934   2.321 -0.7488  2.7527  1.5187
  235SOL    HW2  705   2.807   0.824   2.358  2.3563 -2.3643  2.1339
  236SOL     OW  706   1.248   2.732   1.731  0.5214 -0.3166  0.3165
  236SOL    HW1  707   1.161   2.786   1.735 -0.4245 -0.9753  2.6486
  236SOL    HW2  708   1.241   2.658   1.800  0.8212  0.6041 -1.7800
  237SOL     OW  709   0.496   1.534   2.678  0.0803 -0.0612  0.1241
  237SOL    HW1  710   0.465   1.468   2.610 -1.0913  2.2988  0.0949
  237SOL    HW2  711   0.564   1.599   2.637  0.3655 -0.7213 -1.1831
  238SOL     OW  712   1.045   0.506   2.361  1.0668  0.7301  0.2400
  238SOL    HW1  713   1.032   0.586   2.296 -0.7818  1.4225 -0.4933
  238SOL    HW2  714   0.961   0.501   2.421 -3.6989 -0.4266  2.8737
  239SOL     OW  715   0.321   2.142   1.946 -0.1490  0.1171  0.0826
  239SOL    HW1  716   0.408   2.092   1.943 -1.5839 -0.6620 -1.1229
  239SOL    HW2  717   0.335   2.242   1.944  1.0223 -0.3162  0.9164
  240SOL     OW  718   2.572   2.948   0.597 -0.5760 -0.8002 -0.5004
  240SOL    HW1  719   2.591   2.957   0.701  0.6802  1.2939  0.9330
  240SOL    HW2  720   2.499   3.017   0.568  1.2349 -1.7121  1.2268
  241SOL     OW  721   0.130   1.031   0.234 -0.0999 -0.1649  0.0645
  241SOL    HW1  722   0.044   0.974   0.224  1.6373 -1.4112  0.9307
  241SOL    HW2  723   0.173   1.061   0.145  0.7810  1.6435 -0.2608
  242SOL     OW  724   1.722   2.604   1.653  0.2844  0.0737 -0.3990
  242SOL    HW1  725   1.817   2.559   1.647  0.8990 -1.2959 -0.1476
  242SOL    HW2  726   1.644   2.531   1.666  0.2401 -0.9483 -0.6470
  243SOL     OW  727   0.498   2.389   1.714  0.1695 -0.3881 -0.5397
  243SOL    HW1  728   0.593   2.383   1.745 -1.3600 -0.0823  0.9797
  243SOL    HW2  729   0.488   2.439   1.624 -0.7107  0.8163 -0.3709
  244SOL     OW  730   2.250   0.481   2.523 -0.2092 -0.5010 -0.6368
  244SOL    HW1  731   2.156   0.480   2.563 -1.2677 -2.1108  1.3829
  244SOL    HW2  732   2.281   0.574   2.501  2.4226  0.8801 -3.2767
  245SOL     OW  733   1.504   2.787   1.310 -0.5148  0.0188 -0.3324
  245SOL    HW1  734   1.534   2.869   1.365 -2.6052 -1.8987  3.9754
  245SOL    HW2  735   1.505   2.812   1.211  0.8500 -0.7533  0.0866
  246SOL     OW  736   1.455   2.990   0.793  0.2245  0.3340 -0.7754
  246SOL    HW1  737   1.377   3.055   0.784 -0.4165  0.0245 -0.7152
  246SOL    HW2  738   1.430   2.905   0.742 -2.1414  1.0363  2.3350
  247SOL     OW  739   1.741   0.485   1.968 -0.1710 -0.5410  0.1144
  247SOL    HW1  740   1.670   0.411   1.959 -2.2601 -0.2497  1.7864
  247SOL    HW2  741   1.809   0.486   1.892  0.5250  0.4880 -1.9461
  248SOL     OW  742   3.000   1.963   1.974  0.0657 -0.1233  0.1131
  248SOL    HW1  743   3.079   2.001   1.926 -2.0221  1.7111 -0.1864
  248SOL    HW2  744   2.981   1.869   1.937 -2.9120  0.3356 -0.3039
  249SOL     OW  745   0.011   0.188   0.426 -0.1619 -0.3637  0.3243
  249SOL    HW1  746   3.059   0.140   0.468 -3.1805 -0.5935 -1.4829
  249SOL    HW2  747   0.060   0.250   0.492  1.7357  3.4904 -3.6871
  250SOL     OW  748   2.700   3.092   2.410  0.1874  0.0914  0.3524
  250SOL    HW1  749   2.682   3.008   2.457  2.4356 -0.5609 -1.3130
  250SOL    HW2  750   2.621   3.117   2.348 -0.8732 -0.1919 -2.5891
  251SOL     OW  751   1.353   0.597   0.067 -0.4244 -0.5650  0.1167
  251SOL    HW1  752   1.335   0.503   0.030 -3.1850 -0.5863  0.7925
  251SOL    HW2  753   1.453   0.627   0.058  0.3248 -2.5961 -0.3598
  252SOL     OW  754   1.007   2.712   2.121 -0.3939 -0.1255  0.3135
  252SOL    HW1  755   1.091   2.687   2.168 -2.4916 -0.8022  0.6748
  252SOL    HW2  756   0.980   2.809   2.139 -1.2668 -1.0514  0.3835
  253SOL     OW  757   2.486   2.792   0.994  0.3097  0.0977  0.0506
  253SOL    HW1  758   2.411   2.867   0.982 -1.1803  2.2866 -3.0576
  253SOL    HW2  759   2.570   2.820   0.943 -1.1002 -2.5661 -1.3456
  254SOL     OW  760   2.556   1.277   0.990 -0.2504  0.2014  0.0400
  254SOL    HW1  761   2.508   1.188   0.983  0.6198 -3.1993 -1.9313
  254SOL    HW2  762   2.501   1.341   0.927 -0.6459 -1.6238  0.2404
  255SOL     OW  763   0.755   2.589   1.181  0.3449 -0.1170 -0.3407
  255SOL    HW1  764   0.780   2.687   1.198  1.0366 -1.6221  2.0123
  255SOL    HW2  765   0.777   2.571   1.081  1.7508  1.7157 -0.9299
  256SOL     OW  766   1.959   1.759   1.781 -0.1588  0.1489  0.1118
  256SOL    HW1  767   1.920   1.675   1.737 -1.8013 -0.6792 -1.5442
  256SOL    HW2  768   2.057   1.770   1.770 -1.8304 -0.8816  0.1411
  257SOL     OW  769   0.220   2.524   2.482  0.1584 -0.1454  0.1924
  257SOL    HW1  770   0.282   2.449   2.510 -1.5833  0.9415 -1.5495
  257SOL    HW2  771   0.177   2.562   2.563  0.7035 -0.5973  0.8611
  258SOL     OW  772   0.609   2.866   0.821 -0.7226  0.4039  0.7234
  258SOL    HW1  773   0.687   2.923   0.843 -0.9434 -0.8725 -1.9053
  258SOL    HW2  774   0.542   2.889   0.889  1.4604 -2.0407 -0.3636
  259SOL     OW  775   1.462   0.357   2.752 -0.7079 -0.1263 -0.7976
  259SOL    HW1  776   1.517   0.326   2.831  0.9419 -1.0921  0.6573
  259SOL    HW2  777   1.361   0.371   2.778 -0.2858 -1.2565  1.0419
  260SOL     OW  778   0.259   0.604   1.288 -0.3932 -0.8430 -0.0825
  260SOL    HW1  779   0.257   0.533   1.218  0.7663  3.5861 -0.4887
  260SOL    HW2  780   0.324   0.675   1.263 -0.5653 -1.1914 -1.9986
  261SOL     OW  781   0.418   0.110   2.170 -0.2447 -0.6024  0.5207
  261SOL    HW1  782   0.387   0.133   2.073 -3.3602  1.5846  1.0307
  261SOL    HW2  783   0.510   0.147   2.188  0.2951  0.6324 -1.0200
  262SOL     OW  784   0.937   2.763   1.758 -0.2202  0.0604 -0.3806
  262SOL    HW1  785   0.934   2.673   1.699 -0.4482 -1.1572 -2.2465
  262SOL    HW2  786   0.886   2.751   1.848  0.4145  1.6658  0.4046
  263SOL     OW  787   0.807   2.361   3.057  0.1424 -0.0452 -0.3058
  263SOL    HW1  788   0.898   2.340   3.096 -0.6779 -0.2715  0.7893
  263SOL    HW2  789   0.738   2.295   3.094  0.3501 -3.3442 -0.5564
  264SOL     OW  790   1.537   1.769   0.958 -0.0606 -0.9337 -0.1712
  264SOL    HW1  791   1.561   1.809   0.862  2.3182  1.5939 -1.7232
  264SOL    HW2  792   1.588   1.680   0.972  2.6960 -0.9038 -2.3542
  265SOL     OW  793   0.996   2.433   0.440 -0.0190 -0.3663 -0.9724
  265SOL    HW1  794   1.040   2.380   0.519 -0.4223 -0.3798  1.5309
  265SOL    HW2  795   0.973   2.528   0.470 -0.5620  1.7653  0.3155
  266SOL     OW  796   2.817   0.941   0.932  0.1104  0.4340 -0.1343
  266SOL    HW1  797   2.745   0.916   0.864  2.3982 -2.2069 -1.0558
  266SOL    HW2  798   2.912   0.932   0.892  3.2189  0.0955 -1.4439
  267SOL     OW  799   0.263   1.401   0.039  0.0053  0.0796 -0.1555
  267SOL    HW1  800   0.231   1.396   0.135 -1.7944 -1.4737  1.5712
  267SOL    HW2  801   0.302   1.496   0.021 -0.5778  1.1206 -1.8331
  268SOL     OW  802   1.572   0.151   0.324 -0.5537 -0.6878 -0.1386
  268SOL    HW1  803   1.616   0.057   0.329 -1.2178 -1.4602 -0.2848
  268SOL    HW2  804   1.617   0.207   0.396  0.3121  2.3230 -2.8130
  269SOL     OW  805   0.040   0.695   2.425 -0.2439 -0.7313  0.1214
  269SOL    HW1  806   0.087   0.750   2.351 -0.1846  1.1058  1.4061
  269SOL    HW2  807   3.104   0.621   2.375 -0.5521 -0.0281 -3.2231
  270SOL     OW  808   0.061   1.229   0.422  0.3075  0.3412 -0.0350
  270SOL    HW1  809   0.040   1.181   0.508  1.5342  0.4549 -0.1897
  270SOL    HW2  810   0.080   1.162   0.346 -2.6159  0.8919 -1.8773
  271SOL     OW  811   2.904   1.579   2.395 -0.0102 -0.3730 -0.2934
  271SOL    HW1  812   2.898   1.633   2.486 -1.1181  0.5131  1.7245
  271SOL    HW2  813   2.949   1.626   2.317  0.1576  1.8170  0.6208
  272SOL     OW  814   2.363   2.409   1.774 -0.0922  0.5077  0.2368
  272SOL    HW1  815   2.457   2.380   1.745 -0.9739 -0.9133  0.9505
  272SOL    HW2  816   2.366   2.414   1.876  0.4590  2.2481 -0.6235
  273SOL     OW  817   0.023   2.522   0.340  0.3165  0.0954  0.1537
  273SOL    HW1  818   0.113   2.568   0.343  1.5807 -0.7651  1.1705
  273SOL    HW2  819   0.031   2.419   0.331  0.1069 -1.9098  0.0330
  274SOL     OW  820   0.752   2.315   0.735 -0.0521 -0.2966 -0.3539
  274SOL    HW1  821   0.719   2.240   0.674 -2.6333 -0.1152 -0.9304
  274SOL    HW2  822   0.841   2.288   0.781 -0.4351 -0.0095  1.0352
  275SOL     OW  823   1.694   1.917   2.723  0.3082 -0.1417 -0.2242
  275SOL    HW1  824   1.778   1.865   2.712 -0.6333  0.0258 -0.9270
  275SOL    HW2  825   1.678   1.975   2.642 -2.0616  1.4416  0.6523
  276SOL     OW  826   2.314   1.507   1.887  0.0408  0.3084  0.5535
  276SOL    HW1  827   2.396   1.445   1.870  0.2878 -2.2629 -1.5704
  276SOL    HW2  828   2.291   1.527   1.984  0.1216 -0.3509 -1.7967
  277SOL     OW  829   2.427   0.345   1.043  0.1355 -0.0115 -0.0362
  277SOL    HW1  830   2.415   0.415   0.967  0.6771 -0.7003 -0.4114
  277SOL    HW2  831   2.376   0.373   1.127 -2.0256  0.6254 -1.5767
  278SOL     OW  832   1.629   0.573   2.704  0.3960 -0.1586  0.6639
  278SOL    HW1  833   1.573   0.490   2.700 -0.6034  0.9974 -0.2019
  278SOL    HW2  834   1.586   0.643   2.764  1.2370 -0.8469  2.0629
  279SOL     OW  835   1.092   2.871   1.072 -0.1361  0.3741 -0.1500
  279SOL    HW1  836   1.152   2.791   1.047  1.8010  0.3708 -1.7787
  279SOL    HW2  837   1.118   2.913   1.165  0.0552 -0.0980  3.8886
  280SOL     OW  838   1.388   1.220   0.313  0.0024 -0.0057  0.1863
  280SOL    HW1  839   1.406   1.132   0.351  1.3326  1.9156 -2.0823
  280SOL    HW2  840   1.441   1.229   0.231 -0.9648  0.0151  0.8968
  281SOL     OW  841   2.494   1.636   0.286  0.4423  0.5371 -0.3609
  281SOL    HW1  842   2.497   1.733   0.315  1.5815 -2.1244  0.3197
  281SOL    HW2  843   2.587   1.597   0.265 -0.8783 -0.2825  0.7019
  282SOL     OW  844   2.808   1.289   0.299 -0.4079 -0.5389 -0.1869
  282SOL    HW1  845   2.769   1.251   0.387 -1.5101  0.5217  0.6362
  282SOL    HW2  846   2.811   1.395   0.297 -0.2129 -0.0393  2.2594
  283SOL     OW  847   1.810   2.840   2.866 -0.2192 -0.4177 -0.1410
  283SOL    HW1  848   1.820   2.888   2.778  1.8524  0.9563 -0.5089
  283SOL    HW2  849   1.782   2.904   2.940  1.5266  0.1169  1.3908
  284SOL     OW  850   0.740   0.004   2.933  0.2510  0.3303 -0.2483
  284SOL    HW1  851   0.686   0.083   2.900 -1.2393 -1.4144 -0.4952
  284SOL    HW2  852   0.706   3.086   3.017 -1.0710  0.6641 -1.3528
  285SOL     OW  853   2.021   1.690   2.892 -0.0164  0.3854  0.2547
  285SOL    HW1  854   2.123   1.695   2.889  0.0616 -1.2556  0.0321
  285SOL    HW2  855   1.973   1.744   2.816 -0.2155 -0.2260  1.3446
  286SOL     OW  856   1.545   2.051   1.276  0.3174 -0.5226  0.0626
  286SOL    HW1  857   1.515   2.037   1.371  1.3524  0.7141 -2.5571
  286SOL    HW2  858   1.510   2.142   1.242  0.1952 -0.0435 -0.3092
  287SOL     OW  859   1.563   0.373   1.529 -0.1580  0.7168  0.5336
  287SOL    HW1  860   1.568   0.278   1.566  3.4035  0.3138  1.6438
  287SOL    HW2  861   1.508   0.386   1.442 -1.3075  2.5855 -4.1050
  288SOL     OW  862   0.559   2.785   2.084 -0.1639  0.0848  0.5921
  288SOL    HW1  863   0.559   2.845   2.167  0.0533  1.2589  1.2799
  288SOL    HW2  864   0.459   2.773   2.055 -2.4534 -1.1794 -2.9777
  289SOL     OW  865   0.333   1.584   0.910 -0.1343  0.3474 -0.3681
  289SOL    HW1  866   0.266   1.534   0.849 -1.4648  0.1907 -2.4798
  289SOL    HW2  867   0.317   1.682   0.896 -0.1276  0.7995 -1.7292
  290SOL     OW  868   0.985   1.968   1.937 -0.3199 -0.1721 -0.5306
  290SOL    HW1  869   1.087   1.983   1.931  0.9844  1.1047  0.7788
  290SOL    HW2  870   0.933   2.050   1.971 -2.1337 -1.7526  1.6583
  291SOL     OW  871   2.014   0.030   0.528  0.1389  0.2501  0.4048
  291SOL    HW1  872   2.008   3.084   0.593  1.8404 -0.0988 -0.0713
  291SOL    HW2  873   1.984   3.118   0.435 -0.9207  1.9127 -0.1645
  292SOL     OW  874   0.510   0.338   1.361 -0.0156  0.2409  0.4778
  292SOL    HW1  875   0.557   0.330   1.446 -2.1183 -1.3578 -1.7703
  292SOL    HW2  876   0.425   0.396   1.366 -2.5781  0.2628 -3.3562
  293SOL     OW  877   2.442   1.906   0.850  0.1326  0.5760  0.2210
  293SOL    HW1  878   2.527   1.861   0.814  4.1992 -2.9535 -0.7540
  293SOL    HW2  879   2.398   1.859   0.927  0.2403  1.0636 -2.6321
  294SOL     OW  880   0.184   0.182   2.307 -0.7003 -0.0493 -0.5875
  294SOL    HW1  881   0.150   0.110   2.371 -0.2692  3.4422 -0.7227
  294SOL    HW2  882   0.264   0.144   2.257  2.4084  0.3700  0.6179
  295SOL     OW  883   1.076   1.440   0.565 -0.0377 -0.3857  0.2119
  295SOL    HW1  884   1.161   1.434   0.621  0.6260 -2.6089  0.4936
  295SOL    HW2  885   1.083   1.367   0.500  0.1081  1.7521  1.0207
  296SOL     OW  886   1.915   1.684   1.178 -0.2556 -0.4046 -0.3168
  296SOL    HW1  887   1.963   1.686   1.091  1.4305 -2.9758 -0.2451
  296SOL    HW2  888   1.851   1.764   1.191 -0.4369 -0.9041  1.2966
  297SOL     OW  889   1.838   0.561   2.862  0.0906 -0.2535 -0.1031
  297SOL    HW1  890   1.854   0.654   2.904  1.5980 -1.7857  0.7348
  297SOL    HW2  891   1.768   0.569   2.790  2.1823  0.4970 -1.4181
  298SOL     OW  892   1.228   0.027   2.540  0.2304 -0.0302  0.0286
  298SOL    HW1  893   1.255   3.064   2.588  2.7967  1.5924 -1.3627
  298SOL    HW2  894   1.304   0.070   2.485 -0.8296  0.1460 -1.1870
  299SOL     OW  895   0.869   0.214   1.966  0.3031  0.4206  0.5796
  299SOL    HW1  896   0.964   0.192   1.995 -1.2487 -1.9189 -2.3831
  299SOL    HW2  897   0.852   0.162   1.882  0.0909 -0.8406  0.2456
  300SOL     OW  898   2.854   0.272   1.618  0.5010  0.5057 -0.5400
  300SOL    HW1  899   2.950   0.251   1.586  1.7275 -2.2131  3.3142
  300SOL    HW2  900   2.804   0.183   1.630 -3.3379 -0.5778 -0.1746
  301SOL     OW  901   1.928   0.773   1.852  0.2893  0.0473  0.2684
  301SOL    HW1  902   1.942   0.820   1.766  0.2966  3.2829  0.8035
  301SOL    HW2  903   1.914   0.673   1.834 -1.3742  0.5987 -0.2452
  302SOL     OW  904   0.707   2.992   0.046  0.7111  0.0750 -0.3451
  302SOL    HW1  905   0.635   3.066   0.073 -0.3598 -1.1216  0.7103
  302SOL    HW2  906   0.727   2.923   0.124 -0.6793 -0.2375 -0.8124
  303SOL     OW  907   1.875   1.982   1.896 -0.6195 -0.1525 -0.0658
  303SOL    HW1  908   1.873   2.060   1.833  2.6868 -2.4899 -2.7800
  303SOL    HW2  909   1.897   1.898   1.842 -0.2467  0.9288 -1.3018
  304SOL     OW  910   0.263   0.094   0.653  0.0824  0.2097 -0.5034
  304SOL    HW1  911   0.276   0.088   0.551  2.1294 -0.0770  2.3660
  304SOL    HW2  912   0.346   0.061   0.703  0.5500  1.0880  0.1110
  305SOL     OW  913   1.293   0.881   0.520  0.8389  0.7229  0.4573
  305SOL    HW1  914   1.361   0.907   0.452 -1.4674 -0.4042  2.3416
  305SOL    HW2  915   1.240   0.800   0.481 -1.7643  0.7429  1.6133
  306SOL     OW  916   0.579   1.529   0.072 -0.1759  0.0894 -0.6274
  306SOL    HW1  917   0.634   1.457   0.114  1.6997 -0.8246 -2.8553
  306SOL    HW2  918   0.586   1.618   0.119 -0.2894 -0.5922  2.0930
  307SOL     OW  919   0.873   0.493   1.995 -0.1097 -0.0194 -0.0963
  307SOL    HW1  920   0.834   0.536   2.076  1.0627 -2.0174  1.7670
  307SOL    HW2  921   0.875   0.393   1.989  0.6898  4.1503 -0.3885
  308SOL     OW  922   0.511   0.109   1.014 -0.5894 -0.1168  0.6665
  308SOL    HW1  923   0.478   0.199   0.977  1.2213  0.7598 -1.8492
  308SOL    HW2  924   0.597   0.125   1.057 -2.6763 -1.7454  0.3475
  309SOL     OW  925   2.334   1.226   0.307  0.1315  0.1840  0.0816
  309SOL    HW1  926   2.366   1.302   0.368  1.1235 -1.3097 -1.9330
  309SOL    HW2  927   2.244   1.242   0.267  3.1553 -1.3064 -1.3996
  310SOL     OW  928   1.158   1.392   0.065  0.1998  0.0862  0.0347
  310SOL    HW1  929   1.241   1.445   0.029 -0.6095  0.9171 -0.7213
  310SOL    HW2  930   1.100   1.455   0.118  1.6969  0.7642 -0.2296
  311SOL     OW  931   1.922   2.501   2.092  0.1870 -0.1219  0.7394
  311SOL    HW1  932   1.905   2.401   2.075 -0.8668 -3.4050  0.9119
  311SOL    HW2  933   1.826   2.539   2.095  0.6293  1.2539  1.1029
  312SOL     OW  934   2.455   3.002   0.155 -0.0957  0.2261 -0.6331
  312SOL    HW1  935   2.479   3.076   0.216 -0.2413 -2.1383 -0.7302
  312SOL    HW2  936   2.408   2.918   0.205 -0.8561 -2.7452 -0.4973
  313SOL     OW  937   0.661   0.575   3.123 -0.2693 -0.8377  0.1510
  313SOL    HW1  938   0.665   0.680   0.009  0.3991  2.1780 -2.1194
  313SOL    HW2  939   0.661   0.536   0.091  1.4708  0.7649 -2.9348
  314SOL     OW  940   2.680   1.411   2.741 -0.1258  0.1771 -0.2506
  314SOL    HW1  941   2.610   1.471   2.695  0.7577  0.3627 -0.1412
  314SOL    HW2  942   2.699   1.447   2.840 -1.2639 -1.0248 -2.0986
  315SOL     OW  943   1.644   0.725   2.096 -0.1021  0.1889 -0.1615
  315SOL    HW1  944   1.695   0.669   2.028 -0.1425 -1.4133  3.4850
  315SOL    HW2  945   1.699   0.752   2.178  1.8009 -1.2386  1.3686
  316SOL     OW  946   0.051   1.086   0.679 -0.0102 -0.2196 -0.8354
  316SOL    HW1  947   3.120   1.041   0.755  1.4679 -0.0390  1.5977
  316SOL    HW2  948   0.121   1.020   0.643  1.8053  2.3162  0.0495
  317SOL     OW  949   0.531   0.096   0.093  0.2405  0.0036 -0.4847
  317SOL    HW1  950   0.457   0.165   0.075 -0.3436 -0.9766  0.3015
  317SOL    HW2  951   0.586   0.135   0.167  1.0251 -4.1437  0.7084
  318SOL     OW  952   1.738   2.607   0.928  0.1844 -0.2730  0.5295
  318SOL    HW1  953   1.749   2.632   1.028 -0.4857 -1.5559  1.7065
  318SOL    HW2  954   1.793   2.521   0.900  2.1160 -1.1316 -1.7606
  319SOL     OW  955   1.368   1.465   0.451  0.0131 -0.0623  0.3017
  319SOL    HW1  956   1.369   1.375   0.403 -0.9143  2.9184  0.4709
  319SOL    HW2  957   1.420   1.534   0.394  2.7766  2.0921  0.8545
  320SOL     OW  958   0.790   2.090   1.054  0.1724  0.3186 -0.2927
  320SOL    HW1  959   0.708   2.134   1.013  1.7976 -1.3072  1.5105
  320SOL    HW2  960   0.789   2.103   1.156  1.5788 -0.7866 -0.3021
  321SOL     OW  961   2.362   2.410   2.060 -0.2163  0.5341 -0.0896
  321SOL    HW1  962   2.356   2.354   2.142  0.0176  0.9029  1.5163
  321SOL    HW2  963   2.299   2.493   2.063  0.7817  0.2365 -0.6896
  322SOL     OW  964   2.434   2.320   2.521 -0.6903 -0.2356 -0.7233
  322SOL    HW1  965   2.538   2.321   2.541  1.0533 -0.3646 -0.9212
  322SOL    HW2  966   2.389   2.399   2.565 -0.0828  0.7412 -1.8063
  323SOL     OW  967   2.622   0.838   0.751 -0.0068  0.1395 -0.2916
  323SOL    HW1  968   2.539   0.885   0.719 -0.0105 -0.5096 -0.6785
  323SOL    HW2  969   2.649   0.758   0.693  0.9461 -0.0724  1.6682
  324SOL     OW  970   2.362   2.209   2.265 -0.2292 -0.3389 -0.0681
  324SOL    HW1  971   2.353   2.224   2.364  0.2238  2.9900 -0.1588
  324SOL    HW2  972   2.435   2.141   2.244  0.2596  0.3939 -1.0281
  325SOL     OW  973   1.181   0.590   2.597 -0.2311 -0.1514  0.3142
  325SOL    HW1  974   1.159   0.543   2.505  1.3386 -2.2845 -1.5601
  325SOL    HW2  975   1.128   0.539   2.667 -1.0109  0.5153 -1.0101
  326SOL     OW  976   2.647   2.413   1.120 -0.2227 -0.0045  0.4411
  326SOL    HW1  977   2.662   2.517   1.128  1.4343  0.7956  0.4074
  326SOL    HW2  978   2.551   2.390   1.150 -0.0730  0.2674  0.3783
  327SOL     OW  979   2.708   2.909   0.146 -0.2101  0.2715  0.5034
  327SOL    HW1  980   2.621   2.956   0.164  1.8553 -1.3633  0.1917
  327SOL    HW2  981   2.720   2.877   0.047  0.6371  0.9228 -1.2920
  328SOL     OW  982   0.973   0.732   0.634  0.0485  0.0878  0.2843
  328SOL    HW1  983   0.943   0.673   0.709 -0.6833 -1.2115  0.6715
  328SOL    HW2  984   0.953   0.831   0.650 -1.9413 -0.9800 -1.6764
  329SOL     OW  985   2.110   0.894   1.314 -0.3587 -0.3483 -0.1035
  329SOL    HW1  986   2.062   0.977   1.300 -1.1374 -1.8572  0.9821
  329SOL    HW2  987   2.203   0.906   1.276  1.4627  2.2554 -0.1014
  330SOL     OW  988   0.897   0.621   0.392  0.2070  0.1976 -0.3406
  330SOL    HW1  989   0.910   0.692   0.318  0.5144  1.2037 -1.9849
  330SOL    HW2  990   0.912   0.653   0.486 -2.9300  2.6783  1.8789
  331SOL     OW  991   0.654   1.867   1.741 -0.4123 -0.0310  0.6574
  331SOL    HW1  992   0.642   1.805   1.824 -2.0534  0.5129  0.3168
  331SOL    HW2  993   0.748   1.864   1.699  0.7923 -0.6169  1.0751
  332SOL     OW  994   1.946   2.234   2.049 -0.3230 -0.1969 -0.3063
  332SOL    HW1  995   2.021   2.168   2.057  0.1685  0.5004  1.0189
  332SOL    HW2  996   1.900   2.234   1.961  1.0308  0.2871  2.8999
  333SOL     OW  997   3.024   3.036   1.000  0.3252 -0.2311  0.2380
  333SOL    HW1  998   2.998   3.109   1.060 -1.2170  1.5404 -3.3040
  333SOL    HW2  999   2.967   2.952   1.012 -0.9438 -0.6390  0.4712
  334SOL     OW 1000   0.041   1.730   0.811  0.6442 -0.6886 -0.1176
  334SOL    HW1 1001   0.124   1.779   0.834 -2.1328 -0.0365 -1.9310
  334SOL    HW2 1002   0.063   1.646   0.756 -1.8104  1.2218 -0.2357
  335SOL     OW 1003   0.376   2.547   2.848 -0.5243 -0.5880  0.5693
  335SOL    HW1 1004   0.453   2.482   2.868 -1.4515  0.7549  1.1310
  335SOL    HW2 1005   0.388   2.646   2.869 -1.5812 -0.0369 -0.4909
  336SOL     OW 1006   0.135   2.759   1.781  0.1192 -0.3179  0.1884
  336SOL    HW1 1007   0.077   2.696   1.726 -3.8006  0.6794  1.8846
  336SOL    HW2 1008   0.070   2.801   1.848 -0.8548 -1.5039 -1.0815
  337SOL     OW 1009   1.323   2.117   2.201 -0.0373  0.3702  0.3067
  337SOL    HW1 1010   1.371   2.207   2.209  0.0473  2.1075 -1.0343
  337SOL    HW2 1011   1.386   2.039   2.208 -1.3029  1.6688 -1.4770
  338SOL     OW 1012   1.001   0.096   2.418  0.6420  0.4979  0.3263
  338SOL    HW1 1013   0.954   0.009   2.391  1.3152 -0.5659 -2.0938
  338SOL    HW2 1014   1.079   0.074   2.474 -2.6976 -1.2988 -0.9147
  339SOL     OW 1015   0.323   1.006   2.594  0.1245 -0.1806 -0.1440
  339SOL    HW1 1016   0.281   0.927   2.644  0.9538 -2.7033 -0.1062
  339SOL    HW2 1017   0.245   1.073   2.573 -1.9669 -1.4572 -1.0458
  340SOL     OW 1018   2.147   0.628   1.407  0.5750  0.1691  0.1707
  340SOL    HW1 1019   2.151   0.729   1.386  0.1557  0.0835 -1.5965
  340SOL    HW2 1020   2.157   0.571   1.327  1.0175  1.6872  2.8815
  341SOL     OW 1021   2.125   1.171   1.104  0.0698  0.1608 -0.1636
  341SOL    HW1 1022   2.203   1.155   1.166 -2.5071  0.8400  1.3617
  341SOL    HW2 1023   2.093   1.084   1.069 -2.0422  0.2858 -1.7333
  342SOL     OW 1024   2.210   2.792   2.780  0.0055 -0.1188  0.3104
  342SOL    HW1 1025   2.143   2.856   2.821 -0.7294  2.8464 -1.1806
  342SOL    HW2 1026   2.164   2.705   2.757 -2.9515  1.8966 -2.5415
  343SOL     OW 1027   3.016   2.559   1.093 -0.2176 -0.1284  0.0648
  343SOL    HW1 1028   3.098   2.508   1.061 -3.3138  1.7009  0.0303
  343SOL    HW2 1029   2.994   2.528   1.190 -1.2231 -2.4384 -0.0085
  344SOL     OW 1030   2.282   2.972   0.937  0.1534 -0.6144  0.3954
  344SOL    HW1 1031   2.294   3.073   0.941  0.7367  1.5338 -0.5560
  344SOL    HW2 1032   2.254   2.948   0.843  0.8073  0.5156  1.0974
  345SOL     OW 1033   2.619   2.401   0.396 -0.2238 -0.1341  0.0739
  345SOL    HW1 1034   2.711   2.388   0.346  1.7244  0.5931 -1.2129
  345SOL    HW2 1035   2.615   2.496   0.432 -1.0776 -0.9612 -2.6430
  346SOL     OW 1036   1.507   2.135   1.827  0.0869  0.1323 -0.1729
  346SOL    HW1 1037   1.542   2.046   1.873  0.9847 -1.6654 -2.6346
  346SOL    HW2 1038   1.463   2.106   1.742 -0.0463 -0.1244  1.1966
  347SOL     OW 1039   1.233   2.069   1.936 -0.0956 -0.3429  0.1062
  347SOL    HW1 1040   1.251   2.117   2.027 -3.0193 -1.7815 -2.2520
  347SOL    HW2 1041   1.318   2.059   1.878  1.8987  0.9299  1.6145
  348SOL     OW 1042   0.884   1.740   1.599 -0.4682 -0.4357  0.9649
  348SOL    HW1 1043   0.794   1.715   1.556 -4.3990  0.5963 -0.6972
  348SOL    HW2 1044   0.906   1.844   1.602  1.8888  0.0253  2.3688
  349SOL     OW 1045   1.717   1.331   1.598  0.7675  0.0871 -0.3271
  349SOL    HW1 1046   1.792   1.395   1.575  0.9650 -0.5499  0.5341
  349SOL    HW2 1047   1.621   1.367   1.574 -1.0937  0.3391  0.4483
  350SOL     OW 1048   2.287   2.464   0.610 -0.0253  0.2626  0.2989
  350SOL    HW1 1049   2.381   2.506   0.615 -2.5553 -1.9631 -1.0623
  350SOL    HW2 1050   2.253   2.458   0.512  0.4131 -0.3110 -3.1470
  351SOL     OW 1051   0.151   3.012   1.678 -0.2142 -0.1630 -0.3409
  351SOL    HW1 1052   0.232   3.003   1.618 -2.4496  1.8805  0.8468
  351SOL    HW2 1053   0.113   2.918   1.690 -0.6620 -0.9320 -1.1750
  352SOL     OW 1054   0.681   1.141   0.544 -0.1132 -0.3256  0.4908
  352SOL    HW1 1055   0.720   1.068   0.603  0.4732  1.2080  1.6309
  352SOL    HW2 1056   0.578   1.142   0.559 -0.9410 -0.0969  0.1744
  353SOL     OW 1057   1.164   1.819   2.828  0.4531 -0.3757  0.2516
  353SOL    HW1 1058   1.179   1.861   2.918  0.3945 -1.5714  1.1041
  353SOL    HW2 1059   1.066   1.792   2.824  2.5362  0.7145  0.7073
  354SOL     OW 1060   1.749   2.740   1.880 -0.7504 -0.4628  0.0233
  354SOL    HW1 1061   1.739   2.686   1.967 -1.7660 -1.2189  2.2150
  354SOL    HW2 1062   1.731   2.686   1.793 -0.0656 -0.9626 -0.5928
  355SOL     OW 1063   2.099   1.073   3.073  0.1544 -0.0272 -0.3812
  355SOL    HW1 1064   2.161   1.092   2.992 -1.4155 -0.1449  0.1797
  355SOL    HW2 1065   2.011   1.125   3.062 -0.2359 -1.4711  0.1133
  356SOL     OW 1066   0.346   2.077   1.069 -0.6563 -0.0158  0.1050
  356SOL    HW1 1067   0.248   2.106   1.059 -0.8952  0.2762  3.9687
  356SOL    HW2 1068   0.355   2.009   1.147 -1.1519  1.5928 -2.9142
  357SOL     OW 1069   2.885   2.912   1.762  0.2105 -0.4900  0.2111
  357SOL    HW1 1070   2.907   2.812   1.755 -0.4574  0.7433  0.9466
  357SOL    HW2 1071   2.889   2.958   1.676  0.9507  0.4386  0.6653
  358SOL     OW 1072   2.353   1.710   1.501 -0.2990 -0.0181  0.1771
  358SOL    HW1 1073   2.277   1.745   1.445  3.5883  1.1023 -0.1961
  358SOL    HW2 1074   2.419   1.662   1.444 -1.7961  0.2744  1.5725
  359SOL     OW 1075   1.902   2.711   2.425  0.2485  0.1004 -0.6537
  359SOL    HW1 1076   1.814   2.681   2.389  3.2434  1.5876 -0.5879
  359SOL    HW2 1077   1.973   2.639   2.423  1.8809  0.1134  0.5667
  360SOL     OW 1078   1.043   3.024   0.849 -0.3347  0.1615 -0.1167
  360SOL    HW1 1079   0.943   3.011   0.839  2.3944 -1.7282 -0.7452
  360SOL    HW2 1080   1.074   2.995   0.938 -1.0032  0.7408 -1.1387
  361SOL     OW 1081   1.901   0.345   0.714  0.0829  0.3538  0.4894
  361SOL    HW1 1082   1.874   0.257   0.763 -1.5997  0.1786  4.3617
  361SOL    HW2 1083   1.849   0.420   0.759  0.0056 -0.1919 -0.6465
  362SOL     OW 1084   1.513   0.905   1.216 -0.5470  0.6535 -0.6035
  362SOL    HW1 1085   1.561   0.995   1.232  0.0437  1.0128 -2.2620
  362SOL    HW2 1086   1.428   0.918   1.168  3.3663  1.7918 -0.0597
  363SOL     OW 1087   1.971   1.603   2.085 -0.0795  0.0645  0.2125
  363SOL    HW1 1088   1.907   1.531   2.123 -3.9594 -0.6785  1.2659
  363SOL    HW2 1089   2.067   1.571   2.067  1.3844 -2.1210 -1.4605
  364SOL     OW 1090   0.757   0.750   1.243  0.0575 -0.1216 -0.0923
  364SOL    HW1 1091   0.713   0.778   1.155  1.6491 -0.8418 -0.4172
  364SOL    HW2 1092   0.751   0.648   1.261  0.3862 -0.0093 -0.4024
  365SOL     OW 1093   0.370   0.264   2.593 -0.2473  0.2852 -0.0515
  365SOL    HW1 1094   0.357   0.322   2.676 -0.1153  2.5295  1.4183
  365SOL    HW2 1095   0.294   0.283   2.524 -1.5739 -1.0934 -1.1762
  366SOL     OW 1096   2.277   1.738   2.796 -0.0930  0.3710 -0.0649
  366SOL    HW1 1097   2.348   1.673   2.767 -0.3103  0.3816 -0.3025
  366SOL    HW2 1098   2.311   1.828   2.803 -0.1302 -0.5426 -1.5972
  367SOL     OW 1099   2.672   2.542   2.855  0.0442  0.0666  0.3096
  367SOL    HW1 1100   2.687   2.568   2.956  0.1092 -0.8287  1.2674
  367SOL    HW2 1101   2.569   2.530   2.841 -2.9500  0.3709  1.4404
  368SOL     OW 1102   0.262   1.394   1.126 -0.4196  0.1353  0.3804
  368SOL    HW1 1103   0.165   1.383   1.117  0.9092  0.2283  0.2682
  368SOL    HW2 1104   0.295   1.448   1.045  0.7048  2.1977 -1.0858
  369SOL     OW 1105   0.492   2.979   2.282  0.0869 -0.3034 -0.3601
  369SOL    HW1 1106   0.561   2.999   2.358 -1.2047  0.3704  0.5971
  369SOL    HW2 1107   0.462   3.064   2.235  3.3952 -0.9731  1.0064
  370SOL     OW 1108   0.004   0.528   0.769 -0.0017 -0.3997 -0.7388
  370SOL    HW1 1109   3.120   0.577   0.677  2.4837 -0.6518 -0.2219
  370SOL    HW2 1110   3.036   0.512   0.810 -0.5153  0.5869  0.9088
  371SOL     OW 1111   1.353   2.423   1.534 -0.0289 -0.0349 -0.1488
  371SOL    HW1 1112   1.322   2.518   1.527 -1.4080  1.6904 -0.3962
  371SOL    HW2 1113   1.272   2.361   1.537  0.5311  1.4489  1.1608
  372SOL     OW 1114   2.870   0.170   2.474 -0.3149  0.6056 -0.6874
  372SOL    HW1 1115   2.794   0.098   2.468  0.9105  1.3168 -2.1628
  372SOL    HW2 1116   2.920   0.174   2.567 -0.2743  1.8551  2.2029
  373SOL     OW 1117   0.133   2.246   0.568  0.0391 -0.6265 -0.4079
  373SOL    HW1 1118   0.176   2.249   0.663 -2.0874 -2.1459 -2.0377
  373SOL    HW2 1119   0.044   2.296   0.576  1.8020  1.7125 -0.3956
  374SOL     OW 1120   0.182   2.937   2.729  0.3090  0.3367  0.0974
  374SOL    HW1 1121   0.233   3.016   2.765  1.8944 -1.3260 -0.1416
  374SOL    HW2 1122   0.238   2.886   2.657 -1.7032  0.3160  0.7380
  375SOL     OW 1123   0.610   0.145   2.637 -0.1531 -0.2164 -0.0872
  375SOL    HW1 1124   0.636   0.184   2.729 -0.0375  1.1084  1.3062
  375SOL    HW2 1125   0.524   0.186   2.603 -0.0422 -1.4505  0.8464
  376SOL     OW 1126   2.811   2.131   1.724 -0.4763 -0.0070  0.4694
  376SOL    HW1 1127   2.909   2.112   1.742  6.6847  0.9788  1.3888
  376SOL    HW2 1128   2.801   2.168   1.626 -0.9228 -0.1667  0.9420
  377SOL     OW 1129   1.263   2.894   2.704  0.0812  0.0117 -0.0435
  377SOL    HW1 1130   1.195   2.877   2.779  0.1504  0.6078 -0.0669
  377SOL    HW2 1131   1.363   2.876   2.720  2.9066  1.7964 -1.7421
  378SOL     OW 1132   3.068   0.444   2.669 -0.2092 -0.5136  0.5043
  378SOL    HW1 1133   0.027   0.493   2.691  0.3646  0.9836 -0.1302
  378SOL    HW2 1134   3.085   0.343   2.666  1.3898  1.5489  1.4740
  379SOL     OW 1135   0.798   1.180   0.271 -0.0834 -0.8991 -0.2132
  379SOL    HW1 1136   0.724   1.143   0.209 -0.5051 -0.7165  1.4046
  379SOL    HW2 1137   0.783   1.147   0.369  2.5255 -0.6375  0.6932
  380SOL     OW 1138   0.305   1.601   1.677  0.0361  1.0172 -0.6660
  380SOL    HW1 1139   0.345   1.692   1.652  0.3400  1.6982  0.0197
  380SOL    HW2 1140   0.285   1.546   1.593 -1.0879 -0.8643 -1.6293
  381SOL     OW 1141   0.224   1.126   2.278  0.3000 -0.0977 -0.2553
  381SOL    HW1 1142   0.317   1.100   2.308 -0.9692  0.8072 -0.9241
  381SOL    HW2 1143   0.229   1.188   2.196 -1.0009  0.7921 -2.9204
  382SOL     OW 1144   2.334   1.889   0.441 -0.5912  0.4654 -0.4596
  382SOL    HW1 1145   2.435   1.889   0.422 -1.5968 -1.9437  1.3282
  382SOL    HW2 1146   2.310   1.954   0.517 -1.0199 -0.9229  1.8038
  383SOL     OW 1147   0.478   1.927   0.019 -0.4332  0.2804 -0.4170
  383SOL    HW1 1148   0.503   1.868   0.102  1.3502 -3.0274  1.4215
  383SOL    HW2 1149   0.505   1.883   3.058  2.2684 -0.3318 -0.7808
  384SOL     OW 1150   0.601   2.204   2.312  0.2233 -0.2521 -0.6293
  384SOL    HW1 1151   0.661   2.197   2.394 -0.1704 -0.3725 -1.3073
  384SOL    HW2 1152   0.613   2.287   2.251 -2.6792  0.8692  1.3911
  385SOL     OW 1153   2.245   1.994   0.670 -0.0436  0.0652 -0.4374
  385SOL    HW1 1154   2.311   1.969   0.741 -1.7243  1.2284 -3.0930
  385SOL    HW2 1155   2.229   2.092   0.659  3.3468 -4.3290 -1.5207
  386SOL     OW 1156   2.344   1.069   1.240 -0.3381  0.2029 -0.7633
  386SOL    HW1 1157   2.371   1.049   1.146  0.1318 -0.4055 -0.9558
  386SOL    HW2 1158   2.425   1.075   1.304  1.9151  1.4705 -1.3158
  387SOL     OW 1159   3.062   1.256   2.242  0.1213  0.2081  0.7503
  387SOL    HW1 1160   3.036   1.291   2.335  1.4204 -0.7925 -0.3944
  387SOL    HW2 1161   3.107   1.330   2.190  2.4837  1.5581  0.5349
  388SOL     OW 1162   0.522   1.744   2.304  0.5346 -0.3041 -0.0551
  388SOL    HW1 1163   0.519   1.829   2.250  0.6181  1.4995  0.8194
  388SOL    HW2 1164   0.536   1.658   2.243  0.3139 -2.3094 -1.1181
  389SOL     OW 1165   0.817   0.995   2.059  0.1226 -0.4816  0.8708
  389SOL    HW1 1166   0.731   0.965   2.019 -2.0725  1.2409  0.0318
  389SOL    HW2 1167   0.900   0.953   2.018  3.4198 -0.2365 -1.0527
  390SOL     OW 1168   2.617   0.044   0.855 -0.3767 -0.3349 -0.7244
  390SOL    HW1 1169   2.521   0.054   0.832  0.7179 -0.2735  0.7359
  390SOL    HW2 1170   2.631   0.074   0.953 -0.2389 -0.1704  0.0456
  391SOL     OW 1171   1.454   1.638   1.267  0.0940 -0.4507 -0.1681
  391SOL    HW1 1172   1.536   1.579   1.258 -0.4530 -0.8841 -2.1282
  391SOL    HW2 1173   1.469   1.724   1.222 -2.9427 -4.7226  3.1305
  392SOL     OW 1174   2.747   2.643   3.102  0.5152  1.0640  0.0483
  392SOL    HW1 1175   2.753   2.734   3.058  1.1721  0.1697  1.2268
  392SOL    HW2 1176   2.837   2.614   0.009  1.2647 -1.3170 -1.4213
  393SOL     OW 1177   1.679   2.429   2.869  0.9211  0.5320  0.1246
  393SOL    HW1 1178   1.756   2.482   2.831 -0.1109 -1.3420  3.8288
  393SOL    HW2 1179   1.700   2.410   2.966  1.3047 -1.0715 -0.2058
  394SOL     OW 1180   2.930   2.531   2.468  0.0515 -0.3941  0.7617
  394SOL    HW1 1181   2.907   2.577   2.558 -0.7410  1.7564 -1.1040
  394SOL    HW2 1182   3.009   2.468   2.484 -1.9010  3.7408 -0.4986
  395SOL     OW 1183   0.116   0.341   0.609  0.3157 -0.1557  0.0144
  395SOL    HW1 1184   0.072   0.403   0.678 -1.3993  1.5854 -0.5857
  395SOL    HW2 1185   0.165   0.266   0.655 -0.4509  0.9925  0.0330
  396SOL     OW 1186   1.792   0.596   0.469 -0.3473 -0.0383 -0.3652
  396SOL    HW1 1187   1.805   0.629   0.563 -2.5030  2.3925 -0.6044
  396SOL    HW2 1188   1.784   0.497   0.466 -3.1938  0.0620  0.0898
  397SOL     OW 1189   0.353   0.615   2.230  0.9443  0.0073  0.0294
  397SOL    HW1 1190   0.433   0.556   2.206 -1.9433  0.7067  1.9966
  397SOL    HW2 1191   0.317   0.669   2.149 -0.2324  1.8399 -1.0653
  398SOL     OW 1192   0.998   3.022   0.375  0.1838 -0.1776 -0.0655
  398SOL    HW1 1193   1.054   2.997   0.284  1.0001 -0.8333 -0.3886
  398SOL    HW2 1194   0.953   3.114   0.366 -0.7188  1.8912 -1.7745
  399SOL     OW 1195   2.152   0.244   1.995 -0.0533  0.2203 -0.2696
  399SOL    HW1 1196   2.152   0.252   2.098 -0.9841 -2.5319  1.6926
  399SOL    HW2 1197   2.175   0.332   1.950  2.1855  1.6377  0.4532
  400SOL     OW 1198   0.805   2.235   2.516 -0.0033 -0.0068  0.2664
  400SOL    HW1 1199   0.757   2.244   2.604 -0.8605  0.8585 -1.8086
  400SOL    HW2 1200   0.857   2.317   2.483 -2.2844  2.6404 -2.3323
  401SOL     OW 1201   0.462   1.204   2.727 -0.0719 -0.5500 -0.0498
  401SOL    HW1 1202   0.467   1.234   2.824  1.6912  0.0128  1.4083
  401SOL    HW2 1203   0.400   1.123   2.715 -1.5813  1.8913 -0.1817
  402SOL     OW 1204   0.272   2.612   0.316 -0.2926 -0.0759 -0.0129
  402SOL    HW1 1205   0.301   2.605   0.219  0.2764  2.7800 -0.5449
  402SOL    HW2 1206   0.345   2.578   0.380 -0.9344  0.1872  0.4861
  403SOL     OW 1207   0.296   1.147   1.922  0.2744  0.1140 -0.8303
  403SOL    HW1 1208   0.339   1.060   1.951 -0.1522  2.5641 -0.3695
  403SOL    HW2 1209   0.316   1.165   1.820  0.1477  1.4274 -3.2705
  404SOL     OW 1210   2.716   2.393   2.423 -0.2133 -0.0182 -0.1812
  404SOL    HW1 1211   2.805   2.444   2.428  0.7145  0.8923 -3.7799
  404SOL    HW2 1212   2.669   2.413   2.335 -1.6250  0.2910 -1.2340
  405SOL     OW 1213   0.111   0.527   1.961 -0.5039  0.8846  0.3616
  405SOL    HW1 1214   0.131   0.488   2.049 -3.7216  0.9394 -3.6461
  405SOL    HW2 1215   0.055   0.461   1.903 -0.5459  1.0723  2.2656
  406SOL     OW 1216   1.274   1.509   2.677  0.0982  0.9185  0.5089
  406SOL    HW1 1217   1.308   1.571   2.754  0.1619  2.2387  1.6694
  406SOL    HW2 1218   1.251   1.570   2.597 -2.1655  1.5298  2.2626
  407SOL     OW 1219   1.680   0.958   2.854  0.8199 -0.1605 -0.1216
  407SOL    HW1 1220   1.644   1.053   2.869 -0.0852  0.6487  0.7459
  407SOL    HW2 1221   1.731   0.943   2.770 -2.4587 -2.4239  0.2704
  408SOL     OW 1222   0.264   2.900   2.437  0.0816  0.1484 -0.0846
  408SOL    HW1 1223   0.356   2.941   2.409  0.5056  0.2668 -1.4084
  408SOL    HW2 1224   0.229   2.825   2.378  2.8666  2.1128 -1.7473
  409SOL     OW 1225   0.054   2.155   1.086  0.2380  0.0038 -0.2728
  409SOL    HW1 1226   0.012   2.104   1.006  0.4036  1.9610 -3.4987
  409SOL    HW2 1227   0.014   2.123   1.174  0.0582 -0.2032 -1.1145
  410SOL     OW 1228   2.839   1.817   0.306  0.3017  0.3175  0.0873
  410SOL    HW1 1229   2.812   1.763   0.393 -4.7035 -1.2693  3.6023
  410SOL    HW2 1230   2.919   1.777   0.259  1.9585 -1.7454 -0.6959
  411SOL     OW 1231   2.961   0.132   1.143 -0.6223  0.1448 -0.0334
  411SOL    HW1 1232   2.898   0.167   1.216 -1.7376 -0.8470 -1.8747
  411SOL    HW2 1233   2.974   0.198   1.067 -2.5147 -0.6423 -0.5124
  412SOL     OW 1234   2.197   0.508   1.656  0.6441  0.0709 -0.2941
  412SOL    HW1 1235   2.193   0.410   1.631 -0.6910  2.5023  1.0181
  412SOL    HW2 1236   2.214   0.568   1.577 -2.1325 -1.1877  0.9166
  413SOL     OW 1237   0.533   0.476   2.085  0.5884 -0.2427  0.4920
  413SOL    HW1 1238   0.498   0.476   1.988 -0.9871 -1.3682 -1.9153
  413SOL    HW2 1239   0.597   0.401   2.105 -0.1937  0.5030 -1.1016
  414SOL     OW 1240   3.103   1.122   2.930 -0.2704  0.2087 -0.9890
  414SOL    HW1 1241   3.083   1.155   2.836  1.9800  1.2782 -0.6163
  414SOL    HW2 1242   3.039   1.166   2.998 -1.1210 -1.2890 -2.1015
  415SOL     OW 1243   0.759   2.781   2.998  0.2038 -0.2566 -0.3107
  415SOL    HW1 1244   0.835   2.735   3.048  2.1026 -1.9584  0.2367
  415SOL    HW2 1245   0.716   2.847   3.062 -0.4253 -0.8953 -1.3263
  416SOL     OW 1246   1.471   0.099   2.419  0.0988 -0.0812 -0.7742
  416SOL    HW1 1247   1.483   0.014   2.370  4.0031  0.0036  0.3694
  416SOL    HW2 1248   1.465   0.175   2.355  0.1555 -4.1010  1.8836
  417SOL     OW 1249   0.313   0.625   0.739  0.3380 -0.0612  0.1628
  417SOL    HW1 1250   0.376   0.546   0.725  1.6037 -0.8534  1.0635
  417SOL    HW2 1251   0.244   0.601   0.809  4.7714  1.0037  2.1898
  418SOL     OW 1252   2.721   0.259   0.684  0.0822  0.7997  0.0549
  418SOL    HW1 1253   2.695   0.191   0.756  0.0924 -1.0598  0.8458
  418SOL    HW2 1254   2.643   0.314   0.643  1.9796  3.0438  0.6745
  419SOL     OW 1255   0.311   2.880   0.381  0.3922 -0.3321  0.2490
  419SOL    HW1 1256   0.333   2.932   0.297  0.3167  1.8760 -1.3938
  419SOL    HW2 1257   0.302   2.784   0.355  3.1041 -1.3769 -1.4456
  420SOL     OW 1258   0.351   1.166   1.662 -0.3928  0.1053  0.1781
  420SOL    HW1 1259   0.311   1.078   1.629 -0.2988 -2.1640 -0.2301
  420SOL    HW2 1260   0.447   1.149   1.699  0.0483  1.2100  0.4086
  421SOL     OW 1261   1.943   2.460   0.835  0.5934 -0.4197  0.2922
  421SOL    HW1 1262   2.010   2.538   0.821  2.6839  2.2058  0.6193
  421SOL    HW2 1263   1.937   2.396   0.757  1.9915 -0.0100 -0.6181
  422SOL     OW 1264   0.130   0.483   1.506  0.1904 -0.2270  0.4053
  422SOL    HW1 1265   0.176   0.517   1.422  1.4306  0.2759 -0.1320
  422SOL    HW2 1266   0.185   0.492   1.590 -0.3918 -0.4737  0.2593
  423SOL     OW 1267   0.838   1.558   1.809 -0.8578  0.4182  0.3215
  423SOL    HW1 1268   0.835   1.597   1.717  0.4313  2.1751 -2.1027
  423SOL    HW2 1269   0.776   1.605   1.869  2.8041 -1.1145 -1.1673
  424SOL     OW 1270   1.906   2.246   0.341  0.0274 -0.6563 -0.4634
  424SOL    HW1 1271   1.915   2.279   0.248  0.5231 -1.6272  3.3455
  424SOL    HW2 1272   1.839   2.170   0.351  2.2911  0.3504  1.1726
  425SOL     OW 1273   2.764   2.949   1.997  0.3589  0.1544 -0.3596
  425SOL    HW1 1274   2.787   3.029   2.060 -0.5235 -2.9123  2.4514
  425SOL    HW2 1275   2.820   2.943   1.911  3.4512 -1.0324  1.0642
  426SOL     OW 1276   2.900   2.651   2.716 -0.5030 -0.0949  0.0162
  426SOL    HW1 1277   2.973   2.681   2.778 -1.9446 -0.4183 -0.1732
  426SOL    HW2 1278   2.819   2.632   2.775  0.7318 -0.5360  0.6881
  427SOL     OW 1279   1.110   0.367   0.261 -0.4296  0.3253 -0.6640
  427SOL    HW1 1280   1.073   0.377   0.166 -0.2333  0.5024 -0.8503
  427SOL    HW2 1281   1.061   0.303   0.318  1.4294 -0.8389 -1.4027
  428SOL     OW 1282   2.987   0.562   1.276  0.5426  0.2324 -0.1157
  428SOL    HW1 1283   3.057   0.550   1.204 -1.4932 -1.5101  0.6531
  428SOL    HW2 1284   2.953   0.470   1.304 -0.5337 -2.1745 -0.5805
  429SOL     OW 1285   2.023   0.012   1.232  0.2479  0.0337 -0.3122
  429SOL    HW1 1286   1.939   3.080   1.214 -0.9566 -3.0974 -0.6300
  429SOL    HW2 1287   2.113   3.086   1.220  0.7731  0.7025  3.3676
  430SOL     OW 1288   0.914   1.597   2.598 -0.1058 -0.2713 -0.3434
  430SOL    HW1 1289   0.922   1.638   2.692  0.8135  1.0136  2.5921
  430SOL    HW2 1290   0.826   1.617   2.550 -3.6479 -2.0974 -2.9876
  431SOL     OW 1291   2.733   1.804   1.244  0.0983 -0.0929 -0.3162
  431SOL    HW1 1292   2.737   1.763   1.339 -1.5894  1.8927  1.5186
  431SOL    HW2 1293   2.646   1.860   1.238 -4.7664  2.4896  2.9457
  432SOL     OW 1294   1.255   2.721   2.240  0.5930 -0.2553  0.0248
  432SOL    HW1 1295   1.318   2.768   2.172  2.5829  0.5013 -1.2543
  432SOL    HW2 1296   1.305   2.657   2.298 -1.9022 -2.7173 -1.4400
  433SOL     OW 1297   1.596   0.405   2.418  0.4804  0.5333  0.2634
  433SOL    HW1 1298   1.516   0.407   2.355  0.3397  0.9695 -1.2032
  433SOL    HW2 1299   1.601   0.481   2.485  0.1378 -1.3476 -0.4805
  434SOL     OW 1300   0.403   2.435   1.969  0.3466 -0.0376  0.2833
  434SOL    HW1 1301   0.419   2.430   1.869 -1.1762 -0.7533  0.6238
  434SOL    HW2 1302   0.362   2.525   1.990 -2.4441  2.7042 -0.7798
  435SOL     OW 1303   0.264   0.093   0.384  0.0560 -0.3710  0.3125
  435SOL    HW1 1304   0.163   0.112   0.403 -1.1007  1.4034  1.6477
  435SOL    HW2 1305   0.276   0.032   0.300  1.0510 -0.8006 -3.4266
  436SOL     OW 1306   0.487   1.025   2.368 -0.1362  0.2916  1.1753
  436SOL    HW1 1307   0.561   0.950   2.388  0.7625 -3.5309 -2.0686
  436SOL    HW2 1308   0.421   1.025   2.444  1.7601 -0.6626 -1.3537
  437SOL     OW 1309   0.723   2.632   2.621 -0.2217 -0.1679 -0.2508
  437SOL    HW1 1310   0.742   2.574   2.540  0.2186  2.7787 -0.1534
  437SOL    HW2 1311   0.667   2.578   2.690  0.6520 -0.5377  0.7507
  438SOL     OW 1312   0.994   1.029   0.751  0.1877  0.1933  0.1120
  438SOL    HW1 1313   1.025   1.046   0.848  0.8301  0.9809  1.6805
  438SOL    HW2 1314   1.049   1.089   0.688  0.9593 -0.2543  0.7202
  439SOL     OW 1315   2.664   1.451   2.290  0.2006 -0.3894  0.3824
  439SOL    HW1 1316   2.752   1.477   2.325 -1.0563 -2.6868  0.4959
  439SOL    HW2 1317   2.603   1.411   2.361  0.4828 -1.8760  3.2233
  440SOL     OW 1318   3.035   0.757   2.834  0.1509  0.0656  0.0085
  440SOL    HW1 1319   3.059   0.813   2.751 -2.0173 -1.3759 -0.3031
  440SOL    HW2 1320   3.015   0.660   2.797 -2.1261 -0.3506 -0.4684
  441SOL     OW 1321   1.139   2.222   1.566 -0.2835 -0.4773 -0.6291
  441SOL    HW1 1322   1.111   2.159   1.497  0.6331  2.6916 -1.6016
  441SOL    HW2 1323   1.064   2.245   1.630 -0.0526  2.0762 -0.8156
  442SOL     OW 1324   2.103   1.369   0.931 -0.0260 -0.2915  0.3440
  442SOL    HW1 1325   2.122   1.304   1.007 -0.0273  3.7649 -0.0247
  442SOL    HW2 1326   2.086   1.316   0.841 -0.9434  0.0359  1.6850
  443SOL     OW 1327   2.586   2.148   2.941 -0.5626  0.3436 -0.2496
  443SOL    HW1 1328   2.676   2.153   2.992  4.4887 -1.1673 -2.5967
  443SOL    HW2 1329   2.518   2.222   2.968 -1.9028  1.9410  0.0670
  444SOL     OW 1330   1.936   1.542   2.448  0.2452  0.1759  0.6133
  444SOL    HW1 1331   1.871   1.623   2.421 -1.6018  1.4635  0.7067
  444SOL    HW2 1332   2.008   1.574   2.504 -2.2478  0.1076  0.4662
  445SOL     OW 1333   0.134   2.182   2.132 -0.2340 -0.1797 -0.1882
  445SOL    HW1 1334   0.216   2.166   2.065  2.8701 -3.2546 -1.7635
  445SOL    HW2 1335   0.075   2.252   2.083  1.1781 -1.6658  1.0041
  446SOL     OW 1336   1.132   0.965   1.717  0.5625  0.1264  0.1463
  446SOL    HW1 1337   1.156   0.905   1.793 -1.0392  2.3800 -1.1029
  446SOL    HW2 1338   1.031   0.963   1.697 -2.1069 -0.8009  0.1622
  447SOL     OW 1339   1.186   1.133   0.551 -0.0539  0.1796  0.0874
  447SOL    HW1 1340   1.178   1.165   0.455 -2.4419  0.9831  0.7184
  447SOL    HW2 1341   1.234   1.045   0.540 -0.7850 -0.3461 -0.5312
  448SOL     OW 1342   0.728   1.163   2.695  0.3979  0.0176 -0.2409
  448SOL    HW1 1343   0.778   1.244   2.717 -1.8707 -0.6533 -2.1301
  448SOL    HW2 1344   0.624   1.180   2.694 -1.7454  1.0995 -0.5252
  449SOL     OW 1345   3.112   1.984   2.592  0.0953  0.3038 -0.2367
  449SOL    HW1 1346   0.019   2.052   2.524  1.3781 -2.0645  1.6689
  449SOL    HW2 1347   0.041   1.900   2.584  0.0142  1.9692  1.1203
  450SOL     OW 1348   2.248   1.569   2.140  0.2059 -0.0477  0.1604
  450SOL    HW1 1349   2.222   1.515   2.223 -1.0557  3.2894 -3.2847
  450SOL    HW2 1350   2.250   1.670   2.161  4.3532  0.6383  2.0169
  451SOL     OW 1351   2.629   1.515   1.390 -0.5363  0.1113 -0.1317
  451SOL    HW1 1352   2.676   1.594   1.431 -0.9984 -1.6690  0.6989
  451SOL    HW2 1353   2.693   1.443   1.352 -1.5306 -0.4169 -1.5910
  452SOL     OW 1354   0.988   1.243   1.178 -0.4035 -0.1266  0.4335
  452SOL    HW1 1355   0.910   1.181   1.175  3.3823 -1.6207  2.4249
  452SOL    HW2 1356   1.015   1.271   1.271 -2.7525 -1.6873  2.2039
  453SOL     OW 1357   0.597   1.591   0.862  0.8974  0.4327 -0.0308
  453SOL    HW1 1358   0.497   1.589   0.872  3.7304 -1.0259 -1.1235
  453SOL    HW2 1359   0.631   1.547   0.948 -0.7527  0.0686  1.6405
  454SOL     OW 1360   1.195   1.836   0.224 -0.4730 -0.1895  0.1258
  454SOL    HW1 1361   1.285   1.837   0.177 -0.5371 -0.9093  2.6304
  454SOL    HW2 1362   1.174   1.744   0.260 -1.6482 -1.5633  1.9251
  455SOL     OW 1363   1.904   0.685   1.053 -0.0521 -0.8062 -0.1141
  455SOL    HW1 1364   1.910   0.670   1.153  0.8328  1.6307 -0.7336
  455SOL    HW2 1365   1.941   0.777   1.027  0.7292 -0.9035  0.5587
  456SOL     OW 1366   1.850   2.974   0.927 -0.0726  0.6123 -0.6265
  456SOL    HW1 1367   1.801   2.915   0.859 -1.9345  1.3437  0.6696
  456SOL    HW2 1368   1.933   2.929   0.964 -0.1090  0.0960 -0.0228
  457SOL     OW 1369   2.084   0.587   2.746 -0.4501 -0.0416  0.2870
  457SOL    HW1 1370   2.000   0.547   2.783  1.5241  0.0491 -1.4826
  457SOL    HW2 1371   2.159   0.597   2.817  0.5270  0.1147 -1.4055
  458SOL     OW 1372   2.643   0.544   2.577 -0.1531  0.2692  0.1228
  458SOL    HW1 1373   2.655   0.629   2.634  0.3196 -5.0390  1.1602
  458SOL    HW2 1374   2.693   0.466   2.622 -0.4856 -1.2217  1.0397
  459SOL     OW 1375   2.577   1.294   2.074  0.2782 -0.1232  0.0366
  459SOL    HW1 1376   2.670   1.266   2.083 -2.0591  2.2358  0.4689
  459SOL    HW2 1377   2.557   1.391   2.099  0.6903 -0.4553  2.6603
  460SOL     OW 1378   0.692   0.825   0.089 -0.1221 -0.0276  0.6763
  460SOL    HW1 1379   0.675   0.924   0.088  1.1471 -2.1725  1.2730
  460SOL    HW2 1380   0.794   0.813   0.096  1.3942 -0.0647 -0.2102
  461SOL     OW 1381   0.173   2.375   3.095  0.4030  0.1054 -0.4987
  461SOL    HW1 1382   0.093   2.424   0.010 -1.6665 -0.0319 -0.9591
  461SOL    HW2 1383   0.185   2.278   0.007 -1.9551 -2.4777 -1.0724
  462SOL     OW 1384   0.444   3.047   1.899 -0.1474 -0.0679 -0.2879
  462SOL    HW1 1385   0.353   3.073   1.929  0.5593 -0.1710 -1.5330
  462SOL    HW2 1386   0.512   3.061   1.972 -2.1668  0.7983  0.4834
  463SOL     OW 1387   1.469   2.345   2.177  0.7249 -0.0187  0.3822
  463SOL    HW1 1388   1.555   2.289   2.163 -1.6429 -0.5041  4.2412
  463SOL    HW2 1389   1.456   2.409   2.097  2.3516 -0.9024 -0.2795
  464SOL     OW 1390   2.582   2.683   1.206  0.4335 -0.6034 -0.1145
  464SOL    HW1 1391   2.654   2.749   1.241  2.1384 -0.0229 -0.1806
  464SOL    HW2 1392   2.537   2.717   1.120  1.5865 -0.4074  2.2645
  465SOL     OW 1393   0.144   0.069   1.408 -0.3574  0.6245 -0.4515
  465SOL    HW1 1394   0.080   0.145   1.429 -1.4932 -1.4526 -1.1512
  465SOL    HW2 1395   0.187   0.024   1.486  0.3840 -0.0909  0.0584
  466SOL     OW 1396   1.071   2.398   2.411 -0.1058  0.5853 -0.1519
  466SOL    HW1 1397   1.156   2.454   2.384  2.6471  1.7964 -2.2094
  466SOL    HW2 1398   1.094   2.314   2.467  0.7997 -0.0562  0.4306
  467SOL     OW 1399   0.002   2.260   0.280 -0.1137  0.3421  0.1871
  467SOL    HW1 1400   3.045   2.234   0.337 -1.9376 -0.3630  0.5307
  467SOL    HW2 1401   0.051   2.178   0.239 -0.5587 -2.1879 -1.4504
  468SOL     OW 1402   2.022   1.877   3.085 -0.0230  0.1138 -0.0818
  468SOL    HW1 1403   2.028   1.814   3.009  1.2139  0.8402  2.2472
  468SOL    HW2 1404   2.111   1.923   3.104 -3.4602  1.3201  0.9913
  469SOL     OW 1405   1.078   2.204   0.616 -0.2814  0.2180  0.0449
  469SOL    HW1 1406   1.048   2.184   0.715 -0.6103 -2.2123 -0.1029
  469SOL    HW2 1407   1.177   2.233   0.616  2.1865 -1.9590  1.6370
  470SOL     OW 1408   2.045   0.955   0.934  0.2914 -0.0036  0.4824
  470SOL    HW1 1409   1.968   0.981   0.875 -1.1187 -0.9229  0.8651
  470SOL    HW2 1410   2.108   0.889   0.885 -3.0115  0.8517 -2.4614
  471SOL     OW 1411   0.587   2.183   3.105 -0.3333 -0.0875  0.5141
  471SOL    HW1 1412   0.576   2.089   0.020 -4.4826  0.3066  1.2259
  471SOL    HW2 1413   0.565   2.178   3.005 -0.3498 -2.4322 -2.0872
  472SOL     OW 1414   2.482   1.596   2.684  0.1660 -0.0961 -0.2697
  472SOL    HW1 1415   2.535   1.663   2.626 -3.2023 -0.1929  1.6162
  472SOL    HW2 1416   2.421   1.537   2.631 -2.5435  0.4994  1.6135
  473SOL     OW 1417   1.449   2.015   0.786  0.0295 -1.0115  0.0584
  473SOL    HW1 1418   1.415   2.092   0.738  0.4930  0.6854  0.7107
  473SOL    HW2 1419   1.481   2.044   0.877 -0.2214 -2.2911 -3.7092
  474SOL     OW 1420   2.996   0.283   0.926 -0.3630 -0.4313 -0.1822
  474SOL    HW1 1421   3.024   0.216   0.861 -1.8583  3.2195  3.5358
  474SOL    HW2 1422   2.926   0.340   0.879  2.3211 -0.6657 -0.4647
  475SOL     OW 1423   2.364   2.834   1.492 -0.1504 -0.1380 -0.1256
  475SOL    HW1 1424   2.336   2.795   1.585 -2.0243 -2.2854  0.7220
  475SOL    HW2 1425   2.329   2.777   1.413  1.2814  1.0571  0.7933
  476SOL     OW 1426   0.470   0.407   0.671  0.2674 -0.0639  0.6605
  476SOL    HW1 1427   0.449   0.351   0.588 -0.6005  1.0858 -0.3523
  476SOL    HW2 1428   0.572   0.405   0.694  1.5951  3.8889  1.0161
  477SOL     OW 1429   1.191   2.282   1.190 -0.0821 -0.1268  0.3467
  477SOL    HW1 1430   1.155   2.371   1.227 -1.7680  0.7884 -0.4989
  477SOL    HW2 1431   1.148   2.196   1.234  1.3635 -2.1060 -0.1458
  478SOL     OW 1432   1.124   2.541   2.865 -0.6041  0.0471  0.3071
  478SOL    HW1 1433   1.076   2.608   2.807  0.5765 -1.5074  0.3152
  478SOL    HW2 1434   1.179   2.474   2.802  0.5234  0.0966 -1.6904
  479SOL     OW 1435   2.758   1.013   1.876  0.2346 -0.2858 -0.3222
  479SOL    HW1 1436   2.770   1.096   1.929  0.2719 -0.2410  0.6110
  479SOL    HW2 1437   2.823   0.943   1.914  3.8712  0.3229 -0.5046
  480SOL     OW 1438   2.855   2.323   2.862  0.1626  0.1518 -0.0254
  480SOL    HW1 1439   2.948   2.327   2.819 -1.8322  0.0100  4.2494
  480SOL    HW2 1440   2.789   2.388   2.817 -5.0391  2.5360  0.8828
  481SOL     OW 1441   1.638   0.075   2.100 -0.0609 -0.6274 -0.3980
  481SOL    HW1 1442   1.732   0.062   2.135  1.2081 -0.0690 -1.2528
  481SOL    HW2 1443   1.614   0.175   2.098 -3.9583  3.7363  0.1387
  482SOL     OW 1444   1.520   2.243   2.785  0.5684  0.7448  0.6583
  482SOL    HW1 1445   1.602   2.302   2.803 -1.0720 -1.3305 -0.1089
  482SOL    HW2 1446   1.529   2.187   2.702  1.2663 -1.1239 -1.2770
  483SOL     OW 1447   0.976   2.742   2.726 -0.1668  0.0995  0.6005
  483SOL    HW1 1448   0.889   2.688   2.722  1.3221  0.2225  0.0543
  483SOL    HW2 1449   1.010   2.752   2.629 -1.4110 -3.1861 -2.7033
  484SOL     OW 1450   2.985   2.808   1.454 -0.4360  0.1727  0.6904
  484SOL    HW1 1451   3.033   2.734   1.498 -0.1642 -0.6493  0.5180
  484SOL    HW2 1452   3.041   2.850   1.381  1.2256 -0.8224  0.8297
  485SOL     OW 1453   2.262   0.666   0.339 -0.2994 -0.4239  0.4938
  485SOL    HW1 1454   2.170   0.654   0.304  0.2889  1.2022  2.3820
  485SOL    HW2 1455   2.282   0.763   0.369 -0.2169 -3.4322 -0.0933
  486SOL     OW 1456   2.325   2.663   2.326 -0.2503 -0.1086  0.2673
  486SOL    HW1 1457   2.360   2.760   2.312  2.5192  1.6479 -2.0521
  486SOL    HW2 1458   2.258   2.632   2.255  0.6476 -0.0771 -0.4182
  487SOL     OW 1459   1.412   0.585   0.626  1.0258  0.6437  0.1099
  487SOL    HW1 1460   1.369   0.616   0.540 -3.0172 -0.4544  1.8164
  487SOL    HW2 1461   1.445   0.490   0.597  0.7413 -2.2386 -0.8197
  488SOL     OW 1462   2.604   2.863   2.616  0.0232  0.1654  0.5905
  488SOL    HW1 1463   2.597   2.771   2.569 -1.7785 -3.4949 -1.4539
  488SOL    HW2 1464   2.575   2.853   2.710  1.0795  1.3350 -2.3022
  489SOL     OW 1465   1.664   3.028   0.285  0.0193 -0.2988  0.2912
  489SOL    HW1 1466   1.626   2.958   0.350 -0.3301 -2.9190 -0.4048
  489SOL    HW2 1467   1.760   3.003   0.278  1.0655 -0.5992  0.0071
  490SOL     OW 1468   1.858   0.318   3.019  0.0113 -0.0978 -0.2058
  490SOL    HW1 1469   1.816   0.341   3.111 -0.2808  4.3362 -1.4582
  490SOL    HW2 1470   1.856   0.402   2.963  0.5094  0.7952  2.1493
  491SOL     OW 1471   0.427   2.836   1.056  0.5819 -0.4890  0.4304
  491SOL    HW1 1472   0.373   2.752   1.064 -1.5982 -0.2944 -1.0752
  491SOL    HW2 1473   0.387   2.908   1.116 -1.0266  0.1024 -0.4959
  492SOL     OW 1474   1.749   2.816   0.726  0.0987  1.1768 -0.1291
  492SOL    HW1 1475   1.739   2.755   0.809  2.0856 -0.9382  0.8136
  492SOL    HW2 1476   1.691   2.782   0.648  1.0327  1.3316  0.6968
  493SOL     OW 1477   1.083   2.293   2.957 -0.4768 -0.4377 -0.8845
  493SOL    HW1 1478   1.110   2.386   2.928  0.6552  2.0824  1.4434
  493SOL    HW2 1479   1.081   2.283   3.060  0.4760  1.2186  1.2215
  494SOL     OW 1480   0.742   1.031   0.808  0.2131  0.0705  0.1329
  494SOL    HW1 1481   0.724   1.112   0.866 -1.0691  0.1584 -0.2688
  494SOL    HW2 1482   0.837   1.028   0.778  0.3279 -1.1863 -0.0534
  495SOL     OW 1483   2.698   0.480   1.658  0.6841  0.1373  0.3078
  495SOL    HW1 1484   2.745   0.391   1.639  1.7400  0.0041  0.1598
  495SOL    HW2 1485   2.762   0.544   1.706 -1.1214 -0.4839 -0.1549
  496SOL     OW 1486   2.155   2.531   2.476 -0.8064  0.4363  0.1631
  496SOL    HW1 1487   2.246   2.560   2.438  0.1076 -1.5465  3.6603
  496SOL    HW2 1488   2.104   2.466   2.415 -3.2750  0.7905  1.7549
  497SOL     OW 1489   1.705   1.423   2.772 -0.1898 -0.3659  0.0661
  497SOL    HW1 1490   1.782   1.365   2.751 -1.0965 -0.7605  2.9446
  497SOL    HW2 1491   1.728   1.488   2.843 -1.1106  0.1636 -0.6248
  498SOL     OW 1492   0.983   2.195   0.883  0.3211 -0.0667 -0.4583
  498SOL    HW1 1493   1.073   2.157   0.917  0.0198 -1.4752 -1.7566
  498SOL    HW2 1494   0.910   2.176   0.953 -3.2041  0.2944  0.1456
  499SOL     OW 1495   0.291   1.842   0.875 -0.0452 -0.1131 -0.3723
  499SOL    HW1 1496   0.266   1.897   0.792  0.0820 -1.6228  1.2889
  499SOL    HW2 1497   0.363   1.880   0.939  0.5471 -1.1982 -0.8466
  500SOL     OW 1498   1.285   2.676   0.239 -0.0703 -0.3712 -0.1777
  500SOL    HW1 1499   1.182   2.692   0.234 -1.0045  0.5799  0.8234
  500SOL    HW2 1500   1.335   2.760   0.263 -1.4391  1.0630  0.7948
  501SOL     OW 1501   1.959   2.898   0.589  0.0230  0.8614  0.2524
  501SOL    HW1 1502   1.885   2.864   0.651 -0.8735  0.1153 -0.8519
  501SOL    HW2 1503   1.935   2.877   0.496 -0.5753  0.7097  2.2620
  502SOL     OW 1504   0.249   0.373   1.138  0.1305  0.4659  0.7638
  502SOL    HW1 1505   0.194   0.281   1.153 -0.4401 -1.3342  1.0873
  502SOL    HW2 1506   0.312   0.363   1.058 -1.0136  1.0959  2.5812
  503SOL     OW 1507   2.006   3.008   1.734  0.3930 -0.3537 -0.1605
  503SOL    HW1 1508   1.974   3.052   1.822  0.7686 -0.9149  1.2362
  503SOL    HW2 1509   2.108   3.017   1.715  2.5292 -2.6164 -0.3309
  504SOL     OW 1510   1.883   1.002   2.020  0.1168  0.1165 -0.1346
  504SOL    HW1 1511   1.902   0.916   1.969 -0.8367 -0.6928 -1.6114
  504SOL    HW2 1512   1.783   1.007   2.016  0.9387  1.8764  0.0398
  505SOL     OW 1513   1.581   2.887   2.497 -0.0594 -0.0985  0.3375
  505SOL    HW1 1514   1.657   2.945   2.530 -2.2219  1.6777 -1.5925
  505SOL    HW2 1515   1.542   2.926   2.415  0.1094 -1.2923 -1.6509
  506SOL     OW 1516   0.368   0.593   1.639  0.1434  0.2290  0.2375
  506SOL    HW1 1517   0.302   0.644   1.699  1.1853 -2.1093  3.7708
  506SOL    HW2 1518   0.420   0.657   1.575  1.2509  1.5775  1.1491
  507SOL     OW 1519   1.733   0.387   0.130  0.2266  0.2914 -0.1578
  507SOL    HW1 1520   1.653   0.327   0.153 -0.5560 -0.4659  2.5172
  507SOL    HW2 1521   1.787   0.415   0.211 -0.6220 -0.3350 -0.2642
  508SOL     OW 1522   2.196   0.656   2.144 -0.5200  0.0044 -0.1296
  508SOL    HW1 1523   2.108   0.611   2.129  0.8649  3.3617 -0.5612
  508SOL    HW2 1524   2.203   0.739   2.084 -1.9616 -2.9938 -0.0958
  509SOL     OW 1525   0.692   1.883   2.759  0.0665 -0.1740 -0.2895
  509SOL    HW1 1526   0.614   1.938   2.736  2.4647  1.0627 -1.9141
  509SOL    HW2 1527   0.765   1.903   2.690 -0.3272 -0.5640 -3.1536
  510SOL     OW 1528   3.085   0.876   0.842  0.0464 -0.1480  0.2684
  510SOL    HW1 1529   3.098   0.796   0.779  1.6212 -1.9232  1.4158
  510SOL    HW2 1530   3.122   0.853   0.931 -2.4988  0.4185 -1.8293
  511SOL     OW 1531   1.669   1.472   1.205 -0.0066 -0.0568  0.3063
  511SOL    HW1 1532   1.754   1.494   1.258  2.0060  0.0422 -2.5159
  511SOL    HW2 1533   1.689   1.508   1.113  0.3508  0.2186 -2.2733
  512SOL     OW 1534   0.446   1.953   0.510 -0.1062  0.0266 -0.4065
  512SOL    HW1 1535   0.533   1.989   0.550 -0.5433 -0.8059  0.6308
  512SOL    HW2 1536   0.416   2.016   0.439  0.8102 -2.2213  0.5598
  513SOL     OW 1537   0.495   2.404   0.819  0.1475  0.6889 -0.1102
  513SOL    HW1 1538   0.439   2.489   0.805 -1.5530 -0.9802  0.5662
  513SOL    HW2 1539   0.577   2.403   0.759  1.8980  2.9221 -0.5604
  514SOL     OW 1540   0.715   2.068   0.571  0.6694 -0.1736 -0.0305
  514SOL    HW1 1541   0.754   1.984   0.614  0.3406  0.6394 -0.6808
  514SOL    HW2 1542   0.762   2.101   0.484  0.8462  1.1624 -1.1527
  515SOL     OW 1543   0.082   3.119   0.067 -0.1027  0.6107 -0.0513
  515SOL    HW1 1544   0.171   3.086   0.113  2.8536 -0.3726  2.5405
  515SOL    HW2 1545   0.006   3.109   0.133  0.2275 -2.1405 -0.6946
  516SOL     OW 1546   1.963   0.166   1.431 -0.2618  0.6622  0.6272
  516SOL    HW1 1547   1.902   0.233   1.385 -0.5387  1.0527  0.1673
  516SOL    HW2 1548   1.993   0.109   1.355 -4.7625 -0.4182 -0.2794
  517SOL     OW 1549   1.645   1.848   0.683  0.2939 -0.2031 -0.2779
  517SOL    HW1 1550   1.578   1.922   0.701  2.0538 -0.1897  1.6604
  517SOL    HW2 1551   1.730   1.898   0.656  0.0019 -0.3857 -1.1797
  518SOL     OW 1552   1.584   2.987   1.050 -0.5139 -0.5777  0.2484
  518SOL    HW1 1553   1.532   2.967   0.963 -3.6630 -1.0491 -0.5364
  518SOL    HW2 1554   1.680   3.006   1.021  3.9325  0.3414 -1.2512
  519SOL     OW 1555   2.949   2.314   3.105 -0.2041  0.1217  0.1133
  519SOL    HW1 1556   2.983   2.405   0.009 -0.6175 -0.5800 -1.0594
  519SOL    HW2 1557   2.909   2.315   3.009  0.0235  0.3703 -1.3735
  520SOL     OW 1558   1.944   2.118   2.469 -0.1224  0.2709  1.1749
  520SOL    HW1 1559   1.984   2.107   2.563 -0.6494  1.3340 -0.0195
  520SOL    HW2 1560   1.998   2.057   2.405 -0.6834 -0.2868 -1.1315
  521SOL     OW 1561   0.929   2.968   2.114  0.3712 -0.6248 -1.3379
  521SOL    HW1 1562   0.857   3.005   2.054  2.6414 -1.6706  0.8993
  521SOL    HW2 1563   0.903   2.973   2.211  1.1010  2.8113 -0.1457
  522SOL     OW 1564   0.286   2.700   2.002 -0.1748  0.5782  0.4293
  522SOL    HW1 1565   0.238   2.715   1.914 -2.6988 -0.7263 -0.6026
  522SOL    HW2 1566   0.214   2.705   2.079 -0.5699 -0.1114  2.1946
  523SOL     OW 1567   1.032   2.280   1.848  0.2488  0.3256 -0.2044
  523SOL    HW1 1568   0.940   2.238   1.839  2.0874  0.3697 -4.1973
  523SOL    HW2 1569   1.100   2.225   1.904 -2.8126  1.1696  0.0758
  524SOL     OW 1570   2.485   2.346   0.190 -0.0601  0.2153  0.1049
  524SOL    HW1 1571   2.489   2.250   0.158 -0.6651  0.2436 -1.2533
  524SOL    HW2 1572   2.527   2.358   0.281  0.4745  0.4000 -3.6596
  525SOL     OW 1573   2.810   0.883   2.965  0.0875 -0.7468  0.4257
  525SOL    HW1 1574   2.792   0.978   2.939  1.4190 -0.6106 -0.7641
  525SOL    HW2 1575   2.902   0.848   2.937  0.6840 -1.1250  3.3984
  526SOL     OW 1576   0.280   2.887   0.779  0.0753 -0.7334  0.3972
  526SOL    HW1 1577   0.205   2.877   0.712  0.9214 -0.0576  0.5134
  526SOL    HW2 1578   0.316   2.983   0.778  2.3257 -0.4526  1.9057
  527SOL     OW 1579   3.118   1.346   0.727 -0.8269 -0.6610 -0.9945
  527SOL    HW1 1580   0.027   1.249   0.719 -0.9885  3.7318  1.3957
  527SOL    HW2 1581   3.033   1.358   0.680 -1.3965  1.6138  0.2567
  528SOL     OW 1582   0.669   0.817   2.430  0.1446 -0.2483 -0.1615
  528SOL    HW1 1583   0.643   0.748   2.494  2.8385  0.3936 -4.2444
  528SOL    HW2 1584   0.753   0.869   2.461 -0.2315  2.3107  2.5236
  529SOL     OW 1585   1.019   1.583   0.214  0.0872  0.5322 -0.1390
  529SOL    HW1 1586   1.034   1.616   0.311 -2.1509 -0.3056 -0.7817
  529SOL    HW2 1587   0.941   1.519   0.207 -2.4562  3.2577 -0.5437
  530SOL     OW 1588   1.194   1.068   2.092  0.4875 -0.0915 -0.3979
  530SOL    HW1 1589   1.236   0.987   2.045 -0.4198  2.0960  2.2608
  530SOL    HW2 1590   1.135   1.038   2.173 -2.9252 -2.9583  2.0716
  531SOL     OW 1591   1.048   2.301   0.091  0.0400  0.2326  0.4249
  531SOL    HW1 1592   1.047   2.207   0.127  0.5961  0.1552 -0.7573
  531SOL    HW2 1593   1.109   2.361   0.150  0.0792 -0.6109 -4.4299
  532SOL     OW 1594   2.426   0.869   2.552  0.2013 -0.3672 -0.0885
  532SOL    HW1 1595   2.460   0.949   2.495 -2.1680  4.6806 -2.1216
  532SOL    HW2 1596   2.504   0.824   2.590 -0.9643 -0.5340  0.9702
  533SOL     OW 1597   3.094   0.157   1.993 -0.6048  0.0312  0.3645
  533SOL    HW1 1598   3.033   0.110   2.059  3.5536  1.2828 -2.2017
  533SOL    HW2 1599   3.044   0.238   1.959 -1.5437 -2.4650  0.4280
  534SOL     OW 1600   2.478   0.103   0.308 -0.3627 -0.0760  0.1264
  534SOL    HW1 1601   2.575   0.114   0.351  1.8379 -0.6552  2.3191
  534SOL    HW2 1602   2.446   0.186   0.250 -2.4967  2.7761 -3.2518
  535SOL     OW 1603   0.377   0.280   3.119 -0.1418 -0.1035  0.3834
  535SOL    HW1 1604   0.364   0.366   0.050 -2.7338  0.8094  0.4669
  535SOL    HW2 1605   0.289   0.248   3.081  3.9997  2.5903 -0.8770
  536SOL     OW 1606   0.908   1.993   1.656 -0.3945 -0.1954 -0.4966
  536SOL    HW1 1607   0.969   1.991   1.735  1.4105  2.0814  0.8701
  536SOL    HW2 1608   0.863   2.081   1.639  1.8828 -0.2203  0.8266
  537SOL     OW 1609   3.093   2.596   1.650 -0.3695  0.0157  0.7841
  537SOL    HW1 1610   2.992   2.610   1.654 -0.8677 -2.1296 -2.5969
  537SOL    HW2 1611   3.121   2.497   1.656 -0.0612 -1.9532  1.5780
  538SOL     OW 1612   0.548   2.303   0.378 -0.1388  0.5560 -0.1167
  538SOL    HW1 1613   0.635   2.251   0.389 -0.6492 -0.5932 -0.1663
  538SOL    HW2 1614   0.468   2.242   0.364  2.2480 -0.0839 -1.8264
  539SOL     OW 1615   2.191   1.139   2.301 -0.4504  0.1426  0.0898
  539SOL    HW1 1616   2.210   1.043   2.344 -0.8600 -2.6857  1.7340
  539SOL    HW2 1617   2.231   1.143   2.207  1.1627 -0.3475  1.8012
  540SOL     OW 1618   1.904   0.806   2.972 -0.2823 -0.0737  0.2577
  540SOL    HW1 1619   1.991   0.769   3.006 -1.2357  0.4129  0.9305
  540SOL    HW2 1620   1.910   0.902   2.951 -1.0497 -2.6881  0.9893
  541SOL     OW 1621   0.571   0.641   2.618 -0.9384 -0.5680 -0.2158
  541SOL    HW1 1622   0.481   0.637   2.578  0.5612 -0.5632 -0.7342
  541SOL    HW2 1623   0.570   0.620   2.719  1.1687  1.3999 -0.0896
  542SOL     OW 1624   1.441   2.522   1.952  0.1038  0.2337  0.5740
  542SOL    HW1 1625   1.343   2.517   1.920 -2.2115  0.3842 -0.2649
  542SOL    HW2 1626   1.499   2.472   1.882  2.7079  0.6099  1.4798
  543SOL     OW 1627   0.725   2.778   0.231  0.2183 -0.1451  0.1151
  543SOL    HW1 1628   0.668   2.691   0.229 -0.9901  0.6119  0.4875
  543SOL    HW2 1629   0.716   2.834   0.314  2.5821 -2.0520 -0.4526
  544SOL     OW 1630   2.778   1.899   2.323 -0.6384 -0.6863  0.0001
  544SOL    HW1 1631   2.752   1.990   2.290 -0.5883  1.0579  1.3735
  544SOL    HW2 1632   2.878   1.884   2.297 -0.9545  0.2520 -1.4782
  545SOL     OW 1633   1.376   1.660   1.923 -0.4215  0.4589  0.2438
  545SOL    HW1 1634   1.381   1.641   2.021 -0.0292  0.7962 -2.4857
  545SOL    HW2 1635   1.286   1.688   1.891  0.6920  1.1880 -0.5344
  546SOL     OW 1636   3.087   0.160   2.649 -0.2364 -0.7705 -0.4382
  546SOL    HW1 1637   3.089   0.087   2.720 -0.9220 -3.7513  0.2449
  546SOL    HW2 1638   0.008   0.125   2.564 -0.1409 -1.1118  0.6083
  547SOL     OW 1639   1.330   0.248   0.932  0.1468  0.4670  0.0379
  547SOL    HW1 1640   1.357   0.346   0.932 -0.1458 -0.0367 -1.9976
  547SOL    HW2 1641   1.403   0.197   0.981 -1.2323  1.4107 -0.0910
  548SOL     OW 1642   1.417   2.115   3.005  0.7142 -0.0483  0.0884
  548SOL    HW1 1643   1.465   2.150   3.087 -0.7644  0.3276 -3.8418
  548SOL    HW2 1644   1.452   2.152   2.912 -1.2278 -0.7288 -0.7515
  549SOL     OW 1645   2.246   0.905   0.098  0.0660  0.0437  0.3160
  549SOL    HW1 1646   2.197   0.975   0.039 -1.3740  1.1851  1.2416
  549SOL    HW2 1647   2.261   0.931   0.197 -2.0108  0.3097 -2.1055
  550SOL     OW 1648   2.640   2.114   0.781 -0.2595 -0.1299  0.3133
  550SOL    HW1 1649   2.671   2.203   0.820  1.5760 -0.3562  1.2522
  550SOL    HW2 1650   2.556   2.073   0.827 -5.0121 -0.9786 -1.3158
  551SOL     OW 1651   0.786   0.463   1.278  0.1427 -0.3918 -0.0077
  551SOL    HW1 1652   0.765   0.367   1.304 -3.8398 -2.7802  1.6530
  551SOL    HW2 1653   0.877   0.484   1.326 -0.4942 -0.5445 -0.1520
  552SOL     OW 1654   3.059   1.401   2.752 -0.6088  0.4830  0.1407
  552SOL    HW1 1655   0.031   1.398   2.794  3.7163  0.0101  0.8328
  552SOL    HW2 1656   2.988   1.442   2.812 -1.3016  0.9033 -0.7647
  553SOL     OW 1657   2.504   2.686   0.555  0.0294 -0.3218  0.7629
  553SOL    HW1 1658   2.585   2.656   0.615  0.2092 -0.6784 -2.3305
  553SOL    HW2 1659   2.503   2.786   0.550  1.2976 -0.9867 -0.8758
  554SOL     OW 1660   2.227   1.021   1.731 -0.8541  0.4560 -0.0159
  554SOL    HW1 1661   2.200   1.107   1.683 -1.0269 -2.0722 -1.8262
  554SOL    HW2 1662   2.326   1.001   1.729 -1.6284 -0.6011  1.4966
  555SOL     OW 1663   1.040   2.191   2.236  0.3526  0.7280  0.3077
  555SOL    HW1 1664   1.131   2.150   2.249  0.6279  0.5105 -1.1804
  555SOL    HW2 1665   1.011   2.251   2.311 -2.5940  0.0209  0.0210
  556SOL     OW 1666   1.121   1.223   1.884  0.6235 -0.2004 -0.3361
  556SOL    HW1 1667   1.193   1.283   1.848 -1.1278  1.4944  0.4158
  556SOL    HW2 1668   1.157   1.158   1.951 -0.7036  0.7631  4.4163
  557SOL     OW 1669   1.348   0.260   1.267 -0.1905 -0.2124 -0.1439
  557SOL    HW1 1670   1.404   0.344   1.259  2.9041  1.1939  0.7352
  557SOL    HW2 1671   1.245   0.273   1.265 -1.8665  0.3511 -1.1294
  558SOL     OW 1672   0.694   0.265   2.182  0.4384 -0.2338 -0.0623
  558SOL    HW1 1673   0.727   0.271   2.278  1.0425  2.0775  0.2500
  558SOL    HW2 1674   0.777   0.260   2.119 -1.6362 -0.2208  0.5272
  559SOL     OW 1675   1.530   2.809   0.439  0.6466  0.3921 -0.7425
  559SOL    HW1 1676   1.468   2.782   0.510 -0.5529 -0.4879  0.2975
  559SOL    HW2 1677   1.562   2.731   0.378  0.8897 -1.1227  6.4652
  560SOL     OW 1678   1.559   2.176   0.121  0.3204  0.0153 -0.1192
  560SOL    HW1 1679   1.611   2.106   0.173  3.6389 -0.9083  2.6561
  560SOL    HW2 1680   1.601   2.258   0.149 -3.4622 -1.9104  0.3448
  561SOL     OW 1681   1.611   0.121   0.723  0.3210  0.2378  0.3699
  561SOL    HW1 1682   1.698   0.134   0.769  1.7377 -1.7870 -1.5177
  561SOL    HW2 1683   1.574   0.027   0.730 -0.4435 -1.9864 -1.9417
  562SOL     OW 1684   0.578   0.880   1.932  0.2486 -0.3085  0.0724
  562SOL    HW1 1685   0.631   0.801   1.907 -2.1149 -0.4829  0.0978
  562SOL    HW2 1686   0.595   0.962   1.873 -1.0067  0.9513 -1.3673
  563SOL     OW 1687   1.274   2.377   2.741  0.4373  0.4450 -0.0713
  563SOL    HW1 1688   1.245   2.307   2.680  0.3304 -0.4288  1.3636
  563SOL    HW2 1689   1.359   2.346   2.792  1.1399 -3.5164  0.4264
  564SOL     OW 1690   2.837   0.689   1.066  0.5092  0.4072  0.0350
  564SOL    HW1 1691   2.905   0.644   1.129 -3.2072  0.3617  2.1651
  564SOL    HW2 1692   2.842   0.792   1.061 -0.9969 -0.7168  2.1066
  565SOL     OW 1693   1.164   1.113   0.013  0.4331  0.8397 -0.1417
  565SOL    HW1 1694   1.192   1.212   3.124  1.7509 -0.3290  2.9226
  565SOL    HW2 1695   1.242   1.061   0.049 -2.3143  1.7681 -2.5652
  566SOL     OW 1696   2.226   2.703   0.046 -0.1531  0.3036 -0.0350
  566SOL    HW1 1697   2.322   2.672   0.049 -3.9805  1.3761  0.0849
  566SOL    HW2 1698   2.210   2.805   0.056  0.4008  1.5426 -0.1680
  567SOL     OW 1699   1.686   1.097   1.331 -0.0115 -0.2100  0.2312
  567SOL    HW1 1700   1.673   1.193   1.373  2.0947  5.2233  0.8587
  567SOL    HW2 1701   1.716   1.025   1.404 -0.0335  0.3902  1.3895
  568SOL     OW 1702   1.511   1.368   2.592  0.4113  0.2808  0.1645
  568SOL    HW1 1703   1.429   1.418   2.626 -0.9615  1.0912  1.5606
  568SOL    HW2 1704   1.601   1.386   2.645  4.1807 -2.3656  0.5803
  569SOL     OW 1705   2.066   1.790   0.715 -0.6948  0.5806 -0.2374
  569SOL    HW1 1706   2.141   1.857   0.686  3.6529 -2.1782 -0.7615
  569SOL    HW2 1707   1.982   1.843   0.719  1.2480  2.2960 -1.0318
  570SOL     OW 1708   2.776   2.172   2.244  0.5134 -0.1738  0.0997
  570SOL    HW1 1709   2.816   2.218   2.155 -0.5453  0.0920  0.8257
  570SOL    HW2 1710   2.772   2.236   2.325 -0.5950  0.5191  2.2499
  571SOL     OW 1711   2.583   1.772   1.724  0.1402  0.5189 -0.2954
  571SOL    HW1 1712   2.593   1.856   1.774 -1.3617  1.0376 -0.5323
  571SOL    HW2 1713   2.524   1.782   1.640  1.7918 -1.0018 -2.0347
  572SOL     OW 1714   1.515   2.641   0.049 -0.3823 -0.0492  0.2680
  572SOL    HW1 1715   1.436   2.651   0.113 -0.9099 -2.8976 -0.4217
  572SOL    HW2 1716   1.480   2.629   3.079  1.5048  1.3155  0.2005
  573SOL     OW 1717   1.760   1.896   1.252  0.3518 -0.0238 -0.3197
  573SOL    HW1 1718   1.821   1.900   1.334 -0.3783 -0.7036 -0.6032
  573SOL    HW2 1719   1.672   1.945   1.275 -0.8573  1.8265 -1.1952
  574SOL     OW 1720   1.119   2.972   1.333 -0.1686  0.1916 -0.1138
  574SOL    HW1 1721   1.086   2.910   1.400  1.3650  2.1124 -0.5617
  574SOL    HW2 1722   1.177   3.047   1.361 -2.7623 -0.3848 -1.3138
  575SOL     OW 1723   0.893   0.643   0.899  0.0470  0.2197 -0.1169
  575SOL    HW1 1724   0.977   0.663   0.953  2.6752  2.0432 -1.5760
  575SOL    HW2 1725   0.808   0.692   0.929  0.4390  3.0314  0.1207
  576SOL     OW 1726   2.534   0.482   1.415 -0.1009 -0.5350 -0.5539
  576SOL    HW1 1727   2.536   0.541   1.328  0.4437  0.9933 -2.2669
  576SOL    HW2 1728   2.600   0.502   1.486 -2.5815  0.7056 -2.2403
  577SOL     OW 1729   2.430   0.350   2.696 -0.6597 -0.0794  0.8316
  577SOL    HW1 1730   2.497   0.409   2.742  0.3727 -3.0445  2.0498
  577SOL    HW2 1731   2.378   0.399   2.621 -0.3972 -0.6927 -0.7061
  578SOL     OW 1732   1.951   1.867   2.134  0.1548  0.1948  0.5287
  578SOL    HW1 1733   1.960   1.771   2.100 -0.0867 -0.7819 -2.3340
  578SOL    HW2 1734   1.944   1.935   2.059  0.2509  0.5823  1.3498
  579SOL     OW 1735   0.855   1.685   1.214  0.4308  0.0090  0.1393
  579SOL    HW1 1736   0.900   1.760   1.160 -1.4624  3.3300  0.8262
  579SOL    HW2 1737   0.869   1.597   1.169 -0.2889  0.1508  1.5406
  580SOL     OW 1738   1.399   2.626   2.918 -0.1803 -0.2063  0.5066
  580SOL    HW1 1739   1.323   2.571   2.882 -0.9577  0.7174 -1.1377
  580SOL    HW2 1740   1.435   2.688   2.843 -1.7281 -0.1571 -0.8128
  581SOL     OW 1741   0.705   0.675   2.167  0.2887  0.2683 -0.5186
  581SOL    HW1 1742   0.676   0.714   2.260 -2.2393  1.6133  2.2001
  581SOL    HW2 1743   0.633   0.612   2.130  2.8258 -0.6031 -0.1451
  582SOL     OW 1744   0.426   0.805   0.934  0.1495  0.1992 -0.4692
  582SOL    HW1 1745   0.397   0.734   0.862 -4.6367  0.2852  0.7385
  582SOL    HW2 1746   0.416   0.899   0.902  0.5216  0.5162  1.4046
  583SOL     OW 1747   0.681   1.681   1.976  0.2713  0.0041  0.1177
  583SOL    HW1 1748   0.724   1.754   2.033  1.3374  2.1783  2.1348
  583SOL    HW2 1749   0.604   1.636   2.027  0.7874 -1.6520  1.1002
  584SOL     OW 1750   2.366   2.763   0.334  0.3583  0.5924  0.4159
  584SOL    HW1 1751   2.279   2.716   0.315 -0.6599 -0.6561  1.9314
  584SOL    HW2 1752   2.400   2.734   0.425 -0.6651  2.1472 -2.0320
  585SOL     OW 1753   2.264   0.599   2.974 -0.3562 -0.1967 -0.0607
  585SOL    HW1 1754   2.323   0.681   2.984  2.1102 -0.7937  0.6479
  585SOL    HW2 1755   2.185   0.614   3.032  3.3245 -1.3268  0.7927
  586SOL     OW 1756   0.577   1.764   0.209 -0.2952  0.1877 -0.4743
  586SOL    HW1 1757   0.508   1.723   0.268  1.3650 -0.5188 -1.7733
  586SOL    HW2 1758   0.665   1.774   0.266 -0.7164  0.6333  1.2959
  587SOL     OW 1759   1.562   2.180   0.971 -0.0941  0.2609 -0.4754
  587SOL    HW1 1760   1.640   2.120   0.992 -0.2348 -0.7524  0.6367
  587SOL    HW2 1761   1.535   2.233   1.053 -0.9689  1.6164 -0.5558
  588SOL     OW 1762   0.396   0.352   0.914 -0.3889  0.2630  0.2665
  588SOL    HW1 1763   0.467   0.408   0.971 -1.2757  1.0790  2.1146
  588SOL    HW2 1764   0.406   0.371   0.813  1.2983 -0.2616 -4.3866
  589SOL     OW 1765   1.497   0.114   1.082  0.4024 -0.1514 -0.3186
  589SOL    HW1 1766   1.517   0.012   1.077  0.4720  0.0514  1.9206
  589SOL    HW2 1767   1.440   0.138   1.171 -2.7077  0.5892 -0.7679
  590SOL     OW 1768   1.473   0.967   0.341  0.6032  0.2297  0.2120
  590SOL    HW1 1769   1.543   0.895   0.316  3.2492  2.5653  1.1565
  590SOL    HW2 1770   1.399   0.981   0.270  0.1813 -3.5848 -0.0092
  591SOL     OW 1771   2.196   2.120   2.055 -0.0857  0.1454 -0.3806
  591SOL    HW1 1772   2.253   2.166   2.126 -0.1602 -0.4204  0.0262
  591SOL    HW2 1773   2.251   2.051   2.003  3.0655 -1.6124  2.1239
  592SOL     OW 1774   1.507   1.824   1.464  0.2235  0.4667  0.0986
  592SOL    HW1 1775   1.597   1.798   1.504  0.1277  1.5600  3.1980
  592SOL    HW2 1776   1.472   1.744   1.412  1.7040 -0.4104  0.1855
  593SOL     OW 1777   0.883   0.142   0.423  0.0991 -0.1899  0.4126
  593SOL    HW1 1778   0.809   0.103   0.481  3.2337 -0.1254  1.3635
  593SOL    HW2 1779   0.913   0.227   0.462 -1.3255  0.5709 -2.1697
  594SOL     OW 1780   0.308   0.826   2.025 -0.4524  0.0420  0.1986
  594SOL    HW1 1781   0.281   0.794   1.931  1.8719  0.6454 -5.3504
  594SOL    HW2 1782   0.409   0.838   2.034 -0.9591 -0.0686  1.3241
  595SOL     OW 1783   2.697   2.881   0.862  0.5005 -0.2295  0.4207
  595SOL    HW1 1784   2.710   2.979   0.879 -0.1868  0.8960  1.8246
  595SOL    HW2 1785   2.768   2.826   0.911 -1.6201  0.1880 -0.0466
  596SOL     OW 1786   3.099   0.241   1.533 -0.1006 -0.5593 -0.6522
  596SOL    HW1 1787   0.033   0.321   1.507  2.2893 -0.2345 -0.0124
  596SOL    HW2 1788   0.016   0.191   1.616 -2.9842 -1.0013  2.2977
  597SOL     OW 1789   2.301   1.156   0.695 -0.4363 -0.7202  0.2088
  597SOL    HW1 1790   2.368   1.235   0.678  4.5119  1.3483 -1.8736
  597SOL    HW2 1791   2.204   1.190   0.677  0.0990  0.6295  0.1280
  598SOL     OW 1792   0.503   0.087   1.662  0.2658 -0.2378  0.0217
  598SOL    HW1 1793   0.460   0.038   1.742 -0.4525 -0.7304 -0.5873
  598SOL    HW2 1794   0.433   0.147   1.615 -2.1118 -1.3805 -1.9235
  599SOL     OW 1795   2.763   1.513   2.979  0.4403  0.0505  0.1004
  599SOL    HW1 1796   2.836   1.449   3.000 -0.8642 -0.0662  0.9483
  599SOL    HW2 1797   2.687   1.495   3.049 -0.1488  0.4467  3.0534
  600SOL     OW 1798   0.965   0.948   3.106 -0.4875 -0.2868  0.1935
  600SOL    HW1 1799   0.898   1.017   3.072  1.9893 -0.6241  1.8298
  600SOL    HW2 1800   1.046   1.001   0.020 -0.6688  2.5775  0.7704
  601SOL     OW 1801   1.167   1.230   2.732  0.5110  0.1009  0.7976
  601SOL    HW1 1802   1.197   1.321   2.688  0.1372  1.5651 -2.4335
  601SOL    HW2 1803   1.081   1.245   2.780 -0.1468 -0.7594  0.6579
  602SOL     OW 1804   1.307   0.025   1.400  0.5465  0.0344  0.3533
  602SOL    HW1 1805   1.397   3.110   1.420 -1.9892  1.1870  2.4399
  602SOL    HW2 1806   1.328   0.115   1.355  0.1156  1.1014 -0.5448
  603SOL     OW 1807   0.883   2.985   2.382 -0.6075  0.2012 -0.1227
  603SOL    HW1 1808   0.794   2.992   2.433 -0.2246 -1.4578 -2.5104
  603SOL    HW2 1809   0.950   2.933   2.436 -1.2498 -1.2685  0.8823
  604SOL     OW 1810   2.915   0.029   2.158  0.1161 -0.6705  0.4338
  604SOL    HW1 1811   2.868   0.109   2.191  1.4326 -2.2596  1.8838
  604SOL    HW2 1812   2.938   3.093   2.236 -2.2332  0.9255  1.1729
  605SOL     OW 1813   2.323   2.369   1.402 -0.5455  0.2095  0.0977
  605SOL    HW1 1814   2.352   2.276   1.433 -0.1014  1.5063 -0.0633
  605SOL    HW2 1815   2.225   2.379   1.425 -0.5912 -0.7779  0.7831
  606SOL     OW 1816   3.053   1.762   2.886 -0.2083  0.2154 -0.6294
  606SOL    HW1 1817   3.111   1.846   2.872 -0.1769  0.3711  0.3129
  606SOL    HW2 1818   3.007   1.740   2.803  2.1782 -0.3771  0.0535
  607SOL     OW 1819   0.987   0.381   0.548 -0.4649  0.2854 -0.7710
  607SOL    HW1 1820   1.076   0.343   0.571  0.6749  1.8445 -0.7688
  607SOL    HW2 1821   0.992   0.465   0.491 -0.5829 -0.7046  0.5077
  608SOL     OW 1822   1.589   1.514   2.352  0.3305 -0.1149  0.4624
  608SOL    HW1 1823   1.565   1.465   2.438 -2.0360 -1.1921  0.0902
  608SOL    HW2 1824   1.626   1.606   2.373  1.5927 -0.7572 -1.4113
  609SOL     OW 1825   2.829   0.495   0.862  0.0911  0.2485 -0.5415
  609SOL    HW1 1826   2.807   0.558   0.940 -0.9308  2.5748  0.3816
  609SOL    HW2 1827   2.778   0.524   0.780  2.0269  0.7624  0.0942
  610SOL     OW 1828   0.610   2.538   3.002  0.5826 -0.0758  0.0762
  610SOL    HW1 1829   0.655   2.630   2.999 -0.9412  1.8405  2.1508
  610SOL    HW2 1830   0.678   2.463   3.028  1.6707 -2.5488 -1.0361
  611SOL     OW 1831   1.892   1.459   0.629 -0.3171  0.1506  0.4548
  611SOL    HW1 1832   1.977   1.510   0.612 -0.4805 -1.9526  2.3378
  611SOL    HW2 1833   1.809   1.526   0.621 -1.8199 -0.3277 -0.1978
  612SOL     OW 1834   0.814   2.494   2.387 -0.8196  0.5503 -0.0587
  612SOL    HW1 1835   0.913   2.477   2.409  1.6677  1.4836  2.5921
  612SOL    HW2 1836   0.804   2.505   2.288 -0.0636  0.3784 -0.7165
  613SOL     OW 1837   1.436   1.836   0.104  0.1922 -0.3854 -0.1468
  613SOL    HW1 1838   1.492   1.770   0.155 -2.0304  2.6119 -3.4128
  613SOL    HW2 1839   1.481   1.844   0.014 -2.7751 -0.4912  2.3293
  614SOL     OW 1840   2.636   2.383   1.745 -0.1393 -0.0191  0.3577
  614SOL    HW1 1841   2.658   2.459   1.814 -0.7468  0.1455  1.8295
  614SOL    HW2 1842   2.702   2.308   1.738 -0.2174  1.1637  1.1260
  615SOL     OW 1843   2.247   1.408   3.048  0.4384 -0.3210 -0.3516
  615SOL    HW1 1844   2.302   1.494   3.068  1.1709  0.6843  0.9968
  615SOL    HW2 1845   2.276   1.336   3.112  1.0669 -0.1434 -0.4606
  616SOL     OW 1846   1.723   0.276   1.052  0.5179  0.4039  0.7425
  616SOL    HW1 1847   1.763   0.304   1.141 -0.4204 -1.9681 -0.1312
  616SOL    HW2 1848   1.627   0.244   1.076 -0.3635  1.7890  2.2818
  617SOL     OW 1849   0.799   1.133   3.002 -0.1306 -0.4171  0.5471
  617SOL    HW1 1850   0.757   1.129   2.909 -3.2302 -2.9176 -0.8701
  617SOL    HW2 1851   0.834   1.226   3.024  1.6527 -3.3387 -2.6605
  618SOL     OW 1852   0.489   0.773   1.482 -0.4898 -0.5181 -0.2822
  618SOL    HW1 1853   0.476   0.778   1.383  2.5861 -0.4308  2.9587
  618SOL    HW2 1854   0.582   0.790   1.506 -1.4375 -1.1963  0.1763
  619SOL     OW 1855   0.008   0.934   1.740 -0.4038 -0.2109  0.1744
  619SOL    HW1 1856   0.087   0.928   1.681 -0.4401  0.9989  1.6689
  619SOL    HW2 1857   3.048   0.974   1.690 -1.8343  3.2950 -2.8649
  620SOL     OW 1858   1.856   1.213   3.035  0.1825 -0.1760 -0.2593
  620SOL    HW1 1859   1.780   1.198   2.966 -0.9732  0.7003  1.4678
  620SOL    HW2 1860   1.860   1.310   3.057 -2.6928 -1.9410 -0.4661
  621SOL     OW 1861   2.463   0.053   1.225  0.2978 -0.2437  0.2143
  621SOL    HW1 1862   2.540   0.083   1.168  2.2285  0.0239  1.5959
  621SOL    HW2 1863   2.430   0.136   1.275 -0.0422  1.8796  0.2575
  622SOL     OW 1864   1.385   0.748   2.164 -0.4418  0.6600  0.5384
  622SOL    HW1 1865   1.475   0.719   2.122 -2.2811  1.1178  1.1249
  622SOL    HW2 1866   1.389   0.742   2.263  2.2442  0.6130 -1.9494
  623SOL     OW 1867   0.956   0.544   2.770 -0.3645 -0.1058 -0.4185
  623SOL    HW1 1868   0.926   0.549   2.673  1.6667 -0.8352 -0.7590
  623SOL    HW2 1869   0.971   0.635   2.808 -1.6920  2.1479 -0.5586
  624SOL     OW 1870   1.735   0.333   0.483 -0.3073 -0.5272  0.2855
  624SOL    HW1 1871   1.649   0.350   0.529  2.8683  2.5569 -3.0963
  624SOL    HW2 1872   1.806   0.299   0.544 -0.7059  0.7705 -3.7124
  625SOL     OW 1873   0.845   1.486   0.715  0.4077  0.3571  0.3157
  625SOL    HW1 1874   0.848   1.562   0.780  0.6115  0.6656 -1.4723
  625SOL    HW2 1875   0.933   1.461   0.667  1.2459 -3.2406  0.0115
  626SOL     OW 1876   1.604   1.203   2.926 -0.1095 -0.1110  0.2547
  626SOL    HW1 1877   1.515   1.175   2.944  3.5197  2.0373 -0.9253
  626SOL    HW2 1878   1.609   1.291   2.881 -0.0216  1.3399  1.4033
  627SOL     OW 1879   0.804   0.025   1.762  0.0595 -0.5042  0.6709
  627SOL    HW1 1880   0.863   3.089   1.711 -4.1788  2.5380  0.3662
  627SOL    HW2 1881   0.748   0.087   1.705 -0.4155 -2.8924 -1.8084
  628SOL     OW 1882   2.533   0.294   2.393  0.5708  0.0344 -0.1260
  628SOL    HW1 1883   2.493   0.375   2.346  3.1633 -4.0444  5.1833
  628SOL    HW2 1884   2.564   0.321   2.488 -2.2918  0.7128  2.2409
  629SOL     OW 1885   0.908   1.400   3.057  0.4832 -0.3654  0.3951
  629SOL    HW1 1886   1.006   1.406   3.084 -2.2940  2.2137 -1.2231
  629SOL    HW2 1887   0.848   1.446   0.002  0.4291  1.4170 -1.5452
  630SOL     OW 1888   1.138   0.271   2.277 -0.3108 -0.3953  0.4523
  630SOL    HW1 1889   1.109   0.358   2.314  1.6305  0.2237 -0.6605
  630SOL    HW2 1890   1.086   0.204   2.328 -1.5229  1.4550 -0.3464
  631SOL     OW 1891   2.791   1.416   0.955  0.5103 -0.2284  0.1956
  631SOL    HW1 1892   2.819   1.465   1.039  0.8612 -1.7776  1.7720
  631SOL    HW2 1893   2.713   1.358   0.974 -2.8755  1.8466  1.6958
  632SOL     OW 1894   2.646   1.552   0.782 -0.5098  0.2749 -0.0316
  632SOL    HW1 1895   2.708   1.495   0.842  2.4297 -0.6898  3.1928
  632SOL    HW2 1896   2.671   1.651   0.784  1.0594  0.4122 -0.7690
  633SOL     OW 1897   1.134   1.126   0.981  0.3680  0.2248  0.1803
  633SOL    HW1 1898   1.219   1.170   0.939  1.4330 -2.4454  0.1727
  633SOL    HW2 1899   1.094   1.188   1.051 -0.0750 -1.9822  1.2074
  634SOL     OW 1900   1.829   0.127   0.866  0.1507  0.3559  0.0929
  634SOL    HW1 1901   1.795   0.185   0.943 -1.3943 -3.0380 -0.3200
  634SOL    HW2 1902   1.839   0.030   0.891 -0.3767  0.2084 -0.6998
  635SOL     OW 1903   1.878   0.637   1.339  0.3973  0.1061 -0.1227
  635SOL    HW1 1904   1.978   0.634   1.357 -2.0882  0.0619  3.7636
  635SOL    HW2 1905   1.816   0.638   1.418 -2.5457  0.1969 -1.1928
  636SOL     OW 1906   1.394   0.828   0.758  0.4330  0.1381  0.1187
  636SOL    HW1 1907   1.355   0.863   0.674 -1.3924 -2.6653  3.2961
  636SOL    HW2 1908   1.420   0.730   0.745 -0.7826  2.2907 -1.6282
  637SOL     OW 1909   1.663   2.434   0.160 -0.1679  0.3615 -0.3815
  637SOL    HW1 1910   1.618   2.499   0.097  0.2855  0.8672  0.2728
  637SOL    HW2 1911   1.763   2.428   0.137 -2.2916 -0.3859 -1.0115
  638SOL     OW 1912   1.108   2.907   2.955  0.3402 -0.5717 -0.3428
  638SOL    HW1 1913   1.065   2.821   2.979 -1.6549  2.2907  0.5160
  638SOL    HW2 1914   1.035   2.977   2.928  0.2867  3.8654 -0.4005
  639SOL     OW 1915   1.054   2.076   1.299 -0.2691  0.3603  0.0702
  639SOL    HW1 1916   1.085   1.980   1.299 -2.4148  1.1663  0.2916
  639SOL    HW2 1917   0.952   2.079   1.294 -0.3090 -0.0864 -0.4035
  640SOL     OW 1918   0.336   3.057   0.175  0.3339  0.7547 -0.1704
  640SOL    HW1 1919   0.325   2.970   0.121 -1.7868  0.0555 -0.3665
  640SOL    HW2 1920   0.412   3.115   0.149 -0.8363 -0.1835  1.1021
  641SOL     OW 1921   3.120   0.361   0.204 -0.5976  0.7375 -0.0879
  641SOL    HW1 1922   3.114   0.297   0.285 -1.2605  2.0469  0.4157
  641SOL    HW2 1923   0.042   0.447   0.235  1.5832 -0.9040  2.2907
  642SOL     OW 1924   0.519   1.585   1.139 -0.6901  0.1460 -0.1990
  642SOL    HW1 1925   0.541   1.682   1.129  0.8152  0.9364 -0.9370
  642SOL    HW2 1926   0.425   1.572   1.109  1.6998  1.5029  0.8793
  643SOL     OW 1927   0.840   1.958   2.546  0.1485 -0.4194  0.0929
  643SOL    HW1 1928   0.930   1.908   2.535  3.0351  0.3805  0.4353
  643SOL    HW2 1929   0.841   2.057   2.516  1.8778 -0.5679 -0.2746
  644SOL     OW 1930   1.689   2.611   0.355 -0.2435  0.0875  0.3064
  644SOL    HW1 1931   1.677   2.536   0.283  3.2637 -1.0253 -2.1878
  644SOL    HW2 1932   1.643   2.588   0.442  0.1025  0.4783  0.3130
  645SOL     OW 1933   1.808   2.265   1.819  0.2240 -0.4834 -0.1577
  645SOL    HW1 1934   1.715   2.262   1.775  4.1448 -0.5414  1.3001
  645SOL    HW2 1935   1.865   2.339   1.772 -0.9076  0.6623 -0.2186
  646SOL     OW 1936   1.004   2.738   0.266  0.1570 -0.0198 -0.3473
  646SOL    HW1 1937   1.006   2.793   0.350 -1.5687 -1.4408  1.1008
  646SOL    HW2 1938   0.908   2.733   0.234 -0.6397  1.2815 -2.0205
  647SOL     OW 1939   0.146   3.073   2.083 -0.0859 -0.0596 -0.4392
  647SOL    HW1 1940   0.105   0.033   2.069  0.6681 -2.3314 -0.4284
  647SOL    HW2 1941   0.205   3.076   2.166  1.3681  0.4911 -0.0759
  648SOL     OW 1942   2.808   1.180   0.800  0.6349  0.0531 -0.5283
  648SOL    HW1 1943   2.813   1.099   0.862  1.0634  1.5759 -0.5938
  648SOL    HW2 1944   2.820   1.268   0.855 -0.5713 -0.9288  1.3251
  649SOL     OW 1945   1.852   2.611   2.721  0.1083 -0.5467 -0.1104
  649SOL    HW1 1946   1.868   2.645   2.627 -1.2899  1.9229  1.7678
  649SOL    HW2 1947   1.821   2.691   2.779 -0.7410  1.3148 -1.5471
  650SOL     OW 1948   2.533   1.365   1.797  0.3396 -0.0902  0.0451
  650SOL    HW1 1949   2.527   1.300   1.873  1.0296 -0.0051 -0.1013
  650SOL    HW2 1950   2.607   1.339   1.732 -0.3617  0.3427 -1.9796
  651SOL     OW 1951   1.335   1.636   2.898 -0.1456 -0.0243 -0.1685
  651SOL    HW1 1952   1.246   1.689   2.910  0.5275  1.3217 -1.2010
  651SOL    HW2 1953   1.412   1.698   2.896 -1.2816 -1.6883  0.3617
  652SOL     OW 1954   0.629   3.005   2.527 -0.2298  0.2522 -0.4217
  652SOL    HW1 1955   0.639   2.947   2.610 -0.5884 -0.1200  2.4804
  652SOL    HW2 1956   0.608   3.102   2.549 -0.5718  1.5415 -0.6426
  653SOL     OW 1957   2.186   2.232   0.991 -0.5260 -0.3280 -0.0016
  653SOL    HW1 1958   2.266   2.261   1.041 -2.1747 -1.6570  0.1020
  653SOL    HW2 1959   2.101   2.266   1.044 -0.4416  2.4258  0.8145
  654SOL     OW 1960   2.653   2.789   2.187 -0.0999 -0.1667 -0.3713
  654SOL    HW1 1961   2.594   2.847   2.246  1.4239  0.3430  1.8948
  654SOL    HW2 1962   2.686   2.838   2.101  0.8459  1.5944  1.0373
  655SOL     OW 1963   2.770   2.240   1.491  0.0238 -0.2725 -0.1553
  655SOL    HW1 1964   2.756   2.212   1.394 -0.2208 -0.3477  0.9998
  655SOL    HW2 1965   2.780   2.343   1.493 -0.5603  3.4594 -0.2173
  656SOL     OW 1966   2.842   1.797   3.082 -0.2438 -0.2079  0.0420
  656SOL    HW1 1967   2.933   1.756   3.064 -0.4426  0.3285 -0.3514
  656SOL    HW2 1968   2.772   1.735   3.039 -0.5061 -1.7623 -1.5242
  657SOL     OW 1969   0.390   1.172   0.562 -0.1283  0.2648  0.0555
  657SOL    HW1 1970   0.358   1.266   0.545 -0.4763  0.1464 -0.4424
  657SOL    HW2 1971   0.401   1.112   0.476  0.8192 -2.8154 -2.1786
  658SOL     OW 1972   1.262   1.467   1.335  0.2971 -0.1567 -0.0559
  658SOL    HW1 1973   1.332   1.536   1.305  0.7418 -2.0552 -0.6101
  658SOL    HW2 1974   1.184   1.516   1.377  0.1765 -1.2001  2.4759
  659SOL     OW 1975   0.781   0.067   1.138  0.1198  0.1282 -0.3445
  659SOL    HW1 1976   0.826   0.104   1.052  0.9356  1.7225 -3.9074
  659SOL    HW2 1977   0.804   0.126   1.219  1.0686 -1.8345 -2.6411
  660SOL     OW 1978   2.391   1.029   0.960  0.2334 -0.8126  0.6445
  660SOL    HW1 1979   2.342   1.057   0.880  2.3558  0.3555  0.3307
  660SOL    HW2 1980   2.413   0.927   0.958 -0.4892  0.8440 -0.0008
  661SOL     OW 1981   0.315   1.677   3.052 -1.0042 -0.1317 -0.5730
  661SOL    HW1 1982   0.416   1.681   3.030  1.0050 -0.5686  1.5034
  661SOL    HW2 1983   0.289   1.733   0.005 -2.1762  2.4487 -3.3481
  662SOL     OW 1984   2.573   0.755   2.147 -0.6600 -0.4119 -0.0779
  662SOL    HW1 1985   2.651   0.752   2.213 -1.2683 -0.6499 -3.5622
  662SOL    HW2 1986   2.605   0.733   2.054  1.7662  0.0108 -2.7118
  663SOL     OW 1987   2.188   1.399   1.367  0.3875 -0.2825 -0.1909
  663SOL    HW1 1988   2.229   1.419   1.279  1.6317 -0.0101  1.3579
  663SOL    HW2 1989   2.260   1.416   1.444  0.6280  0.2228  1.5055
  664SOL     OW 1990   0.397   3.115   1.237  0.3458 -0.1221  0.5275
  664SOL    HW1 1991   0.436   0.007   1.146 -3.7961 -1.1682  3.1678
  664SOL    HW2 1992   0.303   0.035   1.247 -3.9631  0.4398  1.7350
  665SOL     OW 1993   1.550   0.247   3.026 -0.3557  0.4646 -0.3224
  665SOL    HW1 1994   1.648   0.265   3.021  3.1209  1.1188  0.0707
  665SOL    HW2 1995   1.522   0.149   3.019 -1.2268  1.3497 -0.3398
  666SOL     OW 1996   0.310   0.180   1.919 -0.1831  0.4256  0.0326
  666SOL    HW1 1997   0.361   0.263   1.893  1.2259  1.0909 -2.7768
  666SOL    HW2 1998   0.222   0.183   1.872  1.0304  0.8398  0.3169
  667SOL     OW 1999   1.755   1.423   1.882 -0.6302 -0.0033 -0.2670
  667SOL    HW1 2000   1.790   1.366   1.809  0.1418  3.2426  1.0939
  667SOL    HW2 2001   1.811   1.414   1.963  0.7400  1.5232  0.5752
  668SOL     OW 2002   0.204   1.539   2.389  0.2675 -0.7226  0.4109
  668SOL    HW1 2003   0.270   1.459   2.384  0.0422  2.6328 -1.0670
  668SOL    HW2 2004   0.148   1.544   2.304 -1.5195  1.3236 -1.3384
  669SOL     OW 2005   2.481   3.055   3.014 -0.0939  0.0605 -0.0661
  669SOL    HW1 2006   2.504   0.027   2.994  1.8881 -1.2192  0.6394
  669SOL    HW2 2007   2.457   3.049   3.112 -2.2977  0.0008 -1.8727
  670SOL     OW 2008   2.595   1.065   2.375 -0.2682  0.4046  0.0211
  670SOL    HW1 2009   2.689   1.019   2.360  1.1896 -3.5113 -0.3963
  670SOL    HW2 2010   2.604   1.152   2.431  2.0896  0.3011  3.0790
  671SOL     OW 2011   2.593   1.908   0.377  0.9152  0.2125 -0.1204
  671SOL    HW1 2012   2.680   1.882   0.329  0.1199  2.0906 -1.3154
  671SOL    HW2 2013   2.603   1.984   0.449 -0.1664  0.0176  3.4556
  672SOL     OW 2014   1.348   1.278   2.161 -0.0993  0.1850 -0.0766
  672SOL    HW1 2015   1.430   1.280   2.097 -1.2348  2.0478  0.6562
  672SOL    HW2 2016   1.280   1.205   2.129  3.1368 -0.1404 -0.7566
  673SOL     OW 2017   3.009   1.874   1.436 -0.0120 -0.1757  0.1502
  673SOL    HW1 2018   3.056   1.832   1.362 -3.1539  0.5209  2.5396
  673SOL    HW2 2019   3.072   1.876   1.519 -0.1675  2.9852  2.6963
  674SOL     OW 2020   1.093   1.723   1.892  0.0079 -0.1788 -0.1011
  674SOL    HW1 2021   1.022   1.655   1.867 -2.5295 -0.4137  0.5015
  674SOL    HW2 2022   1.047   1.811   1.921 -0.4090  0.1695 -1.3295
  675SOL     OW 2023   0.079   0.844   1.131  0.3320 -0.4005 -0.8513
  675SOL    HW1 2024   0.070   0.852   1.234  2.1675 -1.8106  0.4400
  675SOL    HW2 2025   0.118   0.757   1.102 -0.6903  3.7050  1.1158
  676SOL     OW 2026   0.008   1.306   1.019 -0.0032  0.4514  0.0315
  676SOL    HW1 2027   0.006   1.307   0.917 -1.1539  0.3070 -1.3896
  676SOL    HW2 2028   0.014   1.211   1.060  2.1115  0.9104 -0.3288
  677SOL     OW 2029   1.816   1.775   2.375  1.0436  0.1533  0.1486
  677SOL    HW1 2030   1.853   1.809   2.287  1.4399 -1.3768 -0.8664
  677SOL    HW2 2031   1.751   1.842   2.410  1.3025 -0.8822  1.4680
  678SOL     OW 2032   2.873   1.708   1.024 -0.3045 -0.2099 -0.2436
  678SOL    HW1 2033   2.841   1.737   0.936  2.9490  1.5120  1.3033
  678SOL    HW2 2034   2.821   1.746   1.101  1.9248 -1.8773 -1.2835
  679SOL     OW 2035   0.655   2.674   0.633  0.0611 -0.8223  0.3511
  679SOL    HW1 2036   0.600   2.607   0.579 -0.4992  1.1199 -1.6732
  679SOL    HW2 2037   0.607   2.713   0.709  0.9462 -1.3246 -0.5042
  680SOL     OW 2038   0.005   1.813   1.095 -0.2498 -0.1422  0.5978
  680SOL    HW1 2039   0.011   1.856   1.005 -1.1787  0.3088 -1.9053
  680SOL    HW2 2040   3.036   1.770   1.095 -2.9763  1.1882 -0.0751
  681SOL     OW 2041   0.822   0.215   0.893 -0.5086  0.5755 -0.4391
  681SOL    HW1 2042   0.920   0.240   0.897 -0.4984  3.1689  2.2320
  681SOL    HW2 2043   0.763   0.294   0.873  2.2046 -2.8515  1.5263
  682SOL     OW 2044   1.569   3.013   1.478 -0.3100 -0.2717 -0.8962
  682SOL    HW1 2045   1.534   2.970   1.563 -1.0836  1.9802 -3.4757
  682SOL    HW2 2046   1.665   3.045   1.485  0.2409 -0.7785  1.6830
  683SOL     OW 2047   2.428   1.412   1.534  0.1990  0.4285  0.0449
  683SOL    HW1 2048   2.452   1.428   1.633 -1.9656 -0.3001  0.8851
  683SOL    HW2 2049   2.503   1.459   1.475  0.4069  1.3565  0.5860
  684SOL     OW 2050   0.016   1.577   1.704 -0.6221  0.4009 -0.3324
  684SOL    HW1 2051   3.095   1.554   1.616  0.6948  0.6952  2.9938
  684SOL    HW2 2052   0.094   1.517   1.719 -0.8183  0.5880 -0.1837
  685SOL     OW 2053   2.154   1.723   0.312 -0.3515 -0.3562  0.2350
  685SOL    HW1 2054   2.212   1.792   0.361  1.3866 -1.2939  0.4378
  685SOL    HW2 2055   2.191   1.702   0.218  1.3191  1.5788  0.8154
  686SOL     OW 2056   3.108   0.785   1.402  0.3447  0.3138 -0.3896
  686SOL    HW1 2057   0.057   0.722   1.439 -1.8957 -0.6521  0.1411
  686SOL    HW2 2058   3.036   0.720   1.367  2.2200  1.4154 -0.0022
  687SOL     OW 2059   1.866   0.070   2.645  0.0894  0.2273 -0.3971
  687SOL    HW1 2060   1.907   0.102   2.732  0.6897  0.0700  5.4143
  687SOL    HW2 2061   1.770   0.093   2.641  3.3040 -1.4620 -0.5416
  688SOL     OW 2062   1.153   2.168   2.593  0.2949  0.6611 -0.2350
  688SOL    HW1 2063   1.202   2.086   2.554  3.1450 -3.1210  0.1544
  688SOL    HW2 2064   1.066   2.146   2.641 -1.8305  0.0272  3.5180
  689SOL     OW 2065   2.071   1.209   2.001 -0.0604 -0.1800 -0.0354
  689SOL    HW1 2066   2.169   1.190   2.011 -1.2634  0.8599 -0.8255
  689SOL    HW2 2067   2.015   1.124   2.010 -0.3043  0.1664 -0.7229
  690SOL     OW 2068   1.918   1.915   1.519 -0.0780 -0.0524 -0.6045
  690SOL    HW1 2069   1.872   1.852   1.585  0.0308 -1.3521 -3.9931
  690SOL    HW2 2070   2.018   1.893   1.520 -0.6057  1.3121 -0.0206
  691SOL     OW 2071   0.377   1.711   0.406  0.2438  0.1533 -0.2476
  691SOL    HW1 2072   0.405   1.801   0.442 -1.3999 -0.5184 -0.8014
  691SOL    HW2 2073   0.408   1.633   0.460 -1.3015  0.3575 -0.0223
  692SOL     OW 2074   2.870   2.894   2.589 -0.6012 -0.4017 -0.2285
  692SOL    HW1 2075   2.780   2.929   2.621  0.7671  0.5910  0.8094
  692SOL    HW2 2076   2.877   2.794   2.617 -1.1405  0.0663  0.6719
  693SOL     OW 2077   0.111   1.444   2.137 -0.4145 -0.2236 -0.0014
  693SOL    HW1 2078   0.054   1.529   2.135 -1.0897  0.6057 -2.2739
  693SOL    HW2 2079   0.199   1.447   2.088 -1.1408 -4.1239  0.9814
  694SOL     OW 2080   2.430   0.132   2.003  0.2396  0.0354  0.0903
  694SOL    HW1 2081   2.460   0.210   1.950  1.4462 -1.0896  0.4772
  694SOL    HW2 2082   2.331   0.132   2.030 -0.7033 -2.7298  0.6810
  695SOL     OW 2083   0.982   0.709   2.177  0.6067  0.2055 -0.0805
  695SOL    HW1 2084   0.882   0.700   2.158  0.5247 -0.5269 -3.5090
  695SOL    HW2 2085   1.006   0.793   2.219  1.1602 -4.2625  1.9853
  696SOL     OW 2086   1.924   2.802   1.598  0.4740  0.1023  0.4234
  696SOL    HW1 2087   1.961   2.871   1.660 -0.3389 -4.1928  1.4215
  696SOL    HW2 2088   1.822   2.781   1.615 -0.4894  1.4656 -2.1226
  697SOL     OW 2089   1.428   0.307   2.202  0.0525  0.2464 -0.6513
  697SOL    HW1 2090   1.330   0.320   2.237 -2.2120  1.0550  0.9480
  697SOL    HW2 2091   1.445   0.320   2.104 -0.7724 -1.5150 -1.4099
  698SOL     OW 2092   2.131   1.684   2.556 -0.1197 -0.0295  0.3672
  698SOL    HW1 2093   2.182   1.703   2.642 -1.9816 -1.5771  0.4683
  698SOL    HW2 2094   2.174   1.722   2.472 -1.5981  1.8191  0.7272
  699SOL     OW 2095   2.080   0.694   0.021 -0.1542 -0.4182  0.7893
  699SOL    HW1 2096   2.017   0.660   0.099  0.0619 -4.0352  0.9370
  699SOL    HW2 2097   2.130   0.776   0.053 -0.4109 -1.9981  0.8180
  700SOL     OW 2098   1.246   0.067   0.749  0.2922  0.5916 -0.2655
  700SOL    HW1 2099   1.276   0.130   0.819 -0.2828 -0.3744  0.2446
  700SOL    HW2 2100   1.174   0.006   0.786  1.4315  1.3655 -1.7703
  701SOL     OW 2101   0.220   0.857   0.614  0.2771  0.0744  0.4696
  701SOL    HW1 2102   0.268   0.776   0.654 -1.9543 -1.2901 -3.3572
  701SOL    HW2 2103   0.281   0.907   0.547 -0.8744 -0.7846 -3.7646
  702SOL     OW 2104   1.562   0.133   1.640  0.4859  0.5915 -0.1110
  702SOL    HW1 2105   1.499   0.065   1.658  2.7817  1.4260 -0.3216
  702SOL    HW2 2106   1.653   0.089   1.629  2.9130 -1.8536  0.2463
  703SOL     OW 2107   3.078   1.074   1.135 -0.1967  0.3433  0.4439
  703SOL    HW1 2108   2.977   1.075   1.138  1.7841  0.1759 -0.1496
  703SOL    HW2 2109   3.113   0.979   1.111  0.9445 -0.3425  1.2812
  704SOL     OW 2110   0.915   2.422   1.318 -0.4636  0.2843 -0.0958
  704SOL    HW1 2111   1.007   2.456   1.299 -1.1062 -0.8416 -1.4135
  704SOL    HW2 2112   0.850   2.458   1.251  2.5575  0.0977 -0.2965
  705SOL     OW 2113   0.295   1.725   2.761  0.2110 -0.2764 -0.1929
  705SOL    HW1 2114   0.353   1.654   2.714  2.6262 -0.2749 -0.2860
  705SOL    HW2 2115   0.283   1.705   2.863 -0.1978  0.2946  0.8174
  706SOL     OW 2116   2.999   2.935   0.217  0.0641 -0.1216  0.4311
  706SOL    HW1 2117   2.903   2.942   0.191 -0.6723 -0.1330  0.1590
  706SOL    HW2 2118   3.008   2.961   0.316  0.2593  0.1459  2.1508
  707SOL     OW 2119   1.518   3.012   2.247  0.1826  0.0910  0.6565
  707SOL    HW1 2120   1.568   3.083   2.194  1.1945 -4.1201  0.8872
  707SOL    HW2 2121   1.462   2.957   2.181 -0.7461 -2.4952 -1.6582
  708SOL     OW 2122   0.343   3.000   1.487  0.2020  0.0018  0.8667
  708SOL    HW1 2123   0.357   3.028   1.390 -0.2638  0.6622  0.6213
  708SOL    HW2 2124   0.375   2.899   1.490 -0.9805 -2.3363 -0.9636
  709SOL     OW 2125   2.806   0.663   1.833 -0.1331  0.5472  0.3343
  709SOL    HW1 2126   2.871   0.739   1.853  0.7942 -1.7990 -3.8593
  709SOL    HW2 2127   2.795   0.590   1.904 -1.4815 -0.2835 -1.6235
  710SOL     OW 2128   0.395   1.044   0.812 -0.4733  0.2259  0.0720
  710SOL    HW1 2129   0.413   1.114   0.884  0.0032 -1.9200 -0.6596
  710SOL    HW2 2130   0.390   1.082   0.715  0.4411 -1.3135 -1.5612
  711SOL     OW 2131   2.564   3.007   1.395 -0.5152  0.6188 -0.0507
  711SOL    HW1 2132   2.507   2.931   1.435 -0.7593 -0.1687  0.8042
  711SOL    HW2 2133   2.507   3.061   1.330 -2.9669  1.1465  1.6625
  712SOL     OW 2134   0.169   2.681   2.275  0.2697 -0.4848  0.3411
  712SOL    HW1 2135   0.086   2.658   2.217 -1.2145  0.2939  0.3964
  712SOL    HW2 2136   0.192   2.615   2.351  2.5962 -1.7860  1.7599
  713SOL     OW 2137   2.503   0.388   0.573 -0.1071  0.3728  0.2065
  713SOL    HW1 2138   2.430   0.359   0.512 -0.4114  0.3287  1.1826
  713SOL    HW2 2139   2.557   0.458   0.524  0.1313 -1.7529 -0.4001
  714SOL     OW 2140   1.689   2.211   2.522 -0.6520  0.3027  0.1074
  714SOL    HW1 2141   1.638   2.169   2.442 -1.6399  1.3589  0.0743
  714SOL    HW2 2142   1.784   2.171   2.539  1.9899  0.0409  0.2345
  715SOL     OW 2143   0.022   0.539   1.071  0.3410 -0.2706  0.0604
  715SOL    HW1 2144   0.055   0.456   1.112 -2.7112  0.4824  2.0604
  715SOL    HW2 2145   0.021   0.528   0.970  1.4884  0.8453 -0.7855
  716SOL     OW 2146   0.759   0.751   1.667 -0.1971  0.0112  0.0724
  716SOL    HW1 2147   0.835   0.721   1.731  1.6511  0.8270  2.7806
  716SOL    HW2 2148   0.785   0.839   1.616 -0.1085  1.5376 -2.9173
  717SOL     OW 2149   0.807   0.508   2.538  0.4831  0.6460 -0.4743
  717SOL    HW1 2150   0.777   0.428   2.482 -1.1348 -0.8377 -0.2342
  717SOL    HW2 2151   0.725   0.541   2.591 -0.6828  1.8829 -0.3087
  718SOL     OW 2152   1.242   0.255   0.516  0.1780  0.1973  0.4905
  718SOL    HW1 2153   1.261   0.218   0.422 -1.0626 -1.3171  0.4964
  718SOL    HW2 2154   1.212   0.181   0.581 -1.5440  1.5499  1.1445
  719SOL     OW 2155   3.098   2.351   2.740  0.0745 -0.3824 -0.2101
  719SOL    HW1 2156   3.084   2.314   2.644  1.7097  0.7523 -3.2696
  719SOL    HW2 2157   0.023   2.442   2.735  0.3874  2.3462 -0.6987
  720SOL     OW 2158   0.976   0.572   1.489  0.6151  0.1032  0.2286
  720SOL    HW1 2159   0.887   0.625   1.500 -0.0901 -0.7895 -0.2588
  720SOL    HW2 2160   1.053   0.633   1.499 -0.7098 -1.1313  2.3983
  721SOL     OW 2161   2.885   2.800   1.046  0.1782 -0.0887 -0.2584
  721SOL    HW1 2162   2.945   2.719   1.037 -1.9069  3.0997 -1.0591
  721SOL    HW2 2163   2.850   2.814   1.143  0.8382 -4.2767  0.8332
  722SOL     OW 2164   0.909   1.367   2.789 -1.0629 -0.3893  0.3121
  722SOL    HW1 2165   0.914   1.391   2.888 -1.6311 -1.3612 -2.5703
  722SOL    HW2 2166   0.910   1.446   2.728 -0.0210 -0.4183 -0.3208
  723SOL     OW 2167   2.674   0.955   1.360 -0.4992 -0.1611  0.3700
  723SOL    HW1 2168   2.636   0.873   1.319  2.2050  2.4300  0.5935
  723SOL    HW2 2169   2.597   1.006   1.396 -1.1660 -0.7255 -0.5944
  724SOL     OW 2170   0.984   2.046   0.176 -0.0886 -0.0879 -0.2189
  724SOL    HW1 2171   0.924   2.019   0.096 -3.3102 -1.9541 -1.3017
  724SOL    HW2 2172   1.050   1.972   0.195 -0.5590  0.9821 -1.4844
  725SOL     OW 2173   0.252   0.905   1.566 -0.1723  0.5768 -0.0232
  725SOL    HW1 2174   0.262   0.963   1.481 -2.5485  3.9523 -2.1774
  725SOL    HW2 2175   0.336   0.842   1.566  3.3345 -0.7528  1.9120
  726SOL     OW 2176   2.513   1.050   3.008  0.2327 -0.5536 -0.0324
  726SOL    HW1 2177   2.590   1.074   2.942  2.4974 -1.5126 -1.2546
  726SOL    HW2 2178   2.422   1.067   2.962 -0.8116  2.0008 -2.5940
  727SOL     OW 2179   1.909   1.243   2.667 -0.2358 -0.1455  0.5544
  727SOL    HW1 2180   1.953   1.290   2.587  0.5500 -0.2252  0.5312
  727SOL    HW2 2181   1.907   1.142   2.658  0.0894 -0.4819  0.1411
  728SOL     OW 2182   1.574   2.502   1.379  0.1263  0.9440  0.1604
  728SOL    HW1 2183   1.551   2.604   1.382 -2.4221 -1.5585  1.0069
  728SOL    HW2 2184   1.503   2.454   1.435 -0.8202  0.7974 -2.0793
  729SOL     OW 2185   1.826   0.763   2.303  0.1159  0.2280 -0.3426
  729SOL    HW1 2186   1.857   0.749   2.397 -0.1101  2.0810  0.5388
  729SOL    HW2 2187   1.784   0.855   2.295  1.9601  1.1084 -0.9268
  730SOL     OW 2188   1.168   0.602   0.977 -0.2657 -0.2051  0.0917
  730SOL    HW1 2189   1.207   0.688   1.010 -0.0442 -0.0884  0.4775
  730SOL    HW2 2190   1.243   0.552   0.933 -0.1426 -1.6613  1.1950
  731SOL     OW 2191   0.785   0.428   2.931 -0.2521  0.2731  0.1847
  731SOL    HW1 2192   0.835   0.481   2.857 -1.1107 -1.8771  0.0656
  731SOL    HW2 2193   0.749   0.499   2.997  1.8282 -1.4292 -1.2089
  732SOL     OW 2194   0.505   0.755   0.268 -0.2271  0.1785  0.4369
  732SOL    HW1 2195   0.524   0.654   0.274  0.1176  1.4590 -0.4611
  732SOL    HW2 2196   0.573   0.803   0.211  0.2532  1.3059  0.4656
  733SOL     OW 2197   1.367   1.630   2.197  0.0857  0.5920  0.0287
  733SOL    HW1 2198   1.286   1.572   2.226  0.8845 -0.2355 -0.1495
  733SOL    HW2 2199   1.453   1.582   2.237  1.4178 -0.2653  0.3189
  734SOL     OW 2200   0.222   2.254   2.850 -0.2112  0.6603 -0.0962
  734SOL    HW1 2201   0.216   2.312   2.935  1.7842  2.2966  2.8179
  734SOL    HW2 2202   0.153   2.284   2.782  0.3610 -1.3570 -0.6694
  735SOL     OW 2203   2.385   0.528   0.818  0.6633  0.6347 -0.5441
  735SOL    HW1 2204   2.438   0.469   0.757 -1.2710  1.4165 -0.1346
  735SOL    HW2 2205   2.290   0.538   0.779 -0.8800 -0.7069 -0.3469
  736SOL     OW 2206   2.160   1.430   2.352  0.0308 -0.1939  0.6403
  736SOL    HW1 2207   2.160   1.331   2.327 -1.9690  2.2116 -0.2512
  736SOL    HW2 2208   2.065   1.458   2.375  0.2620 -1.1379 -0.9982
  737SOL     OW 2209   3.100   0.717   0.579 -0.1513  0.1524 -0.7632
  737SOL    HW1 2210   3.031   0.743   0.508  1.0970  0.4832 -0.8582
  737SOL    HW2 2211   0.065   0.770   0.564  1.4982 -0.7027 -0.8406
  738SOL     OW 2212   0.765   2.220   1.668  0.2254  0.5042  0.1868
  738SOL    HW1 2213   0.783   2.310   1.712 -0.7431 -1.4214  1.0515
  738SOL    HW2 2214   0.683   2.224   1.603 -0.9666  2.1182 -2.6763
  739SOL     OW 2215   1.380   2.875   2.054  0.2942 -0.5697  0.7443
  739SOL    HW1 2216   1.449   2.901   1.985 -0.2649 -1.9078 -0.0747
  739SOL    HW2 2217   1.287   2.906   2.021 -3.5077  0.4560 -1.1286
  740SOL     OW 2218   1.792   2.559   1.214 -0.8157  0.1606  0.5299
  740SOL    HW1 2219   1.701   2.530   1.253 -2.3604 -2.1197 -0.1804
  740SOL    HW2 2220   1.858   2.569   1.295  0.2273  2.1865  0.7973
  741SOL     OW 2221   2.245   0.410   0.455 -0.4973  0.0508  0.0428
  741SOL    HW1 2222   2.193   0.342   0.393 -2.6027 -2.0198 -3.3483
  741SOL    HW2 2223   2.281   0.491   0.406 -2.7927 -1.7283  3.6280
  742SOL     OW 2224   1.001   2.695   3.104 -0.0405  0.3198  0.1727
  742SOL    HW1 2225   1.035   2.611   3.061  2.5835  1.3641  1.4348
  742SOL    HW2 2226   1.032   2.708   0.078  3.8087 -2.0376  2.6533
  743SOL     OW 2227   2.403   0.941   2.221 -0.0983  0.4795 -0.5750
  743SOL    HW1 2228   2.468   1.008   2.258 -2.1193  0.2331  1.0717
  743SOL    HW2 2229   2.450   0.865   2.176 -3.0547  0.7472  2.8488
  744SOL     OW 2230   2.733   0.626   0.627 -0.1757 -0.1689  0.0611
  744SOL    HW1 2231   2.682   0.613   0.536 -2.4103 -2.5212 -1.8968
  744SOL    HW2 2232   2.832   0.636   0.616 -0.7841 -0.9980 -0.0799
  745SOL     OW 2233   2.479   1.126   1.492 -0.2778  0.5835  0.2734
  745SOL    HW1 2234   2.491   1.093   1.586  2.7147 -0.4475 -0.1575
  745SOL    HW2 2235   2.457   1.226   1.498  1.8365 -1.0753 -2.8469
  746SOL     OW 2236   1.377   1.446   0.712  0.2426  0.1934  0.0544
  746SOL    HW1 2237   1.300   1.506   0.746 -1.2912  1.2287 -1.2922
  746SOL    HW2 2238   1.374   1.448   0.608  0.8130 -0.7269  2.3617
  747SOL     OW 2239   1.058   1.618   1.439 -0.1526 -0.0090  0.0569
  747SOL    HW1 2240   1.018   1.661   1.523  1.3213 -2.6240 -3.3707
  747SOL    HW2 2241   0.982   1.584   1.380  0.3808  0.7173 -0.3872
  748SOL     OW 2242   0.291   2.818   0.045  0.3319 -0.2572 -0.0329
  748SOL    HW1 2243   0.327   2.841   3.076  0.8481  0.1257 -0.1785
  748SOL    HW2 2244   0.334   2.730   0.078 -0.3445 -2.5523 -0.2267
  749SOL     OW 2245   0.174   0.925   2.809  0.4673 -0.3393 -0.2437
  749SOL    HW1 2246   0.131   0.977   2.882  2.1791 -1.8792 -0.3146
  749SOL    HW2 2247   0.107   0.912   2.731  0.6227  0.1855 -2.3312
  750SOL     OW 2248   1.610   1.016   2.009 -0.1331 -0.3340 -1.0976
  750SOL    HW1 2249   1.600   0.963   1.924  2.1809 -2.1972 -2.2235
  750SOL    HW2 2250   1.606   0.961   2.093  1.3492  0.1964 -1.5105
  751SOL     OW 2251   2.910   0.746   0.380  0.2638 -0.5886  0.7160
  751SOL    HW1 2252   2.865   0.677   0.321 -0.2189 -0.3484 -2.7372
  751SOL    HW2 2253   2.841   0.818   0.409  0.1845 -0.8569 -3.0022
  752SOL     OW 2254   2.785   2.868   1.293  0.4888  0.1814  0.2694
  752SOL    HW1 2255   2.852   2.835   1.367  0.9373  0.2414  2.3066
  752SOL    HW2 2256   2.714   2.930   1.335 -1.0811 -0.6279 -1.0363
  753SOL     OW 2257   0.781   2.189   1.317  0.1227  0.5512  0.3028
  753SOL    HW1 2258   0.842   2.267   1.331  0.2790 -1.9372 -0.2394
  753SOL    HW2 2259   0.698   2.195   1.377  2.7365 -1.0419 -1.2313
  754SOL     OW 2260   3.097   2.625   2.081 -0.2555  0.2143  0.2812
  754SOL    HW1 2261   3.028   2.632   2.157  0.9391  0.9646  0.7062
  754SOL    HW2 2262   3.099   2.718   2.040 -0.3096 -0.8637  1.8844
  755SOL     OW 2263   2.584   0.600   0.406 -0.8450 -0.4059 -0.3026
  755SOL    HW1 2264   2.636   0.579   0.324 -2.0294 -0.7034  2.3152
  755SOL    HW2 2265   2.513   0.666   0.379 -1.4869  1.6915 -0.1453
  756SOL     OW 2266   2.424   2.335   3.004  0.3110 -0.2191  0.0021
  756SOL    HW1 2267   2.430   2.433   2.965  1.1305  3.5575 -1.6850
  756SOL    HW2 2268   2.425   2.337   3.107  2.1261 -1.1862  1.9186
  757SOL     OW 2269   2.133   0.485   0.713  0.3383  0.4015  0.5267
  757SOL    HW1 2270   2.161   0.465   0.616 -2.0073 -0.0672 -0.2871
  757SOL    HW2 2271   2.062   0.416   0.742 -1.5924  0.0667 -0.1534
  758SOL     OW 2272   2.198   0.810   1.921  0.2809 -0.2673 -0.5702
  758SOL    HW1 2273   2.096   0.793   1.917  1.6760 -1.0574  2.5839
  758SOL    HW2 2274   2.225   0.893   1.871 -2.1726 -0.1350 -1.9063
  759SOL     OW 2275   2.564   0.724   1.202  0.2414  0.0131 -0.2146
  759SOL    HW1 2276   2.654   0.696   1.160  0.4608  0.1249 -0.6485
  759SOL    HW2 2277   2.489   0.738   1.131  0.1350  0.7604 -2.1133
  760SOL     OW 2278   3.075   1.527   1.420  0.1651  0.0051  0.2404
  760SOL    HW1 2279   3.095   1.433   1.459 -1.1077 -1.5363 -0.7953
  760SOL    HW2 2280   3.037   1.521   1.324  0.3194 -1.6654 -0.3214
  761SOL     OW 2281   0.967   0.744   0.145  0.1948 -0.5996 -0.1942
  761SOL    HW1 2282   0.959   0.830   0.084 -1.6106  2.1102  0.1102
  761SOL    HW2 2283   1.037   0.689   0.108 -0.2102 -0.1146 -1.4553
  762SOL     OW 2284   0.950   1.876   0.993  0.0356  0.2138 -0.3841
  762SOL    HW1 2285   1.029   1.872   1.053 -2.5060  1.4793  0.1454
  762SOL    HW2 2286   0.888   1.952   1.023  0.5885 -2.6989 -2.2380
  763SOL     OW 2287   1.135   0.792   1.489 -0.6087 -0.2930 -0.0666
  763SOL    HW1 2288   1.151   0.863   1.557  0.5166  1.2181 -2.4737
  763SOL    HW2 2289   1.107   0.834   1.399 -0.8696 -0.2706 -1.6935
  764SOL     OW 2290   0.474   2.205   2.760 -0.1283  0.3748  0.1062
  764SOL    HW1 2291   0.480   2.109   2.721 -2.1862 -0.7453 -1.7036
  764SOL    HW2 2292   0.379   2.221   2.793 -0.7285 -0.6908 -1.2276
  765SOL     OW 2293   0.688   2.700   1.566 -0.3007  0.0294  0.5970
  765SOL    HW1 2294   0.668   2.737   1.658 -0.7464  0.2462 -3.0624
  765SOL    HW2 2295   0.706   2.775   1.498 -0.3573 -1.8690  3.1836
  766SOL     OW 2296   2.618   1.698   2.182  0.5807 -0.0404 -0.1944
  766SOL    HW1 2297   2.680   1.766   2.227  1.4350  0.6548  0.5148
  766SOL    HW2 2298   2.620   1.610   2.236 -0.4891 -3.0855  0.2136
  767SOL     OW 2299   1.455   1.186   2.395  0.5529 -0.4810 -0.4441
  767SOL    HW1 2300   1.468   1.256   2.470  1.6506  2.9524  0.4088
  767SOL    HW2 2301   1.409   1.232   2.314 -1.6527  0.8492 -0.4850
  768SOL     OW 2302   1.737   2.035   0.295  0.4293 -0.3046  0.0219
  768SOL    HW1 2303   1.674   1.976   0.351 -0.4120 -1.7533 -1.2025
  768SOL    HW2 2304   1.813   1.983   0.258 -1.0962 -0.7104  1.2524
  769SOL     OW 2305   0.728   1.321   0.910  0.4708  0.4475  0.0679
  769SOL    HW1 2306   0.752   1.350   0.817  0.7040 -2.6184  1.4603
  769SOL    HW2 2307   0.787   1.372   0.977  3.3498  2.3677 -1.0076
  770SOL     OW 2308   1.261   0.960   2.448  0.1400  0.1470 -0.2703
  770SOL    HW1 2309   1.323   1.039   2.457 -0.9085  0.0840  1.6010
  770SOL    HW2 2310   1.309   0.871   2.448 -0.3783  0.8816  0.0317
  771SOL     OW 2311   2.989   2.958   2.338  0.0537 -0.6678 -0.1990
  771SOL    HW1 2312   2.956   2.933   2.433  1.2397 -0.0275  1.7545
  771SOL    HW2 2313   2.981   2.881   2.271  0.6503  1.3616 -0.9206
  772SOL     OW 2314   2.184   1.842   2.309  0.0381  0.8375 -0.5987
  772SOL    HW1 2315   2.097   1.848   2.260  0.2037  0.7261  1.1806
  772SOL    HW2 2316   2.264   1.880   2.258 -0.3532 -2.7891  2.7422
  773SOL     OW 2317   0.548   1.462   1.389 -0.5591  0.5769  0.3507
  773SOL    HW1 2318   0.548   1.477   1.289 -0.3908  0.3879  0.9179
  773SOL    HW2 2319   0.595   1.373   1.419 -1.1752 -1.1724  2.5878
  774SOL     OW 2320   1.250   0.777   2.998  0.0902  0.3929  0.0509
  774SOL    HW1 2321   1.154   0.751   2.968 -0.7656 -2.2827 -0.6970
  774SOL    HW2 2322   1.286   0.703   3.064 -0.4441  0.3859 -0.6393
  775SOL     OW 2323   1.782   2.816   0.069  0.3848  0.3712  0.3220
  775SOL    HW1 2324   1.801   2.829   0.164  3.3315 -0.4485  0.5777
  775SOL    HW2 2325   1.702   2.758   0.048 -1.4856  2.8930  0.6648
  776SOL     OW 2326   0.208   0.710   1.810 -0.0300  0.2252  0.3404
  776SOL    HW1 2327   0.168   0.626   1.858 -0.1812 -0.6758 -0.5332
  776SOL    HW2 2328   0.136   0.764   1.768 -1.1009 -1.5501 -0.3420
  777SOL     OW 2329   2.407   1.872   2.173  0.6511 -0.0261  0.3843
  777SOL    HW1 2330   2.477   1.801   2.189 -2.0000 -1.2486 -2.2132
  777SOL    HW2 2331   2.383   1.874   2.073  2.3724 -0.5724 -2.3508
  778SOL     OW 2332   1.672   1.022   2.325  0.2680 -0.1918 -0.1647
  778SOL    HW1 2333   1.589   1.079   2.352  0.7749 -0.7046  1.0106
  778SOL    HW2 2334   1.757   1.079   2.321 -2.1080 -0.0728 -1.3506
  779SOL     OW 2335   2.983   1.176   0.133 -0.2528  0.8126 -0.1242
  779SOL    HW1 2336   2.977   1.071   0.148  0.8038 -4.8099 -0.8308
  779SOL    HW2 2337   2.920   1.228   0.199 -1.6401 -1.0531  1.4895
  780SOL     OW 2338   2.281   0.122   2.568 -0.1258  0.4132 -0.6132
  780SOL    HW1 2339   2.189   0.131   2.527 -0.9154  0.6252  0.4441
  780SOL    HW2 2340   2.331   0.206   2.558  0.3572  3.4141 -0.5830
  781SOL     OW 2341   0.087   1.824   1.629 -0.1442 -0.3587  0.4168
  781SOL    HW1 2342   0.188   1.845   1.607  0.8436  0.3601 -1.0505
  781SOL    HW2 2343   0.081   1.733   1.667  3.1474  1.7105 -1.0538
  782SOL     OW 2344   2.621   2.041   2.673 -0.2668 -0.0868  0.2409
  782SOL    HW1 2345   2.707   2.089   2.655 -1.9409  1.2290  1.1182
  782SOL    HW2 2346   2.577   2.083   2.755 -2.2764  2.0134 -1.1145
  783SOL     OW 2347   0.916   1.469   1.035 -0.1404 -0.2357  0.6068
  783SOL    HW1 2348   0.966   1.387   1.071  2.2935 -3.4557 -0.2094
  783SOL    HW2 2349   0.982   1.536   1.006 -1.1627 -1.4563  1.0905
  784SOL     OW 2350   2.435   0.786   3.058 -0.2503 -0.3656  0.1568
  784SOL    HW1 2351   2.473   0.878   3.024  0.3131 -0.2045 -0.3364
  784SOL    HW2 2352   2.361   0.804   0.000  1.2914 -3.1804  0.4575
  785SOL     OW 2353   2.138   2.655   0.746 -0.1558 -0.1899 -0.2299
  785SOL    HW1 2354   2.161   2.752   0.739 -0.8606 -1.6433 -0.8976
  785SOL    HW2 2355   2.199   2.598   0.682  1.0672  0.7132  0.2641
  786SOL     OW 2356   0.411   2.318   2.517  0.1095 -0.6708 -0.5996
  786SOL    HW1 2357   0.458   2.276   2.434  1.1638 -2.4714 -1.0207
  786SOL    HW2 2358   0.440   2.288   2.612  0.0332 -0.2249 -0.4610
  787SOL     OW 2359   1.415   0.723   1.417 -0.8821  0.0042 -0.1333
  787SOL    HW1 2360   1.315   0.738   1.417  3.5435  0.0418  2.0696
  787SOL    HW2 2361   1.456   0.801   1.363 -1.6026  1.1952 -1.8558
  788SOL     OW 2362   0.376   1.011   0.347 -0.1090 -0.1635 -0.0214
  788SOL    HW1 2363   0.407   0.918   0.315 -0.3347  1.1856  1.8239
  788SOL    HW2 2364   0.284   1.034   0.310  1.9799 -0.4914  0.7476
  789SOL     OW 2365   3.003   2.119   1.307 -0.1280  0.5556 -0.2046
  789SOL    HW1 2366   2.989   2.038   1.363 -1.5560  1.3029 -2.9674
  789SOL    HW2 2367   2.911   2.150   1.279  1.4751  0.7203  2.2721
  790SOL     OW 2368   1.303   0.492   1.814 -0.8715  0.2193  0.0168
  790SOL    HW1 2369   1.254   0.518   1.900  2.4558 -0.1815 -3.3585
  790SOL    HW2 2370   1.264   0.402   1.775 -1.9815  0.5299 -1.6254
  791SOL     OW 2371   1.299   0.570   0.359  0.5241 -0.6691  0.1679
  791SOL    HW1 2372   1.329   0.572   0.261 -0.1177 -0.4808  2.6814
  791SOL    HW2 2373   1.230   0.493   0.364  1.2534 -0.2090  1.9864
  792SOL     OW 2374   1.442   2.915   1.679 -0.2010  0.1831 -0.4169
  792SOL    HW1 2375   1.381   2.839   1.706 -0.1974 -1.4778  1.5729
  792SOL    HW2 2376   1.471   2.953   1.769  0.2569  0.0261 -0.4884
  793SOL     OW 2377   0.678   0.048   0.572 -0.1258  0.3564  1.0163
  793SOL    HW1 2378   0.598   0.107   0.559  2.1178  0.1590 -0.2845
  793SOL    HW2 2379   0.642   3.081   0.541 -1.6686 -1.7609 -0.4153
  794SOL     OW 2380   0.575   1.276   2.281  0.0072 -0.0338 -0.2624
  794SOL    HW1 2381   0.662   1.273   2.229  0.5373  1.4418 -0.8015
  794SOL    HW2 2382   0.551   1.179   2.315 -1.2691 -0.6505  1.4380
  795SOL     OW 2383   0.126   1.734   2.558 -0.1185  0.6853  0.0060
  795SOL    HW1 2384   0.144   1.647   2.505 -1.4572 -0.0961 -0.6851
  795SOL    HW2 2385   0.157   1.730   2.659  2.0513  2.0391  1.2635
  796SOL     OW 2386   1.905   1.141   2.265 -0.1258 -0.1731 -0.0005
  796SOL    HW1 2387   1.871   1.118   2.169 -2.2014  1.0520 -3.2048
  796SOL    HW2 2388   2.007   1.142   2.270  3.2189 -3.3388 -0.1153
  797SOL     OW 2389   3.056   2.988   2.761  0.8589 -0.4639  0.1127
  797SOL    HW1 2390   0.027   2.989   2.723 -1.6133 -0.5898 -1.0320
  797SOL    HW2 2391   2.989   2.961   2.682 -0.7921 -0.4541  0.4283
  798SOL     OW 2392   3.055   1.892   2.233 -0.2963  0.3542  0.0479
  798SOL    HW1 2393   3.044   1.936   2.139 -0.1263 -0.5200  1.5582
  798SOL    HW2 2394   3.113   1.957   2.289 -1.4584  1.0837 -1.2176
  799SOL     OW 2395   3.104   2.072   3.118  0.5622  0.0290 -0.5483
  799SOL    HW1 2396   3.047   2.156   0.006  0.3639 -0.3819  0.8306
  799SOL    HW2 2397   0.020   2.062   3.022 -2.5239 -0.2752 -2.9564
  800SOL     OW 2398   1.258   1.810   0.721  0.8985 -0.1544 -0.7461
  800SOL    HW1 2399   1.270   1.826   0.623 -0.0737  0.4761  1.6803
  800SOL    HW2 2400   1.311   1.879   0.769 -1.7774  0.0512 -1.8867
  801SOL     OW 2401   2.140   0.762   0.717  0.5870  0.5853  0.0879
  801SOL    HW1 2402   2.072   0.815   0.663  0.6792  0.5840  2.3205
  801SOL    HW2 2403   2.123   0.660   0.697  1.6309 -0.2622 -0.1017
  802SOL     OW 2404   2.752   1.554   0.229  0.0881 -0.6880 -0.2205
  802SOL    HW1 2405   2.853   1.565   0.225 -3.0981  1.4022  1.6114
  802SOL    HW2 2406   2.708   1.518   0.148  1.3495  1.3238  2.9477
  803SOL     OW 2407   1.498   1.867   2.953  0.0405  0.8264  0.8270
  803SOL    HW1 2408   1.563   1.884   2.876 -0.4550  0.6200  0.6351
  803SOL    HW2 2409   1.464   1.954   2.987  0.1184 -1.5905 -1.6786
  804SOL     OW 2410   1.932   1.870   0.225  0.0206 -0.2595 -0.1198
  804SOL    HW1 2411   2.001   1.824   0.279  0.5304  1.5888 -3.2372
  804SOL    HW2 2412   1.944   1.871   0.124  0.5447  3.7946 -1.4720
  805SOL     OW 2413   2.557   1.494   0.021 -0.3395 -0.6855 -0.3247
  805SOL    HW1 2414   2.495   1.578   0.013 -0.1529 -0.1567  0.2381
  805SOL    HW2 2415   2.509   1.405   0.032  1.0608 -0.0445 -1.4293
  806SOL     OW 2416   0.678   0.221   0.266 -0.1347 -0.2904  0.0752
  806SOL    HW1 2417   0.689   0.317   0.239 -1.2344 -2.1101  2.8150
  806SOL    HW2 2418   0.765   0.190   0.312 -1.0351  0.6339 -0.5156
  807SOL     OW 2419   2.193   1.378   2.784  0.2286  0.1168 -0.1537
  807SOL    HW1 2420   2.223   1.406   2.877 -2.3217  2.3659  0.2364
  807SOL    HW2 2421   2.095   1.366   2.777 -0.3014 -2.7885 -1.4819
  808SOL     OW 2422   0.053   1.658   0.414  0.2154 -0.1975  0.1369
  808SOL    HW1 2423   0.108   1.631   0.494  1.4330 -1.1656  0.6350
  808SOL    HW2 2424   0.031   1.757   0.420  2.2196  0.4844 -1.2763
  809SOL     OW 2425   2.689   0.808   2.695  0.2326  0.4922 -0.3549
  809SOL    HW1 2426   2.723   0.885   2.636  2.4873  1.9967 -0.1700
  809SOL    HW2 2427   2.735   0.804   2.791 -1.6825 -0.3984  4.2715
  810SOL     OW 2428   1.074   1.276   0.320  0.4985 -0.1083  0.0019
  810SOL    HW1 2429   1.146   1.316   0.263 -1.1073  1.1873 -1.5650
  810SOL    HW2 2430   1.005   1.232   0.258  2.7759 -1.2238  3.6261
  811SOL     OW 2431   1.234   2.637   1.032  0.1525  0.2588  0.6071
  811SOL    HW1 2432   1.183   2.603   0.952 -0.5103  1.4966 -0.4387
  811SOL    HW2 2433   1.328   2.608   1.028 -3.0154  1.2320  1.2344
  812SOL     OW 2434   0.510   2.503   1.482 -0.2660  0.3202 -0.0602
  812SOL    HW1 2435   0.493   2.477   1.385  0.3898 -0.1962 -2.5626
  812SOL    HW2 2436   0.577   2.585   1.489  2.6584 -0.5014 -4.3827
  813SOL     OW 2437   1.120   0.166   2.029  0.2088 -0.4406 -0.1576
  813SOL    HW1 2438   1.146   0.069   2.015  1.9599  2.2498 -0.0102
  813SOL    HW2 2439   1.154   0.211   2.111 -0.0825  0.1001 -2.1738
  814SOL     OW 2440   1.520   2.806   2.749 -0.0048 -0.0956  0.2798
  814SOL    HW1 2441   1.609   2.800   2.793  2.4788 -0.6854 -0.9453
  814SOL    HW2 2442   1.536   2.814   2.649  0.9375 -0.5504 -1.4394
  815SOL     OW 2443   0.494   0.400   1.817  0.0831 -0.4120 -0.5397
  815SOL    HW1 2444   0.434   0.451   1.754 -0.5347 -5.2589 -1.7531
  815SOL    HW2 2445   0.583   0.384   1.771 -0.6492  1.2878  0.1465
  816SOL     OW 2446   2.221   0.345   2.880 -0.4047  0.1371  0.1423
  816SOL    HW1 2447   2.290   0.301   2.820  0.2261 -1.0037 -2.8008
  816SOL    HW2 2448   2.251   0.444   2.897  1.5119  2.7453  0.3878
  817SOL     OW 2449   2.043   0.201   2.477 -0.4448 -0.7787 -0.2380
  817SOL    HW1 2450   1.992   0.257   2.406 -0.0895 -0.1113 -3.6302
  817SOL    HW2 2451   1.975   0.177   2.547 -0.9197  2.8541 -2.5967
  818SOL     OW 2452   2.105   0.230   0.348 -0.0248  0.4122  0.6640
  818SOL    HW1 2453   2.081   0.227   0.249 -1.1132 -2.3643 -0.0495
  818SOL    HW2 2454   2.067   0.150   0.401  0.1791 -1.3883  2.3526
  819SOL     OW 2455   2.304   1.929   0.004  0.5457  0.0512 -0.4321
  819SOL    HW1 2456   2.375   1.974   0.060  0.6231 -0.5187  1.7956
  819SOL    HW2 2457   2.297   1.968   3.039  2.0155 -1.8134  1.4143
  820SOL     OW 2458   0.223   1.786   0.180 -0.0809  0.0045 -0.9355
  820SOL    HW1 2459   0.258   1.729   0.260 -0.7591 -0.6325 -0.0984
  820SOL    HW2 2460   0.171   1.862   0.214 -0.6056 -3.0198  1.8145
  821SOL     OW 2461   0.124   2.425   1.040  0.1380 -0.0613  0.6200
  821SOL    HW1 2462   0.113   2.330   1.071  1.1276  0.3123 -1.8092
  821SOL    HW2 2463   0.207   2.471   1.080  0.4768 -0.3576  0.5592
  822SOL     OW 2464   2.386   2.548   2.830  0.0981  0.1129  0.2213
  822SOL    HW1 2465   2.404   2.644   2.857  3.5144  1.3585 -0.2146
  822SOL    HW2 2466   2.298   2.539   2.780 -0.3528 -0.0341 -1.2234
  823SOL     OW 2467   1.605   0.152   2.652  0.2294 -0.5701 -0.3315
  823SOL    HW1 2468   1.554   0.116   2.570 -0.2672 -0.5511 -1.5900
  823SOL    HW2 2469   1.553   0.234   2.676 -0.7662 -1.7207  0.2439
  824SOL     OW 2470   2.737   1.726   1.503 -0.4430  0.4164  0.2625
  824SOL    HW1 2471   2.699   1.744   1.597 -1.4667 -1.4768  0.6241
  824SOL    HW2 2472   2.827   1.769   1.490 -0.2164  0.5559  1.5985
  825SOL     OW 2473   2.661   1.804   2.546  0.0756  0.3484 -0.1114
  825SOL    HW1 2474   2.650   1.884   2.606  0.4504 -0.3118  1.5292
  825SOL    HW2 2475   2.707   1.829   2.461 -1.9599 -2.2716  0.7033
  826SOL     OW 2476   2.339   1.150   2.048  0.2181  0.1205 -0.0197
  826SOL    HW1 2477   2.349   1.058   2.091 -0.3224  2.0179  0.1455
  826SOL    HW2 2478   2.431   1.200   2.056  1.2960 -0.2426 -1.1372
  827SOL     OW 2479   2.051   2.367   1.453 -0.2561 -0.0254  0.2728
  827SOL    HW1 2480   2.025   2.457   1.411  0.4255  4.4064 -1.9934
  827SOL    HW2 2481   2.011   2.367   1.544 -0.0114  0.2226 -1.8696
  828SOL     OW 2482   2.579   2.713   1.660  0.0291  0.4486  0.1483
  828SOL    HW1 2483   2.531   2.657   1.591  2.2390 -0.6255 -0.8379
  828SOL    HW2 2484   2.535   2.802   1.668 -0.8795 -0.8753  3.5939
  829SOL     OW 2485   1.528   2.450   2.582 -0.1838 -0.5524 -0.1683
  829SOL    HW1 2486   1.537   2.494   2.674  1.8327 -1.2612  1.6424
  829SOL    HW2 2487   1.549   2.352   2.587 -0.5061 -0.7771 -0.2011
  830SOL     OW 2488   1.482   0.316   0.603  0.4317  0.6970 -0.3303
  830SOL    HW1 2489   1.395   0.280   0.564 -0.8177 -0.0290  0.5777
  830SOL    HW2 2490   1.534   0.235   0.642  1.8604  0.1081  1.4157
  831SOL     OW 2491   2.440   1.255   0.048  0.2217 -0.5599  0.1512
  831SOL    HW1 2492   2.416   1.248   0.146  0.7041 -0.8086 -2.2717
  831SOL    HW2 2493   2.483   1.168   0.012  2.1894  1.8594 -0.6904
  832SOL     OW 2494   1.623   1.931   1.951  0.5508 -0.0196 -0.3176
  832SOL    HW1 2495   1.622   1.832   1.933  0.8480  1.2238  1.6056
  832SOL    HW2 2496   1.725   1.952   1.939  0.6699 -0.0490 -1.2632
  833SOL     OW 2497   2.906   2.704   2.265 -0.0558  0.0201 -0.6367
  833SOL    HW1 2498   2.904   2.658   2.359  0.4389  1.3101  1.9519
  833SOL    HW2 2499   2.815   2.738   2.242  1.6679  0.2973  1.7030
  834SOL     OW 2500   0.808   0.995   1.586 -0.4313  0.2849  0.8237
  834SOL    HW1 2501   0.863   1.076   1.621  1.3031  2.7053  0.8620
  834SOL    HW2 2502   0.816   0.984   1.488 -2.1929 -0.9601  0.1357
  835SOL     OW 2503   3.107   0.898   2.595  0.2114 -0.1229 -0.1399
  835SOL    HW1 2504   0.005   0.829   2.522  1.6541  2.7551 -0.6840
  835SOL    HW2 2505   3.037   0.962   2.556 -3.7408 -0.1117  0.9322
  836SOL     OW 2506   1.211   2.083   0.995 -0.6730  0.3179 -0.0347
  836SOL    HW1 2507   1.235   2.163   1.055 -1.1054  0.5461  1.9502
  836SOL    HW2 2508   1.265   1.998   1.024 -1.2998  1.2460  2.1040
  837SOL     OW 2509   1.832   1.100   1.095 -0.0740  0.0236 -0.0574
  837SOL    HW1 2510   1.878   1.189   1.097 -1.6640 -3.2151 -0.6777
  837SOL    HW2 2511   1.790   1.077   1.185  1.4785  2.0320  1.5808
  838SOL     OW 2512   1.236   1.885   2.562  0.1368  0.0565  0.2541
  838SOL    HW1 2513   1.185   1.822   2.505 -1.3459  0.9051 -2.0927
  838SOL    HW2 2514   1.223   1.858   2.657  0.6880 -3.3661  0.2804
  839SOL     OW 2515   0.716   2.290   2.783  0.1937  0.2749  0.2515
  839SOL    HW1 2516   0.616   2.275   2.791 -1.5894  0.3571 -0.5479
  839SOL    HW2 2517   0.759   2.323   2.867 -1.3171  0.6943 -2.4131
  840SOL     OW 2518   0.388   2.549   0.040 -0.3304 -0.1623 -0.0531
  840SOL    HW1 2519   0.320   2.483   0.004  0.3270  1.5530  1.4898
  840SOL    HW2 2520   0.464   2.556   3.096  0.8230 -2.4194 -3.0091
  841SOL     OW 2521   1.911   2.342   0.077 -0.4369 -0.0124 -0.8533
  841SOL    HW1 2522   1.929   2.269   0.006 -2.5047  0.4589  0.2460
  841SOL    HW2 2523   1.962   2.427   0.050 -0.9901  0.7060  1.1731
  842SOL     OW 2524   0.988   0.784   2.857 -0.0496 -0.0420  0.6939
  842SOL    HW1 2525   0.974   0.834   2.944  2.3705 -1.6056 -2.9315
  842SOL    HW2 2526   1.033   0.842   2.787 -2.6611 -3.2395  3.4339
  843SOL     OW 2527   1.079   2.892   0.592 -0.2718 -0.0884 -0.5809
  843SOL    HW1 2528   1.046   2.957   0.523  0.7079 -2.8648 -1.5297
  843SOL    HW2 2529   1.088   2.932   0.686  0.6614  0.3586  1.2280
  844SOL     OW 2530   2.284   2.962   2.537 -0.2660 -0.6129  0.3028
  844SOL    HW1 2531   2.287   3.061   2.567  0.2788  2.4697 -1.1094
  844SOL    HW2 2532   2.272   2.894   2.614  1.2148 -2.9340  0.7358
  845SOL     OW 2533   2.529   2.555   1.426 -0.3899 -0.6468 -0.0086
  845SOL    HW1 2534   2.465   2.474   1.438  1.4223 -1.7676 -3.4029
  845SOL    HW2 2535   2.517   2.586   1.329  1.1753  1.1421  0.4532
  846SOL     OW 2536   2.871   2.121   2.622 -0.0427 -0.2545  0.5575
  846SOL    HW1 2537   2.871   2.135   2.723 -0.9778 -1.8684 -0.0626
  846SOL    HW2 2538   2.959   2.078   2.590  0.1694 -1.4247  1.3300
  847SOL     OW 2539   1.467   0.687   1.696  0.0804  0.6362 -0.2604
  847SOL    HW1 2540   1.425   0.702   1.607 -2.6430  0.9248  2.4300
  847SOL    HW2 2541   1.429   0.598   1.725  0.4336 -0.3939 -1.7396
  848SOL     OW 2542   2.860   0.278   0.205  0.1483  0.1725 -0.0456
  848SOL    HW1 2543   2.860   0.228   0.115 -0.9889  3.1368  2.3589
  848SOL    HW2 2544   2.947   0.327   0.207  1.3670 -0.6650  0.5799
  849SOL     OW 2545   0.584   0.246   2.903 -0.5529 -0.4685  0.1080
  849SOL    HW1 2546   0.660   0.314   2.923  1.9432  1.7284 -0.3509
  849SOL    HW2 2547   0.518   0.241   2.984  0.0993 -1.0344 -1.3055
  850SOL     OW 2548   0.787   2.524   0.908 -0.0590 -0.2429 -0.4481
  850SOL    HW1 2549   0.750   2.460   0.839  1.0126  0.4837  1.3263
  850SOL    HW2 2550   0.811   2.612   0.860  2.3408  0.0517  0.9665
  851SOL     OW 2551   2.499   0.049   2.263 -0.1273 -0.2955 -0.0686
  851SOL    HW1 2552   2.482   0.071   2.166  1.2034 -1.2381 -1.0679
  851SOL    HW2 2553   2.475   0.134   2.317  2.3244  0.7496 -1.9805
  852SOL     OW 2554   1.801   1.412   2.172  0.2713  0.3373  0.2138
  852SOL    HW1 2555   1.736   1.458   2.237 -1.4157 -0.7347  0.9219
  852SOL    HW2 2556   1.847   1.332   2.212 -0.6857  2.8430 -1.8985
  853SOL     OW 2557   2.700   2.647   0.718  0.2843  0.1857 -0.1934
  853SOL    HW1 2558   2.785   2.595   0.744  0.6512  0.8364  2.2270
  853SOL    HW2 2559   2.706   2.748   0.741 -0.8967  1.3537 -0.7056
  854SOL     OW 2560   2.451   0.761   0.953  0.1839  0.8463 -0.4569
  854SOL    HW1 2561   2.536   0.790   0.910 -2.7340 -0.0043  1.6128
  854SOL    HW2 2562   2.414   0.686   0.898 -0.6551  0.6040  1.6725
  855SOL     OW 2563   1.371   2.226   0.618  0.1067 -0.2532 -0.0289
  855SOL    HW1 2564   1.394   2.190   0.523 -1.0415 -0.7703 -2.6381
  855SOL    HW2 2565   1.407   2.324   0.631  1.0647  1.5859  1.6462
  856SOL     OW 2566   2.874   0.399   2.847  0.2906  0.4106  0.2801
  856SOL    HW1 2567   2.927   0.440   2.767 -0.6799 -1.2495 -0.5098
  856SOL    HW2 2568   2.943   0.357   2.910  1.3901  1.3469  4.2742
  857SOL     OW 2569   1.598   2.958   1.917  0.0878  0.1912  0.2289
  857SOL    HW1 2570   1.655   2.874   1.897  1.6041  1.2407 -1.1562
  857SOL    HW2 2571   1.638   3.030   1.970 -2.1120 -1.5349 -1.8789
  858SOL     OW 2572   2.481   2.151   1.530 -0.1359 -0.6664  0.4419
  858SOL    HW1 2573   2.561   2.214   1.526  0.0386 -0.8148  1.7319
  858SOL    HW2 2574   2.480   2.090   1.608  0.2191 -0.3441 -2.1905
  859SOL     OW 2575   1.448   2.307   1.186 -0.2541 -0.5619 -0.0512
  859SOL    HW1 2576   1.344   2.293   1.180 -1.1773  0.2071 -0.3673
  859SOL    HW2 2577   1.472   2.383   1.245  0.4762  0.9220 -0.8568
  860SOL     OW 2578   2.482   2.589   0.058  0.5596 -0.1086 -0.3351
  860SOL    HW1 2579   2.571   2.628   0.031  0.9237  2.0766 -0.7318
  860SOL    HW2 2580   2.488   2.524   0.135 -0.6177  3.1126 -0.5941
  861SOL     OW 2581   1.466   2.508   0.985  0.2938 -0.2609  0.1090
  861SOL    HW1 2582   1.479   2.421   1.037 -0.3529  1.6196 -1.4593
  861SOL    HW2 2583   1.545   2.535   0.932 -1.3419  0.8566  2.6815
  862SOL     OW 2584   1.838   2.908   2.599 -0.1988 -0.6272  0.1423
  862SOL    HW1 2585   1.861   2.853   2.515 -0.9421  1.9941  1.1212
  862SOL    HW2 2586   1.873   3.006   2.598 -0.0518  0.5530  3.6257
  863SOL     OW 2587   0.147   0.543   0.384 -0.1429  0.5456  0.1683
  863SOL    HW1 2588   0.172   0.479   0.460 -0.1655  1.2934  1.1437
  863SOL    HW2 2589   0.087   0.622   0.408  0.2667 -0.5872 -0.8225
  864SOL     OW 2590   2.806   2.516   1.971  0.1311  0.6550  0.5926
  864SOL    HW1 2591   2.849   2.425   1.987 -1.0182  1.9977  1.7406
  864SOL    HW2 2592   2.771   2.547   2.063  0.5678  1.9677  0.3644
  865SOL     OW 2593   0.081   2.034   2.846  0.5700  0.4349 -0.0700
  865SOL    HW1 2594   0.037   2.012   2.759 -0.8142  1.3795  0.9097
  865SOL    HW2 2595   0.154   2.104   2.832  0.5043  1.3762 -3.1850
  866SOL     OW 2596   2.631   0.449   2.919  0.2137 -0.0778  0.3041
  866SOL    HW1 2597   2.729   0.430   2.892 -1.1071  2.8087  0.0873
  866SOL    HW2 2598   2.630   0.519   2.993  1.3664 -2.4996  0.7579
  867SOL     OW 2599   0.392   2.827   2.913 -0.0246  0.1947 -0.0035
  867SOL    HW1 2600   0.483   2.839   2.865  0.1934 -2.3057 -1.0444
  867SOL    HW2 2601   0.324   2.882   2.868  0.4511 -1.7056  2.3720
  868SOL     OW 2602   1.344   2.522   0.730 -0.0979  0.3587 -0.0703
  868SOL    HW1 2603   1.378   2.512   0.824 -2.4964  0.0352 -0.4079
  868SOL    HW2 2604   1.240   2.529   0.736 -1.8901  0.0713  1.6421
  869SOL     OW 2605   1.432   1.320   1.160 -0.4282 -0.8225 -0.7195
  869SOL    HW1 2606   1.522   1.369   1.173  0.6778  1.4165 -1.8486
  869SOL    HW2 2607   1.366   1.365   1.217  4.1521  2.6458  0.8582
  870SOL     OW 2608   1.830   2.043   0.985  0.3372  0.0962 -0.4614
  870SOL    HW1 2609   1.874   2.122   1.030 -1.0881 -0.4785  0.2356
  870SOL    HW2 2610   1.802   1.985   1.056  0.3390  3.8516 -3.1579
  871SOL     OW 2611   1.130   1.822   1.224 -0.0213 -0.5272 -0.1301
  871SOL    HW1 2612   1.136   1.744   1.291 -0.0802  1.0357 -1.7630
  871SOL    HW2 2613   1.225   1.842   1.186  1.0720  0.3034  1.5894
  872SOL     OW 2614   1.303   1.113   1.344  0.0390 -0.3694  0.5916
  872SOL    HW1 2615   1.337   1.097   1.437  0.3491  2.7994 -1.5296
  872SOL    HW2 2616   1.363   1.177   1.291 -0.6016 -3.7620 -0.9482
  873SOL     OW 2617   1.058   0.945   2.294  0.3182 -0.5167  0.5427
  873SOL    HW1 2618   0.973   0.973   2.347 -2.4923  1.6524 -0.7685
  873SOL    HW2 2619   1.139   0.945   2.359 -1.8567  1.7531  0.4621
  874SOL     OW 2620   0.419   1.076   1.239 -0.2571  0.5612  0.3896
  874SOL    HW1 2621   0.324   1.101   1.261  1.0307  0.1697  0.3690
  874SOL    HW2 2622   0.450   1.122   1.156  0.6943 -2.1917  1.1589
  875SOL     OW 2623   2.762   2.801   0.397 -0.0941  0.3986 -0.2422
  875SOL    HW1 2624   2.700   2.832   0.468  2.4012  0.4170 -0.3916
  875SOL    HW2 2625   2.731   2.811   0.300  0.5559  2.1320 -1.0556
  876SOL     OW 2626   1.157   0.373   2.816  0.5949 -0.1438 -0.8615
  876SOL    HW1 2627   1.132   0.277   2.795  0.8619  1.0021 -0.5118
  876SOL    HW2 2628   1.079   0.436   2.812  1.4201  0.5718 -0.1484
  877SOL     OW 2629   0.095   2.888   1.298  0.1402 -0.4499 -0.8435
  877SOL    HW1 2630   0.138   2.972   1.338  0.4603 -3.1438  0.9746
  877SOL    HW2 2631   0.085   2.904   1.196 -0.5828  0.1672  0.8524
  878SOL     OW 2632   2.024   2.569   3.066 -0.0831 -0.0517  0.3575
  878SOL    HW1 2633   2.109   2.601   3.110 -2.5901 -0.3885  0.4035
  878SOL    HW2 2634   1.999   2.619   2.979  1.2598  0.1795  0.0332
  879SOL     OW 2635   2.237   1.729   1.747 -0.1923 -0.6103  0.1584
  879SOL    HW1 2636   2.303   1.738   1.666 -0.2718  0.8367 -0.4731
  879SOL    HW2 2637   2.257   1.641   1.797  1.6972  0.6664 -1.3984
  880SOL     OW 2638   0.857   0.969   1.321  0.6518 -0.2741  0.0072
  880SOL    HW1 2639   0.947   0.979   1.275 -0.4561  0.1429 -1.3961
  880SOL    HW2 2640   0.821   0.878   1.288  0.2773  0.2555  1.5076
  881SOL     OW 2641   1.195   1.953   3.058  0.6656 -0.1664  0.4592
  881SOL    HW1 2642   1.275   2.012   3.037  1.1367  1.7829 -0.9509
  881SOL    HW2 2643   1.213   1.896   0.010 -1.7392  0.3434 -0.3386
  882SOL     OW 2644   1.767   0.512   0.893 -0.0947  0.5819  0.2972
  882SOL    HW1 2645   1.827   0.565   0.958 -1.4689 -0.7487 -0.9129
  882SOL    HW2 2646   1.736   0.423   0.938  0.0945 -0.8721 -1.6887
  883SOL     OW 2647   1.947   0.556   2.174  0.1613  0.8574 -0.7115
  883SOL    HW1 2648   1.915   0.642   2.221  0.0058 -1.3608  2.6834
  883SOL    HW2 2649   1.868   0.517   2.121 -3.6374  1.7788  0.8092
  884SOL     OW 2650   2.795   0.541   0.219  0.0904  1.0341  0.2769
  884SOL    HW1 2651   2.790   0.439   0.212  3.4869 -1.3664 -1.9798
  884SOL    HW2 2652   2.742   0.579   0.138 -1.1616  0.1088 -2.3935
  885SOL     OW 2653   0.944   1.894   0.599  0.0218  0.3801  0.0944
  885SOL    HW1 2654   0.978   1.987   0.625 -0.4761 -0.3299 -1.1400
  885SOL    HW2 2655   0.878   1.858   0.668  2.1711  0.9204  1.1497
  886SOL     OW 2656   1.958   1.482   0.218 -0.0099  0.4083  0.2837
  886SOL    HW1 2657   1.869   1.442   0.243  3.2655 -0.9599 -0.6860
  886SOL    HW2 2658   1.975   1.567   0.269 -1.3174  0.6563  2.2112
  887SOL     OW 2659   1.708   0.599   1.585 -0.0561  0.3248  0.1856
  887SOL    HW1 2660   1.674   0.509   1.571  0.7477  1.6885 -1.4635
  887SOL    HW2 2661   1.641   0.655   1.633  1.0009 -3.2743  0.1512
  888SOL     OW 2662   2.792   1.241   1.594 -0.4688 -1.1268  0.3605
  888SOL    HW1 2663   2.816   1.266   1.498 -1.0974  1.8504  0.3927
  888SOL    HW2 2664   2.801   1.141   1.605 -1.5194  1.5445 -0.2826
  889SOL     OW 2665   2.955   2.543   0.804  0.3075  0.0206 -0.0840
  889SOL    HW1 2666   3.039   2.574   0.762  0.3529 -0.4040  2.2972
  889SOL    HW2 2667   2.966   2.564   0.904  1.1958 -0.8270  1.4584
  890SOL     OW 2668   0.099   2.060   2.357  0.1849 -0.2394 -0.5288
  890SOL    HW1 2669   0.187   2.016   2.376 -0.1252  0.9685  4.1758
  890SOL    HW2 2670   0.110   2.126   2.273  1.8181  2.7016  0.0893
  891SOL     OW 2671   0.809   1.783   0.335  0.0764 -0.3371  0.2206
  891SOL    HW1 2672   0.846   1.824   0.422 -4.1941  2.5578  1.5665
  891SOL    HW2 2673   0.865   1.709   0.294 -1.0683 -3.0349 -0.7206
  892SOL     OW 2674   3.013   2.402   1.331  0.2117  0.3764 -0.1509
  892SOL    HW1 2675   2.929   2.442   1.369  0.0931 -2.1269 -1.5710
  892SOL    HW2 2676   3.005   2.299   1.320  0.8964 -0.2655  2.8820
  893SOL     OW 2677   0.088   0.139   1.753 -0.1726 -0.6594  0.1285
  893SOL    HW1 2678   0.033   0.143   1.847  1.7665 -1.6690  0.1858
  893SOL    HW2 2679   0.115   0.045   1.729 -0.5961  0.6520  0.5855
  894SOL     OW 2680   2.711   1.831   0.738  0.1614  0.0219  0.0666
  894SOL    HW1 2681   2.767   1.770   0.677 -0.1021 -0.2183  3.8804
  894SOL    HW2 2682   2.706   1.928   0.708 -0.4542  1.5889 -1.2478
  895SOL     OW 2683   1.967   2.486   1.727 -0.0660 -0.5614  0.0046
  895SOL    HW1 2684   2.047   2.418   1.744  1.8801 -1.4105  0.2024
  895SOL    HW2 2685   2.005   2.578   1.705  2.9901  2.1356 -0.5489
  896SOL     OW 2686   0.610   0.005   1.408 -0.4007 -0.3004 -0.1755
  896SOL    HW1 2687   0.539   0.004   1.337  2.2436 -2.1851  1.7875
  896SOL    HW2 2688   0.572   0.019   1.499  1.2514 -0.8003 -0.9289
  897SOL     OW 2689   1.364   1.086   1.607 -0.3446 -0.1525 -0.3724
  897SOL    HW1 2690   1.285   1.058   1.666 -0.5527 -0.9788  0.2802
  897SOL    HW2 2691   1.449   1.072   1.659  1.1302  0.8695 -0.3615
  898SOL     OW 2692   1.178   0.010   1.644  0.4359  0.0876  0.0611
  898SOL    HW1 2693   1.092   3.086   1.625  1.0570 -1.2762  1.5264
  898SOL    HW2 2694   1.236   0.023   1.561 -0.3384  0.0549  0.8813
  899SOL     OW 2695   1.318   0.361   3.089  0.6445 -0.1711 -0.1818
  899SOL    HW1 2696   1.406   0.313   3.084  0.8316  1.6691  1.2805
  899SOL    HW2 2697   1.272   0.357   2.999 -0.2581 -0.9468 -1.4424
  900SOL     OW 2698   0.702   3.107   2.017 -0.0115 -1.0332 -0.3989
  900SOL    HW1 2699   0.718   3.093   1.916  1.6890 -0.2986  0.9344
  900SOL    HW2 2700   0.726   0.078   2.044 -0.8434 -2.1494 -0.5906
  901SOL     OW 2701   0.815   2.206   0.363 -0.1882 -0.0688 -0.2488
  901SOL    HW1 2702   0.881   2.273   0.398 -1.9944  0.2956  0.4328
  901SOL    HW2 2703   0.857   2.173   0.276  1.0179  2.2702  0.9712
  902SOL     OW 2704   2.133   0.504   1.155  0.1315 -0.9593 -0.2131
  902SOL    HW1 2705   2.093   0.534   1.065  0.9981  2.4532  1.0479
  902SOL    HW2 2706   2.150   0.404   1.159 -1.1247 -2.1290  0.7603
  903SOL     OW 2707   2.766   1.129   2.819  0.0422 -0.0766  0.0231
  903SOL    HW1 2708   2.749   1.232   2.816 -0.6225  3.6038 -0.3691
  903SOL    HW2 2709   2.806   1.093   2.729  1.0738  2.1548 -0.7496
  904SOL     OW 2710   1.538   1.249   0.079  0.6314 -0.5001  0.0777
  904SOL    HW1 2711   1.601   1.201   0.021 -2.6103  2.9675 -0.5361
  904SOL    HW2 2712   1.486   1.313   0.022 -0.5167 -1.7016  3.7307
  905SOL     OW 2713   1.793   0.004   1.579 -0.7525  0.4455  0.2894
  905SOL    HW1 2714   1.859   3.069   1.634  1.0321 -0.6789  2.8822
  905SOL    HW2 2715   1.850   0.086   1.541 -0.5334  3.6605 -0.8448
  906SOL     OW 2716   2.256   3.010   1.201 -0.3844  0.1793 -0.6524
  906SOL    HW1 2717   2.336   3.075   1.226  0.6116  0.7143 -0.4109
  906SOL    HW2 2718   2.267   2.971   1.105  1.8533  0.0373  0.7287
  907SOL     OW 2719   1.803   1.050   0.378 -0.2083  0.0479 -0.0548
  907SOL    HW1 2720   1.727   1.021   0.317  0.9289  1.2804  0.4210
  907SOL    HW2 2721   1.771   1.133   0.432 -1.2096  2.0045 -1.2177
  908SOL     OW 2722   1.794   0.369   1.319 -0.1017 -0.3505 -0.2839
  908SOL    HW1 2723   1.705   0.378   1.365  0.7163 -2.1856 -1.9719
  908SOL    HW2 2724   1.820   0.460   1.280 -1.2579 -0.1366 -0.8772
  909SOL     OW 2725   2.358   0.122   0.881  0.0806  0.1432 -0.0350
  909SOL    HW1 2726   2.314   0.150   0.795  0.6325  0.2672 -2.3471
  909SOL    HW2 2727   2.365   0.197   0.950 -1.5267 -0.6126 -1.8353
  910SOL     OW 2728   2.443   0.506   2.243 -0.0376  0.2910 -0.4768
  910SOL    HW1 2729   2.517   0.577   2.242  2.4828  1.1463  0.5094
  910SOL    HW2 2730   2.359   0.549   2.204  0.7006  4.2800 -1.8791
  911SOL     OW 2731   2.609   0.198   2.974 -0.2664  0.4601  0.4537
  911SOL    HW1 2732   2.621   0.296   2.943  1.1170 -0.4365  0.5155
  911SOL    HW2 2733   2.600   0.143   2.887  3.6693 -0.9205  1.3004
  912SOL     OW 2734   0.600   1.095   1.757  0.0315  0.0121 -0.2753
  912SOL    HW1 2735   0.658   1.054   1.683  0.2315  3.4710 -0.6169
  912SOL    HW2 2736   0.637   1.185   1.796 -1.4745  2.7227 -0.1490
  913SOL     OW 2737   2.795   2.523   1.488 -0.0247 -0.0914  0.0917
  913SOL    HW1 2738   2.795   2.557   1.585 -0.6663 -1.6657  0.0866
  913SOL    HW2 2739   2.709   2.565   1.443 -3.1558  3.3304 -0.5463
  914SOL     OW 2740   2.009   0.899   1.582 -0.0096  0.0676 -0.6552
  914SOL    HW1 2741   2.092   0.932   1.631 -1.5584 -1.4311  0.8792
  914SOL    HW2 2742   2.026   0.893   1.482 -1.6561 -2.0454 -2.2457
  915SOL     OW 2743   3.003   1.508   1.148 -0.6902  0.2073  0.2653
  915SOL    HW1 2744   2.987   1.595   1.104 -1.0708 -3.7587 -0.3837
  915SOL    HW2 2745   3.050   1.443   1.089 -0.7443 -0.5941  0.7522
  916SOL     OW 2746   1.926   2.308   1.073 -0.5381  0.0370 -0.5983
  916SOL    HW1 2747   1.876   2.371   1.139  1.6567 -0.3096  1.7996
  916SOL    HW2 2748   1.946   2.351   0.983 -1.3942  1.3282  0.7592
  917SOL     OW 2749   1.655   2.611   2.106  0.2426  0.1587 -0.3567
  917SOL    HW1 2750   1.628   2.631   2.202 -1.0681  1.3289  2.3457
  917SOL    HW2 2751   1.573   2.578   2.052 -0.1137 -0.7127 -1.9970
  918SOL     OW 2752   2.028   2.341   2.328  0.0042  0.1334 -0.1671
  918SOL    HW1 2753   1.981   2.335   2.238  0.0657 -0.7665  1.3755
  918SOL    HW2 2754   2.003   2.261   2.375 -1.6214 -3.1823 -0.8233
  919SOL     OW 2755   0.811   0.197   1.393  0.0599  0.6343  1.1661
  919SOL    HW1 2756   0.731   0.140   1.418 -1.6665  0.3921 -2.4683
  919SOL    HW2 2757   0.861   0.240   1.465 -2.3071 -0.2768 -0.1949
  920SOL     OW 2758   2.775   0.308   2.234  0.1453 -0.1178  0.0066
  920SOL    HW1 2759   2.678   0.323   2.262 -0.4134  2.1602 -1.3776
  920SOL    HW2 2760   2.834   0.275   2.307  0.9387 -1.0613 -0.1199
  921SOL     OW 2761   3.119   1.230   1.762  0.4553 -0.1640  0.2383
  921SOL    HW1 2762   0.009   1.134   1.788  0.1261  0.8266 -0.1452
  921SOL    HW2 2763   3.070   1.276   1.835  0.4327 -2.7848 -1.4640
  922SOL     OW 2764   2.733   2.350   0.851 -0.0213 -0.1631 -0.3948
  922SOL    HW1 2765   2.830   2.391   0.853  1.2702 -1.5379  1.9391
  922SOL    HW2 2766   2.690   2.374   0.939 -2.1745 -1.1989  1.3005
  923SOL     OW 2767   0.467   2.525   0.506 -0.0141  0.2087 -0.3401
  923SOL    HW1 2768   0.506   2.437   0.463  3.0301  1.5929 -0.8105
  923SOL    HW2 2769   0.394   2.509   0.577  1.6845 -1.1770  0.0078
  924SOL     OW 2770   1.089   0.973   2.686 -0.1562  0.3725 -0.5018
  924SOL    HW1 2771   1.113   1.072   2.684 -0.3195 -1.1000 -0.4600
  924SOL    HW2 2772   1.150   0.918   2.631 -0.8181 -0.9027  0.9831
  925SOL     OW 2773   2.871   1.409   0.581 -0.5337 -0.2708  0.5275
  925SOL    HW1 2774   2.791   1.367   0.624 -2.6063  2.1577  0.6069
  925SOL    HW2 2775   2.904   1.354   0.505 -1.3940  3.0719 -2.7959
  926SOL     OW 2776   3.114   0.067   0.812  0.5256  0.0370 -0.2587
  926SOL    HW1 2777   0.079   0.037   0.771 -2.7642  0.3207  0.4134
  926SOL    HW2 2778   3.073   3.121   0.878 -0.8007 -0.4456  0.4862
  927SOL     OW 2779   0.431   1.945   2.677 -0.2687  0.5164  0.7019
  927SOL    HW1 2780   0.382   1.870   2.727 -0.8483  2.8255 -0.2610
  927SOL    HW2 2781   0.391   1.948   2.587  3.7073  1.2094  4.7059
  928SOL     OW 2782   0.126   0.431   2.224 -0.0681  0.2073 -0.8326
  928SOL    HW1 2783   0.151   0.340   2.270 -1.2212 -1.4479 -0.5929
  928SOL    HW2 2784   0.176   0.511   2.260 -1.1436 -0.7796  0.3470
  929SOL     OW 2785   2.754   2.187   1.236 -0.0344  0.2042  0.6836
  929SOL    HW1 2786   2.682   2.113   1.240  0.4573 -1.1804  1.4217
  929SOL    HW2 2787   2.723   2.274   1.198  0.1884 -1.6030 -0.6513
  930SOL     OW 2788   1.857   0.337   2.332  0.0455  0.6197 -0.3635
  930SOL    HW1 2789   1.760   0.344   2.358  1.9976 -0.9226  0.1051
  930SOL    HW2 2790   1.889   0.424   2.291 -0.3988  1.7753 -0.5426
  931SOL     OW 2791   2.294   1.096   2.856 -0.5035 -0.0727  0.5341
  931SOL    HW1 2792   2.290   1.185   2.804 -1.3974 -2.0063 -0.6142
  931SOL    HW2 2793   2.265   1.018   2.796  1.6971 -1.5981 -2.9485
  932SOL     OW 2794   2.047   1.239   0.699 -0.1612  0.5177  0.1064
  932SOL    HW1 2795   2.017   1.144   0.675  3.9090  1.3120  0.9378
  932SOL    HW2 2796   1.984   1.308   0.659 -2.2196 -1.1068 -1.4966
  933SOL     OW 2797   2.338   1.497   0.965  0.3541  0.3666 -1.1707
  933SOL    HW1 2798   2.267   1.420   0.960 -1.1925 -1.0754 -0.2081
  933SOL    HW2 2799   2.378   1.523   0.878 -1.5196  1.6638  2.5594
  934SOL     OW 2800   2.203   0.925   2.679 -0.1307  0.5662  0.1144
  934SOL    HW1 2801   2.285   0.883   2.630 -0.8265 -0.9817  0.6226
  934SOL    HW2 2802   2.123   0.870   2.654 -0.3688  2.8855 -1.7136
  935SOL     OW 2803   0.180   1.519   0.663  0.1252 -0.1645 -0.2036
  935SOL    HW1 2804   0.257   1.465   0.612  0.7534 -1.9805 -2.5454
  935SOL    HW2 2805   0.099   1.459   0.689  1.5871 -1.0049  1.8081
  936SOL     OW 2806   0.059   2.611   0.690  0.0485  0.0111 -0.1149
  936SOL    HW1 2807   0.071   2.696   0.638 -1.0285  2.1677 -2.6958
  936SOL    HW2 2808   0.141   2.580   0.736 -1.3998 -1.3695  1.9883
  937SOL     OW 2809   0.026   2.329   1.699 -0.2608  0.1287  0.1616
  937SOL    HW1 2810   0.068   2.346   1.609  0.8349  1.6462  2.1369
  937SOL    HW2 2811   0.029   2.229   1.730 -0.1840 -0.4210 -0.5360
  938SOL     OW 2812   2.761   2.060   0.010  0.1351 -0.2523 -0.2415
  938SOL    HW1 2813   2.850   2.111   0.024 -0.5634  1.6096  0.1827
  938SOL    HW2 2814   2.779   1.961   3.120 -1.4046  1.7255  1.8023
  939SOL     OW 2815   1.126   0.929   1.253 -0.2401 -0.4399  0.0214
  939SOL    HW1 2816   1.196   1.001   1.276  0.0578  3.4754  1.0043
  939SOL    HW2 2817   1.147   0.891   1.161  0.7198 -2.1124 -0.7736
  940SOL     OW 2818   2.516   0.096   2.749  0.2591 -0.0184 -0.5129
  940SOL    HW1 2819   2.513   0.191   2.713  0.3708  1.3225  1.1291
  940SOL    HW2 2820   2.469   0.031   2.680 -1.5675 -0.4859 -1.7960
  941SOL     OW 2821   2.551   2.612   2.494  0.4089 -0.4267 -0.4613
  941SOL    HW1 2822   2.596   2.528   2.452 -2.3091 -1.3842 -0.3125
  941SOL    HW2 2823   2.471   2.640   2.435 -2.0703  0.2715 -2.8315
  942SOL     OW 2824   1.490   0.500   1.296  0.1699 -0.4299  0.2189
  942SOL    HW1 2825   1.508   0.543   1.208 -1.1471 -3.4099 -1.0676
  942SOL    HW2 2826   1.468   0.573   1.361  1.1741 -1.2062 -0.0745
  943SOL     OW 2827   0.659   1.678   2.531  0.1148  0.2572  0.0065
  943SOL    HW1 2828   0.626   1.701   2.439 -2.8876 -0.1390 -1.5694
  943SOL    HW2 2829   0.675   1.761   2.588 -0.7597 -0.0051  2.5834
  944SOL     OW 2830   2.383   0.918   0.654  0.2656  0.2278 -0.0127
  944SOL    HW1 2831   2.307   0.853   0.680  1.7256 -1.9118 -0.1724
  944SOL    HW2 2832   2.346   1.009   0.670 -0.0023 -1.3072  0.8610
  945SOL     OW 2833   2.990   3.062   3.002  0.8621  0.4787 -0.1302
  945SOL    HW1 2834   2.998   3.034   2.905  1.1512 -1.5271 -0.5959
  945SOL    HW2 2835   3.081   3.044   3.047 -1.9048 -0.9220  1.8470
  946SOL     OW 2836   0.022   1.298   1.515  0.0458  0.8624  0.2479
  946SOL    HW1 2837   0.120   1.327   1.514 -0.1829 -0.2747 -0.0571
  946SOL    HW2 2838   3.122   1.266   1.613 -1.0822 -1.9133 -1.1316
  947SOL     OW 2839   0.927   0.083   0.082  0.5775  0.4400 -0.4743
  947SOL    HW1 2840   1.014   0.040   0.119 -0.9579  0.3731 -1.5107
  947SOL    HW2 2841   0.870   0.016   0.033 -1.5176  1.3679  2.5414
  948SOL     OW 2842   2.427   1.568   1.211  0.2386 -0.3318 -0.1837
  948SOL    HW1 2843   2.521   1.541   1.234  0.2494 -1.0046  0.1562
  948SOL    HW2 2844   2.401   1.538   1.116 -0.6515  0.6750  0.7619
  949SOL     OW 2845   0.396   0.832   2.925 -0.1227 -0.6530 -0.4796
  949SOL    HW1 2846   0.451   0.905   2.970 -0.8595  1.4138  0.8849
  949SOL    HW2 2847   0.319   0.874   2.872 -2.2566  0.9222 -0.5581
  950SOL     OW 2848   0.327   2.583   1.146 -0.4458 -0.2059 -0.1718
  950SOL    HW1 2849   0.275   2.618   1.227  3.2993 -0.6566  1.0726
  950SOL    HW2 2850   0.398   2.523   1.180  0.5643 -0.5880 -1.0295
  951SOL     OW 2851   0.907   1.716   2.839  0.4031  0.0109 -0.5341
  951SOL    HW1 2852   0.888   1.655   2.916 -0.9350  1.7236 -0.7319
  951SOL    HW2 2853   0.827   1.781   2.821 -0.8506 -0.7547 -3.3364
  952SOL     OW 2854   0.655   1.400   0.500  1.0411  0.0600 -0.4147
  952SOL    HW1 2855   0.685   1.304   0.508  1.7206 -0.0986  1.3270
  952SOL    HW2 2856   0.707   1.457   0.563  1.1224 -1.9141 -1.6573
  953SOL     OW 2857   2.343   2.043   2.888 -0.5232  0.1564 -0.0375
  953SOL    HW1 2858   2.272   2.110   2.858  1.5671  1.9935  1.7418
  953SOL    HW2 2859   2.430   2.100   2.895  3.2514  2.9019 -0.4999
  954SOL     OW 2860   1.802   0.736   0.723 -0.1807  0.2114  0.6061
  954SOL    HW1 2861   1.798   0.654   0.782  1.0086  1.0957  3.2826
  954SOL    HW2 2862   1.797   0.822   0.779  3.6588 -0.7014  0.0908
  955SOL     OW 2863   0.933   2.008   3.012 -0.0080  0.2840 -0.3333
  955SOL    HW1 2864   0.911   2.065   2.929 -0.6339  0.4463 -1.1585
  955SOL    HW2 2865   1.036   1.996   3.024  5.0422  0.1005  0.7666
  956SOL     OW 2866   2.728   0.439   1.992 -0.3667 -0.0211  0.4079
  956SOL    HW1 2867   2.630   0.425   1.965 -0.9919  2.6833  0.4792
  956SOL    HW2 2868   2.748   0.398   2.081 -0.4627  0.6567 -1.2455
  957SOL     OW 2869   1.658   2.186   2.115  0.6309  0.2015 -0.0851
  957SOL    HW1 2870   1.628   2.176   2.020  1.1865 -0.1342 -0.5473
  957SOL    HW2 2871   1.762   2.177   2.119  1.1072 -0.7350 -0.3457
  958SOL     OW 2872   1.771   1.074   1.644  0.0667 -0.0616  0.2599
  958SOL    HW1 2873   1.754   1.177   1.629  1.2396 -0.3599  2.1973
  958SOL    HW2 2874   1.868   1.048   1.649  0.8362 -3.1062  0.3013
  959SOL     OW 2875   1.490   1.893   2.192  0.4080 -0.2990 -0.1302
  959SOL    HW1 2876   1.560   1.904   2.117 -1.3466 -0.9349  1.9277
  959SOL    HW2 2877   1.443   1.802   2.178 -2.6682 -2.1867  1.2535
  960SOL     OW 2878   0.524   0.601   2.896 -0.0308 -0.2575  0.2157
  960SOL    HW1 2879   0.488   0.697   2.904  1.8893 -0.6371 -0.3616
  960SOL    HW2 2880   0.574   0.571   2.982  0.5976 -0.6905 -1.1969
  961SOL     OW 2881   0.185   1.132   0.002  0.0315  0.2280  0.0098
  961SOL    HW1 2882   0.113   1.123   3.055 -1.9741 -0.7076  0.4298
  961SOL    HW2 2883   0.194   1.234   0.023  1.8782  1.8194 -3.4134
  962SOL     OW 2884   0.944   2.144   2.780 -0.1732  0.8011 -0.4105
  962SOL    HW1 2885   0.851   2.186   2.773 -1.3431  0.8085 -1.3452
  962SOL    HW2 2886   1.008   2.198   2.838 -2.9508 -2.2043 -4.3725
  963SOL     OW 2887   0.033   1.592   3.064 -0.2100  0.2343 -0.1652
  963SOL    HW1 2888   3.118   1.661   2.998 -0.0782  0.2653  1.5414
  963SOL    HW2 2889   0.135   1.597   3.050  2.1673  0.0673 -0.0738
  964SOL     OW 2890   0.674   2.402   2.093  0.2470 -0.0570  0.0111
  964SOL    HW1 2891   0.585   2.408   2.043 -1.0294 -0.2576  2.2069
  964SOL    HW2 2892   0.715   2.491   2.078 -1.3708 -2.4266  1.4549
  965SOL     OW 2893   1.726   1.703   1.603 -0.3580 -0.5431 -0.7443
  965SOL    HW1 2894   1.789   1.620   1.602  2.1263 -1.0964  0.2382
  965SOL    HW2 2895   1.679   1.710   1.691  0.0009  0.5022 -0.5416
  966SOL     OW 2896   3.024   1.623   0.185 -0.1911  0.3954 -0.2526
  966SOL    HW1 2897   3.070   1.655   0.270 -2.3598  1.0312  1.8424
  966SOL    HW2 2898   3.093   1.629   0.109  0.8874  2.2091  1.9417
  967SOL     OW 2899   2.165   2.614   2.116 -0.2183 -0.7037 -0.2921
  967SOL    HW1 2900   2.082   2.552   2.105  0.0948 -0.9561  1.3489
  967SOL    HW2 2901   2.166   2.700   2.061  4.5931 -3.1191  1.6027
  968SOL     OW 2902   1.370   0.941   0.073 -0.1301 -0.5237  0.6669
  968SOL    HW1 2903   1.471   0.941   0.086 -1.6271  0.4031  1.1527
  968SOL    HW2 2904   1.336   0.865   0.015  1.3905 -1.9836 -1.8447
  969SOL     OW 2905   0.422   1.350   2.494  0.1947 -0.1760  0.3985
  969SOL    HW1 2906   0.479   1.328   2.413 -0.7211  1.5922  1.2916
  969SOL    HW2 2907   0.429   1.282   2.567 -1.9459 -0.6297 -1.4022
  970SOL     OW 2908   2.210   2.908   0.690  0.3303  0.0531 -0.0708
  970SOL    HW1 2909   2.283   2.927   0.627 -1.1761  3.2143  2.6435
  970SOL    HW2 2910   2.118   2.897   0.639 -1.4042 -0.4215 -1.6846
  971SOL     OW 2911   2.158   2.248   0.710 -0.3130 -0.8675 -0.0409
  971SOL    HW1 2912   2.165   2.233   0.812  0.1558  1.0562  1.3790
  971SOL    HW2 2913   2.221   2.320   0.676 -0.8274 -0.7583 -0.6265
  972SOL     OW 2914   0.196   1.398   2.831  0.0682  0.2143  0.7929
  972SOL    HW1 2915   0.267   1.363   2.764 -1.1061  0.5507 -2.9286
  972SOL    HW2 2916   0.241   1.413   2.925 -0.4441  1.3272  0.1875
  973SOL     OW 2917   0.739   0.472   0.228  0.1154  0.7069  0.0893
  973SOL    HW1 2918   0.802   0.427   0.162 -2.2337  1.4475  2.2288
  973SOL    HW2 2919   0.795   0.524   0.290  0.3827 -1.1906 -3.1290
  974SOL     OW 2920   2.502   0.997   1.748  1.0558  0.2279  0.2842
  974SOL    HW1 2921   2.498   0.897   1.725 -1.7833  1.9370  0.8029
  974SOL    HW2 2922   2.578   1.009   1.806 -0.9921  0.5200 -0.2288
  975SOL     OW 2923   2.917   0.069   0.633 -0.0539  0.0033  0.0196
  975SOL    HW1 2924   2.985   0.055   0.707  0.4500 -0.9465 -0.3037
  975SOL    HW2 2925   2.855   0.147   0.655  0.9859  1.4044  0.8606
  976SOL     OW 2926   0.685   1.699   1.417  0.6663  0.7388  0.2313
  976SOL    HW1 2927   0.623   1.616   1.428 -0.8468  0.2740 -2.5201
  976SOL    HW2 2928   0.744   1.692   1.332 -0.2121  0.2391 -0.0718
  977SOL     OW 2929   1.379   2.175   0.365 -0.5647  0.1605 -0.0491
  977SOL    HW1 2930   1.435   2.139   0.287  0.1836 -0.2429  0.7352
  977SOL    HW2 2931   1.319   2.250   0.333  2.1357 -1.9126  2.7220
  978SOL     OW 2932   3.118   0.775   3.098  0.2247 -0.4236 -0.3265
  978SOL    HW1 2933   3.092   0.769   2.999  0.4490 -0.9842 -2.7072
  978SOL    HW2 2934   0.062   0.702   3.119  0.2420 -3.3277  0.0821
  979SOL     OW 2935   2.011   1.630   0.926  0.9096  0.3054  0.6204
  979SOL    HW1 2936   2.042   1.531   0.936 -1.0804 -1.5333  2.7364
  979SOL    HW2 2937   2.046   1.679   0.844 -1.5093 -2.9881  4.9760
  980SOL     OW 2938   0.586   2.036   1.915 -0.5175  0.0411  0.5077
  980SOL    HW1 2939   0.581   1.977   1.831 -0.0370  1.4102 -0.8019
  980SOL    HW2 2940   0.664   2.100   1.900  0.3478 -2.6316  1.7873
  981SOL     OW 2941   2.587   1.261   2.534  0.2246 -0.6459 -0.2210
  981SOL    HW1 2942   2.635   1.284   2.620  0.1037  1.6651  0.0967
  981SOL    HW2 2943   2.507   1.330   2.523 -2.3580 -0.0680 -1.7107
  982SOL     OW 2944   0.057   2.042   1.792  0.0495  0.6805 -0.2514
  982SOL    HW1 2945   0.086   1.979   1.722  1.1960  1.8169  0.6081
  982SOL    HW2 2946   0.135   2.066   1.852 -0.7047 -1.0067 -0.2984
  983SOL     OW 2947   1.524   0.326   1.912 -0.4079  0.1029 -0.2092
  983SOL    HW1 2948   1.465   0.406   1.885 -3.4414  3.6561 -2.7711
  983SOL    HW2 2949   1.542   0.268   1.833  1.7617 -1.1980 -2.9056
  984SOL     OW 2950   2.735   2.904   3.003  0.3146 -0.2759 -0.1225
  984SOL    HW1 2951   2.827   2.956   3.003  3.1157 -1.0191  3.0917
  984SOL    HW2 2952   2.659   2.966   2.989  1.1871  0.9086  2.0338
  985SOL     OW 2953   1.324   1.403   1.828 -0.1026  0.0950 -0.4622
  985SOL    HW1 2954   1.308   1.494   1.868 -1.5467  2.0799  0.5258
  985SOL    HW2 2955   1.406   1.358   1.872  1.3976 -0.3009  1.8891
  986SOL     OW 2956   2.010   0.162   2.883  0.5792  0.2511  0.4307
  986SOL    HW1 2957   2.085   0.223   2.856 -2.1208 -0.2390  1.1523
  986SOL    HW2 2958   1.938   0.223   2.926 -0.5059  0.9904  1.0003
  987SOL     OW 2959   2.872   1.658   2.657  0.1331  0.2802  0.2280
  987SOL    HW1 2960   2.858   1.568   2.707  0.0334 -1.0037 -0.0417
  987SOL    HW2 2961   2.794   1.725   2.665 -0.0879  0.1183  1.9656
  988SOL     OW 2962   0.101   0.157   1.163  0.9052 -0.3153 -0.0288
  988SOL    HW1 2963   0.130   0.121   1.254  1.9315 -0.9731 -0.4203
  988SOL    HW2 2964   3.124   0.145   1.155 -0.2971 -1.1371 -0.7491
  989SOL     OW 2965   2.190   0.257   1.191 -0.1638  0.2026  0.1036
  989SOL    HW1 2966   2.251   0.250   1.273 -0.9379 -3.0992 -0.9516
  989SOL    HW2 2967   2.143   0.167   1.171  0.7008 -0.7387  0.0731
  990SOL     OW 2968   2.678   0.647   3.108  0.5140  0.0132  0.3386
  990SOL    HW1 2969   2.751   0.715   3.083  1.8476 -3.7522  2.3414
  990SOL    HW2 2970   2.585   0.695   3.123 -4.1277  1.0174  1.1238
  991SOL     OW 2971   0.202   1.405   0.292  0.3158  0.0460  0.2010
  991SOL    HW1 2972   0.136   1.335   0.332  1.1408  0.5907 -3.1180
  991SOL    HW2 2973   0.167   1.503   0.295 -1.1831  0.2098  1.7225
  992SOL     OW 2974   2.092   1.379   1.804  0.3618  0.1818 -0.3695
  992SOL    HW1 2975   2.181   1.430   1.826  0.9069  1.6890  1.0552
  992SOL    HW2 2976   2.073   1.303   1.867  1.2628 -0.5154  0.6462
  993SOL     OW 2977   0.246   2.265   0.817  0.4416 -0.2264  0.0721
  993SOL    HW1 2978   0.188   2.320   0.877  0.0312 -1.0516 -0.8010
  993SOL    HW2 2979   0.343   2.280   0.833 -2.6211  3.2486 -2.6432
  994SOL     OW 2980   2.985   1.710   1.896  0.0565 -0.5750 -0.4641
  994SOL    HW1 2981   2.893   1.676   1.917 -0.0313  0.1569 -0.3702
  994SOL    HW2 2982   3.035   1.657   1.832 -1.7636  1.7837  2.4125
  995SOL     OW 2983   1.939   1.846   2.660  0.1246  0.4951 -0.0114
  995SOL    HW1 2984   2.011   1.917   2.661  3.1902 -1.4367 -0.0451
  995SOL    HW2 2985   1.974   1.766   2.602  0.2251 -0.2439 -3.2952
  996SOL     OW 2986   2.175   2.338   0.346  0.2724 -0.3104  0.1579
  996SOL    HW1 2987   2.079   2.316   0.368 -1.7223  2.4749  1.1364
  996SOL    HW2 2988   2.247   2.264   0.365  3.3592 -4.5976  0.7834
  997SOL     OW 2989   1.155   1.641   2.465  0.6679  0.3483 -0.0512
  997SOL    HW1 2990   1.062   1.638   2.505 -1.5141  2.2092 -0.0525
  997SOL    HW2 2991   1.153   1.577   2.388 -1.3878 -1.2943 -0.4583
  998SOL     OW 2992   2.994   2.363   0.587  0.1841 -0.5209  0.2966
  998SOL    HW1 2993   3.007   2.403   0.680 -1.9695 -1.0118 -4.7195
  998SOL    HW2 2994   2.970   2.434   0.519  0.0688 -0.7065  0.3403
  999SOL     OW 2995   0.607   2.907   0.479 -0.1766  0.6555 -0.0498
  999SOL    HW1 2996   0.514   2.882   0.439 -2.9112 -0.2249  1.3388
  999SOL    HW2 2997   0.627   2.848   0.562  1.0251 -3.1412  0.4274
 1000SOL     OW 2998   1.285   0.160   0.267 -0.1948  0.2475 -0.2077
 1000SOL    HW1 2999   1.383   0.169   0.285 -2.0292 -1.0223  2.2649
 1000SOL    HW2 3000   1.242   0.240   0.224  2.3369  0.0516  0.8103
   3.12477   3.12477   3.12477
