1000 SPC/Fw water molecules t= 242.00000 step= 242000
 3000
    1SOL     OW    1   2.703   2.617   1.142  0.2919 -0.5946  0.2081
    1SOL    HW1    2   2.749   2.539   1.097 -0.5751 -1.1654 -0.7949
    1SOL    HW2    3   2.618   2.631   1.083 -0.1646  0.4672  0.5354
    2SOL     OW    4   1.779   1.889   1.352 -0.1935 -0.2666 -0.2841
    2SOL    HW1    5   1.702   1.874   1.415  0.8501  0.0548  1.7766
    2SOL    HW2    6   1.846   1.815   1.366 -2.1788  0.8353  1.5546
    3SOL     OW    7   1.504   2.654   2.933  0.1169 -0.0250 -0.2478
    3SOL    HW1    8   1.468   2.748   2.935  1.1583  2.3275 -0.8213
    3SOL    HW2    9   1.604   2.656   2.910  1.4877  2.0302 -1.5699
    4SOL     OW   10   1.727   1.914   2.038  0.4248 -0.3655 -0.5877
    4SOL    HW1   11   1.792   1.867   2.104  1.4262  0.0086  4.3539
    4SOL    HW2   12   1.748   1.904   1.938  2.4183 -1.1229 -0.8360
    5SOL     OW   13   1.264   1.274   1.392  0.2610  0.5737  0.4435
    5SOL    HW1   14   1.297   1.266   1.299  0.2365  1.8132 -2.8926
    5SOL    HW2   15   1.217   1.188   1.420 -0.9434 -1.0539  0.5350
    6SOL     OW   16   2.302   0.053   3.044  0.2228 -0.1503  0.1358
    6SOL    HW1   17   2.363   0.123   3.011 -1.2902  0.9812  2.2294
    6SOL    HW2   18   2.289   3.049   2.979  2.2837  1.6346 -0.0614
    7SOL     OW   19   2.699   1.498   1.528 -0.2599 -0.3554  0.0517
    7SOL    HW1   20   2.753   1.432   1.585  0.1346  1.1988  3.8463
    7SOL    HW2   21   2.725   1.492   1.427 -0.5126  0.5137  1.0792
    8SOL     OW   22   1.083   0.468   0.983 -0.2850  0.7297 -0.4608
    8SOL    HW1   23   1.067   0.533   0.905 -0.0050 -0.5754 -0.2209
    8SOL    HW2   24   1.174   0.422   0.972  2.8139 -2.7453  0.4407
    9SOL     OW   25   1.637   0.430   2.557  0.4759  0.3912 -0.3571
    9SOL    HW1   26   1.615   0.526   2.546 -0.9327  1.9852  1.0920
    9SOL    HW2   27   1.689   0.393   2.477 -1.7290 -2.8218  2.6132
   10SOL     OW   28   0.593   2.202   0.233 -0.0382 -0.1341  0.3836
   10SOL    HW1   29   0.554   2.109   0.228  2.7742  0.2929  0.3715
   10SOL    HW2   30   0.605   2.229   0.329  3.0833  1.5638 -2.3839
   11SOL     OW   31   0.964   0.885   0.379 -0.7879 -0.1642  0.4490
   11SOL    HW1   32   0.868   0.881   0.343 -1.2526 -1.0991 -2.0392
   11SOL    HW2   33   1.025   0.922   0.304 -0.0757  1.2072  1.8405
   12SOL     OW   34   0.058   0.057   1.527 -0.0235 -0.2355  0.2907
   12SOL    HW1   35   3.047   0.110   1.558 -1.4048  0.6767  1.2559
   12SOL    HW2   36   0.141   0.113   1.537 -1.9685  2.2968 -0.5661
   13SOL     OW   37   1.444   0.168   0.302 -0.0751 -0.2353 -0.3918
   13SOL    HW1   38   1.344   0.195   0.313  1.2466  0.5437 -1.6302
   13SOL    HW2   39   1.498   0.177   0.389  1.4431 -0.5364  1.6063
   14SOL     OW   40   1.030   2.381   1.263 -0.0259  0.4077 -0.0351
   14SOL    HW1   41   1.059   2.410   1.361  1.5808  3.2232  1.5797
   14SOL    HW2   42   1.119   2.360   1.217  0.7892  2.5690  3.2877
   15SOL     OW   43   2.530   1.086   1.568  0.0276  0.5236  0.1789
   15SOL    HW1   44   2.524   1.138   1.479 -1.1183  0.3797  1.7958
   15SOL    HW2   45   2.561   1.147   1.644  1.4453 -0.2338  0.9020
   16SOL     OW   46   1.874   2.857   0.077 -0.6306  0.1785  0.2015
   16SOL    HW1   47   1.906   2.858   3.057 -0.6288  1.5250  2.9894
   16SOL    HW2   48   1.808   2.775   0.089  1.2848  1.3808  0.1488
   17SOL     OW   49   0.863   0.029   1.553 -0.5850 -0.0600  0.5415
   17SOL    HW1   50   0.769   0.015   1.585  1.3166  2.4104 -0.5855
   17SOL    HW2   51   0.887   3.031   1.488 -0.6014 -1.0321 -0.0379
   18SOL     OW   52   1.338   0.583   2.885  0.0949 -0.0714  0.0557
   18SOL    HW1   53   1.388   0.525   2.954  0.8051 -0.1649  3.0491
   18SOL    HW2   54   1.388   0.675   2.874  2.0291  1.9528 -1.4827
   19SOL     OW   55   2.010   2.034   3.017 -0.3140 -0.3303  0.3172
   19SOL    HW1   56   2.059   1.958   3.060 -0.1147  3.4246 -1.1704
   19SOL    HW2   57   1.916   2.010   2.988  0.6822 -1.6330  1.2819
   20SOL     OW   58   1.943   1.741   1.607  0.0135 -0.0139  0.3167
   20SOL    HW1   59   2.001   1.664   1.650 -0.5094 -3.7192  0.4992
   20SOL    HW2   60   1.950   1.724   1.503  0.2520 -0.7948  1.2475
   21SOL     OW   61   0.797   1.514   2.909 -0.2687 -0.3299 -0.6388
   21SOL    HW1   62   0.896   1.501   2.922 -2.2108  1.8665  0.8421
   21SOL    HW2   63   0.751   1.529   2.999  0.3041  0.6983 -1.1775
   22SOL     OW   64   1.701   2.856   1.351  0.3043  0.1792 -0.1364
   22SOL    HW1   65   1.688   2.939   1.300  0.9492 -1.0634  2.0241
   22SOL    HW2   66   1.636   2.781   1.320  0.5694 -1.3194 -0.5119
   23SOL     OW   67   0.023   0.480   1.659  0.2163  0.5115 -0.2947
   23SOL    HW1   68   0.106   0.478   1.610  0.2183 -2.4946  1.3777
   23SOL    HW2   69   3.015   0.489   1.595  1.7067 -0.9928 -1.9409
   24SOL     OW   70   2.169   2.601   0.995  0.0927 -0.8312 -0.0493
   24SOL    HW1   71   2.181   2.554   1.088  0.9360 -1.2059 -0.5495
   24SOL    HW2   72   2.120   2.543   0.930  0.2607  2.5298  5.2046
   25SOL     OW   73   1.505   2.921   2.686 -0.7553  0.3681  0.2862
   25SOL    HW1   74   1.583   2.861   2.650  7.2783 -2.4609  0.6243
   25SOL    HW2   75   1.414   2.874   2.690  1.1158  2.0083  0.9021
   26SOL     OW   76   1.943   2.837   2.890 -0.3314 -0.3177 -0.6626
   26SOL    HW1   77   2.000   2.861   2.805 -0.7436 -0.2589 -0.9362
   26SOL    HW2   78   1.856   2.892   2.883  1.7058  1.5881  0.9030
   27SOL     OW   79   0.098   1.859   2.598 -0.0371 -0.1878 -0.2543
   27SOL    HW1   80   0.033   1.937   2.584 -0.7436  1.9080  0.5091
   27SOL    HW2   81   0.066   1.768   2.558  0.5667 -3.8751 -0.0704
   28SOL     OW   82   2.816   1.029   1.420 -0.2100  0.3524  0.0922
   28SOL    HW1   83   2.724   1.001   1.449  2.4012  1.2226  0.3063
   28SOL    HW2   84   2.855   1.110   1.465 -1.2395 -2.2295 -2.7526
   29SOL     OW   85   2.296   2.369   1.462  0.0943  0.0625  0.4000
   29SOL    HW1   86   2.246   2.377   1.547 -0.7050 -2.6659  0.9375
   29SOL    HW2   87   2.346   2.453   1.439 -0.7198 -1.1760 -0.2284
   30SOL     OW   88   1.424   0.445   0.044 -0.7543  0.1994  0.1396
   30SOL    HW1   89   1.373   0.480   0.128 -3.2064 -0.9799 -3.3572
   30SOL    HW2   90   1.517   0.407   0.070 -0.3687 -3.0344 -0.6004
   31SOL     OW   91   2.397   2.627   1.504  0.1649 -0.5348 -0.0843
   31SOL    HW1   92   2.422   2.686   1.579 -2.0096 -1.3689 -0.4587
   31SOL    HW2   93   2.485   2.600   1.458 -0.7097 -1.8905  1.1319
   32SOL     OW   94   0.791   1.621   1.373  0.1303  0.0596 -0.2566
   32SOL    HW1   95   0.776   1.714   1.336  0.4638 -0.0023  1.7619
   32SOL    HW2   96   0.818   1.551   1.303  2.5419  0.0186 -0.4557
   33SOL     OW   97   0.482   2.816   2.253 -0.1593  0.0335 -0.3960
   33SOL    HW1   98   0.449   2.732   2.208 -2.9837  0.2327  0.7910
   33SOL    HW2   99   0.583   2.837   2.237  2.7552  0.7661  0.4686
   34SOL     OW  100   1.346   3.019   0.697 -0.1994 -0.2335  0.0223
   34SOL    HW1  101   1.301   0.010   0.762 -0.7928  2.0827  2.0249
   34SOL    HW2  102   1.438   3.050   0.687 -2.7716  1.3781  4.0081
   35SOL     OW  103   1.986   0.073   0.803  0.8222  0.4255  0.0089
   35SOL    HW1  104   1.894   0.040   0.771  1.2187  1.3378  2.4600
   35SOL    HW2  105   1.982   0.094   0.907 -2.2124 -2.1050  1.4395
   36SOL     OW  106   1.848   2.450   2.392 -0.3927  0.0462 -0.4936
   36SOL    HW1  107   1.756   2.436   2.437  0.7506 -0.7203 -0.4158
   36SOL    HW2  108   1.891   2.357   2.381 -1.6319  0.1278 -1.5411
   37SOL     OW  109   0.755   2.997   2.415 -0.4216 -0.0327  0.4828
   37SOL    HW1  110   0.762   3.000   2.312  0.0779 -1.0866 -2.6950
   37SOL    HW2  111   0.664   2.954   2.446 -2.0932  1.0688  0.4687
   38SOL     OW  112   0.172   2.657   2.512 -0.0565 -0.7052  0.1314
   38SOL    HW1  113   0.260   2.619   2.540 -0.0056  0.9845  1.0836
   38SOL    HW2  114   0.197   2.750   2.478  0.3242  0.7065 -0.9759
   39SOL     OW  115   2.482   1.161   1.986 -0.4507  0.2999  0.3349
   39SOL    HW1  116   2.504   1.211   1.900 -1.1895  0.7857  0.7787
   39SOL    HW2  117   2.469   1.237   2.057  0.6937 -1.1838 -2.5259
   40SOL     OW  118   0.715   2.836   2.974 -0.1235 -0.1096 -0.1525
   40SOL    HW1  119   0.769   2.885   3.043  0.9947 -1.6430 -0.3630
   40SOL    HW2  120   0.748   2.737   2.967 -1.5125  0.6263 -0.2860
   41SOL     OW  121   2.005   0.880   1.090  0.1915  0.3119  0.4759
   41SOL    HW1  122   2.066   0.801   1.109 -1.2992  0.8040 -0.8684
   41SOL    HW2  123   2.055   0.970   1.088 -3.2812  0.6129  3.0293
   42SOL     OW  124   0.429   0.295   1.133 -0.2637  0.2625 -0.4140
   42SOL    HW1  125   0.486   0.362   1.083 -0.1740  0.7298  1.5924
   42SOL    HW2  126   0.335   0.325   1.151 -0.0557 -2.6455  0.4510
   43SOL     OW  127   2.603   1.240   2.756 -0.0219  0.2323 -0.5262
   43SOL    HW1  128   2.570   1.143   2.743  0.4169 -2.3748 -1.4986
   43SOL    HW2  129   2.671   1.267   2.685 -0.4955  1.9769 -0.5583
   44SOL     OW  130   2.952   2.892   0.647 -0.2505 -0.0172 -0.1056
   44SOL    HW1  131   2.947   2.998   0.653 -0.0922  1.6122  2.7275
   44SOL    HW2  132   3.024   2.855   0.707 -1.6407  1.2042  0.5418
   45SOL     OW  133   0.026   2.683   1.374  0.0750  0.2395 -0.2657
   45SOL    HW1  134   0.073   2.758   1.425  4.1615  0.0132  1.5415
   45SOL    HW2  135   3.017   2.715   1.327  0.6249 -2.8700  1.4593
   46SOL     OW  136   2.301   2.371   2.435 -0.4269  0.0772  0.4690
   46SOL    HW1  137   2.298   2.275   2.392 -3.0953 -0.3565 -0.1883
   46SOL    HW2  138   2.218   2.402   2.483 -0.0087 -1.4380 -0.9759
   47SOL     OW  139   2.081   2.022   1.138 -0.1055 -0.6119 -0.3007
   47SOL    HW1  140   2.046   2.105   1.090 -4.6586  2.3512  1.3023
   47SOL    HW2  141   2.032   1.937   1.110 -0.4073  1.9793 -1.6195
   48SOL     OW  142   0.530   1.557   0.191 -0.2729  0.4182 -0.1306
   48SOL    HW1  143   0.613   1.518   0.146  0.3995  1.6831  0.3687
   48SOL    HW2  144   0.489   1.498   0.257  2.4724 -0.4805  0.1580
   49SOL     OW  145   3.035   0.218   2.557 -0.1288  0.7091  0.1283
   49SOL    HW1  146   2.933   0.222   2.577  1.0608  1.1599  1.6497
   49SOL    HW2  147   3.044   0.211   2.457 -3.3840  1.9635 -2.3766
   50SOL     OW  148   2.259   0.741   0.305 -0.0282  0.5439  0.0887
   50SOL    HW1  149   2.172   0.759   0.258  1.5715  1.3455  0.9617
   50SOL    HW2  150   2.313   0.674   0.251 -0.1017  3.9143  0.5405
   51SOL     OW  151   2.327   0.912   1.059 -0.2576 -0.2747 -0.0298
   51SOL    HW1  152   2.422   0.885   1.087  0.9022 -0.0743 -0.6979
   51SOL    HW2  153   2.332   0.971   0.974  1.2841 -1.9430  0.8431
   52SOL     OW  154   1.160   1.210   2.476 -0.8664 -0.1903 -0.3927
   52SOL    HW1  155   1.149   1.202   2.377  0.0489  1.8703 -0.9778
   52SOL    HW2  156   1.222   1.140   2.517  0.4155  1.3095 -1.3661
   53SOL     OW  157   0.615   1.673   1.961  0.3919  0.2940  0.0471
   53SOL    HW1  158   0.568   1.618   1.886  0.9811  0.6035 -1.2582
   53SOL    HW2  159   0.712   1.698   1.941 -4.9875 -1.2076  1.3929
   54SOL     OW  160   2.054   0.432   0.919 -0.7850 -0.1215  0.4554
   54SOL    HW1  161   2.053   0.403   0.823 -1.8216 -1.0830  2.9869
   54SOL    HW2  162   2.154   0.435   0.952  1.0432  0.6149 -1.9984
   55SOL     OW  163   2.447   2.293   1.078  0.0714 -0.5058 -0.4866
   55SOL    HW1  164   2.410   2.205   1.119 -1.8708  1.8071  3.4089
   55SOL    HW2  165   2.529   2.273   1.022 -1.4290 -0.5394  1.2485
   56SOL     OW  166   1.089   0.043   1.824 -0.0582  0.1103  0.4917
   56SOL    HW1  167   1.177   0.075   1.867  0.3842 -0.2712 -1.3020
   56SOL    HW2  168   1.080   0.096   1.734 -0.5364 -0.0944  0.5184
   57SOL     OW  169   1.708   1.445   0.157 -0.6182 -0.2123 -0.6010
   57SOL    HW1  170   1.635   1.429   0.226 -2.4477  0.9923 -0.6880
   57SOL    HW2  171   1.787   1.500   0.199 -1.2206  0.8609 -2.3478
   58SOL     OW  172   0.016   0.844   2.449  0.2779  0.5150 -0.7731
   58SOL    HW1  173   0.060   0.927   2.484 -0.3855  0.1601  1.4894
   58SOL    HW2  174   0.078   0.786   2.393  0.2985 -1.6735 -1.3779
   59SOL     OW  175   0.765   2.716   2.607  0.2798  0.3337  0.0417
   59SOL    HW1  176   0.832   2.745   2.674 -2.6253  0.4409 -1.4169
   59SOL    HW2  177   0.818   2.675   2.529  1.5152 -0.6229 -2.8111
   60SOL     OW  178   2.480   2.302   0.639  0.1351  0.1675 -0.1633
   60SOL    HW1  179   2.499   2.395   0.673  1.1238  0.2073  0.4129
   60SOL    HW2  180   2.531   2.280   0.556 -1.8880  0.7011  0.3258
   61SOL     OW  181   1.029   1.974   0.851  0.3588 -0.3759  0.0424
   61SOL    HW1  182   1.008   2.059   0.795 -1.0853  1.0249 -0.3876
   61SOL    HW2  183   1.074   1.907   0.790 -1.4392  0.2828 -1.3507
   62SOL     OW  184   2.064   1.956   2.603 -0.5856 -0.0933 -0.2932
   62SOL    HW1  185   2.107   1.992   2.690  0.4937  1.5683 -0.7588
   62SOL    HW2  186   2.114   1.873   2.567 -0.9237 -3.1707 -0.8759
   63SOL     OW  187   2.275   2.670   2.950  0.2414 -0.1695 -0.4037
   63SOL    HW1  188   2.213   2.615   2.891  0.4397  0.7298  0.1059
   63SOL    HW2  189   2.307   2.755   2.902 -1.2564 -2.3307  2.3710
   64SOL     OW  190   1.229   0.906   2.499  0.1815 -0.4587  0.2612
   64SOL    HW1  191   1.143   0.951   2.458 -1.5391  2.2751 -0.6601
   64SOL    HW2  192   1.270   0.841   2.434  0.5293 -0.6049  1.6712
   65SOL     OW  193   1.356   2.575   0.057 -0.2358  0.2652 -0.1848
   65SOL    HW1  194   1.425   2.617   3.067 -0.4969  3.7106 -1.4468
   65SOL    HW2  195   1.373   2.599   0.153  1.4864 -1.3532  2.2409
   66SOL     OW  196   0.265   1.341   1.742 -0.6107 -0.3259 -0.2823
   66SOL    HW1  197   0.248   1.241   1.754 -0.2505 -0.9243  1.7730
   66SOL    HW2  198   0.181   1.397   1.755  0.4367  1.7703  0.9761
   67SOL     OW  199   2.793   2.796   2.865  0.6002 -0.1371 -0.5944
   67SOL    HW1  200   2.714   2.741   2.850  3.4272  1.8881  1.6955
   67SOL    HW2  201   2.852   2.801   2.782 -1.5209  0.5136  0.4516
   68SOL     OW  202   0.811   2.550   1.546 -0.0163  0.1329 -0.1354
   68SOL    HW1  203   0.909   2.557   1.584  3.8176  0.0842  1.5343
   68SOL    HW2  204   0.817   2.579   1.448 -2.7139  1.0112  0.2043
   69SOL     OW  205   0.588   2.293   0.505 -0.5398 -0.2060 -0.3584
   69SOL    HW1  206   0.659   2.364   0.502  1.2514 -1.2925 -1.5769
   69SOL    HW2  207   0.600   2.234   0.586  0.5034 -0.3805 -1.1090
   70SOL     OW  208   2.534   0.974   2.636 -0.1663 -0.1494  0.5967
   70SOL    HW1  209   2.616   0.983   2.577 -0.1722  0.5037 -0.1655
   70SOL    HW2  210   2.485   0.890   2.604  0.4526  0.0643  0.0852
   71SOL     OW  211   0.608   1.139   2.329  0.2634 -0.1826 -0.5809
   71SOL    HW1  212   0.590   1.057   2.274  1.8632  4.2933  1.3054
   71SOL    HW2  213   0.533   1.204   2.321  0.0963 -1.2797  2.3253
   72SOL     OW  214   0.284   2.199   0.485  0.5437  0.1795  0.2707
   72SOL    HW1  215   0.369   2.231   0.442  0.3746 -0.0173  0.2407
   72SOL    HW2  216   0.307   2.140   0.567  2.5909 -0.9396 -0.1311
   73SOL     OW  217   1.172   1.360   0.122 -0.0737  0.1308 -0.0466
   73SOL    HW1  218   1.156   1.426   0.200 -1.2052  2.9991 -0.9012
   73SOL    HW2  219   1.213   1.272   0.157  0.5175 -2.0570  2.6293
   74SOL     OW  220   2.521   2.992   0.136 -0.4196  0.1728 -0.1106
   74SOL    HW1  221   2.456   2.919   0.123  1.1105  3.2638  0.5075
   74SOL    HW2  222   2.465   3.070   0.164 -1.9991 -3.7968  0.5196
   75SOL     OW  223   2.320   1.589   2.053  0.2632 -0.4344 -0.0603
   75SOL    HW1  224   2.333   1.593   1.951 -1.1048  2.3236 -1.1111
   75SOL    HW2  225   2.354   1.672   2.099 -0.7480 -0.9400 -0.1854
   76SOL     OW  226   1.968   2.515   1.669 -0.1412  0.0035 -0.0404
   76SOL    HW1  227   1.886   2.564   1.693 -0.4899 -1.1394  2.3955
   76SOL    HW2  228   2.016   2.568   1.594  2.1225  0.2257  0.7343
   77SOL     OW  229   2.256   0.442   1.290  0.4146 -0.5299  0.3746
   77SOL    HW1  230   2.285   0.448   1.191 -1.8814 -0.1879  1.4218
   77SOL    HW2  231   2.339   0.459   1.348  2.8440  1.5528 -2.1491
   78SOL     OW  232   1.984   0.965   2.818  0.2919 -0.0937 -1.0092
   78SOL    HW1  233   1.996   0.903   2.903 -0.3191 -4.9805  1.9241
   78SOL    HW2  234   1.899   1.024   2.822 -0.9505  0.2705 -1.7433
   79SOL     OW  235   0.291   1.409   2.047 -0.4544  0.3039 -0.6181
   79SOL    HW1  236   0.279   1.506   2.081 -0.3333  1.4822  1.4430
   79SOL    HW2  237   0.224   1.353   2.101  1.8823  0.5177  0.2451
   80SOL     OW  238   1.818   0.976   1.290 -0.0643 -0.7035 -0.0184
   80SOL    HW1  239   1.884   0.936   1.221 -2.0177  0.6490  0.4302
   80SOL    HW2  240   1.771   0.901   1.339  0.7658 -2.2189 -4.3007
   81SOL     OW  241   1.277   0.437   1.339  0.1658 -0.1453 -0.7988
   81SOL    HW1  242   1.283   0.341   1.318 -1.9255  4.1034 -1.4210
   81SOL    HW2  243   1.211   0.497   1.289  1.9019 -0.5334  0.1872
   82SOL     OW  244   1.452   2.330   1.779  0.1796 -0.1729  0.2306
   82SOL    HW1  245   1.481   2.326   1.684 -0.9580 -2.4860 -1.3918
   82SOL    HW2  246   1.503   2.258   1.833  0.8444  0.2127 -0.4850
   83SOL     OW  247   0.751   2.975   0.915  0.0193  0.3641  0.1399
   83SOL    HW1  248   0.801   2.966   1.002  1.2198  2.7961  0.4323
   83SOL    HW2  249   0.675   3.042   0.938 -0.7203  3.2328 -2.2532
   84SOL     OW  250   0.168   0.869   2.868 -0.3216 -0.5781 -0.4965
   84SOL    HW1  251   0.246   0.889   2.802  3.8028  0.5506 -1.0515
   84SOL    HW2  252   0.129   0.953   2.917  0.0270 -0.4353  2.1926
   85SOL     OW  253   2.701   2.344   1.687  0.2046  0.3191 -0.6790
   85SOL    HW1  254   2.758   2.416   1.646  0.7440 -2.1915 -1.1958
   85SOL    HW2  255   2.604   2.377   1.720 -0.2211  2.0736  0.8056
   86SOL     OW  256   2.899   2.519   1.603 -0.0785  0.2383 -0.1179
   86SOL    HW1  257   2.927   2.615   1.625  4.9093 -1.1233  0.2155
   86SOL    HW2  258   2.972   2.462   1.558  0.4992  1.5382 -0.5576
   87SOL     OW  259   0.471   2.801   0.116 -0.4486  0.3714  0.1962
   87SOL    HW1  260   0.416   2.738   0.057  1.2490 -1.1782 -3.3734
   87SOL    HW2  261   0.571   2.795   0.081  3.1379 -0.2134  0.1224
   88SOL     OW  262   0.176   1.952   1.237  0.0650 -0.0560 -0.0864
   88SOL    HW1  263   0.139   2.047   1.234 -0.3399 -0.5407 -1.0454
   88SOL    HW2  264   0.115   1.890   1.182 -1.8374  0.5607 -1.0004
   89SOL     OW  265   1.118   0.829   1.706 -0.1812 -0.2453  0.5127
   89SOL    HW1  266   1.031   0.818   1.651 -1.6431  2.0225  0.6939
   89SOL    HW2  267   1.152   0.743   1.749  1.2852  1.1347 -0.2694
   90SOL     OW  268   2.795   1.566   1.998  0.6147  0.0870 -0.4974
   90SOL    HW1  269   2.815   1.542   2.098  0.9099  3.4055  2.7581
   90SOL    HW2  270   2.718   1.638   1.989 -0.2623  1.3595 -0.4027
   91SOL     OW  271   1.580   1.807   0.864  0.4597  0.4784  0.7139
   91SOL    HW1  272   1.548   1.713   0.900 -0.6891 -1.0056 -0.1320
   91SOL    HW2  273   1.637   1.842   0.941  3.4255 -0.8607  0.8333
   92SOL     OW  274   2.114   0.647   1.149 -0.5947 -0.6202 -0.2900
   92SOL    HW1  275   2.031   0.616   1.101 -0.9158  0.4759  1.6850
   92SOL    HW2  276   2.145   0.579   1.218 -0.0337  0.7422 -1.0535
   93SOL     OW  277   2.395   1.550   0.102 -0.5336  0.0134 -0.7266
   93SOL    HW1  278   2.335   1.582   0.029 -0.9357 -2.0527  1.3251
   93SOL    HW2  279   2.398   1.447   0.108  0.5635 -1.2081  0.8369
   94SOL     OW  280   2.194   2.080   2.383  0.2391 -0.1140 -0.1214
   94SOL    HW1  281   2.182   2.028   2.470  0.8696  0.8535  1.4883
   94SOL    HW2  282   2.289   2.086   2.355 -2.4533  2.0256  2.3156
   95SOL     OW  283   1.798   0.554   0.880 -0.3895  0.7571 -0.2649
   95SOL    HW1  284   1.785   0.652   0.892 -0.6482  1.9657 -2.6434
   95SOL    HW2  285   1.886   0.525   0.927 -1.6586  1.9687 -0.0329
   96SOL     OW  286   2.722   2.947   1.618 -0.1044  0.5168 -0.0740
   96SOL    HW1  287   2.659   2.918   1.542 -1.4032  0.3648 -0.9111
   96SOL    HW2  288   2.669   2.981   1.703 -2.6272  0.8789  3.7005
   97SOL     OW  289   2.117   3.063   1.262 -0.1448 -0.8117 -0.2632
   97SOL    HW1  290   2.057   0.024   1.334 -0.6110 -0.6085 -1.3886
   97SOL    HW2  291   2.194   0.056   1.252  0.4250  2.1787  3.6349
   98SOL     OW  292   1.346   2.343   1.469  0.0999  0.3737 -0.4942
   98SOL    HW1  293   1.437   2.387   1.447 -0.6570  0.0473  1.0209
   98SOL    HW2  294   1.339   2.251   1.421  0.5307 -1.6100 -1.6580
   99SOL     OW  295   2.567   2.701   1.936 -0.1231  0.2624  0.1219
   99SOL    HW1  296   2.525   2.770   1.996  0.4409  0.4918 -0.2844
   99SOL    HW2  297   2.665   2.719   1.927  0.5191  1.2061 -0.2496
  100SOL     OW  298   0.360   0.902   2.678  0.0070 -0.0916 -0.5972
  100SOL    HW1  299   0.416   0.922   2.759  1.0157 -2.1419  1.5494
  100SOL    HW2  300   0.409   0.826   2.629  2.0593 -1.0742 -0.0923
  101SOL     OW  301   2.049   0.805   3.028  0.3087  0.4805 -0.5437
  101SOL    HW1  302   2.027   0.855   0.042 -2.9357  2.4032 -0.9935
  101SOL    HW2  303   2.046   0.701   3.041  0.6339 -2.0358  0.8225
  102SOL     OW  304   0.288   0.494   1.589  0.2727 -0.5173 -0.1486
  102SOL    HW1  305   0.300   0.518   1.687 -0.4794  0.5832  1.5671
  102SOL    HW2  306   0.267   0.393   1.571 -0.2081  1.5156  0.4245
  103SOL     OW  307   3.019   0.868   2.109 -0.3842 -0.5137 -0.0682
  103SOL    HW1  308   2.967   0.866   2.193  0.1420  0.4525 -2.7601
  103SOL    HW2  309   2.972   0.848   2.023  2.6862  0.3379 -1.3226
  104SOL     OW  310   0.322   0.237   2.609  0.2187  0.3243  0.3759
  104SOL    HW1  311   0.413   0.238   2.557 -1.1590 -0.0649 -0.0697
  104SOL    HW2  312   0.258   0.304   2.564 -1.2315  0.9790 -1.3826
  105SOL     OW  313   1.971   2.069   1.400  0.6252  0.3103 -0.3480
  105SOL    HW1  314   1.892   2.006   1.416  0.0410  2.0802  1.2056
  105SOL    HW2  315   2.023   2.037   1.319  2.5461  0.9286  2.1138
  106SOL     OW  316   1.797   0.323   0.491  0.3553 -0.3922 -0.0359
  106SOL    HW1  317   1.864   0.245   0.465  0.8953 -0.8063 -1.6539
  106SOL    HW2  318   1.853   0.406   0.494  0.3248 -0.6253  0.7988
  107SOL     OW  319   0.067   1.797   1.687 -0.3789 -0.1010  0.2794
  107SOL    HW1  320   0.132   1.861   1.738 -0.2610  0.6107 -0.9897
  107SOL    HW2  321   0.055   1.829   1.591  1.1868 -0.7023  0.7671
  108SOL     OW  322   2.862   2.777   1.892 -0.6634  0.1890 -0.1434
  108SOL    HW1  323   2.880   2.747   1.797  0.1367 -0.6998  2.1129
  108SOL    HW2  324   2.917   2.729   1.960 -2.7760 -0.0609  2.1789
  109SOL     OW  325   1.563   0.253   0.543  0.3548  0.2481  0.5000
  109SOL    HW1  326   1.661   0.280   0.527  2.2532  1.6968 -0.4151
  109SOL    HW2  327   1.555   0.186   0.620 -0.5662 -1.7653 -1.1531
  110SOL     OW  328   0.440   2.154   2.327 -0.2161  0.0497  0.4263
  110SOL    HW1  329   0.378   2.192   2.399 -0.3217  0.4664  1.9577
  110SOL    HW2  330   0.447   2.052   2.334  1.3284 -2.1235  0.2972
  111SOL     OW  331   1.566   2.361   2.186  0.1202  0.0746 -0.2994
  111SOL    HW1  332   1.636   2.288   2.162 -0.3272  1.0556 -0.2504
  111SOL    HW2  333   1.496   2.330   2.252 -1.5789 -0.1958  1.4008
  112SOL     OW  334   1.656   2.696   2.612 -0.2073 -0.1736 -0.3412
  112SOL    HW1  335   1.713   2.691   2.695  2.2027 -1.2107  0.3909
  112SOL    HW2  336   1.617   2.606   2.587 -2.8615  3.7502 -0.8245
  113SOL     OW  337   1.583   2.447   1.461 -0.0449  0.2585  0.6014
  113SOL    HW1  338   1.645   2.374   1.431  0.2702  1.1345  2.5749
  113SOL    HW2  339   1.626   2.488   1.540 -1.8277 -3.5049 -0.8903
  114SOL     OW  340   2.881   0.780   0.727  0.2041 -0.2308  0.4827
  114SOL    HW1  341   2.947   0.808   0.799  1.9442 -0.0887 -0.2340
  114SOL    HW2  342   2.919   0.697   0.678  0.6747  0.8838  0.3969
  115SOL     OW  343   0.479   0.951   2.925 -0.5260  0.8239  0.1996
  115SOL    HW1  344   0.523   1.037   2.958 -1.5186 -1.5933 -0.0247
  115SOL    HW2  345   0.549   0.877   2.923 -2.7918 -0.8187 -1.4836
  116SOL     OW  346   0.121   1.241   2.223 -0.0773  0.0095  0.4608
  116SOL    HW1  347   0.055   1.194   2.161  0.3291  0.8280  1.8840
  116SOL    HW2  348   0.181   1.176   2.275  1.5913 -0.1519 -1.9810
  117SOL     OW  349   2.617   2.933   0.585  0.2910  0.0348  0.1863
  117SOL    HW1  350   2.678   2.881   0.646  2.5103  2.0771 -0.8738
  117SOL    HW2  351   2.632   2.898   0.489 -0.9118 -1.1498 -2.0892
  118SOL     OW  352   1.156   1.943   1.537  0.0902  0.5014 -0.2423
  118SOL    HW1  353   1.179   1.844   1.512 -0.1800 -0.8336 -0.7213
  118SOL    HW2  354   1.159   2.001   1.454 -0.7631 -0.1715 -2.6904
  119SOL     OW  355   0.795   2.190   2.747  0.2914  0.0437 -0.1891
  119SOL    HW1  356   0.878   2.237   2.780 -2.0197  2.3822  0.6861
  119SOL    HW2  357   0.710   2.235   2.784  0.2457 -1.1018  0.2445
  120SOL     OW  358   0.632   0.729   2.931 -0.3786  0.3200 -0.1251
  120SOL    HW1  359   0.588   0.653   2.880  1.3723 -1.2963 -2.3801
  120SOL    HW2  360   0.729   0.743   2.900  2.5781 -0.2369 -1.9872
  121SOL     OW  361   1.677   2.594   1.027 -0.3269 -0.2797  0.4744
  121SOL    HW1  362   1.689   2.686   0.985 -1.0807  1.9049  0.2333
  121SOL    HW2  363   1.620   2.529   0.975  0.6257  1.4976 -0.3348
  122SOL     OW  364   2.218   2.358   1.732 -0.5855  0.2322 -0.0746
  122SOL    HW1  365   2.136   2.421   1.723 -0.4043  1.2740 -1.2118
  122SOL    HW2  366   2.184   2.264   1.708 -3.7186  0.0903  3.5680
  123SOL     OW  367   0.204   2.764   0.525  0.2810  0.5478  0.0697
  123SOL    HW1  368   0.284   2.706   0.551  0.8807  0.1070 -0.7123
  123SOL    HW2  369   0.203   2.781   0.423  0.4263  0.3551  1.3209
  124SOL     OW  370   2.217   1.358   2.647 -0.4602  0.6349  0.4858
  124SOL    HW1  371   2.300   1.355   2.588 -0.9335 -3.3569  1.3219
  124SOL    HW2  372   2.227   1.283   2.715  0.3763  0.8293 -0.3440
  125SOL     OW  373   0.518   0.947   0.501 -0.3623 -0.4564 -0.2348
  125SOL    HW1  374   0.560   0.974   0.591 -1.2429 -3.0684 -1.4052
  125SOL    HW2  375   0.512   1.027   0.438  0.2686  0.8214 -0.4421
  126SOL     OW  376   2.762   1.657   0.990 -0.1398  0.2913  0.3746
  126SOL    HW1  377   2.745   1.753   0.954  3.3167 -1.0252  0.4118
  126SOL    HW2  378   2.810   1.605   0.920 -0.5214  2.2256  1.6279
  127SOL     OW  379   0.011   2.088   1.850  0.8710 -0.2734  0.2154
  127SOL    HW1  380   0.089   2.036   1.807 -1.7790  1.3924 -1.0355
  127SOL    HW2  381   0.020   2.106   1.948 -0.3839 -0.6658 -0.3643
  128SOL     OW  382   0.888   0.794   0.104 -0.2274  0.2162  0.2799
  128SOL    HW1  383   0.885   0.697   0.139 -1.0444 -2.3196 -1.3520
  128SOL    HW2  384   0.791   0.830   0.094 -0.9372  1.6187 -0.4981
  129SOL     OW  385   2.311   1.086   0.847  0.1439  0.3814  0.5148
  129SOL    HW1  386   2.387   1.135   0.891 -1.5763  1.0446  0.1569
  129SOL    HW2  387   2.341   1.045   0.756  1.5422 -2.8161  0.2070
  130SOL     OW  388   2.274   1.005   1.513 -0.0918  0.5159 -0.0752
  130SOL    HW1  389   2.333   1.068   1.560 -0.8282  0.0749 -1.0125
  130SOL    HW2  390   2.257   1.039   1.419 -1.1631  2.4531  1.6096
  131SOL     OW  391   2.776   2.903   0.037  0.4320  0.2384 -0.0119
  131SOL    HW1  392   2.781   2.850   3.023  0.3146  1.7520  2.3288
  131SOL    HW2  393   2.684   2.937   0.053  0.1344 -1.2698 -0.2537
  132SOL     OW  394   2.875   2.129   1.698  0.5584 -0.0757  0.2505
  132SOL    HW1  395   2.825   2.218   1.713  2.0919  0.9156  1.6391
  132SOL    HW2  396   2.956   2.116   1.761 -2.9686 -2.6294  0.0885
  133SOL     OW  397   1.120   0.669   1.214  0.3023 -0.5299  0.4321
  133SOL    HW1  398   1.102   0.647   1.113 -0.4117  1.0739 -1.2999
  133SOL    HW2  399   1.031   0.678   1.261  1.6720  0.4097 -3.3007
  134SOL     OW  400   0.160   1.101   0.417 -0.1259 -0.5529  0.0390
  134SOL    HW1  401   0.081   1.127   0.357  1.2708 -1.5416  0.5970
  134SOL    HW2  402   0.246   1.094   0.364  0.2318  0.0884  1.7135
  135SOL     OW  403   2.053   0.975   1.667  0.1202 -0.1283  0.7208
  135SOL    HW1  404   2.088   0.904   1.730 -0.2157 -2.9867 -2.2627
  135SOL    HW2  405   2.121   0.988   1.592 -1.4100  0.1889  2.0097
  136SOL     OW  406   3.040   0.857   0.414  0.3829  0.2052  0.1417
  136SOL    HW1  407   2.951   0.882   0.458  1.7258  2.8787  0.3082
  136SOL    HW2  408   0.034   0.844   0.487  0.9777 -0.1464  1.2283
  137SOL     OW  409   2.504   1.181   1.316 -0.1924  0.6780 -0.0336
  137SOL    HW1  410   2.587   1.174   1.253  1.4319 -0.7605  1.6501
  137SOL    HW2  411   2.431   1.114   1.291 -1.1151 -0.6192 -0.0461
  138SOL     OW  412   1.800   0.888   1.679  0.0354  0.1495 -0.2198
  138SOL    HW1  413   1.897   0.922   1.681 -0.2925  1.1994  1.5131
  138SOL    HW2  414   1.775   0.840   1.595  0.5465  1.8895  0.0687
  139SOL     OW  415   1.996   0.099   3.067 -0.0775  0.4099  0.3809
  139SOL    HW1  416   2.100   0.082   3.057  2.8515  1.0354 -0.0718
  139SOL    HW2  417   1.951   0.057   0.075 -0.6402 -1.7176  1.1574
  140SOL     OW  418   1.385   2.011   1.857  0.1124  0.0138  0.0217
  140SOL    HW1  419   1.341   2.034   1.944 -3.1177 -0.9177  2.0701
  140SOL    HW2  420   1.401   1.909   1.847  0.3610 -0.5910 -1.3495
  141SOL     OW  421   1.908   2.138   0.773 -0.1675 -0.1293  0.0062
  141SOL    HW1  422   1.963   2.068   0.719 -2.4516  0.5936  1.4780
  141SOL    HW2  423   1.894   2.225   0.721 -1.4533 -0.0753  0.9778
  142SOL     OW  424   0.333   0.789   0.185  0.0002 -0.3111  1.0503
  142SOL    HW1  425   0.425   0.758   0.151 -0.9569 -1.2889 -2.1686
  142SOL    HW2  426   0.254   0.751   0.137 -0.8592  1.4079  1.9898
  143SOL     OW  427   0.354   2.139   2.790  0.1420  0.7451 -0.1394
  143SOL    HW1  428   0.277   2.189   2.833 -1.2784  2.2364 -1.9945
  143SOL    HW2  429   0.334   2.040   2.802 -0.5064 -0.2674  1.2859
  144SOL     OW  430   1.389   0.169   1.492  0.1087 -0.1125 -0.3117
  144SOL    HW1  431   1.308   0.156   1.555 -2.4520  1.0207 -0.9725
  144SOL    HW2  432   1.349   0.169   1.398  0.9859 -3.6533 -0.8568
  145SOL     OW  433   2.436   1.367   0.490  0.2040  0.0253  0.4363
  145SOL    HW1  434   2.479   1.435   0.428 -3.3375 -2.7291 -0.1635
  145SOL    HW2  435   2.467   1.372   0.586 -0.7689 -0.5736  0.9791
  146SOL     OW  436   2.521   2.387   0.157 -0.2884 -0.2688 -0.0423
  146SOL    HW1  437   2.584   2.445   0.101  0.6906 -4.7668  1.1723
  146SOL    HW2  438   2.429   2.391   0.116 -1.4891  0.3557 -0.2674
  147SOL     OW  439   1.945   2.728   1.274 -0.5010  0.2369  0.1592
  147SOL    HW1  440   1.966   2.742   1.176 -2.2547  1.9086 -0.5103
  147SOL    HW2  441   1.865   2.778   1.309  1.1416  0.3862 -0.9234
  148SOL     OW  442   1.489   2.829   2.225 -0.7202  0.0389  0.0824
  148SOL    HW1  443   1.555   2.871   2.294 -0.0330  0.9495  0.0937
  148SOL    HW2  444   1.539   2.822   2.133  1.9456  0.1384 -0.9619
  149SOL     OW  445   1.366   0.567   2.221  0.5529 -0.2268 -0.2618
  149SOL    HW1  446   1.429   0.488   2.226  1.2618  0.4070  2.0892
  149SOL    HW2  447   1.420   0.654   2.242 -0.2275  4.3538 -1.3896
  150SOL     OW  448   0.559   2.581   0.335  0.0063 -0.1225  0.1087
  150SOL    HW1  449   0.647   2.533   0.357  0.0066  2.1865  0.0228
  150SOL    HW2  450   0.505   2.604   0.421 -2.8928  0.1688  0.0528
  151SOL     OW  451   0.183   1.442   0.155  0.2250  0.4300 -0.2024
  151SOL    HW1  452   0.115   1.483   0.218 -0.6546 -2.1886 -0.8199
  151SOL    HW2  453   0.213   1.505   0.078  0.4383  2.8465 -2.2635
  152SOL     OW  454   2.957   0.097   0.629 -0.7912 -0.1545  0.3514
  152SOL    HW1  455   3.009   0.160   0.692 -0.9033  1.3172  0.9084
  152SOL    HW2  456   2.977   0.122   0.529 -1.3061 -0.1927 -0.9252
  153SOL     OW  457   2.203   3.025   0.844 -0.1682 -0.2794 -0.7095
  153SOL    HW1  458   2.130   0.017   0.822  0.4692 -2.1436  0.2013
  153SOL    HW2  459   2.240   2.981   0.759 -0.4778 -0.0548 -1.1819
  154SOL     OW  460   1.092   0.420   1.629 -0.4657  0.0577  0.7381
  154SOL    HW1  461   1.054   0.464   1.714 -3.5822 -0.4234 -1.7451
  154SOL    HW2  462   1.180   0.463   1.607  1.5645 -2.1844  1.9016
  155SOL     OW  463   2.475   1.244   1.006 -0.4707 -0.4379  0.2148
  155SOL    HW1  464   2.562   1.189   1.001 -1.9860  0.3519  0.9015
  155SOL    HW2  465   2.498   1.341   1.026 -2.0915  4.4119 -2.6790
  156SOL     OW  466   2.507   1.886   0.171 -0.5486  0.3289  0.0718
  156SOL    HW1  467   2.425   1.858   0.227 -0.0913  1.4312  1.6314
  156SOL    HW2  468   2.529   1.817   0.098  1.4171 -0.0652 -2.3411
  157SOL     OW  469   1.113   3.031   0.531  0.4060 -0.4679 -0.3010
  157SOL    HW1  470   1.076   2.941   0.501 -0.3295 -1.5077  0.8100
  157SOL    HW2  471   1.184   3.020   0.607  3.6058 -0.8260  0.1977
  158SOL     OW  472   2.289   0.431   2.580 -0.6705  0.0464  0.0481
  158SOL    HW1  473   2.377   0.490   2.560  0.4243  1.5085 -0.9448
  158SOL    HW2  474   2.283   0.354   2.512  1.7480 -0.7553 -1.8601
  159SOL     OW  475   0.544   3.009   0.281  0.3734  0.1640 -0.3701
  159SOL    HW1  476   0.510   2.960   0.197 -2.6687 -0.9638 -2.1887
  159SOL    HW2  477   0.481   0.005   0.323 -0.3004 -0.1748  1.1085
  160SOL     OW  478   1.241   2.084   0.093  0.1281 -0.4237  0.4924
  160SOL    HW1  479   1.281   2.159   0.042 -3.6529  2.1907 -0.1961
  160SOL    HW2  480   1.141   2.081   0.072 -0.7618  0.1690  0.2724
  161SOL     OW  481   2.735   1.881   2.300 -0.2789 -0.1075 -0.2514
  161SOL    HW1  482   2.749   1.882   2.202  0.5218  0.9709  2.2294
  161SOL    HW2  483   2.736   1.974   2.341 -0.3424 -4.4725 -1.2072
  162SOL     OW  484   0.255   2.681   1.203 -0.4004 -0.6590  0.1404
  162SOL    HW1  485   0.341   2.669   1.263  1.1484 -2.7318 -0.7118
  162SOL    HW2  486   0.172   2.668   1.262 -0.1259  0.7643  2.0225
  163SOL     OW  487   2.207   0.364   2.832  0.3406  0.8678 -0.3442
  163SOL    HW1  488   2.136   0.292   2.830 -2.6303  0.6866  0.6298
  163SOL    HW2  489   2.242   0.397   2.740 -0.6677  1.7335 -0.8006
  164SOL     OW  490   2.872   1.519   0.793 -0.5544  0.4126  0.2200
  164SOL    HW1  491   2.808   1.539   0.718 -1.0941 -2.0048  2.1694
  164SOL    HW2  492   2.937   1.597   0.807 -0.8285  0.0874  0.2036
  165SOL     OW  493   2.863   0.162   1.882 -0.0557 -0.3558 -0.1756
  165SOL    HW1  494   2.820   0.072   1.900  1.0033  3.9870 -1.4329
  165SOL    HW2  495   2.803   0.237   1.921 -0.7564  3.3001  5.1501
  166SOL     OW  496   2.256   0.716   0.589  0.0827  0.1416  0.2977
  166SOL    HW1  497   2.168   0.770   0.612 -1.0513 -0.2849  2.2640
  166SOL    HW2  498   2.270   0.721   0.490  0.2443 -0.7868  1.5865
  167SOL     OW  499   0.472   0.367   0.499  0.2921  0.3989  0.3490
  167SOL    HW1  500   0.398   0.431   0.470  0.3628 -1.7631  1.9296
  167SOL    HW2  501   0.460   0.358   0.599 -0.6471  0.4711 -2.2654
  168SOL     OW  502   1.826   2.690   2.258 -0.6181  0.1361 -0.2169
  168SOL    HW1  503   1.821   2.603   2.312  0.4535 -2.2767  0.1233
  168SOL    HW2  504   1.789   2.767   2.316  1.4117  1.9313  3.2123
  169SOL     OW  505   0.993   1.054   0.590  0.6707 -0.1330  0.0734
  169SOL    HW1  506   0.977   0.985   0.515 -0.2311 -3.7993 -1.1074
  169SOL    HW2  507   0.917   1.121   0.598 -2.2016 -2.5634  0.6266
  170SOL     OW  508   2.855   0.521   1.512 -0.3750 -0.3975 -0.6615
  170SOL    HW1  509   2.807   0.503   1.425 -0.5059  0.5033  0.4637
  170SOL    HW2  510   2.796   0.491   1.593 -3.9715 -3.1471  0.5322
  171SOL     OW  511   1.070   2.864   1.743 -0.5787 -0.2386 -0.5190
  171SOL    HW1  512   1.047   2.850   1.644 -0.3984  0.5600  1.7707
  171SOL    HW2  513   1.063   2.964   1.770  0.5763  1.1582 -0.8468
  172SOL     OW  514   0.364   2.371   1.589 -0.1877  0.7232  0.2887
  172SOL    HW1  515   0.289   2.332   1.530 -0.3153  0.8967 -2.4927
  172SOL    HW2  516   0.432   2.309   1.623 -0.1534 -0.6052 -1.5022
  173SOL     OW  517   1.123   0.576   2.693  0.4477 -0.1683 -0.1239
  173SOL    HW1  518   1.161   0.550   2.603  1.0078 -1.9543  0.8368
  173SOL    HW2  519   1.196   0.599   2.760 -1.5492  0.8242  0.2999
  174SOL     OW  520   1.825   0.067   2.451 -0.0679 -0.4052  0.4943
  174SOL    HW1  521   1.754   0.131   2.486  0.0814  0.6562 -1.4622
  174SOL    HW2  522   1.908   0.061   2.511 -0.3430  0.3281 -0.2526
  175SOL     OW  523   1.721   2.649   0.124  0.5096 -0.0059  0.2032
  175SOL    HW1  524   1.773   2.622   0.208 -0.1392  1.3848 -0.8275
  175SOL    HW2  525   1.623   2.620   0.127 -0.1374 -4.4981  0.4027
  176SOL     OW  526   1.755   0.403   2.829 -0.1339 -0.1376  0.4940
  176SOL    HW1  527   1.772   0.497   2.857 -0.1249 -1.6429 -0.4942
  176SOL    HW2  528   1.699   0.411   2.746  0.3883  0.2906  1.0658
  177SOL     OW  529   0.837   1.565   0.432 -0.0307  0.2707 -0.2915
  177SOL    HW1  530   0.769   1.539   0.501 -0.1248  3.0139 -1.7569
  177SOL    HW2  531   0.806   1.642   0.373 -0.1467  0.9779 -0.5003
  178SOL     OW  532   2.938   2.332   2.397 -0.2135 -0.6497  0.1779
  178SOL    HW1  533   3.017   2.332   2.334 -2.1058 -1.3971  2.4328
  178SOL    HW2  534   2.949   2.262   2.473  1.7809  0.6323 -0.9765
  179SOL     OW  535   0.415   2.521   2.546  0.0852 -0.5246  0.0433
  179SOL    HW1  536   0.454   2.541   2.641 -1.4719  0.2980  2.9826
  179SOL    HW2  537   0.483   2.534   2.475 -1.1988 -2.0008  2.5999
  180SOL     OW  538   1.904   1.809   1.063  0.4033  0.7806 -0.6253
  180SOL    HW1  539   1.915   1.729   1.132  0.7756 -0.9212 -1.7846
  180SOL    HW2  540   1.808   1.841   1.067 -1.9021  0.4235 -2.9018
  181SOL     OW  541   1.903   0.958   2.250  0.4473  0.1156  0.4103
  181SOL    HW1  542   1.948   1.023   2.187  2.0070  0.8331  2.1276
  181SOL    HW2  543   1.848   1.011   2.318  0.9842  1.2997  0.2915
  182SOL     OW  544   2.749   2.748   2.379 -0.1128  0.1513 -0.5460
  182SOL    HW1  545   2.783   2.695   2.300 -1.8969  1.6744  1.9719
  182SOL    HW2  546   2.795   2.839   2.384  1.7975  1.8266 -2.9547
  183SOL     OW  547   1.475   0.840   2.340  0.1804 -0.5208  0.6738
  183SOL    HW1  548   1.515   0.934   2.323  0.0225 -0.7065 -0.2513
  183SOL    HW2  549   1.527   0.779   2.405  0.7242  0.4125 -1.0857
  184SOL     OW  550   0.838   0.858   1.565 -0.8817 -0.3179 -0.0589
  184SOL    HW1  551   0.773   0.807   1.621 -1.0557 -1.3099 -0.0412
  184SOL    HW2  552   0.847   0.955   1.591  0.4964 -0.8724  1.1052
  185SOL     OW  553   1.994   1.045   0.698  0.4124 -0.7268  0.4080
  185SOL    HW1  554   1.929   1.093   0.632  3.3011  1.6362 -3.8319
  185SOL    HW2  555   2.076   1.104   0.714  2.4785  0.6861 -1.2746
  186SOL     OW  556   0.239   1.901   2.829 -0.1264  0.2162 -0.3576
  186SOL    HW1  557   0.304   1.825   2.849 -1.2682  0.0655  1.0850
  186SOL    HW2  558   0.183   1.890   2.740 -1.2751  0.7122 -2.3199
  187SOL     OW  559   2.693   1.362   0.204  0.3448  0.2422 -0.6894
  187SOL    HW1  560   2.767   1.384   0.144 -1.7886  3.7221 -2.3567
  187SOL    HW2  561   2.719   1.295   0.281  0.0929 -0.0757  1.8258
  188SOL     OW  562   0.002   1.857   0.612 -0.0665  0.7110  0.3222
  188SOL    HW1  563   0.069   1.836   0.535  0.4977 -1.6945 -0.6251
  188SOL    HW2  564   0.010   1.958   0.624  2.3521 -2.2665  0.3790
  189SOL     OW  565   2.335   0.513   0.144  0.1509  0.2432 -0.1551
  189SOL    HW1  566   2.285   0.469   0.220  0.7655  0.7655 -0.1569
  189SOL    HW2  567   2.434   0.480   0.142  1.6297 -0.7479 -1.8508
  190SOL     OW  568   1.342   1.493   2.004 -0.0259 -0.0723 -0.7553
  190SOL    HW1  569   1.308   1.579   2.051  0.3961  2.3399  1.6455
  190SOL    HW2  570   1.271   1.418   1.999 -0.1367  0.7274 -0.4347
  191SOL     OW  571   2.459   0.031   1.712 -0.1837  0.6363 -0.5450
  191SOL    HW1  572   2.524   0.067   1.642  0.3472 -0.4758 -2.0815
  191SOL    HW2  573   2.429   0.099   1.779  1.3037 -2.0454 -2.9571
  192SOL     OW  574   2.018   1.386   1.449  0.4123  0.2712 -0.3500
  192SOL    HW1  575   1.932   1.434   1.430  0.7311  0.5763  1.6955
  192SOL    HW2  576   1.994   1.294   1.483  0.7737 -1.8001 -0.6445
  193SOL     OW  577   1.014   0.620   0.761  0.0391 -0.3362 -0.3536
  193SOL    HW1  578   1.007   0.627   0.655 -0.3164  0.4744 -3.8588
  193SOL    HW2  579   1.035   0.711   0.800 -0.3143 -2.7067 -0.3956
  194SOL     OW  580   1.211   3.000   1.270  0.3125 -0.2228  0.4985
  194SOL    HW1  581   1.177   2.937   1.197  1.4024 -0.8883  0.1970
  194SOL    HW2  582   1.153   2.992   1.351  0.5499 -1.5606  0.4237
  195SOL     OW  583   2.261   0.336   0.368 -0.4877  0.4538 -0.0432
  195SOL    HW1  584   2.301   0.253   0.317 -1.0063 -0.6151 -4.4488
  195SOL    HW2  585   2.283   0.347   0.469  3.0337 -1.3145 -0.2694
  196SOL     OW  586   0.722   2.283   1.498 -0.2592 -0.0843  0.3945
  196SOL    HW1  587   0.769   2.193   1.473  0.0660 -0.9915 -1.5518
  196SOL    HW2  588   0.786   2.354   1.536 -1.6039  0.1365  0.3006
  197SOL     OW  589   0.448   2.608   0.579  0.1613  0.4397 -0.3305
  197SOL    HW1  590   0.538   2.641   0.615  0.7067 -0.5345  0.0503
  197SOL    HW2  591   0.412   2.533   0.640 -1.8805 -0.9110  1.8922
  198SOL     OW  592   0.654   1.051   0.728  0.2170 -0.1804  0.1421
  198SOL    HW1  593   0.682   1.064   0.823  0.1343 -0.9528 -1.1144
  198SOL    HW2  594   0.707   1.109   0.664 -1.0846  0.4191  0.9006
  199SOL     OW  595   0.149   2.876   1.506  0.0963 -0.0311  0.2405
  199SOL    HW1  596   0.116   2.971   1.513 -0.0971 -3.3698  1.4523
  199SOL    HW2  597   0.246   2.872   1.535  0.9615  0.3115 -0.4621
  200SOL     OW  598   2.302   1.727   2.752  0.0373 -0.0648 -0.3198
  200SOL    HW1  599   2.378   1.663   2.728 -2.8173  0.1073  1.6324
  200SOL    HW2  600   2.262   1.754   2.663 -2.7681  1.6196  1.4718
  201SOL     OW  601   2.906   2.243   1.204  0.0175 -0.3297 -0.0826
  201SOL    HW1  602   2.964   2.299   1.265 -3.1802  0.3285 -3.9858
  201SOL    HW2  603   2.863   2.174   1.265  1.6229 -1.1015  1.1985
  202SOL     OW  604   2.727   0.227   0.347  0.2835  0.2771  0.7976
  202SOL    HW1  605   2.711   0.256   0.253 -0.2001 -0.4395  2.7652
  202SOL    HW2  606   2.822   0.202   0.356 -2.9369  1.4650 -2.6121
  203SOL     OW  607   1.345   2.170   2.330 -0.1971  0.0644 -0.0498
  203SOL    HW1  608   1.329   2.159   2.231  0.5149  1.3518 -0.2578
  203SOL    HW2  609   1.271   2.126   2.384  0.5487 -0.3738 -2.2068
  204SOL     OW  610   0.954   1.579   1.589 -0.1232  0.2005  0.2406
  204SOL    HW1  611   0.886   1.606   1.516  0.3206 -0.7179 -2.2470
  204SOL    HW2  612   0.905   1.567   1.676 -0.0467 -0.8949 -2.9568
  205SOL     OW  613   0.947   2.097   1.679  0.3521  0.3740  0.5988
  205SOL    HW1  614   1.014   2.043   1.620  0.0158 -1.7300 -0.8550
  205SOL    HW2  615   0.888   2.038   1.735  2.5288  1.9869  1.4441
  206SOL     OW  616   0.201   0.609   2.627 -0.4576  0.0893 -0.2364
  206SOL    HW1  617   0.300   0.634   2.642 -2.6096  0.7430 -0.5609
  206SOL    HW2  618   0.148   0.594   2.714 -2.1581 -1.2797  1.8888
  207SOL     OW  619   1.614   2.836   1.983  0.4501  0.2138 -0.6944
  207SOL    HW1  620   1.524   2.865   1.937 -1.1989  0.7718 -2.9909
  207SOL    HW2  621   1.632   2.740   1.962  0.6709  1.7726 -1.0530
  208SOL     OW  622   0.817   2.456   1.917  0.3550 -0.6184  0.6028
  208SOL    HW1  623   0.835   2.467   2.017 -0.0873  0.7073  1.1541
  208SOL    HW2  624   0.819   2.541   1.863  0.2956 -1.8880 -0.8165
  209SOL     OW  625   2.091   1.244   2.938  0.4403 -0.5134  0.6996
  209SOL    HW1  626   2.192   1.241   2.946 -4.6378  1.5736  1.5668
  209SOL    HW2  627   2.059   1.189   2.859 -1.8061 -0.4638  0.2650
  210SOL     OW  628   2.927   0.487   1.076 -0.3844  0.1942  0.3321
  210SOL    HW1  629   2.929   0.392   1.035  1.3125 -2.5700  0.0981
  210SOL    HW2  630   2.860   0.492   1.150  0.8435 -1.5319 -0.3992
  211SOL     OW  631   0.861   0.856   1.135  0.0996  0.3654 -0.0186
  211SOL    HW1  632   0.785   0.839   1.074  1.8504  0.3413  2.9908
  211SOL    HW2  633   0.842   0.799   1.217  0.2347 -1.9366  0.9976
  212SOL     OW  634   0.848   2.004   1.078 -0.7927 -0.0242  0.2711
  212SOL    HW1  635   0.778   1.937   1.045 -0.9109  2.0249 -2.6575
  212SOL    HW2  636   0.908   2.033   1.004 -2.1591 -0.2373  1.6654
  213SOL     OW  637   1.945   0.098   1.606  0.6187 -0.1566 -0.3446
  213SOL    HW1  638   1.862   0.048   1.630 -1.6322 -2.4254 -0.8359
  213SOL    HW2  639   2.027   0.054   1.656  0.2855 -2.4493  2.6717
  214SOL     OW  640   1.384   2.250   2.708  0.3982  0.1745  0.0736
  214SOL    HW1  641   1.401   2.200   2.616 -0.9907  0.9704 -1.5225
  214SOL    HW2  642   1.454   2.226   2.778 -0.5005 -0.2086 -0.8540
  215SOL     OW  643   2.914   1.712   1.286  0.1891  0.4243 -0.4455
  215SOL    HW1  644   2.847   1.785   1.300  0.7643  1.0786  0.7055
  215SOL    HW2  645   2.867   1.623   1.263  0.8510 -1.1380 -0.1522
  216SOL     OW  646   0.549   0.117   2.216  0.2517  0.0440 -0.4610
  216SOL    HW1  647   0.646   0.107   2.190  0.9304 -0.5600  0.8034
  216SOL    HW2  648   0.518   0.054   2.290  0.1322 -1.9785  0.1587
  217SOL     OW  649   2.716   0.291   3.005 -0.0712 -0.0177  0.1005
  217SOL    HW1  650   2.758   0.360   2.946 -1.3486 -3.4153  1.7262
  217SOL    HW2  651   2.768   0.204   3.000 -1.0677  2.5045  1.3319
  218SOL     OW  652   1.766   1.711   2.434 -0.4380  0.6701 -0.4440
  218SOL    HW1  653   1.699   1.775   2.474 -1.6493 -2.7437 -0.6842
  218SOL    HW2  654   1.747   1.614   2.465 -4.1113 -1.0121  2.1327
  219SOL     OW  655   1.672   1.081   0.061  0.1644  0.8520  0.5235
  219SOL    HW1  656   1.776   1.080   0.068 -1.0786 -0.1957  1.4994
  219SOL    HW2  657   1.636   1.094   3.037 -1.4040  1.2429  1.3015
  220SOL     OW  658   1.393   1.906   1.117  0.1275  0.0374  0.1065
  220SOL    HW1  659   1.325   1.829   1.122  1.5198  1.3119  0.8320
  220SOL    HW2  660   1.361   1.958   1.039  0.5454  0.5474  1.4360
  221SOL     OW  661   0.135   0.720   0.007 -0.3130  0.4216 -0.1782
  221SOL    HW1  662   0.053   0.746   0.064 -2.4014 -0.0829 -0.1645
  221SOL    HW2  663   0.146   0.773   2.997  1.7565 -1.7054  2.4254
  222SOL     OW  664   1.157   2.702   1.481  0.5759  0.1039 -0.5148
  222SOL    HW1  665   1.163   2.618   1.537  1.6774  1.4290 -2.4814
  222SOL    HW2  666   1.244   2.746   1.460 -1.4086 -1.0888 -0.4144
  223SOL     OW  667   1.502   0.093   2.823  0.2153 -0.3450  0.3701
  223SOL    HW1  668   1.523   3.069   2.800  1.1358 -0.6762  1.0078
  223SOL    HW2  669   1.552   0.127   2.904 -0.8508 -1.1660 -0.3393
  224SOL     OW  670   2.763   0.902   1.051 -0.1951 -0.2428 -0.1840
  224SOL    HW1  671   2.852   0.847   1.071  1.6807 -1.0443  0.2339
  224SOL    HW2  672   2.687   0.886   1.121  0.2336 -3.3981  0.7252
  225SOL     OW  673   0.798   1.260   1.392 -0.3402  0.0016  0.3601
  225SOL    HW1  674   0.840   1.324   1.324 -1.1361  2.1201 -0.2779
  225SOL    HW2  675   0.708   1.224   1.360  2.0628 -1.4036 -0.6924
  226SOL     OW  676   1.481   2.921   3.014 -0.1727 -0.3296  0.5874
  226SOL    HW1  677   1.410   2.985   2.989  1.2350  1.0135  0.5796
  226SOL    HW2  678   1.516   2.933   0.034 -1.6771 -0.5841  0.4715
  227SOL     OW  679   0.493   1.613   1.031  0.1201  0.0507 -0.7623
  227SOL    HW1  680   0.469   1.512   1.052  1.0809 -2.2985 -0.9720
  227SOL    HW2  681   0.433   1.666   1.094  1.1232  0.0050 -0.1122
  228SOL     OW  682   0.466   2.716   1.379 -0.7722 -0.2654  0.2211
  228SOL    HW1  683   0.460   2.753   1.473 -2.0276 -1.6938  1.4214
  228SOL    HW2  684   0.516   2.776   1.314 -0.5371 -1.2203 -0.9296
  229SOL     OW  685   2.411   1.292   0.106 -0.4929  0.1288  0.0670
  229SOL    HW1  686   2.398   1.246   0.198 -1.8515 -3.0437  1.7939
  229SOL    HW2  687   2.404   1.218   0.035 -3.0892  2.0388 -0.9749
  230SOL     OW  688   0.827   1.048   1.910  0.0498 -0.4667 -0.3341
  230SOL    HW1  689   0.797   1.108   1.833 -2.0698  2.5848  0.4615
  230SOL    HW2  690   0.930   1.045   1.916  1.7192  1.4903  0.7788
  231SOL     OW  691   1.448   2.010   1.551  0.1412 -0.5381  0.2170
  231SOL    HW1  692   1.531   2.067   1.558 -5.3350  0.8834  1.7424
  231SOL    HW2  693   1.405   2.008   1.646  2.1064 -0.1417  0.5381
  232SOL     OW  694   1.900   2.399   0.649 -0.2558  0.0919 -0.0946
  232SOL    HW1  695   1.879   2.500   0.660 -1.5484 -1.1573  0.8672
  232SOL    HW2  696   1.859   2.368   0.559  0.1924  0.0424 -3.7664
  233SOL     OW  697   1.116   2.566   2.905 -0.7247 -0.4952  0.6739
  233SOL    HW1  698   1.188   2.545   2.835 -1.2380 -1.6639 -3.9917
  233SOL    HW2  699   1.143   2.644   2.966  0.1026  1.1604 -1.4750
  234SOL     OW  700   1.049   0.178   2.517  0.4619 -0.0178 -0.3643
  234SOL    HW1  701   1.088   0.218   2.606 -0.9128  0.5575  0.8894
  234SOL    HW2  702   0.995   0.094   2.546 -0.9214 -1.7772  2.3748
  235SOL     OW  703   2.858   2.327   0.109  0.2912 -0.5350 -0.0722
  235SOL    HW1  704   2.870   2.328   0.212 -0.4862  1.5586 -2.4627
  235SOL    HW2  705   2.873   2.235   0.077 -0.1415 -0.8382 -0.9731
  236SOL     OW  706   1.928   2.193   2.378  1.0785 -0.0743  0.1232
  236SOL    HW1  707   1.883   2.128   2.443 -0.7421  0.1241  1.6252
  236SOL    HW2  708   2.020   2.157   2.362 -1.0060  2.6619  1.8068
  237SOL     OW  709   1.773   1.222   1.191 -0.0050 -0.5995 -0.3276
  237SOL    HW1  710   1.800   1.128   1.219  0.8978  0.2971 -2.3378
  237SOL    HW2  711   1.818   1.241   1.099  1.5971  0.1771  0.9772
  238SOL     OW  712   2.095   0.184   2.100 -0.2868 -0.1166  0.0186
  238SOL    HW1  713   2.098   0.271   2.044  1.1464  2.5878  0.1852
  238SOL    HW2  714   2.005   0.169   2.146 -0.3550  0.9694  1.6662
  239SOL     OW  715   0.592   1.625   1.546  0.1980  0.4922 -0.5670
  239SOL    HW1  716   0.559   1.540   1.591 -1.7872 -0.1597  1.6978
  239SOL    HW2  717   0.655   1.602   1.467  0.4256 -1.2830 -2.3800
  240SOL     OW  718   0.021   2.127   0.635 -0.1845 -1.0854 -0.0220
  240SOL    HW1  719   3.025   2.195   0.666  2.7694  1.6052  0.2190
  240SOL    HW2  720   0.108   2.133   0.689  1.8498  0.4570 -0.5724
  241SOL     OW  721   1.508   1.975   0.621  0.2261 -0.7470  0.4872
  241SOL    HW1  722   1.509   1.944   0.715  0.6925  0.3950 -0.5761
  241SOL    HW2  723   1.521   1.892   0.560  0.9024  0.1579  1.4082
  242SOL     OW  724   1.500   1.391   0.328 -0.2437  0.7663 -0.2964
  242SOL    HW1  725   1.525   1.399   0.430  3.0862 -0.6837  0.8824
  242SOL    HW2  726   1.471   1.296   0.306  0.2588 -1.2327  1.7639
  243SOL     OW  727   0.815   0.104   2.158  0.1229  0.2072 -0.0858
  243SOL    HW1  728   0.877   0.178   2.186 -0.1475 -1.2574  0.5195
  243SOL    HW2  729   0.805   0.098   2.057 -2.2290  0.5671  1.9048
  244SOL     OW  730   1.720   2.992   2.900 -0.1388 -0.3060  0.0208
  244SOL    HW1  731   1.720   0.024   2.914 -2.3791  1.8901  1.3915
  244SOL    HW2  732   1.630   2.952   2.921  2.5707 -1.2824 -0.1074
  245SOL     OW  733   1.239   0.012   2.983 -0.4313 -0.1388 -0.0975
  245SOL    HW1  734   1.226   0.072   3.062  1.5819 -1.6177 -2.1947
  245SOL    HW2  735   1.260   0.070   2.901 -1.8901  1.9982 -3.7734
  246SOL     OW  736   0.960   0.684   2.483  0.1309 -0.0441  0.0147
  246SOL    HW1  737   0.995   0.631   2.406 -1.8255  0.5044  0.6291
  246SOL    HW2  738   1.003   0.645   2.568 -1.8563  1.6146  0.3362
  247SOL     OW  739   0.282   0.624   1.837  0.3414 -0.0201 -0.0708
  247SOL    HW1  740   0.337   0.589   1.915  2.7011  1.9816  1.3142
  247SOL    HW2  741   0.182   0.635   1.852  0.5317 -0.5034 -2.4769
  248SOL     OW  742   0.778   0.780   1.962  0.3329  0.1305 -0.1580
  248SOL    HW1  743   0.831   0.763   2.049 -1.1049 -1.5295  0.6459
  248SOL    HW2  744   0.798   0.876   1.932  0.4601  2.3498  1.7010
  249SOL     OW  745   2.059   0.335   0.173 -0.0726 -0.4703 -0.4688
  249SOL    HW1  746   2.035   0.237   0.155  0.9931  0.8023 -2.4411
  249SOL    HW2  747   2.139   0.330   0.241  0.4476 -3.3142  2.0777
  250SOL     OW  748   0.563   0.090   0.968 -0.1531  0.6967 -0.8069
  250SOL    HW1  749   0.651   0.127   0.958 -2.1956 -1.2083 -0.3863
  250SOL    HW2  750   0.507   0.158   1.017  1.7748  3.4900 -2.1805
  251SOL     OW  751   1.212   0.525   2.429 -0.0576  0.5358  0.0795
  251SOL    HW1  752   1.272   0.557   2.350  0.4824 -0.9739  2.1581
  251SOL    HW2  753   1.209   0.424   2.416 -2.5392 -1.8543 -0.8623
  252SOL     OW  754   1.450   1.742   1.831  0.4184  0.4144 -0.2526
  252SOL    HW1  755   1.471   1.680   1.757 -1.8748 -0.9508  2.7278
  252SOL    HW2  756   1.368   1.707   1.877 -0.8072  1.7613  0.1930
  253SOL     OW  757   1.731   2.534   2.032 -0.5676 -0.3322 -0.6824
  253SOL    HW1  758   1.793   2.601   2.078  1.4150 -2.4966  1.5411
  253SOL    HW2  759   1.689   2.476   2.106 -0.4382  1.4887  0.0838
  254SOL     OW  760   0.827   2.096   2.038 -0.2522 -0.0412  1.0917
  254SOL    HW1  761   0.909   2.128   2.091 -0.1082 -0.2524  1.4221
  254SOL    HW2  762   0.842   2.004   1.999 -0.0679  1.8136 -0.5459
  255SOL     OW  763   1.288   0.579   0.574  0.4761 -0.4245 -0.2271
  255SOL    HW1  764   1.297   0.649   0.648 -0.3930 -1.8169 -2.4715
  255SOL    HW2  765   1.204   0.591   0.518  1.5477 -0.1841  4.3741
  256SOL     OW  766   1.753   1.877   1.774  0.4865 -0.5826 -0.0722
  256SOL    HW1  767   1.836   1.837   1.737 -0.8252  0.7771 -0.6054
  256SOL    HW2  768   1.708   1.942   1.709  1.7393  0.3823 -1.7171
  257SOL     OW  769   0.294   2.259   2.527 -0.6136 -0.1728  0.2040
  257SOL    HW1  770   0.345   2.347   2.546 -1.3103  1.1939  2.2105
  257SOL    HW2  771   0.325   2.196   2.601  0.4942  1.5639 -1.7023
  258SOL     OW  772   0.928   0.445   2.239 -0.2522  0.3360  0.2862
  258SOL    HW1  773   0.990   0.367   2.220 -1.0416 -1.5892 -0.1860
  258SOL    HW2  774   0.877   0.435   2.328  0.8809  2.0144 -0.1434
  259SOL     OW  775   1.056   1.062   2.223 -0.6994  0.4757 -0.3745
  259SOL    HW1  776   1.008   1.010   2.294 -0.3825 -0.2001 -3.0796
  259SOL    HW2  777   1.116   1.002   2.167  3.2187 -2.3417  0.5277
  260SOL     OW  778   1.542   0.852   0.590  0.0023  0.0552 -0.1596
  260SOL    HW1  779   1.457   0.848   0.651  0.3154 -1.1686  0.2933
  260SOL    HW2  780   1.608   0.775   0.613  0.4354  0.3101 -0.8771
  261SOL     OW  781   0.515   3.025   2.856 -0.0309  0.0711 -0.1611
  261SOL    HW1  782   0.584   2.964   2.902  1.3537 -0.4810  2.9263
  261SOL    HW2  783   0.430   2.972   2.837  1.2655 -1.7386 -1.5934
  262SOL     OW  784   2.474   0.059   2.710  0.2458 -0.3289  0.2085
  262SOL    HW1  785   2.575   0.053   2.700  1.0750 -1.7202 -2.4876
  262SOL    HW2  786   2.457   0.125   2.789 -0.2396  0.3762  2.3111
  263SOL     OW  787   0.166   2.075   0.194  0.2175 -0.1756  0.3730
  263SOL    HW1  788   0.084   2.084   0.261 -2.3334  0.6668  1.5291
  263SOL    HW2  789   0.136   2.047   0.099 -0.1413  1.1149  0.2134
  264SOL     OW  790   0.545   1.244   1.324  0.1012  0.1677  0.1824
  264SOL    HW1  791   0.501   1.311   1.386  2.5812 -0.5481  2.0851
  264SOL    HW2  792   0.501   1.247   1.230 -0.5030  2.0811 -0.5897
  265SOL     OW  793   0.497   1.249   0.397  0.3920 -0.3102  0.3781
  265SOL    HW1  794   0.472   1.199   0.311  0.2317  1.8950 -1.3313
  265SOL    HW2  795   0.593   1.276   0.417  0.8830  2.1749 -0.8683
  266SOL     OW  796   1.829   1.177   0.491  0.5103  0.1579  0.3817
  266SOL    HW1  797   1.912   1.190   0.434  0.9494 -0.2870  0.0512
  266SOL    HW2  798   1.748   1.151   0.432 -1.6289 -1.5035  0.5127
  267SOL     OW  799   3.004   0.379   0.110  0.3695  0.1025  0.1504
  267SOL    HW1  800   2.954   0.297   0.134 -1.5337 -0.5495 -3.8557
  267SOL    HW2  801   3.005   0.383   0.008  2.8128 -0.2333  1.7946
  268SOL     OW  802   0.268   2.904   2.788  0.2461  0.1834  0.1452
  268SOL    HW1  803   0.234   2.808   2.784  0.6239 -1.2795 -0.2578
  268SOL    HW2  804   0.221   2.963   2.718 -3.4485  2.8402 -2.3246
  269SOL     OW  805   2.042   0.095   2.613 -0.7005 -0.0095  0.1408
  269SOL    HW1  806   2.014   0.155   2.690 -0.6671 -2.0052  1.6990
  269SOL    HW2  807   2.131   0.131   2.575  0.3204 -2.0797  0.6596
  270SOL     OW  808   0.742   1.084   2.561  0.3543 -0.2402 -0.0681
  270SOL    HW1  809   0.695   1.098   2.472  0.3439  2.1255 -2.4597
  270SOL    HW2  810   0.766   1.175   2.595 -2.1078 -1.4379  2.1396
  271SOL     OW  811   2.670   0.934   0.207 -0.0778  0.5241 -0.2450
  271SOL    HW1  812   2.671   0.877   0.126  2.6629 -1.4904  2.6369
  271SOL    HW2  813   2.749   0.995   0.218 -0.4819 -1.8986  0.6649
  272SOL     OW  814   2.763   1.693   2.521  0.2100 -0.0030  0.2678
  272SOL    HW1  815   2.747   1.754   2.439  0.2497  1.2284  0.8388
  272SOL    HW2  816   2.681   1.695   2.587 -0.1778 -0.7492  0.3323
  273SOL     OW  817   2.371   0.586   2.970 -0.0683  0.4772  0.4675
  273SOL    HW1  818   2.309   0.536   2.908  1.2898  1.4457  1.7318
  273SOL    HW2  819   2.343   0.559   3.066 -1.5752  0.9716  1.5199
  274SOL     OW  820   0.083   2.807   0.877  0.3047  0.1405  0.5764
  274SOL    HW1  821   0.179   2.813   0.843  0.8159  0.7386 -0.0586
  274SOL    HW2  822   0.072   2.875   0.956 -0.5003  2.7616  0.8224
  275SOL     OW  823   1.993   1.607   0.681 -0.1076 -0.1520  0.0149
  275SOL    HW1  824   2.051   1.579   0.604  0.6742 -0.2257 -0.6544
  275SOL    HW2  825   2.040   1.663   0.752 -1.8428  1.0709 -1.1749
  276SOL     OW  826   0.146   1.333   2.777 -0.6635  0.2288  0.0417
  276SOL    HW1  827   0.245   1.347   2.750 -0.4327  0.8317 -0.8592
  276SOL    HW2  828   0.099   1.286   2.694 -1.8095  1.0894  1.4568
  277SOL     OW  829   1.702   2.593   1.664 -0.2507  0.1541 -1.0540
  277SOL    HW1  830   1.639   2.604   1.745  1.8748 -0.4404 -2.6378
  277SOL    HW2  831   1.717   2.682   1.621 -0.2148 -5.0137 -0.5245
  278SOL     OW  832   1.633   0.418   1.909 -0.1222  0.0636  0.3925
  278SOL    HW1  833   1.554   0.360   1.879  0.3773  0.0473 -1.2698
  278SOL    HW2  834   1.689   0.439   1.829 -0.8877 -1.2604  1.9590
  279SOL     OW  835   2.088   1.731   0.373 -0.1943  0.1640 -0.5117
  279SOL    HW1  836   2.021   1.679   0.318 -0.8013 -1.2007 -0.1266
  279SOL    HW2  837   2.046   1.802   0.436  0.8549  1.7863  0.6744
  280SOL     OW  838   0.414   1.631   0.753  0.2890 -0.5415  0.1819
  280SOL    HW1  839   0.362   1.563   0.706  0.3451  0.4669 -1.1769
  280SOL    HW2  840   0.416   1.621   0.854  0.8720  1.8980  1.2569
  281SOL     OW  841   0.165   3.066   2.606 -0.0168 -0.1060 -0.2196
  281SOL    HW1  842   0.231   0.068   2.622 -1.5148  1.1978  0.0670
  281SOL    HW2  843   0.075   0.032   2.592  3.0532  0.1247 -0.8795
  282SOL     OW  844   0.205   0.976   1.142 -0.1707 -0.0959 -0.1806
  282SOL    HW1  845   0.140   1.032   1.085  1.3743  0.3982  0.3358
  282SOL    HW2  846   0.162   0.925   1.218  1.6586 -0.3778 -1.6529
  283SOL     OW  847   1.825   2.052   0.199 -0.4168  0.5696 -0.5139
  283SOL    HW1  848   1.880   2.132   0.168  2.8095  2.3084  2.3298
  283SOL    HW2  849   1.731   2.077   0.211  0.6390 -0.5457  1.3085
  284SOL     OW  850   1.642   1.391   0.596 -0.5174  0.0690  0.4092
  284SOL    HW1  851   1.676   1.484   0.622  1.4551  0.7208 -1.1449
  284SOL    HW2  852   1.713   1.332   0.559 -3.2009 -1.7745 -1.0683
  285SOL     OW  853   2.785   0.016   2.738  0.5352 -0.1281 -0.2770
  285SOL    HW1  854   2.812   0.046   2.831 -1.7134  0.1899  0.1535
  285SOL    HW2  855   2.818   2.998   2.729  1.3614  1.7246  1.8219
  286SOL     OW  856   1.463   3.012   1.609 -0.2643  0.4652 -0.5482
  286SOL    HW1  857   1.462   2.932   1.542  0.0354 -2.2895  1.7196
  286SOL    HW2  858   1.430   0.025   1.559 -1.1856  2.9726  0.5638
  287SOL     OW  859   0.693   1.120   0.991 -0.2699 -0.4764 -0.0117
  287SOL    HW1  860   0.742   1.055   1.047 -1.6178  0.9699 -1.5435
  287SOL    HW2  861   0.599   1.134   1.018  3.6089 -1.0619 -2.0280
  288SOL     OW  862   1.671   0.213   3.012  0.3343  0.6638 -0.5906
  288SOL    HW1  863   1.715   0.277   2.947 -1.8882  1.4542  0.5655
  288SOL    HW2  864   1.662   0.262   0.026  1.8773 -0.5264  0.4703
  289SOL     OW  865   0.043   1.589   2.826  0.1273 -0.6612 -0.6241
  289SOL    HW1  866   0.039   1.625   2.729  0.6267 -0.7438  0.3592
  289SOL    HW2  867   0.066   1.490   2.820  1.1470  0.5024  1.1906
  290SOL     OW  868   1.366   2.240   0.715 -0.1622  0.1879 -0.0223
  290SOL    HW1  869   1.309   2.317   0.682 -0.4528 -0.2633  1.0549
  290SOL    HW2  870   1.397   2.185   0.636 -0.1132  1.3589 -1.1187
  291SOL     OW  871   2.192   2.059   2.836  0.5705 -0.6188  0.1658
  291SOL    HW1  872   2.114   2.046   2.899 -0.8902  1.3015 -1.4469
  291SOL    HW2  873   2.280   2.017   2.873  1.3775 -3.6227 -1.5698
  292SOL     OW  874   1.092   1.034   1.894 -0.0204 -0.0919  0.0427
  292SOL    HW1  875   1.144   1.003   1.974  1.0880  2.5238  3.0451
  292SOL    HW2  876   1.111   0.978   1.812  2.3496 -0.4125 -0.6703
  293SOL     OW  877   2.017   2.834   1.006 -0.4121 -0.3773 -0.4793
  293SOL    HW1  878   2.050   2.910   0.949  0.7096 -1.7209 -0.2671
  293SOL    HW2  879   2.084   2.759   0.992 -0.2451 -1.5555  1.8511
  294SOL     OW  880   0.267   0.426   2.425 -0.4022 -0.2179  0.1882
  294SOL    HW1  881   0.241   0.505   2.488  1.2729  1.1177  2.8347
  294SOL    HW2  882   0.314   0.464   2.341  0.8887 -2.2341 -2.3044
  295SOL     OW  883   1.541   1.768   0.470 -0.0803 -0.1126 -0.0501
  295SOL    HW1  884   1.597   1.692   0.507  0.4927  0.2772 -2.1480
  295SOL    HW2  885   1.467   1.732   0.407  0.9961  0.4148 -0.2050
  296SOL     OW  886   2.126   1.822   0.066  0.2551 -0.3616 -0.4342
  296SOL    HW1  887   2.154   1.756   3.068  0.2460 -0.5112  0.8590
  296SOL    HW2  888   2.109   1.782   0.157  1.5261 -2.8027 -2.9451
  297SOL     OW  889   2.024   0.520   3.005  0.7272 -0.1155 -0.7151
  297SOL    HW1  890   2.063   0.469   2.924  0.2305 -2.4154  1.8636
  297SOL    HW2  891   2.062   0.476   0.013 -1.2878 -1.1239 -5.0631
  298SOL     OW  892   1.040   2.408   2.567  0.6800 -0.2060 -0.3661
  298SOL    HW1  893   1.013   2.336   2.630  1.7720  3.9102  1.2706
  298SOL    HW2  894   1.141   2.406   2.560 -0.3625 -0.1596 -0.1341
  299SOL     OW  895   1.259   2.837   2.438 -0.0067  0.0896  0.1146
  299SOL    HW1  896   1.332   2.878   2.378  0.7109  0.8015 -0.7580
  299SOL    HW2  897   1.166   2.853   2.404  0.0382  2.2625 -0.6409
  300SOL     OW  898   2.456   0.226   2.916  0.0938 -0.4366  0.2848
  300SOL    HW1  899   2.536   0.280   2.937 -1.6926  0.7999 -2.1888
  300SOL    HW2  900   2.377   0.287   2.914 -0.6306 -0.2634 -1.4575
  301SOL     OW  901   1.390   1.594   1.239 -0.3245  0.1769 -0.1113
  301SOL    HW1  902   1.463   1.536   1.291  2.7873 -0.3147  3.7962
  301SOL    HW2  903   1.402   1.572   1.140  0.4993 -1.9431  0.3546
  302SOL     OW  904   2.598   2.274   0.393  0.6213 -0.0687  0.3851
  302SOL    HW1  905   2.692   2.305   0.411  0.3265 -2.3260 -0.3564
  302SOL    HW2  906   2.564   2.321   0.306  0.9803  1.3011 -2.2983
  303SOL     OW  907   2.864   2.601   2.190 -0.2755 -0.0455 -0.1813
  303SOL    HW1  908   2.956   2.647   2.172  2.8499  1.4498 -2.1081
  303SOL    HW2  909   2.865   2.501   2.177  4.7379  2.7680 -1.5681
  304SOL     OW  910   0.025   0.572   1.908 -0.3459  0.4567 -0.3634
  304SOL    HW1  911   0.036   0.535   1.812  2.4361  1.2981  0.8577
  304SOL    HW2  912   3.003   0.560   1.943 -0.4224  0.4574 -0.0979
  305SOL     OW  913   0.485   2.007   1.980 -0.4946 -0.0784  0.6672
  305SOL    HW1  914   0.549   1.933   1.960 -0.7691  2.1543  0.1956
  305SOL    HW2  915   0.536   2.093   1.971 -1.0660 -1.2228  2.4147
  306SOL     OW  916   2.831   0.852   1.915 -0.0454 -0.7085 -0.4833
  306SOL    HW1  917   2.765   0.916   1.961 -0.7304 -3.5736 -3.9519
  306SOL    HW2  918   2.783   0.828   1.830 -0.3305  3.7746 -0.7982
  307SOL     OW  919   1.915   1.218   1.650 -0.6433  0.2419 -0.0480
  307SOL    HW1  920   1.822   1.187   1.620 -2.2477  0.5084 -0.0289
  307SOL    HW2  921   1.981   1.142   1.680  3.1059  0.3142 -2.6163
  308SOL     OW  922   2.566   1.493   1.078 -0.4892 -0.0205  0.1280
  308SOL    HW1  923   2.493   1.534   1.133  1.5273  0.3501 -0.3757
  308SOL    HW2  924   2.629   1.569   1.045  0.6268 -0.0026 -0.1719
  309SOL     OW  925   2.273   1.639   1.458 -0.2625  0.1115  0.4078
  309SOL    HW1  926   2.276   1.723   1.513 -0.4348 -1.6661 -2.7766
  309SOL    HW2  927   2.331   1.566   1.503  1.8775  2.2291 -1.3651
  310SOL     OW  928   2.749   1.394   2.568 -0.2761 -0.5440  0.1498
  310SOL    HW1  929   2.726   1.360   2.473 -0.5358 -0.7138 -1.6767
  310SOL    HW2  930   2.746   1.496   2.574 -1.3554  0.3489 -1.0767
  311SOL     OW  931   2.887   1.917   2.962  0.0530  0.3031 -0.2305
  311SOL    HW1  932   2.821   1.947   3.037  1.0073 -2.5259 -0.8375
  311SOL    HW2  933   2.866   1.825   2.930  3.9488 -0.9861  1.4127
  312SOL     OW  934   2.382   1.660   1.209  0.1776 -0.4790 -0.0370
  312SOL    HW1  935   2.316   1.608   1.144 -3.2638  0.0132 -0.7768
  312SOL    HW2  936   2.335   1.667   1.303 -0.8193  0.3645  3.6345
  313SOL     OW  937   2.453   2.662   1.017 -0.1036 -0.9817  0.5523
  313SOL    HW1  938   2.449   2.758   1.044 -2.1001  0.3219 -1.2593
  313SOL    HW2  939   2.359   2.621   1.016  1.8373 -2.0359 -0.2748
  314SOL     OW  940   1.095   1.513   0.348  0.1494 -0.7122  0.1746
  314SOL    HW1  941   1.150   1.480   0.426  0.7927 -1.7131 -1.3270
  314SOL    HW2  942   0.998   1.526   0.378  0.4875 -2.8664  0.6599
  315SOL     OW  943   0.927   2.605   2.419  0.0706  0.3363  0.8251
  315SOL    HW1  944   0.983   2.531   2.464 -0.8946 -1.3020 -0.8915
  315SOL    HW2  945   0.980   2.688   2.397 -1.7238 -1.9451  3.1781
  316SOL     OW  946   0.118   0.730   0.631  0.0671 -0.2652 -0.5244
  316SOL    HW1  947   0.199   0.730   0.567  3.1663  1.2769  0.5266
  316SOL    HW2  948   0.037   0.678   0.595 -0.2353 -1.1728  0.5738
  317SOL     OW  949   0.914   0.331   0.605  0.1302 -0.6835  0.0990
  317SOL    HW1  950   0.844   0.352   0.532 -0.5806  0.3073 -1.3658
  317SOL    HW2  951   0.909   0.231   0.623 -0.2093  0.2362  0.3962
  318SOL     OW  952   2.862   2.373   0.375  0.4995  0.7464  0.4216
  318SOL    HW1  953   2.949   2.322   0.381 -2.9534 -0.2098  2.6829
  318SOL    HW2  954   2.888   2.471   0.377  1.0718 -1.6191 -0.6482
  319SOL     OW  955   0.406   1.310   2.296 -0.1643  0.2598 -0.2118
  319SOL    HW1  956   0.376   1.326   2.199 -0.5338 -0.6302 -0.3264
  319SOL    HW2  957   0.439   1.395   2.339  1.4583 -0.1375  1.2759
  320SOL     OW  958   0.873   2.726   1.869  0.1471 -0.8915  0.0269
  320SOL    HW1  959   0.929   2.795   1.813  4.3359 -0.6709  1.4174
  320SOL    HW2  960   0.778   2.762   1.884 -2.0599  0.0622  0.2417
  321SOL     OW  961   1.162   2.430   0.167 -0.0070  0.3690 -0.0518
  321SOL    HW1  962   1.214   2.353   0.216 -1.7269  0.0652  0.8375
  321SOL    HW2  963   1.231   2.483   0.115 -0.0894  0.7460 -0.3810
  322SOL     OW  964   2.651   0.953   2.086  0.2820  0.0535 -0.4376
  322SOL    HW1  965   2.578   1.020   2.047 -0.5278  1.2710 -1.2741
  322SOL    HW2  966   2.691   0.993   2.175  0.6467  3.0925  1.6642
  323SOL     OW  967   2.497   0.861   0.409 -0.1507 -0.1148 -0.5127
  323SOL    HW1  968   2.420   0.813   0.369  1.8231 -0.7735  0.4868
  323SOL    HW2  969   2.571   0.879   0.341 -0.2690  0.1692 -0.6144
  324SOL     OW  970   0.295   2.648   3.060 -0.2638 -0.2369  0.2379
  324SOL    HW1  971   0.266   2.637   2.961 -2.8904  0.6906  0.1674
  324SOL    HW2  972   0.314   2.566   0.041  0.9981  1.5069 -0.3542
  325SOL     OW  973   1.778   0.362   2.325 -0.4625  0.0812 -0.0397
  325SOL    HW1  974   1.809   0.434   2.260  1.2852 -0.3682  0.9743
  325SOL    HW2  975   1.813   0.272   2.293  2.5677  2.7963  2.8374
  326SOL     OW  976   2.100   2.659   1.487  0.1664 -0.2903  0.1810
  326SOL    HW1  977   2.202   2.658   1.473  1.0615  2.5511 -3.3628
  326SOL    HW2  978   2.052   2.672   1.399  0.0405 -1.7372 -1.2476
  327SOL     OW  979   1.784   0.655   2.959 -0.0389 -0.0253  0.1566
  327SOL    HW1  980   1.718   0.710   3.023  0.7514 -1.2116  1.2906
  327SOL    HW2  981   1.855   0.606   3.009 -0.4099 -0.8420  1.6122
  328SOL     OW  982   2.699   1.064   2.336 -0.3366 -0.0890 -0.1161
  328SOL    HW1  983   2.683   1.163   2.360  1.1072 -0.9880  2.8656
  328SOL    HW2  984   2.759   1.015   2.402 -1.6781 -2.5448 -1.3287
  329SOL     OW  985   1.696   0.037   1.730 -0.4888 -0.0053  0.0064
  329SOL    HW1  986   1.594   0.020   1.714 -0.5074  2.1863 -1.0369
  329SOL    HW2  987   1.715   0.052   1.828 -1.8719 -0.9887 -1.1873
  330SOL     OW  988   2.649   1.760   1.533 -0.7508  0.1896  0.5528
  330SOL    HW1  989   2.691   1.823   1.463  1.2775  0.2198  0.4648
  330SOL    HW2  990   2.666   1.661   1.519 -1.1838  2.3696  0.3895
  331SOL     OW  991   0.487   1.514   1.784 -0.0328  0.7035 -0.5091
  331SOL    HW1  992   0.398   1.473   1.782 -1.5317  1.7879  0.2195
  331SOL    HW2  993   0.553   1.436   1.785 -0.6904 -3.0730  0.2787
  332SOL     OW  994   0.600   0.178   1.287  0.5806  0.3381 -0.4153
  332SOL    HW1  995   0.535   0.226   1.225 -1.6664 -0.9160 -2.4660
  332SOL    HW2  996   0.686   0.229   1.289 -0.6249  0.1859  0.7176
  333SOL     OW  997   2.184   2.652   1.823  0.3113  0.0109  0.7882
  333SOL    HW1  998   2.246   2.715   1.775  0.1561  0.5380  1.2292
  333SOL    HW2  999   2.091   2.687   1.795 -3.2403  2.2033 -1.3858
  334SOL     OW 1000   0.748   1.512   1.022 -0.1962  0.0403  0.5116
  334SOL    HW1 1001   0.657   1.558   1.015 -3.4450  0.3380  1.3371
  334SOL    HW2 1002   0.805   1.547   0.946 -1.0818 -0.9335  2.8157
  335SOL     OW 1003   0.570   2.305   2.865 -0.4205  0.5896 -0.1149
  335SOL    HW1 1004   0.567   2.403   2.828  1.1632  1.1622  0.2444
  335SOL    HW2 1005   0.484   2.262   2.832 -0.2672  1.6507 -0.1695
  336SOL     OW 1006   0.057   0.086   1.824 -0.2240  0.1468 -0.3982
  336SOL    HW1 1007   0.060   0.049   1.731  0.1910 -2.9802  0.9584
  336SOL    HW2 1008   3.038   0.118   1.848  0.6952  1.9819  0.4141
  337SOL     OW 1009   2.676   2.020   0.352 -0.1069  0.8707  0.6715
  337SOL    HW1 1010   2.645   2.118   0.351 -1.0658  2.3283 -0.4901
  337SOL    HW2 1011   2.615   1.951   0.298  1.0390  1.0712 -0.9252
  338SOL     OW 1012   0.871   2.147   1.313 -0.8368  0.6747  0.2602
  338SOL    HW1 1013   0.928   2.233   1.318 -0.9011  2.5664 -1.1828
  338SOL    HW2 1014   0.870   2.111   1.216  1.1718 -0.5100 -2.2447
  339SOL     OW 1015   0.156   0.498   2.152  0.3124  1.0086 -0.3252
  339SOL    HW1 1016   0.123   0.525   2.064 -0.1269 -0.4776  3.3065
  339SOL    HW2 1017   0.181   0.402   2.162  0.4510  0.3252  1.6883
  340SOL     OW 1018   1.542   2.572   0.676  0.2091 -0.0669  0.5316
  340SOL    HW1 1019   1.475   2.651   0.681 -1.9652  0.2035 -0.5330
  340SOL    HW2 1020   1.514   2.496   0.735  1.9830  2.6509 -0.4878
  341SOL     OW 1021   1.543   1.304   0.970  0.3680  0.1762  0.3389
  341SOL    HW1 1022   1.496   1.311   0.880  1.4916  0.8565  3.0627
  341SOL    HW2 1023   1.629   1.245   0.965  1.1128  0.4191  0.0703
  342SOL     OW 1024   0.084   1.299   0.756 -0.5527 -0.4940 -0.0783
  342SOL    HW1 1025   0.062   1.353   0.669 -0.5092 -0.8071  1.7463
  342SOL    HW2 1026   0.124   1.209   0.734 -1.3157 -1.3998  1.5362
  343SOL     OW 1027   1.607   0.294   1.429  0.1307  0.0629  0.3943
  343SOL    HW1 1028   1.578   0.352   1.351 -1.3617 -2.1340  0.8074
  343SOL    HW2 1029   1.527   0.250   1.468  3.2515 -2.7336 -0.7395
  344SOL     OW 1030   1.833   2.476   1.210  0.0661 -0.5071  0.0362
  344SOL    HW1 1031   1.879   2.561   1.253  3.0268 -0.8671 -2.8987
  344SOL    HW2 1032   1.780   2.510   1.133  1.4381 -1.5514  1.5216
  345SOL     OW 1033   2.797   2.455   2.824  0.4504  0.1288 -0.1437
  345SOL    HW1 1034   2.790   2.489   2.730 -0.3978 -2.7903  2.3491
  345SOL    HW2 1035   2.847   2.364   2.829 -1.2540  1.8509 -1.3383
  346SOL     OW 1036   0.111   1.447   0.981  0.6097  0.8526  0.1759
  346SOL    HW1 1037   0.080   1.534   0.944  2.7401 -0.9566 -0.3803
  346SOL    HW2 1038   0.101   1.374   0.907 -0.4223 -1.1403  1.0461
  347SOL     OW 1039   1.792   2.672   0.724  0.1406  0.2926 -0.7384
  347SOL    HW1 1040   1.707   2.615   0.718  2.3123  0.4829 -0.5743
  347SOL    HW2 1041   1.795   2.743   0.799  1.3870  1.0757 -1.4249
  348SOL     OW 1042   1.277   1.452   2.319 -0.0254  0.7096  0.0646
  348SOL    HW1 1043   1.312   1.365   2.285  0.8548  2.6008  0.0604
  348SOL    HW2 1044   1.178   1.451   2.337 -1.6515 -1.9977  1.7610
  349SOL     OW 1045   2.268   1.211   2.271  0.0954  0.5147  0.6573
  349SOL    HW1 1046   2.181   1.196   2.218  0.9428  2.0907  0.3917
  349SOL    HW2 1047   2.259   1.171   2.365  0.5756 -0.2573 -0.4625
  350SOL     OW 1048   0.167   2.232   1.454 -0.2643  0.1511 -0.7343
  350SOL    HW1 1049   0.075   2.187   1.471 -2.2821  1.9522 -0.7272
  350SOL    HW2 1050   0.238   2.167   1.486  2.1464 -1.7670 -0.9357
  351SOL     OW 1051   0.588   0.196   2.556  0.6552  0.3011 -0.4231
  351SOL    HW1 1052   0.606   0.171   2.653 -0.4348 -1.1209 -1.0548
  351SOL    HW2 1053   0.677   0.205   2.510  0.2782 -2.3486 -0.2666
  352SOL     OW 1054   0.969   2.875   1.402 -0.4806  0.5163 -1.1665
  352SOL    HW1 1055   1.041   2.800   1.413  2.9382 -1.1464  0.8686
  352SOL    HW2 1056   0.883   2.853   1.456 -0.2594  0.1560 -3.2297
  353SOL     OW 1057   0.931   0.936   2.420  0.0659  0.3871 -0.3059
  353SOL    HW1 1058   0.937   0.836   2.451  0.1346  0.4924  1.2844
  353SOL    HW2 1059   0.864   0.986   2.474  2.1294  0.3019 -3.9462
  354SOL     OW 1060   1.597   1.120   0.331  0.5071 -0.1873  0.4143
  354SOL    HW1 1061   1.513   1.066   0.343  0.5209 -2.5104  0.0283
  354SOL    HW2 1062   1.627   1.134   0.238  0.1339  0.3043  1.6943
  355SOL     OW 1063   2.363   0.302   0.646 -0.5457 -0.1368 -0.7500
  355SOL    HW1 1064   2.404   0.398   0.655  1.9033  0.8369 -0.3249
  355SOL    HW2 1065   2.430   0.229   0.618  0.5227  2.2793  0.7726
  356SOL     OW 1066   2.815   0.950   2.565  0.4846  0.6701  0.5235
  356SOL    HW1 1067   2.858   1.040   2.579  1.5904  1.4690 -0.4252
  356SOL    HW2 1068   2.872   0.879   2.609  2.2513  0.7068  1.4058
  357SOL     OW 1069   0.650   2.941   1.849  0.2421 -0.7551 -0.1088
  357SOL    HW1 1070   0.699   3.035   1.853  0.2667  2.4879 -1.5468
  357SOL    HW2 1071   0.608   2.916   1.937  2.4549  0.5894  0.7003
  358SOL     OW 1072   2.902   1.186   2.633  0.0673  0.5153  0.1220
  358SOL    HW1 1073   2.848   1.266   2.614  1.3924 -1.2500 -0.0940
  358SOL    HW2 1074   2.997   1.195   2.608 -2.4984 -0.4023 -0.1493
  359SOL     OW 1075   2.582   2.656   2.740  1.1106 -0.4066 -0.1642
  359SOL    HW1 1076   2.511   2.719   2.704 -0.7863  1.8841 -0.2987
  359SOL    HW2 1077   2.633   2.602   2.670 -2.1590  2.7966  0.9994
  360SOL     OW 1078   1.791   1.179   0.929 -0.2504  0.7101  0.0438
  360SOL    HW1 1079   1.734   1.117   0.880  1.3781  0.7090  0.9026
  360SOL    HW2 1080   1.885   1.141   0.921  1.2867 -1.3831 -1.1461
  361SOL     OW 1081   1.746   2.844   0.960  0.4345  0.2186  0.3331
  361SOL    HW1 1082   1.679   2.916   0.989  1.3469  0.2058 -0.1258
  361SOL    HW2 1083   1.836   2.856   0.999 -0.9895  0.2557 -1.5099
  362SOL     OW 1084   1.439   1.287   0.716 -0.2508  0.0471 -0.1196
  362SOL    HW1 1085   1.372   1.242   0.651 -1.2243 -1.1064 -1.7009
  362SOL    HW2 1086   1.509   1.339   0.657  2.7649  1.6576 -1.8402
  363SOL     OW 1087   2.972   2.047   2.581 -0.1075 -0.0533 -0.3705
  363SOL    HW1 1088   2.885   2.052   2.526 -1.9534 -0.4126 -2.3319
  363SOL    HW2 1089   2.953   2.086   2.671 -2.6806  0.0526  0.0520
  364SOL     OW 1090   1.695   0.787   1.424  0.3299  0.5039 -0.3525
  364SOL    HW1 1091   1.610   0.750   1.468  0.2434 -2.6797  0.3580
  364SOL    HW2 1092   1.741   0.711   1.368  0.6536  0.4169 -1.9479
  365SOL     OW 1093   2.876   2.809   1.231 -0.2912 -0.2820 -0.1365
  365SOL    HW1 1094   2.834   2.903   1.230  0.2855  0.8383 -1.4085
  365SOL    HW2 1095   2.807   2.749   1.181  0.1282 -0.2705 -0.8488
  366SOL     OW 1096   3.032   1.215   0.273 -0.2737 -0.0771 -0.1061
  366SOL    HW1 1097   3.044   1.290   0.208  0.6005  1.0282  0.1526
  366SOL    HW2 1098   2.941   1.222   0.316 -0.8083 -0.7426  2.1170
  367SOL     OW 1099   2.857   2.170   2.824  0.1373  0.5324  0.3351
  367SOL    HW1 1100   2.756   2.163   2.818  0.6000 -2.3297  1.0800
  367SOL    HW2 1101   2.893   2.105   2.891 -1.8523  2.4992  0.8609
  368SOL     OW 1102   2.763   1.926   1.315  0.7523 -0.4250 -0.3081
  368SOL    HW1 1103   2.721   1.992   1.381  0.9605  0.2492 -2.5884
  368SOL    HW2 1104   2.692   1.909   1.240 -1.9741  0.2873  2.2929
  369SOL     OW 1105   0.734   0.364   0.424 -0.1266 -0.0880 -0.2388
  369SOL    HW1 1106   0.740   0.293   0.348 -2.9670 -1.8320  0.5642
  369SOL    HW2 1107   0.637   0.357   0.462 -1.2803  0.4034  1.5872
  370SOL     OW 1108   0.884   0.674   1.366 -0.6032 -0.1123 -0.3036
  370SOL    HW1 1109   0.863   0.578   1.391  0.7677  0.1748 -0.4928
  370SOL    HW2 1110   0.861   0.736   1.446  2.3844 -0.2873  0.1470
  371SOL     OW 1111   2.516   1.595   0.336  0.3275 -0.6154  0.2758
  371SOL    HW1 1112   2.494   1.545   0.253  0.0157 -1.7480  3.5280
  371SOL    HW2 1113   2.447   1.671   0.355 -0.6978 -0.2668 -1.4431
  372SOL     OW 1114   0.234   1.014   2.469 -0.5071  0.2105 -0.6116
  372SOL    HW1 1115   0.281   0.968   2.548  0.5963  2.1852  1.0646
  372SOL    HW2 1116   0.277   0.966   2.387  0.9040 -0.2580  0.3676
  373SOL     OW 1117   2.608   1.237   0.675  0.0176 -0.3919 -0.2549
  373SOL    HW1 1118   2.575   1.307   0.735  0.9366 -1.6559  0.9659
  373SOL    HW2 1119   2.698   1.197   0.713  1.7671  1.9097  1.1373
  374SOL     OW 1120   0.436   2.423   0.132  0.0646 -0.2110  0.3513
  374SOL    HW1 1121   0.491   2.348   0.161  1.1320  2.3766  0.7018
  374SOL    HW2 1122   0.475   2.505   0.183  0.2678 -0.2083  0.1163
  375SOL     OW 1123   0.842   0.533   3.061  0.2288 -0.1677 -0.2644
  375SOL    HW1 1124   0.857   0.609   2.993 -1.2522  3.0995  2.5425
  375SOL    HW2 1125   0.745   0.524   0.010  0.5414  0.9348  1.3010
  376SOL     OW 1126   0.127   2.950   2.001  0.0472  0.8001 -0.3629
  376SOL    HW1 1127   0.087   3.000   1.921  2.2273  0.0765  0.8572
  376SOL    HW2 1128   0.099   3.002   2.090 -0.9015  0.4834  3.8847
  377SOL     OW 1129   0.471   1.856   2.354  0.4372  0.1750 -0.0680
  377SOL    HW1 1130   0.437   1.813   2.440  3.5312  1.8444 -1.5412
  377SOL    HW2 1131   0.569   1.830   2.337 -0.1608 -0.8100  0.0643
  378SOL     OW 1132   1.401   0.916   0.355 -0.2841  0.0701 -0.0841
  378SOL    HW1 1133   1.356   0.828   0.333  1.5136 -1.4856 -1.2057
  378SOL    HW2 1134   1.459   0.900   0.441  1.3209  1.8504  2.7582
  379SOL     OW 1135   1.478   1.261   2.989  0.2061 -0.1662 -0.3544
  379SOL    HW1 1136   1.527   1.237   0.001  0.3765  1.5351 -1.7434
  379SOL    HW2 1137   1.523   1.336   2.938 -1.3821  2.5202  0.8247
  380SOL     OW 1138   2.450   2.143   2.273  0.2625 -0.1619 -0.2244
  380SOL    HW1 1139   2.527   2.208   2.289 -1.7645 -0.4160  0.5078
  380SOL    HW2 1140   2.442   2.115   2.177 -5.0662 -0.1720 -0.2328
  381SOL     OW 1141   0.419   0.794   1.681  0.3118  0.4296  0.8481
  381SOL    HW1 1142   0.381   0.826   1.592 -0.8883  1.2303 -4.3579
  381SOL    HW2 1143   0.352   0.745   1.739 -1.4176  2.6192  0.9185
  382SOL     OW 1144   2.508   2.388   2.811 -0.1462 -0.8275  0.2707
  382SOL    HW1 1145   2.501   2.435   2.721  0.2696  2.9213  1.7263
  382SOL    HW2 1146   2.564   2.452   2.865 -1.9260  0.6699 -0.1826
  383SOL     OW 1147   2.056   1.561   2.142  0.4681  0.2437 -0.0671
  383SOL    HW1 1148   2.146   1.584   2.095 -1.4992 -1.5420  0.2191
  383SOL    HW2 1149   1.997   1.508   2.077  2.4835 -0.0615  1.3626
  384SOL     OW 1150   0.716   2.266   2.317  0.6330  0.4151 -0.6483
  384SOL    HW1 1151   0.753   2.228   2.231 -0.7098 -0.9839 -0.9578
  384SOL    HW2 1152   0.617   2.242   2.327  1.0610 -1.2158 -2.0461
  385SOL     OW 1153   2.638   2.206   0.858  0.1930  0.1526  0.8084
  385SOL    HW1 1154   2.700   2.279   0.895  2.2527  2.1555  3.2344
  385SOL    HW2 1155   2.570   2.240   0.791 -2.7503  0.0351  0.3464
  386SOL     OW 1156   1.656   0.789   0.074  0.0339 -0.0870 -0.0962
  386SOL    HW1 1157   1.643   0.746   0.163 -0.3685 -0.7796  3.1518
  386SOL    HW2 1158   1.687   0.886   0.077  2.0241 -2.4119 -1.4105
  387SOL     OW 1159   0.415   0.998   1.449  0.0668  0.4682 -0.5385
  387SOL    HW1 1160   0.312   1.004   1.448  1.3555 -1.3329  0.7104
  387SOL    HW2 1161   0.459   1.082   1.420  1.3360 -2.2465  0.9580
  388SOL     OW 1162   2.956   0.769   1.484 -0.1678 -0.7826 -0.0304
  388SOL    HW1 1163   2.909   0.681   1.493  1.4290  0.1609  1.1425
  388SOL    HW2 1164   2.897   0.846   1.457  1.2873 -0.4151  0.0773
  389SOL     OW 1165   1.828   1.078   2.492 -0.1751  0.3848 -0.0044
  389SOL    HW1 1166   1.751   1.099   2.560 -0.7963  0.3739 -0.1683
  389SOL    HW2 1167   1.890   0.999   2.508 -0.1870  0.0583 -0.4598
  390SOL     OW 1168   2.133   2.153   0.500  0.0462  0.4260 -0.3231
  390SOL    HW1 1169   2.162   2.200   0.581 -0.9001 -0.2906 -2.3615
  390SOL    HW2 1170   2.092   2.062   0.521  1.7960  1.8253  0.6059
  391SOL     OW 1171   1.337   2.728   0.894 -0.3140 -0.4206 -0.6175
  391SOL    HW1 1172   1.261   2.728   0.828  0.7797 -2.2238 -0.6503
  391SOL    HW2 1173   1.326   2.654   0.960  2.0887 -0.2335 -3.2061
  392SOL     OW 1174   2.569   2.905   1.401  0.1436 -0.1392  0.1787
  392SOL    HW1 1175   2.593   2.803   1.397  0.1894 -3.2798 -0.9493
  392SOL    HW2 1176   2.478   2.908   1.359  0.1368 -2.1924  2.2576
  393SOL     OW 1177   1.747   2.296   2.669  0.2355 -0.3461  0.3897
  393SOL    HW1 1178   1.832   2.344   2.692 -2.1516 -1.2836 -0.7867
  393SOL    HW2 1179   1.762   2.197   2.661 -0.7736 -0.8252  1.1330
  394SOL     OW 1180   0.585   2.569   2.770 -0.1968 -0.1777 -0.1040
  394SOL    HW1 1181   0.583   2.609   2.864 -0.2721 -1.7123  1.8407
  394SOL    HW2 1182   0.661   2.600   2.712 -0.0014  1.2678  1.0771
  395SOL     OW 1183   0.445   1.148   1.102  0.1795  0.2086  0.4586
  395SOL    HW1 1184   0.369   1.092   1.146 -2.6748 -3.6458  0.1851
  395SOL    HW2 1185   0.415   1.232   1.050 -0.9421  4.1450 -0.5100
  396SOL     OW 1186   1.998   1.306   2.468  0.8845  0.7704 -0.2943
  396SOL    HW1 1187   2.056   1.316   2.552 -0.3261  0.2505  1.9557
  396SOL    HW2 1188   1.967   1.207   2.458  0.1304  1.6761  0.7641
  397SOL     OW 1189   2.808   0.503   2.587  0.0301  0.3190 -0.3616
  397SOL    HW1 1190   2.818   0.403   2.559  1.2646 -1.4346  0.8495
  397SOL    HW2 1191   2.829   0.504   2.688  0.0616  1.9219 -1.1503
  398SOL     OW 1192   1.518   0.495   0.456  0.1324  0.2828  0.3717
  398SOL    HW1 1193   1.514   0.393   0.469  1.9145  1.6497 -0.3435
  398SOL    HW2 1194   1.439   0.548   0.499 -1.2632 -2.0243  0.1733
  399SOL     OW 1195   2.009   2.827   1.692  0.6128  0.2607  0.4260
  399SOL    HW1 1196   1.913   2.834   1.660  2.1036  2.0826  0.1536
  399SOL    HW2 1197   2.065   2.766   1.633  2.2131  1.0796 -2.6956
  400SOL     OW 1198   0.002   2.370   1.856  0.5427  0.0218 -0.0133
  400SOL    HW1 1199   0.014   2.270   1.841  2.1670 -4.1878  0.4448
  400SOL    HW2 1200   0.042   2.426   1.778 -0.3467  2.6366 -2.2446
  401SOL     OW 1201   0.700   0.183   0.226  0.3206  0.2707 -0.1518
  401SOL    HW1 1202   0.672   0.083   0.237  2.9351  1.6531 -0.2517
  401SOL    HW2 1203   0.748   0.184   0.136  0.1204  0.8512 -1.2181
  402SOL     OW 1204   0.575   2.561   1.669  0.3139  0.3664 -0.0477
  402SOL    HW1 1205   0.664   2.530   1.633 -0.1372 -0.1524  2.8593
  402SOL    HW2 1206   0.493   2.538   1.611 -1.3142  0.1680 -1.3711
  403SOL     OW 1207   0.180   1.048   1.726 -0.5207 -0.0255 -0.0344
  403SOL    HW1 1208   0.102   0.987   1.742  1.0337  0.8593  1.3008
  403SOL    HW2 1209   0.174   1.096   1.637 -0.9031 -2.5366  0.0752
  404SOL     OW 1210   2.820   2.376   1.949 -0.1077 -0.7098 -0.0361
  404SOL    HW1 1211   2.918   2.398   1.940 -1.6581 -0.8071  1.5544
  404SOL    HW2 1212   2.777   2.372   1.860 -2.1694 -1.0086 -1.4343
  405SOL     OW 1213   2.559   0.211   2.368 -0.4002  0.2127 -0.7488
  405SOL    HW1 1214   2.499   0.140   2.405 -0.7316  1.1908  0.1059
  405SOL    HW2 1215   2.617   0.179   2.294  1.6145  1.1274  1.0412
  406SOL     OW 1216   1.819   2.576   0.344 -0.0350  0.0625 -0.3785
  406SOL    HW1 1217   1.917   2.537   0.340  3.0350 -2.7054 -2.6257
  406SOL    HW2 1218   1.756   2.499   0.371 -0.4798  1.6480 -0.7170
  407SOL     OW 1219   2.191   1.514   0.502  0.4010  0.4067 -1.0007
  407SOL    HW1 1220   2.279   1.468   0.498  0.6316 -2.0858 -1.4964
  407SOL    HW2 1221   2.183   1.589   0.435 -1.9546 -1.8166  5.3354
  408SOL     OW 1222   0.483   0.565   2.049 -0.1676  0.0736  0.1870
  408SOL    HW1 1223   0.508   0.485   2.109  0.8297 -3.5844  2.2148
  408SOL    HW2 1224   0.472   0.655   2.098 -0.0748 -0.7866 -1.3937
  409SOL     OW 1225   2.952   1.434   0.058 -0.7419 -0.1715 -0.0344
  409SOL    HW1 1226   2.903   1.409   3.049  0.4727 -1.7087  0.4107
  409SOL    HW2 1227   2.995   1.531   0.046  0.3773 -0.7258 -0.3185
  410SOL     OW 1228   1.978   1.715   1.350 -0.0128  0.7108 -0.2007
  410SOL    HW1 1229   2.073   1.681   1.356 -0.9564 -3.6118 -0.6943
  410SOL    HW2 1230   1.922   1.650   1.293 -1.5158 -1.4010  2.7603
  411SOL     OW 1231   2.985   0.563   0.554  0.1918 -0.2315  0.3277
  411SOL    HW1 1232   3.021   0.551   0.457  1.6398  2.1962  0.2120
  411SOL    HW2 1233   2.887   0.541   0.552  0.8078 -1.0190  0.1787
  412SOL     OW 1234   1.628   0.326   0.185 -0.4704  0.2004 -0.2291
  412SOL    HW1 1235   1.685   0.376   0.253 -2.1073  0.0034 -1.7711
  412SOL    HW2 1236   1.565   0.259   0.227  1.1104 -0.0227  0.5894
  413SOL     OW 1237   1.358   0.495   1.600  0.5229 -0.2042 -0.5319
  413SOL    HW1 1238   1.389   0.589   1.601 -0.3638 -0.9182  1.2278
  413SOL    HW2 1239   1.360   0.446   1.511  2.1118 -1.5647 -1.3136
  414SOL     OW 1240   0.373   1.064   0.234 -0.2731  0.1894 -0.1852
  414SOL    HW1 1241   0.341   0.971   0.203  1.1750 -2.4478 -0.1021
  414SOL    HW2 1242   0.352   1.123   0.153 -0.4278 -2.2439  0.1479
  415SOL     OW 1243   0.104   1.396   0.496  0.2498  0.1371  0.2819
  415SOL    HW1 1244   0.082   1.472   0.433  0.6046 -2.3056 -0.3406
  415SOL    HW2 1245   0.105   1.304   0.445  2.2181 -1.2471  0.6861
  416SOL     OW 1246   1.996   0.769   0.250 -0.1864  0.4891 -0.9808
  416SOL    HW1 1247   1.954   0.824   0.325  1.4959 -0.6423 -1.6949
  416SOL    HW2 1248   1.957   0.678   0.248  1.3014  1.1921  1.0349
  417SOL     OW 1249   3.003   0.167   0.313 -0.6145  0.2842  0.0337
  417SOL    HW1 1250   3.007   0.069   0.336 -1.5399  2.8863 -0.3502
  417SOL    HW2 1251   0.020   0.198   0.284 -1.0395 -1.7878  2.7254
  418SOL     OW 1252   2.628   0.759   0.006  1.1380  0.0515  0.4109
  418SOL    HW1 1253   2.699   0.731   3.011  0.1352  0.5228  3.9072
  418SOL    HW2 1254   2.568   0.681   0.034 -0.2113  0.6605  2.2800
  419SOL     OW 1255   0.598   0.432   0.083  0.0239 -0.1785 -0.5323
  419SOL    HW1 1256   0.538   0.407   0.001  0.7593 -1.4430 -0.5119
  419SOL    HW2 1257   0.623   0.348   0.134 -2.3253  0.2034 -3.7041
  420SOL     OW 1258   0.478   1.278   0.779 -0.1367  0.1810 -1.0952
  420SOL    HW1 1259   0.528   1.194   0.746 -1.4405  0.4021 -1.0408
  420SOL    HW2 1260   0.447   1.340   0.707 -0.0015  1.0062 -0.0256
  421SOL     OW 1261   0.431   1.981   0.143 -0.4184 -0.1267  0.0603
  421SOL    HW1 1262   0.403   1.886   0.173 -1.0281  1.8275  2.1360
  421SOL    HW2 1263   0.358   2.050   0.156  1.9431  1.6817  0.5864
  422SOL     OW 1264   2.506   0.269   1.523  0.5133  0.2514  0.0521
  422SOL    HW1 1265   2.403   0.257   1.522  1.6327  2.7695  1.3070
  422SOL    HW2 1266   2.550   0.204   1.460 -1.6837  1.3319 -0.0555
  423SOL     OW 1267   2.027   1.921   0.569  0.3547  0.2363  0.4814
  423SOL    HW1 1268   2.050   1.879   0.660 -1.2629  0.7051 -0.5014
  423SOL    HW2 1269   1.927   1.909   0.541  1.9284  0.4974 -1.4245
  424SOL     OW 1270   1.782   1.400   2.973  0.4407  0.0489 -0.7024
  424SOL    HW1 1271   1.770   1.406   0.003  0.3139  0.1944 -0.7194
  424SOL    HW2 1272   1.695   1.439   2.936 -1.4989 -0.2616  1.2091
  425SOL     OW 1273   0.249   2.883   2.393  0.1958 -0.5766  0.3471
  425SOL    HW1 1274   0.243   2.938   2.482 -0.9173 -0.0313  1.6129
  425SOL    HW2 1275   0.343   2.862   2.364 -1.0877 -0.7649 -1.9526
  426SOL     OW 1276   2.291   2.960   2.827  0.6278  0.6130 -0.2800
  426SOL    HW1 1277   2.364   3.017   2.781 -0.7122 -2.4854  0.3738
  426SOL    HW2 1278   2.236   2.914   2.754  0.5334 -0.9911  1.3666
  427SOL     OW 1279   0.578   1.078   2.011  0.3655  0.2098  0.0621
  427SOL    HW1 1280   0.676   1.052   2.001 -0.4120  0.1867 -1.1230
  427SOL    HW2 1281   0.575   1.178   2.012 -1.0277  0.8244 -0.8112
  428SOL     OW 1282   2.451   1.359   2.156  0.3165  0.3806 -0.0028
  428SOL    HW1 1283   2.382   1.295   2.204 -0.0975 -2.9140 -2.0137
  428SOL    HW2 1284   2.418   1.450   2.131  1.1271  1.2172  0.9424
  429SOL     OW 1285   2.576   0.119   0.544  0.1539 -0.2311  0.0165
  429SOL    HW1 1286   2.639   0.150   0.468  2.1410 -0.2252 -0.7434
  429SOL    HW2 1287   2.592   0.022   0.564  0.9449  4.2635 -0.9825
  430SOL     OW 1288   1.726   1.414   2.429 -0.1862 -0.0772 -0.5658
  430SOL    HW1 1289   1.823   1.393   2.449  3.5940 -0.1605  0.8018
  430SOL    HW2 1290   1.724   1.456   2.336  1.1789  2.1887 -1.8664
  431SOL     OW 1291   2.706   1.904   1.772 -0.1619 -0.3237  0.2038
  431SOL    HW1 1292   2.692   1.844   1.691 -0.3124  1.3740  0.2443
  431SOL    HW2 1293   2.770   1.984   1.749  1.1423  2.5308  1.0358
  432SOL     OW 1294   1.003   2.739   2.107  0.4988  0.0681  0.2383
  432SOL    HW1 1295   1.094   2.698   2.096  1.4704 -0.1432  0.3683
  432SOL    HW2 1296   0.937   2.715   2.027 -2.0323  0.5912  0.4715
  433SOL     OW 1297   1.488   2.952   0.990  0.0028  0.0348  0.2721
  433SOL    HW1 1298   1.478   3.007   0.904 -0.7271  1.2239  0.7784
  433SOL    HW2 1299   1.433   2.866   0.980  0.0173 -2.6783 -0.6625
  434SOL     OW 1300   0.410   2.292   2.086  0.0394 -0.0520 -0.7392
  434SOL    HW1 1301   0.493   2.255   2.032  3.2870 -1.4065 -2.8790
  434SOL    HW2 1302   0.394   2.251   2.172  1.8397  0.2748 -2.1804
  435SOL     OW 1303   0.371   1.407   0.565  0.0962  0.0825 -0.1448
  435SOL    HW1 1304   0.409   1.357   0.486  4.1925 -0.1395  0.9782
  435SOL    HW2 1305   0.269   1.409   0.560 -1.7852  1.6933  3.1422
  436SOL     OW 1306   0.021   1.448   1.771 -0.7365 -0.4490  0.4154
  436SOL    HW1 1307   3.062   1.514   1.842 -2.5505 -1.0948 -0.8257
  436SOL    HW2 1308   3.073   1.480   1.680 -0.2953 -1.7180  2.0425
  437SOL     OW 1309   1.256   0.462   0.277  0.4391  0.1333  0.0246
  437SOL    HW1 1310   1.207   0.405   0.347  0.5348 -0.1079  0.6322
  437SOL    HW2 1311   1.228   0.565   0.279 -2.4020  2.9970  0.2511
  438SOL     OW 1312   0.383   1.780   1.211 -0.3272 -0.4755 -0.2956
  438SOL    HW1 1313   0.303   1.836   1.239 -3.3845 -2.8776 -0.5868
  438SOL    HW2 1314   0.450   1.777   1.284 -0.9769 -0.7812  1.9841
  439SOL     OW 1315   1.667   1.736   2.749  0.6071  0.9467 -1.0398
  439SOL    HW1 1316   1.610   1.757   2.831 -1.3903  2.9965  0.5646
  439SOL    HW2 1317   1.764   1.750   2.770  1.2395 -1.5384  1.5946
  440SOL     OW 1318   1.548   0.470   1.233 -0.1504  0.1019  0.1739
  440SOL    HW1 1319   1.459   0.474   1.283 -1.2312 -0.3696 -0.7156
  440SOL    HW2 1320   1.537   0.472   1.129  0.3498  1.3876 -2.7845
  441SOL     OW 1321   0.772   2.825   1.598  0.0793  0.1720  0.0008
  441SOL    HW1 1322   0.767   2.723   1.592 -2.6685 -0.1989  1.7005
  441SOL    HW2 1323   0.723   2.860   1.684 -0.8850  2.1000  1.8345
  442SOL     OW 1324   2.214   2.221   0.747 -0.0831  0.0612 -0.5316
  442SOL    HW1 1325   2.308   2.251   0.720 -0.8211 -0.6537  0.2561
  442SOL    HW2 1326   2.163   2.284   0.810  0.0437 -1.8553  2.1938
  443SOL     OW 1327   2.824   0.582   2.281 -0.2161 -0.1568  0.4247
  443SOL    HW1 1328   2.724   0.594   2.267 -0.1130 -0.8847 -1.2738
  443SOL    HW2 1329   2.836   0.582   2.383 -0.9560 -1.2139  1.9819
  444SOL     OW 1330   1.603   1.092   2.303 -0.3822  0.5528 -0.0672
  444SOL    HW1 1331   1.665   1.095   2.378 -2.7020  3.2094 -2.3331
  444SOL    HW2 1332   1.651   1.079   2.215 -0.8958  1.6433  2.2648
  445SOL     OW 1333   2.652   2.084   1.485  0.5180 -0.4003 -0.0478
  445SOL    HW1 1334   2.704   2.134   1.553  2.7142  0.0958 -0.6287
  445SOL    HW2 1335   2.550   2.089   1.505  0.3480  1.0998 -2.1279
  446SOL     OW 1336   0.209   1.058   0.688  0.1601 -0.0681 -0.5704
  446SOL    HW1 1337   0.205   1.089   0.587 -0.3889  2.0369 -2.8557
  446SOL    HW2 1338   0.174   0.965   0.705 -1.3752 -4.0535 -2.0273
  447SOL     OW 1339   0.573   2.091   0.711  0.3558 -0.2041 -0.2082
  447SOL    HW1 1340   0.544   2.117   0.806  2.5253  0.4250 -2.4013
  447SOL    HW2 1341   0.521   2.011   0.672 -0.2205  1.8299 -0.4507
  448SOL     OW 1342   1.482   1.389   1.495  0.4094  0.0047  0.3169
  448SOL    HW1 1343   1.458   1.439   1.582 -1.5379 -2.7283 -0.9905
  448SOL    HW2 1344   1.408   1.335   1.450 -0.2312  0.8394 -2.3458
  449SOL     OW 1345   0.432   1.683   2.863  0.1528 -0.0276 -0.8495
  449SOL    HW1 1346   0.450   1.580   2.852  2.1609 -2.4006 -0.5896
  449SOL    HW2 1347   0.506   1.735   2.910 -1.1451 -2.0660  1.5112
  450SOL     OW 1348   2.499   2.245   2.008 -0.3765  0.3054 -0.3131
  450SOL    HW1 1349   2.399   2.260   2.022  0.5287 -0.3361 -0.5929
  450SOL    HW2 1350   2.540   2.332   1.991 -0.1261 -2.9957 -2.8855
  451SOL     OW 1351   2.266   0.419   1.770  0.6266  0.2121 -0.2643
  451SOL    HW1 1352   2.182   0.384   1.714 -1.1166 -0.9722 -0.6541
  451SOL    HW2 1353   2.318   0.485   1.713 -0.9835  1.1908  0.3209
  452SOL     OW 1354   0.858   2.577   1.290 -0.5510 -0.0807 -0.4135
  452SOL    HW1 1355   0.819   2.613   1.199 -0.0140 -2.2772 -2.1577
  452SOL    HW2 1356   0.931   2.509   1.280  0.5305  3.0805  1.5795
  453SOL     OW 1357   0.894   1.246   0.837  0.2183 -0.3168 -0.3314
  453SOL    HW1 1358   0.859   1.285   0.752  0.0042 -0.3828  0.1476
  453SOL    HW2 1359   0.818   1.226   0.901 -1.1265  0.1690  1.2382
  454SOL     OW 1360   2.836   1.062   0.848 -0.1694 -0.1866 -0.1219
  454SOL    HW1 1361   2.806   0.991   0.913 -0.8265 -2.0634 -0.3477
  454SOL    HW2 1362   2.858   1.152   0.888 -0.3779  1.8279  1.4534
  455SOL     OW 1363   0.381   0.113   0.378  0.5093 -0.2485 -0.5227
  455SOL    HW1 1364   0.332   0.165   0.300 -2.8768  2.1151  0.7649
  455SOL    HW2 1365   0.415   0.185   0.440  0.6816 -1.8089 -0.3059
  456SOL     OW 1366   2.266   2.490   0.493 -0.2784 -0.1047 -0.5708
  456SOL    HW1 1367   2.289   2.560   0.567 -0.8503  2.7403 -0.8873
  456SOL    HW2 1368   2.313   2.406   0.516 -1.5217  2.2413 -0.6648
  457SOL     OW 1369   1.200   2.832   0.183 -0.2029 -0.0641  0.0289
  457SOL    HW1 1370   1.300   2.851   0.187 -0.6812  0.5888 -1.5266
  457SOL    HW2 1371   1.168   2.845   0.089  1.0903 -0.5283 -0.1907
  458SOL     OW 1372   2.924   2.767   0.202  0.1658 -0.2098  0.1750
  458SOL    HW1 1373   2.851   2.804   0.142  0.9108  1.5564 -1.4835
  458SOL    HW2 1374   3.006   2.743   0.149 -1.7600 -0.2651  3.0962
  459SOL     OW 1375   2.431   0.489   1.983 -0.3042 -0.3710  0.2271
  459SOL    HW1 1376   2.391   0.451   2.068 -1.0995  0.3518 -0.6822
  459SOL    HW2 1377   2.371   0.459   1.910  1.1332  2.1471  2.6164
  460SOL     OW 1378   0.001   0.541   0.308  0.0401 -0.7577  0.1076
  460SOL    HW1 1379   3.063   0.635   0.272 -0.3338  0.7508 -1.9436
  460SOL    HW2 1380   3.054   0.471   0.234  1.8038 -2.5297 -0.3665
  461SOL     OW 1381   0.013   1.859   1.432 -0.3551 -0.3786 -0.1429
  461SOL    HW1 1382   3.025   1.797   1.379 -1.4289 -0.1205 -0.7897
  461SOL    HW2 1383   0.092   1.893   1.376 -0.6122 -4.5261 -2.8642
  462SOL     OW 1384   2.758   2.786   0.792 -0.2189 -0.2735  0.1893
  462SOL    HW1 1385   2.821   2.832   0.732 -1.2496 -1.9051  1.1303
  462SOL    HW2 1386   2.730   2.851   0.865  0.4878  0.0417 -0.4053
  463SOL     OW 1387   2.938   1.037   0.080 -0.1919  0.5016  0.2228
  463SOL    HW1 1388   2.891   1.078   3.073 -0.0027  2.1075 -1.4455
  463SOL    HW2 1389   2.974   1.103   0.148  0.3473  0.0501 -0.4795
  464SOL     OW 1390   0.561   2.404   1.305 -0.6556 -0.0049 -0.3816
  464SOL    HW1 1391   0.539   2.501   1.316 -1.7340 -2.7670 -3.3820
  464SOL    HW2 1392   0.614   2.372   1.385 -4.6530  1.0390  0.2774
  465SOL     OW 1393   0.845   0.501   1.130 -0.3276 -0.0738 -0.2381
  465SOL    HW1 1394   0.936   0.504   1.080  0.7871  0.2721 -1.7315
  465SOL    HW2 1395   0.768   0.503   1.062 -2.4178  1.0004  0.9575
  466SOL     OW 1396   1.392   2.576   2.239  0.0932  0.6596 -0.2172
  466SOL    HW1 1397   1.483   2.529   2.228  0.2537 -2.0938  0.6519
  466SOL    HW2 1398   1.404   2.681   2.249  0.7084  1.6860  3.3704
  467SOL     OW 1399   0.980   0.530   1.832  0.0019  0.4147  0.1618
  467SOL    HW1 1400   1.052   0.543   1.901  1.8445 -2.2506  2.7614
  467SOL    HW2 1401   0.888   0.526   1.878 -1.8261  1.2604  2.2410
  468SOL     OW 1402   0.337   0.935   2.224 -0.7274 -0.0250 -0.5698
  468SOL    HW1 1403   0.326   0.977   2.133  0.4613 -2.5317 -0.0699
  468SOL    HW2 1404   0.263   0.871   2.244 -0.1618  0.6083  2.9053
  469SOL     OW 1405   0.820   2.113   0.622 -0.2878  0.1189 -0.0011
  469SOL    HW1 1406   0.878   2.180   0.672 -1.3309 -1.6281  1.2676
  469SOL    HW2 1407   0.728   2.101   0.669 -0.8750 -2.4402  0.8161
  470SOL     OW 1408   2.406   1.857   2.109  0.2236 -0.7702  0.9497
  470SOL    HW1 1409   2.493   1.837   2.053  1.6761 -0.7953 -0.5197
  470SOL    HW2 1410   2.332   1.884   2.048 -0.4708  0.3828  1.5603
  471SOL     OW 1411   1.150   0.245   2.759 -0.0483 -0.2603  0.1698
  471SOL    HW1 1412   1.116   0.293   2.844  1.1582  1.4882  0.4619
  471SOL    HW2 1413   1.247   0.272   2.739  1.2366 -0.1152  1.0052
  472SOL     OW 1414   0.578   2.660   1.903  0.0060 -0.1817 -0.1077
  472SOL    HW1 1415   0.564   2.596   1.984 -1.7659 -2.9798  1.3738
  472SOL    HW2 1416   0.557   2.609   1.813  2.1458 -0.9091  0.1993
  473SOL     OW 1417   0.903   3.060   2.638  0.5732 -0.2568 -0.1565
  473SOL    HW1 1418   0.845   0.026   2.710  1.5269 -4.4237 -0.7548
  473SOL    HW2 1419   0.851   3.042   2.548  1.2290 -1.8285  1.0591
  474SOL     OW 1420   1.712   0.190   0.954 -0.3102  0.2836  0.1528
  474SOL    HW1 1421   1.701   0.293   0.938 -0.6720  2.0037 -1.1133
  474SOL    HW2 1422   1.800   0.154   0.998  0.7751 -0.1115 -0.8072
  475SOL     OW 1423   1.776   0.583   1.294  0.4867 -0.8657 -0.5941
  475SOL    HW1 1424   1.852   0.515   1.288 -2.1246 -1.0037 -0.6357
  475SOL    HW2 1425   1.689   0.531   1.265 -0.5568 -1.0072 -2.5796
  476SOL     OW 1426   0.317   0.892   0.887  0.1586 -0.3461 -0.1449
  476SOL    HW1 1427   0.307   0.916   0.984  1.3067 -0.2644 -0.7833
  476SOL    HW2 1428   0.315   0.974   0.828  0.5772 -0.3998 -0.1778
  477SOL     OW 1429   1.004   2.250   0.775 -0.1433 -0.6348  0.8210
  477SOL    HW1 1430   1.055   2.311   0.714 -0.5647 -0.2710 -1.2136
  477SOL    HW2 1431   0.987   2.291   0.870  1.5158 -0.5253  2.9301
  478SOL     OW 1432   0.037   2.674   2.098  0.5473 -0.1235  0.1538
  478SOL    HW1 1433   0.080   2.767   2.093 -1.1707  1.0515  2.5297
  478SOL    HW2 1434   0.102   2.599   2.075  0.0492 -2.0496  1.8804
  479SOL     OW 1435   2.523   0.646   1.051  0.2401  0.5510  0.4652
  479SOL    HW1 1436   2.542   0.694   0.966  0.9724 -0.2133  4.7990
  479SOL    HW2 1437   2.452   0.571   1.033 -1.4748  0.0910  2.8820
  480SOL     OW 1438   0.083   2.382   0.454 -0.2172 -0.0173 -0.2222
  480SOL    HW1 1439   0.073   2.370   0.354  0.4217 -1.4729  0.8680
  480SOL    HW2 1440   0.165   2.331   0.486 -0.1515 -1.9080 -2.8279
  481SOL     OW 1441   2.112   2.116   1.653  0.4429 -0.2519  0.1748
  481SOL    HW1 1442   2.079   2.069   1.739  0.8202 -1.6164  1.5352
  481SOL    HW2 1443   2.053   2.101   1.570  0.0723 -0.1446 -1.2226
  482SOL     OW 1444   1.327   2.516   2.755 -0.4600 -0.4302  0.3176
  482SOL    HW1 1445   1.413   2.551   2.805 -0.5275  0.5492 -0.4045
  482SOL    HW2 1446   1.347   2.424   2.725 -2.0259  1.1254  3.0265
  483SOL     OW 1447   0.773   1.896   1.741  0.2649 -0.2483 -0.5174
  483SOL    HW1 1448   0.788   1.860   1.833 -1.3321  0.4584  0.2066
  483SOL    HW2 1449   0.714   1.834   1.683 -1.8488 -2.1142 -2.0928
  484SOL     OW 1450   0.813   0.353   1.338 -0.3348  0.6022 -0.5065
  484SOL    HW1 1451   0.776   0.398   1.425 -0.3453 -0.8017  1.3920
  484SOL    HW2 1452   0.840   0.420   1.270 -0.6869 -2.4216  5.4085
  485SOL     OW 1453   2.399   1.006   0.174 -0.0101 -0.4014  0.0374
  485SOL    HW1 1454   2.497   0.995   0.197 -1.0188  0.4547 -1.3044
  485SOL    HW2 1455   2.370   0.940   0.103  0.0198  1.7669  4.2744
  486SOL     OW 1456   1.852   0.190   1.368 -0.0464 -0.1979 -0.0664
  486SOL    HW1 1457   1.889   0.154   1.458  1.9856  1.9607 -0.9941
  486SOL    HW2 1458   1.753   0.218   1.372  2.3447 -0.2837  0.1780
  487SOL     OW 1459   0.340   2.050   1.561 -0.4206 -0.0171 -0.0151
  487SOL    HW1 1460   0.407   2.120   1.598  1.7317 -1.7389 -0.9829
  487SOL    HW2 1461   0.395   1.973   1.519  1.5090  0.3236  2.0036
  488SOL     OW 1462   2.231   2.346   2.872  0.1025  0.1710  0.4105
  488SOL    HW1 1463   2.228   2.242   2.884 -0.4627 -0.4024 -0.6713
  488SOL    HW2 1464   2.324   2.382   2.853  0.6779  1.1968 -1.4129
  489SOL     OW 1465   1.807   3.060   0.600  0.7532 -0.1979  0.2216
  489SOL    HW1 1466   1.827   2.963   0.576 -2.9927  0.5884  2.8753
  489SOL    HW2 1467   1.848   0.047   0.530  0.1155 -0.4391  1.1961
  490SOL     OW 1468   1.048   2.298   2.849  0.0445 -0.1643 -0.3215
  490SOL    HW1 1469   1.078   2.243   2.925 -0.3963  1.7137  0.2374
  490SOL    HW2 1470   1.071   2.398   2.861 -0.8983  2.0593 -1.2933
  491SOL     OW 1471   0.517   1.874   1.445  0.3425  0.0761 -0.3695
  491SOL    HW1 1472   0.522   1.778   1.484  1.4433 -0.4197 -0.7354
  491SOL    HW2 1473   0.606   1.907   1.409 -0.5606 -1.9266 -0.6610
  492SOL     OW 1474   1.159   1.309   1.906  0.0347  0.6798 -0.3137
  492SOL    HW1 1475   1.126   1.213   1.895  2.4328 -2.5887  2.6819
  492SOL    HW2 1476   1.157   1.357   1.817  1.5137  0.2362 -0.4848
  493SOL     OW 1477   2.532   1.962   0.879  0.0740  0.5053  1.2518
  493SOL    HW1 1478   2.522   1.918   0.968 -0.9128 -1.6009  0.3648
  493SOL    HW2 1479   2.576   2.053   0.882  0.7767  0.0277 -0.5573
  494SOL     OW 1480   0.008   1.795   1.080  0.2086  0.4720  0.3072
  494SOL    HW1 1481   3.016   1.867   1.055 -1.4884  0.6314  0.0117
  494SOL    HW2 1482   3.030   1.733   1.143  0.2840  2.1200  2.0145
  495SOL     OW 1483   2.298   2.649   0.713 -0.5118  0.7694  0.1265
  495SOL    HW1 1484   2.389   2.619   0.746 -2.4866  1.2452  0.7941
  495SOL    HW2 1485   2.231   2.629   0.784 -0.2336  1.0356  1.0069
  496SOL     OW 1486   2.350   0.146   1.264 -0.1693 -0.0151  0.1237
  496SOL    HW1 1487   2.448   0.134   1.272 -1.4251  0.3032 -1.8267
  496SOL    HW2 1488   2.310   0.184   1.349 -1.2564  0.1304 -2.7372
  497SOL     OW 1489   2.348   1.142   2.955 -0.0804  0.1232  0.1756
  497SOL    HW1 1490   2.447   1.147   2.924  3.3767  0.0548  2.0691
  497SOL    HW2 1491   2.331   1.042   2.981  2.7173  0.2454  2.1592
  498SOL     OW 1492   3.009   2.141   1.475  0.0891  0.0543 -0.0274
  498SOL    HW1 1493   3.027   2.043   1.459  1.4636 -0.3069  1.3856
  498SOL    HW2 1494   2.947   2.160   1.554 -1.9316  0.4923  0.4570
  499SOL     OW 1495   0.989   2.195   2.202 -0.0508 -0.1479  0.2400
  499SOL    HW1 1496   0.935   2.279   2.207  1.5901  2.7071 -2.8173
  499SOL    HW2 1497   1.028   2.174   2.295  0.3112 -1.4673  0.1884
  500SOL     OW 1498   1.082   1.824   0.605  0.6084  0.0584 -0.4187
  500SOL    HW1 1499   0.982   1.839   0.606  0.0082 -0.7514  0.9968
  500SOL    HW2 1500   1.104   1.725   0.593  2.2967 -2.8158  0.2709
  501SOL     OW 1501   1.752   2.848   1.605  0.3369 -0.4103 -0.0455
  501SOL    HW1 1502   1.743   2.857   1.504 -0.2856  1.1972 -3.6628
  501SOL    HW2 1503   1.693   2.909   1.656  1.3731  0.0491 -2.9089
  502SOL     OW 1504   2.686   0.429   1.712  0.3931 -0.2037  0.0633
  502SOL    HW1 1505   2.717   0.407   1.807  1.5460  1.9846 -0.4940
  502SOL    HW2 1506   2.651   0.347   1.667 -0.4418  1.1839 -1.3936
  503SOL     OW 1507   2.664   1.338   2.305 -0.1247  0.2161  0.0430
  503SOL    HW1 1508   2.734   1.406   2.274  0.0213  0.3717  1.1464
  503SOL    HW2 1509   2.582   1.333   2.240  0.2233 -2.0860 -1.2778
  504SOL     OW 1510   1.708   1.111   1.535  0.6259  0.0506  0.1782
  504SOL    HW1 1511   1.723   1.030   1.590  0.6448  0.8757 -0.9347
  504SOL    HW2 1512   1.731   1.110   1.434  1.4260 -0.2278 -1.3827
  505SOL     OW 1513   0.558   0.050   1.522 -0.6102 -0.0853  0.1853
  505SOL    HW1 1514   0.537   0.104   1.606 -0.9787  2.3017  0.6260
  505SOL    HW2 1515   0.593   0.111   1.447  2.3819 -0.1412 -0.0122
  506SOL     OW 1516   0.168   0.208   0.180 -0.2809 -0.0375  0.0447
  506SOL    HW1 1517   0.189   0.307   0.169  0.6466 -2.0269  3.8571
  506SOL    HW2 1518   0.173   0.154   0.094  2.9210  1.1590  3.9923
  507SOL     OW 1519   3.005   2.714   2.993  0.0822 -0.0598 -0.6453
  507SOL    HW1 1520   2.910   2.738   2.955 -0.5921  0.3271 -0.9167
  507SOL    HW2 1521   3.012   2.612   3.001 -2.1244 -0.0903  1.4138
  508SOL     OW 1522   1.229   0.507   1.968 -0.2317 -0.3190 -0.6674
  508SOL    HW1 1523   1.282   0.427   1.935 -0.8846 -0.5510 -2.6076
  508SOL    HW2 1524   1.244   0.521   2.067 -1.6617 -0.5282 -1.5811
  509SOL     OW 1525   1.663   1.911   1.124 -0.3570  0.5697 -0.2761
  509SOL    HW1 1526   1.706   1.917   1.220  1.9062  0.2796  0.6552
  509SOL    HW2 1527   1.562   1.910   1.121 -0.5955  2.1947 -1.0119
  510SOL     OW 1528   2.594   0.851   1.483  0.3511  0.0375  0.2389
  510SOL    HW1 1529   2.649   0.799   1.554  2.9780  0.2020 -0.4728
  510SOL    HW2 1530   2.549   0.933   1.517 -0.3425 -2.5340  2.1227
  511SOL     OW 1531   1.115   1.791   1.132 -0.3039 -0.1066  0.2093
  511SOL    HW1 1532   1.038   1.853   1.145 -0.1435 -3.0618  2.0926
  511SOL    HW2 1533   1.151   1.765   1.226 -0.5615  0.2821 -0.3930
  512SOL     OW 1534   3.060   1.587   0.337 -0.7074  0.6062 -0.0209
  512SOL    HW1 1535   2.974   1.560   0.386 -0.9372 -0.4133 -2.7826
  512SOL    HW2 1536   3.042   1.651   0.262 -2.1069 -2.7192 -3.0434
  513SOL     OW 1537   0.265   1.209   0.039 -0.1363  0.5381  0.6509
  513SOL    HW1 1538   0.230   1.286   0.092 -1.3690  0.9469  0.4953
  513SOL    HW2 1539   0.192   1.173   3.051  0.4266 -0.5768 -1.5733
  514SOL     OW 1540   2.060   1.998   2.180 -0.1444  0.7799 -0.1931
  514SOL    HW1 1541   2.107   2.035   2.265  1.4167  0.9281 -1.6321
  514SOL    HW2 1542   2.000   1.919   2.208 -0.8067  0.7927 -0.9509
  515SOL     OW 1543   2.491   0.974   0.649  0.5459  0.1033  0.0117
  515SOL    HW1 1544   2.465   0.953   0.554 -1.5465 -1.4538 -0.7735
  515SOL    HW2 1545   2.562   1.051   0.655  3.7726  0.8436  0.9623
  516SOL     OW 1546   2.324   2.763   0.137 -0.6384 -0.3012 -0.4012
  516SOL    HW1 1547   2.326   2.726   0.042 -1.7803  1.4139 -4.0628
  516SOL    HW2 1548   2.363   2.692   0.202 -0.1968 -1.9259 -0.8637
  517SOL     OW 1549   1.060   1.638   2.595  0.3324  0.3478  0.2848
  517SOL    HW1 1550   1.044   1.637   2.491  1.3138 -0.8845  0.6768
  517SOL    HW2 1551   0.996   1.706   2.636  2.4538  1.8102 -0.1363
  518SOL     OW 1552   0.182   0.198   2.058 -0.0780 -0.1881  0.6902
  518SOL    HW1 1553   0.275   0.156   2.038  3.0425  1.1181 -1.1322
  518SOL    HW2 1554   0.128   0.176   1.975  0.5014 -0.7709 -1.9750
  519SOL     OW 1555   1.083   0.999   0.107  0.2555 -0.3699 -0.2371
  519SOL    HW1 1556   0.990   0.953   0.090 -1.7397 -1.7310 -0.0817
  519SOL    HW2 1557   1.125   1.031   0.021  1.3507 -0.4763 -0.6361
  520SOL     OW 1558   2.629   2.476   2.112  0.6719 -0.3279  0.3946
  520SOL    HW1 1559   2.577   2.553   2.076 -0.1481 -0.0120  1.1506
  520SOL    HW2 1560   2.709   2.467   2.050 -0.5415  1.3857  1.1598
  521SOL     OW 1561   0.304   1.890   2.140 -0.0080  0.3920 -0.3908
  521SOL    HW1 1562   0.354   1.867   2.228 -0.4850  0.1793  0.7062
  521SOL    HW2 1563   0.372   1.924   2.074  0.4054 -1.2609  2.2164
  522SOL     OW 1564   1.399   2.922   1.857  0.3175  0.4018 -0.5201
  522SOL    HW1 1565   1.327   2.849   1.857  1.3840  0.3498 -4.3565
  522SOL    HW2 1566   1.421   2.943   1.760  1.6055 -0.5221 -0.6572
  523SOL     OW 1567   1.796   2.278   1.394  0.1649 -0.2173  0.4354
  523SOL    HW1 1568   1.810   2.344   1.322  0.2277 -2.7965  1.9702
  523SOL    HW2 1569   1.873   2.210   1.390 -0.8403  0.6020  0.7831
  524SOL     OW 1570   0.798   2.486   0.464  0.0986 -0.5689  0.4179
  524SOL    HW1 1571   0.786   2.508   0.561 -1.4188  0.8832 -1.2471
  524SOL    HW2 1572   0.894   2.462   0.435  0.2062  0.8537 -1.1519
  525SOL     OW 1573   2.716   0.514   0.514  0.2786 -0.6027  0.1216
  525SOL    HW1 1574   2.628   0.545   0.552  0.4410 -0.6487  0.3892
  525SOL    HW2 1575   2.711   0.422   0.467 -1.1493  1.2223  1.3478
  526SOL     OW 1576   0.881   0.060   0.631  0.6907 -0.4807  0.1996
  526SOL    HW1 1577   0.867   0.042   0.734  0.7700 -1.2001  2.0200
  526SOL    HW2 1578   0.972   0.025   0.599 -3.9408  3.5274 -1.5126
  527SOL     OW 1579   1.850   1.478   0.898 -0.3117 -0.3418 -0.4010
  527SOL    HW1 1580   1.810   1.383   0.899 -0.9916 -0.9693  1.1299
  527SOL    HW2 1581   1.930   1.487   0.832 -3.6416  0.9252 -0.4277
  528SOL     OW 1582   2.668   2.334   2.328 -0.1614 -1.3235  0.2862
  528SOL    HW1 1583   2.662   2.389   2.239  1.1436  1.0607  0.1957
  528SOL    HW2 1584   2.772   2.329   2.350  3.9252 -0.0973  1.4176
  529SOL     OW 1585   1.031   1.530   2.340 -0.2937 -0.5403  0.3988
  529SOL    HW1 1586   0.978   1.444   2.344  0.6992  1.2354 -0.4614
  529SOL    HW2 1587   0.991   1.597   2.276 -1.0014 -0.2003  0.7432
  530SOL     OW 1588   1.515   0.809   2.891  0.3868  0.0429 -0.2557
  530SOL    HW1 1589   1.604   0.787   2.845  3.9432  0.8448 -1.9654
  530SOL    HW2 1590   1.529   0.809   2.993 -2.0112 -0.9165 -0.7486
  531SOL     OW 1591   0.332   0.763   0.456 -0.5726 -0.1852  0.1160
  531SOL    HW1 1592   0.387   0.846   0.488  1.6689  2.2891 -1.5093
  531SOL    HW2 1593   0.350   0.765   0.352  1.5264 -1.9145 -0.6811
  532SOL     OW 1594   1.627   1.066   0.761 -0.1069  0.3505 -0.2926
  532SOL    HW1 1595   1.593   1.007   0.690 -1.1068  3.4364 -0.0371
  532SOL    HW2 1596   1.552   1.127   0.790 -2.1936 -0.9869 -0.9171
  533SOL     OW 1597   0.535   0.393   2.248 -0.1555  0.3884  0.0234
  533SOL    HW1 1598   0.537   0.297   2.216 -2.2516  0.0370  1.3632
  533SOL    HW2 1599   0.582   0.404   2.337 -0.6957  1.4635  0.0222
  534SOL     OW 1600   0.735   0.106   2.822 -0.0476 -0.3787 -0.2758
  534SOL    HW1 1601   0.761   0.121   2.921 -0.3721  1.4999 -1.9536
  534SOL    HW2 1602   0.642   0.062   2.818 -1.8079 -0.9762 -1.1116
  535SOL     OW 1603   0.428   0.406   2.963  0.0766  0.1876 -0.6216
  535SOL    HW1 1604   0.375   0.436   3.043 -1.0834  0.5886  1.9213
  535SOL    HW2 1605   0.390   0.320   2.920 -1.3212 -0.6347  4.0459
  536SOL     OW 1606   0.565   0.805   2.180 -1.1038  0.6628  0.4049
  536SOL    HW1 1607   0.478   0.844   2.202  2.1290 -1.6061  2.8311
  536SOL    HW2 1608   0.612   0.870   2.116 -0.2107  0.7091 -1.7542
  537SOL     OW 1609   1.277   0.191   1.208 -0.2081 -0.1178  0.1604
  537SOL    HW1 1610   1.281   0.087   1.196  2.3760  0.4115  3.4425
  537SOL    HW2 1611   1.277   0.246   1.122 -0.5682  0.2169 -2.1152
  538SOL     OW 1612   0.869   1.856   0.021  0.2471 -0.2438 -0.2105
  538SOL    HW1 1613   0.915   1.941   0.049 -0.9143  3.1007 -0.4660
  538SOL    HW2 1614   0.930   1.800   3.035  1.4522 -1.3259 -0.7751
  539SOL     OW 1615   2.530   1.323   1.760 -0.1991  0.4770 -0.3363
  539SOL    HW1 1616   2.624   1.354   1.780  2.3545  0.3745  0.6842
  539SOL    HW2 1617   2.470   1.392   1.716  0.6765 -1.9408  0.1951
  540SOL     OW 1618   1.646   1.642   1.631  0.3571  0.2737 -0.0903
  540SOL    HW1 1619   1.638   1.687   1.544  0.8058  2.9276  3.6668
  540SOL    HW2 1620   1.673   1.708   1.706  1.1768  2.3019  1.5341
  541SOL     OW 1621   0.691   1.342   1.658  0.2718  0.3387  0.0565
  541SOL    HW1 1622   0.658   1.248   1.674  0.9759 -1.3399  1.5270
  541SOL    HW2 1623   0.711   1.360   1.560  1.7764 -1.2466 -0.3803
  542SOL     OW 1624   1.848   0.683   2.299 -0.2839  0.0536  0.2328
  542SOL    HW1 1625   1.888   0.776   2.281  3.4153  1.0359  0.8016
  542SOL    HW2 1626   1.834   0.627   2.212 -1.1589  0.2135  1.2863
  543SOL     OW 1627   1.017   0.632   0.481  0.2459 -0.8072  0.0662
  543SOL    HW1 1628   0.987   0.731   0.472  1.4060  1.8472 -0.4024
  543SOL    HW2 1629   0.962   0.573   0.414  1.8714 -0.9071 -0.3304
  544SOL     OW 1630   2.436   1.841   2.373  0.0715 -0.5126  0.3338
  544SOL    HW1 1631   2.429   1.857   2.272 -2.4175 -1.2942  0.2154
  544SOL    HW2 1632   2.526   1.869   2.410  2.7770  0.6777  3.0098
  545SOL     OW 1633   1.686   2.152   1.599  0.2088  1.0091 -0.7241
  545SOL    HW1 1634   1.755   2.205   1.548 -0.7048 -2.4167 -0.8324
  545SOL    HW2 1635   1.688   2.172   1.698  1.2348 -0.7652 -1.2738
  546SOL     OW 1636   0.323   0.153   2.870 -0.4469  0.7227  0.3542
  546SOL    HW1 1637   0.319   0.196   2.774  3.0190 -5.3720 -1.7507
  546SOL    HW2 1638   0.391   0.079   2.874 -1.2407 -0.0971 -2.2202
  547SOL     OW 1639   2.315   0.870   3.024  0.1871 -0.1585  0.2956
  547SOL    HW1 1640   2.216   0.854   3.028  3.0933 -2.0880 -2.6036
  547SOL    HW2 1641   2.365   0.785   3.008 -0.2717  1.2990  0.5242
  548SOL     OW 1642   1.905   1.787   2.219  0.0462  0.4111 -0.0578
  548SOL    HW1 1643   1.964   1.703   2.197  3.4097 -3.6774 -0.6847
  548SOL    HW2 1644   1.857   1.777   2.309 -0.4379 -0.1897 -1.4255
  549SOL     OW 1645   2.079   0.330   0.672 -0.3687 -0.1767  0.2488
  549SOL    HW1 1646   2.026   0.249   0.701 -1.9716 -0.7688 -1.0612
  549SOL    HW2 1647   2.169   0.301   0.642  0.0090  0.5701  0.3530
  550SOL     OW 1648   2.360   1.767   0.677  0.2743 -0.3817 -0.2012
  550SOL    HW1 1649   2.355   1.785   0.577  1.7633 -0.2129  2.7280
  550SOL    HW2 1650   2.344   1.854   0.736  0.9868  1.2142  0.9080
  551SOL     OW 1651   1.383   0.322   1.848  0.5605 -0.2163 -0.3173
  551SOL    HW1 1652   1.342   0.227   1.868 -1.3380 -2.3285 -1.1100
  551SOL    HW2 1653   1.369   0.345   1.751  1.6876  0.7112 -1.6374
  552SOL     OW 1654   0.119   2.304   2.297 -0.2117  0.1937  0.2499
  552SOL    HW1 1655   0.134   2.382   2.234  1.6086  0.1313 -0.3178
  552SOL    HW2 1656   0.192   2.303   2.365  0.0208 -0.7838  0.1902
  553SOL     OW 1657   0.849   2.728   0.373  0.2427  0.2154  0.6444
  553SOL    HW1 1658   0.779   2.801   0.382  0.6328 -0.7609 -0.0553
  553SOL    HW2 1659   0.812   2.637   0.388  0.1047 -0.7971 -2.3319
  554SOL     OW 1660   1.891   2.322   1.883 -0.1759 -0.2296  0.2763
  554SOL    HW1 1661   1.930   2.380   1.807  0.9291  0.9897 -1.4821
  554SOL    HW2 1662   1.834   2.378   1.946  1.3328 -0.1620 -0.4622
  555SOL     OW 1663   1.251   2.114   2.085  0.2449 -0.1304  0.5015
  555SOL    HW1 1664   1.243   2.189   2.017  0.6779  1.1603 -1.1383
  555SOL    HW2 1665   1.173   2.120   2.147 -0.3813 -1.8633  0.3202
  556SOL     OW 1666   1.477   1.579   0.978 -0.3698 -0.7357 -0.0366
  556SOL    HW1 1667   1.536   1.497   0.962 -1.9093 -0.7665  0.6626
  556SOL    HW2 1668   1.392   1.584   0.922 -0.7016 -0.4284 -0.2673
  557SOL     OW 1669   1.623   2.126   1.859 -0.1407  0.5047 -0.2015
  557SOL    HW1 1670   1.534   2.075   1.858 -2.3409 -1.4516  1.8285
  557SOL    HW2 1671   1.675   2.079   1.936 -2.4215 -3.9776 -2.3939
  558SOL     OW 1672   0.478   0.175   1.751  0.2991 -0.4863  0.6751
  558SOL    HW1 1673   0.447   0.144   1.839  0.2407  0.9091 -2.1194
  558SOL    HW2 1674   0.549   0.246   1.766 -2.5376  0.5561  0.8698
  559SOL     OW 1675   2.355   2.910   1.229  0.2043 -0.6666  0.6009
  559SOL    HW1 1676   2.389   2.918   1.130  2.4102  1.0910 -0.6555
  559SOL    HW2 1677   2.257   2.932   1.226  1.0972  0.6678 -1.3543
  560SOL     OW 1678   0.957   2.174   0.386 -0.5477 -0.0874 -0.6019
  560SOL    HW1 1679   1.038   2.128   0.425  0.2561 -0.7232 -1.7795
  560SOL    HW2 1680   0.873   2.184   0.442  0.6470  3.1883  0.4690
  561SOL     OW 1681   0.855   0.551   0.276 -0.9911  0.2181 -0.9606
  561SOL    HW1 1682   0.793   0.499   0.333  2.0394  0.4710  2.9822
  561SOL    HW2 1683   0.856   0.518   0.179  0.0882  0.5848 -0.4024
  562SOL     OW 1684   0.740   0.451   2.446 -0.1878 -0.2956 -0.1302
  562SOL    HW1 1685   0.754   0.413   2.540 -0.9150  1.4374  0.3234
  562SOL    HW2 1686   0.727   0.550   2.457 -0.7547 -1.4107 -1.4397
  563SOL     OW 1687   1.593   2.283   2.870  0.1881  0.1737 -0.5531
  563SOL    HW1 1688   1.637   2.303   2.779 -0.7006  0.0423 -0.1355
  563SOL    HW2 1689   1.647   2.326   2.944 -3.2627 -1.4485  0.7870
  564SOL     OW 1690   2.800   0.939   0.533 -0.2597  0.6412 -0.1908
  564SOL    HW1 1691   2.705   0.916   0.546  4.4211 -2.3528 -3.5056
  564SOL    HW2 1692   2.847   0.906   0.619 -0.2684  0.0096 -2.3751
  565SOL     OW 1693   1.425   0.307   2.674 -0.3868 -0.4587  0.5952
  565SOL    HW1 1694   1.509   0.359   2.641  0.4968 -1.5999 -0.6278
  565SOL    HW2 1695   1.453   0.230   2.735 -0.1275 -0.0092 -0.6661
  566SOL     OW 1696   1.862   0.142   2.211  0.5832  0.2844 -0.1151
  566SOL    HW1 1697   1.836   0.091   2.299 -0.6761 -2.5435 -0.5872
  566SOL    HW2 1698   1.800   0.108   2.133 -1.4611 -2.4154  0.9563
  567SOL     OW 1699   2.524   1.466   0.804 -0.4024  0.5849  1.2852
  567SOL    HW1 1700   2.422   1.454   0.792 -0.3822 -0.9507  0.5343
  567SOL    HW2 1701   2.545   1.480   0.905 -2.4489 -0.2073 -2.5412
  568SOL     OW 1702   1.804   1.873   0.406 -0.3545  0.5726 -0.5737
  568SOL    HW1 1703   1.829   1.946   0.341  1.2499  1.5901 -2.7466
  568SOL    HW2 1704   1.702   1.865   0.424  1.9977  0.7058 -1.6494
  569SOL     OW 1705   2.218   1.611   2.983  0.0674 -0.2989 -0.1441
  569SOL    HW1 1706   2.259   1.657   2.898  2.5292  0.8947  1.4763
  569SOL    HW2 1707   2.146   1.546   2.954  1.4469 -0.5937  3.1292
  570SOL     OW 1708   2.938   2.788   1.628 -0.1130 -0.0964  0.4851
  570SOL    HW1 1709   2.862   2.855   1.627 -1.4958 -2.7270  0.1248
  570SOL    HW2 1710   3.019   2.831   1.575  0.5086  1.0116 -2.3000
  571SOL     OW 1711   0.099   0.244   2.314  0.6551 -0.2753  0.0779
  571SOL    HW1 1712   0.127   0.233   2.216  2.0269  0.0614 -1.5717
  571SOL    HW2 1713   0.175   0.288   2.366  0.5751 -0.7556  1.4189
  572SOL     OW 1714   0.636   1.494   0.601 -0.8165  0.2946  0.5242
  572SOL    HW1 1715   0.537   1.481   0.591  1.5865  1.7384  1.0433
  572SOL    HW2 1716   0.663   1.570   0.663  0.2806  0.3224 -1.6024
  573SOL     OW 1717   0.822   0.124   0.008  0.5457 -0.2071  0.1334
  573SOL    HW1 1718   0.856   0.034   0.045  0.5015 -2.6194  2.4549
  573SOL    HW2 1719   0.905   0.174   3.041  1.4643  2.8672 -1.4009
  574SOL     OW 1720   0.850   0.197   0.963 -0.1284  0.5314  0.0943
  574SOL    HW1 1721   0.828   0.287   0.919  0.3645 -0.8783  2.3641
  574SOL    HW2 1722   0.899   0.207   1.051  0.2398 -2.7427  1.9241
  575SOL     OW 1723   2.912   1.257   1.536 -0.2725 -0.2009  0.6154
  575SOL    HW1 1724   2.940   1.217   1.624 -0.0283 -0.8600 -1.0493
  575SOL    HW2 1725   2.953   1.350   1.512 -0.8378  2.9404  0.2217
  576SOL     OW 1726   2.045   0.355   1.639  0.7299 -0.1736 -0.3492
  576SOL    HW1 1727   1.971   0.288   1.654 -0.7710 -0.4983 -2.3746
  576SOL    HW2 1728   2.018   0.432   1.580  1.0564 -2.4898 -0.6647
  577SOL     OW 1729   0.038   1.098   2.006  0.2541 -0.5631  0.5213
  577SOL    HW1 1730   3.070   1.005   2.032 -0.2307  0.5064  0.1797
  577SOL    HW2 1731   0.139   1.086   2.001 -1.1869  1.7424  0.6921
  578SOL     OW 1732   1.697   2.879   2.407 -0.5519 -0.5422  0.7601
  578SOL    HW1 1733   1.749   2.968   2.429  0.7603 -2.0797  0.0532
  578SOL    HW2 1734   1.697   2.812   2.483  1.4208  0.8496  1.2758
  579SOL     OW 1735   2.030   2.090   1.933 -0.3394 -0.4145  0.2783
  579SOL    HW1 1736   2.038   2.060   2.030  0.8476  0.7726 -1.9233
  579SOL    HW2 1737   1.977   2.176   1.923 -0.9290 -0.1703 -3.8077
  580SOL     OW 1738   1.859   1.378   2.005 -0.5598  0.1518 -0.0691
  580SOL    HW1 1739   1.810   1.447   2.061 -0.3094  0.1070  1.6506
  580SOL    HW2 1740   1.834   1.385   1.905 -0.6699 -3.0233 -2.0085
  581SOL     OW 1741   1.327   0.998   2.759 -0.7383  0.0314  0.2829
  581SOL    HW1 1742   1.270   0.963   2.682  1.9641  0.1751  1.6276
  581SOL    HW2 1743   1.398   0.928   2.788 -1.6684 -0.2503  1.5958
  582SOL     OW 1744   0.547   2.190   1.667 -0.1589  0.3118  0.9777
  582SOL    HW1 1745   0.561   2.200   1.766  2.3319 -1.3106 -0.7164
  582SOL    HW2 1746   0.624   2.216   1.600  3.3399  0.9488  0.3306
  583SOL     OW 1747   1.343   1.248   1.145  0.2344 -0.2517 -0.1513
  583SOL    HW1 1748   1.262   1.269   1.087  1.5178 -1.8630 -2.9104
  583SOL    HW2 1749   1.425   1.295   1.107 -1.3336 -1.8978 -2.4839
  584SOL     OW 1750   1.233   2.455   0.631  0.5396 -0.1334 -0.0801
  584SOL    HW1 1751   1.180   2.462   0.546  0.3808  2.7713  0.8032
  584SOL    HW2 1752   1.227   2.541   0.681 -0.6643 -0.5634  1.9497
  585SOL     OW 1753   2.687   2.530   3.059  0.0110 -0.6275  1.0727
  585SOL    HW1 1754   2.724   2.456   0.041  0.3754  0.1801  0.5519
  585SOL    HW2 1755   2.723   2.517   2.961  1.3784 -2.7124 -2.3999
  586SOL     OW 1756   2.669   1.619   0.648 -0.2200  0.0437  0.4482
  586SOL    HW1 1757   2.600   1.579   0.708  0.2826 -0.5817 -1.5282
  586SOL    HW2 1758   2.653   1.717   0.624  0.6489  1.7871  0.7061
  587SOL     OW 1759   1.052   1.458   2.970  0.1447  0.1458 -0.2620
  587SOL    HW1 1760   1.101   1.432   2.887 -0.5900  0.5972  0.3287
  587SOL    HW2 1761   1.097   1.413   3.054  2.1294  0.5863  1.7624
  588SOL     OW 1762   0.384   0.361   0.748 -0.2899 -0.4482 -0.1931
  588SOL    HW1 1763   0.337   0.279   0.789 -2.9612 -1.6406  1.1242
  588SOL    HW2 1764   0.351   0.448   0.787  1.1012 -1.3803 -2.8975
  589SOL     OW 1765   1.186   0.329   0.567  0.0100  0.3148 -0.6119
  589SOL    HW1 1766   1.088   0.347   0.594 -3.5216  0.4704  0.7387
  589SOL    HW2 1767   1.247   0.412   0.571  2.4128 -2.7670 -0.7090
  590SOL     OW 1768   2.080   2.523   0.301  0.2138  0.2428 -0.2645
  590SOL    HW1 1769   2.148   2.507   0.380  0.8930 -1.6814  3.0668
  590SOL    HW2 1770   2.064   2.624   0.294 -1.4491 -1.0640 -0.0390
  591SOL     OW 1771   0.383   2.864   1.885  0.0243  0.5956  0.1497
  591SOL    HW1 1772   0.286   2.840   1.916 -1.9960 -1.0659  1.4854
  591SOL    HW2 1773   0.444   2.785   1.907  1.0212  0.3540  3.0644
  592SOL     OW 1774   0.016   1.497   2.268  0.0651 -0.1064 -0.3036
  592SOL    HW1 1775   0.047   1.403   2.255  3.0559 -0.2320 -0.8223
  592SOL    HW2 1776   0.069   1.552   2.206 -0.0666 -0.6806 -1.6753
  593SOL     OW 1777   1.870   1.544   1.170  0.1038 -0.2826  0.0527
  593SOL    HW1 1778   1.803   1.505   1.237  1.5782  0.9907 -1.0073
  593SOL    HW2 1779   1.870   1.504   1.075 -0.6251 -1.7977  0.9521
  594SOL     OW 1780   0.512   1.208   2.986  0.2962 -0.2381 -0.3403
  594SOL    HW1 1781   0.513   1.289   2.929  1.1900 -1.2813  1.7672
  594SOL    HW2 1782   0.423   1.205   3.041 -1.7130 -0.8121  0.0803
  595SOL     OW 1783   1.138   1.248   0.963  0.1807 -0.3132 -0.5763
  595SOL    HW1 1784   1.137   1.145   0.989  1.1663  0.1165  0.1991
  595SOL    HW2 1785   1.053   1.267   0.911  1.1595  0.4106 -0.5481
  596SOL     OW 1786   2.694   1.146   1.125  0.3031  0.1480 -0.4085
  596SOL    HW1 1787   2.716   1.046   1.101  1.4395 -2.2734 -2.1163
  596SOL    HW2 1788   2.758   1.217   1.090  3.0259 -1.0574 -1.2201
  597SOL     OW 1789   1.010   2.327   1.779  0.0563  0.1008 -0.0384
  597SOL    HW1 1790   0.926   2.368   1.824  0.5630 -0.8048  1.0127
  597SOL    HW2 1791   0.992   2.229   1.751  0.6222  0.8997  1.5142
  598SOL     OW 1792   2.296   2.554   2.051 -0.1736  0.2960  0.0294
  598SOL    HW1 1793   2.274   2.454   2.056 -1.2632 -0.4922 -0.8274
  598SOL    HW2 1794   2.250   2.595   1.967  0.9390 -1.7295 -0.6977
  599SOL     OW 1795   0.955   1.164   2.869 -0.2857  0.0231  0.1403
  599SOL    HW1 1796   0.950   1.219   2.781  0.0387  0.0114 -2.8380
  599SOL    HW2 1797   1.053   1.153   2.904  2.7238  0.0367 -1.7340
  600SOL     OW 1798   1.171   0.693   0.002  0.1791  0.5420 -0.4626
  600SOL    HW1 1799   1.071   0.686   3.048 -3.1097  0.7797  0.9081
  600SOL    HW2 1800   1.236   0.649   3.017  0.4885 -1.0535  1.8918
  601SOL     OW 1801   0.763   0.476   1.611  0.7580 -0.4756  0.2051
  601SOL    HW1 1802   0.860   0.497   1.646  1.8810 -1.4411  0.7144
  601SOL    HW2 1803   0.701   0.553   1.632  0.9733 -0.9817 -1.8134
  602SOL     OW 1804   0.220   2.428   0.756  0.4712 -0.0073  0.4589
  602SOL    HW1 1805   0.207   2.458   0.852  1.8163 -0.1325  1.9319
  602SOL    HW2 1806   0.143   2.463   0.695  0.6694  1.5474 -5.1563
  603SOL     OW 1807   0.920   2.474   2.181 -0.0414 -0.1950 -0.1824
  603SOL    HW1 1808   0.903   2.526   2.268 -0.8877  1.3105  2.6878
  603SOL    HW2 1809   1.018   2.488   2.150  1.9587  0.1591 -0.8586
  604SOL     OW 1810   0.081   1.984   3.051 -0.0012  0.0042 -0.2513
  604SOL    HW1 1811   0.158   1.963   2.991 -2.8971  0.1893 -0.4362
  604SOL    HW2 1812   3.063   1.951   3.010  1.0461 -1.3970 -3.0776
  605SOL     OW 1813   2.069   1.551   1.740 -0.5302  0.3002 -0.4741
  605SOL    HW1 1814   1.971   1.512   1.742 -0.8704  1.3893  1.2229
  605SOL    HW2 1815   2.138   1.478   1.717  1.1871 -0.5626  1.6459
  606SOL     OW 1816   0.940   1.311   2.622  0.3416  0.0640  0.1587
  606SOL    HW1 1817   0.947   1.412   2.632  0.2503 -1.0739  0.6504
  606SOL    HW2 1818   1.024   1.275   2.580  2.1444 -1.4183  1.1497
  607SOL     OW 1819   1.089   0.985   1.057 -0.0568 -0.2040 -0.1359
  607SOL    HW1 1820   1.158   0.976   1.130  0.1165 -0.4340 -0.3175
  607SOL    HW2 1821   1.003   0.933   1.086 -2.4366 -0.9180 -0.4233
  608SOL     OW 1822   2.667   1.816   2.019  0.3596 -0.3654  0.3969
  608SOL    HW1 1823   2.680   1.817   1.919 -2.1817  0.0355  0.8478
  608SOL    HW2 1824   2.669   1.912   2.053 -0.5883 -1.2841  3.0773
  609SOL     OW 1825   2.317   0.088   0.246  0.3924 -0.6983  0.3831
  609SOL    HW1 1826   2.293   0.088   0.150  2.2827 -1.3716  1.0317
  609SOL    HW2 1827   2.250   0.033   0.302 -0.1779 -1.2868  1.5713
  610SOL     OW 1828   3.044   2.415   1.379  0.6579 -0.2254  0.5390
  610SOL    HW1 1829   0.004   2.511   1.370 -0.4251 -1.5893 -1.3757
  610SOL    HW2 1830   0.046   2.363   1.417 -0.5234  3.0258  1.9084
  611SOL     OW 1831   1.523   2.157   0.436 -0.1681  0.1741  0.2351
  611SOL    HW1 1832   1.555   2.127   0.342  2.1268 -1.1509 -3.0094
  611SOL    HW2 1833   1.532   2.082   0.509 -1.0798 -0.8793  1.2377
  612SOL     OW 1834   0.819   0.090   1.882 -0.1117 -0.0376 -0.1449
  612SOL    HW1 1835   0.912   0.076   1.843 -1.9021 -1.8931  0.4117
  612SOL    HW2 1836   0.786   0.183   1.869 -1.5668  0.2350  0.9082
  613SOL     OW 1837   2.838   1.896   0.774 -0.1256  0.0245  0.2986
  613SOL    HW1 1838   2.759   1.888   0.708  1.7846 -1.0246  2.2235
  613SOL    HW2 1839   2.923   1.892   0.727  0.7472 -0.5952  1.7389
  614SOL     OW 1840   2.100   0.469   1.990 -0.3230  0.4501  0.4387
  614SOL    HW1 1841   2.097   0.572   1.992  3.9722 -3.6060  0.2491
  614SOL    HW2 1842   2.162   0.443   1.911  0.4063  0.3580  3.6439
  615SOL     OW 1843   1.247   1.476   0.850  0.3853 -0.1510 -0.1953
  615SOL    HW1 1844   1.145   1.497   0.851 -1.5472  0.2123  0.5999
  615SOL    HW2 1845   1.260   1.378   0.878  4.1402 -2.1661 -0.4442
  616SOL     OW 1846   1.799   1.820   0.054 -0.5072  0.1141  0.0883
  616SOL    HW1 1847   1.811   1.910   0.108 -1.5457 -0.4650 -0.1941
  616SOL    HW2 1848   1.707   1.816   0.017 -1.5811 -0.0063 -0.2411
  617SOL     OW 1849   1.964   0.116   0.410  0.4771 -0.1949  0.1367
  617SOL    HW1 1850   2.040   0.053   0.432  0.0963 -1.0862 -0.0334
  617SOL    HW2 1851   1.908   0.074   0.338  0.9130 -2.5530  0.8470
  618SOL     OW 1852   0.679   0.705   2.411 -0.1318 -0.1209  0.0977
  618SOL    HW1 1853   0.642   0.719   2.317  1.4792  1.6100 -2.4684
  618SOL    HW2 1854   0.780   0.706   2.406 -2.9854 -0.5592  1.4661
  619SOL     OW 1855   2.777   1.472   1.258 -0.1537 -0.7127  0.3483
  619SOL    HW1 1856   2.869   1.430   1.239  0.9449 -1.5593  0.2624
  619SOL    HW2 1857   2.705   1.433   1.197  0.5495  0.0228 -1.2166
  620SOL     OW 1858   2.076   2.882   2.650 -0.5519  0.2774 -0.2249
  620SOL    HW1 1859   2.049   2.965   2.604 -2.0986 -2.6483  2.0068
  620SOL    HW2 1860   2.112   2.809   2.585  0.6602  0.7954 -0.0117
  621SOL     OW 1861   2.594   1.705   3.034 -0.0358 -0.0005  0.2589
  621SOL    HW1 1862   2.687   1.672   3.006  0.8456 -0.6967 -0.8299
  621SOL    HW2 1863   2.551   1.641   0.025 -1.8006 -1.0232  0.9092
  622SOL     OW 1864   1.764   3.064   2.005 -0.4128 -0.2278  0.3567
  622SOL    HW1 1865   1.708   2.983   1.999  4.2810  2.2500 -0.4207
  622SOL    HW2 1866   1.861   3.033   2.011  0.7133 -1.1827 -1.2880
  623SOL     OW 1867   0.477   2.139   0.952 -0.4522 -0.4232  0.4312
  623SOL    HW1 1868   0.558   2.170   1.005 -4.9921  1.6788  0.1289
  623SOL    HW2 1869   0.401   2.129   1.020 -1.4706  0.5178 -4.0101
  624SOL     OW 1870   0.110   0.073   3.019  0.4026  0.0258 -0.1480
  624SOL    HW1 1871   0.095   3.052   3.045  1.5631  0.3899  3.2562
  624SOL    HW2 1872   0.174   0.070   2.943  2.8568 -1.4195 -1.7700
  625SOL     OW 1873   0.791   1.735   0.755 -0.0693  0.1077 -0.2903
  625SOL    HW1 1874   0.737   1.795   0.817 -2.0411  1.1620  2.7057
  625SOL    HW2 1875   0.804   1.771   0.664 -0.6327  1.8115  1.9814
  626SOL     OW 1876   2.890   0.075   3.023  0.2767 -0.0384 -0.1367
  626SOL    HW1 1877   2.989   0.066   3.015 -0.7404 -3.5839  1.4635
  626SOL    HW2 1878   2.844   0.000   3.073  0.6721  1.9492 -1.3948
  627SOL     OW 1879   1.310   1.743   2.600  0.0685  0.1365  0.4409
  627SOL    HW1 1880   1.217   1.699   2.607  0.6691 -1.9046 -0.5376
  627SOL    HW2 1881   1.338   1.740   2.501 -0.1343 -1.8043  0.5728
  628SOL     OW 1882   0.143   2.662   2.806  0.0292  0.1615  0.1945
  628SOL    HW1 1883   0.124   2.575   2.763  4.0850  0.2500 -2.0628
  628SOL    HW2 1884   0.076   2.704   2.865 -2.1317  0.9894 -2.9558
  629SOL     OW 1885   0.537   2.869   2.615  0.3586 -0.2218 -0.4765
  629SOL    HW1 1886   0.616   2.805   2.619 -1.4704  1.2485  0.1904
  629SOL    HW2 1887   0.505   2.883   2.709  2.1127  1.9045  0.7163
  630SOL     OW 1888   1.507   1.287   1.992 -0.8442  0.6734 -0.1223
  630SOL    HW1 1889   1.509   1.262   1.889 -2.3485 -0.2397 -2.5366
  630SOL    HW2 1890   1.468   1.378   1.994  2.5804  1.0056 -1.2820
  631SOL     OW 1891   2.293   1.173   0.361 -0.7132  0.5122 -0.2230
  631SOL    HW1 1892   2.356   1.227   0.416 -2.8050  1.8846  0.8825
  631SOL    HW2 1893   2.331   1.095   0.306  0.1631 -0.0678  1.3776
  632SOL     OW 1894   2.698   0.382   1.961  0.7898 -0.0220  0.2579
  632SOL    HW1 1895   2.754   0.451   2.014  0.5822 -0.4389  0.0036
  632SOL    HW2 1896   2.603   0.407   1.977 -1.6821 -1.7384  2.2832
  633SOL     OW 1897   0.781   1.497   0.104  0.0570 -0.3121 -0.0393
  633SOL    HW1 1898   0.863   1.553   0.124  0.3154 -0.6835  1.8741
  633SOL    HW2 1899   0.817   1.400   0.090  2.0574  0.0360  1.1999
  634SOL     OW 1900   2.064   2.536   2.525 -0.0712 -0.1274 -0.3480
  634SOL    HW1 1901   2.089   2.629   2.495  0.3229 -1.3062  0.1791
  634SOL    HW2 1902   1.975   2.502   2.485 -0.0834  0.5215 -1.2288
  635SOL     OW 1903   1.892   0.511   0.254  0.5987 -0.0716 -0.5067
  635SOL    HW1 1904   1.912   0.530   0.354  0.0150  2.0996 -0.2481
  635SOL    HW2 1905   1.949   0.437   0.216  0.1576  1.7629 -0.6873
  636SOL     OW 1906   0.782   1.264   0.588 -0.5582 -0.7256 -0.0920
  636SOL    HW1 1907   0.799   1.254   0.488  1.5789  0.1787  3.0181
  636SOL    HW2 1908   0.731   1.348   0.608 -1.2348 -0.9740  1.5438
  637SOL     OW 1909   3.027   2.116   0.371 -0.5595  0.6688  0.5520
  637SOL    HW1 1910   2.956   2.050   0.355  0.8715  0.8845 -3.6662
  637SOL    HW2 1911   3.063   2.102   0.466  1.5070  1.6682  0.6638
  638SOL     OW 1912   1.262   2.770   2.701 -0.3848 -0.0740 -0.6240
  638SOL    HW1 1913   1.263   2.803   2.606  1.2507 -1.0083 -0.4634
  638SOL    HW2 1914   1.296   2.672   2.704  0.5310 -4.2340  0.9302
  639SOL     OW 1915   1.422   1.859   0.124 -0.0312  0.5122 -0.0944
  639SOL    HW1 1916   1.340   1.921   0.125 -0.1875 -0.7069  1.6486
  639SOL    HW2 1917   1.399   1.775   0.181 -0.8220  0.5068  0.6299
  640SOL     OW 1918   1.594   0.073   0.742 -0.3448 -0.2845 -0.3937
  640SOL    HW1 1919   1.632   0.107   0.827 -0.9674 -1.9971 -0.4128
  640SOL    HW2 1920   1.669   0.044   0.676  1.6043  0.0438 -2.3089
  641SOL     OW 1921   2.957   2.981   0.363 -0.1322 -0.3077  0.1134
  641SOL    HW1 1922   2.951   2.931   0.452 -1.8200  1.6584 -3.5989
  641SOL    HW2 1923   2.952   2.918   0.284 -1.2172  1.7685  0.5295
  642SOL     OW 1924   1.096   0.162   1.578  0.1029  0.1256  0.1931
  642SOL    HW1 1925   1.012   0.112   1.548 -0.4983  3.2005 -2.2938
  642SOL    HW2 1926   1.075   0.260   1.588 -1.5130 -2.7619 -0.5083
  643SOL     OW 1927   0.576   1.358   2.002  0.1460 -0.1408  0.0280
  643SOL    HW1 1928   0.478   1.373   2.009 -2.5522 -1.6437  0.3582
  643SOL    HW2 1929   0.629   1.439   2.023 -1.7191  0.2974  1.0705
  644SOL     OW 1930   0.868   2.454   0.102 -0.3158  1.0276 -0.0743
  644SOL    HW1 1931   0.832   2.362   0.083 -0.2499 -3.2620 -1.2404
  644SOL    HW2 1932   0.962   2.451   0.146  2.3767 -0.2111 -0.4807
  645SOL     OW 1933   1.565   2.091   0.147  0.0304  0.0414 -0.2471
  645SOL    HW1 1934   1.510   2.164   0.104 -1.3209 -2.0410 -0.9700
  645SOL    HW2 1935   1.523   1.997   0.132 -0.3269 -1.8054 -0.4637
  646SOL     OW 1936   0.221   1.645   3.022  0.7314 -0.0635 -0.0886
  646SOL    HW1 1937   0.156   1.629   2.943  0.1541 -0.0079 -2.4721
  646SOL    HW2 1938   0.317   1.664   2.982 -0.6937  1.4215 -1.8798
  647SOL     OW 1939   0.869   3.000   1.165 -0.3036  0.3752 -0.7687
  647SOL    HW1 1940   0.911   2.946   1.244  1.7119  0.4508  1.4397
  647SOL    HW2 1941   0.896   0.026   1.177  1.4064  1.5895  1.4471
  648SOL     OW 1942   1.747   0.442   1.643  0.2367 -0.5822 -0.2686
  648SOL    HW1 1943   1.682   0.398   1.574 -3.8378 -1.6010 -2.2244
  648SOL    HW2 1944   1.801   0.515   1.596  3.0583  0.0923  1.5860
  649SOL     OW 1945   1.306   1.857   2.835 -0.0043  0.0836 -0.4108
  649SOL    HW1 1946   1.318   1.803   2.744 -1.8395 -0.0933 -3.9477
  649SOL    HW2 1947   1.241   1.816   2.902 -1.2357  1.3296 -0.3397
  650SOL     OW 1948   2.824   1.546   2.265  0.0026 -0.1563 -0.0072
  650SOL    HW1 1949   2.806   1.633   2.304 -0.1090  2.1744 -1.2395
  650SOL    HW2 1950   2.920   1.513   2.282  3.9914  2.4890 -0.6876
  651SOL     OW 1951   1.078   2.876   3.003  0.4258  0.4692 -0.6009
  651SOL    HW1 1952   1.027   2.862   2.914  0.4907 -0.4520  0.3283
  651SOL    HW2 1953   1.149   2.947   2.990 -0.2826 -1.8014 -0.6164
  652SOL     OW 1954   2.741   2.059   0.068  0.4839 -0.4538 -0.3247
  652SOL    HW1 1955   2.741   2.048   0.169  0.0949 -1.0061  1.7833
  652SOL    HW2 1956   2.643   2.048   0.040 -0.8369  3.4290  2.0724
  653SOL     OW 1957   0.040   3.018   1.041  0.2538  0.3454  0.1054
  653SOL    HW1 1958   3.050   3.058   1.109 -0.9419 -0.4003  1.4333
  653SOL    HW2 1959   0.134   3.015   1.086  0.8128 -3.4175  1.9409
  654SOL     OW 1960   2.212   0.211   2.410 -0.5734  0.6036 -0.3135
  654SOL    HW1 1961   2.160   0.218   2.321 -0.9254  0.1293 -1.0188
  654SOL    HW2 1962   2.268   0.124   2.416 -2.9299  0.7829  0.9356
  655SOL     OW 1963   0.439   2.652   0.969 -0.5953 -0.2985 -0.6024
  655SOL    HW1 1964   0.422   2.727   0.898  0.2208 -0.5743  0.5950
  655SOL    HW2 1965   0.366   2.657   1.041  0.6755  1.8932  0.4011
  656SOL     OW 1966   2.897   2.998   2.358  0.5125  0.7239  0.3841
  656SOL    HW1 1967   2.833   3.068   2.324 -0.3152 -0.9035  0.6352
  656SOL    HW2 1968   2.992   3.002   2.314  0.3213  0.7106 -1.8150
  657SOL     OW 1969   2.543   0.557   2.523 -0.4977 -0.1507  0.2226
  657SOL    HW1 1970   2.556   0.597   2.427  2.0630  0.4182 -2.8235
  657SOL    HW2 1971   2.633   0.524   2.553 -1.6503  0.1152 -1.1167
  658SOL     OW 1972   2.268   1.981   0.843  0.4590 -0.4568  0.2127
  658SOL    HW1 1973   2.367   1.978   0.870 -1.2112  0.7716  0.1810
  658SOL    HW2 1974   2.239   2.074   0.805  1.1756  1.7682 -1.7651
  659SOL     OW 1975   2.081   2.794   0.252  0.0602  0.4679  0.0282
  659SOL    HW1 1976   2.011   2.821   0.179 -0.0473  1.7020 -1.7864
  659SOL    HW2 1977   2.175   2.787   0.210 -3.6495 -0.9641 -0.3021
  660SOL     OW 1978   1.563   1.134   2.693  0.9604  0.0628  0.2654
  660SOL    HW1 1979   1.549   1.222   2.652 -1.5850 -2.7169  1.0464
  660SOL    HW2 1980   1.471   1.095   2.718  0.3066 -0.1709 -3.4736
  661SOL     OW 1981   2.259   2.458   1.203 -0.2558  0.1237 -0.2275
  661SOL    HW1 1982   2.319   2.398   1.144 -0.3338 -0.9690 -0.0885
  661SOL    HW2 1983   2.259   2.412   1.294  1.4561  0.2730 -0.7984
  662SOL     OW 1984   0.694   0.815   0.352 -0.3737 -0.2464  0.1689
  662SOL    HW1 1985   0.648   0.759   0.277 -2.0020 -2.0294 -0.7882
  662SOL    HW2 1986   0.626   0.861   0.415 -0.4065  2.6120  0.6562
  663SOL     OW 1987   1.906   2.279   0.385  0.5071 -0.6688  0.4507
  663SOL    HW1 1988   1.984   2.256   0.446  0.0840  1.4084  0.6343
  663SOL    HW2 1989   1.933   2.333   0.305 -1.8168 -0.4506  2.4401
  664SOL     OW 1990   0.781   1.916   1.417 -0.0051 -0.9223 -0.0417
  664SOL    HW1 1991   0.832   1.994   1.366  1.9248  3.1797 -0.2949
  664SOL    HW2 1992   0.807   1.912   1.516  0.3097 -0.1456  2.0664
  665SOL     OW 1993   1.732   2.155   2.157 -0.4140 -0.2748  0.4779
  665SOL    HW1 1994   1.812   2.169   2.219 -1.5226 -0.9005  0.9284
  665SOL    HW2 1995   1.740   2.061   2.110 -1.3376 -1.8447  1.3466
  666SOL     OW 1996   0.174   2.350   0.142  0.6983  0.2677 -0.0752
  666SOL    HW1 1997   0.271   2.369   0.137 -0.5291  0.1626 -0.3632
  666SOL    HW2 1998   0.154   2.249   0.147  0.1171  0.0731 -1.2632
  667SOL     OW 1999   2.329   1.630   1.795 -0.0362  0.2862  0.4516
  667SOL    HW1 2000   2.361   1.702   1.730  0.8452  1.8835  2.6932
  667SOL    HW2 2001   2.229   1.617   1.795  0.8003 -1.4309 -1.0855
  668SOL     OW 2002   0.485   0.675   2.603  1.0130  0.5002  0.9511
  668SOL    HW1 2003   0.548   0.692   2.526  0.3310  2.0159  0.3549
  668SOL    HW2 2004   0.525   0.620   2.677  0.7421 -2.1486  2.9459
  669SOL     OW 2005   1.765   2.404   3.027 -0.1835  0.1788 -0.2575
  669SOL    HW1 2006   1.768   2.493   0.002  0.0449  1.2314  4.4014
  669SOL    HW2 2007   1.849   2.352   3.042 -3.4822  2.0922 -0.0234
  670SOL     OW 2008   2.464   1.917   2.870  0.1059 -0.2420 -0.4945
  670SOL    HW1 2009   2.403   1.852   2.818 -3.0822  0.1266  0.8989
  670SOL    HW2 2010   2.533   1.865   2.925 -0.3295 -0.6999  2.7569
  671SOL     OW 2011   3.049   1.379   1.206  0.4039 -0.1665  0.1394
  671SOL    HW1 2012   0.045   1.412   1.138  2.1320  0.2077 -0.0616
  671SOL    HW2 2013   3.055   1.279   1.223 -0.9227 -1.8874  1.0979
  672SOL     OW 2014   2.442   0.900   2.303 -0.0069 -0.0616  0.1334
  672SOL    HW1 2015   2.500   0.926   2.223  0.2557  0.1768 -1.0594
  672SOL    HW2 2016   2.426   0.981   2.364 -0.7026 -0.2641  1.7966
  673SOL     OW 2017   2.356   2.613   2.292  0.1108  0.1122  0.0481
  673SOL    HW1 2018   2.348   2.523   2.345  0.4332 -2.9470 -1.9737
  673SOL    HW2 2019   2.353   2.603   2.191  1.7377  0.8319 -0.1690
  674SOL     OW 2020   1.182   2.535   2.073 -0.5541 -0.2106 -0.1695
  674SOL    HW1 2021   1.201   2.455   2.014 -0.2210  2.2178  1.4552
  674SOL    HW2 2022   1.268   2.551   2.124 -0.5644 -2.1555 -0.4808
  675SOL     OW 2023   0.588   0.803   1.042  0.2178 -0.4076  0.3829
  675SOL    HW1 2024   0.547   0.874   0.980 -0.8780  1.4119 -1.5076
  675SOL    HW2 2025   0.541   0.798   1.133  1.0146 -0.6596 -0.6195
  676SOL     OW 2026   1.979   0.797   0.640 -0.1949  0.5643 -0.6004
  676SOL    HW1 2027   1.912   0.792   0.562 -0.0133 -1.8011 -1.2739
  676SOL    HW2 2028   1.997   0.889   0.678  1.4238 -1.5362 -0.8316
  677SOL     OW 2029   3.039   1.610   2.547 -0.2025  0.3394  0.3769
  677SOL    HW1 2030   3.064   1.569   2.453 -1.9898 -1.8115 -3.3896
  677SOL    HW2 2031   2.942   1.645   2.544 -2.7585  2.3823  1.4855
  678SOL     OW 2032   2.540   1.866   1.171 -0.1278 -0.9468 -0.0387
  678SOL    HW1 2033   2.497   1.778   1.195 -0.1056 -2.6739  0.7924
  678SOL    HW2 2034   2.475   1.939   1.194  1.0564 -1.2708  0.0638
  679SOL     OW 2035   1.840   2.803   0.508  0.2406 -0.2939  0.3525
  679SOL    HW1 2036   1.828   2.733   0.432 -0.4524 -1.6146  1.2469
  679SOL    HW2 2037   1.846   2.752   0.591 -0.4237  0.4452 -1.0110
  680SOL     OW 2038   0.493   2.545   2.171 -0.7422  0.1649  0.1455
  680SOL    HW1 2039   0.556   2.542   2.250 -1.8496  0.5525 -0.8458
  680SOL    HW2 2040   0.461   2.448   2.145 -0.0734 -0.9101 -0.4145
  681SOL     OW 2041   2.783   1.374   1.792  0.3109  0.3472  0.1899
  681SOL    HW1 2042   2.855   1.303   1.796  0.3714 -1.3399  0.8441
  681SOL    HW2 2043   2.798   1.443   1.866 -1.8331 -0.8095  0.4044
  682SOL     OW 2044   0.612   1.864   0.936  0.0344 -0.1806 -0.0315
  682SOL    HW1 2045   0.560   1.946   0.931  0.9026 -5.1990  0.3672
  682SOL    HW2 2046   0.548   1.790   0.963 -2.6964 -4.4431  1.2672
  683SOL     OW 2047   2.202   1.375   1.233 -0.5241  0.7585  0.4562
  683SOL    HW1 2048   2.208   1.458   1.177 -2.5129 -1.9116  0.6146
  683SOL    HW2 2049   2.146   1.390   1.313 -0.0647  1.3132 -1.2546
  684SOL     OW 2050   2.865   1.642   2.898  0.2811  0.2291 -0.3530
  684SOL    HW1 2051   2.950   1.622   2.856 -1.6145 -0.0168  2.3571
  684SOL    HW2 2052   2.797   1.574   2.866 -1.3502 -1.8323 -1.8144
  685SOL     OW 2053   1.810   1.178   2.808  0.1790 -0.4557 -0.3590
  685SOL    HW1 2054   1.720   1.173   2.765 -2.1218  0.0789 -2.7880
  685SOL    HW2 2055   1.821   1.264   2.861 -0.7268 -0.6478 -1.2150
  686SOL     OW 2056   0.289   0.598   1.334  0.1892  0.3004  0.0831
  686SOL    HW1 2057   0.362   0.666   1.314 -1.2276  1.0251  0.7029
  686SOL    HW2 2058   0.282   0.573   1.435  1.9094  0.3366 -1.1089
  687SOL     OW 2059   1.164   2.068   2.734 -0.2223  0.3738 -0.0873
  687SOL    HW1 2060   1.238   2.007   2.766 -2.0389  0.1822 -0.4794
  687SOL    HW2 2061   1.202   2.161   2.728  0.9958  1.9956 -2.0087
  688SOL     OW 2062   0.248   1.625   1.551 -0.2256 -0.3273 -0.0686
  688SOL    HW1 2063   0.167   1.685   1.582 -3.0957  1.9943  1.2044
  688SOL    HW2 2064   0.320   1.645   1.617 -2.4005  0.3965  1.8218
  689SOL     OW 2065   1.533   1.197   1.709 -0.0018 -0.2575 -0.0741
  689SOL    HW1 2066   1.491   1.266   1.646  0.3925 -0.9188 -1.9959
  689SOL    HW2 2067   1.612   1.158   1.655  1.9995  2.1517 -0.6386
  690SOL     OW 2068   2.550   0.852   1.221 -0.4493  0.5677 -0.2478
  690SOL    HW1 2069   2.557   0.851   1.323 -1.1894 -0.6689  0.0301
  690SOL    HW2 2070   2.555   0.757   1.181 -2.8203  1.1296 -0.0688
  691SOL     OW 2071   0.635   2.232   1.935  0.3582 -0.7321 -0.3148
  691SOL    HW1 2072   0.707   2.174   1.977  0.5241  1.0166 -0.3256
  691SOL    HW2 2073   0.674   2.322   1.918  0.1614  1.4117  1.6543
  692SOL     OW 2074   1.971   0.160   1.058 -0.0984 -0.0855  0.0993
  692SOL    HW1 2075   2.000   0.259   1.045 -3.3360  1.5540 -1.5838
  692SOL    HW2 2076   2.001   0.115   1.148  1.3779  0.0826  0.7165
  693SOL     OW 2077   0.320   1.027   1.974 -0.0256  0.3133 -0.0167
  693SOL    HW1 2078   0.423   1.043   1.974 -1.4344 -3.3805 -0.2658
  693SOL    HW2 2079   0.287   1.010   1.875 -0.8536 -0.7061 -4.5435
  694SOL     OW 2080   1.965   0.403   1.265 -0.1715  0.4276 -0.0456
  694SOL    HW1 2081   1.931   0.318   1.305  2.4766  2.5885 -1.7153
  694SOL    HW2 2082   2.061   0.406   1.299 -1.4770  1.1555 -0.3500
  695SOL     OW 2083   1.152   1.398   1.620 -0.1292 -0.1581 -0.1540
  695SOL    HW1 2084   1.070   1.456   1.599  2.2476  0.9001 -1.2527
  695SOL    HW2 2085   1.184   1.344   1.543 -0.4110  1.8485  1.0328
  696SOL     OW 2086   1.477   2.593   0.330 -0.2362 -0.1062 -0.5002
  696SOL    HW1 2087   1.434   2.609   0.415 -0.6764 -4.1368 -0.9942
  696SOL    HW2 2088   1.532   2.507   0.346 -0.4406  0.9723  1.6522
  697SOL     OW 2089   0.808   0.432   0.823 -0.2709 -0.3468 -0.1853
  697SOL    HW1 2090   0.836   0.378   0.746 -1.0930  1.6338  6.1385
  697SOL    HW2 2091   0.858   0.520   0.824  1.8315 -3.0962  0.4444
  698SOL     OW 2092   1.398   1.700   2.336 -0.2179 -0.2552  0.1060
  698SOL    HW1 2093   1.354   1.609   2.340  0.9204 -1.6472 -0.6558
  698SOL    HW2 2094   1.465   1.717   2.262 -1.1217  1.2921  0.7272
  699SOL     OW 2095   1.481   1.009   1.171  0.2739 -0.2557  0.3996
  699SOL    HW1 2096   1.415   1.078   1.145  1.0983 -0.7793 -0.8392
  699SOL    HW2 2097   1.573   1.047   1.200  1.9975  0.0176 -2.2700
  700SOL     OW 2098   1.090   2.661   0.754 -0.4434  0.2047  0.0479
  700SOL    HW1 2099   1.034   2.670   0.668  0.0663  1.4444 -0.6917
  700SOL    HW2 2100   1.032   2.661   0.838  0.5854 -0.1932 -0.4188
  701SOL     OW 2101   2.382   3.072   2.458  0.8611  0.1992 -0.1091
  701SOL    HW1 2102   2.414   0.014   2.554 -3.1436  1.4160  0.1207
  701SOL    HW2 2103   2.414   2.982   2.417  0.6248 -1.7656  1.0441
  702SOL     OW 2104   0.999   0.316   2.998  0.5308  0.5942 -0.0369
  702SOL    HW1 2105   1.081   0.299   3.056 -3.2238  0.5684 -0.4946
  702SOL    HW2 2106   0.940   0.397   3.020 -0.8021  1.2814  0.3440
  703SOL     OW 2107   2.483   2.834   2.363  0.4122  0.1308  0.3784
  703SOL    HW1 2108   2.428   2.751   2.345  2.6302  0.3704  2.1189
  703SOL    HW2 2109   2.581   2.803   2.368 -2.2647  0.1704 -0.8816
  704SOL     OW 2110   0.107   2.219   1.128 -0.2155  1.1145  0.0374
  704SOL    HW1 2111   0.007   2.193   1.125 -0.1548 -0.0566 -0.2788
  704SOL    HW2 2112   0.118   2.321   1.122  0.8273 -0.5248  0.5346
  705SOL     OW 2113   2.750   0.122   2.190 -0.2044 -0.3237  0.0646
  705SOL    HW1 2114   2.815   0.197   2.205 -0.2397 -1.5341  0.7426
  705SOL    HW2 2115   2.757   0.098   2.094  0.4152 -2.3439  0.8677
  706SOL     OW 2116   1.802   0.019   0.208  0.0744 -0.2690  0.1225
  706SOL    HW1 2117   1.818   2.998   0.176  1.7090 -0.0805  1.6985
  706SOL    HW2 2118   1.703   0.044   0.204  2.5282  1.4266 -0.7648
  707SOL     OW 2119   0.885   1.799   1.962  0.2374  0.0015  0.0004
  707SOL    HW1 2120   0.904   1.752   2.047  2.8765  1.3414  0.4587
  707SOL    HW2 2121   0.966   1.791   1.897  1.6992  3.0976  1.5998
  708SOL     OW 2122   0.117   2.510   1.645  0.2470 -0.1394 -0.3849
  708SOL    HW1 2123   0.210   2.477   1.622 -0.6248 -0.7624 -0.1634
  708SOL    HW2 2124   0.096   2.609   1.611 -2.4634  0.9069 -2.4888
  709SOL     OW 2125   1.980   2.901   1.964  0.0887  1.0138  0.4401
  709SOL    HW1 2126   1.998   2.826   2.032 -2.7738 -1.5350 -0.7041
  709SOL    HW2 2127   1.989   2.866   1.870  1.0378 -0.8177 -0.8666
  710SOL     OW 2128   2.233   0.758   2.224  0.2766 -0.3841  0.3522
  710SOL    HW1 2129   2.180   0.795   2.140 -0.5503 -0.1957  0.1865
  710SOL    HW2 2130   2.305   0.824   2.257  3.9979 -0.8348  0.0781
  711SOL     OW 2131   0.963   2.090   0.061 -0.0306 -0.5837  0.3118
  711SOL    HW1 2132   0.972   2.141   0.146  0.9060 -1.1168 -3.9478
  711SOL    HW2 2133   0.876   2.118   0.018 -0.2518  0.1467 -3.1600
  712SOL     OW 2134   0.678   2.512   2.377 -0.2986 -0.2355 -0.1882
  712SOL    HW1 2135   0.688   2.414   2.354 -2.7738 -1.0623  1.1198
  712SOL    HW2 2136   0.773   2.548   2.393 -0.1475 -1.9064 -0.1442
  713SOL     OW 2137   1.952   1.058   0.071 -0.4509  0.0329  0.1118
  713SOL    HW1 2138   1.990   1.101   3.063 -1.8329 -1.9123  0.6831
  713SOL    HW2 2139   1.988   1.099   0.157  2.0334  1.0381 -0.1084
  714SOL     OW 2140   0.371   1.380   1.003  0.2452  0.2399 -0.3515
  714SOL    HW1 2141   0.414   1.342   0.918 -1.4911  0.2129 -1.4676
  714SOL    HW2 2142   0.273   1.410   0.991 -1.7950  0.2395 -0.4056
  715SOL     OW 2143   1.966   0.222   2.828 -0.3218 -0.0894  0.1633
  715SOL    HW1 2144   1.886   0.291   2.824 -2.0886  1.9482  0.9570
  715SOL    HW2 2145   1.947   0.161   2.911 -0.1379 -2.3915 -0.1906
  716SOL     OW 2146   2.701   3.015   1.941  0.2143 -0.2564  0.0649
  716SOL    HW1 2147   2.612   2.986   1.980  0.2244  0.0111 -0.7767
  716SOL    HW2 2148   2.773   2.941   1.947  2.4209  2.0120  0.3035
  717SOL     OW 2149   0.010   0.846   0.896 -0.2097  0.0068 -0.0707
  717SOL    HW1 2150   0.084   0.794   0.854 -1.2175 -0.8282  1.5366
  717SOL    HW2 2151   3.049   0.803   0.983  0.5402  1.2694  0.8696
  718SOL     OW 2152   0.870   1.298   2.280 -0.3272  0.6739 -0.3565
  718SOL    HW1 2153   0.775   1.284   2.316 -1.0347 -0.0602 -1.6510
  718SOL    HW2 2154   0.918   1.209   2.262 -1.5775  0.3613 -0.8875
  719SOL     OW 2155   2.701   1.370   2.986  0.1490 -0.4060  0.1905
  719SOL    HW1 2156   2.632   1.360   3.057  0.1986  0.5410 -1.0026
  719SOL    HW2 2157   2.671   1.323   2.903 -3.3817  0.2946 -0.7353
  720SOL     OW 2158   1.105   0.915   0.779 -0.9175 -0.2602  0.3379
  720SOL    HW1 2159   1.073   0.948   0.871 -0.0802 -0.4766  3.8163
  720SOL    HW2 2160   1.050   0.967   0.706 -0.9723  1.5637 -0.9855
  721SOL     OW 2161   2.603   0.502   0.101  0.6277  0.4982 -0.0141
  721SOL    HW1 2162   2.665   0.426   0.072  0.6553  0.0758  0.6530
  721SOL    HW2 2163   2.662   0.564   0.155  0.2884 -3.4985  1.0689
  722SOL     OW 2164   1.801   0.678   2.689 -0.4117  0.0290 -0.1018
  722SOL    HW1 2165   1.821   0.698   2.784 -1.9457 -3.0471 -1.1070
  722SOL    HW2 2166   1.885   0.655   2.638  0.4342  3.3368  2.2313
  723SOL     OW 2167   2.778   0.622   0.258  0.0262 -0.1918 -0.6503
  723SOL    HW1 2168   2.757   0.643   0.355  0.2637 -2.6025 -2.4786
  723SOL    HW2 2169   2.864   0.662   0.231 -0.3134 -0.2088  2.4145
  724SOL     OW 2170   0.822   1.524   1.807 -0.1425 -0.1114  0.0933
  724SOL    HW1 2171   0.760   1.466   1.745  2.3608  1.0495 -0.0333
  724SOL    HW2 2172   0.858   1.475   1.888  3.0025 -0.6754 -0.7798
  725SOL     OW 2173   2.082   0.728   1.996 -0.0372 -0.5604 -0.6419
  725SOL    HW1 2174   2.146   0.784   1.940 -0.0415 -1.7198  0.0511
  725SOL    HW2 2175   1.989   0.773   1.997 -1.0609  0.9255 -1.1370
  726SOL     OW 2176   1.598   2.886   0.428  0.0315 -0.5399 -0.5866
  726SOL    HW1 2177   1.697   2.879   0.457  2.9517 -0.6160  0.1444
  726SOL    HW2 2178   1.543   2.836   0.493  1.3263  0.5630 -0.6453
  727SOL     OW 2179   1.680   1.513   2.156  0.2400  0.4404  0.5003
  727SOL    HW1 2180   1.606   1.452   2.125 -3.4660 -0.6320 -0.7165
  727SOL    HW2 2181   1.658   1.611   2.147  0.9855 -0.7241  0.9158
  728SOL     OW 2182   1.542   2.658   1.272 -0.0986  0.1878  0.5164
  728SOL    HW1 2183   1.547   2.567   1.314 -0.7690  1.1033 -1.5951
  728SOL    HW2 2184   1.574   2.649   1.173  1.3500  0.8368 -1.6337
  729SOL     OW 2185   2.100   1.145   1.014 -0.1331  0.0169  0.2018
  729SOL    HW1 2186   2.117   1.244   1.029 -0.4508  3.2409  0.0827
  729SOL    HW2 2187   2.174   1.103   0.955  0.5299  1.0802 -0.1540
  730SOL     OW 2188   0.416   1.331   2.597 -0.3599 -0.3183 -0.1105
  730SOL    HW1 2189   0.442   1.370   2.506  1.7627 -2.9119 -0.1935
  730SOL    HW2 2190   0.427   1.228   2.587  2.3318 -1.3095  2.9198
  731SOL     OW 2191   0.197   0.148   0.837  0.0223  0.1031 -0.4257
  731SOL    HW1 2192   0.200   0.069   0.768 -2.0428 -1.7626 -1.7564
  731SOL    HW2 2193   0.221   0.117   0.926  0.1571  1.1933 -2.1750
  732SOL     OW 2194   1.204   0.727   0.272  0.1624 -0.1692  0.3133
  732SOL    HW1 2195   1.185   0.720   0.173 -1.3782 -0.7673  0.2734
  732SOL    HW2 2196   1.118   0.726   0.322  1.6070 -2.7005 -0.6968
  733SOL     OW 2197   0.423   1.895   0.631  0.1315  0.2277  0.5676
  733SOL    HW1 2198   0.436   1.802   0.672 -0.8152  2.0442  0.0640
  733SOL    HW2 2199   0.341   1.897   0.572  0.5493  1.8452 -2.5405
  734SOL     OW 2200   3.055   2.441   3.017  0.2085 -0.4576  0.0585
  734SOL    HW1 2201   0.049   2.415   0.010  0.1437 -2.4714  0.4199
  734SOL    HW2 2202   2.956   2.421   3.051 -3.3512  0.1510  1.8426
  735SOL     OW 2203   1.231   0.908   1.272  0.0431  0.6363 -0.1083
  735SOL    HW1 2204   1.177   0.821   1.277  0.4917 -1.4801  1.4366
  735SOL    HW2 2205   1.327   0.879   1.248  1.9487  0.4446 -0.7702
  736SOL     OW 2206   2.210   2.436   0.088  0.1192  0.5141 -0.2812
  736SOL    HW1 2207   2.160   2.450   0.178 -1.5106  0.7835 -2.6797
  736SOL    HW2 2208   2.184   2.507   0.017 -2.7466  1.7517 -1.8001
  737SOL     OW 2209   2.642   0.214   0.795 -0.0455 -0.6235  0.3012
  737SOL    HW1 2210   2.656   0.207   0.692 -2.8512 -1.4480 -0.5492
  737SOL    HW2 2211   2.563   0.163   0.827  1.9395 -0.0996  2.2086
  738SOL     OW 2212   2.343   0.169   0.967  0.3929  0.1780 -0.1578
  738SOL    HW1 2213   2.346   0.135   1.065  1.7962 -1.4300  2.4079
  738SOL    HW2 2214   2.296   0.097   0.917  2.6929 -1.7001 -1.7138
  739SOL     OW 2215   1.636   2.403   0.446  0.2776  0.5562  0.4955
  739SOL    HW1 2216   1.599   2.307   0.427  1.4186 -0.1652  0.6846
  739SOL    HW2 2217   1.618   2.434   0.540 -0.4882  1.2513 -2.2114
  740SOL     OW 2218   1.544   0.559   0.966  0.1001  0.3128 -0.1070
  740SOL    HW1 2219   1.518   0.658   0.975 -1.3311  1.1963  0.6903
  740SOL    HW2 2220   1.630   0.550   0.914 -1.7925 -0.2228  1.9551
  741SOL     OW 2221   2.588   0.747   0.792  0.4796  0.0740  0.0462
  741SOL    HW1 2222   2.688   0.748   0.774  1.5147 -2.3037 -1.6815
  741SOL    HW2 2223   2.533   0.816   0.739 -0.2305 -0.8044 -1.0516
  742SOL     OW 2224   0.926   1.741   2.228 -0.3519  0.3249  0.0985
  742SOL    HW1 2225   1.020   1.773   2.248 -2.2147 -1.8650  1.4932
  742SOL    HW2 2226   0.870   1.777   2.303  2.0936  0.4047 -0.5371
  743SOL     OW 2227   1.598   0.701   1.888  0.1550 -0.1913 -0.1730
  743SOL    HW1 2228   1.604   0.597   1.895 -3.1483 -1.8979 -0.4759
  743SOL    HW2 2229   1.673   0.755   1.929  1.0142  3.7427  1.6446
  744SOL     OW 2230   2.163   0.772   1.417 -0.3511 -0.5340  0.2187
  744SOL    HW1 2231   2.166   0.772   1.313 -2.5763 -2.4315  0.0226
  744SOL    HW2 2232   2.208   0.857   1.455  0.7865  1.2154 -0.9488
  745SOL     OW 2233   1.700   1.427   1.344  0.8656 -0.0590  0.3371
  745SOL    HW1 2234   1.619   1.415   1.409 -0.1217 -1.0121  1.1681
  745SOL    HW2 2235   1.698   1.351   1.276 -3.5623 -0.9156 -1.2839
  746SOL     OW 2236   2.085   1.787   0.863  0.3997 -0.1632 -0.5020
  746SOL    HW1 2237   2.010   1.809   0.927 -2.2127  2.2643  1.3844
  746SOL    HW2 2238   2.156   1.861   0.859  1.3737 -0.7004  1.3136
  747SOL     OW 2239   2.213   1.569   1.033 -0.3886  0.0199 -0.1103
  747SOL    HW1 2240   2.242   1.537   0.939  0.1739 -0.2705  1.2453
  747SOL    HW2 2241   2.125   1.620   1.023  0.4419 -1.5649 -0.8646
  748SOL     OW 2242   0.250   2.152   0.768 -0.9040 -0.3137  0.2330
  748SOL    HW1 2243   0.255   2.250   0.730 -0.9664  1.5766  0.4541
  748SOL    HW2 2244   0.312   2.147   0.850 -1.7766 -0.5012  1.7374
  749SOL     OW 2245   2.456   2.908   2.066  0.0102  0.4992  0.0718
  749SOL    HW1 2246   2.464   2.879   2.163 -1.2360 -0.4838 -2.7020
  749SOL    HW2 2247   2.372   2.958   2.041  0.2054 -2.2340 -0.4292
  750SOL     OW 2248   2.271   0.635   0.861 -0.6466  0.5502  0.6213
  750SOL    HW1 2249   2.267   0.674   0.769 -2.4828  2.5245  1.0211
  750SOL    HW2 2250   2.255   0.700   0.937 -0.1619  1.8213 -1.1895
  751SOL     OW 2251   2.616   2.850   0.341  0.0339  0.2448  0.3579
  751SOL    HW1 2252   2.563   2.772   0.303 -1.8328  2.0390 -1.6332
  751SOL    HW2 2253   2.609   2.930   0.273 -0.9412  2.1544 -0.4182
  752SOL     OW 2254   0.390   2.866   0.775  0.0422 -0.1857  0.5119
  752SOL    HW1 2255   0.457   2.848   0.703 -2.3361 -0.9357  2.1973
  752SOL    HW2 2256   0.340   2.951   0.745 -1.8055 -2.3058  0.5352
  753SOL     OW 2257   1.837   0.471   2.082 -0.0787  0.2211  0.0131
  753SOL    HW1 2258   1.767   0.446   2.015  3.0554  2.0090  1.4471
  753SOL    HW2 2259   1.929   0.454   2.044  1.4113 -2.0849  1.3856
  754SOL     OW 2260   1.231   2.315   1.918  0.5403  0.5388  0.9152
  754SOL    HW1 2261   1.149   2.306   1.858  0.9545 -1.3828 -1.7558
  754SOL    HW2 2262   1.320   2.319   1.862 -1.6752 -1.2648  0.0443
  755SOL     OW 2263   2.460   0.553   0.637 -0.1930 -0.0600  0.5434
  755SOL    HW1 2264   2.373   0.607   0.619 -1.2184 -0.7823 -1.3023
  755SOL    HW2 2265   2.512   0.587   0.720  0.4921  0.5877 -1.2722
  756SOL     OW 2266   1.056   1.734   2.949  0.1196 -0.1635 -0.0635
  756SOL    HW1 2267   1.055   1.632   2.971  0.5404 -0.2661  2.8178
  756SOL    HW2 2268   1.034   1.749   2.850 -2.0494  1.9259 -0.9923
  757SOL     OW 2269   1.037   0.022   0.886  0.4874  0.7173 -1.0033
  757SOL    HW1 2270   1.051   3.017   0.947 -0.7872 -1.4072  2.0269
  757SOL    HW2 2271   0.957   0.079   0.918 -1.1182 -1.3781  1.0873
  758SOL     OW 2272   0.963   0.173   1.191 -0.5520 -0.2114 -0.4994
  758SOL    HW1 2273   1.063   0.193   1.201  2.3308  0.2491  3.0457
  758SOL    HW2 2274   0.905   0.222   1.259  0.0103  1.0544  0.2571
  759SOL     OW 2275   0.266   0.620   0.839 -0.1380  0.1177  0.0271
  759SOL    HW1 2276   0.201   0.626   0.761  1.0313  0.8148 -1.9451
  759SOL    HW2 2277   0.301   0.714   0.858 -0.8875  0.5170 -1.1473
  760SOL     OW 2278   2.242   1.081   1.259  0.1759  0.1432  0.3579
  760SOL    HW1 2279   2.245   1.020   1.175 -1.1019 -0.7510 -2.3546
  760SOL    HW2 2280   2.214   1.177   1.230  3.1404  0.6245  1.0018
  761SOL     OW 2281   1.662   0.624   0.659  0.1887 -0.3449  0.0227
  761SOL    HW1 2282   1.624   0.566   0.590  1.7049  1.9547  0.9937
  761SOL    HW2 2283   1.726   0.577   0.719 -1.1612  1.0045  0.0258
  762SOL     OW 2284   2.065   2.404   0.867  0.5406 -0.0636  0.4782
  762SOL    HW1 2285   2.001   2.394   0.787 -0.0415 -0.0558  0.0240
  762SOL    HW2 2286   2.023   2.358   0.947  1.2703  0.4932  1.9904
  763SOL     OW 2287   1.378   1.484   1.721 -1.0971  0.1682 -0.1683
  763SOL    HW1 2288   1.394   1.486   1.822  1.4964  0.3846  2.6767
  763SOL    HW2 2289   1.281   1.468   1.690 -0.3306  0.7156  0.0252
  764SOL     OW 2290   2.702   2.104   2.477 -0.2896  0.6606  0.5443
  764SOL    HW1 2291   2.664   2.120   2.572 -0.3654 -0.2351  1.6374
  764SOL    HW2 2292   2.685   2.187   2.421 -0.9131 -1.5790  1.0012
  765SOL     OW 2293   0.671   2.296   1.086  0.1845  0.2945  0.3407
  765SOL    HW1 2294   0.613   2.336   1.012 -1.1842  0.9051 -2.7521
  765SOL    HW2 2295   0.627   2.325   1.173 -0.5700 -0.2069 -0.4837
  766SOL     OW 2296   0.345   1.746   2.579 -0.1896 -0.4626  0.7010
  766SOL    HW1 2297   0.248   1.778   2.579  1.3467  1.4766  0.2720
  766SOL    HW2 2298   0.381   1.730   2.671  0.7275  1.0423 -0.4407
  767SOL     OW 2299   2.029   0.889   2.563 -0.7648 -0.1249 -0.6381
  767SOL    HW1 2300   2.017   0.917   2.663  0.2428  1.7034  0.7713
  767SOL    HW2 2301   2.021   0.786   2.562 -2.7819  0.2086 -1.1920
  768SOL     OW 2302   0.997   2.837   2.756 -0.7392  0.0166  0.5130
  768SOL    HW1 2303   1.097   2.811   2.741  0.9451  1.3422 -0.1067
  768SOL    HW2 2304   0.978   2.921   2.696  0.8831 -2.6695  0.3737
  769SOL     OW 2305   2.997   2.566   0.877  0.1496  0.0733  0.2842
  769SOL    HW1 2306   3.027   2.556   0.778  0.1775  2.1076 -1.2597
  769SOL    HW2 2307   3.005   2.665   0.907  0.1058 -0.4958 -0.5338
  770SOL     OW 2308   0.887   2.940   0.102 -0.2444  0.4486  0.1816
  770SOL    HW1 2309   0.968   2.896   0.054  2.8303 -2.4598 -0.1051
  770SOL    HW2 2310   0.863   2.892   0.185  2.4903 -1.3416 -1.3666
  771SOL     OW 2311   1.118   2.025   2.453 -0.4907  1.1231  0.6119
  771SOL    HW1 2312   1.155   2.005   2.550  2.0829  1.2338  4.5709
  771SOL    HW2 2313   1.015   2.040   2.466 -1.6702  1.1800  2.1343
  772SOL     OW 2314   2.220   3.055   2.006 -0.6416 -0.4834 -0.6635
  772SOL    HW1 2315   2.139   2.996   1.976 -3.4741 -0.6489  2.0273
  772SOL    HW2 2316   2.188   0.069   2.052  0.3183 -1.1410  0.6731
  773SOL     OW 2317   1.323   0.086   1.969  0.1901 -0.2704 -0.0314
  773SOL    HW1 2318   1.356   0.115   2.060 -1.0728 -2.2220  1.9063
  773SOL    HW2 2319   1.341   3.065   1.947 -0.0255  0.2551 -0.2830
  774SOL     OW 2320   1.364   0.971   1.682 -0.1955 -0.1789 -0.0089
  774SOL    HW1 2321   1.401   1.069   1.697 -0.9157  0.6829 -0.2226
  774SOL    HW2 2322   1.323   0.936   1.768 -2.1105  0.9625  0.9079
  775SOL     OW 2323   2.180   3.004   0.435  0.1342  0.3102 -0.0194
  775SOL    HW1 2324   2.253   2.984   0.504  0.8303  3.6936 -2.0143
  775SOL    HW2 2325   2.147   2.912   0.393  1.6662 -2.6266 -0.8602
  776SOL     OW 2326   2.232   1.118   1.861  0.7682  0.6382 -0.3966
  776SOL    HW1 2327   2.316   1.118   1.914  1.7058 -2.3862 -1.8175
  776SOL    HW2 2328   2.227   1.188   1.790 -1.8066 -3.0816 -0.2128
  777SOL     OW 2329   0.080   1.243   2.533 -0.1782  0.2810  0.4196
  777SOL    HW1 2330   0.137   1.153   2.527  4.2259 -2.6840 -1.3615
  777SOL    HW2 2331   0.114   1.309   2.462 -0.8854 -0.9715 -3.6458
  778SOL     OW 2332   2.257   1.071   2.491 -0.4368  0.5038 -0.5801
  778SOL    HW1 2333   2.181   1.002   2.488  0.2444 -2.3804 -0.5938
  778SOL    HW2 2334   2.305   1.043   2.579  0.3313 -1.6821  3.1535
  779SOL     OW 2335   3.059   0.280   2.851 -0.4773  0.1986  0.2782
  779SOL    HW1 2336   0.049   0.227   2.911  2.0867  0.7814 -0.9292
  779SOL    HW2 2337   3.065   0.251   2.752  0.8543 -1.7495  0.0822
  780SOL     OW 2338   2.174   2.764   2.422 -0.2964 -0.0597  0.7566
  780SOL    HW1 2339   2.123   2.816   2.347  0.3181 -0.2844  1.1402
  780SOL    HW2 2340   2.237   2.694   2.381  0.8445 -0.9807 -0.0347
  781SOL     OW 2341   3.023   0.888   1.721  0.5018  0.0733 -0.6639
  781SOL    HW1 2342   2.962   0.890   1.803 -1.3664  0.6829  1.6097
  781SOL    HW2 2343   2.990   0.822   1.654  2.9497  1.3814  1.4337
  782SOL     OW 2344   1.984   2.291   0.017 -0.7041  0.0967  0.1018
  782SOL    HW1 2345   1.993   2.199   3.059  2.2346  3.3700  2.3932
  782SOL    HW2 2346   2.070   2.342   0.023 -1.4009 -1.4594 -1.1935
  783SOL     OW 2347   0.382   2.221   1.198 -0.5007  0.2119 -0.0849
  783SOL    HW1 2348   0.279   2.226   1.210 -0.6993  0.9188 -1.3071
  783SOL    HW2 2349   0.435   2.285   1.249 -3.6966 -3.0504  1.9296
  784SOL     OW 2350   2.559   0.644   2.260  0.5316 -0.9350 -0.4394
  784SOL    HW1 2351   2.486   0.586   2.209 -0.6973  0.4089 -1.4608
  784SOL    HW2 2352   2.526   0.739   2.275  0.9463 -0.0502 -0.0706
  785SOL     OW 2353   0.023   0.194   1.271 -0.1033  0.1460 -0.0644
  785SOL    HW1 2354   0.086   0.269   1.237 -2.8675  1.9952 -0.7363
  785SOL    HW2 2355   0.061   0.132   1.346 -2.6144  1.3556  0.2877
  786SOL     OW 2356   1.378   2.770   0.591 -0.2387 -0.2792 -0.5416
  786SOL    HW1 2357   1.298   2.765   0.532  0.6890  0.8163 -1.9339
  786SOL    HW2 2358   1.368   2.848   0.661  0.6287  2.8552  2.1135
  787SOL     OW 2359   1.227   0.182   0.806 -0.3878  0.4815 -0.9919
  787SOL    HW1 2360   1.216   0.223   0.716 -1.9895 -0.5436  0.5783
  787SOL    HW2 2361   1.147   0.128   0.836 -2.7940 -3.0134 -1.6176
  788SOL     OW 2362   2.874   1.306   0.985 -0.1764  0.3724  0.2891
  788SOL    HW1 2363   2.869   1.374   0.914  0.6850  1.8521  1.0980
  788SOL    HW2 2364   2.956   1.321   1.049 -0.9066  2.5593  2.3015
  789SOL     OW 2365   2.852   0.587   2.024  0.0381 -0.9302 -0.3244
  789SOL    HW1 2366   2.835   0.676   1.974  0.8145  2.3638 -2.9490
  789SOL    HW2 2367   2.870   0.596   2.129  1.1871  1.2880  1.6180
  790SOL     OW 2368   0.903   0.685   2.832  0.3419  0.2593  1.0799
  790SOL    HW1 2369   0.971   0.627   2.782 -1.1922  0.6670 -0.4517
  790SOL    HW2 2370   0.912   0.786   2.806 -1.2650 -1.7579  0.0469
  791SOL     OW 2371   0.110   2.878   0.005 -0.7839 -0.2903 -0.4007
  791SOL    HW1 2372   0.179   2.805   0.025 -4.0606 -2.0416  2.5002
  791SOL    HW2 2373   0.019   2.831   3.057 -2.0104 -0.4013  0.7764
  792SOL     OW 2374   1.341   0.754   1.913  0.4679 -0.1952 -0.2399
  792SOL    HW1 2375   1.307   0.659   1.920  0.5630 -0.7810  1.0874
  792SOL    HW2 2376   1.443   0.751   1.919 -2.1416  0.7325  3.9818
  793SOL     OW 2377   2.682   0.477   1.244 -0.1564  0.2539  0.0373
  793SOL    HW1 2378   2.610   0.492   1.316  0.3950 -0.7298 -0.7744
  793SOL    HW2 2379   2.655   0.524   1.158  0.7792 -1.1600  0.4867
  794SOL     OW 2380   2.913   0.331   2.255  0.2752  0.2699 -0.1506
  794SOL    HW1 2381   2.876   0.423   2.257  1.3600 -1.0216  0.1815
  794SOL    HW2 2382   3.015   0.332   2.252 -0.8447  0.0732  0.7390
  795SOL     OW 2383   0.600   1.854   2.988  0.2043 -0.3781  0.4419
  795SOL    HW1 2384   0.538   1.890   3.059  1.3543  1.5361 -1.0964
  795SOL    HW2 2385   0.695   1.845   3.027 -3.0457  0.5259  0.6134
  796SOL     OW 2386   2.601   0.640   2.785  0.5007  0.4647  0.3233
  796SOL    HW1 2387   2.575   0.612   2.691 -0.6248 -0.3658  1.0532
  796SOL    HW2 2388   2.518   0.632   2.843  3.6611 -1.1733 -0.9736
  797SOL     OW 2389   2.593   2.133   2.759  0.1695  0.5055  0.6663
  797SOL    HW1 2390   2.524   2.058   2.771  1.0511 -1.4408 -1.2524
  797SOL    HW2 2391   2.555   2.229   2.776 -0.7019 -0.5257  1.0955
  798SOL     OW 2392   2.871   0.079   1.171  0.2165 -0.3435 -0.4603
  798SOL    HW1 2393   2.938   0.104   1.245 -2.7003 -2.2152 -0.1212
  798SOL    HW2 2394   2.893   0.133   1.085 -0.4190  0.5330 -1.5676
  799SOL     OW 2395   0.269   0.221   1.531 -0.1969 -0.1616 -0.0236
  799SOL    HW1 2396   0.331   0.220   1.453  1.5978  2.9404  1.3687
  799SOL    HW2 2397   0.314   0.181   1.617  0.4881  1.0906  2.3652
  800SOL     OW 2398   0.325   1.732   0.196  0.3686  0.0700  0.0260
  800SOL    HW1 2399   0.253   1.714   0.127  0.4782  0.4498  0.2708
  800SOL    HW2 2400   0.390   1.651   0.209  0.6167 -0.6650  2.8589
  801SOL     OW 2401   1.728   1.649   0.667 -0.2618 -0.4227  0.1213
  801SOL    HW1 2402   1.675   1.715   0.721 -1.4783  2.5866 -1.1622
  801SOL    HW2 2403   1.826   1.638   0.702 -0.5729  0.1208  0.4220
  802SOL     OW 2404   1.207   1.106   2.959 -0.4464  0.1015  0.1651
  802SOL    HW1 2405   1.254   1.058   2.883  0.3902  0.7731 -0.0782
  802SOL    HW2 2406   1.266   1.184   2.989 -1.3590  2.0322 -0.1770
  803SOL     OW 2407   1.084   1.748   1.780  0.8007  0.0222  0.2683
  803SOL    HW1 2408   1.137   1.808   1.714  2.7668  1.9189  2.3106
  803SOL    HW2 2409   1.049   1.664   1.729  0.7590 -1.0209  1.5943
  804SOL     OW 2410   1.539   2.387   0.906 -0.0987  0.0449 -0.4115
  804SOL    HW1 2411   1.578   2.317   0.970  0.7930 -0.2294  0.0764
  804SOL    HW2 2412   1.470   2.340   0.850 -0.3129 -0.4267  2.7661
  805SOL     OW 2413   0.183   2.443   2.039 -0.5842 -0.0159  0.2020
  805SOL    HW1 2414   0.117   2.407   1.969 -0.7058 -3.0033 -1.2969
  805SOL    HW2 2415   0.277   2.399   2.031  0.8308  0.0660 -0.0027
  806SOL     OW 2416   0.732   2.961   0.464  0.1706 -0.2761 -0.0355
  806SOL    HW1 2417   0.782   3.048   0.482 -0.4952  0.4054  1.9064
  806SOL    HW2 2418   0.656   2.975   0.395  0.0975 -0.5932  1.5490
  807SOL     OW 2419   2.606   0.956   2.895 -0.1933 -0.2105 -0.0880
  807SOL    HW1 2420   2.561   0.902   2.972 -2.4663 -0.0857 -0.0488
  807SOL    HW2 2421   2.566   0.940   2.805  1.5367  0.7388  3.2338
  808SOL     OW 2422   1.285   2.079   0.936  0.2581 -0.2606  0.2129
  808SOL    HW1 2423   1.320   2.122   0.850  2.3955  2.0553 -1.0181
  808SOL    HW2 2424   1.188   2.057   0.925 -2.1027 -0.7974 -0.5521
  809SOL     OW 2425   0.255   3.044   0.604 -0.0041  0.3099 -0.7526
  809SOL    HW1 2426   0.194   2.965   0.574  0.0336 -1.9389 -0.1322
  809SOL    HW2 2427   0.304   0.007   0.524 -1.3429 -0.6911  0.8038
  810SOL     OW 2428   1.220   1.452   0.577  0.2178  0.6370 -0.2481
  810SOL    HW1 2429   1.238   1.467   0.676  0.3284  0.6608  0.8568
  810SOL    HW2 2430   1.202   1.348   0.562 -1.3404  0.3247 -2.2966
  811SOL     OW 2431   1.382   2.832   1.424 -0.0269  0.2419 -0.2260
  811SOL    HW1 2432   1.438   2.777   1.363 -0.1264 -0.2651  3.2932
  811SOL    HW2 2433   1.338   2.901   1.366 -1.0371 -2.6123 -0.0075
  812SOL     OW 2434   1.155   0.176   0.364  0.1580 -0.3240 -0.4180
  812SOL    HW1 2435   1.138   0.077   0.386 -2.5010 -0.0692  0.0833
  812SOL    HW2 2436   1.162   0.234   0.450 -2.8091 -0.2399 -0.9663
  813SOL     OW 2437   1.108   0.196   2.258  0.0478 -0.0985  0.2847
  813SOL    HW1 2438   1.206   0.169   2.238 -0.4535 -1.7700  3.1259
  813SOL    HW2 2439   1.081   0.180   2.354 -0.2967 -0.9196 -1.5211
  814SOL     OW 2440   0.679   2.699   1.116  0.2576 -0.0236 -0.1577
  814SOL    HW1 2441   0.663   2.777   1.180 -2.1493  0.8794  0.6695
  814SOL    HW2 2442   0.594   2.673   1.066 -0.6173  2.5140 -0.4566
  815SOL     OW 2443   0.017   2.582   0.620  0.8295 -0.4582  0.1036
  815SOL    HW1 2444   0.060   2.666   0.585 -0.4608  4.4012 -1.3322
  815SOL    HW2 2445   0.043   2.508   0.552  0.0477 -1.1927 -3.4860
  816SOL     OW 2446   2.510   1.570   2.696 -0.1576  0.1801 -0.0799
  816SOL    HW1 2447   2.541   1.492   2.751 -1.5659  2.8012  1.5118
  816SOL    HW2 2448   2.471   1.548   2.605 -0.8178 -0.1149 -0.1135
  817SOL     OW 2449   1.783   2.638   2.841 -0.2985 -0.0597  0.2140
  817SOL    HW1 2450   1.816   2.545   2.868  1.2026 -2.8772  2.6029
  817SOL    HW2 2451   1.849   2.710   2.865  0.6413  0.0380  1.5718
  818SOL     OW 2452   1.265   1.118   0.257 -0.1862  0.3613  0.0450
  818SOL    HW1 2453   1.192   1.073   0.198 -0.0822 -1.3754  1.9728
  818SOL    HW2 2454   1.301   1.041   0.314 -0.6030 -0.4738  0.6977
  819SOL     OW 2455   1.559   1.859   2.981  0.2534 -0.0957 -0.2684
  819SOL    HW1 2456   1.512   1.850   0.000 -0.1771 -2.5973  0.9398
  819SOL    HW2 2457   1.481   1.887   2.919  0.3701 -0.0637 -1.5932
  820SOL     OW 2458   0.588   0.701   0.120  0.3248 -0.3235 -0.4028
  820SOL    HW1 2459   0.601   0.732   0.027  3.7221 -2.9817  0.3490
  820SOL    HW2 2460   0.596   0.596   0.125 -0.8866 -3.7928  1.7939
  821SOL     OW 2461   0.308   0.032   1.088 -1.0563 -0.4692  0.1573
  821SOL    HW1 2462   0.383   3.044   1.070 -2.5598 -0.5680  0.3321
  821SOL    HW2 2463   0.341   0.125   1.115  0.4890 -0.0378  1.5571
  822SOL     OW 2464   1.591   2.445   2.516 -0.5549  0.2843  0.1104
  822SOL    HW1 2465   1.491   2.439   2.514 -0.0228 -0.0874  0.7490
  822SOL    HW2 2466   1.628   2.369   2.572 -2.5568 -1.4081 -0.6083
  823SOL     OW 2467   0.999   0.705   2.178 -0.2897 -0.7505 -0.3432
  823SOL    HW1 2468   1.092   0.731   2.200 -0.3508  0.2246 -2.6750
  823SOL    HW2 2469   0.983   0.613   2.215  1.2720 -0.8801  0.7220
  824SOL     OW 2470   2.240   0.211   1.510  0.6701 -0.7681  0.1086
  824SOL    HW1 2471   2.158   0.273   1.529 -2.6400  0.8677  0.7583
  824SOL    HW2 2472   2.224   0.121   1.557  0.3820 -2.0370  0.9917
  825SOL     OW 2473   0.773   1.257   0.006 -0.2370 -0.2144 -0.4933
  825SOL    HW1 2474   0.835   1.244   2.999  0.7384 -0.9137 -0.0799
  825SOL    HW2 2475   0.675   1.227   3.061  1.0435  2.3947  1.3088
  826SOL     OW 2476   2.011   0.614   2.530  0.2060  0.0537 -0.2320
  826SOL    HW1 2477   2.071   0.536   2.552  0.7933  1.5542  0.5464
  826SOL    HW2 2478   1.982   0.605   2.432 -1.7244  0.1338  1.6804
  827SOL     OW 2479   0.874   2.085   2.498  0.2964  0.0444  0.2946
  827SOL    HW1 2480   0.818   2.131   2.429  1.4997  1.6411 -3.0051
  827SOL    HW2 2481   0.846   2.124   2.590  2.1916  1.3602  0.7264
  828SOL     OW 2482   2.624   0.093   1.357  0.2894 -0.4027  0.1340
  828SOL    HW1 2483   2.702   0.115   1.296  3.0168 -0.4188  2.5314
  828SOL    HW2 2484   2.609   3.067   1.374  3.1514  1.2666  0.5611
  829SOL     OW 2485   1.194   1.692   1.411 -0.1707 -0.0388  0.4664
  829SOL    HW1 2486   1.254   1.633   1.348 -0.2919 -1.9339 -1.3792
  829SOL    HW2 2487   1.118   1.638   1.455 -0.3102  1.0616 -0.0606
  830SOL     OW 2488   0.574   1.092   1.687  0.2602 -0.0146 -0.1994
  830SOL    HW1 2489   0.500   1.048   1.631  1.4027  0.0351  1.8917
  830SOL    HW2 2490   0.604   1.039   1.769  1.2640  1.1597  2.4013
  831SOL     OW 2491   3.013   1.714   0.082  0.3191 -0.4206 -0.2081
  831SOL    HW1 2492   3.000   1.789   0.155  0.6311  2.3101  1.6823
  831SOL    HW2 2493   3.043   1.752   3.065  0.3080 -1.7510 -2.5397
  832SOL     OW 2494   1.108   2.766   0.418  0.3836 -0.1222 -0.5546
  832SOL    HW1 2495   1.009   2.763   0.393  1.8577 -1.2120  1.3872
  832SOL    HW2 2496   1.162   2.782   0.335 -1.0066  0.5863  2.7287
  833SOL     OW 2497   2.953   0.230   1.642 -0.0722 -0.1093  0.0926
  833SOL    HW1 2498   2.910   0.196   1.730  1.7633 -0.5968  2.6029
  833SOL    HW2 2499   3.025   0.299   1.653 -0.6902 -1.4411  1.6246
  834SOL     OW 2500   0.045   1.127   0.973 -0.0967 -0.3996  0.3336
  834SOL    HW1 2501   0.058   1.202   0.905 -1.0501 -0.8400  1.8049
  834SOL    HW2 2502   0.019   1.039   0.937  1.0348 -1.1343  3.7189
  835SOL     OW 2503   2.443   2.946   0.995  0.0595  0.3895  0.3647
  835SOL    HW1 2504   2.357   2.976   0.949  1.5129  1.1789 -0.5846
  835SOL    HW2 2505   2.524   2.997   0.967  1.8519 -0.2839 -2.9656
  836SOL     OW 2506   0.981   1.860   2.713  0.5216 -0.7939  0.2306
  836SOL    HW1 2507   1.041   1.941   2.716 -2.3779 -2.6990 -0.5862
  836SOL    HW2 2508   0.882   1.890   2.722 -1.5857 -2.0879 -0.4819
  837SOL     OW 2509   1.734   2.043   2.873  0.3684  0.5217 -0.1310
  837SOL    HW1 2510   1.678   1.965   2.910 -0.4732 -2.6923  1.9586
  837SOL    HW2 2511   1.678   2.130   2.880 -1.3361 -1.1645  0.3602
  838SOL     OW 2512   0.150   0.744   2.229 -0.4312  0.5036 -0.0606
  838SOL    HW1 2513   0.168   0.644   2.212  0.4715 -1.2998 -1.4637
  838SOL    HW2 2514   0.085   0.780   2.159 -0.7857 -1.0347 -1.3063
  839SOL     OW 2515   0.801   0.954   2.827 -0.0035 -0.0364 -0.1717
  839SOL    HW1 2516   0.741   0.965   2.747 -0.2043  1.4819  0.1710
  839SOL    HW2 2517   0.865   1.031   2.832 -0.6551 -0.5107  0.1148
  840SOL     OW 2518   1.659   0.644   0.286  0.1661  0.7776  0.1623
  840SOL    HW1 2519   1.739   0.597   0.241  2.4817 -1.4382 -0.1692
  840SOL    HW2 2520   1.614   0.581   0.350 -1.4702 -0.1680 -0.1952
  841SOL     OW 2521   0.749   2.557   0.726  1.0087 -0.2757  0.0255
  841SOL    HW1 2522   0.701   2.498   0.798  1.5797 -2.5337  1.7686
  841SOL    HW2 2523   0.716   2.650   0.721  0.5890 -2.0200  1.5842
  842SOL     OW 2524   0.260   0.508   0.393 -0.3493 -0.3371 -0.4246
  842SOL    HW1 2525   0.161   0.509   0.410 -0.8082  1.2446  1.6352
  842SOL    HW2 2526   0.303   0.597   0.411 -0.9007  0.3209 -0.0324
  843SOL     OW 2527   0.487   0.772   1.302  0.4272 -0.4745  0.2866
  843SOL    HW1 2528   0.568   0.711   1.310  1.7818 -2.9711  0.9742
  843SOL    HW2 2529   0.496   0.861   1.354  2.2840 -1.9376  0.9972
  844SOL     OW 2530   1.974   2.440   2.764 -0.2668 -0.2458  0.0861
  844SOL    HW1 2531   1.982   2.502   2.682 -2.4355  0.0967 -0.9108
  844SOL    HW2 2532   2.061   2.412   2.800 -2.4567  2.1096 -0.6158
  845SOL     OW 2533   2.203   3.049   1.629 -0.1403  1.0305  0.5888
  845SOL    HW1 2534   2.149   2.971   1.667 -1.2616  1.8186  1.3988
  845SOL    HW2 2535   2.299   3.055   1.669  2.1772 -1.7791 -1.5470
  846SOL     OW 2536   2.192   1.755   2.494  0.5176  0.2612  0.0451
  846SOL    HW1 2537   2.152   1.667   2.461  2.1763  2.9989  0.3665
  846SOL    HW2 2538   2.271   1.786   2.438 -0.1737  1.1911 -1.1019
  847SOL     OW 2539   2.080   2.712   2.143 -0.2052  0.2667 -0.2248
  847SOL    HW1 2540   1.988   2.686   2.183 -1.8210  0.4113 -0.6681
  847SOL    HW2 2541   2.143   2.632   2.144 -3.0320 -0.2374  0.9878
  848SOL     OW 2542   0.236   2.869   0.283  0.3741  0.4820  0.2674
  848SOL    HW1 2543   0.333   2.844   0.269 -1.3382  0.7857  1.6036
  848SOL    HW2 2544   0.203   2.904   0.194  2.5900 -0.8031 -2.1084
  849SOL     OW 2545   0.611   2.914   1.267 -0.4032  0.2577  0.1266
  849SOL    HW1 2546   0.643   2.996   1.219 -2.4942 -3.5258 -0.4166
  849SOL    HW2 2547   0.614   2.923   1.367 -1.7725 -0.4555  0.4229
  850SOL     OW 2548   0.006   1.702   0.821  0.1693 -0.2886 -0.2716
  850SOL    HW1 2549   0.024   1.761   0.904  2.3656  2.6175  4.6195
  850SOL    HW2 2550   0.007   1.755   0.734 -2.6877  0.8182 -0.8641
  851SOL     OW 2551   2.837   0.734   2.878  0.2351  0.0361  0.5173
  851SOL    HW1 2552   2.900   0.785   2.817 -3.3064  2.6604  0.7201
  851SOL    HW2 2553   2.756   0.696   2.823  0.2840  0.9259 -1.9713
  852SOL     OW 2554   1.801   2.017   2.595 -0.1875  0.0055 -0.1606
  852SOL    HW1 2555   1.757   1.998   2.687  0.3783  0.0337 -0.7174
  852SOL    HW2 2556   1.898   1.985   2.597  2.9585 -0.6345  1.1621
  853SOL     OW 2557   0.779   1.766   0.269 -0.1879 -0.0694  0.5204
  853SOL    HW1 2558   0.683   1.743   0.235 -3.0488  1.4793 -0.7673
  853SOL    HW2 2559   0.827   1.822   0.200 -0.7996 -0.4296  1.9822
  854SOL     OW 2560   1.712   1.109   2.054  0.8728  0.0071  0.0590
  854SOL    HW1 2561   1.624   1.161   2.053  2.2362 -3.3976  0.4964
  854SOL    HW2 2562   1.792   1.166   2.023  0.0349 -0.1808  0.8274
  855SOL     OW 2563   0.730   2.219   0.011  0.4791  0.0791  0.4197
  855SOL    HW1 2564   0.676   2.232   0.098  0.8309 -0.5875 -0.3855
  855SOL    HW2 2565   0.667   2.238   3.006 -0.3084 -2.0806  3.2235
  856SOL     OW 2566   0.410   0.078   1.974  0.0757  0.1352 -0.1999
  856SOL    HW1 2567   0.394   3.054   1.955  1.3028  3.9079  0.0226
  856SOL    HW2 2568   0.442   0.087   2.069 -1.0459 -1.1711  0.6170
  857SOL     OW 2569   0.691   0.324   1.814 -0.1079  0.0360 -0.5145
  857SOL    HW1 2570   0.710   0.390   1.891 -0.6743 -0.3338 -1.3170
  857SOL    HW2 2571   0.700   0.373   1.723 -0.2110  2.7524 -4.0428
  858SOL     OW 2572   0.060   2.099   2.127  0.5332 -0.0366 -0.1550
  858SOL    HW1 2573   0.065   2.187   2.183 -2.1246  0.0978 -1.6778
  858SOL    HW2 2574   0.147   2.047   2.130  1.9473  1.2518 -1.1818
  859SOL     OW 2575   1.945   2.256   1.074 -0.0721  0.9380  0.3417
  859SOL    HW1 2576   1.922   2.334   1.135  4.5940 -2.7865 -0.1881
  859SOL    HW2 2577   1.862   2.212   1.031 -2.5683 -3.4582 -1.7852
  860SOL     OW 2578   1.976   0.528   0.499 -0.0308 -0.1357  0.6916
  860SOL    HW1 2579   2.012   0.459   0.560  0.9929  0.5675 -3.5539
  860SOL    HW2 2580   1.982   0.614   0.545 -3.2833 -2.4914  0.7959
  861SOL     OW 2581   0.150   0.405   1.182 -0.0363 -0.4123  0.4003
  861SOL    HW1 2582   0.214   0.469   1.227 -1.6921 -1.9864  0.8630
  861SOL    HW2 2583   0.098   0.457   1.106 -0.1552  1.8734  0.1520
  862SOL     OW 2584   2.286   0.655   1.625  0.4081  0.5008 -0.4454
  862SOL    HW1 2585   2.279   0.721   1.699  0.7947 -2.8061  0.3973
  862SOL    HW2 2586   2.281   0.703   1.532 -1.2265  1.0928  1.9148
  863SOL     OW 2587   0.400   1.397   1.497  0.4430 -0.4580 -0.0663
  863SOL    HW1 2588   0.375   1.360   1.591  0.4297 -0.9339  3.5613
  863SOL    HW2 2589   0.359   1.489   1.474 -1.4148  0.6271 -2.3970
  864SOL     OW 2590   2.406   2.808   1.712  0.2141  0.0398  0.0122
  864SOL    HW1 2591   2.455   2.751   1.783 -1.4986 -2.0429 -1.8321
  864SOL    HW2 2592   2.435   2.905   1.704 -0.4728  1.7125 -0.5131
  865SOL     OW 2593   1.551   0.368   2.170  0.6995  0.6021  0.6524
  865SOL    HW1 2594   1.597   0.393   2.084 -0.0399 -0.3491  0.2879
  865SOL    HW2 2595   1.616   0.362   2.249 -1.8029  1.2749  0.2473
  866SOL     OW 2596   2.350   2.901   0.630  0.6367  0.3396 -0.0322
  866SOL    HW1 2597   2.334   2.800   0.654  0.7644 -1.7574  0.9817
  866SOL    HW2 2598   2.448   2.929   0.607  0.0782 -0.7980  2.8208
  867SOL     OW 2599   2.530   2.536   0.778 -0.0248  0.1622 -0.4708
  867SOL    HW1 2600   2.627   2.549   0.746 -0.4716  0.2716 -0.4990
  867SOL    HW2 2601   2.525   2.570   0.876  0.0710  0.1045  1.2069
  868SOL     OW 2602   1.574   1.480   2.813  0.1377 -0.1412 -0.6760
  868SOL    HW1 2603   1.531   1.443   2.729 -0.2313 -0.6698 -0.9031
  868SOL    HW2 2604   1.610   1.574   2.797 -1.8984 -2.7216 -2.8559
  869SOL     OW 2605   2.623   1.880   0.610  0.6248 -0.9215 -0.1994
  869SOL    HW1 2606   2.539   1.902   0.663  0.3335 -1.0416  1.2549
  869SOL    HW2 2607   2.635   1.944   0.530 -2.6296  2.6160  1.7738
  870SOL     OW 2608   2.934   1.862   0.327 -0.5928  0.1417  0.8087
  870SOL    HW1 2609   3.004   1.812   0.382 -0.1148 -0.8711  1.5643
  870SOL    HW2 2610   2.839   1.851   0.365  0.6215 -0.6431  0.6606
  871SOL     OW 2611   0.154   1.146   1.461 -0.1251  0.1659  0.2775
  871SOL    HW1 2612   0.155   1.241   1.492 -1.1618 -2.5422 -2.1632
  871SOL    HW2 2613   0.082   1.137   1.389  1.8562  0.4950 -0.6904
  872SOL     OW 2614   0.590   1.526   2.442 -0.2383 -0.2207 -0.0561
  872SOL    HW1 2615   0.642   1.533   2.352  2.7116 -3.9441 -1.0715
  872SOL    HW2 2616   0.642   1.561   2.522  1.1084 -2.2151 -0.3175
  873SOL     OW 2617   0.397   2.910   1.601  1.1083 -0.4147 -0.7209
  873SOL    HW1 2618   0.379   2.913   1.703  0.7286  0.8570 -1.5948
  873SOL    HW2 2619   0.459   2.986   1.568  4.1023  2.7218  1.3243
  874SOL     OW 2620   1.234   0.894   2.122 -0.3508 -0.3462  0.2365
  874SOL    HW1 2621   1.273   0.842   2.044  0.0157 -0.3864 -2.6274
  874SOL    HW2 2622   1.311   0.931   2.179  1.9677 -0.5434  1.2395
  875SOL     OW 2623   2.724   3.034   0.955 -0.0808 -0.0797 -0.6696
  875SOL    HW1 2624   2.757   3.063   1.046  0.8775  0.0130  0.2809
  875SOL    HW2 2625   2.791   3.055   0.880  1.1639  1.5208 -2.7701
  876SOL     OW 2626   0.779   1.303   0.318 -0.2960 -0.4950  0.2436
  876SOL    HW1 2627   0.777   1.261   0.224 -0.0529 -1.5498 -0.7570
  876SOL    HW2 2628   0.796   1.401   0.318 -0.3373  1.5299 -0.0855
  877SOL     OW 2629   1.135   1.049   1.513 -0.4398 -0.3696 -0.8875
  877SOL    HW1 2630   1.195   1.018   1.591  1.2828  0.1488  2.8646
  877SOL    HW2 2631   1.152   0.988   1.431 -0.1605 -2.5002 -2.7719
  878SOL     OW 2632   2.353   2.063   0.398 -0.4608  0.3784 -0.5199
  878SOL    HW1 2633   2.262   2.103   0.429 -0.8836 -1.4950 -0.4509
  878SOL    HW2 2634   2.417   2.144   0.370  1.7528  3.5025 -0.1906
  879SOL     OW 2635   2.443   2.082   1.797 -0.5280  0.1276 -0.3399
  879SOL    HW1 2636   2.496   2.004   1.831 -2.8401  3.2314 -0.6806
  879SOL    HW2 2637   2.476   2.169   1.845  0.6599 -0.1548  0.3546
  880SOL     OW 2638   0.921   2.341   1.019 -0.0894 -0.1514 -0.2135
  880SOL    HW1 2639   0.965   2.358   1.113  1.5432 -1.6691 -1.2584
  880SOL    HW2 2640   0.825   2.308   1.030  4.7333 -1.6572  1.6141
  881SOL     OW 2641   0.830   1.864   0.524 -0.0638 -0.7310  0.6826
  881SOL    HW1 2642   0.798   1.845   0.426  0.7286 -1.1166 -1.0772
  881SOL    HW2 2643   0.809   1.955   0.564 -0.2925 -1.2744  0.6987
  882SOL     OW 2644   2.023   1.203   0.294 -0.1562 -0.3836 -0.4532
  882SOL    HW1 2645   2.005   1.298   0.259 -0.9368 -0.1344 -2.4120
  882SOL    HW2 2646   2.125   1.196   0.312  1.8352  1.3747 -0.4330
  883SOL     OW 2647   1.516   0.824   0.975 -0.2383 -0.8320  0.3337
  883SOL    HW1 2648   1.494   0.895   1.044  2.7192 -0.6061 -1.5087
  883SOL    HW2 2649   1.611   0.836   0.933  1.5795 -1.2410  0.4615
  884SOL     OW 2650   2.810   2.631   0.404  0.3074  0.0432  0.3846
  884SOL    HW1 2651   2.855   2.679   0.325 -2.7906  0.7395  2.1643
  884SOL    HW2 2652   2.746   2.704   0.440 -1.1858  1.0740 -2.0728
  885SOL     OW 2653   0.917   1.390   2.009  0.1247 -0.1800  0.0776
  885SOL    HW1 2654   0.885   1.349   2.096  0.2876 -0.7632 -1.5147
  885SOL    HW2 2655   1.011   1.364   1.998 -4.4644  1.2476  2.1320
  886SOL     OW 2656   1.166   1.828   2.268  0.8113 -0.1335 -0.5600
  886SOL    HW1 2657   1.157   1.910   2.329  2.8190 -0.7342  0.1400
  886SOL    HW2 2658   1.263   1.798   2.271 -1.7379  0.2560 -1.7678
  887SOL     OW 2659   1.329   0.778   0.768 -0.0742 -0.2100  0.2414
  887SOL    HW1 2660   1.399   0.810   0.833  1.1897 -1.2628  0.4622
  887SOL    HW2 2661   1.245   0.833   0.767  3.2375  0.5075 -1.9160
  888SOL     OW 2662   2.504   0.744   1.947  0.0817  0.7030 -0.0497
  888SOL    HW1 2663   2.485   0.647   1.978 -0.6427  0.2484  0.8040
  888SOL    HW2 2664   2.559   0.799   2.008 -1.1161 -1.8482 -1.2277
  889SOL     OW 2665   2.897   1.998   1.019 -0.2589  0.5567  0.1654
  889SOL    HW1 2666   2.860   1.968   0.929 -1.6513 -0.3514  3.1126
  889SOL    HW2 2667   2.877   2.092   1.041  1.9235 -0.0317  1.0344
  890SOL     OW 2668   1.298   2.246   0.289  0.5708  0.1024 -0.2184
  890SOL    HW1 2669   1.365   2.233   0.362 -1.3903  1.1795 -1.2485
  890SOL    HW2 2670   1.284   2.158   0.235 -0.0829  0.6041  0.9959
  891SOL     OW 2671   2.881   0.469   2.868 -0.2132 -0.0225 -0.3301
  891SOL    HW1 2672   2.967   0.412   2.856  1.3794  1.1111 -0.5170
  891SOL    HW2 2673   2.905   0.568   2.890  1.7480  1.0332  2.4263
  892SOL     OW 2674   2.825   2.380   0.998  0.2792 -0.6936  0.0508
  892SOL    HW1 2675   2.894   2.439   0.954 -1.5076 -1.5129  0.4428
  892SOL    HW2 2676   2.862   2.326   1.074 -0.6255 -0.0385 -0.8997
  893SOL     OW 2677   1.320   0.357   0.982 -0.5357  0.8780 -0.5263
  893SOL    HW1 2678   1.307   0.291   0.901 -0.6382  0.0372 -2.9869
  893SOL    HW2 2679   1.395   0.425   0.966  2.3434 -0.9404  1.4101
  894SOL     OW 2680   2.884   0.236   0.921 -0.1030  0.0934  0.0601
  894SOL    HW1 2681   2.948   0.276   0.854  1.5861  1.6953 -0.6541
  894SOL    HW2 2682   2.787   0.236   0.883 -0.5519  2.0110  0.6885
  895SOL     OW 2683   2.012   1.507   2.812 -0.4962 -0.2104  0.2396
  895SOL    HW1 2684   2.090   1.467   2.755  3.0048  0.1513  1.2721
  895SOL    HW2 2685   1.940   1.437   2.835 -3.5500  1.0089  1.5624
  896SOL     OW 2686   1.944   0.577   1.505  0.1158 -0.3749  0.3486
  896SOL    HW1 2687   2.028   0.628   1.478  3.0322 -1.1093  1.9190
  896SOL    HW2 2688   1.864   0.601   1.449 -0.9109  0.8091  2.3351
  897SOL     OW 2689   3.045   1.486   1.489 -0.0807 -0.0044 -0.3494
  897SOL    HW1 2690   2.998   1.577   1.496 -0.6078  1.4123  0.6806
  897SOL    HW2 2691   0.018   1.472   1.395 -1.0180 -0.2611  1.7516
  898SOL     OW 2692   2.220   2.289   2.013  0.0206  1.2538  0.5132
  898SOL    HW1 2693   2.231   2.314   1.915  1.6011  0.9108 -2.3391
  898SOL    HW2 2694   2.147   2.222   2.031 -0.3438  2.8178  1.5489
  899SOL     OW 2695   0.999   1.619   0.896 -0.5479  0.5137 -0.0513
  899SOL    HW1 2696   1.035   1.682   0.967 -0.3303 -2.3218 -1.5979
  899SOL    HW2 2697   0.921   1.656   0.852  2.0073  0.4876  4.2216
  900SOL     OW 2698   1.304   2.410   2.447 -0.3246  0.6467 -0.0581
  900SOL    HW1 2699   1.324   2.316   2.413 -0.4998  1.4231  1.7881
  900SOL    HW2 2700   1.313   2.483   2.381 -0.4524 -1.0885  2.5566
  901SOL     OW 2701   0.705   1.539   2.201 -0.1023 -0.0791 -0.2668
  901SOL    HW1 2702   0.685   1.605   2.125  0.7369  1.4338 -0.1900
  901SOL    HW2 2703   0.797   1.496   2.189 -0.3060 -0.7768 -2.0217
  902SOL     OW 2704   2.076   1.397   0.093 -0.8206 -0.1855 -0.4617
  902SOL    HW1 2705   2.042   1.344   0.012  1.9896 -0.0895  0.2986
  902SOL    HW2 2706   2.178   1.406   0.101  0.9437  0.0393  4.4190
  903SOL     OW 2707   1.931   1.607   0.198  0.2881 -0.3613  0.4210
  903SOL    HW1 2708   1.977   1.539   0.142 -3.6606  1.3520  1.7175
  903SOL    HW2 2709   1.871   1.678   0.148  0.1701 -1.9000 -0.0953
  904SOL     OW 2710   1.377   1.213   2.240  0.2024 -0.2946  0.6825
  904SOL    HW1 2711   1.471   1.177   2.261  2.9491 -2.4770  0.7458
  904SOL    HW2 2712   1.374   1.247   2.144  0.5210  0.3060  2.1833
  905SOL     OW 2713   2.328   0.439   1.026 -0.3466  0.5487 -0.2535
  905SOL    HW1 2714   2.356   0.344   1.002  0.2864  0.6789  1.9456
  905SOL    HW2 2715   2.328   0.509   0.947  0.2451 -0.3385 -0.8920
  906SOL     OW 2716   0.222   1.859   0.436  0.0555  0.2181 -0.0194
  906SOL    HW1 2717   0.203   1.951   0.400 -1.4221 -2.1228  0.6580
  906SOL    HW2 2718   0.257   1.798   0.364 -1.6906  2.0465 -0.7763
  907SOL     OW 2719   1.451   2.982   0.229  0.1461 -0.0683 -0.0867
  907SOL    HW1 2720   1.496   2.931   0.308 -0.8248 -2.6554 -0.7101
  907SOL    HW2 2721   1.432   0.005   0.255  0.0277 -2.2244  1.0535
  908SOL     OW 2722   1.505   2.620   1.853  0.1906 -0.0290  0.4639
  908SOL    HW1 2723   1.506   2.530   1.884  0.5046  1.1923 -0.8208
  908SOL    HW2 2724   1.406   2.655   1.838 -0.2860 -0.4243 -2.5739
  909SOL     OW 2725   2.671   0.710   1.721 -0.2190  0.0287  0.2475
  909SOL    HW1 2726   2.692   0.606   1.710  1.2144 -2.3542  1.9924
  909SOL    HW2 2727   2.592   0.718   1.783  2.5321  0.3576  0.2524
  910SOL     OW 2728   1.511   0.126   2.469  0.4089  0.2343 -0.1934
  910SOL    HW1 2729   1.467   0.203   2.521  0.8711  1.8102  0.8029
  910SOL    HW2 2730   1.484   0.041   2.518  0.9699 -2.8020  0.5431
  911SOL     OW 2731   2.404   1.481   2.462 -0.3344  0.0104 -0.4212
  911SOL    HW1 2732   2.314   1.510   2.430  0.4258 -1.5877  2.4075
  911SOL    HW2 2733   2.459   1.459   2.380 -0.7277 -0.2714  0.9024
  912SOL     OW 2734   2.340   2.106   1.504 -0.0307  0.4421 -0.0234
  912SOL    HW1 2735   2.342   2.203   1.462 -0.4540  0.8408 -2.5245
  912SOL    HW2 2736   2.273   2.105   1.577  0.0296  0.7757  1.5348
  913SOL     OW 2737   2.481   2.447   1.804  0.3125 -0.7984  0.6702
  913SOL    HW1 2738   2.482   2.536   1.857  0.0749  1.4471 -1.3932
  913SOL    HW2 2739   2.388   2.421   1.763 -2.0760 -0.8477 -0.6731
  914SOL     OW 2740   2.345   2.043   1.232  0.6004 -0.2549 -0.2838
  914SOL    HW1 2741   2.336   2.046   1.337 -0.7396 -1.1390  1.7667
  914SOL    HW2 2742   2.257   2.028   1.189  2.0786  1.9675  1.9600
  915SOL     OW 2743   1.115   2.441   1.556  0.3325  0.2712  0.9861
  915SOL    HW1 2744   1.080   2.391   1.639  0.2320 -1.2516  1.7352
  915SOL    HW2 2745   1.217   2.418   1.546  0.9682  2.5053  2.6527
  916SOL     OW 2746   0.127   2.479   1.062 -0.2121 -1.1551 -0.4636
  916SOL    HW1 2747   0.045   2.516   1.012 -0.9668  0.6914 -0.9485
  916SOL    HW2 2748   0.173   2.545   1.123  2.1564  1.6790 -0.0817
  917SOL     OW 2749   2.843   1.099   2.926  0.0133 -0.4894 -0.3077
  917SOL    HW1 2750   2.763   1.033   2.922  1.6866 -0.9561 -2.8940
  917SOL    HW2 2751   2.869   1.118   2.831  0.4896 -0.4397  1.0281
  918SOL     OW 2752   1.923   1.778   2.879  0.2495 -0.0593  0.6397
  918SOL    HW1 2753   1.882   1.756   2.968 -0.0527 -1.1294  1.1357
  918SOL    HW2 2754   1.982   1.699   2.855  0.0269  1.8119  0.2481
  919SOL     OW 2755   1.360   2.095   1.321  0.1729 -0.3781 -0.2873
  919SOL    HW1 2756   1.380   2.031   1.242 -0.0568  1.2480  0.9439
  919SOL    HW2 2757   1.400   2.063   1.406  0.0378  0.3605 -1.5908
  920SOL     OW 2758   0.834   0.329   2.686  0.3431  0.4302  0.4505
  920SOL    HW1 2759   0.824   0.248   2.748  0.9868 -1.3909 -0.3620
  920SOL    HW2 2760   0.926   0.356   2.698  2.0666  0.3149  1.8788
  921SOL     OW 2761   2.956   2.852   2.642  0.1763  0.4260 -0.1209
  921SOL    HW1 2762   2.941   2.898   2.552 -2.6267  2.3492  0.0276
  921SOL    HW2 2763   3.044   2.803   2.645 -4.3767 -0.7971 -1.0600
  922SOL     OW 2764   2.405   1.829   1.597  0.1597  0.1570  0.0427
  922SOL    HW1 2765   2.494   1.813   1.556  2.0196  3.2272  2.2259
  922SOL    HW2 2766   2.380   1.929   1.594  0.0139 -0.9246  1.3538
  923SOL     OW 2767   0.727   1.906   2.758 -0.1653 -0.2242  0.2368
  923SOL    HW1 2768   0.670   1.892   2.844  0.8115 -0.8611 -0.2117
  923SOL    HW2 2769   0.750   2.006   2.751 -0.7391  4.5361 -0.7118
  924SOL     OW 2770   1.639   0.705   2.474  0.2314 -0.3930 -0.3206
  924SOL    HW1 2771   1.678   0.722   2.570 -0.8744  0.3586  0.4885
  924SOL    HW2 2772   1.715   0.696   2.407 -0.9321  0.1718  1.6901
  925SOL     OW 2773   2.990   0.790   0.160  0.4758 -0.5118 -0.4027
  925SOL    HW1 2774   2.958   0.868   0.103  0.2986  1.9036 -2.4523
  925SOL    HW2 2775   3.007   0.828   0.253  1.5149  0.1330  2.0554
  926SOL     OW 2776   0.001   0.310   0.741 -0.0184  0.0414  0.0167
  926SOL    HW1 2777   0.085   0.265   0.774  0.0504  0.9687 -2.2458
  926SOL    HW2 2778   0.027   0.404   0.720  2.7053 -0.4505 -2.0180
  927SOL     OW 2779   1.220   1.200   0.531 -0.3968 -0.4039 -0.1271
  927SOL    HW1 2780   1.235   1.183   0.433  0.9277  0.7395  0.4943
  927SOL    HW2 2781   1.140   1.148   0.569  3.9588 -1.7543 -0.9899
  928SOL     OW 2782   0.064   3.039   2.252 -0.3611 -0.8229  0.3556
  928SOL    HW1 2783   0.128   2.980   2.304  0.8744  2.1342 -1.0220
  928SOL    HW2 2784   0.084   0.064   2.272 -0.1397  5.3866 -1.9108
  929SOL     OW 2785   2.512   0.535   1.450 -0.6110  0.4253  0.6144
  929SOL    HW1 2786   2.491   0.616   1.508  0.8571 -1.5552  0.4231
  929SOL    HW2 2787   2.522   0.451   1.507  0.3061 -1.1042 -0.1684
  930SOL     OW 2788   1.713   2.164   0.964  0.1875 -0.9382  0.1054
  930SOL    HW1 2789   1.747   2.136   0.872  4.1872 -0.0518 -1.4531
  930SOL    HW2 2790   1.694   2.085   1.029 -0.8862  0.8589  4.5652
  931SOL     OW 2791   1.783   0.842   0.894  0.4270  0.0508  0.4739
  931SOL    HW1 2792   1.819   0.839   0.798  0.5067  1.7256 -3.2450
  931SOL    HW2 2793   1.859   0.852   0.961  2.9494  0.5130 -1.7218
  932SOL     OW 2794   0.118   0.807   1.333 -1.1593  0.0925 -0.6143
  932SOL    HW1 2795   0.054   0.791   1.411 -2.0156 -0.5089 -0.0850
  932SOL    HW2 2796   0.206   0.757   1.331  0.5137 -0.6102  1.6037
  933SOL     OW 2797   2.242   1.932   1.909 -0.0592  0.1751 -0.1554
  933SOL    HW1 2798   2.297   1.995   1.859 -0.3131 -0.0666 -0.3084
  933SOL    HW2 2799   2.146   1.958   1.894  1.8744 -1.5857  1.1603
  934SOL     OW 2800   1.606   0.032   1.183  0.0164 -0.4411 -0.1306
  934SOL    HW1 2801   1.628   0.127   1.166  1.6090 -0.1591  0.3355
  934SOL    HW2 2802   1.559   3.058   1.107 -1.7558  1.2869  1.1815
  935SOL     OW 2803   3.015   1.104   1.255  0.2311 -0.5510  0.1679
  935SOL    HW1 2804   2.933   1.072   1.311 -2.4731 -2.2140 -0.9944
  935SOL    HW2 2805   3.014   1.075   1.159 -0.3009  1.4371  2.4666
  936SOL     OW 2806   2.961   0.742   1.115  0.7110 -0.0463  0.2241
  936SOL    HW1 2807   2.988   0.748   1.209  0.2587 -0.6799 -0.4648
  936SOL    HW2 2808   2.943   0.648   1.081  0.0488  1.6184  0.0529
  937SOL     OW 2809   1.146   2.868   1.043 -0.1938 -0.0590 -0.2841
  937SOL    HW1 2810   1.084   2.791   1.021 -0.8311  1.2252 -1.2370
  937SOL    HW2 2811   1.227   2.864   0.987 -0.2293  1.4361  1.1763
  938SOL     OW 2812   2.894   2.288   0.689  0.2737 -0.0706 -0.4188
  938SOL    HW1 2813   2.839   2.229   0.751 -0.9727  2.4797 -0.9751
  938SOL    HW2 2814   2.841   2.372   0.672 -1.0360 -1.0540  0.8492
  939SOL     OW 2815   0.731   1.650   2.653 -0.5721  0.8486  0.2738
  939SOL    HW1 2816   0.697   1.731   2.697  2.2897 -0.2934 -0.4240
  939SOL    HW2 2817   0.766   1.586   2.725  1.3435 -1.3770 -2.3114
  940SOL     OW 2818   2.830   2.554   2.564  0.1111  0.1046 -0.3611
  940SOL    HW1 2819   2.869   2.477   2.507 -0.3403 -1.7552  0.3303
  940SOL    HW2 2820   2.793   2.630   2.507 -0.1732 -0.0975 -0.3179
  941SOL     OW 2821   1.188   0.243   0.100  0.5140 -0.0165 -0.4003
  941SOL    HW1 2822   1.262   0.314   0.104 -0.2991 -0.9652 -1.6848
  941SOL    HW2 2823   1.156   0.202   0.188 -0.6339  2.2062 -0.1352
  942SOL     OW 2824   1.532   1.792   1.422 -0.2212 -0.0282  0.2795
  942SOL    HW1 2825   1.457   1.734   1.381  0.1289  0.1647 -1.7688
  942SOL    HW2 2826   1.486   1.864   1.476  1.1148  1.0536 -3.1683
  943SOL     OW 2827   2.215   1.318   1.630 -0.0734 -0.6150 -0.2719
  943SOL    HW1 2828   2.140   1.355   1.568 -0.8407  0.0773 -1.8578
  943SOL    HW2 2829   2.308   1.340   1.590  0.6958  0.3087  0.1536
  944SOL     OW 2830   1.819   0.842   1.950 -0.1676 -0.4771  0.0888
  944SOL    HW1 2831   1.790   0.847   1.851  0.0813  2.5078  0.3623
  944SOL    HW2 2832   1.772   0.911   2.009 -0.7498  1.3573  1.0473
  945SOL     OW 2833   2.652   2.612   1.408 -0.2732 -1.1861  0.3434
  945SOL    HW1 2834   2.666   2.625   1.308  2.1504  0.8231  1.4263
  945SOL    HW2 2835   2.724   2.544   1.433 -0.8542 -1.2763 -0.1271
  946SOL     OW 2836   0.885   1.116   1.604 -0.1543 -0.0932 -0.6159
  946SOL    HW1 2837   0.859   1.166   1.519  1.8565 -1.3796 -0.4733
  946SOL    HW2 2838   0.978   1.082   1.580  0.8826 -0.3006  1.0062
  947SOL     OW 2839   0.543   2.418   0.884 -0.3574 -0.0009  0.1272
  947SOL    HW1 2840   0.502   2.501   0.920 -0.6237 -0.2483 -1.8869
  947SOL    HW2 2841   0.467   2.353   0.865  1.4311 -0.2208  0.2093
  948SOL     OW 2842   2.988   1.210   1.787  0.0156  0.3422  0.0164
  948SOL    HW1 2843   3.038   1.169   1.867  3.6341 -0.7429  0.9161
  948SOL    HW2 2844   3.029   1.302   1.768  2.8582  0.7638 -0.9058
  949SOL     OW 2845   0.772   0.498   2.006 -0.1814  1.0686 -0.1063
  949SOL    HW1 2846   0.793   0.506   2.103 -0.1499 -0.5681 -0.1748
  949SOL    HW2 2847   0.699   0.563   1.983 -0.7759 -0.5791 -2.6874
  950SOL     OW 2848   0.551   0.465   0.982  0.2732  0.1036  0.0835
  950SOL    HW1 2849   0.512   0.556   0.970  1.0600 -1.3779 -0.3872
  950SOL    HW2 2850   0.603   0.448   0.895 -2.4774  1.2231  0.7832
  951SOL     OW 2851   1.214   1.736   2.006 -0.6328  0.6761  0.2584
  951SOL    HW1 2852   1.189   1.795   2.092 -1.4482  0.9628  1.6902
  951SOL    HW2 2853   1.162   1.763   1.923 -1.1007 -0.9165 -3.0259
  952SOL     OW 2854   1.191   1.376   2.720 -0.4672  0.4478 -0.3500
  952SOL    HW1 2855   1.233   1.293   2.749 -0.0254  0.3488 -1.2715
  952SOL    HW2 2856   1.254   1.434   2.671 -0.9544 -0.4666  2.8406
  953SOL     OW 2857   1.001   2.858   2.347  0.3962  0.4606  0.1736
  953SOL    HW1 2858   1.025   2.861   2.246  1.8376  2.0818 -2.9427
  953SOL    HW2 2859   0.926   2.922   2.370 -1.3852 -3.2083  0.3964
  954SOL     OW 2860   2.267   1.511   0.777  0.1909 -0.0865 -0.2768
  954SOL    HW1 2861   2.304   1.603   0.737 -0.2259  0.0639 -0.5216
  954SOL    HW2 2862   2.204   1.471   0.707 -1.5507  2.6277  0.6694
  955SOL     OW 2863   0.127   2.293   2.835 -0.3839  0.5103  0.1324
  955SOL    HW1 2864   0.083   2.329   2.750  1.3907 -1.1963  0.6395
  955SOL    HW2 2865   0.084   2.340   2.913  3.0279  0.8522  1.2549
  956SOL     OW 2866   0.921   1.455   1.199  0.0611 -0.9400  0.1254
  956SOL    HW1 2867   1.008   1.408   1.176 -1.3653  0.6912  0.5118
  956SOL    HW2 2868   0.859   1.459   1.121 -0.1199  0.1585 -0.7129
  957SOL     OW 2869   2.138   1.528   2.385  0.3313 -0.5212  0.0585
  957SOL    HW1 2870   2.122   1.545   2.288 -1.6222  0.8661 -0.8515
  957SOL    HW2 2871   2.093   1.442   2.416  0.1758  2.0067  2.7549
  958SOL     OW 2872   1.316   2.571   1.109  0.2886 -0.3819 -0.5700
  958SOL    HW1 2873   1.334   2.592   1.205 -0.1411 -1.8513 -0.6225
  958SOL    HW2 2874   1.321   2.472   1.089  1.8560 -0.1464 -0.6354
  959SOL     OW 2875   1.531   1.734   2.111 -0.4813  0.3239 -0.3431
  959SOL    HW1 2876   1.608   1.790   2.078 -1.3861  0.6863  0.4867
  959SOL    HW2 2877   1.461   1.733   2.035  0.3075  0.4486  2.3835
  960SOL     OW 2878   3.023   0.840   2.699  0.6028  0.4188 -0.3236
  960SOL    HW1 2879   0.026   0.838   2.766  0.3444  0.0604 -0.4759
  960SOL    HW2 2880   3.060   0.818   2.608  0.5244  1.7822  4.3861
  961SOL     OW 2881   0.666   0.714   1.720  0.1383  0.1657  0.3343
  961SOL    HW1 2882   0.680   0.741   1.818  1.0102 -0.8215  2.6111
  961SOL    HW2 2883   0.573   0.742   1.678 -2.3595  1.3024  0.6642
  962SOL     OW 2884   1.375   1.639   0.277 -0.0107 -0.1092  0.4656
  962SOL    HW1 2885   1.275   1.632   0.300 -1.2513  0.2694 -1.3068
  962SOL    HW2 2886   1.419   1.549   0.300  2.2860 -1.2379  0.1764
  963SOL     OW 2887   1.403   2.304   0.001  0.7069 -0.6886  0.0730
  963SOL    HW1 2888   1.444   2.300   2.985 -0.9184 -0.7465  0.5202
  963SOL    HW2 2889   1.375   2.405   0.021 -1.8664  2.4468  2.0673
  964SOL     OW 2890   1.091   2.488   0.420 -0.1712  0.3675  0.8342
  964SOL    HW1 2891   1.089   2.430   0.338  0.2402 -0.1349 -2.0799
  964SOL    HW2 2892   1.081   2.582   0.397  1.0778 -0.3381 -0.8638
  965SOL     OW 2893   0.964   2.650   1.007 -0.2494 -0.2481  0.3919
  965SOL    HW1 2894   0.938   2.551   1.004  1.9553 -1.9758 -2.1771
  965SOL    HW2 2895   0.885   2.711   1.030  0.5893 -1.9399 -2.0346
  966SOL     OW 2896   0.069   1.118   2.941  0.2751  0.4417 -0.4780
  966SOL    HW1 2897   0.089   1.208   2.893 -0.8505 -2.0883 -1.3487
  966SOL    HW2 2898   3.048   1.120   2.971 -0.9508 -0.3876  2.2617
  967SOL     OW 2899   1.252   2.697   1.869  0.2551  0.4329 -0.3253
  967SOL    HW1 2900   1.164   2.737   1.829 -1.0131 -1.1811  0.1812
  967SOL    HW2 2901   1.220   2.624   1.935 -1.3386 -2.0748  1.6398
  968SOL     OW 2902   1.793   0.849   0.446  0.0441 -0.2118 -0.5249
  968SOL    HW1 2903   1.741   0.772   0.396 -1.3671  0.5415 -1.1627
  968SOL    HW2 2904   1.729   0.910   0.495  1.9172 -2.2624  1.3750
  969SOL     OW 2905   0.185   1.642   2.116 -0.0486 -0.3701  0.3018
  969SOL    HW1 2906   0.122   1.658   2.035 -2.0479  1.1944  0.6717
  969SOL    HW2 2907   0.227   1.732   2.142  0.6462  4.7394 -0.0426
  970SOL     OW 2908   2.437   1.406   1.502  0.1306  0.0549 -0.2370
  970SOL    HW1 2909   2.440   1.332   1.429 -1.4867  2.9015 -1.9910
  970SOL    HW2 2910   2.534   1.433   1.523 -1.9876 -2.6193 -1.9852
  971SOL     OW 2911   1.484   0.723   1.625  0.4011 -0.2109  0.8217
  971SOL    HW1 2912   1.533   0.723   1.714  0.9765 -0.5361 -2.2642
  971SOL    HW2 2913   1.426   0.807   1.616 -2.0468 -0.1945  1.3070
  972SOL     OW 2914   0.467   3.063   2.446  0.2020  0.3549  0.4163
  972SOL    HW1 2915   0.490   2.978   2.497  1.9458 -0.0012 -2.2476
  972SOL    HW2 2916   0.515   0.069   2.493 -2.3771 -0.2399  0.9645
  973SOL     OW 2917   2.804   1.206   0.404 -0.1754 -0.1488 -0.6154
  973SOL    HW1 2918   2.790   1.108   0.427  0.9471 -0.6380  1.5649
  973SOL    HW2 2919   2.790   1.262   0.487 -0.4426 -0.9607 -0.2762
  974SOL     OW 2920   2.045   1.150   2.104 -0.3830  0.1684  0.4281
  974SOL    HW1 2921   2.101   1.110   2.030  0.2180 -0.1671  1.0028
  974SOL    HW2 2922   2.001   1.239   2.080  2.3548 -2.2846 -3.8673
  975SOL     OW 2923   2.771   2.540   0.661 -0.3767  0.0205  0.0745
  975SOL    HW1 2924   2.817   2.554   0.565  1.0114 -0.0771 -2.7297
  975SOL    HW2 2925   2.811   2.606   0.729  0.8937  2.9924  1.6904
  976SOL     OW 2926   3.052   1.663   1.923 -0.3413  0.4694  0.2295
  976SOL    HW1 2927   0.008   1.728   1.854 -0.1862 -0.7623  1.1961
  976SOL    HW2 2928   2.964   1.694   1.970 -1.5199 -1.1525  0.0205
  977SOL     OW 2929   0.840   2.586   2.939  0.7366 -0.2605 -0.3049
  977SOL    HW1 2930   0.937   2.599   2.915 -1.8340 -2.0080 -0.3020
  977SOL    HW2 2931   0.841   2.535   3.031  1.8644 -2.6357  2.0332
  978SOL     OW 2932   0.750   1.843   2.425  0.0834 -0.3774  0.1302
  978SOL    HW1 2933   0.740   1.764   2.479  2.0512  1.3922 -1.9112
  978SOL    HW2 2934   0.793   1.918   2.477 -0.9801 -1.4038  0.5705
  979SOL     OW 2935   1.312   2.288   1.126  0.1341  0.0694 -0.0331
  979SOL    HW1 2936   1.333   2.220   1.198  1.0565  0.6849 -0.5916
  979SOL    HW2 2937   1.288   2.233   1.044  1.1466  0.1505  1.4640
  980SOL     OW 2938   0.522   1.440   2.844 -0.0124  0.1137  0.6055
  980SOL    HW1 2939   0.516   1.403   2.749 -1.1560 -3.2010 -0.2324
  980SOL    HW2 2940   0.613   1.489   2.851 -1.4285 -0.2527 -3.2135
  981SOL     OW 2941   2.759   0.213   2.553 -0.1427  0.4887  0.0051
  981SOL    HW1 2942   2.696   0.191   2.476  3.3401  1.5230 -1.2054
  981SOL    HW2 2943   2.749   0.145   2.627  1.5233  2.3426 -2.1467
  982SOL     OW 2944   3.073   2.454   2.651  0.4825 -0.2488 -0.1217
  982SOL    HW1 2945   0.064   2.500   2.590 -0.8331  0.1716 -1.9829
  982SOL    HW2 2946   2.982   2.503   2.641 -1.1560 -0.2009 -1.0799
  983SOL     OW 2947   2.284   0.844   1.808 -0.1825  0.2214  0.4449
  983SOL    HW1 2948   2.299   0.939   1.781 -0.2959  0.4232  0.5165
  983SOL    HW2 2949   2.363   0.812   1.864  2.8518  3.0435 -0.6896
  984SOL     OW 2950   1.390   0.158   2.222  0.1142  0.1996  0.3157
  984SOL    HW1 2951   1.450   0.232   2.182 -0.1478  0.0625  0.2975
  984SOL    HW2 2952   1.440   0.112   2.298 -0.8270 -0.5895 -1.3868
  985SOL     OW 2953   1.515   2.085   2.542  0.1558 -0.0139  0.3618
  985SOL    HW1 2954   1.468   2.098   2.452 -0.5119  0.9916 -0.6122
  985SOL    HW2 2955   1.612   2.056   2.519  2.2875 -0.3688 -1.1900
  986SOL     OW 2956   2.130   0.501   2.253 -0.6315  0.4215 -0.5007
  986SOL    HW1 2957   2.166   0.597   2.253 -1.6470  0.7027  1.2341
  986SOL    HW2 2958   2.104   0.470   2.160  0.7732 -0.9803 -0.2187
  987SOL     OW 2959   2.384   0.417   2.256  0.4939  0.3606  0.3777
  987SOL    HW1 2960   2.286   0.419   2.286  1.8813  0.1089  1.5759
  987SOL    HW2 2961   2.435   0.344   2.299 -0.1564 -2.8808  0.0532
  988SOL     OW 2962   2.337   0.784   2.572 -0.4691 -0.3041  0.0173
  988SOL    HW1 2963   2.237   0.774   2.577  3.4823 -0.1873  0.5480
  988SOL    HW2 2964   2.377   0.707   2.521  0.2222 -1.6205  0.1380
  989SOL     OW 2965   2.531   2.454   2.544 -0.4233 -0.2644  0.0021
  989SOL    HW1 2966   2.436   2.430   2.510 -0.3944 -1.7899 -0.8246
  989SOL    HW2 2967   2.597   2.420   2.475 -0.3665  0.9551  3.1893
  990SOL     OW 2968   0.280   0.477   0.112  0.4063 -0.5247  0.0802
  990SOL    HW1 2969   0.278   0.496   0.214 -1.6217  1.1749  0.9849
  990SOL    HW2 2970   0.210   0.536   0.061 -4.6878  0.3522  1.0838
  991SOL     OW 2971   0.600   0.483   2.761  0.1104 -0.2057 -0.3359
  991SOL    HW1 2972   0.528   0.450   2.825 -0.2764  0.7710 -0.7283
  991SOL    HW2 2973   0.661   0.411   2.732 -0.9096 -3.3064 -0.6150
  992SOL     OW 2974   2.706   2.085   2.060  0.2357 -0.0189  0.4620
  992SOL    HW1 2975   2.624   2.147   2.051 -1.4121  0.1645  1.2789
  992SOL    HW2 2976   2.780   2.102   1.992  1.4165  0.6253 -2.2250
  993SOL     OW 2977   0.667   2.811   0.684 -0.5151  0.7353 -0.3188
  993SOL    HW1 2978   0.696   2.871   0.602  3.2091  0.3704  0.6987
  993SOL    HW2 2979   0.699   2.853   0.768 -0.6013 -2.4392 -3.2031
  994SOL     OW 2980   0.248   1.956   1.805 -0.1057  0.1430  1.1564
  994SOL    HW1 2981   0.311   1.982   1.881  0.7404 -0.3026 -0.7752
  994SOL    HW2 2982   0.281   1.975   1.710 -4.0043 -0.4569 -1.1610
  995SOL     OW 2983   2.344   1.797   0.400  0.4092  0.5644  0.6263
  995SOL    HW1 2984   2.355   1.899   0.403 -1.4828  0.7286 -2.0800
  995SOL    HW2 2985   2.244   1.776   0.370 -2.3595 -0.6792  1.6487
  996SOL     OW 2986   1.487   1.337   2.537  0.2620 -0.4906  0.2531
  996SOL    HW1 2987   1.400   1.321   2.487  0.0738 -0.5787  0.4747
  996SOL    HW2 2988   1.557   1.392   2.485  0.0154  0.7073 -0.7074
  997SOL     OW 2989   1.826   1.460   1.732 -0.4071  0.4715  0.4045
  997SOL    HW1 2990   1.764   1.537   1.702 -0.5563  0.8074 -1.0565
  997SOL    HW2 2991   1.825   1.385   1.665 -1.1549 -2.9649 -2.5979
  998SOL     OW 2992   2.794   1.558   0.418  0.0782  0.1215 -0.4617
  998SOL    HW1 2993   2.754   1.577   0.508  1.5783 -0.8162 -0.2172
  998SOL    HW2 2994   2.720   1.534   0.355 -0.9502 -0.4401  1.0319
  999SOL     OW 2995   2.490   2.599   0.339 -0.2745  0.2504 -0.4329
  999SOL    HW1 2996   2.429   2.583   0.419 -0.0073 -3.0155 -0.3219
  999SOL    HW2 2997   2.516   2.515   0.287 -0.2394 -1.7608 -2.0082
 1000SOL     OW 2998   0.753   2.903   2.163 -0.5760  0.4852 -0.3030
 1000SOL    HW1 2999   0.799   2.983   2.121 -0.2995 -0.6449  0.6889
 1000SOL    HW2 3000   0.827   2.835   2.187 -0.7626  3.0129  1.1945
   3.07409   3.07409   3.07409
