1000 SPC/Fw water molecules t= 225.00000 step= 225000
 3000
    1SOL     OW    1   3.049   2.865   0.847  0.1058 -0.2211 -0.2739
    1SOL    HW1    2   0.025   2.816   0.900  1.6673  0.8988  1.9983
    1SOL    HW2    3   3.035   2.959   0.884 -2.1802 -0.3257  0.3111
    2SOL     OW    4   1.932   1.761   1.904  0.1212 -0.1550 -0.3574
    2SOL    HW1    5   1.860   1.742   1.973 -0.0793  0.7920 -1.2053
    2SOL    HW2    6   1.915   1.713   1.815 -0.9635 -1.6400 -1.0535
    3SOL     OW    7   1.552   2.149   2.416  0.4278  0.3313 -0.3797
    3SOL    HW1    8   1.493   2.188   2.486  2.2889  0.7014 -0.0864
    3SOL    HW2    9   1.646   2.189   2.422 -1.3459  0.7081 -0.9822
    4SOL     OW   10   2.185   2.073   2.366 -0.0837  0.0724  0.4494
    4SOL    HW1   11   2.217   2.174   2.366 -0.6659  1.4205  1.0454
    4SOL    HW2   12   2.239   2.008   2.422  0.0109 -1.2750 -1.1358
    5SOL     OW   13   1.538   0.960   1.577  0.0040  0.3270 -0.0583
    5SOL    HW1   14   1.585   0.949   1.484 -0.2916 -0.1950 -4.2978
    5SOL    HW2   15   1.434   0.967   1.580 -0.5336 -0.1450 -0.7000
    6SOL     OW   16   2.800   0.305   3.036  0.0974 -0.1257 -0.3795
    6SOL    HW1   17   2.897   0.332   3.030 -0.8804  2.4588  1.5568
    6SOL    HW2   18   2.792   0.210   3.066  0.8523  1.8981  1.8980
    7SOL     OW   19   0.158   1.535   1.330 -0.1831  0.0247 -0.0926
    7SOL    HW1   20   0.248   1.479   1.328  0.4834 -3.1387 -0.3073
    7SOL    HW2   21   0.173   1.625   1.285 -1.0640 -1.8849 -0.2655
    8SOL     OW   22   1.135   0.322   0.960  0.1088 -0.4411 -0.0693
    8SOL    HW1   23   1.207   0.395   0.940  2.5822 -0.0116 -0.0042
    8SOL    HW2   24   1.110   0.333   1.058  1.3216 -0.7589  3.2202
    9SOL     OW   25   1.190   0.556   2.466 -0.0574 -0.0320  0.0674
    9SOL    HW1   26   1.205   0.654   2.483  1.0585 -1.4108  0.8273
    9SOL    HW2   27   1.275   0.520   2.421 -1.0682  0.1657 -0.6097
   10SOL     OW   28   0.744   2.427   2.974  0.2367  0.1408 -0.2198
   10SOL    HW1   29   0.831   2.403   2.926 -0.4281 -0.3999 -2.2695
   10SOL    HW2   30   0.753   2.389   3.066  1.9188 -1.6446 -1.2372
   11SOL     OW   31   0.755   1.073   0.102 -0.6461  0.7499  0.0849
   11SOL    HW1   32   0.791   1.060   0.007 -1.2628 -0.0134  0.5111
   11SOL    HW2   33   0.665   1.031   0.106  1.6673  1.7934 -0.1928
   12SOL     OW   34   0.058   0.153   1.741 -0.0025 -0.4014 -0.1283
   12SOL    HW1   35   0.034   0.251   1.711  1.3880 -0.8098 -0.5466
   12SOL    HW2   36   0.160   0.147   1.738 -2.0583  1.6531  1.2022
   13SOL     OW   37   1.340   0.149   0.255  0.2921  0.0551 -0.1103
   13SOL    HW1   38   1.259   0.101   0.220  0.6717 -0.6798 -0.0358
   13SOL    HW2   39   1.319   0.197   0.343 -0.4008 -0.9884  2.2560
   14SOL     OW   40   1.156   2.520   1.173  0.0516 -0.0612 -0.1866
   14SOL    HW1   41   1.198   2.509   1.264 -2.1123 -1.7013  0.8294
   14SOL    HW2   42   1.149   2.434   1.125 -3.7499 -3.0547  0.9211
   15SOL     OW   43   2.677   1.121   1.705 -0.5520  0.3469 -0.2095
   15SOL    HW1   44   2.726   1.100   1.794 -2.1544 -2.4210  1.7958
   15SOL    HW2   45   2.612   1.047   1.679  0.5614  1.1298 -2.1576
   16SOL     OW   46   1.849   2.990   2.999  0.2626  0.1227  0.0516
   16SOL    HW1   47   1.914   2.931   2.945 -1.0043 -2.2763  1.9109
   16SOL    HW2   48   1.888   3.085   2.999  1.7568  1.2121  0.8354
   17SOL     OW   49   1.020   0.081   1.298 -0.1086  0.1274 -0.0083
   17SOL    HW1   50   0.935   0.087   1.244  2.8406 -0.7771 -2.2476
   17SOL    HW2   51   1.041   3.086   1.341 -1.6261  1.7870  1.4256
   18SOL     OW   52   1.460   0.579   3.039 -0.6368 -0.2893  0.2648
   18SOL    HW1   53   1.479   0.494   3.098 -2.8974  0.0417 -1.5415
   18SOL    HW2   54   1.515   0.659   3.074 -2.0387 -0.7816 -0.8966
   19SOL     OW   55   2.182   1.889   0.215  0.2163  0.7963 -1.0664
   19SOL    HW1   56   2.166   1.808   0.278 -0.0887  0.0887  0.1975
   19SOL    HW2   57   2.176   1.980   0.268 -0.1829 -0.8680  0.5709
   20SOL     OW   58   2.054   1.597   1.649  0.0039 -0.2004  0.1169
   20SOL    HW1   59   2.152   1.586   1.669 -0.4294 -1.2945  0.9621
   20SOL    HW2   60   1.998   1.525   1.690  0.7497  2.9168 -0.3895
   21SOL     OW   61   0.848   1.094   2.891 -1.2458 -0.3275 -0.4535
   21SOL    HW1   62   0.793   1.088   2.810  1.9015  0.5172  1.9327
   21SOL    HW2   63   0.902   1.183   2.898  2.6400  0.4326  0.3893
   22SOL     OW   64   2.077   3.023   1.369 -0.0351  0.0020 -0.1775
   22SOL    HW1   65   1.979   3.001   1.383  0.0114 -3.3371 -2.6327
   22SOL    HW2   66   2.097   0.015   1.329  1.6225 -0.0853 -2.1028
   23SOL     OW   67   3.036   0.411   1.694 -0.6497 -0.0569 -0.1651
   23SOL    HW1   68   3.077   0.455   1.610 -0.1485  1.1059 -2.5215
   23SOL    HW2   69   2.945   0.451   1.708  0.8766  1.4170  1.5803
   24SOL     OW   70   2.252   2.554   1.182  0.0363  0.1882  0.0333
   24SOL    HW1   71   2.330   2.519   1.236 -3.1964  1.6277 -4.4195
   24SOL    HW2   72   2.192   2.610   1.242  0.9689  0.0065 -0.2849
   25SOL     OW   73   1.685   2.820   2.445 -0.2009 -0.2246  0.0383
   25SOL    HW1   74   1.727   2.816   2.351 -2.9608  0.2485 -0.0006
   25SOL    HW2   75   1.593   2.780   2.441  0.1676  0.3456  1.3699
   26SOL     OW   76   1.646   2.600   3.041 -0.0371 -0.6130  0.6038
   26SOL    HW1   77   1.618   2.583   2.942 -1.6529 -0.1651 -3.4183
   26SOL    HW2   78   1.739   2.557   3.060  0.6746 -1.1897 -1.4220
   27SOL     OW   79   0.373   1.553   2.640  0.3840 -0.0228 -0.5943
   27SOL    HW1   80   0.313   1.605   2.707 -1.0795 -0.9636  0.1666
   27SOL    HW2   81   0.412   1.615   2.569 -2.2965  1.6162 -0.3622
   28SOL     OW   82   2.872   1.157   1.373 -0.1206  0.0360 -0.2343
   28SOL    HW1   83   2.941   1.163   1.297 -0.6909  0.2656  2.0123
   28SOL    HW2   84   2.905   1.208   1.453  0.4651  0.8002  1.4623
   29SOL     OW   85   2.619   2.405   2.067 -0.3986 -0.7759 -0.0929
   29SOL    HW1   86   2.694   2.356   2.108 -0.6036  0.7083 -2.0236
   29SOL    HW2   87   2.653   2.482   2.009 -2.1068 -0.9683 -1.1864
   30SOL     OW   88   1.658   0.328   3.005  0.3948 -0.1548  0.4276
   30SOL    HW1   89   1.559   0.311   3.010 -1.5472 -0.9275  0.8413
   30SOL    HW2   90   1.694   0.345   3.097  1.1684  0.0866 -3.7959
   31SOL     OW   91   2.727   2.591   1.886 -0.8334 -0.0423  0.3356
   31SOL    HW1   92   2.810   2.635   1.930 -2.3436  1.2130  3.7457
   31SOL    HW2   93   2.671   2.650   1.825 -3.1014  0.4025 -1.5843
   32SOL     OW   94   1.264   1.356   1.463  0.0782  0.8006  0.2281
   32SOL    HW1   95   1.315   1.421   1.398 -1.7546  3.6041 -1.9087
   32SOL    HW2   96   1.178   1.321   1.426 -1.4661  0.1404 -0.4709
   33SOL     OW   97   0.283   2.808   2.479  0.2762  0.2593 -0.0633
   33SOL    HW1   98   0.332   2.759   2.403  3.4898 -3.6309 -2.0081
   33SOL    HW2   99   0.201   2.757   2.512 -2.0083 -1.5846  0.5864
   34SOL     OW  100   1.779   3.098   0.817 -0.1064 -0.4858  0.4204
   34SOL    HW1  101   1.722   0.015   0.733  0.4961  1.2740 -2.7177
   34SOL    HW2  102   1.878   0.023   0.805  0.7414 -0.6902 -0.1098
   35SOL     OW  103   2.021   0.097   0.763 -0.8426  0.2500 -0.2272
   35SOL    HW1  104   2.076   0.088   0.680 -0.7686  0.7519  3.2245
   35SOL    HW2  105   2.086   0.102   0.844  2.7879  3.4312  1.2821
   36SOL     OW  106   1.808   2.762   2.212 -0.8008 -0.1499 -0.0982
   36SOL    HW1  107   1.890   2.727   2.151  1.3100 -2.3224 -0.7386
   36SOL    HW2  108   1.732   2.699   2.198 -1.9758  0.9952 -0.5710
   37SOL     OW  109   0.886   2.889   2.202  0.2780 -0.2810  0.3214
   37SOL    HW1  110   0.851   2.862   2.109 -2.2070  2.1367 -0.0101
   37SOL    HW2  111   0.946   2.817   2.247  1.3377 -1.1930  0.3212
   38SOL     OW  112   3.070   2.859   2.652 -0.5024  0.5639 -0.1834
   38SOL    HW1  113   3.099   2.770   2.616 -0.9035  0.7429 -0.7319
   38SOL    HW2  114   3.071   2.931   2.581 -2.4815 -0.5048 -1.0567
   39SOL     OW  115   2.382   1.409   1.965 -0.3790  0.3451  0.5523
   39SOL    HW1  116   2.476   1.452   1.962 -2.9581 -1.2163 -1.2451
   39SOL    HW2  117   2.314   1.484   1.978 -0.7057  0.5089 -0.3175
   40SOL     OW  118   0.356   3.040   2.773 -0.4143 -0.4446  0.5418
   40SOL    HW1  119   0.395   3.100   2.845 -0.5696  1.0211  0.1971
   40SOL    HW2  120   0.424   3.025   2.698  0.0424 -1.6014 -1.0450
   41SOL     OW  121   1.607   0.699   0.918 -0.5670  0.1734  0.1579
   41SOL    HW1  122   1.681   0.734   0.858  0.8371 -0.6157 -2.4820
   41SOL    HW2  123   1.530   0.766   0.911  1.3073  0.5916 -2.9553
   42SOL     OW  124   0.530   0.683   1.421 -0.1495 -0.5802 -0.5299
   42SOL    HW1  125   0.578   0.594   1.417 -0.7139 -0.2790 -1.8120
   42SOL    HW2  126   0.504   0.708   1.328 -1.2718  0.5095 -1.4675
   43SOL     OW  127   2.643   1.563   2.733  0.2418  0.5298  0.5609
   43SOL    HW1  128   2.683   1.481   2.778  0.2989 -1.3361  3.8422
   43SOL    HW2  129   2.662   1.648   2.787  1.0309  0.5611  0.4979
   44SOL     OW  130   3.029   2.618   0.472 -0.2642 -0.4073 -0.4948
   44SOL    HW1  131   3.028   2.712   0.509  0.8848  2.7394  0.0842
   44SOL    HW2  132   2.964   2.556   0.525 -0.4274  1.1386  2.6433
   45SOL     OW  133   0.379   2.570   1.630 -0.0542  0.1143  0.1967
   45SOL    HW1  134   0.373   2.473   1.597  0.0415  2.0724  0.8283
   45SOL    HW2  135   0.292   2.621   1.627 -1.6217  0.4489 -1.4383
   46SOL     OW  136   2.311   2.342   2.327  0.3597  0.2497  0.0247
   46SOL    HW1  137   2.410   2.331   2.362 -1.2568  0.2715 -0.2748
   46SOL    HW2  138   2.315   2.396   2.242  3.5978 -1.3091  4.3034
   47SOL     OW  139   2.207   1.988   1.451  0.1017 -0.7164 -0.1428
   47SOL    HW1  140   2.205   2.050   1.373  2.0306 -0.1120  2.6491
   47SOL    HW2  141   2.119   1.974   1.501 -1.8720 -0.1837 -0.0629
   48SOL     OW  142   0.694   1.714   0.234  0.7059 -0.7132 -0.6303
   48SOL    HW1  143   0.749   1.630   0.241  1.2497  0.7500 -0.6345
   48SOL    HW2  144   0.598   1.700   0.264  1.6969 -0.0778 -1.7097
   49SOL     OW  145   2.898   0.378   2.625 -0.0863 -0.1819  0.3657
   49SOL    HW1  146   2.850   0.326   2.551  2.2099 -0.7231 -1.6769
   49SOL    HW2  147   2.979   0.424   2.590 -1.9241  0.0110 -1.0835
   50SOL     OW  148   2.277   0.851   0.298 -0.2435 -0.7162  0.5192
   50SOL    HW1  149   2.235   0.930   0.346 -0.0751 -3.0800  1.7421
   50SOL    HW2  150   2.213   0.773   0.310  0.3477  0.4474 -1.3651
   51SOL     OW  151   2.103   0.712   1.034  0.4720 -0.1414  0.1953
   51SOL    HW1  152   2.107   0.769   0.950 -1.0846  4.6668  0.4684
   51SOL    HW2  153   2.023   0.647   1.026  0.9159  2.0639 -1.2941
   52SOL     OW  154   1.257   1.270   2.775 -0.4572 -0.5978  0.3691
   52SOL    HW1  155   1.323   1.336   2.822 -0.4292  0.5375 -0.2532
   52SOL    HW2  156   1.253   1.174   2.818 -0.6822  0.1502 -0.0978
   53SOL     OW  157   0.841   1.609   1.777 -0.2116 -0.1644 -0.6962
   53SOL    HW1  158   0.748   1.620   1.819  2.8742 -0.7661 -0.0494
   53SOL    HW2  159   0.842   1.652   1.685  1.4427 -0.5581  2.5563
   54SOL     OW  160   1.877   0.330   0.797  0.3548  0.1732 -0.2400
   54SOL    HW1  161   1.916   0.232   0.796 -1.1470  2.1935  0.1632
   54SOL    HW2  162   1.933   0.394   0.738  0.9326 -1.0866 -1.8271
   55SOL     OW  163   2.631   2.138   1.337  0.1439  0.1620 -0.3690
   55SOL    HW1  164   2.631   2.212   1.266 -0.6037 -0.3667 -0.6069
   55SOL    HW2  165   2.667   2.054   1.302  0.8082  1.9486 -1.7809
   56SOL     OW  166   1.033   2.940   1.430  0.2614 -0.2896 -0.3507
   56SOL    HW1  167   0.989   2.870   1.367 -0.6928 -1.0971 -0.4798
   56SOL    HW2  168   1.101   2.902   1.493  1.5600  1.9258 -1.2446
   57SOL     OW  169   1.605   1.407   0.359 -0.4428 -0.2347 -0.2786
   57SOL    HW1  170   1.669   1.408   0.436 -1.7678 -1.8971 -2.7714
   57SOL    HW2  171   1.605   1.498   0.311 -2.3397  2.4609  0.1894
   58SOL     OW  172   2.968   0.516   2.325 -0.2076  0.3333 -0.0577
   58SOL    HW1  173   2.949   0.470   2.235 -1.0496 -0.6987 -1.5309
   58SOL    HW2  174   2.922   0.609   2.337 -0.9729 -1.0783  0.9456
   59SOL     OW  175   1.042   2.710   2.357  0.0233  0.0356 -0.4955
   59SOL    HW1  176   1.109   2.744   2.420 -0.0977  0.0304 -3.4313
   59SOL    HW2  177   0.981   2.638   2.399 -1.6402 -1.0401 -0.6997
   60SOL     OW  178   2.661   2.596   0.744  0.4216  0.5133  0.1569
   60SOL    HW1  179   2.629   2.529   0.819 -2.5309 -0.9208  1.0401
   60SOL    HW2  180   2.588   2.610   0.675 -0.9015  0.1025 -1.8391
   61SOL     OW  181   1.395   2.263   0.675 -0.1657 -0.1714 -0.1390
   61SOL    HW1  182   1.346   2.346   0.709  2.4123  0.3272  0.7917
   61SOL    HW2  183   1.359   2.179   0.716  0.2590  0.3809 -2.3865
   62SOL     OW  184   2.502   2.059   2.612  0.6643  0.6113 -0.2830
   62SOL    HW1  185   2.500   2.024   2.709  0.7247  1.7471  1.9846
   62SOL    HW2  186   2.425   2.001   2.566 -4.0702 -0.7045  0.7918
   63SOL     OW  187   2.269   0.115   2.825 -0.4025  0.4179  0.4902
   63SOL    HW1  188   2.302   0.205   2.792  1.1786 -4.2888  1.1386
   63SOL    HW2  189   2.343   0.046   2.825 -2.5807 -0.7574  0.0714
   64SOL     OW  190   1.129   0.886   2.745  0.4573  0.6027  0.4065
   64SOL    HW1  191   1.102   0.909   2.843  0.4591 -0.4757  0.1399
   64SOL    HW2  192   1.213   0.834   2.734 -0.9145 -1.3924 -1.2357
   65SOL     OW  193   1.407   2.143   0.223  0.3424  0.2666 -0.1511
   65SOL    HW1  194   1.375   2.205   0.298  1.2854 -1.4004 -0.0622
   65SOL    HW2  195   1.508   2.154   0.205  2.1546  1.8808 -2.9999
   66SOL     OW  196   0.095   1.188   1.689  0.0373 -0.4349 -0.5771
   66SOL    HW1  197   0.145   1.198   1.780 -0.2482  0.4624 -2.4341
   66SOL    HW2  198   0.159   1.227   1.611  1.3778  0.5589  0.2382
   67SOL     OW  199   2.593   0.325   2.685  0.0496 -0.3105  0.6457
   67SOL    HW1  200   2.601   0.299   2.589 -2.1286  4.4660  2.2432
   67SOL    HW2  201   2.654   0.268   2.741  0.4867  0.3270  0.1888
   68SOL     OW  202   0.420   2.347   1.127 -0.0256 -0.5676 -0.2036
   68SOL    HW1  203   0.520   2.344   1.142 -1.1887  0.2749  0.5677
   68SOL    HW2  204   0.376   2.263   1.156  1.4724  0.6677 -2.2258
   69SOL     OW  205   0.907   2.468   0.266 -0.6545  0.4219 -0.0189
   69SOL    HW1  206   0.870   2.550   0.223  2.3556 -0.5061 -1.7054
   69SOL    HW2  207   0.923   2.482   0.367  0.5989  2.3208  1.1656
   70SOL     OW  208   2.876   1.121   2.869 -0.2352 -0.0381  0.0451
   70SOL    HW1  209   2.848   1.042   2.925 -0.3753 -0.5974  0.4153
   70SOL    HW2  210   2.913   1.082   2.782  1.7904  0.3570 -0.1514
   71SOL     OW  211   0.359   1.198   2.589  0.0578 -0.1014  0.1233
   71SOL    HW1  212   0.340   1.269   2.520  0.0646 -1.1382  0.6672
   71SOL    HW2  213   0.379   1.244   2.679  0.6084  0.1364  2.1934
   72SOL     OW  214   0.121   2.235   0.410 -0.3456 -0.6202  0.1110
   72SOL    HW1  215   0.057   2.234   0.334 -0.1111 -0.9609 -1.1071
   72SOL    HW2  216   0.175   2.324   0.405 -4.0779  2.5249  0.7271
   73SOL     OW  217   0.684   1.320   0.181  0.5619 -0.1233  0.0170
   73SOL    HW1  218   0.757   1.386   0.211  0.1455 -0.2158 -0.3330
   73SOL    HW2  219   0.732   1.229   0.168  2.1950  1.4287  2.0329
   74SOL     OW  220   2.961   0.121   0.226  0.4536 -0.0414  1.0609
   74SOL    HW1  221   2.940   0.076   0.134 -2.5079  1.4101 -2.1822
   74SOL    HW2  222   3.057   0.159   0.234  0.7135 -0.3671  1.1977
   75SOL     OW  223   2.337   1.723   2.308  0.0238  0.2366 -0.2996
   75SOL    HW1  224   2.416   1.718   2.244  0.5682  0.9624 -0.9509
   75SOL    HW2  225   2.254   1.729   2.257  3.1268  1.8794  3.5359
   76SOL     OW  226   2.126   2.573   1.510  0.1215 -0.4529  0.0511
   76SOL    HW1  227   2.217   2.586   1.552  0.6242 -2.4419  1.1729
   76SOL    HW2  228   2.101   2.632   1.429 -0.3872  1.4089 -3.6521
   77SOL     OW  229   2.583   0.436   1.424 -0.1467 -0.1400 -0.3730
   77SOL    HW1  230   2.585   0.521   1.481  0.8180  0.0888 -0.3680
   77SOL    HW2  231   2.600   0.358   1.487  0.0897  0.8588 -0.2284
   78SOL     OW  232   1.839   1.331   0.052  0.2758  0.0102 -0.1709
   78SOL    HW1  233   1.865   1.337   3.054 -0.5927  0.5123  2.6841
   78SOL    HW2  234   1.911   1.386   0.106  3.0318 -0.0217  0.8856
   79SOL     OW  235   0.762   1.789   2.077 -0.5013  0.3449  0.1025
   79SOL    HW1  236   0.688   1.784   2.008  2.8717  0.6345 -0.8211
   79SOL    HW2  237   0.800   1.697   2.104 -1.6514  0.1045 -1.9068
   80SOL     OW  238   1.477   0.998   1.091 -0.1626  0.7578  0.1591
   80SOL    HW1  239   1.450   1.091   1.073  0.5261 -1.7744  0.2182
   80SOL    HW2  240   1.574   0.988   1.078 -0.7092  0.6446 -2.2029
   81SOL     OW  241   0.639   0.441   1.369  0.2644  0.1000  0.5261
   81SOL    HW1  242   0.546   0.427   1.333  3.4200  0.1232  0.6866
   81SOL    HW2  243   0.696   0.469   1.291 -1.7667 -2.1602 -1.5693
   82SOL     OW  244   1.474   2.415   1.700  0.1923  0.2809 -0.6218
   82SOL    HW1  245   1.432   2.320   1.714  0.0439 -2.9377  0.3314
   82SOL    HW2  246   1.465   2.444   1.602 -1.6085  1.1656 -3.4461
   83SOL     OW  247   0.760   0.042   1.115 -0.6072  0.4347  0.1202
   83SOL    HW1  248   0.687   0.114   1.111  0.1799  0.1229 -1.8518
   83SOL    HW2  249   0.829   0.054   1.043 -0.5663  0.2050  2.3848
   84SOL     OW  250   0.023   0.819   3.045  0.1003  0.2507 -0.0571
   84SOL    HW1  251   0.087   0.858   2.974  0.2857 -0.8478  0.6127
   84SOL    HW2  252   3.037   0.790   2.991 -2.1557 -1.7280 -2.6726
   85SOL     OW  253   2.919   2.258   1.571  0.4418 -0.2434 -0.0971
   85SOL    HW1  254   2.889   2.304   1.483  1.0933  0.1705 -2.7355
   85SOL    HW2  255   2.859   2.283   1.653 -0.2388  1.7578  1.2787
   86SOL     OW  256   3.086   2.571   1.758 -0.0270 -0.3722  0.0909
   86SOL    HW1  257   3.000   2.603   1.710  1.4181  0.0016  1.1058
   86SOL    HW2  258   0.066   2.639   1.753  0.8188  2.1420  2.5363
   87SOL     OW  259   2.907   2.517   2.924  1.0444 -0.2544 -0.2589
   87SOL    HW1  260   2.854   2.471   2.853  0.7923  1.7864  1.7589
   87SOL    HW2  261   2.866   2.508   3.018  0.2431 -0.6621  2.2923
   88SOL     OW  262   0.038   1.949   1.308 -0.1713 -0.0539  0.2673
   88SOL    HW1  263   0.005   1.987   1.219  0.3143  0.5393 -2.1060
   88SOL    HW2  264   0.109   1.878   1.296 -0.0527 -0.4887  0.4838
   89SOL     OW  265   1.150   0.687   1.815 -0.7347  0.1226 -0.9140
   89SOL    HW1  266   1.052   0.713   1.835  1.9955 -0.4091 -2.9210
   89SOL    HW2  267   1.164   0.614   1.746  3.2349  1.5484 -0.4786
   90SOL     OW  268   2.863   1.442   1.835 -0.3917  0.1476  0.3184
   90SOL    HW1  269   2.929   1.399   1.902 -1.4810 -0.5510 -0.4931
   90SOL    HW2  270   2.908   1.514   1.781  0.3061 -0.1312 -2.6600
   91SOL     OW  271   1.020   2.008   0.661 -0.0691  0.0061  0.1916
   91SOL    HW1  272   1.006   2.039   0.561  0.4895 -2.5784 -1.4319
   91SOL    HW2  273   1.081   1.924   0.659  0.5519  1.4515  1.3070
   92SOL     OW  274   2.309   0.396   0.913  0.4740 -0.2375 -0.1414
   92SOL    HW1  275   2.403   0.381   0.877 -0.1845  0.4855  0.5213
   92SOL    HW2  276   2.315   0.435   1.007  0.1788 -0.6082 -2.0898
   93SOL     OW  277   2.466   1.489   0.052 -0.5506 -0.6284  0.1371
   93SOL    HW1  278   2.441   1.428   3.080 -0.8178 -1.1322  3.6894
   93SOL    HW2  279   2.418   1.579   0.047 -0.4856  2.8652  0.1937
   94SOL     OW  280   2.559   2.255   2.441  0.2544 -0.3888 -0.0796
   94SOL    HW1  281   2.534   2.181   2.510  1.5240  1.6806 -4.3885
   94SOL    HW2  282   2.656   2.282   2.450 -1.2221  2.4465 -1.9735
   95SOL     OW  283   1.880   0.524   0.986 -0.5093  0.3891 -0.1961
   95SOL    HW1  284   1.792   0.573   0.997  0.1954  0.7791  2.1153
   95SOL    HW2  285   1.867   0.440   0.924  1.5054 -1.9311 -1.9403
   96SOL     OW  286   2.784   3.007   1.719  0.0541 -0.1590  0.5779
   96SOL    HW1  287   2.828   2.980   1.805  1.1766  0.7318 -2.3005
   96SOL    HW2  288   2.840   2.979   1.642  1.3888  2.3214  1.4552
   97SOL     OW  289   2.183   0.124   1.240 -0.2615 -0.2304 -0.1991
   97SOL    HW1  290   2.167   0.123   1.142 -0.9999 -1.3457  1.0129
   97SOL    HW2  291   2.255   0.193   1.263  1.2388  2.8116  2.1535
   98SOL     OW  292   1.507   2.396   1.411  0.3411 -0.0718 -1.0704
   98SOL    HW1  293   1.589   2.414   1.355 -0.2272 -0.2721  0.8182
   98SOL    HW2  294   1.509   2.298   1.442  0.5562 -1.1054 -0.3719
   99SOL     OW  295   2.966   2.673   1.998  0.0272  0.0620 -0.4957
   99SOL    HW1  296   3.025   2.617   1.937 -0.0173  0.4489  0.1900
   99SOL    HW2  297   3.012   2.675   2.091 -1.1131 -0.3721  1.9384
  100SOL     OW  298   0.186   0.756   2.665  0.3406 -0.1152 -0.5473
  100SOL    HW1  299   0.182   0.805   2.752  0.5406 -2.4379  1.6381
  100SOL    HW2  300   0.285   0.743   2.640 -0.0675  2.9147  4.0217
  101SOL     OW  301   1.746   1.056   0.054  0.2471 -0.0712  0.0037
  101SOL    HW1  302   1.800   1.063   0.140  1.8778  1.4801 -0.8577
  101SOL    HW2  303   1.738   1.153   0.019 -4.3240 -1.0086 -1.1101
  102SOL     OW  304   0.300   0.431   1.274 -0.5075  0.1842  0.1442
  102SOL    HW1  305   0.253   0.449   1.360 -0.8735 -1.0937 -0.1073
  102SOL    HW2  306   0.353   0.511   1.244  0.4382 -0.8472  0.1467
  103SOL     OW  307   3.037   0.807   1.883  0.0701 -0.4065  0.6220
  103SOL    HW1  308   3.080   0.713   1.870 -0.8493 -1.2941  0.1791
  103SOL    HW2  309   2.992   0.816   1.977  0.8854 -3.0108 -1.2028
  104SOL     OW  310   0.292   0.269   2.743 -0.2971  0.2214  0.5230
  104SOL    HW1  311   0.285   0.322   2.659 -0.0747 -0.0772  0.8219
  104SOL    HW2  312   0.391   0.256   2.773  3.4143 -1.3346 -0.8385
  105SOL     OW  313   2.234   1.659   1.874 -0.2876  0.5921  0.2959
  105SOL    HW1  314   2.152   1.634   1.938  0.1476 -1.5267  1.0729
  105SOL    HW2  315   2.270   1.752   1.895  1.1213  2.2650  0.2922
  106SOL     OW  316   1.575   0.468   0.399  0.5957 -0.3527  0.3286
  106SOL    HW1  317   1.641   0.399   0.429 -0.5828  2.3746  0.5658
  106SOL    HW2  318   1.550   0.532   0.475  0.2006  0.7054 -0.7883
  107SOL     OW  319   0.144   1.664   1.587  0.2360 -0.3577 -0.6074
  107SOL    HW1  320   0.229   1.704   1.620 -0.0991 -2.1447 -0.3058
  107SOL    HW2  321   0.152   1.590   1.518 -1.7137  0.3102  0.7077
  108SOL     OW  322   3.053   2.704   2.241  0.1131 -0.7148 -0.1233
  108SOL    HW1  323   0.044   2.657   2.264  1.5255 -2.3186  0.8112
  108SOL    HW2  324   3.056   2.787   2.299  1.6847 -0.3741  2.7004
  109SOL     OW  325   1.825   0.384   0.116  0.0220  0.3378 -0.0741
  109SOL    HW1  326   1.805   0.488   0.106  1.1520  3.6403 -2.7975
  109SOL    HW2  327   1.925   0.363   0.130  2.7029 -0.6525  0.8046
  110SOL     OW  328   0.476   2.275   2.522  0.2573  0.0006 -0.4723
  110SOL    HW1  329   0.492   2.225   2.437  2.1771 -0.1490  0.6589
  110SOL    HW2  330   0.564   2.304   2.560  0.1800 -0.3755 -3.7616
  111SOL     OW  331   1.580   2.585   2.196 -0.2514 -0.2630 -0.1368
  111SOL    HW1  332   1.613   2.490   2.180 -0.2354  1.8379 -1.8138
  111SOL    HW2  333   1.555   2.617   2.104  0.9472 -0.3072 -1.9916
  112SOL     OW  334   2.010   2.601   2.524 -0.4835  0.0866 -0.5312
  112SOL    HW1  335   2.074   2.572   2.599  0.2604  1.5749 -0.2509
  112SOL    HW2  336   1.923   2.628   2.569  2.7997  0.1439  0.1209
  113SOL     OW  337   1.934   2.594   1.721  0.1133  0.0350 -0.0336
  113SOL    HW1  338   1.987   2.664   1.767  0.4765 -1.6000 -1.5195
  113SOL    HW2  339   1.987   2.567   1.638  0.9555  0.3667  0.9393
  114SOL     OW  340   3.018   0.666   0.438  0.0658 -0.2078  0.0172
  114SOL    HW1  341   2.983   0.618   0.360  1.2695 -0.8365  1.4955
  114SOL    HW2  342   2.943   0.705   0.493 -0.5166  0.4419  1.8600
  115SOL     OW  343   0.169   0.940   2.859 -0.5030  0.0242 -0.2144
  115SOL    HW1  344   0.144   1.010   2.787 -0.7009  1.3894 -1.5841
  115SOL    HW2  345   0.268   0.953   2.878 -0.8775 -1.4347 -0.9767
  116SOL     OW  346   0.261   1.139   1.940 -0.0888  0.2673  0.1870
  116SOL    HW1  347   0.306   1.112   2.026  3.0358  0.8726 -1.1469
  116SOL    HW2  348   0.331   1.193   1.891  0.0726 -0.4980  1.1651
  117SOL     OW  349   2.683   0.206   0.509  0.2432 -0.7424 -0.0406
  117SOL    HW1  350   2.710   0.117   0.541 -0.6216  4.4755 -0.9060
  117SOL    HW2  351   2.592   0.236   0.544 -0.1217 -0.2814  2.4882
  118SOL     OW  352   1.180   1.875   1.645  0.2164 -0.3786  0.5947
  118SOL    HW1  353   1.273   1.833   1.644  0.0392  0.0493 -2.2292
  118SOL    HW2  354   1.129   1.833   1.721 -0.2651  0.4820 -1.2993
  119SOL     OW  355   1.138   2.225   3.053  0.2850  0.3308  0.2861
  119SOL    HW1  356   1.149   2.287   0.033  0.9005 -1.3232 -1.5867
  119SOL    HW2  357   1.137   2.126   3.080  0.9582  3.1269 -1.8082
  120SOL     OW  358   0.436   0.878   2.910 -0.0556  0.1925  0.4123
  120SOL    HW1  359   0.397   0.787   2.932  1.3802 -1.6869  1.7217
  120SOL    HW2  360   0.519   0.876   2.851 -1.6959 -0.7479 -0.3258
  121SOL     OW  361   2.071   2.743   1.295 -0.0217 -0.4331 -0.6535
  121SOL    HW1  362   2.000   2.742   1.218 -1.9043 -2.5266  0.7980
  121SOL    HW2  363   2.081   2.842   1.323  2.5928  0.3617 -0.2701
  122SOL     OW  364   2.406   2.160   1.992 -0.6386 -0.4030  0.0746
  122SOL    HW1  365   2.460   2.130   2.075 -0.1202 -1.6738  1.5852
  122SOL    HW2  366   2.426   2.257   1.966 -2.5252  1.0653 -0.9850
  123SOL     OW  367   0.225   2.902   0.553  0.5498 -0.1111  0.1003
  123SOL    HW1  368   0.254   2.994   0.557 -0.1388 -5.3771 -0.2462
  123SOL    HW2  369   0.121   2.900   0.570 -2.4630  0.6342  2.5422
  124SOL     OW  370   1.998   0.807   2.447  0.1736  0.2289  0.3174
  124SOL    HW1  371   1.949   0.887   2.403 -2.3525  1.6004 -0.2676
  124SOL    HW2  372   2.075   0.779   2.383 -1.9947 -2.8307 -1.0406
  125SOL     OW  373   0.406   1.356   0.606  0.4777  0.0497  0.1834
  125SOL    HW1  374   0.417   1.283   0.532  0.7692  1.5996  1.4254
  125SOL    HW2  375   0.417   1.448   0.570 -0.7069  1.1589 -1.2799
  126SOL     OW  376   2.496   1.602   1.050  0.3162 -0.0740 -0.1133
  126SOL    HW1  377   2.499   1.536   1.126 -0.3096  0.8655 -0.8592
  126SOL    HW2  378   2.523   1.691   1.080 -1.1545 -0.5904 -0.2097
  127SOL     OW  379   0.190   2.057   1.763 -0.1138 -0.2237  0.0405
  127SOL    HW1  380   0.114   2.040   1.701  2.4818 -1.4789  2.2313
  127SOL    HW2  381   0.159   2.131   1.826  1.6751  1.3935  1.3561
  128SOL     OW  382   0.850   0.593   2.644  0.2198 -0.3415  0.7453
  128SOL    HW1  383   0.755   0.558   2.657  0.3490  0.7395 -0.8487
  128SOL    HW2  384   0.850   0.685   2.595  1.6540  2.1396 -2.2206
  129SOL     OW  385   2.535   1.161   1.050 -0.0156 -0.3686 -0.3953
  129SOL    HW1  386   2.610   1.123   0.985  1.1428 -0.6088 -3.4386
  129SOL    HW2  387   2.570   1.183   1.144  0.7042  0.1468  0.1143
  130SOL     OW  388   2.509   1.310   1.586 -0.5013 -0.1585  0.4443
  130SOL    HW1  389   2.604   1.282   1.613  1.9203  0.6100  1.0641
  130SOL    HW2  390   2.487   1.410   1.595 -0.5655 -0.0792 -0.5689
  131SOL     OW  391   2.597   0.396   0.114  0.0559 -0.0484 -0.0730
  131SOL    HW1  392   2.646   0.474   0.154 -0.2871 -1.1857 -3.7406
  131SOL    HW2  393   2.660   0.358   0.045 -0.2423 -0.5837  2.6814
  132SOL     OW  394   2.785   2.113   1.973  0.0219 -0.1610 -0.3555
  132SOL    HW1  395   2.705   2.091   2.038  0.7714  1.2264  0.2250
  132SOL    HW2  396   2.829   2.197   2.008  0.0496 -0.4203 -2.0062
  133SOL     OW  397   0.575   1.037   1.196  0.7502  0.4663  0.6361
  133SOL    HW1  398   0.546   0.951   1.152 -0.6007  1.6860 -0.6379
  133SOL    HW2  399   0.638   1.089   1.141 -3.4826  0.0517  0.6816
  134SOL     OW  400   0.134   1.300   0.117  0.1398  0.2410 -0.2090
  134SOL    HW1  401   0.066   1.263   0.050  1.5517 -1.1493 -0.5620
  134SOL    HW2  402   0.085   1.344   0.198 -0.1952  0.6504  1.0107
  135SOL     OW  403   2.107   1.257   1.532  0.2844  0.0229  0.2194
  135SOL    HW1  404   2.173   1.269   1.607  0.2152  0.2414 -1.0356
  135SOL    HW2  405   2.018   1.214   1.556 -1.8339  0.4224 -0.0388
  136SOL     OW  406   2.799   0.694   0.615 -0.0019 -0.6100  0.1268
  136SOL    HW1  407   2.715   0.676   0.562 -1.8548  1.3700 -2.6064
  136SOL    HW2  408   2.805   0.636   0.698 -0.7587 -0.7657  2.5077
  137SOL     OW  409   2.549   1.458   1.315  0.2086 -1.0633 -0.6832
  137SOL    HW1  410   2.592   1.497   1.395 -0.7860 -2.7437 -1.5174
  137SOL    HW2  411   2.557   1.359   1.314  0.3223  2.5438 -1.2103
  138SOL     OW  412   1.821   0.738   1.303  0.1093 -0.3085 -0.1209
  138SOL    HW1  413   1.906   0.796   1.290 -0.2161  3.5434 -2.2340
  138SOL    HW2  414   1.849   0.642   1.317  1.1896  0.9220  0.7061
  139SOL     OW  415   2.163   0.154   3.089 -0.1393 -0.2033  0.0758
  139SOL    HW1  416   2.172   0.126   2.988  0.5786  0.3831 -1.3802
  139SOL    HW2  417   2.232   0.106   0.045  1.6590 -1.6670  0.3102
  140SOL     OW  418   1.482   1.782   1.949 -0.1177 -0.0365  0.1861
  140SOL    HW1  419   1.536   1.754   2.033  4.1508 -0.1774  0.1237
  140SOL    HW2  420   1.452   1.699   1.895 -0.2216  0.9146 -0.5896
  141SOL     OW  421   2.036   1.909   1.004  0.1377  0.0446  0.1647
  141SOL    HW1  422   2.136   1.912   1.010  0.1436 -2.1292  0.5801
  141SOL    HW2  423   1.991   1.900   1.095  0.7417  0.0751 -1.0935
  142SOL     OW  424   3.000   0.936   0.163 -0.1056 -0.1122 -0.2355
  142SOL    HW1  425   3.053   0.905   0.082  0.9714 -0.5786 -0.6176
  142SOL    HW2  426   3.036   0.897   0.250  0.2637 -1.0357 -0.1109
  143SOL     OW  427   0.373   2.098   2.728  0.0781 -0.5902 -0.2066
  143SOL    HW1  428   0.283   2.057   2.705  0.8459  0.5702 -0.8144
  143SOL    HW2  429   0.418   2.150   2.657 -0.4495  0.9042  1.0859
  144SOL     OW  430   0.908   0.143   1.769  0.2296 -0.1376 -0.2466
  144SOL    HW1  431   0.870   0.147   1.674  0.4965 -0.7463  0.7852
  144SOL    HW2  432   1.003   0.104   1.762 -1.0864 -1.5808 -2.5924
  145SOL     OW  433   2.634   1.000   0.459 -0.5561  0.0385 -0.3274
  145SOL    HW1  434   2.701   0.999   0.536 -0.6186  3.4735 -0.3878
  145SOL    HW2  435   2.553   1.057   0.485 -0.1497 -0.4869 -0.3678
  146SOL     OW  436   2.461   2.454   0.087  0.0392  0.1955 -0.4420
  146SOL    HW1  437   2.429   2.362   0.058  2.5580  1.1348  1.8970
  146SOL    HW2  438   2.435   2.531   0.025  2.6380  0.4267 -0.2074
  147SOL     OW  439   2.587   2.747   1.374  0.0534  0.5681 -0.7188
  147SOL    HW1  440   2.569   2.836   1.425 -2.4632  2.5798  1.8066
  147SOL    HW2  441   2.605   2.774   1.278  3.5251 -0.5643  0.5725
  148SOL     OW  442   1.658   3.083   2.405  0.3327 -0.1859 -0.2934
  148SOL    HW1  443   1.572   0.045   2.420 -4.9556 -1.1685  2.0555
  148SOL    HW2  444   1.638   2.985   2.425 -0.6183  1.8558 -1.0362
  149SOL     OW  445   1.138   0.492   2.743  0.3154 -0.6152 -0.6352
  149SOL    HW1  446   1.194   0.512   2.663 -0.9082  0.9783  3.3080
  149SOL    HW2  447   1.046   0.529   2.722  1.0910 -1.8719 -1.2047
  150SOL     OW  448   0.863   2.861   0.414 -0.2156  0.3495  0.1203
  150SOL    HW1  449   0.804   2.915   0.473  1.3720  0.4898  0.0824
  150SOL    HW2  450   0.906   2.786   0.466  0.9924 -0.3691  1.5043
  151SOL     OW  451   3.081   1.660   0.093 -0.4321 -0.1844 -0.4318
  151SOL    HW1  452   0.076   1.629   0.055  1.8922  1.8366 -5.1353
  151SOL    HW2  453   3.024   1.585   0.124  1.4713 -2.4294  0.2365
  152SOL     OW  454   0.117   1.107   0.419  0.2928  0.1732  0.0413
  152SOL    HW1  455   0.187   1.121   0.349 -1.2565 -1.1167  0.5716
  152SOL    HW2  456   0.100   1.008   0.433 -0.3885  2.2519 -0.2406
  153SOL     OW  457   2.404   3.070   0.898 -0.1071 -0.4477  0.0095
  153SOL    HW1  458   2.380   3.071   0.798  0.5850 -2.0788 -1.7951
  153SOL    HW2  459   2.421   2.977   0.933 -0.2459  2.5423  2.1123
  154SOL     OW  460   0.892   0.744   1.802  0.6060  0.0887  0.1353
  154SOL    HW1  461   0.885   0.646   1.773 -1.7502 -1.2676 -0.0113
  154SOL    HW2  462   0.824   0.811   1.763 -2.2172  0.1922  4.0411
  155SOL     OW  463   2.947   1.569   1.002 -0.0851  0.1414  0.2936
  155SOL    HW1  464   2.851   1.531   0.981 -1.2483 -3.2200 -3.0432
  155SOL    HW2  465   2.965   1.657   0.955 -1.5922  0.2504 -1.9140
  156SOL     OW  466   2.451   2.123   0.374 -0.1753  0.3789 -0.1481
  156SOL    HW1  467   2.423   2.070   0.457  0.4757  1.6878  0.3680
  156SOL    HW2  468   2.473   2.063   0.297  0.9307  2.0318  0.7344
  157SOL     OW  469   1.092   2.988   0.901 -0.1901  0.4602  0.0143
  157SOL    HW1  470   1.016   2.922   0.896  0.5306  1.6214  1.7399
  157SOL    HW2  471   1.156   2.968   0.824  3.1039 -1.8206 -0.6119
  158SOL     OW  472   2.306   0.372   2.723 -0.3865  0.0313  0.2968
  158SOL    HW1  473   2.299   0.465   2.763  0.4348 -1.0759 -2.9057
  158SOL    HW2  474   2.405   0.360   2.696 -0.4902 -2.1483 -0.9211
  159SOL     OW  475   0.500   3.082   0.313 -0.6734  0.0396 -0.0832
  159SOL    HW1  476   0.479   0.041   0.236 -0.2852 -1.1973  1.4170
  159SOL    HW2  477   0.454   2.990   0.310  0.2686 -2.9716 -1.2264
  160SOL     OW  478   1.227   1.997   0.073 -0.0048 -0.4600  0.5960
  160SOL    HW1  479   1.272   1.966   3.090 -2.0364  2.8042  0.7649
  160SOL    HW2  480   1.285   2.051   0.134 -1.3203  2.6300 -1.6143
  161SOL     OW  481   2.771   1.883   2.584  0.4532 -0.2350 -0.5173
  161SOL    HW1  482   2.866   1.895   2.558 -3.9493 -1.3720  1.5259
  161SOL    HW2  483   2.708   1.950   2.535 -0.0651  1.4975 -0.0280
  162SOL     OW  484   0.137   2.705   0.973  0.2176  0.2444 -0.2245
  162SOL    HW1  485   0.151   2.630   1.042 -0.3544  0.5235 -1.2497
  162SOL    HW2  486   0.194   2.684   0.887  1.9395 -0.5407  1.1740
  163SOL     OW  487   2.018   0.366   2.783 -0.2989 -0.2826  0.3941
  163SOL    HW1  488   1.993   0.278   2.823  2.5804  1.2774 -1.5031
  163SOL    HW2  489   2.100   0.362   2.727  0.3930  1.5790 -0.1785
  164SOL     OW  490   2.931   1.831   0.860  0.2417  0.4798  0.0198
  164SOL    HW1  491   2.878   1.783   0.788 -0.7644 -0.4685  1.2811
  164SOL    HW2  492   2.872   1.909   0.899 -1.9092 -0.3286  1.8045
  165SOL     OW  493   2.564   0.062   1.759 -0.7767 -0.0232 -0.2218
  165SOL    HW1  494   2.647   3.098   1.744 -1.6434  0.0780 -1.7782
  165SOL    HW2  495   2.494   0.040   1.692  1.4888  0.1118 -0.5514
  166SOL     OW  496   2.206   0.565   0.717  0.6990 -0.1583 -0.5408
  166SOL    HW1  497   2.124   0.548   0.657  1.2890 -0.7327 -2.4547
  166SOL    HW2  498   2.220   0.488   0.788 -0.2513 -2.5735  1.4624
  167SOL     OW  499   0.547   0.279   0.849  0.3331 -1.0218  0.2993
  167SOL    HW1  500   0.566   0.247   0.947  0.9902 -0.7574  0.0876
  167SOL    HW2  501   0.626   0.320   0.804 -1.9029  0.3729 -0.5082
  168SOL     OW  502   1.938   2.984   2.013  0.3911  0.4771  0.1799
  168SOL    HW1  503   1.855   2.955   2.064 -0.5771 -1.8637  2.0354
  168SOL    HW2  504   2.020   2.976   2.072 -0.3169 -1.3333  0.0250
  169SOL     OW  505   0.216   1.268   0.803 -0.3923  0.0486 -0.2390
  169SOL    HW1  506   0.284   1.330   0.748  1.0324  1.6215 -2.8533
  169SOL    HW2  507   0.120   1.298   0.774  0.0699 -1.0508 -1.8625
  170SOL     OW  508   2.603   0.803   1.381  0.7299 -0.0458  0.5601
  170SOL    HW1  509   2.561   0.773   1.293 -1.4096  0.4900 -0.8190
  170SOL    HW2  510   2.577   0.742   1.458 -1.1882 -1.5785 -5.6706
  171SOL     OW  511   0.863   2.484   1.739 -0.1865 -0.2594 -0.3448
  171SOL    HW1  512   0.924   2.443   1.669  0.5301 -0.1106 -0.8191
  171SOL    HW2  513   0.910   2.485   1.829  2.9788 -1.6653  0.5397
  172SOL     OW  514   0.090   2.469   1.379 -0.3577  0.2711 -0.0400
  172SOL    HW1  515   0.151   2.400   1.421 -0.0665 -0.6678  0.1842
  172SOL    HW2  516   0.106   2.563   1.418  0.2175 -0.0102  0.3800
  173SOL     OW  517   1.392   0.190   3.017 -0.1900  0.4191 -0.7665
  173SOL    HW1  518   1.353   0.099   3.000  0.7843 -0.9675  1.0477
  173SOL    HW2  519   1.318   0.251   3.011  2.7278 -0.0605 -1.0238
  174SOL     OW  520   1.419   0.077   2.539  0.5569  0.6162 -0.1236
  174SOL    HW1  521   1.392   0.152   2.599  0.9200  1.3992 -0.1403
  174SOL    HW2  522   1.492   0.030   2.588 -1.6903 -2.1350 -0.2339
  175SOL     OW  523   1.897   2.502   3.068  0.1351 -0.1545 -0.2025
  175SOL    HW1  524   1.933   2.403   3.070 -0.5655  0.6794 -1.1023
  175SOL    HW2  525   1.966   2.568   3.040 -2.2779 -0.6018  0.6136
  176SOL     OW  526   1.810   0.139   2.867  0.2111  0.3731 -0.3535
  176SOL    HW1  527   1.766   0.195   2.943 -0.5486  2.4210  2.2847
  176SOL    HW2  528   1.777   0.171   2.774 -1.7578 -1.6814 -0.1869
  177SOL     OW  529   0.931   1.468   0.536 -0.0829  0.0304  0.5958
  177SOL    HW1  530   1.027   1.489   0.508 -1.0606 -1.3095  1.2817
  177SOL    HW2  531   0.907   1.510   0.624  0.2566 -0.9416 -1.9497
  178SOL     OW  532   3.069   1.780   2.425 -0.0513 -0.1052 -0.1215
  178SOL    HW1  533   3.039   1.824   2.336 -0.2494  3.0156  2.8395
  178SOL    HW2  534   3.028   1.684   2.435 -0.9127 -3.6973 -0.4589
  179SOL     OW  535   0.704   2.606   2.617  0.3692  0.1152 -0.1070
  179SOL    HW1  536   0.775   2.649   2.672 -0.3272 -0.8778  1.2150
  179SOL    HW2  537   0.614   2.646   2.643 -2.6051  1.6646 -0.2013
  180SOL     OW  538   1.986   1.944   1.582 -0.1375 -1.1876 -0.2495
  180SOL    HW1  539   2.019   1.976   1.673 -0.3793  0.0793 -0.0857
  180SOL    HW2  540   1.914   1.871   1.592  2.1058 -0.9674 -1.4576
  181SOL     OW  541   1.656   1.209   2.241  0.0893  0.3356 -0.2635
  181SOL    HW1  542   1.644   1.135   2.173 -2.2662  1.4514  1.6915
  181SOL    HW2  543   1.735   1.188   2.300 -1.2260  0.1622 -1.1209
  182SOL     OW  544   2.751   3.030   2.461 -0.0094 -0.3415  0.0020
  182SOL    HW1  545   2.790   2.952   2.512 -0.8527 -1.6787  1.7139
  182SOL    HW2  546   2.657   3.010   2.422  2.4642 -0.5906  0.7304
  183SOL     OW  547   1.356   0.737   2.674 -0.4431 -0.0022 -0.0485
  183SOL    HW1  548   1.402   0.790   2.603  0.6829 -0.0962 -2.2828
  183SOL    HW2  549   1.420   0.670   2.712  0.8079  3.3482 -0.5319
  184SOL     OW  550   0.748   1.007   1.411  0.0973  0.4448 -0.3041
  184SOL    HW1  551   0.801   1.090   1.430  0.4650 -0.7531  0.5599
  184SOL    HW2  552   0.671   1.017   1.344 -1.3618  1.4287 -0.3297
  185SOL     OW  553   2.355   0.971   1.135 -0.0035 -0.4080 -0.0360
  185SOL    HW1  554   2.352   1.008   1.230 -0.1544  1.3373  0.6081
  185SOL    HW2  555   2.397   1.047   1.075 -0.1873  1.8596 -0.5901
  186SOL     OW  556   0.537   1.699   2.475  0.2174  0.1130  0.1211
  186SOL    HW1  557   0.573   1.718   2.571 -2.8975  1.4826 -1.7808
  186SOL    HW2  558   0.610   1.658   2.419  0.2022 -0.5733  1.5263
  187SOL     OW  559   2.533   1.478   0.315  1.0822 -0.8976  0.2516
  187SOL    HW1  560   2.632   1.455   0.323  0.1961  2.1525 -0.9739
  187SOL    HW2  561   2.506   1.472   0.213  0.1852  0.8835 -0.7421
  188SOL     OW  562   0.154   1.856   0.616  0.1300 -0.2879 -0.4904
  188SOL    HW1  563   0.128   1.924   0.688 -1.6277 -0.0230 -1.0523
  188SOL    HW2  564   0.220   1.903   0.560 -1.9247  1.0516  1.8043
  189SOL     OW  565   2.569   0.621   0.469  0.4363  0.5737 -0.5295
  189SOL    HW1  566   2.492   0.551   0.462 -2.1732  0.4792  0.1528
  189SOL    HW2  567   2.554   0.690   0.395  0.0476 -0.7030  2.5282
  190SOL     OW  568   1.143   1.368   2.304  0.3456 -0.2695 -0.3302
  190SOL    HW1  569   1.206   1.416   2.236  1.3783 -0.9128 -0.7383
  190SOL    HW2  570   1.066   1.316   2.258  0.6586  1.1656  2.2532
  191SOL     OW  571   2.206   0.271   2.001  0.2086  0.0181 -0.2640
  191SOL    HW1  572   2.287   0.326   2.012 -2.9006 -1.9594 -2.0226
  191SOL    HW2  573   2.157   0.304   1.922 -0.0815 -0.5540  0.0558
  192SOL     OW  574   2.020   0.870   1.553  0.0648 -0.0446 -0.0445
  192SOL    HW1  575   1.927   0.857   1.597  1.0197 -0.5501  0.9065
  192SOL    HW2  576   2.014   0.890   1.449 -0.0065  1.4448 -3.4843
  193SOL     OW  577   0.745   0.441   0.762 -0.2402  0.1858  0.1687
  193SOL    HW1  578   0.712   0.527   0.727 -1.1830 -0.0757 -2.1242
  193SOL    HW2  579   0.814   0.447   0.834 -0.4548  2.3548  0.7790
  194SOL     OW  580   1.310   2.767   0.747 -0.2974  0.0949  0.0653
  194SOL    HW1  581   1.391   2.805   0.693  1.1352 -0.2914  1.6283
  194SOL    HW2  582   1.328   2.781   0.845  0.0979  1.3859 -2.1369
  195SOL     OW  583   2.424   0.730   0.672 -0.5628  0.2561  0.2808
  195SOL    HW1  584   2.484   0.687   0.601 -1.4813 -1.6512 -0.7185
  195SOL    HW2  585   2.338   0.683   0.681 -0.3311  0.9593 -1.5656
  196SOL     OW  586   1.029   1.867   1.378  0.4979  0.0771 -0.2207
  196SOL    HW1  587   1.068   1.931   1.311 -1.6378  1.3544  0.1560
  196SOL    HW2  588   1.080   1.865   1.463  1.6292 -1.6922 -0.2250
  197SOL     OW  589   0.364   2.809   0.349  0.1151  0.6007  0.3390
  197SOL    HW1  590   0.329   2.847   0.436  1.7333 -1.0162 -1.7391
  197SOL    HW2  591   0.284   2.772   0.294 -2.4096  0.7508 -0.6081
  198SOL     OW  592   0.802   0.974   0.797 -0.6332 -0.3450 -0.1846
  198SOL    HW1  593   0.796   1.052   0.860 -2.1582 -1.1106 -1.8325
  198SOL    HW2  594   0.849   0.996   0.712  0.3679 -2.8313  3.3619
  199SOL     OW  595   0.036   2.981   1.652  0.3294 -0.0803 -1.1355
  199SOL    HW1  596   0.049   3.077   1.683  3.9098  3.5494  0.2564
  199SOL    HW2  597   3.048   2.965   1.607  1.1291  0.9627 -3.3329
  200SOL     OW  598   2.216   2.053   2.960  0.7723  0.0543 -0.0568
  200SOL    HW1  599   2.173   1.975   3.005 -0.3345 -0.5261 -0.4816
  200SOL    HW2  600   2.205   2.051   2.857  1.4642  1.7906  2.2242
  201SOL     OW  601   2.626   2.813   1.078 -0.1581 -0.0467 -0.3088
  201SOL    HW1  602   2.526   2.813   1.061  0.9310  3.5906  0.8548
  201SOL    HW2  603   2.666   2.814   0.986 -0.9956  0.0042  2.2598
  202SOL     OW  604   2.944   0.539   0.220  0.2422 -0.5100  0.2468
  202SOL    HW1  605   2.873   0.568   0.152  0.7431 -0.5205 -0.9328
  202SOL    HW2  606   2.912   0.459   0.271 -2.1374 -1.3257 -0.3323
  203SOL     OW  607   1.286   1.485   2.099 -0.0871 -0.3241 -0.2830
  203SOL    HW1  608   1.338   1.517   2.021 -0.4997 -0.0330 -0.7540
  203SOL    HW2  609   1.212   1.554   2.122 -1.5958 -1.2437 -0.8033
  204SOL     OW  610   0.805   1.394   2.136  0.2617 -0.2168 -0.5642
  204SOL    HW1  611   0.858   1.408   2.048  0.9122 -0.9009 -0.5243
  204SOL    HW2  612   0.840   1.306   2.180  2.1895 -2.9857 -0.2921
  205SOL     OW  613   1.172   2.135   1.558  0.4920  0.4002  0.4162
  205SOL    HW1  614   1.179   2.034   1.583  0.5231  0.4055 -1.1397
  205SOL    HW2  615   1.172   2.157   1.460  1.1836  0.2234 -3.6532
  206SOL     OW  616   0.094   0.143   2.880 -0.1992 -0.0313 -0.1596
  206SOL    HW1  617   0.179   0.179   2.828  1.7538  1.5889 -1.7115
  206SOL    HW2  618   0.011   0.132   2.819  0.1282 -2.1128  0.2333
  207SOL     OW  619   1.591   3.077   2.034 -0.2215  0.1697  0.8128
  207SOL    HW1  620   1.554   3.091   2.123  0.4747 -0.5689 -2.5875
  207SOL    HW2  621   1.589   0.060   1.974  1.4246  1.0171 -0.8259
  208SOL     OW  622   0.764   2.158   1.975 -0.0124 -0.2659 -0.3493
  208SOL    HW1  623   0.830   2.094   1.925 -0.5260 -1.8901 -2.1895
  208SOL    HW2  624   0.725   2.223   1.908  1.2009  3.0330 -1.7035
  209SOL     OW  625   1.806   1.138   2.797  0.3519 -0.1914  0.4857
  209SOL    HW1  626   1.726   1.171   2.741  1.4928 -0.6346 -1.5841
  209SOL    HW2  627   1.793   1.042   2.836  0.3497  2.0471 -0.7659
  210SOL     OW  628   2.959   0.390   0.802  0.0877 -0.0772 -0.2112
  210SOL    HW1  629   2.991   0.445   0.722  2.1662 -1.2900  0.1150
  210SOL    HW2  630   2.889   0.450   0.851  0.1908 -1.5325 -0.3021
  211SOL     OW  631   0.752   1.192   0.943 -0.2544 -0.3988  0.2893
  211SOL    HW1  632   0.683   1.237   0.877 -1.6570  3.1627  0.0697
  211SOL    HW2  633   0.793   1.258   1.006 -0.8830  0.7314 -2.6837
  212SOL     OW  634   1.175   1.791   0.662 -0.6957  0.7501 -0.5148
  212SOL    HW1  635   1.121   1.750   0.741 -0.9491 -1.0260 -1.4909
  212SOL    HW2  636   1.160   1.735   0.580 -1.4682 -1.0055 -0.8058
  213SOL     OW  637   1.507   0.180   1.666 -0.4057 -0.2197 -0.2682
  213SOL    HW1  638   1.584   0.112   1.643 -0.4225 -1.7745 -0.0348
  213SOL    HW2  639   1.532   0.278   1.643  0.1904  1.1118  0.8580
  214SOL     OW  640   1.439   1.637   2.315  0.0295 -0.0702  0.0579
  214SOL    HW1  641   1.360   1.640   2.252 -0.1821 -0.1582 -2.6052
  214SOL    HW2  642   1.414   1.654   2.411  0.5676 -2.4170 -1.3404
  215SOL     OW  643   0.228   1.780   1.204  0.6792 -0.3535  0.6824
  215SOL    HW1  644   0.170   1.749   1.124 -1.1943 -4.3208 -0.2448
  215SOL    HW2  645   0.320   1.806   1.172 -0.4144  1.3650 -2.2436
  216SOL     OW  646   0.577   0.036   2.057  0.1964 -0.3883  0.2343
  216SOL    HW1  647   0.528   0.118   2.025 -2.0115 -0.2895  0.3178
  216SOL    HW2  648   0.669   0.058   2.102  2.9455  0.1753  0.4511
  217SOL     OW  649   2.320   0.534   0.026 -0.1467 -0.2339 -1.0641
  217SOL    HW1  650   2.325   0.574   3.033 -2.1299  2.5348  0.8662
  217SOL    HW2  651   2.407   0.500   0.062 -0.9570  0.5461  1.1833
  218SOL     OW  652   2.070   1.787   2.241 -0.4016  0.0733 -0.1226
  218SOL    HW1  653   2.033   1.733   2.322 -0.9469  1.5407  1.6998
  218SOL    HW2  654   2.025   1.875   2.247  2.1269 -2.5643 -1.5002
  219SOL     OW  655   1.441   1.172   0.384 -0.2583 -0.1687 -0.3139
  219SOL    HW1  656   1.361   1.191   0.442 -0.2470  1.1681 -1.1235
  219SOL    HW2  657   1.501   1.255   0.390  0.3002 -0.8348  0.5318
  220SOL     OW  658   1.234   1.899   1.128  0.2911 -0.1812 -0.1704
  220SOL    HW1  659   1.262   1.944   1.215 -1.9051  2.3132 -1.2598
  220SOL    HW2  660   1.156   1.942   1.073  0.8888 -0.7749 -2.4896
  221SOL     OW  661   3.080   0.328   3.019  0.3473  0.2325  0.1702
  221SOL    HW1  662   0.007   0.403   2.959  0.9439 -1.6901  2.7762
  221SOL    HW2  663   0.006   0.238   2.973  0.7843 -3.2907 -2.1132
  222SOL     OW  664   1.181   2.743   1.551  0.0902  0.4645  0.0502
  222SOL    HW1  665   1.159   2.649   1.518  0.0977 -0.2590 -1.0063
  222SOL    HW2  666   1.282   2.754   1.567  0.9613 -0.1352 -0.0605
  223SOL     OW  667   1.385   2.769   2.829  0.3559 -0.0278  0.4445
  223SOL    HW1  668   1.455   2.845   2.834  0.8049 -0.7731  1.8129
  223SOL    HW2  669   1.323   2.758   2.908 -2.2935 -0.8226 -0.9703
  224SOL     OW  670   2.608   1.195   1.316 -0.2423 -0.3375  0.1618
  224SOL    HW1  671   2.554   1.161   1.396  0.1433 -0.5633 -2.3880
  224SOL    HW2  672   2.708   1.185   1.338  0.7163  0.0500  0.1877
  225SOL     OW  673   0.853   1.252   1.530  0.6293 -0.6525  0.1058
  225SOL    HW1  674   0.857   1.236   1.632  2.8300 -0.1218 -1.7992
  225SOL    HW2  675   0.944   1.259   1.486 -0.1745  0.4375 -1.0176
  226SOL     OW  676   1.584   2.577   2.783 -0.1007 -0.0032  0.1639
  226SOL    HW1  677   1.511   2.647   2.796 -0.4375 -0.0285  0.6795
  226SOL    HW2  678   1.566   2.522   2.697 -0.8233 -1.0616 -0.7645
  227SOL     OW  679   0.771   2.171   1.002 -0.7104  0.3867 -0.0978
  227SOL    HW1  680   0.723   2.182   0.913 -0.8779  1.9706 -1.8802
  227SOL    HW2  681   0.761   2.256   1.058  0.6478 -0.9056 -1.5603
  228SOL     OW  682   0.249   2.143   1.203 -0.3354 -0.1642  0.5360
  228SOL    HW1  683   0.217   2.173   1.296 -1.6475  1.4492  0.9696
  228SOL    HW2  684   0.183   2.085   1.155  1.4067 -1.2694 -0.5550
  229SOL     OW  685   2.257   1.264   0.175  0.3199 -0.8588 -0.3334
  229SOL    HW1  686   2.232   1.362   0.167 -0.1262  0.0447  0.0779
  229SOL    HW2  687   2.248   1.214   0.087 -3.3547  0.3669  2.7033
  230SOL     OW  688   0.915   1.171   2.248 -0.2461  0.2887  0.7173
  230SOL    HW1  689   0.853   1.102   2.289  2.0082 -0.6140 -1.8275
  230SOL    HW2  690   1.008   1.130   2.231 -0.1861  0.3553 -0.5767
  231SOL     OW  691   1.602   1.927   1.760 -0.0790 -0.1185  0.2674
  231SOL    HW1  692   1.658   2.006   1.794  3.3821 -1.8258 -0.4856
  231SOL    HW2  693   1.570   1.866   1.837  1.0494 -1.4697  1.1849
  232SOL     OW  694   1.980   2.210   1.139  0.0488 -0.2613  0.5902
  232SOL    HW1  695   1.893   2.166   1.176  1.1395 -1.7100 -0.0315
  232SOL    HW2  696   1.983   2.317   1.141 -0.5116  2.0867  0.3288
  233SOL     OW  697   1.606   2.464   2.546 -0.0539 -0.6791  0.6313
  233SOL    HW1  698   1.680   2.396   2.540  1.2405  0.4052 -2.1792
  233SOL    HW2  699   1.516   2.421   2.546 -1.8218 -0.5670 -0.0065
  234SOL     OW  700   0.997   3.038   2.773  0.0890  0.1342 -0.3317
  234SOL    HW1  701   1.008   0.023   2.716  1.0193  0.9938 -0.4201
  234SOL    HW2  702   0.933   2.981   2.723 -1.0285  0.2257 -0.4445
  235SOL     OW  703   2.769   2.517   0.047 -0.3403  0.6216  0.1798
  235SOL    HW1  704   2.811   2.567   0.124 -1.9075 -0.1686 -1.6943
  235SOL    HW2  705   2.671   2.527   0.060  2.1822 -0.8471  2.1110
  236SOL     OW  706   2.048   2.380   2.392  0.0551  0.2125 -0.1435
  236SOL    HW1  707   2.151   2.373   2.387  3.2755 -0.4209  2.5433
  236SOL    HW2  708   2.029   2.472   2.436  0.6134 -1.5054  1.9509
  237SOL     OW  709   1.723   1.175   1.441 -0.2605  0.0756  0.2462
  237SOL    HW1  710   1.709   1.095   1.377 -0.3060 -1.1132 -2.8080
  237SOL    HW2  711   1.642   1.225   1.467  3.0127 -0.4379 -1.2063
  238SOL     OW  712   2.124   0.238   2.427  0.2739 -0.0853  0.6022
  238SOL    HW1  713   2.147   0.179   2.347 -1.5840  0.4895  0.8929
  238SOL    HW2  714   2.028   0.219   2.453  1.9123 -3.4139 -2.1615
  239SOL     OW  715   0.593   1.671   1.890 -0.8281 -0.4160  0.7099
  239SOL    HW1  716   0.508   1.686   1.839  0.5314  1.1690  2.4576
  239SOL    HW2  717   0.580   1.593   1.954  0.1174  2.2194 -1.1218
  240SOL     OW  718   3.058   2.174   0.608  0.3813 -0.2153 -0.3511
  240SOL    HW1  719   3.059   2.264   0.653  0.9685 -1.5307 -1.1052
  240SOL    HW2  720   0.024   2.179   0.535 -1.9360 -1.2876  1.0746
  241SOL     OW  721   1.844   2.102   0.843  0.0264 -0.5083  0.7060
  241SOL    HW1  722   1.879   2.046   0.923  0.5307 -2.7399 -0.7173
  241SOL    HW2  723   1.811   2.037   0.770 -1.2535  1.6613  0.1698
  242SOL     OW  724   1.389   1.487   2.985 -0.6543 -0.3541  0.1513
  242SOL    HW1  725   1.457   1.447   3.057  1.6908 -0.9982  0.7598
  242SOL    HW2  726   1.416   1.578   2.953  0.0145  2.1873 -0.0985
  243SOL     OW  727   0.705   2.846   1.998 -0.4344 -0.6857  0.1031
  243SOL    HW1  728   0.651   2.929   2.006 -0.0906  0.7417  0.6760
  243SOL    HW2  729   0.743   2.833   1.904  0.9354  0.8046 -2.6104
  244SOL     OW  730   1.806   2.720   2.654 -0.0480 -0.4110 -0.6800
  244SOL    HW1  731   1.753   2.693   2.737  0.0972  1.3339  0.2960
  244SOL    HW2  732   1.746   2.745   2.576  0.5352 -0.7781  1.9147
  245SOL     OW  733   1.437   3.009   0.350 -0.3932 -0.3807 -0.8703
  245SOL    HW1  734   1.536   2.984   0.342 -1.0096  0.2182 -0.9507
  245SOL    HW2  735   1.421   0.004   0.309  0.8035  2.9095 -0.3928
  246SOL     OW  736   1.273   3.044   2.970  0.0757  0.2213  0.4754
  246SOL    HW1  737   1.205   3.036   2.893 -0.2642  1.1279 -0.9432
  246SOL    HW2  738   1.262   2.967   3.037 -2.0805  0.4524 -0.5597
  247SOL     OW  739   0.010   0.533   1.930 -0.5477 -0.6088  0.3713
  247SOL    HW1  740   3.053   0.506   2.009 -1.4616  1.4509 -0.8757
  247SOL    HW2  741   3.079   0.486   1.849  1.8575  2.4726  0.0171
  248SOL     OW  742   0.828   0.930   2.327  0.0639  0.2465 -0.3748
  248SOL    HW1  743   0.878   0.899   2.410 -1.9983  0.5112 -0.9490
  248SOL    HW2  744   0.868   0.888   2.245  1.6278  1.0489  2.2216
  249SOL     OW  745   2.324   0.498   0.397  0.0359 -0.1628  0.5510
  249SOL    HW1  746   2.242   0.556   0.388  1.7667  2.1627  1.1644
  249SOL    HW2  747   2.323   0.424   0.327  0.6595 -0.6855  1.8042
  250SOL     OW  748   0.723   0.386   0.474  0.5051  0.8685 -0.2143
  250SOL    HW1  749   0.762   0.306   0.425  1.3707  2.3861 -3.7635
  250SOL    HW2  750   0.762   0.396   0.567  0.9055  0.7362 -2.2700
  251SOL     OW  751   1.042   0.211   2.692  0.0240  0.4446  0.2610
  251SOL    HW1  752   1.083   0.296   2.732  0.4771 -1.4380  2.6492
  251SOL    HW2  753   1.090   0.191   2.609  0.3421  0.0675  2.5424
  252SOL     OW  754   1.723   1.734   2.104  0.5323  0.6838  0.3168
  252SOL    HW1  755   1.744   1.818   2.160 -0.9676  2.3112  2.2740
  252SOL    HW2  756   1.705   1.657   2.174 -0.5073  1.7777 -0.1518
  253SOL     OW  757   2.065   2.444   1.894  0.4048  0.2124 -0.1703
  253SOL    HW1  758   2.010   2.510   1.840  1.4925  0.7426 -0.8271
  253SOL    HW2  759   2.079   2.357   1.844 -0.6695 -1.3958  1.6074
  254SOL     OW  760   1.089   2.256   1.889 -0.3539 -0.3195 -0.0966
  254SOL    HW1  761   1.161   2.290   1.833 -2.9139  0.6819 -2.1569
  254SOL    HW2  762   1.029   2.336   1.931 -0.4322  0.6757  0.3654
  255SOL     OW  763   0.955   0.769   0.879 -0.5165 -0.1231  0.3952
  255SOL    HW1  764   0.900   0.842   0.839  2.0844 -3.0746  2.2380
  255SOL    HW2  765   1.047   0.762   0.837 -0.9185 -0.2091 -2.6064
  256SOL     OW  766   1.843   1.954   2.253  0.2536  0.3323 -0.2929
  256SOL    HW1  767   1.869   2.051   2.238 -2.5446 -1.8170 -0.1603
  256SOL    HW2  768   1.826   1.927   2.352  1.6115  0.4361  0.5925
  257SOL     OW  769   0.700   2.349   2.691  0.2202 -0.9548 -0.2444
  257SOL    HW1  770   0.720   2.444   2.650  0.4868  3.4652  0.7015
  257SOL    HW2  771   0.655   2.354   2.785 -2.2330  0.2895 -2.4090
  258SOL     OW  772   0.738   0.401   2.240  0.1405  0.5374 -0.1865
  258SOL    HW1  773   0.811   0.406   2.312 -0.7976 -1.5719 -0.4891
  258SOL    HW2  774   0.755   0.329   2.166  1.2038  2.2896 -0.9465
  259SOL     OW  775   0.931   0.438   2.428  0.3175  0.4969 -0.2451
  259SOL    HW1  776   0.897   0.495   2.508  1.2839  1.5442  1.0978
  259SOL    HW2  777   1.027   0.458   2.413 -2.3860  1.4094  1.7708
  260SOL     OW  778   1.366   0.783   0.699  0.0781  0.0007 -0.3042
  260SOL    HW1  779   1.346   0.760   0.796  0.9402 -2.1379 -1.7935
  260SOL    HW2  780   1.275   0.796   0.652  2.0522  0.5760  0.8122
  261SOL     OW  781   0.612   3.076   2.679 -0.0402  0.4987  0.8333
  261SOL    HW1  782   0.678   2.997   2.669 -1.7823  0.0505 -0.2650
  261SOL    HW2  783   0.611   0.039   2.592 -0.5866  2.7135 -2.1286
  262SOL     OW  784   2.366   2.932   2.638  0.1370  0.4517  0.2926
  262SOL    HW1  785   2.426   2.960   2.712 -0.3198 -0.0758  1.6938
  262SOL    HW2  786   2.271   2.957   2.653 -2.7334 -0.4264 -0.1574
  263SOL     OW  787   0.172   1.902   2.561  0.7918 -0.6051 -0.0517
  263SOL    HW1  788   0.085   1.869   2.519  2.5096 -1.9288  2.6620
  263SOL    HW2  789   0.202   1.849   2.640  1.2588 -1.8073  2.1859
  264SOL     OW  790   0.645   1.417   1.189  0.8314 -0.7369 -0.1478
  264SOL    HW1  791   0.628   1.493   1.121  0.4109  1.2711 -0.2534
  264SOL    HW2  792   0.733   1.371   1.164  1.0197 -3.5044 -2.0473
  265SOL     OW  793   0.364   1.791   3.051  0.0894 -0.2346  0.1836
  265SOL    HW1  794   0.340   1.701   3.083  4.3684 -1.0231 -1.7630
  265SOL    HW2  795   0.465   1.815   3.062  2.0872 -3.0066 -1.2332
  266SOL     OW  796   1.224   1.138   0.548  0.7746 -0.0682  0.3255
  266SOL    HW1  797   1.179   1.164   0.632 -0.7909 -3.9483 -3.9192
  266SOL    HW2  798   1.205   1.036   0.530  1.5464 -1.1210  0.1802
  267SOL     OW  799   2.387   0.941   0.054  0.1810 -0.4177 -0.3789
  267SOL    HW1  800   2.416   0.889   3.072 -0.9702  0.5974 -1.4422
  267SOL    HW2  801   2.322   0.888   0.121  0.1443 -0.6338 -0.6885
  268SOL     OW  802   2.748   0.028   2.793  0.6119  0.5627  0.2103
  268SOL    HW1  803   2.826   0.082   2.755  1.0346 -1.6293  0.5382
  268SOL    HW2  804   2.766   3.028   2.781 -0.2367 -0.4426  0.2381
  269SOL     OW  805   1.678   0.274   2.659  0.0797  0.3595 -0.0275
  269SOL    HW1  806   1.700   0.375   2.641  0.0252  1.9894 -1.7490
  269SOL    HW2  807   1.577   0.259   2.665 -2.8827  0.9742 -2.4489
  270SOL     OW  808   0.845   1.115   2.577 -0.3186 -0.6087  0.0502
  270SOL    HW1  809   0.758   1.111   2.528  1.0282 -1.3257  1.4800
  270SOL    HW2  810   0.885   1.208   2.571  0.6305 -2.4694 -2.7914
  271SOL     OW  811   2.617   1.087   0.141  0.3796 -0.1049 -0.0421
  271SOL    HW1  812   2.535   1.047   0.097  1.7003  2.7512 -1.6025
  271SOL    HW2  813   2.609   1.044   0.234 -0.8616  0.0068  1.2393
  272SOL     OW  814   2.697   1.815   2.818 -0.3210  0.1970 -0.1314
  272SOL    HW1  815   2.617   1.877   2.836 -2.6323  2.5079  2.4625
  272SOL    HW2  816   2.750   1.840   2.735 -0.4041  1.1669 -2.2437
  273SOL     OW  817   2.080   0.656   0.296 -0.2151  0.8461  0.0040
  273SOL    HW1  818   1.992   0.689   0.333  0.0114  3.8601  1.9180
  273SOL    HW2  819   2.082   0.679   0.195 -0.3863  1.6784 -0.5074
  274SOL     OW  820   0.180   2.481   1.122 -0.0368  0.1181  0.4540
  274SOL    HW1  821   0.265   2.419   1.113 -0.3065  0.0304 -0.5478
  274SOL    HW2  822   0.135   2.470   1.214  0.1514 -0.6185 -1.0201
  275SOL     OW  823   2.357   1.379   0.744 -0.1086  0.1001  0.4173
  275SOL    HW1  824   2.450   1.345   0.748  0.5698 -0.7763  0.3672
  275SOL    HW2  825   2.281   1.320   0.782 -0.4807 -0.2863 -0.6849
  276SOL     OW  826   0.113   1.133   2.693  0.3418 -0.8671  0.2283
  276SOL    HW1  827   0.196   1.123   2.631  2.2432  0.6837  0.6703
  276SOL    HW2  828   0.033   1.100   2.644 -0.0895 -1.1589 -0.4514
  277SOL     OW  829   1.707   2.390   1.217 -0.0303 -0.0695 -0.3757
  277SOL    HW1  830   1.797   2.419   1.252  2.0183  1.9301 -0.7213
  277SOL    HW2  831   1.703   2.291   1.205  2.6850  0.7697  0.7271
  278SOL     OW  832   1.263   0.533   1.621  0.5572 -0.3067  0.2315
  278SOL    HW1  833   1.210   0.447   1.605 -0.1662  1.2651 -0.7982
  278SOL    HW2  834   1.361   0.503   1.634 -0.1370  2.2202  2.0587
  279SOL     OW  835   1.608   1.773   0.586  0.1989  0.1002  0.3190
  279SOL    HW1  836   1.590   1.672   0.611  0.3522 -2.8876 -1.5120
  279SOL    HW2  837   1.527   1.811   0.538 -1.5996 -0.0085  0.1960
  280SOL     OW  838   0.575   1.789   0.706  0.6288  0.2736  0.9427
  280SOL    HW1  839   0.620   1.875   0.678 -2.7402  2.0605  2.7199
  280SOL    HW2  840   0.499   1.789   0.776  1.4678 -1.5593 -1.1105
  281SOL     OW  841   2.977   0.136   2.687 -0.8353 -0.1981  0.4277
  281SOL    HW1  842   2.935   0.224   2.675  0.2736 -0.9205 -0.5334
  281SOL    HW2  843   3.034   0.107   2.608  3.4064  0.6696  1.1003
  282SOL     OW  844   0.344   1.023   0.806 -0.4447  0.5999  0.5802
  282SOL    HW1  845   0.314   0.946   0.747  0.9125 -0.8243 -0.7365
  282SOL    HW2  846   0.286   1.104   0.790 -0.1310 -1.6093 -1.1924
  283SOL     OW  847   1.912   1.991   0.412 -1.2367  0.1180  0.2028
  283SOL    HW1  848   2.007   2.022   0.399 -2.1138 -2.3343 -0.6045
  283SOL    HW2  849   1.872   1.967   0.321  3.1651 -1.9808 -1.0480
  284SOL     OW  850   1.101   1.151   0.287  0.0553  0.1621 -0.8902
  284SOL    HW1  851   1.140   1.163   0.380 -0.5661 -0.2087 -1.6663
  284SOL    HW2  852   1.172   1.184   0.219  2.3236  0.4696  0.4787
  285SOL     OW  853   2.266   0.629   2.846  0.2862 -0.3204 -0.7876
  285SOL    HW1  854   2.331   0.703   2.869 -0.3998 -2.3304 -0.7134
  285SOL    HW2  855   2.192   0.665   2.787  1.3202  1.4201  0.6529
  286SOL     OW  856   1.470   2.990   1.307  0.0905 -0.0691  0.4919
  286SOL    HW1  857   1.386   2.987   1.245  0.3972 -0.3083 -0.1127
  286SOL    HW2  858   1.492   3.084   1.333  0.9953 -1.3744 -0.3474
  287SOL     OW  859   0.912   1.380   1.130  0.0360 -0.1475  0.4263
  287SOL    HW1  860   1.005   1.375   1.084 -0.4874 -0.5608  1.0436
  287SOL    HW2  861   0.877   1.477   1.121 -1.8637 -0.4857 -0.0890
  288SOL     OW  862   1.591   2.964   2.864  0.1639  0.3509  0.7632
  288SOL    HW1  863   1.658   2.910   2.914  0.7334 -1.3245 -0.1389
  288SOL    HW2  864   1.605   3.060   2.880 -1.2746 -0.9021 -2.7004
  289SOL     OW  865   0.073   1.507   2.209  0.0942 -0.3981  0.3564
  289SOL    HW1  866   0.067   1.580   2.139  2.2919  1.0843  0.6371
  289SOL    HW2  867   3.089   1.516   2.269 -2.0219  0.4411 -1.5415
  290SOL     OW  868   1.787   2.372   0.887  0.2173  0.5987  0.3649
  290SOL    HW1  869   1.878   2.382   0.930 -2.2592  1.4848  0.5707
  290SOL    HW2  870   1.775   2.268   0.875  1.1799  0.8045 -2.2116
  291SOL     OW  871   2.334   2.215   0.062  0.3222  0.2395  0.0708
  291SOL    HW1  872   2.266   2.267   0.121 -4.0350  0.3908  3.0093
  291SOL    HW2  873   2.282   2.165   3.098 -0.4740  0.6413 -0.1008
  292SOL     OW  874   0.935   0.822   2.087 -0.2343 -0.3571  0.1092
  292SOL    HW1  875   1.024   0.776   2.113  1.9484  1.1436 -2.0632
  292SOL    HW2  876   0.916   0.799   1.993 -0.0089  0.4038 -0.0030
  293SOL     OW  877   2.053   2.805   0.816  0.2329  0.2473 -0.2994
  293SOL    HW1  878   2.068   2.872   0.743  0.4906 -3.1591  1.1437
  293SOL    HW2  879   2.120   2.730   0.807 -0.7111  0.0037  0.0876
  294SOL     OW  880   0.301   0.435   2.508 -0.1969  0.4554  0.1774
  294SOL    HW1  881   0.311   0.533   2.518  1.0682 -2.5839 -2.6550
  294SOL    HW2  882   0.376   0.392   2.448  1.9410 -1.2415  1.3561
  295SOL     OW  883   1.308   2.022   0.742 -0.1059 -0.4422 -0.2725
  295SOL    HW1  884   1.367   1.988   0.818 -0.0365 -2.0358  2.3231
  295SOL    HW2  885   1.244   1.951   0.701 -0.5426 -0.2869 -1.6670
  296SOL     OW  886   2.524   1.740   0.461 -0.1368  0.2376  0.4986
  296SOL    HW1  887   2.528   1.777   0.364 -0.4460  0.0792 -4.6244
  296SOL    HW2  888   2.498   1.640   0.458  3.7182 -1.0782  2.1552
  297SOL     OW  889   2.093   0.380   0.139  0.4361  0.0838 -0.6197
  297SOL    HW1  890   2.105   0.298   0.078 -2.7378  1.2568  1.4817
  297SOL    HW2  891   2.136   0.462   0.105  1.3910  1.0776  1.5629
  298SOL     OW  892   1.218   2.321   2.156 -0.2397 -0.0508 -0.0185
  298SOL    HW1  893   1.131   2.275   2.119 -2.9139 -0.7184  0.3647
  298SOL    HW2  894   1.308   2.267   2.153  2.0784 -0.7432 -0.3919
  299SOL     OW  895   1.250   2.697   2.600 -0.2149  0.5378 -0.3700
  299SOL    HW1  896   1.282   2.738   2.685  0.7785 -1.9791 -2.2789
  299SOL    HW2  897   1.330   2.677   2.539  0.4017 -1.3762 -1.4103
  300SOL     OW  898   2.098   3.037   2.639 -0.6641 -0.4303 -0.1344
  300SOL    HW1  899   2.070   3.049   2.538 -2.1123 -1.0099 -3.8450
  300SOL    HW2  900   2.126   0.022   2.690 -0.5738  2.6542  1.2353
  301SOL     OW  901   1.507   1.305   1.544 -0.7391  0.0456  0.1833
  301SOL    HW1  902   1.518   1.237   1.618  2.2946  0.9933  0.6135
  301SOL    HW2  903   1.422   1.294   1.491 -0.7831  2.5175  1.8411
  302SOL     OW  904   2.562   2.566   0.352 -0.3925  0.2900  0.0836
  302SOL    HW1  905   2.647   2.607   0.320  2.3656 -0.2852 -0.2613
  302SOL    HW2  906   2.504   2.535   0.270  0.6391  1.2437 -2.9545
  303SOL     OW  907   2.808   2.340   2.449 -0.8153  0.3206  0.1265
  303SOL    HW1  908   2.818   2.416   2.384 -0.8595 -3.6856  0.3614
  303SOL    HW2  909   2.881   2.270   2.435  1.3775 -0.6411 -0.0800
  304SOL     OW  910   2.839   0.567   1.781  0.1544  0.0701 -0.6632
  304SOL    HW1  911   2.850   0.657   1.739 -1.4809 -0.2021 -2.1737
  304SOL    HW2  912   2.780   0.585   1.864  1.8920  0.8670  0.0376
  305SOL     OW  913   0.941   2.055   1.775 -0.7632  0.0862 -0.1051
  305SOL    HW1  914   0.992   1.972   1.814  1.0489 -1.4205 -1.6941
  305SOL    HW2  915   0.985   2.139   1.801 -1.7138 -1.6672  0.5385
  306SOL     OW  916   2.780   0.827   1.729  0.4035 -0.4229  0.5561
  306SOL    HW1  917   2.835   0.872   1.657 -1.0270 -0.7442  0.5956
  306SOL    HW2  918   2.786   0.883   1.815 -0.7103  1.8002 -0.0268
  307SOL     OW  919   1.550   1.175   1.773 -1.1021 -0.2880  0.5805
  307SOL    HW1  920   1.479   1.153   1.838  2.4267  0.3907  0.2716
  307SOL    HW2  921   1.611   1.096   1.758  0.1932 -0.8545  1.8799
  308SOL     OW  922   2.723   1.453   0.905 -0.9487 -0.6375 -0.0524
  308SOL    HW1  923   2.665   1.528   0.943  0.2697 -0.0364  2.3342
  308SOL    HW2  924   2.680   1.414   0.824 -1.6452  2.2097  0.5515
  309SOL     OW  925   2.279   1.498   1.310 -0.0261 -0.4143 -0.6211
  309SOL    HW1  926   2.295   1.587   1.356 -1.3972  2.2166  0.2151
  309SOL    HW2  927   2.370   1.450   1.314  1.6896  0.3435  0.5073
  310SOL     OW  928   2.661   1.656   2.490  0.1762 -0.1206  0.3645
  310SOL    HW1  929   2.724   1.732   2.515 -0.4102  4.9946  1.3679
  310SOL    HW2  930   2.647   1.593   2.573  2.7747 -0.5835 -1.5485
  311SOL     OW  931   0.131   2.258   3.093 -0.1855 -0.0683 -0.1516
  311SOL    HW1  932   0.062   2.287   0.060  2.9008  1.4506 -0.1806
  311SOL    HW2  933   0.171   2.171   0.024 -1.3268  0.0173  0.8547
  312SOL     OW  934   2.206   1.569   1.007 -0.4945  0.2889  0.2097
  312SOL    HW1  935   2.181   1.571   1.103  1.7772 -2.5442 -0.1954
  312SOL    HW2  936   2.301   1.539   0.997 -2.8579 -0.2315 -1.5160
  313SOL     OW  937   2.535   0.049   1.112  0.0160 -0.2253 -0.2891
  313SOL    HW1  938   2.485   3.083   1.177  0.1123 -4.8967 -0.5829
  313SOL    HW2  939   2.484   0.046   1.023 -1.5534 -4.1509 -0.1716
  314SOL     OW  940   1.171   1.625   0.457 -0.3960  0.1760 -0.2978
  314SOL    HW1  941   1.098   1.642   0.387 -3.3729  0.4872 -0.5179
  314SOL    HW2  942   1.238   1.556   0.418  0.9811  0.2437  0.5374
  315SOL     OW  943   1.148   2.582   2.136  0.1137 -0.2209  0.1200
  315SOL    HW1  944   1.129   2.633   2.224 -0.3366 -0.4076 -1.6488
  315SOL    HW2  945   1.194   2.492   2.148  2.2584  0.2708 -1.0979
  316SOL     OW  946   2.859   1.178   0.198 -0.1796 -0.1763  0.3396
  316SOL    HW1  947   2.929   1.105   0.196 -0.2937  0.8580  1.5496
  316SOL    HW2  948   2.772   1.141   0.157 -0.6031  0.5022 -3.2788
  317SOL     OW  949   0.893   0.173   0.406 -0.1688  0.3201 -0.6149
  317SOL    HW1  950   0.880   0.123   0.320  0.7186  0.0747  0.6183
  317SOL    HW2  951   0.904   0.108   0.486 -1.9209 -1.7395  1.1071
  318SOL     OW  952   2.838   2.644   0.266 -0.2689 -0.1484 -0.6022
  318SOL    HW1  953   2.831   2.745   0.269  2.2166  0.2489  2.5829
  318SOL    HW2  954   2.910   2.609   0.329 -0.7983 -0.2042  0.9898
  319SOL     OW  955   0.650   1.414   2.583  0.1437  0.2714  0.0241
  319SOL    HW1  956   0.581   1.492   2.598 -2.6151  0.6065 -1.4387
  319SOL    HW2  957   0.647   1.346   2.662  1.7752 -0.7847  0.9853
  320SOL     OW  958   0.591   2.353   1.816  0.0566 -0.2405  0.1123
  320SOL    HW1  959   0.675   2.396   1.778  0.9798 -3.3490 -1.3414
  320SOL    HW2  960   0.543   2.418   1.873  3.5464 -1.3904  0.9176
  321SOL     OW  961   1.639   2.225   2.819 -0.0643  0.0813 -0.5344
  321SOL    HW1  962   1.688   2.308   2.795  2.0701  1.9010  0.7893
  321SOL    HW2  963   1.539   2.233   2.826  0.3483  0.0159  0.5726
  322SOL     OW  964   2.829   1.111   1.950  0.0153  0.3527  0.2325
  322SOL    HW1  965   2.760   1.156   2.012  0.5156 -0.6144 -1.4614
  322SOL    HW2  966   2.924   1.114   1.989 -1.0686  0.6962 -2.2610
  323SOL     OW  967   2.304   0.997   0.715 -0.6889 -0.0597  0.5724
  323SOL    HW1  968   2.341   0.903   0.702  1.6229 -0.2775 -0.1676
  323SOL    HW2  969   2.310   1.054   0.631 -0.5162  1.7569  1.5336
  324SOL     OW  970   0.229   2.639   2.990  0.1303  0.1199  0.6730
  324SOL    HW1  971   0.325   2.607   3.011 -0.9039  1.4810  1.3701
  324SOL    HW2  972   0.240   2.730   2.949  0.4922  0.8654 -1.2381
  325SOL     OW  973   1.401   0.475   2.311 -0.1194  0.2219 -0.6543
  325SOL    HW1  974   1.482   0.536   2.307 -3.8541  1.0666  0.5532
  325SOL    HW2  975   1.387   0.432   2.219 -0.8328 -1.3478 -0.6566
  326SOL     OW  976   2.346   2.593   1.652 -0.0144  0.7061  0.0144
  326SOL    HW1  977   2.433   2.637   1.654 -1.9996 -3.6048 -1.2913
  326SOL    HW2  978   2.355   2.504   1.708  2.7003 -1.2797  0.2255
  327SOL     OW  979   1.940   0.587   2.959 -0.0541 -0.0761  0.7324
  327SOL    HW1  980   1.901   0.581   3.053 -1.2297 -1.0632 -0.1910
  327SOL    HW2  981   1.958   0.497   2.925 -0.8198  1.0131  0.6678
  328SOL     OW  982   2.938   0.784   2.150 -0.0934  0.4091 -0.2119
  328SOL    HW1  983   3.038   0.768   2.165  0.3539 -0.4226  0.3641
  328SOL    HW2  984   2.898   0.806   2.240 -1.1747 -0.6672 -1.3541
  329SOL     OW  985   1.289   0.248   1.822 -0.2753  0.2934  0.3248
  329SOL    HW1  986   1.229   0.176   1.859 -1.4434 -0.5508  1.2072
  329SOL    HW2  987   1.370   0.205   1.772 -0.1486  1.7302 -2.6208
  330SOL     OW  988   2.895   1.794   1.414  0.5872  0.2165 -0.8039
  330SOL    HW1  989   2.992   1.820   1.409 -1.2330  1.3931 -1.1196
  330SOL    HW2  990   2.885   1.700   1.376  0.0973  0.5434 -1.0312
  331SOL     OW  991   0.559   1.468   2.035  0.3026  0.7010  0.3732
  331SOL    HW1  992   0.496   1.485   2.116 -2.0535 -1.7888 -2.1543
  331SOL    HW2  993   0.649   1.440   2.065  0.3880  0.1925 -2.1759
  332SOL     OW  994   0.075   2.751   1.453  0.2354  0.4873  0.2294
  332SOL    HW1  995   0.078   2.817   1.528  1.0073 -1.8222 -3.7006
  332SOL    HW2  996   0.031   2.786   1.367  1.1483 -2.2726  0.2342
  333SOL     OW  997   2.344   2.755   1.980 -0.4395 -0.5218 -0.3681
  333SOL    HW1  998   2.425   2.816   1.977  3.3764  1.9143  0.3485
  333SOL    HW2  999   2.380   2.664   1.972 -0.9139 -0.2342 -0.8269
  334SOL     OW 1000   1.027   1.980   0.981 -0.5189  0.1483  0.0941
  334SOL    HW1 1001   0.961   2.037   1.036 -1.2937  2.3498  0.2732
  334SOL    HW2 1002   1.055   2.022   0.894 -0.8658  1.1949 -0.1464
  335SOL     OW 1003   0.912   2.214   2.737  0.6089  0.2606  0.4033
  335SOL    HW1 1004   0.816   2.248   2.739 -0.8481 -1.2353 -0.6015
  335SOL    HW2 1005   0.977   2.275   2.790  0.7130  0.3549 -0.6582
  336SOL     OW 1006   3.052   0.158   1.994  0.3043  0.0667  0.6909
  336SOL    HW1 1007   3.087   0.139   1.897  0.7771 -1.7061 -4.9966
  336SOL    HW2 1008   3.098   0.090   2.054  0.9134 -1.3855 -0.2863
  337SOL     OW 1009   2.771   2.152   0.024  0.7017  0.0019 -0.5946
  337SOL    HW1 1010   2.770   2.199   0.115 -1.0684 -0.5528 -2.4477
  337SOL    HW2 1011   2.863   2.112   0.008  0.8119 -1.3774 -0.5306
  338SOL     OW 1012   1.114   2.118   1.278 -0.1880  0.6075 -0.2916
  338SOL    HW1 1013   1.153   2.174   1.201 -0.9960 -0.6672 -0.1796
  338SOL    HW2 1014   1.013   2.133   1.295 -0.4296  2.8481  1.0451
  339SOL     OW 1015   2.926   0.370   2.104  0.3866 -0.2127  0.4396
  339SOL    HW1 1016   2.831   0.344   2.129 -1.1125  3.5243 -1.9951
  339SOL    HW2 1017   2.979   0.294   2.058  1.9278  0.8269 -2.9608
  340SOL     OW 1018   1.849   2.685   0.420  0.4249 -0.1779  0.4333
  340SOL    HW1 1019   1.789   2.617   0.381  0.3082  0.8029  1.0186
  340SOL    HW2 1020   1.826   2.703   0.520  1.9928 -1.3036 -0.1375
  341SOL     OW 1021   1.599   1.605   1.191  0.0358 -0.0406  0.0264
  341SOL    HW1 1022   1.675   1.538   1.216  2.7860  0.2151 -1.8091
  341SOL    HW2 1023   1.621   1.656   1.109  1.8520 -2.2073 -0.4134
  342SOL     OW 1024   0.425   1.618   0.519  0.2127  0.3099  0.2995
  342SOL    HW1 1025   0.405   1.644   0.421  1.3595  0.0921  1.5620
  342SOL    HW2 1026   0.456   1.701   0.569  2.7901  1.3835  2.1818
  343SOL     OW 1027   1.439   2.830   1.558  0.4532 -0.0159  0.0878
  343SOL    HW1 1028   1.526   2.801   1.601 -0.1649 -1.6048  1.1382
  343SOL    HW2 1029   1.448   2.870   1.466  1.6572 -0.2455  1.8617
  344SOL     OW 1030   2.355   2.805   1.034 -0.3154  0.0462  0.6336
  344SOL    HW1 1031   2.288   2.729   1.013 -3.1580  0.1044 -0.4364
  344SOL    HW2 1032   2.323   2.869   1.103  0.4535  2.8185  0.3542
  345SOL     OW 1033   2.830   2.316   2.732 -0.3681 -0.1153  0.0552
  345SOL    HW1 1034   2.807   2.345   2.637 -1.5979  3.1335 -0.8282
  345SOL    HW2 1035   2.929   2.326   2.752 -1.0314  1.6413  0.2107
  346SOL     OW 1036   0.340   2.027   0.773 -0.1008  0.8381  0.1629
  346SOL    HW1 1037   0.243   2.010   0.795 -0.4758 -5.2075 -0.1229
  346SOL    HW2 1038   0.365   2.118   0.735 -1.9582  2.3243  0.3691
  347SOL     OW 1039   1.977   2.484   1.135 -0.0266  0.5969 -0.1354
  347SOL    HW1 1040   2.075   2.489   1.151  1.5021 -1.6239 -2.1577
  347SOL    HW2 1041   1.931   2.573   1.123  0.1581  0.9573 -3.9327
  348SOL     OW 1042   1.448   1.506   2.618 -0.3106  0.3882  0.6146
  348SOL    HW1 1043   1.422   1.409   2.595 -0.2402  1.1016  0.7932
  348SOL    HW2 1044   1.376   1.567   2.584 -1.4056 -2.1727  1.4057
  349SOL     OW 1045   2.202   0.880   2.256  0.1800 -0.2047  0.3370
  349SOL    HW1 1046   2.165   0.875   2.156 -0.9978  0.7382 -2.3304
  349SOL    HW2 1047   2.258   0.964   2.278  3.1015  3.2359  0.4626
  350SOL     OW 1048   2.927   2.471   1.363  0.3000  0.3929 -0.2346
  350SOL    HW1 1049   2.898   2.546   1.300 -0.2675  0.1473  1.2252
  350SOL    HW2 1050   3.029   2.471   1.381 -1.8418 -2.0272 -0.9471
  351SOL     OW 1051   0.544   0.252   2.826 -1.0116 -0.0735  0.5836
  351SOL    HW1 1052   0.533   0.243   2.927 -0.4417  0.8415 -0.4728
  351SOL    HW2 1053   0.638   0.229   2.804 -2.5291 -0.8755 -1.5720
  352SOL     OW 1054   0.672   2.401   1.434 -0.1186  0.0531  0.3387
  352SOL    HW1 1055   0.597   2.347   1.472  1.0342 -1.6168  2.2634
  352SOL    HW2 1056   0.646   2.499   1.415  3.3642 -0.9164 -1.1559
  353SOL     OW 1057   0.919   0.859   2.580 -0.5579 -0.4667 -0.4505
  353SOL    HW1 1058   0.883   0.957   2.580 -1.1292 -3.4465 -0.8349
  353SOL    HW2 1059   1.001   0.853   2.638 -0.1025 -0.1775 -0.3206
  354SOL     OW 1060   1.457   1.069   0.698  0.2413 -0.3422  0.8180
  354SOL    HW1 1061   1.432   0.973   0.719 -0.0855 -1.6610 -0.2882
  354SOL    HW2 1062   1.387   1.104   0.631  1.0498 -0.0065 -0.2327
  355SOL     OW 1063   2.882   0.323   0.385 -0.0369  0.4092  0.1917
  355SOL    HW1 1064   2.914   0.253   0.314  1.7449  0.6082  0.8357
  355SOL    HW2 1065   2.804   0.280   0.440 -0.0433 -1.6470  0.5909
  356SOL     OW 1066   2.975   1.018   2.615  0.5888  0.3127  0.0558
  356SOL    HW1 1067   3.023   0.952   2.553 -2.6934  0.8021 -1.5371
  356SOL    HW2 1068   2.906   1.062   2.551 -1.9750  1.7171  0.2898
  357SOL     OW 1069   0.789   2.741   1.748  0.4697  0.5100 -0.1523
  357SOL    HW1 1070   0.764   2.784   1.661 -0.5781  1.4921  1.0317
  357SOL    HW2 1071   0.806   2.641   1.739  0.4535 -0.8956  0.2535
  358SOL     OW 1072   2.376   1.435   2.516 -0.4310  0.3089 -0.2703
  358SOL    HW1 1073   2.427   1.518   2.489  0.2478 -0.0013  1.0037
  358SOL    HW2 1074   2.316   1.412   2.438  1.7516  1.0497  2.2555
  359SOL     OW 1075   2.457   2.559   2.752 -0.1490 -0.4034  0.4325
  359SOL    HW1 1076   2.502   2.604   2.673  1.9203 -0.0477 -0.1617
  359SOL    HW2 1077   2.468   2.458   2.745  0.5227  0.2055  2.5157
  360SOL     OW 1078   2.115   0.813   0.762 -0.1267  0.1789  0.8330
  360SOL    HW1 1079   2.165   0.726   0.746 -2.5319 -1.9270 -1.6355
  360SOL    HW2 1080   2.182   0.890   0.778  0.5312  3.2415 -2.1404
  361SOL     OW 1081   1.915   2.761   1.069  0.0413  0.5964  0.1083
  361SOL    HW1 1082   1.826   2.808   1.069  2.3219  0.7030  1.5861
  361SOL    HW2 1083   1.968   2.779   0.985 -1.0295 -0.1053  1.7513
  362SOL     OW 1084   1.526   1.247   0.910  0.8598  0.0300 -0.0320
  362SOL    HW1 1085   1.508   1.178   0.837  1.3735  1.0058 -2.2340
  362SOL    HW2 1086   1.575   1.325   0.868  0.0748 -2.8743  0.2024
  363SOL     OW 1087   3.005   1.504   2.413 -0.4803  0.2383 -0.5815
  363SOL    HW1 1088   2.921   1.479   2.355 -2.8794  1.7485  0.3978
  363SOL    HW2 1089   3.006   1.460   2.501  1.5121 -0.5984 -3.9440
  364SOL     OW 1090   1.388   0.713   1.382 -0.8138 -0.2081  0.7003
  364SOL    HW1 1091   1.408   0.699   1.476  0.4405  0.4443  0.6931
  364SOL    HW2 1092   1.479   0.716   1.335  1.3668  0.6181  0.4733
  365SOL     OW 1093   3.094   2.822   1.196 -0.0012  0.4134 -0.6092
  365SOL    HW1 1094   0.039   2.786   1.113 -0.7608 -0.7352  0.0175
  365SOL    HW2 1095   3.032   2.899   1.166  1.7063  2.9941 -0.4267
  366SOL     OW 1096   2.918   1.455   0.182 -0.6923 -0.7899  0.2590
  366SOL    HW1 1097   2.974   1.448   0.268 -1.4381  0.8989  0.8182
  366SOL    HW2 1098   2.873   1.367   0.158  0.1587  1.0006 -1.1487
  367SOL     OW 1099   0.025   1.978   2.828 -0.3895 -0.2380  0.0895
  367SOL    HW1 1100   0.074   1.887   2.831  1.2720 -2.4468  3.0117
  367SOL    HW2 1101   3.080   1.989   2.919  1.8034 -1.7389  0.9582
  368SOL     OW 1102   2.876   2.267   1.071  0.1504  0.2656  0.5382
  368SOL    HW1 1103   2.787   2.279   1.120  0.4936 -0.3328 -2.3039
  368SOL    HW2 1104   2.930   2.354   1.060  0.0169 -1.0834 -0.8777
  369SOL     OW 1105   0.490   0.482   0.340 -0.2866 -0.3667 -0.1587
  369SOL    HW1 1106   0.489   0.465   0.243  1.5360 -1.7355  4.5651
  369SOL    HW2 1107   0.576   0.442   0.383  0.6928  0.6716  1.4992
  370SOL     OW 1108   0.394   0.873   1.585  0.0247 -0.0832  0.6518
  370SOL    HW1 1109   0.385   0.960   1.529  0.1896  0.2674  2.7427
  370SOL    HW2 1110   0.442   0.801   1.534 -1.6852  0.6925 -0.0219
  371SOL     OW 1111   2.170   1.950   0.687 -0.1770  0.3231  0.5890
  371SOL    HW1 1112   2.132   1.991   0.768  2.6340 -1.5847 -4.8888
  371SOL    HW2 1113   2.200   1.851   0.703  1.8799 -2.6561 -2.2836
  372SOL     OW 1114   3.095   0.800   2.480  0.1947 -0.0210 -0.3709
  372SOL    HW1 1115   0.064   0.799   2.554 -1.5249 -1.4344 -2.7129
  372SOL    HW2 1116   0.036   0.792   2.389 -0.7441 -0.7884  4.2016
  373SOL     OW 1117   2.938   1.485   0.612 -0.2910 -0.0598  0.2769
  373SOL    HW1 1118   2.872   1.555   0.649 -0.1365  2.0191 -0.6501
  373SOL    HW2 1119   2.890   1.413   0.555 -1.4908 -0.6820  0.8833
  374SOL     OW 1120   0.745   2.285   0.103 -0.3296  0.6411  0.7511
  374SOL    HW1 1121   0.809   2.317   0.172  0.1902 -0.8049  0.5790
  374SOL    HW2 1122   0.647   2.270   0.132  2.4920 -2.8341  1.0977
  375SOL     OW 1123   0.635   0.286   0.005 -0.2746 -0.6890  0.5674
  375SOL    HW1 1124   0.725   0.311   3.057  2.5363  2.6942 -1.0528
  375SOL    HW2 1125   0.649   0.214   0.074  1.2984  1.2593 -2.6107
  376SOL     OW 1126   0.110   3.043   2.108 -0.0129 -0.1245  0.4785
  376SOL    HW1 1127   0.051   3.012   2.185 -0.2289 -0.5226  1.9600
  376SOL    HW2 1128   0.172   2.972   2.082 -1.5689 -2.4189 -2.0990
  377SOL     OW 1129   0.734   1.980   2.259  0.2422  0.3141 -0.2417
  377SOL    HW1 1130   0.763   1.934   2.347  0.7020  0.7488  2.0445
  377SOL    HW2 1131   0.740   1.911   2.183  2.8479 -2.6139 -0.7520
  378SOL     OW 1132   1.165   0.865   0.516  0.4415  0.0229 -0.6350
  378SOL    HW1 1133   1.194   0.800   0.440 -1.4181  1.2593 -0.1247
  378SOL    HW2 1134   1.064   0.869   0.526 -0.0845 -0.5598  0.2249
  379SOL     OW 1135   1.143   1.398   3.047  0.1497 -0.2216 -0.3584
  379SOL    HW1 1136   1.151   1.316   0.002  0.6981 -0.8249 -0.1831
  379SOL    HW2 1137   1.237   1.433   3.026 -1.3256 -0.2642  1.9561
  380SOL     OW 1138   3.086   1.993   1.971  0.4518 -0.2980  0.2407
  380SOL    HW1 1139   3.000   1.983   1.918 -0.5787  0.7471  0.7772
  380SOL    HW2 1140   0.064   1.939   1.932 -0.0750 -0.5374 -0.6874
  381SOL     OW 1141   0.243   0.772   1.938 -0.4345 -0.9070 -0.0522
  381SOL    HW1 1142   0.335   0.780   1.899  1.2725 -0.4635 -0.0601
  381SOL    HW2 1143   0.164   0.775   1.872 -1.1791 -1.3126 -1.1188
  382SOL     OW 1144   2.647   2.180   2.877  0.1094  1.0949  0.0989
  382SOL    HW1 1145   2.708   2.226   2.811 -0.8214 -1.0957 -0.5411
  382SOL    HW2 1146   2.689   2.182   2.969  3.0450  0.5313  0.9077
  383SOL     OW 1147   2.320   1.892   2.535  0.0734 -0.4220 -0.5840
  383SOL    HW1 1148   2.322   1.832   2.450 -0.6859 -2.6238 -3.1658
  383SOL    HW2 1149   2.241   1.860   2.598 -5.1542  0.4335  1.2602
  384SOL     OW 1150   0.756   2.430   2.164  0.2149 -0.4899 -0.0327
  384SOL    HW1 1151   0.681   2.492   2.138  0.2334 -2.2089 -1.4104
  384SOL    HW2 1152   0.734   2.336   2.142 -2.8291  1.8538  2.9670
  385SOL     OW 1153   2.578   1.880   1.012 -0.2342  0.1648  0.1731
  385SOL    HW1 1154   2.639   1.924   0.945  0.0506  2.0716  1.3971
  385SOL    HW2 1155   2.616   1.886   1.104 -1.8161 -1.3609 -1.4325
  386SOL     OW 1156   1.793   0.889   2.907  0.2713 -0.1261 -0.0966
  386SOL    HW1 1157   1.884   0.906   2.942  0.2743 -1.5312 -6.1723
  386SOL    HW2 1158   1.718   0.910   2.974  1.5512 -1.8144  2.8320
  387SOL     OW 1159   0.470   0.869   1.845  0.3229 -0.4587 -0.1172
  387SOL    HW1 1160   0.429   0.893   1.758  0.9782 -0.4623  3.6193
  387SOL    HW2 1161   0.520   0.953   1.872  3.8462 -0.4100 -0.8951
  388SOL     OW 1162   2.859   0.896   1.454  0.5983 -0.2971  0.1080
  388SOL    HW1 1163   2.770   0.843   1.439 -2.7642 -2.3355  0.1263
  388SOL    HW2 1164   2.840   0.998   1.450 -1.2520 -1.4266  0.5465
  389SOL     OW 1165   1.658   1.023   2.540  0.4004  0.5241 -0.0306
  389SOL    HW1 1166   1.750   1.019   2.497  0.6386  0.8028 -0.6351
  389SOL    HW2 1167   1.643   1.118   2.573  1.6563  1.5019 -1.4881
  390SOL     OW 1168   2.042   2.243   0.668  0.0200 -0.2780  0.2721
  390SOL    HW1 1169   2.120   2.198   0.714 -1.6409 -1.3637  0.0204
  390SOL    HW2 1170   1.957   2.213   0.715  1.5821 -2.1459 -2.5280
  391SOL     OW 1171   1.810   2.735   0.688  0.3315  0.0925  0.0494
  391SOL    HW1 1172   1.899   2.767   0.728  0.5238 -1.2899 -0.5468
  391SOL    HW2 1173   1.750   2.692   0.758  2.7520  0.9399  0.4719
  392SOL     OW 1174   2.580   2.746   1.694  0.1999 -0.2833  0.1442
  392SOL    HW1 1175   2.639   2.737   1.611  0.4225  2.0500 -1.9466
  392SOL    HW2 1176   2.582   2.838   1.726  1.4250  0.0313  2.6324
  393SOL     OW 1177   1.929   1.826   2.861 -0.7080 -0.0459 -0.4433
  393SOL    HW1 1178   1.867   1.906   2.877  0.7728  1.0664  2.2105
  393SOL    HW2 1179   1.983   1.806   2.944 -2.1089  0.9457  0.9208
  394SOL     OW 1180   0.455   2.691   2.682  0.1676  0.1478  0.3893
  394SOL    HW1 1181   0.424   2.644   2.770 -0.2684  0.1566  0.7991
  394SOL    HW2 1182   0.391   2.765   2.657 -1.3178 -1.2620  2.3079
  395SOL     OW 1183   0.837   1.629   1.084 -0.4795  0.2048 -0.9690
  395SOL    HW1 1184   0.748   1.633   1.033  1.1621 -0.7450 -0.1079
  395SOL    HW2 1185   0.835   1.706   1.156  1.9318  0.6915 -2.7029
  396SOL     OW 1186   1.741   0.782   2.664 -0.2293 -0.0875  0.0685
  396SOL    HW1 1187   1.694   0.864   2.626  0.3501  2.2240 -1.3606
  396SOL    HW2 1188   1.759   0.806   2.764 -0.6928  1.3769  0.9114
  397SOL     OW 1189   2.929   0.780   2.856  0.8042  0.6128 -0.6917
  397SOL    HW1 1190   2.944   0.823   2.769 -0.1016 -1.8958  1.9003
  397SOL    HW2 1191   2.878   0.688   2.851 -0.7514  1.6000 -3.1064
  398SOL     OW 1192   1.308   0.374   0.433 -0.0818 -0.2437 -0.1886
  398SOL    HW1 1193   1.406   0.408   0.428  1.3164 -1.9400  0.0333
  398SOL    HW2 1194   1.310   0.310   0.515  1.8262  1.7462  1.9645
  399SOL     OW 1195   1.839   0.107   1.861 -0.1270  0.1854 -0.2205
  399SOL    HW1 1196   1.774   0.084   1.785  1.9112 -0.5153 -1.1518
  399SOL    HW2 1197   1.877   0.024   1.910  0.8665  1.3587 -1.2413
  400SOL     OW 1198   2.979   2.147   2.369  0.2943  0.6222  0.0690
  400SOL    HW1 1199   2.980   2.119   2.465 -1.9678  1.0257  0.3438
  400SOL    HW2 1200   2.982   2.061   2.313  0.0847  0.3321  3.2008
  401SOL     OW 1201   0.685   0.080   0.152  0.5522  0.3570 -0.3012
  401SOL    HW1 1202   0.668   0.066   0.250 -0.4803 -2.8237 -1.7720
  401SOL    HW2 1203   0.736   3.097   0.120 -0.2263 -0.7191 -1.4893
  402SOL     OW 1204   0.220   2.249   1.457  0.3477 -0.1298  0.1371
  402SOL    HW1 1205   0.303   2.248   1.524  0.9797  2.3205  2.2335
  402SOL    HW2 1206   0.143   2.192   1.490 -1.5173  0.2124 -0.5514
  403SOL     OW 1207   0.119   0.968   1.252 -0.2413  0.1683 -0.3880
  403SOL    HW1 1208   0.052   1.035   1.225  1.4811 -0.5489 -2.0547
  403SOL    HW2 1209   0.083   0.903   1.326 -1.0273 -0.8031 -0.4362
  404SOL     OW 1210   0.059   2.423   2.096 -0.2134 -0.5229  0.3810
  404SOL    HW1 1211   0.073   2.327   2.134  2.0813 -1.3918 -0.9037
  404SOL    HW2 1212   0.123   2.486   2.144 -2.1712 -0.6107  0.5281
  405SOL     OW 1213   2.682   0.304   2.206 -0.0203  0.0026  0.0910
  405SOL    HW1 1214   2.592   0.259   2.215  1.0141  2.4541 -0.9938
  405SOL    HW2 1215   2.680   0.402   2.222 -0.6296 -1.3488 -0.9880
  406SOL     OW 1216   2.032   2.332   0.427  0.1019 -0.4811  0.0501
  406SOL    HW1 1217   2.045   2.300   0.522  1.7761 -1.1845 -0.6475
  406SOL    HW2 1218   1.946   2.383   0.409  5.2612  0.9667 -1.7217
  407SOL     OW 1219   1.895   1.751   0.833  0.0861  0.0889  0.1379
  407SOL    HW1 1220   1.953   1.809   0.895 -0.3855 -0.4127 -0.9817
  407SOL    HW2 1221   1.922   1.753   0.735 -0.9404  1.0357 -0.0223
  408SOL     OW 1222   0.478   0.339   2.310  0.1003 -0.1913  0.4784
  408SOL    HW1 1223   0.441   0.277   2.239  3.5347  0.8505  1.2938
  408SOL    HW2 1224   0.564   0.382   2.272  1.8648  0.5210 -0.4190
  409SOL     OW 1225   2.753   1.723   0.669 -0.2499 -0.2160 -0.0098
  409SOL    HW1 1226   2.660   1.689   0.699 -2.3047 -1.5974  0.4163
  409SOL    HW2 1227   2.754   1.748   0.566  0.8189  1.8917 -2.1879
  410SOL     OW 1228   2.009   1.530   1.390 -0.2533  0.2232  0.0693
  410SOL    HW1 1229   2.098   1.483   1.367  0.2857 -1.7447 -0.0976
  410SOL    HW2 1230   2.012   1.578   1.482 -2.7518  1.4152 -0.0334
  411SOL     OW 1231   0.109   0.837   0.406 -0.1454 -0.1895 -0.2631
  411SOL    HW1 1232   0.159   0.788   0.331 -0.7683  2.3991  0.9087
  411SOL    HW2 1233   0.028   0.780   0.427  1.7565  2.8972  1.3573
  412SOL     OW 1234   1.817   0.655   0.099  0.4949 -0.0237 -0.2700
  412SOL    HW1 1235   1.738   0.716   0.068 -0.6690  2.2020 -0.0372
  412SOL    HW2 1236   1.851   0.694   0.188 -1.3033  1.2026 -3.0869
  413SOL     OW 1237   0.701   0.916   1.661  0.1052 -0.7929 -0.1292
  413SOL    HW1 1238   0.598   0.920   1.672 -0.6379  1.8652 -0.7983
  413SOL    HW2 1239   0.713   0.937   1.561 -0.5081  2.6538 -0.2691
  414SOL     OW 1240   3.070   1.244   3.025  0.8909 -0.5360 -0.1014
  414SOL    HW1 1241   3.098   1.335   2.985 -1.6415  0.8088 -1.7817
  414SOL    HW2 1242   3.002   1.196   2.969  2.6395  1.9795 -0.6178
  415SOL     OW 1243   0.305   1.518   0.048  0.3950  0.9874  0.0305
  415SOL    HW1 1244   0.387   1.471   0.008  4.2808 -2.3839 -0.0274
  415SOL    HW2 1245   0.241   1.443   0.082  1.4586 -1.7174  1.5827
  416SOL     OW 1246   1.608   0.964   0.414 -0.1331  0.2147  0.4834
  416SOL    HW1 1247   1.578   0.884   0.360  0.7888  1.3761  1.8815
  416SOL    HW2 1248   1.542   1.044   0.414 -3.0180  0.2737 -1.0210
  417SOL     OW 1249   0.379   0.472   0.782  0.0524  0.5693  0.5134
  417SOL    HW1 1250   0.279   0.471   0.814 -0.9438 -2.6649 -0.3217
  417SOL    HW2 1251   0.426   0.383   0.810 -0.0885 -0.3162 -2.0508
  418SOL     OW 1252   2.092   0.912   2.918  0.5408 -0.6542  0.4478
  418SOL    HW1 1253   2.093   0.847   2.999  3.1988 -1.0358  0.3617
  418SOL    HW2 1254   2.103   0.869   2.823 -0.9323 -1.3791 -1.4043
  419SOL     OW 1255   0.431   0.457   0.078 -0.1407  0.1511  0.0606
  419SOL    HW1 1256   0.372   0.508   0.010 -3.7979 -2.0707 -0.9728
  419SOL    HW2 1257   0.529   0.442   0.042  1.9731 -0.5165 -1.3610
  420SOL     OW 1258   0.598   1.604   0.965 -0.4804 -0.3117 -0.5187
  420SOL    HW1 1259   0.606   1.537   0.888  0.1094 -0.5645  2.1042
  420SOL    HW2 1260   0.502   1.644   0.961 -0.7806 -1.6502 -2.0029
  421SOL     OW 1261   0.446   2.161   0.086  0.6201 -0.4295  0.5254
  421SOL    HW1 1262   0.492   2.096   0.020 -0.9079 -0.1696 -1.6577
  421SOL    HW2 1263   0.348   2.138   0.095  1.1850  0.2702 -0.5443
  422SOL     OW 1264   2.250   0.254   1.588 -0.4347  0.4893  0.2941
  422SOL    HW1 1265   2.311   0.323   1.636 -2.1707 -3.4326 -0.0089
  422SOL    HW2 1266   2.188   0.205   1.651 -0.7311  1.7534 -0.7107
  423SOL     OW 1267   1.951   1.496   0.936  0.1208  0.3986  0.2890
  423SOL    HW1 1268   1.892   1.579   0.916  0.2096 -0.4832  0.8557
  423SOL    HW2 1269   2.042   1.528   0.968  0.6405 -2.1549 -2.9743
  424SOL     OW 1270   2.063   1.471   0.177 -0.6719 -0.0737  0.5579
  424SOL    HW1 1271   2.067   1.481   0.076 -2.3321  2.3861  0.4771
  424SOL    HW2 1272   2.086   1.562   0.227  2.4959  1.5964 -2.4804
  425SOL     OW 1273   0.296   3.098   2.441  0.1189  0.2334 -0.3863
  425SOL    HW1 1274   0.388   0.045   2.453 -1.5811  0.0302  0.7687
  425SOL    HW2 1275   0.298   2.994   2.444  2.0310  0.8677 -0.2847
  426SOL     OW 1276   2.478   2.703   2.526 -0.0525  0.5745  0.4536
  426SOL    HW1 1277   2.440   2.776   2.580  1.5009 -1.5565  0.1588
  426SOL    HW2 1278   2.440   2.704   2.433 -1.0074  2.7092 -1.3441
  427SOL     OW 1279   0.573   1.058   2.220  0.1436  0.6522 -0.6704
  427SOL    HW1 1280   0.626   0.978   2.257 -0.0924 -2.8919 -0.5073
  427SOL    HW2 1281   0.579   1.134   2.282 -1.7533 -1.8399 -2.5247
  428SOL     OW 1282   2.052   1.162   2.147  0.3087  0.0467  0.1191
  428SOL    HW1 1283   2.073   1.077   2.099 -0.4804  1.0082 -0.6588
  428SOL    HW2 1284   2.130   1.202   2.195 -2.4875  0.5806  3.8588
  429SOL     OW 1285   2.395   0.266   0.520 -0.0684 -0.0551  0.5495
  429SOL    HW1 1286   2.410   0.275   0.419  1.2379 -0.5483 -2.0299
  429SOL    HW2 1287   2.358   0.353   0.547 -1.4450  0.1449 -1.2815
  430SOL     OW 1288   1.616   1.363   1.955  0.3330 -0.6311  0.2941
  430SOL    HW1 1289   1.602   1.289   1.886  2.3815 -1.2746 -2.1635
  430SOL    HW2 1290   1.542   1.437   1.950 -3.5119  0.7642 -1.0510
  431SOL     OW 1291   2.707   1.897   1.628 -0.0243  0.2048  0.0882
  431SOL    HW1 1292   2.765   1.933   1.557 -1.9507 -1.3318  1.3752
  431SOL    HW2 1293   2.617   1.943   1.639  1.6193 -1.1635 -1.6579
  432SOL     OW 1294   1.048   2.860   1.757  0.2072  0.0315 -0.3531
  432SOL    HW1 1295   1.092   2.812   1.677 -1.8315  0.4317 -1.5352
  432SOL    HW2 1296   0.949   2.837   1.763 -1.0499 -2.9055 -0.9543
  433SOL     OW 1297   1.698   2.921   1.022 -0.1329  0.7663 -0.0871
  433SOL    HW1 1298   1.736   2.981   0.947  2.6585 -2.4393 -1.5263
  433SOL    HW2 1299   1.623   2.863   0.986  1.5197 -2.7562 -1.9157
  434SOL     OW 1300   0.359   2.208   2.062  0.9016  0.2893 -0.0673
  434SOL    HW1 1301   0.394   2.124   2.014  0.7698  0.1365  2.3963
  434SOL    HW2 1302   0.250   2.205   2.069 -1.1733 -0.9197  2.0119
  435SOL     OW 1303   0.433   1.691   0.247 -0.1952 -0.0572 -0.1903
  435SOL    HW1 1304   0.370   1.639   0.192  0.6065 -0.8161  0.6974
  435SOL    HW2 1305   0.393   1.775   0.290 -0.5689  1.4779 -0.7304
  436SOL     OW 1306   0.459   1.299   1.833 -0.3751 -0.1115  0.4106
  436SOL    HW1 1307   0.453   1.367   1.754  0.2931  2.1785 -2.3639
  436SOL    HW2 1308   0.475   1.353   1.917  0.7878 -1.8076  0.0667
  437SOL     OW 1309   1.186   0.447   3.013  0.0160 -0.0524 -0.4154
  437SOL    HW1 1310   1.290   0.471   3.018  2.0127  1.9416  0.1903
  437SOL    HW2 1311   1.155   0.455   2.915  1.2071  0.1003 -1.0643
  438SOL     OW 1312   0.501   1.990   1.600 -0.4511 -0.0923 -0.0219
  438SOL    HW1 1313   0.464   1.974   1.506  0.6426  0.2146  3.1986
  438SOL    HW2 1314   0.599   1.967   1.587 -1.7912 -2.2934  0.7683
  439SOL     OW 1315   2.109   1.814   3.067  0.5051  0.5868 -0.0054
  439SOL    HW1 1316   2.138   1.852   0.060  1.2001 -1.8609  1.3880
  439SOL    HW2 1317   2.118   1.712   3.059 -0.4708  0.1045  0.7203
  440SOL     OW 1318   1.515   0.584   0.619  0.1044  0.1404  0.3401
  440SOL    HW1 1319   1.507   0.497   0.674 -0.3345  0.1682 -1.7427
  440SOL    HW2 1320   1.450   0.658   0.654 -0.0361  2.7534  1.2241
  441SOL     OW 1321   0.571   2.651   1.415  0.0201 -0.3626 -0.4175
  441SOL    HW1 1322   0.497   2.625   1.490 -0.9833 -1.5675  2.8300
  441SOL    HW2 1323   0.567   2.753   1.407 -2.4838 -2.6556 -0.1268
  442SOL     OW 1324   2.588   2.385   0.899 -0.4311  0.1376  0.5390
  442SOL    HW1 1325   2.492   2.397   0.927 -0.2672  0.1367 -1.6528
  442SOL    HW2 1326   2.609   2.300   0.845 -0.8672  0.2421  0.9005
  443SOL     OW 1327   2.586   0.790   2.548 -0.0083 -0.0664  0.2965
  443SOL    HW1 1328   2.522   0.723   2.501 -3.3958 -2.6004 -2.8000
  443SOL    HW2 1329   2.540   0.850   2.617  2.5066  1.5386  1.0728
  444SOL     OW 1330   1.430   0.895   2.474 -0.2900  0.1703  0.2252
  444SOL    HW1 1331   1.504   0.966   2.492  1.0864 -0.4003  0.9682
  444SOL    HW2 1332   1.433   0.868   2.379  2.1805  1.6105  0.9713
  445SOL     OW 1333   2.748   2.338   1.771 -0.2332 -0.3727 -0.0066
  445SOL    HW1 1334   2.787   2.268   1.826 -2.6380  2.9366 -2.0692
  445SOL    HW2 1335   2.753   2.427   1.820  0.2198 -2.1623  2.9524
  446SOL     OW 1336   0.030   1.658   0.502  0.5078  0.1540  0.5614
  446SOL    HW1 1337   0.076   1.737   0.546 -1.3143 -0.2899  0.7549
  446SOL    HW2 1338   3.056   1.612   0.556 -0.1678 -2.0311 -1.7641
  447SOL     OW 1339   0.813   2.407   0.768 -0.4559  0.5817  0.0738
  447SOL    HW1 1340   0.825   2.466   0.851  0.4302 -1.5315  1.0514
  447SOL    HW2 1341   0.734   2.343   0.772  2.1722  1.4375 -1.2418
  448SOL     OW 1342   1.608   1.537   1.620  0.1361  0.8630 -0.2576
  448SOL    HW1 1343   1.702   1.501   1.649  0.3843 -0.7519 -0.4201
  448SOL    HW2 1344   1.549   1.462   1.584  0.1896 -1.5378 -0.6920
  449SOL     OW 1345   0.711   1.711   2.691 -0.4640 -0.1889 -0.1110
  449SOL    HW1 1346   0.709   1.789   2.758  1.7458 -1.5842  0.7011
  449SOL    HW2 1347   0.808   1.676   2.680  1.7540  0.3800 -0.2174
  450SOL     OW 1348   2.958   1.904   2.226  0.8411  0.0518  0.6971
  450SOL    HW1 1349   2.858   1.893   2.224  2.7824  0.4244 -0.3840
  450SOL    HW2 1350   2.998   1.911   2.134 -0.8144 -0.7591  2.8422
  451SOL     OW 1351   1.950   0.397   1.671 -0.2652 -0.1924 -0.5878
  451SOL    HW1 1352   1.982   0.319   1.616 -1.9577  1.4154 -0.1147
  451SOL    HW2 1353   1.999   0.482   1.635  1.5105  0.6619 -1.8004
  452SOL     OW 1354   0.906   2.797   1.248  0.4777 -0.8491 -0.0992
  452SOL    HW1 1355   0.931   2.702   1.227  0.8166  1.1492 -0.0145
  452SOL    HW2 1356   0.811   2.819   1.210 -1.5469  1.4580 -2.2476
  453SOL     OW 1357   1.008   1.732   0.892  0.5278  0.2061 -0.5483
  453SOL    HW1 1358   0.985   1.679   0.977  0.3933 -1.3622  3.8175
  453SOL    HW2 1359   1.031   1.828   0.921  1.9933 -3.2160  0.4325
  454SOL     OW 1360   3.047   1.108   0.634 -0.1165  0.1447 -0.4325
  454SOL    HW1 1361   0.009   1.113   0.548  1.2019 -1.2790  0.4319
  454SOL    HW2 1362   3.079   1.158   0.718 -1.1198 -0.0674 -2.0491
  455SOL     OW 1363   0.592   0.982   0.468 -0.5248 -0.2143  0.5242
  455SOL    HW1 1364   0.569   1.073   0.429 -2.5458 -1.9681 -0.4183
  455SOL    HW2 1365   0.549   0.917   0.411  0.9765  0.8836  0.7404
  456SOL     OW 1366   2.332   2.423   0.958 -0.1444 -0.3338 -0.4932
  456SOL    HW1 1367   2.308   2.473   1.042 -1.3588  0.0459 -1.6536
  456SOL    HW2 1368   2.277   2.338   0.942 -1.4837  0.0391 -0.9984
  457SOL     OW 1369   1.414   2.640   0.063  0.1750  0.2900  0.2377
  457SOL    HW1 1370   1.410   2.578   0.143 -3.6285 -1.3603 -1.6113
  457SOL    HW2 1371   1.510   2.626   0.024 -2.2494 -1.5713  2.1783
  458SOL     OW 1372   2.838   0.045   3.071  0.3539 -0.2122 -0.3853
  458SOL    HW1 1373   2.849   3.046   0.003  0.6580 -0.3734 -0.9098
  458SOL    HW2 1374   2.818   0.039   2.972  2.9118  0.0715 -2.0150
  459SOL     OW 1375   2.106   0.120   1.744  0.1295 -0.2289  0.7940
  459SOL    HW1 1376   2.135   0.024   1.726 -0.4736  0.9809 -1.1353
  459SOL    HW2 1377   2.012   0.125   1.781 -1.3027  2.2806  1.1901
  460SOL     OW 1378   0.090   0.454   0.144 -0.4910 -0.3176  0.3606
  460SOL    HW1 1379   0.057   0.399   0.065  0.3585  0.4057 -0.4600
  460SOL    HW2 1380   0.007   0.499   0.182 -1.0613 -3.2119  0.5714
  461SOL     OW 1381   0.021   2.083   1.064 -1.1761  0.6148  0.1606
  461SOL    HW1 1382   0.036   2.045   0.971  1.3820 -1.9090 -2.8744
  461SOL    HW2 1383   3.039   2.147   1.065  0.5604  0.4397 -2.4058
  462SOL     OW 1384   3.028   0.013   0.956 -0.2578  0.4118 -0.3243
  462SOL    HW1 1385   0.017   0.042   0.995 -0.2294  0.4944 -2.4839
  462SOL    HW2 1386   2.953   0.081   0.980  1.9194  3.0010 -2.1610
  463SOL     OW 1387   2.408   1.322   2.944  0.2740 -0.0184  0.1841
  463SOL    HW1 1388   2.332   1.254   2.956  2.0125 -0.5027  1.9159
  463SOL    HW2 1389   2.481   1.266   2.905  0.0348 -1.5208  1.4906
  464SOL     OW 1390   0.694   2.866   1.100 -0.2448  0.0130 -0.6772
  464SOL    HW1 1391   0.732   2.960   1.098 -0.3381  1.3606 -1.3468
  464SOL    HW2 1392   0.603   2.866   1.141  3.0920 -1.1311 -1.9089
  465SOL     OW 1393   0.794   0.568   1.165  0.1434 -0.1262  0.1569
  465SOL    HW1 1394   0.811   0.660   1.206 -2.0455 -1.1985 -1.4520
  465SOL    HW2 1395   0.727   0.577   1.092  0.7691  1.1697 -0.9493
  466SOL     OW 1396   1.460   2.185   2.160  0.0230  0.1123 -0.3699
  466SOL    HW1 1397   1.532   2.236   2.109 -0.3787  1.9562  0.0127
  466SOL    HW2 1398   1.489   2.155   2.254 -1.9242  0.3148  1.4646
  467SOL     OW 1399   0.808   0.254   2.014  0.3440  0.1315  0.7705
  467SOL    HW1 1400   0.845   0.173   2.069 -2.9344 -1.4258 -1.1058
  467SOL    HW2 1401   0.851   0.264   1.923 -0.5083  2.3293  1.1783
  468SOL     OW 1402   0.064   1.180   2.322  0.1499 -0.0059  0.4554
  468SOL    HW1 1403   0.137   1.139   2.263  0.0012 -2.9774  0.0789
  468SOL    HW2 1404   0.097   1.253   2.383 -1.2182 -0.1768  0.7100
  469SOL     OW 1405   1.041   2.683   0.503  0.1922 -0.1072  0.4480
  469SOL    HW1 1406   1.116   2.738   0.457  1.2753 -1.5146 -0.1527
  469SOL    HW2 1407   1.077   2.633   0.582 -1.2660  0.3159 -1.7049
  470SOL     OW 1408   2.221   1.369   2.307  0.3092  0.5893 -0.2878
  470SOL    HW1 1409   2.209   1.412   2.217  0.5104 -1.5103  0.6357
  470SOL    HW2 1410   2.138   1.391   2.363  1.4216 -3.0625 -0.0475
  471SOL     OW 1411   1.023   2.404   2.889 -0.3498  0.6749 -0.0253
  471SOL    HW1 1412   1.070   2.338   2.953 -1.3424 -0.0529  0.3321
  471SOL    HW2 1413   1.031   2.497   2.926 -0.0214  1.6009 -0.0349
  472SOL     OW 1414   0.357   2.449   1.947 -0.6583  0.1498 -0.2205
  472SOL    HW1 1415   0.360   2.363   2.000 -1.7992 -0.5591  0.6322
  472SOL    HW2 1416   0.296   2.436   1.869  2.8800  1.0513 -2.8790
  473SOL     OW 1417   0.848   0.002   2.996 -0.3878 -0.6468  0.3170
  473SOL    HW1 1418   0.906   3.057   2.923 -0.5489 -2.2919 -0.4346
  473SOL    HW2 1419   0.754   3.069   2.991  0.0268 -1.5650 -0.2827
  474SOL     OW 1420   1.667   0.224   0.927  0.6042  0.4492 -0.0954
  474SOL    HW1 1421   1.681   0.123   0.917 -3.5741 -0.5734 -0.5782
  474SOL    HW2 1422   1.740   0.276   0.879 -0.5149 -1.1285  1.0158
  475SOL     OW 1423   1.639   0.403   1.365  0.4178 -0.0285  0.3294
  475SOL    HW1 1424   1.622   0.496   1.319 -1.0723  1.1357 -1.0325
  475SOL    HW2 1425   1.714   0.354   1.310  1.4112 -2.0398 -0.3042
  476SOL     OW 1426   0.263   0.871   1.026  0.7898  0.6439  0.1075
  476SOL    HW1 1427   0.226   0.904   1.116  0.2643 -0.1378 -0.5264
  476SOL    HW2 1428   0.316   0.940   0.974 -0.6002 -1.6738  0.2220
  477SOL     OW 1429   1.196   2.368   0.459 -0.0142  0.2076  0.7873
  477SOL    HW1 1430   1.222   2.435   0.385 -3.0592  0.0451 -0.6957
  477SOL    HW2 1431   1.214   2.409   0.548 -0.2440 -2.3152  0.4964
  478SOL     OW 1432   0.207   2.567   2.270  0.9033 -0.1187  0.4382
  478SOL    HW1 1433   0.208   2.499   2.345 -3.8208 -0.0582 -0.9520
  478SOL    HW2 1434   0.293   2.619   2.256  1.8531 -0.8043  0.0459
  479SOL     OW 1435   2.773   0.350   1.220 -0.0731  0.1224 -0.7001
  479SOL    HW1 1436   2.699   0.415   1.254 -2.6570  0.6343  0.3953
  479SOL    HW2 1437   2.863   0.376   1.265 -1.5900  0.4542  1.4622
  480SOL     OW 1438   3.078   2.320   0.221  0.0327 -0.4403 -0.3270
  480SOL    HW1 1439   3.096   2.408   0.171  0.1856  0.7226  0.6612
  480SOL    HW2 1440   2.977   2.301   0.232 -2.0961 -0.1174 -1.0298
  481SOL     OW 1441   2.410   1.902   1.873  0.4632  0.5241  0.4092
  481SOL    HW1 1442   2.407   1.946   1.776 -0.6567  2.4693  2.0839
  481SOL    HW2 1443   2.412   1.978   1.938 -0.8893 -1.8583 -1.4966
  482SOL     OW 1444   1.496   1.868   2.500  0.3242 -0.3743  0.2004
  482SOL    HW1 1445   1.493   1.951   2.437  1.1715 -1.4492 -1.1410
  482SOL    HW2 1446   1.399   1.837   2.511 -0.0847  0.6882 -3.7198
  483SOL     OW 1447   0.761   1.703   1.507 -0.5512 -0.1277 -0.1830
  483SOL    HW1 1448   0.778   1.743   1.419  0.1336 -0.2209 -1.0129
  483SOL    HW2 1449   0.727   1.607   1.495  0.0590 -1.7487  0.1868
  484SOL     OW 1450   0.327   0.540   1.589  1.1661  0.3431  0.4018
  484SOL    HW1 1451   0.323   0.534   1.688 -0.6031 -0.9943  0.7418
  484SOL    HW2 1452   0.400   0.607   1.565 -0.7930 -0.9019  0.1638
  485SOL     OW 1453   2.245   1.125   3.017  0.3719 -0.2329 -0.0653
  485SOL    HW1 1454   2.169   1.065   2.982  3.2245  1.3922  2.3002
  485SOL    HW2 1455   2.311   1.070   3.072  1.1266  2.1473 -1.3109
  486SOL     OW 1456   1.267   0.080   1.531  0.0314  0.6745  0.2963
  486SOL    HW1 1457   1.359   0.096   1.563 -0.6686  1.0541 -3.3115
  486SOL    HW2 1458   1.266   0.097   1.426 -1.1746 -2.1259 -2.2085
  487SOL     OW 1459   0.448   2.254   1.603  0.0363  0.2634  0.0041
  487SOL    HW1 1460   0.497   2.281   1.688  0.2625  0.8628  1.9861
  487SOL    HW2 1461   0.465   2.156   1.579  0.5524 -1.2008  1.3946
  488SOL     OW 1462   2.490   1.970   2.897  0.4662 -0.5685  0.1987
  488SOL    HW1 1463   2.401   2.003   2.925  1.9898 -0.7123 -3.1841
  488SOL    HW2 1464   2.542   2.055   2.880  2.1763 -1.0783 -0.9444
  489SOL     OW 1465   2.178   0.092   0.541  0.4152 -0.3679  0.0357
  489SOL    HW1 1466   2.187   0.007   0.479  0.8745 -2.8010 -2.2694
  489SOL    HW2 1467   2.260   0.151   0.544  1.6219  0.4713  2.3339
  490SOL     OW 1468   1.368   2.200   2.848 -0.6512  0.0257  0.5103
  490SOL    HW1 1469   1.347   2.100   2.867 -2.4228 -1.8552 -0.5325
  490SOL    HW2 1470   1.307   2.261   2.899 -0.0760 -2.2670 -0.3373
  491SOL     OW 1471   0.422   1.484   1.625 -0.1826  0.0983 -0.0961
  491SOL    HW1 1472   0.412   1.583   1.653  1.4296  2.0491 -1.8249
  491SOL    HW2 1473   0.505   1.467   1.566 -0.2068  0.4956  1.3303
  492SOL     OW 1474   1.361   1.093   1.941 -0.1187  0.6106  0.8599
  492SOL    HW1 1475   1.264   1.120   1.917  1.8995 -0.9569 -2.9534
  492SOL    HW2 1476   1.380   1.125   2.034  1.2177  1.6286 -1.4744
  493SOL     OW 1477   2.221   1.681   0.761 -0.1892  0.3834 -0.3240
  493SOL    HW1 1478   2.252   1.613   0.694 -0.1940 -0.4581 -0.5871
  493SOL    HW2 1479   2.207   1.637   0.852  0.4532 -1.7363 -0.5981
  494SOL     OW 1480   0.403   1.836   0.966 -0.0551  0.2127 -0.3117
  494SOL    HW1 1481   0.358   1.752   0.925 -1.1929 -3.3843  0.4062
  494SOL    HW2 1482   0.395   1.921   0.911  1.4433  0.9271 -0.7209
  495SOL     OW 1483   2.263   2.623   0.775 -0.0495 -0.2961 -0.1737
  495SOL    HW1 1484   2.329   2.628   0.700 -0.3701  0.8303  3.8489
  495SOL    HW2 1485   2.291   2.547   0.837  1.5004  3.1578 -0.2122
  496SOL     OW 1486   2.548   3.022   1.427 -0.2121  0.5143 -0.2438
  496SOL    HW1 1487   2.615   3.081   1.382 -0.2583 -1.8245 -1.0371
  496SOL    HW2 1488   2.484   3.060   1.496  2.0616 -0.7144  1.2014
  497SOL     OW 1489   2.255   0.976   2.542  0.3056 -0.0649 -0.2243
  497SOL    HW1 1490   2.283   1.038   2.466 -1.3036 -0.3298  1.0717
  497SOL    HW2 1491   2.218   0.893   2.499  1.5250 -0.2064 -0.6427
  498SOL     OW 1492   3.096   2.044   1.584 -0.3548  0.1048 -0.2849
  498SOL    HW1 1493   3.093   2.006   1.492 -0.1428 -2.0021  2.0240
  498SOL    HW2 1494   3.025   2.114   1.600  1.9302 -1.7269  0.9104
  499SOL     OW 1495   0.954   2.452   1.992 -0.4660  0.0073  0.2037
  499SOL    HW1 1496   0.877   2.445   2.058  0.2227  0.5213 -0.2588
  499SOL    HW2 1497   1.028   2.513   2.023 -0.1216 -1.5426  0.1112
  500SOL     OW 1498   1.022   2.156   0.416  0.3887  0.7581  0.2848
  500SOL    HW1 1499   0.936   2.214   0.431  0.3171 -0.2840 -0.6456
  500SOL    HW2 1500   1.110   2.204   0.430  0.8932 -0.1348 -1.4752
  501SOL     OW 1501   1.829   2.943   1.441 -0.7313 -0.0558  0.1067
  501SOL    HW1 1502   1.792   2.979   1.353  1.0145  0.8659 -0.1243
  501SOL    HW2 1503   1.763   2.890   1.491  1.5628  1.1358 -0.5252
  502SOL     OW 1504   2.438   0.436   1.732  0.0756 -0.1963 -0.1382
  502SOL    HW1 1505   2.358   0.486   1.768  0.2858  0.2921  0.3697
  502SOL    HW2 1506   2.508   0.416   1.801  0.6419  1.3686 -1.2583
  503SOL     OW 1507   2.723   1.215   2.203  0.6141 -0.5487  0.0384
  503SOL    HW1 1508   2.717   1.295   2.263  2.3560 -0.5912  1.2306
  503SOL    HW2 1509   2.634   1.190   2.162  0.9882  1.0343 -0.2045
  504SOL     OW 1510   1.639   0.944   1.319 -0.0170 -0.1227 -0.1742
  504SOL    HW1 1511   1.714   0.877   1.297 -1.9943  1.8449  0.8549
  504SOL    HW2 1512   1.566   0.959   1.250 -1.3607  0.1725  0.8927
  505SOL     OW 1513   0.766   2.895   1.526  0.0597 -0.3380  0.5386
  505SOL    HW1 1514   0.857   2.924   1.490  0.6296 -0.2808  0.9477
  505SOL    HW2 1515   0.697   2.922   1.457  1.8044  0.3566  2.4360
  506SOL     OW 1516   0.102   0.246   0.287 -0.1350  0.2806  0.2229
  506SOL    HW1 1517   0.116   0.327   0.231  3.0468 -1.0178  2.7314
  506SOL    HW2 1518   0.128   0.273   0.375  0.9670  0.3307 -0.5350
  507SOL     OW 1519   2.782   2.844   3.018 -0.1262 -0.4781  0.4386
  507SOL    HW1 1520   2.833   2.776   3.067  2.0650 -0.8304  0.2595
  507SOL    HW2 1521   2.798   2.830   2.916 -2.2968 -0.6393  1.6948
  508SOL     OW 1522   1.114   0.292   1.619  0.0260 -0.2899 -0.8053
  508SOL    HW1 1523   1.127   0.212   1.560 -4.3049  1.2654  1.1038
  508SOL    HW2 1524   1.176   0.290   1.703  0.5139  2.3923  1.8466
  509SOL     OW 1525   1.573   1.883   1.245  0.3675  0.2323 -0.0249
  509SOL    HW1 1526   1.492   1.912   1.293  1.3964  1.3136 -0.7918
  509SOL    HW2 1527   1.578   1.782   1.235  0.3248  4.0254  1.1957
  510SOL     OW 1528   2.477   0.945   1.628  0.5268  0.2379 -0.5299
  510SOL    HW1 1529   2.482   0.846   1.633 -0.3463  0.4772 -2.1992
  510SOL    HW2 1530   2.425   0.985   1.550  1.0061  0.9183  0.4923
  511SOL     OW 1531   1.343   1.973   1.371 -0.0632  0.6359  0.0540
  511SOL    HW1 1532   1.390   2.058   1.396  1.0736  0.9442  0.8821
  511SOL    HW2 1533   1.365   1.897   1.439  0.7838 -0.4534  1.0404
  512SOL     OW 1534   3.070   1.349   0.796 -0.1144  0.0982  0.3299
  512SOL    HW1 1535   3.024   1.400   0.723  0.2193 -1.6150 -0.0430
  512SOL    HW2 1536   3.011   1.333   0.879 -1.5516  1.5629 -0.7132
  513SOL     OW 1537   0.019   1.655   2.862  0.5613  0.0213 -0.3125
  513SOL    HW1 1538   0.023   1.560   2.832  0.3040 -0.1034 -1.6054
  513SOL    HW2 1539   3.040   1.676   2.925  1.6358 -2.0879  1.4109
  514SOL     OW 1540   2.614   2.126   2.210 -0.2966  0.0834  0.6438
  514SOL    HW1 1541   2.601   2.186   2.290 -0.4574 -0.0486 -2.8635
  514SOL    HW2 1542   2.632   2.032   2.235  0.8239 -0.5800 -2.2311
  515SOL     OW 1543   2.113   1.194   0.767 -0.1903 -0.3097 -0.6130
  515SOL    HW1 1544   2.101   1.210   0.867 -1.6257 -1.5446  0.3170
  515SOL    HW2 1545   2.170   1.110   0.752  2.3935 -1.3838  1.6152
  516SOL     OW 1546   2.530   2.889   3.077  0.2549  0.1940  0.3857
  516SOL    HW1 1547   2.630   2.870   3.073 -2.8419  1.2129  4.0752
  516SOL    HW2 1548   2.482   2.802   3.044  0.7666  1.0177 -2.3490
  517SOL     OW 1549   0.977   1.619   2.682 -0.1869 -0.7558 -0.0054
  517SOL    HW1 1550   0.963   1.524   2.716 -0.6583  1.0957 -1.5110
  517SOL    HW2 1551   0.996   1.627   2.579  0.8452  0.7428 -3.3209
  518SOL     OW 1552   0.243   0.204   2.221  0.2105  0.5631 -0.7370
  518SOL    HW1 1553   0.208   0.107   2.207 -2.9745  1.3314  0.8163
  518SOL    HW2 1554   0.187   0.256   2.286  0.2937 -4.2153 -1.7069
  519SOL     OW 1555   0.678   1.447   2.875 -0.5044 -0.4461  0.0730
  519SOL    HW1 1556   0.777   1.433   2.855  4.8219  1.1505  0.2807
  519SOL    HW2 1557   0.648   1.545   2.872 -1.3524 -0.4772 -0.8759
  520SOL     OW 1558   2.896   2.299   2.143 -0.0558 -0.4318  0.1872
  520SOL    HW1 1559   2.916   2.241   2.218  1.9616  0.9538  0.4115
  520SOL    HW2 1560   2.962   2.379   2.131  0.3158  2.9274  1.0326
  521SOL     OW 1561   0.512   2.154   2.280  0.2283 -0.1158  0.4027
  521SOL    HW1 1562   0.589   2.095   2.254  0.6267 -0.2862  2.5695
  521SOL    HW2 1563   0.463   2.189   2.201  2.4488 -2.2064  2.4130
  522SOL     OW 1564   2.087   2.776   1.859  0.9477 -0.1611  0.2542
  522SOL    HW1 1565   2.183   2.762   1.892 -0.1277  0.7693 -0.7497
  522SOL    HW2 1566   2.029   2.838   1.919  0.3388  0.7109 -1.0552
  523SOL     OW 1567   2.039   2.005   1.854 -0.4660  0.8507 -0.2109
  523SOL    HW1 1568   2.087   2.049   1.930  1.0817  0.8374  1.8799
  523SOL    HW2 1569   1.995   1.917   1.886  0.0276 -0.0426 -0.0987
  524SOL     OW 1570   0.622   2.622   0.423  0.0074  0.1365  0.1251
  524SOL    HW1 1571   0.543   2.690   0.405 -2.7475 -1.5298  0.5044
  524SOL    HW2 1572   0.579   2.533   0.440 -1.0134 -0.9151  1.1674
  525SOL     OW 1573   0.258   0.618   0.313 -0.4783  0.7155 -0.1417
  525SOL    HW1 1574   0.215   0.566   0.234  0.0954 -1.0351  1.7637
  525SOL    HW2 1575   0.344   0.575   0.346  0.3893  0.6092 -0.1110
  526SOL     OW 1576   0.927   0.024   0.613  0.1317  0.4641  0.7095
  526SOL    HW1 1577   0.845   3.068   0.592  0.0885  2.2870 -1.1856
  526SOL    HW2 1578   0.920   0.060   0.710 -0.1316 -2.8528 -0.6510
  527SOL     OW 1579   1.937   1.856   1.266  0.3519  0.2065  0.2430
  527SOL    HW1 1580   1.979   1.826   1.355  2.1449 -0.3711 -0.5751
  527SOL    HW2 1581   1.838   1.830   1.267  0.5287 -0.0192  1.5861
  528SOL     OW 1582   2.812   2.586   2.313 -0.7463  0.1549  0.1519
  528SOL    HW1 1583   2.732   2.612   2.255 -0.5581  1.5383 -0.9175
  528SOL    HW2 1584   2.897   2.633   2.271  0.7759  1.7160 -0.7426
  529SOL     OW 1585   1.116   1.667   2.185  0.0666 -0.5517 -0.0121
  529SOL    HW1 1586   1.120   1.760   2.134 -0.7264  4.4742 -1.3207
  529SOL    HW2 1587   1.062   1.676   2.276 -2.0764  0.9621  6.8207
  530SOL     OW 1588   1.283   1.195   0.106  0.1205  0.1528  0.1785
  530SOL    HW1 1589   1.363   1.204   0.162 -2.6080 -1.9391  0.5117
  530SOL    HW2 1590   1.315   1.159   0.013  2.3544  0.6167  1.6283
  531SOL     OW 1591   0.495   1.081   0.016  0.2660  0.1509  0.2617
  531SOL    HW1 1592   0.510   1.178   3.087  1.3941 -1.7792 -0.6569
  531SOL    HW2 1593   0.469   1.022   3.038  1.4089 -1.4868  2.0352
  532SOL     OW 1594   1.679   1.472   0.850 -0.1519  0.2216  0.5283
  532SOL    HW1 1595   1.774   1.438   0.873 -0.9695 -0.0315 -0.1628
  532SOL    HW2 1596   1.662   1.565   0.880  1.1494 -2.5883 -0.3029
  533SOL     OW 1597   0.590   0.109   2.450  0.5413  0.4350  0.0597
  533SOL    HW1 1598   0.524   0.172   2.406 -2.5634  0.3585  0.5861
  533SOL    HW2 1599   0.685   0.151   2.454 -0.2220  0.3908  0.7406
  534SOL     OW 1600   0.946   2.667   2.978 -0.6213  0.5510 -0.0160
  534SOL    HW1 1601   0.919   2.644   3.076 -0.6468 -0.7820  0.4635
  534SOL    HW2 1602   1.012   2.746   2.982 -0.4377  1.5360 -0.0117
  535SOL     OW 1603   0.372   0.196   0.173 -0.5376 -0.0712  0.1751
  535SOL    HW1 1604   0.279   0.189   0.207  1.0345 -0.6170 -1.2480
  535SOL    HW2 1605   0.404   0.293   0.163 -1.1991 -0.4488  2.1493
  536SOL     OW 1606   0.101   0.794   2.221 -0.4696 -0.5741  0.5097
  536SOL    HW1 1607   0.151   0.881   2.205  2.1422  0.5761  2.8304
  536SOL    HW2 1608   0.167   0.717   2.196  1.8750 -2.3196 -2.2744
  537SOL     OW 1609   1.279   0.225   1.299 -0.0467 -0.2025  0.2602
  537SOL    HW1 1610   1.189   0.187   1.287  1.6446 -1.7718  0.9149
  537SOL    HW2 1611   1.283   0.326   1.292 -1.3598  1.4770  0.2571
  538SOL     OW 1612   0.738   1.957   0.316  0.1061 -0.5321  0.4103
  538SOL    HW1 1613   0.818   2.009   0.279  1.3727  1.1458 -0.9880
  538SOL    HW2 1614   0.733   1.864   0.272  0.1234 -0.3979 -0.7047
  539SOL     OW 1615   2.497   1.198   2.051 -0.2996  0.2447 -0.3728
  539SOL    HW1 1616   2.469   1.126   1.988  1.8915 -1.0850 -1.1215
  539SOL    HW2 1617   2.453   1.289   2.029 -0.6904  1.9557  2.7291
  540SOL     OW 1618   2.135   1.543   2.123  0.5763  0.7479  0.0736
  540SOL    HW1 1619   2.056   1.483   2.088 -1.5090 -1.6465 -0.3313
  540SOL    HW2 1620   2.104   1.628   2.169 -0.3567  0.8733  1.1640
  541SOL     OW 1621   0.645   1.442   1.463 -0.0966  0.5981  0.2598
  541SOL    HW1 1622   0.716   1.379   1.495  1.3026  1.4404  0.4919
  541SOL    HW2 1623   0.646   1.443   1.360 -2.8434  2.5370  0.4465
  542SOL     OW 1624   1.632   0.616   2.228 -0.0119  0.0317  0.4339
  542SOL    HW1 1625   1.707   0.612   2.296 -2.2259  1.2915  2.4167
  542SOL    HW2 1626   1.659   0.620   2.134 -0.1617 -0.2371  1.3545
  543SOL     OW 1627   1.045   0.415   0.389  0.0335  0.2986  0.0557
  543SOL    HW1 1628   1.146   0.404   0.408 -1.2874  1.3697  1.5723
  543SOL    HW2 1629   0.991   0.341   0.437  0.0248 -2.6788 -0.1982
  544SOL     OW 1630   2.659   1.871   2.280  0.3051  0.7748 -0.5854
  544SOL    HW1 1631   2.611   1.832   2.202 -0.7536  1.8984  3.0051
  544SOL    HW2 1632   2.651   1.803   2.355  2.4117 -2.1919  0.0636
  545SOL     OW 1633   1.749   2.161   1.844 -0.4270 -0.0741 -0.0504
  545SOL    HW1 1634   1.847   2.129   1.869 -0.6406 -0.1947 -1.1058
  545SOL    HW2 1635   1.733   2.266   1.835  0.1785  2.4884 -2.6371
  546SOL     OW 1636   0.396   0.059   3.047 -0.4609 -0.1030  0.0065
  546SOL    HW1 1637   0.306   0.030   3.010  2.1864 -1.0020  2.8763
  546SOL    HW2 1638   0.390   0.117   0.031 -2.1482  0.8654  1.6687
  547SOL     OW 1639   2.119   1.081   0.364  0.0772 -0.3086  0.2655
  547SOL    HW1 1640   2.022   1.067   0.370 -0.6098 -1.9465 -2.7769
  547SOL    HW2 1641   2.140   1.161   0.300  0.2473  0.2792  0.0453
  548SOL     OW 1642   2.162   1.751   2.707 -0.7163  0.5470  0.5445
  548SOL    HW1 1643   2.079   1.770   2.768 -2.5630 -0.1387  1.3609
  548SOL    HW2 1644   2.215   1.673   2.753 -1.9396 -0.9031  3.5197
  549SOL     OW 1645   1.986   0.489   0.606 -0.0307  0.3077  0.1380
  549SOL    HW1 1646   2.020   0.429   0.529  1.5051 -2.6618 -4.6479
  549SOL    HW2 1647   1.912   0.550   0.573  0.1057  1.3097  0.8692
  550SOL     OW 1648   2.663   2.148   0.696  0.0987 -0.2024 -0.3385
  550SOL    HW1 1649   2.587   2.109   0.637 -1.4589  0.9188 -3.3765
  550SOL    HW2 1650   2.731   2.194   0.636  0.3243 -2.0850  2.4069
  551SOL     OW 1651   0.856   0.206   1.487  0.5337  0.3480 -0.0163
  551SOL    HW1 1652   0.912   0.158   1.418 -5.4911  0.8017  3.7680
  551SOL    HW2 1653   0.890   0.296   1.517 -2.8230 -2.4898  0.4326
  552SOL     OW 1654   0.092   2.624   2.558 -0.1388 -0.0133 -0.1957
  552SOL    HW1 1655   0.057   2.585   2.650 -1.3892 -1.4054  0.9298
  552SOL    HW2 1656   0.102   2.545   2.491 -0.0987 -0.6030 -1.2861
  553SOL     OW 1657   0.676   3.002   0.558  0.6155  0.6080  0.3492
  553SOL    HW1 1658   0.623   2.992   0.474 -0.5927  4.5360 -0.5086
  553SOL    HW2 1659   0.622   3.034   0.639  0.5448 -0.5824 -0.5031
  554SOL     OW 1660   2.149   2.236   1.726  0.2302 -0.0800 -0.3919
  554SOL    HW1 1661   2.129   2.140   1.737 -1.1725  2.9697  0.4675
  554SOL    HW2 1662   2.134   2.263   1.629  2.3411 -3.0260  0.1439
  555SOL     OW 1663   1.361   2.171   1.755  0.8235  0.4775 -0.5663
  555SOL    HW1 1664   1.287   2.160   1.686  1.1486  3.9102 -1.3403
  555SOL    HW2 1665   1.349   2.116   1.842 -1.0604  0.3896 -0.9462
  556SOL     OW 1666   1.366   1.479   1.270  0.3910 -0.1297  0.1910
  556SOL    HW1 1667   1.278   1.536   1.253 -0.7703  0.9716 -0.1081
  556SOL    HW2 1668   1.447   1.536   1.248 -0.7918 -0.0761  2.2603
  557SOL     OW 1669   1.922   2.210   2.183 -0.3929 -0.1312  0.0677
  557SOL    HW1 1670   2.007   2.194   2.123  3.0229 -0.1869 -0.1662
  557SOL    HW2 1671   1.938   2.269   2.268 -0.1778  0.1363  0.8808
  558SOL     OW 1672   0.376   0.250   1.981 -0.0604 -0.1037 -0.1788
  558SOL    HW1 1673   0.327   0.221   2.067 -1.3789  0.4545 -1.4011
  558SOL    HW2 1674   0.335   0.333   1.936  1.8261 -1.4016 -2.1800
  559SOL     OW 1675   2.357   2.977   1.237  0.2201 -0.3175  0.0719
  559SOL    HW1 1676   2.393   2.981   1.333 -1.2857 -1.2499  2.2903
  559SOL    HW2 1677   2.297   3.057   1.229 -0.5978  1.2043 -2.9932
  560SOL     OW 1678   0.804   2.287   0.446  0.4983  0.1044 -0.2431
  560SOL    HW1 1679   0.796   2.366   0.382  0.4829  0.9577  1.1001
  560SOL    HW2 1680   0.726   2.292   0.509 -0.3701  0.8073  0.2298
  561SOL     OW 1681   1.003   0.362   0.125 -0.6447 -0.6359 -0.5078
  561SOL    HW1 1682   1.081   0.406   0.066  1.5348 -0.7492 -1.8683
  561SOL    HW2 1683   1.020   0.386   0.229  0.5185 -2.8372  0.1693
  562SOL     OW 1684   0.801   0.201   2.814  0.1056 -0.3850  0.2344
  562SOL    HW1 1685   0.787   0.113   2.857  2.3370  2.3208 -2.6484
  562SOL    HW2 1686   0.872   0.188   2.742 -0.7357 -0.3993  2.1774
  563SOL     OW 1687   1.567   1.960   2.777 -0.3126  0.2932 -0.4429
  563SOL    HW1 1688   1.600   2.054   2.780  1.0804 -2.4276 -1.0091
  563SOL    HW2 1689   1.519   1.935   2.691  1.0204 -0.1845 -3.1063
  564SOL     OW 1690   2.817   0.969   0.639  0.2548 -0.2693 -0.1038
  564SOL    HW1 1691   2.817   0.867   0.637  0.9580 -1.7155 -3.7845
  564SOL    HW2 1692   2.913   1.010   0.612  3.4019  2.4764 -0.0115
  565SOL     OW 1693   1.417   0.249   2.740 -0.1442 -0.2149 -0.5927
  565SOL    HW1 1694   1.406   0.221   2.834  0.2417  0.1857 -3.5641
  565SOL    HW2 1695   1.424   0.350   2.742 -0.9751  0.2512 -2.6228
  566SOL     OW 1696   1.332   0.451   2.037 -0.4891 -0.3761 -0.2973
  566SOL    HW1 1697   1.287   0.526   1.982  0.4906  2.9533 -0.2024
  566SOL    HW2 1698   1.360   0.376   1.982 -1.0943  2.9609  1.8734
  567SOL     OW 1699   2.620   1.287   0.730 -0.2790  0.0391 -0.4777
  567SOL    HW1 1700   2.631   1.211   0.798 -0.6974  1.8216 -0.1886
  567SOL    HW2 1701   2.678   1.269   0.648  2.0569 -0.3036 -0.1018
  568SOL     OW 1702   1.792   1.952   0.644 -0.0211 -0.0158  0.3596
  568SOL    HW1 1703   1.837   1.978   0.557 -0.0204  0.2340 -1.5233
  568SOL    HW2 1704   1.712   1.887   0.627 -0.7739  1.6127 -0.3294
  569SOL     OW 1705   2.107   1.520   3.010  0.2666 -0.1777  0.1696
  569SOL    HW1 1706   2.040   1.461   2.964  0.0506 -2.5346  0.8149
  569SOL    HW2 1707   2.187   1.522   2.951 -1.5924 -1.0464 -0.2998
  570SOL     OW 1708   0.201   2.766   1.751 -0.1802 -0.0081 -0.8882
  570SOL    HW1 1709   0.290   2.778   1.795  1.2039  0.2158  1.0859
  570SOL    HW2 1710   0.160   2.858   1.731  0.9425 -4.4642 -0.2517
  571SOL     OW 1711   0.062   0.334   2.415 -0.9219 -0.1363 -0.1781
  571SOL    HW1 1712   3.097   0.395   2.371 -0.7715  0.5817  1.7054
  571SOL    HW2 1713   0.138   0.390   2.455 -0.7552  2.3436  0.7466
  572SOL     OW 1714   0.803   1.618   0.732  0.7323  0.0405  0.0769
  572SOL    HW1 1715   0.721   1.677   0.718  1.4592 -1.1871 -0.7834
  572SOL    HW2 1716   0.869   1.658   0.802  1.6677 -0.1937 -0.2458
  573SOL     OW 1717   1.154   2.420   0.120  0.1550 -0.2624 -0.4389
  573SOL    HW1 1718   1.088   2.428   0.198  0.1668  2.4482  0.9416
  573SOL    HW2 1719   1.232   2.491   0.126 -0.5628 -0.6303 -1.1585
  574SOL     OW 1720   0.951   0.102   0.916 -0.0006  0.4635  0.6472
  574SOL    HW1 1721   1.005   0.178   0.951  1.9222  0.7040 -1.3695
  574SOL    HW2 1722   1.016   0.022   0.910 -1.5881 -2.7056 -2.7188
  575SOL     OW 1723   3.094   0.776   1.453 -0.2319 -0.0043 -0.1711
  575SOL    HW1 1724   3.008   0.820   1.435  0.1743 -0.4385  1.7732
  575SOL    HW2 1725   0.035   0.819   1.537 -0.5523  2.3273  0.1451
  576SOL     OW 1726   1.740   0.078   1.580 -0.1880  0.1169 -0.1482
  576SOL    HW1 1727   1.794   0.163   1.546  0.0467  2.4662 -0.3698
  576SOL    HW2 1728   1.737   0.005   1.504  0.1765  0.7668 -1.3146
  577SOL     OW 1729   3.098   1.074   1.985 -0.3600  0.3779  0.2302
  577SOL    HW1 1730   3.070   0.983   1.946  1.4139 -2.7213 -0.8130
  577SOL    HW2 1731   0.096   1.084   1.965 -2.4559  2.0449 -1.3585
  578SOL     OW 1732   1.856   0.180   2.465 -0.5630 -0.2030  0.3677
  578SOL    HW1 1733   1.791   0.216   2.531  1.4594 -0.1071  1.2993
  578SOL    HW2 1734   1.821   0.092   2.425  1.0662 -1.5155 -2.1270
  579SOL     OW 1735   2.152   2.105   2.077  0.3972 -0.2729 -0.2351
  579SOL    HW1 1736   2.243   2.131   2.046 -1.7293 -0.3957  1.7872
  579SOL    HW2 1737   2.153   2.073   2.171 -2.9588  0.3607  0.5608
  580SOL     OW 1738   1.937   1.357   2.880 -0.3668  0.3722  0.0317
  580SOL    HW1 1739   1.900   1.430   2.815 -0.6882  0.5322 -2.7813
  580SOL    HW2 1740   1.889   1.267   2.866 -0.2646 -0.7574  1.3341
  581SOL     OW 1741   1.312   1.067   2.950  0.3833  0.7598  0.0905
  581SOL    HW1 1742   1.375   0.989   2.923  1.3598  2.7179  1.6494
  581SOL    HW2 1743   1.218   1.034   2.972  3.8958  2.2331  2.1824
  582SOL     OW 1744   0.836   2.138   1.368  0.0359 -0.3629 -0.0405
  582SOL    HW1 1745   0.771   2.218   1.359 -1.6467  0.6387 -0.1617
  582SOL    HW2 1746   0.830   2.091   1.461  0.9791  0.5684  1.5420
  583SOL     OW 1747   1.164   1.027   1.227 -0.7964  0.1169 -0.1638
  583SOL    HW1 1748   1.136   0.940   1.179  0.6789  0.2695  1.0496
  583SOL    HW2 1749   1.248   1.077   1.185  1.8634  3.6751 -1.0645
  584SOL     OW 1750   1.579   2.511   0.544  0.4637 -0.8584 -0.4063
  584SOL    HW1 1751   1.588   2.411   0.538  2.6082  1.6959 -1.0906
  584SOL    HW2 1752   1.596   2.548   0.639  2.1618  0.9449 -1.0092
  585SOL     OW 1753   2.396   2.640   3.024  0.7800 -0.0952  0.1029
  585SOL    HW1 1754   2.427   2.628   2.925  3.4319  2.8449 -2.6667
  585SOL    HW2 1755   2.298   2.671   3.026 -1.0807 -0.8441  0.4388
  586SOL     OW 1756   2.787   2.061   0.918  0.5741 -0.6239  0.2239
  586SOL    HW1 1757   2.724   2.096   0.850  5.2607 -0.9225  3.0158
  586SOL    HW2 1758   2.821   2.139   0.980  0.7437  2.1605  1.3535
  587SOL     OW 1759   1.143   1.688   3.081  0.2163 -0.1761 -0.1752
  587SOL    HW1 1760   1.182   1.734   2.998 -0.4973 -0.1212 -3.1882
  587SOL    HW2 1761   1.118   1.591   3.063 -0.2840  2.5734 -0.1864
  588SOL     OW 1762   0.534   0.238   1.110 -0.1281  0.1938  0.5837
  588SOL    HW1 1763   0.534   0.199   1.202 -1.0841  0.7510 -0.9732
  588SOL    HW2 1764   0.445   0.288   1.098  0.6064 -2.3534  1.4570
  589SOL     OW 1765   1.107   0.605   0.717 -0.2792 -0.2008 -0.2638
  589SOL    HW1 1766   1.007   0.605   0.727 -0.8895 -2.3581 -5.1885
  589SOL    HW2 1767   1.131   0.520   0.665 -0.8919 -2.0131  0.7955
  590SOL     OW 1768   2.130   2.397   0.183 -0.2206  0.6945  0.2562
  590SOL    HW1 1769   2.114   2.382   0.284  2.8118  2.0325 -1.0008
  590SOL    HW2 1770   2.124   2.493   0.151 -0.9423  2.1832 -0.8716
  591SOL     OW 1771   0.445   2.713   2.254  0.4890 -0.5428  0.3782
  591SOL    HW1 1772   0.439   2.797   2.193  1.9762  2.0039 -3.2467
  591SOL    HW2 1773   0.512   2.652   2.207  3.1145  2.1457 -0.0108
  592SOL     OW 1774   3.068   1.366   2.009  0.0890 -0.3449 -0.4489
  592SOL    HW1 1775   3.080   1.264   2.023 -0.7381 -2.0242  1.1297
  592SOL    HW2 1776   0.036   1.418   2.065  0.1944  1.5992  0.7287
  593SOL     OW 1777   1.773   1.412   1.299  0.4855  0.3360  0.2529
  593SOL    HW1 1778   1.849   1.481   1.327  1.7548  1.7255  3.1534
  593SOL    HW2 1779   1.759   1.341   1.372  0.9374 -1.2361 -0.5860
  594SOL     OW 1780   2.779   1.383   2.874 -0.2276  0.6218  0.3811
  594SOL    HW1 1781   2.755   1.442   2.957  2.5747 -0.9125  2.1341
  594SOL    HW2 1782   2.811   1.287   2.893  0.7228 -0.2417 -1.7217
  595SOL     OW 1783   0.862   0.927   0.491 -0.5660 -0.2162  0.1562
  595SOL    HW1 1784   0.760   0.945   0.493 -0.1850 -1.6849 -3.2828
  595SOL    HW2 1785   0.884   0.900   0.393 -1.5771  0.5220 -1.5035
  596SOL     OW 1786   3.065   1.219   1.205  0.3636 -0.0765  0.3976
  596SOL    HW1 1787   3.011   1.214   1.113  1.0029 -0.6560 -3.7333
  596SOL    HW2 1788   0.066   1.224   1.183 -0.1192  2.1360  1.1270
  597SOL     OW 1789   0.993   2.348   1.555  0.3748 -0.2023 -0.0781
  597SOL    HW1 1790   0.900   2.338   1.513  0.5811 -0.0448 -1.0802
  597SOL    HW2 1791   1.041   2.259   1.551  1.0369 -0.3007  0.4342
  598SOL     OW 1792   2.383   2.362   1.801 -0.1502  0.2234  0.8688
  598SOL    HW1 1793   2.297   2.321   1.760 -0.2605 -0.1203  0.7342
  598SOL    HW2 1794   2.467   2.323   1.761  0.7968  1.1827  4.1479
  599SOL     OW 1795   0.515   1.367   3.062 -0.2526 -0.7182  0.3219
  599SOL    HW1 1796   0.578   1.379   2.981 -1.2525 -1.4775 -1.3960
  599SOL    HW2 1797   0.565   1.374   0.049  0.4840  1.7819  0.9062
  600SOL     OW 1798   0.638   0.630   2.959  0.2673 -0.3216  0.1110
  600SOL    HW1 1799   0.711   0.569   2.997 -1.3178  0.8968  0.4337
  600SOL    HW2 1800   0.602   0.691   3.032 -0.2145  1.8715 -0.8054
  601SOL     OW 1801   0.528   0.644   1.981 -0.2374  0.7812 -0.0063
  601SOL    HW1 1802   0.516   0.723   1.918 -4.0217 -0.5269  1.3999
  601SOL    HW2 1803   0.608   0.655   2.042 -0.9640 -1.3481 -0.4068
  602SOL     OW 1804   0.260   2.481   0.417  1.0391 -0.1481 -0.2047
  602SOL    HW1 1805   0.228   2.479   0.513  1.4940 -1.9734 -0.2792
  602SOL    HW2 1806   0.204   2.553   0.365  0.4330  0.0309 -0.7612
  603SOL     OW 1807   1.232   2.748   1.942 -0.0617  0.0162 -0.2829
  603SOL    HW1 1808   1.160   2.790   1.881 -1.3945  1.4092  0.1821
  603SOL    HW2 1809   1.198   2.680   2.008  3.3448  2.3151 -0.0387
  604SOL     OW 1810   0.356   2.299   2.923 -0.0846  0.2245  0.1313
  604SOL    HW1 1811   0.356   2.206   2.889 -1.8511  0.5473  1.8556
  604SOL    HW2 1812   0.262   2.320   2.963 -2.1980 -0.0602  2.3121
  605SOL     OW 1813   2.123   1.019   1.764 -0.4913  0.4712  0.6220
  605SOL    HW1 1814   2.119   0.959   1.680  0.2566  1.2113 -0.1301
  605SOL    HW2 1815   2.117   1.118   1.745  3.9836 -0.6580  0.1436
  606SOL     OW 1816   0.670   0.876   2.740 -0.1063 -0.2605 -0.2730
  606SOL    HW1 1817   0.732   0.843   2.813  0.0972 -0.8305 -1.3084
  606SOL    HW2 1818   0.670   0.811   2.669 -1.9801  3.8116  3.6459
  607SOL     OW 1819   0.917   0.804   1.322  0.5894  0.3767 -0.3648
  607SOL    HW1 1820   0.976   0.780   1.403 -2.0372  1.9712  0.6584
  607SOL    HW2 1821   0.835   0.869   1.354 -4.2364  2.1411  0.6109
  608SOL     OW 1822   2.885   1.897   1.826 -0.3453  0.5462 -0.3155
  608SOL    HW1 1823   2.837   1.973   1.871 -1.9263 -0.5544 -0.8075
  608SOL    HW2 1824   2.823   1.874   1.752 -1.5098 -0.6388  2.9169
  609SOL     OW 1825   2.397   0.268   0.241 -0.4586  0.1140 -0.0603
  609SOL    HW1 1826   2.473   0.302   0.184  0.1504  1.5239 -0.1755
  609SOL    HW2 1827   2.379   0.174   0.216 -1.5629  0.2105  0.8210
  610SOL     OW 1828   2.795   2.660   1.509  0.2180 -0.1662 -0.3515
  610SOL    HW1 1829   2.707   2.662   1.456 -0.8717  2.1118 -0.4355
  610SOL    HW2 1830   2.853   2.585   1.479 -0.6987 -0.1072 -1.6739
  611SOL     OW 1831   1.687   2.195   0.247  0.1198  0.2247  0.4157
  611SOL    HW1 1832   1.739   2.113   0.236  0.1933  0.6585 -0.1032
  611SOL    HW2 1833   1.649   2.206   0.342 -0.4501 -0.9503 -0.5325
  612SOL     OW 1834   0.713   3.038   1.764  0.2763  0.4621 -0.0610
  612SOL    HW1 1835   0.753   2.983   1.690  1.2826  1.0559  0.7919
  612SOL    HW2 1836   0.762   0.026   1.773  1.3489  0.5860 -1.9230
  613SOL     OW 1837   0.037   2.003   0.810 -0.6151  0.2985  0.1537
  613SOL    HW1 1838   0.003   2.074   0.745 -3.6905 -1.6900 -0.0032
  613SOL    HW2 1839   3.060   1.935   0.810  1.1337 -1.8115 -0.1674
  614SOL     OW 1840   1.755   0.502   1.825 -0.3816 -0.6114  0.4798
  614SOL    HW1 1841   1.825   0.474   1.756  0.8260  2.2431  0.8867
  614SOL    HW2 1842   1.770   0.445   1.912 -0.6578  0.1177  0.4229
  615SOL     OW 1843   1.146   1.401   1.010 -0.3191 -0.2967  0.3021
  615SOL    HW1 1844   1.160   1.491   1.058  0.7049 -0.1607  0.4505
  615SOL    HW2 1845   1.225   1.346   1.020 -0.2686  2.4956  3.9321
  616SOL     OW 1846   1.926   1.710   0.546 -0.4626  0.0422  0.4079
  616SOL    HW1 1847   1.894   1.804   0.533  1.0001 -1.1763  0.6267
  616SOL    HW2 1848   1.851   1.638   0.551 -0.0610 -0.1296  1.8696
  617SOL     OW 1849   1.595   0.814   0.064 -0.5023  0.5534 -0.0969
  617SOL    HW1 1850   1.554   0.783   0.150  1.8536  1.5627  0.5472
  617SOL    HW2 1851   1.637   0.911   0.075 -0.7238  1.1028  0.4658
  618SOL     OW 1852   0.586   0.777   2.386 -0.4202 -0.4721 -0.4490
  618SOL    HW1 1853   0.623   0.741   2.296 -1.4496 -3.1580 -5.1510
  618SOL    HW2 1854   0.600   0.878   2.406  1.6099  1.0486  1.3526
  619SOL     OW 1855   2.987   1.552   1.270 -0.1293  0.4851  0.2886
  619SOL    HW1 1856   3.083   1.535   1.296 -1.2020 -0.4866  0.5985
  619SOL    HW2 1857   2.976   1.556   1.166  0.5289 -3.7699 -0.6171
  620SOL     OW 1858   2.180   2.584   2.748 -0.5823 -0.7551 -0.2599
  620SOL    HW1 1859   2.277   2.575   2.714  0.8347 -2.2662  3.7153
  620SOL    HW2 1860   2.170   2.665   2.808 -0.1682 -0.9010 -0.2968
  621SOL     OW 1861   3.008   1.944   3.084 -0.3069  0.0023 -0.5034
  621SOL    HW1 1862   2.979   1.853   3.046  1.8398  0.3933 -2.5276
  621SOL    HW2 1863   3.039   1.942   0.080  0.0717 -0.6211 -2.8979
  622SOL     OW 1864   1.387   0.113   2.261 -0.2076 -0.2286  0.1969
  622SOL    HW1 1865   1.311   0.080   2.204 -1.4746  0.8260 -1.9452
  622SOL    HW2 1866   1.349   0.139   2.347  1.1689 -0.5719 -1.0991
  623SOL     OW 1867   0.682   2.370   1.158  0.4052 -0.0819  0.1490
  623SOL    HW1 1868   0.681   2.374   1.258  0.2570  3.1108 -2.3330
  623SOL    HW2 1869   0.726   2.459   1.123  0.7919  4.5460 -0.2097
  624SOL     OW 1870   0.175   2.862   2.847  0.1154 -0.2946 -0.4470
  624SOL    HW1 1871   0.112   2.831   2.774  2.1324 -0.7064 -0.5789
  624SOL    HW2 1872   0.232   2.946   2.821  0.5548  1.3097  0.2497
  625SOL     OW 1873   0.725   1.987   0.589  0.0544  0.2016 -0.0864
  625SOL    HW1 1874   0.816   1.956   0.620  0.9313 -0.0643 -2.6025
  625SOL    HW2 1875   0.727   1.994   0.489 -0.3080 -3.6410  4.5987
  626SOL     OW 1876   2.802   0.517   2.839 -0.9703 -0.0193  0.1266
  626SOL    HW1 1877   2.792   0.442   2.902 -1.3953  0.4389 -0.6702
  626SOL    HW2 1878   2.838   0.480   2.748  0.6615  0.5929 -2.3256
  627SOL     OW 1879   1.347   1.910   2.949 -0.4249  0.2417 -0.0716
  627SOL    HW1 1880   1.437   1.909   2.901 -1.7163 -1.5320  1.3253
  627SOL    HW2 1881   1.271   1.896   2.882 -0.4771 -0.7611 -3.0672
  628SOL     OW 1882   0.034   2.591   2.814  0.2036  0.7489  0.0608
  628SOL    HW1 1883   0.115   2.599   2.872 -1.0470 -0.9679  3.7271
  628SOL    HW2 1884   3.049   2.600   2.869  3.0380 -1.0270 -0.0082
  629SOL     OW 1885   0.805   2.894   2.627 -0.1627 -0.2859  0.1741
  629SOL    HW1 1886   0.869   2.820   2.639 -1.8783 -1.6695  1.2615
  629SOL    HW2 1887   0.758   2.880   2.537  1.6195 -1.3032  3.1869
  630SOL     OW 1888   1.360   0.799   1.966  0.5632  0.2814  0.1896
  630SOL    HW1 1889   1.313   0.770   1.882  0.1507  0.5386 -0.3437
  630SOL    HW2 1890   1.338   0.897   1.964 -1.1497  0.7072 -0.3154
  631SOL     OW 1891   1.848   1.079   0.343  1.1116  0.7963 -0.2956
  631SOL    HW1 1892   1.869   1.164   0.397  1.5414  2.4722  0.9867
  631SOL    HW2 1893   1.749   1.046   0.350 -0.5156 -2.2726 -0.4352
  632SOL     OW 1894   2.640   0.341   1.888 -0.2496 -0.1504  0.4094
  632SOL    HW1 1895   2.731   0.391   1.876  1.1745  1.5327  0.3171
  632SOL    HW2 1896   2.634   0.247   1.849  2.6965 -2.3448 -0.4877
  633SOL     OW 1897   0.881   1.478   0.271 -0.2595  0.1078  0.0290
  633SOL    HW1 1898   0.955   1.533   0.226 -0.9028  0.0121  1.9587
  633SOL    HW2 1899   0.899   1.467   0.371 -3.0863 -0.9238 -2.1065
  634SOL     OW 1900   2.364   2.662   2.289 -0.2624  0.4917 -0.4267
  634SOL    HW1 1901   2.360   2.600   2.209  1.0949  0.6260 -1.6936
  634SOL    HW2 1902   2.274   2.707   2.307  1.2804 -1.4879 -0.3900
  635SOL     OW 1903   1.842   0.792   0.318 -0.3325  0.3212  0.2233
  635SOL    HW1 1904   1.805   0.758   0.409 -0.5623  0.4045 -1.3133
  635SOL    HW2 1905   1.876   0.891   0.322  0.6548  3.3217  0.1692
  636SOL     OW 1906   0.603   1.389   0.772  0.0319  0.2698  0.4227
  636SOL    HW1 1907   0.521   1.361   0.722  0.1354  2.0686 -1.9679
  636SOL    HW2 1908   0.677   1.428   0.715  0.8463  0.6115  0.8942
  637SOL     OW 1909   2.822   2.215   0.287  0.2922 -0.8639  0.6987
  637SOL    HW1 1910   2.868   2.134   0.337 -0.7300  0.8201  1.3898
  637SOL    HW2 1911   2.752   2.258   0.345  1.9335 -1.7369  1.7563
  638SOL     OW 1912   1.454   2.660   2.427  0.1356 -0.7212 -0.3165
  638SOL    HW1 1913   1.475   2.641   2.330  0.7566  1.6667  0.9009
  638SOL    HW2 1914   1.508   2.590   2.481  0.0935  2.9260  0.8239
  639SOL     OW 1915   1.389   1.852   0.435  0.1372  0.1501 -1.0290
  639SOL    HW1 1916   1.361   1.913   0.364  1.0515  1.3455  1.2524
  639SOL    HW2 1917   1.322   1.781   0.460  2.9295  0.9849  2.8591
  640SOL     OW 1918   2.048   0.315   0.408 -0.3605  0.3079  0.3164
  640SOL    HW1 1919   2.084   0.226   0.425  0.7544  0.8940 -2.2804
  640SOL    HW2 1920   2.072   0.343   0.313  0.3624 -0.1293 -1.4715
  641SOL     OW 1921   2.932   0.018   0.472  0.2932  0.4130 -0.4801
  641SOL    HW1 1922   2.958   0.058   0.562 -1.8008 -0.8557 -1.2529
  641SOL    HW2 1923   2.948   0.077   0.394  0.4546 -1.2564  0.9270
  642SOL     OW 1924   0.543   0.264   1.628  0.0848 -1.3663  0.0082
  642SOL    HW1 1925   0.542   0.333   1.702 -2.6317  1.6574 -1.4247
  642SOL    HW2 1926   0.614   0.284   1.558  2.0032 -0.8043 -0.1341
  643SOL     OW 1927   0.556   1.278   2.354  0.6733 -0.0133  0.2801
  643SOL    HW1 1928   0.608   1.331   2.423 -1.3811  0.3252 -0.7277
  643SOL    HW2 1929   0.498   1.345   2.304  0.2082  2.8368 -0.0045
  644SOL     OW 1930   1.361   2.578   0.330 -0.1981 -0.2378 -0.3656
  644SOL    HW1 1931   1.322   2.674   0.334  0.5543  4.7609 -0.4450
  644SOL    HW2 1932   1.416   2.564   0.416  0.6596 -0.3584  1.2352
  645SOL     OW 1933   1.810   1.952   0.179 -0.3545 -0.7160 -0.3748
  645SOL    HW1 1934   1.868   1.960   0.095  1.7922  0.2008 -1.8760
  645SOL    HW2 1935   1.726   1.896   0.168  0.5745  1.7092 -1.9894
  646SOL     OW 1936   0.043   1.394   2.805  0.6925 -0.0531 -0.3329
  646SOL    HW1 1937   0.115   1.323   2.801 -1.6192  2.1630  0.5201
  646SOL    HW2 1938   3.069   1.357   2.748  1.5552  0.7186 -1.1583
  647SOL     OW 1939   1.021   0.403   1.196 -0.3341  0.5136 -0.3020
  647SOL    HW1 1940   0.935   0.463   1.190 -2.3606  0.6712 -1.4591
  647SOL    HW2 1941   1.075   0.437   1.277  1.7479  1.1558  2.5841
  648SOL     OW 1942   1.609   0.632   1.201 -0.2111  0.1719  0.3145
  648SOL    HW1 1943   1.598   0.651   1.101 -0.1184 -0.9499 -1.2914
  648SOL    HW2 1944   1.699   0.674   1.235  1.1064  2.4743 -0.1484
  649SOL     OW 1945   1.049   1.713   0.234 -0.0744 -0.3261 -0.0112
  649SOL    HW1 1946   1.024   1.814   0.239 -0.3735  2.0393  0.1394
  649SOL    HW2 1947   1.104   1.693   0.149 -1.0564 -3.2461 -1.4877
  650SOL     OW 1948   2.740   1.473   2.307  0.1989  0.0747 -0.5080
  650SOL    HW1 1949   2.692   1.528   2.377 -0.8537 -0.6348  1.5647
  650SOL    HW2 1950   2.781   1.524   2.233  0.5641  0.7155 -0.3955
  651SOL     OW 1951   1.372   2.308   2.583 -0.5960 -0.1837  0.3584
  651SOL    HW1 1952   1.345   2.280   2.678  1.0711  0.7853  0.4227
  651SOL    HW2 1953   1.302   2.286   2.516  0.0430  0.0609  2.2630
  652SOL     OW 1954   2.611   1.745   0.173  0.3654 -0.4358  0.2038
  652SOL    HW1 1955   2.562   1.692   0.099 -1.7384 -1.7712 -0.1692
  652SOL    HW2 1956   2.627   1.841   0.145  0.0223  2.3918 -0.7912
  653SOL     OW 1957   0.191   0.041   1.006  0.3500 -0.2565 -0.0401
  653SOL    HW1 1958   0.260   3.076   0.966  1.3861 -0.0617  1.0509
  653SOL    HW2 1959   0.238   0.124   1.043  2.1385 -1.9853 -0.2691
  654SOL     OW 1960   2.463   0.173   2.244 -0.2823  0.1194  0.7332
  654SOL    HW1 1961   2.469   0.101   2.317  1.3988 -0.4604  0.6626
  654SOL    HW2 1962   2.458   0.126   2.152  2.9296 -0.0399  0.0876
  655SOL     OW 1963   0.382   2.973   0.913 -0.4976  0.5131 -0.3017
  655SOL    HW1 1964   0.423   2.886   0.880 -0.7284  1.7605  2.8082
  655SOL    HW2 1965   0.419   3.052   0.859  2.0639 -0.7103  0.4980
  656SOL     OW 1966   3.032   2.990   2.333  0.0836  0.2372  0.9010
  656SOL    HW1 1967   2.934   3.019   2.330 -1.7216 -1.8464 -0.3473
  656SOL    HW2 1968   3.085   3.054   2.393 -0.1689  1.1743  1.4938
  657SOL     OW 1969   2.432   0.824   2.896 -0.0875 -0.6253  0.1029
  657SOL    HW1 1970   2.444   0.899   2.824  1.9101  0.9430 -0.5480
  657SOL    HW2 1971   2.523   0.779   2.911 -0.2538 -0.4790 -0.3010
  658SOL     OW 1972   2.313   1.931   1.097  0.7725  0.4251 -0.5435
  658SOL    HW1 1973   2.301   1.855   1.162 -1.1282  0.3587  1.0451
  658SOL    HW2 1974   2.410   1.937   1.059  2.5418  2.7246 -0.6052
  659SOL     OW 1975   2.255   2.963   0.428  0.0552 -0.0032 -0.1099
  659SOL    HW1 1976   2.205   2.881   0.446  2.2442  2.4776 -2.0807
  659SOL    HW2 1977   2.343   2.964   0.477 -2.6473  1.2550  0.4834
  660SOL     OW 1978   1.617   1.270   2.646 -0.0256  0.3298 -0.2307
  660SOL    HW1 1979   1.665   1.358   2.625  0.8260 -0.4053  1.2580
  660SOL    HW2 1980   1.530   1.263   2.595 -0.7591  1.9464  0.2137
  661SOL     OW 1981   2.539   2.269   1.571 -0.2451 -0.0976 -0.1646
  661SOL    HW1 1982   2.577   2.222   1.492 -0.8419 -0.9965  1.7151
  661SOL    HW2 1983   2.610   2.308   1.628  0.9969  0.2125 -0.3550
  662SOL     OW 1984   0.666   0.760   0.118 -1.4177  0.2072  0.4988
  662SOL    HW1 1985   0.568   0.773   0.129  3.8959  0.9428  0.9916
  662SOL    HW2 1986   0.711   0.727   0.206  0.7511  1.0625  1.3238
  663SOL     OW 1987   2.206   2.151   0.945 -0.2467  0.1474  0.1846
  663SOL    HW1 1988   2.109   2.146   0.982 -1.7092  0.5298  2.4973
  663SOL    HW2 1989   2.254   2.064   0.972 -0.9172  1.9730 -1.9315
  664SOL     OW 1990   0.802   1.819   1.259  0.3679 -0.1481  0.5467
  664SOL    HW1 1991   0.739   1.892   1.231  0.7070 -0.7704 -1.4487
  664SOL    HW2 1992   0.892   1.855   1.294 -1.1389 -0.4931  0.1324
  665SOL     OW 1993   1.677   2.349   2.104  0.4532 -0.6985  0.0111
  665SOL    HW1 1994   1.706   2.396   2.020 -2.7177 -0.7107  0.8261
  665SOL    HW2 1995   1.741   2.278   2.136  1.3639  0.4122  0.6116
  666SOL     OW 1996   0.030   2.564   0.065 -0.2035 -0.3138  0.1288
  666SOL    HW1 1997   0.107   2.581   3.098  1.6079 -1.6727 -1.3849
  666SOL    HW2 1998   3.048   2.557   0.012 -1.8039  1.5889 -0.5095
  667SOL     OW 1999   2.628   1.478   1.974  0.2653 -0.3538  0.0818
  667SOL    HW1 2000   2.650   1.416   2.050  0.6312 -1.5762 -1.9010
  667SOL    HW2 2001   2.693   1.465   1.895 -1.6901  1.1349 -1.8688
  668SOL     OW 2002   0.430   0.700   2.586  0.9370  0.4719  0.1197
  668SOL    HW1 2003   0.489   0.729   2.509 -0.1346  1.5872 -3.4475
  668SOL    HW2 2004   0.482   0.628   2.637  2.8966 -0.0449 -1.1977
  669SOL     OW 2005   1.997   2.265   0.001  0.6675  0.6159  0.3268
  669SOL    HW1 2006   2.061   2.298   3.028 -1.0770 -0.6558 -0.2190
  669SOL    HW2 2007   2.035   2.282   0.086 -1.0418  0.4020 -2.8978
  670SOL     OW 2008   2.293   1.512   2.785 -0.1783  0.4414  0.3513
  670SOL    HW1 2009   2.353   1.454   2.846 -0.2654  0.7144  0.3433
  670SOL    HW2 2010   2.324   1.511   2.688 -0.2876  0.4542  0.4369
  671SOL     OW 2011   0.316   1.613   0.841  0.1477  0.1716  0.1562
  671SOL    HW1 2012   0.249   1.603   0.762 -2.6249  0.0647 -1.2288
  671SOL    HW2 2013   0.251   1.603   0.918  1.0499 -1.2159  0.5696
  672SOL     OW 2014   2.437   0.738   1.951  0.1101  0.1169  0.1789
  672SOL    HW1 2015   2.536   0.733   1.951 -3.4581 -0.3781  2.5807
  672SOL    HW2 2016   2.395   0.831   1.951 -2.7566  3.1475  0.7124
  673SOL     OW 2017   2.352   2.477   2.089 -0.5308  0.2349  0.0111
  673SOL    HW1 2018   2.450   2.442   2.081 -0.7903  0.0874 -2.6896
  673SOL    HW2 2019   2.309   2.477   1.999  2.2016 -3.0159  1.5715
  674SOL     OW 2020   1.485   2.624   1.919  0.2325 -0.1848  0.2310
  674SOL    HW1 2021   1.497   2.557   1.843 -0.7088  1.0347  0.8864
  674SOL    HW2 2022   1.401   2.677   1.891 -2.0158  1.7538  0.2160
  675SOL     OW 2023   0.574   0.910   0.920  0.2636 -0.3272  0.1701
  675SOL    HW1 2024   0.655   0.919   0.860  2.4113  0.4942 -2.1060
  675SOL    HW2 2025   0.493   0.953   0.872  0.3004  2.5403 -2.5027
  676SOL     OW 2026   1.903   1.199   0.588 -0.0546  0.1095 -0.0256
  676SOL    HW1 2027   1.855   1.119   0.627  2.3773  1.0407  0.9000
  676SOL    HW2 2028   1.984   1.222   0.648 -0.2540  2.0646  2.1234
  677SOL     OW 2029   2.936   1.349   2.626 -0.4867  0.5515 -0.2988
  677SOL    HW1 2030   2.865   1.383   2.684  0.3107 -1.3153 -3.0396
  677SOL    HW2 2031   2.897   1.272   2.574 -1.5279  2.9884 -1.3422
  678SOL     OW 2032   2.641   1.801   1.287  0.2910 -0.3297  0.1855
  678SOL    HW1 2033   2.720   1.823   1.347 -1.9582 -0.7601  1.2622
  678SOL    HW2 2034   2.590   1.722   1.327 -1.4134 -2.8373 -0.7272
  679SOL     OW 2035   2.115   2.741   0.447 -0.9054 -0.3550  0.1990
  679SOL    HW1 2036   2.155   2.670   0.510 -0.6466 -0.7644  2.0658
  679SOL    HW2 2037   2.015   2.718   0.434  0.8531 -1.9015 -2.3269
  680SOL     OW 2038   0.112   2.172   2.154  0.4107  0.3330 -0.5592
  680SOL    HW1 2039   0.041   2.123   2.097 -0.4378  2.3049 -0.9761
  680SOL    HW2 2040   0.151   2.116   2.223 -1.4741  3.1256 -1.2256
  681SOL     OW 2041   2.957   1.277   1.603  0.1888  0.5690  0.2092
  681SOL    HW1 2042   3.046   1.246   1.645  1.6754 -4.7621 -2.0236
  681SOL    HW2 2043   2.892   1.280   1.678 -0.1998  1.2020 -2.0762
  682SOL     OW 2044   1.084   2.264   0.769  0.3011 -0.3105  0.1456
  682SOL    HW1 2045   0.996   2.305   0.751  1.5983  1.4287 -0.4712
  682SOL    HW2 2046   1.082   2.168   0.737  1.2058  1.6148  3.6868
  683SOL     OW 2047   2.057   1.169   1.257 -0.2348  0.4584  0.4844
  683SOL    HW1 2048   1.983   1.200   1.189 -1.3446  0.5670  1.0795
  683SOL    HW2 2049   2.066   1.223   1.344 -0.7550 -1.5532  2.8576
  684SOL     OW 2050   0.251   1.755   2.797 -0.5021 -0.4422 -0.2693
  684SOL    HW1 2051   0.155   1.722   2.818  1.4066  0.5626 -0.5330
  684SOL    HW2 2052   0.299   1.790   2.882  3.1715  3.2058  5.0743
  685SOL     OW 2053   1.539   1.386   0.076 -0.9043 -0.4231  0.6978
  685SOL    HW1 2054   1.632   1.343   0.046 -1.6773 -0.0491 -1.2106
  685SOL    HW2 2055   1.527   1.383   0.175  0.0840 -0.4080  0.3803
  686SOL     OW 2056   2.983   0.651   1.096 -0.4625 -0.4061  0.5397
  686SOL    HW1 2057   3.024   0.576   1.152 -2.0537 -1.5673 -2.4994
  686SOL    HW2 2058   3.059   0.688   1.036  0.4393  1.9752  0.1560
  687SOL     OW 2059   0.902   2.231   2.468  0.2247  0.1106  0.0183
  687SOL    HW1 2060   0.907   2.235   2.569  0.8040 -1.3058 -1.4615
  687SOL    HW2 2061   0.855   2.314   2.432 -0.4726 -1.6116  1.5165
  688SOL     OW 2062   0.381   1.743   1.734 -0.5571 -0.4809  0.0878
  688SOL    HW1 2063   0.326   1.774   1.817 -1.3002  0.7833  0.2660
  688SOL    HW2 2064   0.442   1.820   1.702  0.8905 -0.6234 -0.8672
  689SOL     OW 2065   1.793   0.858   1.714 -0.1166  0.2714  0.2112
  689SOL    HW1 2066   1.698   0.866   1.682 -0.7307  1.6710  0.0177
  689SOL    HW2 2067   1.805   0.795   1.793 -0.4936  0.2501  1.3150
  690SOL     OW 2068   2.506   0.740   1.134 -0.2366 -0.1335  0.1352
  690SOL    HW1 2069   2.437   0.669   1.137  0.8458  0.8686  0.8386
  690SOL    HW2 2070   2.467   0.834   1.142  1.6897  0.7781  0.8212
  691SOL     OW 2071   0.772   1.968   1.575  0.0621 -0.0756 -0.1254
  691SOL    HW1 2072   0.788   1.867   1.553 -1.1913 -4.3809 -1.2272
  691SOL    HW2 2073   0.832   2.006   1.651  2.2794  2.6011  3.2738
  692SOL     OW 2074   1.956   0.203   1.429 -0.3243  0.4810  0.1690
  692SOL    HW1 2075   1.930   0.207   1.330  0.8120 -0.9343  2.3909
  692SOL    HW2 2076   2.052   0.170   1.435 -2.5342 -1.3517  0.0128
  693SOL     OW 2077   0.300   0.997   2.173  0.1041  0.0958 -0.1345
  693SOL    HW1 2078   0.394   1.014   2.205 -3.6944  0.1490 -3.0757
  693SOL    HW2 2079   0.303   0.925   2.107 -0.8283  1.5013  1.3303
  694SOL     OW 2080   1.816   0.226   1.191  0.2019  0.3596  0.0145
  694SOL    HW1 2081   1.764   0.258   1.114 -1.7794  0.3157  1.5743
  694SOL    HW2 2082   1.799   0.127   1.215 -2.9911  0.0253 -1.2926
  695SOL     OW 2083   1.222   1.381   1.745 -0.3553 -0.9070  0.2145
  695SOL    HW1 2084   1.213   1.392   1.644  1.7678  2.6897 -3.4334
  695SOL    HW2 2085   1.178   1.296   1.773  1.0257  4.4952 -0.4858
  696SOL     OW 2086   1.716   2.845   0.088  0.0763 -0.0422 -0.0199
  696SOL    HW1 2087   1.673   2.760   0.055  1.3386  4.6799  1.7845
  696SOL    HW2 2088   1.762   2.898   0.010 -0.9643 -0.9192 -0.6481
  697SOL     OW 2089   0.797   0.589   0.305 -0.2597 -0.5345 -0.2034
  697SOL    HW1 2090   0.777   0.519   0.376 -1.3565  1.0086 -0.4457
  697SOL    HW2 2091   0.894   0.581   0.274  0.9324 -1.0675  0.1655
  698SOL     OW 2092   1.393   1.270   2.489 -0.4129 -0.1763 -0.1079
  698SOL    HW1 2093   1.389   1.303   2.392  0.1003  0.7085  2.6632
  698SOL    HW2 2094   1.308   1.219   2.512 -3.8895  0.3057  1.0266
  699SOL     OW 2095   1.366   1.239   1.133 -0.3919 -0.1267  0.7728
  699SOL    HW1 2096   1.359   1.316   1.200 -1.2143  2.9932  1.0272
  699SOL    HW2 2097   1.420   1.264   1.048  0.8992  0.6810  0.7518
  700SOL     OW 2098   1.671   0.033   0.533 -0.2300 -0.5416  0.0986
  700SOL    HW1 2099   1.719   3.055   0.488 -0.2988 -1.0676  1.0913
  700SOL    HW2 2100   1.688   0.121   0.488 -1.8097 -0.9663  1.3337
  701SOL     OW 2101   2.497   2.999   2.398  0.0365 -0.0085  0.6970
  701SOL    HW1 2102   2.524   2.926   2.336 -2.3689  0.0130 -0.5159
  701SOL    HW2 2103   2.439   2.970   2.474  0.4786 -1.0322 -0.5157
  702SOL     OW 2104   0.976   0.080   0.129  0.4694 -0.7660  0.0202
  702SOL    HW1 2105   0.988   0.183   0.117  1.8650 -0.6785  1.7060
  702SOL    HW2 2106   0.912   0.044   0.057  0.4943 -0.0027 -1.1148
  703SOL     OW 2107   2.119   2.785   2.359 -0.2353  1.0063 -0.3773
  703SOL    HW1 2108   2.071   2.709   2.414 -1.2182  1.1748 -0.3611
  703SOL    HW2 2109   2.076   2.872   2.384 -0.4542 -1.9989  0.2955
  704SOL     OW 2110   0.486   2.449   0.866  0.0321 -0.1237 -0.7023
  704SOL    HW1 2111   0.452   2.384   0.795  0.2395 -0.0254  1.5124
  704SOL    HW2 2112   0.468   2.414   0.963  1.6176 -3.4609  1.3742
  705SOL     OW 2113   2.426   0.086   1.991  0.0890 -0.0694 -0.5964
  705SOL    HW1 2114   2.459   0.077   1.897 -1.5650 -0.1778  1.6295
  705SOL    HW2 2115   2.347   0.148   1.992  1.0995 -1.2255  0.7571
  706SOL     OW 2116   1.771   0.260   0.382 -0.4229 -0.1740  0.0575
  706SOL    HW1 2117   1.871   0.258   0.396  0.9809 -0.7620 -2.7246
  706SOL    HW2 2118   1.746   0.273   0.282 -2.2072  0.1328 -1.2730
  707SOL     OW 2119   1.118   1.944   2.126  0.4737 -0.2382  0.8588
  707SOL    HW1 2120   1.189   1.961   2.052  2.2715 -0.4161 -1.4126
  707SOL    HW2 2121   1.057   2.024   2.137  1.3057 -2.9227 -0.2001
  708SOL     OW 2122   0.035   2.283   1.856  0.4539 -0.0468  0.1723
  708SOL    HW1 2123   0.031   2.340   1.943  1.7273  0.3524  1.5776
  708SOL    HW2 2124   0.054   2.337   1.772  2.8587 -1.3859 -0.1286
  709SOL     OW 2125   1.858   0.334   2.021  0.1932  0.5006 -0.0541
  709SOL    HW1 2126   1.902   0.349   2.117  3.3041  0.4805  1.1270
  709SOL    HW2 2127   1.863   0.238   1.997 -0.2442  0.9045  0.0975
  710SOL     OW 2128   2.042   0.553   2.004 -0.2199  0.6657  0.7559
  710SOL    HW1 2129   1.985   0.476   1.978 -2.3784  2.7097 -2.6801
  710SOL    HW2 2130   2.052   0.556   2.106 -3.4932 -1.1135  0.8017
  711SOL     OW 2131   0.827   2.021   3.075  0.7351  0.2367 -0.4721
  711SOL    HW1 2132   0.785   2.117   3.086 -0.0781  3.2060  0.8766
  711SOL    HW2 2133   0.909   2.012   0.036 -1.2295 -1.4462 -1.1117
  712SOL     OW 2134   0.583   2.592   2.049 -0.2584  0.4751  0.3207
  712SOL    HW1 2135   0.503   2.548   2.006  2.4220  0.9822 -1.2214
  712SOL    HW2 2136   0.609   2.678   2.001  1.9346 -0.2139 -1.0327
  713SOL     OW 2137   1.762   1.477   0.581 -0.0679  0.4207 -0.6237
  713SOL    HW1 2138   1.717   1.483   0.670  2.5205  1.5821 -3.3556
  713SOL    HW2 2139   1.852   1.429   0.585  0.2306  1.5075  0.4673
  714SOL     OW 2140   0.599   1.964   1.117  0.0446  0.6829 -0.0454
  714SOL    HW1 2141   0.529   1.918   1.059  2.4208 -1.3570 -1.3084
  714SOL    HW2 2142   0.653   2.027   1.062  1.7518  0.6661 -1.7930
  715SOL     OW 2143   1.997   2.835   2.802 -0.0436 -0.1872 -0.0709
  715SOL    HW1 2144   2.038   2.922   2.762  1.0281  1.6661 -1.2923
  715SOL    HW2 2145   1.924   2.800   2.737 -2.0144  0.4659  1.0090
  716SOL     OW 2146   2.829   2.931   1.978 -0.2984 -0.2321  0.0810
  716SOL    HW1 2147   2.875   2.844   2.003 -0.4845  1.0517  1.3668
  716SOL    HW2 2148   2.846   3.003   2.053 -4.8332 -2.0289  1.2300
  717SOL     OW 2149   0.283   1.091   0.195  0.0949 -0.1556  0.2448
  717SOL    HW1 2150   0.351   1.073   0.120  0.8465 -2.0274 -0.4720
  717SOL    HW2 2151   0.224   1.161   0.157  2.3077  1.1499  0.1294
  718SOL     OW 2152   1.207   1.043   2.510 -0.2065  0.1140  0.0861
  718SOL    HW1 2153   1.185   1.007   2.605  3.8120  0.9233 -0.0651
  718SOL    HW2 2154   1.288   0.996   2.468 -2.6986  1.2744 -0.0032
  719SOL     OW 2155   2.731   1.523   3.098 -0.2185  0.1402 -0.2095
  719SOL    HW1 2156   2.792   1.497   0.078  1.6320 -1.1683  0.7382
  719SOL    HW2 2157   2.634   1.505   0.025 -0.2449  2.5986 -2.7142
  720SOL     OW 2158   1.083   0.791   1.110  0.5672  0.0748 -0.6259
  720SOL    HW1 2159   1.015   0.768   1.182 -1.3587  1.2542  3.0850
  720SOL    HW2 2160   1.031   0.776   1.020 -0.7682 -4.4552 -1.8918
  721SOL     OW 2161   2.695   0.664   0.120 -0.6651 -0.4642 -0.3402
  721SOL    HW1 2162   2.663   0.656   0.022 -0.4574 -0.2866 -2.6741
  721SOL    HW2 2163   2.645   0.732   0.176 -0.1768  1.4527 -0.7788
  722SOL     OW 2164   1.499   0.869   2.910 -0.0480 -0.5021 -0.3531
  722SOL    HW1 2165   1.534   0.818   2.994 -0.1881 -0.4035  2.3027
  722SOL    HW2 2166   1.495   0.805   2.830 -2.6779  1.4895 -0.6348
  723SOL     OW 2167   0.039   1.436   0.351 -0.4865  1.3275  0.0591
  723SOL    HW1 2168   0.042   1.527   0.391 -0.0528 -1.1992  0.6337
  723SOL    HW2 2169   0.074   1.361   0.411 -1.3897  0.3307 -0.8934
  724SOL     OW 2170   0.394   1.480   2.243  0.2359  0.9335  0.0779
  724SOL    HW1 2171   0.318   1.424   2.283 -1.3785  0.0086  1.6714
  724SOL    HW2 2172   0.362   1.576   2.224 -2.4218 -0.9271 -2.2774
  725SOL     OW 2173   2.116   0.621   1.590 -0.0690 -0.6945  0.1436
  725SOL    HW1 2174   2.080   0.721   1.572 -0.1158  1.0319  0.2975
  725SOL    HW2 2175   2.162   0.626   1.681  0.8913  0.4916 -0.8339
  726SOL     OW 2176   1.726   2.952   0.343 -0.1033  0.2863  0.6956
  726SOL    HW1 2177   1.727   2.937   0.241  0.1963  0.9203  0.9113
  726SOL    HW2 2178   1.764   2.870   0.390  1.0047 -1.9172 -0.4392
  727SOL     OW 2179   1.383   1.220   2.189  0.4739  0.1757 -0.1001
  727SOL    HW1 2180   1.484   1.219   2.209 -0.2415 -1.1958  1.2935
  727SOL    HW2 2181   1.352   1.312   2.153  0.2762  2.8532  0.5000
  728SOL     OW 2182   1.494   2.533   1.090 -0.2590  0.5748  0.1346
  728SOL    HW1 2183   1.400   2.529   1.127 -0.9959  0.9790 -1.7961
  728SOL    HW2 2184   1.552   2.480   1.158  0.0790  2.3963  0.1182
  729SOL     OW 2185   2.042   0.903   1.286  0.1084  0.7323  0.1328
  729SOL    HW1 2186   2.063   0.999   1.267  1.4524 -0.4281 -2.4993
  729SOL    HW2 2187   2.100   0.843   1.224  1.0715 -3.8809  2.0156
  730SOL     OW 2188   0.334   1.752   2.303 -0.5398  0.3426  0.1777
  730SOL    HW1 2189   0.417   1.746   2.364 -0.3123  0.4900  0.5967
  730SOL    HW2 2190   0.264   1.812   2.341  1.7109 -2.6229 -1.3254
  731SOL     OW 2191   0.428   0.600   0.567 -0.1108 -0.3491 -0.1634
  731SOL    HW1 2192   0.436   0.545   0.657 -1.4261 -1.2842 -0.2813
  731SOL    HW2 2193   0.473   0.552   0.491 -1.4120 -0.7908 -1.1091
  732SOL     OW 2194   1.026   0.672   0.118 -0.2927 -0.1391 -0.4476
  732SOL    HW1 2195   0.973   0.631   0.042 -0.3326 -2.9552 -1.5195
  732SOL    HW2 2196   0.971   0.754   0.149 -3.1665  1.0154 -1.1972
  733SOL     OW 2197   0.649   2.203   0.746 -0.4707  0.0064  0.3246
  733SOL    HW1 2198   0.685   2.124   0.692  1.1213  0.6893 -0.4523
  733SOL    HW2 2199   0.549   2.205   0.747  2.5876  1.5680 -1.2861
  734SOL     OW 2200   0.002   2.300   2.816  0.6896 -0.5398  0.2994
  734SOL    HW1 2201   0.060   2.381   2.798 -0.6892 -2.8048  0.8471
  734SOL    HW2 2202   0.011   2.256   2.910  0.2326 -2.1539  2.7475
  735SOL     OW 2203   1.124   0.779   1.510  0.1218 -0.0936 -0.5207
  735SOL    HW1 2204   1.148   0.739   1.603  3.6565  1.7457  0.4949
  735SOL    HW2 2205   1.195   0.757   1.437 -0.0206 -2.6949 -1.0424
  736SOL     OW 2206   2.104   2.701   2.999  0.5795 -0.4557 -0.2484
  736SOL    HW1 2207   2.079   2.720   3.099 -0.0300  1.5398 -1.9691
  736SOL    HW2 2208   2.053   2.760   2.935  0.5576  2.9253 -1.5855
  737SOL     OW 2209   0.241   0.307   0.520  0.1157  0.1920  0.1652
  737SOL    HW1 2210   0.160   0.365   0.551 -1.8273  1.5050  3.1620
  737SOL    HW2 2211   0.333   0.351   0.530 -3.1416  1.2136  2.5938
  738SOL     OW 2212   2.217   0.153   0.962 -0.0401 -0.3956  0.1831
  738SOL    HW1 2213   2.243   0.251   0.947  0.1586  0.2831  3.3360
  738SOL    HW2 2214   2.299   0.095   0.965  1.1215  0.0467  0.9615
  739SOL     OW 2215   1.779   2.476   0.252  0.2814 -0.3916 -0.3293
  739SOL    HW1 2216   1.717   2.398   0.257 -1.7506  0.4859 -2.0647
  739SOL    HW2 2217   1.838   2.455   0.172  2.8597  1.5735 -2.2219
  740SOL     OW 2218   1.499   0.334   0.735  0.1711 -0.0053 -0.1899
  740SOL    HW1 2219   1.476   0.255   0.672 -0.2808 -0.2446 -1.4792
  740SOL    HW2 2220   1.524   0.288   0.827  2.8946 -0.9686  0.8766
  741SOL     OW 2221   2.596   0.741   0.888  0.4057  0.5048  0.1658
  741SOL    HW1 2222   2.566   0.757   0.984 -0.5571 -2.7931 -0.5576
  741SOL    HW2 2223   2.517   0.744   0.825  0.9213  2.4832 -0.4998
  742SOL     OW 2224   0.971   2.159   2.208 -0.1325  0.3344 -0.2795
  742SOL    HW1 2225   0.955   2.184   2.307 -0.5565  0.7789  2.7558
  742SOL    HW2 2226   0.882   2.152   2.157  0.6971 -1.4437  0.5198
  743SOL     OW 2227   1.871   0.774   2.001 -0.0438  0.1912  0.2142
  743SOL    HW1 2228   1.925   0.698   2.040 -2.5945  0.5160 -0.6720
  743SOL    HW2 2229   1.784   0.732   1.981 -0.2672 -0.7398 -1.0777
  744SOL     OW 2230   2.304   0.575   1.135  0.1721  0.3260  0.5405
  744SOL    HW1 2231   2.230   0.627   1.090 -0.4039 -0.9233  0.8177
  744SOL    HW2 2232   2.284   0.541   1.232  1.9381 -1.3297  2.0931
  745SOL     OW 2233   1.891   1.168   1.647 -0.0870 -0.3028  0.2039
  745SOL    HW1 2234   1.892   1.078   1.691 -4.0112  0.8366  1.2416
  745SOL    HW2 2235   1.825   1.166   1.570 -1.1550  0.2429 -0.5324
  746SOL     OW 2236   1.630   1.732   0.934 -0.5191  0.1377 -0.4942
  746SOL    HW1 2237   1.722   1.754   0.897  0.0292 -0.7923 -1.6686
  746SOL    HW2 2238   1.566   1.811   0.941 -0.1720  0.0739  1.2569
  747SOL     OW 2239   1.889   1.282   1.078 -0.1114 -0.1723 -0.0953
  747SOL    HW1 2240   1.915   1.366   1.023  2.0391  2.1009  1.3806
  747SOL    HW2 2241   1.815   1.304   1.143  0.3856  0.1131 -1.1344
  748SOL     OW 2242   0.402   2.272   0.671 -0.3828 -0.3246  0.1351
  748SOL    HW1 2243   0.324   2.339   0.685 -0.1251  0.9527 -0.3089
  748SOL    HW2 2244   0.447   2.306   0.586 -1.3091 -2.2428  0.6823
  749SOL     OW 2245   2.605   2.764   2.205  0.1378 -0.1894  0.1208
  749SOL    HW1 2246   2.513   2.723   2.234  2.9194 -0.0082  0.3528
  749SOL    HW2 2247   2.591   2.825   2.125  0.1058  0.7501 -0.9325
  750SOL     OW 2248   2.587   0.365   0.853 -0.1732 -0.1779  0.4266
  750SOL    HW1 2249   2.628   0.296   0.794 -1.8297  1.2867 -0.8061
  750SOL    HW2 2250   2.648   0.445   0.863 -1.6873 -0.7255  1.2397
  751SOL     OW 2251   2.560   2.901   0.297  0.7578  0.2029 -0.2161
  751SOL    HW1 2252   2.658   2.917   0.282  1.0982  4.4648 -1.3587
  751SOL    HW2 2253   2.510   2.873   0.211 -1.5376 -1.0508 -0.6119
  752SOL     OW 2254   0.262   2.692   0.748 -0.2997 -0.1868  0.1086
  752SOL    HW1 2255   0.364   2.703   0.757 -2.4982 -2.1485  0.7046
  752SOL    HW2 2256   0.240   2.762   0.674  2.1067 -0.0873 -0.9647
  753SOL     OW 2257   1.632   0.684   1.965 -0.0530  0.1052 -0.2479
  753SOL    HW1 2258   1.528   0.682   1.964 -0.0073  0.7556 -1.3874
  753SOL    HW2 2259   1.672   0.638   1.886 -1.0483  2.1876 -0.9375
  754SOL     OW 2260   1.729   2.435   1.812  0.3527 -0.2448 -0.1439
  754SOL    HW1 2261   1.789   2.510   1.781 -0.2917 -1.6132  1.3462
  754SOL    HW2 2262   1.632   2.443   1.776  1.0443  1.3124 -1.8331
  755SOL     OW 2263   3.086   0.430   0.555  0.7163 -0.2224  0.1973
  755SOL    HW1 2264   3.071   0.525   0.526 -0.0405  0.7315  0.3410
  755SOL    HW2 2265   3.022   0.371   0.497 -2.0787 -1.4296 -1.9311
  756SOL     OW 2266   1.549   1.678   2.840  0.1829  0.0497  0.0249
  756SOL    HW1 2267   1.495   1.617   2.783  2.2402  2.1082  2.0301
  756SOL    HW2 2268   1.575   1.765   2.793 -0.4484 -0.0129  0.6877
  757SOL     OW 2269   1.524   0.155   1.335 -0.4693  0.1149 -0.3596
  757SOL    HW1 2270   1.576   0.240   1.363 -0.6023 -0.8030  1.2424
  757SOL    HW2 2271   1.427   0.180   1.307 -0.8108  0.3058 -0.1282
  758SOL     OW 2272   0.573   0.123   1.371  0.0885  0.2916 -0.5661
  758SOL    HW1 2273   0.536   0.169   1.457  0.9567 -0.0760  4.0754
  758SOL    HW2 2274   0.674   0.137   1.363  0.4904  0.9511  0.5978
  759SOL     OW 2275   0.445   0.665   1.153  0.0332 -0.3499 -0.5688
  759SOL    HW1 2276   0.501   0.633   1.073  1.4614  0.8156 -0.5346
  759SOL    HW2 2277   0.377   0.740   1.127 -0.0660 -1.0113  0.3817
  760SOL     OW 2278   2.275   1.262   1.029  0.0027 -0.1953  0.7341
  760SOL    HW1 2279   2.372   1.231   1.040  2.3641 -0.4197  2.6897
  760SOL    HW2 2280   2.223   1.250   1.115 -1.1270  1.1708 -1.6402
  761SOL     OW 2281   1.495   0.718   0.300  0.2922 -0.7378 -0.2718
  761SOL    HW1 2282   1.548   0.639   0.336  1.3428 -1.3484 -1.1340
  761SOL    HW2 2283   1.392   0.702   0.300 -1.0013  0.1018  1.1024
  762SOL     OW 2284   2.221   2.194   1.276  0.1586 -0.0780  0.2040
  762SOL    HW1 2285   2.162   2.190   1.196 -0.3887 -1.6425  1.1590
  762SOL    HW2 2286   2.308   2.152   1.251  0.8000  1.6504  0.8567
  763SOL     OW 2287   1.432   1.523   1.841 -0.3429 -0.2076  0.6504
  763SOL    HW1 2288   1.501   1.532   1.765  0.6816  2.4129  3.5081
  763SOL    HW2 2289   1.346   1.473   1.811 -1.7595 -1.9461 -1.1707
  764SOL     OW 2290   2.966   2.080   2.639 -0.2852  0.0034  0.1432
  764SOL    HW1 2291   3.049   2.047   2.690 -2.3288  1.1340  0.1261
  764SOL    HW2 2292   2.908   2.140   2.694 -1.2121  0.8273  1.5559
  765SOL     OW 2293   0.926   2.544   1.004 -0.0035  0.0164 -0.0620
  765SOL    HW1 2294   1.013   2.550   1.056  1.0423  1.9715 -0.0834
  765SOL    HW2 2295   0.890   2.637   0.975  0.9905  1.6821  0.4017
  766SOL     OW 2296   0.881   1.939   2.501 -0.0473  0.3004  0.3789
  766SOL    HW1 2297   0.901   1.929   2.600 -0.1520 -0.9073  3.0052
  766SOL    HW2 2298   0.892   2.032   2.461 -1.6960 -1.0804  1.7806
  767SOL     OW 2299   1.855   0.572   2.426  0.2256 -0.0627  0.0900
  767SOL    HW1 2300   1.911   0.657   2.442  3.5038 -1.0449 -1.1954
  767SOL    HW2 2301   1.821   0.533   2.513 -2.0249  1.3143  0.6493
  768SOL     OW 2302   0.979   2.690   2.686  0.1868  0.0624  0.2216
  768SOL    HW1 2303   1.078   2.683   2.666  0.5602  0.9537 -2.7383
  768SOL    HW2 2304   0.951   2.646   2.777  0.7256  0.4018  0.1487
  769SOL     OW 2305   3.015   2.489   1.016 -0.3947 -0.0290 -0.7689
  769SOL    HW1 2306   2.973   2.566   1.071 -0.2815 -0.8994  0.3094
  769SOL    HW2 2307   0.019   2.488   1.027 -1.6718 -0.1261 -0.7502
  770SOL     OW 2308   0.595   2.773   0.013  0.0906  0.3468 -0.4339
  770SOL    HW1 2309   0.535   2.700   3.089 -2.0238 -0.2886 -1.1793
  770SOL    HW2 2310   0.602   2.841   3.037  0.9658  1.1390 -0.8936
  771SOL     OW 2311   1.187   2.213   2.409  0.0517 -0.0582  0.2062
  771SOL    HW1 2312   1.182   2.260   2.318 -0.4024  1.1480  1.6129
  771SOL    HW2 2313   1.094   2.212   2.449  0.1991 -1.4780 -0.6252
  772SOL     OW 2314   2.165   0.103   2.210  0.1266 -0.4679  0.3903
  772SOL    HW1 2315   2.181   0.183   2.143  0.3372 -0.2204 -0.9604
  772SOL    HW2 2316   2.216   0.024   2.174  1.0753 -0.0250 -0.5420
  773SOL     OW 2317   1.146   0.003   1.780  0.5495 -0.0559  0.1062
  773SOL    HW1 2318   1.195   0.005   1.695 -1.2262 -1.9594  3.0588
  773SOL    HW2 2319   1.104   3.014   1.783  1.3519  0.2000 -1.8101
  774SOL     OW 2320   1.465   0.865   2.206 -0.6072  0.1333  0.4100
  774SOL    HW1 2321   1.425   0.841   2.113 -2.1319 -1.1248 -2.1524
  774SOL    HW2 2322   1.538   0.802   2.237  1.6032 -0.2882 -1.2002
  775SOL     OW 2323   2.339   0.019   0.190  0.1485 -0.7190  0.8982
  775SOL    HW1 2324   2.426   3.078   0.154 -1.5646 -1.0302  0.7999
  775SOL    HW2 2325   2.291   3.054   0.248  2.7796 -0.5605 -1.3834
  776SOL     OW 2326   2.388   1.010   1.872  0.1239  0.0095 -0.1754
  776SOL    HW1 2327   2.442   0.975   1.793  2.1261 -0.9747  1.8472
  776SOL    HW2 2328   2.307   1.063   1.842 -0.2193  1.3718  1.0770
  777SOL     OW 2329   2.897   1.159   2.386 -0.2928  0.6883  0.0486
  777SOL    HW1 2330   2.994   1.162   2.362 -0.8367  1.0249  3.7131
  777SOL    HW2 2331   2.827   1.179   2.312  3.1492 -0.5211  1.0994
  778SOL     OW 2332   2.425   0.434   2.022  0.1881  0.0406 -0.3234
  778SOL    HW1 2333   2.412   0.525   2.056 -0.0388 -2.7750 -2.7781
  778SOL    HW2 2334   2.523   0.406   2.022 -0.3790 -0.8580 -2.8663
  779SOL     OW 2335   0.088   3.025   3.048 -0.4744  0.1223  0.0812
  779SOL    HW1 2336   0.084   0.010   2.996 -1.3861 -0.4890  1.0974
  779SOL    HW2 2337   0.123   2.950   2.987  0.7411 -2.4110 -1.1512
  780SOL     OW 2338   2.009   3.049   2.367  0.4340  0.4204 -0.3399
  780SOL    HW1 2339   1.911   3.056   2.345  1.3660 -2.3590  3.2696
  780SOL    HW2 2340   2.070   0.005   2.304  3.0025 -1.2030 -1.0728
  781SOL     OW 2341   0.068   0.530   1.460  0.2606 -0.3645  0.1108
  781SOL    HW1 2342   0.057   0.627   1.431  0.8267  0.1009  2.6539
  781SOL    HW2 2343   0.160   0.523   1.501 -2.1748 -0.0358 -1.1758
  782SOL     OW 2344   2.174   2.131   0.334 -0.5968  0.3036  0.1410
  782SOL    HW1 2345   2.270   2.168   0.322  2.1112 -1.7848 -1.3273
  782SOL    HW2 2346   2.109   2.210   0.352  0.7817  1.3689  1.4030
  783SOL     OW 2347   0.447   2.021   1.338 -0.4504  0.1921  0.0971
  783SOL    HW1 2348   0.367   2.076   1.311  0.5348  2.0691  1.2857
  783SOL    HW2 2349   0.508   2.026   1.258 -0.7295  1.7907  0.7426
  784SOL     OW 2350   2.370   0.664   2.373  0.5071  0.1219  0.0234
  784SOL    HW1 2351   2.318   0.582   2.411 -1.0491  0.5556  2.0769
  784SOL    HW2 2352   2.303   0.729   2.331 -0.8987  0.7158 -1.4760
  785SOL     OW 2353   0.264   0.310   1.051  0.0362  0.4337 -0.0088
  785SOL    HW1 2354   0.228   0.366   0.974  0.6385 -3.0585 -0.3156
  785SOL    HW2 2355   0.256   0.356   1.142 -0.5779 -2.6809  1.9678
  786SOL     OW 2356   2.038   2.721   0.169 -0.1453 -0.1218 -0.1724
  786SOL    HW1 2357   1.936   2.708   0.195 -4.0451 -2.2388  0.7911
  786SOL    HW2 2358   2.082   2.740   0.259  2.4046 -1.9489 -2.4698
  787SOL     OW 2359   1.416   0.124   0.591  0.1273 -0.1565 -0.2554
  787SOL    HW1 2360   1.326   0.068   0.586 -3.4621 -0.4526  0.7063
  787SOL    HW2 2361   1.501   0.080   0.559  0.4353  1.8168  1.8923
  788SOL     OW 2362   0.120   1.555   1.027 -0.3599  0.2731  0.3024
  788SOL    HW1 2363   0.016   1.561   1.028 -0.1958 -0.0676 -0.5878
  788SOL    HW2 2364   0.146   1.458   1.058 -2.0843  0.1442  2.4950
  789SOL     OW 2365   2.724   0.662   2.030 -0.8528 -0.3689  0.0395
  789SOL    HW1 2366   2.680   0.621   2.110  0.9724  0.8609 -0.3459
  789SOL    HW2 2367   2.798   0.725   2.067  0.7008  0.7175 -0.9181
  790SOL     OW 2368   0.848   0.449   3.000 -0.3927  0.0703  0.3265
  790SOL    HW1 2369   0.835   0.383   2.924 -1.3583  1.0693  0.9822
  790SOL    HW2 2370   0.919   0.414   3.065 -1.0388  1.3085  1.0114
  791SOL     OW 2371   2.486   3.049   2.858 -0.2483 -0.0248 -0.7010
  791SOL    HW1 2372   2.581   3.085   2.839 -1.4188  1.8854 -0.6672
  791SOL    HW2 2373   2.485   2.996   2.944 -2.5801  1.0660  1.0925
  792SOL     OW 2374   1.231   1.027   1.577  0.2816  0.5129 -0.2751
  792SOL    HW1 2375   1.250   1.085   1.492  2.7575 -1.1811 -1.6790
  792SOL    HW2 2376   1.182   0.937   1.558  1.4092 -0.5150  1.1714
  793SOL     OW 2377   2.742   0.099   1.359  0.1895 -0.3644 -0.3737
  793SOL    HW1 2378   2.783   0.117   1.452  0.3553 -0.7827 -1.0020
  793SOL    HW2 2379   2.758   0.177   1.294 -1.1308  0.2662 -0.8438
  794SOL     OW 2380   2.840   0.068   2.125  0.1981 -0.0074  0.1261
  794SOL    HW1 2381   2.781   0.137   2.172  0.5161  2.2010 -1.1087
  794SOL    HW2 2382   2.914   0.113   2.062 -1.5054 -1.8808 -0.3496
  795SOL     OW 2383   0.595   1.965   2.821  0.3118  0.1624  0.6752
  795SOL    HW1 2384   0.586   1.954   2.922  1.4041 -0.9606  4.6133
  795SOL    HW2 2385   0.512   2.003   2.773 -2.1071  1.8434  1.2927
  796SOL     OW 2386   2.059   0.720   2.706 -0.5932  0.4573 -0.3236
  796SOL    HW1 2387   2.015   0.745   2.621  0.2619 -1.0690  5.4083
  796SOL    HW2 2388   2.023   0.639   2.756  1.4498 -0.6985 -0.1089
  797SOL     OW 2389   2.531   2.028   0.116 -0.0491 -0.2736  0.3242
  797SOL    HW1 2390   2.608   2.076   0.066  2.5772  0.1833 -0.6069
  797SOL    HW2 2391   2.442   2.075   0.102 -1.1621 -0.6806  1.0669
  798SOL     OW 2392   3.057   0.423   1.242  0.1208 -0.2101 -0.5225
  798SOL    HW1 2393   3.080   0.459   1.335 -3.0961 -0.2500 -2.2879
  798SOL    HW2 2394   0.014   0.344   1.216 -0.8653  1.5524  1.6415
  799SOL     OW 2395   0.338   0.114   1.736 -0.8178  0.0988 -0.5014
  799SOL    HW1 2396   0.403   0.160   1.674 -2.5114 -2.0356  0.9900
  799SOL    HW2 2397   0.365   0.134   1.831 -0.1745  0.4062 -0.2318
  800SOL     OW 2398   0.219   2.004   0.028  0.3837  0.7891 -0.4942
  800SOL    HW1 2399   0.144   1.957   0.086 -3.1154 -2.2732  1.8743
  800SOL    HW2 2400   0.275   1.928   3.081  0.5126 -2.4503 -3.5532
  801SOL     OW 2401   1.470   1.958   0.955  1.3583  0.3106  0.5477
  801SOL    HW1 2402   1.412   1.907   1.021 -1.3388  1.6602 -0.8344
  801SOL    HW2 2403   1.480   2.055   0.986 -0.7502 -0.9976  0.7207
  802SOL     OW 2404   1.230   0.688   0.327 -0.1861 -0.5208  0.5837
  802SOL    HW1 2405   1.186   0.692   0.234 -0.7748  0.3692 -0.1331
  802SOL    HW2 2406   1.191   0.609   0.377  0.3544  0.5755 -1.2992
  803SOL     OW 2407   0.970   1.417   1.924  0.2388  0.6439 -0.2993
  803SOL    HW1 2408   0.919   1.480   1.855 -0.6507  2.3148  0.3572
  803SOL    HW2 2409   1.049   1.376   1.882 -1.1273  2.3653 -2.0919
  804SOL     OW 2410   1.745   2.118   1.251  0.0898 -0.4576 -0.3754
  804SOL    HW1 2411   1.769   2.114   1.350 -0.8554  2.1915 -2.0567
  804SOL    HW2 2412   1.668   2.052   1.229 -2.2215 -3.3134  0.0005
  805SOL     OW 2413   0.201   2.371   2.447 -0.5526  0.1423 -0.1964
  805SOL    HW1 2414   0.166   2.280   2.413 -3.1337 -1.6932 -0.4414
  805SOL    HW2 2415   0.288   2.358   2.499  1.0887  0.1845  1.1491
  806SOL     OW 2416   1.088   2.928   0.169  0.0105 -0.0684  0.3015
  806SOL    HW1 2417   1.063   3.013   0.113  0.6531  0.1616 -0.9282
  806SOL    HW2 2418   1.020   2.914   0.247 -1.4134  0.8704  2.7355
  807SOL     OW 2419   2.479   1.003   2.701  0.5122 -0.4347  0.4608
  807SOL    HW1 2420   2.524   1.092   2.707  1.4367 -1.7611  0.2416
  807SOL    HW2 2421   2.396   1.001   2.643  1.7416 -2.1264 -1.4025
  808SOL     OW 2422   1.502   2.240   0.941  0.0864  0.8916 -0.0652
  808SOL    HW1 2423   1.493   2.231   0.839  0.3291 -1.4063 -1.2180
  808SOL    HW2 2424   1.541   2.327   0.970  0.1734 -0.3922  0.5682
  809SOL     OW 2425   0.312   0.054   0.533 -0.1341 -0.0388  0.3309
  809SOL    HW1 2426   0.385   0.039   0.464 -0.0021 -0.8423 -0.0504
  809SOL    HW2 2427   0.270   0.145   0.526  0.7569 -1.5545  0.7286
  810SOL     OW 2428   1.094   1.215   0.762  0.2537  0.4997 -0.2825
  810SOL    HW1 2429   1.097   1.298   0.821  0.9021  1.9790 -0.6927
  810SOL    HW2 2430   1.000   1.210   0.713 -0.8425 -1.8511 -3.1678
  811SOL     OW 2431   1.388   2.785   1.008 -0.9061 -0.3978 -0.1914
  811SOL    HW1 2432   1.434   2.713   1.063  0.5041  0.3244 -0.7034
  811SOL    HW2 2433   1.320   2.828   1.066  2.1733 -0.1758 -0.9889
  812SOL     OW 2434   1.116   0.290   0.671  0.2405 -0.1348  0.1963
  812SOL    HW1 2435   1.159   0.288   0.761 -0.5041 -0.7172 -0.7438
  812SOL    HW2 2436   1.035   0.231   0.667 -1.6917  1.6513 -0.4100
  813SOL     OW 2437   1.116   3.007   2.278  0.1063  0.2661  0.4812
  813SOL    HW1 2438   1.039   2.964   2.229  1.8190  0.4075  1.5180
  813SOL    HW2 2439   1.205   2.976   2.238  0.3487  0.4456  1.8359
  814SOL     OW 2440   1.223   2.976   1.157 -0.6874  0.6805 -0.2456
  814SOL    HW1 2441   1.144   2.963   1.219  1.4635  1.3632  0.7588
  814SOL    HW2 2442   1.201   2.997   1.059 -0.0967 -2.2415 -0.3193
  815SOL     OW 2443   0.111   2.677   0.288 -0.0292  0.0823  0.0064
  815SOL    HW1 2444   0.082   2.634   0.202 -0.8677  4.3002  1.4665
  815SOL    HW2 2445   0.044   2.661   0.364 -1.6125  0.7780  2.8235
  816SOL     OW 2446   2.045   1.148   2.633  0.4812 -0.4500  0.5289
  816SOL    HW1 2447   2.120   1.079   2.631 -1.6095 -0.3864  2.2740
  816SOL    HW2 2448   2.002   1.159   2.723 -0.2453  1.7950  1.7370
  817SOL     OW 2449   1.819   2.265   2.498  0.1823 -0.6928 -0.0159
  817SOL    HW1 2450   1.839   2.186   2.557 -4.6135  1.1490  1.3103
  817SOL    HW2 2451   1.901   2.311   2.462 -0.2441 -2.8769  0.5181
  818SOL     OW 2452   0.961   0.932   0.209 -0.4701 -0.1199  0.0550
  818SOL    HW1 2453   0.874   0.973   0.179  0.7998 -2.5325  1.6486
  818SOL    HW2 2454   1.022   1.007   0.243 -1.8876  0.2445 -0.7248
  819SOL     OW 2455   1.593   1.846   0.037  0.2642 -0.5230  0.0759
  819SOL    HW1 2456   1.490   1.862   0.034 -0.0344 -0.8026 -0.9470
  819SOL    HW2 2457   1.626   1.830   3.043 -0.6273 -0.3231  1.8469
  820SOL     OW 2458   0.416   0.853   0.241 -0.6763 -0.3379 -0.1061
  820SOL    HW1 2459   0.376   0.778   0.293 -0.3477 -0.8035  0.7001
  820SOL    HW2 2460   0.361   0.938   0.242  2.9244  0.8455 -0.3217
  821SOL     OW 2461   0.556   2.932   1.339 -0.0515  0.5167 -0.1142
  821SOL    HW1 2462   0.571   3.034   1.341  1.6372 -0.1831 -0.4085
  821SOL    HW2 2463   0.474   2.898   1.287 -1.2732  4.4561  0.0608
  822SOL     OW 2464   2.163   2.127   2.697  0.4554 -0.8027 -0.0288
  822SOL    HW1 2465   2.142   2.213   2.754 -2.5414  1.4998 -1.2252
  822SOL    HW2 2466   2.078   2.101   2.643 -4.9731 -0.7756 -1.5173
  823SOL     OW 2467   0.720   0.651   2.177 -0.1739 -0.3338 -0.0793
  823SOL    HW1 2468   0.803   0.703   2.153 -0.2159 -1.2651 -0.7332
  823SOL    HW2 2469   0.738   0.554   2.195 -1.7458  3.2730 -1.1546
  824SOL     OW 2470   2.343   3.087   1.570  0.2266 -0.2704  0.2358
  824SOL    HW1 2471   2.299   0.081   1.560 -0.0455  2.8159 -2.1302
  824SOL    HW2 2472   2.273   3.020   1.610 -0.3220 -0.4940 -2.7437
  825SOL     OW 2473   0.364   1.344   2.818 -0.3738  0.8494 -0.1480
  825SOL    HW1 2474   0.373   1.433   2.772 -1.5339 -0.3922 -0.1894
  825SOL    HW2 2475   0.403   1.347   2.910 -0.5834 -0.0150 -4.9659
  826SOL     OW 2476   1.769   0.524   2.677  0.0009  0.0110 -0.5378
  826SOL    HW1 2477   1.761   0.628   2.679 -2.1020 -0.8194 -0.2836
  826SOL    HW2 2478   1.853   0.492   2.723 -1.5233 -0.7854 -1.3890
  827SOL     OW 2479   0.843   2.494   2.409  0.0929  0.2121  0.7090
  827SOL    HW1 2480   0.789   2.568   2.457  1.0288  1.7367  3.8545
  827SOL    HW2 2481   0.804   2.477   2.316  2.7586  3.2920  2.8589
  828SOL     OW 2482   2.904   2.910   1.501  0.0669  0.4342  0.0085
  828SOL    HW1 2483   2.869   2.814   1.513 -0.1029 -1.1062  1.2981
  828SOL    HW2 2484   2.897   2.952   1.408 -0.6017 -0.0764  0.8410
  829SOL     OW 2485   1.455   1.808   1.580 -0.3012 -0.0608 -0.3085
  829SOL    HW1 2486   1.513   1.884   1.620 -2.8343 -0.1868 -2.5130
  829SOL    HW2 2487   1.515   1.727   1.559 -1.7882  1.7465 -0.4710
  830SOL     OW 2488   0.860   1.077   1.785  0.6959  0.4697 -0.2532
  830SOL    HW1 2489   0.817   0.999   1.733  0.5021  0.3607  0.0188
  830SOL    HW2 2490   0.813   1.091   1.875  0.9471  1.2019  1.4424
  831SOL     OW 2491   2.839   1.716   0.404 -0.0760  0.2409  0.1196
  831SOL    HW1 2492   2.776   1.723   0.328  3.5052 -0.4387  0.4578
  831SOL    HW2 2493   2.924   1.667   0.375  1.4886 -2.3313  0.9608
  832SOL     OW 2494   1.240   2.822   0.378 -0.0521 -0.3933  0.6143
  832SOL    HW1 2495   1.185   2.846   0.295  1.7430 -2.3709  0.0079
  832SOL    HW2 2496   1.327   2.885   0.378 -1.4779  1.2039  5.4858
  833SOL     OW 2497   2.856   0.160   1.593 -0.5428  0.4809  0.6817
  833SOL    HW1 2498   2.856   0.072   1.636  1.9395 -0.9684 -0.8002
  833SOL    HW2 2499   2.924   0.223   1.641  2.1888 -0.4259  0.9910
  834SOL     OW 2500   0.072   0.736   0.841  0.0992  0.4471 -0.5800
  834SOL    HW1 2501   0.145   0.777   0.902 -1.6790  2.0198 -1.4329
  834SOL    HW2 2502   0.108   0.747   0.748  0.1689 -0.1799  1.7714
  835SOL     OW 2503   2.679   3.037   0.690 -0.0747 -0.5443 -0.7609
  835SOL    HW1 2504   2.750   0.005   0.711  0.0921 -2.1031  0.9004
  835SOL    HW2 2505   2.707   2.951   0.737 -0.7328 -3.6133 -0.0561
  836SOL     OW 2506   1.143   1.823   2.799 -0.0262 -0.6289 -0.1755
  836SOL    HW1 2507   1.081   1.905   2.809 -1.0035  3.1652  0.6380
  836SOL    HW2 2508   1.086   1.745   2.764 -2.3013 -0.9584 -0.3439
  837SOL     OW 2509   1.543   1.652   0.254  0.1313 -0.3660 -0.3254
  837SOL    HW1 2510   1.593   1.688   0.173  0.6529  1.2753 -2.2529
  837SOL    HW2 2511   1.519   1.725   0.319 -0.2319 -2.2194  1.5080
  838SOL     OW 2512   2.828   0.769   2.403 -0.1066 -0.3229  0.8202
  838SOL    HW1 2513   2.922   0.784   2.437  2.8757 -1.1589 -2.1440
  838SOL    HW2 2514   2.751   0.799   2.465 -0.1201  2.2997  0.9133
  839SOL     OW 2515   0.573   1.030   2.524  0.3662 -0.0361 -0.0463
  839SOL    HW1 2516   0.482   1.081   2.535 -2.8446  1.6581 -0.5643
  839SOL    HW2 2517   0.595   0.975   2.607  4.2048 -0.4073  1.2958
  840SOL     OW 2518   1.057   0.974   3.002  0.5452 -0.2876  0.8988
  840SOL    HW1 2519   0.968   1.007   2.960 -1.3586 -1.2275 -0.4170
  840SOL    HW2 2520   1.043   0.913   3.083  1.3914  0.1512 -0.9352
  841SOL     OW 2521   0.769   2.658   0.649  0.2491 -0.0862 -0.5140
  841SOL    HW1 2522   0.769   2.555   0.666 -1.9452 -2.6926  2.4644
  841SOL    HW2 2523   0.729   2.675   0.553  1.6925  0.6779 -1.9843
  842SOL     OW 2524   0.682   0.724   0.651 -0.2874 -0.6705 -0.7277
  842SOL    HW1 2525   0.583   0.743   0.638  0.3756 -1.6601  0.1598
  842SOL    HW2 2526   0.743   0.778   0.589  0.7545  0.5156  1.4663
  843SOL     OW 2527   0.355   1.054   1.392  0.4175  0.1710 -0.1513
  843SOL    HW1 2528   0.436   1.052   1.327  3.0632 -0.5071 -0.1700
  843SOL    HW2 2529   0.266   1.055   1.342 -3.3509  3.6951 -1.5942
  844SOL     OW 2530   2.180   2.348   2.874 -0.0068  0.4395 -0.1512
  844SOL    HW1 2531   2.182   2.447   2.850 -0.5826 -0.5844 -1.0400
  844SOL    HW2 2532   2.273   2.302   2.863  0.9729 -0.4644  1.6801
  845SOL     OW 2533   2.120   2.956   1.653 -0.2929  0.1343 -0.0473
  845SOL    HW1 2534   2.094   2.930   1.558 -0.4229 -0.9145  1.7873
  845SOL    HW2 2535   2.090   2.889   1.727  0.0179 -0.0180  0.3562
  846SOL     OW 2536   1.902   1.059   2.417 -0.0579  0.6487 -0.0574
  846SOL    HW1 2537   1.956   1.098   2.335 -1.3140  0.5111 -1.0946
  846SOL    HW2 2538   1.956   1.069   2.502  0.9388 -1.5989 -1.8571
  847SOL     OW 2539   2.222   2.936   2.152 -0.4936  0.0735  0.3044
  847SOL    HW1 2540   2.177   2.878   2.221  1.5552  0.6111 -1.4064
  847SOL    HW2 2541   2.274   2.874   2.090 -2.8364 -0.9243 -0.4766
  848SOL     OW 2542   3.025   2.896   0.123 -0.2893 -0.4412 -0.6035
  848SOL    HW1 2543   0.000   2.846   0.169 -0.7567  0.1134 -1.5222
  848SOL    HW2 2544   3.063   2.950   0.043  1.8241  1.4938 -1.9578
  849SOL     OW 2545   0.376   2.811   1.141  0.0206  0.0449  0.2765
  849SOL    HW1 2546   0.286   2.802   1.180  3.7284 -2.0382 -2.1130
  849SOL    HW2 2547   0.363   2.852   1.045  0.2069  1.2668 -2.4616
  850SOL     OW 2548   0.332   1.904   0.390  0.4939  0.0535  0.7930
  850SOL    HW1 2549   0.257   1.931   0.324 -4.2193  0.1536 -1.8172
  850SOL    HW2 2550   0.401   1.981   0.389 -1.8233 -1.9217 -2.9489
  851SOL     OW 2551   2.108   0.705   0.023  0.0867 -0.4244 -0.0455
  851SOL    HW1 2552   2.035   0.673   3.058 -0.0671  0.3337 -1.6849
  851SOL    HW2 2553   2.190   0.643   0.020  1.2500 -1.8566  2.1840
  852SOL     OW 2554   1.873   2.069   2.683  0.3820 -0.1171 -0.3687
  852SOL    HW1 2555   1.824   1.992   2.638  0.3571  1.0414 -0.3616
  852SOL    HW2 2556   1.871   2.062   2.786  0.7192 -0.6543 -2.6578
  853SOL     OW 2557   0.533   2.119   0.344 -0.2765 -0.3694  0.1180
  853SOL    HW1 2558   0.508   2.167   0.255 -1.7433  1.4091 -4.3853
  853SOL    HW2 2559   0.608   2.050   0.327  0.0491  1.5073 -1.1479
  854SOL     OW 2560   1.674   1.016   2.072 -0.2796 -0.7553 -0.0556
  854SOL    HW1 2561   1.586   0.968   2.073 -0.2142  2.4959  1.5285
  854SOL    HW2 2562   1.757   0.960   2.063 -0.5034 -2.3090  1.2866
  855SOL     OW 2563   0.478   2.526   2.982  0.3151 -0.0078  0.5568
  855SOL    HW1 2564   0.572   2.496   2.959 -0.2052  0.3602  0.9671
  855SOL    HW2 2565   0.424   2.440   2.971 -0.0995  1.0932 -2.8222
  856SOL     OW 2566   0.405   2.915   2.081  0.4391 -0.0842  0.5113
  856SOL    HW1 2567   0.430   2.925   1.982 -1.7640 -2.5310 -0.6908
  856SOL    HW2 2568   0.423   3.009   2.118 -0.6034  0.5021  2.1782
  857SOL     OW 2569   0.658   0.448   1.826  0.1982  0.0566 -0.0062
  857SOL    HW1 2570   0.705   0.392   1.895 -0.6057  0.1666  0.0396
  857SOL    HW2 2571   0.608   0.521   1.879  0.1097 -0.4101 -0.0589
  858SOL     OW 2572   0.242   1.831   2.063 -0.2598  0.5710 -0.2097
  858SOL    HW1 2573   0.278   1.805   2.159  1.6988 -2.5388 -0.8317
  858SOL    HW2 2574   0.298   1.896   2.010 -0.3093  1.2760 -1.4510
  859SOL     OW 2575   2.053   2.308   1.472  0.2185 -0.3744 -0.2748
  859SOL    HW1 2576   2.111   2.274   1.398 -1.1456  1.1764  2.3203
  859SOL    HW2 2577   2.077   2.410   1.481  1.1653  0.2619 -0.5505
  860SOL     OW 2578   1.772   0.670   0.571  0.2065  0.2095  0.0435
  860SOL    HW1 2579   1.799   0.704   0.663  2.1577 -1.7099  0.2479
  860SOL    HW2 2580   1.672   0.653   0.565 -0.5564  0.8126 -1.9214
  861SOL     OW 2581   0.127   0.461   0.854 -0.0459 -0.0764 -0.2972
  861SOL    HW1 2582   0.098   0.557   0.855 -1.5730 -0.2469  0.0808
  861SOL    HW2 2583   0.047   0.397   0.837 -1.2093  2.9026  0.4017
  862SOL     OW 2584   2.300   1.060   1.435 -0.1572 -0.1920 -0.3832
  862SOL    HW1 2585   2.239   0.982   1.433 -1.8353  0.3593 -1.1869
  862SOL    HW2 2586   2.258   1.153   1.445  0.0922  0.4154 -1.6637
  863SOL     OW 2587   0.373   1.355   1.257  0.0076 -0.3685 -0.6969
  863SOL    HW1 2588   0.355   1.309   1.347 -3.2937 -0.6107  2.2114
  863SOL    HW2 2589   0.473   1.365   1.242  1.4525 -0.5230  0.2607
  864SOL     OW 2590   2.550   2.946   2.003  0.1952 -0.5010 -0.1812
  864SOL    HW1 2591   2.652   2.945   2.019  1.9623  0.6224  0.1151
  864SOL    HW2 2592   2.522   3.048   2.012  1.6576  2.6801 -0.5398
  865SOL     OW 2593   1.196   0.694   2.206  0.1268 -0.2015 -0.4206
  865SOL    HW1 2594   1.259   0.742   2.141  1.2596  2.3051 -0.8659
  865SOL    HW2 2595   1.212   0.594   2.206  0.3009 -1.1200  4.5507
  866SOL     OW 2596   2.485   2.923   0.541 -0.2779  0.1557 -0.0712
  866SOL    HW1 2597   2.552   2.962   0.605 -2.4321  0.1243 -2.3620
  866SOL    HW2 2598   2.518   2.932   0.442  0.1129 -2.2774 -1.5209
  867SOL     OW 2599   2.771   2.821   0.832 -0.3954 -0.7119 -0.2136
  867SOL    HW1 2600   2.742   2.733   0.784  1.7244 -1.7921 -2.7319
  867SOL    HW2 2601   2.870   2.826   0.845 -0.7163  1.6433  0.0865
  868SOL     OW 2602   1.799   1.599   2.777  0.1132  0.3427 -0.4742
  868SOL    HW1 2603   1.857   1.680   2.788  2.2568 -0.5459 -0.2047
  868SOL    HW2 2604   1.708   1.625   2.813 -1.4049 -1.7649 -0.1559
  869SOL     OW 2605   2.834   2.468   0.567  0.0088  0.1999 -0.1038
  869SOL    HW1 2606   2.771   2.411   0.511 -0.0277 -0.2976  0.8326
  869SOL    HW2 2607   2.787   2.515   0.645 -1.7727  0.4739 -1.1109
  870SOL     OW 2608   2.964   1.976   0.395  0.4891 -0.0888 -0.1789
  870SOL    HW1 2609   2.980   2.007   0.491 -0.8849 -2.6681  0.9268
  870SOL    HW2 2610   2.908   1.889   0.395 -0.0082 -0.9266  0.0784
  871SOL     OW 2611   0.191   1.280   1.060  0.1991  0.1361 -0.4383
  871SOL    HW1 2612   0.284   1.288   1.096  1.3224  0.3934 -0.1455
  871SOL    HW2 2613   0.198   1.269   0.960 -0.5701  1.5817  4.1518
  872SOL     OW 2614   0.961   1.706   2.393 -0.6223  0.1538  0.4303
  872SOL    HW1 2615   0.882   1.642   2.379 -1.7524  2.1668  0.0930
  872SOL    HW2 2616   0.931   1.797   2.431 -0.5383  2.4227 -4.1351
  873SOL     OW 2617   0.457   2.950   1.808  0.4186 -0.3248  0.4487
  873SOL    HW1 2618   0.399   3.018   1.760  0.5598 -0.9885 -1.2982
  873SOL    HW2 2619   0.556   2.986   1.811  1.8598  3.4285 -0.1460
  874SOL     OW 2620   0.920   0.477   1.713  0.2460  0.8988  0.6947
  874SOL    HW1 2621   0.823   0.464   1.734  3.7125 -2.4107  0.4170
  874SOL    HW2 2622   0.971   0.391   1.707  0.5007  0.7453  2.6167
  875SOL     OW 2623   2.809   0.153   1.011 -0.4021 -0.1404 -0.2220
  875SOL    HW1 2624   2.804   0.237   1.072 -0.9598  0.1219  0.7505
  875SOL    HW2 2625   2.754   0.079   1.054 -0.7848  1.1559  2.8196
  876SOL     OW 2626   0.498   1.217   0.370 -0.3827 -0.1704  0.2937
  876SOL    HW1 2627   0.430   1.177   0.307  1.3207 -1.7212 -0.9913
  876SOL    HW2 2628   0.564   1.269   0.314 -1.1095  0.1915 -0.4837
  877SOL     OW 2629   1.126   1.144   1.794 -0.7719  0.0633  0.5430
  877SOL    HW1 2630   1.180   1.103   1.719  0.0845 -0.2198  1.0315
  877SOL    HW2 2631   1.038   1.100   1.807  2.2830 -0.0054 -1.5126
  878SOL     OW 2632   2.621   2.308   0.438 -0.6723  0.4968  0.4155
  878SOL    HW1 2633   2.547   2.243   0.406  0.0031 -0.3443  1.1421
  878SOL    HW2 2634   2.600   2.407   0.420  1.3813 -0.6389 -0.4790
  879SOL     OW 2635   2.658   1.646   1.585  0.0699 -0.0665 -0.3414
  879SOL    HW1 2636   2.733   1.593   1.549 -2.9027  2.6930  1.9736
  879SOL    HW2 2637   2.691   1.740   1.609 -0.5497 -3.6468  1.1134
  880SOL     OW 2638   1.201   2.504   0.691  0.0367  0.0293  0.0439
  880SOL    HW1 2639   1.134   2.458   0.755 -0.6706 -0.8083  2.0680
  880SOL    HW2 2640   1.235   2.591   0.734  1.6289 -2.9646  0.7179
  881SOL     OW 2641   0.521   2.370   0.435  0.3518  0.1498  0.3907
  881SOL    HW1 2642   0.534   2.275   0.402  0.3934  1.1763 -0.3396
  881SOL    HW2 2643   0.435   2.411   0.398  1.6419 -0.3847  1.7120
  882SOL     OW 2644   1.852   0.803   0.801 -0.5479  0.3126 -0.0068
  882SOL    HW1 2645   1.817   0.881   0.747 -0.9277 -1.4121  0.4248
  882SOL    HW2 2646   1.953   0.792   0.784  0.0833  1.8826 -1.4269
  883SOL     OW 2647   1.336   0.791   0.983  0.1056  0.3700 -0.0167
  883SOL    HW1 2648   1.257   0.775   1.040  0.9009  0.6674  1.6177
  883SOL    HW2 2649   1.377   0.876   1.021  0.1301  1.1556  1.0981
  884SOL     OW 2650   2.823   2.938   0.293  0.0891  0.3931 -0.2360
  884SOL    HW1 2651   2.903   2.938   0.230  0.6052  2.1178  4.0835
  884SOL    HW2 2652   2.851   3.004   0.366 -1.1720  0.6662  0.8027
  885SOL     OW 2653   1.092   1.366   2.580  0.4462  0.4114 -0.0030
  885SOL    HW1 2654   1.169   1.337   2.644  2.2561 -0.1141  3.8391
  885SOL    HW2 2655   1.118   1.367   2.480 -0.3496  0.5762  0.8362
  886SOL     OW 2656   1.265   1.762   2.568  0.5704 -0.1851 -0.4676
  886SOL    HW1 2657   1.231   1.788   2.663 -2.2626 -0.4159  0.3343
  886SOL    HW2 2658   1.226   1.820   2.496  1.1963  0.8955  3.9853
  887SOL     OW 2659   1.309   0.486   1.263 -0.4803  0.1384 -0.3909
  887SOL    HW1 2660   1.332   0.479   1.163 -1.0247 -1.1853  0.1864
  887SOL    HW2 2661   1.337   0.571   1.306  3.6674 -4.6037 -0.7615
  888SOL     OW 2662   2.239   0.595   1.827  0.0127 -0.3163  0.0365
  888SOL    HW1 2663   2.319   0.626   1.886 -0.5612 -0.8239  0.1935
  888SOL    HW2 2664   2.148   0.592   1.877 -2.3597 -1.9029  2.5373
  889SOL     OW 2665   0.195   2.448   0.680 -0.1523 -0.2642  0.2972
  889SOL    HW1 2666   0.214   2.544   0.712 -0.2314 -0.1305 -1.8993
  889SOL    HW2 2667   0.109   2.416   0.717  1.0054 -1.5655  0.9169
  890SOL     OW 2668   1.601   2.195   0.512 -0.3620 -0.1618 -0.0310
  890SOL    HW1 2669   1.658   2.115   0.535  1.4779 -1.3295  2.4170
  890SOL    HW2 2670   1.517   2.206   0.566  4.3084 -2.2088 -0.5127
  891SOL     OW 2671   2.763   0.941   3.043  0.2952  0.1401 -0.3818
  891SOL    HW1 2672   2.853   0.952   3.093  1.7129  0.4738  2.3789
  891SOL    HW2 2673   2.687   0.975   3.099 -2.3129 -1.2631  0.9250
  892SOL     OW 2674   2.619   2.329   1.156 -0.2113 -0.2695  0.2325
  892SOL    HW1 2675   2.601   2.353   1.057  1.7530 -0.2691 -2.1701
  892SOL    HW2 2676   2.584   2.400   1.224 -0.0672  0.8957  0.9635
  893SOL     OW 2677   1.353   0.490   0.973 -0.1978  0.2896  0.0442
  893SOL    HW1 2678   1.436   0.452   0.932 -3.0784  1.4336  1.3798
  893SOL    HW2 2679   1.337   0.583   0.932  2.9523 -0.1175  1.1375
  894SOL     OW 2680   2.787   0.569   0.909  0.4270  0.8456 -0.5603
  894SOL    HW1 2681   2.725   0.647   0.890  1.5858  1.1505  0.1285
  894SOL    HW2 2682   2.849   0.594   0.984 -1.1051  1.4950  0.8899
  895SOL     OW 2683   1.677   1.519   2.280 -0.3613  0.1555  0.3568
  895SOL    HW1 2684   1.589   1.566   2.283  0.9972  0.8560  0.9696
  895SOL    HW2 2685   1.665   1.420   2.258 -0.0740 -0.7533 -0.5730
  896SOL     OW 2686   1.930   0.495   1.315 -0.2218  0.4210 -0.3111
  896SOL    HW1 2687   2.029   0.509   1.347 -0.6541 -1.0591  0.5102
  896SOL    HW2 2688   1.926   0.421   1.247  1.1361  2.5692  0.4022
  897SOL     OW 2689   0.193   1.335   1.495 -0.0940 -0.4049 -0.3172
  897SOL    HW1 2690   0.231   1.395   1.569  0.9614  2.3500  2.6538
  897SOL    HW2 2691   0.135   1.384   1.427 -1.5776  2.0846 -0.8482
  898SOL     OW 2692   2.048   2.597   2.107 -0.3140 -0.1766  0.2138
  898SOL    HW1 2693   2.038   2.551   2.021  0.9243  0.8982  1.3440
  898SOL    HW2 2694   2.086   2.536   2.180  0.3478 -0.4124  0.3758
  899SOL     OW 2695   1.151   1.640   1.200 -0.2082  0.2088 -0.4198
  899SOL    HW1 2696   1.194   1.726   1.174 -1.4356  0.5577 -1.3262
  899SOL    HW2 2697   1.074   1.646   1.265  0.6904  0.1259 -2.0886
  900SOL     OW 2698   1.229   1.942   2.388 -0.1367 -0.2186 -0.0305
  900SOL    HW1 2699   1.196   1.934   2.290 -0.9899  2.2290 -0.1899
  900SOL    HW2 2700   1.221   2.041   2.415 -0.5461  0.8976  4.3607
  901SOL     OW 2701   0.757   1.543   2.375 -0.0802 -0.5378 -0.3955
  901SOL    HW1 2702   0.768   1.475   2.299 -0.2243  3.1063  0.3755
  901SOL    HW2 2703   0.726   1.498   2.461  1.0308  0.5241 -0.0739
  902SOL     OW 2704   2.297   1.505   0.522 -0.0184 -0.5837  0.3133
  902SOL    HW1 2705   2.383   1.486   0.465 -0.0354 -0.3400 -0.1004
  902SOL    HW2 2706   2.292   1.448   0.606 -0.1415 -0.2380 -0.5590
  903SOL     OW 2707   2.139   1.694   0.377 -0.4095  0.3842  0.1175
  903SOL    HW1 2708   2.207   1.635   0.427 -1.6051  0.1261  0.4216
  903SOL    HW2 2709   2.066   1.713   0.443  1.7733  2.4330  0.3707
  904SOL     OW 2710   1.154   1.056   2.227  0.0138  0.0790 -0.5253
  904SOL    HW1 2711   1.240   1.107   2.202 -1.0022  1.1077 -2.3980
  904SOL    HW2 2712   1.164   1.018   2.324  0.3556  1.8378 -0.0492
  905SOL     OW 2713   3.010   0.118   0.714 -0.3280  0.5367 -0.0482
  905SOL    HW1 2714   3.006   0.217   0.743 -0.6039  1.0919  0.4151
  905SOL    HW2 2715   3.036   0.070   0.798  0.7825 -1.3743  3.2615
  906SOL     OW 2716   0.029   1.898   0.218  0.2404  0.3498  0.6581
  906SOL    HW1 2717   0.020   1.799   0.202  2.8580 -1.2574 -0.1945
  906SOL    HW2 2718   3.069   1.928   0.297 -3.4519 -2.0761  0.3304
  907SOL     OW 2719   1.451   0.379   0.148  0.4986 -0.0357 -0.1965
  907SOL    HW1 2720   1.391   0.296   0.158  0.0149 -1.3459  3.0293
  907SOL    HW2 2721   1.499   0.395   0.241 -1.3040  1.8347  3.1239
  908SOL     OW 2722   1.694   2.775   1.643  0.6008 -0.6553 -0.5319
  908SOL    HW1 2723   1.769   2.718   1.608 -0.5825  2.6329  2.5629
  908SOL    HW2 2724   1.703   2.793   1.745 -1.3657  0.1042  0.3644
  909SOL     OW 2725   2.589   0.639   1.609  0.0635  0.2799 -0.0329
  909SOL    HW1 2726   2.553   0.565   1.662  1.4663  0.4913 -0.7493
  909SOL    HW2 2727   2.651   0.698   1.666  1.4593 -1.7319 -0.1883
  910SOL     OW 2728   1.148   0.107   2.452  0.2478 -0.6599  0.5832
  910SOL    HW1 2729   1.242   0.091   2.481 -1.6960  0.0099 -0.2035
  910SOL    HW2 2730   1.127   0.032   2.387 -1.5139  2.8309  0.8139
  911SOL     OW 2731   2.331   1.125   2.301 -0.1776  0.2211 -0.4728
  911SOL    HW1 2732   2.399   1.142   2.223 -0.6412  1.4992  0.2467
  911SOL    HW2 2733   2.315   1.215   2.344  1.0800 -0.6363  1.7544
  912SOL     OW 2734   2.417   2.021   1.626  0.1952  0.2914 -0.5340
  912SOL    HW1 2735   2.455   2.114   1.613 -0.5447 -1.5831  2.5374
  912SOL    HW2 2736   2.338   1.997   1.569  0.7173 -1.1256 -0.2771
  913SOL     OW 2737   2.452   2.511   1.357  0.1975 -0.1929 -0.4743
  913SOL    HW1 2738   2.391   2.488   1.437 -2.4485  1.9451  0.2568
  913SOL    HW2 2739   2.495   2.601   1.366  0.8940 -0.0983 -2.5178
  914SOL     OW 2740   2.302   1.728   1.478 -0.1807  0.2001  0.0250
  914SOL    HW1 2741   2.364   1.696   1.553  2.8523 -0.4681  4.2534
  914SOL    HW2 2742   2.276   1.827   1.489 -0.8120  0.5751 -0.0318
  915SOL     OW 2743   1.231   2.462   1.419 -0.0910  0.8192  0.1323
  915SOL    HW1 2744   1.174   2.400   1.470  0.7162  1.8918  0.2402
  915SOL    HW2 2745   1.328   2.463   1.446  0.2555 -0.9088 -1.2052
  916SOL     OW 2746   2.869   2.666   1.184 -0.2570  0.0881 -0.1722
  916SOL    HW1 2747   2.925   2.740   1.217 -1.9813 -2.8381  2.2475
  916SOL    HW2 2748   2.793   2.698   1.125 -0.4980 -1.6235  1.5920
  917SOL     OW 2749   2.552   1.261   2.683  0.0646  0.1040  0.2192
  917SOL    HW1 2750   2.624   1.307   2.736 -1.1852 -2.2999 -0.7619
  917SOL    HW2 2751   2.494   1.320   2.630  1.5235 -0.3769 -1.8001
  918SOL     OW 2752   1.788   1.869   2.514  0.3958  0.0178 -1.0359
  918SOL    HW1 2753   1.688   1.849   2.513 -1.9110 -2.1226 -0.0377
  918SOL    HW2 2754   1.851   1.790   2.483  0.1271 -4.5288  1.3023
  919SOL     OW 2755   1.531   2.146   1.534 -0.4404  0.0790 -0.8079
  919SOL    HW1 2756   1.493   2.137   1.629 -2.2319  1.0185 -0.7940
  919SOL    HW2 2757   1.634   2.156   1.538 -1.0676 -1.5269  2.1243
  920SOL     OW 2758   0.605   3.005   2.944  0.1415 -0.4336  0.6816
  920SOL    HW1 2759   0.617   3.015   2.839 -2.7274 -0.7910 -2.7377
  920SOL    HW2 2760   0.518   3.053   2.962  1.5335 -0.1569 -1.3927
  921SOL     OW 2761   2.747   0.193   2.482  0.0141 -0.3775 -0.1642
  921SOL    HW1 2762   2.736   0.091   2.487 -1.1271 -1.2200 -0.9241
  921SOL    HW2 2763   2.729   0.226   2.390 -1.3356  2.7635 -2.5210
  922SOL     OW 2764   2.414   1.568   1.683 -0.1268  0.1930 -0.0964
  922SOL    HW1 2765   2.503   1.618   1.684  3.2071  0.5783  2.4728
  922SOL    HW2 2766   2.349   1.598   1.755  3.1777 -1.0192 -0.2192
  923SOL     OW 2767   0.992   1.992   0.194 -0.4076 -0.1923  0.0102
  923SOL    HW1 2768   1.006   2.039   0.286  0.4163 -0.4084  0.0723
  923SOL    HW2 2769   1.073   2.000   0.133 -0.1588 -1.3176 -0.8005
  924SOL     OW 2770   1.507   0.539   2.768  0.7073 -0.8208  0.5067
  924SOL    HW1 2771   1.483   0.533   2.866  0.2764  0.1809  0.6966
  924SOL    HW2 2772   1.605   0.522   2.753  2.7864  0.4350  1.1428
  925SOL     OW 2773   2.534   0.812   0.291 -0.2936 -0.3933 -0.2002
  925SOL    HW1 2774   2.567   0.893   0.347  1.2435  0.1607  1.7046
  925SOL    HW2 2775   2.433   0.811   0.277  1.4166  0.1912 -1.6894
  926SOL     OW 2776   0.254   0.788   0.641  0.2060  0.2561 -0.4022
  926SOL    HW1 2777   0.316   0.706   0.627  0.1959 -5.7282 -1.9037
  926SOL    HW2 2778   0.210   0.817   0.553 -1.6218  3.8862 -1.1229
  927SOL     OW 2779   0.869   1.220   0.608 -0.1418  0.0853  0.7532
  927SOL    HW1 2780   0.832   1.161   0.533  0.7408 -0.3772 -1.9877
  927SOL    HW2 2781   0.907   1.308   0.565  2.0676  3.4269 -1.7095
  928SOL     OW 2782   0.051   0.084   2.496  0.7788 -0.1138 -0.2587
  928SOL    HW1 2783   0.150   0.058   2.500  1.0351 -0.0034 -0.7120
  928SOL    HW2 2784   0.043   0.185   2.472  0.0676  1.9843  0.4656
  929SOL     OW 2785   2.424   0.254   1.274  0.1448 -0.1581 -0.0580
  929SOL    HW1 2786   2.479   0.198   1.208 -1.4506 -0.3150  1.0553
  929SOL    HW2 2787   2.463   0.347   1.306  1.8906  1.2476 -0.2004
  930SOL     OW 2788   1.809   2.158   1.533  0.2409 -0.3074 -0.3485
  930SOL    HW1 2789   1.862   2.238   1.572  0.7767  1.4089  1.2863
  930SOL    HW2 2790   1.869   2.076   1.547 -0.3839  0.5047 -0.6456
  931SOL     OW 2791   1.721   1.027   0.987  0.3615  0.5380  0.5819
  931SOL    HW1 2792   1.761   0.946   0.934  1.4328 -2.1794  2.3140
  931SOL    HW2 2793   1.761   1.116   0.960 -0.4795 -0.0642  0.3588
  932SOL     OW 2794   2.813   0.919   1.110  0.6015 -0.4622 -0.1199
  932SOL    HW1 2795   2.784   0.917   1.209 -0.9130  3.2023 -0.1579
  932SOL    HW2 2796   2.878   0.848   1.092 -4.1281  1.1826  0.1659
  933SOL     OW 2797   2.515   1.724   2.084 -0.2008 -0.2150 -0.5286
  933SOL    HW1 2798   2.597   1.671   2.058  0.4808 -0.4540 -0.5300
  933SOL    HW2 2799   2.497   1.789   2.008  1.3707  0.4897 -0.6232
  934SOL     OW 2800   1.727   3.079   1.242 -0.5654  0.4587  0.4399
  934SOL    HW1 2801   1.651   0.033   1.270  1.6812 -2.0794 -0.0212
  934SOL    HW2 2802   1.710   3.022   1.156  1.3996 -1.2289 -0.6402
  935SOL     OW 2803   2.716   1.050   0.895  0.1629  0.4395  0.5307
  935SOL    HW1 2804   2.750   0.994   0.976 -0.6615 -2.2130 -0.8016
  935SOL    HW2 2805   2.727   0.993   0.814 -2.4706 -0.9899 -0.3024
  936SOL     OW 2806   2.893   1.266   0.995 -0.1130 -0.2266 -0.2786
  936SOL    HW1 2807   2.843   1.184   0.968 -0.8589  1.4570  1.4260
  936SOL    HW2 2808   2.830   1.345   0.984  1.3842 -1.6088  0.0708
  937SOL     OW 2809   1.531   2.853   0.610 -0.4247 -0.3467  0.9241
  937SOL    HW1 2810   1.547   2.946   0.565  1.6458 -0.0510  0.5256
  937SOL    HW2 2811   1.578   2.779   0.553  1.7009 -3.3995  0.1435
  938SOL     OW 2812   3.043   2.422   0.743 -0.4544 -0.0773  0.3876
  938SOL    HW1 2813   2.961   2.440   0.681  0.3578 -1.2706 -1.0174
  938SOL    HW2 2814   3.026   2.445   0.840  3.2172  2.3901 -1.3211
  939SOL     OW 2815   0.895   1.958   2.792  0.2084 -0.1846 -0.1598
  939SOL    HW1 2816   0.870   1.957   2.887  0.0781 -0.3078 -0.7004
  939SOL    HW2 2817   0.886   2.057   2.767 -0.2964 -0.3119 -1.4568
  940SOL     OW 2818   2.736   2.676   2.568 -0.1691 -0.3557  0.0901
  940SOL    HW1 2819   2.778   2.622   2.494  1.7307  0.0249  0.6614
  940SOL    HW2 2820   2.640   2.684   2.548  2.2845 -0.4088  3.9961
  941SOL     OW 2821   1.204   2.780   3.058 -0.4517 -0.2555 -0.0252
  941SOL    HW1 2822   1.144   2.805   0.036 -0.8810  2.3417  2.2684
  941SOL    HW2 2823   1.285   2.731   3.096  0.6847 -1.0166  3.7815
  942SOL     OW 2824   1.777   1.772   1.626  0.0270  0.5974  0.1919
  942SOL    HW1 2825   1.749   1.674   1.609 -1.2017 -3.4033  1.9662
  942SOL    HW2 2826   1.735   1.813   1.712 -0.9376  0.0665  3.5098
  943SOL     OW 2827   2.291   1.261   1.747 -0.2047 -0.6990 -0.1665
  943SOL    HW1 2828   2.366   1.274   1.679 -1.1543 -1.1115  3.1934
  943SOL    HW2 2829   2.323   1.315   1.827  0.6941 -3.0549 -3.9016
  944SOL     OW 2830   2.099   0.925   2.015  0.1865 -0.1971 -0.5328
  944SOL    HW1 2831   2.136   0.947   1.921  2.1594  1.8863 -0.4293
  944SOL    HW2 2832   1.998   0.897   2.000 -2.2521  0.0321 -1.7291
  945SOL     OW 2833   2.850   2.977   1.217 -0.1990 -0.4253 -0.3519
  945SOL    HW1 2834   2.767   2.932   1.181 -1.4680 -3.4030  1.4181
  945SOL    HW2 2835   2.824   3.073   1.248 -0.7268 -4.1888  1.9874
  946SOL     OW 2836   0.606   1.092   1.931 -0.5107 -0.0774  0.2915
  946SOL    HW1 2837   0.553   1.171   1.890 -3.1085 -0.7489 -0.0038
  946SOL    HW2 2838   0.591   1.079   2.035  0.2540 -3.2749  3.1231
  947SOL     OW 2839   0.520   2.711   0.797 -0.1315 -0.2034  0.0278
  947SOL    HW1 2840   0.610   2.708   0.746 -2.3813 -1.5221 -0.7456
  947SOL    HW2 2841   0.512   2.623   0.855 -0.6657 -0.5283 -0.0921
  948SOL     OW 2842   0.052   0.922   1.667  0.6557  0.3032 -0.2474
  948SOL    HW1 2843   3.094   0.880   1.741 -0.1393 -0.4775 -1.0862
  948SOL    HW2 2844   0.062   1.020   1.674 -0.9949 -0.3879 -2.6902
  949SOL     OW 2845   0.306   0.629   2.217 -0.3613  0.2373 -0.3134
  949SOL    HW1 2846   0.379   0.605   2.281 -0.3236 -0.7665 -0.7858
  949SOL    HW2 2847   0.331   0.604   2.123  1.6814  2.1280 -2.2217
  950SOL     OW 2848   0.571   0.616   0.926  0.4166  0.3666  0.5160
  950SOL    HW1 2849   0.594   0.703   0.879 -1.6389  2.4977 -1.0807
  950SOL    HW2 2850   0.500   0.567   0.872 -0.1148 -0.0209  0.0048
  951SOL     OW 2851   1.030   1.807   1.861 -1.1302 -0.3658  0.1955
  951SOL    HW1 2852   1.012   1.833   1.956 -0.9248  0.9496  0.5030
  951SOL    HW2 2853   0.971   1.734   1.834  1.7675  1.8470 -1.9376
  952SOL     OW 2854   0.961   1.346   2.829 -0.3017 -0.3409  0.4116
  952SOL    HW1 2855   1.022   1.375   2.909  0.7660 -0.6140  2.3966
  952SOL    HW2 2856   1.019   1.314   2.752  0.6845 -3.2578  1.8468
  953SOL     OW 2857   1.323   2.928   2.132  1.0159  0.3871 -0.4226
  953SOL    HW1 2858   1.285   2.859   2.071 -1.0329  3.3947 -0.5897
  953SOL    HW2 2859   1.393   2.989   2.089  0.4323  1.1861  0.8292
  954SOL     OW 2860   2.374   1.128   0.474 -0.3784 -0.3378  0.7654
  954SOL    HW1 2861   2.281   1.117   0.436 -0.4674  0.3782 -0.6923
  954SOL    HW2 2862   2.388   1.218   0.507  1.2279 -2.6555 -2.3254
  955SOL     OW 2863   0.233   2.062   2.356  0.3012  0.3082 -0.0835
  955SOL    HW1 2864   0.325   2.104   2.366  2.6892 -0.3616 -1.9658
  955SOL    HW2 2865   0.224   2.002   2.435  1.1535  1.5909 -1.6650
  956SOL     OW 2866   1.046   1.250   1.343 -0.3869 -0.2776 -0.5556
  956SOL    HW1 2867   1.074   1.160   1.303 -1.7637 -0.8053  1.4592
  956SOL    HW2 2868   1.000   1.311   1.279 -1.7903 -0.7045  0.2224
  957SOL     OW 2869   2.007   1.378   2.477  0.0850  0.1533 -0.1878
  957SOL    HW1 2870   1.914   1.410   2.503 -1.1015 -1.6155 -0.8383
  957SOL    HW2 2871   2.031   1.304   2.540 -2.2436 -1.4438 -0.7917
  958SOL     OW 2872   1.627   2.573   0.833 -0.3583  0.0044 -0.1352
  958SOL    HW1 2873   1.547   2.566   0.891  0.9630 -1.7766 -0.5638
  958SOL    HW2 2874   1.704   2.511   0.866  0.8867 -0.8275  2.3133
  959SOL     OW 2875   2.008   1.664   2.483  0.5189  0.4655 -0.0404
  959SOL    HW1 2876   2.069   1.694   2.556  0.5213 -1.7149 -0.8913
  959SOL    HW2 2877   1.991   1.565   2.498 -0.2447  1.2557 -0.4094
  960SOL     OW 2878   0.097   0.486   2.828  0.1393 -0.0952 -0.7030
  960SOL    HW1 2879   0.099   0.578   2.779  1.4959  4.1348  1.2746
  960SOL    HW2 2880   0.156   0.420   2.777  2.6778  1.9550  0.7032
  961SOL     OW 2881   0.322   0.485   1.881 -0.1132 -0.0465 -0.6907
  961SOL    HW1 2882   0.227   0.512   1.893  0.4762 -1.5489  0.9170
  961SOL    HW2 2883   0.387   0.556   1.915  1.3211  0.4479 -1.3132
  962SOL     OW 2884   1.312   1.473   0.274  0.2821 -0.0217  0.2498
  962SOL    HW1 2885   1.392   1.534   0.255 -0.2839  1.3409 -3.7011
  962SOL    HW2 2886   1.279   1.421   0.190 -0.0064  2.5068  1.0707
  963SOL     OW 2887   1.845   2.073   2.950  0.0309  0.1100 -0.5942
  963SOL    HW1 2888   1.891   2.127   3.025  0.6674  2.3479  2.1263
  963SOL    HW2 2889   1.763   2.133   2.916 -3.7739 -0.4349  0.3273
  964SOL     OW 2890   1.196   3.056   0.560 -0.0919  0.6603  0.7044
  964SOL    HW1 2891   1.101   3.093   0.553 -2.4931 -1.6926 -0.6030
  964SOL    HW2 2892   1.199   2.952   0.540 -1.2234 -0.9773  0.2135
  965SOL     OW 2893   0.888   2.786   0.857 -0.1996 -0.1013 -0.0048
  965SOL    HW1 2894   0.844   2.752   0.771 -0.0124 -0.1006 -0.8613
  965SOL    HW2 2895   0.821   2.810   0.926  0.1234  0.7397  0.0341
  966SOL     OW 2896   2.878   1.729   3.000  0.5307  0.4535 -0.2762
  966SOL    HW1 2897   2.815   1.784   2.938 -1.3318 -2.2471 -2.1344
  966SOL    HW2 2898   2.825   1.666   3.063  0.3086 -0.6476 -2.5114
  967SOL     OW 2899   1.690   2.822   1.919 -0.0892 -0.0735  0.1787
  967SOL    HW1 2900   1.619   2.752   1.938 -0.3892  0.7988  0.1760
  967SOL    HW2 2901   1.659   2.906   1.969  1.6981  1.8198  0.8565
  968SOL     OW 2902   1.717   0.984   0.656  0.1843 -0.6672 -0.4635
  968SOL    HW1 2903   1.686   0.953   0.567  1.6223  1.4062  0.7133
  968SOL    HW2 2904   1.636   1.032   0.697  0.6046  0.8508 -1.3871
  969SOL     OW 2905   3.097   1.700   2.037 -0.0677 -0.4519  0.0637
  969SOL    HW1 2906   3.079   1.683   1.939  1.1372  0.0899 -0.5024
  969SOL    HW2 2907   0.079   1.756   2.049  0.3261 -2.1240  0.0205
  970SOL     OW 2908   2.832   1.486   1.488  0.0335  0.3038 -0.3717
  970SOL    HW1 2909   2.888   1.502   1.408 -0.5611 -0.0602 -0.4134
  970SOL    HW2 2910   2.869   1.401   1.532  0.0322 -0.2649 -3.4189
  971SOL     OW 2911   1.547   0.445   1.632 -0.5540 -0.2018 -0.1014
  971SOL    HW1 2912   1.592   0.430   1.543 -0.7749  0.5924 -1.3667
  971SOL    HW2 2913   1.616   0.469   1.702 -0.8843 -0.2055 -2.5117
  972SOL     OW 2914   0.863   0.165   2.456  0.3915 -0.7227 -0.2222
  972SOL    HW1 2915   0.953   0.118   2.464 -0.7795  0.7518 -1.5734
  972SOL    HW2 2916   0.876   0.266   2.465 -0.7545  1.4500  1.2176
  973SOL     OW 2917   2.842   1.267   0.490  0.1769  0.1994  0.8608
  973SOL    HW1 2918   2.837   1.230   0.396  1.0820 -0.0429  1.9155
  973SOL    HW2 2919   2.912   1.212   0.547 -0.2288  0.3445  1.3472
  974SOL     OW 2920   1.924   1.404   2.024 -0.3026  0.0343 -0.5565
  974SOL    HW1 2921   1.823   1.408   2.016 -1.5380 -3.4205 -1.2363
  974SOL    HW2 2922   1.947   1.315   2.064 -0.2470 -2.6237 -0.3883
  975SOL     OW 2923   3.044   2.868   0.566  0.0613 -0.2744  0.2054
  975SOL    HW1 2924   3.048   2.877   0.668  0.6452 -0.5962  1.3317
  975SOL    HW2 2925   2.996   2.950   0.530  0.7744 -2.4920  0.4228
  976SOL     OW 2926   3.029   1.667   1.753  0.2209 -0.3206  0.2908
  976SOL    HW1 2927   0.006   1.666   1.681  4.1673 -2.5762  0.9891
  976SOL    HW2 2928   2.981   1.755   1.748 -2.3716  0.5831 -2.1409
  977SOL     OW 2929   0.806   2.703   0.153  0.2877 -0.1927 -0.2263
  977SOL    HW1 2930   0.782   2.753   0.237 -1.0475  2.4018 -0.4312
  977SOL    HW2 2931   0.737   2.715   0.082  2.2637 -0.7627  1.5203
  978SOL     OW 2932   0.636   1.825   3.076  0.0986 -0.2582 -0.4681
  978SOL    HW1 2933   0.655   1.763   0.058 -2.1958 -0.3869  0.0152
  978SOL    HW2 2934   0.699   1.904   3.068 -0.3947  1.2552 -0.8633
  979SOL     OW 2935   1.199   2.260   1.007  0.0799 -0.5988 -0.2782
  979SOL    HW1 2936   1.297   2.255   0.995 -3.5672  0.9335  1.5273
  979SOL    HW2 2937   1.156   2.250   0.916  3.5318  0.5620 -0.0614
  980SOL     OW 2938   0.207   1.402   2.451  0.5427 -0.2117  0.5919
  980SOL    HW1 2939   0.265   1.448   2.523  2.3882  0.4625 -0.8594
  980SOL    HW2 2940   0.130   1.469   2.418 -2.6424  3.2358 -0.2671
  981SOL     OW 2941   2.651   0.693   2.970  0.7220 -0.4254 -0.3296
  981SOL    HW1 2942   2.709   0.770   3.003  0.7278 -1.2442 -0.1269
  981SOL    HW2 2943   2.695   0.632   2.909 -2.3549  1.3969  1.0294
  982SOL     OW 2944   2.822   2.862   2.764 -0.4202 -0.1798  0.0837
  982SOL    HW1 2945   2.925   2.877   2.749  1.1756  0.6823 -0.9312
  982SOL    HW2 2946   2.784   2.786   2.706 -0.6790  1.0382 -1.0498
  983SOL     OW 2947   2.205   0.476   1.380  0.2740  0.5855  0.3216
  983SOL    HW1 2948   2.182   0.548   1.445  2.3266 -1.3189 -0.8084
  983SOL    HW2 2949   2.236   0.388   1.422 -0.7898  0.4779 -1.1681
  984SOL     OW 2950   0.831   0.057   2.192  0.0367 -0.4660 -0.1053
  984SOL    HW1 2951   0.856   0.108   2.276 -3.3251  0.1154  1.3506
  984SOL    HW2 2952   0.870   3.060   2.196  1.1819  0.0991  0.1945
  985SOL     OW 2953   1.338   2.003   1.975 -0.5205 -0.4139 -0.2893
  985SOL    HW1 2954   1.383   1.918   1.942  0.8675 -0.2970  0.7742
  985SOL    HW2 2955   1.385   2.040   2.058 -1.1983 -0.1034  2.3164
  986SOL     OW 2956   2.008   0.426   2.255 -0.5948 -0.1090  0.0453
  986SOL    HW1 2957   1.942   0.488   2.300  1.5870 -0.2052 -0.6149
  986SOL    HW2 2958   2.057   0.370   2.326  2.9638 -0.2451 -1.6202
  987SOL     OW 2959   2.342   0.397   2.411  0.4407  0.0074 -0.5486
  987SOL    HW1 2960   2.262   0.345   2.449  0.8216  0.3378  0.2898
  987SOL    HW2 2961   2.380   0.350   2.332 -2.1768  0.0315  0.8585
  988SOL     OW 2962   2.638   0.592   2.280 -0.5194 -0.0613 -0.0760
  988SOL    HW1 2963   2.709   0.657   2.310 -2.1366  0.0304 -1.6217
  988SOL    HW2 2964   2.545   0.615   2.323 -1.0013  1.4186 -1.0838
  989SOL     OW 2965   2.430   2.297   2.770  0.1828 -0.1092 -0.2595
  989SOL    HW1 2966   2.510   2.262   2.823  2.6463 -0.4531 -0.6960
  989SOL    HW2 2967   2.433   2.255   2.678 -1.7800  2.7175  0.6713
  990SOL     OW 2968   0.274   0.649   3.036  0.0926  0.3379 -0.1903
  990SOL    HW1 2969   0.209   0.579   3.004 -0.9893 -0.0576 -0.1096
  990SOL    HW2 2970   0.230   0.724   3.082  2.1895 -1.4234  1.6861
  991SOL     OW 2971   0.597   0.530   2.711  0.1434  0.3080  0.1936
  991SOL    HW1 2972   0.582   0.428   2.721 -0.2193 -0.6648 -1.3560
  991SOL    HW2 2973   0.586   0.575   2.798  1.7138 -1.2504 -2.6207
  992SOL     OW 2974   2.846   1.632   2.101  0.3425  0.6510 -0.3786
  992SOL    HW1 2975   2.946   1.651   2.085 -0.5541 -0.1486 -0.6596
  992SOL    HW2 2976   2.800   1.608   2.012  2.1467 -0.9071  0.3935
  993SOL     OW 2977   0.491   0.046   0.723  0.4037 -0.2784 -0.0535
  993SOL    HW1 2978   0.430   0.047   0.642  1.7800 -0.4423 -0.8892
  993SOL    HW2 2979   0.483   0.137   0.767 -1.0964  0.1157  0.8123
  994SOL     OW 2980   0.424   1.973   1.897  0.6797  0.0238 -0.0678
  994SOL    HW1 2981   0.366   2.016   1.822 -0.1422  0.8513 -0.6579
  994SOL    HW2 2982   0.518   1.977   1.867 -3.1577  1.1900 -0.0870
  995SOL     OW 2983   2.398   1.758   3.089 -0.1079  0.1939 -0.2591
  995SOL    HW1 2984   2.438   1.829   3.025 -0.3024  0.2820 -2.0182
  995SOL    HW2 2985   2.392   1.789   0.086 -1.4375 -1.9598  0.9804
  996SOL     OW 2986   1.766   1.471   2.550  0.0469 -0.0550  0.2586
  996SOL    HW1 2987   1.769   1.532   2.636 -0.0832  0.8117  2.5809
  996SOL    HW2 2988   1.708   1.512   2.477  0.0396 -1.7136  1.5271
  997SOL     OW 2989   1.833   1.423   1.729  0.3968 -0.4737 -0.2974
  997SOL    HW1 2990   1.833   1.429   1.831  1.6790  2.5935 -1.1421
  997SOL    HW2 2991   1.858   1.329   1.701 -0.8869  1.9565 -2.7076
  998SOL     OW 2992   2.437   1.976   0.589 -0.0731  0.3198 -0.2741
  998SOL    HW1 2993   2.347   1.948   0.622 -0.8681 -0.4298 -2.0283
  998SOL    HW2 2994   2.489   1.893   0.562  0.9204  2.2367 -0.8654
  999SOL     OW 2995   2.447   2.658   0.577 -0.5503 -0.4535  0.0984
  999SOL    HW1 2996   2.459   2.757   0.582 -1.3538  0.6996 -0.4842
  999SOL    HW2 2997   2.493   2.622   0.494 -1.7324 -0.0877  0.3073
 1000SOL     OW 2998   0.681   2.825   2.376 -0.3988 -0.1755  0.5779
 1000SOL    HW1 2999   0.587   2.795   2.347  0.2494 -0.5995 -0.0955
 1000SOL    HW2 3000   0.735   2.866   2.300 -1.6682 -1.1782  0.7761
   3.09973   3.09973   3.09973
