1000 SPC/Fw water molecules t= 202.00000 step= 202000
 3000
    1SOL     OW    1   2.858   2.991   0.976 -0.3127 -0.9677 -0.3337
    1SOL    HW1    2   2.760   3.028   0.956 -4.2927 -1.0566 -0.1843
    1SOL    HW2    3   2.913   3.001   0.890  2.4563  1.4134 -0.8386
    2SOL     OW    4   1.986   1.641   2.054 -0.0542 -0.1870  0.4588
    2SOL    HW1    5   2.083   1.642   2.091  0.4886  1.9146  1.0867
    2SOL    HW2    6   1.926   1.600   2.123 -2.0642 -1.5887 -2.0264
    3SOL     OW    7   2.048   2.516   2.239 -0.0517  0.0739 -0.1501
    3SOL    HW1    8   2.006   2.580   2.174 -0.0440 -0.8051  0.6958
    3SOL    HW2    9   1.985   2.438   2.253 -1.0962  1.9078 -0.1666
    4SOL     OW   10   1.869   1.932   2.249 -0.2458 -0.2347 -0.3348
    4SOL    HW1   11   1.966   1.926   2.220 -0.2285 -1.3756 -0.1692
    4SOL    HW2   12   1.842   1.836   2.275  2.4585 -1.3204 -0.5110
    5SOL     OW   13   1.332   0.536   1.709  0.3649 -0.4672  0.1911
    5SOL    HW1   14   1.288   0.597   1.642 -0.6583 -1.9706 -1.9813
    5SOL    HW2   15   1.419   0.494   1.667  1.9025 -2.1943 -0.7653
    6SOL     OW   16   2.819   0.743   2.902  0.4204 -0.0274  0.1986
    6SOL    HW1   17   2.909   0.722   2.867 -1.3785 -0.9118  0.9751
    6SOL    HW2   18   2.793   0.676   2.975  0.2590  2.1786 -0.8353
    7SOL     OW   19   0.571   1.075   1.363  0.0494  0.6889 -0.0913
    7SOL    HW1   20   0.571   1.076   1.260  3.0186  1.0409 -2.2004
    7SOL    HW2   21   0.519   1.158   1.395  0.4686  0.6038  0.3153
    8SOL     OW   22   1.346   0.681   0.863  0.5715  0.2505 -0.1930
    8SOL    HW1   23   1.304   0.722   0.945  0.3895 -0.5668 -1.0384
    8SOL    HW2   24   1.446   0.670   0.872 -3.0791  2.2746  0.4701
    9SOL     OW   25   1.051   0.883   2.634 -0.5312 -0.1135  0.0274
    9SOL    HW1   26   1.139   0.928   2.621 -0.5813  0.9608  2.3025
    9SOL    HW2   27   1.051   0.784   2.593  1.1950 -4.7097 -1.6903
   10SOL     OW   28   0.132   2.478   0.323  0.2641 -0.0590 -0.0450
   10SOL    HW1   29   0.220   2.428   0.321  1.0121  1.8596  0.2044
   10SOL    HW2   30   0.128   2.552   0.252 -2.0445 -0.8064  0.6187
   11SOL     OW   31   0.479   1.510   0.020 -0.4882  0.2112  0.4557
   11SOL    HW1   32   0.523   1.427   3.056  1.4217 -0.8493 -0.0382
   11SOL    HW2   33   0.383   1.517   3.067 -0.2720  1.0492  0.0831
   12SOL     OW   34   0.487   0.265   1.537 -0.3294 -0.6077 -0.1413
   12SOL    HW1   35   0.431   0.181   1.521 -1.3565  3.9706  1.8293
   12SOL    HW2   36   0.563   0.260   1.611  3.1696  0.4115 -0.6144
   13SOL     OW   37   1.076   0.161   0.264 -0.1738 -0.5641  0.4894
   13SOL    HW1   38   1.144   0.145   0.188 -0.8662 -1.9285  0.5072
   13SOL    HW2   39   1.088   0.091   0.336  3.3382  0.0194 -0.2229
   14SOL     OW   40   1.128   2.388   1.121  0.5096  0.0324 -0.0665
   14SOL    HW1   41   1.047   2.372   1.056 -1.3967  1.7282  0.6373
   14SOL    HW2   42   1.114   2.318   1.192 -0.7954  1.2203 -0.6695
   15SOL     OW   43   2.598   0.811   2.004  0.1970  0.0299  0.4701
   15SOL    HW1   44   2.696   0.773   2.007  1.0165  1.4705 -0.3995
   15SOL    HW2   45   2.534   0.753   1.950  1.4458 -0.0898  2.0926
   16SOL     OW   46   1.302   2.781   3.064 -0.1710 -0.0861 -0.2617
   16SOL    HW1   47   1.292   2.839   0.065  0.6678 -0.3973 -3.5059
   16SOL    HW2   48   1.277   2.683   0.008 -1.2190  1.3608  0.0390
   17SOL     OW   49   0.955   0.099   1.379 -0.6784 -0.6247  0.3358
   17SOL    HW1   50   0.898   0.061   1.452  1.8637 -0.2064 -0.2397
   17SOL    HW2   51   0.922   0.198   1.355 -1.9811  1.3859 -0.7122
   18SOL     OW   52   1.141   0.898   0.160  0.4561 -0.4387 -0.9384
   18SOL    HW1   53   1.097   0.990   0.194 -0.5955  2.2510  1.0768
   18SOL    HW2   54   1.233   0.911   0.123  1.3889  1.8518  1.5830
   19SOL     OW   55   2.030   1.492   0.056  0.0843  0.4504 -0.5323
   19SOL    HW1   56   2.021   1.558   3.063  1.3978 -1.9804  1.9592
   19SOL    HW2   57   1.961   1.415   0.049 -0.7802  0.5727  2.0790
   20SOL     OW   58   1.895   1.739   1.621  0.1284  0.4663  0.7571
   20SOL    HW1   59   1.887   1.765   1.716  0.4163 -0.3707 -1.9258
   20SOL    HW2   60   1.837   1.657   1.598  0.2969 -1.4808 -1.7541
   21SOL     OW   61   0.685   1.145   0.102  0.1033 -0.4924  0.0632
   21SOL    HW1   62   0.732   1.219   0.161  0.9851 -0.3423  0.0020
   21SOL    HW2   63   0.636   1.185   0.022  0.3292 -1.8192  4.7585
   22SOL     OW   64   2.377   2.934   1.357 -0.1363 -0.1215  0.1915
   22SOL    HW1   65   2.303   2.978   1.409 -0.9713 -0.0393 -1.2996
   22SOL    HW2   66   2.361   2.832   1.345  1.9644 -0.6363  0.8247
   23SOL     OW   67   0.029   0.864   1.655  0.2156 -0.2077 -0.0328
   23SOL    HW1   68   0.054   0.775   1.611 -1.0599 -2.6572  0.4923
   23SOL    HW2   69   0.088   0.940   1.614 -2.7934  1.6013  1.1172
   24SOL     OW   70   2.224   2.511   1.208 -0.4047  0.0454 -0.1721
   24SOL    HW1   71   2.122   2.506   1.197 -0.0423  1.4420 -2.0441
   24SOL    HW2   72   2.268   2.534   1.116 -0.6302 -0.0287 -5.2703
   25SOL     OW   73   2.111   2.699   2.635 -0.1001 -0.5200  0.4867
   25SOL    HW1   74   2.202   2.726   2.593  2.4916  0.8535  0.2606
   25SOL    HW2   75   2.045   2.666   2.563 -0.2243  1.7321 -0.9815
   26SOL     OW   76   1.220   2.511   0.062  0.1188  0.2973 -0.3397
   26SOL    HW1   77   1.136   2.468   0.017  0.4295  0.3471 -2.3135
   26SOL    HW2   78   1.198   2.537   0.159  0.3925 -0.0481  1.7730
   27SOL     OW   79   0.298   1.958   2.377  0.4168  0.0914 -0.4593
   27SOL    HW1   80   0.246   1.883   2.328 -0.8845 -0.3245  2.1932
   27SOL    HW2   81   0.253   1.986   2.462  0.3370  0.1479  1.4418
   28SOL     OW   82   0.044   1.472   1.659 -0.1674  0.0788 -0.0356
   28SOL    HW1   83   3.069   1.554   1.627  1.4700 -4.9454  2.0683
   28SOL    HW2   84   0.117   1.507   1.720 -2.7926  0.6349  0.5005
   29SOL     OW   85   2.577   2.124   1.945 -0.7369 -0.5118 -0.6975
   29SOL    HW1   86   2.568   2.068   2.035  0.8492  1.6626  0.3944
   29SOL    HW2   87   2.666   2.182   1.952  0.7448  1.6415  1.5560
   30SOL     OW   88   1.275   2.942   0.470 -0.7233  0.1846  0.3864
   30SOL    HW1   89   1.268   2.863   0.536  0.5565 -1.2400 -1.5785
   30SOL    HW2   90   1.236   3.027   0.506  1.2220  0.5451  0.2971
   31SOL     OW   91   2.721   2.538   1.804 -0.1810  0.3624 -0.1770
   31SOL    HW1   92   2.701   2.475   1.725  1.1349 -1.8483  0.1439
   31SOL    HW2   93   2.762   2.623   1.772 -1.1913 -1.0777  2.5813
   32SOL     OW   94   1.139   1.165   1.715 -0.5748  0.2285  0.3524
   32SOL    HW1   95   1.218   1.164   1.652  0.6016  3.4118 -1.5737
   32SOL    HW2   96   1.100   1.071   1.724 -0.8019  0.4489  3.4705
   33SOL     OW   97   0.317   2.619   2.487 -0.4216 -0.0281  0.4146
   33SOL    HW1   98   0.241   2.616   2.425 -0.6425  0.6809  1.4212
   33SOL    HW2   99   0.409   2.626   2.446 -0.2152  0.6530 -1.2068
   34SOL     OW  100   1.904   0.178   0.854 -0.0256 -0.3672  0.0961
   34SOL    HW1  101   1.954   0.258   0.820 -1.7345 -1.2321 -2.1562
   34SOL    HW2  102   1.972   0.115   0.892  0.8562  3.7768 -0.7040
   35SOL     OW  103   2.307   0.117   0.776  0.1664  0.5969 -0.1474
   35SOL    HW1  104   2.344   0.022   0.784 -0.5271  1.4367  1.3404
   35SOL    HW2  105   2.359   0.174   0.709  1.7872 -1.6405 -0.4308
   36SOL     OW  106   1.924   2.662   2.444  0.2964  0.2102  0.1323
   36SOL    HW1  107   1.977   2.630   2.361  3.1830 -0.4619 -0.8571
   36SOL    HW2  108   1.825   2.644   2.437 -0.0933  2.2600  1.1228
   37SOL     OW  109   1.078   2.530   2.487  0.0400  0.2441 -0.6839
   37SOL    HW1  110   1.019   2.507   2.569  0.3684 -1.2327  0.3273
   37SOL    HW2  111   1.166   2.579   2.509  0.1248  1.6415 -2.2560
   38SOL     OW  112   2.781   0.373   2.749 -0.4845  0.3631 -0.5477
   38SOL    HW1  113   2.712   0.303   2.783 -0.4134  0.8804 -1.3866
   38SOL    HW2  114   2.875   0.366   2.787 -0.9072 -0.7692 -0.8405
   39SOL     OW  115   2.130   1.535   1.581  0.6076 -0.1803 -0.7750
   39SOL    HW1  116   2.152   1.636   1.591 -0.3356  0.2575 -0.0967
   39SOL    HW2  117   2.191   1.493   1.518 -2.6295  0.1658  4.2674
   40SOL     OW  118   0.314   2.945   2.819 -0.0501  0.3530  0.3189
   40SOL    HW1  119   0.235   3.006   2.826  1.9421 -3.3569 -1.3426
   40SOL    HW2  120   0.359   2.942   2.728  0.2957 -2.0057  0.9564
   41SOL     OW  121   1.940   0.576   1.068 -0.5566 -0.3417  0.3598
   41SOL    HW1  122   1.884   0.490   1.068 -0.6215  0.7215 -2.3134
   41SOL    HW2  123   2.023   0.572   1.005  0.6549 -0.3159  2.3957
   42SOL     OW  124   0.598   0.320   1.288  0.1425 -0.5120  0.8934
   42SOL    HW1  125   0.559   0.301   1.377  0.3952 -0.4253 -0.6552
   42SOL    HW2  126   0.696   0.335   1.301 -0.4314  0.0015 -0.9481
   43SOL     OW  127   2.456   1.245   2.225  0.1653  0.5662 -0.4992
   43SOL    HW1  128   2.374   1.253   2.164 -0.5955  2.1965 -1.2014
   43SOL    HW2  129   2.499   1.152   2.207  1.1751 -0.8365 -0.2059
   44SOL     OW  130   2.970   2.802   0.323  0.4291  0.0179 -0.3020
   44SOL    HW1  131   2.960   2.893   0.272 -1.3896  0.8281 -1.8953
   44SOL    HW2  132   3.032   2.814   0.404  0.0382  1.5900  1.0472
   45SOL     OW  133   3.078   2.541   1.893  0.0260 -0.1998 -0.4056
   45SOL    HW1  134   3.028   2.630   1.914  3.2727  1.7847 -1.3866
   45SOL    HW2  135   0.008   2.517   1.792  1.1844  0.3194  0.3887
   46SOL     OW  136   2.213   2.272   2.116  0.6092 -0.3536  0.3926
   46SOL    HW1  137   2.147   2.303   2.189 -2.3687 -0.4712  2.7525
   46SOL    HW2  138   2.307   2.293   2.137 -2.5197  2.7855 -1.1417
   47SOL     OW  139   1.549   2.127   1.516 -0.2409  0.0700 -0.1344
   47SOL    HW1  140   1.532   2.034   1.551 -0.6233  1.3627  0.7891
   47SOL    HW2  141   1.539   2.129   1.415 -3.7294  0.6549  2.3639
   48SOL     OW  142   0.502   1.478   0.392  0.3037  0.0950  0.2072
   48SOL    HW1  143   0.567   1.505   0.316  2.6799 -1.8407 -2.4107
   48SOL    HW2  144   0.538   1.502   0.485  0.5551  1.2590  0.0576
   49SOL     OW  145   2.682   0.349   2.491 -0.2600 -0.2082 -0.1953
   49SOL    HW1  146   2.708   0.359   2.588  0.8605 -1.3402  0.8511
   49SOL    HW2  147   2.617   0.423   2.468  1.0337 -0.2030  0.8147
   50SOL     OW  148   2.218   0.853   0.412 -0.3180  0.4221 -0.3868
   50SOL    HW1  149   2.287   0.807   0.469 -0.4591 -1.0705 -3.7771
   50SOL    HW2  150   2.275   0.873   0.329  1.1440 -0.1702  1.0718
   51SOL     OW  151   1.826   0.737   1.282  0.1338  0.2948 -0.2336
   51SOL    HW1  152   1.784   0.677   1.354 -2.1463  0.5887  0.0972
   51SOL    HW2  153   1.876   0.679   1.212 -0.2092 -0.1349 -0.1545
   52SOL     OW  154   0.937   1.356   2.895  0.3574 -0.3363  0.3507
   52SOL    HW1  155   0.940   1.255   2.921 -0.1713 -0.2483  1.3910
   52SOL    HW2  156   1.000   1.415   2.947  1.2237 -2.9803 -2.0185
   53SOL     OW  157   0.853   1.499   2.244 -0.0515 -0.0589  0.5832
   53SOL    HW1  158   0.829   1.602   2.244  0.7293  2.9694 -0.2658
   53SOL    HW2  159   0.768   1.443   2.222 -2.7059 -1.1811  1.0407
   54SOL     OW  160   2.212   0.317   1.209 -0.0116 -0.1669 -0.2099
   54SOL    HW1  161   2.125   0.274   1.195  4.4085  2.3746  0.7877
   54SOL    HW2  162   2.291   0.278   1.155  1.5355 -1.2626  1.2615
   55SOL     OW  163   2.612   2.875   0.597  0.2250 -0.9141  0.7159
   55SOL    HW1  164   2.668   2.827   0.524 -2.7088  0.3539  0.0598
   55SOL    HW2  165   2.636   2.976   0.607 -1.2262  1.0187  1.7446
   56SOL     OW  166   0.897   2.762   1.496 -0.4233  0.0309  0.1974
   56SOL    HW1  167   0.900   2.695   1.422 -1.2077  1.9556 -0.0854
   56SOL    HW2  168   0.988   2.812   1.501 -0.3227  0.9315  0.1295
   57SOL     OW  169   1.524   1.371   0.455  0.1821 -0.2193  0.5674
   57SOL    HW1  170   1.472   1.306   0.509 -0.4285  1.8368 -0.8659
   57SOL    HW2  171   1.534   1.453   0.514 -0.9166  0.5680  1.7107
   58SOL     OW  172   3.070   0.673   2.277  0.2341  0.0631 -0.0292
   58SOL    HW1  173   2.995   0.740   2.281 -1.4854  0.8582  1.3190
   58SOL    HW2  174   3.042   0.577   2.290  2.3551 -0.4458 -0.7182
   59SOL     OW  175   0.937   2.764   2.738  0.1669 -0.3340  0.0899
   59SOL    HW1  176   0.991   2.795   2.819  2.0869 -0.2350 -0.4910
   59SOL    HW2  177   0.933   2.663   2.723 -0.1487 -0.5343  1.1084
   60SOL     OW  178   2.278   2.718   0.579 -0.2492  0.1496  0.2267
   60SOL    HW1  179   2.311   2.622   0.569 -0.0470  0.4888  1.3558
   60SOL    HW2  180   2.257   2.768   0.488  0.3031  3.1238 -1.4458
   61SOL     OW  181   1.041   2.345   0.658 -0.1763  0.2072 -0.1118
   61SOL    HW1  182   1.066   2.339   0.558  1.9761  0.6219 -0.8871
   61SOL    HW2  183   1.084   2.430   0.700  2.5041  0.0319 -0.9186
   62SOL     OW  184   2.253   2.229   2.530 -0.0472  0.9559 -0.3431
   62SOL    HW1  185   2.269   2.153   2.462 -1.0824 -3.2355 -0.9231
   62SOL    HW2  186   2.266   2.184   2.621 -0.3646  0.7633 -0.1866
   63SOL     OW  187   2.258   0.766   2.693 -0.3318 -0.0312 -0.3154
   63SOL    HW1  188   2.321   0.731   2.620  3.1299 -0.6602  0.4570
   63SOL    HW2  189   2.165   0.794   2.668  1.4579  0.2438 -1.0544
   64SOL     OW  190   1.249   0.798   2.874 -0.1150  0.4113 -0.4868
   64SOL    HW1  191   1.158   0.771   2.848 -2.4627  0.2867  0.6507
   64SOL    HW2  192   1.280   0.730   2.945  0.3890  2.5000  1.1242
   65SOL     OW  193   0.817   1.951   0.533 -0.1345 -0.0687  0.2563
   65SOL    HW1  194   0.769   1.916   0.451  2.5941  0.5373  2.4005
   65SOL    HW2  195   0.917   1.956   0.520 -0.8436  2.2338  1.3989
   66SOL     OW  196   0.339   1.124   1.853  0.6489  0.3602 -0.0969
   66SOL    HW1  197   0.380   1.213   1.830  0.0443 -0.1652  3.0490
   66SOL    HW2  198   0.406   1.054   1.832 -2.5476  0.7039 -1.4388
   67SOL     OW  199   2.314   2.807   2.471 -0.3087 -0.0041  0.5525
   67SOL    HW1  200   2.298   2.895   2.429  1.4431  0.6261  0.7315
   67SOL    HW2  201   2.314   2.733   2.403 -1.4317  1.1134 -0.9940
   68SOL     OW  202   0.670   2.023   1.257  0.3845  0.2142  0.5623
   68SOL    HW1  203   0.765   2.056   1.282  1.5125 -1.0595 -2.2999
   68SOL    HW2  204   0.608   2.006   1.335  0.7159 -0.0615 -1.3319
   69SOL     OW  205   1.187   2.587   0.309 -0.0635 -0.3265 -0.7097
   69SOL    HW1  206   1.103   2.612   0.358 -1.9806 -0.9761 -0.7553
   69SOL    HW2  207   1.268   2.583   0.371 -0.9819 -1.0922 -0.1038
   70SOL     OW  208   2.998   1.128   2.880  0.0358 -0.2682 -0.1069
   70SOL    HW1  209   3.064   1.132   2.952 -0.7702  0.3167 -0.6956
   70SOL    HW2  210   3.034   1.067   2.803  1.9046 -1.5829 -1.7419
   71SOL     OW  211   2.875   1.362   2.779 -0.4034  0.2958 -0.2220
   71SOL    HW1  212   2.939   1.286   2.807  0.6484 -3.0332  0.5680
   71SOL    HW2  213   2.794   1.321   2.732 -0.6399  1.1343 -0.2411
   72SOL     OW  214   2.585   2.230   0.334 -0.0204 -0.1122  0.5772
   72SOL    HW1  215   2.548   2.175   0.418 -1.1738  2.0150  1.6718
   72SOL    HW2  216   2.669   2.188   0.290  2.3966 -2.5129  0.6901
   73SOL     OW  217   0.822   1.331   0.220  0.1633 -0.9384 -0.7107
   73SOL    HW1  218   0.801   1.402   0.287  2.3660 -0.0330 -4.5369
   73SOL    HW2  219   0.902   1.366   0.164 -0.1642 -0.5594 -0.3931
   74SOL     OW  220   0.139   0.800   3.041 -0.0769  0.1692 -0.2601
   74SOL    HW1  221   0.085   0.755   0.039 -1.8044 -0.9958  1.1340
   74SOL    HW2  222   0.089   0.787   2.955  1.7144  2.3757  0.3893
   75SOL     OW  223   1.975   1.511   1.815  0.1031  0.3978  0.5460
   75SOL    HW1  224   2.014   1.555   1.731  2.7188 -1.4801 -1.2975
   75SOL    HW2  225   1.983   1.575   1.898 -0.1860 -0.3126 -0.7709
   76SOL     OW  226   2.064   2.822   1.541  0.0425  0.2006  0.3678
   76SOL    HW1  227   2.135   2.781   1.604 -0.4115 -0.8153 -0.7803
   76SOL    HW2  228   1.985   2.761   1.534  0.5304  2.4321 -2.5982
   77SOL     OW  229   2.620   0.357   1.171 -0.5035  0.1361  0.7737
   77SOL    HW1  230   2.720   0.330   1.173  1.2821  0.8051 -1.3949
   77SOL    HW2  231   2.567   0.271   1.182  0.8835 -0.8688  0.8000
   78SOL     OW  232   1.422   1.003   0.091 -0.6956 -0.0253 -0.0876
   78SOL    HW1  233   1.465   0.919   0.050 -0.2394 -1.2368 -2.0631
   78SOL    HW2  234   1.347   1.038   0.029 -1.3640  2.2997  1.2849
   79SOL     OW  235   0.569   1.949   1.769 -0.1106 -0.6323 -0.4120
   79SOL    HW1  236   0.599   2.028   1.708 -2.4663 -0.0318  0.7270
   79SOL    HW2  237   0.641   1.878   1.781 -0.6996  0.3246  1.0344
   80SOL     OW  238   1.642   1.110   1.309 -0.4502 -0.5240 -0.6408
   80SOL    HW1  239   1.589   1.053   1.381  0.0957 -2.2668  0.4925
   80SOL    HW2  240   1.623   1.066   1.213 -1.1486  0.2955 -0.2917
   81SOL     OW  241   0.605   2.970   1.051  0.3508  0.6392  0.2393
   81SOL    HW1  242   0.506   2.979   1.033 -0.6707  2.0875 -1.3749
   81SOL    HW2  243   0.653   3.033   0.986 -1.7822 -0.6268  3.2006
   82SOL     OW  244   1.862   2.687   1.767  0.5666  0.2435 -0.2705
   82SOL    HW1  245   1.927   2.763   1.790 -1.0894  1.0099 -0.3659
   82SOL    HW2  246   1.794   2.669   1.842 -0.8950 -0.7228 -0.0210
   83SOL     OW  247   0.787   2.656   1.056 -0.2224 -0.0395 -0.4956
   83SOL    HW1  248   0.684   2.674   1.069  0.2203  2.5886  1.8422
   83SOL    HW2  249   0.833   2.625   1.144  0.4726 -2.7902  1.8899
   84SOL     OW  250   0.507   1.387   2.707 -0.4801  0.5161 -0.0360
   84SOL    HW1  251   0.452   1.464   2.667  0.3742 -0.5237  0.6815
   84SOL    HW2  252   0.500   1.307   2.648  0.2317 -0.9860  0.2723
   85SOL     OW  253   3.066   2.317   1.340  0.2994 -0.0714 -0.3302
   85SOL    HW1  254   0.042   2.332   1.422  1.1424  0.4415  0.8283
   85SOL    HW2  255   0.020   2.363   1.257 -2.5835 -0.8542 -0.7038
   86SOL     OW  256   2.676   2.392   1.582 -0.2357  0.1384 -0.0325
   86SOL    HW1  257   2.724   2.432   1.501  0.0855  0.4387 -1.1727
   86SOL    HW2  258   2.607   2.317   1.553 -3.0999 -1.3954  0.0156
   87SOL     OW  259   2.625   2.163   2.874 -0.1300  0.3672 -0.6042
   87SOL    HW1  260   2.613   2.200   2.969 -0.6479 -0.9501 -0.5234
   87SOL    HW2  261   2.594   2.068   2.870 -2.2226 -0.2134 -0.0807
   88SOL     OW  262   0.305   1.804   1.149 -0.2934 -0.4940  0.2169
   88SOL    HW1  263   0.346   1.819   1.239  1.2006  1.9524 -2.1720
   88SOL    HW2  264   0.342   1.721   1.112  1.0842  4.5320  3.5545
   89SOL     OW  265   1.041   0.010   1.808  0.1829 -0.4351  0.3777
   89SOL    HW1  266   1.082   0.101   1.771  2.8114  1.0470 -1.8522
   89SOL    HW2  267   1.116   3.030   1.840 -4.3881  0.0297 -2.6123
   90SOL     OW  268   3.073   1.799   1.586 -0.2962  0.1418 -0.2451
   90SOL    HW1  269   3.001   1.729   1.577  1.4149 -0.5779  1.7314
   90SOL    HW2  270   3.033   1.884   1.631 -0.3548  2.2064 -3.2150
   91SOL     OW  271   1.088   1.651   0.784  0.0434  0.3711  0.0183
   91SOL    HW1  272   1.129   1.616   0.697  1.3064 -0.4616 -0.8130
   91SOL    HW2  273   1.003   1.703   0.760 -0.2733 -0.9388 -4.3668
   92SOL     OW  274   2.523   0.035   1.213 -0.2858  0.9860 -0.2630
   92SOL    HW1  275   2.452   3.057   1.253  1.5068  2.6851 -0.1410
   92SOL    HW2  276   2.553   3.074   1.126 -1.3538  3.2105  1.2581
   93SOL     OW  277   2.648   1.528   3.000  0.3491  0.4830 -0.3519
   93SOL    HW1  278   2.666   1.439   3.044 -0.4522 -1.1049 -2.9328
   93SOL    HW2  279   2.593   1.514   2.913  0.2978  0.9734 -0.2884
   94SOL     OW  280   2.679   2.520   2.538  0.3534  0.0992 -0.2003
   94SOL    HW1  281   2.610   2.443   2.522 -0.9763 -0.7021  3.1343
   94SOL    HW2  282   2.641   2.610   2.512  0.2441  1.0057  0.8936
   95SOL     OW  283   1.772   0.536   1.459  0.2589 -0.0725  0.0994
   95SOL    HW1  284   1.864   0.560   1.501  0.7262 -2.3364 -0.8962
   95SOL    HW2  285   1.771   0.442   1.417 -1.7079 -1.0826  1.2408
   96SOL     OW  286   2.876   2.867   1.647 -0.3137  0.5070  0.0584
   96SOL    HW1  287   2.779   2.854   1.623  0.2743  1.5147  0.0865
   96SOL    HW2  288   2.907   2.950   1.603 -0.9073 -3.7061  1.7642
   97SOL     OW  289   2.409   0.142   1.657 -0.3546 -0.1098 -0.0825
   97SOL    HW1  290   2.344   0.074   1.690 -2.7830 -0.4170  0.5808
   97SOL    HW2  291   2.372   0.213   1.593  2.1742 -1.5162 -2.2427
   98SOL     OW  292   1.302   2.204   1.579 -0.1191  0.4574  0.8848
   98SOL    HW1  293   1.403   2.192   1.564 -0.2054  4.0993 -0.0828
   98SOL    HW2  294   1.258   2.111   1.594 -2.1566 -1.1010  1.9722
   99SOL     OW  295   0.113   2.777   1.592  0.0958  0.6199 -0.0129
   99SOL    HW1  296   0.173   2.706   1.628  0.1510 -1.0052  2.0533
   99SOL    HW2  297   0.032   2.728   1.544 -0.3914 -1.7440 -0.1407
  100SOL     OW  298   3.064   1.159   2.398 -0.4844  0.1233  0.5816
  100SOL    HW1  299   0.015   1.144   2.300  2.1772 -2.1096  0.7584
  100SOL    HW2  300   0.049   1.219   2.450 -2.1513 -1.0589 -2.0209
  101SOL     OW  301   2.031   0.685   0.289  0.4528  0.1307  0.0411
  101SOL    HW1  302   1.936   0.715   0.285  3.1311  0.2723 -1.4905
  101SOL    HW2  303   2.088   0.757   0.341  0.3352  1.3380  0.8669
  102SOL     OW  304   0.282   0.483   1.189  0.3133 -0.3361 -0.4868
  102SOL    HW1  305   0.273   0.400   1.124 -0.3577 -1.4984  0.7755
  102SOL    HW2  306   0.328   0.565   1.141 -0.2347  1.9385 -1.7424
  103SOL     OW  307   2.410   0.750   2.426  0.0819  0.0050 -0.1649
  103SOL    HW1  308   2.338   0.814   2.387 -2.8176 -2.1862 -2.3373
  103SOL    HW2  309   2.498   0.805   2.435  0.6620  1.3826 -0.9919
  104SOL     OW  310   0.368   0.284   2.574 -0.4159  0.1527  0.0762
  104SOL    HW1  311   0.453   0.255   2.527  0.2679  1.1691  2.6060
  104SOL    HW2  312   0.382   0.301   2.672  0.6351 -0.9912 -1.9076
  105SOL     OW  313   2.073   1.058   1.717  0.1079  0.2949 -0.1088
  105SOL    HW1  314   2.023   0.978   1.672 -4.0329  1.8449 -4.1875
  105SOL    HW2  315   2.007   1.135   1.713 -1.6329 -1.6797 -3.1316
  106SOL     OW  316   1.115   2.923   0.229 -0.4481 -0.2740  0.0347
  106SOL    HW1  317   1.166   2.895   0.313  0.0203  4.7991  0.5142
  106SOL    HW2  318   1.041   2.855   0.212 -0.9320 -0.5955  1.4652
  107SOL     OW  319   0.415   1.840   1.409 -0.1939  0.1731  0.3378
  107SOL    HW1  320   0.354   1.823   1.486  1.2310 -1.2614 -1.1808
  107SOL    HW2  321   0.496   1.779   1.424  1.4388 -1.9203  0.1346
  108SOL     OW  322   0.270   0.015   2.516  0.3804  0.0599 -0.2147
  108SOL    HW1  323   0.346   3.034   2.533 -2.7384  1.3946 -1.0917
  108SOL    HW2  324   0.299   0.108   2.549  2.0736  1.2955  1.3689
  109SOL     OW  325   2.145   0.360   0.082 -0.2465  0.6269  0.1512
  109SOL    HW1  326   2.052   0.318   0.063  0.2916 -0.8973  0.1298
  109SOL    HW2  327   2.195   0.375   3.076  0.5581 -1.8460  1.9948
  110SOL     OW  328   0.321   2.353   2.397 -0.2581  0.2531  0.6161
  110SOL    HW1  329   0.338   2.325   2.496  0.0947  0.3015  1.2934
  110SOL    HW2  330   0.375   2.438   2.375  2.4027  0.6109  0.9660
  111SOL     OW  331   1.586   2.766   2.189  0.2397 -0.0047 -0.1086
  111SOL    HW1  332   1.509   2.836   2.181 -1.9584  4.1242  0.3779
  111SOL    HW2  333   1.681   2.804   2.217  3.2672  1.8452  1.3328
  112SOL     OW  334   1.926   2.102   2.457 -0.2025 -0.8033  0.1351
  112SOL    HW1  335   1.975   2.051   2.529 -1.6213 -1.0310 -1.7641
  112SOL    HW2  336   1.892   2.044   2.384 -0.5051 -0.7344  3.7651
  113SOL     OW  337   2.397   2.655   2.000 -0.1158  0.6012  0.4416
  113SOL    HW1  338   2.494   2.661   2.017 -1.1843 -2.2797 -1.4797
  113SOL    HW2  339   2.386   2.560   1.967  0.2566  0.7879 -3.5324
  114SOL     OW  340   2.644   0.847   0.838 -0.4088 -0.4303  0.2069
  114SOL    HW1  341   2.734   0.800   0.841  2.4258  0.3039  1.8370
  114SOL    HW2  342   2.639   0.904   0.753 -0.1226 -0.6291 -0.1922
  115SOL     OW  343   0.196   1.665   2.787  0.5523 -0.4401 -0.4622
  115SOL    HW1  344   0.243   1.749   2.825 -0.4588  2.0621 -1.7974
  115SOL    HW2  345   0.124   1.698   2.720  0.8182  1.2717  1.7853
  116SOL     OW  346   0.412   1.473   1.973  0.3532 -0.1191  0.2326
  116SOL    HW1  347   0.419   1.525   1.884  1.8026 -0.4649 -2.3123
  116SOL    HW2  348   0.313   1.461   1.991  1.0273 -1.2566 -1.7264
  117SOL     OW  349   2.745   0.032   0.629  0.4542  0.2228  0.1932
  117SOL    HW1  350   2.732   0.118   0.683  2.8797 -0.0536 -0.3782
  117SOL    HW2  351   2.743   0.050   0.528 -0.9412 -0.0864 -1.7543
  118SOL     OW  352   1.138   1.827   1.851  0.0948 -0.5813  0.1939
  118SOL    HW1  353   1.086   1.762   1.917 -0.2502 -2.8977  1.6040
  118SOL    HW2  354   1.149   1.916   1.903 -0.9912 -1.4552  0.6967
  119SOL     OW  355   1.018   2.151   0.152 -0.8156  0.2778  0.4346
  119SOL    HW1  356   1.017   2.045   0.149 -2.2095 -2.9935  0.3926
  119SOL    HW2  357   0.921   2.187   0.141  0.2922  0.3477  1.6527
  120SOL     OW  358   0.189   1.310   2.472 -0.3756  0.3309  0.0660
  120SOL    HW1  359   0.182   1.411   2.466 -0.3759  1.7014  0.3689
  120SOL    HW2  360   0.264   1.281   2.408 -1.6786  0.3792 -1.5948
  121SOL     OW  361   2.263   2.834   1.058  0.1063 -0.0866  0.4828
  121SOL    HW1  362   2.251   2.821   0.955  2.2130  4.1867 -2.8742
  121SOL    HW2  363   2.344   2.779   1.096  0.2783 -1.5139  0.6326
  122SOL     OW  364   2.080   2.023   1.788  0.5101 -0.1359  0.3897
  122SOL    HW1  365   2.169   2.021   1.840  0.8194 -2.3091 -0.0583
  122SOL    HW2  366   2.070   2.110   1.739  2.4678 -0.9005  1.1354
  123SOL     OW  367   2.963   2.965   0.722 -0.4628  0.1636 -0.1422
  123SOL    HW1  368   2.872   3.005   0.690 -0.2122 -2.1547 -1.7762
  123SOL    HW2  369   3.021   2.925   0.645  3.3045 -0.5508 -1.8065
  124SOL     OW  370   1.822   0.791   2.320 -0.3771  0.0044 -0.1010
  124SOL    HW1  371   1.740   0.731   2.351 -1.4781  1.6476 -0.4813
  124SOL    HW2  372   1.905   0.733   2.294  3.9343 -2.0777 -1.7117
  125SOL     OW  373   0.404   1.113   0.556 -0.1607  0.0054  0.0757
  125SOL    HW1  374   0.392   1.142   0.456  0.3394  0.7063  0.0169
  125SOL    HW2  375   0.388   1.197   0.610 -1.9046 -4.5333  1.2512
  126SOL     OW  376   2.459   1.784   0.330 -0.3720  0.0275 -0.1710
  126SOL    HW1  377   2.535   1.725   0.356  1.3142  0.6193  3.0528
  126SOL    HW2  378   2.374   1.761   0.377  0.6933  3.9758  0.1922
  127SOL     OW  379   3.076   1.729   1.317 -0.1184 -0.5948 -0.1984
  127SOL    HW1  380   3.075   1.755   1.415  1.7260  1.4827 -2.5579
  127SOL    HW2  381   3.054   1.810   1.256  0.7537 -1.0802 -3.0137
  128SOL     OW  382   0.954   0.527   2.821 -0.2916  0.1696 -0.4559
  128SOL    HW1  383   1.024   0.448   2.822  1.8607 -1.5335  0.8657
  128SOL    HW2  384   0.922   0.555   2.726 -0.5508 -1.8585  1.0049
  129SOL     OW  385   2.210   1.515   1.088  0.2566 -0.4205  0.1868
  129SOL    HW1  386   2.267   1.432   1.115  1.9952 -1.1928  0.6857
  129SOL    HW2  387   2.146   1.542   1.162 -0.3432  2.9854  1.0488
  130SOL     OW  388   2.304   1.454   1.406  0.0152  0.5536  0.4587
  130SOL    HW1  389   2.276   1.368   1.358 -2.2979 -0.8983  0.2626
  130SOL    HW2  390   2.400   1.454   1.435 -2.2982 -1.1305  0.8698
  131SOL     OW  391   2.743   0.998   2.858 -0.2654  0.0454 -0.0797
  131SOL    HW1  392   2.827   1.055   2.862  1.4402  1.6007 -1.8923
  131SOL    HW2  393   2.769   0.899   2.864  0.5370  0.6861 -0.1179
  132SOL     OW  394   2.482   2.389   1.858 -0.4009 -0.5999 -0.5908
  132SOL    HW1  395   2.568   2.443   1.866 -1.2014  0.8478  0.7090
  132SOL    HW2  396   2.495   2.295   1.898 -1.6286  1.6274 -0.4079
  133SOL     OW  397   0.627   1.058   1.046  0.4904 -0.0638  0.3149
  133SOL    HW1  398   0.699   1.127   1.036 -1.3596 -1.9202 -0.8474
  133SOL    HW2  399   0.666   0.962   1.050 -0.8148 -0.5353  0.1119
  134SOL     OW  400   0.109   1.024   0.323 -0.4101  0.3461 -0.1693
  134SOL    HW1  401   0.101   1.034   0.427  2.1307  0.3413  0.8407
  134SOL    HW2  402   0.015   1.022   0.280  0.3738  0.1476 -2.2951
  135SOL     OW  403   2.043   1.592   1.282 -0.6606  0.0112  0.3186
  135SOL    HW1  404   2.063   1.519   1.354 -0.3316 -2.4227  0.5182
  135SOL    HW2  405   1.948   1.565   1.247  0.5739  2.6626  1.5481
  136SOL     OW  406   2.298   0.997   0.815  0.0635  0.3077 -0.1283
  136SOL    HW1  407   2.291   0.897   0.820  1.1674  1.2946 -0.1751
  136SOL    HW2  408   2.246   1.043   0.742 -0.2445  1.7868 -1.9615
  137SOL     OW  409   2.635   1.773   0.865  0.1264  0.4999 -0.2780
  137SOL    HW1  410   2.546   1.764   0.809  0.0940  0.2705 -0.2390
  137SOL    HW2  411   2.614   1.765   0.967  0.3224 -1.3751 -1.1183
  138SOL     OW  412   1.759   0.634   1.804 -0.2396 -0.3460 -0.3945
  138SOL    HW1  413   1.733   0.601   1.898 -0.7646  1.2064  4.3493
  138SOL    HW2  414   1.823   0.567   1.765 -0.1593  0.0107  1.9821
  139SOL     OW  415   2.324   2.821   2.860  0.1410 -0.5717  0.1882
  139SOL    HW1  416   2.364   2.726   2.838  0.4942 -2.6562 -0.0607
  139SOL    HW2  417   2.367   2.895   2.804  0.0771 -0.3619  0.6514
  140SOL     OW  418   1.453   1.889   2.083 -0.1977 -0.5041 -0.1364
  140SOL    HW1  419   1.513   1.929   2.154  2.3073  0.6236 -1.8842
  140SOL    HW2  420   1.415   1.798   2.094  2.1645  0.4458  2.4168
  141SOL     OW  421   1.693   1.829   1.260 -0.4121 -0.2655 -0.2652
  141SOL    HW1  422   1.778   1.807   1.308  2.0228  1.6668 -1.2465
  141SOL    HW2  423   1.614   1.777   1.291 -0.0507  0.1170  1.3431
  142SOL     OW  424   0.074   0.273   0.043 -0.6193 -0.5239 -0.3083
  142SOL    HW1  425   0.050   0.330   3.041  0.0620  0.6820  0.0060
  142SOL    HW2  426   0.032   0.301   0.131  2.7744  0.6984 -0.0156
  143SOL     OW  427   0.210   2.086   2.645  0.1612  0.3286 -0.3090
  143SOL    HW1  428   0.237   2.013   2.714  0.9972 -3.0834  0.0102
  143SOL    HW2  429   0.279   2.165   2.650  1.0116 -0.0907 -0.5532
  144SOL     OW  430   1.225   2.876   1.854 -0.4278  0.0385  0.3386
  144SOL    HW1  431   1.320   2.897   1.847 -3.2298 -1.4824  0.3874
  144SOL    HW2  432   1.208   2.811   1.929 -0.9833  1.3683 -0.1544
  145SOL     OW  433   2.101   1.316   0.463  0.4495  0.6836  0.1578
  145SOL    HW1  434   2.090   1.412   0.505 -1.3730 -0.3928  0.2641
  145SOL    HW2  435   2.188   1.308   0.415 -0.5664 -1.3992 -0.3275
  146SOL     OW  436   2.708   2.855   2.874 -0.2044 -0.0045 -0.4983
  146SOL    HW1  437   2.712   2.889   2.776  1.3815  0.7296 -2.3657
  146SOL    HW2  438   2.800   2.836   2.913 -0.5664  1.5513  1.8952
  147SOL     OW  439   2.946   2.352   0.969  0.6618  0.1063  0.3038
  147SOL    HW1  440   3.009   2.342   1.049  1.1464 -0.8340 -1.3227
  147SOL    HW2  441   2.851   2.311   0.977 -1.1281  1.3155  0.2141
  148SOL     OW  442   1.933   0.043   2.926  0.2829 -0.1503 -0.3428
  148SOL    HW1  443   1.923   0.023   3.026  0.4584  0.5891  2.6086
  148SOL    HW2  444   1.851   0.018   2.870  1.0192  0.2373 -1.7399
  149SOL     OW  445   1.242   0.262   2.442 -0.0340  0.2266 -0.2542
  149SOL    HW1  446   1.298   0.293   2.525  1.4539 -1.3329  0.8250
  149SOL    HW2  447   1.149   0.296   2.449  1.1792 -0.6373  1.7793
  150SOL     OW  448   0.939   2.586   0.454 -0.6682  0.5190  0.1723
  150SOL    HW1  449   0.918   2.488   0.452  0.3689 -1.2325  0.6868
  150SOL    HW2  450   0.907   2.634   0.539  1.5274 -0.6491 -1.5463
  151SOL     OW  451   2.733   1.835   0.123 -0.3474 -0.0331 -0.5829
  151SOL    HW1  452   2.734   1.747   0.073  1.2748  0.8763  2.8113
  151SOL    HW2  453   2.820   1.892   0.109 -1.1241  0.3168  0.2045
  152SOL     OW  454   0.220   0.983   0.832  0.4202 -0.1732 -0.5848
  152SOL    HW1  455   0.286   0.913   0.797 -0.3336  1.0192  1.0995
  152SOL    HW2  456   0.269   1.058   0.888 -0.9683  0.7120  1.4751
  153SOL     OW  457   2.268   2.892   0.353  0.0266  0.2948 -0.4358
  153SOL    HW1  458   2.287   2.976   0.398 -1.0165 -0.8152 -1.9074
  153SOL    HW2  459   2.190   2.909   0.286 -0.2443  0.0942 -1.7275
  154SOL     OW  460   0.826   0.580   1.650  0.6151 -0.0891  0.4642
  154SOL    HW1  461   0.847   0.639   1.728 -1.2200  1.8446  1.1596
  154SOL    HW2  462   0.736   0.606   1.607  2.6844  1.5595  0.9627
  155SOL     OW  463   3.012   1.940   1.162  0.2793  0.0319 -0.3276
  155SOL    HW1  464   2.968   1.890   1.086 -1.5371  0.3302  0.7519
  155SOL    HW2  465   2.944   1.997   1.216 -1.5210  1.0946  0.7393
  156SOL     OW  466   1.829   2.118   3.055  0.1299 -0.4496  0.2214
  156SOL    HW1  467   1.856   2.060   0.055 -0.6601  0.5289  0.5486
  156SOL    HW2  468   1.913   2.150   3.011  1.4906 -0.5128  0.1666
  157SOL     OW  469   0.973   2.726   0.876 -0.1894 -0.1361 -0.0501
  157SOL    HW1  470   0.905   2.689   0.944  0.4337  0.0824 -0.4407
  157SOL    HW2  471   1.036   2.790   0.923  0.3741 -0.8465 -1.2192
  158SOL     OW  472   2.417   0.481   2.429 -0.4050 -0.2203 -0.2597
  158SOL    HW1  473   2.317   0.463   2.443 -0.6739 -0.3642 -1.4137
  158SOL    HW2  474   2.435   0.584   2.415  1.3394  1.3117  0.9593
  159SOL     OW  475   0.654   0.267   2.928 -0.1539  0.5320  0.0593
  159SOL    HW1  476   0.685   0.358   2.957 -0.2728 -1.1139 -1.1840
  159SOL    HW2  477   0.554   0.254   2.951 -0.6043  1.2350 -1.2051
  160SOL     OW  478   0.648   1.965   0.037 -0.1502  0.4983  0.1581
  160SOL    HW1  479   0.640   2.027   3.039  0.3938 -1.1306 -1.4541
  160SOL    HW2  480   0.692   1.878   3.077  1.4712 -1.1250  0.1692
  161SOL     OW  481   3.036   2.073   2.887 -0.1154  0.0840  0.2604
  161SOL    HW1  482   3.080   2.054   2.799 -1.7366  1.7815  2.7614
  161SOL    HW2  483   2.964   2.144   2.866 -0.0251 -2.6251 -0.3383
  162SOL     OW  484   0.528   2.709   1.063  0.0376  0.4744  0.6333
  162SOL    HW1  485   0.470   2.699   1.147  0.0026  0.2287 -0.8752
  162SOL    HW2  486   0.562   2.804   1.053  1.0934  0.1405  1.2603
  163SOL     OW  487   2.313   0.670   2.954 -0.8479 -0.3075 -0.2361
  163SOL    HW1  488   2.300   0.702   2.858  1.9603 -2.1840 -0.3131
  163SOL    HW2  489   2.312   0.567   2.951 -0.4824  0.9254 -1.6480
  164SOL     OW  490   2.792   2.153   0.699 -0.1669  0.0372 -0.6895
  164SOL    HW1  491   2.880   2.103   0.714  2.1691 -0.9011 -0.1332
  164SOL    HW2  492   2.749   2.173   0.789 -0.0793  1.1296 -1.6837
  165SOL     OW  493   2.999   3.050   1.448  0.0021 -0.4443  0.2179
  165SOL    HW1  494   0.001   3.038   1.506 -0.0831  0.5135 -0.9052
  165SOL    HW2  495   3.014   3.013   1.355 -0.7432  1.5632  0.8302
  166SOL     OW  496   2.098   0.362   0.762  0.2070  0.4668 -0.3601
  166SOL    HW1  497   2.103   0.457   0.798 -1.0179  0.8869 -1.5074
  166SOL    HW2  498   2.184   0.317   0.780 -0.9918 -1.8785 -0.2157
  167SOL     OW  499   0.540   0.244   1.021 -0.3969 -0.5089  0.2721
  167SOL    HW1  500   0.551   0.280   1.118 -0.7613 -0.1012 -0.2764
  167SOL    HW2  501   0.623   0.186   0.993 -0.6898 -1.4341 -0.9069
  168SOL     OW  502   2.400   3.043   2.345  0.5237 -0.5079 -0.2608
  168SOL    HW1  503   2.459   0.025   2.402  1.8704 -1.0477  1.3700
  168SOL    HW2  504   2.463   2.990   2.279  0.1240 -1.3786 -5.6996
  169SOL     OW  505   0.062   1.317   0.634 -0.6282 -0.4847 -0.3754
  169SOL    HW1  506   0.072   1.349   0.539 -0.0537  0.4854  3.1191
  169SOL    HW2  507   0.128   1.377   0.689  0.6806  1.6046 -1.8695
  170SOL     OW  508   2.724   0.848   1.240 -0.0827  0.1969  0.1137
  170SOL    HW1  509   2.700   0.755   1.198 -2.9723 -3.1807 -0.5416
  170SOL    HW2  510   2.675   0.870   1.324 -0.6528  0.2414 -1.8432
  171SOL     OW  511   1.245   2.604   1.586  1.1002  0.5705 -0.0215
  171SOL    HW1  512   1.178   2.533   1.542  0.2198 -0.7122 -3.2487
  171SOL    HW2  513   1.244   2.688   1.526  0.5688  1.2500  1.3225
  172SOL     OW  514   0.351   2.453   1.384  0.5991  0.2292  0.0866
  172SOL    HW1  515   0.338   2.363   1.335 -0.4936 -2.1292  2.3956
  172SOL    HW2  516   0.316   2.526   1.325  0.3539 -0.2093  0.5903
  173SOL     OW  517   1.505   0.075   0.127 -0.1245  0.0836 -0.2476
  173SOL    HW1  518   1.556   0.037   0.049 -0.6902  1.1723  0.6914
  173SOL    HW2  519   1.523   0.023   0.216 -1.8139  0.2180  3.4400
  174SOL     OW  520   1.194   2.268   2.762 -0.2771  0.3107 -0.0634
  174SOL    HW1  521   1.198   2.244   2.864  0.2896  0.3449  0.1991
  174SOL    HW2  522   1.130   2.205   2.719 -0.5028  0.7701  3.0800
  175SOL     OW  523   1.818   0.007   0.093 -0.6262  0.2539 -0.3231
  175SOL    HW1  524   1.793   0.021   0.193  1.4813  0.1979 -0.3273
  175SOL    HW2  525   1.743   3.053   0.031  2.0231 -1.0919  2.9366
  176SOL     OW  526   1.526   0.363   0.084 -0.6693 -0.7749 -0.2388
  176SOL    HW1  527   1.521   0.262   0.091  0.0968 -2.3231 -1.1839
  176SOL    HW2  528   1.520   0.404   0.178  0.9068  0.6180  0.9994
  177SOL     OW  529   0.688   1.548   0.632  0.4321 -0.4211 -0.5176
  177SOL    HW1  530   0.653   1.608   0.707  0.6777 -1.3128  0.7533
  177SOL    HW2  531   0.746   1.598   0.561  0.5647 -1.1088 -1.7127
  178SOL     OW  532   2.603   1.735   2.117  0.2031 -0.6246  0.0365
  178SOL    HW1  533   2.659   1.668   2.063 -0.2070  0.5505 -1.6854
  178SOL    HW2  534   2.569   1.692   2.204 -1.0806 -0.4539  1.6561
  179SOL     OW  535   0.498   2.527   2.749 -0.0705  0.8093  0.0515
  179SOL    HW1  536   0.493   2.622   2.777 -1.4517 -2.4875 -2.5174
  179SOL    HW2  537   0.562   2.520   2.667  0.4646  2.7393 -0.4466
  180SOL     OW  538   1.626   1.914   1.873 -0.0813 -0.3260  0.2768
  180SOL    HW1  539   1.719   1.878   1.882  1.6733 -0.6933 -2.4175
  180SOL    HW2  540   1.570   1.903   1.957 -1.3724 -0.9361 -1.8646
  181SOL     OW  541   1.119   1.108   2.326 -0.0483  0.1454  0.3568
  181SOL    HW1  542   1.190   1.166   2.375  1.2133 -2.2537  1.6272
  181SOL    HW2  543   1.074   1.166   2.255  0.6877  0.4488  0.6235
  182SOL     OW  544   0.144   0.544   2.684  0.2470 -0.4259 -0.2200
  182SOL    HW1  545   0.117   0.475   2.617 -0.1983 -0.8379 -0.4133
  182SOL    HW2  546   0.236   0.527   2.721 -2.1025 -2.2715  2.7301
  183SOL     OW  547   1.136   0.351   2.848  0.2125 -0.6581  0.0655
  183SOL    HW1  548   1.128   0.267   2.906 -0.7847 -0.5496 -0.5485
  183SOL    HW2  549   1.217   0.347   2.786 -2.6067  2.2989 -0.0105
  184SOL     OW  550   1.040   1.106   1.362 -0.0555  0.0431 -0.3906
  184SOL    HW1  551   1.109   1.181   1.365  0.9138  0.7078  0.1736
  184SOL    HW2  552   1.047   1.046   1.444 -0.0467  2.1482 -1.9181
  185SOL     OW  553   3.076   1.148   1.262  0.2939 -0.4938 -0.2311
  185SOL    HW1  554   0.076   1.199   1.298  1.4514  2.0200 -2.4564
  185SOL    HW2  555   2.990   1.155   1.320  0.7296 -2.7120 -4.4058
  186SOL     OW  556   0.606   1.645   2.507  0.2527 -0.2848 -0.0217
  186SOL    HW1  557   0.633   1.675   2.413 -0.2763 -0.8983 -0.8227
  186SOL    HW2  558   0.510   1.612   2.522 -1.8710  0.9854  1.8338
  187SOL     OW  559   2.595   1.478   0.266 -0.1999 -0.0588  0.7783
  187SOL    HW1  560   2.650   1.416   0.205  0.1066  0.7444  0.4888
  187SOL    HW2  561   2.656   1.517   0.335  0.6418 -0.4371  1.5960
  188SOL     OW  562   0.151   2.341   0.598  0.0076  0.1342  0.1661
  188SOL    HW1  563   0.163   2.247   0.572 -1.3760  0.5925  0.9192
  188SOL    HW2  564   0.078   2.390   0.546 -2.4446  0.4066 -0.3633
  189SOL     OW  565   2.622   1.075   0.006  0.2313  0.1544 -0.1542
  189SOL    HW1  566   2.655   1.051   2.995 -2.5790  1.8288  2.8338
  189SOL    HW2  567   2.675   1.027   0.079 -1.1784  0.9493  1.3608
  190SOL     OW  568   1.012   1.283   2.160 -0.1827 -0.3167 -0.1964
  190SOL    HW1  569   1.081   1.306   2.089  0.5010  0.6656 -0.0610
  190SOL    HW2  570   0.951   1.365   2.176 -1.3870 -1.8920  0.0410
  191SOL     OW  571   2.324   0.311   1.933 -0.0930  0.7534  0.2127
  191SOL    HW1  572   2.377   0.274   1.856 -2.6586  0.2745  2.1935
  191SOL    HW2  573   2.323   0.233   2.001  1.4490 -1.9626  2.3098
  192SOL     OW  574   2.082   0.198   1.621  0.2984 -0.0432 -0.5794
  192SOL    HW1  575   2.110   0.125   1.690  1.3656 -0.7743  3.4617
  192SOL    HW2  576   2.011   0.250   1.667 -0.7543 -0.2946 -1.2125
  193SOL     OW  577   0.984   0.406   0.672 -0.0681  0.1697 -0.0783
  193SOL    HW1  578   0.988   0.432   0.773  0.0324 -2.3009  0.3317
  193SOL    HW2  579   0.984   0.486   0.610 -0.6974  1.5030  3.4363
  194SOL     OW  580   1.407   2.974   1.172  0.3721 -0.3946 -0.2279
  194SOL    HW1  581   1.449   3.065   1.155  0.0164  1.3674 -0.5727
  194SOL    HW2  582   1.340   2.953   1.100  1.1716  2.2240  1.2904
  195SOL     OW  583   2.405   0.724   0.542  0.0363  0.3184 -0.0366
  195SOL    HW1  584   2.507   0.732   0.530  1.1253 -1.0574  1.1666
  195SOL    HW2  585   2.387   0.703   0.641 -1.4536 -2.7945  1.8415
  196SOL     OW  586   1.326   1.640   1.800  0.4355 -0.4853  0.5816
  196SOL    HW1  587   1.356   1.632   1.898  0.1660  1.1280  1.1989
  196SOL    HW2  588   1.252   1.712   1.794  1.8932  1.6772  3.5210
  197SOL     OW  589   0.064   2.899   0.506  0.3179  0.2592 -0.1435
  197SOL    HW1  590   0.120   2.980   0.530  0.2063  1.2728  0.7183
  197SOL    HW2  591   0.115   2.809   0.518 -2.1411 -4.4105  0.7790
  198SOL     OW  592   0.781   1.290   0.715  0.0916 -0.0859 -0.4434
  198SOL    HW1  593   0.727   1.367   0.680  2.3862 -0.0923  2.0881
  198SOL    HW2  594   0.753   1.201   0.673  0.3774  1.6635 -0.2020
  199SOL     OW  595   2.852   0.738   1.762  0.5411 -0.3129  0.0961
  199SOL    HW1  596   2.832   0.709   1.859 -1.9465  1.7410  2.2007
  199SOL    HW2  597   2.948   0.768   1.744  1.6639 -1.7919  0.2564
  200SOL     OW  598   2.056   1.977   2.665 -0.0596 -0.0135 -0.3179
  200SOL    HW1  599   2.060   1.891   2.606  1.4257 -3.0711  0.3448
  200SOL    HW2  600   2.150   2.011   2.685  1.5193  1.3256 -1.9838
  201SOL     OW  601   2.423   2.947   0.783 -0.1335  0.9519 -0.0379
  201SOL    HW1  602   2.487   2.899   0.718  1.5973 -1.2584  2.4260
  201SOL    HW2  603   2.348   2.881   0.802 -1.2200 -0.0268 -2.1026
  202SOL     OW  604   2.734   0.882   0.172  0.0660  0.1350  0.2961
  202SOL    HW1  605   2.687   0.824   0.100  0.8944 -2.3839 -2.5399
  202SOL    HW2  606   2.789   0.832   0.240  4.0348  1.5597 -1.8485
  203SOL     OW  607   1.341   1.437   2.277 -0.5722 -0.3223  0.4562
  203SOL    HW1  608   1.272   1.433   2.356  0.1805  1.0153 -0.1329
  203SOL    HW2  609   1.375   1.341   2.255  1.3726 -1.3827  2.1891
  204SOL     OW  610   0.834   1.776   2.194 -0.0495  0.1013  0.6412
  204SOL    HW1  611   0.826   1.861   2.139 -0.1734 -1.1233  2.1210
  204SOL    HW2  612   0.897   1.783   2.275 -0.3330  3.2024  0.1372
  205SOL     OW  613   1.256   1.941   1.628  0.4007 -0.5179  0.0817
  205SOL    HW1  614   1.184   1.894   1.688 -1.4427 -0.2163  0.9022
  205SOL    HW2  615   1.352   1.904   1.646 -0.3225 -1.8172 -0.0117
  206SOL     OW  616   0.009   0.747   2.810  0.3744 -0.1346 -0.8264
  206SOL    HW1  617   0.080   0.678   2.773 -0.5746 -1.7544 -2.1273
  206SOL    HW2  618   3.068   0.817   2.737  0.5220  1.8181 -1.8006
  207SOL     OW  619   1.643   2.647   2.435  0.0218 -0.6880 -0.6746
  207SOL    HW1  620   1.620   2.562   2.482  2.0210 -0.9296 -1.4193
  207SOL    HW2  621   1.600   2.650   2.343  0.9596  0.2567  0.3995
  208SOL     OW  622   0.350   2.218   1.704  0.1023 -0.0810 -0.2234
  208SOL    HW1  623   0.381   2.184   1.611 -0.3980  1.8621 -0.3941
  208SOL    HW2  624   0.352   2.318   1.712  0.1819 -1.7732  0.4532
  209SOL     OW  625   1.637   0.772   2.777 -0.2803  0.3028 -0.5175
  209SOL    HW1  626   1.649   0.866   2.738  0.2443 -0.2666 -0.3248
  209SOL    HW2  627   1.596   0.698   2.720 -0.8232 -0.8982 -0.1987
  210SOL     OW  628   2.420   0.695   0.807 -0.2819 -0.2075 -0.3472
  210SOL    HW1  629   2.409   0.637   0.884 -2.5876  0.5642 -0.4452
  210SOL    HW2  630   2.493   0.765   0.816 -1.9646 -0.9720 -2.9137
  211SOL     OW  631   1.009   0.605   0.910 -0.0063  0.4075 -0.2824
  211SOL    HW1  632   0.955   0.684   0.884  4.4109 -2.8223  0.3538
  211SOL    HW2  633   0.962   0.545   0.977  0.1111 -1.4335  0.8224
  212SOL     OW  634   1.182   1.516   0.570 -0.0243  0.4597 -0.6585
  212SOL    HW1  635   1.131   1.432   0.599  0.1035 -0.3459 -1.0095
  212SOL    HW2  636   1.223   1.506   0.475 -2.0175 -2.3638  0.7679
  213SOL     OW  637   1.499   3.041   1.976 -0.0641 -0.8430 -0.1489
  213SOL    HW1  638   1.433   0.007   1.917 -1.1369 -1.6396 -1.3644
  213SOL    HW2  639   1.595   3.078   1.975 -0.7629  2.9780  2.0631
  214SOL     OW  640   1.612   1.254   2.495  0.6168  0.2262 -0.1048
  214SOL    HW1  641   1.542   1.316   2.534  0.9762 -1.3207  1.1783
  214SOL    HW2  642   1.600   1.249   2.391  0.4787  2.6314 -0.7594
  215SOL     OW  643   0.448   1.568   1.099 -0.7423 -0.6936  0.1612
  215SOL    HW1  644   0.458   1.576   1.197 -0.7326 -0.7486 -1.0250
  215SOL    HW2  645   0.392   1.485   1.086 -2.4427 -1.1016  3.1052
  216SOL     OW  646   0.699   2.776   2.298 -0.0481  0.3257  0.6034
  216SOL    HW1  647   0.730   2.809   2.210  1.7057  0.1372  1.5684
  216SOL    HW2  648   0.669   2.851   2.354  1.2673 -2.6180 -1.4329
  217SOL     OW  649   2.362   0.897   0.183 -0.5263  0.9260  0.8024
  217SOL    HW1  650   2.410   0.827   0.125 -1.4729 -0.1015  0.4184
  217SOL    HW2  651   2.352   0.984   0.131 -0.0415  0.5903  1.2302
  218SOL     OW  652   2.152   1.892   2.189 -0.1728  0.1456 -0.1687
  218SOL    HW1  653   2.189   1.797   2.197  2.0231 -0.4631  0.0647
  218SOL    HW2  654   2.200   1.945   2.120 -1.2720 -1.2812  1.7856
  219SOL     OW  655   1.639   1.232   0.170  0.0365 -0.3576  0.6236
  219SOL    HW1  656   1.553   1.259   0.218 -2.3110 -0.7230 -0.6052
  219SOL    HW2  657   1.725   1.259   0.220  2.6107 -0.2073  0.2337
  220SOL     OW  658   1.303   1.786   1.176 -0.6550 -0.0289  0.1984
  220SOL    HW1  659   1.319   1.887   1.175  1.4601 -0.9168 -2.0237
  220SOL    HW2  660   1.310   1.745   1.083 -0.3623 -0.8368 -0.4887
  221SOL     OW  661   0.399   0.653   2.999 -0.1987 -0.1580  0.3676
  221SOL    HW1  662   0.321   0.717   3.009  0.6205 -0.6341 -0.7395
  221SOL    HW2  663   0.414   0.600   0.003 -2.7917 -1.1329 -0.0612
  222SOL     OW  664   1.098   2.391   1.526 -0.4499 -0.7542  0.0765
  222SOL    HW1  665   1.032   2.340   1.585  1.0717 -1.0950 -2.2150
  222SOL    HW2  666   1.178   2.336   1.512  2.2163  1.4568  1.8407
  223SOL     OW  667   1.412   2.425   2.728 -0.1073  0.1896 -0.4924
  223SOL    HW1  668   1.425   2.498   2.795  1.8847 -2.4866  0.1435
  223SOL    HW2  669   1.329   2.376   2.758  2.4436  2.0602 -1.6067
  224SOL     OW  670   2.864   1.076   0.750  0.0289  0.4346 -0.0864
  224SOL    HW1  671   2.929   1.159   0.755  0.4021  4.0753  2.3160
  224SOL    HW2  672   2.766   1.099   0.736  0.9793 -0.5460  0.7686
  225SOL     OW  673   1.356   1.135   1.546  0.7058  0.0884 -0.2238
  225SOL    HW1  674   1.414   1.186   1.612  0.0177 -2.4588 -2.9325
  225SOL    HW2  675   1.398   1.042   1.520  1.1008 -2.2519 -2.0955
  226SOL     OW  676   1.249   1.984   2.912 -0.1455 -0.4684 -0.1504
  226SOL    HW1  677   1.258   2.073   2.959  1.9383 -0.5621  0.4964
  226SOL    HW2  678   1.278   1.984   2.813 -1.0718  2.0923  0.9424
  227SOL     OW  679   1.046   1.974   1.200 -0.0087  0.1016 -0.0647
  227SOL    HW1  680   1.144   2.004   1.179  0.5030  1.5138  0.8741
  227SOL    HW2  681   1.004   2.035   1.271 -1.5451 -2.0913  0.3001
  228SOL     OW  682   0.457   1.973   0.968  1.3143 -1.0509 -0.1760
  228SOL    HW1  683   0.402   1.936   1.045 -1.6095 -0.0439 -0.8975
  228SOL    HW2  684   0.557   1.947   0.975  2.6210 -1.0964 -0.3197
  229SOL     OW  685   2.086   0.739   0.025  0.4466  0.0368 -0.2375
  229SOL    HW1  686   2.176   0.707   3.069 -2.5248 -0.7114  0.6618
  229SOL    HW2  687   2.083   0.719   0.127  1.4277  0.4932  0.6385
  230SOL     OW  688   1.178   0.957   2.076  0.2201 -0.0170  0.4004
  230SOL    HW1  689   1.238   1.020   2.025 -3.2368 -1.0584  1.4615
  230SOL    HW2  690   1.133   1.003   2.155  2.6345  1.8354 -0.5321
  231SOL     OW  691   1.311   1.623   2.078  0.3382  0.4030 -0.6847
  231SOL    HW1  692   1.216   1.651   2.062  4.2871 -1.1180  0.5459
  231SOL    HW2  693   1.314   1.559   2.158 -1.2801 -0.4266 -0.3380
  232SOL     OW  694   2.014   2.220   1.329  0.7427 -0.5063  0.3018
  232SOL    HW1  695   1.950   2.261   1.394  1.5210  0.3365  1.6513
  232SOL    HW2  696   1.976   2.209   1.234  1.4192  1.4942 -0.4375
  233SOL     OW  697   1.824   2.263   2.661  0.3499  0.4387  0.2141
  233SOL    HW1  698   1.865   2.201   2.589 -1.2480  2.1547  0.1916
  233SOL    HW2  699   1.889   2.341   2.673 -0.7285 -0.6197 -0.5510
  234SOL     OW  700   1.090   2.881   2.923  0.0110  0.1103  0.1883
  234SOL    HW1  701   1.175   2.847   2.965 -0.0999 -0.0900 -3.2371
  234SOL    HW2  702   1.086   2.982   2.934  2.5105 -0.0674 -1.1796
  235SOL     OW  703   2.541   3.042   0.188  0.5825 -0.1534 -0.2846
  235SOL    HW1  704   2.560   2.941   0.193 -1.8197  1.4335  1.5480
  235SOL    HW2  705   2.459   3.068   0.131 -1.2882 -0.0477 -1.5202
  236SOL     OW  706   2.478   2.351   2.225 -0.1136  0.8084  0.8728
  236SOL    HW1  707   2.549   2.332   2.151 -0.1836  0.8114 -1.0229
  236SOL    HW2  708   2.514   2.313   2.316  1.5732  2.4286  0.9897
  237SOL     OW  709   1.494   1.271   1.755 -0.2077 -0.3698  0.3201
  237SOL    HW1  710   1.591   1.292   1.785  3.5149  0.0677  1.2921
  237SOL    HW2  711   1.453   1.356   1.710  2.1646 -0.8238 -3.8460
  238SOL     OW  712   2.148   0.313   2.282  0.0535  0.4827 -0.3483
  238SOL    HW1  713   2.140   0.368   2.197 -1.4168 -1.6161 -1.9497
  238SOL    HW2  714   2.158   0.370   2.367 -1.3194 -2.0272 -0.3999
  239SOL     OW  715   0.327   1.773   2.149 -0.8807  0.0823  0.0833
  239SOL    HW1  716   0.422   1.751   2.186  1.2656 -0.4051 -0.1538
  239SOL    HW2  717   0.332   1.786   2.049  0.5916 -0.4286  0.7786
  240SOL     OW  718   2.684   2.654   0.761  0.2847 -0.4375  0.0261
  240SOL    HW1  719   2.777   2.616   0.734  1.8324  0.3259  1.4052
  240SOL    HW2  720   2.655   2.742   0.711 -1.1161  0.0712 -0.1917
  241SOL     OW  721   1.650   2.212   0.878 -0.6129  0.7371  0.2024
  241SOL    HW1  722   1.691   2.133   0.930 -0.1258 -1.8427  0.3033
  241SOL    HW2  723   1.668   2.206   0.778 -0.9879  1.1011 -2.1554
  242SOL     OW  724   1.176   1.504   2.843  0.4895  0.2089  0.4191
  242SOL    HW1  725   1.253   1.572   2.835 -0.7391  0.6501 -0.5282
  242SOL    HW2  726   1.098   1.537   2.787  2.9488 -0.0657  0.4752
  243SOL     OW  727   0.976   2.724   2.310  0.7121 -0.2969  0.7579
  243SOL    HW1  728   0.876   2.728   2.309  1.4647 -0.3589  0.6469
  243SOL    HW2  729   1.005   2.632   2.345 -1.2987  1.2544  0.4892
  244SOL     OW  730   2.000   0.012   2.650  0.1879 -0.2040 -0.2955
  244SOL    HW1  731   2.074   0.048   2.597 -0.8832  0.6653  1.8205
  244SOL    HW2  732   2.012   0.023   2.752  2.0206 -2.7563  0.4599
  245SOL     OW  733   1.422   2.537   0.463  0.1760  0.1911 -0.3632
  245SOL    HW1  734   1.434   2.471   0.542  0.3733  1.2229  0.6633
  245SOL    HW2  735   1.497   2.518   0.396  1.1557  0.4485  0.5582
  246SOL     OW  736   1.044   0.055   2.977  0.0011 -0.4698 -0.0908
  246SOL    HW1  737   0.954   0.073   3.026 -1.7562  1.0838  0.4304
  246SOL    HW2  738   1.124   0.043   3.044 -0.0005 -0.3827 -2.3351
  247SOL     OW  739   0.274   0.845   1.972 -0.2796 -0.0024 -0.4214
  247SOL    HW1  740   0.275   0.941   1.943 -1.2078 -0.9288  2.4953
  247SOL    HW2  741   0.307   0.779   1.899 -0.5750 -2.0203  1.1695
  248SOL     OW  742   0.869   1.190   1.931 -0.0093  0.0536 -0.6401
  248SOL    HW1  743   0.797   1.182   2.008 -1.0770 -0.6264  0.7295
  248SOL    HW2  744   0.966   1.196   1.968 -1.6861  1.6356 -1.5323
  249SOL     OW  745   2.108   0.442   0.345  0.3830  0.8348 -0.0842
  249SOL    HW1  746   2.089   0.538   0.313 -1.2561 -0.2438 -2.1087
  249SOL    HW2  747   2.111   0.384   0.260 -2.1702 -0.1805 -2.2378
  250SOL     OW  748   0.904   0.002   0.507  0.6690 -0.5079  0.0210
  250SOL    HW1  749   0.901   2.980   0.512  2.1952  0.1171 -2.3314
  250SOL    HW2  750   0.858   0.030   0.420 -0.1372  3.0019  0.2644
  251SOL     OW  751   1.759   2.918   2.800  0.1709 -0.0212  0.7617
  251SOL    HW1  752   1.709   2.880   2.718 -1.3020 -2.6245  0.7412
  251SOL    HW2  753   1.830   2.844   2.816 -1.7600 -1.8050  1.5565
  252SOL     OW  754   1.832   1.464   2.232  0.2345  0.3265 -0.1160
  252SOL    HW1  755   1.856   1.469   2.330  0.6189 -0.1226 -2.0353
  252SOL    HW2  756   1.822   1.365   2.199 -0.2233 -0.7978 -1.2160
  253SOL     OW  757   2.504   2.855   2.177 -0.2609  0.1758 -0.0645
  253SOL    HW1  758   2.581   2.793   2.217 -1.9416 -1.4388  1.5157
  253SOL    HW2  759   2.437   2.800   2.127  1.0609  1.5073  0.9756
  254SOL     OW  760   0.826   1.736   1.312  1.1298  0.7922 -0.1952
  254SOL    HW1  761   0.919   1.704   1.291  0.4987  1.3390  0.7577
  254SOL    HW2  762   0.784   1.785   1.234  0.2158  0.6014  1.4422
  255SOL     OW  763   1.158   0.795   1.070 -0.3868 -0.2484 -0.4431
  255SOL    HW1  764   1.102   0.877   1.068  1.3437 -0.6192 -0.5506
  255SOL    HW2  765   1.119   0.724   1.008  0.2098  3.0999  0.0047
  256SOL     OW  766   1.790   2.143   2.020 -0.4567 -0.4041  0.1604
  256SOL    HW1  767   1.883   2.168   2.059 -0.1834 -0.3190  2.2721
  256SOL    HW2  768   1.783   2.044   2.008 -0.7168  1.6867 -0.5777
  257SOL     OW  769   0.175   2.749   2.972  0.2814  0.1852 -0.7380
  257SOL    HW1  770   0.208   2.820   2.909 -2.4008 -0.8644  1.8352
  257SOL    HW2  771   0.222   2.664   2.949  0.5028  2.4722  1.4198
  258SOL     OW  772   0.957   0.005   2.051 -0.2465 -0.6284 -0.2297
  258SOL    HW1  773   1.010   0.047   2.129 -0.1227 -1.9905 -0.9367
  258SOL    HW2  774   1.006   0.012   1.960 -3.0709 -1.1703  2.1078
  259SOL     OW  775   1.124   0.083   2.237 -0.2457 -0.0242  0.3046
  259SOL    HW1  776   1.209   0.026   2.233  1.1811  3.2380  0.7623
  259SOL    HW2  777   1.078   0.061   2.328 -0.0553  0.6900 -0.7885
  260SOL     OW  778   1.605   0.716   0.779 -0.0995  0.6472 -0.4183
  260SOL    HW1  779   1.612   0.709   0.677  0.2850  0.7796 -4.0199
  260SOL    HW2  780   1.696   0.702   0.831 -1.3210  0.8218  0.7100
  261SOL     OW  781   0.365   0.421   2.818 -0.2341  0.4951 -0.5672
  261SOL    HW1  782   0.345   0.339   2.878  0.1203  1.2356  2.5030
  261SOL    HW2  783   0.399   0.501   2.873  1.0386 -1.3907 -0.0988
  262SOL     OW  784   2.652   2.617   2.060 -0.6699  0.0694  0.0651
  262SOL    HW1  785   2.721   2.626   2.134 -1.2417  1.9683  1.2549
  262SOL    HW2  786   2.707   2.609   1.970  1.3030  1.5233 -2.1273
  263SOL     OW  787   2.911   1.875   1.951 -0.0804  0.0807  0.0541
  263SOL    HW1  788   2.936   1.946   2.022  2.2029 -0.6140  0.1360
  263SOL    HW2  789   2.867   1.788   1.984 -0.7605  0.7638 -0.5060
  264SOL     OW  790   0.951   1.000   1.127 -0.1916 -0.4475  0.5938
  264SOL    HW1  791   0.904   1.077   1.073 -1.0678  1.3778 -0.8230
  264SOL    HW2  792   0.951   1.019   1.227  0.1538 -0.9781  1.7822
  265SOL     OW  793   0.368   1.964   0.005 -0.4220 -0.0856 -0.2475
  265SOL    HW1  794   0.458   1.926   0.031 -0.1937  2.8796 -2.9432
  265SOL    HW2  795   0.376   2.068   0.010  2.7613 -1.9314 -0.1058
  266SOL     OW  796   1.102   1.057   0.483 -0.2821  0.1659  0.2490
  266SOL    HW1  797   1.186   1.029   0.427  1.0026 -3.0737 -3.3766
  266SOL    HW2  798   1.105   1.002   0.568 -1.0907  2.3926 -0.7286
  267SOL     OW  799   2.997   1.300   0.114  0.3711 -0.0143 -0.2070
  267SOL    HW1  800   2.971   1.386   0.160  0.1841 -1.3103  0.0944
  267SOL    HW2  801   0.013   1.283   0.132 -2.5535  1.0562 -0.2570
  268SOL     OW  802   2.377   0.142   2.937  0.3483 -0.0621  0.1558
  268SOL    HW1  803   2.361   0.081   2.855  2.2976 -2.2103  2.6296
  268SOL    HW2  804   2.315   0.112   3.011  0.1676 -0.2659 -2.9988
  269SOL     OW  805   1.604   0.569   2.601 -0.8587  0.0207 -0.4861
  269SOL    HW1  806   1.637   0.478   2.635  2.5883 -1.9004 -1.4059
  269SOL    HW2  807   1.597   0.575   2.499  0.3606 -0.7703  1.1246
  270SOL     OW  808   0.858   0.858   2.858 -0.3729  0.4557  0.0927
  270SOL    HW1  809   0.919   0.854   2.774  2.2916 -0.4487  0.5272
  270SOL    HW2  810   0.902   0.793   2.925  0.7154  1.0161  1.8023
  271SOL     OW  811   2.953   1.054   0.206 -0.1040  0.1771  0.1773
  271SOL    HW1  812   2.869   1.008   0.181 -0.3182  3.1412  0.8613
  271SOL    HW2  813   2.960   1.149   0.163 -1.0876  0.3196 -0.8942
  272SOL     OW  814   3.016   1.571   2.892 -0.3532  0.1673  0.0325
  272SOL    HW1  815   2.965   1.492   2.847  1.7244 -1.8403 -2.1274
  272SOL    HW2  816   0.030   1.574   2.856  0.6864 -1.6238 -0.3667
  273SOL     OW  817   2.255   0.089   0.402  0.0465 -0.2674 -0.4046
  273SOL    HW1  818   2.317   0.145   0.465  2.6988 -0.0608 -0.3785
  273SOL    HW2  819   2.287   0.096   0.306 -2.2193  0.4720 -1.1270
  274SOL     OW  820   0.414   2.445   1.013 -0.0862 -0.4039 -0.4932
  274SOL    HW1  821   0.484   2.369   1.023  1.6359  0.1818  0.7731
  274SOL    HW2  822   0.446   2.528   1.064  1.8701  0.5776  0.6029
  275SOL     OW  823   2.376   1.360   0.408  0.0507 -0.3402  0.0954
  275SOL    HW1  824   2.446   1.387   0.337  1.0988  0.6072 -0.0286
  275SOL    HW2  825   2.400   1.272   0.456  1.1521 -1.3068  2.9197
  276SOL     OW  826   2.839   1.213   2.243  0.1725  0.0230 -0.4054
  276SOL    HW1  827   2.913   1.190   2.305 -2.7004  2.1342  0.7687
  276SOL    HW2  828   2.773   1.134   2.222 -2.0997 -4.9275  0.6911
  277SOL     OW  829   2.051   2.925   1.216 -0.2029 -0.5752 -0.5934
  277SOL    HW1  830   2.138   2.882   1.193 -2.2292  1.6007  1.2411
  277SOL    HW2  831   2.061   2.973   1.307  0.4836  1.3246 -0.8519
  278SOL     OW  832   1.416   3.010   2.218 -0.0326  0.1412 -0.1657
  278SOL    HW1  833   1.454   3.003   2.124  1.9867 -0.3487 -0.5547
  278SOL    HW2  834   1.452   0.007   2.275  2.1970  1.7718 -0.5403
  279SOL     OW  835   1.565   1.876   0.546 -0.0469 -0.3311  0.6306
  279SOL    HW1  836   1.547   1.908   0.643 -1.1391 -1.9056  0.8232
  279SOL    HW2  837   1.651   1.922   0.511  1.9602  4.8796 -1.4827
  280SOL     OW  838   0.181   1.518   0.759 -0.8929 -0.2818  0.0980
  280SOL    HW1  839   0.218   1.604   0.724 -1.3039 -3.0006  0.6803
  280SOL    HW2  840   0.159   1.535   0.857 -3.4625 -2.3201 -0.2026
  281SOL     OW  841   2.944   0.411   2.415 -0.0130  0.0906 -0.3455
  281SOL    HW1  842   3.028   0.375   2.456 -0.5092  2.2456  0.1604
  281SOL    HW2  843   2.861   0.359   2.446  0.7437 -1.8468  0.6861
  282SOL     OW  844   0.543   0.700   0.579 -0.3230 -0.1899 -0.1670
  282SOL    HW1  845   0.540   0.610   0.629 -0.4124 -1.7305 -0.9899
  282SOL    HW2  846   0.455   0.732   0.536  1.2450  0.1627 -0.8206
  283SOL     OW  847   1.534   1.694   2.993  0.4183 -0.4065  0.1837
  283SOL    HW1  848   1.572   1.790   3.015  4.4653  2.5812 -0.6479
  283SOL    HW2  849   1.611   1.629   2.990 -0.0464  0.5883  2.3812
  284SOL     OW  850   1.348   1.062   0.356 -0.0154 -0.0096 -0.3370
  284SOL    HW1  851   1.383   1.036   0.261 -2.3112  0.0250  0.2057
  284SOL    HW2  852   1.412   1.027   0.427 -1.7214  1.0055  1.5301
  285SOL     OW  853   2.000   0.842   2.654 -0.3174 -0.0539  0.5102
  285SOL    HW1  854   1.967   0.932   2.620 -1.9725 -2.1247  3.6247
  285SOL    HW2  855   1.965   0.812   2.744  0.8595  0.6833 -0.3936
  286SOL     OW  856   1.710   2.644   1.342 -0.6963  0.3106 -0.3477
  286SOL    HW1  857   1.777   2.607   1.413  2.7169 -0.5608  0.5774
  286SOL    HW2  858   1.764   2.672   1.259 -0.7800  1.3176  1.2341
  287SOL     OW  859   1.147   1.081   0.916 -0.3662  0.7631 -0.2061
  287SOL    HW1  860   1.092   1.042   0.995  0.7483 -1.8445  1.4033
  287SOL    HW2  861   1.125   1.029   0.831 -1.3031  0.7104 -1.7215
  288SOL     OW  862   0.913   2.756   0.224  0.3310  0.2912 -0.0582
  288SOL    HW1  863   0.905   2.713   0.131  2.8218  0.4940 -0.0215
  288SOL    HW2  864   0.918   2.679   0.291 -0.5796 -1.6154 -1.3133
  289SOL     OW  865   0.427   1.583   1.735 -0.0322  0.0275 -0.4656
  289SOL    HW1  866   0.522   1.633   1.734  0.4185  0.7059 -0.0327
  289SOL    HW2  867   0.364   1.623   1.664 -0.4968  0.4825 -2.7272
  290SOL     OW  868   1.658   2.457   0.995 -0.5317 -0.1705 -0.2614
  290SOL    HW1  869   1.656   2.363   0.947 -0.8344 -3.9533 -0.5022
  290SOL    HW2  870   1.568   2.488   1.017  2.3537  0.4359 -1.9313
  291SOL     OW  871   1.755   2.639   3.044  0.6988 -0.1869 -0.1965
  291SOL    HW1  872   1.848   2.672   3.033 -2.1488 -1.9405 -0.0202
  291SOL    HW2  873   1.747   2.539   3.037 -0.5913  2.5688  0.4655
  292SOL     OW  874   1.150   0.474   1.907  0.2393  0.4672  0.2471
  292SOL    HW1  875   1.195   0.508   1.825 -0.4075 -1.4456  1.3912
  292SOL    HW2  876   1.124   0.553   1.965  1.0972  1.4063  1.1611
  293SOL     OW  877   1.824   2.621   0.857  0.5018  0.3235 -0.4057
  293SOL    HW1  878   1.753   2.570   0.914 -1.0081 -2.3942 -0.4367
  293SOL    HW2  879   1.816   2.721   0.867 -1.4860 -2.3021 -1.7346
  294SOL     OW  880   0.405   0.906   2.426  0.1141  0.4593  0.2113
  294SOL    HW1  881   0.321   0.847   2.444 -3.2999 -2.4243 -0.2724
  294SOL    HW2  882   0.491   0.862   2.455 -0.7756  1.8477 -0.3348
  295SOL     OW  883   1.307   1.725   0.917  0.5808  0.7158  0.4662
  295SOL    HW1  884   1.363   1.643   0.892  0.1059 -0.1260  0.5842
  295SOL    HW2  885   1.217   1.715   0.868  0.2622 -1.5295  1.4701
  296SOL     OW  886   2.026   1.918   0.197 -0.4010  0.2440  0.0566
  296SOL    HW1  887   2.079   1.947   0.117 -1.2555  0.1300  0.5979
  296SOL    HW2  888   2.061   1.827   0.234 -3.4629 -1.3200  0.0837
  297SOL     OW  889   2.248   0.103   0.093  0.3108  0.4005 -0.4818
  297SOL    HW1  890   2.199   0.194   0.107  0.9248  0.5669 -0.9783
  297SOL    HW2  891   2.194   0.019   0.129 -1.6763 -2.5883 -0.6642
  298SOL     OW  892   1.371   2.209   2.502 -0.0017  0.7249 -0.1434
  298SOL    HW1  893   1.361   2.231   2.603 -2.3866 -1.3573 -0.6131
  298SOL    HW2  894   1.432   2.277   2.463 -2.1903 -3.5941 -1.2256
  299SOL     OW  895   1.359   2.608   2.490 -0.0691  0.0193 -0.1280
  299SOL    HW1  896   1.394   2.703   2.474 -2.0159  0.5606 -4.9446
  299SOL    HW2  897   1.397   2.576   2.579  0.3295 -0.4824  0.7035
  300SOL     OW  898   2.369   0.059   2.682  0.4236  0.5476 -0.5200
  300SOL    HW1  899   2.295   0.083   2.617 -0.1511 -1.4258  0.8015
  300SOL    HW2  900   2.466   0.084   2.649 -0.2151  2.0255 -0.1892
  301SOL     OW  901   1.417   0.818   2.207 -0.2736 -0.2072 -0.2119
  301SOL    HW1  902   1.497   0.869   2.175 -2.2391 -0.9166 -0.1365
  301SOL    HW2  903   1.363   0.778   2.128  0.3831  1.3811 -2.7986
  302SOL     OW  904   2.320   2.318   0.233  0.4574  0.0398  0.0960
  302SOL    HW1  905   2.248   2.255   0.267 -2.6720 -1.4631 -3.0179
  302SOL    HW2  906   2.412   2.301   0.277  1.2685 -1.0491  1.4819
  303SOL     OW  907   2.888   2.490   2.273  0.5933 -0.5993 -0.0275
  303SOL    HW1  908   2.931   2.440   2.196  0.3766 -4.2045  4.1448
  303SOL    HW2  909   2.916   2.450   2.360 -0.5911  1.8497  0.8037
  304SOL     OW  910   2.831   0.648   1.508  0.2942  0.0106 -0.0316
  304SOL    HW1  911   2.833   0.672   1.611  0.7956  2.5484  2.2515
  304SOL    HW2  912   2.761   0.572   1.492 -0.7118  1.3245 -2.3438
  305SOL     OW  913   0.636   2.166   1.630 -0.0489  0.0581 -0.1353
  305SOL    HW1  914   0.665   2.256   1.674  0.8175  0.8979  2.5261
  305SOL    HW2  915   0.560   2.187   1.565  2.7439  0.7259  1.1628
  306SOL     OW  916   2.858   0.954   1.570 -0.3247  0.3792  0.0410
  306SOL    HW1  917   2.829   0.860   1.554  1.4807  1.9518  1.5216
  306SOL    HW2  918   2.960   0.964   1.587  0.9214 -0.9757 -0.0969
  307SOL     OW  919   1.456   0.627   1.935 -0.7021  0.0274 -0.0182
  307SOL    HW1  920   1.496   0.544   1.978 -2.1660  0.2561 -1.5307
  307SOL    HW2  921   1.413   0.610   1.845 -1.7278 -0.1311 -0.0135
  308SOL     OW  922   2.899   1.518   1.123  0.4387  0.0894  0.3215
  308SOL    HW1  923   2.986   1.484   1.078  0.7576  0.3962  0.6217
  308SOL    HW2  924   2.817   1.489   1.063  0.7131 -0.8451 -0.5885
  309SOL     OW  925   2.501   1.361   0.827 -0.1188  0.0376 -0.3846
  309SOL    HW1  926   2.404   1.377   0.826  2.8823 -1.0405  2.1193
  309SOL    HW2  927   2.552   1.415   0.905  3.6563  0.7759  3.1609
  310SOL     OW  928   2.676   1.634   2.620  0.1870  0.3771 -0.5683
  310SOL    HW1  929   2.605   1.579   2.671  1.3935 -1.4627  0.9572
  310SOL    HW2  930   2.728   1.700   2.676 -0.7986  0.0381 -1.4085
  311SOL     OW  931   0.033   2.641   2.681 -0.0368 -0.1367  0.6014
  311SOL    HW1  932   3.033   2.578   2.689  0.9420  0.4958  0.4762
  311SOL    HW2  933   0.100   2.611   2.749 -1.9307 -1.7554  1.7281
  312SOL     OW  934   1.938   1.756   0.871  0.5672  0.3515  0.2725
  312SOL    HW1  935   1.918   1.754   0.769 -0.9756  0.9436 -2.7280
  312SOL    HW2  936   1.924   1.666   0.919  2.5472 -0.0854 -1.1714
  313SOL     OW  937   2.606   3.067   0.955 -0.1620  0.1907 -0.4414
  313SOL    HW1  938   2.535   3.022   0.899 -2.5634  2.3244  1.3948
  313SOL    HW2  939   2.622   0.085   0.931  1.2308  4.1372  4.6794
  314SOL     OW  940   1.313   1.524   0.327 -0.3109 -0.4699 -0.5115
  314SOL    HW1  941   1.373   1.456   0.365 -0.0382  0.3698 -0.6326
  314SOL    HW2  942   1.305   1.519   0.225  0.4033 -2.0988  0.7925
  315SOL     OW  943   1.421   2.432   2.267 -0.0515  0.0592  0.1072
  315SOL    HW1  944   1.389   2.473   2.350  0.6104 -2.7014 -3.4779
  315SOL    HW2  945   1.366   2.462   2.184 -0.4494  1.0052 -2.8340
  316SOL     OW  946   0.012   0.772   0.477 -0.3826  0.7621  0.5369
  316SOL    HW1  947   3.028   0.849   0.506 -0.9623  1.4065 -0.0341
  316SOL    HW2  948   0.105   0.806   0.477  0.2867  0.5003  0.4524
  317SOL     OW  949   0.563   2.985   0.367 -0.6421  0.1794  0.3437
  317SOL    HW1  950   0.570   2.950   0.461  0.1054  0.5764 -3.5202
  317SOL    HW2  951   0.657   2.995   0.327  1.5213 -1.1835  0.2367
  318SOL     OW  952   2.089   2.408   0.559 -0.1947 -0.1413  0.2268
  318SOL    HW1  953   2.076   2.306   0.565 -0.1682 -0.6117  0.0443
  318SOL    HW2  954   2.060   2.455   0.470 -0.7362  3.2312  0.0585
  319SOL     OW  955   0.745   1.370   2.533  0.0637  0.0708 -0.4097
  319SOL    HW1  956   0.725   1.464   2.504  0.6154  2.0868  0.2657
  319SOL    HW2  957   0.664   1.306   2.514 -2.0775 -3.3727 -2.1132
  320SOL     OW  958   0.251   2.579   1.981  0.1409  0.4663  0.3363
  320SOL    HW1  959   0.303   2.665   1.951  0.7471 -0.8177 -1.7112
  320SOL    HW2  960   0.156   2.575   1.935 -0.8325  0.2093 -1.6466
  321SOL     OW  961   1.490   2.276   2.969  0.2038  0.2387  0.3352
  321SOL    HW1  962   1.563   2.349   2.984  1.7502 -1.0021 -1.1819
  321SOL    HW2  963   1.511   2.223   2.883  2.0764 -2.0573  1.2437
  322SOL     OW  964   2.950   1.389   2.058 -0.1750 -0.1709  0.4415
  322SOL    HW1  965   2.916   1.312   2.118  0.8852  0.4090 -4.7020
  322SOL    HW2  966   2.956   1.344   1.966 -1.5863  1.3135 -1.5314
  323SOL     OW  967   2.410   1.096   0.499  0.2200  0.1856 -0.1802
  323SOL    HW1  968   2.315   1.090   0.539 -1.5539 -0.5939 -0.1476
  323SOL    HW2  969   2.425   1.016   0.436  0.1123 -1.1625 -1.8613
  324SOL     OW  970   3.003   3.054   3.015 -0.4364 -0.2455 -0.1511
  324SOL    HW1  971   2.913   0.008   3.056 -1.5304 -0.3573  1.6176
  324SOL    HW2  972   2.986   2.962   2.969  1.1425  0.6172 -1.4572
  325SOL     OW  973   1.478   0.143   2.382  0.2339 -0.3379  0.3521
  325SOL    HW1  974   1.509   0.111   2.474 -1.8882  2.2709 -0.2296
  325SOL    HW2  975   1.378   0.157   2.378  0.0670  1.2958  0.9988
  326SOL     OW  976   2.239   2.653   1.685  0.4691 -0.5237 -0.5805
  326SOL    HW1  977   2.200   2.656   1.777  1.4712  1.6691 -1.1196
  326SOL    HW2  978   2.279   2.564   1.669 -1.0563  0.2507  2.1204
  327SOL     OW  979   1.884   0.320   2.895  0.3881  0.3698  0.4667
  327SOL    HW1  980   1.932   0.237   2.926  3.1470  1.2940 -0.6573
  327SOL    HW2  981   1.854   0.375   2.976  0.5955 -1.2173 -5.3579
  328SOL     OW  982   2.934   0.896   2.198 -0.0494 -0.6706 -0.5691
  328SOL    HW1  983   3.008   0.965   2.183  1.5118  0.0505 -0.3086
  328SOL    HW2  984   2.844   0.945   2.195 -0.9774  0.5027 -0.8858
  329SOL     OW  985   1.724   0.080   1.902 -0.4459 -0.3994  0.5536
  329SOL    HW1  986   1.680   0.158   1.853 -0.6944  0.2533  1.0174
  329SOL    HW2  987   1.752   0.115   1.994 -0.6027 -2.0377 -1.6865
  330SOL     OW  988   2.763   1.748   1.215 -0.0036  0.0498 -0.0683
  330SOL    HW1  989   2.830   1.676   1.186 -0.8667 -0.1603 -1.0423
  330SOL    HW2  990   2.798   1.813   1.282  0.9412 -1.4176 -1.5413
  331SOL     OW  991   0.573   1.680   2.207  0.1502  0.1792 -0.2087
  331SOL    HW1  992   0.639   1.745   2.176 -0.9039 -0.4389 -0.2300
  331SOL    HW2  993   0.573   1.592   2.154  4.1812 -0.4193 -0.3692
  332SOL     OW  994   0.378   2.829   1.393  0.1974  0.2191 -0.1041
  332SOL    HW1  995   0.397   2.796   1.488 -0.6360 -0.3070  1.2966
  332SOL    HW2  996   0.402   2.928   1.385 -0.3047  0.6288 -2.0012
  333SOL     OW  997   2.329   2.678   1.405 -0.1254  0.4985 -0.2778
  333SOL    HW1  998   2.312   2.662   1.503 -0.7130  0.0421 -1.1330
  333SOL    HW2  999   2.282   2.602   1.356 -0.8209  1.1359 -0.0973
  334SOL     OW 1000   0.698   1.880   1.033 -0.0569 -0.6096  0.1053
  334SOL    HW1 1001   0.679   1.948   1.100  2.4816 -0.3388 -2.2182
  334SOL    HW2 1002   0.799   1.886   1.021 -0.4559  1.0061 -0.2455
  335SOL     OW 1003   0.066   2.311   3.045  0.0302  0.5051  0.0290
  335SOL    HW1 1004   0.012   2.237   3.001 -1.9567 -0.3167 -1.9937
  335SOL    HW2 1005   0.010   2.350   0.038  0.8678 -3.8530 -0.7791
  336SOL     OW 1006   0.562   0.036   2.040 -0.1868  0.6378  0.2174
  336SOL    HW1 1007   0.487   0.074   2.098 -0.0704  0.2728  2.4326
  336SOL    HW2 1008   0.632   0.105   2.022 -1.4159 -1.6991 -1.4165
  337SOL     OW 1009   2.571   1.894   2.930 -0.1472 -0.4814  0.2373
  337SOL    HW1 1010   2.493   1.828   2.952  2.4131  0.4950  0.8468
  337SOL    HW2 1011   2.659   1.839   2.922 -0.0224  0.3379 -1.6749
  338SOL     OW 1012   1.055   1.642   1.197  0.3407 -0.2391  0.1209
  338SOL    HW1 1013   1.123   1.717   1.204 -0.8172  0.5785  0.6018
  338SOL    HW2 1014   1.079   1.583   1.116 -1.6827  2.1992  0.5100
  339SOL     OW 1015   0.084   0.414   1.905 -0.0285 -0.3918  0.2064
  339SOL    HW1 1016   3.069   0.380   1.911  0.1370 -0.5355  0.6822
  339SOL    HW2 1017   0.098   0.492   1.971 -1.1868  0.4504  2.8792
  340SOL     OW 1018   1.578   2.431   0.270 -0.0539 -0.0187  0.9470
  340SOL    HW1 1019   1.521   2.346   0.271 -0.0003 -0.8524  0.6729
  340SOL    HW2 1020   1.678   2.403   0.277  0.6692 -0.3845  2.2509
  341SOL     OW 1021   1.819   1.480   1.222  0.6269 -0.2239  0.1447
  341SOL    HW1 1022   1.832   1.381   1.238  0.8641  2.3642  0.0674
  341SOL    HW2 1023   1.720   1.506   1.226  0.5963 -0.3571  1.9120
  342SOL     OW 1024   2.895   2.344   0.525 -0.3227 -0.3117 -0.1560
  342SOL    HW1 1025   2.872   2.279   0.599 -1.1441 -1.2102 -0.5280
  342SOL    HW2 1026   2.837   2.331   0.441 -0.2003  0.0758  0.7650
  343SOL     OW 1027   1.378   2.459   1.081  0.5020  0.7061  0.1415
  343SOL    HW1 1028   1.412   2.538   1.139 -2.0631  2.9990  0.8959
  343SOL    HW2 1029   1.278   2.439   1.102 -2.0726 -0.0917 -1.3443
  344SOL     OW 1030   2.182   2.809   0.792 -0.2577 -0.1897  0.4582
  344SOL    HW1 1031   2.102   2.865   0.773  1.4962 -1.3612  0.0276
  344SOL    HW2 1032   2.212   2.754   0.709 -0.1970 -4.3549 -1.0309
  345SOL     OW 1033   2.775   1.910   2.653 -0.3566 -0.2712 -0.0554
  345SOL    HW1 1034   2.772   1.906   2.752  2.4826 -1.0300  2.3589
  345SOL    HW2 1035   2.858   1.950   2.614 -2.8887 -1.7538 -0.6402
  346SOL     OW 1036   2.958   1.800   0.931 -0.1007  0.0725 -0.9683
  346SOL    HW1 1037   2.865   1.767   0.933 -0.9359 -2.8447 -0.5879
  346SOL    HW2 1038   3.023   1.724   0.946  0.3020  4.0601  1.0727
  347SOL     OW 1039   1.945   2.499   1.232  0.3593  0.3218  0.0206
  347SOL    HW1 1040   1.944   2.514   1.334 -0.2631  0.9778 -0.2870
  347SOL    HW2 1041   1.916   2.585   1.188 -0.4822 -1.2724 -1.5163
  348SOL     OW 1042   0.963   1.642   2.706 -0.2384  0.1513 -0.1195
  348SOL    HW1 1043   0.949   1.682   2.610 -0.0648 -1.3704 -0.6020
  348SOL    HW2 1044   0.869   1.629   2.742  0.3574  2.5528  0.6074
  349SOL     OW 1045   2.254   1.405   1.833  0.2570  0.3185 -0.5505
  349SOL    HW1 1046   2.162   1.430   1.796  0.5384 -0.4745 -1.0162
  349SOL    HW2 1047   2.297   1.493   1.871 -0.2987  0.4766  2.0736
  350SOL     OW 1048   0.081   2.368   1.110 -0.8173  0.2111 -0.1849
  350SOL    HW1 1049   0.159   2.431   1.109  0.9040  0.2779 -2.4640
  350SOL    HW2 1050   0.118   2.277   1.089  1.3335  3.2446  0.3872
  351SOL     OW 1051   0.400   0.594   2.344 -0.4322 -0.1125  0.5238
  351SOL    HW1 1052   0.323   0.633   2.400 -1.3527 -0.2649  0.5165
  351SOL    HW2 1053   0.376   0.525   2.272  2.0873  0.9379 -3.3856
  352SOL     OW 1054   0.598   2.455   1.484 -0.7222 -0.4109 -0.6928
  352SOL    HW1 1055   0.629   2.530   1.552  0.3170  3.0430 -0.4957
  352SOL    HW2 1056   0.507   2.482   1.447  0.5711  1.7313  2.3427
  353SOL     OW 1057   1.070   1.463   2.446 -0.7352 -0.5532 -0.4595
  353SOL    HW1 1058   1.076   1.389   2.509  0.7291 -0.1229 -2.6623
  353SOL    HW2 1059   0.999   1.449   2.372 -1.0170 -2.2665 -0.4923
  354SOL     OW 1060   1.503   0.997   0.587  0.0084 -0.4756 -0.0102
  354SOL    HW1 1061   1.572   1.004   0.665 -0.0880  0.5639 -0.3950
  354SOL    HW2 1062   1.438   0.918   0.611 -1.6901 -0.7429 -4.1799
  355SOL     OW 1063   2.688   0.757   0.515  0.2870  0.2595 -0.4801
  355SOL    HW1 1064   2.725   0.717   0.430  0.7856  0.8135  0.3796
  355SOL    HW2 1065   2.757   0.821   0.554  0.0102 -0.1882 -0.5749
  356SOL     OW 1066   2.540   1.027   2.675 -0.0520 -0.3250 -0.2534
  356SOL    HW1 1067   2.618   1.004   2.736  0.5304  1.0387  0.3020
  356SOL    HW2 1068   2.450   1.013   2.722  0.4975 -0.7213  1.4194
  357SOL     OW 1069   0.699   2.662   1.666  0.2421  0.4062  0.1192
  357SOL    HW1 1070   0.773   2.716   1.619  3.3410  1.5441 -1.2287
  357SOL    HW2 1071   0.722   2.657   1.769 -1.9162  0.0403 -0.8197
  358SOL     OW 1072   2.250   1.209   2.040  0.1872 -0.0397  0.1067
  358SOL    HW1 1073   2.240   1.262   1.957  0.3259 -1.7156  0.5138
  358SOL    HW2 1074   2.304   1.128   2.020 -1.3453  0.9745  2.2497
  359SOL     OW 1075   2.056   2.221   2.949  0.0809 -0.5292  0.1099
  359SOL    HW1 1076   2.013   2.273   2.869  0.1378 -0.3760 -0.7929
  359SOL    HW2 1077   2.156   2.251   2.959  3.0369  1.1405  0.6336
  360SOL     OW 1078   2.149   0.586   0.904 -0.2466  0.1926 -0.1570
  360SOL    HW1 1079   2.220   0.585   0.976 -0.4413  1.5503 -2.5363
  360SOL    HW2 1080   2.159   0.668   0.846 -1.1839  1.1227 -0.8473
  361SOL     OW 1081   2.097   0.009   0.955 -0.5316 -0.0238 -0.0702
  361SOL    HW1 1082   2.106   2.992   0.982  0.1219 -2.1878  1.0057
  361SOL    HW2 1083   2.188   0.044   0.921 -1.1951 -1.7760  1.7504
  362SOL     OW 1084   1.373   1.249   0.653 -0.1055  0.7761  0.1543
  362SOL    HW1 1085   1.271   1.243   0.642  2.3917  0.3465  0.0645
  362SOL    HW2 1086   1.410   1.162   0.612 -0.2544  0.0133  1.3688
  363SOL     OW 1087   2.515   1.601   2.338 -0.1961  0.1787 -0.5520
  363SOL    HW1 1088   2.554   1.513   2.367  0.6582 -1.8165 -1.9140
  363SOL    HW2 1089   2.540   1.668   2.410  0.7603  0.9089  2.0276
  364SOL     OW 1090   1.308   0.713   1.278  0.3717  0.4707 -0.3841
  364SOL    HW1 1091   1.407   0.706   1.256  1.2830 -2.1015  0.5604
  364SOL    HW2 1092   1.252   0.747   1.198 -0.3790  1.9183  0.5807
  365SOL     OW 1093   0.335   2.986   1.028  0.4286 -0.4729  0.2142
  365SOL    HW1 1094   0.271   3.028   1.096  1.4917  2.1300 -1.5997
  365SOL    HW2 1095   0.301   2.895   0.991 -1.0574 -1.1251 -1.0096
  366SOL     OW 1096   2.756   1.605   0.449 -0.6520  0.2445  0.7705
  366SOL    HW1 1097   2.766   1.577   0.545  1.2767  0.2815 -1.5392
  366SOL    HW2 1098   2.750   1.706   0.442  1.8497 -0.9372 -0.7613
  367SOL     OW 1099   2.862   2.281   2.854 -0.7084  0.1560 -0.1536
  367SOL    HW1 1100   2.866   2.376   2.821 -1.1645 -2.3023  0.4227
  367SOL    HW2 1101   2.767   2.242   2.847  0.9305  1.7427  0.4746
  368SOL     OW 1102   0.061   2.198   0.834 -0.2014  0.1626 -0.0077
  368SOL    HW1 1103   0.101   2.238   0.745  0.1592  1.9907  1.1361
  368SOL    HW2 1104   3.060   2.245   0.867 -0.6303 -2.4598 -0.6310
  369SOL     OW 1105   0.586   0.186   0.424  0.3417 -0.6597 -0.1356
  369SOL    HW1 1106   0.569   0.092   0.392 -0.7318  1.1488 -0.2601
  369SOL    HW2 1107   0.659   0.231   0.368  0.4853  1.0941  0.2330
  370SOL     OW 1108   0.232   0.754   1.435 -0.1099  0.3369  0.0665
  370SOL    HW1 1109   0.254   0.656   1.454 -0.0506 -0.5239 -0.6774
  370SOL    HW2 1110   0.297   0.815   1.481 -2.5193 -1.7697 -0.2596
  371SOL     OW 1111   2.009   2.424   0.830  0.5796 -0.0069  0.2363
  371SOL    HW1 1112   2.035   2.413   0.735  0.5021  1.6142  2.6632
  371SOL    HW2 1113   1.934   2.496   0.840 -0.9712 -1.2889 -0.2802
  372SOL     OW 1114   0.232   1.174   2.712  0.0084 -0.1964  0.0369
  372SOL    HW1 1115   0.214   1.254   2.646 -0.7809  4.0340 -0.6344
  372SOL    HW2 1116   0.218   1.209   2.807 -0.3636 -0.9527 -0.2663
  373SOL     OW 1117   2.730   1.506   0.737 -0.0027  0.3122  0.7191
  373SOL    HW1 1118   2.702   1.593   0.789  0.3035 -2.3199 -1.5130
  373SOL    HW2 1119   2.653   1.441   0.740  1.2479  0.4234 -0.0802
  374SOL     OW 1120   0.349   2.306   0.294  0.0099  0.6107  0.0927
  374SOL    HW1 1121   0.405   2.245   0.357 -0.3375 -0.3617  1.7783
  374SOL    HW2 1122   0.361   2.279   0.193  2.2107  0.8893 -1.4929
  375SOL     OW 1123   0.829   0.225   0.288  0.3031  0.2283 -0.0784
  375SOL    HW1 1124   0.923   0.188   0.259  2.0437  3.1374 -0.7005
  375SOL    HW2 1125   0.839   0.322   0.312  0.8068 -1.4731 -3.5549
  376SOL     OW 1126   0.419   2.935   1.828  0.6269 -0.3292  0.0794
  376SOL    HW1 1127   0.493   2.999   1.860 -0.7601  1.5292 -2.1966
  376SOL    HW2 1128   0.348   2.908   1.900  1.9008 -0.2420 -1.0027
  377SOL     OW 1129   0.981   2.270   2.379  0.2927 -0.1221  0.4091
  377SOL    HW1 1130   1.039   2.192   2.365 -3.2981  1.2648  0.2846
  377SOL    HW2 1131   1.038   2.348   2.412 -3.2890  1.9430 -0.6394
  378SOL     OW 1132   1.095   0.913   0.697 -0.6234 -0.1207  0.6632
  378SOL    HW1 1133   1.022   0.857   0.738  1.9876  1.6885 -2.4817
  378SOL    HW2 1134   1.183   0.864   0.685  0.7855 -1.4547  0.8517
  379SOL     OW 1135   0.777   1.761   3.007  0.5023 -0.4054  0.0317
  379SOL    HW1 1136   0.765   1.671   2.967  1.4479  0.4206  0.0963
  379SOL    HW2 1137   0.877   1.783   3.007  1.2867  1.5023  0.1869
  380SOL     OW 1138   2.746   1.910   1.447 -0.1402  0.0247 -0.2450
  380SOL    HW1 1139   2.817   1.878   1.512 -1.8095  1.1660  0.7149
  380SOL    HW2 1140   2.771   2.000   1.410 -0.4573 -2.2648  0.9332
  381SOL     OW 1141   0.073   1.071   1.860 -0.3588 -0.0067 -0.3830
  381SOL    HW1 1142   0.171   1.106   1.853  2.1316 -2.2048 -1.8578
  381SOL    HW2 1143   0.067   0.977   1.817  0.4176 -1.6565  1.6229
  382SOL     OW 1144   2.337   2.269   2.967  0.4534  1.0519 -0.4775
  382SOL    HW1 1145   2.325   2.360   2.916  1.2047  0.0318 -2.0638
  382SOL    HW2 1146   2.417   2.269   3.031 -1.5521 -3.1059  0.1700
  383SOL     OW 1147   2.279   2.035   1.986 -0.2837  0.2259 -0.3505
  383SOL    HW1 1148   2.378   2.040   1.974 -0.0045 -0.8077  2.7037
  383SOL    HW2 1149   2.235   2.120   2.025 -2.2490  2.9275  0.1384
  384SOL     OW 1150   0.828   2.244   2.133  0.0330  0.3191  0.8450
  384SOL    HW1 1151   0.854   2.285   2.223  1.3456  0.6875 -1.9389
  384SOL    HW2 1152   0.804   2.309   2.057 -0.2100 -0.9904  1.5594
  385SOL     OW 1153   2.538   2.045   1.014  0.8014 -0.1635 -0.4502
  385SOL    HW1 1154   2.443   2.014   1.042 -3.0031  0.6431 -0.3809
  385SOL    HW2 1155   2.587   1.978   0.959 -2.4690  2.0364  0.1945
  386SOL     OW 1156   1.854   0.527   0.017  0.2534 -0.3786 -0.0792
  386SOL    HW1 1157   1.954   0.551   0.031 -0.0660 -0.3548  0.7187
  386SOL    HW2 1158   1.794   0.581   0.083 -0.2424 -3.5753 -0.1329
  387SOL     OW 1159   0.600   0.727   1.910  0.4776 -0.1236  0.1770
  387SOL    HW1 1160   0.516   0.700   1.858 -0.7280 -1.5455  0.9462
  387SOL    HW2 1161   0.585   0.701   2.005  0.7710  0.2716 -1.9579
  388SOL     OW 1162   2.763   1.157   1.751  0.2738  0.4397 -0.1099
  388SOL    HW1 1163   2.777   1.082   1.683 -0.4632 -1.3346 -1.6275
  388SOL    HW2 1164   2.850   1.195   1.786 -0.9776 -0.7902 -0.3849
  389SOL     OW 1165   1.621   0.586   2.309  0.0857  0.0982  0.1403
  389SOL    HW1 1166   1.560   0.638   2.248  1.6334 -0.8273 -3.0767
  389SOL    HW2 1167   1.609   0.491   2.274  2.5255  1.1535 -0.9550
  390SOL     OW 1168   1.833   2.358   0.304  0.3595  0.7527  0.4731
  390SOL    HW1 1169   1.886   2.272   0.294  0.8773 -0.4600 -1.3471
  390SOL    HW2 1170   1.891   2.436   0.334  2.4935 -0.0643  1.4912
  391SOL     OW 1171   1.873   2.745   1.130 -0.0798 -0.4202 -1.0109
  391SOL    HW1 1172   1.839   2.787   1.045 -1.8914 -0.5790  1.5791
  391SOL    HW2 1173   1.938   2.814   1.170 -1.3713 -1.2176  0.3251
  392SOL     OW 1174   2.708   2.500   1.209 -0.1109 -0.2139  0.1282
  392SOL    HW1 1175   2.714   2.543   1.114  0.6426 -0.3299 -3.9422
  392SOL    HW2 1176   2.667   2.407   1.208  0.2265 -1.5602  0.9247
  393SOL     OW 1177   1.741   1.664   2.753 -0.1583  0.2318  0.0540
  393SOL    HW1 1178   1.769   1.741   2.815  0.2265 -3.0998  1.6442
  393SOL    HW2 1179   1.771   1.574   2.790  3.8038 -2.2046  1.7664
  394SOL     OW 1180   0.150   2.680   0.153 -0.1642  0.3441  0.2903
  394SOL    HW1 1181   0.167   2.696   0.054 -0.6381 -2.7517 -0.9637
  394SOL    HW2 1182   0.094   2.759   0.190 -0.5003 -1.0046 -0.1459
  395SOL     OW 1183   1.238   1.293   1.356  0.2290  0.1315 -0.2011
  395SOL    HW1 1184   1.312   1.244   1.407 -0.1559 -1.7395 -2.0128
  395SOL    HW2 1185   1.269   1.323   1.262 -0.8183 -2.7875 -0.5940
  396SOL     OW 1186   1.890   0.730   2.861  0.4668  0.2240 -0.3807
  396SOL    HW1 1187   1.798   0.727   2.819  2.2551  0.9816 -0.6626
  396SOL    HW2 1188   1.887   0.691   2.954  1.1690 -1.1608 -1.4287
  397SOL     OW 1189   0.033   0.980   2.647  0.0014 -0.1825  0.4589
  397SOL    HW1 1190   3.072   1.017   2.562  1.4555 -0.0212 -2.8696
  397SOL    HW2 1191   0.110   1.039   2.673 -1.9131 -3.1075  0.2065
  398SOL     OW 1192   1.154   0.503   0.007 -0.0996  0.4302  0.0021
  398SOL    HW1 1193   1.248   0.529   3.065 -1.7347  2.0785 -2.5528
  398SOL    HW2 1194   1.118   0.430   3.021 -0.3020 -4.0271  0.0376
  399SOL     OW 1195   2.156   3.078   1.780 -0.4479  0.0222 -0.0116
  399SOL    HW1 1196   2.237   3.018   1.764  1.5824 -2.7141 -2.1090
  399SOL    HW2 1197   2.065   3.025   1.762 -0.8602  3.2947 -1.2344
  400SOL     OW 1198   3.041   1.516   2.283 -0.6197  0.1552  0.1824
  400SOL    HW1 1199   2.996   1.453   2.213  0.3627  2.0971  1.5070
  400SOL    HW2 1200   3.005   1.499   2.377 -0.2477 -0.4537 -0.0877
  401SOL     OW 1201   0.797   0.102   0.016  0.2526 -0.0977 -0.6000
  401SOL    HW1 1202   0.795   0.166   0.095  1.0635 -0.3445 -0.7140
  401SOL    HW2 1203   0.742   0.139   3.018 -0.3439  1.9364  1.2900
  402SOL     OW 1204   0.275   2.499   1.630  0.0896  0.3881  0.6932
  402SOL    HW1 1205   0.304   2.473   1.530 -1.0469 -2.8221  2.4104
  402SOL    HW2 1206   0.321   2.584   1.663  0.0431  1.4867 -1.4353
  403SOL     OW 1207   0.434   1.545   1.366 -0.3553 -0.4943 -0.1644
  403SOL    HW1 1208   0.425   1.446   1.390  1.4592 -0.1963 -0.4933
  403SOL    HW2 1209   0.521   1.590   1.399  3.2282  0.1083 -1.2216
  404SOL     OW 1210   2.946   2.766   1.884 -0.1472 -0.1401  0.3513
  404SOL    HW1 1211   2.926   2.813   1.796 -0.5664  0.7291  1.7009
  404SOL    HW2 1212   2.920   2.832   1.963  0.5116 -1.3948  1.2934
  405SOL     OW 1213   2.811   0.457   2.189  0.0475 -0.0586  0.3988
  405SOL    HW1 1214   2.728   0.396   2.196 -1.6920 -3.1754 -1.0731
  405SOL    HW2 1215   2.870   0.456   2.269  1.6134  1.3069 -1.7740
  406SOL     OW 1216   1.735   2.382   0.003 -0.0690  0.0785 -0.3974
  406SOL    HW1 1217   1.769   2.406   0.098 -0.3716  2.1743 -2.0934
  406SOL    HW2 1218   1.743   2.280   3.076 -1.6291  2.0654 -0.3193
  407SOL     OW 1219   1.716   1.921   0.979 -0.3048  0.0930  0.1679
  407SOL    HW1 1220   1.805   1.885   0.940 -0.9598 -0.8545  2.9862
  407SOL    HW2 1221   1.701   1.874   1.067 -1.9660 -0.2838  0.5656
  408SOL     OW 1222   0.700   0.303   2.241  0.4954  0.2795  0.4643
  408SOL    HW1 1223   0.768   0.376   2.260 -0.3338  0.8380 -1.0747
  408SOL    HW2 1224   0.720   0.255   2.151  0.6270 -1.8224 -5.1346
  409SOL     OW 1225   2.342   2.039   0.592 -0.1366 -0.2610 -0.3220
  409SOL    HW1 1226   2.332   2.098   0.678 -1.1632  2.7977  2.7013
  409SOL    HW2 1227   2.443   2.037   0.561  2.1291  0.6038 -1.1783
  410SOL     OW 1228   2.283   1.632   0.482  0.4372  0.0970  0.5844
  410SOL    HW1 1229   2.326   1.539   0.472  0.4411 -1.3571  1.0316
  410SOL    HW2 1230   2.317   1.680   0.568  1.0870 -0.2439  1.7921
  411SOL     OW 1231   3.003   0.513   0.512 -0.4173  0.0591 -0.2293
  411SOL    HW1 1232   3.068   0.472   0.576  3.4912  1.2770 -1.8347
  411SOL    HW2 1233   3.030   0.607   0.488  1.0135  0.7940 -1.8325
  412SOL     OW 1234   1.743   0.723   0.185  0.3097 -0.4168  0.3281
  412SOL    HW1 1235   1.670   0.717   0.252  1.1055  1.6274 -2.2113
  412SOL    HW2 1236   1.753   0.820   0.154  1.8717 -0.0340 -2.5379
  413SOL     OW 1237   0.750   0.884   1.435  0.0100  0.4931 -0.0350
  413SOL    HW1 1238   0.678   0.811   1.448  4.0782  1.6854 -1.1793
  413SOL    HW2 1239   0.700   0.973   1.429  1.0367 -1.4958  2.3156
  414SOL     OW 1240   0.238   1.515   3.009  0.0619  0.2784  0.0629
  414SOL    HW1 1241   0.173   1.566   3.072 -1.0932  1.1533 -2.2438
  414SOL    HW2 1242   0.245   1.560   2.917 -0.2676  0.8664  0.6721
  415SOL     OW 1243   0.111   1.864   0.119  0.0738 -0.0106 -0.3265
  415SOL    HW1 1244   0.203   1.870   0.074 -1.0021  0.8220  0.5185
  415SOL    HW2 1245   0.061   1.776   0.098 -0.9280 -2.6582  0.0292
  416SOL     OW 1246   1.763   0.984   0.167 -0.2354 -0.4461 -0.2759
  416SOL    HW1 1247   1.778   0.969   0.267  2.0533 -0.3379 -0.6174
  416SOL    HW2 1248   1.704   1.065   0.153 -0.9402 -2.2534  1.8652
  417SOL     OW 1249   0.420   0.701   1.092 -0.1954 -0.1162 -0.4972
  417SOL    HW1 1250   0.353   0.761   1.143 -0.2643 -0.0791  0.7984
  417SOL    HW2 1251   0.446   0.747   1.005  2.8854  1.2680 -0.3775
  418SOL     OW 1252   2.173   1.249   2.734 -0.0991 -0.7641  0.1833
  418SOL    HW1 1253   2.072   1.241   2.735  0.4063  0.1236 -0.9324
  418SOL    HW2 1254   2.217   1.159   2.761  0.4812  0.1484 -1.5493
  419SOL     OW 1255   0.299   0.275   0.423  0.1020  0.4624 -0.5617
  419SOL    HW1 1256   0.395   0.274   0.455  0.8807  1.6398 -1.9283
  419SOL    HW2 1257   0.309   0.280   0.321  0.8455  0.3058 -0.4453
  420SOL     OW 1258   0.410   1.311   0.755 -0.0346  0.1130  0.3173
  420SOL    HW1 1259   0.349   1.382   0.794 -1.6336 -1.1623 -1.9742
  420SOL    HW2 1260   0.499   1.305   0.806 -1.6007 -1.2685 -1.0052
  421SOL     OW 1261   0.533   2.118   0.396 -0.2202  0.2691 -0.1957
  421SOL    HW1 1262   0.502   2.106   0.491 -0.1702  1.1271  3.0789
  421SOL    HW2 1263   0.588   2.041   0.355 -0.6667  2.5516 -0.5984
  422SOL     OW 1264   2.691   0.418   1.474  0.4183 -0.0053  0.6335
  422SOL    HW1 1265   2.701   0.335   1.415 -0.7161 -0.7854  1.9102
  422SOL    HW2 1266   2.753   0.411   1.555 -1.1763 -2.0044 -1.5802
  423SOL     OW 1267   1.925   1.514   0.972 -0.0023 -0.0461 -0.2769
  423SOL    HW1 1268   1.880   1.514   1.068 -2.6960  1.4019  0.9589
  423SOL    HW2 1269   1.957   1.420   0.941 -0.1316  0.1029 -1.2088
  424SOL     OW 1270   1.826   1.292   0.367  0.3497  0.0950 -0.2451
  424SOL    HW1 1271   1.925   1.312   0.384 -1.3202 -2.1195  0.4124
  424SOL    HW2 1272   1.756   1.345   0.427 -0.7631 -0.8319 -0.1317
  425SOL     OW 1273   0.231   2.872   2.002 -0.6064  0.3892  0.0533
  425SOL    HW1 1274   0.208   2.909   2.097 -3.1542 -0.6520 -0.1944
  425SOL    HW2 1275   0.158   2.888   1.936  2.3905  1.5108 -0.3030
  426SOL     OW 1276   2.564   2.641   2.903 -0.0395 -0.5252 -0.1855
  426SOL    HW1 1277   2.594   2.597   2.988 -0.5942  0.1334 -1.3344
  426SOL    HW2 1278   2.609   2.736   2.886  4.1143 -0.0614 -0.4461
  427SOL     OW 1279   0.821   0.753   2.368 -0.3200  0.1788  0.0417
  427SOL    HW1 1280   0.737   0.746   2.426  1.4212  0.1422 -0.2700
  427SOL    HW2 1281   0.846   0.852   2.350 -0.5675  1.8374 -0.1205
  428SOL     OW 1282   2.066   0.699   2.405 -0.4137 -0.5427 -0.2378
  428SOL    HW1 1283   2.150   0.757   2.385  0.4192  1.3631  0.5215
  428SOL    HW2 1284   2.000   0.749   2.469  2.8400  1.0645 -0.2438
  429SOL     OW 1285   2.449   0.249   0.548  0.4346  0.4428 -0.0058
  429SOL    HW1 1286   2.549   0.218   0.559 -0.1105  0.3793  2.4523
  429SOL    HW2 1287   2.444   0.325   0.478  0.2426 -0.2143  0.7179
  430SOL     OW 1288   1.811   1.186   2.171 -0.2089 -0.0108  0.5282
  430SOL    HW1 1289   1.912   1.183   2.186  0.1922  2.6558 -2.5021
  430SOL    HW2 1290   1.789   1.166   2.070  1.0339 -1.1597 -0.9992
  431SOL     OW 1291   2.835   2.124   1.294  0.2088  0.0783  0.2740
  431SOL    HW1 1292   2.910   2.190   1.320 -1.6949 -1.0861  1.6192
  431SOL    HW2 1293   2.744   2.170   1.274 -1.6740 -0.8677  0.9357
  432SOL     OW 1294   1.598   2.883   2.576 -0.0932  0.0050 -0.3472
  432SOL    HW1 1295   1.629   2.800   2.519 -0.2434 -0.0182  0.5885
  432SOL    HW2 1296   1.499   2.904   2.557  2.3413 -1.3889 -1.9984
  433SOL     OW 1297   1.685   0.017   1.369 -0.3976 -0.2959 -0.1284
  433SOL    HW1 1298   1.710   0.008   1.271  2.3300 -0.0129 -0.4553
  433SOL    HW2 1299   1.641   3.007   1.405 -2.2567 -0.1263 -0.6508
  434SOL     OW 1300   3.043   2.335   2.071  0.7640  0.4465  0.5131
  434SOL    HW1 1301   3.054   2.413   2.004  0.7784  0.4570 -0.2239
  434SOL    HW2 1302   3.077   2.243   2.050  0.3992  0.6352  3.3742
  435SOL     OW 1303   0.148   1.872   0.387  0.0447  0.4180  0.1915
  435SOL    HW1 1304   0.177   1.772   0.396  1.8004  0.5466  1.0918
  435SOL    HW2 1305   0.134   1.888   0.286  0.2839  1.1719 -2.1566
  436SOL     OW 1306   0.718   1.165   1.715 -0.2757  0.0209  0.5906
  436SOL    HW1 1307   0.775   1.206   1.637 -0.9084  0.6973 -3.1483
  436SOL    HW2 1308   0.770   1.174   1.805 -0.8141  0.0445  1.3234
  437SOL     OW 1309   0.794   0.492   3.034  0.1028 -0.2967 -0.6210
  437SOL    HW1 1310   0.838   0.538   2.959  0.4108 -0.7976  3.4106
  437SOL    HW2 1311   0.794   0.546   0.038 -2.0332  1.7977 -1.9364
  438SOL     OW 1312   0.900   2.090   1.620  0.0463  0.3348 -0.0439
  438SOL    HW1 1313   0.799   2.104   1.624  2.2462 -0.4736  1.3393
  438SOL    HW2 1314   0.919   1.988   1.614 -3.0708 -1.0796 -0.1038
  439SOL     OW 1315   1.795   1.388   2.880 -0.0446  0.1399  0.3425
  439SOL    HW1 1316   1.891   1.360   2.912  0.1439 -0.3736 -1.1087
  439SOL    HW2 1317   1.725   1.354   2.941  1.7624  3.5704 -0.5995
  440SOL     OW 1318   1.205   0.690   0.339 -0.3067 -0.3228 -0.7974
  440SOL    HW1 1319   1.160   0.776   0.294 -1.5030  2.0544 -0.8369
  440SOL    HW2 1320   1.163   0.607   0.310  0.0705  4.9231  0.5604
  441SOL     OW 1321   0.443   2.738   1.675  0.3851  0.5197 -0.2291
  441SOL    HW1 1322   0.542   2.713   1.666  1.3182  2.0893 -0.3515
  441SOL    HW2 1323   0.433   2.822   1.738  0.8004  2.5142  1.4192
  442SOL     OW 1324   2.240   2.554   0.908  0.3849  0.2225  0.7735
  442SOL    HW1 1325   2.163   2.485   0.894  0.2929 -0.1932  1.6789
  442SOL    HW2 1326   2.214   2.642   0.863 -1.5022 -0.5259 -1.2748
  443SOL     OW 1327   2.634   1.272   2.674  0.4364 -0.1064 -0.5899
  443SOL    HW1 1328   2.594   1.173   2.679  1.5270 -1.6847 -3.0661
  443SOL    HW2 1329   2.630   1.307   2.579  0.2845 -2.3904 -0.4984
  444SOL     OW 1330   1.340   0.653   2.555  0.0179  0.5333 -0.0474
  444SOL    HW1 1331   1.430   0.636   2.593 -0.8395 -0.8367 -0.3105
  444SOL    HW2 1332   1.317   0.751   2.527 -1.8240  1.0338 -1.6425
  445SOL     OW 1333   2.353   2.401   1.641 -0.4574 -0.4859 -0.0216
  445SOL    HW1 1334   2.410   2.349   1.573 -0.4672  0.6130 -1.0085
  445SOL    HW2 1335   2.385   2.398   1.743 -1.4095  1.8990  1.5201
  446SOL     OW 1336   2.725   1.853   0.381 -0.0827 -0.9056  0.3413
  446SOL    HW1 1337   2.723   1.837   0.280  5.4969 -1.6337 -0.4264
  446SOL    HW2 1338   2.812   1.883   0.422  0.1798  1.2687 -0.6270
  447SOL     OW 1339   1.173   2.673   1.307  0.1152 -0.5325  0.4138
  447SOL    HW1 1340   1.268   2.648   1.286 -0.2184  1.6963 -1.4677
  447SOL    HW2 1341   1.171   2.760   1.365  1.2395 -1.3438 -0.9864
  448SOL     OW 1342   1.561   1.508   2.070 -0.2234 -0.1488  0.2878
  448SOL    HW1 1343   1.467   1.550   2.060  0.9976  2.8337 -0.7685
  448SOL    HW2 1344   1.584   1.479   2.166 -0.4567  0.1798  2.7797
  449SOL     OW 1345   0.372   2.144   2.161  0.0890  0.2036 -0.2378
  449SOL    HW1 1346   0.380   2.229   2.218 -1.0937  0.1730 -0.2193
  449SOL    HW2 1347   0.361   2.063   2.225 -0.0756 -0.4310  2.5457
  450SOL     OW 1348   2.925   1.519   2.521  0.3423  0.4333 -0.6488
  450SOL    HW1 1349   2.923   1.478   2.614  0.1875 -0.5956 -0.0003
  450SOL    HW2 1350   2.841   1.572   2.500  0.1934 -1.2191  2.4927
  451SOL     OW 1351   2.444   0.682   1.290  0.0304  0.1660 -0.1685
  451SOL    HW1 1352   2.357   0.658   1.337 -1.2322  0.0765  1.8081
  451SOL    HW2 1353   2.513   0.725   1.360  1.1409  1.3632  1.1726
  452SOL     OW 1354   0.898   2.132   1.350  0.1481  0.0260  0.2823
  452SOL    HW1 1355   0.907   2.127   1.455 -0.1409 -1.5927 -0.4679
  452SOL    HW2 1356   0.858   2.221   1.320 -2.0265  1.9932  1.2736
  453SOL     OW 1357   1.166   2.165   0.834 -0.1489  0.2700  0.1859
  453SOL    HW1 1358   1.260   2.183   0.864 -1.7257 -1.4616 -1.0593
  453SOL    HW2 1359   1.131   2.240   0.775 -2.1113  0.6804 -0.0318
  454SOL     OW 1360   0.105   1.053   0.580  0.2591  0.6205 -0.1293
  454SOL    HW1 1361   0.160   1.024   0.664  0.6778 -2.7069  0.6778
  454SOL    HW2 1362   0.091   1.152   0.589  0.1324  0.4989 -1.9641
  455SOL     OW 1363   0.741   0.831   0.436 -0.4394 -0.3527 -0.1205
  455SOL    HW1 1364   0.701   0.865   0.349 -1.4037  1.1023 -0.8592
  455SOL    HW2 1365   0.687   0.759   0.478  1.6845 -0.1264 -0.9213
  456SOL     OW 1366   1.956   2.280   1.065  0.7056 -0.1286  0.6151
  456SOL    HW1 1367   1.939   2.359   1.130  0.1103  0.3029  1.1651
  456SOL    HW2 1368   1.982   2.318   0.970  0.4241  1.0356 -2.3269
  457SOL     OW 1369   1.468   2.637   2.895 -0.2451 -0.2216  0.1287
  457SOL    HW1 1370   1.562   2.671   2.910 -2.6233 -1.4187 -1.0927
  457SOL    HW2 1371   1.401   2.692   2.944  3.0740  3.2483  1.8326
  458SOL     OW 1372   2.746   0.025   3.045  0.6149  0.3659  0.8969
  458SOL    HW1 1373   2.700   0.011   0.053 -0.6567  2.3616 -0.3748
  458SOL    HW2 1374   2.715   3.038   2.973 -0.6881  1.4393 -2.1260
  459SOL     OW 1375   2.322   0.144   2.147  0.1785 -0.5637  0.3592
  459SOL    HW1 1376   2.264   0.201   2.208 -0.7586  0.4040 -0.9004
  459SOL    HW2 1377   2.334   0.050   2.192  0.1807 -1.0575  0.8717
  460SOL     OW 1378   2.744   0.627   2.568 -0.1879  0.3285  0.2200
  460SOL    HW1 1379   2.727   0.571   2.649  2.5729 -1.6059  0.1200
  460SOL    HW2 1380   2.819   0.587   2.516 -0.9699  1.9279  0.6910
  461SOL     OW 1381   2.998   1.975   0.723 -0.1848 -0.0561 -0.2089
  461SOL    HW1 1382   0.001   2.032   0.745 -0.7089  1.2505  0.4947
  461SOL    HW2 1383   2.970   1.912   0.799 -0.7736 -0.6506 -2.4572
  462SOL     OW 1384   0.115   0.102   0.852 -0.3261 -0.3021  0.2201
  462SOL    HW1 1385   0.138   0.041   0.778 -3.0592 -0.4393  2.2023
  462SOL    HW2 1386   0.027   0.142   0.829  1.1976 -1.2951  0.9092
  463SOL     OW 1387   2.276   1.401   0.071  0.4582 -0.1822  0.2975
  463SOL    HW1 1388   2.181   1.431   0.078  3.3009  1.3460 -0.1970
  463SOL    HW2 1389   2.339   1.475   0.058 -1.7053 -0.0320  2.1332
  464SOL     OW 1390   0.920   3.046   1.148 -0.2889 -0.1953 -0.6735
  464SOL    HW1 1391   0.829   3.005   1.145 -0.9400 -0.4152 -0.3486
  464SOL    HW2 1392   0.943   0.006   1.239  0.1039  0.3986 -0.4005
  465SOL     OW 1393   1.154   0.423   1.297  0.0126  0.1988  0.2941
  465SOL    HW1 1394   1.168   0.522   1.321 -3.7425  2.9919 -1.4547
  465SOL    HW2 1395   1.080   0.384   1.356  0.8809 -0.4297  0.4709
  466SOL     OW 1396   1.654   2.622   1.959 -0.3752  0.9669  0.3910
  466SOL    HW1 1397   1.625   2.662   2.047 -0.4316 -1.8202  0.2480
  466SOL    HW2 1398   1.570   2.595   1.902 -2.2770 -0.5953 -2.6245
  467SOL     OW 1399   0.812   2.672   1.903  0.1433  0.2304  0.7991
  467SOL    HW1 1400   0.786   2.753   1.955 -1.7652 -1.4378 -1.1934
  467SOL    HW2 1401   0.902   2.684   1.851  0.2257  0.6935 -1.8539
  468SOL     OW 1402   0.136   1.495   2.008 -0.2792 -0.0946  0.1841
  468SOL    HW1 1403   0.051   1.439   2.014 -0.3118 -1.0758  0.4515
  468SOL    HW2 1404   0.117   1.593   1.987  0.7877 -1.3916 -0.1587
  469SOL     OW 1405   0.870   1.803   0.792 -0.0755  0.5085 -0.1757
  469SOL    HW1 1406   0.815   1.831   0.709 -0.1591 -0.1770  3.2801
  469SOL    HW2 1407   0.905   1.879   0.850  2.0888 -1.4407 -1.6724
  470SOL     OW 1408   2.067   1.162   2.234  0.0352  0.1531 -0.2940
  470SOL    HW1 1409   2.117   1.198   2.153  0.5123  0.0235 -1.8213
  470SOL    HW2 1410   2.116   1.172   2.324  1.4229 -1.9668  3.6268
  471SOL     OW 1411   0.346   2.246   0.029  0.0315  0.0250  0.1366
  471SOL    HW1 1412   0.252   2.279   0.013  2.0380 -1.1276 -2.2381
  471SOL    HW2 1413   0.414   2.308   3.062 -0.5363 -0.0277  1.3562
  472SOL     OW 1414   0.154   2.903   2.314 -0.0597 -0.3273  0.1072
  472SOL    HW1 1415   0.162   2.803   2.320  1.2037 -1.3043  0.2521
  472SOL    HW2 1416   0.204   2.936   2.397 -0.8291  0.5679 -0.5600
  473SOL     OW 1417   0.672   2.638   3.074  0.0814 -0.1363  0.2616
  473SOL    HW1 1418   0.627   2.683   2.992  1.6286  2.0560  0.0826
  473SOL    HW2 1419   0.771   2.638   3.062 -0.5684 -1.4361  0.3206
  474SOL     OW 1420   1.665   0.171   0.725  0.2476  0.7480  0.5177
  474SOL    HW1 1421   1.684   0.229   0.643  0.6480  1.2370  0.2490
  474SOL    HW2 1422   1.759   0.168   0.774  1.0880  1.0062  0.5908
  475SOL     OW 1423   1.454   0.158   1.520 -0.5893  0.2487 -0.2122
  475SOL    HW1 1424   1.366   0.114   1.487 -2.7343  0.3535 -1.7596
  475SOL    HW2 1425   1.534   0.134   1.462  0.3061 -0.4979 -0.3323
  476SOL     OW 1426   0.368   1.077   1.095 -0.6844 -0.1077 -0.4932
  476SOL    HW1 1427   0.318   0.994   1.131 -1.8318  0.1690  1.4766
  476SOL    HW2 1428   0.468   1.061   1.086 -0.8049 -0.6855 -3.1973
  477SOL     OW 1429   0.313   1.747   0.686 -0.6674  0.4378 -0.3874
  477SOL    HW1 1430   0.392   1.719   0.746  4.0236 -1.4844  1.4286
  477SOL    HW2 1431   0.302   1.849   0.676  0.9790 -0.8619  1.0611
  478SOL     OW 1432   0.180   2.632   2.253 -0.2778  0.3958  0.0243
  478SOL    HW1 1433   0.100   2.572   2.272  0.1141 -1.7500  0.9078
  478SOL    HW2 1434   0.214   2.602   2.159 -1.4329  0.0881 -1.0194
  479SOL     OW 1435   0.037   0.378   1.291 -0.1220  0.3719  0.2577
  479SOL    HW1 1436   0.000   0.465   1.321 -0.8457 -3.6164  0.2817
  479SOL    HW2 1437   0.136   0.380   1.264  0.1815 -0.8498  1.4190
  480SOL     OW 1438   2.557   2.295   0.040 -0.8837 -0.4563 -0.4067
  480SOL    HW1 1439   2.498   2.241   0.104 -0.8218 -0.9083  0.9421
  480SOL    HW2 1440   2.589   2.385   0.080  0.7704  2.5759 -0.1425
  481SOL     OW 1441   2.245   1.789   1.676 -0.0762 -0.1839 -0.0690
  481SOL    HW1 1442   2.330   1.805   1.622 -2.1339 -0.4026 -2.6564
  481SOL    HW2 1443   2.189   1.869   1.684  2.7346 -0.9343 -0.8827
  482SOL     OW 1444   1.730   1.703   2.332  0.0564  0.7005  0.1497
  482SOL    HW1 1445   1.740   1.618   2.277 -0.8300  0.4649  1.4342
  482SOL    HW2 1446   1.684   1.688   2.421 -1.2738 -0.9238 -1.0456
  483SOL     OW 1447   0.892   1.465   1.861 -0.3805 -0.2678 -0.5785
  483SOL    HW1 1448   0.954   1.475   1.778 -0.3855 -0.6080  1.1713
  483SOL    HW2 1449   0.880   1.365   1.872 -0.4105 -0.6504  1.1749
  484SOL     OW 1450   0.345   0.491   1.462 -0.6875  0.4130  0.2383
  484SOL    HW1 1451   0.395   0.400   1.487  1.4943 -1.4822  2.5182
  484SOL    HW2 1452   0.327   0.496   1.361 -0.7115 -0.1148  0.4311
  485SOL     OW 1453   2.360   1.124   0.001 -0.0913 -0.1192  0.2937
  485SOL    HW1 1454   2.461   1.107   3.072 -1.2527  0.0813  0.5012
  485SOL    HW2 1455   2.338   1.210   0.049  1.3257  1.0871 -3.3915
  486SOL     OW 1456   1.365   0.104   1.787  0.4841 -0.0257 -0.0999
  486SOL    HW1 1457   1.276   0.150   1.776 -0.6341 -1.6497 -1.8790
  486SOL    HW2 1458   1.407   0.099   1.695  1.7998 -0.4951 -1.1721
  487SOL     OW 1459   0.948   2.301   1.782  0.1430  0.0112 -0.1208
  487SOL    HW1 1460   0.885   2.312   1.863 -0.1304 -0.1519  0.9829
  487SOL    HW2 1461   0.923   2.224   1.721  1.4337  1.2507  0.9705
  488SOL     OW 1462   2.493   1.476   2.761  0.2276 -0.2562 -0.2351
  488SOL    HW1 1463   2.541   1.393   2.727 -1.3377  2.1276 -0.2871
  488SOL    HW2 1464   2.400   1.491   2.725 -0.5518  0.0202  0.6268
  489SOL     OW 1465   1.971   2.924   0.679  0.0264 -0.4195  0.2241
  489SOL    HW1 1466   1.908   2.852   0.639  1.2299 -1.4054  0.6843
  489SOL    HW2 1467   1.996   2.998   0.615 -1.2833 -0.9157  0.6153
  490SOL     OW 1468   0.654   2.148   2.925  0.3651  0.6043  0.6614
  490SOL    HW1 1469   0.625   2.120   2.830  0.9114  1.2326 -0.3973
  490SOL    HW2 1470   0.613   2.236   2.953  1.0198 -0.0024  0.8926
  491SOL     OW 1471   0.865   1.262   1.512 -0.0160  0.2003  0.1922
  491SOL    HW1 1472   0.888   1.360   1.502 -0.6715  0.4658  1.0414
  491SOL    HW2 1473   0.911   1.205   1.437  0.3807 -0.1495 -1.9664
  492SOL     OW 1474   1.078   0.673   2.107 -0.0395  0.1910  0.1150
  492SOL    HW1 1475   1.108   0.635   2.199  2.2238 -0.1906  0.0761
  492SOL    HW2 1476   1.104   0.771   2.093  0.4817 -1.6020  1.2155
  493SOL     OW 1477   2.008   2.046   0.850 -0.5940  0.3975 -0.0473
  493SOL    HW1 1478   1.991   1.949   0.871  1.4031  4.9321  2.8661
  493SOL    HW2 1479   1.970   2.109   0.917  0.7310 -1.6690 -1.2300
  494SOL     OW 1480   0.855   1.219   1.006  0.1112 -0.1771 -0.1426
  494SOL    HW1 1481   0.868   1.241   0.907  0.4688  1.0454 -1.0203
  494SOL    HW2 1482   0.815   1.301   1.054  0.9114  3.1976  1.0265
  495SOL     OW 1483   2.350   2.432   0.568  0.1693  0.5800  0.2433
  495SOL    HW1 1484   2.248   2.441   0.564 -1.4701  0.8264  1.3190
  495SOL    HW2 1485   2.370   2.346   0.607  4.3728  2.8282  0.7386
  496SOL     OW 1486   2.768   0.115   1.376 -0.2827  0.2045  0.4024
  496SOL    HW1 1487   2.688   0.067   1.331 -1.1965 -1.4936 -2.5527
  496SOL    HW2 1488   2.852   0.057   1.381 -2.0979  4.2647  0.4358
  497SOL     OW 1489   2.214   1.174   2.459 -0.2491 -0.2326 -0.2481
  497SOL    HW1 1490   2.241   1.264   2.411  1.4515  4.0040 -0.5769
  497SOL    HW2 1491   2.182   1.193   2.556 -1.2351  0.0409 -0.9450
  498SOL     OW 1492   0.351   2.189   1.212  0.5626 -0.0505  0.2717
  498SOL    HW1 1493   0.278   2.138   1.162  1.0125 -2.0059  0.6143
  498SOL    HW2 1494   0.429   2.206   1.149  0.3381 -0.6069 -1.9231
  499SOL     OW 1495   1.436   2.575   1.778 -0.5256 -0.2437 -0.3180
  499SOL    HW1 1496   1.418   2.490   1.833  0.8456 -1.3544 -0.1663
  499SOL    HW2 1497   1.367   2.583   1.702 -1.2443  0.1864 -3.7952
  500SOL     OW 1498   0.700   1.888   0.296  0.0504 -0.6931 -0.3818
  500SOL    HW1 1499   0.694   1.918   0.201  0.0365 -1.2298  0.2977
  500SOL    HW2 1500   0.707   1.788   0.304 -1.9513  1.6799 -1.2151
  501SOL     OW 1501   2.020   0.141   1.186  0.2431 -0.4519 -0.2373
  501SOL    HW1 1502   2.025   0.095   1.092  0.3035 -0.6990  0.8335
  501SOL    HW2 1503   2.061   0.080   1.257 -0.4743  1.0087 -2.3639
  502SOL     OW 1504   2.872   0.364   1.676 -0.1805  0.2944  0.2391
  502SOL    HW1 1505   2.955   0.318   1.639 -0.2910  0.0475  0.4661
  502SOL    HW2 1506   2.880   0.359   1.778 -0.6728  0.1414  0.0594
  503SOL     OW 1507   2.417   1.203   1.729  0.3397  0.2721  0.2482
  503SOL    HW1 1508   2.344   1.269   1.752  1.3576  1.7014  0.4115
  503SOL    HW2 1509   2.477   1.185   1.809 -1.1263  0.1019 -0.7468
  504SOL     OW 1510   1.518   0.901   1.904 -0.4068  0.3657  0.4363
  504SOL    HW1 1511   1.477   0.811   1.929  0.4575 -0.4450  1.6767
  504SOL    HW2 1512   1.561   0.887   1.810  0.4032 -2.0613 -1.1629
  505SOL     OW 1513   0.791   0.074   1.744 -0.1726 -0.2682 -0.4963
  505SOL    HW1 1514   0.757   0.014   1.673  3.5313  1.8637 -0.3824
  505SOL    HW2 1515   0.883   0.041   1.774  2.8173 -0.9421 -1.7229
  506SOL     OW 1516   0.126   0.314   0.615  0.3179  0.2517 -0.3941
  506SOL    HW1 1517   0.193   0.305   0.544 -0.0870  2.2312  1.4796
  506SOL    HW2 1518   0.165   0.367   0.692  0.7801  2.3888 -2.0333
  507SOL     OW 1519   2.520   0.716   0.055  0.1823 -0.1666  0.3130
  507SOL    HW1 1520   2.556   0.627   0.090  1.0658 -1.4141 -0.5008
  507SOL    HW2 1521   2.449   0.699   3.067  0.7552  2.8169  1.2257
  508SOL     OW 1522   1.629   0.326   1.799  0.4459 -0.3132 -0.0231
  508SOL    HW1 1523   1.602   0.373   1.711 -0.2920  0.4207 -0.4281
  508SOL    HW2 1524   1.672   0.394   1.864 -1.0728  2.5659  2.9946
  509SOL     OW 1525   1.559   1.665   1.421  0.1290 -0.5114  0.0285
  509SOL    HW1 1526   1.613   1.610   1.489  2.0910  0.6748  2.5513
  509SOL    HW2 1527   1.461   1.655   1.436  0.0227  0.5930 -2.9094
  510SOL     OW 1528   2.591   1.274   1.206 -0.0148 -0.5464 -0.3891
  510SOL    HW1 1529   2.490   1.258   1.223 -1.1360  1.5232  0.2407
  510SOL    HW2 1530   2.634   1.210   1.139  0.7883 -0.7449 -0.6694
  511SOL     OW 1531   1.556   2.059   1.258 -0.1396  0.4371  0.2596
  511SOL    HW1 1532   1.605   1.968   1.251 -0.4816 -2.8869  0.2476
  511SOL    HW2 1533   1.604   2.144   1.231 -1.8931 -0.3498 -0.1224
  512SOL     OW 1534   0.081   1.430   0.398  1.1625 -0.5878 -0.2528
  512SOL    HW1 1535   0.113   1.364   0.326  0.1712  0.1803 -1.8046
  512SOL    HW2 1536   0.147   1.502   0.417 -2.7027 -2.3697  2.6613
  513SOL     OW 1537   2.953   1.997   0.066 -0.0973  0.1506 -0.2864
  513SOL    HW1 1538   2.974   2.032   3.057 -0.3640  0.9630  0.4655
  513SOL    HW2 1539   3.038   1.967   0.110 -2.3387 -0.7299 -0.5884
  514SOL     OW 1540   2.575   2.005   2.172  0.5868 -0.0235  0.1589
  514SOL    HW1 1541   2.619   2.044   2.257  2.4568 -0.2362  1.5418
  514SOL    HW2 1542   2.600   1.905   2.160 -0.4020  0.2973  1.0177
  515SOL     OW 1543   2.034   1.222   0.887 -0.5016  0.5916  0.3959
  515SOL    HW1 1544   1.949   1.235   0.835  1.0318 -0.4321  0.7015
  515SOL    HW2 1545   2.034   1.129   0.927 -1.2204 -0.3310  0.3619
  516SOL     OW 1546   1.851   2.744   0.283 -0.0747 -0.1263  0.3587
  516SOL    HW1 1547   1.792   2.773   0.202 -1.5157  0.9322 -0.3499
  516SOL    HW2 1548   1.793   2.741   0.371 -2.0852 -3.2038  0.3639
  517SOL     OW 1549   0.864   1.940   2.518  0.6000 -0.1059 -0.2643
  517SOL    HW1 1550   0.926   1.877   2.473 -0.3370  1.3384  1.2677
  517SOL    HW2 1551   0.774   1.940   2.468 -0.9218 -1.8895 -1.3969
  518SOL     OW 1552   0.423   0.334   2.133  0.4841 -0.6060 -0.3250
  518SOL    HW1 1553   0.519   0.362   2.162 -0.8260 -0.4910  0.5278
  518SOL    HW2 1554   0.414   0.343   2.031 -0.2439  1.5179 -1.3928
  519SOL     OW 1555   0.190   1.261   0.190 -0.4959  0.0737 -0.2462
  519SOL    HW1 1556   0.155   1.174   0.222  3.0270  2.7019 -0.7446
  519SOL    HW2 1557   0.291   1.252   0.194  0.0197 -0.8124  2.8330
  520SOL     OW 1558   2.575   1.643   1.649 -0.3408 -0.0278  0.1438
  520SOL    HW1 1559   2.616   1.710   1.717 -1.0013 -1.4805 -0.7839
  520SOL    HW2 1560   2.524   1.701   1.579 -1.2571  0.2621 -1.8638
  521SOL     OW 1561   0.627   2.451   2.521  0.3360  0.2148  0.0692
  521SOL    HW1 1562   0.639   2.350   2.517  0.6242 -2.7447 -0.7544
  521SOL    HW2 1563   0.605   2.495   2.429  0.7874  2.7210  1.7499
  522SOL     OW 1564   1.830   0.157   2.148 -0.0141  0.1035 -0.0288
  522SOL    HW1 1565   1.921   0.141   2.106 -1.2259 -0.7394 -0.2752
  522SOL    HW2 1566   1.833   0.179   2.250  2.0538  2.1142  1.5966
  523SOL     OW 1567   1.903   1.846   1.876  0.1778 -0.3059  0.5072
  523SOL    HW1 1568   1.978   1.910   1.849  1.4400  0.2137  0.8342
  523SOL    HW2 1569   1.933   1.795   1.959  0.3139 -0.4612 -1.4166
  524SOL     OW 1570   0.801   3.001   0.235 -0.3949  0.0087  0.1777
  524SOL    HW1 1571   0.859   2.924   0.268 -1.0963  4.3439  3.0910
  524SOL    HW2 1572   0.840   3.052   0.158 -0.2814  0.4258  2.4342
  525SOL     OW 1573   0.044   0.399   0.299  0.1512 -0.3389  0.1462
  525SOL    HW1 1574   3.071   0.431   0.386 -4.8124  4.9366  3.6227
  525SOL    HW2 1575   0.102   0.327   0.329 -2.6338  2.3440 -1.5010
  526SOL     OW 1576   0.843   2.775   0.610  0.7609  0.3498 -0.4673
  526SOL    HW1 1577   0.878   2.746   0.701  0.6902 -3.1414 -0.1133
  526SOL    HW2 1578   0.755   2.831   0.617 -2.5351  1.3476  4.0183
  527SOL     OW 1579   2.202   1.751   0.936 -0.2715 -0.6656 -0.0360
  527SOL    HW1 1580   2.098   1.756   0.921 -1.5352  0.1357  1.3030
  527SOL    HW2 1581   2.228   1.673   0.996 -0.1053  1.5420  0.6704
  528SOL     OW 1582   2.995   2.854   2.536 -0.7457 -0.0552  0.2482
  528SOL    HW1 1583   3.034   2.850   2.442  1.1631  0.0977  2.9488
  528SOL    HW2 1584   3.025   2.777   2.595 -1.0706  2.9693  0.4612
  529SOL     OW 1585   1.003   1.758   2.406 -0.1681  0.2059 -0.0183
  529SOL    HW1 1586   1.060   1.811   2.342 -0.4976  0.3084  2.1519
  529SOL    HW2 1587   1.038   1.667   2.423 -1.4291  1.0313 -0.4356
  530SOL     OW 1588   1.310   1.292   2.954 -0.0718 -0.3502 -0.2988
  530SOL    HW1 1589   1.259   1.360   2.899 -1.5851 -0.4761 -0.9859
  530SOL    HW2 1590   1.275   1.199   2.938  1.4181 -0.3454  1.4475
  531SOL     OW 1591   0.569   1.273   2.956  0.7991 -0.6615  0.2120
  531SOL    HW1 1592   0.551   1.338   2.878 -1.5785 -1.3279  0.6454
  531SOL    HW2 1593   0.529   1.181   2.930  0.7571 -1.9884  2.2056
  532SOL     OW 1594   1.560   1.579   0.643 -0.2681  0.0433 -0.2816
  532SOL    HW1 1595   1.505   1.550   0.725  2.1357 -1.4456  0.4555
  532SOL    HW2 1596   1.545   1.670   0.611  0.2663 -4.8568 -2.6135
  533SOL     OW 1597   0.605   0.239   2.472 -0.0535 -0.5711  0.3352
  533SOL    HW1 1598   0.642   0.264   2.376  1.9811 -1.3657 -1.4031
  533SOL    HW2 1599   0.678   0.252   2.543  0.5466  2.2094 -1.3121
  534SOL     OW 1600   0.554   2.392   2.981  0.2354  0.1917  0.2431
  534SOL    HW1 1601   0.532   2.432   2.892  0.2440 -3.2163 -0.1870
  534SOL    HW2 1602   0.616   2.457   3.031  1.5808  0.7019  0.8735
  535SOL     OW 1603   0.233   3.066   0.637  0.2262  0.5617  0.2141
  535SOL    HW1 1604   0.321   3.027   0.671  2.3305 -1.5735  1.1575
  535SOL    HW2 1605   0.240   0.080   0.600 -2.7351 -1.7459 -1.6601
  536SOL     OW 1606   0.058   1.055   2.139  0.2023 -0.2828 -0.6421
  536SOL    HW1 1607   0.055   1.085   2.045  0.0061 -1.2406  1.6716
  536SOL    HW2 1608   0.152   1.031   2.167  0.2226  0.7641  1.2336
  537SOL     OW 1609   1.218   0.046   1.398 -0.0099 -0.2581  0.1342
  537SOL    HW1 1610   1.131   0.094   1.372  1.4602 -1.2673 -0.1373
  537SOL    HW2 1611   1.262   3.080   1.318  0.4124 -1.7589  1.2337
  538SOL     OW 1612   2.965   1.961   0.445  0.4313 -0.2432 -0.6209
  538SOL    HW1 1613   3.058   1.958   0.408 -0.8274  1.7272 -0.8101
  538SOL    HW2 1614   2.973   1.964   0.550  0.3462  0.4027 -0.7559
  539SOL     OW 1615   2.567   1.073   1.929 -0.0333  0.2162  0.2014
  539SOL    HW1 1616   2.649   1.107   1.877 -0.4115  0.0731  0.0800
  539SOL    HW2 1617   2.564   0.971   1.948 -0.8079 -0.6511  0.4722
  540SOL     OW 1618   1.661   0.953   2.184 -0.2991  0.2383 -0.5917
  540SOL    HW1 1619   1.729   0.878   2.212 -1.7335 -1.0364 -0.6513
  540SOL    HW2 1620   1.703   1.046   2.180  0.1446 -0.9397  0.2860
  541SOL     OW 1621   1.076   0.883   1.821 -0.3513 -0.3117  0.5744
  541SOL    HW1 1622   1.108   0.931   1.907  0.4118 -1.4962 -5.3050
  541SOL    HW2 1623   1.006   0.812   1.843  0.9171 -0.4367  1.1746
  542SOL     OW 1624   1.891   0.138   2.408 -0.0569  0.2868  0.3245
  542SOL    HW1 1625   1.899   0.223   2.461 -0.1786 -1.2757  1.1901
  542SOL    HW2 1626   1.934   0.061   2.461  1.4389  1.9456  0.4049
  543SOL     OW 1627   1.117   0.457   0.265  0.5902 -0.2252  0.1486
  543SOL    HW1 1628   1.017   0.454   0.284  0.7711  1.0144  1.1269
  543SOL    HW2 1629   1.139   0.460   0.162  1.9907 -0.6228 -2.0060
  544SOL     OW 1630   2.603   1.833   1.840  0.5905  0.5452 -0.1081
  544SOL    HW1 1631   2.604   1.816   1.941 -0.4220  1.5227  1.6371
  544SOL    HW2 1632   2.590   1.933   1.821 -2.6392 -0.2233  0.4332
  545SOL     OW 1633   2.107   2.422   1.926 -0.0354  0.0102  0.3879
  545SOL    HW1 1634   2.163   2.363   1.989  2.8297 -1.9992 -1.3235
  545SOL    HW2 1635   2.008   2.416   1.944  1.8441  0.9423  0.1438
  546SOL     OW 1636   0.360   0.171   2.914 -0.1784  0.4489  0.2098
  546SOL    HW1 1637   0.417   0.110   2.975  2.5618 -0.1314 -0.2379
  546SOL    HW2 1638   0.276   0.126   2.882  4.5980  0.8481  2.0181
  547SOL     OW 1639   1.765   1.034   0.434  0.0015 -0.2443 -0.0139
  547SOL    HW1 1640   1.666   1.048   0.462 -0.6537 -0.9844 -0.1390
  547SOL    HW2 1641   1.811   1.128   0.425 -0.1116 -1.7786 -0.2965
  548SOL     OW 1642   2.243   1.634   2.155 -0.3557  1.0690 -0.0959
  548SOL    HW1 1643   2.271   1.641   2.055  1.7929  1.6275 -1.1256
  548SOL    HW2 1644   2.317   1.611   2.221 -1.1907 -1.6205  0.2829
  549SOL     OW 1645   1.984   0.279   0.517  0.1970 -0.0483  0.1321
  549SOL    HW1 1646   2.043   0.336   0.453  1.1441  2.1890 -2.7657
  549SOL    HW2 1647   2.009   0.294   0.615  0.9814 -2.4321  2.8312
  550SOL     OW 1648   2.331   2.202   0.832  0.7000  0.5633  0.4342
  550SOL    HW1 1649   2.279   2.165   0.911  1.4522 -0.5029  0.9142
  550SOL    HW2 1650   2.409   2.251   0.866 -3.2807 -2.2094 -0.0781
  551SOL     OW 1651   1.183   2.879   1.514 -0.6675  0.5668 -0.4798
  551SOL    HW1 1652   1.195   2.976   1.489  1.9423 -1.9286  2.4055
  551SOL    HW2 1653   1.218   2.867   1.606 -1.0328  1.3190 -4.0306
  552SOL     OW 1654   2.726   2.047   2.395  0.4556 -0.4711  0.0683
  552SOL    HW1 1655   2.726   2.006   2.488  0.1925  1.8053  3.4688
  552SOL    HW2 1656   2.814   2.038   2.348 -0.0249 -4.0066  2.1372
  553SOL     OW 1657   0.461   3.056   0.788 -0.7088 -0.1337 -0.3556
  553SOL    HW1 1658   0.488   0.074   0.768 -0.6071 -0.3859 -1.5721
  553SOL    HW2 1659   0.391   3.040   0.862  1.1729  3.1873  0.0593
  554SOL     OW 1660   2.074   2.293   1.667 -0.2272  0.6859 -0.3507
  554SOL    HW1 1661   2.085   2.353   1.754  1.4124  0.0418  0.1318
  554SOL    HW2 1662   2.161   2.288   1.610  1.0251  0.7550  1.2383
  555SOL     OW 1663   1.299   2.477   2.036 -0.0709 -0.3267  0.0173
  555SOL    HW1 1664   1.283   2.412   1.962  1.3595  0.5544  1.2379
  555SOL    HW2 1665   1.250   2.565   2.017  0.9239 -2.3063 -1.7749
  556SOL     OW 1666   1.385   1.467   1.612 -0.0236  0.1288  0.2403
  556SOL    HW1 1667   1.325   1.501   1.535 -0.0966  2.5632 -1.3596
  556SOL    HW2 1668   1.376   1.535   1.689  0.1337 -0.3983 -3.6457
  557SOL     OW 1669   1.917   2.283   2.266  0.1076 -0.5911 -0.1032
  557SOL    HW1 1670   1.926   2.214   2.338  2.4531  2.0234  0.5973
  557SOL    HW2 1671   1.822   2.294   2.233  0.8522  0.9085  1.7951
  558SOL     OW 1672   0.760   2.906   2.043 -0.5081  0.1804  0.1159
  558SOL    HW1 1673   0.679   2.963   2.072  3.7683 -0.9426 -0.6290
  558SOL    HW2 1674   0.843   2.968   2.032 -0.1873 -1.1657 -0.0124
  559SOL     OW 1675   2.472   2.693   1.164  0.5750  0.4011  0.3544
  559SOL    HW1 1676   2.474   2.659   1.258  2.7332  1.3922  0.2727
  559SOL    HW2 1677   2.564   2.716   1.127 -3.7792 -0.1090 -0.1599
  560SOL     OW 1678   1.112   2.319   0.381 -0.1729 -0.3082 -0.2366
  560SOL    HW1 1679   1.162   2.396   0.339 -0.3909 -1.2126 -1.0496
  560SOL    HW2 1680   1.081   2.253   0.311 -3.2265  0.2495 -0.0251
  561SOL     OW 1681   1.004   0.741   3.042 -0.3539 -0.5051 -0.4166
  561SOL    HW1 1682   1.022   0.640   3.045 -0.5647 -1.6056  2.3594
  561SOL    HW2 1683   1.047   0.793   0.037  0.5570 -1.0380 -0.3469
  562SOL     OW 1684   0.773   0.260   2.688 -0.4141  0.2469  0.2583
  562SOL    HW1 1685   0.722   0.292   2.771  0.3472  1.2213  1.3043
  562SOL    HW2 1686   0.817   0.169   2.708 -0.3598 -0.6149 -0.4909
  563SOL     OW 1687   1.357   1.683   2.792  0.1464 -0.1087  0.4369
  563SOL    HW1 1688   1.427   1.699   2.865  0.8610 -1.4010  1.2453
  563SOL    HW2 1689   1.333   1.770   2.739  1.2939  3.3169 -0.8445
  564SOL     OW 1690   2.405   1.099   1.048 -0.1531 -0.8099 -0.3295
  564SOL    HW1 1691   2.501   1.063   1.038  0.1116 -2.0394  0.6318
  564SOL    HW2 1692   2.359   1.091   0.954  2.0144  0.4763  0.3237
  565SOL     OW 1693   0.987   0.109   2.718 -0.3000 -0.2216 -0.1471
  565SOL    HW1 1694   0.997   0.074   2.814  1.7462 -0.7303  0.6992
  565SOL    HW2 1695   1.023   0.206   2.705  5.0296 -1.0084 -0.8111
  566SOL     OW 1696   1.675   0.074   2.576  0.0519 -0.2532 -0.0397
  566SOL    HW1 1697   1.652   3.053   2.590 -2.5220 -0.7816 -0.6009
  566SOL    HW2 1698   1.757   0.079   2.519 -1.1622  1.6113  0.6408
  567SOL     OW 1699   2.058   1.517   0.630  0.3116  0.7524  0.1783
  567SOL    HW1 1700   2.146   1.492   0.679 -1.5933 -1.2494  1.9127
  567SOL    HW2 1701   2.024   1.604   0.666  1.1826  2.7196  1.0574
  568SOL     OW 1702   1.816   1.978   0.469 -0.1774  0.3829  0.3536
  568SOL    HW1 1703   1.864   2.006   0.387 -0.6493 -1.0166  0.3646
  568SOL    HW2 1704   1.816   2.056   0.534  4.9785 -0.4770 -0.9756
  569SOL     OW 1705   2.008   1.254   2.985  0.1005  0.0116 -0.1995
  569SOL    HW1 1706   2.003   1.161   3.029  2.8969 -2.9324  0.4068
  569SOL    HW2 1707   2.103   1.289   2.993  1.1184  0.4864 -0.1607
  570SOL     OW 1708   0.012   2.437   1.619 -0.4964  0.2963  0.5760
  570SOL    HW1 1709   3.055   2.499   1.544 -0.3276  3.4218 -0.7136
  570SOL    HW2 1710   0.112   2.454   1.625  0.4206  1.2984  3.1511
  571SOL     OW 1711   0.162   0.592   2.092 -0.6023  0.3704  0.2875
  571SOL    HW1 1712   0.216   0.655   2.031 -0.3407  4.5969 -2.9230
  571SOL    HW2 1713   0.101   0.645   2.152 -1.6399  0.7953 -2.9175
  572SOL     OW 1714   1.095   1.488   0.997  0.0309  0.6415  0.7314
  572SOL    HW1 1715   1.027   1.416   0.979  0.0616 -0.3554 -2.8541
  572SOL    HW2 1716   1.109   1.544   0.908  0.9655 -0.2323 -2.8191
  573SOL     OW 1717   1.081   1.892   0.135  0.2123  0.0586  0.5038
  573SOL    HW1 1718   1.067   1.859   0.040 -0.3029 -0.0675  0.3709
  573SOL    HW2 1719   1.176   1.931   0.145  2.9125 -1.2088  1.5973
  574SOL     OW 1720   1.149   0.069   0.574  0.2828 -0.0385  0.4537
  574SOL    HW1 1721   1.054   0.046   0.551  0.6893  1.0952 -1.4433
  574SOL    HW2 1722   1.167   0.067   0.675  0.1681  1.8254  0.2683
  575SOL     OW 1723   0.161   1.056   1.533  0.0007  0.3545  0.4100
  575SOL    HW1 1724   0.194   0.999   1.453 -1.0217 -0.5158 -0.2112
  575SOL    HW2 1725   0.173   1.152   1.505 -1.5742 -2.1548  2.6825
  576SOL     OW 1726   2.109   3.074   1.443  0.0520  0.0094 -0.0597
  576SOL    HW1 1727   2.100   2.988   1.495 -3.9987  0.7637 -2.9485
  576SOL    HW2 1728   2.095   0.074   1.504  1.8263 -0.1234  3.7299
  577SOL     OW 1729   0.548   0.955   1.769 -1.1529  0.0426  0.2462
  577SOL    HW1 1730   0.590   0.888   1.830 -1.3577  0.7084  0.9915
  577SOL    HW2 1731   0.602   1.037   1.755 -1.6790 -1.9816  0.0472
  578SOL     OW 1732   2.140   0.468   2.500  0.0444 -0.3914  0.2977
  578SOL    HW1 1733   2.126   0.466   2.597  3.7689  2.5330 -0.1571
  578SOL    HW2 1734   2.102   0.556   2.455 -2.8588  0.6750 -1.5359
  579SOL     OW 1735   2.514   2.176   1.502 -0.0996 -0.0878  0.5146
  579SOL    HW1 1736   2.553   2.089   1.476 -2.2309  1.5535  1.0405
  579SOL    HW2 1737   2.457   2.219   1.427  0.2589  1.8951  2.3725
  580SOL     OW 1738   1.923   1.215   2.653 -0.0972  0.4098 -0.3618
  580SOL    HW1 1739   1.827   1.226   2.680 -0.3172  1.4126 -1.5211
  580SOL    HW2 1740   1.925   1.145   2.586 -2.5472  1.2667  2.9452
  581SOL     OW 1741   1.212   1.047   2.977 -0.3111 -0.1687  0.0862
  581SOL    HW1 1742   1.112   1.061   2.972  0.9837 -0.6345 -3.0232
  581SOL    HW2 1743   1.240   0.963   2.925  0.7936  2.7075 -1.3276
  582SOL     OW 1744   1.054   1.561   1.645  0.5043 -0.3189 -0.2046
  582SOL    HW1 1745   1.068   1.517   1.556 -0.9510  0.2010  0.0244
  582SOL    HW2 1746   1.141   1.586   1.692 -0.1540  1.2412  0.1349
  583SOL     OW 1747   1.799   1.288   1.472  0.2724 -0.0725  0.7386
  583SOL    HW1 1748   1.728   1.230   1.418  1.0666 -2.7363 -2.8052
  583SOL    HW2 1749   1.892   1.273   1.431 -0.2111 -1.5854 -0.2833
  584SOL     OW 1750   1.708   2.501   0.630  0.3460 -0.1904 -0.5200
  584SOL    HW1 1751   1.623   2.448   0.627  0.7174  0.2978 -1.1142
  584SOL    HW2 1752   1.764   2.483   0.714  1.2240 -0.3683  3.9024
  585SOL     OW 1753   1.990   2.732   2.869  0.2630  0.2969  0.1187
  585SOL    HW1 1754   2.052   2.718   2.787  0.5015  1.0103  1.3371
  585SOL    HW2 1755   2.053   2.728   2.951  2.8696  0.4113  3.1853
  586SOL     OW 1756   2.684   2.250   0.922  0.2389  0.6035 -0.6545
  586SOL    HW1 1757   2.622   2.331   0.907  0.1283 -2.7919 -0.2438
  586SOL    HW2 1758   2.628   2.175   0.962 -1.3916 -1.7837  1.1485
  587SOL     OW 1759   0.940   1.664   0.200 -0.0967  0.3815 -0.3082
  587SOL    HW1 1760   0.992   1.747   0.180  1.0041 -0.1151 -0.1667
  587SOL    HW2 1761   0.984   1.586   0.144 -0.0157  0.2763  0.1397
  588SOL     OW 1762   0.774   0.116   0.954  0.1519  0.3700 -0.0990
  588SOL    HW1 1763   0.832   0.046   1.007  1.4576 -0.5838  0.0720
  588SOL    HW2 1764   0.807   0.135   0.860 -0.8453 -0.2565 -0.6899
  589SOL     OW 1765   1.326   0.793   0.604  0.4200  0.4278  0.8071
  589SOL    HW1 1766   1.289   0.736   0.528  1.6117 -1.2216  0.7052
  589SOL    HW2 1767   1.345   0.738   0.690  0.5051 -0.9370  0.6366
  590SOL     OW 1768   1.633   2.953   3.043  0.4212 -0.2516 -0.3247
  590SOL    HW1 1769   1.682   2.943   2.955 -1.8731 -0.4358  1.3188
  590SOL    HW2 1770   1.564   2.881   3.054 -0.9701  1.2567 -1.1912
  591SOL     OW 1771   0.091   2.202   2.304  0.1782  0.1749 -0.0873
  591SOL    HW1 1772   0.162   2.253   2.348 -1.4477  1.6948 -1.4461
  591SOL    HW2 1773   0.047   2.257   2.233  0.0760  3.3243  0.7460
  592SOL     OW 1774   2.824   1.630   1.969 -0.3475 -0.0234  0.0696
  592SOL    HW1 1775   2.778   1.571   1.895  1.9261 -1.8290 -1.1252
  592SOL    HW2 1776   2.897   1.577   2.009 -3.0474  0.9299 -1.9337
  593SOL     OW 1777   1.725   1.520   1.588 -0.4917  0.2843  0.3854
  593SOL    HW1 1778   1.748   1.431   1.543  0.2589 -0.1833 -1.6665
  593SOL    HW2 1779   1.684   1.510   1.683 -0.8007  2.2710  0.9360
  594SOL     OW 1780   2.733   1.301   0.101 -0.4223  0.3711 -0.1728
  594SOL    HW1 1781   2.832   1.282   0.096 -2.8104  0.4935  0.7709
  594SOL    HW2 1782   2.677   1.220   0.064 -1.1529  0.0024 -2.4648
  595SOL     OW 1783   0.945   0.643   0.522 -0.1351 -0.3988 -0.2466
  595SOL    HW1 1784   0.868   0.707   0.539 -4.8798  1.1684  1.1858
  595SOL    HW2 1785   1.027   0.692   0.478 -1.3423 -1.8469 -0.7418
  596SOL     OW 1786   0.189   1.310   1.428 -0.1705  0.8940 -0.0572
  596SOL    HW1 1787   0.108   1.326   1.484  0.2310 -2.1039 -1.3339
  596SOL    HW2 1788   0.201   1.389   1.369 -0.3945 -3.0318  0.8451
  597SOL     OW 1789   0.978   1.987   0.942 -0.3864 -0.0932 -0.2019
  597SOL    HW1 1790   1.011   1.969   1.036 -1.6888 -0.9296  0.1769
  597SOL    HW2 1791   1.044   2.035   0.884 -1.0486 -1.4774 -0.4871
  598SOL     OW 1792   0.118   3.053   1.621 -0.0073  0.6235  0.1299
  598SOL    HW1 1793   0.134   2.952   1.610  1.3940 -0.7200 -1.9962
  598SOL    HW2 1794   0.078   0.000   1.708  0.8270  0.9477 -3.4980
  599SOL     OW 1795   0.350   1.590   2.545 -0.1414 -0.0223 -0.5010
  599SOL    HW1 1796   0.309   1.657   2.610 -1.0012 -1.3658 -0.0745
  599SOL    HW2 1797   0.310   1.591   2.452  0.2262 -0.0048  2.8976
  600SOL     OW 1798   0.612   0.774   2.814 -0.2389 -0.2759  0.1091
  600SOL    HW1 1799   0.556   0.739   2.893  0.0616 -0.4969  0.0272
  600SOL    HW2 1800   0.704   0.808   2.846  1.0719  2.5620 -0.4548
  601SOL     OW 1801   0.439   0.899   1.520  0.0191  0.2584  0.2042
  601SOL    HW1 1802   0.495   0.958   1.463 -1.1007 -1.0249 -3.6479
  601SOL    HW2 1803   0.435   0.935   1.614  2.6467 -1.3894 -2.4236
  602SOL     OW 1804   0.502   0.059   0.063 -0.2187 -0.0198  0.1071
  602SOL    HW1 1805   0.601   0.050   0.087 -0.0802  0.7703 -0.0068
  602SOL    HW2 1806   0.438   3.078   0.116 -1.6149  1.2771  0.6248
  603SOL     OW 1807   1.633   2.394   2.556  0.0845 -0.0973 -0.3883
  603SOL    HW1 1808   1.709   2.337   2.595 -1.4984 -2.1218 -0.6898
  603SOL    HW2 1809   1.552   2.408   2.621 -2.0009  0.7466  0.0112
  604SOL     OW 1810   0.211   2.490   2.855  0.1608 -0.1066 -0.7138
  604SOL    HW1 1811   0.170   2.422   2.917 -0.7161  0.4600 -0.1476
  604SOL    HW2 1812   0.291   2.456   2.798  0.3541 -2.2207 -3.2402
  605SOL     OW 1813   2.504   1.143   1.474  0.8462  0.3145  0.3501
  605SOL    HW1 1814   2.535   1.233   1.442 -0.8165 -1.4573  0.0129
  605SOL    HW2 1815   2.494   1.153   1.574 -0.6160 -2.3663 -2.4010
  606SOL     OW 1816   0.819   1.044   2.600  0.1607 -0.3937 -0.3846
  606SOL    HW1 1817   0.856   1.132   2.643 -0.2331 -0.3872 -1.9642
  606SOL    HW2 1818   0.881   0.967   2.621  0.6628  0.1776 -0.2577
  607SOL     OW 1819   0.894   0.393   1.042  0.1375 -0.2151 -0.0701
  607SOL    HW1 1820   0.820   0.326   1.034  1.9237 -0.3200 -0.7774
  607SOL    HW2 1821   0.981   0.356   1.008 -4.0718  0.0259  1.5135
  608SOL     OW 1822   2.874   1.596   1.596  0.2637  0.2729  0.3553
  608SOL    HW1 1823   2.834   1.542   1.674 -1.0314 -0.7008  2.0555
  608SOL    HW2 1824   2.858   1.547   1.507 -0.4877 -0.1498 -1.7057
  609SOL     OW 1825   2.392   0.487   0.412  0.2690  0.0709 -0.2785
  609SOL    HW1 1826   2.291   0.460   0.398  1.9793  0.8457  0.9508
  609SOL    HW2 1827   2.401   0.577   0.456  1.3789 -0.3584  1.2507
  610SOL     OW 1828   0.287   2.638   1.211 -0.1318 -0.5165  0.3866
  610SOL    HW1 1829   0.304   2.709   1.279 -1.0967 -2.8594 -3.5390
  610SOL    HW2 1830   0.260   2.678   1.121 -1.2479  0.4303  0.3989
  611SOL     OW 1831   1.344   1.961   0.152 -0.3268 -0.0729  0.1020
  611SOL    HW1 1832   1.429   1.973   0.095  1.1122  0.0670 -0.3700
  611SOL    HW2 1833   1.358   1.888   0.224  0.5092 -0.6138  0.6672
  612SOL     OW 1834   0.781   0.233   2.000  0.0265  0.4593  0.2790
  612SOL    HW1 1835   0.876   0.202   2.014 -0.8845  0.3679 -1.9429
  612SOL    HW2 1836   0.761   0.261   1.902 -1.6153 -2.4540 -2.0608
  613SOL     OW 1837   0.405   2.069   0.729 -0.3408 -0.1231 -0.6168
  613SOL    HW1 1838   0.431   2.016   0.811  0.0602  0.2605 -1.0722
  613SOL    HW2 1839   0.433   2.167   0.747  3.3650  1.2441  1.1010
  614SOL     OW 1840   2.061   0.140   1.992  0.2192  0.1693  0.2329
  614SOL    HW1 1841   2.140   0.137   2.056 -0.4092  0.8627 -0.3395
  614SOL    HW2 1842   2.089   0.102   1.900  0.8237 -2.1631 -1.4433
  615SOL     OW 1843   1.420   1.484   0.841  0.0942 -0.0273  0.4523
  615SOL    HW1 1844   1.494   1.436   0.898 -1.4375  0.1685 -0.2112
  615SOL    HW2 1845   1.374   1.418   0.781  2.2197  0.2131  2.0841
  616SOL     OW 1846   1.789   1.446   0.573  0.4366 -0.0986  0.2409
  616SOL    HW1 1847   1.882   1.485   0.591 -0.0965 -1.7505  1.1251
  616SOL    HW2 1848   1.715   1.509   0.614 -1.0430 -1.2848  0.1684
  617SOL     OW 1849   1.575   0.828   3.016 -0.4991 -0.1853  0.0100
  617SOL    HW1 1850   1.641   0.793   0.006 -1.7642 -1.2384 -2.2013
  617SOL    HW2 1851   1.609   0.821   2.922 -0.6887 -0.1498  5.5404
  618SOL     OW 1852   0.888   0.702   1.909 -0.0944  0.8611 -0.1508
  618SOL    HW1 1853   0.924   0.648   1.986 -1.8137 -1.0759 -1.8639
  618SOL    HW2 1854   0.786   0.710   1.919 -3.3124  1.1048  1.8400
  619SOL     OW 1855   0.172   1.546   1.295  0.1599 -0.2878  0.6342
  619SOL    HW1 1856   0.090   1.609   1.312  0.4843 -2.4859 -0.0477
  619SOL    HW2 1857   0.257   1.588   1.336  2.4227 -0.0946 -0.3695
  620SOL     OW 1858   2.757   2.945   2.619 -0.0111  0.1607  0.3820
  620SOL    HW1 1859   2.851   2.907   2.609 -0.1959  2.9778  0.6209
  620SOL    HW2 1860   2.757   3.046   2.609  0.1853  1.0122  1.5204
  621SOL     OW 1861   2.321   1.803   2.966 -0.0239 -0.0416  0.2313
  621SOL    HW1 1862   2.339   1.724   3.032 -0.7307 -1.8955 -0.8353
  621SOL    HW2 1863   2.281   1.880   3.015 -0.5861 -0.0725 -0.0926
  622SOL     OW 1864   1.333   0.398   2.682  0.0429 -0.2672 -0.5670
  622SOL    HW1 1865   1.404   0.404   2.757 -0.7260 -0.1244 -1.7692
  622SOL    HW2 1866   1.314   0.490   2.638  0.5787 -0.4282 -3.3473
  623SOL     OW 1867   0.631   1.663   1.482  0.5281  0.0277  0.0548
  623SOL    HW1 1868   0.704   1.684   1.418 -0.7646  1.1523  0.6103
  623SOL    HW2 1869   0.660   1.649   1.579 -1.0135  0.2780  1.6610
  624SOL     OW 1870   2.945   0.011   0.286 -0.4888 -0.6137  0.0944
  624SOL    HW1 1871   3.031   3.080   0.233 -2.1210  0.1177 -0.0803
  624SOL    HW2 1872   2.980   0.040   0.380  1.3146 -0.4866  0.4264
  625SOL     OW 1873   0.810   2.197   0.643 -0.3126 -0.2412 -0.3385
  625SOL    HW1 1874   0.893   2.254   0.642 -1.5350 -1.7347 -1.6729
  625SOL    HW2 1875   0.825   2.104   0.607 -2.1834  1.2938  2.1071
  626SOL     OW 1876   2.638   0.876   2.466 -0.1034 -0.0866 -0.2597
  626SOL    HW1 1877   2.680   0.794   2.504 -0.8115  0.8158  0.8740
  626SOL    HW2 1878   2.597   0.928   2.542 -0.1725  0.6979 -1.8325
  627SOL     OW 1879   1.043   1.810   2.954  1.0824  0.7620 -0.3529
  627SOL    HW1 1880   1.135   1.852   2.962 -1.4259 -0.0677  1.0295
  627SOL    HW2 1881   1.039   1.753   2.870 -3.1963  1.1306  1.3856
  628SOL     OW 1882   2.855   2.546   2.732 -0.0268  0.0656  0.6145
  628SOL    HW1 1883   2.802   2.531   2.643 -1.1037  1.3814 -2.3174
  628SOL    HW2 1884   2.795   2.593   2.799  1.4359  1.1407  1.2917
  629SOL     OW 1885   0.679   2.849   2.624 -0.3119  0.2468 -0.3593
  629SOL    HW1 1886   0.770   2.818   2.662  1.3412 -1.6905 -1.0487
  629SOL    HW2 1887   0.694   2.927   2.560 -0.3205 -2.0447  0.8485
  630SOL     OW 1888   1.067   0.310   2.118  0.0579  0.3734 -0.0556
  630SOL    HW1 1889   1.117   0.332   2.035 -1.1136  1.8014 -0.3320
  630SOL    HW2 1890   1.104   0.229   2.168 -0.8173  2.5132 -3.4607
  631SOL     OW 1891   2.125   1.052   0.567  0.3411 -0.0731 -0.0034
  631SOL    HW1 1892   2.142   1.000   0.486  0.3383  0.7043  2.2217
  631SOL    HW2 1893   2.065   1.135   0.554  1.6617 -0.9393 -0.9760
  632SOL     OW 1894   2.667   0.041   1.629  0.1689 -0.6195 -0.1428
  632SOL    HW1 1895   2.569   0.075   1.645 -1.5264  0.3241 -0.7552
  632SOL    HW2 1896   2.708   0.085   1.545  2.0226 -2.2620 -0.8907
  633SOL     OW 1897   1.053   1.284   0.618 -0.1490  0.1009 -0.1699
  633SOL    HW1 1898   0.958   1.305   0.654 -1.3791 -2.3707  1.3541
  633SOL    HW2 1899   1.052   1.197   0.567 -0.4147  1.7301  3.4039
  634SOL     OW 1900   2.769   2.747   2.297 -0.0346  0.2192 -0.5953
  634SOL    HW1 1901   2.825   2.662   2.306 -0.4655  1.5894  1.4870
  634SOL    HW2 1902   2.711   2.767   2.380 -1.1065 -0.1546  1.2200
  635SOL     OW 1903   1.904   0.663   0.593 -0.2304 -0.1682  0.3411
  635SOL    HW1 1904   1.953   0.614   0.520 -3.4916 -1.5370  1.2627
  635SOL    HW2 1905   1.815   0.705   0.555 -0.1433  0.6566 -2.5054
  636SOL     OW 1906   0.672   1.060   0.592  0.0268 -0.1500  0.2320
  636SOL    HW1 1907   0.572   1.077   0.583  0.2594  2.2906  0.7439
  636SOL    HW2 1908   0.709   0.978   0.542  1.7187 -0.0349  0.2309
  637SOL     OW 1909   2.242   2.019   3.079 -0.3159  0.6629  0.6258
  637SOL    HW1 1910   2.318   2.051   0.057 -3.0522 -1.4075 -1.9980
  637SOL    HW2 1911   2.178   2.094   3.045 -0.6011  0.9160 -1.9033
  638SOL     OW 1912   1.654   2.293   2.284  0.0014 -0.0884 -0.8212
  638SOL    HW1 1913   1.571   2.337   2.243 -0.0108 -1.2175 -0.3401
  638SOL    HW2 1914   1.683   2.338   2.376  1.0936 -0.2739  3.1319
  639SOL     OW 1915   1.299   1.991   0.643 -0.5638 -0.1203  0.0079
  639SOL    HW1 1916   1.247   2.065   0.689  1.4099 -1.2972 -0.3556
  639SOL    HW2 1917   1.372   1.957   0.703 -0.9032 -1.5683  2.1428
  640SOL     OW 1918   1.991   0.030   0.454 -0.0456  0.0081  0.3364
  640SOL    HW1 1919   2.090   0.033   0.441 -0.2587  0.8521  1.8799
  640SOL    HW2 1920   1.969   0.130   0.473 -1.6293  4.0014 -2.6497
  641SOL     OW 1921   2.939   0.538   3.024  0.1550 -0.5622  0.2101
  641SOL    HW1 1922   2.841   0.517   3.049 -1.8514  0.7542 -1.1785
  641SOL    HW2 1923   2.974   0.469   2.964 -3.0282  4.7127  1.5671
  642SOL     OW 1924   0.657   0.583   1.170  0.0597 -0.2385  0.5540
  642SOL    HW1 1925   0.569   0.628   1.146 -4.5052  0.2393  0.6040
  642SOL    HW2 1926   0.639   0.482   1.176 -1.9877  0.3373 -1.1556
  643SOL     OW 1927   0.683   1.124   2.133  0.3393  0.3033  0.0548
  643SOL    HW1 1928   0.728   1.096   2.221 -1.1664  4.1438  0.6338
  643SOL    HW2 1929   0.632   1.056   2.079  0.9707 -1.3711 -0.4037
  644SOL     OW 1930   1.435   2.168   0.476 -0.4870 -0.6399 -0.0353
  644SOL    HW1 1931   1.407   2.181   0.379  1.4094  0.8103  1.0088
  644SOL    HW2 1932   1.386   2.083   0.502 -1.6726  1.8522 -2.1569
  645SOL     OW 1933   1.074   1.927   0.477  0.1596 -0.2791  0.2182
  645SOL    HW1 1934   1.105   1.889   0.391 -2.7849  0.5630  3.2069
  645SOL    HW2 1935   1.149   1.917   0.543 -1.6941  0.3575  1.0146
  646SOL     OW 1936   0.018   1.714   2.593 -0.1982  0.0773 -0.1866
  646SOL    HW1 1937   3.035   1.642   2.548 -1.2116 -0.4143 -1.4579
  646SOL    HW2 1938   3.062   1.807   2.577  1.4644 -2.7266 -2.2784
  647SOL     OW 1939   1.136   0.332   0.917 -0.0778 -0.1462 -0.3174
  647SOL    HW1 1940   1.188   0.303   0.999 -1.2116 -1.0964 -3.2346
  647SOL    HW2 1941   1.189   0.386   0.847 -1.4504  0.7191 -0.1323
  648SOL     OW 1942   1.585   0.507   0.991 -0.4053  0.2418  0.1944
  648SOL    HW1 1943   1.508   0.443   0.966  2.5856 -0.4412 -0.2288
  648SOL    HW2 1944   1.662   0.451   1.022  2.1342 -0.0373 -0.7447
  649SOL     OW 1945   0.879   1.614   0.449 -0.0752 -0.4094  0.2032
  649SOL    HW1 1946   0.896   1.641   0.350 -0.9476 -0.1443 -1.2623
  649SOL    HW2 1947   0.964   1.595   0.493 -1.4464  1.5625 -2.2865
  650SOL     OW 1948   2.341   1.657   1.891 -0.4102 -0.3091  0.0933
  650SOL    HW1 1949   2.442   1.656   1.881  0.6439  0.2021 -1.7038
  650SOL    HW2 1950   2.297   1.712   1.816 -1.7910 -0.7367  0.8068
  651SOL     OW 1951   1.592   2.127   2.774  0.5252 -0.2120 -0.0841
  651SOL    HW1 1952   1.664   2.191   2.747  0.0490 -1.9875 -2.5517
  651SOL    HW2 1953   1.585   2.051   2.709  0.6925  2.1461  0.8309
  652SOL     OW 1954   2.418   1.630   0.054 -0.0539 -0.0790 -0.3873
  652SOL    HW1 1955   2.511   1.594   0.027  0.1880  1.2327  1.7283
  652SOL    HW2 1956   2.430   1.673   0.143 -3.2895 -1.2571 -1.3651
  653SOL     OW 1957   0.267   0.262   1.013  0.1455 -0.3220  0.1965
  653SOL    HW1 1958   0.363   0.246   0.993 -1.4626  0.3324  2.0726
  653SOL    HW2 1959   0.208   0.204   0.952  1.3871  0.9326 -0.3533
  654SOL     OW 1960   2.802   0.002   2.303 -0.0329 -0.5122 -0.3279
  654SOL    HW1 1961   2.899   0.028   2.297  3.7405 -1.0072  0.1794
  654SOL    HW2 1962   2.779   2.996   2.252  1.6179 -0.1755 -0.7737
  655SOL     OW 1963   0.711   2.532   0.799 -0.1538  0.4028 -0.0077
  655SOL    HW1 1964   0.637   2.559   0.731  0.1953  0.2513 -2.1998
  655SOL    HW2 1965   0.706   2.590   0.882 -0.0804  1.4335 -0.3390
  656SOL     OW 1966   0.114   0.085   2.857  0.4330 -0.1144 -0.6084
  656SOL    HW1 1967   0.068   0.049   2.770 -0.0199  0.0546 -1.4672
  656SOL    HW2 1968   0.048   0.070   2.936 -0.5972  1.2993  2.5683
  657SOL     OW 1969   0.199   1.225   2.963  0.0001 -0.1362 -0.2726
  657SOL    HW1 1970   0.221   1.318   2.990  0.6294 -0.1857  1.0386
  657SOL    HW2 1971   0.242   1.165   3.027 -2.7932  0.1933  0.8241
  658SOL     OW 1972   2.296   1.765   1.267 -0.1810 -0.0076 -0.3490
  658SOL    HW1 1973   2.256   1.859   1.279 -2.4983  1.2057 -0.2227
  658SOL    HW2 1974   2.214   1.703   1.256 -2.4418 -1.2239  0.9557
  659SOL     OW 1975   1.578   2.719   0.152  0.4981  0.0395 -0.0894
  659SOL    HW1 1976   1.581   2.625   0.205  0.7775 -3.4460 -1.3170
  659SOL    HW2 1977   1.645   2.714   0.074 -1.6611 -1.6638  2.0142
  660SOL     OW 1978   1.605   1.018   2.614 -0.1090  0.2280 -0.1868
  660SOL    HW1 1979   1.647   1.028   2.704 -0.1751 -0.1030 -1.3854
  660SOL    HW2 1980   1.600   1.109   2.566  1.6801  0.3327 -0.6001
  661SOL     OW 1981   0.119   2.103   1.083 -0.1792  0.8314  0.5290
  661SOL    HW1 1982   0.102   2.136   0.986 -0.6474 -0.5342 -1.4851
  661SOL    HW2 1983   0.060   2.026   1.114  1.4222 -1.2813  2.4795
  662SOL     OW 1984   0.400   0.517   0.185  0.2978  0.6837  0.3438
  662SOL    HW1 1985   0.323   0.567   0.222  4.8059 -2.8184 -1.4924
  662SOL    HW2 1986   0.383   0.420   0.149  0.5739 -3.5577 -0.0710
  663SOL     OW 1987   2.139   2.009   1.301  0.7754 -0.1892  0.1896
  663SOL    HW1 1988   2.104   2.099   1.319  2.9705  0.0579  1.9776
  663SOL    HW2 1989   2.065   1.944   1.330  0.1031  2.2677  1.4915
  664SOL     OW 1990   0.818   1.463   1.118  0.5763  0.5326 -0.7339
  664SOL    HW1 1991   0.732   1.512   1.148 -0.7032 -0.9247  3.0527
  664SOL    HW2 1992   0.900   1.491   1.164 -0.3876  0.0812 -1.3678
  665SOL     OW 1993   1.925   2.729   2.114 -0.3545  0.7028 -0.2798
  665SOL    HW1 1994   1.882   2.820   2.141 -2.9606  0.7286  1.0314
  665SOL    HW2 1995   1.986   2.748   2.036  2.3918 -0.8050  0.3179
  666SOL     OW 1996   2.899   2.643   0.099 -0.1949  0.2936  0.4189
  666SOL    HW1 1997   2.940   2.549   0.098 -3.2665 -2.1667  3.1840
  666SOL    HW2 1998   2.925   2.691   0.184 -0.4887  0.8646 -0.4313
  667SOL     OW 1999   2.815   1.160   1.388  0.2085  0.4863  0.2717
  667SOL    HW1 2000   2.725   1.138   1.336 -0.6348 -1.9607 -0.3813
  667SOL    HW2 2001   2.813   1.105   1.474  2.9908 -2.1069  1.1148
  668SOL     OW 2002   0.191   0.744   2.447  0.1761  0.5277 -0.1882
  668SOL    HW1 2003   0.157   0.723   2.540  0.6492 -2.4553 -2.7812
  668SOL    HW2 2004   0.111   0.751   2.381 -0.4370 -0.1415  0.2151
  669SOL     OW 2005   2.302   2.018   2.393 -0.5530  0.3426 -0.2281
  669SOL    HW1 2006   2.392   1.981   2.426 -0.1211 -0.5654 -0.9149
  669SOL    HW2 2007   2.256   1.967   2.320 -0.1363 -0.3294 -0.4734
  670SOL     OW 2008   2.709   1.451   1.807  0.8960 -0.0015 -0.0513
  670SOL    HW1 2009   2.638   1.498   1.756 -1.6275 -1.1987 -4.2095
  670SOL    HW2 2010   2.715   1.357   1.766 -0.8594 -0.8653  0.4844
  671SOL     OW 2011   2.938   1.328   0.788 -0.6182  0.4812 -0.8803
  671SOL    HW1 2012   3.011   1.338   0.717 -0.8626 -2.5969 -0.5743
  671SOL    HW2 2013   2.847   1.369   0.763 -1.9888 -0.0786  0.6720
  672SOL     OW 2014   2.327   0.696   2.110 -0.3365 -0.0309 -0.0919
  672SOL    HW1 2015   2.270   0.772   2.075  2.9965  0.2579 -2.3484
  672SOL    HW2 2016   2.373   0.717   2.198 -1.5213 -1.8590 -0.4521
  673SOL     OW 2017   2.479   3.025   1.966  0.5315 -0.2361 -0.0634
  673SOL    HW1 2018   2.478   0.018   2.038 -0.9388  2.6236 -0.6825
  673SOL    HW2 2019   2.544   2.948   1.984 -0.8324 -0.8365  0.5141
  674SOL     OW 2020   1.910   2.570   1.529  0.2750 -0.5362 -0.2745
  674SOL    HW1 2021   1.915   2.607   1.624  0.8162  3.3085  0.5524
  674SOL    HW2 2022   1.868   2.478   1.533  0.0931  0.5892  1.6136
  675SOL     OW 2023   0.859   0.804   0.809 -0.2883 -0.0452  0.4904
  675SOL    HW1 2024   0.818   0.841   0.892  0.9821  0.7138 -1.2230
  675SOL    HW2 2025   0.795   0.796   0.736 -0.5866 -1.0849  1.4871
  676SOL     OW 2026   1.693   1.023   0.794  0.0640 -0.8654  0.0530
  676SOL    HW1 2027   1.745   1.112   0.794 -0.0118  0.7174 -0.2546
  676SOL    HW2 2028   1.760   0.946   0.779 -0.7326 -0.4661  0.8006
  677SOL     OW 2029   2.652   1.354   2.374  0.2907 -0.4192 -0.1721
  677SOL    HW1 2030   2.572   1.308   2.334  0.7623 -0.1025  0.3231
  677SOL    HW2 2031   2.737   1.325   2.320  0.1615  0.8412 -1.4362
  678SOL     OW 2032   2.512   1.692   1.098  0.1455 -0.1826  0.0834
  678SOL    HW1 2033   2.589   1.725   1.158 -0.8166  0.0114 -1.2559
  678SOL    HW2 2034   2.424   1.709   1.153 -0.9153  0.8241  2.1832
  679SOL     OW 2035   2.020   2.546   0.331 -0.0396 -0.8267 -0.2168
  679SOL    HW1 2036   2.107   2.555   0.279  1.6119 -0.5291 -2.3842
  679SOL    HW2 2037   1.961   2.623   0.305  0.9073  0.3651  0.4931
  680SOL     OW 2038   2.797   2.257   1.941 -0.4232  0.1166  0.7267
  680SOL    HW1 2039   2.869   2.302   1.993  0.3657 -0.8785  0.6238
  680SOL    HW2 2040   2.831   2.260   1.842  1.0269  1.8202 -1.4830
  681SOL     OW 2041   0.488   1.318   1.734  0.2846 -0.0566 -0.2965
  681SOL    HW1 2042   0.585   1.286   1.724 -1.5223 -0.5839  1.6949
  681SOL    HW2 2043   0.482   1.417   1.752  1.8274  0.2329  2.2485
  682SOL     OW 2044   1.316   2.731   0.635  0.2450  0.0571 -0.2228
  682SOL    HW1 2045   1.390   2.675   0.598 -0.9613  0.4019 -0.9367
  682SOL    HW2 2046   1.252   2.672   0.686 -1.2685  0.1684  0.0178
  683SOL     OW 2047   2.229   1.415   0.839  0.1545  1.0759 -0.3269
  683SOL    HW1 2048   2.235   1.476   0.923  2.7168  2.2390  1.3238
  683SOL    HW2 2049   2.151   1.348   0.847  0.9518 -0.1237  3.4383
  684SOL     OW 2050   0.495   2.198   1.938  0.0018  0.1674 -0.1431
  684SOL    HW1 2051   0.435   2.163   2.013  1.0350  0.2928 -1.0118
  684SOL    HW2 2052   0.447   2.183   1.850 -1.5265 -1.1980  1.2524
  685SOL     OW 2053   1.357   1.510   0.031  0.5765  0.3785  0.3872
  685SOL    HW1 2054   1.423   1.572   3.065  1.0801 -0.9530 -0.2860
  685SOL    HW2 2055   1.345   1.426   3.049  0.2514  1.0333  0.1822
  686SOL     OW 2056   3.043   0.622   1.342 -0.0306 -0.2692 -0.1182
  686SOL    HW1 2057   2.972   0.620   1.411  1.3156  0.6096  3.1378
  686SOL    HW2 2058   3.066   0.721   1.323 -3.3879  0.9469 -0.7231
  687SOL     OW 2059   0.878   2.268   2.809 -0.2187  0.1008 -0.6464
  687SOL    HW1 2060   0.792   2.229   2.855 -0.1786  2.0128  0.0598
  687SOL    HW2 2061   0.947   2.197   2.793  0.6794  0.8794  0.7269
  688SOL     OW 2062   2.934   1.994   1.691  0.0233 -0.5471  0.3650
  688SOL    HW1 2063   2.904   2.092   1.693 -1.9101  1.5813  2.2441
  688SOL    HW2 2064   2.916   1.949   1.779  0.5827  0.9929  1.2388
  689SOL     OW 2065   1.931   0.869   1.929  0.3482 -0.1286  0.0625
  689SOL    HW1 2066   1.881   0.787   1.899 -1.8821 -0.3282 -1.4471
  689SOL    HW2 2067   1.870   0.946   1.923  0.4741  0.7422  1.9807
  690SOL     OW 2068   2.272   0.813   1.114 -0.3110  0.2435 -0.2852
  690SOL    HW1 2069   2.334   0.771   1.181 -0.7613  0.3031  0.6476
  690SOL    HW2 2070   2.330   0.888   1.071  1.3058  1.5203  1.6303
  691SOL     OW 2071   0.836   1.861   1.842  0.5171  0.1256 -0.8660
  691SOL    HW1 2072   0.851   1.915   1.928 -1.2047 -2.3451  0.5337
  691SOL    HW2 2073   0.906   1.886   1.769  0.0954  1.3859 -1.0173
  692SOL     OW 2074   2.282   0.311   1.478  0.8598  0.0745  0.9947
  692SOL    HW1 2075   2.193   0.285   1.524 -0.8923  1.8026  2.9550
  692SOL    HW2 2076   2.262   0.315   1.378  0.1637 -0.6651 -3.5287
  693SOL     OW 2077   0.365   1.264   2.279 -0.0160  0.2999 -0.3016
  693SOL    HW1 2078   0.355   1.172   2.235 -2.3933 -1.6092  0.9739
  693SOL    HW2 2079   0.351   1.333   2.209  1.2776 -2.2400  3.0858
  694SOL     OW 2080   1.768   0.025   1.100  0.2424  0.0447 -0.1645
  694SOL    HW1 2081   1.721   3.036   1.035 -1.3905 -3.5075  0.0624
  694SOL    HW2 2082   1.864   3.072   1.125  2.4124 -2.1470 -0.4760
  695SOL     OW 2083   1.413   1.131   1.957 -0.6426 -0.4260 -0.1936
  695SOL    HW1 2084   1.445   1.193   1.878  2.9884 -0.4145 -4.3073
  695SOL    HW2 2085   1.463   1.041   1.944  1.1957  0.0405 -0.1981
  696SOL     OW 2086   1.251   0.337   0.467 -0.2446 -0.3733 -0.3529
  696SOL    HW1 2087   1.203   0.386   0.391 -1.9654  0.3134 -2.2165
  696SOL    HW2 2088   1.222   0.239   0.481 -1.4868 -0.9605  0.1408
  697SOL     OW 2089   1.295   0.425   0.726  0.1530 -0.5273  0.3221
  697SOL    HW1 2090   1.320   0.523   0.727  0.2702 -1.0986  1.5680
  697SOL    HW2 2091   1.270   0.392   0.632 -0.7271  3.0538 -2.0268
  698SOL     OW 2092   1.234   1.211   2.579  0.4759 -0.2310  0.0039
  698SOL    HW1 2093   1.133   1.221   2.603 -2.6120 -0.8649  1.1847
  698SOL    HW2 2094   1.270   1.120   2.618 -2.4673 -1.7393  0.6405
  699SOL     OW 2095   1.566   1.480   1.221  0.8024 -0.0187  0.2730
  699SOL    HW1 2096   1.556   1.550   1.293  1.5782  1.5137 -0.0389
  699SOL    HW2 2097   1.477   1.427   1.211 -1.3732  1.7285  0.7322
  700SOL     OW 2098   1.491   0.405   0.350 -0.1526 -0.2183  0.2522
  700SOL    HW1 2099   1.401   0.377   0.383 -1.4689  0.3208 -4.6437
  700SOL    HW2 2100   1.569   0.360   0.397  0.4018  0.4071  1.5935
  701SOL     OW 2101   3.078   0.051   2.224 -0.0403 -0.1337 -0.0285
  701SOL    HW1 2102   0.026   0.148   2.207 -1.3527  0.1394 -1.1075
  701SOL    HW2 2103   0.077   3.072   2.227 -1.8369 -0.4190  4.8094
  702SOL     OW 2104   1.237   0.022   0.074 -0.7331  0.3630  0.1129
  702SOL    HW1 2105   1.336   0.040   0.094 -0.5571  0.8043  0.9384
  702SOL    HW2 2106   1.199   3.026   0.130 -0.3996  0.2099  0.9544
  703SOL     OW 2107   2.599   2.766   2.513  0.1986 -0.5509  0.4441
  703SOL    HW1 2108   2.501   2.796   2.510  1.5792 -0.9494 -1.2416
  703SOL    HW2 2109   2.660   2.833   2.558 -0.7514  1.2690 -0.3996
  704SOL     OW 2110   0.601   2.235   1.044  0.3679  0.4762 -0.6372
  704SOL    HW1 2111   0.603   2.239   0.940  1.1182  0.6834  0.6593
  704SOL    HW2 2112   0.634   2.151   1.089  3.6491 -0.1600  2.3359
  705SOL     OW 2113   2.894   0.344   1.946  0.3634  0.0559  0.0654
  705SOL    HW1 2114   2.837   0.255   1.951 -1.4346 -1.5248  0.7147
  705SOL    HW2 2115   2.868   0.397   2.031 -2.5634 -1.9516 -1.1834
  706SOL     OW 2116   1.714   0.283   0.456  0.3809  0.4964  0.3149
  706SOL    HW1 2117   1.713   0.193   0.405 -0.5331  0.6709  2.8659
  706SOL    HW2 2118   1.808   0.297   0.486 -3.2354  2.0520 -0.8170
  707SOL     OW 2119   1.247   2.041   1.991  0.5687 -0.2644  0.3457
  707SOL    HW1 2120   1.333   1.989   2.015 -1.8346  1.2764  3.5835
  707SOL    HW2 2121   1.267   2.117   1.922  1.0660 -0.9657  1.5441
  708SOL     OW 2122   2.887   2.264   1.682 -0.3755 -0.3075  0.3651
  708SOL    HW1 2123   2.802   2.289   1.630  0.7399 -3.6296 -1.0815
  708SOL    HW2 2124   2.972   2.312   1.654 -1.2507 -1.9915 -0.0416
  709SOL     OW 2125   1.963   0.417   1.750  0.3100 -0.4466 -0.2523
  709SOL    HW1 2126   2.009   0.490   1.697 -1.6356 -0.5613 -2.1966
  709SOL    HW2 2127   1.996   0.414   1.847 -0.5681  0.9628  2.7427
  710SOL     OW 2128   2.444   0.514   1.560 -0.2047 -0.0298  0.1198
  710SOL    HW1 2129   2.372   0.447   1.537  0.9280  0.8323  0.7006
  710SOL    HW2 2130   2.528   0.499   1.512 -2.3344 -0.3047  1.0840
  711SOL     OW 2131   0.206   2.096   0.531  0.1194  0.3496  0.2497
  711SOL    HW1 2132   0.276   2.090   0.602  0.3547 -1.1756  1.1481
  711SOL    HW2 2133   0.185   1.998   0.496  1.1033 -0.5720  0.4014
  712SOL     OW 2134   0.515   2.535   2.300  0.1147  0.3119  0.0133
  712SOL    HW1 2135   0.493   2.492   2.206 -1.4925 -2.2001  1.3283
  712SOL    HW2 2136   0.541   2.632   2.288  0.3543 -2.0671  1.2843
  713SOL     OW 2137   1.976   0.982   3.055  0.1904 -0.3778 -0.2724
  713SOL    HW1 2138   1.897   0.976   0.041 -0.0395 -0.5234 -0.2479
  713SOL    HW2 2139   2.030   0.899   3.066 -0.6118  1.4444  0.9152
  714SOL     OW 2140   0.530   1.671   0.842 -0.0754  0.0537  0.3941
  714SOL    HW1 2141   0.576   1.751   0.882  0.2559  1.0512  0.1522
  714SOL    HW2 2142   0.496   1.609   0.917 -1.9521  0.0806  1.7972
  715SOL     OW 2143   2.072   2.959   0.167  0.0001 -0.0517  0.2116
  715SOL    HW1 2144   2.103   2.881   0.105  1.5442 -4.3856 -1.2166
  715SOL    HW2 2145   1.985   3.002   0.139 -0.0780  0.8458 -2.1616
  716SOL     OW 2146   0.211   0.279   1.717  0.1875  0.0457 -0.0515
  716SOL    HW1 2147   0.169   0.292   1.806 -0.8275  0.4201 -1.3824
  716SOL    HW2 2148   0.144   0.246   1.645  4.5775 -4.0577  0.3280
  717SOL     OW 2149   0.020   0.617   0.144 -0.3461  0.0146  0.5467
  717SOL    HW1 2150   3.058   0.591   0.053  0.5918 -0.7181  2.0930
  717SOL    HW2 2151   0.041   0.538   0.208 -1.9671  0.5437  1.0749
  718SOL     OW 2152   1.354   0.974   2.697 -0.2697  0.0111 -0.5608
  718SOL    HW1 2153   1.342   0.890   2.746  1.1011  1.2509 -3.0080
  718SOL    HW2 2154   1.451   0.984   2.658  4.0756  2.1499  0.3747
  719SOL     OW 2155   2.792   1.722   2.888  0.3612  0.4003  0.4223
  719SOL    HW1 2156   2.742   1.642   2.931 -0.3151  0.2092 -2.6674
  719SOL    HW2 2157   2.883   1.693   2.865  0.7298 -1.4032 -3.7498
  720SOL     OW 2158   1.611   0.970   1.066  0.0993 -0.4086 -0.4189
  720SOL    HW1 2159   1.646   0.964   0.970 -1.9018  0.2691  1.7434
  720SOL    HW2 2160   1.574   0.878   1.094 -2.7231 -2.0378  0.2413
  721SOL     OW 2161   2.888   0.700   0.298 -0.0209 -0.6793  0.4006
  721SOL    HW1 2162   2.946   0.649   0.235 -1.4470  0.8249  3.0920
  721SOL    HW2 2163   2.956   0.740   0.367  0.4511  0.8639  1.6414
  722SOL     OW 2164   0.944   1.083   3.011  0.3422  0.3479  0.5207
  722SOL    HW1 2165   0.934   1.080   0.030 -0.0139 -0.4298  0.0681
  722SOL    HW2 2166   0.878   1.018   2.964 -1.0523 -1.0910 -1.5951
  723SOL     OW 2167   0.353   0.846   0.487 -0.3423 -0.3369 -0.8050
  723SOL    HW1 2168   0.346   0.944   0.519  2.5866 -0.1474 -1.3295
  723SOL    HW2 2169   0.356   0.842   0.387  2.5446  0.0454  2.3158
  724SOL     OW 2170   1.050   2.567   1.785  0.2579 -0.3046 -0.2481
  724SOL    HW1 2171   1.034   2.469   1.774  1.7913  2.4712 -0.8417
  724SOL    HW2 2172   1.121   2.589   1.716  0.5061  0.8541 -1.0168
  725SOL     OW 2173   2.569   0.857   1.474  0.1505 -0.6402 -0.8047
  725SOL    HW1 2174   2.516   0.947   1.465 -0.3393  0.3815 -2.5098
  725SOL    HW2 2175   2.561   0.826   1.572 -1.2692  1.6068  1.8502
  726SOL     OW 2176   1.762   2.753   0.560  0.5972  0.1394 -0.0152
  726SOL    HW1 2177   1.741   2.658   0.597 -0.3308 -0.2860 -0.1895
  726SOL    HW2 2178   1.679   2.810   0.572 -1.7836 -1.1636  1.1379
  727SOL     OW 2179   1.284   0.904   2.431  0.0630  0.7109 -0.1819
  727SOL    HW1 2180   1.256   0.990   2.385  0.1746  0.2456  0.9701
  727SOL    HW2 2181   1.345   0.849   2.366  1.2794  0.4030 -4.9835
  728SOL     OW 2182   1.459   2.684   1.238 -0.1812 -0.1775 -0.1704
  728SOL    HW1 2183   1.536   2.642   1.284 -2.9486  0.9961 -2.4696
  728SOL    HW2 2184   1.470   2.787   1.237  1.6352  0.2774 -0.5654
  729SOL     OW 2185   1.883   1.002   1.285 -0.5684 -0.3751 -0.4838
  729SOL    HW1 2186   1.798   1.054   1.296 -4.1036 -0.5862  1.6620
  729SOL    HW2 2187   1.857   0.903   1.285  0.5209  0.1495 -0.8963
  730SOL     OW 2188   0.652   2.014   2.118  0.0259 -0.0382 -0.1715
  730SOL    HW1 2189   0.672   2.116   2.124  2.6119  0.8288 -0.6520
  730SOL    HW2 2190   0.614   1.993   2.026 -0.9472  0.5366 -0.9051
  731SOL     OW 2191   0.580   0.188   0.693 -0.2119 -0.9520 -0.1335
  731SOL    HW1 2192   0.565   0.187   0.592 -0.2983 -2.6909 -1.7229
  731SOL    HW2 2193   0.680   0.174   0.718  4.2926  0.3926 -0.6489
  732SOL     OW 2194   0.650   0.620   0.216 -0.0260 -0.2378 -0.1643
  732SOL    HW1 2195   0.559   0.569   0.208 -3.0078  0.1426 -2.1073
  732SOL    HW2 2196   0.637   0.724   0.204  1.7698  1.1333  0.5138
  733SOL     OW 2197   0.911   2.316   0.981 -0.3598 -0.4299  0.1072
  733SOL    HW1 2198   0.904   2.214   0.989 -2.1282 -1.8890 -0.2355
  733SOL    HW2 2199   0.895   2.352   0.883 -1.2330  0.7628 -2.8135
  734SOL     OW 2200   3.063   1.968   2.558  0.2351 -0.0017 -0.0114
  734SOL    HW1 2201   3.069   1.983   2.457  0.6708 -0.1005  1.3458
  734SOL    HW2 2202   0.058   2.017   2.611  0.8146 -2.0757  0.9235
  735SOL     OW 2203   1.145   2.980   1.004  0.1836  0.0263  0.0639
  735SOL    HW1 2204   1.072   3.003   1.074 -2.2502  2.5474 -0.1787
  735SOL    HW2 2205   1.152   3.055   0.931 -0.0772  2.3512 -2.7903
  736SOL     OW 2206   1.890   0.259   0.087 -0.2139 -0.4831  0.0561
  736SOL    HW1 2207   1.866   0.163   0.107  1.5303 -3.0104  1.3233
  736SOL    HW2 2208   1.819   0.332   0.088  0.2512  0.7821 -0.8801
  737SOL     OW 2209   3.030   0.134   0.516 -0.1619 -0.4055  0.6491
  737SOL    HW1 2210   0.015   0.202   0.560 -0.1173  2.0979 -1.1015
  737SOL    HW2 2211   2.933   0.161   0.538  1.6685  3.5031  1.6652
  738SOL     OW 2212   2.736   2.741   1.024 -0.3896  0.0127  0.9451
  738SOL    HW1 2213   2.800   2.817   1.013 -0.8458 -0.4575  0.2471
  738SOL    HW2 2214   2.686   2.716   0.934  0.6204 -0.8515 -1.1782
  739SOL     OW 2215   1.434   2.215   0.203 -0.1720  0.3638  0.0761
  739SOL    HW1 2216   1.378   2.130   0.183 -0.4498 -0.9430 -1.2158
  739SOL    HW2 2217   1.426   2.271   0.116  0.8838  1.2254 -2.9372
  740SOL     OW 2218   1.602   3.037   0.873  0.0577  0.0678 -0.1008
  740SOL    HW1 2219   1.511   2.998   0.847  0.8580 -0.1973  0.7652
  740SOL    HW2 2220   1.617   0.038   0.819 -3.3810 -2.2805  2.7497
  741SOL     OW 2221   2.132   0.759   0.688 -0.2951  0.1710  0.0485
  741SOL    HW1 2222   2.149   0.831   0.619  0.2809 -0.2414 -0.7012
  741SOL    HW2 2223   2.041   0.712   0.681 -0.8741  0.3005  0.8069
  742SOL     OW 2224   1.221   2.131   2.294  0.1726 -0.3971  0.3582
  742SOL    HW1 2225   1.289   2.157   2.365  0.7513  0.0505  0.9594
  742SOL    HW2 2226   1.233   2.187   2.211 -2.1457 -1.8983  1.9871
  743SOL     OW 2227   2.270   0.662   1.735 -0.5586  0.2796 -0.2008
  743SOL    HW1 2228   2.325   0.744   1.769 -0.4146  0.3626  0.7876
  743SOL    HW2 2229   2.323   0.581   1.705  0.8346 -1.1135  0.4525
  744SOL     OW 2230   2.376   0.200   1.044  0.2162  0.3691 -0.3424
  744SOL    HW1 2231   2.340   0.163   0.954  0.1825 -1.4204  0.8532
  744SOL    HW2 2232   2.415   0.126   1.106  1.5494  2.6628  0.2066
  745SOL     OW 2233   1.892   1.269   1.712 -0.5289 -0.2172 -0.1281
  745SOL    HW1 2234   1.931   1.359   1.748  2.1689  1.9032  1.1235
  745SOL    HW2 2235   1.855   1.274   1.618  2.1866 -2.9272  0.5491
  746SOL     OW 2236   1.314   1.370   1.122  0.5086 -0.0533 -0.4473
  746SOL    HW1 2237   1.239   1.423   1.075 -1.8325 -1.2707 -0.2510
  746SOL    HW2 2238   1.334   1.283   1.071 -0.1470 -1.3719  1.5493
  747SOL     OW 2239   1.994   1.230   1.271  0.2251 -0.2106  0.6007
  747SOL    HW1 2240   2.089   1.240   1.225  0.3426 -0.7791  2.1915
  747SOL    HW2 2241   1.957   1.136   1.275 -1.9545  0.9727  0.4254
  748SOL     OW 2242   0.320   2.501   0.753  0.5626  0.0962 -0.3303
  748SOL    HW1 2243   0.350   2.465   0.841  1.2398 -1.3877 -0.5724
  748SOL    HW2 2244   0.264   2.429   0.707  0.2235 -2.8029  2.7254
  749SOL     OW 2245   0.026   0.022   2.604 -0.0116 -1.1641  0.4171
  749SOL    HW1 2246   3.061   3.023   2.568 -0.5207 -0.0279  1.6153
  749SOL    HW2 2247   0.117   0.032   2.557  2.5157  0.0590 -0.4119
  750SOL     OW 2248   2.424   0.516   1.016  1.0294 -0.3818  0.1266
  750SOL    HW1 2249   2.474   0.562   1.088 -1.5705 -0.2345 -3.1025
  750SOL    HW2 2250   2.449   0.412   1.011  2.4546 -0.1865 -1.2285
  751SOL     OW 2251   2.775   0.371   0.486  0.2421  0.4374 -0.1544
  751SOL    HW1 2252   2.854   0.426   0.453  0.6309  0.9521  0.2222
  751SOL    HW2 2253   2.747   0.415   0.571  2.6128 -0.5675 -2.5312
  752SOL     OW 2254   0.211   2.699   0.941 -0.2159  0.3865 -0.4926
  752SOL    HW1 2255   0.122   2.721   0.898  0.6478 -0.4235 -3.0605
  752SOL    HW2 2256   0.273   2.643   0.882  0.4139 -0.6472  1.4165
  753SOL     OW 2257   1.386   0.338   1.977 -0.2725 -0.6066 -0.6346
  753SOL    HW1 2258   1.308   0.394   1.950  0.0140 -1.2291 -1.9143
  753SOL    HW2 2259   1.440   0.309   1.897 -2.0558  1.7868  0.7446
  754SOL     OW 2260   1.844   2.410   1.978  0.4699 -0.4597 -0.1935
  754SOL    HW1 2261   1.785   2.323   1.977 -2.8137  0.7988  0.3255
  754SOL    HW2 2262   1.784   2.493   1.984  0.8973  0.4914  1.8417
  755SOL     OW 2263   2.889   0.954   0.516  0.0459  0.2452 -0.0090
  755SOL    HW1 2264   2.889   1.008   0.601  0.8866 -3.3392 -1.3459
  755SOL    HW2 2265   2.886   1.018   0.437 -0.6474 -0.2965  1.2098
  756SOL     OW 2266   1.442   1.400   2.614 -0.4396 -0.2430  0.1891
  756SOL    HW1 2267   1.352   1.354   2.595 -0.2064 -0.8626  0.1925
  756SOL    HW2 2268   1.432   1.462   2.697 -0.0983  3.0341  0.7497
  757SOL     OW 2269   1.513   2.961   0.332  0.1530 -0.1102  0.1876
  757SOL    HW1 2270   1.429   2.962   0.391 -1.5787  0.4893 -1.4160
  757SOL    HW2 2271   1.534   2.869   0.294  0.6468  0.1246  1.8803
  758SOL     OW 2272   0.593   0.004   1.332 -0.4158 -0.0044  0.2067
  758SOL    HW1 2273   0.509   0.064   1.338  0.2949 -1.6625 -1.1294
  758SOL    HW2 2274   0.608   3.043   1.238 -2.1642 -0.4340 -2.4273
  759SOL     OW 2275   0.222   0.851   1.177  0.3699 -0.3484 -0.5089
  759SOL    HW1 2276   0.211   0.827   1.277  0.2661  1.9047  3.2937
  759SOL    HW2 2277   0.130   0.865   1.143 -1.2665  0.6988 -0.4089
  760SOL     OW 2278   2.281   1.256   1.219  0.2734 -0.5106  0.0362
  760SOL    HW1 2279   2.250   1.198   1.301  2.3681 -1.8616  1.4690
  760SOL    HW2 2280   2.329   1.199   1.150  2.3578  0.5287  1.7208
  761SOL     OW 2281   1.383   1.141   1.009  0.1434  0.2751 -0.0149
  761SOL    HW1 2282   1.434   1.056   1.033  0.5063 -2.1792 -0.2873
  761SOL    HW2 2283   1.286   1.120   0.972 -3.3979 -1.9986 -0.2136
  762SOL     OW 2284   2.330   2.271   1.309  0.0808 -0.5159 -0.4474
  762SOL    HW1 2285   2.265   2.196   1.292  0.4526  0.9029 -0.0547
  762SOL    HW2 2286   2.296   2.363   1.288 -1.9215  1.1789  1.6797
  763SOL     OW 2287   1.405   1.167   2.236  0.1050 -0.2761  0.3641
  763SOL    HW1 2288   1.438   1.080   2.276 -0.6454 -0.6041  0.5026
  763SOL    HW2 2289   1.396   1.161   2.130  0.8148  1.0610 -2.9176
  764SOL     OW 2290   3.074   1.777   2.225  0.3594  0.1967  0.0613
  764SOL    HW1 2291   0.065   1.774   2.148 -2.8629 -0.2288 -1.0631
  764SOL    HW2 2292   3.044   1.684   2.252 -0.0665 -0.5943 -1.1050
  765SOL     OW 2293   0.923   2.585   1.298 -0.1575 -0.4230  0.1558
  765SOL    HW1 2294   1.023   2.603   1.290 -1.3514 -0.3291  1.8874
  765SOL    HW2 2295   0.901   2.484   1.297  2.2500  3.8161  1.5031
  766SOL     OW 2296   0.717   2.202   2.477  0.0436  0.5019 -0.2445
  766SOL    HW1 2297   0.809   2.233   2.457 -4.7265 -2.1856  0.5906
  766SOL    HW2 2298   0.697   2.112   2.430  0.2809 -3.0211  1.5156
  767SOL     OW 2299   1.693   0.329   2.709 -0.3550 -0.4852 -0.7667
  767SOL    HW1 2300   1.681   0.251   2.654  0.2334  3.2910  4.2932
  767SOL    HW2 2301   1.780   0.308   2.768  2.4407 -1.8770  0.8989
  768SOL     OW 2302   1.198   2.235   3.037  0.5799  0.4690  0.1453
  768SOL    HW1 2303   1.121   2.207   0.023 -0.5630 -0.7928  2.5825
  768SOL    HW2 2304   1.240   2.319   3.070  1.6088 -1.9621 -0.7563
  769SOL     OW 2305   3.012   2.661   1.169  0.1873  0.1682 -0.2406
  769SOL    HW1 2306   2.932   2.602   1.152 -0.4228 -0.7537 -1.7148
  769SOL    HW2 2307   3.039   2.701   1.078 -2.2566 -0.2684  0.1615
  770SOL     OW 2308   0.545   2.793   2.866  0.0660  0.1942  0.1712
  770SOL    HW1 2309   0.472   2.860   2.865  0.6079  0.1277 -1.9476
  770SOL    HW2 2310   0.607   2.813   2.784  2.4388 -2.1091 -1.5742
  771SOL     OW 2311   0.879   2.505   2.664 -0.1505 -0.3801  0.0096
  771SOL    HW1 2312   0.871   2.424   2.725 -1.7078  1.8603 -1.6873
  771SOL    HW2 2313   0.801   2.504   2.602  1.9813 -0.3723  3.5417
  772SOL     OW 2314   2.770   0.052   1.896  0.0555  0.0465 -0.2597
  772SOL    HW1 2315   2.691   0.074   1.960 -0.6433 -1.6604 -0.2510
  772SOL    HW2 2316   2.737   0.060   1.795  3.8541 -1.0181 -3.4216
  773SOL     OW 2317   1.119   2.686   2.036 -0.3215  0.3245 -0.2172
  773SOL    HW1 2318   1.059   2.660   1.962  2.2320  3.0201 -0.2868
  773SOL    HW2 2319   1.075   2.710   2.124 -0.2495 -0.7013  0.8519
  774SOL     OW 2320   1.517   0.345   2.209 -0.7252 -0.1267 -0.2481
  774SOL    HW1 2321   1.516   0.263   2.268 -2.1883  0.0219 -1.2854
  774SOL    HW2 2322   1.455   0.327   2.128  0.8174 -1.3126  1.1652
  775SOL     OW 2323   2.166   2.746   0.002  0.3789  0.2189 -0.4371
  775SOL    HW1 2324   2.188   2.673   0.072  0.1362 -1.5531 -0.3140
  775SOL    HW2 2325   2.246   2.770   3.024 -1.3127 -1.4942 -3.8489
  776SOL     OW 2326   2.181   0.907   2.044 -0.3053 -0.1132  0.3905
  776SOL    HW1 2327   2.082   0.904   2.029  2.9987 -1.0893 -0.6908
  776SOL    HW2 2328   2.236   0.910   1.955  1.1014  0.3109  2.0228
  777SOL     OW 2329   2.647   0.982   2.212 -0.4572 -0.3745 -0.1810
  777SOL    HW1 2330   2.647   0.942   2.309  0.8973  0.6279  3.3688
  777SOL    HW2 2331   2.610   0.914   2.142 -1.4400  0.5876 -0.5600
  778SOL     OW 2332   2.176   0.492   2.040  0.6111  0.0836 -0.0846
  778SOL    HW1 2333   2.233   0.571   2.055 -0.7466 -1.3077 -1.0084
  778SOL    HW2 2334   2.223   0.419   1.986 -2.8255 -0.9928  1.7251
  779SOL     OW 2335   0.085   2.969   0.137  0.1378 -0.1144 -0.2488
  779SOL    HW1 2336   0.060   3.018   0.050  1.5877  3.5671 -1.6682
  779SOL    HW2 2337   0.185   2.961   0.149  0.8432  0.9493  0.9973
  780SOL     OW 2338   2.186   0.110   2.467 -0.7406  0.1135 -0.3065
  780SOL    HW1 2339   2.158   0.197   2.420  1.0522 -0.9478  0.0323
  780SOL    HW2 2340   2.244   0.046   2.413 -0.4842 -0.0321  0.2775
  781SOL     OW 2341   0.421   0.378   1.854 -0.0858  0.4100 -0.2789
  781SOL    HW1 2342   0.513   0.365   1.812  3.4500  1.1719  0.7420
  781SOL    HW2 2343   0.347   0.346   1.788 -2.0043 -2.1686 -1.1211
  782SOL     OW 2344   1.559   1.958   2.995  0.2031  0.1535 -0.5253
  782SOL    HW1 2345   1.593   2.038   2.943 -0.9529 -2.6194  1.2575
  782SOL    HW2 2346   1.466   1.930   2.957 -3.0811 -2.2592 -1.2647
  783SOL     OW 2347   0.950   1.817   1.589 -0.5275 -0.0638  0.5506
  783SOL    HW1 2348   0.989   1.725   1.613 -0.2890 -1.2357 -1.1998
  783SOL    HW2 2349   0.911   1.811   1.494 -0.2109 -1.3121 -0.7275
  784SOL     OW 2350   1.931   0.602   2.078 -0.2641  0.0819  0.2505
  784SOL    HW1 2351   2.017   0.550   2.077  1.4259  3.0645  0.3555
  784SOL    HW2 2352   1.950   0.701   2.078 -1.1277 -0.4114 -0.0660
  785SOL     OW 2353   2.936   0.319   0.923  0.4200  0.3231  0.1930
  785SOL    HW1 2354   2.903   0.285   1.016  1.0990 -2.5138  0.8050
  785SOL    HW2 2355   2.996   0.400   0.931  0.9000  0.5307 -1.7527
  786SOL     OW 2356   1.753   0.049   0.348  0.2838 -0.0456 -0.0636
  786SOL    HW1 2357   1.838   0.026   0.392 -0.9969  1.2382 -0.4249
  786SOL    HW2 2358   1.682   3.060   0.374  0.6988  0.0265 -1.0897
  787SOL     OW 2359   1.224   0.094   0.849  0.6046 -0.5776 -0.1916
  787SOL    HW1 2360   1.319   0.124   0.832 -1.2402  1.4049  1.3134
  787SOL    HW2 2361   1.170   0.169   0.894 -0.1505 -0.8446  1.4385
  788SOL     OW 2362   0.119   1.614   1.039 -0.2364 -0.3211 -0.3261
  788SOL    HW1 2363   0.134   1.563   1.126 -1.7159  0.1946  3.4591
  788SOL    HW2 2364   0.145   1.712   1.056 -0.2767  1.5472  1.9123
  789SOL     OW 2365   2.832   0.688   2.064  0.6792  0.0221  0.0948
  789SOL    HW1 2366   2.823   0.596   2.109 -1.4048  4.6412 -1.6457
  789SOL    HW2 2367   2.879   0.755   2.121 -1.3445 -3.1486  1.2207
  790SOL     OW 2368   0.613   0.743   2.532  0.1640  0.2846 -0.0803
  790SOL    HW1 2369   0.608   0.768   2.631 -2.8502 -1.7221 -0.2422
  790SOL    HW2 2370   0.540   0.677   2.509  1.7223  2.9231 -0.8567
  791SOL     OW 2371   2.634   0.214   2.893 -0.0252  0.0220  0.0761
  791SOL    HW1 2372   2.531   0.192   2.897  0.1566  0.0843 -0.9195
  791SOL    HW2 2373   2.689   0.157   2.956 -0.6117  1.7965  0.5161
  792SOL     OW 2374   1.563   0.708   1.185  0.2607 -0.0160  0.7694
  792SOL    HW1 2375   1.567   0.630   1.120  0.8068  2.2337 -1.4680
  792SOL    HW2 2376   1.654   0.735   1.223  0.5877  1.9636  2.1933
  793SOL     OW 2377   0.323   0.045   1.439  0.1337 -0.3338 -0.2228
  793SOL    HW1 2378   0.247   0.047   1.508  2.3667 -2.2310  1.2461
  793SOL    HW2 2379   0.284   0.030   1.347 -0.1182  0.8415  0.1155
  794SOL     OW 2380   0.147   0.280   2.194  0.2788 -0.1271 -0.1847
  794SOL    HW1 2381   0.113   0.360   2.143  0.0710 -1.0732 -0.7948
  794SOL    HW2 2382   0.249   0.274   2.180  2.2669 -1.0088 -0.5346
  795SOL     OW 2383   0.395   2.268   2.639  0.0341 -0.2943  0.3558
  795SOL    HW1 2384   0.450   2.186   2.665  1.3767 -0.0109  0.0168
  795SOL    HW2 2385   0.449   2.351   2.672  2.2316  2.3519  0.6289
  796SOL     OW 2386   2.053   0.500   2.749 -0.4742  0.2116 -0.3357
  796SOL    HW1 2387   2.032   0.589   2.789 -1.0400 -2.6079  1.5538
  796SOL    HW2 2388   1.981   0.439   2.788 -0.7623  1.7954  0.9049
  797SOL     OW 2389   2.302   2.073   2.745  0.2778  0.3229  0.1439
  797SOL    HW1 2390   2.371   2.008   2.708  2.1687  0.9870 -0.4089
  797SOL    HW2 2391   2.338   2.127   2.826  2.3489 -0.0093 -0.5152
  798SOL     OW 2392   0.138   0.558   1.664 -0.8526 -0.2430  0.9077
  798SOL    HW1 2393   0.192   0.509   1.587  1.2139  1.6668  0.3224
  798SOL    HW2 2394   0.121   0.497   1.739 -0.7813  0.6902 -0.9741
  799SOL     OW 2395   0.698   0.327   1.766 -0.2168  0.0540 -0.6592
  799SOL    HW1 2396   0.766   0.391   1.727 -2.1448 -1.7757  0.3823
  799SOL    HW2 2397   0.735   0.231   1.756 -0.0299 -1.6527  0.2955
  800SOL     OW 2398   2.994   2.398   0.160 -0.3462  0.2843  0.2133
  800SOL    HW1 2399   2.934   2.316   0.164  1.9084  1.5726 -2.1891
  800SOL    HW2 2400   3.050   2.420   0.242  0.3151  2.8688 -0.5902
  801SOL     OW 2401   1.489   1.910   0.814  0.2846  0.0576  0.3534
  801SOL    HW1 2402   1.575   1.927   0.864 -2.4880 -2.2929 -1.3404
  801SOL    HW2 2403   1.431   1.839   0.863 -3.5450 -1.7282 -0.6549
  802SOL     OW 2404   0.846   0.488   0.328  0.4459 -0.1677 -0.3836
  802SOL    HW1 2405   0.870   0.534   0.415  0.1568 -1.6092  0.1537
  802SOL    HW2 2406   0.775   0.539   0.271 -0.2671 -0.4184  0.9315
  803SOL     OW 2407   1.175   1.285   1.957  0.1524  0.1682 -0.6979
  803SOL    HW1 2408   1.161   1.230   1.870  1.8392  1.0757 -2.2754
  803SOL    HW2 2409   1.275   1.308   1.971  2.8388  0.5724 -1.1411
  804SOL     OW 2410   1.659   2.297   1.231  0.1126  0.0376  0.2350
  804SOL    HW1 2411   1.678   2.336   1.323 -0.7775  2.7026 -0.0132
  804SOL    HW2 2412   1.682   2.354   1.155  0.5699 -0.7687  4.8421
  805SOL     OW 2413   2.965   2.002   2.275 -0.1156  0.2594  0.3577
  805SOL    HW1 2414   3.013   1.917   2.252  0.7766  0.8293 -2.1387
  805SOL    HW2 2415   3.021   2.081   2.253 -1.2169 -2.3248  1.9821
  806SOL     OW 2416   0.505   2.496   0.409  0.3134  0.0433 -0.2507
  806SOL    HW1 2417   0.531   2.565   0.336  1.1663  2.3640  0.0136
  806SOL    HW2 2418   0.439   2.425   0.369 -2.0344 -0.3854 -1.3582
  807SOL     OW 2419   2.301   1.026   2.823  0.1468 -0.0484 -0.2617
  807SOL    HW1 2420   2.297   1.033   2.926  0.2679  1.3979  1.1039
  807SOL    HW2 2421   2.284   0.935   2.790  0.8233  3.4681 -1.4196
  808SOL     OW 2422   1.395   2.226   0.943  0.2849  0.1527 -0.1413
  808SOL    HW1 2423   1.498   2.216   0.943 -1.1261 -0.6198  0.8284
  808SOL    HW2 2424   1.369   2.305   1.002 -0.8971  0.8870 -0.9678
  809SOL     OW 2425   0.152   0.474   0.821 -0.6434 -0.4550 -0.0958
  809SOL    HW1 2426   0.075   0.530   0.859 -0.3309 -0.7901  3.4030
  809SOL    HW2 2427   0.198   0.425   0.899  2.3296 -0.3791 -1.5937
  810SOL     OW 2428   1.069   1.456   0.069 -0.5207 -0.1433  0.3488
  810SOL    HW1 2429   1.123   1.387   0.122  1.9166  0.7298 -1.0867
  810SOL    HW2 2430   1.126   1.500   3.075  0.1263 -0.3794 -3.0993
  811SOL     OW 2431   1.597   2.879   1.472  0.3335  0.5680  0.3146
  811SOL    HW1 2432   1.622   2.798   1.415 -1.2309 -0.7986 -1.5957
  811SOL    HW2 2433   1.547   2.849   1.559 -0.8380 -1.9862  2.4831
  812SOL     OW 2434   1.463   0.268   0.873  0.2092  0.0208 -0.0211
  812SOL    HW1 2435   1.397   0.313   0.808 -3.1382 -1.0037  0.8427
  812SOL    HW2 2436   1.547   0.232   0.824 -0.7671  1.2025  0.0820
  813SOL     OW 2437   1.352   2.906   2.456  0.2093 -0.4537 -0.1275
  813SOL    HW1 2438   1.254   2.881   2.482 -1.0488 -0.3794 -0.3021
  813SOL    HW2 2439   1.361   2.935   2.356  0.0138 -3.5991 -3.0018
  814SOL     OW 2440   1.503   2.830   1.723 -0.4674 -0.1610 -0.7489
  814SOL    HW1 2441   1.532   2.735   1.738  0.0506  2.4432  0.6631
  814SOL    HW2 2442   1.535   2.890   1.797  2.3125  0.8574  0.9325
  815SOL     OW 2443   0.350   2.925   0.187 -0.3905 -0.2258 -0.0749
  815SOL    HW1 2444   0.430   2.921   0.252  0.6271 -3.0159  0.5452
  815SOL    HW2 2445   0.328   2.832   0.152 -0.4257  2.5263 -0.8404
  816SOL     OW 2446   2.217   1.487   2.646  0.4799 -0.0540 -0.3136
  816SOL    HW1 2447   2.199   1.394   2.691 -0.2418 -1.0108 -1.1305
  816SOL    HW2 2448   2.203   1.479   2.545 -1.3558 -1.2451  0.0799
  817SOL     OW 2449   2.560   2.265   2.468 -0.4636 -0.4399 -0.6561
  817SOL    HW1 2450   2.510   2.262   2.558 -1.6817  2.8317 -2.3330
  817SOL    HW2 2451   2.637   2.200   2.455 -3.3462  0.7923 -2.4910
  818SOL     OW 2452   0.976   1.100   0.242  0.1228 -0.2320 -0.5513
  818SOL    HW1 2453   0.882   1.072   0.264 -2.6024  1.1741 -1.5579
  818SOL    HW2 2454   1.022   1.125   0.332 -1.2691 -0.1211 -0.1633
  819SOL     OW 2455   1.586   1.254   2.993  0.0274 -0.1727 -0.1535
  819SOL    HW1 2456   1.487   1.262   2.963 -0.5070 -2.5007  0.5445
  819SOL    HW2 2457   1.586   1.234   0.014  0.9979 -2.9171  3.9615
  820SOL     OW 2458   0.510   0.854   0.850 -0.0176  0.1340  0.2149
  820SOL    HW1 2459   0.528   0.954   0.841 -1.9325  0.6081  0.1784
  820SOL    HW2 2460   0.509   0.805   0.762  0.6798 -1.0237 -0.0710
  821SOL     OW 2461   0.775   3.010   1.516 -0.3958 -0.1653  0.3334
  821SOL    HW1 2462   0.701   3.031   1.445 -0.6539 -0.4325  0.7159
  821SOL    HW2 2463   0.797   2.912   1.518  2.1883 -1.8872  1.0122
  822SOL     OW 2464   1.873   1.889   2.860 -0.3531  0.2022 -0.4504
  822SOL    HW1 2465   1.819   1.963   2.907 -2.9464  0.4982 -1.1532
  822SOL    HW2 2466   1.948   1.933   2.803  1.4761  0.8972  0.3134
  823SOL     OW 2467   0.912   0.463   2.284  0.0852 -0.2247  0.5247
  823SOL    HW1 2468   0.981   0.417   2.219  0.5476 -0.2724 -0.8433
  823SOL    HW2 2469   0.912   0.563   2.267  1.8951  1.8214  0.6983
  824SOL     OW 2470   2.629   2.864   1.537  0.7576  0.3744  0.3718
  824SOL    HW1 2471   2.622   2.964   1.574  1.4443  1.4583 -1.3215
  824SOL    HW2 2472   2.537   2.835   1.505 -0.4388 -0.7492 -1.2724
  825SOL     OW 2473   0.228   1.564   2.311  0.6212 -0.3856  0.1431
  825SOL    HW1 2474   0.283   1.630   2.255 -1.5515  0.0514 -0.9003
  825SOL    HW2 2475   0.128   1.571   2.290  0.9085  3.5137  0.1231
  826SOL     OW 2476   1.495   0.392   2.908  0.0288  0.1685  0.3885
  826SOL    HW1 2477   1.585   0.381   2.855  4.6335 -2.3816 -1.0568
  826SOL    HW2 2478   1.508   0.387   3.011 -0.0821 -1.1582  1.7233
  827SOL     OW 2479   0.101   2.101   2.016  0.4556  0.7564  0.1455
  827SOL    HW1 2480   0.123   2.078   1.920 -1.1418  0.9268  1.5818
  827SOL    HW2 2481   0.188   2.102   2.073 -0.9381  1.4846 -0.7320
  828SOL     OW 2482   0.173   0.007   1.216  0.4791 -0.0853  0.5031
  828SOL    HW1 2483   0.170   0.091   1.160  0.5076  0.6249 -0.4401
  828SOL    HW2 2484   0.083   3.039   1.218  0.7912  1.5062 -0.4806
  829SOL     OW 2485   1.027   1.649   2.034 -0.5832  0.3604  0.6089
  829SOL    HW1 2486   0.977   1.575   1.980  1.7720  0.2691  0.3306
  829SOL    HW2 2487   0.962   1.701   2.091 -0.4788  0.2575  2.6106
  830SOL     OW 2488   1.023   0.892   1.571  0.1537 -0.2415  0.2102
  830SOL    HW1 2489   0.924   0.888   1.553 -0.1174 -2.1208  1.6215
  830SOL    HW2 2490   1.052   0.886   1.670 -0.5589 -0.2920 -0.0955
  831SOL     OW 2491   2.509   2.024   0.123  0.1383  0.1561  0.1201
  831SOL    HW1 2492   2.552   1.988   0.035  3.8011  0.3947 -0.5258
  831SOL    HW2 2493   2.509   1.948   0.191  0.4522  1.2725  0.0530
  832SOL     OW 2494   0.952   2.411   3.029 -0.4329  0.0063  0.2484
  832SOL    HW1 2495   0.894   2.363   0.018 -1.9869 -0.5519 -1.6551
  832SOL    HW2 2496   0.959   2.367   2.938 -1.4526 -1.0519  1.1896
  833SOL     OW 2497   3.076   0.239   1.526  0.0694 -0.1548 -1.1379
  833SOL    HW1 2498   3.022   0.155   1.514  2.1287  1.8481  0.5726
  833SOL    HW2 2499   0.006   0.296   1.440 -0.6894  0.8468 -2.3469
  834SOL     OW 2500   3.034   0.624   0.964  0.2843  0.0572  0.3428
  834SOL    HW1 2501   3.021   0.614   1.062  1.6611  1.7912 -1.3674
  834SOL    HW2 2502   3.038   0.724   0.936 -0.9130  2.3836  0.7691
  835SOL     OW 2503   2.608   0.421   0.267 -0.3404 -0.3178  0.0128
  835SOL    HW1 2504   2.672   0.387   0.335  0.0212  2.9587 -1.8064
  835SOL    HW2 2505   2.519   0.453   0.308 -2.8087 -2.3422  2.4852
  836SOL     OW 2506   0.580   2.081   2.687  0.4879 -0.5470 -0.6497
  836SOL    HW1 2507   0.602   1.984   2.683 -1.0131  1.2945  0.9626
  836SOL    HW2 2508   0.623   2.127   2.608  0.4039  0.5226 -1.2021
  837SOL     OW 2509   1.366   1.812   0.354  0.2256 -0.0145 -0.2866
  837SOL    HW1 2510   1.445   1.839   0.417  0.7071  1.0997 -1.8637
  837SOL    HW2 2511   1.352   1.709   0.349 -1.8167 -0.7951 -0.3544
  838SOL     OW 2512   2.256   0.926   2.305 -0.1101  0.0248 -0.0029
  838SOL    HW1 2513   2.247   1.013   2.361  1.4279  1.3274  0.0673
  838SOL    HW2 2514   2.205   0.924   2.212 -1.1394 -2.5827 -1.4707
  839SOL     OW 2515   0.846   1.033   2.345  0.2026  0.0927  0.0205
  839SOL    HW1 2516   0.945   1.035   2.319 -1.4421 -0.9165 -2.6998
  839SOL    HW2 2517   0.831   1.043   2.447 -1.8383 -0.7482  0.9685
  840SOL     OW 2518   0.623   0.911   0.204 -0.1182  0.1047  0.0806
  840SOL    HW1 2519   0.521   0.928   0.205  1.3851 -0.3946 -0.0242
  840SOL    HW2 2520   0.666   0.992   0.161 -2.3139 -1.3159  0.7204
  841SOL     OW 2521   0.769   2.272   0.137 -0.2258  0.0812 -0.6763
  841SOL    HW1 2522   0.780   2.309   0.232 -0.6822  1.1939 -1.1849
  841SOL    HW2 2523   0.721   2.185   0.135  2.1794  1.4295  2.2952
  842SOL     OW 2524   0.502   0.477   0.737  0.2765 -0.1919  0.3752
  842SOL    HW1 2525   0.440   0.479   0.815  1.4175 -0.9566  0.6041
  842SOL    HW2 2526   0.541   0.385   0.717 -0.8375  2.4878  1.2435
  843SOL     OW 2527   0.578   0.641   1.543  0.7152  0.2805 -0.0945
  843SOL    HW1 2528   0.517   0.715   1.578  0.1427  0.6062  1.8784
  843SOL    HW2 2529   0.533   0.579   1.473 -1.1501 -0.1215 -2.5800
  844SOL     OW 2530   2.031   2.413   2.716 -0.2550  0.3730  0.2755
  844SOL    HW1 2531   2.057   2.509   2.741 -1.1184 -0.9284  1.3219
  844SOL    HW2 2532   2.087   2.376   2.640 -1.9067  0.8180  1.2285
  845SOL     OW 2533   2.338   2.900   1.748  0.0014  0.4902  0.1479
  845SOL    HW1 2534   2.422   2.907   1.807  0.4763 -1.4467  2.6563
  845SOL    HW2 2535   2.310   2.799   1.735 -0.4117  0.1860  0.6002
  846SOL     OW 2536   1.906   1.030   2.463 -0.0740 -0.2823  0.1531
  846SOL    HW1 2537   1.875   0.951   2.408 -0.2870 -1.9039 -1.9193
  846SOL    HW2 2538   1.911   1.107   2.398 -1.2263  1.2611 -2.3291
  847SOL     OW 2539   3.059   0.034   1.835  0.0686 -0.0658  0.7159
  847SOL    HW1 2540   3.003   0.121   1.829  0.3311 -2.4287 -1.1981
  847SOL    HW2 2541   3.007   3.038   1.880  1.7037  2.2180 -0.1148
  848SOL     OW 2542   2.633   2.541   0.110 -0.0984 -0.5713 -1.0531
  848SOL    HW1 2543   2.721   2.593   0.097 -0.9525 -1.0821 -0.9948
  848SOL    HW2 2544   2.587   2.590   0.189 -0.4367  2.8212  0.8248
  849SOL     OW 2545   0.591   2.887   0.632  0.2023  0.0074 -0.1919
  849SOL    HW1 2546   0.575   2.793   0.669 -1.5247  1.4396 -0.1686
  849SOL    HW2 2547   0.543   2.945   0.698 -0.4195 -0.5025 -1.9276
  850SOL     OW 2548   0.594   2.248   0.787 -0.1003  0.0160  0.4790
  850SOL    HW1 2549   0.599   2.348   0.773 -0.8244 -1.1315  1.5433
  850SOL    HW2 2550   0.669   2.208   0.728  0.2550 -0.9926  2.1122
  851SOL     OW 2551   2.271   0.395   2.920 -0.2318 -0.1646 -0.0693
  851SOL    HW1 2552   2.238   0.391   2.824  2.0727 -1.0865 -1.1445
  851SOL    HW2 2553   2.324   0.312   2.942 -2.3050  0.3144  1.7244
  852SOL     OW 2554   1.570   1.930   2.535  0.0175  0.6718 -0.0055
  852SOL    HW1 2555   1.585   1.831   2.542 -0.6521 -1.2487 -0.0515
  852SOL    HW2 2556   1.573   1.952   2.436 -0.6746  1.6182  1.3651
  853SOL     OW 2557   2.863   2.167   0.278  0.3338  0.1909 -0.6290
  853SOL    HW1 2558   2.864   2.102   0.200  1.6907  3.1937 -0.1543
  853SOL    HW2 2559   2.893   2.127   0.366 -1.0870  0.8245 -1.1219
  854SOL     OW 2560   1.701   0.489   2.036 -0.0060 -0.2556  0.3343
  854SOL    HW1 2561   1.679   0.417   2.105  0.6268  1.9845  2.3232
  854SOL    HW2 2562   1.787   0.537   2.063  1.7758 -1.9303  1.7804
  855SOL     OW 2563   0.169   2.658   0.553 -0.9196 -0.1069 -0.3035
  855SOL    HW1 2564   0.224   2.618   0.627  0.8593 -0.8719 -0.8791
  855SOL    HW2 2565   0.168   2.585   0.476 -2.7833 -1.3915 -0.7792
  856SOL     OW 2566   0.406   2.872   2.587 -0.5861 -0.6270 -0.1405
  856SOL    HW1 2567   0.364   2.776   2.573  0.6543 -1.7928 -0.0934
  856SOL    HW2 2568   0.514   2.856   2.589  5.8551 -0.0404 -1.2620
  857SOL     OW 2569   1.115   0.248   1.728 -0.5773  0.1858 -0.0497
  857SOL    HW1 2570   1.103   0.316   1.806 -1.2028  2.8473  3.8777
  857SOL    HW2 2571   1.094   0.287   1.636 -3.2604  2.9788  1.9579
  858SOL     OW 2572   0.122   2.069   1.755 -0.0046  0.3341  0.2948
  858SOL    HW1 2573   0.029   2.061   1.711  2.6064 -0.4601 -0.2035
  858SOL    HW2 2574   0.184   2.137   1.713  0.1803 -4.1464  0.4446
  859SOL     OW 2575   2.136   2.683   1.928 -0.3776 -0.1459 -0.6273
  859SOL    HW1 2576   2.221   2.702   1.980 -0.3546 -3.3688  2.1612
  859SOL    HW2 2577   2.139   2.583   1.919  0.6409  0.7016 -0.2336
  860SOL     OW 2578   1.682   0.767   0.505  0.2181  0.0425  0.2552
  860SOL    HW1 2579   1.676   0.867   0.524  0.5607 -0.1839 -1.4913
  860SOL    HW2 2580   1.597   0.737   0.454 -1.3073  0.6846  2.0359
  861SOL     OW 2581   2.865   0.597   0.739  0.2771 -0.2881 -0.4263
  861SOL    HW1 2582   2.939   0.610   0.803 -1.1809  0.8103  1.2836
  861SOL    HW2 2583   2.902   0.575   0.646  1.8873  0.4113 -0.2973
  862SOL     OW 2584   2.071   0.611   1.518 -0.1757  0.3880  0.1211
  862SOL    HW1 2585   2.106   0.599   1.419  1.0559  1.2550 -2.4942
  862SOL    HW2 2586   2.150   0.635   1.580  2.8141 -1.4763 -1.0031
  863SOL     OW 2587   0.756   0.807   1.058 -0.5856  0.0428  0.0182
  863SOL    HW1 2588   0.722   0.719   1.094 -1.2808  4.3248 -0.8249
  863SOL    HW2 2589   0.834   0.835   1.111 -1.8660  0.5288 -0.0664
  864SOL     OW 2590   2.904   2.948   2.067  0.6277  0.2005 -0.1069
  864SOL    HW1 2591   2.948   2.989   2.151  0.0395 -2.0359  0.6504
  864SOL    HW2 2592   2.856   3.017   2.001  0.2948 -0.0653 -1.4221
  865SOL     OW 2593   1.252   0.516   2.284  0.2960  0.2121  0.4522
  865SOL    HW1 2594   1.276   0.559   2.373  0.7782  1.1838 -2.5664
  865SOL    HW2 2595   1.265   0.416   2.281 -1.5183  0.9532  1.3078
  866SOL     OW 2596   2.543   2.769   0.265 -0.2798 -0.1812 -0.1811
  866SOL    HW1 2597   2.474   2.830   0.313 -0.9948 -1.3538 -0.6891
  866SOL    HW2 2598   2.615   2.737   0.329  0.7522  0.7912 -0.3223
  867SOL     OW 2599   2.740   2.708   0.436  0.2222  0.4018  0.1386
  867SOL    HW1 2600   2.706   2.610   0.448  1.6770 -2.3145  0.6867
  867SOL    HW2 2601   2.827   2.715   0.383 -0.5096 -1.1259  1.0456
  868SOL     OW 2602   1.733   1.081   2.847 -0.5897 -0.5629 -0.1676
  868SOL    HW1 2603   1.825   1.071   2.895  0.7135  0.0829 -0.1685
  868SOL    HW2 2604   1.673   1.143   2.902 -1.1052 -2.3014 -0.0673
  869SOL     OW 2605   2.590   2.483   0.437  0.3842 -0.2079  0.2472
  869SOL    HW1 2606   2.503   2.487   0.492  0.7503 -0.6774  0.5663
  869SOL    HW2 2607   2.604   2.393   0.404  0.7061 -0.4297 -0.5391
  870SOL     OW 2608   2.088   2.131   0.604  0.7001 -0.0925  0.4380
  870SOL    HW1 2609   2.056   2.102   0.695 -0.4506 -0.8863  0.3588
  870SOL    HW2 2610   2.190   2.125   0.597  0.2120  2.5556  3.9322
  871SOL     OW 2611   0.451   1.278   1.469 -0.2613  0.5809  0.8393
  871SOL    HW1 2612   0.356   1.303   1.457  2.2260  0.9262 -0.3223
  871SOL    HW2 2613   0.473   1.289   1.574  1.5494  2.6345  2.5492
  872SOL     OW 2614   1.157   1.890   2.221 -0.0813 -0.3439 -0.7206
  872SOL    HW1 2615   1.171   1.985   2.257  1.2965 -0.6574 -0.6092
  872SOL    HW2 2616   1.241   1.866   2.168  1.0591 -0.5681 -0.4490
  873SOL     OW 2617   0.736   2.416   1.944  0.7122 -0.3673  0.1710
  873SOL    HW1 2618   0.769   2.509   1.933 -0.4547 -2.9154  0.6386
  873SOL    HW2 2619   0.638   2.415   1.974 -2.9805 -0.2625  1.6152
  874SOL     OW 2620   0.875   0.347   1.313  0.1518 -0.0442  0.5103
  874SOL    HW1 2621   0.873   0.390   1.223  0.2881 -0.4532 -0.8336
  874SOL    HW2 2622   0.915   0.411   1.385 -3.5601 -0.5582  1.3883
  875SOL     OW 2623   2.889   0.285   1.188 -0.0424 -0.1210 -0.1349
  875SOL    HW1 2624   2.987   0.312   1.207  0.1950 -0.2198 -0.6271
  875SOL    HW2 2625   2.854   0.212   1.251 -1.7936 -3.7724 -3.5395
  876SOL     OW 2626   0.348   0.911   0.233  0.0201 -0.0753 -0.1493
  876SOL    HW1 2627   0.342   0.934   0.134  0.7454 -0.7514 -1.8679
  876SOL    HW2 2628   0.258   0.936   0.271 -0.3086 -0.4389  0.5234
  877SOL     OW 2629   1.184   0.653   1.515  0.3215  0.3034  0.1773
  877SOL    HW1 2630   1.234   0.676   1.431 -0.0661  0.6047 -0.2561
  877SOL    HW2 2631   1.104   0.715   1.526  0.0485 -0.2600 -1.5727
  878SOL     OW 2632   1.989   2.142   0.322  0.1026 -0.3120  0.0932
  878SOL    HW1 2633   2.022   2.058   0.268  1.2786 -2.3711  0.6396
  878SOL    HW2 2634   2.037   2.141   0.412 -1.5939  0.6987  1.3461
  879SOL     OW 2635   2.833   1.435   1.390 -0.2680 -0.5162 -0.3965
  879SOL    HW1 2636   2.856   1.475   1.296  0.9440  1.7532 -0.8470
  879SOL    HW2 2637   2.839   1.337   1.397  0.0114  1.2106 -1.0911
  880SOL     OW 2638   1.454   2.356   0.680 -0.5353  0.3715  0.8185
  880SOL    HW1 2639   1.428   2.350   0.778 -2.9534  1.9638 -2.5406
  880SOL    HW2 2640   1.434   2.275   0.622  0.3959 -0.4488 -2.2225
  881SOL     OW 2641   0.749   2.346   0.399 -0.4210  0.2153 -0.2821
  881SOL    HW1 2642   0.732   2.253   0.440 -0.3064 -2.6376  0.9283
  881SOL    HW2 2643   0.675   2.411   0.430 -1.7562  0.2306  0.7261
  882SOL     OW 2644   2.028   0.974   1.015  0.5166 -0.7353  0.6621
  882SOL    HW1 2645   2.108   0.922   1.048 -0.7452  1.8483  2.4815
  882SOL    HW2 2646   1.960   0.986   1.090  1.6683 -1.5242 -2.6638
  883SOL     OW 2647   1.678   0.861   1.673  0.0465  0.2977 -0.2054
  883SOL    HW1 2648   1.704   0.775   1.723  0.4397 -1.3528  1.8173
  883SOL    HW2 2649   1.759   0.903   1.626  0.2289 -0.2734 -1.7762
  884SOL     OW 2650   2.699   0.444   0.009 -0.4296 -1.1564  0.2130
  884SOL    HW1 2651   2.660   0.425   0.104 -1.7341 -0.4966 -1.8072
  884SOL    HW2 2652   2.673   0.370   3.022 -0.8569  1.2450  3.9932
  885SOL     OW 2653   0.966   1.264   2.633  0.3105  0.4340 -0.0278
  885SOL    HW1 2654   0.973   1.306   2.725 -0.3027 -1.3005 -0.7978
  885SOL    HW2 2655   0.888   1.310   2.588  1.3640  0.5205 -1.6688
  886SOL     OW 2656   1.311   1.888   2.637  0.4240 -0.1747  0.1168
  886SOL    HW1 2657   1.239   1.912   2.567 -0.1410 -1.7484 -2.3064
  886SOL    HW2 2658   1.407   1.909   2.607 -0.2985 -0.6798 -0.8146
  887SOL     OW 2659   1.252   0.243   1.130  0.3534 -0.5501  0.0562
  887SOL    HW1 2660   1.350   0.230   1.158  0.3703  4.0113  2.1737
  887SOL    HW2 2661   1.202   0.310   1.187  1.1590  0.6498  1.9741
  888SOL     OW 2662   2.553   0.711   1.704  0.4545 -0.0845  0.6311
  888SOL    HW1 2663   2.648   0.698   1.739  1.9988 -0.3872 -0.9911
  888SOL    HW2 2664   2.521   0.641   1.639 -0.6243 -2.0329 -0.7228
  889SOL     OW 2665   2.914   2.510   0.741 -0.2901  0.4806 -0.2764
  889SOL    HW1 2666   2.918   2.474   0.646 -1.7519 -1.9912 -0.1853
  889SOL    HW2 2667   2.924   2.438   0.812  0.1945 -1.6467  1.4823
  890SOL     OW 2668   1.700   2.202   0.586  0.0373 -0.0883  0.8213
  890SOL    HW1 2669   1.749   2.280   0.548 -0.0490  1.7885  2.0894
  890SOL    HW2 2670   1.614   2.183   0.534  1.0754 -0.8745  1.5186
  891SOL     OW 2671   0.502   1.016   2.844  0.2248 -0.3408 -0.3440
  891SOL    HW1 2672   0.473   1.061   2.757  0.8486 -0.1386 -1.5045
  891SOL    HW2 2673   0.557   0.933   2.829  0.3678 -0.0414  0.3477
  892SOL     OW 2674   3.010   2.629   1.451 -0.1789  0.1266  0.0995
  892SOL    HW1 2675   3.042   2.637   1.354  1.0831 -0.2544  1.4699
  892SOL    HW2 2676   2.911   2.649   1.460  1.4470  1.6445 -1.2341
  893SOL     OW 2677   1.513   0.145   1.111 -0.0512 -0.0838  0.2856
  893SOL    HW1 2678   1.607   0.102   1.109 -2.6879 -1.9003 -2.4796
  893SOL    HW2 2679   1.491   0.186   1.019  1.4371 -0.1112  1.0589
  894SOL     OW 2680   2.619   0.470   0.724  0.6679  0.4738 -0.1179
  894SOL    HW1 2681   2.696   0.532   0.758  0.8754  0.9959 -1.4455
  894SOL    HW2 2682   2.531   0.520   0.715  0.8296 -1.0985 -1.7558
  895SOL     OW 2683   1.934   1.469   2.490 -0.0645  0.1224 -0.3265
  895SOL    HW1 2684   1.954   1.553   2.545 -1.5037 -1.3872  0.8010
  895SOL    HW2 2685   1.929   1.386   2.548  0.1583  0.3492 -0.1375
  896SOL     OW 2686   1.542   0.442   1.588  0.6700  0.3770  0.5634
  896SOL    HW1 2687   1.513   0.371   1.526  1.1031  0.9629  0.2914
  896SOL    HW2 2688   1.628   0.483   1.552  0.4926  1.2304  0.9589
  897SOL     OW 2689   0.704   1.645   1.764 -0.3179 -0.1308 -0.1019
  897SOL    HW1 2690   0.755   1.561   1.775 -1.0265 -0.6286 -1.4530
  897SOL    HW2 2691   0.766   1.716   1.811 -0.7048  1.8015  2.0233
  898SOL     OW 2692   2.311   2.572   2.290 -0.5002  0.3912  0.1734
  898SOL    HW1 2693   2.218   2.546   2.268  1.2124  1.1242  1.3785
  898SOL    HW2 2694   2.381   2.504   2.263 -3.1915  0.2561  0.6515
  899SOL     OW 2695   1.045   1.459   1.398 -0.2771  0.1655  0.0017
  899SOL    HW1 2696   1.120   1.385   1.398 -0.1280  0.6909  2.0091
  899SOL    HW2 2697   1.061   1.542   1.337  0.2572 -1.1481 -1.2775
  900SOL     OW 2698   1.035   2.062   2.701 -0.6460  0.0673  0.3811
  900SOL    HW1 2699   1.066   1.999   2.771 -0.5075 -0.1099 -0.3636
  900SOL    HW2 2700   0.971   2.017   2.638  2.1475  2.3566  1.2956
  901SOL     OW 2701   0.617   1.968   2.386  0.9097 -0.4085  0.1740
  901SOL    HW1 2702   0.612   1.987   2.283 -0.6258 -4.2029 -0.3820
  901SOL    HW2 2703   0.524   1.930   2.418 -1.3508 -2.6663 -1.9283
  902SOL     OW 2704   2.096   1.652   0.286  0.1538 -0.2403 -0.3936
  902SOL    HW1 2705   2.089   1.570   0.235 -1.1180  0.5415 -0.2756
  902SOL    HW2 2706   2.165   1.643   0.361  0.8790  0.6500  1.2761
  903SOL     OW 2707   1.941   1.754   0.571 -0.0933 -0.7130 -0.3329
  903SOL    HW1 2708   1.912   1.845   0.541 -0.4045  2.3044 -1.8323
  903SOL    HW2 2709   1.983   1.702   0.493  0.1782 -0.9357  1.7161
  904SOL     OW 2710   0.967   0.623   2.551 -0.5056 -0.4498 -0.5199
  904SOL    HW1 2711   0.987   0.525   2.524 -0.1331 -0.5196 -3.3500
  904SOL    HW2 2712   0.896   0.661   2.485 -2.3061  1.3251 -0.6429
  905SOL     OW 2713   2.686   0.223   0.814  0.8041 -0.1696 -0.5409
  905SOL    HW1 2714   2.642   0.297   0.754 -1.1610  0.1620 -1.4557
  905SOL    HW2 2715   2.769   0.264   0.860 -1.3379  0.7053  1.5452
  906SOL     OW 2716   2.604   2.058   0.538 -0.6831 -0.4427  0.3139
  906SOL    HW1 2717   2.619   1.978   0.477 -2.6037  1.3093 -1.2620
  906SOL    HW2 2718   2.688   2.090   0.592 -1.1239 -1.3848 -0.2588
  907SOL     OW 2719   1.494   0.685   0.341  0.1317  0.3091  0.5323
  907SOL    HW1 2720   1.525   0.592   0.325 -0.7069  2.0413  1.0759
  907SOL    HW2 2721   1.391   0.688   0.329  2.0888 -0.3596 -1.7649
  908SOL     OW 2722   1.805   0.254   1.345  0.0385 -0.0256  0.0065
  908SOL    HW1 2723   1.888   0.216   1.305 -0.1151  0.6877  0.4415
  908SOL    HW2 2724   1.750   0.172   1.377 -0.4994  3.3163  4.0251
  909SOL     OW 2725   2.703   0.606   1.086 -0.2383 -0.9923  0.2056
  909SOL    HW1 2726   2.657   0.526   1.131 -0.2173 -1.7602  1.0851
  909SOL    HW2 2727   2.736   0.586   0.989  1.8883 -0.1530 -1.3959
  910SOL     OW 2728   1.093   2.844   2.526 -0.3572  0.2460 -0.2364
  910SOL    HW1 2729   1.026   2.829   2.609 -3.5305  1.4131  5.6756
  910SOL    HW2 2730   1.054   2.823   2.435  0.7522 -1.0034  0.1705
  911SOL     OW 2731   2.317   0.947   1.822  0.3488 -0.1154  0.5723
  911SOL    HW1 2732   2.388   1.019   1.803  0.0252 -1.2643 -1.0398
  911SOL    HW2 2733   2.231   0.974   1.775  0.7668 -2.6198 -3.3239
  912SOL     OW 2734   2.467   1.790   1.458  0.1401  0.1751  0.2004
  912SOL    HW1 2735   2.392   1.791   1.388 -2.4923 -0.4817  0.8721
  912SOL    HW2 2736   2.552   1.836   1.421 -0.9545  0.7127 -0.5400
  913SOL     OW 2737   2.583   2.239   1.188  0.3149  0.5991  0.3148
  913SOL    HW1 2738   2.491   2.263   1.209 -0.0361  0.5243 -0.8431
  913SOL    HW2 2739   2.578   2.149   1.137 -2.2341  1.5003 -0.7575
  914SOL     OW 2740   1.951   1.815   1.380  0.2662  0.2436  0.3594
  914SOL    HW1 2741   1.996   1.725   1.345  1.5173 -2.7375 -2.6417
  914SOL    HW2 2742   1.931   1.796   1.478 -2.2933 -0.4145  0.0041
  915SOL     OW 2743   1.258   1.712   1.457 -0.2513  0.2253  0.3276
  915SOL    HW1 2744   1.245   1.788   1.520 -0.8308  1.4358 -0.8054
  915SOL    HW2 2745   1.268   1.748   1.362  1.7442  1.3671 -0.1264
  916SOL     OW 2746   2.750   2.626   1.437  0.0878 -0.2538 -0.1654
  916SOL    HW1 2747   2.737   2.585   1.345 -2.6721 -0.9640 -1.6774
  916SOL    HW2 2748   2.692   2.710   1.453 -2.3339 -0.4963  1.1215
  917SOL     OW 2749   2.486   1.821   2.509 -0.0110 -0.4690 -0.3859
  917SOL    HW1 2750   2.578   1.796   2.536  0.7302 -0.3544 -1.6311
  917SOL    HW2 2751   2.418   1.784   2.579 -1.6391  2.1805  0.3818
  918SOL     OW 2752   1.606   2.018   2.270 -0.1277 -0.1848 -0.6099
  918SOL    HW1 2753   1.612   2.121   2.291  1.8487  1.2686  0.2922
  918SOL    HW2 2754   1.699   1.985   2.252 -0.1733  2.0244 -3.0812
  919SOL     OW 2755   1.326   2.318   1.825 -0.0530  0.0131  0.4424
  919SOL    HW1 2756   1.420   2.304   1.866  3.1022  2.5914 -0.5460
  919SOL    HW2 2757   1.318   2.299   1.730  2.9592  0.6190  0.6106
  920SOL     OW 2758   3.070   0.350   2.851  0.3081  0.3987  0.1727
  920SOL    HW1 2759   0.041   0.403   2.784 -1.4868 -0.3391  2.3453
  920SOL    HW2 2760   0.008   0.244   2.846  0.2787 -4.6964  1.2697
  921SOL     OW 2761   2.598   0.095   2.485  0.2721 -0.5295  0.3276
  921SOL    HW1 2762   2.670   0.053   2.419  0.8147 -0.9556 -2.4225
  921SOL    HW2 2763   2.609   0.198   2.479 -0.0938 -1.0648 -1.4561
  922SOL     OW 2764   2.339   1.790   0.709 -0.0348 -0.1966  0.4644
  922SOL    HW1 2765   2.338   1.889   0.681  0.1400  0.3647 -1.0505
  922SOL    HW2 2766   2.286   1.781   0.796 -1.6271  2.6007 -0.2560
  923SOL     OW 2767   0.268   1.619   0.439 -0.6310 -0.0975 -0.5437
  923SOL    HW1 2768   0.347   1.571   0.396 -2.3040 -0.6438 -0.4223
  923SOL    HW2 2769   0.299   1.668   0.525 -1.0020  1.7377  0.5643
  924SOL     OW 2770   1.392   0.608   3.021  0.1021 -0.1673  0.2545
  924SOL    HW1 2771   1.450   0.694   3.027 -0.1599 -3.0899  1.9551
  924SOL    HW2 2772   1.428   0.532   2.966  1.4420  0.2954 -1.4587
  925SOL     OW 2773   2.607   1.128   0.686  0.1491  0.5307 -0.1021
  925SOL    HW1 2774   2.570   1.202   0.749  0.9248  0.4471  1.4863
  925SOL    HW2 2775   2.547   1.121   0.608 -0.7976  0.5682  1.5195
  926SOL     OW 2776   2.686   1.044   1.051 -0.1453 -0.1584  0.2016
  926SOL    HW1 2777   2.688   0.973   1.127  0.0334 -1.9450  0.4526
  926SOL    HW2 2778   2.695   0.993   0.959  1.9831  0.7580  1.3419
  927SOL     OW 2779   0.469   1.217   0.289  0.1627  0.4029 -0.0890
  927SOL    HW1 2780   0.554   1.212   0.235 -2.3173  2.2002  0.0632
  927SOL    HW2 2781   0.472   1.302   0.340  1.0376 -1.3289 -0.7730
  928SOL     OW 2782   0.114   0.331   2.493  0.2952 -0.2728 -0.5594
  928SOL    HW1 2783   0.214   0.333   2.497  0.9326 -1.5612 -0.5235
  928SOL    HW2 2784   0.083   0.265   2.421  1.3315 -1.5301 -1.3360
  929SOL     OW 2785   3.017   2.938   1.180  0.4896 -0.0613  0.4087
  929SOL    HW1 2786   2.956   2.966   1.102 -2.0812  0.1961  0.1467
  929SOL    HW2 2787   3.042   2.840   1.174  0.1009  2.2035 -1.3501
  930SOL     OW 2788   1.787   2.287   1.507  0.1044  0.6898 -0.2137
  930SOL    HW1 2789   1.706   2.229   1.508 -0.2582  1.9850  2.0673
  930SOL    HW2 2790   1.846   2.254   1.589  2.3940 -0.6841  3.4374
  931SOL     OW 2791   1.589   1.300   0.957  0.5316  0.0327  0.2313
  931SOL    HW1 2792   1.609   1.336   1.053  0.5755  2.5806 -2.4836
  931SOL    HW2 2793   1.515   1.230   0.962  0.8509 -0.3425 -2.2051
  932SOL     OW 2794   2.988   0.884   1.196  0.6321  0.1796 -0.2637
  932SOL    HW1 2795   2.886   0.877   1.208 -0.1456 -0.7368 -1.7200
  932SOL    HW2 2796   3.023   0.978   1.213 -0.1745  0.7064  0.8961
  933SOL     OW 2797   2.592   1.440   1.485 -0.2111  0.6052  0.1619
  933SOL    HW1 2798   2.597   1.506   1.559 -1.3076 -0.5595 -1.8833
  933SOL    HW2 2799   2.676   1.448   1.425 -1.2679 -1.4411  3.6579
  934SOL     OW 2800   1.787   0.342   1.072  0.2049  0.1028  0.2313
  934SOL    HW1 2801   1.785   0.305   1.163  1.9321  0.9915  0.0259
  934SOL    HW2 2802   1.812   0.267   1.012  2.3547  0.9472  1.2775
  935SOL     OW 2803   0.308   1.346   1.060 -0.2032 -0.1012  0.0813
  935SOL    HW1 2804   0.210   1.355   1.050  2.4840  2.2869  0.3737
  935SOL    HW2 2805   0.328   1.251   1.081 -2.6270  3.4175 -4.1702
  936SOL     OW 2806   3.040   0.880   0.842 -0.3260 -0.1806  0.1681
  936SOL    HW1 2807   2.971   0.939   0.795  0.7221 -1.0927 -1.2833
  936SOL    HW2 2808   0.045   0.936   0.851  0.3635  0.4214 -0.6651
  937SOL     OW 2809   1.828   2.886   0.901 -0.1612 -0.4018 -0.3707
  937SOL    HW1 2810   1.740   2.938   0.886 -0.9441  1.3841 -1.7525
  937SOL    HW2 2811   1.898   2.925   0.835 -1.8957  0.6331  1.2412
  938SOL     OW 2812   2.485   2.427   0.840  0.0811  0.0749  0.5142
  938SOL    HW1 2813   2.529   2.499   0.783 -0.9111 -1.6458  1.8281
  938SOL    HW2 2814   2.394   2.460   0.874 -2.3955  1.8034 -0.8377
  939SOL     OW 2815   0.332   1.897   2.812  0.2446 -0.5685  0.1016
  939SOL    HW1 2816   0.431   1.888   2.790  1.0405 -2.1647  0.4918
  939SOL    HW2 2817   0.330   1.921   2.914  1.1861 -0.7008 -0.3039
  940SOL     OW 2818   2.952   2.785   2.951  0.6656 -0.6731  0.4689
  940SOL    HW1 2819   2.931   2.747   3.043  0.8704  2.5951  0.2902
  940SOL    HW2 2820   3.037   2.748   2.910 -0.9622  3.2980  0.4552
  941SOL     OW 2821   0.927   2.676   3.043 -0.4567 -0.5773  0.4083
  941SOL    HW1 2822   0.958   2.584   3.011 -0.1882 -1.0538 -0.9464
  941SOL    HW2 2823   0.967   2.757   2.995 -0.0702  2.0392  0.1002
  942SOL     OW 2824   1.498   1.874   1.638 -0.2476  0.4541  0.4179
  942SOL    HW1 2825   1.539   1.878   1.730  0.4096  0.3263  1.2302
  942SOL    HW2 2826   1.536   1.797   1.581 -0.3391 -0.4966  0.2457
  943SOL     OW 2827   2.226   1.135   1.460 -0.4576 -0.0110  0.0142
  943SOL    HW1 2828   2.323   1.131   1.480  0.1889  0.1256 -4.4011
  943SOL    HW2 2829   2.164   1.098   1.533  1.5784 -1.8246  2.1522
  944SOL     OW 2830   1.955   0.870   1.546  0.2440 -0.1164  0.1180
  944SOL    HW1 2831   1.947   0.903   1.452 -1.0697  0.4476 -0.2225
  944SOL    HW2 2832   2.002   0.779   1.548  1.8838  1.5951 -2.5702
  945SOL     OW 2833   3.026   2.738   0.864 -0.3354  0.3769 -0.0008
  945SOL    HW1 2834   2.961   2.660   0.840 -1.8883 -1.2796 -0.5058
  945SOL    HW2 2835   3.008   2.820   0.808 -0.0941  1.0000  0.8011
  946SOL     OW 2836   0.358   0.641   1.805  0.1083 -0.2422 -0.3256
  946SOL    HW1 2837   0.301   0.666   1.723 -1.0631  1.5813 -1.9942
  946SOL    HW2 2838   0.348   0.542   1.817 -6.6222 -1.2988 -1.3707
  947SOL     OW 2839   0.525   2.627   0.653 -0.3977  0.0078 -0.0028
  947SOL    HW1 2840   0.530   2.593   0.554  2.6547  0.0585 -0.0637
  947SOL    HW2 2841   0.441   2.593   0.705 -2.8793  1.0014 -1.0166
  948SOL     OW 2842   2.991   1.289   1.817  0.1028  0.0535 -0.3043
  948SOL    HW1 2843   3.052   1.354   1.761 -1.7488  3.8320 -1.4201
  948SOL    HW2 2844   3.040   1.204   1.841  0.0493  3.7608 -1.4787
  949SOL     OW 2845   0.300   0.986   2.187  0.4676 -0.5448  0.6049
  949SOL    HW1 2846   0.353   0.936   2.258 -1.6647 -0.2401  1.9692
  949SOL    HW2 2847   0.292   0.930   2.100 -2.1025  1.0079 -2.8706
  950SOL     OW 2848   0.897   0.641   1.310 -0.4159 -0.0513  0.0211
  950SOL    HW1 2849   0.917   0.732   1.345 -0.2135 -2.7126  1.6463
  950SOL    HW2 2850   0.817   0.638   1.249 -0.2952  0.8863  1.1125
  951SOL     OW 2851   0.938   2.018   2.045  0.9718  0.2922 -0.3041
  951SOL    HW1 2852   1.034   2.008   2.080 -2.3086  0.9080  1.3378
  951SOL    HW2 2853   0.911   2.115   2.064 -0.6769 -0.9424  0.4413
  952SOL     OW 2854   0.623   1.815   2.736  0.6007  0.1023 -0.0290
  952SOL    HW1 2855   0.682   1.781   2.811  0.8889  2.2873  0.8859
  952SOL    HW2 2856   0.615   1.746   2.659  1.0744 -1.8507  0.1131
  953SOL     OW 2857   1.833   2.969   2.210 -0.1500 -0.1179 -0.5528
  953SOL    HW1 2858   1.835   2.972   2.312  1.1675  1.3089  1.6579
  953SOL    HW2 2859   1.825   3.065   2.169  0.4925  2.6739 -1.7835
  954SOL     OW 2860   1.797   1.255   0.778 -0.2646 -0.2792 -0.1128
  954SOL    HW1 2861   1.718   1.277   0.845 -0.4482 -0.3205  1.7779
  954SOL    HW2 2862   1.794   1.321   0.703 -1.7359  0.4064  0.5830
  955SOL     OW 2863   0.458   2.433   2.054 -0.0836 -0.7774  0.1760
  955SOL    HW1 2864   0.474   2.344   2.004  0.0597  0.1933  1.1995
  955SOL    HW2 2865   0.378   2.483   2.010  1.6726 -0.3227 -1.4106
  956SOL     OW 2866   1.495   0.923   1.465 -0.2063  0.3134 -0.5842
  956SOL    HW1 2867   1.454   0.848   1.417  3.2391  0.1172  0.6186
  956SOL    HW2 2868   1.554   0.897   1.542 -1.9889  3.3044  1.1109
  957SOL     OW 2869   2.177   1.453   2.361 -0.2849  0.4160 -0.0639
  957SOL    HW1 2870   2.180   1.494   2.272 -0.2719 -2.1055  0.3091
  957SOL    HW2 2871   2.083   1.452   2.405 -2.7224 -2.5069  1.4772
  958SOL     OW 2872   1.169   2.568   0.794 -0.0933 -0.3394  0.5047
  958SOL    HW1 2873   1.072   2.601   0.811 -1.3303 -0.4302 -2.0857
  958SOL    HW2 2874   1.221   2.561   0.877  1.8092 -1.4331 -5.2002
  959SOL     OW 2875   1.577   1.651   2.558 -0.3772 -0.7104  0.8009
  959SOL    HW1 2876   1.523   1.562   2.561 -0.5300  0.6775 -0.7826
  959SOL    HW2 2877   1.643   1.648   2.636  2.0267  1.5607  2.3872
  960SOL     OW 2878   0.338   0.237   0.160  0.1640  0.4288 -0.2759
  960SOL    HW1 2879   0.261   0.242   0.098  1.7593 -0.0445  1.1435
  960SOL    HW2 2880   0.408   0.176   0.115  0.0665  1.7690 -3.2712
  961SOL     OW 2881   0.586   0.729   2.183  0.9142 -0.5117 -0.0565
  961SOL    HW1 2882   0.669   0.756   2.228 -2.2295 -0.1318 -2.6760
  961SOL    HW2 2883   0.520   0.689   2.251 -0.1351  1.4336 -2.1317
  962SOL     OW 2884   0.723   1.545   2.830 -0.1153 -0.2945 -0.2275
  962SOL    HW1 2885   0.781   1.467   2.866 -3.8577 -1.2257  2.0300
  962SOL    HW2 2886   0.658   1.507   2.760  1.9233  2.6882 -1.0569
  963SOL     OW 2887   2.045   1.669   2.927 -0.4554  0.0529 -0.2271
  963SOL    HW1 2888   1.979   1.747   2.923 -0.2963 -1.0036  0.9774
  963SOL    HW2 2889   2.138   1.707   2.909 -0.3185  2.5812 -0.1536
  964SOL     OW 2890   1.374   2.947   0.794  0.7878 -0.4420  0.0744
  964SOL    HW1 2891   1.328   2.878   0.743 -0.9522  3.4575  4.4772
  964SOL    HW2 2892   1.309   3.010   0.840  1.1453 -3.8737  0.6152
  965SOL     OW 2893   0.767   2.356   1.294 -0.1650 -0.1338 -0.3436
  965SOL    HW1 2894   0.714   2.402   1.367  1.4238  1.7536 -1.4531
  965SOL    HW2 2895   0.700   2.332   1.220  1.3416 -1.2562  0.2079
  966SOL     OW 2896   0.009   1.609   0.065  0.3657 -0.0484  0.0808
  966SOL    HW1 2897   3.052   1.593   3.052  1.0467 -0.5557  2.7317
  966SOL    HW2 2898   3.046   1.552   0.138  2.0705 -0.4928  0.1604
  967SOL     OW 2899   1.908   3.007   1.747 -0.0146  0.2604 -0.0752
  967SOL    HW1 2900   1.890   3.010   1.647 -0.3869  0.5969 -0.8088
  967SOL    HW2 2901   1.839   3.059   1.805 -2.3537 -1.7242 -0.0241
  968SOL     OW 2902   1.850   0.770   0.900 -0.1425 -0.1532  0.1377
  968SOL    HW1 2903   1.892   0.690   0.945 -0.4432 -1.9148 -0.9964
  968SOL    HW2 2904   1.921   0.842   0.899  0.3997  1.4783  0.0804
  969SOL     OW 2905   0.320   1.885   1.855  0.0112  1.1695  0.6235
  969SOL    HW1 2906   0.419   1.907   1.834 -0.8019  0.1423  0.2104
  969SOL    HW2 2907   0.250   1.950   1.817  0.9420  1.5229 -1.4010
  970SOL     OW 2908   2.653   1.480   1.037 -0.0899  0.1014  0.0645
  970SOL    HW1 2909   2.625   1.405   1.100  1.5132 -0.4173 -2.6378
  970SOL    HW2 2910   2.600   1.564   1.048 -1.0212  0.5302 -1.3776
  971SOL     OW 2911   1.013   0.419   1.533  0.1504 -0.1859  0.3764
  971SOL    HW1 2912   0.942   0.469   1.583  0.4239 -0.1953  1.1686
  971SOL    HW2 2913   1.102   0.462   1.554  0.7851  0.4790  1.9269
  972SOL     OW 2914   0.971   0.334   2.510 -0.1866 -0.0087  0.4902
  972SOL    HW1 2915   0.892   0.297   2.565 -0.4830 -0.0485 -0.7249
  972SOL    HW2 2916   0.941   0.371   2.417 -0.2582  0.9053 -0.2288
  973SOL     OW 2917   0.018   1.311   1.029  0.2831  0.5727  0.2137
  973SOL    HW1 2918   3.078   1.229   1.088 -0.2046  0.6656 -3.2255
  973SOL    HW2 2919   3.049   1.310   0.939 -0.1604 -0.0448  0.5873
  974SOL     OW 2920   1.767   1.110   1.902 -0.4182 -0.5193 -0.1548
  974SOL    HW1 2921   1.790   1.174   1.825 -1.4215 -0.4682  2.1584
  974SOL    HW2 2922   1.684   1.063   1.876  1.3762  1.3106  0.3644
  975SOL     OW 2923   2.706   0.090   0.378 -1.0119  0.0163  0.2749
  975SOL    HW1 2924   2.625   0.056   0.326  1.1352 -2.3486  0.4888
  975SOL    HW2 2925   2.798   0.054   0.339 -0.4624  1.6586  0.8924
  976SOL     OW 2926   0.261   1.755   1.597 -1.0155 -0.3036  0.4429
  976SOL    HW1 2927   0.279   1.752   1.697  0.0824  0.4985  0.4788
  976SOL    HW2 2928   0.162   1.783   1.585  1.0653  1.3161 -1.8139
  977SOL     OW 2929   0.575   2.685   0.232 -0.1599 -0.0255  0.3366
  977SOL    HW1 2930   0.624   2.668   0.144 -0.0741  2.3050 -1.4017
  977SOL    HW2 2931   0.625   2.760   0.286  1.9149  1.4082  0.5323
  978SOL     OW 2932   0.658   1.600   0.201 -0.4277  0.5029  0.0735
  978SOL    HW1 2933   0.610   1.588   0.111 -1.4197  1.3800 -1.7933
  978SOL    HW2 2934   0.755   1.618   0.181 -0.9915 -2.2666 -2.7628
  979SOL     OW 2935   1.302   2.082   1.158  0.2247  0.0348  0.0567
  979SOL    HW1 2936   1.306   2.120   1.060 -1.5853  1.3860 -0.6803
  979SOL    HW2 2937   1.390   2.091   1.206  1.7445 -1.1701 -1.4859
  980SOL     OW 2938   0.627   1.399   2.115 -0.2566 -0.6195 -0.5058
  980SOL    HW1 2939   0.546   1.421   2.064  2.7710 -2.2687  2.3351
  980SOL    HW2 2940   0.635   1.297   2.120 -1.4925 -0.0204 -0.0055
  981SOL     OW 2941   2.933   1.513   0.264  0.3767  0.2912 -0.6927
  981SOL    HW1 2942   2.994   1.488   0.348 -0.0453  1.4042  0.1678
  981SOL    HW2 2943   2.852   1.563   0.298 -0.7857  1.6671  2.6374
  982SOL     OW 2944   2.350   2.491   2.824 -0.0225 -0.0204  0.2259
  982SOL    HW1 2945   2.323   2.490   2.725 -0.5476  1.0965  0.4120
  982SOL    HW2 2946   2.443   2.530   2.842 -0.6194  0.6529  0.0930
  983SOL     OW 2947   2.184   0.578   1.285  0.2162 -0.3914 -0.0257
  983SOL    HW1 2948   2.180   0.651   1.215  1.6809 -0.1900  2.4931
  983SOL    HW2 2949   2.182   0.482   1.246 -0.8334  1.3044  0.5075
  984SOL     OW 2950   0.988   3.075   2.475 -0.3707 -0.4638  0.5273
  984SOL    HW1 2951   0.973   0.048   2.558  0.5870 -0.9965 -0.5330
  984SOL    HW2 2952   1.055   3.001   2.494  1.5552 -0.6139  0.5678
  985SOL     OW 2953   1.520   2.240   1.981 -0.8345  0.0737  0.0202
  985SOL    HW1 2954   1.503   2.251   2.080 -0.8057 -1.4157 -0.5038
  985SOL    HW2 2955   1.607   2.186   1.964  0.3255  1.3483  0.6232
  986SOL     OW 2956   1.867   2.929   2.491  0.3647  0.0393  0.6698
  986SOL    HW1 2957   1.902   2.980   2.573 -0.1236  0.6796 -0.7523
  986SOL    HW2 2958   1.897   2.828   2.492 -0.7462 -0.1669  1.4832
  987SOL     OW 2959   2.634   0.123   2.131  0.5876  0.3567  0.5305
  987SOL    HW1 2960   2.716   0.100   2.190  3.1997  1.0862 -1.1171
  987SOL    HW2 2961   2.586   0.210   2.157 -1.7888 -1.3632  2.5743
  988SOL     OW 2962   2.542   0.391   2.187 -0.2268 -0.0382 -0.2299
  988SOL    HW1 2963   2.505   0.391   2.281 -0.8418 -0.0043  1.8514
  988SOL    HW2 2964   2.522   0.483   2.143 -2.0382  0.4285 -1.1330
  989SOL     OW 2965   2.308   2.483   2.559 -0.0920  0.6119  0.6217
  989SOL    HW1 2966   2.305   2.537   2.474  0.6264 -1.7396  2.2954
  989SOL    HW2 2967   2.287   2.382   2.536 -2.8490 -0.8758 -3.7054
  990SOL     OW 2968   0.346   0.985   3.060  0.3551 -0.1582  0.5731
  990SOL    HW1 2969   0.267   0.919   3.049  1.0917  2.2092  2.2332
  990SOL    HW2 2970   0.404   0.990   2.976  0.3686  1.1127 -0.1636
  991SOL     OW 2971   0.537   1.159   2.545  0.4119 -0.1680  0.3551
  991SOL    HW1 2972   0.455   1.108   2.507  0.7204  2.2339  0.1138
  991SOL    HW2 2973   0.620   1.105   2.529  0.1458 -1.2025 -0.1216
  992SOL     OW 2974   0.087   1.766   1.963 -0.1333 -0.2617  0.1605
  992SOL    HW1 2975   0.159   1.833   1.933  0.0090  1.6127  0.7540
  992SOL    HW2 2976   3.075   1.800   1.936 -0.1374 -0.8569  1.0355
  993SOL     OW 2977   0.854   0.169   0.715 -0.3679 -0.5842  0.1472
  993SOL    HW1 2978   0.911   0.254   0.704 -1.6458 -1.0074  0.8273
  993SOL    HW2 2979   0.861   0.115   0.627  2.0712  0.9374 -2.8539
  994SOL     OW 2980   0.414   2.130   1.470  0.1164  0.1216  0.7223
  994SOL    HW1 2981   0.430   2.028   1.476  1.1018 -0.4138 -0.0269
  994SOL    HW2 2982   0.366   2.150   1.379  0.3710 -0.0927 -0.7177
  995SOL     OW 2983   2.320   1.749   2.706 -0.2745 -0.2419  0.2080
  995SOL    HW1 2984   2.289   1.653   2.694 -0.5050  1.0779  2.8477
  995SOL    HW2 2985   2.331   1.773   2.808 -2.0828 -0.1366 -1.1792
  996SOL     OW 2986   1.994   1.694   2.625  0.1806  0.1738 -0.4524
  996SOL    HW1 2987   1.907   1.703   2.683 -1.0940  3.0813 -1.8451
  996SOL    HW2 2988   2.073   1.649   2.676  1.2827 -0.2841 -1.1743
  997SOL     OW 2989   1.713   1.432   1.859 -0.1765 -0.3030  0.0773
  997SOL    HW1 2990   1.807   1.467   1.872 -0.0931 -3.0533  0.0751
  997SOL    HW2 2991   1.656   1.460   1.940 -1.8273 -0.8283 -2.5273
  998SOL     OW 2992   2.257   2.027   1.067  0.0199  0.4989  0.7318
  998SOL    HW1 2993   2.195   2.030   1.151 -1.6398  1.7265 -1.8707
  998SOL    HW2 2994   2.220   1.970   0.991  0.1556  1.3023 -0.0608
  999SOL     OW 2995   2.254   2.587   0.195  0.8267 -0.0041 -0.0076
  999SOL    HW1 2996   2.321   2.663   0.208 -1.1660 -0.1281 -1.5804
  999SOL    HW2 2997   2.293   2.492   0.195  0.0109  1.4364  2.1376
 1000SOL     OW 2998   0.690   3.041   2.398 -0.1854 -0.6584  0.2705
 1000SOL    HW1 2999   0.626   0.042   2.398 -1.4387  2.0852  1.0352
 1000SOL    HW2 3000   0.789   3.067   2.381 -0.5649 -1.0179  0.8351
   3.08015   3.08015   3.08015
