1000 SPC/Fw water molecules t= 231.00000 step= 231000
 3000
    1SOL     OW    1   3.025   2.848   1.179  0.5694  0.3867  0.7031
    1SOL    HW1    2   0.027   2.834   1.201  3.3359 -1.7088  0.2289
    1SOL    HW2    3   3.015   2.926   1.114 -0.3715 -0.7195  0.4469
    2SOL     OW    4   1.886   1.781   1.644 -0.2525  0.5415  0.0606
    2SOL    HW1    5   1.917   1.680   1.633  0.4927  0.1870  1.4628
    2SOL    HW2    6   1.842   1.807   1.553  1.4403  1.4854 -1.9970
    3SOL     OW    7   1.654   2.378   2.493  0.3701 -0.2266  0.5467
    3SOL    HW1    8   1.585   2.426   2.553  1.1624  1.7464  0.4631
    3SOL    HW2    9   1.746   2.394   2.530  1.7758  2.9351 -0.2004
    4SOL     OW   10   2.120   1.988   2.276 -0.2356 -0.1774 -0.0069
    4SOL    HW1   11   2.120   2.061   2.346 -0.3929  0.0204 -0.2566
    4SOL    HW2   12   2.213   1.961   2.246  1.0725 -1.6369 -2.3192
    5SOL     OW   13   1.428   1.143   1.535 -0.0567  0.1722 -0.4953
    5SOL    HW1   14   1.476   1.142   1.442 -0.5427  0.8171 -1.0275
    5SOL    HW2   15   1.392   1.046   1.556 -0.3396 -3.1606  1.4737
    6SOL     OW   16   2.617   0.118   3.091  0.3265 -0.6194  0.0629
    6SOL    HW1   17   2.699   0.071   3.054  2.0916 -0.9549  2.0966
    6SOL    HW2   18   2.541   0.058   0.024 -1.1563  4.4554  0.0759
    7SOL     OW   19   0.006   1.503   1.523 -0.1516  0.2963  0.0270
    7SOL    HW1   20   3.033   1.454   1.573  1.6184  0.2246  0.3966
    7SOL    HW2   21   3.094   1.467   1.428 -0.4087  1.8075 -0.7151
    8SOL     OW   22   1.071   0.459   0.801  0.3947 -0.0295  0.0277
    8SOL    HW1   23   1.130   0.530   0.849  0.3222 -1.6824  1.0636
    8SOL    HW2   24   1.092   0.368   0.837  0.6937  1.9366 -0.5552
    9SOL     OW   25   1.303   0.540   2.396  0.4256 -0.0653 -0.1752
    9SOL    HW1   26   1.349   0.613   2.448  1.2022 -2.2439  0.3255
    9SOL    HW2   27   1.334   0.530   2.300  0.4745  2.3041 -0.6208
   10SOL     OW   28   0.710   2.262   0.349 -0.1615 -0.4953  0.0376
   10SOL    HW1   29   0.633   2.204   0.373 -3.0826 -0.3784 -0.2833
   10SOL    HW2   30   0.690   2.362   0.363  0.0556  2.5801  0.0375
   11SOL     OW   31   0.853   0.902   0.101 -0.6021  0.1976 -0.6139
   11SOL    HW1   32   0.810   0.862   0.186 -1.7210  1.4594 -1.6861
   11SOL    HW2   33   0.836   1.006   0.112 -0.1001 -0.2935  0.2859
   12SOL     OW   34   0.062   0.236   1.735 -0.0830 -0.1188 -0.7356
   12SOL    HW1   35   3.076   0.294   1.748 -1.4627 -2.4356  0.4799
   12SOL    HW2   36   0.102   0.273   1.651  0.1105  0.8444  3.8477
   13SOL     OW   37   1.396   3.098   0.082 -0.1551 -0.1332  0.2311
   13SOL    HW1   38   1.319   3.097   0.023  0.1662 -0.0655  2.0952
   13SOL    HW2   39   1.362   0.018   0.177 -2.3188  1.1326  1.7195
   14SOL     OW   40   1.231   2.458   1.235  0.4209  0.3542  0.0951
   14SOL    HW1   41   1.184   2.462   1.328 -2.7844 -0.5963 -0.2129
   14SOL    HW2   42   1.222   2.366   1.182 -0.2570 -1.8098  0.3144
   15SOL     OW   43   2.597   1.039   1.563 -0.0858 -0.1871 -0.6770
   15SOL    HW1   44   2.687   1.084   1.550 -0.9820 -2.1678 -2.9590
   15SOL    HW2   45   2.610   0.940   1.584  0.4220 -1.5178 -0.0156
   16SOL     OW   46   2.015   2.752   2.961  0.0062  0.2963  0.6898
   16SOL    HW1   47   1.951   2.693   2.905  0.0303  1.2155 -1.0102
   16SOL    HW2   48   2.069   2.820   2.908  1.0850  2.4010 -2.7802
   17SOL     OW   49   0.865   3.089   1.364 -0.1361  0.2160 -0.5850
   17SOL    HW1   50   0.928   3.024   1.315  0.0250 -0.1896 -0.2968
   17SOL    HW2   51   0.906   0.023   1.453  2.4638  0.2673 -0.4486
   18SOL     OW   52   1.628   0.632   2.959 -0.4500  0.0099 -0.6197
   18SOL    HW1   53   1.620   0.539   2.995  1.3782 -1.3550  2.5393
   18SOL    HW2   54   1.593   0.687   3.035  0.1864 -2.2375 -2.3554
   19SOL     OW   55   1.973   1.866   0.036 -0.0882  0.3996 -0.1324
   19SOL    HW1   56   2.016   1.794   0.095 -0.3453 -0.6041  0.6137
   19SOL    HW2   57   2.033   1.944   0.037 -3.2302 -2.6096 -0.6996
   20SOL     OW   58   1.985   1.542   1.582  0.5454 -0.4113  0.1378
   20SOL    HW1   59   2.063   1.507   1.639  2.6366  0.1942 -0.6109
   20SOL    HW2   60   1.913   1.473   1.576  0.2335 -0.5072 -0.1036
   21SOL     OW   61   0.827   1.505   2.755 -0.0217  0.1660  0.2396
   21SOL    HW1   62   0.865   1.536   2.665 -0.6728 -0.7979  1.5014
   21SOL    HW2   63   0.883   1.436   2.795 -1.0248  1.6764  1.5812
   22SOL     OW   64   2.079   2.925   1.444 -0.3855  0.2670  0.3489
   22SOL    HW1   65   1.979   2.947   1.438  0.0948 -2.3155 -0.5176
   22SOL    HW2   66   2.136   2.960   1.368  2.3626  0.8757 -1.0638
   23SOL     OW   67   2.965   0.595   1.535 -0.1364  0.7247  0.4542
   23SOL    HW1   68   3.068   0.582   1.518  2.0930 -0.1945 -0.3364
   23SOL    HW2   69   2.921   0.647   1.460 -3.4042  0.0150  2.3947
   24SOL     OW   70   2.290   2.603   1.006 -0.1911 -0.3615  0.6175
   24SOL    HW1   71   2.254   2.656   1.082  2.1889 -1.1501 -0.1616
   24SOL    HW2   72   2.224   2.537   0.975 -1.2405 -1.4085 -2.0442
   25SOL     OW   73   1.622   2.694   2.503 -0.4709 -0.1737 -0.1772
   25SOL    HW1   74   1.718   2.673   2.469  1.3263  0.2562 -0.7191
   25SOL    HW2   75   1.547   2.638   2.462  0.0450 -2.5411 -2.9774
   26SOL     OW   76   1.819   2.586   2.853 -0.6625 -0.4099 -0.2914
   26SOL    HW1   77   1.738   2.553   2.806  2.6761 -2.7516  3.0097
   26SOL    HW2   78   1.877   2.507   2.884 -0.7146  0.5849  3.7638
   27SOL     OW   79   0.370   1.706   2.959 -0.2919  0.1796  0.2993
   27SOL    HW1   80   0.323   1.780   3.011 -2.8689 -0.2991  2.8559
   27SOL    HW2   81   0.460   1.731   2.917  2.4692  0.9841  0.9214
   28SOL     OW   82   2.835   1.164   1.513 -0.2981 -0.1907  0.1263
   28SOL    HW1   83   2.848   1.177   1.410  3.2341  1.4650  0.2542
   28SOL    HW2   84   2.865   1.239   1.581  0.8977 -0.8775  0.8076
   29SOL     OW   85   2.613   2.504   1.850 -0.4705  1.1907  0.6728
   29SOL    HW1   86   2.690   2.444   1.876 -0.4986  0.2938 -1.5521
   29SOL    HW2   87   2.642   2.597   1.848  1.3543 -2.8599 -0.2436
   30SOL     OW   88   1.492   0.176   2.897  0.4574  0.6271  0.3432
   30SOL    HW1   89   1.410   0.205   2.843  1.1944 -0.2250 -0.7620
   30SOL    HW2   90   1.491   0.223   2.987  0.7817  2.2696 -1.2353
   31SOL     OW   91   2.745   2.764   1.788  0.1606  0.1842  0.0573
   31SOL    HW1   92   2.788   2.839   1.842  1.0594  4.3180  1.2577
   31SOL    HW2   93   2.693   2.803   1.706  0.1248  0.1621  0.0841
   32SOL     OW   94   1.050   1.477   1.526  0.6856  0.9351  0.3123
   32SOL    HW1   95   0.957   1.487   1.564 -0.7494 -0.7166 -2.9870
   32SOL    HW2   96   1.056   1.401   1.456  0.8130  2.4219  1.5761
   33SOL     OW   97   0.343   2.787   2.444  0.1534 -0.4350 -0.4830
   33SOL    HW1   98   0.273   2.777   2.372 -0.1952 -3.6555  0.4741
   33SOL    HW2   99   0.304   2.729   2.520 -0.2252 -1.6827 -1.3616
   34SOL     OW  100   1.749   0.067   0.556  0.5247 -0.0427 -0.2121
   34SOL    HW1  101   1.702   0.158   0.542  0.0960  0.3719  2.8708
   34SOL    HW2  102   1.839   0.061   0.511 -1.3662  1.0657  1.7389
   35SOL     OW  103   1.960   3.029   0.808 -0.0688 -0.4683 -0.4294
   35SOL    HW1  104   2.040   3.026   0.746  1.5334  0.8095 -0.7463
   35SOL    HW2  105   1.917   0.026   0.796 -1.9422  1.3614  1.3130
   36SOL     OW  106   1.712   2.732   2.156  0.1523  0.6068 -0.3722
   36SOL    HW1  107   1.805   2.689   2.167 -0.5516 -3.0056 -1.9360
   36SOL    HW2  108   1.643   2.658   2.138 -1.5127  1.8250  2.2561
   37SOL     OW  109   0.963   2.943   2.383 -0.1201 -0.3976 -0.2001
   37SOL    HW1  110   0.895   2.909   2.314 -0.1437 -0.4385 -2.1208
   37SOL    HW2  111   1.044   2.879   2.392  1.5763 -1.4320 -0.6382
   38SOL     OW  112   0.027   2.772   2.661 -0.0895  0.6222 -0.1152
   38SOL    HW1  113   0.118   2.725   2.653  1.0700 -0.5756  0.4675
   38SOL    HW2  114   0.041   2.858   2.711  1.6315 -0.5560  1.8822
   39SOL     OW  115   2.644   1.198   1.992  0.6372 -0.0674 -0.2130
   39SOL    HW1  116   2.716   1.269   1.992 -2.3875 -2.2497  0.2588
   39SOL    HW2  117   2.585   1.207   1.908  1.2389 -1.8708 -0.7937
   40SOL     OW  118   0.171   2.965   2.837  0.5657  0.3427 -0.0491
   40SOL    HW1  119   0.197   2.980   2.739 -3.1483  0.9551 -1.7169
   40SOL    HW2  120   0.220   2.886   2.873 -0.5985 -0.1999  1.6840
   41SOL     OW  121   1.849   0.555   0.778  0.0748 -0.1582  0.5077
   41SOL    HW1  122   1.950   0.549   0.806 -1.5225  0.1839 -0.4750
   41SOL    HW2  123   1.824   0.652   0.768  2.7271  2.2412  1.3304
   42SOL     OW  124   0.552   0.491   1.245  0.6664  0.5971 -0.4651
   42SOL    HW1  125   0.636   0.470   1.197 -0.7740 -2.5798  2.1629
   42SOL    HW2  126   0.480   0.548   1.195 -0.8383  1.7507 -2.3402
   43SOL     OW  127   2.644   1.387   2.874 -0.1335 -0.1788 -0.2155
   43SOL    HW1  128   2.643   1.283   2.861 -0.5408 -3.6204  0.1543
   43SOL    HW2  129   2.667   1.437   2.788 -1.8005  0.4169  0.4527
   44SOL     OW  130   0.038   2.602   0.717 -0.5929  0.1711 -0.1972
   44SOL    HW1  131   0.112   2.659   0.759  0.9014  0.2188 -0.0806
   44SOL    HW2  132   3.090   2.556   0.793  0.7026  0.3062  0.5019
   45SOL     OW  133   0.313   2.556   1.648  0.5019  0.2658  0.2985
   45SOL    HW1  134   0.308   2.490   1.570  0.4778  2.2101  0.8239
   45SOL    HW2  135   0.232   2.614   1.657  3.1003  0.6319  0.0150
   46SOL     OW  136   2.377   2.420   2.280  0.2652 -0.3301  0.5336
   46SOL    HW1  137   2.424   2.356   2.343  0.9739  3.0852  0.7532
   46SOL    HW2  138   2.395   2.398   2.180 -0.2634 -0.8783 -2.0002
   47SOL     OW  139   2.145   2.080   1.191 -0.0359 -0.1028  0.4018
   47SOL    HW1  140   2.176   2.176   1.199 -1.0582  0.4831 -0.9399
   47SOL    HW2  141   2.061   2.063   1.246  1.4005  1.2141 -2.2812
   48SOL     OW  142   0.535   1.616   0.197 -0.5317  0.0248  0.3857
   48SOL    HW1  143   0.599   1.589   0.125 -0.8570  1.4595  0.2536
   48SOL    HW2  144   0.451   1.563   0.192  0.1016  3.4217 -1.1801
   49SOL     OW  145   2.816   0.306   2.540 -0.7471  0.6196  0.3158
   49SOL    HW1  146   2.756   0.310   2.454 -1.3732  0.4741  0.3792
   49SOL    HW2  147   2.909   0.341   2.513 -0.5230  0.5443 -1.7986
   50SOL     OW  148   2.382   0.730   0.235  0.9379  0.0399 -0.9830
   50SOL    HW1  149   2.301   0.768   0.284 -0.8815  0.6925  1.6664
   50SOL    HW2  150   2.361   0.683   0.144  2.2464  1.6786 -2.2525
   51SOL     OW  151   2.104   0.777   1.050 -0.0299 -0.0650  0.4432
   51SOL    HW1  152   2.153   0.856   1.009 -0.8068 -0.0830  0.6934
   51SOL    HW2  153   2.004   0.805   1.052 -4.2596 -2.2492  0.0983
   52SOL     OW  154   1.120   1.300   2.857 -0.2574 -0.2222 -0.1894
   52SOL    HW1  155   1.180   1.380   2.832  0.4070  1.1740  1.8006
   52SOL    HW2  156   1.162   1.211   2.832 -0.6504 -1.2252  0.2295
   53SOL     OW  157   0.778   1.644   1.831 -0.2646 -0.1800  0.1870
   53SOL    HW1  158   0.688   1.618   1.870  2.4817  0.4263 -0.4686
   53SOL    HW2  159   0.787   1.617   1.732 -1.8218 -0.1971  0.2778
   54SOL     OW  160   1.940   0.331   1.109  0.0415  0.0371 -0.2435
   54SOL    HW1  161   1.902   0.254   1.170 -1.8412  0.2618  0.3070
   54SOL    HW2  162   2.044   0.345   1.105  1.5713 -0.1351 -0.4327
   55SOL     OW  163   2.649   2.247   1.456  0.4626 -1.1090  0.3205
   55SOL    HW1  164   2.640   2.213   1.362  0.3772 -0.8391  2.4336
   55SOL    HW2  165   2.562   2.270   1.501 -0.5391  1.7232  0.7618
   56SOL     OW  166   0.982   0.043   1.599  0.2246  0.0802  0.4591
   56SOL    HW1  167   0.940   0.002   1.682  1.5893  0.0303 -0.8243
   56SOL    HW2  168   1.077   0.068   1.627 -2.6022 -1.3371 -0.7299
   57SOL     OW  169   1.853   1.509   0.073 -0.9059 -0.3278  0.3094
   57SOL    HW1  170   1.876   1.560   3.082 -1.0352 -0.7404 -2.1100
   57SOL    HW2  171   1.769   1.552   0.117 -2.1477 -0.6078 -0.1728
   58SOL     OW  172   3.005   0.474   2.477  0.3395  0.2236 -0.1637
   58SOL    HW1  173   2.974   0.553   2.416  0.8415 -0.7541  1.0737
   58SOL    HW2  174   3.049   0.516   2.560 -1.2887 -0.0031  0.6024
   59SOL     OW  175   0.954   2.538   2.391  0.3078  0.2281 -0.5256
   59SOL    HW1  176   1.012   2.600   2.443 -0.4164  1.9696 -0.9405
   59SOL    HW2  177   0.903   2.475   2.450  1.3400  1.4259 -0.6207
   60SOL     OW  178   2.631   2.612   0.774  0.0160 -0.2634  0.0705
   60SOL    HW1  179   2.604   2.558   0.854  1.6082 -0.9780 -0.5931
   60SOL    HW2  180   2.578   2.597   0.690 -0.2544 -0.3086  3.1183
   61SOL     OW  181   1.267   2.182   0.758  0.1058  0.1970 -0.6520
   61SOL    HW1  182   1.265   2.281   0.731  0.3020 -1.9524  0.6328
   61SOL    HW2  183   1.237   2.113   0.690  1.0725 -0.1749 -1.2855
   62SOL     OW  184   2.477   1.949   2.525  0.2868  0.5962  0.1863
   62SOL    HW1  185   2.511   1.962   2.618 -0.8204  0.0220 -2.2807
   62SOL    HW2  186   2.422   1.863   2.512  1.5405 -2.0033  0.4389
   63SOL     OW  187   2.369   3.048   3.009 -0.3089 -0.7126 -0.0512
   63SOL    HW1  188   2.372   3.098   2.924  0.7829  0.2478  1.3733
   63SOL    HW2  189   2.292   3.091   3.060 -3.2011  2.9318  0.9000
   64SOL     OW  190   1.308   0.824   2.760 -0.1011  0.0696 -0.1606
   64SOL    HW1  191   1.299   0.770   2.846 -0.5248  0.4463  0.0636
   64SOL    HW2  192   1.355   0.781   2.682 -0.0803  2.1761 -0.2285
   65SOL     OW  193   1.531   2.471   0.006  0.0834 -0.1346  0.0595
   65SOL    HW1  194   1.509   2.570   3.074  1.0611  0.6347 -1.1779
   65SOL    HW2  195   1.633   2.457   0.003  2.4138  0.7530 -0.4510
   66SOL     OW  196   0.486   1.408   1.605 -0.8716 -0.2680  0.0630
   66SOL    HW1  197   0.578   1.387   1.561  4.1351 -0.3935  0.5138
   66SOL    HW2  198   0.422   1.336   1.574 -0.0788 -1.2007 -2.8073
   67SOL     OW  199   2.700   2.921   2.807 -0.0194 -0.6898 -0.2795
   67SOL    HW1  200   2.734   2.856   2.737 -0.8009 -0.3157 -1.6307
   67SOL    HW2  201   2.665   3.003   2.757  2.4162 -3.1093 -3.2467
   68SOL     OW  202   0.684   2.395   1.268  0.4792  0.7962  0.0687
   68SOL    HW1  203   0.692   2.306   1.320  0.1392 -1.0239  2.2610
   68SOL    HW2  204   0.729   2.474   1.314 -1.0800  2.2260  0.9092
   69SOL     OW  205   0.703   2.527   0.435  0.2233 -0.1298 -0.4021
   69SOL    HW1  206   0.790   2.491   0.460 -3.6258 -1.4379 -2.5434
   69SOL    HW2  207   0.626   2.495   0.496  0.4859  1.1831 -0.1115
   70SOL     OW  208   2.712   1.159   2.710 -0.9082  0.2098 -0.8671
   70SOL    HW1  209   2.798   1.216   2.696  0.6482  0.3525  1.7730
   70SOL    HW2  210   2.734   1.068   2.679 -0.5293 -1.4214  1.9844
   71SOL     OW  211   0.411   1.183   2.542  0.3082 -0.5631  0.3180
   71SOL    HW1  212   0.338   1.191   2.468 -2.0630 -1.6269 -1.7067
   71SOL    HW2  213   0.470   1.265   2.549 -1.1332 -1.4694 -1.8894
   72SOL     OW  214   0.386   2.260   0.198  0.4407 -0.0584  0.0276
   72SOL    HW1  215   0.411   2.249   0.097  0.4642  0.0832  1.2380
   72SOL    HW2  216   0.404   2.358   0.229  0.4564  0.6763  1.3678
   73SOL     OW  217   0.845   1.312   0.346 -0.5804  0.5122  0.3362
   73SOL    HW1  218   0.855   1.412   0.353 -0.1108 -0.4266  0.5046
   73SOL    HW2  219   0.933   1.273   0.381  1.3882 -0.1458 -0.7936
   74SOL     OW  220   2.927   0.070   0.320  0.1239  0.0596 -0.3417
   74SOL    HW1  221   2.900   0.031   0.230 -1.7094  2.8610 -2.8684
   74SOL    HW2  222   3.003   0.136   0.305  0.8136 -1.1159  1.4885
   75SOL     OW  223   2.356   1.585   2.155  0.0845 -0.3043  0.2152
   75SOL    HW1  224   2.438   1.557   2.098  1.7850  0.7599  1.2767
   75SOL    HW2  225   2.267   1.589   2.104 -0.4073 -1.4040 -0.1629
   76SOL     OW  226   1.996   2.568   1.490 -0.8034  0.2009  0.2899
   76SOL    HW1  227   2.084   2.614   1.519 -0.1026  1.0121 -2.0216
   76SOL    HW2  228   1.961   2.626   1.413  0.7718  1.6829 -1.8579
   77SOL     OW  229   2.554   0.480   1.427 -0.0172 -0.2619 -0.7805
   77SOL    HW1  230   2.557   0.580   1.444  1.0283  0.6961  1.1450
   77SOL    HW2  231   2.581   0.453   1.333  0.7852  2.0653  2.0629
   78SOL     OW  232   2.096   1.016   2.911 -0.2672  0.4828 -0.5054
   78SOL    HW1  233   2.054   0.934   2.897  0.8294  2.2328  0.1304
   78SOL    HW2  234   2.023   1.080   2.950  1.2582  0.2526 -1.6106
   79SOL     OW  235   0.665   1.680   2.172  0.8535 -0.6351 -0.4782
   79SOL    HW1  236   0.621   1.654   2.082  0.3223  0.6505  0.3160
   79SOL    HW2  237   0.760   1.644   2.185 -2.6008 -1.0691  3.1400
   80SOL     OW  238   1.561   0.968   1.020 -0.2979 -0.3155  0.3832
   80SOL    HW1  239   1.526   1.041   0.959  0.1438 -3.5677 -0.0286
   80SOL    HW2  240   1.660   0.972   1.035 -1.6124  0.8363 -3.9118
   81SOL     OW  241   0.870   0.572   1.374 -0.0807 -0.0551 -0.5061
   81SOL    HW1  242   0.799   0.603   1.434  0.3377 -0.5099 -2.2104
   81SOL    HW2  243   0.847   0.560   1.276 -0.0765 -1.1018  1.0680
   82SOL     OW  244   1.352   2.250   1.785 -0.0753 -0.3245 -0.1813
   82SOL    HW1  245   1.358   2.190   1.870  0.0906 -0.7651 -2.1121
   82SOL    HW2  246   1.431   2.227   1.730 -0.2369  0.4962  3.2818
   83SOL     OW  247   0.581   3.079   1.022 -0.3723 -0.4938  0.9833
   83SOL    HW1  248   0.603   0.077   1.042 -0.1007  0.7566  0.7136
   83SOL    HW2  249   0.556   3.075   0.921  0.0759  2.1282 -1.6804
   84SOL     OW  250   3.076   0.861   3.042 -0.4198 -0.2092 -0.9331
   84SOL    HW1  251   0.067   0.883   3.006 -1.2747 -3.2041  3.7540
   84SOL    HW2  252   3.022   0.815   2.971 -0.3735  1.1527  0.4165
   85SOL     OW  253   2.945   2.580   1.667 -0.0391  0.1943  0.4510
   85SOL    HW1  254   2.938   2.600   1.570 -0.5834 -0.1399  0.0820
   85SOL    HW2  255   2.858   2.622   1.711 -1.8025  0.4661  0.1372
   86SOL     OW  256   0.002   2.733   1.854  0.1828 -0.1708 -0.0900
   86SOL    HW1  257   3.049   2.668   1.797  2.4267  0.3731 -0.1842
   86SOL    HW2  258   3.092   2.828   1.815  0.9000 -1.3987 -0.6586
   87SOL     OW  259   2.972   2.720   3.070  0.8808  0.1406  0.1392
   87SOL    HW1  260   2.967   2.708   2.967 -2.0287  1.1963 -0.1790
   87SOL    HW2  261   2.882   2.723   0.017 -0.4360  0.8065  0.4294
   88SOL     OW  262   0.289   1.978   1.240  0.0642 -0.1182  0.1900
   88SOL    HW1  263   0.339   2.069   1.233 -0.4964  3.0685  1.9582
   88SOL    HW2  264   0.331   1.909   1.177 -1.8821 -2.4806 -0.1952
   89SOL     OW  265   1.218   0.827   1.862 -0.0066  0.3280  0.2182
   89SOL    HW1  266   1.118   0.814   1.855 -1.1772  0.0555 -0.7645
   89SOL    HW2  267   1.257   0.732   1.866 -0.8751  0.3864  1.4955
   90SOL     OW  268   2.832   1.421   1.958  0.3057  0.2329 -0.1157
   90SOL    HW1  269   2.866   1.403   2.058 -0.0312  2.0247  3.6409
   90SOL    HW2  270   2.863   1.513   1.924  2.3643  0.5007  1.1247
   91SOL     OW  271   1.230   1.790   0.662  0.8228 -0.0638 -0.3636
   91SOL    HW1  272   1.196   1.881   0.634 -1.9994  2.0159 -0.0427
   91SOL    HW2  273   1.168   1.746   0.728 -1.2332 -0.3125 -0.5491
   92SOL     OW  274   2.211   0.385   1.109  0.5009  0.1868 -0.0751
   92SOL    HW1  275   2.280   0.428   1.049  0.4965  0.2574  0.9752
   92SOL    HW2  276   2.232   0.413   1.204 -0.4672 -0.9482 -2.0273
   93SOL     OW  277   2.472   1.524   3.035 -0.1595 -0.1880 -0.0987
   93SOL    HW1  278   2.537   1.458   2.988  0.4828 -1.2948  0.3265
   93SOL    HW2  279   2.379   1.507   2.997 -3.2643  3.2629 -2.3239
   94SOL     OW  280   2.486   2.193   2.414  0.2675 -0.0062 -0.1405
   94SOL    HW1  281   2.473   2.094   2.439  1.7743 -1.5759 -1.6129
   94SOL    HW2  282   2.582   2.198   2.395 -0.3085  0.7550 -1.5371
   95SOL     OW  283   1.837   0.600   1.062  0.3575  0.1405  0.0349
   95SOL    HW1  284   1.841   0.631   0.968  1.1201  0.6333  0.0002
   95SOL    HW2  285   1.843   0.499   1.087 -2.6037  0.4628  1.4968
   96SOL     OW  286   2.661   0.126   1.771 -0.2283  0.3766  0.3563
   96SOL    HW1  287   2.602   0.106   1.853 -1.5628  2.1031  0.3667
   96SOL    HW2  288   2.642   0.056   1.698 -2.0644  1.7326  1.8409
   97SOL     OW  289   2.218   3.096   1.242  0.2883  0.1014  0.1684
   97SOL    HW1  290   2.189   0.023   1.146  1.1987 -2.4443  0.0635
   97SOL    HW2  291   2.189   0.072   1.305 -1.3981  1.9426 -1.6300
   98SOL     OW  292   1.518   2.352   1.524 -0.6613  0.2937 -0.2318
   98SOL    HW1  293   1.545   2.432   1.469 -1.7746  1.5537  0.7129
   98SOL    HW2  294   1.501   2.273   1.461 -3.0812  0.1538  0.2545
   99SOL     OW  295   2.850   2.947   1.970  0.3688 -0.3420 -0.2705
   99SOL    HW1  296   2.934   2.972   1.917  1.9487  0.2634 -1.8304
   99SOL    HW2  297   2.868   2.931   2.067  0.6972 -1.5645  0.6917
  100SOL     OW  298   0.232   0.703   2.623 -0.2622 -0.0817 -0.4860
  100SOL    HW1  299   0.213   0.758   2.710  0.6513  2.4725  0.9270
  100SOL    HW2  300   0.335   0.678   2.620 -0.3653  0.0408 -0.1225
  101SOL     OW  301   1.838   0.896   0.116  0.5016 -0.5494  0.2834
  101SOL    HW1  302   1.789   0.864   0.197  0.8587  0.3554 -1.7963
  101SOL    HW2  303   1.888   0.980   0.144 -2.2515  1.6651  0.6512
  102SOL     OW  304   0.152   0.569   1.548 -0.1287 -0.1548 -0.1613
  102SOL    HW1  305   0.190   0.658   1.576  0.4552 -2.7860 -1.4723
  102SOL    HW2  306   0.212   0.493   1.579 -0.2456 -0.3067  0.7236
  103SOL     OW  307   2.990   0.943   2.112  0.3008  0.2397 -0.3348
  103SOL    HW1  308   3.053   0.864   2.103 -1.3216  2.3857  1.1054
  103SOL    HW2  309   2.962   0.953   2.213 -0.1428  0.0016 -3.0617
  104SOL     OW  310   0.282   0.298   2.780  0.1290 -0.0100  0.2210
  104SOL    HW1  311   0.366   0.347   2.812 -0.4185  1.5780 -1.1139
  104SOL    HW2  312   0.287   0.287   2.679  2.1263  0.4310 -1.4657
  105SOL     OW  313   2.242   1.773   1.849 -0.6537 -0.3606  0.1389
  105SOL    HW1  314   2.193   1.849   1.800 -1.4508 -2.3102  0.5260
  105SOL    HW2  315   2.184   1.711   1.900  1.1669 -1.6497 -0.1266
  106SOL     OW  316   1.832   0.367   0.377  0.6576  0.1771  0.2990
  106SOL    HW1  317   1.933   0.376   0.385 -0.8685 -0.9644  0.6722
  106SOL    HW2  318   1.787   0.383   0.469 -0.0257 -0.3480  1.6140
  107SOL     OW  319   0.115   1.895   1.725 -0.4187 -0.4034  0.1484
  107SOL    HW1  320   0.116   1.993   1.703 -0.6880 -1.1075 -1.2675
  107SOL    HW2  321   0.068   1.846   1.648 -2.6146  2.1704  1.3572
  108SOL     OW  322   2.860   2.901   2.263 -0.3498 -0.2963 -0.0034
  108SOL    HW1  323   2.853   2.832   2.339 -1.6068 -0.2406 -1.5315
  108SOL    HW2  324   2.924   2.974   2.291  1.9403 -0.1243 -0.8044
  109SOL     OW  325   1.782   0.274   0.136 -0.5415 -0.2318 -0.6802
  109SOL    HW1  326   1.874   0.291   0.086  1.7485 -0.6654  2.0254
  109SOL    HW2  327   1.785   0.318   0.229 -0.4592  1.5256  0.7694
  110SOL     OW  328   0.405   2.350   2.336  0.4060  0.0887 -0.4393
  110SOL    HW1  329   0.455   2.280   2.276 -0.9196 -0.1327  1.4834
  110SOL    HW2  330   0.450   2.358   2.425 -4.0531  1.9523  2.1477
  111SOL     OW  331   1.512   2.558   2.100  0.2052 -0.0030  0.3990
  111SOL    HW1  332   1.571   2.473   2.091 -0.1519  1.6869 -0.7120
  111SOL    HW2  333   1.438   2.570   2.033 -0.8382 -1.9333 -1.7567
  112SOL     OW  334   1.870   2.633   2.438 -0.2257 -0.2079 -0.2715
  112SOL    HW1  335   1.955   2.665   2.481  1.2424 -2.9381  0.7132
  112SOL    HW2  336   1.882   2.624   2.337 -0.3555  0.4490 -1.0204
  113SOL     OW  337   1.820   2.564   1.716 -0.0837 -0.0212 -0.8431
  113SOL    HW1  338   1.880   2.554   1.631 -0.0928 -3.5557 -0.9603
  113SOL    HW2  339   1.886   2.571   1.799  2.3585 -1.1879  1.7502
  114SOL     OW  340   2.974   0.773   0.690 -0.1499 -0.1853 -0.2258
  114SOL    HW1  341   3.023   0.745   0.604  1.3629 -0.9422 -1.6211
  114SOL    HW2  342   2.941   0.685   0.725  0.0305 -1.2564 -3.1104
  115SOL     OW  343   0.224   0.859   2.857  0.6015 -0.2708  0.0687
  115SOL    HW1  344   0.210   0.954   2.822 -0.2305  1.3395  2.3749
  115SOL    HW2  345   0.314   0.849   2.897 -0.9947  0.2690 -0.0676
  116SOL     OW  346   0.201   1.348   2.105 -0.2045 -0.5399 -0.3501
  116SOL    HW1  347   0.162   1.259   2.067  2.9152  0.0212 -0.1422
  116SOL    HW2  348   0.266   1.403   2.047  1.2279 -0.6131  1.7433
  117SOL     OW  349   2.564   3.034   0.592  0.4975  0.1200  0.7211
  117SOL    HW1  350   2.512   2.964   0.535 -2.2361 -2.0508  0.6146
  117SOL    HW2  351   2.501   0.011   0.619 -3.5861 -0.4206 -1.2632
  118SOL     OW  352   1.212   1.909   1.655 -0.3503  0.2454  0.3070
  118SOL    HW1  353   1.272   1.861   1.589  1.3415  2.6079  0.5197
  118SOL    HW2  354   1.215   1.859   1.744  1.9602 -1.4978  2.5796
  119SOL     OW  355   0.936   2.585   2.782  0.1814 -0.7025 -0.0465
  119SOL    HW1  356   0.960   2.641   2.866 -2.4298  2.5396  0.9862
  119SOL    HW2  357   1.010   2.527   2.751 -4.2443  1.4161 -1.4598
  120SOL     OW  358   0.480   0.865   2.958  0.1650 -0.2076 -0.4723
  120SOL    HW1  359   0.496   0.761   2.972  0.9234 -1.1702  1.0920
  120SOL    HW2  360   0.545   0.901   2.892 -1.7745 -1.8948  2.8934
  121SOL     OW  361   1.872   2.607   1.226 -0.2804 -0.0167  0.2373
  121SOL    HW1  362   1.842   2.676   1.159 -0.8151  0.9634 -1.3654
  121SOL    HW2  363   1.839   2.512   1.203  1.6076 -0.5894  0.7478
  122SOL     OW  364   2.456   2.114   1.919 -0.0246  0.5323  0.0112
  122SOL    HW1  365   2.420   2.193   1.970 -1.5553 -0.2406 -0.1550
  122SOL    HW2  366   2.443   2.124   1.820  1.3680 -1.6191  1.8520
  123SOL     OW  367   0.231   2.876   0.558 -0.1362 -0.0248 -0.2451
  123SOL    HW1  368   0.286   2.866   0.474 -3.3195  0.7827  0.5837
  123SOL    HW2  369   0.138   2.906   0.533 -2.6538 -1.5631 -0.5633
  124SOL     OW  370   2.219   0.860   2.279 -0.0432 -0.0203 -0.0899
  124SOL    HW1  371   2.190   0.921   2.358 -2.8419 -2.6587 -1.0795
  124SOL    HW2  372   2.238   0.915   2.193 -0.0403  0.2965  1.2537
  125SOL     OW  373   0.423   1.264   0.542  0.2642  0.0027  0.1651
  125SOL    HW1  374   0.510   1.232   0.501 -0.3052  0.1755 -0.6813
  125SOL    HW2  375   0.344   1.240   0.485  1.2028 -0.1886  2.0424
  126SOL     OW  376   2.704   1.910   0.868  0.0731 -0.8604 -0.0189
  126SOL    HW1  377   2.791   1.912   0.816 -0.6023  4.0152 -0.3109
  126SOL    HW2  378   2.700   1.971   0.945 -0.2292  0.7465  0.7675
  127SOL     OW  379   3.039   2.354   1.790  0.3615 -0.4371 -0.5745
  127SOL    HW1  380   3.035   2.438   1.730  0.7949 -1.3877  0.3300
  127SOL    HW2  381   2.980   2.353   1.870  3.3442 -0.7113 -0.2780
  128SOL     OW  382   0.874   0.641   2.813  0.4368  0.1777 -0.1764
  128SOL    HW1  383   0.859   0.699   2.893 -0.0693  1.2258 -2.8979
  128SOL    HW2  384   0.930   0.700   2.749 -1.0758  1.2007  0.6035
  129SOL     OW  385   2.541   1.205   0.967  0.1182  0.3374 -0.1002
  129SOL    HW1  386   2.610   1.166   0.901  2.9192 -0.2824 -5.1029
  129SOL    HW2  387   2.527   1.137   1.040  1.1353  0.3265  2.3834
  130SOL     OW  388   2.317   1.283   1.495 -0.4537  0.8215  0.0841
  130SOL    HW1  389   2.385   1.217   1.531  1.4512 -1.1601 -1.2213
  130SOL    HW2  390   2.365   1.336   1.422 -1.3595 -0.3280 -1.1039
  131SOL     OW  391   2.452   0.311   0.122  0.0124 -0.5258 -0.0883
  131SOL    HW1  392   2.495   0.316   0.214 -1.0425 -1.2761  0.1730
  131SOL    HW2  393   2.516   0.256   0.064  2.1091  0.1187 -0.7737
  132SOL     OW  394   2.835   2.021   1.779  0.3675  0.4486 -0.4491
  132SOL    HW1  395   2.771   2.075   1.830  6.2943 -2.1269 -2.2045
  132SOL    HW2  396   2.918   2.006   1.830  2.6012 -1.0832 -1.9560
  133SOL     OW  397   0.785   0.824   1.206 -0.0251  0.3178 -0.0629
  133SOL    HW1  398   0.815   0.763   1.129  1.0715  0.8921  1.9996
  133SOL    HW2  399   0.784   0.919   1.165 -0.6773  1.7902 -1.6184
  134SOL     OW  400   0.180   1.303   0.358  0.1590  0.7032  0.6167
  134SOL    HW1  401   0.103   1.319   0.422  2.2599  1.1844 -1.2270
  134SOL    HW2  402   0.165   1.221   0.299  0.8251  0.9302 -1.5250
  135SOL     OW  403   2.099   1.156   1.378  0.5322  0.3322 -0.8556
  135SOL    HW1  404   2.171   1.225   1.402  1.2201 -1.5984 -1.5494
  135SOL    HW2  405   2.034   1.143   1.460 -0.8845  1.1137 -0.2754
  136SOL     OW  406   2.629   0.692   0.723 -0.9350 -0.2279  0.1666
  136SOL    HW1  407   2.550   0.638   0.695 -0.5367  0.4040  0.2401
  136SOL    HW2  408   2.603   0.781   0.770 -0.1779 -0.7586 -0.0056
  137SOL     OW  409   2.470   1.410   1.288  0.6823  0.9460  0.6657
  137SOL    HW1  410   2.568   1.435   1.296  1.3151 -0.3334 -1.0636
  137SOL    HW2  411   2.446   1.388   1.192  2.1069 -2.6997 -1.9493
  138SOL     OW  412   1.809   0.835   1.472  0.0773 -0.0007  0.5626
  138SOL    HW1  413   1.752   0.829   1.554  2.9409 -2.2088 -2.3826
  138SOL    HW2  414   1.796   0.748   1.417 -0.5862 -0.3317 -1.7837
  139SOL     OW  415   2.117   0.065   0.024  0.2272 -0.0010  0.0075
  139SOL    HW1  416   2.048   0.033   3.057 -0.0257 -0.8145  0.4341
  139SOL    HW2  417   2.098   0.036   0.118 -0.4295  1.7397 -2.6142
  140SOL     OW  418   1.494   1.825   1.881  0.5645  0.2440  0.3460
  140SOL    HW1  419   1.559   1.816   1.957 -2.6366  0.3692 -1.6251
  140SOL    HW2  420   1.399   1.802   1.910 -0.7938  1.9448  1.5277
  141SOL     OW  421   1.855   1.861   0.863  0.3217 -0.1914 -0.5416
  141SOL    HW1  422   1.909   1.947   0.870 -1.3419  1.5449  1.6975
  141SOL    HW2  423   1.902   1.775   0.882  0.1421 -0.1767 -1.0700
  142SOL     OW  424   3.064   0.952   0.219  0.2501 -0.2391  0.0018
  142SOL    HW1  425   3.059   0.918   0.121  0.4757  2.4641  0.8119
  142SOL    HW2  426   2.993   0.911   0.280  0.7021 -0.4044 -0.3546
  143SOL     OW  427   0.376   2.017   2.645  0.4002  0.1683  0.0248
  143SOL    HW1  428   0.330   2.046   2.558 -0.6506 -1.8599  0.0357
  143SOL    HW2  429   0.421   1.925   2.637  2.7817 -1.5480  0.9362
  144SOL     OW  430   1.214   0.105   1.705  0.2846 -0.4028 -0.1745
  144SOL    HW1  431   1.305   0.136   1.677  1.2984 -2.5233  1.3644
  144SOL    HW2  432   1.216   0.035   1.778 -1.9849  1.7651  2.5437
  145SOL     OW  433   2.528   1.020   0.438  0.6566  0.1220  0.1700
  145SOL    HW1  434   2.458   0.956   0.490 -3.9568 -0.3479  0.4602
  145SOL    HW2  435   2.505   1.021   0.340  0.4370 -0.6779 -1.5861
  146SOL     OW  436   2.361   2.361   0.405 -0.3457 -0.1565  0.3763
  146SOL    HW1  437   2.358   2.379   0.303 -1.5347  2.4527 -0.6688
  146SOL    HW2  438   2.267   2.390   0.433 -1.5305  0.0852  1.7091
  147SOL     OW  439   2.364   2.749   1.355  0.3388  0.0396  0.1534
  147SOL    HW1  440   2.279   2.743   1.307  3.6958 -0.3062  1.3623
  147SOL    HW2  441   2.406   2.842   1.341 -1.4692 -1.9011  4.0713
  148SOL     OW  442   1.602   2.945   2.346 -0.2862  0.2158  0.1674
  148SOL    HW1  443   1.607   2.949   2.244 -2.3617 -1.1560  1.0085
  148SOL    HW2  444   1.596   2.851   2.386 -0.1560  1.2686 -1.2548
  149SOL     OW  445   1.057   0.558   2.510 -0.1233 -0.4200  0.1944
  149SOL    HW1  446   1.139   0.543   2.458 -1.8266  0.2743  0.7769
  149SOL    HW2  447   1.063   0.638   2.572 -0.6542 -0.0215  0.7339
  150SOL     OW  448   0.901   2.767   0.249 -0.4238  0.5255  0.2362
  150SOL    HW1  449   0.929   2.679   0.208  0.3545  0.0200 -0.8515
  150SOL    HW2  450   0.819   2.750   0.302  0.0855 -1.7231 -0.7821
  151SOL     OW  451   0.147   1.845   0.195 -0.0437  0.3341 -0.0964
  151SOL    HW1  452   0.106   1.763   0.152 -2.3855  0.0350 -1.0381
  151SOL    HW2  453   0.160   1.830   0.299 -2.5501  0.6275  3.2766
  152SOL     OW  454   0.011   0.357   0.623 -0.0391 -0.1083  0.0755
  152SOL    HW1  455   0.012   0.382   0.725 -0.3047  0.9745  3.1309
  152SOL    HW2  456   3.040   0.278   0.607 -0.2233 -3.7887  1.3157
  153SOL     OW  457   2.457   0.103   0.846 -0.3159 -0.4770  1.0505
  153SOL    HW1  458   2.483   0.201   0.819  0.3404  0.7989 -0.5361
  153SOL    HW2  459   2.534   0.051   0.883  0.9305  2.2103 -1.6365
  154SOL     OW  460   0.959   0.866   1.816  0.1656  0.1670 -0.4585
  154SOL    HW1  461   0.867   0.885   1.846  2.0522 -1.0703 -0.9612
  154SOL    HW2  462   0.956   0.798   1.744 -0.1675  2.8325  0.2844
  155SOL     OW  463   2.902   1.591   0.828  0.2397  0.1498 -0.4986
  155SOL    HW1  464   2.802   1.598   0.860  0.3099 -2.6191  2.2590
  155SOL    HW2  465   2.939   1.686   0.816 -2.8479  0.1936 -1.2685
  156SOL     OW  466   2.408   1.958   0.248 -0.2819 -0.1402 -0.2331
  156SOL    HW1  467   2.423   1.866   0.293  0.1522  1.2688  0.8205
  156SOL    HW2  468   2.454   1.969   0.157 -4.2587  1.5052 -0.6618
  157SOL     OW  469   1.142   3.055   0.759  0.0054 -0.4244  0.2673
  157SOL    HW1  470   1.079   2.979   0.744 -1.0139  2.3430  2.4677
  157SOL    HW2  471   1.238   3.029   0.781 -1.7474  0.8206 -3.0135
  158SOL     OW  472   2.146   0.400   2.594 -0.1398  0.4493 -0.3991
  158SOL    HW1  473   2.196   0.481   2.630 -4.1730 -1.3795 -0.0985
  158SOL    HW2  474   2.123   0.415   2.496 -3.1540  0.2613 -2.0758
  159SOL     OW  475   0.331   0.093   0.345 -0.2338 -0.3745 -0.2890
  159SOL    HW1  476   0.341   0.170   0.280  3.1993  0.3937  0.1441
  159SOL    HW2  477   0.246   0.040   0.324  3.8721  2.3792  1.6140
  160SOL     OW  478   1.255   2.173   2.994 -0.1347 -0.0601 -0.2059
  160SOL    HW1  479   1.312   2.091   2.972  0.0567  0.8512 -0.9098
  160SOL    HW2  480   1.298   2.218   3.077  1.0228  0.9179  0.9249
  161SOL     OW  481   2.741   1.570   2.420 -0.1552 -0.0107  0.3001
  161SOL    HW1  482   2.736   1.672   2.414 -1.6970  0.8655 -1.9510
  161SOL    HW2  483   2.645   1.529   2.420 -1.2792 -1.4448  1.9228
  162SOL     OW  484   2.837   2.948   1.425 -0.2953 -0.0184  0.4385
  162SOL    HW1  485   2.863   2.877   1.356  3.2778  2.4618 -0.7879
  162SOL    HW2  486   2.913   3.004   1.460 -0.5845 -2.0851  0.6070
  163SOL     OW  487   1.912   0.447   2.724 -0.1677  0.0675 -0.2667
  163SOL    HW1  488   1.853   0.364   2.728  1.3119  3.5549 -0.2345
  163SOL    HW2  489   2.012   0.423   2.703  3.0005 -1.3336 -1.2238
  164SOL     OW  490   2.951   1.852   0.779 -0.6963 -0.4412 -0.1541
  164SOL    HW1  491   3.002   1.869   0.691 -0.4804 -1.0586  0.2803
  164SOL    HW2  492   2.981   1.920   0.849  1.5805 -0.3210  2.7988
  165SOL     OW  493   2.854   0.202   1.920  0.4138 -0.6697 -0.0266
  165SOL    HW1  494   2.802   0.154   1.846  1.3633 -1.9708  2.7006
  165SOL    HW2  495   2.913   0.279   1.887  1.0627  0.4895 -3.2213
  166SOL     OW  496   2.089   0.535   0.845 -0.5690 -0.2436 -0.2639
  166SOL    HW1  497   2.092   0.430   0.844  2.2293  2.2050  1.6305
  166SOL    HW2  498   2.102   0.573   0.940  1.0205 -0.1001 -2.2550
  167SOL     OW  499   0.528   0.320   0.736 -0.2395  0.8757 -0.4730
  167SOL    HW1  500   0.520   0.418   0.765 -2.8840  0.0192  0.5023
  167SOL    HW2  501   0.565   0.305   0.643  2.8156  0.5514  0.4165
  168SOL     OW  502   1.891   2.964   2.183 -0.0303  0.2701 -0.1539
  168SOL    HW1  503   1.831   2.881   2.164  2.2467 -0.7329  2.4229
  168SOL    HW2  504   1.843   3.033   2.242 -1.1371  0.2208 -1.6609
  169SOL     OW  505   0.687   0.962   0.602 -0.5124  0.3647  0.2522
  169SOL    HW1  506   0.653   1.011   0.520  0.0283 -0.0749  1.6629
  169SOL    HW2  507   0.664   0.865   0.594  2.5466 -0.0412  0.4808
  170SOL     OW  508   2.803   0.697   1.328  0.2729 -0.5109 -0.1536
  170SOL    HW1  509   2.811   0.648   1.238 -0.8605 -0.3374 -0.7943
  170SOL    HW2  510   2.712   0.747   1.338  1.7775  0.2821 -0.5409
  171SOL     OW  511   0.922   2.568   1.632  0.1119  0.1146  0.2897
  171SOL    HW1  512   0.895   2.469   1.650 -1.1830 -1.6427 -0.3568
  171SOL    HW2  513   1.022   2.587   1.634 -0.8165  1.9484 -1.0507
  172SOL     OW  514   0.314   2.557   1.308  0.0186 -0.2053  0.2408
  172SOL    HW1  515   0.277   2.487   1.374 -2.1506 -0.7282  0.6776
  172SOL    HW2  516   0.257   2.647   1.307  1.0983  0.5529  0.9207
  173SOL     OW  517   1.272   0.249   2.751 -0.2371  0.3768 -0.0393
  173SOL    HW1  518   1.224   0.157   2.745  0.3379 -2.5226 -0.5192
  173SOL    HW2  519   1.215   0.316   2.801  1.5073 -0.7510  1.4201
  174SOL     OW  520   1.576   0.094   2.509  0.2527  0.0302  0.0649
  174SOL    HW1  521   1.495   0.158   2.499 -1.9618  0.6808  0.9037
  174SOL    HW2  522   1.566   0.008   2.459  0.6614  0.0092  1.4148
  175SOL     OW  523   1.898   2.631   0.094 -0.2265  0.0124 -0.1011
  175SOL    HW1  524   1.949   2.549   0.122  1.2752 -0.1770  1.1556
  175SOL    HW2  525   1.942   2.669   0.010 -0.2167 -0.7057 -0.1986
  176SOL     OW  526   1.712   0.244   2.697  0.1154 -0.2980 -0.4143
  176SOL    HW1  527   1.656   0.241   2.782  2.5893 -0.4766 -1.1990
  176SOL    HW2  528   1.678   0.179   2.625 -0.0078 -0.4196 -0.1747
  177SOL     OW  529   0.854   1.569   0.307  0.2195 -0.1018  0.4697
  177SOL    HW1  530   0.940   1.616   0.332 -0.3216  1.6866 -0.1787
  177SOL    HW2  531   0.838   1.576   0.206  1.5533 -0.1716 -1.1375
  178SOL     OW  532   2.968   1.942   2.451 -0.1014 -0.3034  0.1595
  178SOL    HW1  533   2.943   2.012   2.522  0.5034  0.2697  1.2939
  178SOL    HW2  534   3.041   1.881   2.480 -2.7187 -0.0494 -0.1444
  179SOL     OW  535   0.508   2.560   2.769 -0.1182  0.3223 -0.5718
  179SOL    HW1  536   0.525   2.594   2.862  0.2956  0.8821  0.7176
  179SOL    HW2  537   0.551   2.620   2.696 -2.8766  0.4283 -1.6255
  180SOL     OW  538   1.921   1.925   1.259 -0.2606 -0.5063  0.1675
  180SOL    HW1  539   1.979   1.859   1.303  0.9688  1.0703 -2.0480
  180SOL    HW2  540   1.857   1.879   1.195  1.1427  1.0876 -0.0288
  181SOL     OW  541   1.826   1.178   2.333 -0.9426  0.2403  0.4429
  181SOL    HW1  542   1.764   1.160   2.253 -0.9287  1.5793 -0.7080
  181SOL    HW2  543   1.786   1.153   2.420 -1.2569  1.1593  2.0062
  182SOL     OW  544   2.537   2.985   2.390  0.5141  0.3426  0.0658
  182SOL    HW1  545   2.589   2.917   2.333 -0.6321  1.1656  0.6395
  182SOL    HW2  546   2.459   3.030   2.338 -2.3554 -0.6540 -1.1783
  183SOL     OW  547   1.448   0.747   2.525 -0.3822  0.6347  0.2080
  183SOL    HW1  548   1.466   0.840   2.488  0.5716 -2.0156  1.6305
  183SOL    HW2  549   1.521   0.720   2.590  2.1856  1.1116  2.0050
  184SOL     OW  550   0.893   0.845   1.441 -0.3730 -0.4167  0.1787
  184SOL    HW1  551   0.856   0.935   1.473  1.7767  2.1547  0.3776
  184SOL    HW2  552   0.860   0.817   1.349  2.1012 -0.1245  1.4668
  185SOL     OW  553   2.216   0.987   0.920  0.0834  0.1330 -0.5982
  185SOL    HW1  554   2.203   1.063   0.988  0.6043  0.6383 -1.6563
  185SOL    HW2  555   2.144   0.983   0.849 -1.3183  0.2494  0.6820
  186SOL     OW  556   0.539   1.780   2.570  0.1856 -0.0101  0.0926
  186SOL    HW1  557   0.561   1.737   2.657 -1.5627  1.4613 -2.0104
  186SOL    HW2  558   0.504   1.710   2.500 -0.7230  1.4312  0.0810
  187SOL     OW  559   2.446   1.377   0.164 -0.1706 -0.2842  0.4499
  187SOL    HW1  560   2.529   1.397   0.221 -2.5490 -1.6940 -1.3162
  187SOL    HW2  561   2.458   1.420   0.070 -0.4935  0.0193 -1.5399
  188SOL     OW  562   0.174   1.811   0.473 -0.9780  0.0413  0.7038
  188SOL    HW1  563   0.081   1.854   0.495 -0.2996 -0.4564 -1.4461
  188SOL    HW2  564   0.253   1.861   0.510  1.5029 -0.8500  0.2077
  189SOL     OW  565   2.369   0.513   0.413 -0.1518 -0.3259  0.3647
  189SOL    HW1  566   2.404   0.579   0.346  0.8349 -1.8661  1.0256
  189SOL    HW2  567   2.429   0.434   0.424  1.1742  1.6107 -0.5760
  190SOL     OW  568   1.245   1.332   2.206 -0.2268 -0.1879  0.2208
  190SOL    HW1  569   1.276   1.428   2.220  0.1175  2.3856 -0.9313
  190SOL    HW2  570   1.282   1.304   2.114  1.5768  0.4656  0.2848
  191SOL     OW  571   2.368   0.241   1.919  0.5139 -0.4923 -0.5271
  191SOL    HW1  572   2.330   0.310   1.857  1.0504  0.7054  2.9538
  191SOL    HW2  573   2.467   0.259   1.929 -0.3255 -0.2910 -1.7488
  192SOL     OW  574   1.935   1.128   1.604 -0.1860  0.0161  0.2945
  192SOL    HW1  575   1.848   1.176   1.602  2.3225  1.2644 -1.3886
  192SOL    HW2  576   1.921   1.040   1.659 -0.8286  2.0324 -0.7028
  193SOL     OW  577   0.831   0.578   0.728  0.4876  0.5816  0.2941
  193SOL    HW1  578   0.813   0.560   0.629  0.6339 -0.1089 -0.5394
  193SOL    HW2  579   0.919   0.533   0.758  0.3064 -1.6484 -1.2790
  194SOL     OW  580   1.279   2.813   0.920  0.1020 -0.0052 -0.2207
  194SOL    HW1  581   1.376   2.814   0.884  1.8787 -1.5621 -0.1574
  194SOL    HW2  582   1.259   2.867   1.003 -2.1737  0.3036 -2.1796
  195SOL     OW  583   2.381   0.566   0.683 -0.2455 -0.4529  0.6222
  195SOL    HW1  584   2.371   0.551   0.584  1.6891  1.4311  4.1413
  195SOL    HW2  585   2.287   0.585   0.728 -2.0139  2.4128 -0.5336
  196SOL     OW  586   0.961   1.918   1.507 -0.1854  0.1078  0.2243
  196SOL    HW1  587   0.974   1.999   1.444 -3.9072  1.1677  0.6537
  196SOL    HW2  588   1.048   1.911   1.560  2.0946 -0.7124  1.3142
  197SOL     OW  589   0.394   2.843   0.341 -1.4943 -0.6485 -0.1482
  197SOL    HW1  590   0.495   2.836   0.354 -0.6988 -0.3140  0.0793
  197SOL    HW2  591   0.373   2.874   0.246  0.9747  2.0218 -0.2512
  198SOL     OW  592   0.855   0.794   0.886  0.6073 -0.2715  0.4383
  198SOL    HW1  593   0.841   0.886   0.841  0.8235 -1.6007  2.9528
  198SOL    HW2  594   0.829   0.715   0.826 -1.4167  0.0709 -0.7899
  199SOL     OW  595   0.117   0.010   1.879  0.6744 -0.1433 -0.3606
  199SOL    HW1  596   0.106   0.075   1.797  0.8625  4.4016  1.9219
  199SOL    HW2  597   0.208   3.062   1.881 -0.8878 -0.5518 -1.3937
  200SOL     OW  598   2.196   1.883   2.714  0.4116 -0.0014 -0.0736
  200SOL    HW1  599   2.122   1.948   2.690 -0.5596  0.2986 -2.0480
  200SOL    HW2  600   2.250   1.866   2.629 -1.1041 -0.2575  2.0548
  201SOL     OW  601   2.845   2.703   1.067 -0.1801  0.1818  0.3757
  201SOL    HW1  602   2.768   2.767   1.084  1.6212 -0.2333  0.1420
  201SOL    HW2  603   2.924   2.741   1.122 -2.3187 -2.5115  1.2295
  202SOL     OW  604   2.536   0.320   0.388  0.6401 -0.1962  0.0555
  202SOL    HW1  605   2.596   0.400   0.386 -1.1949  0.2920 -0.0490
  202SOL    HW2  606   2.591   0.237   0.410 -0.1547  0.8055 -1.4174
  203SOL     OW  607   1.309   1.591   2.229  0.5343  0.0138  0.3328
  203SOL    HW1  608   1.253   1.638   2.159 -0.3642  0.2428 -1.6648
  203SOL    HW2  609   1.275   1.608   2.322  1.1587 -1.6663 -1.2562
  204SOL     OW  610   1.022   1.291   1.858 -0.0878  0.0376 -0.2832
  204SOL    HW1  611   1.050   1.226   1.782  0.5726 -0.0464  2.4958
  204SOL    HW2  612   1.018   1.244   1.953  0.2019 -0.2496  3.1177
  205SOL     OW  613   1.103   2.166   1.678 -0.1847 -0.0947  0.8330
  205SOL    HW1  614   1.134   2.070   1.661  0.3736 -0.2484  0.8774
  205SOL    HW2  615   1.177   2.214   1.730  3.0089  0.1313 -1.0377
  206SOL     OW  616   0.076   0.441   2.974  0.0536 -0.4496  0.1045
  206SOL    HW1  617   0.147   0.429   2.902 -0.0010  1.5451 -0.7268
  206SOL    HW2  618   0.037   0.355   3.012 -1.5211  0.6189  0.5615
  207SOL     OW  619   1.535   2.924   2.068 -0.0010  0.3858  0.0994
  207SOL    HW1  620   1.450   2.869   2.064 -0.6117  0.9622 -1.1621
  207SOL    HW2  621   1.618   2.863   2.085 -0.8761 -0.3954  2.4935
  208SOL     OW  622   0.534   2.105   1.921 -0.6892  0.4527 -0.3337
  208SOL    HW1  623   0.600   2.029   1.913  0.0044  0.8065  0.9502
  208SOL    HW2  624   0.561   2.179   1.858  1.4811  0.6634  1.1505
  209SOL     OW  625   1.928   1.230   2.936 -0.2507 -0.0009  0.7321
  209SOL    HW1  626   1.852   1.288   2.900 -0.1991  2.4743 -0.2382
  209SOL    HW2  627   1.979   1.273   3.018 -0.8384 -0.1414 -1.5245
  210SOL     OW  628   3.085   0.795   0.953  0.5468  0.0602  0.2856
  210SOL    HW1  629   3.000   0.774   0.895 -1.4038 -1.4545  0.7892
  210SOL    HW2  630   0.009   0.893   0.944 -1.6824 -2.0500  2.8447
  211SOL     OW  631   0.827   1.100   1.091 -0.1373  0.0771  0.9077
  211SOL    HW1  632   0.823   1.103   0.987 -0.9415  1.1153 -1.8691
  211SOL    HW2  633   0.855   1.188   1.131  0.8877 -0.3158 -0.1879
  212SOL     OW  634   0.916   1.714   0.746 -0.3628  0.2319  0.3436
  212SOL    HW1  635   0.905   1.734   0.846 -3.4861 -0.0742  0.6097
  212SOL    HW2  636   0.999   1.656   0.734 -0.8283  1.3775 -0.0696
  213SOL     OW  637   1.444   0.228   1.643 -0.1816  0.4068  0.5888
  213SOL    HW1  638   1.487   0.255   1.555  1.5628 -1.5920 -1.6708
  213SOL    HW2  639   1.506   0.247   1.721 -2.1159  0.0972 -0.7443
  214SOL     OW  640   1.608   1.686   2.551 -0.1045  0.7900 -0.2855
  214SOL    HW1  641   1.556   1.604   2.512 -1.6828 -2.4217  0.8839
  214SOL    HW2  642   1.561   1.731   2.631 -0.5034 -1.2285  0.6015
  215SOL     OW  643   3.090   1.756   1.074  0.1591  0.3435  0.2565
  215SOL    HW1  644   0.063   1.705   1.024  1.3802  2.0313 -0.2430
  215SOL    HW2  645   3.047   1.826   1.013 -0.6678 -1.4159 -2.3301
  216SOL     OW  646   0.675   0.048   2.205 -0.1573 -0.1756 -0.7040
  216SOL    HW1  647   0.737   0.084   2.134 -1.4319 -1.2284 -0.3583
  216SOL    HW2  648   0.686   0.097   2.298 -1.2142  1.7996  2.1863
  217SOL     OW  649   2.287   0.421   3.029  0.3342  0.0140  0.0025
  217SOL    HW1  650   2.327   0.437   2.935 -0.5528 -1.0528  0.2870
  217SOL    HW2  651   2.341   0.360   3.090  0.0469  2.9335 -3.1642
  218SOL     OW  652   2.008   1.752   2.288  0.0913  0.1532 -0.3120
  218SOL    HW1  653   1.907   1.747   2.274  2.5290 -1.1602 -0.4348
  218SOL    HW2  654   2.039   1.852   2.274  0.1420  3.8576 -1.4680
  219SOL     OW  655   1.544   1.192   0.328  0.4158 -0.1146 -0.4729
  219SOL    HW1  656   1.618   1.222   0.388 -3.6813 -1.1734  0.2440
  219SOL    HW2  657   1.564   1.208   0.230  0.7123 -0.3479 -2.3141
  220SOL     OW  658   1.453   1.899   1.094 -0.5083 -0.9439 -0.2856
  220SOL    HW1  659   1.388   1.888   1.170  1.9641 -1.0607 -0.2457
  220SOL    HW2  660   1.443   1.993   1.057 -0.4422  2.9123 -1.2201
  221SOL     OW  661   0.050   0.625   0.061  0.9175 -0.2006 -0.5473
  221SOL    HW1  662   0.029   0.721   0.027 -0.8984 -0.5623 -2.7116
  221SOL    HW2  663   0.058   0.565   3.081 -0.9632  1.3466 -0.1800
  222SOL     OW  664   1.167   2.651   1.610  0.2439  0.0309 -0.4026
  222SOL    HW1  665   1.205   2.564   1.567  2.0531  3.2207  0.6913
  222SOL    HW2  666   1.170   2.731   1.549  2.3520 -1.8357 -0.3977
  223SOL     OW  667   1.336   3.026   2.611 -0.6405  0.6130  0.1809
  223SOL    HW1  668   1.258   3.065   2.662  2.0665 -2.5515 -4.4121
  223SOL    HW2  669   1.415   2.997   2.665  0.6201 -2.9632 -2.5985
  224SOL     OW  670   2.521   1.025   1.164  0.1592  0.6007 -0.2027
  224SOL    HW1  671   2.589   1.008   1.236  0.3140  2.4812 -2.0220
  224SOL    HW2  672   2.428   1.018   1.206 -0.3756 -1.4918  0.1169
  225SOL     OW  673   0.891   1.126   1.518 -0.0873 -0.5356  0.4343
  225SOL    HW1  674   0.962   1.116   1.589 -0.1150  0.5165 -0.9476
  225SOL    HW2  675   0.938   1.175   1.440  1.5132  0.0870 -0.9027
  226SOL     OW  676   1.561   2.572   2.730  0.5416  0.1065 -0.0867
  226SOL    HW1  677   1.591   2.626   2.649  0.0737 -0.8179  3.3709
  226SOL    HW2  678   1.459   2.542   2.733 -2.5581 -1.4167  2.5350
  227SOL     OW  679   0.630   2.145   1.089  0.7690  0.2052 -0.1363
  227SOL    HW1  680   0.589   2.145   0.994  2.0513 -3.2448 -2.9726
  227SOL    HW2  681   0.570   2.204   1.149  0.3248  2.2109  0.1072
  228SOL     OW  682   0.466   2.667   1.106 -0.3663  0.0744  0.4331
  228SOL    HW1  683   0.488   2.765   1.125  2.6053 -1.3928 -0.8079
  228SOL    HW2  684   0.425   2.624   1.192 -1.6971  2.2834 -0.6263
  229SOL     OW  685   2.487   1.096   0.143 -0.3472 -0.3395  0.1639
  229SOL    HW1  686   2.472   1.196   0.144  2.8383 -0.6642 -1.1427
  229SOL    HW2  687   2.411   1.047   0.098  1.0738  0.1715  0.1733
  230SOL     OW  688   0.949   1.154   2.110  0.0174 -0.0336 -0.1111
  230SOL    HW1  689   0.857   1.129   2.140  1.3781 -0.3302 -0.3877
  230SOL    HW2  690   1.016   1.099   2.161 -1.8763  0.9573  0.1137
  231SOL     OW  691   1.578   1.976   1.661 -0.2727 -0.0482  0.4534
  231SOL    HW1  692   1.641   2.051   1.688 -0.2447 -0.7206 -2.4246
  231SOL    HW2  693   1.548   1.920   1.741 -1.3954 -3.3839  0.5002
  232SOL     OW  694   2.117   2.401   0.942  0.0913  0.2368  0.3893
  232SOL    HW1  695   2.034   2.452   0.909  0.8148  1.5216 -2.4959
  232SOL    HW2  696   2.120   2.316   0.891  0.2060  0.7617  0.6016
  233SOL     OW  697   1.610   2.321   2.805 -0.1254  0.5131  0.3047
  233SOL    HW1  698   1.557   2.254   2.753 -0.5912 -2.6768  2.1375
  233SOL    HW2  699   1.586   2.415   2.771 -1.2484  1.8189 -1.0676
  234SOL     OW  700   0.923   2.995   2.643 -0.6141  0.3568 -0.3049
  234SOL    HW1  701   0.928   3.009   2.540 -0.3399  0.0344 -0.7833
  234SOL    HW2  702   0.835   2.955   2.672 -1.5674  0.7790  1.1282
  235SOL     OW  703   2.816   2.477   0.124 -0.0482 -0.5761 -0.1410
  235SOL    HW1  704   2.834   2.468   0.225  1.6333 -1.2855 -0.2251
  235SOL    HW2  705   2.862   2.401   0.070 -0.2345 -2.0136 -3.9145
  236SOL     OW  706   2.110   2.386   2.245  0.4400  0.0155  0.0423
  236SOL    HW1  707   2.215   2.392   2.253  1.9850 -1.7742 -0.3207
  236SOL    HW2  708   2.078   2.302   2.294  0.9152 -0.7634  1.1484
  237SOL     OW  709   1.704   1.317   1.276 -0.4992 -0.4672  0.3527
  237SOL    HW1  710   1.696   1.217   1.275  0.9031  1.9792 -2.3141
  237SOL    HW2  711   1.615   1.357   1.305  0.4425  3.4793  1.7960
  238SOL     OW  712   1.981   0.350   2.147 -0.1115  0.5306  0.1750
  238SOL    HW1  713   2.034   0.276   2.094  2.5680  0.9854 -0.2299
  238SOL    HW2  714   1.893   0.309   2.173  0.9997  0.8936 -0.1697
  239SOL     OW  715   0.520   1.583   1.926 -0.2432  0.3526  0.2261
  239SOL    HW1  716   0.457   1.655   1.888 -0.5228 -0.0372  1.7372
  239SOL    HW2  717   0.524   1.493   1.874 -0.5481 -0.7442 -0.1212
  240SOL     OW  718   0.045   2.238   0.604  0.0047 -0.2724 -0.3547
  240SOL    HW1  719   3.050   2.280   0.627 -0.6085 -3.5258 -3.0758
  240SOL    HW2  720   0.110   2.309   0.562  1.0336  1.6446  0.3453
  241SOL     OW  721   1.741   2.067   0.722 -0.1470 -0.3310 -0.0400
  241SOL    HW1  722   1.757   1.987   0.789 -0.1762 -1.3584  0.8883
  241SOL    HW2  723   1.697   2.025   0.642 -0.9946  1.3086  2.2193
  242SOL     OW  724   1.475   1.434   0.067  0.4138 -0.1874  0.4265
  242SOL    HW1  725   1.541   1.355   0.057 -0.0592 -0.6349 -1.1554
  242SOL    HW2  726   1.448   1.473   3.071 -1.1169  0.6275 -0.1270
  243SOL     OW  727   0.779   2.885   2.164 -0.0302  0.1011 -0.6115
  243SOL    HW1  728   0.735   2.973   2.182  1.1559 -0.5435 -0.5029
  243SOL    HW2  729   0.750   2.843   2.078 -0.1394  1.1622  2.1332
  244SOL     OW  730   1.790   2.978   2.650  0.2619 -0.0753 -0.2300
  244SOL    HW1  731   1.698   2.984   2.698 -2.9123 -1.3458  3.1513
  244SOL    HW2  732   1.767   2.937   2.561 -3.2689 -2.1790  0.4673
  245SOL     OW  733   1.671   3.007   0.050 -0.4987  0.0433  0.0559
  245SOL    HW1  734   1.708   2.943   0.123  0.7153  0.8332  3.6179
  245SOL    HW2  735   1.576   3.040   0.066  1.0652  0.3437 -0.3886
  246SOL     OW  736   1.134   0.002   2.770  0.0528  0.2656  0.0650
  246SOL    HW1  737   1.055   3.060   2.718  0.3901 -1.0133 -0.2862
  246SOL    HW2  738   1.126   3.081   2.868  0.2673 -1.3829 -0.9523
  247SOL     OW  739   0.101   0.757   2.028  0.0356 -0.4870  0.6247
  247SOL    HW1  740   0.176   0.787   2.086 -2.5988  1.5674 -2.6978
  247SOL    HW2  741   0.077   0.658   2.026  0.1034  2.7493  0.7387
  248SOL     OW  742   0.854   0.760   2.226  0.4984  0.0243 -0.3527
  248SOL    HW1  743   0.807   0.668   2.245  1.0925 -2.9415  1.4383
  248SOL    HW2  744   0.951   0.749   2.200 -1.1926 -0.1343  0.0876
  249SOL     OW  745   2.113   0.367   0.370  0.4324 -0.1367  0.4996
  249SOL    HW1  746   2.136   0.333   0.275 -0.8456  1.6843 -1.8008
  249SOL    HW2  747   2.196   0.414   0.399 -1.8071  0.2089 -2.1165
  250SOL     OW  748   0.788   0.155   0.709 -0.7435 -0.1873 -0.1199
  250SOL    HW1  749   0.890   0.155   0.715 -2.3518 -1.1527 -0.9498
  250SOL    HW2  750   0.750   0.192   0.800 -0.1361 -0.4870  0.5838
  251SOL     OW  751   0.922   0.293   2.577 -0.3777 -0.0687  0.0687
  251SOL    HW1  752   0.982   0.372   2.566  0.5277  0.2388 -1.3870
  251SOL    HW2  753   0.965   0.210   2.542  2.9773 -0.7635  0.5620
  252SOL     OW  754   1.643   1.875   2.113  0.5138 -0.1590  0.2452
  252SOL    HW1  755   1.715   1.920   2.063  1.8371 -0.5643  1.3437
  252SOL    HW2  756   1.677   1.802   2.180 -1.5351 -0.5785  1.9662
  253SOL     OW  757   2.047   2.625   1.911  0.2004  0.4834 -0.6024
  253SOL    HW1  758   2.099   2.710   1.890  0.0808  0.7101 -0.9347
  253SOL    HW2  759   2.096   2.540   1.882  2.2741 -1.3972 -3.0113
  254SOL     OW  760   0.868   2.086   1.859  0.1213 -0.0092  1.1015
  254SOL    HW1  761   0.945   2.107   1.796 -2.3338  1.7605 -2.8759
  254SOL    HW2  762   0.848   2.159   1.924 -0.5328 -0.4258 -0.6099
  255SOL     OW  763   0.965   0.912   0.466 -0.4561 -0.1937  0.1505
  255SOL    HW1  764   0.917   0.895   0.554 -1.8605  0.6232 -0.6968
  255SOL    HW2  765   0.916   0.862   0.395  2.2166 -2.9762  1.4579
  256SOL     OW  766   1.830   1.903   1.885 -0.1803 -0.7502 -0.5750
  256SOL    HW1  767   1.840   1.838   1.803 -0.5430 -0.3960 -1.5726
  256SOL    HW2  768   1.804   1.995   1.844 -1.2841  0.7506 -0.0278
  257SOL     OW  769   0.508   2.357   2.606  0.0667 -0.4527  0.8820
  257SOL    HW1  770   0.504   2.438   2.671  0.8401 -0.5907  4.4708
  257SOL    HW2  771   0.486   2.276   2.659  2.6581  0.1205 -3.2827
  258SOL     OW  772   0.757   0.424   2.090  0.0172  0.1919 -0.1989
  258SOL    HW1  773   0.812   0.352   2.136 -0.2975  0.1186  1.4860
  258SOL    HW2  774   0.811   0.491   2.037 -1.6277 -0.7159 -1.0796
  259SOL     OW  775   0.821   0.533   2.383  0.4046  0.1713  0.0452
  259SOL    HW1  776   0.904   0.549   2.436 -0.1842 -1.9927 -3.2411
  259SOL    HW2  777   0.830   0.452   2.327 -1.6865  1.5551  2.1879
  260SOL     OW  778   1.338   0.702   0.473 -0.6387 -0.3596  0.2450
  260SOL    HW1  779   1.296   0.786   0.426 -1.3622  0.7937 -1.2269
  260SOL    HW2  780   1.270   0.659   0.529  2.1362 -0.9340 -0.0584
  261SOL     OW  781   0.303   2.765   2.935  0.2264 -0.3497  0.4921
  261SOL    HW1  782   0.397   2.738   2.970  0.5108 -1.0255 -2.5729
  261SOL    HW2  783   0.248   2.683   2.920  2.5802  1.4475  1.0411
  262SOL     OW  784   2.305   2.862   2.792 -0.5036  0.4439  0.3066
  262SOL    HW1  785   2.390   2.901   2.836  0.1568  0.1243 -0.0881
  262SOL    HW2  786   2.231   2.929   2.772 -3.4775 -0.5304  0.4970
  263SOL     OW  787   0.049   2.159   2.700 -0.1003  0.2248  0.3645
  263SOL    HW1  788   3.054   2.132   2.679  0.1412 -0.2133  0.1162
  263SOL    HW2  789   0.100   2.104   2.767  1.5208 -0.8600 -0.8305
  264SOL     OW  790   0.594   1.245   1.210  0.1427 -0.5112  0.5036
  264SOL    HW1  791   0.621   1.152   1.173 -0.2435 -0.8304 -2.4019
  264SOL    HW2  792   0.538   1.293   1.137 -2.2311  1.3518 -3.3850
  265SOL     OW  793   0.348   1.423   0.199 -0.2612 -0.1217  0.3558
  265SOL    HW1  794   0.259   1.398   0.249  2.2969 -2.5609  0.1803
  265SOL    HW2  795   0.404   1.338   0.199 -0.1963 -2.4688 -1.0707
  266SOL     OW  796   1.336   1.484   0.562  0.0106 -0.6393  0.2153
  266SOL    HW1  797   1.258   1.496   0.625  0.2890  1.8792  0.6287
  266SOL    HW2  798   1.422   1.507   0.609 -0.2055  1.0059  1.3567
  267SOL     OW  799   2.725   0.547   0.071  0.9344 -0.0805 -0.1614
  267SOL    HW1  800   2.750   0.456   0.028  2.1391 -1.5626 -0.0160
  267SOL    HW2  801   2.725   0.620   0.004  1.9647 -1.3860  0.5429
  268SOL     OW  802   2.856   0.013   2.951 -0.4565 -0.0463 -0.5651
  268SOL    HW1  803   2.861   0.053   2.857 -1.4083 -0.0788 -0.4673
  268SOL    HW2  804   2.821   3.018   2.931 -1.0377  2.5954  1.9533
  269SOL     OW  805   1.741   0.315   2.269 -0.1810  0.6540 -0.4017
  269SOL    HW1  806   1.758   0.376   2.347 -1.5654  0.9711  1.4701
  269SOL    HW2  807   1.642   0.300   2.262  0.8005  2.0522  0.6690
  270SOL     OW  808   0.926   0.947   2.453  0.2105  0.0347 -0.2996
  270SOL    HW1  809   0.920   0.865   2.392 -1.0831  0.8736  0.0360
  270SOL    HW2  810   0.828   0.967   2.479  1.1675  0.0787  2.4713
  271SOL     OW  811   2.611   0.842   0.159  0.0116 -0.3770 -0.3226
  271SOL    HW1  812   2.589   0.940   0.175 -1.5373 -1.8261  4.0989
  271SOL    HW2  813   2.531   0.787   0.194 -1.8162 -0.0955  0.4342
  272SOL     OW  814   2.722   1.795   2.766 -0.8178 -0.3040 -0.0018
  272SOL    HW1  815   2.653   1.871   2.780 -1.2633  4.4885  1.3410
  272SOL    HW2  816   2.798   1.845   2.717  2.1301  0.7735  1.3811
  273SOL     OW  817   2.352   0.680   3.080  0.2246  0.6385 -0.0459
  273SOL    HW1  818   2.313   0.584   3.053 -1.3985 -2.5546 -2.4936
  273SOL    HW2  819   2.405   0.725   3.002  3.4745  1.3084 -0.6282
  274SOL     OW  820   0.181   2.451   1.036 -0.0097  0.6931 -0.6891
  274SOL    HW1  821   0.262   2.438   0.979 -1.5554 -2.5384  0.0206
  274SOL    HW2  822   0.192   2.539   1.088 -1.1802 -1.5791 -0.7816
  275SOL     OW  823   2.217   1.392   0.568  0.0451  0.3029  0.2048
  275SOL    HW1  824   2.311   1.396   0.609 -1.0800  1.6405  1.1485
  275SOL    HW2  825   2.191   1.491   0.565  0.8807  0.6554 -0.6610
  276SOL     OW  826   0.229   1.111   2.734 -0.0976  0.4469 -0.0180
  276SOL    HW1  827   0.321   1.131   2.699  0.8598  0.2202  1.8037
  276SOL    HW2  828   0.161   1.091   2.663  0.5185  0.4803  1.1144
  277SOL     OW  829   1.630   2.583   1.384 -0.0277  0.2818 -0.5786
  277SOL    HW1  830   1.648   2.674   1.422 -0.2426 -0.8757 -0.4740
  277SOL    HW2  831   1.718   2.545   1.357 -0.9795 -0.4005  1.4624
  278SOL     OW  832   1.341   0.582   1.771  0.4364 -0.4156  0.2836
  278SOL    HW1  833   1.288   0.508   1.809  0.0211  1.5251  0.6097
  278SOL    HW2  834   1.333   0.582   1.669 -1.0512 -0.1523  0.6221
  279SOL     OW  835   1.581   1.577   0.672  0.8294  0.0720  0.6890
  279SOL    HW1  836   1.585   1.638   0.754 -3.1739  2.5272 -2.0004
  279SOL    HW2  837   1.626   1.620   0.590  0.3793 -2.7920 -3.5132
  280SOL     OW  838   0.637   1.760   0.613 -0.1328 -0.1983  0.2539
  280SOL    HW1  839   0.736   1.770   0.621  0.2362 -0.8217 -0.0918
  280SOL    HW2  840   0.617   1.675   0.560  0.7151  0.8262 -1.6651
  281SOL     OW  841   2.895   0.077   2.682 -0.2106 -0.3047 -0.4501
  281SOL    HW1  842   2.878   0.165   2.634 -0.0317  0.0159 -1.4979
  281SOL    HW2  843   2.987   0.038   2.668  1.4395 -2.4741  1.4769
  282SOL     OW  844   0.408   0.794   0.499  0.4581 -0.3618  1.1625
  282SOL    HW1  845   0.462   0.789   0.413 -0.5374  0.8286  1.8441
  282SOL    HW2  846   0.314   0.808   0.464 -0.8493  1.5749  2.3969
  283SOL     OW  847   1.870   1.888   0.347  0.2287 -0.6968  0.0534
  283SOL    HW1  848   1.951   1.930   0.394 -4.2048  0.9076 -1.1961
  283SOL    HW2  849   1.888   1.866   0.250 -0.7011 -2.4440 -1.8233
  284SOL     OW  850   1.299   1.291   0.378 -0.4727  0.0931 -0.0225
  284SOL    HW1  851   1.314   1.355   0.457  0.1356 -0.3601  0.0527
  284SOL    HW2  852   1.386   1.243   0.360 -0.1231  0.2166  1.9548
  285SOL     OW  853   2.448   0.119   2.789 -0.3796 -0.1392  0.2775
  285SOL    HW1  854   2.449   0.217   2.817 -0.2501 -1.1030  0.6011
  285SOL    HW2  855   2.529   0.085   2.739 -2.4025 -0.8836 -0.0223
  286SOL     OW  856   1.141   2.905   1.466  0.3583  0.0519 -0.1013
  286SOL    HW1  857   1.089   2.910   1.380 -1.7326  0.8330 -1.2823
  286SOL    HW2  858   1.087   2.963   1.536 -1.9360 -0.6693  1.0240
  287SOL     OW  859   0.937   1.374   1.104 -0.1957  0.5207 -0.2028
  287SOL    HW1  860   1.017   1.406   1.048 -1.3947  0.0224 -1.2293
  287SOL    HW2  861   0.865   1.446   1.121  2.0764 -2.1171 -0.9823
  288SOL     OW  862   1.540   3.005   2.801 -0.4322 -0.0843  0.8596
  288SOL    HW1  863   1.532   3.095   2.848  2.1703  0.5827 -0.7232
  288SOL    HW2  864   1.517   2.920   2.857  2.6058 -1.5266  1.3180
  289SOL     OW  865   0.104   1.506   2.669 -0.8119 -0.2540  0.0561
  289SOL    HW1  866   0.069   1.414   2.642  1.8275  0.7079 -2.6894
  289SOL    HW2  867   0.088   1.511   2.771 -1.6746 -0.1910  0.4895
  290SOL     OW  868   1.691   2.255   0.912 -0.1943 -0.6687  0.1859
  290SOL    HW1  869   1.653   2.319   0.842  1.4731  0.1163  1.8551
  290SOL    HW2  870   1.741   2.184   0.858 -0.7284  0.3217 -1.4524
  291SOL     OW  871   2.331   1.992   2.935  0.1869 -0.1453 -0.2057
  291SOL    HW1  872   2.277   1.992   3.023 -1.8749 -3.0469 -0.8997
  291SOL    HW2  873   2.279   1.932   2.869 -1.1596 -4.8359  1.5635
  292SOL     OW  874   1.130   0.691   2.166 -0.7936  0.0081 -0.0054
  292SOL    HW1  875   1.207   0.634   2.197  0.6059  0.1400  0.4527
  292SOL    HW2  876   1.143   0.793   2.175 -2.5068  1.0119 -1.7277
  293SOL     OW  877   2.146   2.909   0.978 -0.2365 -1.0494  0.8859
  293SOL    HW1  878   2.100   2.980   0.919  0.0223  0.3895 -0.4172
  293SOL    HW2  879   2.244   2.888   0.942  3.0369 -1.5711 -1.5718
  294SOL     OW  880   0.372   0.385   2.506  0.0019 -0.1703  0.5078
  294SOL    HW1  881   0.383   0.483   2.519 -0.3632  0.2010 -2.0333
  294SOL    HW2  882   0.429   0.351   2.426  2.8647 -0.2128 -1.0235
  295SOL     OW  883   1.403   1.790   0.440  0.9680  0.0734 -0.0248
  295SOL    HW1  884   1.354   1.778   0.532 -1.9427 -1.0535  1.2199
  295SOL    HW2  885   1.405   1.702   0.390  0.9245  1.5573 -0.8488
  296SOL     OW  886   2.423   1.696   0.354  0.2340 -0.0185  0.0626
  296SOL    HW1  887   2.476   1.701   0.266  3.2947 -1.2760  3.6359
  296SOL    HW2  888   2.349   1.627   0.354  2.5248 -2.3182  0.5733
  297SOL     OW  889   2.034   0.330   0.051 -0.0426  0.4172  0.5318
  297SOL    HW1  890   2.060   0.231   0.035 -1.7915 -0.4961  2.9611
  297SOL    HW2  891   2.093   0.391   3.098 -1.3968 -2.5822  1.5274
  298SOL     OW  892   1.273   2.362   2.330  0.2535 -0.6749  0.3831
  298SOL    HW1  893   1.188   2.312   2.349 -0.0476 -0.0829 -1.7085
  298SOL    HW2  894   1.354   2.303   2.309  2.8595  2.4022  0.3749
  299SOL     OW  895   1.263   3.017   2.338  0.0465  0.1605 -0.4099
  299SOL    HW1  896   1.277   3.033   2.436  1.2093  1.0855  0.6166
  299SOL    HW2  897   1.349   2.979   2.304  1.9433  1.3815 -0.5542
  300SOL     OW  898   1.897   3.053   2.994  0.0361  0.1236 -0.0343
  300SOL    HW1  899   1.811   3.047   3.047  0.5866 -0.9272  0.1971
  300SOL    HW2  900   1.886   3.027   2.894 -1.9738  0.2571 -1.1054
  301SOL     OW  901   1.435   1.370   1.336 -0.4080 -0.6714 -0.3145
  301SOL    HW1  902   1.390   1.285   1.308  0.0541  2.7201 -1.1128
  301SOL    HW2  903   1.399   1.453   1.286  1.1047  1.7722 -0.7843
  302SOL     OW  904   2.639   2.283   0.346 -0.0970  0.2113  0.3412
  302SOL    HW1  905   2.704   2.364   0.359  3.1275  1.5251  3.1023
  302SOL    HW2  906   2.547   2.323   0.346 -0.8588 -0.3766  0.9696
  303SOL     OW  907   2.773   2.238   2.422 -0.1971  0.2248  0.0171
  303SOL    HW1  908   2.743   2.331   2.445  1.3981 -3.0199 -2.6817
  303SOL    HW2  909   2.788   2.235   2.319  0.7973 -0.6033 -0.2232
  304SOL     OW  910   2.970   0.437   1.766 -0.6043 -0.0179 -0.2236
  304SOL    HW1  911   2.967   0.498   1.686 -0.0442  2.0760 -1.2334
  304SOL    HW2  912   2.918   0.478   1.844  0.7900  2.2997  0.1963
  305SOL     OW  913   0.695   1.893   1.901  0.4718 -0.3277 -0.3723
  305SOL    HW1  914   0.715   1.798   1.877 -0.0781  1.8265 -0.3085
  305SOL    HW2  915   0.772   1.961   1.875  1.3177  0.1730 -3.1000
  306SOL     OW  916   2.881   0.869   1.748  0.2076  0.1627  0.1632
  306SOL    HW1  917   2.977   0.839   1.737 -1.3741 -1.3705  0.3165
  306SOL    HW2  918   2.861   0.917   1.834 -0.5168 -0.1196 -1.6807
  307SOL     OW  919   1.636   1.334   1.933  0.3308  0.3376 -0.2348
  307SOL    HW1  920   1.585   1.418   1.910  0.3996 -1.1193  0.5957
  307SOL    HW2  921   1.599   1.259   1.884 -0.3298  2.4110  3.0221
  308SOL     OW  922   2.646   1.615   0.953  0.1392 -0.4340  0.2465
  308SOL    HW1  923   2.578   1.541   0.932  0.1075 -2.6192  1.4641
  308SOL    HW2  924   2.602   1.704   0.960  4.1214 -1.4367 -1.2977
  309SOL     OW  925   2.339   1.653   1.299  0.4338 -0.3885 -0.1456
  309SOL    HW1  926   2.371   1.695   1.387  3.3314  1.1568  0.9141
  309SOL    HW2  927   2.394   1.570   1.277 -0.4935 -1.2546  0.1174
  310SOL     OW  928   2.806   1.538   2.683  0.3700  0.1716 -0.3555
  310SOL    HW1  929   2.784   1.538   2.583  1.2453 -2.4214  2.0056
  310SOL    HW2  930   2.773   1.621   2.732 -0.6549 -2.0111  2.0846
  311SOL     OW  931   0.164   2.120   2.980 -0.0234 -0.0348  0.1502
  311SOL    HW1  932   0.162   2.140   3.078  2.4621 -2.9079 -1.0578
  311SOL    HW2  933   0.138   2.022   2.980 -1.0132 -1.8171 -1.2573
  312SOL     OW  934   2.380   1.665   1.021  0.0512 -0.1604  0.3453
  312SOL    HW1  935   2.342   1.573   0.996  0.5043 -2.0032  0.1016
  312SOL    HW2  936   2.374   1.685   1.120  2.0298  0.7162 -0.3204
  313SOL     OW  937   2.655   2.905   1.109  0.7105 -0.3308  0.2622
  313SOL    HW1  938   2.647   2.921   1.006  0.5155  0.9913 -1.0412
  313SOL    HW2  939   2.576   2.935   1.164  0.7387 -0.9663 -0.1427
  314SOL     OW  940   1.102   1.719   0.401  0.1180  0.1494  0.4076
  314SOL    HW1  941   1.149   1.743   0.313 -0.3058  0.1229 -0.3003
  314SOL    HW2  942   1.161   1.731   0.484 -2.9676 -0.5208  0.5361
  315SOL     OW  943   1.137   2.575   2.208  0.4284 -0.3131 -0.2151
  315SOL    HW1  944   1.057   2.584   2.276 -1.3030  1.4523  0.1415
  315SOL    HW2  945   1.188   2.492   2.237 -0.0358 -0.2842 -0.9027
  316SOL     OW  946   2.899   1.176   0.214 -0.6346 -0.1974 -0.0878
  316SOL    HW1  947   2.954   1.088   0.207  0.5162 -1.1897  1.1084
  316SOL    HW2  948   2.860   1.179   0.308  0.0686 -2.0671  1.5600
  317SOL     OW  949   0.959   0.307   0.403 -0.1400 -0.5049 -0.7414
  317SOL    HW1  950   0.981   0.296   0.307  1.1399 -1.7530  2.5220
  317SOL    HW2  951   0.977   0.223   0.454 -1.0412  2.9289  0.8413
  318SOL     OW  952   2.833   2.440   0.413  0.1173 -0.1065  0.6526
  318SOL    HW1  953   2.886   2.373   0.470  0.6676 -0.9968  2.0331
  318SOL    HW2  954   2.842   2.533   0.454  0.8503 -1.5760  1.0555
  319SOL     OW  955   0.591   1.383   2.561 -0.3025 -0.1760 -0.4429
  319SOL    HW1  956   0.503   1.441   2.574 -4.9775  1.6565  0.1790
  319SOL    HW2  957   0.677   1.431   2.565 -1.1049 -1.0733  1.3849
  320SOL     OW  958   0.614   2.321   1.771  0.1279 -0.2455  0.0507
  320SOL    HW1  959   0.705   2.296   1.733 -2.0624 -1.7234 -3.6183
  320SOL    HW2  960   0.611   2.420   1.800 -0.0588  2.1477  0.9041
  321SOL     OW  961   1.395   2.260   0.114  0.0109 -0.0998 -0.3577
  321SOL    HW1  962   1.472   2.225   0.170  0.0046 -1.7975  0.1649
  321SOL    HW2  963   1.438   2.330   0.051  0.6786 -0.0847 -0.6768
  322SOL     OW  964   2.753   0.967   1.993  0.2560  0.1597  0.8187
  322SOL    HW1  965   2.718   1.062   2.006 -1.2527 -1.0302  1.5773
  322SOL    HW2  966   2.844   0.951   2.037  2.3017 -2.4194  0.6352
  323SOL     OW  967   2.325   0.902   0.562  0.5533 -0.6355 -0.1644
  323SOL    HW1  968   2.256   0.834   0.585  3.4652  1.6757  1.3636
  323SOL    HW2  969   2.289   1.002   0.565  1.5673  2.2681  3.5931
  324SOL     OW  970   0.354   2.936   0.076 -0.5679  0.8814 -0.0823
  324SOL    HW1  971   0.312   2.896   3.087 -0.9586  0.3606  2.6060
  324SOL    HW2  972   0.275   2.984   0.120 -0.7567 -1.7539 -1.1031
  325SOL     OW  973   1.396   0.515   2.147  0.2247  0.1092 -0.6951
  325SOL    HW1  974   1.466   0.573   2.112 -0.3916 -0.5856  3.0636
  325SOL    HW2  975   1.434   0.423   2.139 -0.3793  0.2266 -0.9257
  326SOL     OW  976   2.195   2.737   1.595  0.7166  0.2371  0.0938
  326SOL    HW1  977   2.275   2.713   1.540 -0.3393 -0.6835  3.6571
  326SOL    HW2  978   2.144   2.816   1.553  2.5731  2.4606  0.8307
  327SOL     OW  979   2.015   0.695   2.788  0.1907  0.4658 -0.0459
  327SOL    HW1  980   2.003   0.703   2.889  0.2646  0.5034 -1.7494
  327SOL    HW2  981   1.969   0.610   2.756 -1.1691  1.6434 -0.2568
  328SOL     OW  982   2.873   1.006   2.343  0.6547 -0.2541 -0.2341
  328SOL    HW1  983   2.801   1.074   2.314  0.0741 -1.1201  2.1551
  328SOL    HW2  984   2.848   0.977   2.441  0.6725  3.0618  3.3676
  329SOL     OW  985   1.239   3.045   1.908 -0.1110  0.1476 -0.2261
  329SOL    HW1  986   1.198   3.000   1.990 -1.5243 -1.1829 -2.7798
  329SOL    HW2  987   1.327   3.087   1.926 -2.3915  0.2021  0.1436
  330SOL     OW  988   3.083   1.770   1.542  0.4152  0.4604 -0.1643
  330SOL    HW1  989   0.003   1.824   1.455  3.4375  0.5012 -0.3398
  330SOL    HW2  990   3.084   1.665   1.529 -1.2605  1.9541  0.7282
  331SOL     OW  991   0.534   1.298   1.867  0.2953  0.4130 -0.7365
  331SOL    HW1  992   0.499   1.314   1.769  0.6364  1.3835  0.2779
  331SOL    HW2  993   0.619   1.238   1.862  3.4941 -3.2248 -0.5276
  332SOL     OW  994   0.073   2.794   1.537  0.6662  0.2457  0.0062
  332SOL    HW1  995   0.015   2.850   1.602 -2.3457 -0.8076 -1.1210
  332SOL    HW2  996   0.006   2.732   1.493  0.4634 -0.8227  3.4248
  333SOL     OW  997   2.224   2.829   1.846  0.4628  0.0178 -0.1066
  333SOL    HW1  998   2.260   2.930   1.849  0.6187  2.6438 -0.6256
  333SOL    HW2  999   2.220   2.793   1.751 -0.6982  0.5340 -2.2548
  334SOL     OW 1000   0.864   2.041   1.048 -0.2885 -0.3115  0.6522
  334SOL    HW1 1001   0.782   2.101   1.062  4.4686  1.5885 -1.1807
  334SOL    HW2 1002   0.937   2.083   0.991  0.4095 -0.3950 -0.4297
  335SOL     OW 1003   0.755   2.373   2.816 -0.4008  0.2780 -0.0522
  335SOL    HW1 1004   0.664   2.388   2.769 -0.0873  0.7937 -4.4018
  335SOL    HW2 1005   0.812   2.456   2.821 -1.5906  0.0361 -0.9825
  336SOL     OW 1006   0.056   0.236   2.050 -0.2108  0.4320  0.1068
  336SOL    HW1 1007   0.044   0.171   1.971 -0.8199 -2.5049 -2.3627
  336SOL    HW2 1008   3.078   0.235   2.117  0.5852 -0.7012 -3.2698
  337SOL     OW 1009   2.816   2.030   0.023  0.2178  0.1878 -0.8481
  337SOL    HW1 1010   2.825   2.069   0.117  0.4492  1.3681 -2.2812
  337SOL    HW2 1011   2.862   1.943   0.004 -0.5165  0.7569 -1.8552
  338SOL     OW 1012   0.997   2.124   1.307  0.2600  0.0441  0.5227
  338SOL    HW1 1013   1.088   2.166   1.283  1.9354  0.4706 -0.0390
  338SOL    HW2 1014   0.952   2.099   1.219 -1.6815  0.6879  0.2423
  339SOL     OW 1015   0.080   0.500   1.962 -0.3397  0.1094  0.8178
  339SOL    HW1 1016   0.025   0.490   1.879  0.3702  0.2205  0.6934
  339SOL    HW2 1017   0.099   0.413   2.009  2.3861 -1.3901  0.6538
  340SOL     OW 1018   1.739   2.543   0.681 -0.1269 -0.1566 -0.2620
  340SOL    HW1 1019   1.718   2.584   0.591  0.7900 -3.0588  1.5463
  340SOL    HW2 1020   1.664   2.477   0.704  0.5596  1.2492  0.6935
  341SOL     OW 1021   1.561   1.517   1.058 -0.3536  0.4803 -0.4635
  341SOL    HW1 1022   1.648   1.473   1.085 -1.0653 -2.1810 -0.6309
  341SOL    HW2 1023   1.581   1.598   1.001 -2.1340  1.6523 -1.9317
  342SOL     OW 1024   0.174   1.398   0.703  0.6090  0.6261 -0.3671
  342SOL    HW1 1025   0.240   1.464   0.659  1.7904  1.7849 -0.2403
  342SOL    HW2 1026   0.091   1.390   0.640 -2.2136 -2.3212 -3.6857
  343SOL     OW 1027   1.395   0.133   1.335 -0.2365 -0.2767  0.6922
  343SOL    HW1 1028   1.302   0.152   1.373 -0.4113 -0.1191  1.1980
  343SOL    HW2 1029   1.420   0.214   1.276  1.3175  1.6842  0.7954
  344SOL     OW 1030   2.136   2.725   1.179 -0.9110 -0.6306  0.3216
  344SOL    HW1 1031   2.130   2.820   1.147 -1.2037 -0.9897  0.0849
  344SOL    HW2 1032   2.044   2.687   1.204 -0.7925 -1.6343 -0.1391
  345SOL     OW 1033   2.823   2.381   2.786 -0.1273  0.3093  0.1729
  345SOL    HW1 1034   2.753   2.444   2.746 -1.9344 -0.5218 -1.4011
  345SOL    HW2 1035   2.912   2.430   2.788 -0.8144  1.5176  0.3562
  346SOL     OW 1036   0.300   1.897   0.834  0.4955 -0.3971  0.0334
  346SOL    HW1 1037   0.346   1.881   0.744  1.6539 -1.5914 -1.8145
  346SOL    HW2 1038   0.239   1.976   0.832  1.6498  0.9601 -2.0309
  347SOL     OW 1039   1.958   2.617   0.850 -0.4673  0.5737 -0.2422
  347SOL    HW1 1040   1.880   2.591   0.791 -0.2473  1.9140 -2.8707
  347SOL    HW2 1041   1.925   2.684   0.919 -3.1936  2.4577  2.7734
  348SOL     OW 1042   1.282   1.449   2.685  0.6554  0.3877 -0.4547
  348SOL    HW1 1043   1.316   1.370   2.637  1.3105 -0.3585  2.1766
  348SOL    HW2 1044   1.243   1.518   2.617 -2.0090  1.1350 -0.1235
  349SOL     OW 1045   2.380   1.072   2.077 -0.0660 -0.1625  0.3544
  349SOL    HW1 1046   2.330   1.059   1.987  0.0879  0.0767  1.6842
  349SOL    HW2 1047   2.480   1.065   2.052 -1.8599  0.5015 -0.8916
  350SOL     OW 1048   0.002   2.398   1.232  0.4449 -0.4129  0.0054
  350SOL    HW1 1049   0.001   2.313   1.283  0.2159  3.6538  1.0156
  350SOL    HW2 1050   0.074   2.406   1.164 -1.8375  3.1205  3.8543
  351SOL     OW 1051   0.536   0.347   2.888  0.0604  0.5262 -0.2930
  351SOL    HW1 1052   0.544   0.260   2.941  0.3476 -0.9924  1.9599
  351SOL    HW2 1053   0.629   0.372   2.851  3.0562 -1.1322 -0.0244
  352SOL     OW 1054   0.804   2.637   1.397 -0.2160  0.2594  0.0702
  352SOL    HW1 1055   0.862   2.619   1.478  0.2133 -0.1360  0.1811
  352SOL    HW2 1056   0.711   2.663   1.428  0.3440  1.2674  2.2656
  353SOL     OW 1057   1.049   0.790   2.651 -1.0061  0.0344  0.7148
  353SOL    HW1 1058   1.005   0.856   2.584 -2.4771  0.0281 -1.2203
  353SOL    HW2 1059   1.118   0.836   2.711  0.6843  0.9718  1.8737
  354SOL     OW 1060   1.425   1.029   0.519 -0.5912 -0.6792 -0.9134
  354SOL    HW1 1061   1.339   0.991   0.489  2.7828  3.7752 -0.6017
  354SOL    HW2 1062   1.472   1.085   0.447 -0.7749 -1.8487 -0.1897
  355SOL     OW 1063   2.690   0.128   0.456 -0.4947  0.7499  0.0190
  355SOL    HW1 1064   2.768   0.107   0.394  3.9006  1.0987  1.8593
  355SOL    HW2 1065   2.661   0.047   0.507 -3.0048  1.5066 -1.2063
  356SOL     OW 1066   2.809   0.930   2.594 -0.2169  0.2330 -0.6929
  356SOL    HW1 1067   2.874   0.904   2.667 -0.1333 -1.3809  1.8590
  356SOL    HW2 1068   2.758   0.846   2.565 -0.3789 -1.4686 -1.0248
  357SOL     OW 1069   0.639   2.789   1.929 -0.0621  0.3125 -0.1410
  357SOL    HW1 1070   0.635   2.861   1.858  1.3025  0.0128  1.6382
  357SOL    HW2 1071   0.574   2.711   1.918 -1.8670 -0.6056  2.4430
  358SOL     OW 1072   2.945   1.287   2.680  0.0524 -0.4554 -0.1996
  358SOL    HW1 1073   2.906   1.385   2.682  0.0133 -0.2349  1.2219
  358SOL    HW2 1074   3.014   1.289   2.606  0.6336  0.0646 -1.9810
  359SOL     OW 1075   2.420   2.487   2.834  0.1743 -0.4256 -0.0049
  359SOL    HW1 1076   2.439   2.568   2.772  0.0343 -1.6453 -2.1361
  359SOL    HW2 1077   2.455   2.402   2.785  1.4768  2.1783  1.5868
  360SOL     OW 1078   1.860   0.992   0.979  0.4363  0.5004  0.4528
  360SOL    HW1 1079   1.886   1.087   0.952 -0.0471  0.0366  1.7892
  360SOL    HW2 1080   1.863   0.986   1.077 -2.0556  2.8002 -2.8909
  361SOL     OW 1081   1.886   2.831   1.013 -0.1137  0.0915 -0.0210
  361SOL    HW1 1082   1.811   2.899   1.019 -0.1329 -1.6015 -3.0117
  361SOL    HW2 1083   1.977   2.871   0.993 -1.0925 -1.8695 -1.5445
  362SOL     OW 1084   1.483   1.153   0.763  0.3177 -0.8299  0.5346
  362SOL    HW1 1085   1.465   1.126   0.667 -0.7711 -0.0157  0.7635
  362SOL    HW2 1086   1.570   1.210   0.779 -0.3391 -0.1850 -0.1745
  363SOL     OW 1087   0.018   1.706   2.501  0.2521  0.5622  0.2106
  363SOL    HW1 1088   0.014   1.666   2.411  0.0252 -0.4842  0.5807
  363SOL    HW2 1089   0.058   1.642   2.574  0.2378  0.8002  1.8082
  364SOL     OW 1090   1.338   0.676   1.455 -0.7591  0.1448 -0.0619
  364SOL    HW1 1091   1.265   0.608   1.486 -1.5952 -0.5598  2.2576
  364SOL    HW2 1092   1.393   0.632   1.380  1.0982  1.1094  1.5468
  365SOL     OW 1093   3.042   0.041   1.479  0.1337 -0.0434  0.4042
  365SOL    HW1 1094   0.029   0.082   1.444  2.2730 -1.2082 -1.0448
  365SOL    HW2 1095   2.976   0.114   1.501  2.5167 -0.2344  1.6113
  366SOL     OW 1096   2.927   1.469   0.166  0.0288  0.0823  0.0092
  366SOL    HW1 1097   2.857   1.528   0.201  2.2401 -1.7735 -2.2566
  366SOL    HW2 1098   2.898   1.373   0.185  1.5784 -1.1387 -0.7084
  367SOL     OW 1099   2.881   2.117   2.637  0.0431 -0.0798 -0.0722
  367SOL    HW1 1100   2.849   2.173   2.562  0.6934  0.2825  0.9002
  367SOL    HW2 1101   2.818   2.128   2.717 -0.5535  0.2805  0.4408
  368SOL     OW 1102   3.035   2.025   0.961  0.3212  0.0024 -0.3390
  368SOL    HW1 1103   2.977   2.099   1.005  0.3441 -0.9317  0.5797
  368SOL    HW2 1104   0.026   2.061   0.930 -1.0689 -2.1101  0.5258
  369SOL     OW 1105   0.609   0.281   0.503  0.0831 -0.3285 -0.0084
  369SOL    HW1 1106   0.619   0.299   0.407 -1.4253 -0.4097  4.3428
  369SOL    HW2 1107   0.665   0.198   0.525  0.8885  0.4679  0.8120
  370SOL     OW 1108   0.552   0.924   1.376 -1.1013  0.1115 -0.3137
  370SOL    HW1 1109   0.530   0.972   1.287 -1.9697  0.3573  0.1256
  370SOL    HW2 1110   0.614   0.838   1.365  1.0826 -1.3014 -1.6124
  371SOL     OW 1111   2.323   2.088   0.764  0.1523  0.4570  0.2808
  371SOL    HW1 1112   2.370   2.007   0.794 -0.4023  1.6290  0.0092
  371SOL    HW2 1113   2.323   2.099   0.660  1.3210  1.0575 -0.1635
  372SOL     OW 1114   0.101   0.774   2.391  0.3535  0.3241  0.7109
  372SOL    HW1 1115   0.150   0.757   2.477  1.2958 -0.6571  2.0819
  372SOL    HW2 1116   0.169   0.797   2.318 -1.2510  1.3704 -1.6634
  373SOL     OW 1117   2.653   1.414   0.296  0.2454 -0.3825 -0.1490
  373SOL    HW1 1118   2.662   1.492   0.360 -1.9364 -0.8302  3.1060
  373SOL    HW2 1119   2.684   1.333   0.344 -1.3485 -1.3462  2.0908
  374SOL     OW 1120   0.614   2.557   0.142  0.2814  0.7073  0.2445
  374SOL    HW1 1121   0.615   2.560   0.243  0.1830 -0.9621  1.8516
  374SOL    HW2 1122   0.688   2.496   0.100  1.1318 -1.9200 -0.7333
  375SOL     OW 1123   0.649   0.277   0.227  0.1531  0.5518  0.2328
  375SOL    HW1 1124   0.721   0.275   0.155  0.1303  0.6374 -1.0400
  375SOL    HW2 1125   0.589   0.192   0.234 -0.1549 -0.0711 -0.8586
  376SOL     OW 1126   0.129   3.006   2.195 -0.0328 -0.4624  0.4542
  376SOL    HW1 1127   0.057   3.072   2.226 -1.7196  1.2321  0.3539
  376SOL    HW2 1128   0.198   3.060   2.145  2.2094 -0.6562 -1.9534
  377SOL     OW 1129   0.713   1.959   2.227  0.0290 -0.5668 -0.1693
  377SOL    HW1 1130   0.721   1.931   2.326 -0.0303  0.7616  0.3604
  377SOL    HW2 1131   0.686   1.885   2.164  1.2876  1.9244  1.5433
  378SOL     OW 1132   1.214   0.913   0.366  0.2831 -0.4412 -0.0682
  378SOL    HW1 1133   1.204   0.956   0.273  1.8639  1.1160  0.8295
  378SOL    HW2 1134   1.119   0.905   0.402  0.0813  0.9072  0.5930
  379SOL     OW 1135   1.108   1.433   0.189  0.2006  0.3080 -0.5670
  379SOL    HW1 1136   1.026   1.449   0.248 -1.4448  1.9009 -1.0912
  379SOL    HW2 1137   1.176   1.370   0.223  0.8394  0.6407 -0.3050
  380SOL     OW 1138   3.037   1.964   1.947 -0.7846 -0.6108  0.7993
  380SOL    HW1 1139   0.021   1.931   1.900 -2.2269 -1.4927  1.7291
  380SOL    HW2 1140   3.041   1.941   2.047  1.3797 -0.0532 -1.8422
  381SOL     OW 1141   0.417   0.921   1.793  0.0722 -0.2938  0.2205
  381SOL    HW1 1142   0.453   1.002   1.735  1.7020  0.7315 -1.2062
  381SOL    HW2 1143   0.320   0.894   1.763 -3.6479 -0.1224 -1.9771
  382SOL     OW 1144   2.756   2.149   2.883  0.1995 -0.0894 -0.7080
  382SOL    HW1 1145   2.763   2.250   2.858 -1.0901 -1.2412 -0.0908
  382SOL    HW2 1146   2.807   2.125   2.970  2.9346 -0.8176  2.4538
  383SOL     OW 1147   2.388   1.880   2.233  0.1034  0.4295 -0.6302
  383SOL    HW1 1148   2.355   1.844   2.144  0.3921  0.9280 -0.8847
  383SOL    HW2 1149   2.379   1.806   2.304 -1.6070 -1.2975  2.1106
  384SOL     OW 1150   0.661   2.489   2.141 -0.0879 -0.2054  0.3832
  384SOL    HW1 1151   0.668   2.569   2.203 -0.8382  0.1473 -0.0981
  384SOL    HW2 1152   0.561   2.481   2.116  1.4886 -0.9489  0.9864
  385SOL     OW 1153   2.643   2.077   1.092  0.3179 -0.3267 -0.3599
  385SOL    HW1 1154   2.717   2.138   1.121 -0.7583  1.1970 -2.2238
  385SOL    HW2 1155   2.643   1.984   1.141  1.6236  0.2409 -0.7790
  386SOL     OW 1156   1.732   0.968   2.971  0.0026 -0.0554  0.6129
  386SOL    HW1 1157   1.760   0.919   2.888 -1.9055  1.6198 -1.0427
  386SOL    HW2 1158   1.765   0.926   3.053  0.9953  2.5826 -1.2787
  387SOL     OW 1159   0.560   1.062   1.608 -0.2718  0.0965  0.3391
  387SOL    HW1 1160   0.570   1.011   1.520  1.4404  0.3996 -0.4030
  387SOL    HW2 1161   0.637   1.127   1.620  0.5737 -0.3970 -0.5897
  388SOL     OW 1162   2.940   0.923   1.411  0.3069 -0.0314 -0.5324
  388SOL    HW1 1163   2.881   0.848   1.383  0.9620  2.8364 -0.0484
  388SOL    HW2 1164   2.894   0.989   1.467  1.1201 -2.1618 -1.0689
  389SOL     OW 1165   1.720   1.071   2.581 -0.5714  0.4302 -0.3649
  389SOL    HW1 1166   1.696   1.128   2.661  0.5057  0.0145  1.4369
  389SOL    HW2 1167   1.765   0.988   2.613 -0.9893 -0.7595  0.7753
  390SOL     OW 1168   2.076   1.999   0.496  0.2369 -0.2027 -0.6208
  390SOL    HW1 1169   2.024   2.088   0.513 -2.1271  1.8416  5.0376
  390SOL    HW2 1170   2.178   2.009   0.513  1.4304  0.5128  0.3320
  391SOL     OW 1171   1.556   2.804   0.835 -0.0182 -0.0600 -0.3619
  391SOL    HW1 1172   1.631   2.806   0.768 -1.0040 -1.0751  2.3714
  391SOL    HW2 1173   1.548   2.714   0.880  1.6353  4.2432  1.9332
  392SOL     OW 1174   2.618   2.950   1.611  0.9623  0.0088 -0.5360
  392SOL    HW1 1175   2.691   2.951   1.540 -1.6631  0.1830  0.9237
  392SOL    HW2 1176   2.533   2.990   1.573 -1.9246  0.4218  2.3169
  393SOL     OW 1177   1.913   2.030   2.917  0.0666 -0.4722 -0.0202
  393SOL    HW1 1178   1.885   2.124   2.959  1.8778  4.1759  0.3259
  393SOL    HW2 1179   1.938   1.965   2.993 -2.0820 -0.6962  3.9994
  394SOL     OW 1180   0.552   2.684   3.023 -0.7961  0.1561 -0.1128
  394SOL    HW1 1181   0.565   2.626   0.010 -4.0060  3.3334  0.9327
  394SOL    HW2 1182   0.634   2.741   3.005  1.5002  1.1582 -1.6346
  395SOL     OW 1183   0.729   1.548   1.136 -0.3472  0.1120  0.1015
  395SOL    HW1 1184   0.636   1.527   1.108 -0.2752  0.3181 -0.3859
  395SOL    HW2 1185   0.724   1.561   1.238 -1.4271  1.2747  2.0492
  396SOL     OW 1186   2.102   0.963   2.530 -0.0273  0.3620  0.1239
  396SOL    HW1 1187   2.088   1.061   2.548 -2.2914 -0.1814 -1.6752
  396SOL    HW2 1188   2.047   0.911   2.594 -2.1414 -0.7859 -1.6551
  397SOL     OW 1189   2.940   0.782   2.771 -0.1127 -0.1593  0.2588
  397SOL    HW1 1190   2.851   0.733   2.787 -1.3138 -1.0399  1.0506
  397SOL    HW2 1191   3.009   0.714   2.750 -1.2449 -0.5776 -1.9945
  398SOL     OW 1192   1.290   0.308   0.201  0.2077 -0.4797 -0.1317
  398SOL    HW1 1193   1.374   0.300   0.137  0.2040  1.4982  0.8460
  398SOL    HW2 1194   1.298   0.243   0.278  0.7123 -0.1297 -0.7100
  399SOL     OW 1195   1.697   0.005   1.668  0.5030  0.2366 -0.0058
  399SOL    HW1 1196   1.730   3.051   1.592  1.1013  1.6088  2.3861
  399SOL    HW2 1197   1.612   3.063   1.709  0.2256 -2.2195  1.1726
  400SOL     OW 1198   0.025   2.328   2.253 -0.0203  0.1260  0.1301
  400SOL    HW1 1199   3.093   2.230   2.263  0.1785 -1.1230 -1.9654
  400SOL    HW2 1200   0.087   2.331   2.168 -0.5100 -1.0668 -0.2424
  401SOL     OW 1201   0.585   0.008   0.350  0.2915 -0.0077 -0.0095
  401SOL    HW1 1202   0.482   0.022   0.362  0.6248 -1.1957  2.2961
  401SOL    HW2 1203   0.607   3.056   0.265 -0.3167  1.5192  1.9255
  402SOL     OW 1204   0.255   2.338   1.461  0.8354 -0.0161  0.8702
  402SOL    HW1 1205   0.330   2.277   1.478 -0.6864  0.6006  0.3814
  402SOL    HW2 1206   0.180   2.291   1.413  1.6169  0.9381  1.5593
  403SOL     OW 1207   0.323   1.210   1.553 -0.0901  0.1671 -0.2310
  403SOL    HW1 1208   0.238   1.158   1.553  2.7746 -0.0566 -0.3220
  403SOL    HW2 1209   0.396   1.155   1.588 -2.7957  1.7039 -3.8659
  404SOL     OW 1210   2.912   2.516   2.255  0.4363 -0.2277  0.3561
  404SOL    HW1 1211   2.982   2.446   2.233 -0.0913 -1.7104 -1.7051
  404SOL    HW2 1212   2.947   2.603   2.293 -1.5254  3.0397 -2.2904
  405SOL     OW 1213   2.685   0.353   2.313 -0.1502  0.0978 -0.1143
  405SOL    HW1 1214   2.595   0.307   2.295  1.6480 -0.6741 -1.2126
  405SOL    HW2 1215   2.679   0.454   2.300  3.6701 -0.9088  1.1570
  406SOL     OW 1216   1.979   2.376   0.217 -0.2966 -0.4561 -0.1309
  406SOL    HW1 1217   2.036   2.414   0.288 -0.1307  1.6223 -1.6081
  406SOL    HW2 1218   1.898   2.332   0.258 -2.3846  0.2482 -2.9577
  407SOL     OW 1219   1.878   1.475   0.479  0.0052  0.1370  0.5984
  407SOL    HW1 1220   1.964   1.506   0.526  1.0781  0.6678  2.6620
  407SOL    HW2 1221   1.805   1.551   0.477 -2.7328 -0.7834 -1.2611
  408SOL     OW 1222   0.512   0.393   2.237  0.1812  0.0005  0.1426
  408SOL    HW1 1223   0.448   0.336   2.181 -1.4103 -0.0209  0.4427
  408SOL    HW2 1224   0.598   0.400   2.183  1.2776  0.7150 -0.1377
  409SOL     OW 1225   2.729   1.621   0.465 -0.0680  0.1274 -0.7316
  409SOL    HW1 1226   2.684   1.692   0.523  3.3697 -1.3047 -1.7819
  409SOL    HW2 1227   2.766   1.663   0.382 -0.8698 -2.8027  3.5295
  410SOL     OW 1228   2.064   1.660   1.342  0.4825 -0.2976 -0.2978
  410SOL    HW1 1229   2.162   1.670   1.321  0.4689 -0.8598  0.4557
  410SOL    HW2 1230   2.047   1.614   1.431 -1.6847 -0.1214 -0.1341
  411SOL     OW 1231   3.094   0.576   0.462  0.3928  0.3491  0.4863
  411SOL    HW1 1232   3.052   0.529   0.383 -1.3007  2.8713  0.7917
  411SOL    HW2 1233   0.032   0.506   0.526  1.1586  1.8784 -1.8033
  412SOL     OW 1234   2.000   0.761   3.038 -0.3302 -0.1585  0.1133
  412SOL    HW1 1235   1.930   0.795   0.006  2.9358 -2.7310  0.3409
  412SOL    HW2 1236   2.082   0.723   3.081 -0.7830 -0.4575  0.5227
  413SOL     OW 1237   0.990   0.674   1.607  0.9683  0.1327 -0.0738
  413SOL    HW1 1238   1.023   0.597   1.555  1.1612  1.9355 -0.9771
  413SOL    HW2 1239   0.954   0.749   1.544 -2.1711  1.8410  0.5600
  414SOL     OW 1240   0.176   1.099   0.075 -0.4178  0.2230 -0.2117
  414SOL    HW1 1241   0.155   1.165   0.005 -1.3249 -0.9611 -0.3728
  414SOL    HW2 1242   0.093   1.054   0.120  0.7070 -3.0173  2.4932
  415SOL     OW 1243   0.303   1.561   0.466 -0.1060  0.0416 -0.1045
  415SOL    HW1 1244   0.268   1.653   0.444  0.6194 -2.2847 -0.8438
  415SOL    HW2 1245   0.281   1.485   0.405 -0.3391  0.3004  0.7557
  416SOL     OW 1246   1.764   0.777   0.344 -0.4020  0.2940  0.4450
  416SOL    HW1 1247   1.701   0.701   0.338  2.0355  1.3870 -1.6816
  416SOL    HW2 1248   1.859   0.739   0.350  0.1619  1.2399  0.0454
  417SOL     OW 1249   0.164   0.058   1.090 -0.2308 -0.4199  0.4532
  417SOL    HW1 1250   0.186   0.095   0.999 -2.3812  3.1421 -0.9618
  417SOL    HW2 1251   0.227   3.081   1.108  0.6391  0.7686  0.5365
  418SOL     OW 1252   2.291   0.938   0.001  0.6725 -0.4865 -0.7985
  418SOL    HW1 1253   2.318   0.843   3.093 -2.6076  1.6927  1.3160
  418SOL    HW2 1254   2.249   0.961   3.012 -0.0624 -2.5648 -3.6745
  419SOL     OW 1255   0.541   0.520   0.177  0.4751 -0.1947  0.0222
  419SOL    HW1 1256   0.446   0.522   0.217 -1.1720 -0.0580 -1.3317
  419SOL    HW2 1257   0.582   0.428   0.184 -3.0945  2.6319  1.2022
  420SOL     OW 1258   0.446   1.457   1.026  0.3161 -0.2352  0.0833
  420SOL    HW1 1259   0.472   1.418   0.934  1.0124 -1.0404 -2.6331
  420SOL    HW2 1260   0.343   1.449   1.034 -1.1885 -1.9177  0.3994
  421SOL     OW 1261   0.541   2.191   3.057  0.8288 -0.1718 -0.4498
  421SOL    HW1 1262   0.513   2.105   0.006  1.1404 -0.7613 -0.8147
  421SOL    HW2 1263   0.481   2.217   2.976 -1.2383  1.2031 -0.7199
  422SOL     OW 1264   2.622   0.370   1.666 -0.2407 -0.1983 -0.1441
  422SOL    HW1 1265   2.616   0.270   1.683  0.1101  2.8154 -1.7418
  422SOL    HW2 1266   2.595   0.400   1.572  0.7984 -4.1058 -0.2359
  423SOL     OW 1267   2.089   1.647   0.559 -0.1948  0.1319 -0.0719
  423SOL    HW1 1268   2.060   1.629   0.653  1.2186  0.6272 -2.9192
  423SOL    HW2 1269   2.070   1.739   0.530 -0.7764  1.4114  1.2731
  424SOL     OW 1270   2.068   1.336   0.036 -0.0529 -0.0719  0.0243
  424SOL    HW1 1271   2.145   1.378   3.085 -3.0113  0.9126 -2.1689
  424SOL    HW2 1272   2.012   1.411   0.080 -0.3892  2.1605  0.6331
  425SOL     OW 1273   0.293   3.000   2.587  0.6647 -0.2274  0.4779
  425SOL    HW1 1274   0.390   3.028   2.594 -0.5440  0.4240  0.5377
  425SOL    HW2 1275   0.285   2.925   2.523  0.3085  0.4802  2.2123
  426SOL     OW 1276   2.438   2.684   2.639 -0.3267  0.2800 -0.3428
  426SOL    HW1 1277   2.364   2.741   2.675  0.6194 -1.6768 -2.3031
  426SOL    HW2 1278   2.431   2.666   2.541  0.7749 -0.3224  0.3220
  427SOL     OW 1279   0.656   0.936   2.190  0.0752 -0.5265  0.1051
  427SOL    HW1 1280   0.741   0.885   2.215  2.1191 -1.5889 -2.3421
  427SOL    HW2 1281   0.645   1.020   2.248  0.8767 -0.1876  1.6456
  428SOL     OW 1282   2.295   1.292   2.204 -0.0564  0.0218  0.1744
  428SOL    HW1 1283   2.352   1.233   2.145  1.0228 -0.0126  1.7161
  428SOL    HW2 1284   2.337   1.385   2.201  0.3181  1.5940 -0.3718
  429SOL     OW 1285   2.340   0.176   0.596  0.5330  0.4678 -0.5516
  429SOL    HW1 1286   2.320   0.176   0.496 -0.2183  0.9625  0.8731
  429SOL    HW2 1287   2.420   0.231   0.622 -2.1908 -0.1952  0.5289
  430SOL     OW 1288   1.761   1.424   2.278  0.2775 -0.1407  0.5536
  430SOL    HW1 1289   1.806   1.440   2.188  1.5750  1.6086  4.3396
  430SOL    HW2 1290   1.767   1.329   2.310 -0.1900  0.5868 -2.0401
  431SOL     OW 1291   2.822   1.787   1.624  0.0188 -0.1947  0.2813
  431SOL    HW1 1292   2.910   1.769   1.575 -2.5732  2.8293  0.5842
  431SOL    HW2 1293   2.833   1.875   1.670  0.7196 -2.6156 -1.5468
  432SOL     OW 1294   0.893   2.767   1.842  0.0832  0.3029 -0.2198
  432SOL    HW1 1295   0.906   2.729   1.746  2.4169  0.5566 -1.9103
  432SOL    HW2 1296   0.803   2.734   1.874  0.4091 -0.0937 -0.1648
  433SOL     OW 1297   1.704   3.040   0.977 -0.3078  0.0173 -0.3179
  433SOL    HW1 1298   1.730   0.017   0.909  0.8148  2.4841 -0.8437
  433SOL    HW2 1299   1.660   2.962   0.929  1.7431  0.6425 -0.4815
  434SOL     OW 1300   0.259   2.096   1.950 -0.3922  0.1096  0.0689
  434SOL    HW1 1301   0.358   2.095   1.921 -0.8197 -1.6799 -2.2003
  434SOL    HW2 1302   0.204   2.113   1.866 -3.8576  0.0526 -0.1358
  435SOL     OW 1303   0.587   1.558   0.462  0.4268  0.1131  0.4574
  435SOL    HW1 1304   0.614   1.573   0.365  0.0625 -0.9098 -0.5783
  435SOL    HW2 1305   0.494   1.522   0.478  3.2748  2.1459 -2.9746
  436SOL     OW 1306   0.238   1.493   1.861 -0.2381  0.2242 -0.2794
  436SOL    HW1 1307   0.170   1.556   1.899  1.5432 -2.8018  1.2193
  436SOL    HW2 1308   0.296   1.531   1.792 -0.4110 -3.1346  1.5428
  437SOL     OW 1309   1.101   0.446   2.875 -0.0761  0.0981 -0.5104
  437SOL    HW1 1310   1.170   0.523   2.883  1.2879  2.1144  0.3830
  437SOL    HW2 1311   1.010   0.475   2.837 -0.8551  1.0146 -1.2751
  438SOL     OW 1312   0.437   1.878   1.528 -0.3143 -0.2416 -0.1627
  438SOL    HW1 1313   0.389   1.915   1.448  1.4059  1.8747  0.8446
  438SOL    HW2 1314   0.540   1.880   1.520 -0.7850  0.0327 -0.2237
  439SOL     OW 1315   1.938   1.687   2.943  0.1824 -0.0463 -0.6704
  439SOL    HW1 1316   1.951   1.751   3.018 -0.5213 -1.3767 -0.1831
  439SOL    HW2 1317   2.011   1.677   2.872 -2.5062  0.3295 -0.1301
  440SOL     OW 1318   1.445   0.378   0.646 -0.2289  0.4302  0.0838
  440SOL    HW1 1319   1.419   0.293   0.692 -1.8676 -2.2637 -0.8704
  440SOL    HW2 1320   1.363   0.431   0.633  0.2739 -1.6612  2.7690
  441SOL     OW 1321   0.560   2.704   1.506 -0.8546 -0.5369  0.2458
  441SOL    HW1 1322   0.486   2.662   1.559 -0.3540  1.1420  0.8412
  441SOL    HW2 1323   0.560   2.805   1.502  1.2565 -0.5611 -0.2437
  442SOL     OW 1324   2.537   2.479   0.999  0.0677 -0.1315  0.5917
  442SOL    HW1 1325   2.455   2.534   1.011 -0.5021  1.2324  1.7866
  442SOL    HW2 1326   2.516   2.387   0.962  0.4084 -3.3495 -0.5408
  443SOL     OW 1327   2.667   0.678   2.567 -0.8671 -0.2019 -0.0883
  443SOL    HW1 1328   2.672   0.598   2.504  2.1985  2.8755 -2.4336
  443SOL    HW2 1329   2.675   0.654   2.670 -0.3876  0.7034  0.1579
  444SOL     OW 1330   1.493   0.989   2.423  0.2637  0.3834  0.2836
  444SOL    HW1 1331   1.579   1.018   2.469 -1.8375 -0.0476 -1.7784
  444SOL    HW2 1332   1.509   0.976   2.322  1.8881  1.2788  1.2128
  445SOL     OW 1333   2.903   2.191   1.528  0.0958  0.0338  0.4154
  445SOL    HW1 1334   2.911   2.150   1.617 -0.6911 -2.3286 -2.8781
  445SOL    HW2 1335   2.815   2.231   1.507  0.5395 -0.6803  0.0671
  446SOL     OW 1336   3.065   1.309   0.534 -0.3196  0.6136 -0.0172
  446SOL    HW1 1337   3.030   1.218   0.566 -1.2320  0.3207  1.0184
  446SOL    HW2 1338   2.984   1.358   0.511  2.4611 -3.8227 -0.9156
  447SOL     OW 1339   0.829   2.340   0.747 -0.0123  0.0513 -0.4478
  447SOL    HW1 1340   0.774   2.383   0.823 -0.3138 -1.8465 -0.5427
  447SOL    HW2 1341   0.780   2.265   0.701  0.6028  0.7962  2.4885
  448SOL     OW 1342   1.574   1.512   1.538 -0.0488 -0.0986 -0.9518
  448SOL    HW1 1343   1.544   1.510   1.632  2.3888 -0.7692  0.6436
  448SOL    HW2 1344   1.506   1.481   1.470 -1.1400 -0.6704  1.4223
  449SOL     OW 1345   0.639   1.722   2.819  0.2121 -0.3735  0.0722
  449SOL    HW1 1346   0.696   1.640   2.798 -2.5363 -0.0221 -0.3140
  449SOL    HW2 1347   0.686   1.772   2.898 -0.1375 -0.3291  0.6220
  450SOL     OW 1348   2.834   2.172   2.170 -0.1942  0.0487 -0.1816
  450SOL    HW1 1349   2.757   2.105   2.143 -0.6064 -2.0257 -0.6430
  450SOL    HW2 1350   2.929   2.133   2.166  0.9940  0.7397  1.0206
  451SOL     OW 1351   1.968   0.610   1.631 -0.3727 -0.1968  0.6058
  451SOL    HW1 1352   2.018   0.665   1.556 -0.8403  1.2978  0.5199
  451SOL    HW2 1353   1.962   0.660   1.719 -1.5118 -0.7793 -0.2375
  452SOL     OW 1354   0.838   2.758   1.169  0.0123  0.2010  0.0522
  452SOL    HW1 1355   0.835   2.698   1.254  0.8886 -0.1278  0.4800
  452SOL    HW2 1356   0.749   2.807   1.163  1.5349  2.5230 -1.3757
  453SOL     OW 1357   0.882   1.766   1.023  0.0338  0.1853  0.2789
  453SOL    HW1 1358   0.850   1.709   1.102 -1.4497  0.0430  1.1750
  453SOL    HW2 1359   0.868   1.870   1.031 -1.7832 -0.6656 -1.8841
  454SOL     OW 1360   2.997   1.073   0.670 -0.0764  0.0765 -0.2134
  454SOL    HW1 1361   2.981   0.975   0.650 -0.9853 -0.0018  1.0300
  454SOL    HW2 1362   3.089   1.097   0.701 -4.2642 -1.1978 -2.1174
  455SOL     OW 1363   0.272   0.379   0.528 -0.1450  0.4503  0.6793
  455SOL    HW1 1364   0.172   0.372   0.542  2.4081 -1.3039 -1.6567
  455SOL    HW2 1365   0.321   0.299   0.564 -0.5268 -2.2248  1.1520
  456SOL     OW 1366   2.119   2.417   0.492  0.4132  0.5299 -0.7005
  456SOL    HW1 1367   2.118   2.511   0.525 -2.4854 -1.5363  0.5017
  456SOL    HW2 1368   2.081   2.355   0.558  1.0068 -0.3287 -2.4478
  457SOL     OW 1369   1.570   2.743   2.958 -0.2694  0.3081 -0.6345
  457SOL    HW1 1370   1.666   2.777   2.974 -0.1760 -0.8594 -1.8462
  457SOL    HW2 1371   1.563   2.687   2.873  1.1309 -0.9106 -1.4315
  458SOL     OW 1372   2.890   2.991   0.119  0.5075 -0.3338 -0.0641
  458SOL    HW1 1373   2.817   2.974   0.048 -1.4758  0.5605 -0.5460
  458SOL    HW2 1374   2.983   2.991   0.074  0.7503 -1.4272 -1.2102
  459SOL     OW 1375   2.114   0.369   1.803  0.1274 -0.0941  0.0544
  459SOL    HW1 1376   2.097   0.286   1.864 -2.3658  0.9453  0.4712
  459SOL    HW2 1377   2.026   0.396   1.759  0.1676  0.2138  0.1447
  460SOL     OW 1378   2.996   0.477   0.227  0.2921  0.3279  0.1659
  460SOL    HW1 1379   3.046   0.547   0.174 -1.0034 -1.6454  0.4822
  460SOL    HW2 1380   2.897   0.483   0.202  0.2729  1.5588  0.0073
  461SOL     OW 1381   0.048   1.880   1.321 -0.0208  0.0552  0.0520
  461SOL    HW1 1382   0.003   1.833   1.248  1.3719 -1.5795  0.9100
  461SOL    HW2 1383   0.119   1.941   1.283 -0.9379  2.8829  0.9938
  462SOL     OW 1384   3.017   3.077   1.033 -0.1138 -0.3338  0.2670
  462SOL    HW1 1385   0.010   0.005   1.068 -1.4612  0.3073  0.6627
  462SOL    HW2 1386   2.944   0.047   1.058  0.0910  1.5859 -0.9789
  463SOL     OW 1387   2.824   1.064   3.081 -0.3378 -0.1091 -0.1326
  463SOL    HW1 1388   2.819   1.107   0.076  0.0592 -0.9603  0.6949
  463SOL    HW2 1389   2.896   1.107   3.020  1.8294 -3.5311  1.5668
  464SOL     OW 1390   0.604   2.894   1.192 -0.1363  0.2783 -0.2518
  464SOL    HW1 1391   0.598   2.977   1.129 -2.5407  1.4142 -1.2945
  464SOL    HW2 1392   0.606   2.925   1.287  0.2627  1.5310 -1.5292
  465SOL     OW 1393   0.802   0.553   1.108  0.1057  0.0125  0.3933
  465SOL    HW1 1394   0.900   0.576   1.081  1.0687 -1.6489 -0.8359
  465SOL    HW2 1395   0.743   0.549   1.023  0.1884 -2.5360  0.4627
  466SOL     OW 1396   1.538   2.245   2.268  0.2656  0.3794  0.1029
  466SOL    HW1 1397   1.564   2.266   2.175  0.1937 -1.2329  2.9084
  466SOL    HW2 1398   1.599   2.291   2.336  0.2304  0.1310 -0.3672
  467SOL     OW 1399   0.810   0.126   1.973  0.2240  0.3785  0.1406
  467SOL    HW1 1400   0.820   0.213   1.921 -0.3646 -0.7180 -0.7926
  467SOL    HW2 1401   0.881   0.057   1.943 -2.6281  0.2872 -2.4910
  468SOL     OW 1402   0.362   1.095   2.266 -0.1537 -0.6271 -0.1073
  468SOL    HW1 1403   0.334   1.136   2.179 -0.2059 -0.0742 -1.0812
  468SOL    HW2 1404   0.459   1.117   2.282  2.7522 -2.2739 -1.1006
  469SOL     OW 1405   0.945   2.461   0.539  0.3431 -0.2367  0.3305
  469SOL    HW1 1406   1.008   2.537   0.567  1.1415  1.3664 -2.1734
  469SOL    HW2 1407   0.900   2.418   0.617 -1.2955  1.6760 -1.8353
  470SOL     OW 1408   2.509   1.448   2.396 -0.3802 -0.0607  0.3058
  470SOL    HW1 1409   2.476   1.496   2.316  2.6752 -0.3557 -1.5226
  470SOL    HW2 1410   2.447   1.377   2.428  2.4661  2.6508 -2.4499
  471SOL     OW 1411   1.221   2.776   2.745 -0.1036 -0.1550 -0.1507
  471SOL    HW1 1412   1.222   2.785   2.847  1.3515  0.9237  4.6006
  471SOL    HW2 1413   1.263   2.864   2.716  0.1894  2.3273  1.2558
  472SOL     OW 1414   0.438   2.625   1.887 -0.2661 -0.1010 -0.3895
  472SOL    HW1 1415   0.357   2.618   1.954  2.5374  0.0105  4.0005
  472SOL    HW2 1416   0.423   2.579   1.798  2.8946 -0.6680 -0.8381
  473SOL     OW 1417   0.807   0.004   2.931 -0.4189 -0.1860  0.8851
  473SOL    HW1 1418   0.839   0.030   2.837  1.2670 -1.0431  0.2494
  473SOL    HW2 1419   0.737   0.065   2.968  1.0578  0.5354 -0.9112
  474SOL     OW 1420   1.815   0.171   0.848  0.0982 -0.0326 -0.0463
  474SOL    HW1 1421   1.787   0.228   0.766  0.9782  1.6803 -2.0985
  474SOL    HW2 1422   1.857   0.233   0.914 -1.4221 -0.8968  0.4588
  475SOL     OW 1423   1.479   0.373   1.219  0.4826  0.3782 -0.4168
  475SOL    HW1 1424   1.495   0.356   1.120  2.9752 -0.5101 -1.3488
  475SOL    HW2 1425   1.481   0.473   1.237 -1.5558  0.3671  1.6409
  476SOL     OW 1426   0.414   1.033   0.764 -0.0990 -0.1952  0.5935
  476SOL    HW1 1427   0.470   1.121   0.782 -1.4038  0.3180  1.0247
  476SOL    HW2 1428   0.427   0.992   0.674 -1.5012  1.2863  1.6579
  477SOL     OW 1429   1.259   2.460   0.702 -0.1868 -0.1894  0.3507
  477SOL    HW1 1430   1.246   2.532   0.635  0.8777 -0.9338 -0.1809
  477SOL    HW2 1431   1.211   2.478   0.788  0.2118  1.6537  0.5505
  478SOL     OW 1432   3.028   2.718   2.413  0.4878  1.1406  0.0080
  478SOL    HW1 1433   3.061   2.714   2.511  0.2878  0.1737 -3.2079
  478SOL    HW2 1434   0.006   2.721   2.346  0.4131 -0.4024 -0.0002
  479SOL     OW 1435   2.829   0.539   1.116 -0.4160 -0.0966  0.3020
  479SOL    HW1 1436   2.890   0.476   1.174  0.8160  0.1541 -0.1801
  479SOL    HW2 1437   2.822   0.505   1.019  0.1985 -0.4288  0.0308
  480SOL     OW 1438   0.038   2.548   0.107  0.1658  0.1557 -0.2743
  480SOL    HW1 1439   3.069   2.480   0.145 -0.7715  0.6901 -1.1721
  480SOL    HW2 1440   3.088   2.621   0.057  0.0209  0.6540  0.7332
  481SOL     OW 1441   2.505   1.758   1.880 -0.3946  0.1628 -0.6810
  481SOL    HW1 1442   2.406   1.772   1.876  4.2749 -0.3022 -2.4009
  481SOL    HW2 1443   2.547   1.843   1.918  0.7140  2.0305  2.2329
  482SOL     OW 1444   1.538   2.152   2.617 -0.2976  0.4866  0.2313
  482SOL    HW1 1445   1.573   2.206   2.540  1.7087 -2.4780  0.0428
  482SOL    HW2 1446   1.467   2.085   2.588  0.6962 -2.1181 -0.3082
  483SOL     OW 1447   0.784   1.551   1.573  0.7309  0.3186 -0.0982
  483SOL    HW1 1448   0.795   1.606   1.490  0.3113  0.9841 -1.3261
  483SOL    HW2 1449   0.730   1.471   1.547  1.0938  1.2348  0.1448
  484SOL     OW 1450   0.518   0.470   1.506  0.1262  0.3873 -0.0679
  484SOL    HW1 1451   0.577   0.553   1.531 -0.2835  0.6943 -0.0463
  484SOL    HW2 1452   0.505   0.471   1.405  1.3586 -0.7630 -0.1261
  485SOL     OW 1453   2.335   1.178   2.908 -0.0934  0.1108 -0.1811
  485SOL    HW1 1454   2.265   1.109   2.930  1.2659  0.1703 -0.4563
  485SOL    HW2 1455   2.431   1.143   2.929  0.9864  0.7119 -1.4032
  486SOL     OW 1456   1.408   3.002   1.451  1.0592  0.5981  0.4852
  486SOL    HW1 1457   1.398   0.005   1.429 -0.7643  5.6141 -0.3225
  486SOL    HW2 1458   1.313   2.958   1.451  0.2871  0.3798  0.6024
  487SOL     OW 1459   0.414   2.163   1.602 -0.2266  0.3969  0.2634
  487SOL    HW1 1460   0.491   2.206   1.653 -1.2707 -0.2668 -0.1574
  487SOL    HW2 1461   0.442   2.070   1.583 -1.0745  1.5486  3.1120
  488SOL     OW 1462   2.553   2.013   2.778  0.3692 -0.0043 -0.9000
  488SOL    HW1 1463   2.473   1.992   2.836 -0.4062 -1.2465 -0.4158
  488SOL    HW2 1464   2.619   2.075   2.829  1.3859 -0.2439  0.6708
  489SOL     OW 1465   2.187   3.056   0.656 -0.5318 -0.5312 -0.6982
  489SOL    HW1 1466   2.237   2.971   0.638 -1.0031 -1.4879 -0.2469
  489SOL    HW2 1467   2.251   0.037   0.651 -2.3178 -0.3418 -1.4744
  490SOL     OW 1468   1.102   2.348   2.835  0.0598  0.2369  0.2597
  490SOL    HW1 1469   1.073   2.272   2.774  1.7520  0.5984  0.5503
  490SOL    HW2 1470   1.131   2.310   2.926  2.1916  0.6458 -0.4693
  491SOL     OW 1471   0.359   1.569   1.363 -0.4003  0.4244 -0.0007
  491SOL    HW1 1472   0.301   1.649   1.356  2.2146 -3.0765  1.2607
  491SOL    HW2 1473   0.390   1.551   1.460  0.0075 -1.5625 -1.9514
  492SOL     OW 1474   1.279   1.312   1.930  0.4178  0.2933  0.2455
  492SOL    HW1 1475   1.176   1.313   1.928  0.4223  1.7145  0.3983
  492SOL    HW2 1476   1.317   1.327   1.835 -1.0846  1.0118  0.2370
  493SOL     OW 1477   2.448   1.841   0.823  0.0676 -0.0948 -0.3924
  493SOL    HW1 1478   2.419   1.780   0.896  0.8952  1.0842  0.2171
  493SOL    HW2 1479   2.545   1.871   0.842 -0.8726  0.6137  1.1263
  494SOL     OW 1480   0.398   1.791   1.081 -0.2602 -0.1837 -0.2045
  494SOL    HW1 1481   0.435   1.696   1.099 -0.0078 -0.3408  0.6121
  494SOL    HW2 1482   0.351   1.797   0.991 -0.1661  1.7434 -0.1383
  495SOL     OW 1483   2.393   2.835   0.904  0.0736  0.1343 -0.5707
  495SOL    HW1 1484   2.489   2.854   0.881 -2.4747 -1.7301  1.9013
  495SOL    HW2 1485   2.374   2.747   0.952 -1.0429  1.9797  1.3500
  496SOL     OW 1486   2.406   3.087   1.537  0.0152 -0.3733 -0.3929
  496SOL    HW1 1487   2.469   0.066   1.519  0.4462  2.5035  1.2039
  496SOL    HW2 1488   2.320   0.008   1.589 -2.4527  0.9972  0.7954
  497SOL     OW 1489   2.428   0.866   2.623  0.7347 -0.2349 -0.4488
  497SOL    HW1 1490   2.509   0.856   2.565 -0.0368 -1.7359 -0.4506
  497SOL    HW2 1491   2.367   0.937   2.584  1.4995  0.1362 -1.3032
  498SOL     OW 1492   0.027   2.158   1.362 -0.0277 -0.5633 -0.0887
  498SOL    HW1 1493   0.056   2.060   1.368  0.0823 -1.8352  0.9410
  498SOL    HW2 1494   3.044   2.176   1.423  0.2204  0.7365 -0.6863
  499SOL     OW 1495   0.873   2.312   2.012 -0.1033  0.2809 -0.2641
  499SOL    HW1 1496   0.795   2.351   2.069 -4.9636 -1.4384 -0.5595
  499SOL    HW2 1497   0.922   2.386   1.963 -2.8313 -2.3480 -0.5221
  500SOL     OW 1498   1.180   2.044   0.506 -0.2708 -0.4922 -0.4860
  500SOL    HW1 1499   1.109   2.109   0.479 -0.0923 -2.7631  0.7107
  500SOL    HW2 1500   1.233   2.020   0.424  0.7055  0.1389  2.2830
  501SOL     OW 1501   1.817   2.979   1.464  0.2001  1.2226 -0.1715
  501SOL    HW1 1502   1.761   2.980   1.380 -0.5588  1.9871  1.1213
  501SOL    HW2 1503   1.796   2.894   1.514 -1.1378  1.6781 -0.6140
  502SOL     OW 1504   2.537   0.595   1.801  0.2116 -0.3028 -0.4451
  502SOL    HW1 1505   2.440   0.602   1.785  4.2357 -2.0989  0.3375
  502SOL    HW2 1506   2.579   0.504   1.778  1.8891  0.4951 -0.0646
  503SOL     OW 1507   2.717   1.213   2.254  0.0830  0.3750  0.1876
  503SOL    HW1 1508   2.766   1.301   2.229 -0.2059  2.4328 -0.7531
  503SOL    HW2 1509   2.656   1.185   2.179  0.6830  2.0851  0.9014
  504SOL     OW 1510   1.600   1.054   1.313  0.0918  0.1607  0.4654
  504SOL    HW1 1511   1.675   0.984   1.331  1.2152  0.2699  0.2178
  504SOL    HW2 1512   1.559   1.036   1.220 -1.1165 -3.3362 -0.5611
  505SOL     OW 1513   0.603   2.978   1.489  0.3732 -0.1314 -0.0668
  505SOL    HW1 1514   0.687   3.034   1.484  3.0248  0.0170  0.6018
  505SOL    HW2 1515   0.522   3.039   1.480 -0.0888 -3.0070 -0.0422
  506SOL     OW 1516   0.033   0.242   0.259  0.2716 -0.7943  0.1400
  506SOL    HW1 1517   3.077   0.324   0.242 -0.6594 -0.2666  0.2273
  506SOL    HW2 1518   0.135   0.254   0.245 -1.0103  1.4308  0.6465
  507SOL     OW 1519   2.551   2.522   0.030 -0.4881 -0.2917  0.2394
  507SOL    HW1 1520   2.556   2.500   3.029  4.0554  0.6504 -0.0163
  507SOL    HW2 1521   2.647   2.520   0.064  2.2164 -2.0221 -0.5949
  508SOL     OW 1522   1.128   0.349   1.758 -0.2647 -0.2201 -0.4105
  508SOL    HW1 1523   1.033   0.353   1.798 -2.2389  1.9993  2.7288
  508SOL    HW2 1524   1.159   0.256   1.745  0.5634  3.7981  1.1634
  509SOL     OW 1525   1.695   1.791   1.184  0.1224 -0.5026  0.0802
  509SOL    HW1 1526   1.691   1.775   1.286 -0.5451 -1.0595  2.6353
  509SOL    HW2 1527   1.610   1.840   1.154 -0.7323  2.4116  0.0471
  510SOL     OW 1528   2.527   0.757   1.385  0.1257 -0.6073  0.2206
  510SOL    HW1 1529   2.568   0.772   1.478  2.5029  0.8236  0.3097
  510SOL    HW2 1530   2.437   0.797   1.367  1.9505 -4.8270 -2.3668
  511SOL     OW 1531   1.263   1.923   1.297 -0.1304  0.0275 -0.2383
  511SOL    HW1 1532   1.319   2.000   1.328  0.0670  0.3297 -0.1716
  511SOL    HW2 1533   1.270   1.843   1.361  1.3583  0.5088 -1.5757
  512SOL     OW 1534   2.825   1.418   0.611  0.2969 -0.0139  0.0660
  512SOL    HW1 1535   2.862   1.457   0.699  0.2423 -0.7282 -1.6325
  512SOL    HW2 1536   2.791   1.490   0.545 -0.4374 -0.5390  0.3184
  513SOL     OW 1537   0.057   1.607   0.108 -0.6788  0.4087  0.7249
  513SOL    HW1 1538   0.128   1.553   0.059  2.9451 -1.4722  1.1134
  513SOL    HW2 1539   3.063   1.564   0.116 -0.9383 -1.1005 -1.4552
  514SOL     OW 1540   2.612   2.018   2.112 -0.0306  0.6481  0.2555
  514SOL    HW1 1541   2.548   1.987   2.187 -0.5649 -0.8772  2.4201
  514SOL    HW2 1542   2.569   2.059   2.030 -1.0217 -0.3282  2.3987
  515SOL     OW 1543   2.037   0.968   0.714 -1.2226  0.0338 -0.2848
  515SOL    HW1 1544   2.009   0.872   0.691  2.1517 -0.0589 -0.8892
  515SOL    HW2 1545   2.104   1.013   0.652  0.6692  1.4584 -0.5909
  516SOL     OW 1546   2.352   2.864   0.118  0.2806 -0.2062  0.5152
  516SOL    HW1 1547   2.379   2.929   0.044  0.7099  2.4887 -1.5390
  516SOL    HW2 1548   2.315   2.777   0.085  1.6147 -2.1181 -0.1891
  517SOL     OW 1549   0.799   1.556   2.467 -0.1400 -0.4886  0.0683
  517SOL    HW1 1550   0.858   1.500   2.402  1.3929 -0.3487 -0.9939
  517SOL    HW2 1551   0.817   1.655   2.450  1.3918 -1.8072 -0.6822
  518SOL     OW 1552   0.319   0.248   2.124 -0.0154 -0.3735  0.1151
  518SOL    HW1 1553   0.346   0.150   2.118 -1.6303 -2.2647 -1.2929
  518SOL    HW2 1554   0.217   0.257   2.125 -3.0521  0.4282  0.6622
  519SOL     OW 1555   0.780   1.206   0.081 -0.2382 -0.7276 -0.0058
  519SOL    HW1 1556   0.847   1.249   0.013 -0.4233  1.4452 -0.0062
  519SOL    HW2 1557   0.786   1.255   0.173 -1.4393  0.3027 -0.6026
  520SOL     OW 1558   2.833   2.370   1.993  0.7875  0.0463  0.0615
  520SOL    HW1 1559   2.845   2.287   2.049  0.3556  0.1542 -0.5619
  520SOL    HW2 1560   2.839   2.452   2.052  1.9742  1.9619 -0.9281
  521SOL     OW 1561   0.561   2.174   2.178  0.3619  0.5712  0.0095
  521SOL    HW1 1562   0.607   2.089   2.198 -1.0185  1.9149 -2.1249
  521SOL    HW2 1563   0.553   2.179   2.078 -0.8425 -0.7839 -0.9907
  522SOL     OW 1564   1.498   2.896   1.687 -0.3756  0.8989  0.5984
  522SOL    HW1 1565   1.428   2.847   1.736  2.3852  2.5976 -0.4550
  522SOL    HW2 1566   1.469   2.935   1.596 -0.0540 -2.4378  0.3989
  523SOL     OW 1567   2.101   1.957   1.670 -0.4996 -0.1467 -0.2197
  523SOL    HW1 1568   2.160   1.965   1.589 -3.7429  0.1540  0.9391
  523SOL    HW2 1569   2.024   1.891   1.663 -0.2668  0.8175 -1.5634
  524SOL     OW 1570   0.639   2.797   0.426 -0.3659 -0.4156  0.3243
  524SOL    HW1 1571   0.666   2.839   0.513 -0.2657  0.3199 -0.6466
  524SOL    HW2 1572   0.641   2.693   0.436  0.2692 -0.5470 -0.2661
  525SOL     OW 1573   2.943   0.125   0.610  0.2958  0.0952 -0.0764
  525SOL    HW1 1574   2.926   0.096   0.513 -1.1961  1.1967  1.4479
  525SOL    HW2 1575   2.985   0.050   0.668 -0.5806 -3.2720  0.2836
  526SOL     OW 1576   1.043   0.070   0.523 -0.1276  0.2380 -0.1456
  526SOL    HW1 1577   0.976   3.098   0.495 -0.4131 -0.7279  2.7306
  526SOL    HW2 1578   1.084   0.034   0.609  0.3870  2.6013  0.6498
  527SOL     OW 1579   1.862   1.616   1.039  0.4987 -0.4733  0.1929
  527SOL    HW1 1580   1.886   1.549   1.115 -2.7060 -0.0477 -0.9616
  527SOL    HW2 1581   1.817   1.698   1.073 -0.4592  0.4176 -0.5947
  528SOL     OW 1582   2.699   2.514   2.427  0.6627 -0.1018 -0.3375
  528SOL    HW1 1583   2.628   2.575   2.392  2.3395 -1.3716 -1.8906
  528SOL    HW2 1584   2.778   2.514   2.359  1.6891  0.1666  1.2208
  529SOL     OW 1585   1.168   1.606   2.485  0.3252 -0.5154 -0.0912
  529SOL    HW1 1586   1.097   1.685   2.480 -1.8511  1.7922 -1.6564
  529SOL    HW2 1587   1.117   1.522   2.457 -3.4928 -0.0969 -1.1464
  530SOL     OW 1588   1.487   1.014   3.052  0.0225 -0.1845 -0.1597
  530SOL    HW1 1589   1.581   0.982   3.028  0.6123 -0.5875  1.3353
  530SOL    HW2 1590   1.460   1.083   2.989 -0.0468 -0.5275 -0.3639
  531SOL     OW 1591   0.401   0.947   0.094  0.5094  0.1033  0.9354
  531SOL    HW1 1592   0.443   0.921   0.004 -1.2137 -2.0172 -4.0698
  531SOL    HW2 1593   0.305   0.985   0.081 -2.7735  0.3190 -0.5104
  532SOL     OW 1594   1.711   1.342   0.772  0.1900  0.2786  0.7022
  532SOL    HW1 1595   1.742   1.286   0.694 -1.2350 -0.5176  0.6282
  532SOL    HW2 1596   1.675   1.427   0.739  3.3029  0.3940  1.3808
  533SOL     OW 1597   0.699   0.143   2.457  0.3128 -0.1319 -0.0562
  533SOL    HW1 1598   0.607   0.141   2.503  2.0342  0.0872  1.5929
  533SOL    HW2 1599   0.762   0.209   2.502  2.4101  0.1619 -0.7483
  534SOL     OW 1600   0.759   2.842   2.992 -0.0979 -0.5804  0.0006
  534SOL    HW1 1601   0.846   2.799   3.009 -1.2412  1.6165 -0.4725
  534SOL    HW2 1602   0.775   2.940   2.971 -1.0915  1.4839 -0.1349
  535SOL     OW 1603   0.309   0.281   0.141 -0.0057 -0.0578 -0.4113
  535SOL    HW1 1604   0.297   0.386   0.142 -1.1697  0.5456  0.1763
  535SOL    HW2 1605   0.301   0.241   0.049  1.3451  1.5239 -0.2190
  536SOL     OW 1606   0.279   0.859   2.205  0.1058 -0.4571 -0.1395
  536SOL    HW1 1607   0.328   0.945   2.236 -0.2571 -0.6022 -0.4404
  536SOL    HW2 1608   0.347   0.787   2.209  3.0087 -0.2071 -2.8178
  537SOL     OW 1609   0.886   0.320   1.465 -0.1803  0.0798 -0.2799
  537SOL    HW1 1610   0.810   0.265   1.429  2.5033 -0.0797 -0.1455
  537SOL    HW2 1611   0.892   0.407   1.416 -0.5642 -2.2096 -0.4961
  538SOL     OW 1612   0.868   1.869   0.395 -0.2428 -0.2876  0.1517
  538SOL    HW1 1613   0.898   1.952   0.350  0.5517 -4.4356  2.4305
  538SOL    HW2 1614   0.946   1.807   0.421 -3.4930  0.6309 -1.7577
  539SOL     OW 1615   2.468   1.206   1.755  0.2349  0.2001  0.2181
  539SOL    HW1 1616   2.528   1.158   1.685 -0.4663  0.1498 -1.0507
  539SOL    HW2 1617   2.473   1.305   1.744  0.3457 -1.0701  0.9712
  540SOL     OW 1618   2.102   1.613   2.068 -0.2008 -0.4227  0.7221
  540SOL    HW1 1619   2.024   1.553   2.040 -0.4646 -0.7322 -0.0654
  540SOL    HW2 1620   2.076   1.669   2.144  1.0505 -0.4882 -2.7837
  541SOL     OW 1621   0.704   1.305   1.448  0.3158  0.2616 -0.2248
  541SOL    HW1 1622   0.774   1.232   1.470  1.9759 -0.9830 -1.0726
  541SOL    HW2 1623   0.668   1.297   1.358  1.7268 -0.7055 -0.0110
  542SOL     OW 1624   1.585   0.695   2.079  0.1546  0.2924 -0.2537
  542SOL    HW1 1625   1.668   0.674   2.140  0.4789 -0.6738  2.2200
  542SOL    HW2 1626   1.605   0.651   1.987 -1.6958  0.5212 -0.8979
  543SOL     OW 1627   1.130   0.558   0.239  0.0570  0.0762  0.1105
  543SOL    HW1 1628   1.189   0.480   0.226 -2.4706  3.0696  2.6467
  543SOL    HW2 1629   1.108   0.554   0.337  1.1581 -0.6616 -0.1627
  544SOL     OW 1630   2.785   1.793   2.133 -0.4105  0.1968  0.2763
  544SOL    HW1 1631   2.719   1.871   2.134 -1.1330 -2.5855 -0.4894
  544SOL    HW2 1632   2.779   1.742   2.217 -0.0517 -0.0931  0.0488
  545SOL     OW 1633   1.759   2.141   1.770 -0.0811 -0.1994  0.3865
  545SOL    HW1 1634   1.861   2.165   1.771  2.2756 -1.4993  2.1930
  545SOL    HW2 1635   1.700   2.224   1.777  1.7692 -0.4108 -0.9771
  546SOL     OW 1636   0.274   0.142   2.993 -0.1602  0.2583 -0.2881
  546SOL    HW1 1637   0.272   0.204   2.915 -0.6101  3.5428  1.7826
  546SOL    HW2 1638   0.239   0.048   2.966 -0.1849 -1.2148 -2.2060
  547SOL     OW 1639   2.150   0.901   0.253 -0.1187  0.5594 -0.4861
  547SOL    HW1 1640   2.195   0.922   0.163  0.9060 -2.2094 -1.6184
  547SOL    HW2 1641   2.078   0.972   0.263 -0.2420  1.8342 -1.7693
  548SOL     OW 1642   2.302   1.736   2.487 -0.1149  0.0981  0.6536
  548SOL    HW1 1643   2.212   1.691   2.469  0.8932  1.0698 -2.2929
  548SOL    HW2 1644   2.365   1.682   2.544 -1.4174  0.9583 -3.0942
  549SOL     OW 1645   2.124   0.283   0.778  0.6147  0.1670  0.1616
  549SOL    HW1 1646   2.197   0.260   0.713  0.4736  0.3142 -0.6383
  549SOL    HW2 1647   2.082   0.195   0.807  0.2637 -1.9278  2.6293
  550SOL     OW 1648   2.513   2.236   0.895  0.1659 -0.0735  0.2693
  550SOL    HW1 1649   2.568   2.179   0.964  3.5524 -1.7277  1.6765
  550SOL    HW2 1650   2.430   2.184   0.866 -1.1729  4.0356 -3.3862
  551SOL     OW 1651   0.858   0.333   1.764  0.0383 -0.0231 -0.8187
  551SOL    HW1 1652   0.861   0.280   1.678  2.7974 -1.1313  0.5663
  551SOL    HW2 1653   0.802   0.419   1.750 -1.1489  1.3039 -0.0469
  552SOL     OW 1654   0.259   2.611   2.632  0.0440 -0.3601 -0.3030
  552SOL    HW1 1655   0.235   2.524   2.589  0.9406  3.9691  2.1295
  552SOL    HW2 1656   0.301   2.598   2.724 -2.1462 -0.2581  1.0203
  553SOL     OW 1657   0.846   3.014   0.438  0.3081 -0.4560 -0.3252
  553SOL    HW1 1658   0.753   3.054   0.416  0.7812 -0.5470 -1.3713
  553SOL    HW2 1659   0.865   2.924   0.392  0.9117 -2.2223 -1.0422
  554SOL     OW 1660   2.009   2.215   1.712 -0.0558 -0.0660 -0.0260
  554SOL    HW1 1661   2.044   2.122   1.726 -0.1926  0.2869  0.4698
  554SOL    HW2 1662   2.004   2.241   1.612  1.4584  0.7647 -1.4065
  555SOL     OW 1663   1.361   2.086   2.001 -0.3271 -0.2774 -0.1753
  555SOL    HW1 1664   1.446   2.045   2.041 -0.7855  0.7217  1.2040
  555SOL    HW2 1665   1.275   2.053   2.046  0.3244  2.3269  2.8848
  556SOL     OW 1666   1.355   1.604   1.234 -0.0959 -0.0862  0.4400
  556SOL    HW1 1667   1.297   1.663   1.176  1.5144 -1.1506  1.0251
  556SOL    HW2 1668   1.440   1.575   1.178  0.1510 -1.9040 -1.2423
  557SOL     OW 1669   1.929   2.282   2.019  0.5097  0.6023 -0.1362
  557SOL    HW1 1670   1.991   2.202   2.010  1.8228  1.4802  2.3583
  557SOL    HW2 1671   1.958   2.353   2.089  0.6819 -2.3522  1.5052
  558SOL     OW 1672   0.408   0.399   1.887  0.2867 -0.1445 -0.4678
  558SOL    HW1 1673   0.352   0.362   1.966 -1.5356 -2.3694 -0.2744
  558SOL    HW2 1674   0.408   0.497   1.874  2.1281  0.1977  1.4627
  559SOL     OW 1675   2.473   2.998   1.290 -0.2716 -0.2420  0.1575
  559SOL    HW1 1676   2.455   3.001   1.390 -1.4936  0.6224 -2.6649
  559SOL    HW2 1677   2.388   3.027   1.241 -0.4378  0.0869  1.9546
  560SOL     OW 1678   1.082   2.284   0.408 -0.0542 -0.5942  0.1108
  560SOL    HW1 1679   1.012   2.343   0.458  0.1631 -0.7631 -0.1588
  560SOL    HW2 1680   1.143   2.344   0.350  1.7124  1.5753  0.7309
  561SOL     OW 1681   1.098   0.268   3.097 -0.0729 -0.2719 -0.6420
  561SOL    HW1 1682   1.111   0.319   3.011  1.2123 -2.1240  2.7243
  561SOL    HW2 1683   1.175   0.296   0.060  0.4173  1.6959 -0.3535
  562SOL     OW 1684   0.789   0.381   2.811  0.1556 -0.7080  0.7130
  562SOL    HW1 1685   0.821   0.343   2.726  0.2763 -1.0398  3.3665
  562SOL    HW2 1686   0.805   0.481   2.810 -0.6636 -0.0974 -2.5363
  563SOL     OW 1687   1.660   1.974   2.799 -0.4130  0.1385 -0.2110
  563SOL    HW1 1688   1.758   1.981   2.829  0.5687 -0.6967  2.0126
  563SOL    HW2 1689   1.628   2.051   2.740 -0.3903 -0.9087 -1.7328
  564SOL     OW 1690   2.689   1.065   0.755  0.2975  0.0933  0.8072
  564SOL    HW1 1691   2.606   1.003   0.744 -4.5470 -2.2369 -0.4524
  564SOL    HW2 1692   2.756   1.040   0.679  1.0639 -0.3538 -1.8803
  565SOL     OW 1693   1.350   0.261   2.488  0.3513  0.2837 -0.4808
  565SOL    HW1 1694   1.326   0.252   2.586  0.3398  0.0383 -2.3836
  565SOL    HW2 1695   1.327   0.354   2.464 -0.3155 -3.0399  3.5047
  566SOL     OW 1696   1.470   0.254   2.178 -0.2341 -0.3646  0.3565
  566SOL    HW1 1697   1.421   0.206   2.252  1.3443  0.6568  1.1499
  566SOL    HW2 1698   1.442   0.204   2.088 -0.3465 -1.9826 -1.7305
  567SOL     OW 1699   2.460   1.309   0.715 -0.3829  0.0024  0.5030
  567SOL    HW1 1700   2.414   1.294   0.806 -0.2917  1.1043  0.3954
  567SOL    HW2 1701   2.536   1.242   0.695 -0.0780 -1.1667 -3.3984
  568SOL     OW 1702   1.625   1.965   0.474  0.4162 -0.3909 -0.4559
  568SOL    HW1 1703   1.699   1.942   0.411  1.3304  1.7552 -2.2129
  568SOL    HW2 1704   1.548   1.895   0.473 -1.0579 -0.8565  1.6654
  569SOL     OW 1705   2.137   1.623   2.754 -0.3896  0.3609 -0.3946
  569SOL    HW1 1706   2.089   1.587   2.670  1.2595  2.2643  1.1694
  569SOL    HW2 1707   2.154   1.723   2.738 -1.8192  0.1852  1.0535
  570SOL     OW 1708   3.056   2.977   1.721 -0.1787 -0.5276  0.4231
  570SOL    HW1 1709   3.031   3.034   1.639 -2.3857  0.6013 -1.3630
  570SOL    HW2 1710   0.010   3.037   1.784  3.2496  1.9548  1.0762
  571SOL     OW 1711   0.120   0.291   2.450  0.7343  0.1213  0.0087
  571SOL    HW1 1712   0.038   0.354   2.469 -0.6097  0.4661 -0.9083
  571SOL    HW2 1713   0.209   0.339   2.439  0.7692 -1.5110  0.5616
  572SOL     OW 1714   0.737   1.444   0.668 -0.0587 -0.1907 -0.3018
  572SOL    HW1 1715   0.675   1.465   0.589 -0.1894  0.6326 -0.4477
  572SOL    HW2 1716   0.780   1.530   0.702  0.6179 -2.1998 -0.3152
  573SOL     OW 1717   0.993   2.693   3.020 -0.2281 -0.0961 -0.2244
  573SOL    HW1 1718   1.094   2.718   3.002  2.7213  0.4703 -1.6472
  573SOL    HW2 1719   0.979   2.622   3.089  0.3039 -0.3741  0.0800
  574SOL     OW 1720   1.104   0.206   0.875  0.2766  0.5376 -0.4789
  574SOL    HW1 1721   1.096   0.224   0.975 -0.5757 -1.2410  2.2546
  574SOL    HW2 1722   1.099   0.102   0.856 -1.2386 -4.4213 -2.6525
  575SOL     OW 1723   0.064   1.081   1.642 -0.1492  0.0770  0.4308
  575SOL    HW1 1724   0.001   1.097   1.564  1.4683 -1.8488 -3.1284
  575SOL    HW2 1725   0.068   1.163   1.701 -1.2443  0.7888 -1.5387
  576SOL     OW 1726   1.698   0.367   1.397 -0.4125  0.2336  0.0030
  576SOL    HW1 1727   1.743   0.273   1.394  1.3499  0.8748 -4.0495
  576SOL    HW2 1728   1.614   0.376   1.338 -0.0792  2.1160  0.3839
  577SOL     OW 1729   0.069   1.129   2.008  0.4766  0.7270  0.0840
  577SOL    HW1 1730   3.094   1.076   2.057  1.1407  0.9534 -0.1086
  577SOL    HW2 1731   0.155   1.078   2.000 -3.9415  1.9499  0.0192
  578SOL     OW 1732   1.837   0.062   2.377 -0.2368 -0.4657  0.0604
  578SOL    HW1 1733   1.803   0.140   2.325  1.2655  0.4114 -2.1975
  578SOL    HW2 1734   1.798   0.057   2.466 -0.8615  0.1573 -0.2986
  579SOL     OW 1735   2.047   2.040   2.013  0.3734  0.0953  0.4870
  579SOL    HW1 1736   2.063   2.021   2.114 -2.8841 -1.9722 -0.8603
  579SOL    HW2 1737   1.970   1.982   1.978 -0.9884  1.6322  0.0115
  580SOL     OW 1738   2.052   1.588   2.491 -0.0904 -0.1121  0.2201
  580SOL    HW1 1739   2.024   1.629   2.405  0.4140 -3.1912  2.7068
  580SOL    HW2 1740   2.108   1.504   2.473 -1.4369  0.1338 -2.3218
  581SOL     OW 1741   1.257   1.089   2.775 -0.5455 -0.2686  0.0756
  581SOL    HW1 1742   1.282   0.991   2.773 -1.6517 -0.9320 -0.1544
  581SOL    HW2 1743   1.339   1.146   2.788 -0.6215 -1.0082 -1.0929
  582SOL     OW 1744   0.738   2.177   1.430  0.1290  0.6140  0.1724
  582SOL    HW1 1745   0.708   2.103   1.492 -0.5472 -0.6883  0.5535
  582SOL    HW2 1746   0.825   2.153   1.380  1.2386  0.7951  1.5097
  583SOL     OW 1747   1.267   1.147   1.191  0.1312 -0.1198  0.2439
  583SOL    HW1 1748   1.199   1.099   1.134  1.5998 -0.0114 -0.5531
  583SOL    HW2 1749   1.320   1.205   1.128 -1.9026 -0.4208  0.3366
  584SOL     OW 1750   1.529   2.357   0.675 -0.3536  0.4539 -0.1585
  584SOL    HW1 1751   1.515   2.295   0.595  1.9690 -2.5544  1.5286
  584SOL    HW2 1752   1.444   2.408   0.696  1.2086 -2.9976  0.9046
  585SOL     OW 1753   2.319   2.477   0.175  0.3200  0.1926 -0.2407
  585SOL    HW1 1754   2.408   2.491   0.121  2.4392  1.5999  1.2719
  585SOL    HW2 1755   2.250   2.539   0.135  1.5262  0.5826 -0.9716
  586SOL     OW 1756   2.770   1.996   0.564  0.3598  0.0970 -0.3226
  586SOL    HW1 1757   2.710   1.916   0.578  1.7540  0.1940  0.1848
  586SOL    HW2 1758   2.728   2.078   0.600  1.4962 -3.5605 -1.7568
  587SOL     OW 1759   1.245   1.628   3.098 -0.2229  0.5583  0.7421
  587SOL    HW1 1760   1.333   1.619   3.043  2.0978 -0.0211  0.1281
  587SOL    HW2 1761   1.236   1.548   0.060  3.9428  0.6552 -1.0283
  588SOL     OW 1762   0.646   0.251   1.021 -0.2321  0.0332 -0.6679
  588SOL    HW1 1763   0.630   0.257   1.120  1.6805  0.6751 -2.0149
  588SOL    HW2 1764   0.614   0.338   0.973 -0.6881 -1.2196  1.0775
  589SOL     OW 1765   1.104   0.502   0.532  0.4851  0.1933  0.4780
  589SOL    HW1 1766   1.050   0.435   0.479 -0.4076 -0.2322  0.1616
  589SOL    HW2 1767   1.097   0.479   0.631  1.9649 -0.2965  0.7127
  590SOL     OW 1768   2.157   2.284   0.050  0.5266  0.1843 -0.0974
  590SOL    HW1 1769   2.080   2.293   0.118  2.2744 -0.2297  0.5671
  590SOL    HW2 1770   2.224   2.355   0.078  0.1208 -0.7980 -0.3484
  591SOL     OW 1771   0.157   2.744   2.253 -0.5451 -0.1083  0.8915
  591SOL    HW1 1772   0.136   2.838   2.226  1.9055 -5.8195  1.2433
  591SOL    HW2 1773   0.162   2.685   2.165 -1.5283 -0.0890 -2.3459
  592SOL     OW 1774   0.057   1.483   2.260 -0.0667  0.2856  0.0711
  592SOL    HW1 1775   0.119   1.417   2.207 -2.0206 -3.1484 -2.0989
  592SOL    HW2 1776   0.079   1.578   2.241 -0.6787  1.4744 -0.3458
  593SOL     OW 1777   1.949   1.439   1.211 -0.5953  0.2254  0.3985
  593SOL    HW1 1778   1.995   1.514   1.265 -0.6672 -0.2385 -4.0062
  593SOL    HW2 1779   1.876   1.393   1.267 -0.9047  3.2141 -2.5992
  594SOL     OW 1780   0.190   1.274   2.949  0.0331 -0.4282  0.5931
  594SOL    HW1 1781   0.268   1.335   2.975  1.9948  1.2103  0.8864
  594SOL    HW2 1782   0.209   1.228   2.858  1.3297 -0.1451 -3.0826
  595SOL     OW 1783   0.857   1.095   0.829  0.0263  0.0853 -0.0502
  595SOL    HW1 1784   0.790   1.071   0.754 -1.2856  0.8618 -0.6765
  595SOL    HW2 1785   0.933   1.151   0.793 -0.0844  0.1768  1.5574
  596SOL     OW 1786   2.851   1.214   1.252 -0.0631  0.0586 -0.4808
  596SOL    HW1 1787   2.832   1.152   1.175 -2.0738  1.8038  0.1860
  596SOL    HW2 1788   2.944   1.255   1.247 -3.0988 -1.6667 -1.2232
  597SOL     OW 1789   0.891   2.309   1.639  0.4441 -0.1416  0.0538
  597SOL    HW1 1790   0.841   2.277   1.554 -1.2117  0.3179 -1.4862
  597SOL    HW2 1791   0.976   2.251   1.649  1.4004  0.5905 -0.8475
  598SOL     OW 1792   2.182   2.405   1.834  0.0428 -0.3487  0.0927
  598SOL    HW1 1793   2.115   2.342   1.809  0.0113  1.7522  0.9079
  598SOL    HW2 1794   2.257   2.416   1.762 -1.6063 -3.1153 -0.5377
  599SOL     OW 1795   0.536   1.176   0.170  0.1745  0.4894  0.2163
  599SOL    HW1 1796   0.615   1.168   0.107  0.8134 -1.8788  0.7170
  599SOL    HW2 1797   0.472   1.097   0.145  1.9238  0.3819  0.3747
  600SOL     OW 1798   0.945   0.968   2.935  0.2251 -0.1228 -0.0441
  600SOL    HW1 1799   0.943   0.941   3.033 -1.9728  0.3880  1.3504
  600SOL    HW2 1800   1.035   1.008   2.905  1.4929  2.3010  0.8021
  601SOL     OW 1801   0.690   0.675   1.536  0.0119 -0.5063  0.0663
  601SOL    HW1 1802   0.761   0.745   1.510 -0.8014 -2.9734  2.1622
  601SOL    HW2 1803   0.686   0.649   1.635 -0.6927 -1.5520 -2.1013
  602SOL     OW 1804   0.484   2.435   0.603  0.0930 -0.5404 -0.2280
  602SOL    HW1 1805   0.484   2.361   0.668  0.1863  3.7491 -2.7019
  602SOL    HW2 1806   0.393   2.439   0.561 -0.4884 -0.4843 -0.0985
  603SOL     OW 1807   1.041   2.534   1.958 -0.5034  0.1854  0.4663
  603SOL    HW1 1808   0.997   2.622   1.927 -2.9746  1.7529  1.3967
  603SOL    HW2 1809   1.074   2.545   2.053  1.1270  2.3522 -2.5737
  604SOL     OW 1810   0.379   2.215   2.826  0.6358  0.0591 -0.0604
  604SOL    HW1 1811   0.388   2.130   2.771 -1.0370 -0.2995 -3.4865
  604SOL    HW2 1812   0.289   2.208   2.873  1.2330  0.0012  0.9571
  605SOL     OW 1813   2.061   1.204   1.819 -0.6140  0.0181  0.3753
  605SOL    HW1 1814   2.012   1.195   1.735  1.9881 -0.6396  1.2676
  605SOL    HW2 1815   2.111   1.290   1.832 -0.1810 -1.7984 -0.8749
  606SOL     OW 1816   0.688   0.993   2.818  0.2284 -0.1263  0.3467
  606SOL    HW1 1817   0.641   1.081   2.843  1.2054  2.4641  0.4874
  606SOL    HW2 1818   0.783   0.990   2.854 -1.9693 -0.5838  2.3418
  607SOL     OW 1819   1.072   0.991   1.088  0.5499 -0.3359 -0.3570
  607SOL    HW1 1820   1.080   0.921   1.161 -1.4763 -0.7410 -1.6076
  607SOL    HW2 1821   0.974   1.026   1.080 -0.8664  2.2085 -2.6095
  608SOL     OW 1822   2.860   1.657   1.867  0.2688 -0.1305 -0.0891
  608SOL    HW1 1823   2.843   1.720   1.945 -2.0328  1.3935  2.7178
  608SOL    HW2 1824   2.859   1.702   1.776  1.1741  3.3228 -0.6463
  609SOL     OW 1825   2.310   0.133   0.328 -0.0619  0.2721  0.3948
  609SOL    HW1 1826   2.345   0.185   0.250 -1.3279  4.0636  1.4119
  609SOL    HW2 1827   2.258   0.045   0.306  0.9301  0.1538  0.9351
  610SOL     OW 1828   3.005   2.634   1.370 -0.3126  0.2318 -0.0879
  610SOL    HW1 1829   3.000   2.688   1.285 -1.9001  1.4430  3.1776
  610SOL    HW2 1830   3.024   2.537   1.338  0.1689 -3.8133  0.8269
  611SOL     OW 1831   1.744   2.307   0.360  0.1585  0.5108  0.8489
  611SOL    HW1 1832   1.728   2.249   0.281  0.2194 -0.5861  1.0022
  611SOL    HW2 1833   1.678   2.279   0.430  2.0446  2.1717  0.9040
  612SOL     OW 1834   0.599   2.976   1.753  0.7338  0.2922 -0.4269
  612SOL    HW1 1835   0.593   2.961   1.651 -0.4429 -1.4869 -0.1578
  612SOL    HW2 1836   0.592   3.077   1.771 -0.6118  1.7982 -0.5065
  613SOL     OW 1837   3.042   1.970   0.539  0.0499 -0.2466  0.2599
  613SOL    HW1 1838   0.001   2.060   0.555 -1.3189 -1.1507  1.4044
  613SOL    HW2 1839   2.943   1.991   0.532  1.8598 -2.3590  0.9607
  614SOL     OW 1840   1.739   0.453   1.652  0.3663  0.1163  0.0702
  614SOL    HW1 1841   1.819   0.511   1.643 -3.9798 -0.8312  0.7407
  614SOL    HW2 1842   1.713   0.416   1.561 -0.9953  0.6432  1.5181
  615SOL     OW 1843   1.175   1.480   1.001  0.0679  0.0199  1.1778
  615SOL    HW1 1844   1.175   1.566   1.056  0.6050 -2.1342 -1.6689
  615SOL    HW2 1845   1.256   1.416   1.020  2.8021  3.0249  0.1976
  616SOL     OW 1846   1.703   1.670   0.452 -0.5398 -0.2642 -0.0784
  616SOL    HW1 1847   1.760   1.755   0.462  0.7886 -1.0231 -0.3332
  616SOL    HW2 1848   1.669   1.665   0.353 -4.0615 -1.0522 -2.3504
  617SOL     OW 1849   1.475   0.763   0.064  0.0610 -0.0730 -0.3638
  617SOL    HW1 1850   1.473   0.719   0.156 -3.3761  1.2238 -1.4414
  617SOL    HW2 1851   1.466   0.863   0.053  4.0118 -0.2068 -0.1910
  618SOL     OW 1852   0.627   0.695   2.458  0.2749  0.3481 -0.4023
  618SOL    HW1 1853   0.697   0.634   2.420  0.8319 -1.2437  0.9401
  618SOL    HW2 1854   0.652   0.790   2.480 -2.5950 -1.2607 -0.6947
  619SOL     OW 1855   2.841   1.641   1.157 -0.2007 -0.6561  0.6118
  619SOL    HW1 1856   2.940   1.669   1.158  0.8046 -0.5862  2.0721
  619SOL    HW2 1857   2.804   1.631   1.062 -1.2193 -0.3703  0.3207
  620SOL     OW 1858   2.122   2.728   2.537  0.0373 -0.5240 -0.0791
  620SOL    HW1 1859   2.180   2.733   2.454  0.0678 -2.2107  1.7022
  620SOL    HW2 1860   2.119   2.812   2.586 -1.1029 -0.9961 -2.0438
  621SOL     OW 1861   2.937   1.766   3.057  0.0877  0.4529 -0.7049
  621SOL    HW1 1862   3.033   1.782   3.024 -0.5049  0.7796 -0.1314
  621SOL    HW2 1863   2.892   1.684   3.020 -0.8825 -1.7378 -1.5376
  622SOL     OW 1864   1.464   0.078   1.963 -0.1100 -0.0989 -0.6277
  622SOL    HW1 1865   1.504   3.091   1.998 -0.0963  0.7160  0.9585
  622SOL    HW2 1866   1.532   0.137   1.913 -1.5616 -0.3812 -3.0926
  623SOL     OW 1867   0.692   2.480   0.935 -0.1197 -0.5892  0.4196
  623SOL    HW1 1868   0.684   2.435   1.027 -2.0451 -4.5985  1.0095
  623SOL    HW2 1869   0.737   2.570   0.931  0.2423 -1.5680 -0.8267
  624SOL     OW 1870   0.021   2.940   3.078 -0.0344  0.2938 -0.2610
  624SOL    HW1 1871   3.074   2.851   3.077  0.9668 -0.3182 -0.8178
  624SOL    HW2 1872   0.059   2.965   2.984 -1.1646 -0.6646 -2.4463
  625SOL     OW 1873   0.859   1.996   0.638  0.2615  0.1315 -0.0351
  625SOL    HW1 1874   0.871   1.918   0.704 -0.7879 -1.2386 -1.4605
  625SOL    HW2 1875   0.889   1.968   0.549 -2.1278 -2.6564  0.7836
  626SOL     OW 1876   2.798   0.321   3.055 -0.4690 -0.0543 -0.4704
  626SOL    HW1 1877   2.898   0.301   3.051  2.8158 -0.5174  0.0896
  626SOL    HW2 1878   2.746   0.232   3.073  1.0930 -0.1879 -0.2842
  627SOL     OW 1879   1.434   1.937   2.974  0.5534  0.3996 -0.1646
  627SOL    HW1 1880   1.507   1.940   2.900  2.5949 -0.3827  0.7902
  627SOL    HW2 1881   1.356   1.873   2.952 -0.7545 -0.6702 -1.5123
  628SOL     OW 1882   0.112   2.577   2.936  0.1711 -0.2656  0.7194
  628SOL    HW1 1883   0.071   2.517   2.867  0.6314 -0.4085 -0.4369
  628SOL    HW2 1884   0.097   2.542   3.031 -0.6134 -1.9517  1.4651
  629SOL     OW 1885   0.657   2.865   2.748 -0.3105  0.4809  0.0306
  629SOL    HW1 1886   0.682   2.843   2.846 -1.5279 -2.6331  3.9904
  629SOL    HW2 1887   0.644   2.786   2.683 -1.1219  1.8392 -1.5998
  630SOL     OW 1888   1.306   1.049   1.986  0.6123  0.2005 -0.0631
  630SOL    HW1 1889   1.269   0.974   1.926  0.9315  0.8164  0.8461
  630SOL    HW2 1890   1.305   1.146   1.948 -2.6941  3.1119  1.6440
  631SOL     OW 1891   1.969   1.111   0.191 -0.4014 -0.5444  0.5798
  631SOL    HW1 1892   1.904   1.159   0.253 -2.2133 -1.1679  0.6534
  631SOL    HW2 1893   2.014   1.182   0.136 -0.5126 -1.0075  2.8424
  632SOL     OW 1894   2.633   0.292   2.029 -0.8603  0.0788  0.3510
  632SOL    HW1 1895   2.670   0.377   2.069  1.1413  1.4742 -0.5557
  632SOL    HW2 1896   2.707   0.250   1.974  1.5779 -0.2435 -0.0533
  633SOL     OW 1897   0.781   1.581   0.055 -0.0330  0.7109  0.3604
  633SOL    HW1 1898   0.780   1.673   0.004 -0.5881 -0.3313 -2.1815
  633SOL    HW2 1899   0.831   1.511   3.095 -1.3659  2.1583 -0.1797
  634SOL     OW 1900   2.437   2.662   2.376 -0.1909  0.0540 -0.3074
  634SOL    HW1 1901   2.376   2.740   2.357 -0.0957 -0.2003 -0.3169
  634SOL    HW2 1902   2.398   2.575   2.330 -1.6115  0.3557  0.7258
  635SOL     OW 1903   2.032   0.668   0.376  0.1719 -0.6836  0.1267
  635SOL    HW1 1904   2.082   0.734   0.319 -0.9565 -0.4127  2.2536
  635SOL    HW2 1905   2.024   0.577   0.336 -0.0539 -1.4518  3.3749
  636SOL     OW 1906   0.536   1.293   0.795  0.0440  0.0300  0.4474
  636SOL    HW1 1907   0.497   1.309   0.701 -2.3626 -0.5017  1.7322
  636SOL    HW2 1908   0.623   1.344   0.797 -0.7985  1.8016  1.5493
  637SOL     OW 1909   3.032   2.286   0.182 -0.3759 -0.1594  0.4729
  637SOL    HW1 1910   2.966   2.227   0.227 -0.8757 -0.1327 -1.5032
  637SOL    HW2 1911   0.018   2.233   0.170  0.3737  1.1988 -1.5505
  638SOL     OW 1912   1.407   2.581   2.395  0.1084 -0.0426 -0.3745
  638SOL    HW1 1913   1.420   2.595   2.297  1.9658  0.0492 -1.5114
  638SOL    HW2 1914   1.341   2.500   2.398  2.3753 -0.5036 -0.4742
  639SOL     OW 1915   1.337   1.993   0.267  0.3819  0.3375 -0.1164
  639SOL    HW1 1916   1.257   1.961   0.214  1.7479  0.4714 -1.6795
  639SOL    HW2 1917   1.383   1.926   0.330 -2.3791 -0.6522 -0.2222
  640SOL     OW 1918   2.009   0.122   0.501 -0.2687 -0.5140  0.1521
  640SOL    HW1 1919   2.071   0.053   0.531 -3.3192 -0.4721 -0.7139
  640SOL    HW2 1920   2.058   0.207   0.486 -0.6181 -0.3018  2.3492
  641SOL     OW 1921   3.064   2.922   0.464 -0.2819  0.0692  0.5493
  641SOL    HW1 1922   3.013   2.840   0.469 -0.4772  2.0804 -0.4066
  641SOL    HW2 1923   3.007   3.001   0.436 -1.2048  1.0280 -0.8519
  642SOL     OW 1924   0.614   0.223   1.546 -0.4813  0.1477 -0.2824
  642SOL    HW1 1925   0.582   0.324   1.535 -2.3603  1.6580 -0.2283
  642SOL    HW2 1926   0.612   0.199   1.646  1.0669  2.3617  0.8660
  643SOL     OW 1927   0.633   1.170   2.334  0.5885 -0.2713  0.2824
  643SOL    HW1 1928   0.632   1.208   2.430 -2.4285 -2.3075 -0.2024
  643SOL    HW2 1929   0.653   1.235   2.260  0.1124  0.7728  2.0425
  644SOL     OW 1930   1.195   2.466   0.256  0.1243  0.2516 -0.1010
  644SOL    HW1 1931   1.240   2.551   0.290 -2.0784  0.7352 -0.2323
  644SOL    HW2 1932   1.257   2.411   0.195  2.6892 -0.1897  0.6029
  645SOL     OW 1933   1.665   2.152   0.168  0.0114 -0.1776 -0.7828
  645SOL    HW1 1934   1.698   2.210   0.088 -0.3262  0.4519  2.0653
  645SOL    HW2 1935   1.661   2.051   0.148 -0.2523 -2.1170 -0.3658
  646SOL     OW 1936   0.390   1.443   3.020 -0.5375 -0.4517 -0.4036
  646SOL    HW1 1937   0.386   1.541   2.986  0.8304  0.8087 -0.1224
  646SOL    HW2 1938   0.361   1.438   0.021  1.5143  0.3596  1.1918
  647SOL     OW 1939   1.028   0.281   1.124 -0.2346  0.8597  0.0222
  647SOL    HW1 1940   0.931   0.268   1.098 -0.2109 -0.7115 -1.9048
  647SOL    HW2 1941   1.052   0.377   1.123 -1.2134  0.7618 -0.2161
  648SOL     OW 1942   1.495   0.631   1.239  0.0312 -0.2292 -0.3634
  648SOL    HW1 1943   1.473   0.677   1.150 -0.3155  1.3439 -2.0778
  648SOL    HW2 1944   1.594   0.652   1.269  1.4604 -0.2399 -1.1779
  649SOL     OW 1945   1.159   1.836   0.144 -0.0325 -0.4007 -0.0578
  649SOL    HW1 1946   1.092   1.891   0.091 -0.4142  1.8559 -1.6848
  649SOL    HW2 1947   1.200   1.764   0.090  0.7623  3.2749  2.6081
  650SOL     OW 1948   2.895   1.427   2.236 -0.3318  0.2779  0.2864
  650SOL    HW1 1949   2.845   1.470   2.313  0.9012 -0.6850  3.0101
  650SOL    HW2 1950   2.994   1.434   2.255  0.0904  2.1354 -2.2447
  651SOL     OW 1951   1.303   2.522   2.757 -0.4745 -0.0668 -0.1724
  651SOL    HW1 1952   1.234   2.448   2.780 -0.9631  1.8126  2.1070
  651SOL    HW2 1953   1.262   2.615   2.752 -0.1164  0.4829  0.7102
  652SOL     OW 1954   2.537   1.724   0.086 -0.0329 -0.4616  0.2003
  652SOL    HW1 1955   2.493   1.646   0.034 -1.0089 -0.0828  2.6058
  652SOL    HW2 1956   2.550   1.810   0.034  0.1324 -2.5285  1.9451
  653SOL     OW 1957   0.149   0.172   1.340 -0.1479  0.1086 -0.0563
  653SOL    HW1 1958   0.154   0.130   1.247  2.4310 -1.9721 -2.0384
  653SOL    HW2 1959   0.159   0.272   1.337 -2.1442  1.1503 -1.6543
  654SOL     OW 1960   2.174   0.435   2.309  0.0780  0.5771 -0.2716
  654SOL    HW1 1961   2.248   0.364   2.301  0.4095 -0.3101 -2.1407
  654SOL    HW2 1962   2.115   0.430   2.231  0.0670 -3.8561 -0.2744
  655SOL     OW 1963   0.329   2.945   1.061 -0.1598 -0.4398 -0.0970
  655SOL    HW1 1964   0.299   2.886   0.986 -2.4948 -0.6716  0.6967
  655SOL    HW2 1965   0.426   2.975   1.048  1.8655 -1.9328 -0.4717
  656SOL     OW 1966   2.994   0.026   2.358  0.3256  0.2095  0.6937
  656SOL    HW1 1967   2.969   0.106   2.301 -1.2010 -1.0938 -0.1323
  656SOL    HW2 1968   3.060   0.042   2.437  2.0678  2.0629  2.3015
  657SOL     OW 1969   2.710   0.645   2.828  0.2883  0.2877 -0.2599
  657SOL    HW1 1970   2.718   0.692   2.918  0.2498 -0.0008  1.4555
  657SOL    HW2 1971   2.726   0.542   2.825 -1.4633  0.4862  3.5704
  658SOL     OW 1972   2.057   2.052   0.895  0.1204 -0.3067 -0.3471
  658SOL    HW1 1973   2.155   2.041   0.859  2.9279  2.0583 -1.8050
  658SOL    HW2 1974   2.064   2.063   0.995  0.4362 -1.2654 -0.7780
  659SOL     OW 1975   1.967   2.872   0.466  0.2797 -0.0872 -0.2437
  659SOL    HW1 1976   2.025   2.799   0.508 -0.3973  0.6187 -0.7171
  659SOL    HW2 1977   1.886   2.889   0.524  0.3292 -0.6161 -2.3718
  660SOL     OW 1978   1.491   1.226   2.811 -0.2801  0.3867 -0.4253
  660SOL    HW1 1979   1.475   1.238   2.712 -1.8881 -0.5452  1.0926
  660SOL    HW2 1980   1.576   1.274   2.840  1.5655 -1.7770  0.9431
  661SOL     OW 1981   2.394   2.420   1.662  0.2257  0.1616  0.3297
  661SOL    HW1 1982   2.404   2.448   1.564 -0.7547 -2.9565  0.3981
  661SOL    HW2 1983   2.475   2.438   1.723  0.6325 -2.1529  0.8706
  662SOL     OW 1984   0.772   0.762   0.328  0.1177 -0.3122 -0.5034
  662SOL    HW1 1985   0.672   0.788   0.317  1.6650 -1.7145 -0.8619
  662SOL    HW2 1986   0.783   0.674   0.380 -1.1451 -0.5971  0.6455
  663SOL     OW 1987   1.930   2.220   0.589 -0.4588 -0.2843 -0.2545
  663SOL    HW1 1988   1.876   2.171   0.658 -1.6154 -1.2414  1.8514
  663SOL    HW2 1989   1.867   2.269   0.524  2.2560  1.7039 -0.9413
  664SOL     OW 1990   0.789   1.729   1.366 -0.1734 -0.3692  0.2664
  664SOL    HW1 1991   0.733   1.788   1.303 -1.0824  0.5969 -1.0239
  664SOL    HW2 1992   0.871   1.774   1.400  0.3843 -2.6870  1.3269
  665SOL     OW 1993   1.659   2.351   2.045  0.2581 -0.4114 -0.2685
  665SOL    HW1 1994   1.629   2.357   1.950  1.0202  1.1955 -1.5464
  665SOL    HW2 1995   1.755   2.320   2.048 -1.5796 -1.3413  0.9180
  666SOL     OW 1996   0.210   2.602   0.310 -0.2479  0.4730  0.1860
  666SOL    HW1 1997   0.256   2.691   0.302  0.0520 -1.8620  0.5485
  666SOL    HW2 1998   0.151   2.577   0.229 -0.2654  0.2535  2.3470
  667SOL     OW 1999   2.477   1.477   1.751 -0.1553 -0.1955 -0.6207
  667SOL    HW1 2000   2.556   1.522   1.703 -1.6012  2.9561  1.0530
  667SOL    HW2 2001   2.473   1.498   1.853 -1.3965  0.5827 -0.2301
  668SOL     OW 2002   0.484   0.626   2.667 -0.1242 -0.2894 -0.6463
  668SOL    HW1 2003   0.545   0.668   2.598 -0.3272  1.3538 -0.8396
  668SOL    HW2 2004   0.534   0.552   2.712  0.0513 -2.7265 -2.1656
  669SOL     OW 2005   2.006   2.419   2.916 -0.1025 -0.0402  0.1848
  669SOL    HW1 2006   2.059   2.452   2.831 -2.0239 -1.0812 -1.6475
  669SOL    HW2 2007   2.061   2.377   2.990 -1.7309  1.9055 -1.4117
  670SOL     OW 2008   2.493   1.628   2.645  0.3850  0.1102  0.2140
  670SOL    HW1 2009   2.476   1.567   2.724 -2.1388  1.5724 -0.2421
  670SOL    HW2 2010   2.564   1.696   2.656 -4.8996  0.6220 -0.6259
  671SOL     OW 2011   0.170   1.413   0.990 -0.0670  0.9616 -0.1114
  671SOL    HW1 2012   0.194   1.418   0.891 -1.2942  0.5576 -0.4101
  671SOL    HW2 2013   0.069   1.402   1.002 -1.9021  1.3254 -0.0289
  672SOL     OW 2014   2.684   0.702   2.015 -0.5316 -0.1625  0.3223
  672SOL    HW1 2015   2.719   0.794   1.994 -1.3692  1.0476  1.4966
  672SOL    HW2 2016   2.628   0.663   1.937  1.4884  0.4793  1.5583
  673SOL     OW 2017   2.406   2.377   2.003 -0.0737 -0.2881  0.1896
  673SOL    HW1 2018   2.480   2.436   1.970  0.2599  1.1477  4.2815
  673SOL    HW2 2019   2.329   2.381   1.940  2.4443  4.0505 -1.2065
  674SOL     OW 2020   1.310   2.474   1.932 -0.3015 -0.0403  0.2883
  674SOL    HW1 2021   1.320   2.384   1.883 -1.1901  0.0364 -1.4426
  674SOL    HW2 2022   1.208   2.500   1.946 -1.5264  2.0899  0.1081
  675SOL     OW 2023   0.453   0.785   0.905  0.1846  0.2825 -0.6375
  675SOL    HW1 2024   0.442   0.878   0.860  1.1772  0.3032  0.7144
  675SOL    HW2 2025   0.426   0.712   0.843  2.8713 -1.5575 -2.6842
  676SOL     OW 2026   1.806   1.113   0.625 -0.0602 -0.2049  0.2178
  676SOL    HW1 2027   1.735   1.042   0.642  1.8232  1.3396 -1.0185
  676SOL    HW2 2028   1.900   1.087   0.657 -0.6207  1.2165 -0.5069
  677SOL     OW 2029   0.039   1.295   2.492 -0.0528  0.4747  0.3078
  677SOL    HW1 2030   0.066   1.197   2.468 -1.7334 -1.5871 -1.3931
  677SOL    HW2 2031   0.051   1.351   2.405  3.7938 -0.1127 -3.7855
  678SOL     OW 2032   2.673   1.845   1.234  0.3318  0.1674 -0.0811
  678SOL    HW1 2033   2.729   1.765   1.205 -2.1425 -0.9947 -2.2182
  678SOL    HW2 2034   2.672   1.849   1.334  0.7828 -1.1529  1.2435
  679SOL     OW 2035   2.104   2.666   0.616 -0.3787  0.1243  0.9242
  679SOL    HW1 2036   2.180   2.732   0.598 -0.8762 -0.4634 -0.0307
  679SOL    HW2 2037   2.071   2.658   0.715 -2.2131 -0.4511  0.4860
  680SOL     OW 2038   0.134   2.336   2.009  0.2944 -0.1976 -0.1781
  680SOL    HW1 2039   0.212   2.266   1.998  2.3880 -3.8925 -1.3990
  680SOL    HW2 2040   0.076   2.319   1.925 -1.7822  0.5470 -3.2997
  681SOL     OW 2041   2.922   1.379   1.674 -0.5545 -0.2065 -0.5511
  681SOL    HW1 2042   3.001   1.366   1.738  0.9897  2.0444  0.5050
  681SOL    HW2 2043   2.844   1.407   1.728 -1.7934 -2.1667 -1.6344
  682SOL     OW 2044   1.019   2.222   0.896  0.4316 -0.4935 -0.2137
  682SOL    HW1 2045   0.939   2.272   0.851 -4.5201  0.6320 -0.3169
  682SOL    HW2 2046   1.096   2.206   0.833 -1.2988 -0.0765  0.7843
  683SOL     OW 2047   2.141   1.205   1.088  0.0820  0.5676  0.0404
  683SOL    HW1 2048   2.064   1.249   1.034 -0.1677  1.2405 -0.8588
  683SOL    HW2 2049   2.112   1.199   1.187 -2.8351 -0.3410  2.8434
  684SOL     OW 2050   0.073   1.826   2.896 -0.5634 -0.4809 -0.5677
  684SOL    HW1 2051   0.135   1.748   2.924  1.1233  0.4858  2.8774
  684SOL    HW2 2052   0.085   1.849   2.795  2.3754 -2.4938 -0.3456
  685SOL     OW 2053   1.686   1.238   0.087 -0.3893  0.7742  0.0908
  685SOL    HW1 2054   1.716   1.164   0.030  1.8630  0.2154  4.8250
  685SOL    HW2 2055   1.766   1.299   0.093 -1.6121 -1.7742  0.9435
  686SOL     OW 2056   0.281   0.933   1.281  0.4389  0.4643 -0.4538
  686SOL    HW1 2057   0.328   0.948   1.193  0.0168 -2.0876 -0.9891
  686SOL    HW2 2058   0.340   0.891   1.353  0.8502  0.3034 -0.4686
  687SOL     OW 2059   0.878   2.198   2.574  0.5859  1.0923  0.0005
  687SOL    HW1 2060   0.880   2.200   2.674  0.9839 -0.0625 -1.0481
  687SOL    HW2 2061   0.821   2.272   2.537  1.9721 -2.2741 -2.6422
  688SOL     OW 2062   0.359   1.741   1.745 -0.9353  0.0383  0.4252
  688SOL    HW1 2063   0.264   1.777   1.761 -1.7996 -1.0492  2.3819
  688SOL    HW2 2064   0.405   1.792   1.666  0.4330 -0.4519 -3.0895
  689SOL     OW 2065   1.636   1.127   1.736 -0.3825 -0.2794 -0.2532
  689SOL    HW1 2066   1.549   1.136   1.684  0.6135  1.1298  0.1267
  689SOL    HW2 2067   1.661   1.030   1.759  3.1543  0.3123  0.9508
  690SOL     OW 2068   2.471   0.733   1.103  0.1396 -0.0287  0.4941
  690SOL    HW1 2069   2.479   0.701   1.199 -1.1273 -1.4674 -1.0130
  690SOL    HW2 2070   2.499   0.831   1.081 -0.9567  2.1520 -2.4677
  691SOL     OW 2071   0.715   1.959   1.607 -0.1305  0.4405  0.0163
  691SOL    HW1 2072   0.809   1.948   1.570 -0.1113  1.0141 -1.7703
  691SOL    HW2 2073   0.690   1.897   1.684 -0.1419  0.6878 -1.6879
  692SOL     OW 2074   2.150   0.190   1.407 -0.6082 -1.0842 -0.1932
  692SOL    HW1 2075   2.167   0.293   1.387  1.4220  1.7059 -3.5714
  692SOL    HW2 2076   2.189   0.178   1.500  0.5854  2.4411  2.9854
  693SOL     OW 2077   0.364   1.119   1.993  1.3113  0.1133  0.0408
  693SOL    HW1 2078   0.404   1.201   1.942  4.2372  0.9186  0.9284
  693SOL    HW2 2079   0.405   1.032   1.959 -0.3982  1.0563 -1.1111
  694SOL     OW 2080   1.906   0.100   1.291 -0.0828  0.4813 -0.5259
  694SOL    HW1 2081   1.980   0.108   1.362 -0.4581 -1.0479 -0.9989
  694SOL    HW2 2082   1.846   0.019   1.310 -1.4688 -4.2594 -1.7970
  695SOL     OW 2083   1.286   1.370   1.655 -0.5422 -0.2006  0.0843
  695SOL    HW1 2084   1.210   1.409   1.600  1.5295  0.2860  0.9517
  695SOL    HW2 2085   1.352   1.308   1.601  2.8183 -0.3941 -0.8950
  696SOL     OW 2086   1.788   2.852   0.223  0.7709  0.4559  0.2108
  696SOL    HW1 2087   1.851   2.928   0.243 -1.4669 -0.9879 -0.2263
  696SOL    HW2 2088   1.837   2.777   0.174  2.7929 -1.0618  1.4193
  697SOL     OW 2089   0.773   0.523   0.465 -0.2149  0.5977 -0.4871
  697SOL    HW1 2090   0.679   0.503   0.432 -1.8233 -0.5051 -0.8418
  697SOL    HW2 2091   0.834   0.441   0.451  1.6421  0.4664 -1.2297
  698SOL     OW 2092   1.446   1.268   2.545  0.0778  0.1341 -0.3564
  698SOL    HW1 2093   1.472   1.353   2.491  0.4502  0.2989 -2.7050
  698SOL    HW2 2094   1.462   1.181   2.491  0.4240  4.1479  0.2512
  699SOL     OW 2095   1.392   1.307   0.984 -0.1349  0.0288 -0.5310
  699SOL    HW1 2096   1.464   1.379   0.982  2.8573  1.8793 -0.8125
  699SOL    HW2 2097   1.403   1.244   0.903  0.8330 -1.8893  1.2515
  700SOL     OW 2098   1.530   3.062   0.448  0.1018 -0.2572 -0.6174
  700SOL    HW1 2099   1.556   2.964   0.425 -0.9992  0.2535 -0.9123
  700SOL    HW2 2100   1.616   0.003   0.489  0.5506 -0.0569 -1.4757
  701SOL     OW 2101   2.192   0.115   2.616  0.1856  0.0410 -0.3224
  701SOL    HW1 2102   2.285   0.107   2.654 -1.1626 -0.5595 -2.5928
  701SOL    HW2 2103   2.159   0.212   2.616  2.5633  0.6310  0.6232
  702SOL     OW 2104   1.076   0.021   3.044  0.7463  0.1884 -0.0402
  702SOL    HW1 2105   1.077   0.121   3.056 -0.0422 -2.6913 -0.9741
  702SOL    HW2 2106   0.985   3.086   3.030  1.5513  0.2314 -1.2652
  703SOL     OW 2107   2.224   2.813   2.300 -0.2199 -0.9108  0.2255
  703SOL    HW1 2108   2.200   2.798   2.204 -2.4631  0.8970  2.8372
  703SOL    HW2 2109   2.162   2.889   2.338 -3.4725  0.2029  2.3433
  704SOL     OW 2110   0.424   2.360   0.876 -0.1263  0.4216  0.7342
  704SOL    HW1 2111   0.443   2.258   0.873 -0.5238 -1.0434  2.4498
  704SOL    HW2 2112   0.486   2.418   0.931 -1.1943  1.5714 -1.3506
  705SOL     OW 2113   2.440   0.276   2.250  0.1420 -0.2399  0.0845
  705SOL    HW1 2114   2.460   0.284   2.149  0.7020 -0.3403 -0.9800
  705SOL    HW2 2115   2.401   0.187   2.277  0.3318  0.6238 -2.3594
  706SOL     OW 2116   1.885   0.029   0.250  0.1235  0.1924 -0.4150
  706SOL    HW1 2117   1.943   0.068   0.320 -0.8721 -1.3933  1.0660
  706SOL    HW2 2118   1.812   0.095   0.230 -0.3912 -0.7962 -1.6914
  707SOL     OW 2119   1.167   1.946   2.134 -0.7591  0.1828 -0.5004
  707SOL    HW1 2120   1.217   1.958   2.221 -1.2719  1.1237  1.7164
  707SOL    HW2 2121   1.082   1.994   2.142  2.4213 -1.1576  0.6720
  708SOL     OW 2122   0.192   2.608   2.002 -0.5645  0.7616 -0.9782
  708SOL    HW1 2123   0.175   2.515   2.029 -1.6284  0.3415  0.9930
  708SOL    HW2 2124   0.115   2.648   1.951 -1.0864 -1.9895 -1.5395
  709SOL     OW 2125   1.649   0.228   1.829  0.4711 -0.4088 -0.0548
  709SOL    HW1 2126   1.702   0.317   1.823  1.5365 -0.1300 -0.9087
  709SOL    HW2 2127   1.691   0.161   1.772  0.2424  1.8951 -1.2281
  710SOL     OW 2128   1.997   0.744   1.992  0.7128 -0.2922  0.4262
  710SOL    HW1 2129   1.980   0.844   2.011  0.0271  2.1159  0.6461
  710SOL    HW2 2130   1.926   0.694   2.044 -0.7846  2.4309  0.7175
  711SOL     OW 2131   0.917   2.110   0.277 -0.2319 -0.0859  0.3951
  711SOL    HW1 2132   0.999   2.158   0.309 -2.7945 -2.3041  0.0950
  711SOL    HW2 2133   0.843   2.180   0.287  1.5140 -1.6879  0.0589
  712SOL     OW 2134   0.584   2.718   2.297 -0.2655 -0.2484  0.3093
  712SOL    HW1 2135   0.504   2.754   2.350  0.0549 -0.5099  0.4113
  712SOL    HW2 2136   0.626   2.787   2.230  0.6057 -1.2179 -1.2439
  713SOL     OW 2137   1.826   1.227   0.382 -0.4259  0.3325  0.3143
  713SOL    HW1 2138   1.843   1.327   0.397  1.1864 -0.2388  1.7759
  713SOL    HW2 2139   1.821   1.175   0.469  2.7019  0.8617 -0.5482
  714SOL     OW 2140   0.648   1.862   1.199  0.0795 -0.3760  0.0597
  714SOL    HW1 2141   0.570   1.827   1.141  1.0167 -2.6017 -1.7941
  714SOL    HW2 2142   0.665   1.962   1.171  0.7432  1.7902 -1.5732
  715SOL     OW 2143   2.068   2.980   2.704  0.3339  0.0399 -0.2020
  715SOL    HW1 2144   2.080   3.080   2.699 -1.9728 -3.2252  2.0324
  715SOL    HW2 2145   1.980   2.955   2.666  0.2488 -0.5633 -0.3051
  716SOL     OW 2146   2.614   3.050   2.029 -0.0788 -0.1811  0.4080
  716SOL    HW1 2147   2.684   2.985   1.997 -0.3263  0.9904  4.4711
  716SOL    HW2 2148   2.644   3.092   2.115  1.3614 -0.6992  0.2950
  717SOL     OW 2149   0.145   0.769   0.359 -0.2887  0.0214  0.6423
  717SOL    HW1 2150   0.087   0.842   0.320  1.8110  0.4277  2.8347
  717SOL    HW2 2151   0.085   0.698   0.406  0.7510 -0.7782  1.1866
  718SOL     OW 2152   1.054   1.183   2.571  0.5950 -0.0277 -0.0648
  718SOL    HW1 2153   1.029   1.095   2.529  1.2071  3.8268 -1.2808
  718SOL    HW2 2154   1.128   1.169   2.640  0.3386 -0.2036 -1.3224
  719SOL     OW 2155   2.849   1.523   3.007 -0.1413  0.2224  0.0591
  719SOL    HW1 2156   2.867   1.467   3.091 -0.0766 -0.7812  1.9403
  719SOL    HW2 2157   2.779   1.479   2.948  0.3598 -1.5761  0.0587
  720SOL     OW 2158   1.139   0.813   0.895 -0.4142 -0.0656  0.2540
  720SOL    HW1 2159   1.146   0.896   0.953  0.0460  1.9425 -1.2873
  720SOL    HW2 2160   1.043   0.790   0.897  4.3344  0.0579  0.3519
  721SOL     OW 2161   2.666   0.549   0.354 -0.1351  0.7546 -0.8836
  721SOL    HW1 2162   2.691   0.572   0.261 -1.3533  0.8567 -1.5998
  721SOL    HW2 2163   2.688   0.624   0.414 -0.7438  0.8585 -0.0879
  722SOL     OW 2164   1.817   0.854   2.706  0.5029 -0.1896 -0.2460
  722SOL    HW1 2165   1.901   0.796   2.714  0.9349 -0.1572 -2.8503
  722SOL    HW2 2166   1.731   0.804   2.703  2.8357 -0.3192  0.7006
  723SOL     OW 2167   2.934   0.781   0.395 -1.1144  0.0711  0.2154
  723SOL    HW1 2168   2.840   0.787   0.436  1.5119 -0.0886  0.4360
  723SOL    HW2 2169   2.977   0.692   0.412 -1.3829  2.2875  0.8065
  724SOL     OW 2170   0.651   1.341   2.127 -0.2766 -0.1277 -0.1304
  724SOL    HW1 2171   0.622   1.338   2.029  1.2623  0.9323 -1.2411
  724SOL    HW2 2172   0.728   1.406   2.145 -0.2260 -0.0292 -0.5542
  725SOL     OW 2173   1.952   0.891   1.730  0.0334  0.0847  0.2893
  725SOL    HW1 2174   2.044   0.867   1.692  0.1866  0.6867  0.7598
  725SOL    HW2 2175   1.957   0.920   1.829  1.4189 -0.3974  0.3596
  726SOL     OW 2176   1.757   2.890   0.681  0.3387 -0.9393 -0.3652
  726SOL    HW1 2177   1.746   2.987   0.645  1.9526  0.0571  0.5579
  726SOL    HW2 2178   1.838   2.891   0.740 -0.9991 -0.1577  0.3417
  727SOL     OW 2179   1.512   1.469   2.388  0.0847 -0.2068  0.7512
  727SOL    HW1 2180   1.599   1.454   2.332 -0.3043  2.4476  1.6921
  727SOL    HW2 2181   1.442   1.523   2.338  3.0324  0.2466  0.4854
  728SOL     OW 2182   1.423   2.661   1.225 -0.2152  0.1402 -0.5580
  728SOL    HW1 2183   1.343   2.597   1.230  6.4204  1.0378 -1.7175
  728SOL    HW2 2184   1.493   2.627   1.289  0.9186  0.9946  0.1635
  729SOL     OW 2185   1.886   1.011   1.236  0.0831 -0.5498  0.3138
  729SOL    HW1 2186   1.965   1.077   1.254  0.2859 -1.1340  0.2669
  729SOL    HW2 2187   1.858   0.958   1.315 -0.9537  1.6988 -1.7377
  730SOL     OW 2188   0.422   1.657   2.335 -0.2456 -0.3188 -0.0759
  730SOL    HW1 2189   0.341   1.698   2.288  0.5936  3.6209 -0.2010
  730SOL    HW2 2190   0.505   1.671   2.272  0.9614  0.8636 -0.2362
  731SOL     OW 2191   0.257   0.181   0.850  0.4639  0.7191  0.4270
  731SOL    HW1 2192   0.337   0.243   0.840  2.2993 -0.2320 -1.1515
  731SOL    HW2 2193   0.244   0.146   0.757 -0.3287  1.3179  2.1496
  732SOL     OW 2194   1.081   0.765   0.048 -0.1733 -0.2081 -0.7441
  732SOL    HW1 2195   1.087   0.690   0.122  0.1122 -0.3663  3.3954
  732SOL    HW2 2196   0.995   0.825   0.067 -1.4465 -2.2363  0.4479
  733SOL     OW 2197   0.640   2.135   0.639 -0.3178 -0.1151 -0.1983
  733SOL    HW1 2198   0.726   2.081   0.638  1.0283 -0.8787 -1.5591
  733SOL    HW2 2199   0.593   2.117   0.552  2.1051  0.3286 -0.5163
  734SOL     OW 2200   3.078   2.419   2.724 -0.0136  0.0349 -0.2065
  734SOL    HW1 2201   3.097   2.439   2.629 -2.0303  0.2083  0.6368
  734SOL    HW2 2202   0.001   2.322   2.742  0.7782  0.3024 -0.2467
  735SOL     OW 2203   1.133   0.784   1.285 -0.3757 -0.5605  0.7960
  735SOL    HW1 2204   1.069   0.797   1.356  3.6494  1.5091 -4.2541
  735SOL    HW2 2205   1.224   0.759   1.329 -0.0890 -1.2152  0.9874
  736SOL     OW 2206   2.237   2.655   3.077 -0.0250 -0.6872 -0.9556
  736SOL    HW1 2207   2.144   2.680   3.045  3.3642  0.3433  0.1895
  736SOL    HW2 2208   2.293   2.633   2.994  1.2923  1.6907 -3.8396
  737SOL     OW 2209   3.069   3.038   0.775 -0.7894 -0.0985  0.5588
  737SOL    HW1 2210   3.050   3.059   0.875 -1.7003 -1.9442 -0.4850
  737SOL    HW2 2211   3.039   2.946   0.744 -1.9541  1.1238 -1.1846
  738SOL     OW 2212   2.218   0.122   1.009 -0.3698  0.0024  0.1340
  738SOL    HW1 2213   2.200   0.213   1.055  0.7458 -0.9784  0.6673
  738SOL    HW2 2214   2.291   0.129   0.934  1.9221 -0.7625 -1.2409
  739SOL     OW 2215   1.756   2.590   0.416  0.0291 -0.2396  0.2456
  739SOL    HW1 2216   1.742   2.495   0.387  1.2070  2.4448 -0.0692
  739SOL    HW2 2217   1.848   2.623   0.398 -0.8618  0.8878  1.2067
  740SOL     OW 2218   1.567   0.281   0.978  0.4300 -0.0403  0.6992
  740SOL    HW1 2219   1.497   0.248   0.908 -3.4382 -0.3294  0.1841
  740SOL    HW2 2220   1.646   0.212   0.988  2.1810 -2.4988 -0.9980
  741SOL     OW 2221   2.459   0.891   0.803  0.6029  0.4480 -0.0368
  741SOL    HW1 2222   2.387   0.926   0.868 -4.0843 -0.9623  1.1365
  741SOL    HW2 2223   2.416   0.865   0.717  2.1493  2.9257 -0.0473
  742SOL     OW 2224   0.947   2.083   2.176 -0.3710  0.3860 -0.1439
  742SOL    HW1 2225   0.854   2.046   2.182  2.6881  0.9780 -0.8698
  742SOL    HW2 2226   0.946   2.168   2.120 -1.2066 -0.2557  1.9787
  743SOL     OW 2227   1.676   0.837   1.736  0.5136 -0.3366 -0.1564
  743SOL    HW1 2228   1.773   0.843   1.753 -2.7846  1.1140 -0.8726
  743SOL    HW2 2229   1.636   0.766   1.798  0.6924  1.4710 -1.6149
  744SOL     OW 2230   2.155   0.671   1.329  0.4494  0.3564 -0.1550
  744SOL    HW1 2231   2.118   0.676   1.235 -0.7789  0.9805  0.7114
  744SOL    HW2 2232   2.190   0.762   1.353  0.6234 -3.1441 -0.5595
  745SOL     OW 2233   1.773   1.376   1.631 -0.2286  0.1990 -0.4337
  745SOL    HW1 2234   1.745   1.323   1.716 -0.3179 -1.1824 -0.3176
  745SOL    HW2 2235   1.698   1.426   1.584 -0.8453 -0.1655 -2.2961
  746SOL     OW 2236   1.991   1.560   0.801  0.3565 -0.2789 -0.2825
  746SOL    HW1 2237   1.917   1.568   0.872  0.2630 -0.8964  3.0022
  746SOL    HW2 2238   2.027   1.464   0.822  1.7561 -1.8233  0.4919
  747SOL     OW 2239   1.912   1.313   0.973 -0.3802  0.3355 -0.1456
  747SOL    HW1 2240   1.846   1.333   0.895 -1.4823 -2.1064 -2.0087
  747SOL    HW2 2241   1.897   1.365   1.059 -1.5023 -0.0945  0.5957
  748SOL     OW 2242   0.488   2.090   0.866 -0.2311 -0.0284  0.1625
  748SOL    HW1 2243   0.456   1.994   0.892 -2.4948 -2.5825  0.3002
  748SOL    HW2 2244   0.533   2.078   0.775 -0.7128 -1.8312  1.4173
  749SOL     OW 2245   2.330   0.014   2.220 -0.5806 -0.1125 -0.1991
  749SOL    HW1 2246   2.264   3.087   2.297 -0.1480 -1.3220 -0.9634
  749SOL    HW2 2247   2.312   3.069   2.128  0.0706  1.1229 -0.6293
  750SOL     OW 2248   2.409   0.520   0.959 -0.3387  0.2456 -0.0426
  750SOL    HW1 2249   2.436   0.499   0.861 -1.1843 -3.7954 -1.8431
  750SOL    HW2 2250   2.432   0.617   0.987 -0.1205  2.2548 -1.3979
  751SOL     OW 2251   2.562   2.730   0.323  0.5824 -0.5995  0.0736
  751SOL    HW1 2252   2.663   2.714   0.300  1.4718 -2.3335 -4.1708
  751SOL    HW2 2253   2.508   2.763   0.241 -1.7032 -0.8832 -3.5156
  752SOL     OW 2254   0.236   2.789   0.823 -0.0445  0.0936 -0.2911
  752SOL    HW1 2255   0.332   2.756   0.810  0.6367  1.5865  0.4763
  752SOL    HW2 2256   0.236   2.856   0.746  1.7219 -0.2116  0.1935
  753SOL     OW 2257   1.601   0.590   1.846  0.4063  0.7249  0.6341
  753SOL    HW1 2258   1.496   0.590   1.830 -3.7561 -0.5308 -0.8059
  753SOL    HW2 2259   1.651   0.547   1.771 -0.3014  0.6675  0.1297
  754SOL     OW 2260   1.629   2.381   1.769 -0.1078  0.6137 -0.3926
  754SOL    HW1 2261   1.712   2.447   1.762  1.9605 -0.6090  2.4131
  754SOL    HW2 2262   1.555   2.402   1.702  2.9929  0.4857 -1.3673
  755SOL     OW 2263   2.802   0.289   0.787  0.0345 -0.1628 -0.0814
  755SOL    HW1 2264   2.820   0.285   0.888  2.5049 -0.0346 -0.8418
  755SOL    HW2 2265   2.855   0.221   0.734  1.7104 -1.1009 -0.6146
  756SOL     OW 2266   1.437   1.513   2.913  0.0072  0.2834 -0.8041
  756SOL    HW1 2267   1.391   1.469   2.831 -0.7872 -3.4760 -1.6884
  756SOL    HW2 2268   1.506   1.582   2.891 -1.0064 -0.3809  1.4377
  757SOL     OW 2269   1.151   0.218   1.381  0.5308  0.1533  0.5197
  757SOL    HW1 2270   1.110   0.210   1.287  0.1818 -2.6241 -1.6563
  757SOL    HW2 2271   1.076   0.219   1.450  1.9858 -0.3095  1.0353
  758SOL     OW 2272   0.671   0.178   1.276 -0.3422 -0.0304  0.5591
  758SOL    HW1 2273   0.627   0.197   1.366 -1.1653 -1.3112  0.1124
  758SOL    HW2 2274   0.751   0.111   1.294  1.6149 -1.6343 -1.0657
  759SOL     OW 2275   0.363   0.662   1.159  0.1863 -0.2556  0.1791
  759SOL    HW1 2276   0.383   0.702   1.072  2.1822 -0.5393  3.6516
  759SOL    HW2 2277   0.261   0.660   1.170  0.0376 -0.1434 -0.1220
  760SOL     OW 2278   2.360   1.383   1.012 -0.4817  0.0974  0.1601
  760SOL    HW1 2279   2.423   1.310   0.985  0.0842  2.4061 -0.7864
  760SOL    HW2 2280   2.270   1.341   1.030  1.6871  0.8929 -0.0888
  761SOL     OW 2281   1.541   0.625   0.329  0.8617  0.0462  0.3863
  761SOL    HW1 2282   1.548   0.521   0.327 -1.4327 -3.8866  0.2985
  761SOL    HW2 2283   1.461   0.650   0.388  1.2020 -0.8799  0.8163
  762SOL     OW 2284   2.211   2.344   1.233 -0.6979 -0.6124 -0.1622
  762SOL    HW1 2285   2.160   2.380   1.153  0.8548 -0.0257 -0.2135
  762SOL    HW2 2286   2.301   2.392   1.246  0.1758 -1.7837 -2.2850
  763SOL     OW 2287   1.485   1.533   1.798 -0.1236  0.4188  0.7643
  763SOL    HW1 2288   1.507   1.632   1.820  0.3990 -0.6172 -0.9545
  763SOL    HW2 2289   1.385   1.529   1.802 -1.2691  0.3700 -0.3583
  764SOL     OW 2290   2.729   1.844   2.411 -0.3402 -1.0998  0.0800
  764SOL    HW1 2291   2.823   1.877   2.412  1.8982 -1.3964 -1.5217
  764SOL    HW2 2292   2.656   1.913   2.449 -1.3439 -1.3650 -1.5579
  765SOL     OW 2293   0.890   2.692   0.925  0.0909  0.7248 -0.4895
  765SOL    HW1 2294   0.972   2.632   0.912 -1.8701  2.0786  0.6854
  765SOL    HW2 2295   0.869   2.729   1.022  2.1973  1.1305  3.8546
  766SOL     OW 2296   0.788   1.924   2.549  0.4881 -0.1549  0.2048
  766SOL    HW1 2297   0.697   1.886   2.568 -1.0608  1.0439  1.1756
  766SOL    HW2 2298   0.772   2.026   2.532  0.3075  3.6173  2.2848
  767SOL     OW 2299   2.020   0.689   2.367  0.2492  0.5095 -0.1125
  767SOL    HW1 2300   2.055   0.617   2.431 -2.6610 -1.4653  0.7470
  767SOL    HW2 2301   2.096   0.748   2.334 -0.6523 -0.0578  1.2942
  768SOL     OW 2302   1.145   2.692   2.500  0.4292 -0.7465 -0.3097
  768SOL    HW1 2303   1.227   2.668   2.452 -2.4311  1.8661 -0.0713
  768SOL    HW2 2304   1.158   2.726   2.597 -1.4955  0.6974 -0.2467
  769SOL     OW 2305   3.044   2.461   0.927 -0.2897 -0.1313 -0.6071
  769SOL    HW1 2306   2.964   2.453   0.988  1.8716 -0.4802  0.1709
  769SOL    HW2 2307   0.033   2.446   0.977  1.6689  2.9458 -0.0880
  770SOL     OW 2308   0.625   3.007   0.102  0.0355  0.9138  0.2465
  770SOL    HW1 2309   0.529   2.975   0.082  1.6725 -1.0571  1.7139
  770SOL    HW2 2310   0.699   2.941   0.073  1.5929 -2.1265  1.8572
  771SOL     OW 2311   1.097   2.116   2.427  0.0544  0.3469 -0.1305
  771SOL    HW1 2312   1.047   2.114   2.341  1.4324  0.7501  1.6753
  771SOL    HW2 2313   1.033   2.128   2.507 -3.6534  0.5163 -1.3362
  772SOL     OW 2314   2.102   0.162   2.015  0.0393  0.1449 -0.0456
  772SOL    HW1 2315   2.198   0.180   2.030 -1.0085 -0.4874 -0.1459
  772SOL    HW2 2316   2.091   0.067   1.980  2.7091  2.0878  0.4944
  773SOL     OW 2317   0.936   3.037   1.839 -0.2075  0.2574 -0.0027
  773SOL    HW1 2318   0.909   2.940   1.844 -0.2976  0.3619 -0.9435
  773SOL    HW2 2319   1.022   3.051   1.898  0.9853 -0.2275  0.0892
  774SOL     OW 2320   1.488   0.942   2.161 -0.3006 -0.0252  0.2237
  774SOL    HW1 2321   1.417   0.979   2.098 -0.0317 -2.8041 -0.3903
  774SOL    HW2 2322   1.530   0.855   2.120  1.0910 -1.9012 -0.8689
  775SOL     OW 2323   2.166   3.007   0.300  0.2064 -0.4752 -0.3788
  775SOL    HW1 2324   2.203   2.938   0.235 -3.5024  1.9221  0.8354
  775SOL    HW2 2325   2.098   2.962   0.358 -0.9243 -1.4875 -0.1737
  776SOL     OW 2326   2.272   1.054   1.804  0.2131 -0.1424 -0.7381
  776SOL    HW1 2327   2.348   1.116   1.778  1.2236 -0.6762  0.7445
  776SOL    HW2 2328   2.186   1.103   1.816  0.2470  1.0614  0.1896
  777SOL     OW 2329   0.135   1.046   2.459  0.3079 -0.7262 -0.1062
  777SOL    HW1 2330   0.223   1.041   2.411 -0.8543 -1.7030  1.0957
  777SOL    HW2 2331   0.081   0.968   2.424 -2.8348  0.6174 -0.6234
  778SOL     OW 2332   2.257   0.671   2.011  0.4396  0.8493 -0.8300
  778SOL    HW1 2333   2.156   0.672   1.993  0.9455  2.0360 -0.4796
  778SOL    HW2 2334   2.278   0.712   2.104  1.5635  0.3119  1.9348
  779SOL     OW 2335   3.059   0.224   3.076  0.2543  0.2270  0.0308
  779SOL    HW1 2336   3.092   0.186   0.066 -3.4958  0.3954  2.4082
  779SOL    HW2 2337   3.001   0.152   3.035 -0.9888 -2.9543  1.6006
  780SOL     OW 2338   2.130   3.071   2.386  0.3096 -0.1332  0.4184
  780SOL    HW1 2339   2.129   0.045   2.460  0.9908  0.4688 -2.0335
  780SOL    HW2 2340   2.041   3.065   2.342 -1.3936  2.0089  1.2577
  781SOL     OW 2341   0.167   0.856   1.745 -0.1789 -0.1166 -1.0935
  781SOL    HW1 2342   0.128   0.944   1.706 -1.1371  0.6098  1.8878
  781SOL    HW2 2343   0.135   0.837   1.840 -1.9747  1.8902  0.6468
  782SOL     OW 2344   2.188   2.026   0.076 -0.5555 -0.5960 -0.6421
  782SOL    HW1 2345   2.242   2.004   0.157 -2.7036 -0.2708 -0.4117
  782SOL    HW2 2346   2.194   2.128   0.065  2.4869  2.0760 -1.7456
  783SOL     OW 2347   0.441   2.287   1.233  0.3412  0.0089 -0.3818
  783SOL    HW1 2348   0.356   2.347   1.237  0.1081  0.7294 -0.5604
  783SOL    HW2 2349   0.521   2.344   1.247 -1.2963  0.3124  1.2671
  784SOL     OW 2350   2.632   0.628   2.288 -0.0213 -0.0349 -0.8777
  784SOL    HW1 2351   2.538   0.636   2.323 -0.8431 -0.4240 -0.7197
  784SOL    HW2 2352   2.644   0.672   2.195  1.1408  0.7247  3.3020
  785SOL     OW 2353   0.128   0.446   1.307  0.0470  0.1240  0.3030
  785SOL    HW1 2354   0.123   0.516   1.236  1.1719  1.0675  2.9017
  785SOL    HW2 2355   0.132   0.497   1.396 -0.1648  0.4722  0.0863
  786SOL     OW 2356   1.548   2.809   0.383  0.0891  0.1878 -0.1902
  786SOL    HW1 2357   1.585   2.752   0.461  2.1952 -3.0617 -0.4419
  786SOL    HW2 2358   1.624   2.828   0.313  0.9408  1.6575 -1.1815
  787SOL     OW 2359   1.366   0.192   0.830 -0.3289 -0.4112  0.2035
  787SOL    HW1 2360   1.265   0.209   0.834 -1.4527 -3.6666  1.5553
  787SOL    HW2 2361   1.384   0.097   0.803  1.1386 -0.4273 -1.0694
  788SOL     OW 2362   2.999   1.386   1.003  0.2085 -0.4637  0.3196
  788SOL    HW1 2363   2.956   1.458   0.947  0.4971 -0.0089  0.8255
  788SOL    HW2 2364   2.945   1.301   1.002  0.6375 -0.5113  0.5247
  789SOL     OW 2365   2.863   0.512   2.050  0.2608 -0.0246  0.5328
  789SOL    HW1 2366   2.813   0.596   2.049  0.3451 -4.7844 -1.2791
  789SOL    HW2 2367   2.935   0.506   2.122  1.9301 -0.4914  0.7923
  790SOL     OW 2368   0.813   0.309   0.004 -0.1377 -0.2693  0.4623
  790SOL    HW1 2369   0.779   0.344   3.009  0.5272  0.6553  0.1713
  790SOL    HW2 2370   0.917   0.305   0.011  3.2169 -0.4386  2.6939
  791SOL     OW 2371   2.680   2.839   3.069  0.2800 -0.2025 -0.3413
  791SOL    HW1 2372   2.686   2.829   2.969  1.4205 -2.0580  0.3903
  791SOL    HW2 2373   2.631   2.758   0.019  0.3151  1.2366 -0.3211
  792SOL     OW 2374   1.290   0.906   1.585 -0.2432 -0.0857  0.0937
  792SOL    HW1 2375   1.316   0.832   1.519 -1.6684 -0.5394 -1.7328
  792SOL    HW2 2376   1.259   0.875   1.673  0.2837 -0.8225  0.5542
  793SOL     OW 2377   2.571   0.420   1.167 -0.1702 -0.1552 -0.7101
  793SOL    HW1 2378   2.656   0.472   1.140  0.8309 -0.7391 -1.3705
  793SOL    HW2 2379   2.505   0.411   1.092 -0.3465 -1.0149 -1.6952
  794SOL     OW 2380   2.887   0.209   2.179 -0.2742  0.1925 -0.3273
  794SOL    HW1 2381   2.812   0.259   2.221  0.9457 -0.4355 -0.9523
  794SOL    HW2 2382   2.885   0.204   2.074  3.2627  1.8103  0.7406
  795SOL     OW 2383   0.771   1.830   3.026  1.1419 -0.2638 -0.1902
  795SOL    HW1 2384   0.850   1.864   2.971 -0.5573 -0.0349  2.1061
  795SOL    HW2 2385   0.747   1.896   3.097 -0.2663 -1.7044 -3.4649
  796SOL     OW 2386   2.278   0.629   2.691  0.1344 -0.4648  0.5019
  796SOL    HW1 2387   2.349   0.705   2.691  0.8177  2.0752  1.1931
  796SOL    HW2 2388   2.197   0.655   2.747  0.0621 -1.9593  1.3624
  797SOL     OW 2389   2.545   1.991   3.096  0.5783  0.3262  0.4527
  797SOL    HW1 2390   2.642   2.021   0.005 -0.3623 -0.0800  0.6789
  797SOL    HW2 2391   2.497   2.032   3.016  0.5294  0.9158 -1.4301
  798SOL     OW 2392   2.966   0.372   1.279 -0.5499  0.0177 -0.4080
  798SOL    HW1 2393   2.938   0.317   1.357 -1.3313  1.1841 -4.8721
  798SOL    HW2 2394   3.062   0.406   1.286  0.7903 -0.9738  1.2181
  799SOL     OW 2395   0.304   0.366   1.628  0.0875 -0.2343  0.5076
  799SOL    HW1 2396   0.381   0.402   1.566 -2.0006  2.8431  0.1485
  799SOL    HW2 2397   0.339   0.352   1.722  0.9074 -0.2827  2.9437
  800SOL     OW 2398   0.428   1.953   0.085  0.0737  0.4379 -0.4726
  800SOL    HW1 2399   0.362   1.892   0.138 -1.7860  0.0260  2.7116
  800SOL    HW2 2400   0.522   1.931   0.125  1.4653  1.7882  1.1533
  801SOL     OW 2401   1.579   1.755   0.906 -0.1781 -0.4392  0.2375
  801SOL    HW1 2402   1.508   1.806   0.956  1.2804 -0.7287 -3.5394
  801SOL    HW2 2403   1.671   1.799   0.915  1.9493 -0.3013 -0.1359
  802SOL     OW 2404   1.243   0.998   0.106  0.2538 -1.1011  0.3012
  802SOL    HW1 2405   1.326   1.008   0.048 -0.3863 -2.5808 -0.2671
  802SOL    HW2 2406   1.179   0.925   0.076  1.5875  0.9154  1.0749
  803SOL     OW 2407   1.010   1.562   1.903 -0.6438  0.3679 -0.3387
  803SOL    HW1 2408   0.917   1.594   1.889  1.1285  1.4754  1.1122
  803SOL    HW2 2409   1.027   1.474   1.851 -0.2428 -1.5262 -0.1534
  804SOL     OW 2410   1.758   2.368   1.168 -0.0339  0.7290 -0.2198
  804SOL    HW1 2411   1.753   2.298   1.241  0.2172 -1.6296 -1.2702
  804SOL    HW2 2412   1.714   2.344   1.082 -0.9460  2.1277  0.1329
  805SOL     OW 2413   0.167   2.440   2.446  0.0070 -0.1125  0.0621
  805SOL    HW1 2414   0.102   2.403   2.377  0.9457  1.0410 -0.5338
  805SOL    HW2 2415   0.256   2.443   2.397  0.4747 -2.1952 -0.6926
  806SOL     OW 2416   1.170   2.882   0.165  0.4650 -0.4303 -0.4082
  806SOL    HW1 2417   1.175   2.982   0.150  0.9904  0.5516 -0.3871
  806SOL    HW2 2418   1.085   2.855   0.215  0.8423 -2.5701 -1.6464
  807SOL     OW 2419   2.587   1.075   2.941 -0.2168  0.1299  0.0563
  807SOL    HW1 2420   2.649   1.057   3.017  0.3818  1.0013  1.3814
  807SOL    HW2 2421   2.629   1.088   2.852 -0.0226 -3.6162 -0.1286
  808SOL     OW 2422   1.439   2.181   0.977  0.0590 -0.3724 -0.0572
  808SOL    HW1 2423   1.540   2.206   0.985 -0.3553 -2.1160 -1.7701
  808SOL    HW2 2424   1.412   2.188   0.878  2.2947  0.4994  1.1340
  809SOL     OW 2425   0.319   0.041   0.611  0.5186  0.3866 -0.2584
  809SOL    HW1 2426   0.262   3.054   0.616 -2.4711 -0.9545 -0.5573
  809SOL    HW2 2427   0.318   0.067   0.509 -1.6165 -3.9816  0.6593
  810SOL     OW 2428   1.114   1.522   0.745 -0.9378 -0.4027  0.5092
  810SOL    HW1 2429   1.124   1.491   0.838  0.7025 -0.3925 -0.1897
  810SOL    HW2 2430   1.059   1.449   0.700 -1.3264 -1.3615  1.1215
  811SOL     OW 2431   1.319   2.914   1.175  0.1349 -0.0265 -0.3642
  811SOL    HW1 2432   1.384   2.837   1.193 -2.0974 -0.7381  1.9071
  811SOL    HW2 2433   1.344   2.994   1.229 -1.4299  0.7032 -0.5833
  812SOL     OW 2434   1.313   0.038   0.337  0.5684 -0.4445 -0.4868
  812SOL    HW1 2435   1.405   0.006   0.374  1.3283 -2.0139 -0.3375
  812SOL    HW2 2436   1.241   0.018   0.406  1.7805 -0.8862  1.0971
  813SOL     OW 2437   1.045   2.995   2.101 -0.4882 -0.0815 -0.4451
  813SOL    HW1 2438   0.958   2.954   2.131 -1.1133  0.9280  1.7623
  813SOL    HW2 2439   1.106   3.015   2.181 -0.7087  0.0733 -0.7341
  814SOL     OW 2440   1.049   2.938   1.215  0.1628 -0.7899  0.1241
  814SOL    HW1 2441   0.977   2.882   1.174  2.0094  2.8802 -0.9695
  814SOL    HW2 2442   1.145   2.915   1.190  0.5767  0.8525  0.8290
  815SOL     OW 2443   0.209   2.464   0.555 -0.1423  0.3056 -0.1050
  815SOL    HW1 2444   0.225   2.521   0.472 -0.2208 -1.3275 -1.1985
  815SOL    HW2 2445   0.167   2.521   0.630  1.3155  0.5211 -0.9350
  816SOL     OW 2446   2.332   1.177   2.627 -0.2204 -0.7895  0.3337
  816SOL    HW1 2447   2.382   1.198   2.713 -0.6768  1.1350 -0.9649
  816SOL    HW2 2448   2.403   1.175   2.554  0.2052  0.7246 -0.9941
  817SOL     OW 2449   1.936   2.408   2.571  0.3632 -0.0713 -0.0930
  817SOL    HW1 2450   2.010   2.434   2.637  0.3970  0.7672  0.3476
  817SOL    HW2 2451   1.892   2.489   2.527  1.8100  1.7116 -1.3573
  818SOL     OW 2452   1.065   1.185   0.431 -0.0053 -0.3289  0.3800
  818SOL    HW1 2453   1.044   1.088   0.433 -0.3812  0.3707  2.3802
  818SOL    HW2 2454   1.159   1.217   0.400  1.9755  1.2065  0.3811
  819SOL     OW 2455   1.538   1.897   0.121  0.1569  0.4218 -0.3795
  819SOL    HW1 2456   1.477   1.929   0.194 -0.5619  0.6805 -0.2155
  819SOL    HW2 2457   1.496   1.915   0.030 -0.0305 -1.5452  0.4360
  820SOL     OW 2458   0.516   0.782   0.251 -0.8847 -0.3261 -0.5264
  820SOL    HW1 2459   0.522   0.698   0.197 -0.2018  1.0086  0.8575
  820SOL    HW2 2460   0.464   0.861   0.200 -0.9995  2.9916  0.4973
  821SOL     OW 2461   0.397   0.075   1.450 -0.2525 -0.7534 -0.3123
  821SOL    HW1 2462   0.467   0.147   1.489 -0.6780 -1.4745  1.6879
  821SOL    HW2 2463   0.310   0.120   1.417  1.1628 -1.6993  0.6156
  822SOL     OW 2464   2.069   2.176   2.463 -0.0585 -0.2909 -0.1980
  822SOL    HW1 2465   2.063   2.268   2.503  1.8756 -3.1120 -0.9931
  822SOL    HW2 2466   2.032   2.109   2.537 -2.1287 -0.6693 -0.5445
  823SOL     OW 2467   0.706   0.554   1.797 -0.5612 -0.1747 -0.3967
  823SOL    HW1 2468   0.788   0.571   1.855  2.0933 -0.7104  1.6559
  823SOL    HW2 2469   0.620   0.563   1.852 -1.4906  1.6472 -2.4021
  824SOL     OW 2470   2.213   0.122   1.662 -0.1324  0.2215  0.1694
  824SOL    HW1 2471   2.223   0.210   1.712 -2.9068  1.8569  0.1774
  824SOL    HW2 2472   2.114   0.097   1.680  0.8735  2.0847 -1.4616
  825SOL     OW 2473   0.554   1.227   2.853  0.2223  0.5537  0.5626
  825SOL    HW1 2474   0.522   1.297   2.916  1.5295 -1.3262  2.4836
  825SOL    HW2 2475   0.590   1.271   2.768  0.9452  0.2137  0.7679
  826SOL     OW 2476   1.791   0.496   2.481 -0.0150  0.3023  0.0732
  826SOL    HW1 2477   1.837   0.582   2.464 -2.5579  0.6655  2.5005
  826SOL    HW2 2478   1.827   0.462   2.573 -1.3209  2.8250  0.4694
  827SOL     OW 2479   0.741   2.391   2.449  0.1819 -0.4684  0.3188
  827SOL    HW1 2480   0.661   2.397   2.511 -2.5424 -0.2134 -0.8193
  827SOL    HW2 2481   0.721   2.420   2.351 -0.5046 -3.0362  1.7959
  828SOL     OW 2482   2.593   0.176   1.428  0.0312 -0.3046 -0.2715
  828SOL    HW1 2483   2.619   0.121   1.343  1.3537  0.0913  0.7538
  828SOL    HW2 2484   2.559   0.269   1.403  0.3079  1.8726 -2.6634
  829SOL     OW 2485   1.244   1.699   1.463 -0.5808  0.4275 -0.2672
  829SOL    HW1 2486   1.278   1.653   1.381 -0.1114  0.0868  0.8884
  829SOL    HW2 2487   1.179   1.640   1.516  0.3821 -2.1345  1.3507
  830SOL     OW 2488   0.686   0.915   1.917  0.5350  0.5026  0.7080
  830SOL    HW1 2489   0.600   0.880   1.869 -2.4892  0.8729 -1.7963
  830SOL    HW2 2490   0.677   0.900   2.018  0.8722 -1.5283  2.2133
  831SOL     OW 2491   2.777   1.697   0.220 -0.0170  0.6970  0.2012
  831SOL    HW1 2492   2.696   1.704   0.163  2.1296  0.2474  0.1180
  831SOL    HW2 2493   2.855   1.745   0.174  1.4168  0.7033  0.6562
  832SOL     OW 2494   1.285   2.717   0.345 -0.4746  0.3593 -0.0337
  832SOL    HW1 2495   1.244   2.751   0.264  0.8012  0.7369 -0.0946
  832SOL    HW2 2496   1.374   2.759   0.359 -2.0930 -0.9274 -2.1050
  833SOL     OW 2497   2.857   0.253   1.512 -0.3836 -0.3767 -0.1807
  833SOL    HW1 2498   2.826   0.325   1.577  0.6013 -0.7712 -0.9885
  833SOL    HW2 2499   2.777   0.198   1.473 -0.2983 -0.9850 -0.5771
  834SOL     OW 2500   0.151   1.117   0.741  0.0507 -0.5812  0.3814
  834SOL    HW1 2501   0.161   1.217   0.717 -0.3521  0.8365  2.3951
  834SOL    HW2 2502   0.242   1.069   0.758 -2.6024 -1.3736  1.4271
  835SOL     OW 2503   2.644   2.955   0.832  0.0469 -0.4281  0.2647
  835SOL    HW1 2504   2.609   3.008   0.751 -0.3482  0.1297 -0.0223
  835SOL    HW2 2505   2.728   2.911   0.794 -1.0455  1.0288 -1.9537
  836SOL     OW 2506   1.193   1.793   2.895 -0.0699  0.4002 -0.3458
  836SOL    HW1 2507   1.101   1.818   2.856  0.4311  0.2960  2.6358
  836SOL    HW2 2508   1.188   1.722   2.971 -1.6478 -1.2310  2.7951
  837SOL     OW 2509   1.652   1.633   0.165 -0.1638  0.4442  0.0361
  837SOL    HW1 2510   1.622   1.728   0.170 -0.6768 -2.5646  0.4624
  837SOL    HW2 2511   1.570   1.570   0.154  1.4218 -0.3778 -1.8091
  838SOL     OW 2512   2.952   0.681   2.270 -0.1805  0.8651 -0.3556
  838SOL    HW1 2513   3.030   0.723   2.324 -0.7131  0.6277  1.5791
  838SOL    HW2 2514   2.866   0.735   2.274 -0.0702 -1.3478 -0.4008
  839SOL     OW 2515   0.678   0.951   2.551 -0.5578 -0.1308  0.1007
  839SOL    HW1 2516   0.591   0.992   2.523  1.4635  1.5210 -2.1226
  839SOL    HW2 2517   0.688   0.963   2.653  0.1227  1.8651 -0.8578
  840SOL     OW 2518   1.262   0.678   2.990 -0.2893  0.1032 -0.3981
  840SOL    HW1 2519   1.346   0.708   3.042 -0.8006 -0.6025  1.7975
  840SOL    HW2 2520   1.180   0.698   3.048  2.1549  0.1039 -0.1332
  841SOL     OW 2521   0.674   2.860   0.692  0.1038 -0.2272  0.1310
  841SOL    HW1 2522   0.628   2.790   0.747  1.7738  0.7534 -1.5914
  841SOL    HW2 2523   0.639   2.952   0.716  0.1164  0.3950 -2.2148
  842SOL     OW 2524   0.377   0.612   0.705 -0.2092 -0.0305  0.3355
  842SOL    HW1 2525   0.324   0.538   0.657 -1.0314 -1.4162 -4.3229
  842SOL    HW2 2526   0.397   0.685   0.639  0.8320  0.4919  0.6942
  843SOL     OW 2527   0.538   0.981   1.122  0.6370  0.0770 -0.0264
  843SOL    HW1 2528   0.554   0.904   1.059 -1.1674 -0.1601  2.3305
  843SOL    HW2 2529   0.474   1.050   1.085 -3.2625  0.1202 -3.3368
  844SOL     OW 2530   2.174   2.507   2.714 -0.4204  0.0390 -0.0931
  844SOL    HW1 2531   2.204   2.591   2.668 -0.8672  3.0033  1.5769
  844SOL    HW2 2532   2.257   2.463   2.762  1.0014  1.2418  0.9994
  845SOL     OW 2533   1.960   0.041   1.746 -0.3483  0.1864 -0.2532
  845SOL    HW1 2534   1.981   3.081   1.827 -1.2612 -0.7137 -1.4598
  845SOL    HW2 2535   1.858   0.034   1.733  3.4123  2.4846  1.1038
  846SOL     OW 2536   2.216   1.374   2.463  1.1232  0.3760 -0.6488
  846SOL    HW1 2537   2.241   1.354   2.367  2.8844  0.6661 -1.5727
  846SOL    HW2 2538   2.230   1.296   2.525  0.5393  1.0103  0.8472
  847SOL     OW 2539   2.028   2.999   1.958 -0.1491 -0.5816  0.1868
  847SOL    HW1 2540   1.966   2.961   2.032  2.3683 -1.3006  3.0379
  847SOL    HW2 2541   2.099   2.932   1.947 -1.6308  1.7083  0.6887
  848SOL     OW 2542   0.135   2.996   0.213 -0.1304 -0.0932  0.1294
  848SOL    HW1 2543   0.088   2.980   0.125  3.1028 -3.2697  0.9527
  848SOL    HW2 2544   0.083   2.954   0.284  2.4790 -2.0687 -3.0693
  849SOL     OW 2545   0.184   2.823   1.266 -0.2597  0.1268 -0.4307
  849SOL    HW1 2546   0.182   2.852   1.366 -1.1473 -0.1255  4.2311
  849SOL    HW2 2547   0.224   2.893   1.206 -2.2383  0.8203 -0.6694
  850SOL     OW 2548   0.414   1.905   0.566  0.0564  0.3109  0.5593
  850SOL    HW1 2549   0.493   1.845   0.590  0.0563 -0.1088  2.3771
  850SOL    HW2 2550   0.432   1.983   0.501 -1.2859 -0.1640  0.9648
  851SOL     OW 2551   2.457   0.806   2.881 -0.0137 -0.3146 -0.1837
  851SOL    HW1 2552   2.454   0.826   2.781 -0.0215  0.4834  3.9368
  851SOL    HW2 2553   2.550   0.831   2.919  0.5888  1.3571  1.2988
  852SOL     OW 2554   1.973   1.998   2.673 -0.1911 -0.1043 -0.0597
  852SOL    HW1 2555   1.933   1.906   2.649  1.4274  0.5472  0.1113
  852SOL    HW2 2556   1.945   2.015   2.768 -0.2796 -0.3815 -0.7897
  853SOL     OW 2557   0.634   1.865   0.237 -0.2986  0.2281  0.4562
  853SOL    HW1 2558   0.599   1.772   0.223  1.6828  0.9199 -1.2101
  853SOL    HW2 2559   0.706   1.869   0.307 -0.5775  0.7281 -0.5354
  854SOL     OW 2560   1.699   1.144   2.112 -0.5829  0.3414 -0.0070
  854SOL    HW1 2561   1.628   1.070   2.104 -2.2024 -0.4009  0.6443
  854SOL    HW2 2562   1.686   1.213   2.037  2.9187  0.0056 -2.1018
  855SOL     OW 2563   0.752   2.361   3.095 -0.1898  0.4272  0.4430
  855SOL    HW1 2564   0.675   2.294   3.090  0.0081  0.6035  2.5216
  855SOL    HW2 2565   0.755   2.406   3.006  0.8992 -0.1489 -1.1448
  856SOL     OW 2566   0.409   3.094   2.118  0.4619  0.3688 -0.3674
  856SOL    HW1 2567   0.429   3.028   2.039 -1.5587 -1.4153  0.4631
  856SOL    HW2 2568   0.496   0.014   2.171  0.0405 -0.3119 -0.8582
  857SOL     OW 2569   0.576   0.150   1.808  0.5892 -0.6298  0.0798
  857SOL    HW1 2570   0.666   0.142   1.850  0.0238  0.3463 -0.7941
  857SOL    HW2 2571   0.526   0.227   1.856 -1.8380 -2.1116  1.4258
  858SOL     OW 2572   0.256   1.965   2.183  0.1184 -0.0198 -0.0406
  858SOL    HW1 2573   0.303   2.005   2.264 -2.3658 -0.9623  0.2183
  858SOL    HW2 2574   0.273   2.031   2.106  1.0567  0.1179 -2.0955
  859SOL     OW 2575   2.027   2.296   1.444  0.1102  0.3825  0.1810
  859SOL    HW1 2576   2.110   2.288   1.385 -3.0314 -1.6325  0.0580
  859SOL    HW2 2577   2.003   2.396   1.457 -1.2080  0.3884 -0.9545
  860SOL     OW 2578   1.712   0.348   0.622 -0.0465  0.2127 -0.1367
  860SOL    HW1 2579   1.757   0.427   0.662  0.9085  2.5481  0.4795
  860SOL    HW2 2580   1.614   0.364   0.627  1.9073  1.0632 -0.8899
  861SOL     OW 2581   0.086   0.672   1.171  0.0557  0.4065 -0.1881
  861SOL    HW1 2582   0.107   0.737   1.244  1.1923  0.2636 -5.4807
  861SOL    HW2 2583   0.047   0.717   1.088 -0.3151  3.3552 -0.7398
  862SOL     OW 2584   2.251   0.919   1.413  0.0806  0.0049 -0.0141
  862SOL    HW1 2585   2.270   0.900   1.509  0.9807  0.0170 -4.2532
  862SOL    HW2 2586   2.189   1.000   1.408  0.4474  1.0797  1.1693
  863SOL     OW 2587   0.246   1.323   1.309  0.3078  0.5008  0.0886
  863SOL    HW1 2588   0.269   1.289   1.403 -0.1273 -1.5611  4.4814
  863SOL    HW2 2589   0.277   1.419   1.298 -2.8585 -2.7218 -0.9328
  864SOL     OW 2590   2.355   3.044   1.934  0.0569 -0.0348  0.3870
  864SOL    HW1 2591   2.451   3.011   1.959  0.3944 -1.1848 -0.1730
  864SOL    HW2 2592   2.355   0.043   1.914  2.8912  0.7901  0.7734
  865SOL     OW 2593   1.157   0.388   2.040  0.0483  0.0348 -0.1993
  865SOL    HW1 2594   1.155   0.348   1.946 -1.5861  1.2827  2.9746
  865SOL    HW2 2595   1.247   0.432   2.052 -0.3883 -1.3566  0.0028
  866SOL     OW 2596   2.332   2.821   0.632 -0.2744 -0.5414 -0.1517
  866SOL    HW1 2597   2.349   2.832   0.733 -0.0238  0.4904 -2.6468
  866SOL    HW2 2598   2.397   2.756   0.596 -0.6304  1.0336 -1.6088
  867SOL     OW 2599   2.842   2.760   0.747  0.4602 -0.1939  0.0773
  867SOL    HW1 2600   2.770   2.681   0.740 -4.1707 -3.7148 -1.6177
  867SOL    HW2 2601   2.889   2.777   0.835 -0.0610  1.9342  1.5051
  868SOL     OW 2602   1.657   1.671   2.860  0.6361  0.0848 -0.3796
  868SOL    HW1 2603   1.749   1.678   2.901 -3.6454  0.1951 -2.8059
  868SOL    HW2 2604   1.633   1.760   2.816  0.1353 -0.5063  1.6755
  869SOL     OW 2605   2.672   2.251   0.642  0.1012 -0.5576 -0.2790
  869SOL    HW1 2606   2.605   2.246   0.719 -0.3465 -0.8365 -2.9406
  869SOL    HW2 2607   2.621   2.267   0.555 -0.1153  1.0703  2.6166
  870SOL     OW 2608   2.842   2.117   0.284  0.0505 -0.0822  0.0724
  870SOL    HW1 2609   2.757   2.164   0.326 -4.5554 -1.1386  0.1613
  870SOL    HW2 2610   2.855   2.030   0.330 -1.5284 -1.3826  0.0797
  871SOL     OW 2611   0.308   1.169   1.085 -0.4006  0.1159 -0.1832
  871SOL    HW1 2612   0.268   1.208   1.172 -1.4580 -2.0582 -0.8353
  871SOL    HW2 2613   0.265   1.217   1.007  0.6824 -0.1953 -0.8307
  872SOL     OW 2614   0.961   1.775   2.414  0.2118 -0.0300  0.0657
  872SOL    HW1 2615   0.941   1.786   2.314 -1.3701 -1.3202  2.0825
  872SOL    HW2 2616   0.901   1.843   2.469  1.3195 -0.1403  4.8462
  873SOL     OW 2617   0.348   2.945   1.898  0.5305  0.2705  0.3479
  873SOL    HW1 2618   0.331   2.847   1.919  1.2187 -1.0300 -1.2743
  873SOL    HW2 2619   0.425   2.947   1.829 -0.8498 -1.4710 -0.5350
  874SOL     OW 2620   0.906   0.630   1.962  0.3684 -0.0993  0.1154
  874SOL    HW1 2621   0.921   0.730   1.934 -0.3167  3.6353  1.0630
  874SOL    HW2 2622   0.986   0.591   2.010  0.6504 -0.5379 -1.8775
  875SOL     OW 2623   2.850   0.229   1.069 -0.5145 -0.9516  0.3350
  875SOL    HW1 2624   2.905   0.301   1.117  1.6124  0.7873  0.7097
  875SOL    HW2 2625   2.806   0.161   1.135 -2.6881 -0.7377  2.3196
  876SOL     OW 2626   0.645   1.141   0.412 -0.0345  0.1652 -0.8643
  876SOL    HW1 2627   0.601   1.133   0.322 -2.4016  0.3548  0.9331
  876SOL    HW2 2628   0.728   1.202   0.406  1.1363  2.7579 -0.3492
  877SOL     OW 2629   1.090   1.080   1.689 -0.2195 -0.2981 -0.3883
  877SOL    HW1 2630   1.173   1.054   1.639 -3.7161  2.3561  1.1916
  877SOL    HW2 2631   1.039   1.003   1.733  1.6333 -0.4831 -1.2221
  878SOL     OW 2632   2.349   2.101   0.477 -0.4834 -0.4229  0.2277
  878SOL    HW1 2633   2.383   2.039   0.405 -0.2869  2.6618 -4.5238
  878SOL    HW2 2634   2.378   2.196   0.445  0.9783  0.8576  0.7805
  879SOL     OW 2635   2.660   1.576   1.576 -0.3616  0.1258  0.3759
  879SOL    HW1 2636   2.695   1.526   1.496  0.0119  0.8876 -0.9477
  879SOL    HW2 2637   2.713   1.659   1.601 -1.1468  0.8037  2.1359
  880SOL     OW 2638   1.137   2.559   0.954 -0.0800 -0.1219  0.0796
  880SOL    HW1 2639   1.193   2.636   0.922 -0.7721  0.3610 -0.0703
  880SOL    HW2 2640   1.142   2.540   1.054 -3.3373  0.5884 -3.0339
  881SOL     OW 2641   0.505   2.079   0.371  0.0977  0.0613 -0.1099
  881SOL    HW1 2642   0.544   2.005   0.320 -0.0953 -0.2059 -1.1143
  881SOL    HW2 2643   0.444   2.143   0.317 -0.6239  1.2459 -1.5509
  882SOL     OW 2644   2.110   0.709   0.622 -0.4972  0.1175 -0.3791
  882SOL    HW1 2645   2.073   0.683   0.531 -0.8531  1.4108  0.6930
  882SOL    HW2 2646   2.081   0.647   0.695  0.2087 -0.5495 -0.1761
  883SOL     OW 2647   1.392   0.767   1.003  0.4372  0.2388 -0.1434
  883SOL    HW1 2648   1.305   0.781   0.946 -0.6923 -2.1203 -1.7194
  883SOL    HW2 2649   1.445   0.856   0.997  3.8583  1.5115  0.4885
  884SOL     OW 2650   2.828   2.760   0.270  0.2418  0.3201  0.1829
  884SOL    HW1 2651   2.852   2.844   0.217 -1.3278  0.8294  1.6651
  884SOL    HW2 2652   2.878   2.753   0.360 -1.8074 -2.4740 -1.4272
  885SOL     OW 2653   1.025   1.391   2.375 -0.3257 -0.2366  0.4743
  885SOL    HW1 2654   1.011   1.327   2.452 -3.1875  1.2648 -0.4971
  885SOL    HW2 2655   1.094   1.349   2.316  0.3048  1.2829  1.6194
  886SOL     OW 2656   1.401   1.817   2.698  0.6004 -0.0435  0.1849
  886SOL    HW1 2657   1.329   1.788   2.759 -0.1307  0.0560  1.1348
  886SOL    HW2 2658   1.359   1.884   2.630 -2.0709 -0.2845 -1.1656
  887SOL     OW 2659   1.105   0.535   1.109 -0.2853 -0.1559 -0.0995
  887SOL    HW1 2660   1.190   0.514   1.052  1.3850 -2.2796  0.5334
  887SOL    HW2 2661   1.122   0.606   1.180  2.0415 -0.1889 -1.0339
  888SOL     OW 2662   2.255   0.582   1.772  0.5832  0.0747 -0.6709
  888SOL    HW1 2663   2.184   0.505   1.773  1.9804 -0.5435  0.3431
  888SOL    HW2 2664   2.279   0.610   1.866  1.8063 -0.6255  3.6522
  889SOL     OW 2665   0.172   2.165   0.855  0.4499 -0.2019  0.1403
  889SOL    HW1 2666   0.118   2.211   0.781  1.8116  2.5531  2.8515
  889SOL    HW2 2667   0.265   2.208   0.863  0.5202  1.2383 -0.0055
  890SOL     OW 2668   1.515   2.191   0.472  0.1221 -0.2140 -0.2862
  890SOL    HW1 2669   1.575   2.105   0.473  1.2384  1.8117  0.8298
  890SOL    HW2 2670   1.438   2.181   0.406 -2.8934 -1.5568  0.8489
  891SOL     OW 2671   2.757   0.803   3.039 -0.3366  0.1935 -0.1277
  891SOL    HW1 2672   2.693   0.791   0.026 -1.1275 -0.5645  1.0881
  891SOL    HW2 2673   2.797   0.896   3.047 -2.5166 -1.3580 -0.9243
  892SOL     OW 2674   2.909   2.196   1.133  0.1224 -0.1700  0.3039
  892SOL    HW1 2675   2.871   2.289   1.104 -4.4167  2.1708 -0.7388
  892SOL    HW2 2676   2.957   2.208   1.225  1.2964  0.8400  2.7877
  893SOL     OW 2677   1.322   0.514   0.940 -0.2847  0.1799 -0.8096
  893SOL    HW1 2678   1.391   0.446   0.905  0.6264  0.1969  2.8727
  893SOL    HW2 2679   1.366   0.607   0.956 -2.1258 -0.5272 -0.5339
  894SOL     OW 2680   2.866   0.564   0.819  0.3481 -0.0245  0.3016
  894SOL    HW1 2681   2.783   0.626   0.803  0.7929  2.7540  1.6292
  894SOL    HW2 2682   2.848   0.474   0.778 -0.6962  3.6612  1.0083
  895SOL     OW 2683   1.874   1.378   2.595  0.4171  0.6305 -0.1867
  895SOL    HW1 2684   1.896   1.460   2.544  1.4772 -0.9939 -0.0919
  895SOL    HW2 2685   1.960   1.324   2.610 -2.4279  0.4399 -1.3581
  896SOL     OW 2686   1.754   0.633   1.316  0.2367 -0.8103 -0.1649
  896SOL    HW1 2687   1.791   0.649   1.228 -3.3771 -0.6184  4.6931
  896SOL    HW2 2688   1.760   0.532   1.333  2.1325  3.7033  1.0276
  897SOL     OW 2689   3.072   1.376   1.289 -0.1037  0.0674 -0.1763
  897SOL    HW1 2690   0.062   1.326   1.286 -1.1585  3.4158 -2.4878
  897SOL    HW2 2691   3.046   1.427   1.204  0.3129  0.4206 -0.1634
  898SOL     OW 2692   1.960   2.601   2.154  0.1996  0.1422 -0.0111
  898SOL    HW1 2693   1.994   2.615   2.058 -0.4465 -0.4869 -1.5200
  898SOL    HW2 2694   2.021   2.527   2.193 -1.2369 -1.4246 -2.0837
  899SOL     OW 2695   1.135   1.736   1.111 -0.1341 -0.4991  0.0300
  899SOL    HW1 2696   1.159   1.821   1.161  0.1672  0.8049 -3.3271
  899SOL    HW2 2697   1.043   1.747   1.073  0.4234  0.9170  0.1681
  900SOL     OW 2698   1.332   1.981   2.500 -0.2743  0.0437  0.3922
  900SOL    HW1 2699   1.374   1.971   2.403  1.1393  0.0024 -0.0806
  900SOL    HW2 2700   1.253   2.037   2.484  2.6684  1.0584  1.0548
  901SOL     OW 2701   0.908   1.505   2.150  0.4696  0.0028 -0.5256
  901SOL    HW1 2702   0.962   1.490   2.066  1.1934  0.7625  1.0694
  901SOL    HW2 2703   0.954   1.465   2.230  0.8808 -0.8270 -0.0483
  902SOL     OW 2704   2.251   1.482   0.299  0.5097  0.6031 -0.0239
  902SOL    HW1 2705   2.320   1.439   0.238 -0.6212  0.8509  0.5060
  902SOL    HW2 2706   2.246   1.440   0.395 -2.6666  0.2064  1.6610
  903SOL     OW 2707   2.040   1.643   0.225  0.3428  0.1764 -0.0719
  903SOL    HW1 2708   2.118   1.589   0.265  0.5561  0.1887  0.2914
  903SOL    HW2 2709   1.950   1.590   0.223 -4.6641  0.5473  1.2763
  904SOL     OW 2710   1.145   0.972   2.211  0.4231 -0.5171  0.5174
  904SOL    HW1 2711   1.185   0.996   2.122 -2.0733 -0.8413  2.2705
  904SOL    HW2 2712   1.209   0.989   2.289  0.6384 -1.0618  2.7351
  905SOL     OW 2713   2.531   0.327   0.744  0.3824  0.3925  0.1296
  905SOL    HW1 2714   2.633   0.318   0.738  0.1888 -1.2268 -1.2922
  905SOL    HW2 2715   2.504   0.417   0.706 -0.8887 -0.2312  1.6380
  906SOL     OW 2716   0.143   2.112   0.168  0.8834  0.6958  0.0016
  906SOL    HW1 2717   0.232   2.148   0.201  0.1951  1.9634  0.2068
  906SOL    HW2 2718   0.136   2.011   0.181  1.6150 -1.3173  1.5772
  907SOL     OW 2719   1.518   0.247   0.065  0.2333 -0.4952 -0.5529
  907SOL    HW1 2720   1.500   0.154   0.095  2.2738  2.8133 -0.2446
  907SOL    HW2 2721   1.617   0.267   0.089  1.1514  0.1443  2.1763
  908SOL     OW 2722   1.686   2.766   1.586 -0.3178 -0.3058 -0.3303
  908SOL    HW1 2723   1.721   2.694   1.650 -1.7065 -1.0969 -0.0419
  908SOL    HW2 2724   1.618   2.821   1.649  0.8108  3.4905  0.4852
  909SOL     OW 2725   2.661   0.774   1.642 -0.3884 -0.0045 -0.2791
  909SOL    HW1 2726   2.616   0.707   1.703  0.8090 -0.8593 -1.2887
  909SOL    HW2 2727   2.751   0.801   1.680  1.7692 -0.6193  0.4940
  910SOL     OW 2728   1.049   0.105   2.403 -0.0536  0.2039  0.4200
  910SOL    HW1 2729   1.151   0.100   2.404 -1.8740 -0.5125  2.2304
  910SOL    HW2 2730   1.004   0.017   2.377  0.7427  0.0880  0.5866
  911SOL     OW 2731   2.561   1.166   2.485  0.1149  0.5669  0.8927
  911SOL    HW1 2732   2.611   1.178   2.577 -3.5281  0.8924  4.3654
  911SOL    HW2 2733   2.614   1.177   2.397 -1.4690 -0.5719 -1.0786
  912SOL     OW 2734   2.411   2.133   1.628  0.0543  0.0598  0.1772
  912SOL    HW1 2735   2.354   2.216   1.630  0.7720 -0.4617  1.9793
  912SOL    HW2 2736   2.371   2.057   1.567  1.6981 -0.3008 -1.7290
  913SOL     OW 2737   2.471   2.518   1.405  0.0760 -0.6283 -0.0505
  913SOL    HW1 2738   2.572   2.509   1.392  0.6549  0.0292 -0.1016
  913SOL    HW2 2739   2.439   2.616   1.395 -2.8418 -2.4715  0.6933
  914SOL     OW 2740   2.267   1.948   1.453 -1.1096  0.5594  0.0222
  914SOL    HW1 2741   2.336   1.873   1.458 -2.1592 -1.5212  0.7819
  914SOL    HW2 2742   2.252   1.992   1.359 -0.4830 -0.0360  0.3657
  915SOL     OW 2743   1.236   2.394   1.521 -0.7130 -0.0481  0.3717
  915SOL    HW1 2744   1.193   2.327   1.580  0.5872 -1.2739 -1.2568
  915SOL    HW2 2745   1.342   2.381   1.532  2.9316 -1.1189  2.5917
  916SOL     OW 2746   2.792   2.448   1.058  0.4840  0.5309 -0.0451
  916SOL    HW1 2747   2.834   2.542   1.049  1.1926 -1.6861  0.3902
  916SOL    HW2 2748   2.696   2.452   1.018  1.0688 -1.5397 -0.2413
  917SOL     OW 2749   2.998   1.202   2.940 -0.0045  0.0040 -0.3644
  917SOL    HW1 2750   3.095   1.178   2.948  1.3550  1.1273  0.8848
  917SOL    HW2 2751   2.970   1.224   2.845  0.2834 -0.1479  0.6149
  918SOL     OW 2752   1.877   1.753   2.610  0.1070  0.1270  0.7238
  918SOL    HW1 2753   1.928   1.681   2.558 -1.5125 -1.0772  1.2432
  918SOL    HW2 2754   1.778   1.749   2.597  0.5257 -0.9055 -2.1815
  919SOL     OW 2755   1.475   2.084   1.428 -0.0192 -0.3206 -0.5623
  919SOL    HW1 2756   1.494   2.032   1.519 -0.4025  0.0449  1.4909
  919SOL    HW2 2757   1.560   2.084   1.370  0.5866  0.8420  0.3313
  920SOL     OW 2758   0.544   0.109   3.024 -0.3954  0.0798 -0.2866
  920SOL    HW1 2759   0.571   0.055   0.008  1.9308 -1.5778 -1.6192
  920SOL    HW2 2760   0.443   0.113   3.017  1.4353  0.4539 -1.1586
  921SOL     OW 2761   2.637   0.024   2.627 -0.0552  0.2199 -0.0569
  921SOL    HW1 2762   2.596   3.083   2.539  0.0479 -0.8581 -0.2426
  921SOL    HW2 2763   2.735   0.056   2.621  2.5256 -0.7865 -0.6083
  922SOL     OW 2764   2.440   1.741   1.550 -0.1194  0.2469 -0.0180
  922SOL    HW1 2765   2.525   1.684   1.556 -2.8596 -2.6249  1.8971
  922SOL    HW2 2766   2.398   1.746   1.642 -0.8331 -1.2475  1.9628
  923SOL     OW 2767   0.986   2.019   0.031  0.5913  0.0582  0.3019
  923SOL    HW1 2768   0.963   2.043   0.128 -1.7844  0.1628 -2.1187
  923SOL    HW2 2769   1.052   2.087   3.090 -0.5577  2.3498  1.1796
  924SOL     OW 2770   1.641   0.646   2.698  0.3003  0.1386  0.0716
  924SOL    HW1 2771   1.644   0.643   2.799  0.4634 -1.7101  1.2822
  924SOL    HW2 2772   1.680   0.564   2.649  0.4875 -0.8234 -1.2984
  925SOL     OW 2773   2.700   0.811   0.496 -0.0377 -0.4915 -0.0754
  925SOL    HW1 2774   2.645   0.892   0.471  2.1133 -1.7765  2.6187
  925SOL    HW2 2775   2.687   0.779   0.590 -1.0059  2.9846 -1.6579
  926SOL     OW 2776   0.060   0.358   0.901 -0.2520  0.4784 -0.0667
  926SOL    HW1 2777   0.136   0.288   0.892  2.8433 -0.8774 -0.7941
  926SOL    HW2 2778   0.043   0.385   0.996  2.1883 -0.0955 -1.6310
  927SOL     OW 2779   0.978   1.295   0.667  0.1734  0.5314 -0.2525
  927SOL    HW1 2780   1.017   1.240   0.589  0.1591  1.9146 -1.7615
  927SOL    HW2 2781   0.882   1.318   0.641  0.3574  0.2514  2.1081
  928SOL     OW 2782   0.079   0.052   2.598 -0.4575 -0.1744  0.3116
  928SOL    HW1 2783   0.151   3.079   2.599  0.4248  1.0516  0.0943
  928SOL    HW2 2784   0.111   0.132   2.541 -0.1030  2.2697  1.2168
  929SOL     OW 2785   2.251   0.442   1.420  0.4403 -0.1332 -0.4654
  929SOL    HW1 2786   2.235   0.542   1.388  2.7994  3.2647 -2.3270
  929SOL    HW2 2787   2.347   0.431   1.454  0.4853 -2.2667  1.2630
  930SOL     OW 2788   1.773   2.152   1.356 -0.4559  0.6533  0.5021
  930SOL    HW1 2789   1.835   2.201   1.423 -1.6078  0.5301 -1.0382
  930SOL    HW2 2790   1.818   2.071   1.319 -1.6583  2.6157  2.6770
  931SOL     OW 2791   1.801   0.813   0.787 -0.1881  0.4868 -0.5291
  931SOL    HW1 2792   1.777   0.857   0.700  1.3983 -0.7297 -0.2599
  931SOL    HW2 2793   1.838   0.878   0.854  0.3751  2.5021  0.4264
  932SOL     OW 2794   0.055   1.057   1.261  0.4256  0.3863  0.4461
  932SOL    HW1 2795   3.085   0.996   1.306  5.3158 -1.7914 -1.7205
  932SOL    HW2 2796   0.148   1.021   1.280  0.4383  1.2953  0.3916
  933SOL     OW 2797   2.592   1.524   2.001  0.6733 -0.3023 -0.0857
  933SOL    HW1 2798   2.684   1.476   2.001 -0.2390  0.5286  2.7324
  933SOL    HW2 2799   2.595   1.617   1.956  0.9253  1.8102 -1.0290
  934SOL     OW 2800   1.672   3.016   1.247 -0.0469  0.2369  0.0652
  934SOL    HW1 2801   1.591   3.075   1.260 -0.9885 -0.9922  0.8066
  934SOL    HW2 2802   1.705   3.018   1.149  1.3118  0.5626 -2.2776
  935SOL     OW 2803   0.036   1.066   0.981 -0.7334  0.6508  0.1297
  935SOL    HW1 2804   0.059   1.089   1.079 -0.6519  0.0425  0.8979
  935SOL    HW2 2805   0.106   1.088   0.912 -2.7987  1.8847 -3.4133
  936SOL     OW 2806   2.863   1.125   0.973 -0.0123 -0.4309  0.9531
  936SOL    HW1 2807   2.960   1.086   0.963  1.3258 -1.2603 -1.0651
  936SOL    HW2 2808   2.807   1.106   0.894 -0.2996  1.9465  4.9321
  937SOL     OW 2809   1.457   3.075   0.714 -0.1667 -0.6571  0.3714
  937SOL    HW1 2810   1.465   0.003   0.618 -1.2325 -2.8568 -1.7641
  937SOL    HW2 2811   1.501   2.988   0.739 -0.5824  0.1857  2.3275
  938SOL     OW 2812   2.924   2.374   0.689 -0.0850  0.3811 -0.2758
  938SOL    HW1 2813   2.834   2.332   0.702 -0.3137  1.9529 -2.1135
  938SOL    HW2 2814   2.972   2.394   0.780  2.0949  1.0584  0.9739
  939SOL     OW 2815   0.953   1.873   2.805  0.1884  0.2823 -0.1226
  939SOL    HW1 2816   0.924   1.969   2.821 -2.5267  0.2273 -0.0587
  939SOL    HW2 2817   0.899   1.841   2.725 -0.2780  1.2222 -0.8729
  940SOL     OW 2818   2.720   2.622   2.659 -0.5141  0.0686 -0.3034
  940SOL    HW1 2819   2.743   2.589   2.566  1.6307 -0.4177  1.8316
  940SOL    HW2 2820   2.617   2.644   2.659 -2.7577  2.6056 -0.5829
  941SOL     OW 2821   1.270   2.790   3.022 -0.7316 -0.4666  0.7624
  941SOL    HW1 2822   1.242   2.843   0.006 -2.1784 -0.4737 -3.0789
  941SOL    HW2 2823   1.364   2.751   3.042 -1.5730 -2.8002  0.1014
  942SOL     OW 2824   1.637   1.804   1.469 -0.1550  0.1842 -0.5086
  942SOL    HW1 2825   1.611   1.708   1.494  0.4423  1.8957 -0.5900
  942SOL    HW2 2826   1.624   1.862   1.551  0.1756 -1.5372 -2.7280
  943SOL     OW 2827   2.218   1.441   1.710 -0.0696 -0.2169  0.3624
  943SOL    HW1 2828   2.235   1.387   1.625  0.2761 -0.4934  1.1429
  943SOL    HW2 2829   2.297   1.501   1.726 -3.8208  2.7379 -0.6675
  944SOL     OW 2830   1.968   1.016   1.965 -0.3213 -0.5156 -0.0894
  944SOL    HW1 2831   1.992   1.077   1.884 -2.3888  2.3538 -1.0643
  944SOL    HW2 2832   1.985   1.070   2.052 -1.8546  1.0375  1.7396
  945SOL     OW 2833   2.753   0.025   1.243  0.4960 -0.2753 -0.2390
  945SOL    HW1 2834   2.696   3.075   1.177  1.0835 -1.4619 -0.4569
  945SOL    HW2 2835   2.780   3.062   1.325  0.0819  1.4629  1.1101
  946SOL     OW 2836   0.762   1.158   1.844 -0.8424  0.2840 -0.4375
  946SOL    HW1 2837   0.852   1.193   1.865  0.4104 -0.3296  0.8042
  946SOL    HW2 2838   0.753   1.064   1.887 -0.3548 -4.6356  1.8684
  947SOL     OW 2839   0.478   2.686   0.822 -0.4551 -0.0796  0.2778
  947SOL    HW1 2840   0.478   2.670   0.920  2.2075  0.7156  1.2222
  947SOL    HW2 2841   0.503   2.603   0.766  1.2714 -1.0031 -1.4190
  948SOL     OW 2842   0.042   1.307   1.810 -0.4313  0.5996 -0.3351
  948SOL    HW1 2843   0.041   1.247   1.897  3.0593 -1.0693  2.2502
  948SOL    HW2 2844   0.110   1.379   1.818 -0.9507  1.1853  2.5101
  949SOL     OW 2845   0.461   0.651   2.239 -0.3039  0.7943  0.4918
  949SOL    HW1 2846   0.502   0.683   2.326 -1.0127  0.6877  0.2304
  949SOL    HW2 2847   0.472   0.549   2.228  0.4660 -1.5326  2.7055
  950SOL     OW 2848   0.643   0.530   0.900  0.2151 -0.3319 -0.0112
  950SOL    HW1 2849   0.589   0.615   0.879 -0.4950  0.7533  1.2024
  950SOL    HW2 2850   0.713   0.515   0.829 -2.7119 -0.2142 -0.4326
  951SOL     OW 2851   1.214   1.742   1.964 -0.2676  0.1454 -0.2086
  951SOL    HW1 2852   1.185   1.812   2.031  1.6599  0.2557 -0.6153
  951SOL    HW2 2853   1.143   1.671   1.939 -1.8292  2.4318  0.9659
  952SOL     OW 2854   0.949   1.382   3.060 -0.4559  0.4124 -0.6868
  952SOL    HW1 2855   1.021   1.427   0.020 -0.5324 -1.6045  0.6330
  952SOL    HW2 2856   0.982   1.349   2.972 -0.0126 -0.0548 -1.7566
  953SOL     OW 2857   1.299   2.803   2.109 -0.4123  0.2622 -0.0071
  953SOL    HW1 2858   1.246   2.738   2.158 -0.5172  1.0611 -0.9906
  953SOL    HW2 2859   1.282   2.801   2.008 -1.0207  0.8087  2.0119
  954SOL     OW 2860   2.218   1.136   0.513  0.3105 -0.0234  1.1017
  954SOL    HW1 2861   2.207   1.128   0.410 -0.5010  0.6002 -2.3693
  954SOL    HW2 2862   2.196   1.231   0.541  0.0726  0.3483  0.5852
  955SOL     OW 2863   0.252   2.118   2.435  0.0164  0.0348  0.4837
  955SOL    HW1 2864   0.272   2.200   2.373  2.0023 -2.5699 -0.2264
  955SOL    HW2 2865   0.172   2.138   2.493  2.0999 -0.0332  1.0157
  956SOL     OW 2866   1.053   1.274   1.332 -0.3117  0.2485 -0.0775
  956SOL    HW1 2867   1.133   1.218   1.332 -0.2949  2.7856 -2.6444
  956SOL    HW2 2868   1.021   1.294   1.240  1.5488  0.0623  0.6912
  957SOL     OW 2869   2.068   1.215   2.692 -0.9352  0.2129 -0.4191
  957SOL    HW1 2870   2.012   1.186   2.773 -1.1982  2.1291 -1.9778
  957SOL    HW2 2871   2.165   1.185   2.704 -1.3167  0.6367  0.6995
  958SOL     OW 2872   1.545   2.581   0.995  0.6566 -0.4349 -0.5798
  958SOL    HW1 2873   1.639   2.592   1.026 -0.1906  0.5256  0.7748
  958SOL    HW2 2874   1.484   2.583   1.081 -0.5019 -0.3887 -0.2476
  959SOL     OW 2875   1.744   1.690   2.305 -0.0900 -0.1787 -0.0376
  959SOL    HW1 2876   1.740   1.590   2.290 -1.2058 -0.1920  0.0698
  959SOL    HW2 2877   1.687   1.717   2.386  0.5919  1.0425 -0.0144
  960SOL     OW 2878   0.006   0.566   2.705 -0.5591  0.2562  0.1347
  960SOL    HW1 2879   0.096   0.602   2.682  1.0398  0.9668  3.3290
  960SOL    HW2 2880   0.009   0.512   2.792 -0.0178 -1.9086 -0.6844
  961SOL     OW 2881   0.468   0.664   1.936  0.2691  0.5385  0.5515
  961SOL    HW1 2882   0.466   0.663   2.035 -1.9377 -0.3584 -3.8811
  961SOL    HW2 2883   0.429   0.751   1.905  0.8055  0.3544 -1.4736
  962SOL     OW 2884   1.416   1.552   0.327  0.1463  0.8457 -0.2077
  962SOL    HW1 2885   1.417   1.481   0.253  1.0187 -1.1017  0.6518
  962SOL    HW2 2886   1.379   1.512   0.414 -1.3641  0.3015 -0.7629
  963SOL     OW 2887   1.783   2.249   3.026  0.0861 -0.0820  0.0541
  963SOL    HW1 2888   1.868   2.275   2.974  2.3205  1.7046  0.1582
  963SOL    HW2 2889   1.695   2.247   2.965 -2.6236  0.4083 -0.4074
  964SOL     OW 2890   1.110   2.674   0.582 -0.6588 -0.3178 -0.1315
  964SOL    HW1 2891   1.155   2.715   0.497 -0.6993  1.8547 -1.8123
  964SOL    HW2 2892   1.053   2.741   0.639 -0.8986 -2.0265  1.2193
  965SOL     OW 2893   0.951   2.839   0.715 -0.1450 -0.7874 -0.2067
  965SOL    HW1 2894   0.866   2.883   0.683  0.3289  0.0229 -1.4866
  965SOL    HW2 2895   0.926   2.790   0.800 -0.5802  1.1032 -0.8882
  966SOL     OW 2896   0.004   1.481   2.921  0.2116 -1.2874 -0.2611
  966SOL    HW1 2897   0.015   1.398   2.972 -0.5845  0.4665 -0.9872
  966SOL    HW2 2898   3.006   1.518   2.939 -1.5816 -0.5122 -1.9082
  967SOL     OW 2899   1.267   2.774   1.839 -0.3608  0.2107 -0.0999
  967SOL    HW1 2900   1.241   2.721   1.753 -0.2647  1.3471 -2.1357
  967SOL    HW2 2901   1.237   2.869   1.831  1.9721  1.9305  0.3244
  968SOL     OW 2902   1.650   0.880   0.581  0.0782 -0.1244  0.5518
  968SOL    HW1 2903   1.675   0.856   0.483 -1.5389 -3.2212 -2.7334
  968SOL    HW2 2904   1.550   0.909   0.582  1.3741 -0.2177 -0.8335
  969SOL     OW 2905   0.113   1.737   2.176  0.3794  0.4264  0.0765
  969SOL    HW1 2906   0.100   1.727   2.077  1.7540  2.6829 -2.5174
  969SOL    HW2 2907   0.164   1.826   2.193  1.3319  1.0876 -1.3926
  970SOL     OW 2908   2.733   1.461   1.329 -0.1725  0.6252  0.3875
  970SOL    HW1 2909   2.788   1.510   1.255  1.0821 -1.0623 -3.6077
  970SOL    HW2 2910   2.781   1.382   1.374 -1.0943 -0.6739 -0.3051
  971SOL     OW 2911   1.206   0.458   1.503 -0.2694 -0.5248  0.5428
  971SOL    HW1 2912   1.204   0.374   1.442 -0.3674 -1.6528  1.0305
  971SOL    HW2 2913   1.168   0.440   1.595 -1.3408  2.4224 -0.6861
  972SOL     OW 2914   0.561   0.017   2.710  0.2500  0.2507 -0.4828
  972SOL    HW1 2915   0.608   3.028   2.712 -1.4855 -0.3736  0.9011
  972SOL    HW2 2916   0.546   0.055   2.802  0.3657  1.9846 -1.7417
  973SOL     OW 2917   2.712   1.213   0.445 -0.1978  0.4117 -0.0795
  973SOL    HW1 2918   2.756   1.259   0.523 -0.1941 -0.8354 -2.9299
  973SOL    HW2 2919   2.640   1.146   0.463  2.7828  0.7518  0.3076
  974SOL     OW 2920   2.042   1.185   2.155  0.2035  0.1124  0.3004
  974SOL    HW1 2921   1.976   1.179   2.229  2.3117  0.0541 -3.5469
  974SOL    HW2 2922   2.124   1.235   2.185 -2.6334  3.9118  2.3430
  975SOL     OW 2923   2.953   2.679   0.513  0.2327  0.5166 -0.5038
  975SOL    HW1 2924   3.028   2.610   0.527 -2.0300  1.7132 -1.1946
  975SOL    HW2 2925   2.916   2.705   0.606  1.6879  1.7139  0.7673
  976SOL     OW 2926   0.050   1.673   1.910 -0.1271  0.3852 -0.1449
  976SOL    HW1 2927   0.044   1.730   1.824  2.4938  0.8683 -2.2345
  976SOL    HW2 2928   3.057   1.662   1.956 -2.4541  0.9202  0.8240
  977SOL     OW 2929   0.958   2.507   0.114  0.5280  0.1770 -0.2597
  977SOL    HW1 2930   0.888   2.430   0.111 -0.4518  0.2348 -1.0893
  977SOL    HW2 2931   1.052   2.481   0.149  1.1476  0.4159 -1.6555
  978SOL     OW 2932   0.903   2.141   2.884  0.1699  0.3053 -0.0052
  978SOL    HW1 2933   0.913   2.111   2.981  1.0376  1.9189 -0.8960
  978SOL    HW2 2934   0.830   2.213   2.887 -0.9087  0.0503  2.6583
  979SOL     OW 2935   1.190   2.219   1.120 -0.8380  0.2346  0.2043
  979SOL    HW1 2936   1.291   2.199   1.103  3.0459 -1.3779 -0.4614
  979SOL    HW2 2937   1.134   2.205   1.039  0.0676  0.0360  2.9879
  980SOL     OW 2938   0.348   1.497   2.548 -0.2121  0.2319  0.1187
  980SOL    HW1 2939   0.363   1.527   2.454  0.0821 -3.9771  2.5250
  980SOL    HW2 2940   0.252   1.495   2.581 -1.6274 -0.5863 -0.5061
  981SOL     OW 2941   2.741   0.375   2.806 -0.3278 -0.3424 -0.2098
  981SOL    HW1 2942   2.775   0.329   2.719 -2.4519 -0.6458 -2.1808
  981SOL    HW2 2943   2.779   0.341   2.892  0.0362 -0.7038 -2.8401
  982SOL     OW 2944   2.921   2.669   2.829  0.2991 -0.2307  0.2975
  982SOL    HW1 2945   3.001   2.650   2.773 -3.0842 -2.7988  0.7062
  982SOL    HW2 2946   2.840   2.657   2.766  2.5432  1.0762  1.5676
  983SOL     OW 2947   2.207   0.831   1.673 -0.5566 -0.3253 -0.0589
  983SOL    HW1 2948   2.236   0.909   1.732  1.0369  3.5840 -0.5040
  983SOL    HW2 2949   2.209   0.750   1.730  0.9687  0.0687 -1.5220
  984SOL     OW 2950   0.971   0.328   2.256 -0.3204 -0.1801  0.3117
  984SOL    HW1 2951   1.040   0.339   2.185 -4.0136  1.4588  0.8228
  984SOL    HW2 2952   0.999   0.261   2.326  1.8894 -2.0565 -0.2052
  985SOL     OW 2953   1.462   1.997   2.269 -0.3174  0.2792  0.2080
  985SOL    HW1 2954   1.536   1.949   2.222 -2.2104 -2.9290  0.0184
  985SOL    HW2 2955   1.488   2.097   2.268 -1.1558  0.3389 -0.3046
  986SOL     OW 2956   1.836   0.623   2.167 -0.1892  0.3602 -0.3117
  986SOL    HW1 2957   1.896   0.666   2.242 -1.2257  1.9490  1.9281
  986SOL    HW2 2958   1.861   0.526   2.150 -0.8336 -0.5108  0.0027
  987SOL     OW 2959   2.359   0.635   2.343 -0.5575 -0.6805  0.1852
  987SOL    HW1 2960   2.308   0.719   2.328 -2.1362 -2.3226  0.8936
  987SOL    HW2 2961   2.291   0.558   2.323  1.0600  3.1118  0.4897
  988SOL     OW 2962   2.461   0.393   2.799 -0.1830 -0.5780 -0.1013
  988SOL    HW1 2963   2.564   0.393   2.803 -0.1469  2.2159 -0.8491
  988SOL    HW2 2964   2.425   0.479   2.762  3.5229  0.0615  0.9161
  989SOL     OW 2965   2.496   2.276   2.688 -0.2665 -1.3409 -0.4440
  989SOL    HW1 2966   2.509   2.185   2.734 -1.2994  1.7094  0.9552
  989SOL    HW2 2967   2.488   2.268   2.586  0.3897  0.3671 -0.9636
  990SOL     OW 2968   0.277   0.530   0.273 -0.2497  0.0662  0.2015
  990SOL    HW1 2969   0.277   0.488   0.367 -0.2441  0.1934 -2.6662
  990SOL    HW2 2970   0.229   0.622   0.274 -1.2320  0.3223 -2.0132
  991SOL     OW 2971   0.498   0.606   3.000  0.2337  0.1057  0.5665
  991SOL    HW1 2972   0.492   0.526   2.939  0.0923 -0.9589 -0.0914
  991SOL    HW2 2973   0.489   0.574   3.095 -1.1027  0.9022 -1.5097
  992SOL     OW 2974   3.072   2.054   2.221  0.3418  0.1350  0.2749
  992SOL    HW1 2975   3.024   2.014   2.302 -0.2895 -0.1655  0.5949
  992SOL    HW2 2976   0.073   2.024   2.227  0.3056 -2.7140  0.3774
  993SOL     OW 2977   0.550   0.003   0.748  0.3066 -0.7073  0.0352
  993SOL    HW1 2978   0.465   0.024   0.701  3.4138 -1.0478  1.1505
  993SOL    HW2 2979   0.625   0.067   0.722  0.8169  0.2894 -0.7108
  994SOL     OW 2980   0.151   2.175   1.725 -0.3932  0.5083 -0.3088
  994SOL    HW1 2981   0.073   2.240   1.721  0.4414  0.4387  2.2541
  994SOL    HW2 2982   0.239   2.202   1.677  1.9111 -0.1603 -1.3068
  995SOL     OW 2983   2.253   1.437   2.927  0.1829  0.4704  0.6158
  995SOL    HW1 2984   2.268   1.339   2.892 -0.5584 -1.9007  1.1408
  995SOL    HW2 2985   2.203   1.497   2.863  1.4882  4.8195 -0.3365
  996SOL     OW 2986   1.717   1.377   2.812 -0.1382  0.3271 -0.0435
  996SOL    HW1 2987   1.680   1.472   2.836 -1.0061 -0.5453 -0.1538
  996SOL    HW2 2988   1.781   1.388   2.732 -0.8734  1.2030 -0.8502
  997SOL     OW 2989   1.905   1.416   2.047 -0.0381 -0.1313 -0.0106
  997SOL    HW1 2990   1.952   1.328   2.047  0.7032 -0.5105 -0.5756
  997SOL    HW2 2991   1.820   1.414   1.986 -1.2968 -0.0456 -0.6679
  998SOL     OW 2992   2.550   1.820   0.550  0.0372 -0.4089 -0.5491
  998SOL    HW1 2993   2.504   1.822   0.643 -1.4669 -1.4930  0.5454
  998SOL    HW2 2994   2.484   1.770   0.486 -1.5778  1.6218  1.9267
  999SOL     OW 2995   2.490   2.585   0.544 -0.1907  0.2420  0.0985
  999SOL    HW1 2996   2.516   2.634   0.463 -0.7673 -2.2378  4.0116
  999SOL    HW2 2997   2.448   2.497   0.523 -0.7718  1.0746  0.5647
 1000SOL     OW 2998   0.661   2.667   2.572  0.2111 -0.0294  0.3580
 1000SOL    HW1 2999   0.645   2.675   2.471  3.0674 -0.0798 -0.6110
 1000SOL    HW2 3000   0.760   2.669   2.589  1.2831  0.3081 -2.7262
   3.09851   3.09851   3.09851
