1000 SPC/Fw water molecules t=  25.00000 step= 25000
 3000
    1SOL     OW    1   1.859   2.660   0.374 -0.0025 -0.0401 -0.3854
    1SOL    HW1    2   1.928   2.625   0.307  4.5516  0.0511 -0.0773
    1SOL    HW2    3   1.775   2.600   0.375  2.0370  0.1208  3.7979
    2SOL     OW    4   1.198   0.733   1.931 -0.1519 -0.3016 -0.0686
    2SOL    HW1    5   1.292   0.709   1.961  1.3104 -0.5402  0.5794
    2SOL    HW2    6   1.135   0.700   2.002  0.7970 -2.2488 -1.3145
    3SOL     OW    7   1.000   3.070   2.837 -0.4794 -0.3075  0.4958
    3SOL    HW1    8   1.013   0.039   2.752 -0.5864 -1.3732 -2.6144
    3SOL    HW2    9   0.905   3.064   2.869  3.0021 -0.6139 -1.7799
    4SOL     OW   10   1.372   1.634   3.052  0.2364  0.4004  0.1621
    4SOL    HW1   11   1.372   1.687   0.059 -0.7622  1.8848  0.1836
    4SOL    HW2   12   1.353   1.706   2.978  1.2990  0.4728 -1.7859
    5SOL     OW   13   0.686   1.243   2.035  0.3206  0.4632  0.2005
    5SOL    HW1   14   0.666   1.264   1.938 -3.1016 -0.0709 -0.4321
    5SOL    HW2   15   0.781   1.251   2.060 -4.0217 -0.2368 -5.3335
    6SOL     OW   16   1.999   0.756   2.360  0.3079  0.7158 -0.6158
    6SOL    HW1   17   2.041   0.725   2.449 -1.1337  1.0115 -1.7581
    6SOL    HW2   18   2.062   0.816   2.302 -0.8704  1.4599 -2.0443
    7SOL     OW   19   0.574   0.841   1.164 -0.3405 -0.0089  0.4858
    7SOL    HW1   20   0.543   0.789   1.078 -0.2672 -1.3438 -1.7697
    7SOL    HW2   21   0.527   0.930   1.177  1.4744  1.2996 -0.2221
    8SOL     OW   22   2.062   2.884   1.876  0.0252  0.1829 -0.2444
    8SOL    HW1   23   2.052   2.913   1.971 -0.7947  0.4664 -2.5606
    8SOL    HW2   24   2.073   2.965   1.815 -0.4072  3.3413  0.7324
    9SOL     OW   25   0.007   2.605   0.628 -0.3676  0.1981  0.2885
    9SOL    HW1   26   0.070   2.623   0.544  0.8580 -0.3683 -0.6609
    9SOL    HW2   27   3.009   2.673   0.621  0.5318 -0.2202 -0.7647
   10SOL     OW   28   2.931   2.335   2.332 -0.3086 -0.1335  0.0592
   10SOL    HW1   29   2.901   2.377   2.241  2.1318  1.1260  0.1116
   10SOL    HW2   30   2.981   2.247   2.312  2.0391 -0.6806  0.5847
   11SOL     OW   31   0.624   1.564   3.031  0.1796 -0.5129  0.8116
   11SOL    HW1   32   0.621   1.533   0.044  0.1141  1.3528 -2.7132
   11SOL    HW2   33   0.659   1.659   3.028 -1.5633 -1.7513  0.0446
   12SOL     OW   34   2.217   2.644   1.214 -0.2250 -0.1179 -0.1515
   12SOL    HW1   35   2.183   2.731   1.174  3.1293 -0.2207  1.1002
   12SOL    HW2   36   2.147   2.593   1.269 -0.3825  1.4500 -2.2102
   13SOL     OW   37   0.342   0.064   2.759 -0.0424 -0.0369  0.3297
   13SOL    HW1   38   0.274   0.069   2.837 -0.3975 -1.2686  2.0234
   13SOL    HW2   39   0.337   0.157   2.709  2.0641  1.0438 -0.3859
   14SOL     OW   40   1.566   1.204   1.537 -0.3619 -0.1631  0.2274
   14SOL    HW1   41   1.603   1.171   1.627 -1.0884 -1.5868  3.2523
   14SOL    HW2   42   1.489   1.270   1.547  0.3766  1.1658  2.1320
   15SOL     OW   43   0.489   1.553   1.954 -0.2233 -0.6264  0.1166
   15SOL    HW1   44   0.403   1.557   1.895 -0.4463  0.6121 -1.3048
   15SOL    HW2   45   0.475   1.484   2.023 -0.3677  1.4725 -1.8749
   16SOL     OW   46   1.475   0.727   2.557 -0.6417  0.5286  0.4820
   16SOL    HW1   47   1.433   0.752   2.647  0.3304 -0.7643 -1.6525
   16SOL    HW2   48   1.515   0.808   2.513  0.0616 -0.6123  0.2612
   17SOL     OW   49   2.930   2.457   2.081  0.6402  0.1846 -0.1239
   17SOL    HW1   50   2.979   2.541   2.085 -3.4196 -0.9072 -2.0354
   17SOL    HW2   51   2.971   2.398   2.015 -1.1879  0.3093  1.9427
   18SOL     OW   52   1.690   1.220   0.516 -0.8066  0.1759  0.2753
   18SOL    HW1   53   1.779   1.247   0.560 -1.6912 -1.1898  0.8097
   18SOL    HW2   54   1.685   1.250   0.415  3.9617  2.6630 -2.6868
   19SOL     OW   55   0.238   1.277   2.028 -0.4331 -0.2284 -0.1441
   19SOL    HW1   56   0.298   1.326   2.096  1.2331  0.0694 -0.0061
   19SOL    HW2   57   0.292   1.210   1.976 -3.2236 -0.1351  1.7178
   20SOL     OW   58   1.990   2.316   2.906 -0.4814 -0.7425 -0.1252
   20SOL    HW1   59   2.088   2.327   2.907 -2.1341 -0.2596 -2.8597
   20SOL    HW2   60   1.940   2.404   2.896 -1.8299  1.4085  0.5128
   21SOL     OW   61   1.833   1.750   0.927 -0.2706 -0.3915 -0.2300
   21SOL    HW1   62   1.850   1.784   1.018 -0.9718  0.2096 -1.6502
   21SOL    HW2   63   1.900   1.784   0.859  0.5833  1.8692 -0.0128
   22SOL     OW   64   2.205   2.096   1.255  0.1492  0.3481 -0.2889
   22SOL    HW1   65   2.186   2.099   1.358  0.6268 -0.1371 -1.3809
   22SOL    HW2   66   2.133   2.138   1.191  0.6405  0.0623 -0.8948
   23SOL     OW   67   0.157   1.078   1.331 -0.0469 -0.6693 -0.1638
   23SOL    HW1   68   0.122   1.133   1.405  1.4888 -1.4363 -1.8236
   23SOL    HW2   69   0.084   1.079   1.259  0.8427 -1.5394  2.2101
   24SOL     OW   70   1.601   1.079   1.766  0.2398 -0.1458  0.5356
   24SOL    HW1   71   1.589   0.979   1.792 -2.0515  2.0841  1.8778
   24SOL    HW2   72   1.682   1.114   1.817 -1.0607  0.4045  2.0633
   25SOL     OW   73   1.956   0.099   2.116 -0.4094  0.2634 -0.5419
   25SOL    HW1   74   1.979   0.008   2.159 -0.5650 -0.7614  1.7412
   25SOL    HW2   75   1.924   0.164   2.184 -0.1232 -2.5553 -0.8490
   26SOL     OW   76   0.857   2.903   0.739  0.3628  0.0457  0.5801
   26SOL    HW1   77   0.796   2.989   0.747 -0.2485  2.9800  1.3013
   26SOL    HW2   78   0.876   2.880   0.642  1.6932  0.2857  0.6543
   27SOL     OW   79   1.472   1.109   0.807 -0.2914  0.3179  0.8699
   27SOL    HW1   80   1.502   1.075   0.712  2.8170 -0.3364 -0.6457
   27SOL    HW2   81   1.477   1.211   0.813 -1.7068  0.1339  0.7350
   28SOL     OW   82   2.387   2.186   1.067  0.5503  0.0530 -0.0173
   28SOL    HW1   83   2.336   2.148   1.148 -2.1880 -0.7164 -3.5798
   28SOL    HW2   84   2.360   2.286   1.057  0.8445 -1.6580 -0.3050
   29SOL     OW   85   2.039   2.915   2.179 -0.0977  0.6582 -0.1388
   29SOL    HW1   86   1.973   2.865   2.238 -1.1945  2.7433 -1.9841
   29SOL    HW2   87   2.133   2.905   2.208  1.0955 -2.3454  1.1002
   30SOL     OW   88   0.057   2.826   1.853 -0.1209  0.0304 -0.6443
   30SOL    HW1   89   3.046   2.836   1.803  0.8055 -2.2552  1.7297
   30SOL    HW2   90   0.084   2.922   1.870 -2.1765  0.4945  1.2689
   31SOL     OW   91   0.102   1.733   1.938 -0.1005  0.8138  0.0657
   31SOL    HW1   92   0.091   1.772   2.030  1.4524 -1.0958 -0.4293
   31SOL    HW2   93   0.016   1.754   1.887 -1.0835  0.3890  2.7531
   32SOL     OW   94   1.349   2.470   2.377  0.0520  0.1745  0.3138
   32SOL    HW1   95   1.319   2.429   2.289  2.1768  2.3510  0.9751
   32SOL    HW2   96   1.377   2.400   2.440 -1.3734 -1.5723 -1.8738
   33SOL     OW   97   0.164   0.104   2.970  0.7435 -0.3123  0.0784
   33SOL    HW1   98   0.227   0.077   3.044 -5.3322  1.3802 -4.4984
   33SOL    HW2   99   0.151   0.205   2.969  0.7617  0.1617 -0.7313
   34SOL     OW  100   2.789   0.268   0.283  0.0104  0.4572  0.5672
   34SOL    HW1  101   2.835   0.178   0.295 -0.2870 -0.5031 -2.5706
   34SOL    HW2  102   2.837   0.324   0.209  0.5589 -0.0034  0.0564
   35SOL     OW  103   2.748   2.651   1.712 -0.1433 -0.0202  0.3706
   35SOL    HW1  104   2.662   2.633   1.765  3.5520  1.5221  0.0045
   35SOL    HW2  105   2.722   2.659   1.609 -1.6562 -0.2490  1.0240
   36SOL     OW  106   2.282   2.870   2.244  0.4861 -0.2791  0.1045
   36SOL    HW1  107   2.332   2.854   2.332 -2.7735 -0.2554 -1.1684
   36SOL    HW2  108   2.342   2.910   2.174 -0.7576 -1.2913 -0.5454
   37SOL     OW  109   1.615   0.005   3.048  0.1808  0.2055  0.0383
   37SOL    HW1  110   1.620   3.075   0.068 -0.8830 -0.8215 -1.0082
   37SOL    HW2  111   1.544   3.026   3.010 -0.1747  0.2867  2.0397
   38SOL     OW  112   0.294   0.407   0.294  0.6416  0.9105 -0.7827
   38SOL    HW1  113   0.247   0.421   0.382  0.4131  2.4860 -2.1023
   38SOL    HW2  114   0.374   0.468   0.281 -1.6425 -0.1230 -0.1724
   39SOL     OW  115   0.877   1.920   2.071 -0.0956  0.5217 -0.6619
   39SOL    HW1  116   0.920   1.854   2.131  3.3032  2.9807 -0.2558
   39SOL    HW2  117   0.932   2.008   2.067  0.9684  0.3651 -0.7435
   40SOL     OW  118   0.000   0.588   2.805 -0.3754 -0.1744 -0.1460
   40SOL    HW1  119   3.056   0.529   2.724  0.5798 -1.7647 -0.2802
   40SOL    HW2  120   0.051   0.671   2.778  0.2692  0.8623 -3.0607
   41SOL     OW  121   1.275   0.691   1.689 -0.4098  0.1974  0.2967
   41SOL    HW1  122   1.367   0.648   1.699  0.9574 -0.3320  0.9472
   41SOL    HW2  123   1.236   0.729   1.777 -2.0617  3.7250  1.8549
   42SOL     OW  124   2.706   0.256   1.352  0.5236 -0.1918 -0.6816
   42SOL    HW1  125   2.700   0.337   1.412 -0.5895  0.8711  4.6094
   42SOL    HW2  126   2.649   0.180   1.391  1.8093 -1.7700  1.6706
   43SOL     OW  127   1.523   0.580   1.637 -0.5114 -0.3654  0.7047
   43SOL    HW1  128   1.533   0.624   1.547 -0.1482 -0.6422 -0.9705
   43SOL    HW2  129   1.504   0.480   1.632  1.7597  1.2635 -1.5669
   44SOL     OW  130   0.116   0.373   2.980 -0.2446  0.0358 -0.1327
   44SOL    HW1  131   0.100   0.387   3.078 -2.7590 -1.2541 -1.7106
   44SOL    HW2  132   0.072   0.454   2.934 -1.1737 -1.0763 -1.9257
   45SOL     OW  133   0.403   1.873   1.823  0.0996 -0.2589 -0.3144
   45SOL    HW1  134   0.467   1.948   1.818 -0.0110 -0.7621 -1.4938
   45SOL    HW2  135   0.400   1.832   1.730 -1.0331 -1.3300  1.2598
   46SOL     OW  136   2.263   2.861   1.620 -0.0138 -0.0442  0.3306
   46SOL    HW1  137   2.312   2.855   1.708 -0.6147 -1.6822 -1.3905
   46SOL    HW2  138   2.170   2.819   1.627 -0.2304 -0.0686 -1.7159
   47SOL     OW  139   0.197   1.863   1.287 -0.1976 -0.7085  0.1537
   47SOL    HW1  140   0.194   1.804   1.371 -2.2112  0.0646  0.1570
   47SOL    HW2  141   0.294   1.875   1.256  1.8058 -1.1498 -0.0963
   48SOL     OW  142   0.808   2.685   2.832 -0.2497  0.3899 -0.8955
   48SOL    HW1  143   0.798   2.591   2.795 -1.3055 -0.8472  1.1263
   48SOL    HW2  144   0.789   2.680   2.934 -1.1335 -0.5522 -1.9806
   49SOL     OW  145   2.707   1.375   1.758 -0.1815 -0.1958  0.3390
   49SOL    HW1  146   2.779   1.422   1.705 -3.1428 -1.1685  0.1009
   49SOL    HW2  147   2.703   1.401   1.853  2.0617  0.5373 -0.4644
   50SOL     OW  148   1.425   2.885   0.531 -0.6169  0.5600  0.4126
   50SOL    HW1  149   1.351   2.877   0.599  3.3931  1.2715  0.2639
   50SOL    HW2  150   1.443   2.976   0.495 -2.8300 -2.7011 -0.3613
   51SOL     OW  151   1.100   0.356   1.059 -0.0628  0.6487  0.9239
   51SOL    HW1  152   1.047   0.352   1.150  0.7042 -0.6194  0.1894
   51SOL    HW2  153   1.197   0.351   1.090 -0.2250 -0.0604 -0.2937
   52SOL     OW  154   0.623   1.317   0.346  0.1800  0.2693  0.2482
   52SOL    HW1  155   0.615   1.217   0.330  1.8528 -0.6599 -1.1072
   52SOL    HW2  156   0.647   1.340   0.442 -1.3051 -0.5611  0.7385
   53SOL     OW  157   1.184   2.898   2.555 -0.2017  0.2164 -0.0194
   53SOL    HW1  158   1.233   2.967   2.609  0.3113  0.4086 -2.5307
   53SOL    HW2  159   1.257   2.838   2.512 -1.7269  1.1987 -1.0730
   54SOL     OW  160   2.055   0.235   1.908 -0.1480  0.6671  0.3244
   54SOL    HW1  161   2.021   0.182   1.989  1.5360  0.8484  1.4809
   54SOL    HW2  162   2.100   0.323   1.937 -2.1943 -0.1922  0.1360
   55SOL     OW  163   2.767   2.360   0.168 -0.5858 -0.1199 -0.5056
   55SOL    HW1  164   2.790   2.331   0.070 -0.2082 -0.2314  1.5716
   55SOL    HW2  165   2.805   2.453   0.186  0.6898 -1.0482  0.1867
   56SOL     OW  166   0.798   0.017   1.817  0.0871 -0.1524  0.1277
   56SOL    HW1  167   0.706   0.035   1.852  2.7889 -1.8131 -1.4255
   56SOL    HW2  168   0.823   3.003   1.830  0.7701 -1.4116 -0.6306
   57SOL     OW  169   1.874   1.007   2.475  0.4417  0.0971 -0.0261
   57SOL    HW1  170   1.902   0.933   2.413 -1.3472 -0.5995 -1.5848
   57SOL    HW2  171   1.771   1.010   2.478  1.1258  2.5360  0.5450
   58SOL     OW  172   0.068   0.988   2.256  0.1662  0.2472  0.1795
   58SOL    HW1  173   0.170   0.989   2.269 -0.5726  0.3137 -0.5669
   58SOL    HW2  174   0.050   0.985   2.156 -0.5403 -1.0592 -1.2184
   59SOL     OW  175   0.694   2.516   1.658 -0.0401  0.1891 -0.4581
   59SOL    HW1  176   0.707   2.617   1.667  1.2941 -2.0245 -0.4639
   59SOL    HW2  177   0.701   2.487   1.563 -2.2005  2.6432  5.1328
   60SOL     OW  178   2.039   2.571   0.203  0.0998 -0.5693 -0.1488
   60SOL    HW1  179   2.110   2.515   0.246 -0.8890 -0.5625 -0.7719
   60SOL    HW2  180   2.087   2.632   0.131  2.8059 -0.6025  0.8830
   61SOL     OW  181   1.544   2.472   0.609  0.0772  0.2757  0.1937
   61SOL    HW1  182   1.603   2.394   0.629 -0.6087 -0.3977 -0.9238
   61SOL    HW2  183   1.447   2.458   0.637 -1.9712  0.5105 -0.7195
   62SOL     OW  184   1.756   2.833   3.025 -0.3566 -0.4687  0.0945
   62SOL    HW1  185   1.706   2.922   3.003 -2.7603 -0.4468  1.6402
   62SOL    HW2  186   1.700   2.781   0.011 -0.0563  0.2450 -1.0001
   63SOL     OW  187   2.521   0.310   0.019 -0.1395  0.3203 -0.2618
   63SOL    HW1  188   2.507   0.360   3.012  1.3274  2.3266 -1.5536
   63SOL    HW2  189   2.531   0.380   0.094 -2.5171 -0.3292  1.7342
   64SOL     OW  190   1.366   1.033   2.732 -0.2185  0.1118  0.4660
   64SOL    HW1  191   1.359   0.935   2.757 -0.3703  0.2282  1.5399
   64SOL    HW2  192   1.274   1.070   2.711  2.4543  0.1361 -1.0922
   65SOL     OW  193   0.498   2.418   1.371  0.5650  0.4864 -0.0019
   65SOL    HW1  194   0.406   2.406   1.323 -1.7757 -0.3948  0.7563
   65SOL    HW2  195   0.547   2.492   1.321  0.9996 -0.4848  1.1216
   66SOL     OW  196   1.116   1.246   1.314  0.2429 -0.0083  0.5054
   66SOL    HW1  197   1.217   1.232   1.290 -2.8530  2.9665 -0.9045
   66SOL    HW2  198   1.105   1.283   1.411 -0.2950 -1.6127 -0.5101
   67SOL     OW  199   2.387   1.965   1.921  0.2521  0.2863 -0.0975
   67SOL    HW1  200   2.461   2.027   1.897  1.1875  0.1416 -3.0181
   67SOL    HW2  201   2.349   1.930   1.836  3.1754  1.8513 -1.3934
   68SOL     OW  202   0.777   1.380   1.678  0.1974  0.8142 -0.0310
   68SOL    HW1  203   0.712   1.302   1.696  1.1770 -2.3261  0.3686
   68SOL    HW2  204   0.765   1.454   1.748 -1.2887  2.6408  0.6391
   69SOL     OW  205   0.076   2.831   0.043 -0.0834 -0.4976 -0.2566
   69SOL    HW1  206   0.179   2.842   0.032 -0.1846 -0.6430  0.0723
   69SOL    HW2  207   0.036   2.910   0.093 -0.4795 -2.7006  0.3205
   70SOL     OW  208   2.168   0.959   2.273  0.0278  0.4165 -0.2534
   70SOL    HW1  209   2.226   0.908   2.209 -1.7295  0.8983  2.3731
   70SOL    HW2  210   2.190   1.058   2.280 -0.7054  3.0566  2.5692
   71SOL     OW  211   0.782   2.026   1.019  0.3767  0.1544  0.2052
   71SOL    HW1  212   0.715   2.087   1.069 -0.5534 -1.5120  0.7699
   71SOL    HW2  213   0.725   1.972   0.948 -2.1165  0.3919 -1.9969
   72SOL     OW  214   2.566   1.998   0.352  0.0998 -0.0767  0.1808
   72SOL    HW1  215   2.642   2.060   0.337 -1.6075 -0.2677  3.5954
   72SOL    HW2  216   2.484   2.053   0.372  0.2504  1.0870  0.6301
   73SOL     OW  217   1.515   0.488   0.975  0.4548 -0.0679 -0.0955
   73SOL    HW1  218   1.497   0.450   0.888  0.0395 -0.1438  0.5882
   73SOL    HW2  219   1.467   0.576   0.998  0.4096  0.9530 -0.4189
   74SOL     OW  220   2.735   1.961   1.944  0.2763  0.4374 -0.9918
   74SOL    HW1  221   2.754   2.060   1.918  1.8180  1.5226 -0.2769
   74SOL    HW2  222   2.748   1.943   2.047 -0.5336 -1.1039  0.0937
   75SOL     OW  223   1.636   1.661   1.732  0.8169 -0.6025 -0.7036
   75SOL    HW1  224   1.546   1.621   1.757 -0.0860 -0.0131  0.7463
   75SOL    HW2  225   1.708   1.592   1.731 -2.4698  1.4782 -1.2175
   76SOL     OW  226   1.510   1.690   1.092 -0.0357  0.4512  0.3006
   76SOL    HW1  227   1.555   1.779   1.054  1.8851  1.4014 -1.2574
   76SOL    HW2  228   1.583   1.616   1.092  1.1763 -1.9764 -0.4557
   77SOL     OW  229   2.596   1.171   1.624 -0.2027 -0.0682  0.4288
   77SOL    HW1  230   2.639   1.254   1.663  0.0807 -3.7662  1.5629
   77SOL    HW2  231   2.515   1.189   1.562  0.6222  2.7454 -3.3071
   78SOL     OW  232   1.565   0.849   0.242 -0.0451  0.5428 -0.0981
   78SOL    HW1  233   1.587   0.801   0.153  0.2522 -2.3510  1.0336
   78SOL    HW2  234   1.532   0.776   0.306  1.1372  1.7386  1.9174
   79SOL     OW  235   1.137   1.570   2.104 -0.0459 -0.1238  0.3842
   79SOL    HW1  236   1.128   1.474   2.123 -0.3143  1.3354 -1.3182
   79SOL    HW2  237   1.099   1.592   2.013 -0.0641  0.4725 -1.5578
   80SOL     OW  238   1.100   0.322   1.484 -0.0927 -0.1380 -0.1225
   80SOL    HW1  239   1.081   0.412   1.525  0.3446  0.0847  0.5054
   80SOL    HW2  240   1.143   0.267   1.557  1.0869  1.1987 -1.0398
   81SOL     OW  241   0.275   2.507   0.237  0.1157  0.0925 -0.2002
   81SOL    HW1  242   0.329   2.513   0.148 -4.9033 -0.4085 -0.7946
   81SOL    HW2  243   0.341   2.468   0.307 -3.0839  2.6067 -0.3559
   82SOL     OW  244   1.229   0.161   1.665 -0.1589  0.1770 -1.0442
   82SOL    HW1  245   1.163   0.191   1.739 -0.7091 -0.0470  2.1118
   82SOL    HW2  246   1.258   0.064   1.672  1.8842 -0.1082 -2.0282
   83SOL     OW  247   0.401   2.207   0.918  0.2311 -0.5347  0.2896
   83SOL    HW1  248   0.336   2.140   0.956  1.5130  1.0222 -0.5236
   83SOL    HW2  249   0.416   2.182   0.818 -0.5415  0.3964 -4.8982
   84SOL     OW  250   2.840   1.660   0.759  0.5106 -0.1966  0.0525
   84SOL    HW1  251   2.831   1.569   0.713  1.8335 -0.6277 -0.8642
   84SOL    HW2  252   2.940   1.682   0.761  0.7053  0.5141  0.9958
   85SOL     OW  253   2.294   1.819   1.261 -0.1298 -0.0348  0.0190
   85SOL    HW1  254   2.258   1.906   1.228  3.4273 -1.6390  1.7947
   85SOL    HW2  255   2.215   1.753   1.268  0.9881  0.6531 -2.2662
   86SOL     OW  256   1.626   2.272   1.954 -0.3272 -0.4659 -0.2519
   86SOL    HW1  257   1.563   2.335   1.902 -0.3825  0.8879 -2.2629
   86SOL    HW2  258   1.661   2.322   2.038 -0.4411  1.4452  1.4461
   87SOL     OW  259   2.293   1.447   0.455 -0.4288  0.0533 -0.2097
   87SOL    HW1  260   2.256   1.539   0.438  0.6403 -1.1880  1.4023
   87SOL    HW2  261   2.337   1.444   0.546  2.2484  0.7712 -1.5138
   88SOL     OW  262   0.381   2.917   0.845 -0.2872  0.4717  0.1546
   88SOL    HW1  263   0.463   2.857   0.853 -2.4737  1.4969  0.6781
   88SOL    HW2  264   0.392   3.002   0.896  2.0171 -0.3862  0.3521
   89SOL     OW  265   0.576   0.658   1.777  0.1608 -0.2536 -0.8307
   89SOL    HW1  266   0.665   0.684   1.734 -1.2856 -0.2327  1.0326
   89SOL    HW2  267   0.577   0.574   1.832  0.1520  2.1885  2.0376
   90SOL     OW  268   2.890   1.918   0.373 -0.3615  0.3020  0.0479
   90SOL    HW1  269   2.970   1.893   0.429  0.7043  0.6976 -2.3817
   90SOL    HW2  270   2.847   2.010   0.386 -0.2426 -3.0672  0.5550
   91SOL     OW  271   0.997   1.599   0.986 -0.5354 -0.0376  0.5320
   91SOL    HW1  272   1.019   1.571   1.083  1.0742 -1.6656  1.7706
   91SOL    HW2  273   1.068   1.666   0.951  0.1140  0.9658  0.2636
   92SOL     OW  274   2.305   0.208   1.675  0.0987 -0.3989  0.3723
   92SOL    HW1  275   2.396   0.213   1.720  1.7886  0.4948  1.5079
   92SOL    HW2  276   2.310   0.144   1.597 -0.6171 -0.9607  0.9654
   93SOL     OW  277   0.504   1.363   2.854 -0.3491 -0.4098 -0.4416
   93SOL    HW1  278   0.546   1.399   2.938 -2.1230  0.2950 -2.6141
   93SOL    HW2  279   0.513   1.436   2.784  1.0272 -0.0374  1.8139
   94SOL     OW  280   2.556   0.147   1.827 -0.8093  0.2167  0.7439
   94SOL    HW1  281   2.540   0.216   1.901 -0.9483 -0.2621  1.9383
   94SOL    HW2  282   2.619   0.069   1.857  3.5625 -2.4302 -1.3967
   95SOL     OW  283   1.888   0.473   1.682  0.2650 -0.5674  0.0572
   95SOL    HW1  284   1.826   0.404   1.636  0.0224 -0.9369 -0.8851
   95SOL    HW2  285   1.982   0.433   1.680 -1.3304 -2.6076 -1.4003
   96SOL     OW  286   0.213   0.465   1.772 -0.0299  0.2589 -0.6215
   96SOL    HW1  287   0.145   0.483   1.694  1.3453 -1.6704  0.0812
   96SOL    HW2  288   0.229   0.551   1.827  0.0948 -2.6367  0.7115
   97SOL     OW  289   1.979   0.227   1.361  0.5903  0.5660 -0.0562
   97SOL    HW1  290   1.888   0.267   1.333 -0.2180  0.1586 -1.6556
   97SOL    HW2  291   1.972   0.128   1.327 -0.6419  0.8742  0.5112
   98SOL     OW  292   1.946   2.496   1.716 -0.1366 -0.6366  0.2998
   98SOL    HW1  293   2.027   2.439   1.680  1.8112 -2.2080  1.5475
   98SOL    HW2  294   1.906   2.461   1.804 -1.0797 -0.1146  1.0950
   99SOL     OW  295   0.828   0.908   0.808 -0.2003 -0.1027 -0.5108
   99SOL    HW1  296   0.880   0.973   0.756 -2.3067 -2.2077 -1.3119
   99SOL    HW2  297   0.737   0.904   0.775  2.5058  2.9367  1.4780
  100SOL     OW  298   2.621   1.636   1.989 -0.3466 -0.0894  0.3907
  100SOL    HW1  299   2.622   1.699   2.071 -0.9997 -0.8893  1.0732
  100SOL    HW2  300   2.552   1.658   1.914 -1.4439  0.8398 -2.5300
  101SOL     OW  301   1.861   0.119   0.210 -0.1574 -0.0277  0.0763
  101SOL    HW1  302   1.875   0.186   0.137 -1.2336 -2.7633  1.4319
  101SOL    HW2  303   1.774   0.077   0.198 -0.7239 -1.7034 -0.4853
  102SOL     OW  304   0.022   2.938   1.147  0.1430 -0.2422 -0.3464
  102SOL    HW1  305   3.050   2.969   1.069  0.9596  1.3400  2.0404
  102SOL    HW2  306   0.015   2.835   1.141  0.6468  2.8951 -0.4492
  103SOL     OW  307   0.082   2.998   2.239  0.7184 -0.3848  0.6170
  103SOL    HW1  308   3.062   3.005   2.265 -0.8004  1.6120  1.0683
  103SOL    HW2  309   0.117   2.908   2.273  1.1795 -1.0693 -0.1049
  104SOL     OW  310   0.231   2.097   1.471 -0.2024  0.2083 -0.0479
  104SOL    HW1  311   0.227   2.006   1.427  0.3668  0.1939 -0.6463
  104SOL    HW2  312   0.152   2.145   1.438  3.7733  1.0032 -3.4482
  105SOL     OW  313   0.572   1.894   2.063 -0.1670  0.6423 -0.3351
  105SOL    HW1  314   0.672   1.892   2.052  0.7719 -2.6865  1.9574
  105SOL    HW2  315   0.523   1.864   1.979  0.8700  0.5185  0.0273
  106SOL     OW  316   1.946   2.988   0.643 -0.0521 -0.0969 -0.2576
  106SOL    HW1  317   2.022   3.051   0.664 -2.2601  0.5223 -3.7483
  106SOL    HW2  318   1.897   2.969   0.727 -0.2812 -2.7773 -2.2140
  107SOL     OW  319   0.655   1.200   1.275  0.1571  0.1514 -0.2843
  107SOL    HW1  320   0.577   1.132   1.251 -0.2411  1.2153 -0.8060
  107SOL    HW2  321   0.734   1.198   1.212  0.1891 -0.2303 -1.5883
  108SOL     OW  322   2.698   1.147   2.321 -0.5794 -0.2548  0.5100
  108SOL    HW1  323   2.802   1.157   2.324 -1.3648 -0.2378 -1.1766
  108SOL    HW2  324   2.681   1.104   2.231  1.5805 -2.0079  0.8081
  109SOL     OW  325   2.004   2.952   3.071  0.2123  0.2101 -0.4499
  109SOL    HW1  326   2.025   3.040   3.027 -0.6153 -0.4804 -0.3805
  109SOL    HW2  327   1.907   2.916   3.055  1.2862  0.6713  0.8338
  110SOL     OW  328   0.117   1.886   2.983  0.3385 -0.4444 -0.6084
  110SOL    HW1  329   0.045   1.913   2.915  2.1822 -0.8720 -3.5397
  110SOL    HW2  330   0.137   1.786   2.971 -1.3251 -2.6524 -2.2926
  111SOL     OW  331   2.701   0.803   2.154  0.8476  0.2704  0.0493
  111SOL    HW1  332   2.797   0.796   2.188 -2.1202 -0.3470  0.5113
  111SOL    HW2  333   2.634   0.768   2.224 -1.2325 -2.5655  0.9120
  112SOL     OW  334   2.061   2.522   1.388  0.7310 -0.2359 -0.5087
  112SOL    HW1  335   2.035   2.600   1.449  0.8329  0.3336  0.8641
  112SOL    HW2  336   2.119   2.456   1.436 -1.0511 -0.3405  0.5262
  113SOL     OW  337   2.024   2.287   2.637 -0.0829 -0.2592 -0.0438
  113SOL    HW1  338   2.097   2.212   2.628  3.5800 -1.1514  1.1910
  113SOL    HW2  339   2.001   2.299   2.737  1.9580 -0.0334  2.1041
  114SOL     OW  340   0.447   0.274   0.564  0.2281 -0.2020  0.0069
  114SOL    HW1  341   0.401   0.194   0.520  1.1460  0.2748  0.6644
  114SOL    HW2  342   0.534   0.287   0.517 -2.1801 -1.3115 -1.8310
  115SOL     OW  343   3.026   1.455   0.013 -0.7213 -0.2968 -0.7510
  115SOL    HW1  344   2.965   1.373   0.015  1.5336  0.0956  0.8195
  115SOL    HW2  345   0.043   1.427   0.039 -0.7570 -2.5935  0.2098
  116SOL     OW  346   3.002   1.154   1.791  0.1865 -0.7157  0.3434
  116SOL    HW1  347   3.044   1.107   1.711  0.0697  0.7854 -0.2756
  116SOL    HW2  348   2.937   1.226   1.764  1.5237  1.7458  0.1146
  117SOL     OW  349   2.229   0.295   1.243  0.0673  0.1556 -0.0815
  117SOL    HW1  350   2.309   0.336   1.286  1.5731  0.6136 -3.1635
  117SOL    HW2  351   2.154   0.277   1.311  0.1636 -2.2865  1.2969
  118SOL     OW  352   2.682   2.619   2.066 -0.2062 -0.2285 -0.0018
  118SOL    HW1  353   2.632   2.616   1.974 -1.3083  0.8439 -0.0052
  118SOL    HW2  354   2.774   2.577   2.052  4.4994  1.3152  0.6345
  119SOL     OW  355   0.477   1.798   1.493  0.4033 -0.4747  0.0979
  119SOL    HW1  356   0.476   1.839   1.397 -2.9399  0.0792 -1.7380
  119SOL    HW2  357   0.536   1.720   1.499 -2.4100  1.9950  2.6913
  120SOL     OW  358   0.411   1.379   1.550  0.2957 -0.4986 -0.3781
  120SOL    HW1  359   0.437   1.384   1.452 -3.1807 -0.3066 -1.2644
  120SOL    HW2  360   0.427   1.470   1.592 -0.0585 -0.7224 -1.3149
  121SOL     OW  361   1.602   0.818   0.862  0.8413 -0.1155 -0.0666
  121SOL    HW1  362   1.587   0.866   0.947 -1.8736  1.0171 -0.9172
  121SOL    HW2  363   1.570   0.872   0.782 -0.5492 -0.5707  0.1989
  122SOL     OW  364   2.296   2.497   2.631  0.4834  0.8012  0.2543
  122SOL    HW1  365   2.242   2.556   2.693  0.5645 -3.0903 -0.2311
  122SOL    HW2  366   2.241   2.466   2.546  0.8451 -2.0245 -0.5158
  123SOL     OW  367   2.861   3.071   0.326  0.3916 -0.1730  0.5340
  123SOL    HW1  368   2.772   3.034   0.285 -0.0218  2.6618 -1.5833
  123SOL    HW2  369   2.874   3.034   0.418  4.5242  0.4479 -1.7615
  124SOL     OW  370   1.697   1.285   0.251  0.3325  0.5001 -0.3401
  124SOL    HW1  371   1.632   1.354   0.207  0.8101  2.5560 -2.1362
  124SOL    HW2  372   1.687   1.195   0.202  0.7214 -1.6148  0.8660
  125SOL     OW  373   0.340   1.033   2.228  0.1078  0.3633 -0.2510
  125SOL    HW1  374   0.413   1.014   2.289 -0.1716  0.9165 -2.4355
  125SOL    HW2  375   0.343   0.964   2.154  1.6400 -0.7483 -2.4759
  126SOL     OW  376   3.004   2.608   0.052  0.1863 -0.4037  0.3248
  126SOL    HW1  377   3.019   2.535   0.130  1.8819 -1.5922  2.5108
  126SOL    HW2  378   3.070   2.691   0.068  1.6737  4.1377 -2.2186
  127SOL     OW  379   2.817   1.825   0.085  0.6428  0.3916 -0.8371
  127SOL    HW1  380   2.850   1.864   0.170 -0.6322 -0.8619  0.4924
  127SOL    HW2  381   2.821   1.897   0.012 -0.4206 -1.3154  0.6291
  128SOL     OW  382   1.157   1.025   0.770  0.2590 -0.1445 -0.4920
  128SOL    HW1  383   1.095   1.106   0.787  1.6166  0.4144  1.4686
  128SOL    HW2  384   1.221   1.025   0.850  0.3695  1.2390  0.7504
  129SOL     OW  385   2.623   2.023   1.120  0.2764  0.0502 -0.7918
  129SOL    HW1  386   2.603   1.924   1.102 -0.7838 -0.6994 -3.5693
  129SOL    HW2  387   2.547   2.085   1.098 -1.3033  2.0005 -0.6893
  130SOL     OW  388   1.972   0.925   0.151 -0.5834  0.3529  0.6383
  130SOL    HW1  389   2.008   1.019   0.131  0.2532  0.0943  1.7224
  130SOL    HW2  390   1.900   0.933   0.226 -2.6802 -0.1475  0.9268
  131SOL     OW  391   2.986   1.313   2.573 -0.3332 -0.1590  0.0605
  131SOL    HW1  392   2.933   1.399   2.565  0.7518  0.1638  1.2906
  131SOL    HW2  393   3.044   1.319   2.655 -0.9325 -0.1203 -4.3242
  132SOL     OW  394   0.987   1.306   2.022 -0.3426 -0.6861 -0.3266
  132SOL    HW1  395   0.995   1.384   1.954  1.0753 -2.1363  0.9773
  132SOL    HW2  396   0.959   1.224   1.966 -0.3325  1.2982 -0.7929
  133SOL     OW  397   0.445   1.448   0.674 -0.3215 -0.0018 -0.0948
  133SOL    HW1  398   0.533   1.425   0.622 -1.8515  0.1448  0.6762
  133SOL    HW2  399   0.461   1.461   0.774 -0.5091 -1.0695  0.1994
  134SOL     OW  400   2.874   1.221   3.020 -0.4241  0.2451  0.3783
  134SOL    HW1  401   2.941   1.158   2.977  0.0620  1.3432 -0.7290
  134SOL    HW2  402   2.781   1.193   2.994 -0.7201 -0.2107  0.9124
  135SOL     OW  403   1.598   0.658   0.047  0.3515 -0.2244  0.0870
  135SOL    HW1  404   1.650   0.716   3.064 -0.3609  1.5116 -0.8983
  135SOL    HW2  405   1.662   0.592   0.095 -2.7161 -1.5304 -2.0395
  136SOL     OW  406   2.005   1.687   1.476 -0.5860  0.2241  0.1271
  136SOL    HW1  407   2.061   1.636   1.409 -0.4049 -1.3027 -0.5876
  136SOL    HW2  408   1.911   1.701   1.436  0.0254 -0.4510  2.0571
  137SOL     OW  409   2.269   2.434   1.030 -0.4890 -0.1056 -0.3146
  137SOL    HW1  410   2.257   2.512   1.099  0.0366  0.5196  3.0875
  137SOL    HW2  411   2.188   2.420   0.971  0.7686 -0.2429  0.9795
  138SOL     OW  412   2.190   0.702   1.754 -0.0090 -0.0624  1.0320
  138SOL    HW1  413   2.143   0.693   1.846  0.9965 -0.1972  0.2340
  138SOL    HW2  414   2.152   0.638   1.683 -2.4649 -1.1547  0.6713
  139SOL     OW  415   2.605   2.766   2.836  0.2110  0.1145 -0.3547
  139SOL    HW1  416   2.683   2.757   2.897  0.1977 -2.6214 -2.6595
  139SOL    HW2  417   2.591   2.672   2.794  1.7503  0.4583 -1.3156
  140SOL     OW  418   1.569   1.783   2.352 -0.2489 -0.2521  0.5601
  140SOL    HW1  419   1.611   1.825   2.273 -1.0378  2.0144  1.6299
  140SOL    HW2  420   1.551   1.689   2.332 -0.7908  1.8456 -0.8596
  141SOL     OW  421   0.857   1.058   2.377  0.0056  0.5958  0.1814
  141SOL    HW1  422   0.876   1.155   2.405 -0.3502 -1.1949 -0.2313
  141SOL    HW2  423   0.914   0.994   2.431  2.4098  2.6448  0.5263
  142SOL     OW  424   2.336   2.776   1.881  0.4096  0.1808  0.4706
  142SOL    HW1  425   2.342   2.858   1.936  1.5671 -6.1970 -2.2542
  142SOL    HW2  426   2.253   2.730   1.904  2.7190  3.6375 -1.8770
  143SOL     OW  427   1.040   2.371   0.370 -0.9327 -0.0238 -0.2232
  143SOL    HW1  428   1.079   2.460   0.341 -2.4857  0.1465  1.2237
  143SOL    HW2  429   0.993   2.389   0.458  1.8572  1.5688  1.1265
  144SOL     OW  430   1.082   2.620   0.702  0.3497  0.1929 -1.0143
  144SOL    HW1  431   1.143   2.701   0.720  0.3191  0.8219  0.5016
  144SOL    HW2  432   1.036   2.625   0.607 -0.7776  0.9778 -2.9855
  145SOL     OW  433   1.713   2.590   2.408  0.2625 -0.2565 -0.1043
  145SOL    HW1  434   1.653   2.631   2.480 -1.7474  0.2720  1.2424
  145SOL    HW2  435   1.782   2.658   2.383 -1.5108 -1.4718 -0.1021
  146SOL     OW  436   2.015   2.939   0.258 -0.3804 -0.4353  0.5632
  146SOL    HW1  437   1.923   2.921   0.294 -1.8928 -0.4198 -3.8066
  146SOL    HW2  438   2.012   2.955   0.154  1.7079  1.0950 -0.0030
  147SOL     OW  439   0.213   1.708   1.495  0.3273  0.0979 -0.3601
  147SOL    HW1  440   0.310   1.740   1.485  0.2613  0.0601 -1.2559
  147SOL    HW2  441   0.201   1.631   1.432 -0.9356  3.2930  1.8889
  148SOL     OW  442   1.794   2.925   0.423 -0.1623 -0.1419 -0.4647
  148SOL    HW1  443   1.855   2.955   0.498 -0.2490  2.3266 -1.2797
  148SOL    HW2  444   1.807   2.822   0.416 -0.5340  2.6552 -0.6929
  149SOL     OW  445   0.582   1.968   3.041 -0.1168 -0.4699 -0.2340
  149SOL    HW1  446   0.667   1.925   3.009 -0.1998  1.0818 -1.9352
  149SOL    HW2  447   0.581   2.062   3.003  1.2676 -0.5987 -1.8315
  150SOL     OW  448   0.332   2.537   1.062  0.3248  0.3517 -0.0354
  150SOL    HW1  449   0.301   2.579   1.149  2.2051 -2.3987  0.2738
  150SOL    HW2  450   0.288   2.587   0.983  0.3739 -0.3125 -1.1203
  151SOL     OW  451   0.486   1.096   2.933  0.3783  0.4477  0.0113
  151SOL    HW1  452   0.474   1.192   2.897 -1.6793  1.7264 -2.5478
  151SOL    HW2  453   0.390   1.079   2.961 -1.6077  2.3114  0.3215
  152SOL     OW  454   2.975   2.158   0.789 -0.9653  0.3330 -0.3342
  152SOL    HW1  455   2.884   2.127   0.757 -2.8861  0.6637 -0.2707
  152SOL    HW2  456   2.976   2.258   0.816  0.2050 -0.5633  2.3651
  153SOL     OW  457   1.747   2.285   0.552 -0.2598 -0.2816 -0.3501
  153SOL    HW1  458   1.792   2.271   0.460  0.5956  0.1238  0.0083
  153SOL    HW2  459   1.777   2.207   0.616 -3.2217 -1.1136  0.8038
  154SOL     OW  460   0.556   2.981   1.532 -0.4773 -0.3905  0.0315
  154SOL    HW1  461   0.482   3.051   1.511  3.5247 -1.2831  0.3398
  154SOL    HW2  462   0.648   3.014   1.522  0.4762 -0.6507  0.7820
  155SOL     OW  463   2.781   2.177   0.358  0.1489 -0.0470 -0.1009
  155SOL    HW1  464   2.777   2.236   0.444 -0.6952 -1.1199 -0.3793
  155SOL    HW2  465   2.785   2.241   0.279 -1.0014  0.8443 -0.4625
  156SOL     OW  466   2.347   1.938   0.091 -0.1467 -0.2069  0.2751
  156SOL    HW1  467   2.428   1.955   0.026  3.0363 -0.7441 -0.3870
  156SOL    HW2  468   2.360   1.866   0.161  1.0802  0.2159  2.3010
  157SOL     OW  469   0.434   2.746   1.860 -0.0759  0.3608 -0.1204
  157SOL    HW1  470   0.430   2.844   1.878  2.1825 -1.4613  0.2876
  157SOL    HW2  471   0.345   2.698   1.888 -1.1386 -0.1178 -1.2141
  158SOL     OW  472   1.325   0.701   1.078 -0.6209  0.2588  0.0272
  158SOL    HW1  473   1.307   0.794   1.040 -1.8276  2.6794 -1.7880
  158SOL    HW2  474   1.299   0.700   1.177 -4.2852 -1.0062  0.2774
  159SOL     OW  475   1.729   1.079   3.081  0.3914 -0.2993 -0.6219
  159SOL    HW1  476   1.756   0.984   3.076 -1.0335  0.4431 -1.7594
  159SOL    HW2  477   1.796   1.143   3.034 -1.2415 -0.4304 -0.6767
  160SOL     OW  478   1.174   1.881   0.416 -0.2661  0.1836 -0.0522
  160SOL    HW1  479   1.215   1.975   0.424  0.3104 -0.8146  1.3021
  160SOL    HW2  480   1.167   1.836   0.507 -0.9308 -0.2575 -3.5451
  161SOL     OW  481   2.223   2.099   2.658  0.1559 -0.5041  0.5053
  161SOL    HW1  482   2.315   2.105   2.700 -3.0966  0.4716  0.9278
  161SOL    HW2  483   2.178   2.009   2.680 -0.4515 -1.0459  1.8730
  162SOL     OW  484   0.077   2.363   1.685 -0.3033 -0.1485  0.7547
  162SOL    HW1  485   0.067   2.329   1.589  1.6958  0.4448  1.9374
  162SOL    HW2  486   0.177   2.356   1.708  0.9988 -1.5217 -1.1237
  163SOL     OW  487   0.241   0.513   2.615  0.4059 -0.1530  0.4309
  163SOL    HW1  488   0.285   0.529   2.708  0.6017  0.4875  1.5207
  163SOL    HW2  489   0.247   0.600   2.555 -2.7672 -1.3357  0.5127
  164SOL     OW  490   0.093   2.756   2.848 -1.1330  0.6783 -0.1053
  164SOL    HW1  491   0.149   2.810   2.784 -1.6422 -1.3155  0.2735
  164SOL    HW2  492   0.085   2.796   2.941 -0.2476  2.2750  0.2525
  165SOL     OW  493   2.742   0.778   1.486  0.2271  0.5358 -0.0702
  165SOL    HW1  494   2.696   0.815   1.405  1.2811  1.1035  1.9172
  165SOL    HW2  495   2.823   0.834   1.502 -0.1510 -0.0473  0.6422
  166SOL     OW  496   2.069   1.621   1.219 -0.0275 -0.0703 -0.1840
  166SOL    HW1  497   2.031   1.531   1.228 -0.3708  4.5389  2.1498
  166SOL    HW2  498   2.089   1.639   1.120  2.0487  0.7112 -2.0080
  167SOL     OW  499   0.242   0.752   2.456  0.6848  0.1819 -0.3659
  167SOL    HW1  500   0.237   0.741   2.357 -0.9132 -0.9939  0.5470
  167SOL    HW2  501   0.197   0.841   2.489  1.4903 -2.5642  2.4442
  168SOL     OW  502   2.254   0.238   2.401 -0.5989 -0.2020  0.0590
  168SOL    HW1  503   2.191   0.180   2.462  0.7321 -0.2543 -0.5483
  168SOL    HW2  504   2.229   0.336   2.419  1.4353 -0.6064 -1.1932
  169SOL     OW  505   0.612   0.872   0.003  0.0080 -0.0341  0.2387
  169SOL    HW1  506   0.556   0.832   0.075  1.2511  1.1173 -0.9500
  169SOL    HW2  507   0.580   0.963   3.062  1.3213  0.2065  0.9676
  170SOL     OW  508   1.085   1.336   1.577  0.3132 -0.2036 -0.3911
  170SOL    HW1  509   1.017   1.403   1.612 -1.5744 -2.7811  0.6679
  170SOL    HW2  510   1.082   1.249   1.630  0.1934 -0.0612  3.3488
  171SOL     OW  511   1.226   2.665   1.469 -0.6126 -0.1149  0.5908
  171SOL    HW1  512   1.143   2.715   1.461  3.7611 -0.5714  0.1797
  171SOL    HW2  513   1.308   2.713   1.427  0.4235  0.3931  1.0081
  172SOL     OW  514   1.028   0.086   1.950  0.2892 -0.1946 -0.0368
  172SOL    HW1  515   1.039   0.033   2.039  0.4887 -2.0379 -2.9091
  172SOL    HW2  516   0.945   0.057   1.898  1.5299  0.7857 -0.1679
  173SOL     OW  517   1.080   2.563   0.982  0.1557  0.4062  0.6482
  173SOL    HW1  518   1.038   2.597   0.896  1.2074 -1.7555  0.0844
  173SOL    HW2  519   1.027   2.482   1.015 -1.0642 -1.4365 -0.7809
  174SOL     OW  520   2.253   0.226   0.429 -0.1212 -0.0361  0.6216
  174SOL    HW1  521   2.220   0.188   0.515  0.7120  1.3579 -1.1379
  174SOL    HW2  522   2.350   0.198   0.405 -0.6491 -1.3318  1.1454
  175SOL     OW  523   1.602   0.956   0.585 -0.0541 -0.7182 -0.2165
  175SOL    HW1  524   1.646   1.034   0.534  0.4428 -0.2531  0.2337
  175SOL    HW2  525   1.498   0.968   0.585 -2.8807  1.9975 -0.7102
  176SOL     OW  526   1.144   1.785   0.654 -0.0860  0.2402 -0.5947
  176SOL    HW1  527   1.079   1.848   0.701  0.5304  2.6186  2.3113
  176SOL    HW2  528   1.217   1.766   0.725  1.8968  1.8396  1.0362
  177SOL     OW  529   1.791   1.296   0.958  0.2136 -0.0879 -0.1065
  177SOL    HW1  530   1.706   1.304   0.902 -0.3837  0.5887  1.6961
  177SOL    HW2  531   1.867   1.238   0.916 -0.7562  1.7658  1.0998
  178SOL     OW  532   1.923   1.556   0.068 -0.0087  0.2366  0.2246
  178SOL    HW1  533   1.870   1.538   3.067  0.6951  3.0680  1.7184
  178SOL    HW2  534   2.026   1.527   0.063  2.3862 -2.6973 -1.1012
  179SOL     OW  535   1.331   2.848   0.109  0.4040  0.4992  0.2517
  179SOL    HW1  536   1.392   2.796   0.171 -1.3206  3.0979 -1.6849
  179SOL    HW2  537   1.256   2.796   0.062 -0.0141  3.1984 -1.2873
  180SOL     OW  538   1.890   1.238   1.354 -0.1890  0.1117 -0.2702
  180SOL    HW1  539   1.839   1.314   1.397  0.5931  0.0890 -0.0864
  180SOL    HW2  540   1.950   1.282   1.281 -1.1351 -1.3332  1.0652
  181SOL     OW  541   0.891   0.699   1.925 -0.7904 -0.3047  0.0124
  181SOL    HW1  542   0.977   0.742   1.886  0.8894  0.5423  0.4196
  181SOL    HW2  543   0.876   0.608   1.879 -0.4886  0.3802 -1.5318
  182SOL     OW  544   0.023   0.964   2.529 -0.5008 -0.3938 -0.0515
  182SOL    HW1  545   3.016   0.926   2.558  0.3433 -0.6500 -0.7530
  182SOL    HW2  546   0.024   0.994   2.430  2.5519  0.1994  0.6069
  183SOL     OW  547   1.351   0.590   2.344  0.1369  0.3349  0.8316
  183SOL    HW1  548   1.389   0.629   2.428  0.4640 -1.7533 -1.0889
  183SOL    HW2  549   1.297   0.506   2.364 -1.2605 -0.8209  1.6002
  184SOL     OW  550   0.790   0.548   1.107  0.1175  0.3945 -0.3488
  184SOL    HW1  551   0.844   0.588   1.029  1.3970  1.6946 -1.7814
  184SOL    HW2  552   0.851   0.486   1.163  2.4428 -0.5731  3.0944
  185SOL     OW  553   2.321   1.208   0.332  0.1839  0.8001  0.8215
  185SOL    HW1  554   2.417   1.224   0.291  1.1875  0.6681 -1.2761
  185SOL    HW2  555   2.286   1.297   0.361  0.1740  2.6766 -0.4183
  186SOL     OW  556   0.190   1.932   0.217 -0.1565 -0.4856 -0.2895
  186SOL    HW1  557   0.207   1.871   0.300 -1.6616 -1.4814 -0.1303
  186SOL    HW2  558   0.229   1.890   0.133  0.3270  0.6495 -0.4859
  187SOL     OW  559   1.842   2.098   2.912 -0.0656 -0.2881 -0.1714
  187SOL    HW1  560   1.893   2.028   2.970  0.6872 -0.4407 -2.9485
  187SOL    HW2  561   1.897   2.185   2.915 -0.7112 -1.6458  0.9324
  188SOL     OW  562   1.464   2.244   1.446 -0.2056 -0.3708  0.3435
  188SOL    HW1  563   1.418   2.166   1.486  0.0671  1.6829 -1.5936
  188SOL    HW2  564   1.412   2.326   1.473 -1.8358 -0.5791 -4.0419
  189SOL     OW  565   2.385   1.320   2.600  0.0434  0.0725  0.9225
  189SOL    HW1  566   2.316   1.337   2.670  4.3829  0.4353 -0.9952
  189SOL    HW2  567   2.353   1.349   2.506 -0.6080 -0.1333 -0.3614
  190SOL     OW  568   0.796   2.579   2.047  0.0453 -0.1650  0.2316
  190SOL    HW1  569   0.809   2.486   2.033  1.0000  3.8763  3.2311
  190SOL    HW2  570   0.704   2.597   2.087  0.3754  0.5374 -0.3329
  191SOL     OW  571   2.800   1.062   1.109 -0.5176 -0.2775  0.3957
  191SOL    HW1  572   2.770   1.088   1.202 -0.1765 -0.7860  1.5657
  191SOL    HW2  573   2.754   1.113   1.039  1.7060 -3.4198  2.1057
  192SOL     OW  574   2.255   0.612   1.112  0.5766 -0.1759 -0.3302
  192SOL    HW1  575   2.229   0.631   1.207  1.0735 -1.8847 -2.3641
  192SOL    HW2  576   2.173   0.586   1.057  2.2272  1.3392  0.8254
  193SOL     OW  577   0.933   0.213   0.235  0.1891  0.7195  0.0370
  193SOL    HW1  578   0.976   0.174   0.152  0.6311 -0.8751 -1.3523
  193SOL    HW2  579   0.847   0.161   0.260 -1.7214 -2.1397  0.7304
  194SOL     OW  580   1.247   2.473   1.283  0.0965 -0.4868 -0.2223
  194SOL    HW1  581   1.214   2.548   1.347 -1.9944  1.7622  0.6054
  194SOL    HW2  582   1.287   2.516   1.199 -2.1758  1.3451 -0.8203
  195SOL     OW  583   2.869   1.047   0.461  0.1866 -0.5011  0.2378
  195SOL    HW1  584   2.874   1.016   0.557 -1.2282  0.7773 -0.9787
  195SOL    HW2  585   2.787   1.011   0.413 -0.4404 -0.4779  0.3222
  196SOL     OW  586   0.507   2.162   1.478  0.0161 -0.3185  0.3436
  196SOL    HW1  587   0.412   2.127   1.489 -1.6335 -2.3272 -0.8022
  196SOL    HW2  588   0.506   2.259   1.450 -0.4645  0.5562  0.7995
  197SOL     OW  589   3.065   0.587   2.115  0.2395 -0.1415  0.2192
  197SOL    HW1  590   0.080   0.555   2.104  1.2074  0.2299 -2.2832
  197SOL    HW2  591   3.010   0.589   2.027 -0.5129 -2.7088  0.8729
  198SOL     OW  592   1.953   1.320   0.274 -0.3400  0.0418  0.1284
  198SOL    HW1  593   1.855   1.311   0.258  1.1422  2.6219 -0.1242
  198SOL    HW2  594   1.973   1.409   0.308 -1.8559 -0.0907 -0.5426
  199SOL     OW  595   2.438   0.558   1.796  0.0603 -0.0768  0.1990
  199SOL    HW1  596   2.355   0.617   1.776 -0.9793 -1.9428 -1.2011
  199SOL    HW2  597   2.503   0.552   1.716 -0.5576  3.1179  2.3616
  200SOL     OW  598   2.010   0.133   2.915 -0.7913 -0.4391  0.3185
  200SOL    HW1  599   2.057   0.169   2.999 -1.3946 -1.9104  0.5149
  200SOL    HW2  600   1.972   0.208   2.855 -0.1963 -3.5548 -0.5491
  201SOL     OW  601   2.559   0.103   1.005 -0.5182  0.0199  0.4968
  201SOL    HW1  602   2.649   0.125   1.045 -1.5497  0.1486 -1.6748
  201SOL    HW2  603   2.515   0.194   0.992 -0.8791 -1.2882  1.6337
  202SOL     OW  604   2.694   2.622   0.318 -0.2254 -0.2764  0.0737
  202SOL    HW1  605   2.693   2.583   0.411 -1.1266  1.0204  1.4915
  202SOL    HW2  606   2.666   2.724   0.331 -1.7172  0.8419  1.7791
  203SOL     OW  607   1.591   1.885   0.596 -0.4480 -0.3714 -0.3140
  203SOL    HW1  608   1.495   1.898   0.635 -0.2563 -0.9399  0.0158
  203SOL    HW2  609   1.663   1.940   0.640  0.6666  0.4070  0.1872
  204SOL     OW  610   0.140   1.752   2.210 -0.0929  0.0571  0.3312
  204SOL    HW1  611   0.241   1.740   2.182  2.3610 -0.7350 -1.7172
  204SOL    HW2  612   0.096   1.660   2.224  0.5964 -1.4258 -0.3279
  205SOL     OW  613   0.727   0.498   0.767  0.2877  0.0760  0.3732
  205SOL    HW1  614   0.760   0.527   0.674  0.2338  0.3932 -0.4179
  205SOL    HW2  615   0.803   0.505   0.836  1.5625  0.1312 -0.3608
  206SOL     OW  616   0.357   0.499   2.868  0.2677  0.9820  0.2614
  206SOL    HW1  617   0.283   0.427   2.889 -1.0597 -0.9525 -1.3219
  206SOL    HW2  618   0.329   0.593   2.896 -0.8958 -0.2350 -1.8514
  207SOL     OW  619   1.248   2.419   2.065  0.1349  0.0586  0.3428
  207SOL    HW1  620   1.147   2.426   2.061 -0.7107 -2.4836 -1.4764
  207SOL    HW2  621   1.272   2.319   2.078  1.2639 -0.9284 -1.0506
  208SOL     OW  622   2.587   0.069   1.550  0.0369  0.4311  0.2396
  208SOL    HW1  623   2.583   0.117   1.640  0.1726  1.7354 -1.7539
  208SOL    HW2  624   2.502   0.018   1.534  2.3328 -0.7317 -1.3140
  209SOL     OW  625   1.866   0.830   0.570 -0.0878  0.3233 -0.6658
  209SOL    HW1  626   1.892   0.741   0.611 -0.3430  1.9395  0.2015
  209SOL    HW2  627   1.768   0.856   0.586 -0.3466 -0.2608 -0.1185
  210SOL     OW  628   2.652   0.969   0.290 -0.0331  0.3579  0.3169
  210SOL    HW1  629   2.601   0.907   0.353  2.0535  2.1346 -0.3025
  210SOL    HW2  630   2.614   1.066   0.291 -1.0764  1.9885  0.4348
  211SOL     OW  631   1.189   3.038   0.255  0.0536  0.3256  0.3793
  211SOL    HW1  632   1.249   0.034   0.287  0.5542  0.6168 -0.0216
  211SOL    HW2  633   1.238   2.963   0.209 -1.2341  0.5763 -0.4296
  212SOL     OW  634   1.869   2.045   0.636  0.5954 -0.5462  0.3877
  212SOL    HW1  635   1.900   2.090   0.722  0.1818  0.2806 -1.1283
  212SOL    HW2  636   1.946   2.047   0.564  0.0326 -1.3423 -1.1818
  213SOL     OW  637   2.473   0.042   0.003 -0.3299 -0.0675 -0.1670
  213SOL    HW1  638   2.469   0.017   2.986  2.3691  3.0142 -0.1575
  213SOL    HW2  639   2.515   0.138   0.014  0.2630 -1.4358 -0.6632
  214SOL     OW  640   0.950   2.362   2.150 -0.0845 -1.4032 -0.1500
  214SOL    HW1  641   0.939   2.272   2.199  1.1996  0.5764  1.9138
  214SOL    HW2  642   0.914   2.440   2.205  0.0421  2.9774  1.1381
  215SOL     OW  643   0.444   1.172   0.963 -0.0144  0.1094  0.6928
  215SOL    HW1  644   0.345   1.174   0.942  2.1530  1.0622  0.5530
  215SOL    HW2  645   0.478   1.266   0.946  0.7258  2.8199  0.2526
  216SOL     OW  646   0.287   2.549   2.772 -0.4135 -0.4833  0.1115
  216SOL    HW1  647   0.371   2.579   2.729 -0.7448 -1.0368  1.5971
  216SOL    HW2  648   0.230   2.631   2.803 -1.7478  0.0770 -1.3578
  217SOL     OW  649   2.880   1.376   1.344  0.1712 -0.1109  0.0842
  217SOL    HW1  650   2.946   1.379   1.264 -2.4793 -2.3329 -1.3367
  217SOL    HW2  651   2.840   1.279   1.349 -1.1282 -1.2669  0.9376
  218SOL     OW  652   0.860   2.215   1.790  0.1343 -0.5849 -0.1991
  218SOL    HW1  653   0.780   2.258   1.835 -0.6433 -0.3858 -0.4283
  218SOL    HW2  654   0.925   2.165   1.850 -1.3292  1.8447 -2.6966
  219SOL     OW  655   1.978   1.563   0.397  0.2446  0.1827 -0.3140
  219SOL    HW1  656   1.904   1.595   0.335 -1.5816  1.6896  1.5989
  219SOL    HW2  657   2.065   1.625   0.393  3.2349  0.3138  0.2160
  220SOL     OW  658   2.188   0.571   0.078 -0.1379 -0.1783 -0.1057
  220SOL    HW1  659   2.276   0.613   0.059  0.2351  0.3465 -0.7833
  220SOL    HW2  660   2.181   0.558   0.181  0.9835  3.3116  1.8247
  221SOL     OW  661   0.040   0.632   0.308  0.6553  0.2014 -0.1057
  221SOL    HW1  662   0.130   0.645   0.351  1.0570  0.3688 -1.9498
  221SOL    HW2  663   0.048   0.609   0.206  2.4166 -3.1885  0.8600
  222SOL     OW  664   1.599   1.357   0.765 -0.4632 -0.3533 -0.0703
  222SOL    HW1  665   1.618   1.346   0.667 -0.9480  1.4369 -1.5955
  222SOL    HW2  666   1.611   1.457   0.794  1.1582  1.7196  1.0209
  223SOL     OW  667   1.247   0.122   2.984 -0.4917  0.1827  0.0374
  223SOL    HW1  668   1.301   0.035   2.979 -2.5067  1.4337 -0.1540
  223SOL    HW2  669   1.164   0.103   3.038  1.7820  1.6542 -0.2899
  224SOL     OW  670   0.676   2.923   1.157  0.4317 -0.4383  0.2640
  224SOL    HW1  671   0.696   3.026   1.146 -0.3909  0.9214  2.9237
  224SOL    HW2  672   0.762   2.869   1.154 -0.6823  1.2106 -2.4769
  225SOL     OW  673   0.747   2.885   2.075  0.7972  0.1632 -0.8826
  225SOL    HW1  674   0.697   2.824   2.139  0.7050 -1.2153  1.6188
  225SOL    HW2  675   0.802   2.834   2.006  3.5748  0.6731  2.0870
  226SOL     OW  676   1.516   1.619   0.454 -0.5853 -0.2480 -0.3520
  226SOL    HW1  677   1.567   1.710   0.471  2.3522  3.1646  1.0203
  226SOL    HW2  678   1.577   1.562   0.394  1.3076 -0.0670 -0.8469
  227SOL     OW  679   0.490   1.876   1.229  0.2616 -0.6147  0.1221
  227SOL    HW1  680   0.507   1.975   1.210  0.2582 -0.6477 -2.3220
  227SOL    HW2  681   0.547   1.815   1.168  2.6710 -1.3240  0.4156
  228SOL     OW  682   0.061   1.842   0.532  0.7117  0.2211 -0.3160
  228SOL    HW1  683   0.152   1.803   0.503  0.3821  1.3399  1.9165
  228SOL    HW2  684   0.074   1.929   0.579 -2.4162  0.3540  1.9866
  229SOL     OW  685   2.816   0.315   2.901 -0.0288 -0.8949  0.5073
  229SOL    HW1  686   2.732   0.265   2.870 -0.0475 -0.4185 -0.9061
  229SOL    HW2  687   2.894   0.254   2.891 -0.3350 -0.0746 -1.3834
  230SOL     OW  688   2.523   0.833   0.495  0.4835  0.5157  0.7297
  230SOL    HW1  689   2.492   0.733   0.476 -0.3526 -2.8275  1.2003
  230SOL    HW2  690   2.442   0.898   0.515 -3.5242  0.0489  0.2603
  231SOL     OW  691   1.748   1.478   2.933 -0.4524  0.2685 -0.3342
  231SOL    HW1  692   1.648   1.452   2.930  1.1200 -1.1877 -0.3986
  231SOL    HW2  693   1.762   1.574   2.905 -0.4577  0.9081  0.6865
  232SOL     OW  694   2.485   1.761   1.074  0.2367  0.8216 -0.0627
  232SOL    HW1  695   2.512   1.663   1.088  1.1744 -1.1263  0.9237
  232SOL    HW2  696   2.418   1.786   1.144 -1.1685 -0.1579 -2.5566
  233SOL     OW  697   0.149   2.690   1.562 -0.2848 -0.5825  0.1235
  233SOL    HW1  698   0.214   2.614   1.589  1.9635 -3.4669 -1.4501
  233SOL    HW2  699   0.051   2.667   1.587 -1.8936  1.6539 -1.2911
  234SOL     OW  700   0.739   0.055   2.600  0.4733 -0.4176 -0.0864
  234SOL    HW1  701   0.836   0.075   2.579  1.7198 -0.5949  0.7748
  234SOL    HW2  702   0.682   0.140   2.609  2.3802 -2.2283 -2.0930
  235SOL     OW  703   2.824   1.036   2.059  0.0553 -0.0791  0.5398
  235SOL    HW1  704   2.924   1.037   2.053 -1.0287  1.6597 -2.1835
  235SOL    HW2  705   2.788   0.951   2.103  1.0135  2.1288 -1.9235
  236SOL     OW  706   1.137   2.844   1.758  0.6990  0.6538  0.3297
  236SOL    HW1  707   1.044   2.834   1.793 -2.6249 -1.9425 -1.2688
  236SOL    HW2  708   1.201   2.783   1.814 -1.0637 -1.0400 -0.5687
  237SOL     OW  709   0.500   1.557   2.671 -0.1273  0.0168 -0.2286
  237SOL    HW1  710   0.539   1.553   2.576  1.0401  0.5472  1.8707
  237SOL    HW2  711   0.510   1.647   2.717 -2.4119  0.9461  1.5679
  238SOL     OW  712   0.971   0.577   2.408  0.2385 -0.8372  0.0523
  238SOL    HW1  713   0.965   0.671   2.369  0.7221  1.6622 -0.6971
  238SOL    HW2  714   0.879   0.554   2.445 -0.2089  0.9995 -2.3317
  239SOL     OW  715   0.458   2.134   2.103  0.0314  0.3530  0.1410
  239SOL    HW1  716   0.520   2.054   2.101 -1.3588 -0.9614  2.1110
  239SOL    HW2  717   0.508   2.223   2.116  1.4113 -1.3297  0.7597
  240SOL     OW  718   2.564   0.023   0.512  0.2213 -0.4139 -0.3646
  240SOL    HW1  719   2.468   3.072   0.549 -1.5694  1.8741 -0.2414
  240SOL    HW2  720   2.549   0.094   0.437  0.8471  0.8559 -0.8697
  241SOL     OW  721   0.181   0.903   0.109  0.4761 -0.7282 -0.9725
  241SOL    HW1  722   0.111   0.916   0.184  0.8884  0.6308  0.1646
  241SOL    HW2  723   0.198   0.992   0.062 -0.6514  2.4942  0.1954
  242SOL     OW  724   1.521   2.469   1.798 -0.0251 -0.1276 -0.2826
  242SOL    HW1  725   1.590   2.487   1.727  0.7401 -0.2005  2.0821
  242SOL    HW2  726   1.435   2.445   1.748  2.5095 -0.2313  0.6147
  243SOL     OW  727   0.641   2.373   1.871  0.0820  0.1749  0.1549
  243SOL    HW1  728   0.683   2.435   1.799  0.8150 -0.5843  0.5042
  243SOL    HW2  729   0.569   2.304   1.835 -1.5148 -2.4155  1.3548
  244SOL     OW  730   2.396   0.627   2.566 -0.2478  0.5643  0.0167
  244SOL    HW1  731   2.363   0.650   2.661 -1.6964  0.7023 -0.7296
  244SOL    HW2  732   2.480   0.570   2.582 -1.4617 -0.6027 -0.0152
  245SOL     OW  733   1.503   2.711   1.391 -0.2222  0.3674 -0.3960
  245SOL    HW1  734   1.540   2.777   1.458 -2.8214  2.3845  0.5722
  245SOL    HW2  735   1.506   2.741   1.297 -0.0915  1.5291  1.9014
  246SOL     OW  736   1.498   0.055   0.473 -0.1570  0.2004  0.0764
  246SOL    HW1  737   1.472   0.097   0.562 -0.6878 -0.9649  1.1647
  246SOL    HW2  738   1.460   0.120   0.402  0.5609 -0.7686  2.5783
  247SOL     OW  739   1.846   0.505   1.955  0.6203 -0.0517  0.2665
  247SOL    HW1  740   1.800   0.413   1.946 -1.1091 -0.6281  0.4307
  247SOL    HW2  741   1.859   0.531   1.859  2.1194 -3.2929  2.8913
  248SOL     OW  742   0.003   2.061   1.963 -0.3475  0.1190  0.1138
  248SOL    HW1  743   0.087   2.052   1.901  0.8775  0.7265 -1.1468
  248SOL    HW2  744   3.013   1.990   1.937 -2.6717 -0.6314 -0.8462
  249SOL     OW  745   0.014   0.194   0.502  0.3118 -0.0217  0.1545
  249SOL    HW1  746   3.019   0.129   0.521 -0.9697 -0.2191  4.9686
  249SOL    HW2  747   0.027   0.265   0.574 -0.5524 -1.2455 -0.4712
  250SOL     OW  748   2.610   0.044   2.362  0.0005  0.2747  0.5286
  250SOL    HW1  749   2.622   3.045   2.428  1.2311  1.1952  1.3678
  250SOL    HW2  750   2.536   0.027   2.292 -0.6410 -0.6036 -1.1005
  251SOL     OW  751   1.361   0.590   3.063 -0.7910 -0.2385  0.0740
  251SOL    HW1  752   1.362   0.488   3.071 -0.2263  0.5129 -1.6243
  251SOL    HW2  753   1.452   0.634   0.004 -1.8303 -0.8705 -2.2954
  252SOL     OW  754   0.924   2.599   2.272 -0.0024  0.5689 -0.2472
  252SOL    HW1  755   0.959   2.690   2.307  1.9908  0.4855  0.7450
  252SOL    HW2  756   0.895   2.614   2.174 -0.2055  2.0169  0.3356
  253SOL     OW  757   2.507   2.506   0.800  0.3115 -0.1011 -0.0348
  253SOL    HW1  758   2.428   2.566   0.820  0.4154  0.5884 -1.1517
  253SOL    HW2  759   2.566   2.542   0.725  1.8162 -1.1906 -0.6042
  254SOL     OW  760   2.270   1.271   1.159 -0.4174  0.3705 -0.0164
  254SOL    HW1  761   2.293   1.346   1.225 -1.2402  0.5085  0.1268
  254SOL    HW2  762   2.336   1.262   1.083 -2.0730 -2.9447  1.2902
  255SOL     OW  763   0.643   2.608   1.223  0.6300 -0.8830  0.2471
  255SOL    HW1  764   0.599   2.693   1.265 -3.6366 -0.7298  1.1593
  255SOL    HW2  765   0.605   2.581   1.137 -0.0398  0.5527  1.7980
  256SOL     OW  766   2.054   1.832   1.697 -0.2672 -0.5357  0.0361
  256SOL    HW1  767   2.022   1.788   1.608  0.5956 -0.5994  0.9174
  256SOL    HW2  768   2.040   1.764   1.770 -1.5046  0.6193  3.0724
  257SOL     OW  769   0.215   2.332   2.610  0.2768 -0.1010 -0.2283
  257SOL    HW1  770   0.304   2.281   2.613 -0.8350 -1.2325  0.7027
  257SOL    HW2  771   0.222   2.419   2.661  1.0803 -0.6334 -2.3041
  258SOL     OW  772   0.601   2.780   0.893  0.6427  0.2967  0.0898
  258SOL    HW1  773   0.620   2.832   0.979 -0.0904 -0.4985 -1.8884
  258SOL    HW2  774   0.603   2.677   0.907  1.3021 -3.5317  3.6223
  259SOL     OW  775   1.531   0.317   2.761 -0.4778 -0.5500  0.2231
  259SOL    HW1  776   1.563   0.306   2.853 -2.1892 -2.7108 -0.5011
  259SOL    HW2  777   1.430   0.326   2.763  1.0600 -1.9464  1.8819
  260SOL     OW  778   0.319   0.418   1.220  0.5151  0.1003 -0.5004
  260SOL    HW1  779   0.254   0.380   1.151 -0.2661 -0.1292 -3.6964
  260SOL    HW2  780   0.403   0.453   1.172 -0.3636  0.5276 -2.9389
  261SOL     OW  781   0.562   3.056   2.400  0.4506  0.4076  0.5031
  261SOL    HW1  782   0.599   0.000   2.310 -0.1802  1.5004  0.0686
  261SOL    HW2  783   0.626   3.079   2.473 -0.4226  1.2364 -0.3148
  262SOL     OW  784   0.864   2.775   1.847 -0.3035 -0.1927 -0.1408
  262SOL    HW1  785   0.781   2.791   1.791 -0.0201 -0.9607 -0.1826
  262SOL    HW2  786   0.844   2.691   1.906  0.1937 -1.3890  0.2464
  263SOL     OW  787   0.718   2.259   0.326 -0.4426 -0.9795  0.1959
  263SOL    HW1  788   0.789   2.239   0.253  0.5549 -0.3531 -3.0832
  263SOL    HW2  789   0.726   2.196   0.402 -0.4060 -1.5218 -2.1914
  264SOL     OW  790   1.732   1.548   1.067  0.0336 -0.0358 -0.1175
  264SOL    HW1  791   1.784   1.613   1.007  1.4622  0.9221 -0.1056
  264SOL    HW2  792   1.712   1.465   1.018 -2.3160 -0.9392 -1.5417
  265SOL     OW  793   0.928   2.411   0.616 -0.0454 -0.3689 -0.2059
  265SOL    HW1  794   0.838   2.383   0.653 -1.2716  2.1299  0.2713
  265SOL    HW2  795   0.968   2.483   0.670  0.1783  0.8020 -3.4473
  266SOL     OW  796   2.874   0.988   0.735  0.0668  0.6071 -0.0752
  266SOL    HW1  797   2.805   0.913   0.729 -0.9475  2.4347 -2.5325
  266SOL    HW2  798   2.964   0.964   0.775 -0.0270  0.4961 -1.2703
  267SOL     OW  799   0.204   1.378   0.063 -0.2750  0.1708 -0.3953
  267SOL    HW1  800   0.267   1.358   0.140  0.3070  1.2958  0.2183
  267SOL    HW2  801   0.228   1.461   0.012 -1.1950 -2.7424 -0.3289
  268SOL     OW  802   1.663   0.453   0.458  0.6632  0.1466  0.4037
  268SOL    HW1  803   1.675   0.354   0.484  1.1275  0.3274 -0.7560
  268SOL    HW2  804   1.665   0.516   0.539 -1.7663  0.4013 -1.1100
  269SOL     OW  805   2.957   0.767   2.288  0.3027  0.0403  0.1660
  269SOL    HW1  806   3.013   0.851   2.273 -3.4600  0.1531 -0.3449
  269SOL    HW2  807   3.009   0.702   2.230  0.3800  0.7905 -0.8674
  270SOL     OW  808   3.043   0.981   0.257 -1.0843 -0.0449 -0.1971
  270SOL    HW1  809   2.982   0.991   0.341  0.2222 -0.8109 -2.3405
  270SOL    HW2  810   2.989   0.972   0.171  2.8143 -1.3131 -2.7194
  271SOL     OW  811   2.861   1.499   2.050 -0.1534 -0.1863  0.1192
  271SOL    HW1  812   2.785   1.541   1.994 -1.3254  0.5743 -0.7378
  271SOL    HW2  813   2.948   1.495   1.997 -1.9151  5.1094  0.4904
  272SOL     OW  814   2.379   2.345   1.744 -0.3277 -0.3049  0.6411
  272SOL    HW1  815   2.442   2.264   1.760 -3.7151 -0.7083 -0.1038
  272SOL    HW2  816   2.319   2.363   1.825 -1.0475 -0.0105  1.4294
  273SOL     OW  817   0.021   2.438   0.248  0.3624  0.3878  0.1366
  273SOL    HW1  818   0.122   2.467   0.247  1.5039 -2.9764  0.5849
  273SOL    HW2  819   0.015   2.339   0.222 -0.1011 -0.4777  0.1086
  274SOL     OW  820   0.736   2.332   0.817  0.0250  0.5098 -0.1413
  274SOL    HW1  821   0.712   2.235   0.786  0.0056 -1.9712 -0.1821
  274SOL    HW2  822   0.787   2.327   0.904 -1.9598 -1.4867  2.6865
  275SOL     OW  823   1.607   1.998   2.819  0.0657  0.1323 -0.0495
  275SOL    HW1  824   1.702   2.031   2.839 -0.3429  0.1305 -3.2655
  275SOL    HW2  825   1.611   1.949   2.730  1.4411  5.8900  1.0173
  276SOL     OW  826   2.314   1.580   1.921 -0.1778  0.2620  0.0251
  276SOL    HW1  827   2.346   1.530   1.839  1.6556  1.2384  0.3797
  276SOL    HW2  828   2.311   1.679   1.903  1.7562  0.2330  1.7175
  277SOL     OW  829   2.159   0.108   0.701  0.2523 -0.3890 -0.7588
  277SOL    HW1  830   2.183   0.107   0.802  1.6743 -0.2537  3.0624
  277SOL    HW2  831   2.106   0.194   0.682 -1.1951  3.5261 -0.7773
  278SOL     OW  832   1.622   0.503   2.582  0.0351  0.5884 -0.0979
  278SOL    HW1  833   1.590   0.438   2.656  0.2525 -2.6424 -0.5972
  278SOL    HW2  834   1.549   0.574   2.561  0.4293 -0.7528 -0.7927
  279SOL     OW  835   0.951   2.772   1.159 -0.0186  0.2387 -0.0478
  279SOL    HW1  836   1.005   2.703   1.105 -0.5522 -2.9272 -1.0687
  279SOL    HW2  837   0.954   2.749   1.260 -2.5012  0.4652 -0.4525
  280SOL     OW  838   1.275   1.296   0.350 -0.1584 -0.3713 -0.8125
  280SOL    HW1  839   1.199   1.235   0.385 -1.2380  1.0424  1.2257
  280SOL    HW2  840   1.351   1.236   0.305  0.3966 -1.4281 -0.5268
  281SOL     OW  841   2.205   1.701   0.427  0.5723  0.2272 -0.1232
  281SOL    HW1  842   2.286   1.723   0.367 -0.8474 -1.0970 -0.8963
  281SOL    HW2  843   2.206   1.772   0.506 -0.8834 -0.0437  1.6713
  282SOL     OW  844   2.820   1.293   0.331 -0.0025 -0.4657  0.1686
  282SOL    HW1  845   2.877   1.222   0.369 -0.8765  2.0342 -0.9966
  282SOL    HW2  846   2.856   1.384   0.343 -1.8161 -3.3640 -0.5120
  283SOL     OW  847   1.622   2.876   2.803  0.1568  0.7175  0.0093
  283SOL    HW1  848   1.689   2.938   2.768 -2.6325 -1.1224 -0.1983
  283SOL    HW2  849   1.653   2.805   2.867 -2.8217  2.1651 -2.3340
  284SOL     OW  850   0.761   3.038   2.949  0.0653 -0.1937 -0.1782
  284SOL    HW1  851   0.722   0.053   2.950 -1.1113  1.6332 -1.7455
  284SOL    HW2  852   0.791   3.008   3.040  0.9211 -0.1540  0.4630
  285SOL     OW  853   1.780   1.734   2.867  0.2844 -0.2111  0.2537
  285SOL    HW1  854   1.704   1.797   2.833 -1.4131  1.8516 -0.8970
  285SOL    HW2  855   1.844   1.705   2.787  1.9822  0.2601  0.3797
  286SOL     OW  856   1.837   2.064   1.523  0.2950 -0.2134  0.1651
  286SOL    HW1  857   1.778   1.980   1.532  0.1218 -1.2766 -1.8394
  286SOL    HW2  858   1.808   2.143   1.586  0.4909  1.7215  2.8546
  287SOL     OW  859   1.790   0.089   1.699  0.2541  0.1835  0.4231
  287SOL    HW1  860   1.894   0.089   1.710 -1.3539 -1.7379 -0.4575
  287SOL    HW2  861   1.749   3.081   1.732 -1.5483  1.0967 -3.4178
  288SOL     OW  862   0.588   2.697   2.214  0.4203 -0.1012 -0.2813
  288SOL    HW1  863   0.548   2.769   2.276 -1.4075  0.0299  0.4632
  288SOL    HW2  864   0.515   2.629   2.196 -0.5432 -1.9762 -1.0488
  289SOL     OW  865   0.451   1.870   0.777  0.0362  0.4505 -0.2686
  289SOL    HW1  866   0.369   1.845   0.832  0.6342  0.7535  0.5329
  289SOL    HW2  867   0.451   1.962   0.733  0.9666  3.7895 -2.0175
  290SOL     OW  868   1.037   1.900   1.821 -0.3334  0.1316 -0.0269
  290SOL    HW1  869   0.991   1.901   1.913  1.4440  0.3574 -3.1726
  290SOL    HW2  870   1.080   1.988   1.803  0.4583  1.9514 -0.1399
  291SOL     OW  871   1.786   0.175   0.483  0.1891  0.0097  0.1384
  291SOL    HW1  872   1.724   0.098   0.525 -2.6102 -2.9149  0.8593
  291SOL    HW2  873   1.833   0.149   0.401 -0.5078  1.3215  3.2964
  292SOL     OW  874   0.466   0.342   1.425 -0.3016 -0.6461 -0.3116
  292SOL    HW1  875   0.487   0.427   1.482 -0.9795  2.4192 -0.6572
  292SOL    HW2  876   0.393   0.360   1.356 -1.2000  0.4250  0.9056
  293SOL     OW  877   2.373   1.776   0.833 -0.1737  0.3853 -0.4742
  293SOL    HW1  878   2.423   1.803   0.918  0.2208  0.2791  0.7284
  293SOL    HW2  879   2.429   1.711   0.777  1.4423  1.3651 -0.9579
  294SOL     OW  880   0.298   0.063   2.301 -0.2864 -0.0670  0.0183
  294SOL    HW1  881   0.217   0.013   2.273  1.6060  0.5452  1.1430
  294SOL    HW2  882   0.384   0.007   2.318  3.5517 -0.4768  2.8288
  295SOL     OW  883   0.987   1.508   0.520 -0.2834 -0.2584 -0.1405
  295SOL    HW1  884   1.086   1.525   0.505 -1.7261 -0.4652 -0.9926
  295SOL    HW2  885   0.946   1.455   0.443  0.4654 -1.9362  0.3221
  296SOL     OW  886   2.141   1.636   0.956 -0.2827  0.0847  0.1473
  296SOL    HW1  887   2.211   1.679   0.893  2.6382  0.8373  0.2090
  296SOL    HW2  888   2.107   1.545   0.922 -0.0840 -0.0735 -1.0437
  297SOL     OW  889   1.829   0.610   2.718 -0.0521  0.0154  0.0538
  297SOL    HW1  890   1.802   0.708   2.721 -0.2036 -1.5894 -2.3715
  297SOL    HW2  891   1.754   0.552   2.686  1.4092  0.1870  0.6592
  298SOL     OW  892   1.246   0.123   2.570  0.1517 -0.2472  0.2087
  298SOL    HW1  893   1.274   0.177   2.654  2.8223 -2.2558  2.2221
  298SOL    HW2  894   1.329   0.104   2.513 -0.1144  1.0173  0.0255
  299SOL     OW  895   0.855   0.440   1.846  0.0294  1.0801 -0.2179
  299SOL    HW1  896   0.947   0.393   1.853  1.6475 -0.4068 -0.4444
  299SOL    HW2  897   0.792   0.384   1.789 -0.9414  1.5321  1.8622
  300SOL     OW  898   2.856   0.422   1.660  0.0879 -0.0931  0.0726
  300SOL    HW1  899   2.928   0.451   1.588 -0.2586  2.3617 -0.5106
  300SOL    HW2  900   2.881   0.329   1.696  3.4668 -0.2288 -0.4928
  301SOL     OW  901   1.845   0.755   1.624  0.1506  0.2386  0.3616
  301SOL    HW1  902   1.752   0.792   1.655  0.8695  1.4634 -1.1824
  301SOL    HW2  903   1.841   0.653   1.627  2.9338  0.8247  0.3396
  302SOL     OW  904   0.850   2.881   0.198  0.6392  0.1374 -0.1434
  302SOL    HW1  905   0.820   2.977   0.209  0.4774 -0.5518  0.9318
  302SOL    HW2  906   0.814   2.825   0.272  2.9339 -2.0464 -2.4232
  303SOL     OW  907   1.988   2.081   1.818  0.0621 -0.0968 -0.0761
  303SOL    HW1  908   1.894   2.120   1.792 -0.7142 -1.3622 -1.4883
  303SOL    HW2  909   2.000   2.016   1.743 -1.8824  2.6875 -1.7802
  304SOL     OW  910   0.177   3.003   0.705 -0.1778  0.2086  0.2750
  304SOL    HW1  911   0.222   3.067   0.642  0.0052 -1.2448 -0.2009
  304SOL    HW2  912   0.247   2.945   0.750  2.2749  2.2549  0.2799
  305SOL     OW  913   1.267   0.967   0.325 -0.6839 -0.2277 -0.0364
  305SOL    HW1  914   1.347   1.011   0.277  1.3529 -0.2637 -0.1854
  305SOL    HW2  915   1.236   0.883   0.275  0.1169  1.7636  1.2182
  306SOL     OW  916   0.631   1.557   0.222  0.1606 -0.5630 -0.1626
  306SOL    HW1  917   0.631   1.464   0.261  1.1693  0.1948  0.8463
  306SOL    HW2  918   0.672   1.630   0.288 -0.0913  0.9246  2.0468
  307SOL     OW  919   0.617   0.451   1.976 -0.0954  0.2005 -0.2626
  307SOL    HW1  920   0.598   0.501   2.062 -1.2248  1.3437 -0.5690
  307SOL    HW2  921   0.713   0.422   1.976 -3.4217 -1.5826 -2.1490
  308SOL     OW  922   0.433   0.075   0.993 -0.3229  0.0273 -0.0915
  308SOL    HW1  923   0.452   0.149   0.928  2.1720  0.7459  0.5502
  308SOL    HW2  924   0.520   0.064   1.052  3.9678  1.7181  1.3553
  309SOL     OW  925   2.128   1.143   0.157  0.2675 -0.6348  0.2980
  309SOL    HW1  926   2.201   1.147   0.229  2.1892 -0.9261  0.8894
  309SOL    HW2  927   2.050   1.201   0.196 -1.4227 -1.7830  0.1080
  310SOL     OW  928   1.113   1.432   2.982 -0.1044  0.2124 -0.1500
  310SOL    HW1  929   1.092   1.511   2.929  3.0622  0.1800  2.0963
  310SOL    HW2  930   1.122   1.459   3.081  0.4246  1.9894  1.8955
  311SOL     OW  931   1.883   2.427   1.968  0.2504 -0.1373 -0.7703
  311SOL    HW1  932   1.960   2.361   1.982 -1.4906 -0.1501 -0.4600
  311SOL    HW2  933   1.828   2.440   2.052  2.1195  0.3851  0.7944
  312SOL     OW  934   2.354   2.989   0.218 -0.7736 -0.1100 -0.2548
  312SOL    HW1  935   2.253   2.997   0.245  2.8445 -0.9927  0.9685
  312SOL    HW2  936   2.394   3.062   0.156 -1.5949  1.1207  0.5338
  313SOL     OW  937   0.522   0.523   0.227 -0.1961 -0.2083  0.3043
  313SOL    HW1  938   0.512   0.621   0.207  0.9063 -3.2845  3.1309
  313SOL    HW2  939   0.619   0.496   0.226  0.0333  0.6736  4.3844
  314SOL     OW  940   2.602   1.519   2.929  0.3363  0.2313 -0.2415
  314SOL    HW1  941   2.608   1.489   2.831 -1.5220 -0.1504 -3.4255
  314SOL    HW2  942   2.694   1.565   2.955  1.5173  1.9285  1.7717
  315SOL     OW  943   1.683   0.715   2.075  0.1312  0.1573 -0.9917
  315SOL    HW1  944   1.734   0.627   2.059 -0.0413  4.2403 -1.0199
  315SOL    HW2  945   1.706   0.753   2.169 -1.5670 -0.2359 -0.3434
  316SOL     OW  946   0.125   1.113   0.677 -0.1026 -0.0396 -1.0527
  316SOL    HW1  947   0.074   1.031   0.723 -1.7037 -0.4577  2.3586
  316SOL    HW2  948   0.148   1.181   0.746 -3.1100 -2.9263  0.5779
  317SOL     OW  949   0.719   0.057   0.276 -0.2604 -0.1321  0.4166
  317SOL    HW1  950   0.648   0.109   0.228  0.6885 -2.0248 -2.9047
  317SOL    HW2  951   0.675   0.005   0.355  1.4938 -0.9873 -0.8388
  318SOL     OW  952   1.761   2.488   0.979  0.4254 -0.0315 -1.0759
  318SOL    HW1  953   1.812   2.459   1.070  3.1660 -4.0162  2.1272
  318SOL    HW2  954   1.824   2.475   0.906  0.4177  0.6244 -0.8657
  319SOL     OW  955   1.251   1.532   0.459  0.7871  0.5231 -0.3011
  319SOL    HW1  956   1.255   1.441   0.415  0.1546  0.7717  1.6296
  319SOL    HW2  957   1.341   1.577   0.467  0.7874 -2.1240 -0.7144
  320SOL     OW  958   0.518   2.131   1.147  0.4827 -0.2192  0.2629
  320SOL    HW1  959   0.475   2.176   1.065  0.1834 -2.7012 -0.1777
  320SOL    HW2  960   0.528   2.188   1.232 -1.5849 -0.6294 -3.3136
  321SOL     OW  961   2.316   2.396   2.028 -0.1493  0.4280 -0.4540
  321SOL    HW1  962   2.287   2.304   2.067 -0.2906 -1.7153 -0.7695
  321SOL    HW2  963   2.299   2.472   2.090  0.8280 -1.7130 -2.0877
  322SOL     OW  964   2.694   2.364   2.480 -0.6283  0.2506 -0.2700
  322SOL    HW1  965   2.783   2.368   2.431  0.2419 -2.1234 -1.2548
  322SOL    HW2  966   2.630   2.300   2.434 -1.6787 -0.0476 -0.3161
  323SOL     OW  967   2.689   0.794   0.706  0.3429  0.0822 -0.0774
  323SOL    HW1  968   2.709   0.696   0.734 -0.5025 -1.3848 -1.0695
  323SOL    HW2  969   2.626   0.798   0.621 -3.0278 -0.0003 -3.1064
  324SOL     OW  970   2.266   2.200   2.377  0.3945 -0.5284  0.1023
  324SOL    HW1  971   2.240   2.296   2.405 -0.4389  0.8880  0.6070
  324SOL    HW2  972   2.265   2.139   2.456 -1.4858  1.3629  0.0290
  325SOL     OW  973   1.188   0.394   2.433 -0.6692  0.5894 -0.3013
  325SOL    HW1  974   1.124   0.471   2.434  2.5828 -0.8721 -1.5373
  325SOL    HW2  975   1.204   0.351   2.523  0.7551 -1.2655 -0.5689
  326SOL     OW  976   2.494   2.238   0.819  0.4045 -0.1522 -0.0599
  326SOL    HW1  977   2.513   2.337   0.805  0.6862  1.2920 -3.0698
  326SOL    HW2  978   2.451   2.224   0.911  3.2792  1.7720 -1.3750
  327SOL     OW  979   2.671   2.989   0.100 -0.2951 -0.1368 -0.1840
  327SOL    HW1  980   2.588   3.045   0.064 -2.7143 -1.4408 -0.6939
  327SOL    HW2  981   2.728   2.964   0.019 -2.8434 -0.3897 -1.2821
  328SOL     OW  982   1.151   0.740   0.700  0.1569 -0.9815 -0.3580
  328SOL    HW1  983   1.199   0.680   0.762  2.5665 -0.5359  0.3891
  328SOL    HW2  984   1.177   0.837   0.716  0.4146 -0.0724 -1.6186
  329SOL     OW  985   2.243   0.837   1.431 -0.5739 -0.5727 -0.1396
  329SOL    HW1  986   2.230   0.904   1.353 -1.6451  0.6017 -0.3487
  329SOL    HW2  987   2.250   0.891   1.518 -1.0320  2.8392 -2.2702
  330SOL     OW  988   0.949   0.581   0.581  0.1316 -0.4014  0.7992
  330SOL    HW1  989   0.931   0.631   0.491  0.6195  1.5045 -0.0147
  330SOL    HW2  990   0.999   0.630   0.654  0.3266 -1.4323  0.4616
  331SOL     OW  991   0.795   1.849   1.709 -0.1788  0.4828 -0.3146
  331SOL    HW1  992   0.889   1.855   1.753  0.6549  1.1815  0.4406
  331SOL    HW2  993   0.800   1.822   1.614 -0.1543  2.9382 -0.6897
  332SOL     OW  994   2.019   2.199   2.050 -0.6410 -0.3337 -0.4342
  332SOL    HW1  995   2.105   2.185   2.098 -0.2331  1.3077 -1.3139
  332SOL    HW2  996   2.023   2.147   1.962  1.3501  0.1262  0.8145
  333SOL     OW  997   2.914   3.043   0.956 -0.3581  0.0514 -0.2853
  333SOL    HW1  998   2.871   0.029   1.027 -1.6066  1.9751  1.7331
  333SOL    HW2  999   2.841   2.978   0.923 -0.3285  0.5814 -0.6810
  334SOL     OW 1000   0.029   1.710   0.773  0.1076 -0.0559  0.3096
  334SOL    HW1 1001   0.082   1.625   0.774 -1.7991 -0.5144 -1.7287
  334SOL    HW2 1002   0.035   1.769   0.685  1.3323  2.2164  0.2058
  335SOL     OW 1003   0.485   2.732   2.714 -0.0058  0.5340 -0.5425
  335SOL    HW1 1004   0.586   2.736   2.710 -2.3406 -0.0560  0.0751
  335SOL    HW2 1005   0.455   2.799   2.779  0.8403  0.2279 -0.7100
  336SOL     OW 1006   0.176   2.599   1.886 -0.4120 -0.0657  0.1100
  336SOL    HW1 1007   0.099   2.538   1.903  2.6076  2.2193  0.1464
  336SOL    HW2 1008   0.144   2.694   1.855  0.1855 -1.0014 -1.1376
  337SOL     OW 1009   1.357   1.988   2.340  0.2528  0.1058 -0.4359
  337SOL    HW1 1010   1.286   1.936   2.393 -1.6920 -1.2971 -1.5254
  337SOL    HW2 1011   1.448   1.940   2.341  0.0086  4.1081  2.2355
  338SOL     OW 1012   0.998   0.071   2.524 -0.5720  0.3452 -0.1452
  338SOL    HW1 1013   1.010   3.049   2.509  1.0167  0.0467  1.6996
  338SOL    HW2 1014   1.090   0.115   2.527  1.9905  3.8479 -1.0798
  339SOL     OW 1015   0.162   1.146   2.680 -0.3096  0.3436  0.3937
  339SOL    HW1 1016   0.098   1.097   2.620 -0.1808 -3.0465  0.2136
  339SOL    HW2 1017   0.111   1.212   2.738  2.7845  1.4807 -1.3911
  340SOL     OW 1018   2.192   0.575   1.391 -0.0167  0.5764  0.7551
  340SOL    HW1 1019   2.206   0.664   1.442  0.6664 -3.2353  1.7939
  340SOL    HW2 1020   2.282   0.533   1.358  2.7975  2.2366  0.1388
  341SOL     OW 1021   2.011   1.144   0.884  0.0248  0.2761 -0.4572
  341SOL    HW1 1022   2.020   1.099   0.792 -1.7955  1.3838  0.8643
  341SOL    HW2 1023   2.007   1.074   0.958  0.2068  0.8821 -0.7117
  342SOL     OW 1024   2.221   2.738   2.786 -0.1502  0.4401  0.2938
  342SOL    HW1 1025   2.259   2.755   2.880  0.0859  1.4286  2.1703
  342SOL    HW2 1026   2.120   2.709   2.788 -1.7911 -0.6145  1.2026
  343SOL     OW 1027   2.891   2.604   0.990  0.0620  0.1064 -0.3906
  343SOL    HW1 1028   2.950   2.643   1.066  2.3493 -1.2764  0.2392
  343SOL    HW2 1029   2.790   2.582   1.015 -2.5323 -1.4827  1.6435
  344SOL     OW 1030   2.354   2.744   0.869 -0.2765 -0.5077 -0.0402
  344SOL    HW1 1031   2.433   2.814   0.872  0.3928  1.6934 -0.4892
  344SOL    HW2 1032   2.306   2.747   0.777  1.6179  2.7515 -1.4524
  345SOL     OW 1033   2.502   2.344   0.258  0.3100  0.6992  0.0234
  345SOL    HW1 1034   2.597   2.352   0.239 -3.9147 -1.7412  0.0391
  345SOL    HW2 1035   2.477   2.400   0.343 -2.1415  1.1916 -0.4620
  346SOL     OW 1036   1.220   2.110   1.753 -0.6134 -0.6519  0.0729
  346SOL    HW1 1037   1.268   2.116   1.846 -2.2654  0.9165  2.8469
  346SOL    HW2 1038   1.285   2.080   1.678  1.8661  0.2884  0.5877
  347SOL     OW 1039   1.245   2.073   2.112 -0.1289 -0.8260  0.1544
  347SOL    HW1 1040   1.290   2.028   2.194 -1.6871  0.4490  2.7108
  347SOL    HW2 1041   1.290   2.043   2.029  3.5309  1.3057  1.7342
  348SOL     OW 1042   0.957   1.675   1.466 -0.3553 -0.0943  0.0528
  348SOL    HW1 1043   0.865   1.631   1.470 -1.0125  0.4199  1.8103
  348SOL    HW2 1044   0.942   1.775   1.448 -0.9520 -0.2547  1.1297
  349SOL     OW 1045   1.743   1.411   1.489 -0.1241 -0.3538  0.2040
  349SOL    HW1 1046   1.780   1.425   1.585  1.7191 -0.7346  4.3691
  349SOL    HW2 1047   1.668   1.338   1.488  0.3191 -1.7013  1.2822
  350SOL     OW 1048   2.276   2.393   0.589 -0.0286  0.8134  0.4392
  350SOL    HW1 1049   2.357   2.452   0.574 -0.8598 -2.6948  2.2647
  350SOL    HW2 1050   2.224   2.394   0.499 -1.8645  0.3983  0.8249
  351SOL     OW 1051   0.356   2.997   1.854 -0.0226  0.1409 -0.3743
  351SOL    HW1 1052   0.324   2.980   1.761  0.9953 -1.5005  0.6168
  351SOL    HW2 1053   0.276   3.028   1.907 -1.8573 -0.8809 -2.8712
  352SOL     OW 1054   0.603   1.043   0.294 -0.4173 -0.6610 -0.2982
  352SOL    HW1 1055   0.613   1.033   0.397 -1.8202 -1.1935  1.4264
  352SOL    HW2 1056   0.537   0.973   0.258  0.2120 -0.1598 -0.0291
  353SOL     OW 1057   1.027   1.674   2.879 -0.4674 -0.3326 -0.0046
  353SOL    HW1 1058   1.024   1.721   2.972 -2.4902  2.9367  1.3784
  353SOL    HW2 1059   0.938   1.691   2.828 -2.5877 -1.0085  0.3755
  354SOL     OW 1060   1.699   2.704   1.933  0.2089 -0.0972 -0.0805
  354SOL    HW1 1061   1.649   2.622   1.903  1.1048 -0.0603  1.7884
  354SOL    HW2 1062   1.775   2.687   2.003  2.1264 -1.9523  1.2612
  355SOL     OW 1063   2.316   0.979   0.005 -0.6334  0.2071  0.6390
  355SOL    HW1 1064   2.305   0.981   2.986 -1.9778 -0.9369 -0.4505
  355SOL    HW2 1065   2.242   1.034   0.053 -2.1004  2.9152 -0.9348
  356SOL     OW 1066   0.233   2.402   1.277  0.1443  0.0966 -0.0088
  356SOL    HW1 1067   0.204   2.384   1.183 -2.0985  1.1607 -0.6385
  356SOL    HW2 1068   0.161   2.365   1.340  1.4059 -1.4117  2.0266
  357SOL     OW 1069   2.829   2.901   1.765 -0.1928 -0.1850  0.3030
  357SOL    HW1 1070   2.792   2.808   1.738  0.3113 -3.2351 -0.1075
  357SOL    HW2 1071   2.855   2.948   1.677 -0.1081 -1.0457 -0.8647
  358SOL     OW 1072   2.494   1.866   1.468 -0.5988  0.4264 -0.5042
  358SOL    HW1 1073   2.418   1.852   1.399 -1.2779 -1.0739  0.4427
  358SOL    HW2 1074   2.579   1.821   1.437 -1.8696  1.2563  1.2724
  359SOL     OW 1075   1.955   2.499   2.522  0.0725  0.6627  0.0196
  359SOL    HW1 1076   1.855   2.497   2.494  0.8282 -0.4114  2.3051
  359SOL    HW2 1077   1.976   2.414   2.581  2.6950 -1.3656  1.7734
  360SOL     OW 1078   1.034   2.956   0.936 -0.3752  0.1535 -0.3583
  360SOL    HW1 1079   0.970   2.907   0.872 -1.7228 -2.1392 -1.2813
  360SOL    HW2 1080   1.007   2.921   1.028  1.0226 -1.1095 -0.8810
  361SOL     OW 1081   1.944   0.299   0.659  0.0052 -0.5050  0.0791
  361SOL    HW1 1082   1.893   0.254   0.587  2.4491  0.6832  2.7981
  361SOL    HW2 1083   1.906   0.268   0.750 -1.7445  0.0631  1.5927
  362SOL     OW 1084   1.583   0.689   1.381 -0.4250  0.2807 -0.0470
  362SOL    HW1 1085   1.681   0.659   1.386  0.7598 -3.0086 -0.3499
  362SOL    HW2 1086   1.570   0.789   1.402  0.0845  0.9362  0.2553
  363SOL     OW 1087   1.912   1.609   1.967  0.4313 -0.6308 -0.0453
  363SOL    HW1 1088   1.824   1.563   1.948  0.1525 -0.7990  0.7528
  363SOL    HW2 1089   1.972   1.542   2.010 -0.5401  0.9175  0.4186
  364SOL     OW 1090   0.694   0.680   1.322 -0.0449 -0.2262 -0.2512
  364SOL    HW1 1091   0.734   0.628   1.241 -1.1269 -0.1195  0.5823
  364SOL    HW2 1092   0.626   0.744   1.287  0.5446  1.2472  1.5055
  365SOL     OW 1093   0.356   0.267   2.533  0.0953  0.2137  0.6555
  365SOL    HW1 1094   0.289   0.337   2.562 -0.7222 -0.7493 -0.8219
  365SOL    HW2 1095   0.312   0.204   2.466  0.8569  1.9267 -1.1604
  366SOL     OW 1096   2.215   1.291   3.036  0.0876  0.6405  0.1297
  366SOL    HW1 1097   2.186   1.385   3.061 -0.9092 -2.1744 -0.5000
  366SOL    HW2 1098   2.170   1.228   0.019 -0.6392 -2.6381 -1.6379
  367SOL     OW 1099   2.724   2.473   2.906 -0.2492  0.7232 -0.2163
  367SOL    HW1 1100   2.698   2.528   2.989 -4.2452  0.1365 -2.6207
  367SOL    HW2 1101   2.669   2.487   2.824 -1.8373 -3.6301  1.8155
  368SOL     OW 1102   0.197   1.269   0.883  0.2211 -0.0708  0.2481
  368SOL    HW1 1103   0.104   1.257   0.925 -0.2923  1.6780  0.1096
  368SOL    HW2 1104   0.217   1.360   0.838 -0.3151  2.4199 -0.4659
  369SOL     OW 1105   0.440   2.822   2.449 -0.0761 -0.1243 -0.1126
  369SOL    HW1 1106   0.471   2.766   2.531  1.0223 -2.4275  1.6875
  369SOL    HW2 1107   0.481   2.917   2.445  2.7937  0.4737  0.2452
  370SOL     OW 1108   3.035   0.555   0.832 -0.2844  0.4010 -0.3822
  370SOL    HW1 1109   3.015   0.586   0.737 -0.0466  4.7515  1.1284
  370SOL    HW2 1110   2.981   0.615   0.902 -0.1206 -1.4729 -1.5336
  371SOL     OW 1111   1.306   2.443   1.642 -0.3883 -0.4907 -0.2215
  371SOL    HW1 1112   1.300   2.534   1.594  0.2463  2.5250 -0.5924
  371SOL    HW2 1113   1.212   2.413   1.661 -1.5332 -1.5015 -1.2126
  372SOL     OW 1114   2.681   0.283   2.438  0.2286 -0.0121 -0.1522
  372SOL    HW1 1115   2.649   0.185   2.409  0.2472 -2.4421 -2.3605
  372SOL    HW2 1116   2.770   0.277   2.489  2.3133  3.3726 -0.6124
  373SOL     OW 1117   0.089   2.070   0.642 -0.4374 -0.4278  0.1432
  373SOL    HW1 1118   0.142   2.153   0.619  1.1829  0.1247 -1.9287
  373SOL    HW2 1119   0.003   2.107   0.691 -1.4626  1.8705 -0.9993
  374SOL     OW 1120   0.241   2.902   2.657 -0.4198 -0.7865  0.0930
  374SOL    HW1 1121   0.294   2.983   2.695 -1.3098  1.5004  0.3963
  374SOL    HW2 1122   0.276   2.878   2.566 -1.0509 -0.6629 -1.5193
  375SOL     OW 1123   0.623   0.296   2.598 -0.0108 -0.1627 -0.0343
  375SOL    HW1 1124   0.622   0.366   2.671 -1.2035 -0.0074 -0.8335
  375SOL    HW2 1125   0.528   0.268   2.575 -0.9497  3.7719 -2.2413
  376SOL     OW 1126   2.759   2.236   1.934  0.0545  0.1248  0.0258
  376SOL    HW1 1127   2.701   2.265   2.011  0.0624 -0.0003  0.1162
  376SOL    HW2 1128   2.849   2.282   1.927 -1.4735  1.3574  3.3989
  377SOL     OW 1129   1.381   2.975   2.966 -0.1393 -0.0475 -0.5719
  377SOL    HW1 1130   1.341   2.923   3.045  1.0652  0.2907  1.0188
  377SOL    HW2 1131   1.335   2.954   2.875 -3.3943 -0.8575 -1.7247
  378SOL     OW 1132   2.887   0.487   2.605  0.4000  0.2841 -0.0127
  378SOL    HW1 1133   2.945   0.546   2.550 -1.3775 -2.3194  2.1600
  378SOL    HW2 1134   2.905   0.385   2.590 -1.6304  1.7186  1.7126
  379SOL     OW 1135   0.851   0.985   0.166  0.0402 -0.1996 -0.4992
  379SOL    HW1 1136   0.829   0.956   0.073  1.9486  1.2459 -3.2147
  379SOL    HW2 1137   0.766   1.013   0.213 -1.1749 -0.6444 -1.6544
  380SOL     OW 1138   0.281   1.583   1.792 -0.0929  0.0982 -0.5117
  380SOL    HW1 1139   0.219   1.648   1.837 -2.1520  1.0817 -0.8569
  380SOL    HW2 1140   0.225   1.519   1.732  0.4333 -2.5450 -0.2754
  381SOL     OW 1141   2.947   1.177   2.338  0.3899 -0.6939  0.3297
  381SOL    HW1 1142   3.022   1.161   2.274  0.2442  0.0378 -2.2364
  381SOL    HW2 1143   2.980   1.211   2.426  0.0921  0.2383 -3.4735
  382SOL     OW 1144   2.083   2.019   0.428  0.5279 -0.0204 -0.0396
  382SOL    HW1 1145   2.132   2.072   0.360  0.0775 -2.9124  2.7524
  382SOL    HW2 1146   2.150   1.956   0.480  0.1051  0.0609  0.6617
  383SOL     OW 1147   0.546   1.968   0.243 -0.4119  0.2044  0.1377
  383SOL    HW1 1148   0.587   1.885   0.291  1.0741  0.5556  1.8423
  383SOL    HW2 1149   0.578   1.974   0.147  1.2644 -0.9253 -0.7658
  384SOL     OW 1150   0.631   2.102   2.521  0.1771  0.0476  0.0568
  384SOL    HW1 1151   0.721   2.069   2.564  5.4172  0.6114 -0.1943
  384SOL    HW2 1152   0.649   2.172   2.450  2.8044 -0.4150  0.1391
  385SOL     OW 1153   2.252   1.880   0.612  0.5012  0.3450 -0.4014
  385SOL    HW1 1154   2.307   1.828   0.678 -0.4223 -3.0825 -0.3038
  385SOL    HW2 1155   2.287   1.969   0.589 -1.0924 -1.0933  0.6870
  386SOL     OW 1156   2.217   0.993   1.212 -0.0058 -0.4677  0.3641
  386SOL    HW1 1157   2.281   0.946   1.150  0.7451  1.7311  0.1898
  386SOL    HW2 1158   2.243   1.096   1.215 -0.3613  4.5055  1.1715
  387SOL     OW 1159   0.004   1.112   2.032 -0.2158  0.0345  0.2466
  387SOL    HW1 1160   0.066   1.191   2.050  1.0570  1.3335 -1.2013
  387SOL    HW2 1161   3.046   1.121   1.936 -2.2723  1.9901 -2.2771
  388SOL     OW 1162   0.410   1.690   2.181 -0.0065  0.4082 -0.4900
  388SOL    HW1 1163   0.463   1.778   2.159 -0.5053  3.1391 -2.4436
  388SOL    HW2 1164   0.415   1.632   2.097 -1.6340 -0.3897 -0.2985
  389SOL     OW 1165   0.738   0.949   1.821 -0.2321 -0.0948  0.0793
  389SOL    HW1 1166   0.827   0.985   1.856  0.6228  2.2123  2.2672
  389SOL    HW2 1167   0.697   0.884   1.887 -1.4393 -0.9105 -1.4471
  390SOL     OW 1168   2.526   2.956   0.868 -0.7283 -0.6482 -0.4718
  390SOL    HW1 1169   2.491   2.969   0.769  1.2356  0.8020 -0.4414
  390SOL    HW2 1170   2.525   3.045   0.920 -3.8182 -0.6377 -0.9411
  391SOL     OW 1171   1.759   1.643   1.341 -0.1732  0.8771  0.7306
  391SOL    HW1 1172   1.752   1.552   1.392 -1.3150 -1.4973 -0.4190
  391SOL    HW2 1173   1.753   1.616   1.242  0.4853  0.3073 -0.1646
  392SOL     OW 1174   2.725   2.665   0.047 -0.1028  0.9399 -0.0265
  392SOL    HW1 1175   2.832   2.664   0.034  1.5127  0.1560 -0.6482
  392SOL    HW2 1176   2.702   2.639   0.145 -0.5493 -0.9854  3.0093
  393SOL     OW 1177   1.634   2.487   2.816 -0.4335  0.3930  0.5083
  393SOL    HW1 1178   1.721   2.511   2.866  4.3599 -0.0584 -0.6655
  393SOL    HW2 1179   1.614   2.546   2.734 -0.9730  1.1692  1.7689
  394SOL     OW 1180   2.994   2.547   2.475  0.2315 -0.1797  0.2228
  394SOL    HW1 1181   2.997   2.564   2.577 -1.0795 -1.2856 -0.0292
  394SOL    HW2 1182   2.952   2.459   2.456  1.7994  2.3674  3.3706
  395SOL     OW 1183   0.054   0.328   0.727 -0.1499  0.3392 -0.2605
  395SOL    HW1 1184   0.021   0.411   0.768 -1.0978 -0.0575 -0.1558
  395SOL    HW2 1185   0.038   0.250   0.792  2.0166 -0.0746 -0.8624
  396SOL     OW 1186   2.174   0.519   0.348  0.4894 -0.9225 -0.2401
  396SOL    HW1 1187   2.082   0.565   0.367  0.1893 -2.9639  0.1580
  396SOL    HW2 1188   2.155   0.424   0.375  1.8733  0.3951 -1.2714
  397SOL     OW 1189   0.255   0.685   2.197 -0.1721 -0.2543 -0.6027
  397SOL    HW1 1190   0.274   0.592   2.235  0.9383 -2.6666 -0.0961
  397SOL    HW2 1191   0.267   0.686   2.095  0.8288 -0.2123  1.9857
  398SOL     OW 1192   1.028   3.008   0.481  0.4055 -0.4675  1.0219
  398SOL    HW1 1193   1.068   3.023   0.391  0.4898 -0.3812  4.8320
  398SOL    HW2 1194   0.973   0.006   0.505  1.4344 -2.1871  1.8531
  399SOL     OW 1195   2.217   0.427   2.044 -0.4341 -0.4932 -0.4126
  399SOL    HW1 1196   2.181   0.401   2.132  0.1703  2.4791 -1.2466
  399SOL    HW2 1197   2.167   0.510   2.011  3.3337 -1.4791  2.1332
  400SOL     OW 1198   0.859   2.070   2.680 -0.3482 -0.8523  0.3624
  400SOL    HW1 1199   0.940   2.084   2.625 -4.2434 -0.5432 -1.1037
  400SOL    HW2 1200   0.882   2.076   2.778  4.2406 -1.1789  0.4237
  401SOL     OW 1201   0.326   1.310   2.555 -0.1923 -0.1752  0.0044
  401SOL    HW1 1202   0.355   1.387   2.621 -1.0192 -1.5726  0.9581
  401SOL    HW2 1203   0.274   1.242   2.606  2.6449  0.8692 -0.3041
  402SOL     OW 1204   0.212   2.685   0.449  0.5332  0.3568  0.8377
  402SOL    HW1 1205   0.236   2.660   0.352  1.7723 -1.1970  0.7918
  402SOL    HW2 1206   0.287   2.652   0.511 -0.7468  2.6331  2.1656
  403SOL     OW 1207   0.592   1.161   1.731 -0.1063  0.3653 -0.2136
  403SOL    HW1 1208   0.643   1.079   1.769  0.9047 -0.8523 -0.9900
  403SOL    HW2 1209   0.491   1.152   1.748  0.1209  0.3558 -2.5223
  404SOL     OW 1210   2.568   2.359   2.101  0.1776  0.0913  0.3750
  404SOL    HW1 1211   2.610   2.446   2.120 -3.1023 -0.8288 -0.7790
  404SOL    HW2 1212   2.474   2.376   2.053 -5.2616  2.0610 -1.4093
  405SOL     OW 1213   0.128   0.246   1.926  0.1401  0.8101 -0.2588
  405SOL    HW1 1214   0.194   0.229   2.003 -1.3469 -0.4173  1.8046
  405SOL    HW2 1215   0.158   0.319   1.861  0.7586 -2.3048 -0.5087
  406SOL     OW 1216   1.197   1.465   2.613 -0.1080  0.0315  0.0822
  406SOL    HW1 1217   1.210   1.565   2.640  0.6903  1.2698 -0.5139
  406SOL    HW2 1218   1.119   1.417   2.657  0.8494 -0.6548 -1.1486
  407SOL     OW 1219   1.773   0.886   2.719  0.2523  0.1634 -0.5243
  407SOL    HW1 1220   1.699   0.942   2.688 -0.0938 -2.9375  0.7389
  407SOL    HW2 1221   1.846   0.902   2.650 -1.1136 -1.3685  2.4609
  408SOL     OW 1222   0.182   2.777   2.342  0.3981  0.2532  0.0622
  408SOL    HW1 1223   0.282   2.777   2.360 -1.5971 -0.3051  0.8595
  408SOL    HW2 1224   0.149   2.681   2.355  1.3676 -0.2803  0.1999
  409SOL     OW 1225   0.050   2.316   1.056  0.0490  0.2882 -0.5568
  409SOL    HW1 1226   0.001   2.363   0.979  1.1936  2.1060 -2.1548
  409SOL    HW2 1227   0.004   2.325   1.143 -0.9200 -1.7887  3.1625
  410SOL     OW 1228   2.735   1.693   0.327  0.3457  0.3248 -0.4861
  410SOL    HW1 1229   2.778   1.780   0.350  0.1047 -0.2016 -1.2809
  410SOL    HW2 1230   2.805   1.625   0.301 -1.7377  0.9072 -1.1915
  411SOL     OW 1231   2.802   0.194   1.093 -0.1669  0.3018 -0.2656
  411SOL    HW1 1232   2.775   0.209   1.192 -0.0817 -0.6342  0.2171
  411SOL    HW2 1233   2.809   0.285   1.043 -0.2072  0.0361  2.8569
  412SOL     OW 1234   2.149   0.413   1.630  0.1097 -0.1914 -0.1827
  412SOL    HW1 1235   2.207   0.335   1.660 -0.4735 -0.4102 -0.6791
  412SOL    HW2 1236   2.158   0.437   1.528  0.5400  0.0367 -0.2716
  413SOL     OW 1237   0.321   0.250   2.106 -0.5927 -0.2239 -0.1988
  413SOL    HW1 1238   0.385   0.329   2.125  0.2068  0.9873  0.0252
  413SOL    HW2 1239   0.327   0.175   2.177  1.4806  1.0957  2.2200
  414SOL     OW 1240   3.014   1.028   2.902  0.4133 -0.1826 -0.0680
  414SOL    HW1 1241   2.986   0.984   2.988  1.1740 -0.6523  0.2618
  414SOL    HW2 1242   2.930   1.044   2.840 -3.5220  1.7169 -0.4345
  415SOL     OW 1243   0.828   2.655   0.033  0.2901 -0.0577  0.0307
  415SOL    HW1 1244   0.911   2.599   0.019  1.0370 -0.7598 -0.9645
  415SOL    HW2 1245   0.840   2.740   0.085  0.5830 -1.1419  2.6068
  416SOL     OW 1246   1.491   0.050   2.457 -1.0261  0.4191  0.3672
  416SOL    HW1 1247   1.506   3.055   2.397 -1.8255  1.5389  0.9234
  416SOL    HW2 1248   1.521   0.140   2.418 -0.2440  0.3956 -0.8333
  417SOL     OW 1249   0.450   0.679   0.972  0.4265  0.4578 -0.0902
  417SOL    HW1 1250   0.521   0.609   0.972  0.4531  1.0000 -0.4741
  417SOL    HW2 1251   0.372   0.652   0.911  0.9410  3.0576 -0.4113
  418SOL     OW 1252   2.801   0.139   0.596  0.0726  0.1821 -0.2985
  418SOL    HW1 1253   2.721   0.091   0.563 -1.1453  3.4297 -0.4839
  418SOL    HW2 1254   2.800   0.241   0.576 -0.7379 -0.9440 -1.1227
  419SOL     OW 1255   0.324   2.946   0.342  0.2773 -0.4534  0.1562
  419SOL    HW1 1256   0.413   2.909   0.305 -1.4490 -0.6963  0.5945
  419SOL    HW2 1257   0.258   2.874   0.369 -0.0354  0.9259  2.7760
  420SOL     OW 1258   0.320   1.084   1.838 -0.0103 -0.1070 -0.5352
  420SOL    HW1 1259   0.222   1.085   1.815 -1.5633  2.1919 -1.0288
  420SOL    HW2 1260   0.365   0.995   1.844 -3.9161 -0.3017 -0.3087
  421SOL     OW 1261   1.856   2.485   0.724  0.0862  0.3873  1.0247
  421SOL    HW1 1262   1.879   2.578   0.685 -1.8854 -1.8413 -2.1021
  421SOL    HW2 1263   1.823   2.422   0.653 -1.1560  3.1484 -0.0890
  422SOL     OW 1264   0.237   0.598   1.398 -0.2426 -0.0255 -0.5011
  422SOL    HW1 1265   0.282   0.538   1.332 -0.8448 -1.9249 -1.8225
  422SOL    HW2 1266   0.302   0.668   1.438 -0.9472  1.9757 -1.4556
  423SOL     OW 1267   1.006   1.551   1.864  0.2904 -0.0923  0.0188
  423SOL    HW1 1268   1.067   1.588   1.789  1.2380  1.6385 -4.4539
  423SOL    HW2 1269   0.909   1.596   1.861 -0.0978  1.3337 -2.5462
  424SOL     OW 1270   1.887   2.248   0.303  0.6825 -0.2032  0.4325
  424SOL    HW1 1271   1.876   2.305   0.219 -0.3019  0.1721  1.3746
  424SOL    HW2 1272   1.864   2.151   0.282  0.5165  1.2360  0.8218
  425SOL     OW 1273   2.702   3.015   1.963 -0.1654  0.6698 -0.3665
  425SOL    HW1 1274   2.761   3.068   2.026  0.5362 -2.8880  0.2291
  425SOL    HW2 1275   2.760   2.974   1.891  1.3494  2.3822  2.5377
  426SOL     OW 1276   2.974   2.637   2.729 -0.0506 -0.4010 -0.8674
  426SOL    HW1 1277   3.065   2.673   2.758 -2.9297 -0.2282  2.2664
  426SOL    HW2 1278   2.930   2.584   2.800  0.2086  2.2900 -1.4374
  427SOL     OW 1279   1.117   0.321   0.443 -0.1124  0.5256 -0.1127
  427SOL    HW1 1280   1.046   0.276   0.380 -0.6303 -0.6250 -1.5579
  427SOL    HW2 1281   1.105   0.303   0.539  1.0856  1.8248 -1.6379
  428SOL     OW 1282   2.913   0.490   1.312  0.7970  0.1386  0.1225
  428SOL    HW1 1283   2.956   0.400   1.286 -0.4056 -0.8501  0.2109
  428SOL    HW2 1284   2.818   0.497   1.286  1.1234  0.4335  0.6451
  429SOL     OW 1285   2.084   3.067   0.960 -0.3307  0.0552 -0.2379
  429SOL    HW1 1286   1.992   3.036   0.930  1.1480 -0.2595 -2.7668
  429SOL    HW2 1287   2.145   2.993   1.007  0.4192 -2.7988 -0.1653
  430SOL     OW 1288   0.815   1.609   2.439 -0.1966 -0.1487  0.5299
  430SOL    HW1 1289   0.843   1.641   2.529  2.4374  0.3906  0.0663
  430SOL    HW2 1290   0.716   1.622   2.419 -0.5293  0.0003  0.2261
  431SOL     OW 1291   3.073   1.757   1.104 -0.1672 -0.4182  0.3729
  431SOL    HW1 1292   0.078   1.786   1.156  0.8075 -0.9002  3.5250
  431SOL    HW2 1293   3.021   1.836   1.068  1.1154 -1.3770  1.1112
  432SOL     OW 1294   1.395   2.748   2.405 -0.3853  0.1948 -0.4657
  432SOL    HW1 1295   1.384   2.794   2.313 -0.4763 -0.6303 -0.1876
  432SOL    HW2 1296   1.390   2.647   2.391  0.7197  2.2174  2.4687
  433SOL     OW 1297   1.571   0.297   2.376 -0.0766  1.0170  0.4937
  433SOL    HW1 1298   1.497   0.313   2.305 -1.9198  1.0223 -1.6420
  433SOL    HW2 1299   1.592   0.369   2.448  0.9779 -1.0172  0.2342
  434SOL     OW 1300   0.564   2.379   2.123 -0.4591  0.2392  0.2541
  434SOL    HW1 1301   0.597   2.375   2.026  0.3147  1.2808 -0.2989
  434SOL    HW2 1302   0.483   2.437   2.134  2.1678  0.0836  0.4405
  435SOL     OW 1303   0.270   0.076   0.493 -0.3423  0.4481 -0.2011
  435SOL    HW1 1304   0.173   0.119   0.486 -1.0131  1.4651 -0.0528
  435SOL    HW2 1305   0.288   0.002   0.424 -4.1727  1.9232 -2.5689
  436SOL     OW 1306   0.566   1.265   2.412 -0.1176 -0.6699  0.2907
  436SOL    HW1 1307   0.492   1.295   2.479 -2.2336 -0.0612 -1.2468
  436SOL    HW2 1308   0.557   1.165   2.394  2.4733  0.4470 -1.8907
  437SOL     OW 1309   0.706   2.437   2.723  0.0772  0.4806  0.4347
  437SOL    HW1 1310   0.738   2.464   2.630 -2.2418 -1.1020 -0.7529
  437SOL    HW2 1311   0.694   2.334   2.732  0.8409  0.2837 -0.1178
  438SOL     OW 1312   0.870   1.185   0.628 -0.0785  0.1132 -0.0343
  438SOL    HW1 1313   0.913   1.242   0.704  1.0023  0.2108  0.3911
  438SOL    HW2 1314   0.936   1.154   0.555  1.5521  0.8727 -2.0986
  439SOL     OW 1315   2.645   1.526   2.281  0.2543 -0.4213 -0.2151
  439SOL    HW1 1316   2.670   1.496   2.186  1.8028 -0.0934  1.1593
  439SOL    HW2 1317   2.669   1.461   2.357 -0.2659  0.0866 -2.2411
  440SOL     OW 1318   2.734   0.765   2.759  0.9923 -0.1329 -0.0738
  440SOL    HW1 1319   2.766   0.765   2.660 -1.5319  0.5762  0.3084
  440SOL    HW2 1320   2.758   0.675   2.804  1.4414  0.2553 -1.6293
  441SOL     OW 1321   1.066   2.304   1.665  1.0724 -0.1333 -0.1302
  441SOL    HW1 1322   0.970   2.276   1.703 -3.0292 -1.6085 -0.8559
  441SOL    HW2 1323   1.138   2.238   1.699 -1.9359  1.8384 -2.4927
  442SOL     OW 1324   2.093   1.399   0.862 -0.1245  0.1177  0.5632
  442SOL    HW1 1325   2.074   1.297   0.861 -1.0693  0.8902  2.8445
  442SOL    HW2 1326   2.040   1.448   0.785 -3.4871  2.5120 -3.2120
  443SOL     OW 1327   2.425   2.131   2.811  0.0686 -0.6026  0.2343
  443SOL    HW1 1328   2.464   2.110   2.904  0.1745  0.1942  1.4778
  443SOL    HW2 1329   2.359   2.208   2.822  1.4796  0.8274 -0.2562
  444SOL     OW 1330   1.857   1.433   2.630  0.3779  0.2781 -0.4620
  444SOL    HW1 1331   1.843   1.420   2.530 -0.8271  2.4559  0.6086
  444SOL    HW2 1332   1.894   1.524   2.656 -0.9126  0.8379  1.0294
  445SOL     OW 1333   0.265   2.183   2.283 -0.4177  0.4918  0.1523
  445SOL    HW1 1334   0.340   2.156   2.217 -0.6533 -0.0757  3.5574
  445SOL    HW2 1335   0.268   2.281   2.303  1.0566 -1.4458  0.6672
  446SOL     OW 1336   1.206   0.930   1.554  0.4121  0.1995  0.9151
  446SOL    HW1 1337   1.244   0.844   1.597 -0.2162 -1.8542  2.1860
  446SOL    HW2 1338   1.108   0.914   1.528 -0.2656  2.7072  3.2694
  447SOL     OW 1339   1.063   1.131   0.421  0.8211  0.0463 -0.1009
  447SOL    HW1 1340   1.044   1.166   0.326  0.0426 -4.6169  0.4460
  447SOL    HW2 1341   1.103   1.038   0.411  0.3025 -0.3028 -0.4939
  448SOL     OW 1342   0.824   1.339   2.446  0.4025 -0.4589 -0.2281
  448SOL    HW1 1343   0.837   1.431   2.409 -0.0938 -1.0563 -0.2441
  448SOL    HW2 1344   0.722   1.307   2.434 -1.4885 -1.3162  0.4390
  449SOL     OW 1345   0.116   1.783   2.575  0.3861  0.5016 -0.4089
  449SOL    HW1 1346   0.165   1.845   2.509  0.4318 -1.1954  2.5019
  449SOL    HW2 1347   0.045   1.729   2.518 -1.4192 -1.7819 -2.3965
  450SOL     OW 1348   2.121   1.472   2.105  0.1912  0.0199 -0.5413
  450SOL    HW1 1349   2.117   1.516   2.199  3.6290  1.6417  3.1784
  450SOL    HW2 1350   2.209   1.500   2.053  2.9888  4.4926 -2.3878
  451SOL     OW 1351   2.697   1.437   1.169 -0.3852 -0.1638 -0.3741
  451SOL    HW1 1352   2.731   1.501   1.096  0.2692 -0.6352 -3.1094
  451SOL    HW2 1353   2.774   1.422   1.229 -1.5937 -1.1138  0.8893
  452SOL     OW 1354   0.910   1.204   1.138  0.0116 -0.2708 -0.3123
  452SOL    HW1 1355   0.872   1.105   1.133 -0.5916 -0.5804  1.3991
  452SOL    HW2 1356   0.990   1.212   1.207 -0.4203  0.8309  1.8971
  453SOL     OW 1357   0.713   1.839   0.804  0.2313  0.2014 -0.3194
  453SOL    HW1 1358   0.609   1.837   0.798 -0.2538  1.0337  2.6387
  453SOL    HW2 1359   0.752   1.753   0.766 -2.8640 -0.8638 -1.8014
  454SOL     OW 1360   1.107   1.540   0.176  0.2750  0.3681 -0.2931
  454SOL    HW1 1361   1.175   1.579   0.246  0.3324  1.0752  0.7167
  454SOL    HW2 1362   1.040   1.482   0.226  0.6557 -0.6304 -1.6699
  455SOL     OW 1363   1.739   0.455   1.135 -0.2451 -0.1812  0.1394
  455SOL    HW1 1364   1.790   0.518   1.202  0.7722  0.0143 -1.0295
  455SOL    HW2 1365   1.651   0.490   1.095 -1.5312  0.9535 -0.7154
  456SOL     OW 1366   1.723   2.739   0.889 -0.5256  0.2789  0.7838
  456SOL    HW1 1367   1.688   2.731   0.796  1.4600  1.1630  0.0803
  456SOL    HW2 1368   1.743   2.647   0.928  2.0958  3.6482 -2.1701
  457SOL     OW 1369   2.079   0.694   2.615 -0.1939 -0.1318  0.3840
  457SOL    HW1 1370   1.995   0.665   2.664  0.8388 -1.8231 -1.7046
  457SOL    HW2 1371   2.159   0.695   2.678 -0.8767 -0.3135  1.0935
  458SOL     OW 1372   2.610   0.475   2.619 -0.0753  0.1499  0.2012
  458SOL    HW1 1373   2.599   0.388   2.562 -0.9405  1.0556 -2.9826
  458SOL    HW2 1374   2.705   0.497   2.625  0.3262  0.2806  2.1283
  459SOL     OW 1375   2.354   1.433   2.348 -0.4825 -0.3272  0.1405
  459SOL    HW1 1376   2.448   1.443   2.308  0.4163 -2.8552  2.5112
  459SOL    HW2 1377   2.327   1.519   2.392 -0.9263  0.0487 -1.4525
  460SOL     OW 1378   0.704   0.701   2.898 -0.4045  0.6802 -0.0125
  460SOL    HW1 1379   0.680   0.778   2.965  0.5155 -1.2994  2.0807
  460SOL    HW2 1380   0.794   0.715   2.852 -0.5093 -1.3550 -0.0364
  461SOL     OW 1381   0.150   2.162   3.055 -0.0679  0.2694  0.4530
  461SOL    HW1 1382   0.114   2.171   0.071 -2.9314  0.8694  1.7740
  461SOL    HW2 1383   0.144   2.062   3.029 -2.0510 -0.7514 -0.9925
  462SOL     OW 1384   1.050   3.048   2.186  0.1936  0.2190 -1.2953
  462SOL    HW1 1385   1.062   2.969   2.251  3.5113 -0.8435 -1.0818
  462SOL    HW2 1386   0.990   0.045   2.217 -0.4769  1.2565  2.9948
  463SOL     OW 1387   1.829   2.137   2.224 -0.2590 -0.2957  0.1765
  463SOL    HW1 1388   1.790   2.046   2.197  1.3533 -0.3015 -0.6988
  463SOL    HW2 1389   1.905   2.163   2.162  0.5380 -1.7787  1.0633
  464SOL     OW 1390   2.630   2.612   1.040  0.2510  0.0720  0.3154
  464SOL    HW1 1391   2.601   2.697   1.081 -1.6460  0.3279 -0.1551
  464SOL    HW2 1392   2.550   2.577   0.979 -0.8532  0.6064 -2.0789
  465SOL     OW 1393   0.118   0.202   1.527  0.4931  0.6221 -0.2745
  465SOL    HW1 1394   0.078   0.125   1.587  2.3004  0.6442  1.5852
  465SOL    HW2 1395   0.203   0.168   1.477 -2.5587 -0.2995 -1.4781
  466SOL     OW 1396   1.169   2.484   2.575  0.1241  0.4878 -0.2587
  466SOL    HW1 1397   1.141   2.578   2.602 -0.7414  1.9136 -0.7587
  466SOL    HW2 1398   1.224   2.494   2.490  2.4950 -2.1802 -0.3243
  467SOL     OW 1399   0.059   2.162   0.253  0.3113  0.6123 -0.2695
  467SOL    HW1 1400   3.066   2.164   0.321 -1.0445  1.7609 -1.7653
  467SOL    HW2 1401   0.107   2.073   0.251 -0.8289 -0.6014 -0.6214
  468SOL     OW 1402   1.914   1.878   3.054 -0.3680 -0.3554  0.5618
  468SOL    HW1 1403   1.858   1.825   2.986 -0.2610  0.2532  2.5962
  468SOL    HW2 1404   2.014   1.855   3.045  0.3526  0.3223  1.2498
  469SOL     OW 1405   1.130   2.196   0.922  0.0915 -0.0596  0.0163
  469SOL    HW1 1406   1.173   2.165   1.009 -2.1587  0.7631  1.4213
  469SOL    HW2 1407   1.197   2.196   0.846 -0.4076 -0.2090  1.1650
  470SOL     OW 1408   1.868   0.759   0.918 -1.3752  0.5347  0.1804
  470SOL    HW1 1409   1.772   0.777   0.886 -0.9973 -1.3787  0.2746
  470SOL    HW2 1410   1.904   0.842   0.968 -0.4316 -0.6834 -2.4674
  471SOL     OW 1411   0.388   2.103   0.392  0.2455  0.2875  0.2876
  471SOL    HW1 1412   0.446   2.033   0.338  0.9195  1.1424  0.1834
  471SOL    HW2 1413   0.293   2.085   0.371  2.2226 -2.3040 -0.7614
  472SOL     OW 1414   2.534   1.528   2.671  0.6278  0.0827  0.3587
  472SOL    HW1 1415   2.536   1.606   2.598 -0.1333  1.8250 -0.0178
  472SOL    HW2 1416   2.488   1.440   2.640 -0.5232  1.5035 -0.2555
  473SOL     OW 1417   1.417   1.933   0.812  0.2294  0.4052 -0.4432
  473SOL    HW1 1418   1.378   2.031   0.800 -1.4796  2.5256  3.2749
  473SOL    HW2 1419   1.499   1.938   0.872 -1.3868 -0.4536  0.6836
  474SOL     OW 1420   2.787   0.435   0.984 -0.1921 -0.5433  0.2178
  474SOL    HW1 1421   2.746   0.446   0.890 -3.2379  1.0184  0.3270
  474SOL    HW2 1422   2.856   0.507   0.994 -1.9771  1.0111  1.1490
  475SOL     OW 1423   2.407   2.708   1.455  0.2438  0.0418  0.3991
  475SOL    HW1 1424   2.348   2.760   1.517 -2.6800 -1.3913  0.9342
  475SOL    HW2 1425   2.354   2.698   1.368 -0.6320 -2.5059 -0.0580
  476SOL     OW 1426   0.550   0.248   0.815  0.2273  0.1687 -0.3899
  476SOL    HW1 1427   0.496   0.256   0.727  2.0485  0.7648 -1.5720
  476SOL    HW2 1428   0.619   0.324   0.806 -1.1481  3.1692 -0.2307
  477SOL     OW 1429   1.097   2.267   1.403  0.0044  0.0460 -0.5736
  477SOL    HW1 1430   1.155   2.351   1.378  2.6024  2.3712 -1.2226
  477SOL    HW2 1431   1.071   2.262   1.504 -3.6375  1.1583  3.9142
  478SOL     OW 1432   1.222   2.616   2.902 -0.5119  0.2576  0.4290
  478SOL    HW1 1433   1.159   2.674   2.847  2.0385 -1.1345 -0.1757
  478SOL    HW2 1434   1.241   2.529   2.851 -0.4430 -0.9902 -0.1993
  479SOL     OW 1435   2.562   0.931   1.708 -0.0181 -0.0797 -0.0534
  479SOL    HW1 1436   2.599   1.027   1.690  1.6418  0.7102  2.9235
  479SOL    HW2 1437   2.609   0.866   1.644  3.0110 -0.1964  1.1839
  480SOL     OW 1438   2.826   2.209   2.681 -0.4926  0.4247 -0.5527
  480SOL    HW1 1439   2.931   2.210   2.684  1.5599 -1.7623 -0.1382
  480SOL    HW2 1440   2.786   2.279   2.621  0.9283  0.7921 -0.7156
  481SOL     OW 1441   1.703   0.054   2.060  0.2855  0.0477  0.7476
  481SOL    HW1 1442   1.802   0.065   2.079 -1.3583 -1.7834 -4.2935
  481SOL    HW2 1443   1.666   0.135   2.007  1.3766  0.8620 -1.2206
  482SOL     OW 1444   1.514   2.255   2.751 -0.1495 -0.2602  0.3450
  482SOL    HW1 1445   1.571   2.337   2.787  2.9706  1.8870  0.7646
  482SOL    HW2 1446   1.555   2.163   2.779 -0.6039 -1.0373  2.1274
  483SOL     OW 1447   1.066   2.735   2.728  0.0045  0.6533  0.6757
  483SOL    HW1 1448   0.961   2.728   2.727 -0.6852  1.3618  1.9833
  483SOL    HW2 1449   1.104   2.807   2.665  0.2596 -2.6771  1.9787
  484SOL     OW 1450   2.709   3.001   1.326 -0.3568  0.1528  0.1567
  484SOL    HW1 1451   2.657   3.049   1.402 -2.3919  0.2037  0.1261
  484SOL    HW2 1452   2.808   3.022   1.324  0.9066  0.7077  0.6157
  485SOL     OW 1453   1.980   0.699   0.340  0.1000 -0.0898 -0.9073
  485SOL    HW1 1454   1.957   0.718   0.443  0.2077 -1.0916  3.4327
  485SOL    HW2 1455   2.004   0.785   0.290 -0.2826  1.6579  1.6047
  486SOL     OW 1456   2.244   2.617   2.173  0.7239  0.3222 -0.5926
  486SOL    HW1 1457   2.279   2.707   2.202  2.7015  0.7204 -0.5155
  486SOL    HW2 1458   2.167   2.630   2.098 -0.8576 -0.9941  1.1058
  487SOL     OW 1459   1.416   0.611   0.365  0.3969 -0.2603  0.1451
  487SOL    HW1 1460   1.382   0.615   0.460  2.2461 -0.9293 -0.6170
  487SOL    HW2 1461   1.481   0.538   0.358  0.6045  5.1430  0.1556
  488SOL     OW 1462   2.641   2.900   2.503  0.1643 -0.4972  0.4318
  488SOL    HW1 1463   2.623   2.870   2.408 -0.6709 -1.6098 -1.5243
  488SOL    HW2 1464   2.565   2.877   2.575 -4.3403 -0.0426  3.4000
  489SOL     OW 1465   1.627   3.058   0.244  0.3481  0.0752 -0.1810
  489SOL    HW1 1466   1.560   0.011   0.315 -1.7759 -2.7396 -0.2463
  489SOL    HW2 1467   1.691   2.993   0.288 -3.2983  1.4370 -3.0348
  490SOL     OW 1468   1.850   0.355   0.036  0.5939  0.0431 -0.3311
  490SOL    HW1 1469   1.834   0.418   0.119  1.1718  1.7296  3.3933
  490SOL    HW2 1470   1.939   0.375   3.075 -1.9302  0.4032 -0.2017
  491SOL     OW 1471   0.498   2.817   1.321 -0.1965 -0.7079 -0.2066
  491SOL    HW1 1472   0.491   2.859   1.413  1.6964 -3.0600  0.0344
  491SOL    HW2 1473   0.569   2.869   1.266 -1.1665 -1.6026  2.2696
  492SOL     OW 1474   1.626   2.726   0.647 -0.5372  0.4841  0.2682
  492SOL    HW1 1475   1.605   2.630   0.620  0.4635 -0.7119  0.6993
  492SOL    HW2 1476   1.551   2.793   0.620 -0.5816  2.3544  0.8849
  493SOL     OW 1477   1.128   2.192   2.987  0.4806 -0.8211  0.2424
  493SOL    HW1 1478   1.164   2.233   2.900 -0.0291 -0.5529  2.6086
  493SOL    HW2 1479   1.078   2.266   3.041 -2.8133  0.3821 -0.8341
  494SOL     OW 1480   0.622   1.090   0.585 -0.3943 -0.3696 -0.0803
  494SOL    HW1 1481   0.576   1.050   0.665 -0.8107 -0.8971 -2.2471
  494SOL    HW2 1482   0.714   1.136   0.602  0.4907  2.2326  3.0166
  495SOL     OW 1483   2.600   0.538   1.573 -0.2064 -0.0386 -0.7330
  495SOL    HW1 1484   2.675   0.477   1.603  1.4046 -0.3477 -2.2623
  495SOL    HW2 1485   2.654   0.621   1.534  1.7183  2.0664 -1.9563
  496SOL     OW 1486   2.182   2.462   2.377 -0.6288 -0.2606  0.0612
  496SOL    HW1 1487   2.219   2.510   2.291 -1.4128  0.0493  1.5558
  496SOL    HW2 1488   2.097   2.503   2.419  2.9713 -0.2836  0.5352
  497SOL     OW 1489   1.605   1.342   2.671  0.3763 -0.5543 -0.9459
  497SOL    HW1 1490   1.698   1.385   2.671 -2.7773  0.7372  0.0379
  497SOL    HW2 1491   1.540   1.378   2.739  2.0367  1.3989 -1.0738
  498SOL     OW 1492   0.930   2.350   1.026 -0.0500  0.1091 -0.2459
  498SOL    HW1 1493   0.999   2.289   0.981 -0.3743 -0.8313 -0.4983
  498SOL    HW2 1494   0.881   2.309   1.105  1.0915  0.4181 -0.3363
  499SOL     OW 1495   0.157   2.078   0.943 -0.2772  0.7063 -0.0641
  499SOL    HW1 1496   0.127   2.054   0.848  0.6250  0.5484  0.6250
  499SOL    HW2 1497   0.105   2.160   0.977  0.8791 -1.3788 -0.5048
  500SOL     OW 1498   1.147   2.593   0.293 -0.1026 -0.0118  0.3746
  500SOL    HW1 1499   1.085   2.663   0.335 -1.1535 -1.6135 -0.8570
  500SOL    HW2 1500   1.240   2.630   0.294  2.7990  0.6082 -0.5189
  501SOL     OW 1501   1.957   2.710   0.612 -0.1365  0.2123  0.2202
  501SOL    HW1 1502   1.930   2.811   0.624 -1.8376  1.1675  0.5147
  501SOL    HW2 1503   1.931   2.672   0.522 -3.0542 -1.2215 -0.9619
  502SOL     OW 1504   0.150   0.292   1.048 -0.5119  0.2245 -0.4703
  502SOL    HW1 1505   0.087   0.298   1.124 -2.4942 -0.9556 -2.8996
  502SOL    HW2 1506   0.125   0.216   0.987  2.0310 -0.6960  0.8346
  503SOL     OW 1507   2.049   0.048   1.708 -1.0351 -0.3123 -0.3251
  503SOL    HW1 1508   2.063   0.121   1.776  0.3891 -0.7605 -2.2055
  503SOL    HW2 1509   2.129   0.037   1.644 -0.3690  1.4994  0.0471
  504SOL     OW 1510   1.882   1.152   1.829  0.3424 -0.3750  0.0466
  504SOL    HW1 1511   1.903   1.077   1.760 -0.6329 -1.9214 -0.4674
  504SOL    HW2 1512   1.966   1.214   1.848  3.2053 -1.0731  0.0233
  505SOL     OW 1513   1.835   2.825   2.363  0.5680 -0.2541  0.2549
  505SOL    HW1 1514   1.876   2.855   2.453  1.4468  1.3756  1.3115
  505SOL    HW2 1515   1.746   2.873   2.342 -1.3276  1.1064 -1.7538
  506SOL     OW 1516   0.447   0.857   1.925 -0.6399 -0.0153  0.1365
  506SOL    HW1 1517   0.520   0.895   1.984 -3.6831 -0.8394  1.3841
  506SOL    HW2 1518   0.485   0.789   1.855 -0.7942  1.6235  1.1399
  507SOL     OW 1519   1.782   0.523   0.233  0.4597 -0.7253 -0.1196
  507SOL    HW1 1520   1.740   0.480   0.318 -2.1284 -0.2284  2.5257
  507SOL    HW2 1521   1.826   0.615   0.252  0.6478  1.3585  0.3967
  508SOL     OW 1522   2.090   0.689   2.033  0.0904 -1.0536 -0.4586
  508SOL    HW1 1523   1.997   0.716   2.055  0.2768 -0.8436 -1.4144
  508SOL    HW2 1524   2.169   0.711   2.096  0.0956 -1.0990  0.1934
  509SOL     OW 1525   0.554   1.799   2.748  0.4988 -0.2792 -0.1896
  509SOL    HW1 1526   0.517   1.833   2.839  1.1346  1.0669  0.7499
  509SOL    HW2 1527   0.510   1.852   2.675 -1.9261  1.5685  3.0246
  510SOL     OW 1528   0.043   0.884   0.798 -0.3208 -0.2668 -0.1637
  510SOL    HW1 1529   0.016   0.798   0.743  0.5226 -0.8887  1.4844
  510SOL    HW2 1530   0.059   0.865   0.897 -0.0663  1.4970 -0.5201
  511SOL     OW 1531   1.660   1.217   1.176 -0.1737  0.3173 -0.0988
  511SOL    HW1 1532   1.712   1.210   1.265  0.5869  3.4535 -2.6732
  511SOL    HW2 1533   1.719   1.256   1.105 -3.6494  0.9467  0.4182
  512SOL     OW 1534   0.451   2.116   0.668 -0.1137 -0.2188 -0.3520
  512SOL    HW1 1535   0.550   2.109   0.656 -0.0744 -1.7742  0.3645
  512SOL    HW2 1536   0.402   2.136   0.584  0.8542 -0.2769  1.7179
  513SOL     OW 1537   0.327   2.420   0.780 -0.0697  0.6034 -0.1768
  513SOL    HW1 1538   0.271   2.494   0.819 -0.0195 -1.1441 -0.6224
  513SOL    HW2 1539   0.348   2.350   0.851  1.4736  0.7603  0.1569
  514SOL     OW 1540   0.733   2.078   0.689  0.2450 -0.3324 -0.2668
  514SOL    HW1 1541   0.760   1.987   0.723  0.3035  1.8393  0.4386
  514SOL    HW2 1542   0.810   2.121   0.635  0.7832  4.3560 -0.6416
  515SOL     OW 1543   0.268   0.060   0.142 -0.1686 -0.0072  0.2067
  515SOL    HW1 1544   0.291   3.067   0.208  1.8675  1.0736 -0.5065
  515SOL    HW2 1545   0.170   0.076   0.144  3.1427  0.6008  0.4423
  516SOL     OW 1546   1.952   3.067   1.249  0.2395 -0.1368  0.0272
  516SOL    HW1 1547   1.882   0.046   1.208  1.3518 -0.4069  0.5242
  516SOL    HW2 1548   2.022   3.033   1.185  0.6095 -0.9430 -2.9210
  517SOL     OW 1549   1.627   1.649   0.788 -0.1380  0.3861  0.7181
  517SOL    HW1 1550   1.587   1.723   0.733  0.0258  0.3875 -0.6285
  517SOL    HW2 1551   1.696   1.689   0.850 -1.1807 -1.0065 -1.5688
  518SOL     OW 1552   1.538   2.781   1.144  0.1005 -0.2009  0.3968
  518SOL    HW1 1553   1.455   2.738   1.114  0.6062 -1.6177  3.3511
  518SOL    HW2 1554   1.618   2.736   1.097  0.5339  0.4970 -0.1954
  519SOL     OW 1555   2.866   2.270   3.017 -0.1792 -0.2318  0.4719
  519SOL    HW1 1556   2.958   2.305   2.999 -1.8268  0.7760  2.0474
  519SOL    HW2 1557   2.806   2.321   2.953  0.5651  0.3983  1.3983
  520SOL     OW 1558   1.919   1.903   2.524 -1.0368 -0.1347  0.2669
  520SOL    HW1 1559   1.894   1.999   2.542 -1.1072  0.3783 -0.6706
  520SOL    HW2 1560   1.980   1.897   2.440 -0.4935  1.3224  0.2305
  521SOL     OW 1561   1.329   0.012   2.143 -0.2286  0.1730  0.2585
  521SOL    HW1 1562   1.366   0.105   2.166  1.6825 -3.9762  0.4906
  521SOL    HW2 1563   1.230   0.013   2.119  0.3547  2.1947 -1.2417
  522SOL     OW 1564   0.338   2.547   2.163  0.2091  0.1766  0.1872
  522SOL    HW1 1565   0.302   2.556   2.071  2.3865  0.7177 -1.0289
  522SOL    HW2 1566   0.268   2.521   2.232 -1.6988 -1.1852 -2.6949
  523SOL     OW 1567   1.014   2.157   2.010  0.0221 -0.2718 -0.2564
  523SOL    HW1 1568   1.001   2.255   2.048 -1.5314  3.4441  0.3406
  523SOL    HW2 1569   1.107   2.121   2.050  3.9109  0.1594  1.7083
  524SOL     OW 1570   2.304   2.151   0.254  0.3021 -0.6265  0.2494
  524SOL    HW1 1571   2.390   2.204   0.247 -1.6795 -1.7653  2.3298
  524SOL    HW2 1572   2.301   2.073   0.189 -0.1401  0.5405 -0.4318
  525SOL     OW 1573   2.773   1.041   2.791  0.1939  0.4679  0.0202
  525SOL    HW1 1574   2.684   1.086   2.779  1.9228 -0.3046 -0.2083
  525SOL    HW2 1575   2.762   0.940   2.767 -0.6937 -1.7016 -1.4348
  526SOL     OW 1576   0.210   2.658   0.841  0.0853 -0.2743 -0.0575
  526SOL    HW1 1577   0.136   2.652   0.767  0.5797  1.7046 -1.0483
  526SOL    HW2 1578   0.265   2.744   0.833 -0.6403 -0.9488  0.7581
  527SOL     OW 1579   0.001   1.371   0.570 -0.1516  0.0419  0.0251
  527SOL    HW1 1580   0.032   1.283   0.609  1.9140 -0.2261 -3.4528
  527SOL    HW2 1581   2.988   1.401   0.599 -2.2608 -0.9108 -0.9515
  528SOL     OW 1582   0.596   0.993   2.368  0.0145  0.9171 -0.2387
  528SOL    HW1 1583   0.580   0.897   2.405  1.3663  0.0780 -0.0697
  528SOL    HW2 1584   0.690   1.024   2.385 -1.5604 -1.0496 -2.4862
  529SOL     OW 1585   0.903   1.381   0.294  0.5957  0.3746 -0.1181
  529SOL    HW1 1586   0.948   1.311   0.238 -0.6866 -0.5064 -3.4473
  529SOL    HW2 1587   0.834   1.332   0.345  1.7061 -0.0595 -0.5922
  530SOL     OW 1588   0.956   1.071   1.921 -0.5125 -0.4417  0.1267
  530SOL    HW1 1589   1.018   1.098   1.845  2.1075 -1.1201  2.3941
  530SOL    HW2 1590   1.009   1.020   1.990 -0.7196 -0.2980  2.3476
  531SOL     OW 1591   0.936   2.246   0.155  0.1139 -0.7375 -0.3549
  531SOL    HW1 1592   0.977   2.156   0.182  0.7097  1.0319  1.2297
  531SOL    HW2 1593   0.985   2.317   0.208  0.8834  0.8265 -0.8130
  532SOL     OW 1594   2.337   0.774   2.139 -0.7358 -0.0341  0.6269
  532SOL    HW1 1595   2.387   0.813   2.058 -1.1457 -1.2997 -1.7635
  532SOL    HW2 1596   2.400   0.742   2.213  1.7569  1.1879  0.6916
  533SOL     OW 1597   2.950   0.146   1.841 -0.0390  0.2788 -0.0104
  533SOL    HW1 1598   2.918   0.122   1.937  1.4803  0.1370  0.4935
  533SOL    HW2 1599   3.038   0.195   1.850  0.5412  0.7066 -1.4012
  534SOL     OW 1600   2.505   0.197   0.309 -0.2886  0.2788  0.4507
  534SOL    HW1 1601   2.591   0.248   0.291 -3.7985  1.0406 -1.7406
  534SOL    HW2 1602   2.458   0.167   0.224 -3.0919 -0.0492 -2.7690
  535SOL     OW 1603   0.485   0.230   0.114 -0.3451 -0.0855  0.2386
  535SOL    HW1 1604   0.484   0.310   0.175  0.2856 -0.0606  0.9358
  535SOL    HW2 1605   0.391   0.187   0.103  2.4936  1.2698 -0.9216
  536SOL     OW 1606   0.971   1.951   1.402  0.5526  0.4659  0.1148
  536SOL    HW1 1607   0.900   2.007   1.454 -1.6462 -0.7211 -0.8051
  536SOL    HW2 1608   0.969   1.978   1.302 -2.8930  1.1226  0.9337
  537SOL     OW 1609   2.998   2.590   1.633  0.2043 -0.3436 -0.4324
  537SOL    HW1 1610   2.910   2.614   1.671  0.6651 -0.0321 -1.5366
  537SOL    HW2 1611   3.035   2.504   1.668 -2.2910  2.9619 -0.6833
  538SOL     OW 1612   0.465   2.359   0.398  0.0709 -0.1159  0.3781
  538SOL    HW1 1613   0.560   2.392   0.369  4.1148 -0.2391  0.1932
  538SOL    HW2 1614   0.450   2.261   0.378 -1.6532 -2.3089  0.8794
  539SOL     OW 1615   1.976   1.209   2.301 -0.2718 -0.2431 -0.1058
  539SOL    HW1 1616   1.960   1.133   2.372 -1.1947  0.0196 -1.1147
  539SOL    HW2 1617   2.077   1.229   2.294 -1.5790 -0.4096 -3.2217
  540SOL     OW 1618   1.785   0.838   2.989 -0.1506 -0.2859  0.5021
  540SOL    HW1 1619   1.870   0.778   3.001  1.1385 -1.1842  0.5682
  540SOL    HW2 1620   1.784   0.885   2.897 -1.0549  2.5496 -0.4146
  541SOL     OW 1621   0.519   0.740   2.496  0.0940  0.2971  0.2069
  541SOL    HW1 1622   0.422   0.731   2.474  1.6098 -0.2576  2.5627
  541SOL    HW2 1623   0.534   0.794   2.583  0.2898  3.2600  0.9180
  542SOL     OW 1624   1.287   2.672   1.922  0.3299 -0.5824  0.4863
  542SOL    HW1 1625   1.292   2.590   1.979  2.0722  2.0068 -0.2571
  542SOL    HW2 1626   1.367   2.675   1.855 -0.4282  0.4997 -2.3347
  543SOL     OW 1627   0.743   2.671   0.386  0.3124 -0.4729  0.1747
  543SOL    HW1 1628   0.717   2.589   0.329 -0.2260  1.5507  0.6797
  543SOL    HW2 1629   0.704   2.674   0.484  0.1810  0.3012  2.0641
  544SOL     OW 1630   2.739   2.018   2.271 -0.2450  0.2914 -0.3339
  544SOL    HW1 1631   2.686   2.098   2.308 -1.1501  0.1523  1.2427
  544SOL    HW2 1632   2.826   2.005   2.333  2.6810 -1.2530  0.5616
  545SOL     OW 1633   1.385   1.539   1.793 -0.2903 -0.3009 -0.1901
  545SOL    HW1 1634   1.371   1.586   1.880 -1.2836 -0.2088 -1.9573
  545SOL    HW2 1635   1.320   1.585   1.734 -1.7574 -0.3824  2.0638
  546SOL     OW 1636   2.934   0.221   2.500  0.5417  0.2581 -0.0549
  546SOL    HW1 1637   2.971   0.139   2.549 -0.1337 -2.3163 -0.9159
  546SOL    HW2 1638   2.992   0.235   2.417 -1.2964 -1.4163 -1.3760
  547SOL     OW 1639   1.302   0.093   1.134 -0.1016 -0.3795  0.2670
  547SOL    HW1 1640   1.328   0.195   1.151  0.9429  1.9719  0.3323
  547SOL    HW2 1641   1.381   0.032   1.152  0.1012 -3.9156 -2.6655
  548SOL     OW 1642   1.269   2.009   0.037 -0.7653 -0.3066 -0.1523
  548SOL    HW1 1643   1.347   2.038   0.100  3.1194 -0.0266  4.8654
  548SOL    HW2 1644   1.218   2.090   3.077 -0.0220  0.1957 -2.0593
  549SOL     OW 1645   2.404   0.729   0.124 -0.3787  0.1223  0.0249
  549SOL    HW1 1646   2.395   0.826   0.089 -0.8953 -0.0619 -0.5292
  549SOL    HW2 1647   2.394   0.720   0.224 -0.4211  0.8004  0.1187
  550SOL     OW 1648   2.721   2.109   0.762 -0.9529  0.7224 -0.5108
  550SOL    HW1 1649   2.635   2.157   0.781  0.4448 -1.4347  1.7498
  550SOL    HW2 1650   2.703   2.019   0.720  1.3975 -0.5651 -0.9746
  551SOL     OW 1651   0.925   0.360   1.274  0.2967 -0.9562  0.1437
  551SOL    HW1 1652   0.838   0.315   1.294  1.1418  2.8420  1.3182
  551SOL    HW2 1653   0.989   0.347   1.357 -0.0301 -2.4064 -0.1504
  552SOL     OW 1654   0.036   1.366   2.810  0.0235  0.2698  0.2533
  552SOL    HW1 1655   0.083   1.450   2.782 -0.3405  1.0859  0.1080
  552SOL    HW2 1656   0.018   1.362   2.908 -3.5484 -0.6900 -1.9262
  553SOL     OW 1657   2.421   2.558   0.441  0.1935 -0.2870  0.1521
  553SOL    HW1 1658   2.512   2.603   0.468  1.5123  2.0630  2.1547
  553SOL    HW2 1659   2.360   2.629   0.406  0.9846 -1.0957  1.0440
  554SOL     OW 1660   2.135   1.145   1.493  0.1314  0.4338  0.1603
  554SOL    HW1 1661   2.058   1.166   1.429 -1.1062  0.1782  0.6881
  554SOL    HW2 1662   2.095   1.087   1.567 -2.1309 -1.1789 -0.8348
  555SOL     OW 1663   0.932   2.139   2.316 -0.2110  0.2257  0.6938
  555SOL    HW1 1664   0.986   2.156   2.400 -0.6417 -2.0346  2.1035
  555SOL    HW2 1665   0.892   2.047   2.331  1.4629  0.9117 -1.5698
  556SOL     OW 1666   1.150   1.100   1.747 -0.0853 -0.2837 -0.4321
  556SOL    HW1 1667   1.226   1.135   1.807 -1.6941  1.2117  0.2617
  556SOL    HW2 1668   1.180   1.033   1.678 -1.2618  0.1462  1.9921
  557SOL     OW 1669   1.161   0.072   1.354 -0.0927 -0.1507 -0.5052
  557SOL    HW1 1670   1.206   0.079   1.263 -0.8121 -1.8813 -1.1172
  557SOL    HW2 1671   1.147   0.168   1.401 -1.8109  5.4706  3.8754
  558SOL     OW 1672   0.402   0.451   2.283  0.3927 -0.4137 -0.0603
  558SOL    HW1 1673   0.418   0.416   2.379  1.3927 -0.3171  0.5202
  558SOL    HW2 1674   0.470   0.521   2.255 -1.6504  1.1370 -0.6042
  559SOL     OW 1675   1.400   2.680   0.353  0.0924 -0.7536  0.0477
  559SOL    HW1 1676   1.429   2.747   0.426  0.2174  1.7165 -1.3168
  559SOL    HW2 1677   1.450   2.592   0.354 -0.7053  1.5869  2.3792
  560SOL     OW 1678   1.448   2.123   0.225  0.6092  0.1024 -0.9008
  560SOL    HW1 1679   1.500   2.042   0.247 -1.1264  3.3621  0.9342
  560SOL    HW2 1680   1.505   2.203   0.208 -1.5776 -1.2818  0.8254
  561SOL     OW 1681   1.404   0.149   0.749  0.0725  0.0496  0.0250
  561SOL    HW1 1682   1.493   0.120   0.796  0.0235  2.2319 -2.9652
  561SOL    HW2 1683   1.325   0.111   0.803  0.0411 -0.5293 -0.6342
  562SOL     OW 1684   0.647   0.954   2.106  0.3315 -0.1934  0.0893
  562SOL    HW1 1685   0.689   1.040   2.068 -1.8014 -0.0544 -3.5925
  562SOL    HW2 1686   0.626   0.977   2.203 -1.3633  0.4784 -1.2934
  563SOL     OW 1687   1.260   2.348   2.782 -0.2098  0.3083  0.1979
  563SOL    HW1 1688   1.222   2.394   2.697  1.5695  2.6501 -1.6280
  563SOL    HW2 1689   1.348   2.299   2.761 -0.0402 -0.2443  1.1436
  564SOL     OW 1690   2.678   0.815   1.067  0.4363 -0.3428 -0.3443
  564SOL    HW1 1691   2.725   0.900   1.078 -0.0011 -1.1068 -0.5425
  564SOL    HW2 1692   2.582   0.831   1.033 -2.1793 -0.6466  0.9205
  565SOL     OW 1693   1.211   1.167   3.049 -0.0967 -0.6001  0.3661
  565SOL    HW1 1694   1.188   1.255   3.002  0.2573  2.8784 -0.6886
  565SOL    HW2 1695   1.311   1.153   3.023  6.1203  0.8756 -0.1418
  566SOL     OW 1696   2.196   2.717   0.003 -0.2146 -0.2802 -0.1167
  566SOL    HW1 1697   2.139   2.798   3.065  2.7228 -3.1628  3.9356
  566SOL    HW2 1698   2.291   2.738   0.024  1.7196 -0.1791  1.3728
  567SOL     OW 1699   1.614   0.957   1.107 -0.0110 -0.4153  0.6422
  567SOL    HW1 1700   1.607   1.056   1.138  1.0827  5.5162  2.1934
  567SOL    HW2 1701   1.596   0.903   1.190  2.0886 -0.9097 -1.4942
  568SOL     OW 1702   1.423   1.409   2.484  0.2295  0.3066 -0.0425
  568SOL    HW1 1703   1.334   1.428   2.531  1.8390 -1.1158 -1.1975
  568SOL    HW2 1704   1.498   1.389   2.553 -2.7594  1.3306 -0.7659
  569SOL     OW 1705   1.997   1.813   0.714  0.3406 -0.1243 -0.5783
  569SOL    HW1 1706   2.088   1.810   0.681 -2.7625  2.6689  2.3736
  569SOL    HW2 1707   1.957   1.899   0.691  2.1965 -4.2846  0.3618
  570SOL     OW 1708   2.534   2.221   2.327 -0.1932 -0.1947 -0.4143
  570SOL    HW1 1709   2.552   2.274   2.243 -0.5453  2.3651 -0.3305
  570SOL    HW2 1710   2.436   2.212   2.347 -1.7720  0.2645 -1.3121
  571SOL     OW 1711   2.602   1.838   1.741  0.7459  0.1758 -0.0481
  571SOL    HW1 1712   2.631   1.897   1.820 -0.0742  1.7033  0.1187
  571SOL    HW2 1713   2.501   1.826   1.727 -1.4334 -2.0148  1.3674
  572SOL     OW 1714   1.461   2.564   3.031  0.3045  0.0595 -0.2975
  572SOL    HW1 1715   1.361   2.583   3.012 -1.6662  0.5903  0.0361
  572SOL    HW2 1716   1.511   2.515   2.952  3.4015 -1.9457 -2.2486
  573SOL     OW 1717   1.669   2.130   1.301 -0.1234  0.2051 -0.1772
  573SOL    HW1 1718   1.596   2.150   1.368  1.9193 -3.6598 -1.7809
  573SOL    HW2 1719   1.762   2.114   1.343  3.4536  1.3765  0.1255
  574SOL     OW 1720   0.961   2.720   1.429 -0.6218  0.4758 -0.3220
  574SOL    HW1 1721   0.906   2.630   1.438  1.1153  0.6755 -0.0797
  574SOL    HW2 1722   0.952   2.777   1.513  0.6311 -1.7278  1.2957
  575SOL     OW 1723   0.907   0.659   0.899 -0.0628  0.1683  0.0262
  575SOL    HW1 1724   1.008   0.651   0.892  1.1884  1.6083 -0.1604
  575SOL    HW2 1725   0.874   0.736   0.848  2.8770 -0.5850  0.3041
  576SOL     OW 1726   2.445   0.463   1.359  0.0167  0.2154 -0.1755
  576SOL    HW1 1727   2.518   0.478   1.286 -1.1988 -1.9222 -2.2874
  576SOL    HW2 1728   2.488   0.483   1.448  0.8567  0.9790  1.4107
  577SOL     OW 1729   2.389   0.262   2.622  0.4152  0.3278  0.1174
  577SOL    HW1 1730   2.339   0.328   2.683 -0.0489 -0.4377 -0.1853
  577SOL    HW2 1731   2.356   0.263   2.522 -1.1255 -0.2922 -0.8177
  578SOL     OW 1732   1.958   1.841   2.053  0.0307  0.0621  0.0249
  578SOL    HW1 1733   1.916   1.759   2.004 -1.5058  0.8604  1.8779
  578SOL    HW2 1734   1.996   1.913   1.990 -0.0067  0.9765  0.0265
  579SOL     OW 1735   0.765   1.702   1.109  0.1259 -0.4161 -0.1376
  579SOL    HW1 1736   0.810   1.713   1.015  0.7711 -2.7946 -0.6320
  579SOL    HW2 1737   0.764   1.604   1.134 -0.8973 -1.2119  0.1241
  580SOL     OW 1738   1.544   2.690   2.620  0.6291 -0.5125  0.3739
  580SOL    HW1 1739   1.484   2.720   2.545  0.0241 -2.1931 -0.2202
  580SOL    HW2 1740   1.531   2.750   2.705 -1.8537  0.2448  3.1076
  581SOL     OW 1741   0.600   0.607   2.216 -0.9824  0.3257 -0.4717
  581SOL    HW1 1742   0.672   0.578   2.286 -0.3010  0.0324  0.8563
  581SOL    HW2 1743   0.628   0.699   2.174  0.1392 -0.8864 -2.3903
  582SOL     OW 1744   0.467   0.606   0.697  0.2672 -0.8887  0.5747
  582SOL    HW1 1745   0.560   0.575   0.721 -3.0516  0.2276  0.0624
  582SOL    HW2 1746   0.393   0.537   0.711  0.3327  0.7192  1.4986
  583SOL     OW 1747   0.731   1.602   1.844 -0.4077  0.5041 -0.3285
  583SOL    HW1 1748   0.642   1.582   1.888 -0.1029 -1.5911 -1.9866
  583SOL    HW2 1749   0.737   1.692   1.803 -0.8264 -0.7434 -0.4010
  584SOL     OW 1750   2.257   2.774   0.362  0.0610 -0.3575 -0.3953
  584SOL    HW1 1751   2.160   2.780   0.330 -1.6852 -2.0183 -0.4856
  584SOL    HW2 1752   2.320   2.838   0.308  0.1311 -0.8674  2.2753
  585SOL     OW 1753   2.257   0.741   2.813  0.0380  0.3043  0.3179
  585SOL    HW1 1754   2.351   0.757   2.850 -0.4823  0.5150  0.6368
  585SOL    HW2 1755   2.200   0.818   2.849 -0.4562 -1.2712 -3.4467
  586SOL     OW 1756   0.674   1.758   0.379 -0.0081 -0.1479  0.4475
  586SOL    HW1 1757   0.610   1.742   0.457  0.6975  1.9090  1.1124
  586SOL    HW2 1758   0.758   1.806   0.418  1.2604 -0.4026  1.2113
  587SOL     OW 1759   1.608   1.928   1.013  0.4163 -0.2369  0.0383
  587SOL    HW1 1760   1.697   1.905   1.058 -2.1526  0.2931  0.3781
  587SOL    HW2 1761   1.580   2.018   1.047 -0.1026 -2.3062 -1.3366
  588SOL     OW 1762   0.540   0.425   1.055 -0.3977  0.1656  0.1205
  588SOL    HW1 1763   0.622   0.477   1.094 -0.3814 -1.3994 -1.6652
  588SOL    HW2 1764   0.579   0.344   1.007  1.9925 -0.9151 -2.2704
  589SOL     OW 1765   1.586   3.063   1.190 -0.2935  0.3756  0.5690
  589SOL    HW1 1766   1.621   2.967   1.157  2.8405 -5.3435 -2.7769
  589SOL    HW2 1767   1.544   3.068   1.285  0.8516 -0.7662  0.6116
  590SOL     OW 1768   1.450   1.081   0.182 -0.5269 -0.2569  0.5842
  590SOL    HW1 1769   1.509   1.000   0.180 -0.0600 -1.4482 -0.1662
  590SOL    HW2 1770   1.478   1.161   0.120 -1.1801  3.3461 -1.2757
  591SOL     OW 1771   2.281   2.151   2.112  0.0331  0.1488  0.7211
  591SOL    HW1 1772   2.288   2.154   2.215 -0.2795  0.2027  1.8640
  591SOL    HW2 1773   2.320   2.060   2.083 -1.7101  0.0541  2.0314
  592SOL     OW 1774   1.387   1.997   1.557  0.3580 -0.5024  0.0048
  592SOL    HW1 1775   1.475   1.947   1.551 -2.4221  0.3375  1.5714
  592SOL    HW2 1776   1.309   1.951   1.508  0.1801  2.0947  1.6497
  593SOL     OW 1777   0.912   0.141   0.588 -0.0513  0.1030  0.0263
  593SOL    HW1 1778   0.849   0.108   0.660  0.1652  1.7403  0.6957
  593SOL    HW2 1779   0.995   0.186   0.637 -1.1941  1.2361  2.4211
  594SOL     OW 1780   0.228   0.699   1.912 -0.8479  0.1235 -0.1771
  594SOL    HW1 1781   0.168   0.735   1.835  0.7587  1.1123 -0.4505
  594SOL    HW2 1782   0.300   0.772   1.932  2.0343  1.0754  2.2358
  595SOL     OW 1783   2.890   2.774   0.620  0.4380  0.5999  0.1150
  595SOL    HW1 1784   2.930   2.860   0.586 -1.5234  0.4910 -0.3952
  595SOL    HW2 1785   2.854   2.778   0.712 -2.2270 -0.1450  0.4215
  596SOL     OW 1786   0.046   0.472   1.568  0.0027  0.3627  0.2028
  596SOL    HW1 1787   0.115   0.529   1.521  0.4596  0.6048 -0.1141
  596SOL    HW2 1788   0.052   0.372   1.545 -1.9050 -0.9669  0.1843
  597SOL     OW 1789   2.307   1.006   0.526 -0.7194  0.1667  0.4816
  597SOL    HW1 1790   2.338   1.084   0.467 -2.2582 -1.2360  1.3385
  597SOL    HW2 1791   2.215   1.029   0.567  0.6901  0.3668 -0.9182
  598SOL     OW 1792   0.554   0.097   1.916 -0.5712  0.3521 -0.6152
  598SOL    HW1 1793   0.480   0.038   1.871 -3.4694 -0.1280 -0.6523
  598SOL    HW2 1794   0.526   0.193   1.904  2.1630 -1.2527 -0.7639
  599SOL     OW 1795   2.566   1.617   0.110  0.4056 -0.3765  0.0754
  599SOL    HW1 1796   2.645   1.678   0.111 -0.4752 -0.4363 -0.3846
  599SOL    HW2 1797   2.576   1.545   0.038  0.7368 -0.0427 -0.5595
  600SOL     OW 1798   1.002   0.969   2.945  0.0228  0.3445  0.2193
  600SOL    HW1 1799   0.913   1.017   2.947 -0.7040  1.6073  0.1555
  600SOL    HW2 1800   1.073   1.008   3.006 -2.6450  1.1380 -1.5417
  601SOL     OW 1801   1.093   1.088   2.713 -0.6926 -0.0362  0.4487
  601SOL    HW1 1802   1.056   1.176   2.690  2.6670 -2.4732  1.4964
  601SOL    HW2 1803   1.061   1.055   2.807 -0.2928 -0.8621 -0.6803
  602SOL     OW 1804   1.035   2.976   1.528  0.0822 -0.3223 -0.1821
  602SOL    HW1 1805   1.082   2.942   1.612 -3.2661  0.2767  2.1971
  602SOL    HW2 1806   1.099   3.039   1.476  0.4818 -2.0295 -0.9329
  603SOL     OW 1807   0.984   2.830   2.386  0.2020  0.0815 -0.4051
  603SOL    HW1 1808   0.909   2.831   2.458  0.0929  1.4740  0.0830
  603SOL    HW2 1809   1.074   2.850   2.429  1.4743 -0.5789  1.3906
  604SOL     OW 1810   2.880   0.096   2.089 -0.0520 -0.4874 -0.0360
  604SOL    HW1 1811   2.843   0.190   2.123 -2.5051  0.6763  1.3492
  604SOL    HW2 1812   2.901   0.037   2.172  1.5871 -1.8117  0.5854
  605SOL     OW 1813   2.472   2.418   1.462 -0.1455 -0.2951 -0.1311
  605SOL    HW1 1814   2.462   2.370   1.555  0.2281 -0.5007  5.2672
  605SOL    HW2 1815   2.422   2.505   1.452 -4.5310 -0.7254 -0.3381
  606SOL     OW 1816   2.766   1.760   2.760  0.2547  0.1400 -0.2834
  606SOL    HW1 1817   2.721   1.851   2.763 -0.9517  1.0289  1.2811
  606SOL    HW2 1818   2.791   1.728   2.853 -0.9194 -0.4450 -0.2623
  607SOL     OW 1819   1.092   0.292   0.722  0.1524 -0.2605  0.3788
  607SOL    HW1 1820   1.115   0.386   0.756  0.7507 -0.2529  1.0947
  607SOL    HW2 1821   1.148   0.225   0.774  2.2469  2.4660  0.0986
  608SOL     OW 1822   1.572   1.528   2.278  0.5652  0.1931 -0.1280
  608SOL    HW1 1823   1.500   1.485   2.335 -1.9935 -0.0809  1.0624
  608SOL    HW2 1824   1.670   1.495   2.297  2.3744  0.9992 -0.5228
  609SOL     OW 1825   2.913   0.694   1.018 -0.4392  0.5839 -0.2320
  609SOL    HW1 1826   3.000   0.713   1.071  2.6277  0.5276 -1.5161
  609SOL    HW2 1827   2.830   0.744   1.040  1.8354  1.3275 -1.6204
  610SOL     OW 1828   0.658   2.498   0.180 -0.3347  0.1677 -0.0623
  610SOL    HW1 1829   0.728   2.540   0.110  0.9866 -0.8607 -2.2347
  610SOL    HW2 1830   0.680   2.402   0.198  0.2174  1.2643 -0.7618
  611SOL     OW 1831   1.969   1.287   0.554 -0.2980 -0.7073 -0.0938
  611SOL    HW1 1832   1.975   1.309   0.452  0.5438  1.7470 -0.3780
  611SOL    HW2 1833   1.959   1.369   0.617 -1.1126  2.9217  1.3221
  612SOL     OW 1834   0.917   2.429   2.491 -0.4763 -0.2394  0.3822
  612SOL    HW1 1835   1.014   2.435   2.532  1.1400  1.4463  0.9932
  612SOL    HW2 1836   0.915   2.487   2.407 -0.6609  1.1731 -1.3782
  613SOL     OW 1837   1.333   1.747   0.224  0.3156 -0.9694 -0.6310
  613SOL    HW1 1838   1.399   1.703   0.291 -0.0670  0.9302 -2.2745
  613SOL    HW2 1839   1.264   1.808   0.275 -4.5184  2.2035 -0.1914
  614SOL     OW 1840   2.562   2.165   1.772 -0.0715  0.2631 -0.0051
  614SOL    HW1 1841   2.575   2.143   1.672  2.1322 -3.4353 -1.9009
  614SOL    HW2 1842   2.651   2.197   1.808  0.5745 -2.7093 -0.6979
  615SOL     OW 1843   2.490   1.235   3.034  0.7507 -0.1141  0.0820
  615SOL    HW1 1844   2.526   1.293   2.958  1.1420 -0.2236  0.3017
  615SOL    HW2 1845   2.392   1.228   3.030  0.2688 -0.1864 -0.5760
  616SOL     OW 1846   1.632   0.115   0.935 -0.1632  0.2341 -0.4893
  616SOL    HW1 1847   1.695   0.195   0.935 -1.5230  1.9443 -0.6531
  616SOL    HW2 1848   1.639   0.069   1.025  0.5189  0.3982  1.0408
  617SOL     OW 1849   0.763   1.129   2.999 -0.5118  0.1319 -0.2201
  617SOL    HW1 1850   0.665   1.118   2.965 -0.3834 -2.3298  1.6720
  617SOL    HW2 1851   0.789   1.227   2.989 -2.1909 -1.2863 -0.3113
  618SOL     OW 1852   0.546   0.566   1.532  0.3117 -0.5174  0.1365
  618SOL    HW1 1853   0.543   0.616   1.617 -0.2620 -3.9993 -1.0454
  618SOL    HW2 1854   0.591   0.613   1.454  1.7713  1.1333  0.5594
  619SOL     OW 1855   2.963   0.925   1.425 -0.6458 -0.1663  0.6656
  619SOL    HW1 1856   2.974   0.834   1.379  0.5045  0.3534 -2.6674
  619SOL    HW2 1857   3.049   0.952   1.469  0.2445 -1.9312 -3.6182
  620SOL     OW 1858   1.874   1.236   2.934 -0.2682 -0.5056 -0.4207
  620SOL    HW1 1859   1.907   1.210   2.839  0.0734 -0.2878 -0.3962
  620SOL    HW2 1860   1.838   1.333   2.926  1.2664  1.6396 -2.2135
  621SOL     OW 1861   2.349   0.041   1.219  0.1282  0.0239 -0.1830
  621SOL    HW1 1862   2.416   0.084   1.157 -0.6786  2.5442  0.0424
  621SOL    HW2 1863   2.275   0.108   1.236  0.5204  0.1591 -0.8058
  622SOL     OW 1864   1.419   0.655   2.076  0.1069 -0.0505 -0.1864
  622SOL    HW1 1865   1.513   0.693   2.067  1.2491  1.8397  0.6092
  622SOL    HW2 1866   1.397   0.626   2.168  0.2749  0.0220  0.0926
  623SOL     OW 1867   1.107   0.523   2.825  0.2185  0.1579  0.5001
  623SOL    HW1 1868   1.129   0.533   2.924  0.3163  0.7940 -2.0741
  623SOL    HW2 1869   1.043   0.600   2.797 -0.1984  0.2129 -0.0794
  624SOL     OW 1870   1.939   0.576   0.618 -0.1850  0.0316  0.0320
  624SOL    HW1 1871   1.850   0.590   0.670 -2.2540 -0.7697  1.3068
  624SOL    HW2 1872   1.959   0.476   0.623 -3.2314 -2.7968  0.3520
  625SOL     OW 1873   0.865   1.573   0.748 -0.4283  0.1984 -0.1430
  625SOL    HW1 1874   0.923   1.573   0.833 -1.6977  0.9691  1.9947
  625SOL    HW2 1875   0.924   1.568   0.661 -1.6779 -1.6986  1.6789
  626SOL     OW 1876   1.603   1.066   2.589  0.3332 -0.6846  0.0434
  626SOL    HW1 1877   1.619   1.170   2.602  0.3042 -0.3942 -0.1413
  626SOL    HW2 1878   1.515   1.038   2.632 -0.6322 -1.2891 -0.0398
  627SOL     OW 1879   0.690   0.307   1.666  0.8908  0.8852 -0.1128
  627SOL    HW1 1880   0.705   0.347   1.571  0.2666  1.5311 -2.7231
  627SOL    HW2 1881   0.588   0.307   1.693 -2.5547 -1.6257 -0.6023
  628SOL     OW 1882   2.154   0.502   2.432  0.1602 -0.7294 -0.2950
  628SOL    HW1 1883   2.054   0.514   2.446 -1.9841  0.2336 -0.5122
  628SOL    HW2 1884   2.207   0.571   2.486  1.7314 -2.1284 -1.3178
  629SOL     OW 1885   0.827   1.399   2.977  0.3104  0.3470 -0.2654
  629SOL    HW1 1886   0.910   1.427   3.025 -0.5786 -2.0564 -0.1748
  629SOL    HW2 1887   0.761   1.477   2.975  1.9171 -1.9618  1.1150
  630SOL     OW 1888   1.026   0.425   2.160 -0.2806  0.4214  0.4600
  630SOL    HW1 1889   1.008   0.493   2.232  0.1182 -1.5035  0.2186
  630SOL    HW2 1890   1.002   0.331   2.188 -0.9271 -0.3416  0.0230
  631SOL     OW 1891   2.589   1.233   0.994  0.6413 -0.3206 -0.3835
  631SOL    HW1 1892   2.621   1.273   1.082 -1.5803  0.2533 -1.1229
  631SOL    HW2 1893   2.512   1.292   0.955  0.7731 -0.9292 -0.6224
  632SOL     OW 1894   2.542   1.579   0.687  0.7896  0.1740  0.1674
  632SOL    HW1 1895   2.631   1.622   0.702 -0.9436  0.3359  1.3708
  632SOL    HW2 1896   2.537   1.563   0.582 -3.1614 -0.0686 -0.6046
  633SOL     OW 1897   1.039   1.294   0.831 -0.1207 -0.0045 -0.2054
  633SOL    HW1 1898   1.022   1.306   0.929 -2.0576 -2.6224 -0.0130
  633SOL    HW2 1899   1.103   1.366   0.798 -1.8821 -2.6910  3.2822
  634SOL     OW 1900   1.822   2.986   0.894 -0.4904 -0.0488  0.0855
  634SOL    HW1 1901   1.742   3.048   0.886  1.6554 -0.5300 -0.2633
  634SOL    HW2 1902   1.801   2.892   0.913 -2.7415  1.5974  2.6134
  635SOL     OW 1903   1.869   0.530   1.373  0.3279 -0.6938 -0.1211
  635SOL    HW1 1904   1.963   0.570   1.362  0.5086  0.9201 -1.8595
  635SOL    HW2 1905   1.875   0.434   1.406  0.9937  1.5260  0.1031
  636SOL     OW 1906   1.345   1.000   0.587 -0.3881 -0.0374  0.4889
  636SOL    HW1 1907   1.270   1.005   0.653 -0.3879 -0.6045 -0.5937
  636SOL    HW2 1908   1.313   0.969   0.494  1.8002  2.2581 -0.3242
  637SOL     OW 1909   1.605   2.341   0.101 -0.2391  0.1028  0.6326
  637SOL    HW1 1910   1.551   2.406   0.047 -1.4970  1.0172 -0.1962
  637SOL    HW2 1911   1.704   2.365   0.081 -2.9534  2.3563 -0.3721
  638SOL     OW 1912   1.081   2.873   3.000  0.3214  0.4786 -0.1864
  638SOL    HW1 1913   1.012   2.826   3.060 -0.0230  0.5324 -1.0561
  638SOL    HW2 1914   1.039   2.915   2.913  0.8744 -1.9737 -3.1945
  639SOL     OW 1915   1.219   1.857   1.405  0.2620  0.3874  0.1527
  639SOL    HW1 1916   1.232   1.761   1.380  1.4081  2.4618  1.9524
  639SOL    HW2 1917   1.122   1.888   1.396  0.8038 -1.6066 -0.1584
  640SOL     OW 1918   0.533   2.810   0.229 -0.8288  0.0999 -0.2680
  640SOL    HW1 1919   0.519   2.817   0.126 -0.1315  1.7628 -1.8071
  640SOL    HW2 1920   0.606   2.741   0.254  1.2494  1.3759 -1.2654
  641SOL     OW 1921   0.085   0.296   0.182  0.2479 -0.0759 -0.4912
  641SOL    HW1 1922   0.045   0.246   0.263  0.6172 -0.7140 -0.5462
  641SOL    HW2 1923   0.169   0.349   0.209 -1.6517 -0.7267  2.4889
  642SOL     OW 1924   0.376   1.613   1.114  0.4166 -0.4167 -0.2439
  642SOL    HW1 1925   0.339   1.675   1.045 -2.4214 -1.3418 -0.9328
  642SOL    HW2 1926   0.300   1.591   1.178  0.5185 -2.3171 -0.2317
  643SOL     OW 1927   0.458   1.888   2.501  0.4126 -0.1337  0.5807
  643SOL    HW1 1928   0.513   1.974   2.509  2.2401  2.4941  0.4598
  643SOL    HW2 1929   0.366   1.899   2.451 -4.5650 -3.1640 -0.6920
  644SOL     OW 1930   1.649   2.487   0.359  0.2607 -0.6475  0.3436
  644SOL    HW1 1931   1.649   2.411   0.295  0.5302  0.9611  0.5600
  644SOL    HW2 1932   1.607   2.471   0.448 -0.9930 -2.6057  1.0296
  645SOL     OW 1933   1.765   2.227   1.737  0.0280  0.2573  0.0743
  645SOL    HW1 1934   1.729   2.239   1.830  2.0682 -1.6706  1.8278
  645SOL    HW2 1935   1.758   2.317   1.686  0.2490  0.5202 -0.2167
  646SOL     OW 1936   0.995   2.742   0.455 -0.9286  0.1350  0.5496
  646SOL    HW1 1937   0.984   2.844   0.453  0.9730  2.4220 -1.0698
  646SOL    HW2 1938   0.911   2.693   0.425 -2.0662  0.3982 -2.3870
  647SOL     OW 1939   0.129   3.070   1.977  1.0383 -0.4278  0.3497
  647SOL    HW1 1940   0.124   0.088   1.951  2.6497 -0.8803  0.1537
  647SOL    HW2 1941   0.093   3.048   2.073 -1.8113 -1.9662  0.8925
  648SOL     OW 1942   2.799   1.238   0.836  0.5887  0.0736  0.1875
  648SOL    HW1 1943   2.819   1.152   0.780  0.4819 -2.3823  1.3356
  648SOL    HW2 1944   2.709   1.220   0.882  0.3673 -2.8386  0.7305
  649SOL     OW 1945   1.947   2.693   2.702 -0.4703 -0.3478  0.0401
  649SOL    HW1 1946   1.949   2.638   2.620 -1.8598  0.8199 -0.4566
  649SOL    HW2 1947   1.951   2.790   2.678 -1.0558 -1.7260 -1.0369
  650SOL     OW 1948   2.386   1.427   1.708  0.4882 -0.1750  0.4615
  650SOL    HW1 1949   2.336   1.341   1.729  1.4662  0.8418  2.8691
  650SOL    HW2 1950   2.466   1.412   1.644 -0.4762 -3.5763 -1.0562
  651SOL     OW 1951   1.216   1.744   2.701  0.0733  0.4133 -0.6860
  651SOL    HW1 1952   1.140   1.718   2.765  0.4292 -3.2901  1.4661
  651SOL    HW2 1953   1.290   1.787   2.751 -3.5514 -1.9205 -0.6572
  652SOL     OW 1954   0.816   2.883   2.645  0.4298 -0.6607 -0.1913
  652SOL    HW1 1955   0.795   2.828   2.729  0.7054  5.1566  1.6930
  652SOL    HW2 1956   0.751   2.966   2.635 -0.9405  3.6025 -0.7996
  653SOL     OW 1957   2.224   2.003   0.919  0.0258  0.3449 -0.0722
  653SOL    HW1 1958   2.262   1.910   0.910 -2.4381  2.7941 -0.1775
  653SOL    HW2 1959   2.301   2.070   0.918 -0.3405 -0.1463  1.1934
  654SOL     OW 1960   2.429   2.972   2.043  0.4429 -0.4178  0.0265
  654SOL    HW1 1961   2.409   3.071   2.053 -1.5684  0.0935  2.5538
  654SOL    HW2 1962   2.528   2.960   2.013  1.6187 -1.6203  0.3192
  655SOL     OW 1963   2.765   2.188   1.300 -0.8662 -0.2721  0.1640
  655SOL    HW1 1964   2.747   2.283   1.291 -1.4137 -1.6641 -0.2592
  655SOL    HW2 1965   2.703   2.140   1.241  1.2437  0.6190  0.8937
  656SOL     OW 1966   2.446   1.801   2.854  0.2514  0.2663  0.4010
  656SOL    HW1 1967   2.484   1.848   2.770  1.4802 -1.5787 -3.0103
  656SOL    HW2 1968   2.504   1.716   2.857  0.7392 -1.4271 -0.2354
  657SOL     OW 1969   0.222   1.080   0.377 -0.1023 -0.7226  0.3352
  657SOL    HW1 1970   0.149   1.043   0.319 -0.6430  0.3223  1.7267
  657SOL    HW2 1971   0.202   1.080   0.475  0.8747 -1.1236 -2.0135
  658SOL     OW 1972   1.384   1.401   1.512  0.0785  0.3997 -0.1326
  658SOL    HW1 1973   1.381   1.472   1.441 -0.5717 -0.7748  1.8997
  658SOL    HW2 1974   1.287   1.385   1.540  1.0203  0.4815 -0.6315
  659SOL     OW 1975   0.680   0.112   1.100  0.5723 -0.2581  0.3027
  659SOL    HW1 1976   0.740   0.163   1.034 -1.8159  0.1898  1.1138
  659SOL    HW2 1977   0.664   0.162   1.184  1.0241 -0.4932 -1.4338
  660SOL     OW 1978   2.393   0.834   1.062  0.2032  0.0801 -0.2673
  660SOL    HW1 1979   2.375   0.861   0.965  1.0858 -2.8459 -2.2768
  660SOL    HW2 1980   2.352   0.741   1.076  1.4628 -2.8290  0.1656
  661SOL     OW 1981   0.409   1.756   0.048  0.0021 -0.2590  0.5277
  661SOL    HW1 1982   0.454   1.707   0.125  0.5499 -1.5510 -1.9989
  661SOL    HW2 1983   0.467   1.834   0.023  3.6210  0.1589 -1.8514
  662SOL     OW 1984   2.518   0.881   1.953 -0.1021  0.3184  0.2375
  662SOL    HW1 1985   2.600   0.844   2.001  1.1964  0.5804  0.1028
  662SOL    HW2 1986   2.529   0.885   1.855 -1.1673  0.5316  3.2650
  663SOL     OW 1987   1.986   1.352   1.131  0.1306  0.3062  0.3004
  663SOL    HW1 1988   1.909   1.337   1.074  1.1990 -0.6622  3.4846
  663SOL    HW2 1989   2.074   1.335   1.079  1.9371 -2.3499  1.4281
  664SOL     OW 1990   0.249   0.031   1.198  0.8888  0.1089 -0.0845
  664SOL    HW1 1991   0.303   0.048   1.114 -0.5691 -1.0654 -0.9167
  664SOL    HW2 1992   0.173   3.045   1.179 -0.2137 -0.9570 -1.9004
  665SOL     OW 1993   1.617   0.272   3.006  0.6855 -0.2662 -0.4698
  665SOL    HW1 1994   1.705   0.305   3.044 -2.9543 -1.1774 -0.9045
  665SOL    HW2 1995   1.608   0.172   3.013 -1.4442  5.7388 -0.3389
  666SOL     OW 1996   0.686   0.050   2.183 -0.4610  0.1189 -0.2135
  666SOL    HW1 1997   0.639   0.099   2.109 -1.1663  1.4977 -0.3139
  666SOL    HW2 1998   0.723   3.043   2.145  1.2149 -1.5173 -0.9673
  667SOL     OW 1999   1.860   1.439   1.722  0.4752 -0.2344  0.1903
  667SOL    HW1 2000   1.958   1.446   1.743 -0.3562 -0.5027  0.4270
  667SOL    HW2 2001   1.813   1.409   1.807 -0.9813  1.2430 -0.9679
  668SOL     OW 2002   0.039   1.511   2.288  0.3086  0.0980  0.7202
  668SOL    HW1 2003   0.103   1.440   2.323  1.1631 -0.4613  2.2005
  668SOL    HW2 2004   3.046   1.464   2.237  0.5807 -0.4719 -2.4631
  669SOL     OW 2005   2.443   2.757   0.075  0.1606 -0.0208 -0.0338
  669SOL    HW1 2006   2.532   2.718   0.039  1.8980  1.2631  0.2493
  669SOL    HW2 2007   2.440   2.860   0.074 -3.6449  3.5878 -1.0509
  670SOL     OW 2008   2.708   1.266   2.044 -0.4257 -0.0193 -0.1238
  670SOL    HW1 2009   2.750   1.179   2.013 -2.0004 -1.0966  1.4783
  670SOL    HW2 2010   2.776   1.336   2.068  0.0591 -0.3668 -0.5650
  671SOL     OW 2011   2.428   1.753   0.297  0.3359 -0.2441 -0.0297
  671SOL    HW1 2012   2.484   1.687   0.243  1.2926  1.2032 -0.8132
  671SOL    HW2 2013   2.487   1.830   0.332 -0.2493  2.9225  0.3733
  672SOL     OW 2014   1.242   1.280   2.127  0.0065 -0.1532  0.2233
  672SOL    HW1 2015   1.294   1.280   2.041 -0.0835 -0.8449  1.5034
  672SOL    HW2 2016   1.155   1.228   2.117  0.4195 -0.5345 -1.6547
  673SOL     OW 2017   2.853   1.920   1.424  0.1193 -0.5226  0.0023
  673SOL    HW1 2018   2.848   1.997   1.357 -0.5741 -1.7486 -0.3742
  673SOL    HW2 2019   2.947   1.876   1.428 -0.5083 -1.4927  1.3405
  674SOL     OW 2020   1.161   1.668   1.678 -0.7487  0.3155  0.2499
  674SOL    HW1 2021   1.104   1.631   1.603 -1.1638  2.7811 -1.1641
  674SOL    HW2 2022   1.158   1.764   1.696 -1.6875 -0.1035  1.7030
  675SOL     OW 2023   0.106   0.794   1.051 -0.1237 -0.6102 -0.0644
  675SOL    HW1 2024   0.104   0.784   1.154 -0.8376 -2.3691  0.2375
  675SOL    HW2 2025   0.179   0.743   1.001  1.7188 -2.8198 -0.9205
  676SOL     OW 2026   3.035   1.270   0.987  0.9190  0.1704 -0.0588
  676SOL    HW1 2027   2.950   1.289   0.930  0.6709 -0.0438 -0.2424
  676SOL    HW2 2028   3.037   1.172   1.007 -2.0819 -0.2910 -0.2836
  677SOL     OW 2029   1.820   1.428   2.343 -0.0688  0.3325 -0.0448
  677SOL    HW1 2030   1.870   1.343   2.321  3.5960  2.7667 -1.2154
  677SOL    HW2 2031   1.885   1.505   2.328 -1.5871 -1.0054 -1.0698
  678SOL     OW 2032   2.774   1.639   1.013  0.0794  0.7791  0.1129
  678SOL    HW1 2033   2.798   1.635   0.914  2.9472 -0.1113 -0.0161
  678SOL    HW2 2034   2.762   1.738   1.043 -1.3476 -3.2038 -1.4967
  679SOL     OW 2035   0.632   2.748   0.605 -0.2152 -0.0550 -0.0977
  679SOL    HW1 2036   0.553   2.682   0.589  0.2584  0.7786 -1.5607
  679SOL    HW2 2037   0.645   2.760   0.702 -1.2564 -2.1496 -0.6911
  680SOL     OW 2038   0.239   1.800   0.956 -0.3694  0.4022 -0.1782
  680SOL    HW1 2039   0.222   1.897   0.970 -1.4155  2.1447  0.0759
  680SOL    HW2 2040   0.156   1.757   0.916  1.3797  2.2476  0.0705
  681SOL     OW 2041   0.897   0.195   0.959 -0.3787 -0.4175 -0.0209
  681SOL    HW1 2042   0.964   0.271   0.977 -1.1104  0.0906  1.0238
  681SOL    HW2 2043   0.933   0.106   0.921 -2.7448 -2.0293  0.1486
  682SOL     OW 2044   1.622   2.885   1.556  0.6637  0.5282  0.1612
  682SOL    HW1 2045   1.625   2.900   1.657 -0.5033  1.2431 -4.2804
  682SOL    HW2 2046   1.711   2.922   1.514  0.9848 -0.2143 -0.9308
  683SOL     OW 2047   2.354   1.443   1.354  0.2699  0.3139  0.8765
  683SOL    HW1 2048   2.274   1.459   1.417 -0.2085 -1.2890  1.4778
  683SOL    HW2 2049   2.429   1.517   1.361 -1.7884 -1.0322 -0.8547
  684SOL     OW 2050   0.049   1.440   1.693  0.7088 -0.1167 -0.5304
  684SOL    HW1 2051   3.043   1.460   1.644  1.1507  1.0768 -0.4459
  684SOL    HW2 2052   0.047   1.458   1.793 -2.0593  0.0360 -1.7758
  685SOL     OW 2053   1.773   1.681   0.269 -0.0561 -0.4496 -0.3936
  685SOL    HW1 2054   1.716   1.759   0.238 -0.2949  0.9760 -1.5032
  685SOL    HW2 2055   1.808   1.636   0.186  0.2112 -0.8241 -0.7184
  686SOL     OW 2056   3.077   0.701   1.298  0.1838  0.0114  0.1970
  686SOL    HW1 2057   0.082   0.664   1.336 -1.3014 -2.7409 -1.0161
  686SOL    HW2 2058   3.007   0.624   1.286 -0.9391  0.9786 -0.1181
  687SOL     OW 2059   1.843   3.054   2.770  0.2542  0.1803  0.2834
  687SOL    HW1 2060   1.891   0.026   2.844  0.1953  0.5146  1.1001
  687SOL    HW2 2061   1.799   0.038   2.705 -0.9311 -1.1609  1.3374
  688SOL     OW 2062   1.096   2.140   2.549  0.5296  0.2430  0.2328
  688SOL    HW1 2063   1.186   2.190   2.543  0.4662  0.9609 -0.8495
  688SOL    HW2 2064   1.117   2.039   2.534  1.5018 -1.9562  2.3843
  689SOL     OW 2065   2.308   1.193   1.796  0.5108 -0.4095  0.1555
  689SOL    HW1 2066   2.379   1.188   1.867 -2.6467  1.6088 -1.5295
  689SOL    HW2 2067   2.297   1.102   1.753  1.8384 -0.2471  1.0142
  690SOL     OW 2068   2.105   2.081   1.510  0.2556 -0.0431 -0.3471
  690SOL    HW1 2069   2.003   2.081   1.515 -1.1692  1.2265  1.3893
  690SOL    HW2 2070   2.143   2.025   1.587 -2.4075 -2.5578  1.9751
  691SOL     OW 2071   0.508   1.697   0.564  0.4901 -0.3365 -0.8544
  691SOL    HW1 2072   0.486   1.751   0.646  1.7705 -0.5946  1.0002
  691SOL    HW2 2073   0.482   1.603   0.583 -0.2438 -0.1540 -1.1473
  692SOL     OW 2074   2.852   2.874   2.662  0.7190 -0.1912  0.2164
  692SOL    HW1 2075   2.768   2.876   2.597 -1.0260  4.0082 -1.3845
  692SOL    HW2 2076   2.892   2.782   2.677 -0.1357  2.2040  0.1665
  693SOL     OW 2077   0.031   1.461   1.947  0.3325  0.4412  0.3228
  693SOL    HW1 2078   0.063   1.555   1.956  0.8534 -1.9031  0.4200
  693SOL    HW2 2079   0.089   1.394   1.990  0.2778  3.2099  2.0825
  694SOL     OW 2080   2.460   0.310   2.040 -0.1955  0.1527  0.3473
  694SOL    HW1 2081   2.515   0.397   2.044  0.0071 -1.4254 -0.8668
  694SOL    HW2 2082   2.362   0.326   2.023  2.3380 -0.1259 -0.5633
  695SOL     OW 2083   0.988   0.739   2.182  0.0316  0.3914  0.7259
  695SOL    HW1 2084   0.947   0.706   2.093  0.5398 -0.9571 -2.0764
  695SOL    HW2 2085   1.022   0.832   2.171 -0.2175 -1.8402 -0.3748
  696SOL     OW 2086   2.019   2.721   1.588  0.0312  0.4214  0.6962
  696SOL    HW1 2087   1.971   2.652   1.644  2.0457  1.5505 -1.0944
  696SOL    HW2 2088   1.958   2.787   1.535 -2.3761  0.8364  0.3009
  697SOL     OW 2089   1.377   0.293   2.173  0.2662  0.1882  0.4702
  697SOL    HW1 2090   1.279   0.307   2.197  2.2593 -0.4054  0.6159
  697SOL    HW2 2091   1.405   0.351   2.085 -1.2212 -0.8700 -0.7098
  698SOL     OW 2092   2.349   1.697   2.451 -0.1468  0.3944 -0.2478
  698SOL    HW1 2093   2.438   1.739   2.485 -0.2551 -2.7852 -0.3429
  698SOL    HW2 2094   2.316   1.745   2.366 -1.8924 -1.1873 -3.3693
  699SOL     OW 2095   2.024   0.737   3.026  0.1701 -0.2944 -0.3947
  699SOL    HW1 2096   2.095   0.677   3.062  0.5900 -1.0690 -1.1940
  699SOL    HW2 2097   1.996   0.800   0.019 -0.4066  1.0332  0.4924
  700SOL     OW 2098   1.193   0.084   0.888 -0.2152 -0.2905  0.6310
  700SOL    HW1 2099   1.234   0.083   0.983 -4.5183  0.2162 -0.2083
  700SOL    HW2 2100   1.130   0.002   0.888 -1.4314 -0.7056 -1.1986
  701SOL     OW 2101   0.235   0.701   0.480  0.1094  0.0208 -0.6057
  701SOL    HW1 2102   0.249   0.609   0.526  1.6545  0.6582  1.5735
  701SOL    HW2 2103   0.311   0.766   0.506  2.6603 -0.2965  2.8871
  702SOL     OW 2104   1.433   0.021   1.404  0.0139 -0.0475  0.3006
  702SOL    HW1 2105   1.335   0.040   1.389 -1.3997 -0.6107 -1.3430
  702SOL    HW2 2106   1.447   3.074   1.498  0.5965  1.9172 -1.1467
  703SOL     OW 2107   3.074   1.041   1.119  0.2269 -0.1098  0.1352
  703SOL    HW1 2108   2.974   1.022   1.125 -0.7904 -2.1431 -1.8417
  703SOL    HW2 2109   0.043   0.954   1.087 -1.5298 -0.5957 -0.7729
  704SOL     OW 2110   0.821   2.497   1.387 -0.6937  0.2844 -1.2952
  704SOL    HW1 2111   0.853   2.409   1.351 -0.2986 -0.1059 -2.1365
  704SOL    HW2 2112   0.765   2.557   1.326  0.8440 -1.5858 -0.3592
  705SOL     OW 2113   0.214   1.601   2.992  0.1061  0.2984  0.3028
  705SOL    HW1 2114   0.228   1.598   2.892 -0.1627 -0.1496  0.3620
  705SOL    HW2 2115   0.279   1.667   3.045  2.0801  1.5010  2.5233
  706SOL     OW 2116   3.062   3.062   0.150 -0.1170  0.0581 -0.1456
  706SOL    HW1 2117   3.039   3.076   0.053  1.5628 -1.1095  1.8580
  706SOL    HW2 2118   2.980   3.068   0.210 -1.1976  0.2497  2.8847
  707SOL     OW 2119   1.618   2.964   2.251  0.5557  0.4286 -0.1575
  707SOL    HW1 2120   1.651   3.040   2.188 -1.1543  1.6874 -0.6407
  707SOL    HW2 2121   1.535   2.915   2.210 -3.2654 -3.8127 -4.0521
  708SOL     OW 2122   0.225   2.949   1.615  0.2506 -0.0352  0.0895
  708SOL    HW1 2123   0.296   2.981   1.552  0.0392 -1.5821  2.5502
  708SOL    HW2 2124   0.200   2.853   1.594 -2.9609  0.4583 -1.6057
  709SOL     OW 2125   0.024   0.717   1.737  0.0950 -0.6436 -0.0954
  709SOL    HW1 2126   0.002   0.664   1.651  1.0040 -1.9230  0.1792
  709SOL    HW2 2127   3.035   0.696   1.807 -0.7467  1.0447  1.1412
  710SOL     OW 2128   0.535   0.952   0.814  0.0227  0.4169  0.2844
  710SOL    HW1 2129   0.514   1.018   0.887 -0.2052  0.4082  0.3308
  710SOL    HW2 2130   0.498   0.863   0.844 -2.8334 -1.8766  1.2999
  711SOL     OW 2131   2.340   0.002   1.503 -0.2014  0.3343 -0.0520
  711SOL    HW1 2132   2.306   2.996   1.542  0.3844  4.9827  1.3240
  711SOL    HW2 2133   2.345   3.077   1.400 -1.8027 -1.4962  1.3587
  712SOL     OW 2134   0.171   2.468   2.368  0.3602  0.3187  0.3650
  712SOL    HW1 2135   0.073   2.482   2.344 -0.7018 -0.4245  1.1626
  712SOL    HW2 2136   0.173   2.416   2.455  0.7663  1.4317  0.9678
  713SOL     OW 2137   2.712   0.509   0.739  0.6292  0.0456  0.2386
  713SOL    HW1 2138   2.609   0.490   0.743 -2.0671  1.5486  1.1326
  713SOL    HW2 2139   2.756   0.479   0.656 -3.2310 -0.8775  3.7791
  714SOL     OW 2140   1.665   1.856   2.613 -0.1955 -0.4449 -0.0802
  714SOL    HW1 2141   1.605   1.812   2.545  0.1660  2.3672 -0.8689
  714SOL    HW2 2142   1.756   1.876   2.572 -1.1331  0.1141  0.2961
  715SOL     OW 2143   0.210   0.567   0.903 -0.4499 -0.3461  0.2763
  715SOL    HW1 2144   0.214   0.481   0.957  0.1681 -0.3199  1.5063
  715SOL    HW2 2145   0.120   0.580   0.859  1.4019  1.6352 -1.3183
  716SOL     OW 2146   0.798   0.703   1.592 -0.2693 -0.4513  0.5554
  716SOL    HW1 2147   0.839   0.795   1.607 -1.1692 -0.8386  1.5122
  716SOL    HW2 2148   0.764   0.681   1.498  0.9934 -1.1747  0.1324
  717SOL     OW 2149   0.712   0.524   2.462 -0.8894  0.3922 -0.2573
  717SOL    HW1 2150   0.702   0.430   2.506  1.4878  0.4463  1.2655
  717SOL    HW2 2151   0.636   0.587   2.487 -0.9910 -1.0369 -0.1581
  718SOL     OW 2152   1.257   0.527   0.580  0.4440  0.5798 -0.2948
  718SOL    HW1 2153   1.207   0.616   0.600 -1.1816  2.2248  0.1718
  718SOL    HW2 2154   1.194   0.456   0.546  2.8425 -0.4609 -0.6831
  719SOL     OW 2155   0.011   2.217   2.752  0.0211 -0.2512 -0.3390
  719SOL    HW1 2156   0.079   2.231   2.673  3.4869 -0.1433  0.0243
  719SOL    HW2 2157   0.027   2.286   2.829 -0.4388  0.0156  1.3751
  720SOL     OW 2158   1.070   0.568   1.589  0.5632  0.0403  0.4627
  720SOL    HW1 2159   1.153   0.597   1.641  0.3319  0.1168  0.6572
  720SOL    HW2 2160   0.984   0.615   1.624 -3.8539  2.9987  2.5652
  721SOL     OW 2161   2.773   2.818   0.852  0.5260  0.4258 -0.2557
  721SOL    HW1 2162   2.801   2.733   0.896  1.9164  2.8103  2.9171
  721SOL    HW2 2163   2.671   2.826   0.857 -0.3608  1.2092  1.4930
  722SOL     OW 2164   0.941   1.311   2.690 -0.4408  0.2032 -0.2226
  722SOL    HW1 2165   0.886   1.320   2.776 -0.0999 -0.1811 -0.7985
  722SOL    HW2 2166   0.897   1.342   2.606 -0.4310  0.3671  0.7456
  723SOL     OW 2167   2.525   0.948   1.411  0.5831 -0.2401 -0.2772
  723SOL    HW1 2168   2.450   0.887   1.384  1.4528 -0.2172 -0.9817
  723SOL    HW2 2169   2.494   1.043   1.406  0.6034 -1.6520  2.7104
  724SOL     OW 2170   0.991   2.009   0.252 -0.0326  0.3264 -0.1344
  724SOL    HW1 2171   0.993   1.974   0.156 -0.7945 -1.5680 -3.3556
  724SOL    HW2 2172   1.029   1.940   0.314 -0.0529 -1.2637 -1.2347
  725SOL     OW 2173   0.399   0.833   1.477 -0.1834  0.1699  0.3346
  725SOL    HW1 2174   0.394   0.912   1.416 -1.4542 -2.3358  0.0815
  725SOL    HW2 2175   0.475   0.841   1.543  0.5400  1.6694 -1.1528
  726SOL     OW 2176   2.522   1.096   2.729 -0.1207 -0.0260  0.4813
  726SOL    HW1 2177   2.472   1.059   2.804  0.0768 -0.0047  0.8771
  726SOL    HW2 2178   2.466   1.157   2.675 -0.6427  0.1310  0.2069
  727SOL     OW 2179   1.957   1.194   2.675 -0.4816 -0.2999 -0.1313
  727SOL    HW1 2180   1.900   1.276   2.659  2.5128  0.1332  1.0117
  727SOL    HW2 2181   1.930   1.124   2.604 -0.8794  0.2113 -1.4970
  728SOL     OW 2182   1.604   2.464   1.343  0.1417 -0.2616 -0.3442
  728SOL    HW1 2183   1.548   2.550   1.342 -0.4428  3.1069  0.6389
  728SOL    HW2 2184   1.543   2.385   1.342  2.5294  0.3408 -1.9891
  729SOL     OW 2185   1.730   0.836   2.312 -0.5890 -0.1298 -0.6344
  729SOL    HW1 2186   1.828   0.807   2.306 -1.5870 -2.5053  0.3353
  729SOL    HW2 2187   1.710   0.933   2.284 -0.4596  1.3017 -2.2135
  730SOL     OW 2188   1.169   0.575   0.904  0.7294  0.7136 -0.0118
  730SOL    HW1 2189   1.231   0.622   0.970  0.2567  0.3524 -2.2142
  730SOL    HW2 2190   1.128   0.498   0.959 -2.6554  1.6949 -2.1353
  731SOL     OW 2191   0.616   0.441   2.845 -0.0007 -0.2269 -0.2971
  731SOL    HW1 2192   0.663   0.526   2.881 -0.6421 -0.6425 -0.7505
  731SOL    HW2 2193   0.517   0.459   2.853 -0.2885 -0.1776 -2.2653
  732SOL     OW 2194   0.479   0.838   0.498 -0.1609 -0.1134  0.6354
  732SOL    HW1 2195   0.486   0.903   0.577  0.9850 -1.7702  3.0918
  732SOL    HW2 2196   0.511   0.745   0.524  0.4168  1.3495  1.0670
  733SOL     OW 2197   1.398   1.602   2.065  0.3309 -0.3493  0.5239
  733SOL    HW1 2198   1.297   1.585   2.080 -1.0606  1.7631  2.1795
  733SOL    HW2 2199   1.453   1.563   2.139  1.0721 -1.7131 -1.4725
  734SOL     OW 2200   0.039   2.426   2.938  0.5657  0.0113  0.2963
  734SOL    HW1 2201   0.002   2.507   2.986  1.6355 -0.0873 -1.0045
  734SOL    HW2 2202   0.136   2.438   2.914 -1.5520 -1.4073  0.2642
  735SOL     OW 2203   2.439   0.523   0.720  0.1564  0.4685  0.2879
  735SOL    HW1 2204   2.344   0.557   0.740  0.6013 -0.4035  2.9701
  735SOL    HW2 2205   2.447   0.508   0.621  0.7234  1.8854 -1.1273
  736SOL     OW 2206   2.048   1.576   2.372  0.0209  0.1870 -0.7660
  736SOL    HW1 2207   2.016   1.580   2.470  0.7417  0.0962 -1.4152
  736SOL    HW2 2208   2.069   1.667   2.336 -1.1022 -2.4661  2.2271
  737SOL     OW 2209   3.033   0.689   0.589  0.0678  0.2503 -0.3082
  737SOL    HW1 2210   2.963   0.696   0.517  0.5868  1.7590  2.5394
  737SOL    HW2 2211   0.042   0.681   0.539 -2.7288 -2.3451 -1.3275
  738SOL     OW 2212   0.776   2.102   1.512  0.2535  0.0786  0.2001
  738SOL    HW1 2213   0.805   2.156   1.592  0.3469 -0.2383 -2.1105
  738SOL    HW2 2214   0.676   2.103   1.497  1.1876  1.0075 -2.0636
  739SOL     OW 2215   1.384   2.843   2.135 -0.0786 -0.0537  0.2384
  739SOL    HW1 2216   1.338   2.793   2.065  0.7089  0.0289  1.5640
  739SOL    HW2 2217   1.365   2.943   2.131 -1.4283 -1.5004 -1.6581
  740SOL     OW 2218   1.850   2.403   1.234  0.6971  0.1533  0.2577
  740SOL    HW1 2219   1.756   2.410   1.267  2.1401 -0.5653 -1.6594
  740SOL    HW2 2220   1.913   2.461   1.289 -0.4016  1.5413 -0.3929
  741SOL     OW 2221   2.147   0.318   0.014  0.1035  0.1805 -0.9634
  741SOL    HW1 2222   2.143   0.417   0.041 -1.6516 -2.1746  1.9108
  741SOL    HW2 2223   2.173   0.254   0.087  0.2039 -1.8236  1.0478
  742SOL     OW 2224   1.049   2.519   0.023 -0.5055 -0.0453 -0.4088
  742SOL    HW1 2225   1.120   2.548   3.038 -3.1239 -1.1456  1.3884
  742SOL    HW2 2226   1.086   2.526   0.118 -1.3341  0.0219 -1.7511
  743SOL     OW 2227   2.452   1.157   2.020  0.1429  0.2913  0.5054
  743SOL    HW1 2228   2.537   1.212   2.028  1.3235 -3.3481  0.7992
  743SOL    HW2 2229   2.478   1.061   2.012  1.8593 -1.8153  2.3849
  744SOL     OW 2230   2.783   0.435   0.493  0.0990 -0.5238 -0.2070
  744SOL    HW1 2231   2.802   0.367   0.419 -0.5350 -0.3893  1.6677
  744SOL    HW2 2232   2.789   0.527   0.454  1.2175  1.1719  1.4517
  745SOL     OW 2233   2.400   1.192   1.436 -0.2678 -0.8466 -0.4014
  745SOL    HW1 2234   2.312   1.146   1.462  2.5930 -0.2388 -1.4732
  745SOL    HW2 2235   2.380   1.279   1.393 -0.1712 -2.1367 -1.5622
  746SOL     OW 2236   1.223   1.485   0.756  0.4327 -0.4942  0.0222
  746SOL    HW1 2237   1.282   1.556   0.796 -1.5185 -0.9944 -1.0617
  746SOL    HW2 2238   1.222   1.493   0.654 -1.3075 -0.1925  0.2945
  747SOL     OW 2239   1.054   1.525   1.255  0.2578 -0.3628 -0.1785
  747SOL    HW1 2240   0.999   1.575   1.323 -0.4479 -2.7417 -1.9144
  747SOL    HW2 2241   1.065   1.426   1.279 -1.3524 -3.1955  0.2587
  748SOL     OW 2242   0.345   2.816   3.045  0.6220  0.0625  0.2612
  748SOL    HW1 2243   0.419   2.875   3.001 -2.3416  0.1956 -2.8488
  748SOL    HW2 2244   0.373   2.718   3.059  0.2231  0.0373  0.0611
  749SOL     OW 2245   0.103   0.869   2.772  0.6532  0.1963  0.5348
  749SOL    HW1 2246   0.042   0.933   2.827  2.7876 -0.5017  0.7894
  749SOL    HW2 2247   0.098   0.898   2.672 -1.2067 -4.3530  0.1678
  750SOL     OW 2248   1.610   0.791   1.799  0.2538 -0.0133 -0.0631
  750SOL    HW1 2249   1.556   0.711   1.759 -0.8133 -2.3805 -1.6110
  750SOL    HW2 2250   1.643   0.766   1.890 -4.1783  0.2303 -3.1784
  751SOL     OW 2251   2.869   0.662   0.372  0.0109 -0.1213 -0.4188
  751SOL    HW1 2252   2.968   0.635   0.354  1.6131  0.4830 -0.6677
  751SOL    HW2 2253   2.820   0.684   0.281 -1.5484  0.4209  1.7384
  752SOL     OW 2254   2.593   2.863   1.125 -0.3122 -0.2236 -0.3137
  752SOL    HW1 2255   2.638   2.926   1.197 -0.5852  0.7113  1.0942
  752SOL    HW2 2256   2.572   2.912   1.037  2.9167  2.0844 -1.2968
  753SOL     OW 2257   0.859   2.229   1.282 -0.7149  0.3217 -0.2934
  753SOL    HW1 2258   0.962   2.249   1.300  4.0388  2.8803  0.6655
  753SOL    HW2 2259   0.821   2.175   1.356  1.6039  0.6028 -2.5105
  754SOL     OW 2260   3.061   2.674   2.091  0.0253 -0.1395  0.2170
  754SOL    HW1 2261   3.026   2.731   2.166 -0.7287  0.7054 -0.5877
  754SOL    HW2 2262   0.045   2.721   2.033 -0.3162 -1.6641 -0.6628
  755SOL     OW 2263   2.594   0.525   0.181 -0.0503  0.0167 -0.4550
  755SOL    HW1 2264   2.689   0.532   0.157 -1.7750  0.8626 -1.1402
  755SOL    HW2 2265   2.543   0.597   0.132 -1.3886  1.9569 -0.6156
  756SOL     OW 2266   2.261   2.349   2.869 -0.3992 -0.0512 -0.1261
  756SOL    HW1 2267   2.305   2.393   2.788  0.4298 -3.6893  1.6199
  756SOL    HW2 2268   2.308   2.366   2.956  0.5976 -0.9040  0.7644
  757SOL     OW 2269   2.455   0.555   0.445  0.1395 -0.4025 -0.3463
  757SOL    HW1 2270   2.517   0.521   0.374 -1.5618  0.2230  0.1346
  757SOL    HW2 2271   2.355   0.542   0.422  0.2920 -0.2736  1.0622
  758SOL     OW 2272   2.009   0.959   1.656 -0.4923 -0.1239  0.1847
  758SOL    HW1 2273   1.938   0.887   1.663 -0.1426  1.5342  1.2924
  758SOL    HW2 2274   2.100   0.928   1.691  4.1677 -0.0750  0.1982
  759SOL     OW 2275   2.646   0.559   1.194  0.0537 -0.8252  0.4175
  759SOL    HW1 2276   2.611   0.649   1.167  2.1263 -1.1236  1.5485
  759SOL    HW2 2277   2.689   0.513   1.116 -3.8716  0.6085  1.7004
  760SOL     OW 2278   0.188   1.490   1.342  0.1980 -0.2852  0.4867
  760SOL    HW1 2279   0.194   1.397   1.386  0.9197  1.1736  0.9021
  760SOL    HW2 2280   0.099   1.495   1.289 -0.4113 -1.5720 -0.2538
  761SOL     OW 2281   0.983   0.686   0.298 -0.9011 -0.3251  0.4624
  761SOL    HW1 2282   0.945   0.774   0.263  0.4119 -0.0911  0.3476
  761SOL    HW2 2283   1.080   0.669   0.270 -0.8278 -0.1434  1.2971
  762SOL     OW 2284   1.034   1.966   1.119  0.1741 -0.1008  0.0908
  762SOL    HW1 2285   0.938   1.973   1.090  0.7053 -0.4104  0.2988
  762SOL    HW2 2286   1.096   1.934   1.044  0.8330 -0.3378 -3.0140
  763SOL     OW 2287   1.165   0.603   1.324  0.1439 -0.0475  0.3586
  763SOL    HW1 2288   1.138   0.580   1.418  0.0535  2.5353 -1.0870
  763SOL    HW2 2289   1.110   0.679   1.286  0.0514 -0.5708 -0.0834
  764SOL     OW 2290   0.341   2.326   2.987  0.2797  0.0835 -0.2266
  764SOL    HW1 2291   0.281   2.249   3.023 -1.1646 -0.8776  0.6415
  764SOL    HW2 2292   0.363   2.316   2.887  1.3825 -0.6794  0.8722
  765SOL     OW 2293   0.638   2.780   1.675 -0.3186  0.1319 -0.2831
  765SOL    HW1 2294   0.576   2.763   1.755  2.4391  4.0620  0.2946
  765SOL    HW2 2295   0.590   2.845   1.615 -0.1944  0.4276 -0.4560
  766SOL     OW 2296   2.605   1.798   2.209  0.3755 -0.0837 -0.0580
  766SOL    HW1 2297   2.664   1.880   2.224 -1.9570  2.3767 -0.2109
  766SOL    HW2 2298   2.638   1.711   2.258  1.7747 -0.2294  2.6145
  767SOL     OW 2299   1.384   1.157   2.342  0.0547 -0.8046 -0.5474
  767SOL    HW1 2300   1.415   1.205   2.430 -1.1462  0.3634  2.0572
  767SOL    HW2 2301   1.321   1.223   2.295 -1.7206  1.2994 -0.1790
  768SOL     OW 2302   1.620   1.943   0.317  0.4051  0.3316 -0.4207
  768SOL    HW1 2303   1.611   1.936   0.422  2.9472  0.8433  2.4871
  768SOL    HW2 2304   1.720   1.955   0.289  1.2234 -1.3379 -0.6487
  769SOL     OW 2305   0.528   1.460   0.939 -0.0379 -0.5143 -0.4601
  769SOL    HW1 2306   0.468   1.500   1.014  0.5266  1.4658  1.7126
  769SOL    HW2 2307   0.628   1.447   0.965 -2.1963 -1.6024 -3.5082
  770SOL     OW 2308   1.239   0.884   2.347  0.8059  0.0642 -0.3613
  770SOL    HW1 2309   1.295   0.968   2.337  0.9399  0.1501  0.9146
  770SOL    HW2 2310   1.283   0.802   2.309  3.1624 -2.4531 -1.4998
  771SOL     OW 2311   2.908   3.022   2.308  0.0761  0.2360 -0.4898
  771SOL    HW1 2312   2.822   3.068   2.340 -2.9383  0.4666  0.2491
  771SOL    HW2 2313   2.914   2.917   2.327 -1.5335 -5.0060 -0.8901
  772SOL     OW 2314   2.107   1.823   2.292  0.1350  0.0528  0.3180
  772SOL    HW1 2315   2.029   1.829   2.225 -0.9296 -0.4177 -0.7838
  772SOL    HW2 2316   2.192   1.864   2.247 -0.1147  1.1281 -1.7483
  773SOL     OW 2317   0.526   1.446   1.310 -0.1715 -0.0791 -0.4744
  773SOL    HW1 2318   0.483   1.507   1.239  0.0723  0.8250 -3.1168
  773SOL    HW2 2319   0.567   1.364   1.262 -0.5356 -2.6656 -1.6225
  774SOL     OW 2320   1.338   0.699   2.803 -0.4840  0.3504  0.5863
  774SOL    HW1 2321   1.250   0.654   2.785  2.6330 -3.1072  1.4425
  774SOL    HW2 2322   1.363   0.672   2.897 -1.8845 -0.9525 -0.7300
  775SOL     OW 2323   1.611   2.699   0.119 -0.4108 -0.2384 -0.0935
  775SOL    HW1 2324   1.635   2.635   0.195  1.6136 -1.3496  0.0557
  775SOL    HW2 2325   1.551   2.649   0.051 -2.0469 -0.5153 -0.9434
  776SOL     OW 2326   0.091   0.983   1.655  0.2679  0.4899 -0.2529
  776SOL    HW1 2327   0.087   0.888   1.692 -1.8149 -1.0173  2.4431
  776SOL    HW2 2328   0.169   0.995   1.592 -1.1637 -0.2314  0.1786
  777SOL     OW 2329   2.340   1.862   2.171  0.0601  0.5551 -0.1087
  777SOL    HW1 2330   2.433   1.830   2.193 -3.6526 -0.4528 -1.2997
  777SOL    HW2 2331   2.336   1.884   2.073  1.0829 -0.4707  0.3880
  778SOL     OW 2332   1.658   1.088   2.269 -0.9401 -0.7909  0.4478
  778SOL    HW1 2333   1.562   1.127   2.278 -1.6883 -0.2533 -1.0948
  778SOL    HW2 2334   1.710   1.137   2.196 -2.1955  1.5437  2.0827
  779SOL     OW 2335   2.906   0.922   0.034 -0.2993  0.3426  0.2776
  779SOL    HW1 2336   2.908   0.827   0.069 -2.4467  3.8943 -1.9221
  779SOL    HW2 2337   2.811   0.945   0.000 -0.2537  0.3440  2.0292
  780SOL     OW 2338   2.253   0.014   2.670  0.6053 -0.0890 -0.0197
  780SOL    HW1 2339   2.154   0.041   2.687 -3.1757  3.8121 -1.2828
  780SOL    HW2 2340   2.310   0.098   2.647  1.2748  1.4709  0.2903
  781SOL     OW 2341   3.079   1.836   1.614 -0.4764  0.2066  0.5487
  781SOL    HW1 2342   0.062   1.896   1.675  1.2477  1.4704  2.1868
  781SOL    HW2 2343   0.053   1.758   1.575 -0.0785 -1.4342 -2.9353
  782SOL     OW 2344   2.615   2.008   2.691  0.5279  0.2707 -0.1011
  782SOL    HW1 2345   2.702   2.059   2.695  1.1868 -0.9338  0.7714
  782SOL    HW2 2346   2.536   2.059   2.733 -2.2363  0.9231 -0.6131
  783SOL     OW 2347   0.781   1.430   1.029  0.2776 -0.2670  0.1157
  783SOL    HW1 2348   0.811   1.347   1.079 -3.4904  2.1917 -0.9982
  783SOL    HW2 2349   0.866   1.480   0.995 -0.6580  0.5305  2.7462
  784SOL     OW 2350   2.621   0.984   0.015 -0.6874  0.1125 -0.1310
  784SOL    HW1 2351   2.563   1.063   3.073 -0.6391  1.0920 -0.0375
  784SOL    HW2 2352   2.634   0.983   0.117 -0.6912  0.5013 -1.1499
  785SOL     OW 2353   2.097   2.383   0.812  0.2703 -0.4376 -0.1967
  785SOL    HW1 2354   2.018   2.443   0.807  0.5429 -1.2346 -2.6147
  785SOL    HW2 2355   2.158   2.401   0.733  1.2257  2.4690  1.4911
  786SOL     OW 2356   0.422   2.170   2.708  0.0662  0.1125  0.1636
  786SOL    HW1 2357   0.496   2.147   2.637  2.1314  0.3225 -1.3712
  786SOL    HW2 2358   0.357   2.092   2.724  2.4209  0.2019 -0.8615
  787SOL     OW 2359   1.398   0.508   1.367 -0.8051  0.6148  0.2885
  787SOL    HW1 2360   1.308   0.548   1.345  1.9675  1.5097  2.1662
  787SOL    HW2 2361   1.471   0.582   1.358  1.9159  0.2473 -0.4741
  788SOL     OW 2362   0.438   0.810   0.231  0.1351  0.0130  0.2700
  788SOL    HW1 2363   0.442   0.830   0.334 -2.4136 -1.1457  0.0444
  788SOL    HW2 2364   0.346   0.830   0.192 -1.7580 -1.2898  1.5562
  789SOL     OW 2365   0.008   2.043   1.291 -0.0286  0.4493  0.0130
  789SOL    HW1 2366   0.072   1.961   1.300  2.1056 -0.5233  0.4564
  789SOL    HW2 2367   3.009   2.025   1.229 -2.0603 -2.5529 -0.9950
  790SOL     OW 2368   1.407   0.421   1.918 -0.2187 -0.1288 -0.2837
  790SOL    HW1 2369   1.417   0.512   1.959 -0.3237  1.4943 -1.0708
  790SOL    HW2 2370   1.310   0.400   1.909  1.5096  0.5684 -0.9515
  791SOL     OW 2371   1.236   0.721   0.220  1.0529 -0.6625  0.3286
  791SOL    HW1 2372   1.277   0.681   0.140 -0.1271  0.0005  0.8805
  791SOL    HW2 2373   1.302   0.696   0.294  2.5797 -0.4826  0.5791
  792SOL     OW 2374   1.341   3.005   1.692 -0.1555 -0.3906  0.1351
  792SOL    HW1 2375   1.265   2.946   1.725 -2.0169 -0.3984  0.6112
  792SOL    HW2 2376   1.431   2.996   1.735 -0.3750  1.7958  1.1967
  793SOL     OW 2377   0.682   0.032   0.711  0.2269  0.0453  0.4802
  793SOL    HW1 2378   0.629   0.106   0.761 -2.2921  1.7939  2.2797
  793SOL    HW2 2379   0.629   3.069   0.639 -0.0348 -1.0635  1.9653
  794SOL     OW 2380   0.477   1.378   2.155 -0.2075  1.3681 -0.2702
  794SOL    HW1 2381   0.543   1.323   2.100  0.4285 -2.5526  2.6772
  794SOL    HW2 2382   0.501   1.363   2.256  2.3311 -0.1454 -0.3706
  795SOL     OW 2383   2.996   1.691   2.421 -0.3495  0.3245 -0.4441
  795SOL    HW1 2384   3.035   1.622   2.355  1.1934 -1.6457 -0.2030
  795SOL    HW2 2385   2.936   1.642   2.491  2.7294 -2.1578  1.1516
  796SOL     OW 2386   1.816   1.222   2.076  0.2260 -0.3516  0.4751
  796SOL    HW1 2387   1.842   1.191   1.980  0.7151 -1.0007  0.7460
  796SOL    HW2 2388   1.898   1.230   2.135  1.3410  0.7299  0.2843
  797SOL     OW 2389   3.063   3.079   2.628 -0.0698 -0.3770 -0.2295
  797SOL    HW1 2390   0.064   3.022   2.605  0.7991  0.4357 -2.0892
  797SOL    HW2 2391   2.991   3.005   2.624  0.7714 -2.4353  0.4579
  798SOL     OW 2392   0.003   2.122   2.239 -0.0410 -0.2234 -0.1600
  798SOL    HW1 2393   0.021   2.118   2.142 -1.1964 -2.3370  1.7652
  798SOL    HW2 2394   0.099   2.140   2.282  1.0957 -0.5404  0.3866
  799SOL     OW 2395   2.828   2.000   2.975 -0.3793  0.5410 -0.1149
  799SOL    HW1 2396   2.826   2.104   2.983 -2.4703  0.9050 -1.6395
  799SOL    HW2 2397   2.913   1.973   2.922  1.8865  0.4441 -1.7353
  800SOL     OW 2398   1.294   1.716   0.927  0.5251  0.2008 -0.1227
  800SOL    HW1 2399   1.346   1.794   0.887  0.2534  0.9748  1.3853
  800SOL    HW2 2400   1.351   1.680   0.998 -1.2575 -2.0940 -2.1807
  801SOL     OW 2401   2.166   0.639   0.735  0.1447 -0.3093  0.1353
  801SOL    HW1 2402   2.076   0.612   0.689  1.9920 -1.0324  0.9612
  801SOL    HW2 2403   2.157   0.632   0.837 -1.1949 -0.1874 -0.0750
  802SOL     OW 2404   2.608   1.489   0.437 -0.2627  0.5087  0.4011
  802SOL    HW1 2405   2.582   1.425   0.365  0.9872 -0.8956  2.7564
  802SOL    HW2 2406   2.656   1.572   0.400  0.5071 -0.9984  0.1697
  803SOL     OW 2407   1.365   1.878   2.892 -0.0023  0.2807  0.1793
  803SOL    HW1 2408   1.455   1.924   2.873  2.5207 -1.8923  0.4736
  803SOL    HW2 2409   1.309   1.931   2.960 -0.1406  2.0726 -1.6835
  804SOL     OW 2410   1.888   1.985   0.238  0.0713  0.2933 -0.2439
  804SOL    HW1 2411   1.961   1.970   0.303 -0.9536  1.4546  0.0549
  804SOL    HW2 2412   1.901   1.932   0.146  1.5196  1.5987 -2.3636
  805SOL     OW 2413   2.194   1.556   0.049  0.0350 -0.3541  1.0951
  805SOL    HW1 2414   2.213   1.636   3.071  1.2142 -1.4009 -0.2252
  805SOL    HW2 2415   2.262   1.553   0.125 -0.4259 -0.8845 -2.2965
  806SOL     OW 2416   0.692   0.329   0.452 -0.5431 -0.5314  0.4003
  806SOL    HW1 2417   0.710   0.398   0.378 -0.5432  2.2346 -3.1488
  806SOL    HW2 2418   0.773   0.304   0.503 -1.3243 -0.7852 -3.8397
  807SOL     OW 2419   2.186   1.349   2.772 -0.8064 -0.0388  0.2503
  807SOL    HW1 2420   2.198   1.351   2.875  2.8018 -2.4688 -0.5543
  807SOL    HW2 2421   2.095   1.309   2.752 -0.4468  1.6824  1.3697
  808SOL     OW 2422   0.140   1.500   0.382  0.0066  0.0990 -0.2502
  808SOL    HW1 2423   0.209   1.434   0.346  0.1566  0.1049 -1.3587
  808SOL    HW2 2424   0.080   1.438   0.440 -0.6543 -0.7520 -0.6560
  809SOL     OW 2425   2.504   0.734   2.343 -0.0766  0.2175  0.0120
  809SOL    HW1 2426   2.481   0.654   2.403 -0.7528 -5.0891  1.7799
  809SOL    HW2 2427   2.521   0.815   2.406  3.1484  0.8361  1.5577
  810SOL     OW 2428   1.025   1.187   0.168 -0.2518  0.5069 -0.0008
  810SOL    HW1 2429   1.102   1.183   0.096  1.8786  0.0346 -3.8138
  810SOL    HW2 2430   0.974   1.098   0.164  0.0481 -0.1418  1.6169
  811SOL     OW 2431   1.336   2.602   1.065  0.0305 -0.2026  0.2447
  811SOL    HW1 2432   1.242   2.584   1.028 -2.5007 -2.1346  2.0491
  811SOL    HW2 2433   1.407   2.542   1.023  0.6891  1.4668 -3.9275
  812SOL     OW 2434   0.346   2.477   1.614  0.4619 -0.0924 -0.0127
  812SOL    HW1 2435   0.403   2.486   1.530 -1.1696 -1.1021  1.4006
  812SOL    HW2 2436   0.375   2.539   1.688 -0.1254 -3.7945 -1.1115
  813SOL     OW 2437   1.156   0.332   1.940  0.2967  0.6457 -0.4747
  813SOL    HW1 2438   1.112   0.241   1.944  0.3438  3.5898  0.1846
  813SOL    HW2 2439   1.111   0.391   2.009  3.9654 -1.2275 -0.6822
  814SOL     OW 2440   1.401   2.988   2.678  0.3984  0.3403  0.3371
  814SOL    HW1 2441   1.481   2.958   2.729 -1.9263 -0.6023  0.3791
  814SOL    HW2 2442   1.425   3.052   2.606 -0.1897 -2.1921  2.2476
  815SOL     OW 2443   0.448   0.329   1.791 -0.6801 -0.6016  0.0270
  815SOL    HW1 2444   0.361   0.380   1.766  0.1997 -0.3556  3.0009
  815SOL    HW2 2445   0.494   0.382   1.867  1.2007 -0.9414  1.0911
  816SOL     OW 2446   2.259   0.375   2.832  0.2652 -0.2664 -0.1109
  816SOL    HW1 2447   2.344   0.437   2.849  3.7765  0.9729 -0.3240
  816SOL    HW2 2448   2.214   0.357   2.920 -0.7827  0.3094 -2.0882
  817SOL     OW 2449   2.022   0.171   2.567 -0.4273 -0.3515  0.2453
  817SOL    HW1 2450   1.961   0.185   2.490  3.5360  2.7815 -0.6734
  817SOL    HW2 2451   2.001   0.230   2.652  0.8281 -0.2610  1.0024
  818SOL     OW 2452   2.151   0.126   0.209 -0.2008  0.2874 -0.1357
  818SOL    HW1 2453   2.060   0.085   0.209  0.7253  0.9053 -1.4392
  818SOL    HW2 2454   2.178   0.162   0.300 -0.4407  0.7806 -1.6982
  819SOL     OW 2455   2.185   1.828   2.989 -0.1498  0.1255  0.1106
  819SOL    HW1 2456   2.225   1.877   3.070  0.8156 -2.1407  0.5439
  819SOL    HW2 2457   2.254   1.828   2.915  0.1163 -1.6140 -0.4481
  820SOL     OW 2458   0.273   1.748   0.383  0.5810  0.5503  0.1054
  820SOL    HW1 2459   0.365   1.736   0.422  1.6590  0.5611 -1.5400
  820SOL    HW2 2460   0.232   1.653   0.375  0.5144 -2.0757 -0.7155
  821SOL     OW 2461   3.077   2.685   1.170  0.5012 -0.0257 -0.2744
  821SOL    HW1 2462   0.096   2.681   1.199 -2.4353  1.5840 -0.7679
  821SOL    HW2 2463   3.022   2.626   1.231 -0.1935 -0.6538 -0.5240
  822SOL     OW 2464   2.569   2.510   2.684 -1.1109 -0.0003 -0.1611
  822SOL    HW1 2465   2.467   2.508   2.679  2.4236 -1.2251  0.8950
  822SOL    HW2 2466   2.606   2.466   2.604 -1.5560 -0.6476  0.8294
  823SOL     OW 2467   1.699   0.144   2.622 -0.4938  0.1376  0.0933
  823SOL    HW1 2468   1.641   0.205   2.679 -1.1298  1.6896 -0.8946
  823SOL    HW2 2469   1.637   0.089   2.561  0.7952 -0.5237 -0.3959
  824SOL     OW 2470   2.734   1.695   1.536 -0.1085  0.2037  0.0604
  824SOL    HW1 2471   2.665   1.731   1.608 -1.8851  1.8799  1.2313
  824SOL    HW2 2472   2.787   1.775   1.494 -0.6481  2.0535 -1.1923
  825SOL     OW 2473   2.576   1.811   2.524  0.8777 -0.4748 -0.3560
  825SOL    HW1 2474   2.565   1.900   2.578  0.7548  0.8930  0.8479
  825SOL    HW2 2475   2.672   1.799   2.496 -1.7847 -0.8003  0.9039
  826SOL     OW 2476   2.224   1.213   2.217 -0.0840 -0.2928 -0.6482
  826SOL    HW1 2477   2.274   1.193   2.129  1.3072 -3.1666 -1.2325
  826SOL    HW2 2478   2.277   1.287   2.262 -0.8409 -0.4818  1.9654
  827SOL     OW 2479   2.141   2.362   1.603  0.1784 -0.0270  0.0014
  827SOL    HW1 2480   2.233   2.379   1.639 -1.2790 -2.7940  0.2308
  827SOL    HW2 2481   2.137   2.270   1.562 -0.4304  3.4065  2.3527
  828SOL     OW 2482   2.678   2.735   1.468 -0.0108 -0.8394  0.3592
  828SOL    HW1 2483   2.694   2.826   1.423  1.7699 -0.7132 -1.7649
  828SOL    HW2 2484   2.587   2.700   1.449  0.7887  0.8129 -0.6006
  829SOL     OW 2485   1.356   2.243   2.499  0.3047  0.6140 -0.2744
  829SOL    HW1 2486   1.430   2.223   2.563 -0.7497  1.2722 -0.1549
  829SOL    HW2 2487   1.367   2.180   2.418  1.3389 -1.1561 -0.7800
  830SOL     OW 2488   1.465   0.421   0.719 -0.0388  0.1410 -0.8678
  830SOL    HW1 2489   1.390   0.449   0.660  2.7715 -0.1167 -3.1623
  830SOL    HW2 2490   1.463   0.322   0.734 -1.1730  1.5593  0.6490
  831SOL     OW 2491   2.571   1.247   0.237 -0.4412 -0.5257 -0.6134
  831SOL    HW1 2492   2.547   1.266   0.142 -1.2331  0.3946  1.6830
  831SOL    HW2 2493   2.667   1.269   0.252 -2.2444 -0.2479 -1.0886
  832SOL     OW 2494   1.442   2.062   1.916  0.1479  0.0529 -0.3405
  832SOL    HW1 2495   1.493   1.977   1.895 -1.3092  1.0228 -2.9760
  832SOL    HW2 2496   1.504   2.138   1.950  2.4517  1.6674  2.7759
  833SOL     OW 2497   2.908   2.743   2.329  0.0532 -0.1509 -0.1304
  833SOL    HW1 2498   2.952   2.669   2.384  0.9070  0.2987 -0.2897
  833SOL    HW2 2499   2.816   2.718   2.299  2.1222 -1.5093 -0.3151
  834SOL     OW 2500   0.928   0.931   1.512  0.4852 -0.0657  0.4963
  834SOL    HW1 2501   0.831   0.961   1.532  0.3713  0.2022  2.4559
  834SOL    HW2 2502   0.940   0.893   1.415 -0.9357  1.0278  0.1176
  835SOL     OW 2503   2.832   0.796   2.513 -0.1035  0.4236  0.4459
  835SOL    HW1 2504   2.887   0.761   2.438 -3.5880  0.6859 -0.1095
  835SOL    HW2 2505   2.746   0.835   2.484  0.3621 -4.1902  0.4470
  836SOL     OW 2506   1.249   2.147   1.187  0.1395  0.3987 -0.4921
  836SOL    HW1 2507   1.255   2.212   1.269  0.7299  0.1152  1.0787
  836SOL    HW2 2508   1.166   2.095   1.203  1.7263  3.4237 -2.4989
  837SOL     OW 2509   1.966   0.941   1.070  0.0382 -0.1218  0.3273
  837SOL    HW1 2510   2.050   0.935   1.124 -1.0941  1.0219 -1.3444
  837SOL    HW2 2511   1.882   0.928   1.129  1.2504  2.2756  0.6241
  838SOL     OW 2512   1.144   1.890   2.486 -0.2006 -0.0799 -0.6624
  838SOL    HW1 2513   1.084   1.838   2.419 -0.7212  0.6690  0.0374
  838SOL    HW2 2514   1.185   1.828   2.555 -0.4927  0.2488 -1.3007
  839SOL     OW 2515   0.582   2.196   2.912  0.0369 -0.3425  0.8494
  839SOL    HW1 2516   0.518   2.180   2.836 -0.0736 -0.3676 -0.5693
  839SOL    HW2 2517   0.568   2.283   2.960 -0.9009  3.4187 -0.7445
  840SOL     OW 2518   0.433   2.559   0.010  0.6131 -0.4356 -0.1896
  840SOL    HW1 2519   0.399   2.476   3.044 -0.6459  0.3430 -0.1466
  840SOL    HW2 2520   0.501   2.541   0.080 -3.3354  2.1375  0.8560
  841SOL     OW 2521   1.862   2.392   0.078 -0.4754 -0.4742  0.5239
  841SOL    HW1 2522   1.906   2.345   0.001  0.5467  2.7430 -0.4607
  841SOL    HW2 2523   1.929   2.458   0.119  2.6691 -1.0918 -1.0433
  842SOL     OW 2524   0.966   0.750   2.797 -0.1569 -0.2837 -0.0453
  842SOL    HW1 2525   0.996   0.827   2.862  2.2253  3.5278  3.5670
  842SOL    HW2 2526   0.940   0.785   2.708  2.2193  0.6294  1.3198
  843SOL     OW 2527   1.202   2.902   0.677 -0.0839 -0.2978 -0.8563
  843SOL    HW1 2528   1.135   2.920   0.602  0.0754  0.0200 -2.2994
  843SOL    HW2 2529   1.180   2.948   0.766  3.2165 -0.1749 -0.4048
  844SOL     OW 2530   2.363   2.862   2.554 -0.2467 -0.1481 -0.3393
  844SOL    HW1 2531   2.330   2.954   2.574  0.8393 -1.7172 -2.4770
  844SOL    HW2 2532   2.321   2.794   2.618 -0.9569  1.0813 -1.0744
  845SOL     OW 2533   2.691   2.463   1.288  0.7709  0.3459  0.2870
  845SOL    HW1 2534   2.615   2.449   1.357 -1.1991  1.2498 -1.4313
  845SOL    HW2 2535   2.646   2.493   1.200  0.8745  2.8215  0.4581
  846SOL     OW 2536   2.973   1.970   2.412  0.3467  0.6481  0.0014
  846SOL    HW1 2537   3.024   2.021   2.341 -0.1281  0.1223  0.9047
  846SOL    HW2 2538   3.003   1.873   2.424 -0.5418 -0.5458 -0.6114
  847SOL     OW 2539   1.456   0.320   1.547  0.1168  0.5401 -0.0149
  847SOL    HW1 2540   1.428   0.372   1.466  0.6191  2.0564  1.7516
  847SOL    HW2 2541   1.378   0.263   1.580  0.8784 -0.6200  0.7307
  848SOL     OW 2542   2.918   0.356   0.086 -0.3012  0.3786 -0.1280
  848SOL    HW1 2543   2.860   0.343   0.003 -1.5194 -0.0743  2.3681
  848SOL    HW2 2544   3.015   0.320   0.076  3.5255  0.2155 -0.8985
  849SOL     OW 2545   0.627   0.191   2.959 -0.0246 -0.0433  0.1071
  849SOL    HW1 2546   0.620   0.274   2.898 -2.2234 -1.2342  1.2777
  849SOL    HW2 2547   0.565   0.200   3.040  2.0331  0.8557  0.0177
  850SOL     OW 2548   0.592   2.533   0.946  0.3441  0.4164 -0.1651
  850SOL    HW1 2549   0.627   2.460   0.888 -1.2959  0.3363  1.5775
  850SOL    HW2 2550   0.495   2.514   0.974  0.2678 -0.6010  2.1022
  851SOL     OW 2551   2.396   0.114   2.208 -0.3627 -0.6423 -0.1522
  851SOL    HW1 2552   2.423   0.180   2.134 -1.9107  2.4637 -1.8563
  851SOL    HW2 2553   2.331   0.160   2.277 -1.5349  1.6059  2.2613
  852SOL     OW 2554   1.681   1.423   1.945  0.1123 -0.1165  0.1683
  852SOL    HW1 2555   1.592   1.467   1.959 -1.0505 -1.1062 -1.2258
  852SOL    HW2 2556   1.710   1.348   2.013  1.8916 -1.8667 -1.1578
  853SOL     OW 2557   2.668   2.596   0.586 -0.2301  0.1772  0.1110
  853SOL    HW1 2558   2.721   2.510   0.584 -1.0739  1.1517 -0.8920
  853SOL    HW2 2559   2.728   2.679   0.592  0.7647 -0.8576  0.2113
  854SOL     OW 2560   2.445   0.369   0.987 -0.1485 -0.2002  0.1013
  854SOL    HW1 2561   2.440   0.417   0.898  1.8296  0.2340  0.8782
  854SOL    HW2 2562   2.388   0.413   1.054  0.8903 -1.4722 -2.7869
  855SOL     OW 2563   1.319   2.170   0.724  0.0958  0.1406 -0.5004
  855SOL    HW1 2564   1.315   2.140   0.628 -0.1840  2.9314 -1.3418
  855SOL    HW2 2565   1.326   2.275   0.727  1.2838  1.7494  0.8327
  856SOL     OW 2566   2.825   0.580   2.918 -0.2782  0.2791 -0.0221
  856SOL    HW1 2567   2.925   0.596   2.894  3.0510 -2.0608  1.5749
  856SOL    HW2 2568   2.803   0.486   2.898 -1.3589 -0.6237  1.0810
  857SOL     OW 2569   1.636   2.944   1.826  0.0958 -0.2488  0.8265
  857SOL    HW1 2570   1.669   2.852   1.859  0.5078  0.4653 -0.5501
  857SOL    HW2 2571   1.653   3.020   1.900  2.8193  1.2270  2.1457
  858SOL     OW 2572   2.584   2.118   1.513  0.3369  0.5222 -0.0493
  858SOL    HW1 2573   2.669   2.138   1.463 -2.5362  0.2559  0.2229
  858SOL    HW2 2574   2.566   2.017   1.502 -1.2183  3.0475 -1.9008
  859SOL     OW 2575   1.504   2.158   1.081  0.5315 -0.4925  0.0290
  859SOL    HW1 2576   1.412   2.139   1.124  0.5235 -3.2028 -0.2206
  859SOL    HW2 2577   1.577   2.174   1.155  2.9586  3.9461  2.5320
  860SOL     OW 2578   2.381   2.433   0.036  0.4716 -0.5304 -0.3128
  860SOL    HW1 2579   2.358   2.529   0.060  0.4678  0.7861 -0.6178
  860SOL    HW2 2580   2.423   2.388   0.118  1.2082 -0.0070 -0.7651
  861SOL     OW 2581   1.503   2.407   0.958 -0.1458 -0.7101 -0.2615
  861SOL    HW1 2582   1.490   2.307   0.986  0.6526  0.2539 -2.1989
  861SOL    HW2 2583   1.594   2.442   0.989 -0.3413  0.0835 -0.2463
  862SOL     OW 2584   1.975   2.920   2.570  0.2990  0.0652 -0.3002
  862SOL    HW1 2585   2.065   2.972   2.553  0.7740  0.7730  2.2036
  862SOL    HW2 2586   1.918   2.970   2.640 -0.2940  0.8410  1.4585
  863SOL     OW 2587   0.231   0.463   0.570  0.1138 -0.0556 -0.1353
  863SOL    HW1 2588   0.309   0.402   0.567  1.4803  3.1685 -1.5553
  863SOL    HW2 2589   0.153   0.427   0.623  0.0446  0.1428 -1.7679
  864SOL     OW 2590   2.531   2.579   1.846  0.2351 -0.1291 -0.1120
  864SOL    HW1 2591   2.499   2.493   1.806 -1.2602  0.7843  2.6910
  864SOL    HW2 2592   2.456   2.638   1.885 -0.3826  0.8221  3.8274
  865SOL     OW 2593   3.022   1.939   2.789  0.1470  0.6978  0.2919
  865SOL    HW1 2594   3.017   1.888   2.700  0.4499  0.9816  0.3043
  865SOL    HW2 2595   3.045   2.036   2.775  0.9915 -1.8314 -1.7685
  866SOL     OW 2596   2.488   0.508   2.887 -0.2298  0.0846 -0.0805
  866SOL    HW1 2597   2.553   0.460   2.820 -1.8173 -1.7206  1.4405
  866SOL    HW2 2598   2.504   0.610   2.895  0.8757 -0.8368 -0.9025
  867SOL     OW 2599   0.503   2.966   2.884  0.3272  0.8935  0.0781
  867SOL    HW1 2600   0.599   2.983   2.901 -0.7894  0.2408  0.5701
  867SOL    HW2 2601   0.457   3.049   2.851 -0.2553 -0.0921 -0.3445
  868SOL     OW 2602   1.310   2.439   0.738 -0.3443 -0.4329 -0.2152
  868SOL    HW1 2603   1.354   2.458   0.829  0.3287 -0.8752 -0.5320
  868SOL    HW2 2604   1.229   2.499   0.721  1.1986 -2.3866 -1.0345
  869SOL     OW 2605   1.394   1.229   1.269 -0.0658 -0.1202  0.0421
  869SOL    HW1 2606   1.486   1.220   1.216  1.1485 -0.0540  0.5390
  869SOL    HW2 2607   1.410   1.268   1.360  3.4486  0.0901 -0.2464
  870SOL     OW 2608   1.807   1.867   1.174 -0.3627  0.0966 -0.0103
  870SOL    HW1 2609   1.870   1.946   1.190  4.2611  1.3161  1.0672
  870SOL    HW2 2610   1.803   1.811   1.258 -1.9441  1.1956 -1.1378
  871SOL     OW 2611   1.325   1.606   1.320 -0.7983 -0.1282 -0.1745
  871SOL    HW1 2612   1.235   1.611   1.271  0.5037 -0.8168 -0.0299
  871SOL    HW2 2613   1.401   1.639   1.258  1.8705  2.4179  2.3006
  872SOL     OW 2614   1.318   0.970   0.996  0.3213  0.1394  0.0011
  872SOL    HW1 2615   1.322   1.021   1.084  0.7278  1.0132  2.8576
  872SOL    HW2 2616   1.393   1.001   0.933  0.3821 -0.9724 -1.5534
  873SOL     OW 2617   1.047   0.999   2.185 -0.1860 -0.4687  0.1603
  873SOL    HW1 2618   0.963   1.007   2.238  0.9873  1.4132 -0.8484
  873SOL    HW2 2619   1.131   0.974   2.244 -1.4802 -0.3407  0.9679
  874SOL     OW 2620   0.423   1.067   1.214 -0.1984  0.7289  0.3177
  874SOL    HW1 2621   0.326   1.076   1.251  0.7686 -3.6930 -0.0992
  874SOL    HW2 2622   0.425   1.105   1.122 -4.1009  0.7852  0.1488
  875SOL     OW 2623   2.613   2.887   0.349 -0.2539 -0.2085  0.3419
  875SOL    HW1 2624   2.574   2.960   0.408 -2.8644  0.1463  1.2396
  875SOL    HW2 2625   2.596   2.911   0.254  0.0059 -0.6323  2.6679
  876SOL     OW 2626   1.263   0.305   2.768  0.3608  0.2900  0.2241
  876SOL    HW1 2627   1.243   0.237   2.843 -0.3461 -0.4295 -1.8769
  876SOL    HW2 2628   1.202   0.389   2.776 -1.8162 -1.8903  1.5714
  877SOL     OW 2629   2.974   3.067   1.360 -0.2695 -0.3186  0.1784
  877SOL    HW1 2630   3.012   3.060   1.455  2.8544 -0.5146 -0.7120
  877SOL    HW2 2631   3.041   3.029   1.289  1.0102  0.6163 -0.6709
  878SOL     OW 2632   1.871   2.575   2.938 -0.3489  0.0134  0.5316
  878SOL    HW1 2633   1.860   2.637   3.014 -1.8409  1.6358  1.1662
  878SOL    HW2 2634   1.903   2.627   2.852 -0.3285  4.0796  1.0678
  879SOL     OW 2635   2.344   1.821   1.702  0.1125  0.2494  0.1931
  879SOL    HW1 2636   2.386   1.857   1.616 -1.9365  0.3411 -0.4098
  879SOL    HW2 2637   2.254   1.784   1.682 -0.5735 -2.1176 -0.7065
  880SOL     OW 2638   0.814   0.947   1.083 -0.3638  0.2057  0.4664
  880SOL    HW1 2639   0.738   0.897   1.128 -0.1446  2.4181 -1.5387
  880SOL    HW2 2640   0.810   0.947   0.983 -2.4309  0.7510 -0.6993
  881SOL     OW 2641   1.095   1.792   0.044  1.0482  0.0644 -0.0254
  881SOL    HW1 2642   1.164   1.871   0.049  0.0976  1.0315 -1.4673
  881SOL    HW2 2643   1.129   1.706   0.087  0.3581 -1.3899 -3.9955
  882SOL     OW 2644   1.818   0.303   0.906 -0.3120 -0.0171 -0.7150
  882SOL    HW1 2645   1.772   0.379   0.957  0.0302  2.4383  0.4755
  882SOL    HW2 2646   1.905   0.272   0.942  0.9062 -0.2687 -1.5575
  883SOL     OW 2647   1.852   0.521   2.430  0.2467 -0.7302 -0.3182
  883SOL    HW1 2648   1.758   0.527   2.474 -0.5342 -0.9405  0.0149
  883SOL    HW2 2649   1.886   0.603   2.381 -0.8438  0.4362 -1.4056
  884SOL     OW 2650   2.867   0.627   0.101  0.2491 -0.2835  0.2456
  884SOL    HW1 2651   2.919   0.539   0.119  2.3387  2.3040  0.7799
  884SOL    HW2 2652   2.837   0.638   0.001  3.5597 -2.9514 -2.1411
  885SOL     OW 2653   0.997   1.979   0.822 -0.4916 -0.4677  0.7406
  885SOL    HW1 2654   1.038   2.072   0.829 -0.7206 -3.2465  2.2739
  885SOL    HW2 2655   0.908   1.977   0.872  2.2234  2.0394 -1.2898
  886SOL     OW 2656   1.478   1.416   2.896 -0.2228 -0.3696 -0.0013
  886SOL    HW1 2657   1.484   1.325   2.938 -1.7694 -0.4403 -2.0700
  886SOL    HW2 2658   1.416   1.474   2.950 -1.0642 -2.1088 -1.2342
  887SOL     OW 2659   1.723   0.301   1.554 -0.7279  0.2992  0.7562
  887SOL    HW1 2660   1.743   0.216   1.599  1.0937  2.1098 -1.7644
  887SOL    HW2 2661   1.622   0.309   1.528  0.7035  0.8339  0.9630
  888SOL     OW 2662   2.884   1.486   1.578  0.4754  0.4096  0.3326
  888SOL    HW1 2663   2.888   1.429   1.489  3.5076 -0.9504  0.4121
  888SOL    HW2 2664   2.837   1.572   1.562 -0.1543 -1.3859 -0.3766
  889SOL     OW 2665   2.990   2.407   0.843  0.1579 -0.1740 -0.3299
  889SOL    HW1 2666   3.044   2.455   0.769 -1.0256 -1.7517  0.5355
  889SOL    HW2 2667   2.946   2.480   0.906 -1.1241  0.4735  0.9115
  890SOL     OW 2668   0.228   1.939   2.397 -0.0811  0.0208  0.3487
  890SOL    HW1 2669   0.184   1.877   2.327  0.2840  0.0184 -1.5130
  890SOL    HW2 2670   0.231   2.035   2.360 -0.1461 -2.0744 -0.2671
  891SOL     OW 2671   0.888   1.842   0.506 -0.1290  0.6365  0.0982
  891SOL    HW1 2672   0.936   1.917   0.559 -0.8977  1.3187 -0.1513
  891SOL    HW2 2673   0.945   1.759   0.505 -1.5269  0.5699  0.1814
  892SOL     OW 2674   0.028   2.286   1.421 -0.1764 -0.5118  0.3526
  892SOL    HW1 2675   3.045   2.362   1.394 -0.5609 -1.1085 -0.3755
  892SOL    HW2 2676   3.078   2.200   1.383  2.9439  2.2662  1.3174
  893SOL     OW 2677   3.063   3.074   1.634  0.2210 -0.0109  0.1070
  893SOL    HW1 2678   3.031   0.036   1.722  3.7500 -0.4027  2.3793
  893SOL    HW2 2679   0.069   3.026   1.656  2.3976 -1.8890 -0.0182
  894SOL     OW 2680   2.676   1.868   0.641 -0.1610  0.1702 -0.3993
  894SOL    HW1 2681   2.743   1.799   0.680  0.7792  2.2381  2.7342
  894SOL    HW2 2682   2.689   1.887   0.544  2.1715 -0.7171  1.2908
  895SOL     OW 2683   1.697   2.475   1.601 -0.2881  0.0620 -0.1336
  895SOL    HW1 2684   1.791   2.511   1.618  2.5265 -0.1278 -0.3483
  895SOL    HW2 2685   1.672   2.488   1.502 -1.2426  0.1570 -1.9871
  896SOL     OW 2686   0.370   0.092   1.437 -0.3195  0.1441  0.1268
  896SOL    HW1 2687   0.325   0.069   1.348  0.4353  2.0176  2.5150
  896SOL    HW2 2688   0.424   0.179   1.434 -0.2885 -1.6908 -0.2003
  897SOL     OW 2689   1.259   0.983   1.290  0.0967  0.4825 -0.2542
  897SOL    HW1 2690   1.250   0.945   1.384 -2.1843  1.2420 -0.4111
  897SOL    HW2 2691   1.310   1.076   1.292  3.2945  1.6875  2.4857
  898SOL     OW 2692   0.794   0.018   1.525  0.1551 -0.0221 -0.0061
  898SOL    HW1 2693   0.814   0.053   1.621  2.0894 -0.1301 -0.2336
  898SOL    HW2 2694   0.873   3.053   1.480  1.6195  1.4178 -2.0532
  899SOL     OW 2695   1.378   0.332   0.026 -0.5253 -0.1764  0.5088
  899SOL    HW1 2696   1.478   0.316   0.010 -2.2114  1.1510 -1.4415
  899SOL    HW2 2697   1.327   0.274   3.044  0.7838 -1.0914 -1.2593
  900SOL     OW 2698   0.912   0.190   2.276  0.0567 -0.2467  0.0346
  900SOL    HW1 2699   0.955   0.165   2.362  1.0036  1.3424 -2.8481
  900SOL    HW2 2700   0.817   0.150   2.256 -2.3398  0.2587 -0.1251
  901SOL     OW 2701   0.936   2.133   0.521  0.0909 -0.4560  0.2120
  901SOL    HW1 2702   0.943   2.104   0.423 -2.0224  1.6723  0.2361
  901SOL    HW2 2703   0.968   2.229   0.533 -0.6804 -1.9148 -1.5099
  902SOL     OW 2704   2.026   0.537   0.972  0.2776 -0.1667  0.6471
  902SOL    HW1 2705   1.959   0.607   0.956  1.5160 -3.3385 -0.2105
  902SOL    HW2 2706   2.015   0.449   0.919  1.7158  1.8065 -0.3122
  903SOL     OW 2707   2.570   0.959   2.483 -0.1332  0.2716 -0.0963
  903SOL    HW1 2708   2.579   0.964   2.586  2.8398 -0.3462  1.4896
  903SOL    HW2 2709   2.606   1.043   2.437 -3.1380  0.9469 -1.0286
  904SOL     OW 2710   1.471   1.410   0.183 -0.4018  0.8448  0.1492
  904SOL    HW1 2711   1.447   1.484   0.119 -2.0417 -5.7356  0.0949
  904SOL    HW2 2712   1.393   1.397   0.247  3.6464  0.4793 -1.4114
  905SOL     OW 2713   1.889   2.958   1.501 -0.0797  0.0664 -0.3881
  905SOL    HW1 2714   1.917   3.028   1.573  0.3111 -0.9372  3.8962
  905SOL    HW2 2715   1.921   2.983   1.409  1.6830 -0.5939  1.3007
  906SOL     OW 2716   2.244   2.887   1.088  0.0339 -0.2814 -0.0260
  906SOL    HW1 2717   2.296   2.942   1.155  1.0645  0.2288  2.0271
  906SOL    HW2 2718   2.298   2.834   1.023  0.3686 -1.5415 -1.5746
  907SOL     OW 2719   1.804   0.951   0.343 -0.2251  0.1053  0.1014
  907SOL    HW1 2720   1.714   0.909   0.325  1.6470 -0.9312  1.5739
  907SOL    HW2 2721   1.852   0.923   0.428  0.2020 -0.9974 -1.3556
  908SOL     OW 2722   1.774   0.173   1.174  0.2515  0.2653  0.1424
  908SOL    HW1 2723   1.695   0.111   1.200 -0.5436 -2.0759 -1.4873
  908SOL    HW2 2724   1.752   0.272   1.190  0.0389 -0.0655  1.5597
  909SOL     OW 2725   2.352   2.989   0.636 -0.0450  0.3016 -0.1310
  909SOL    HW1 2726   2.298   2.904   0.644 -1.6392  0.5834  0.8658
  909SOL    HW2 2727   2.292   3.058   0.680  2.3750  0.2318  3.2885
  910SOL     OW 2728   2.601   0.540   2.019 -0.3764  0.5665 -0.4401
  910SOL    HW1 2729   2.599   0.602   2.095  0.8495  0.6222  0.0312
  910SOL    HW2 2730   2.537   0.563   1.943  0.7634  1.2735  0.6088
  911SOL     OW 2731   2.617   0.198   2.767 -0.2354  0.1085  0.0606
  911SOL    HW1 2732   2.551   0.241   2.703 -1.6126  1.1244  0.4461
  911SOL    HW2 2733   2.602   0.101   2.783  1.3943  2.2149 -1.5482
  912SOL     OW 2734   0.665   1.035   1.500 -0.5331  0.9138  0.4299
  912SOL    HW1 2735   0.679   1.102   1.427  0.1502 -1.1511  1.2186
  912SOL    HW2 2736   0.634   1.082   1.586  2.6952  0.6797  1.9839
  913SOL     OW 2737   2.951   2.504   1.349 -0.7360  0.1686  0.1046
  913SOL    HW1 2738   2.968   2.537   1.445 -3.2274  1.2857 -0.8588
  913SOL    HW2 2739   2.849   2.509   1.329 -1.7045  2.1114  0.2891
  914SOL     OW 2740   1.842   0.969   1.396  0.0127 -0.3585 -0.4372
  914SOL    HW1 2741   1.860   1.065   1.415  1.5825 -1.3849  0.6497
  914SOL    HW2 2742   1.889   0.909   1.469  0.6346 -0.7070  1.7820
  915SOL     OW 2743   3.049   1.484   1.155 -0.4905  0.1803 -0.0335
  915SOL    HW1 2744   3.019   1.577   1.122  1.1356 -2.7987  1.5110
  915SOL    HW2 2745   3.050   1.410   1.086 -1.8846  2.2352  2.0028
  916SOL     OW 2746   1.929   2.105   1.176 -0.2438 -0.1204 -0.2791
  916SOL    HW1 2747   1.887   2.194   1.210  1.4993  0.9588  0.1963
  916SOL    HW2 2748   1.941   2.099   1.075 -1.1556 -2.1967  1.7338
  917SOL     OW 2749   1.691   2.374   2.214 -0.6427  0.4351  0.0233
  917SOL    HW1 2750   1.723   2.442   2.289 -1.3579 -0.7349  0.4658
  917SOL    HW2 2751   1.744   2.287   2.222 -0.6377 -1.8346 -2.6137
  918SOL     OW 2752   1.819   2.164   2.497 -0.1345 -0.2255 -0.2237
  918SOL    HW1 2753   1.798   2.163   2.396  3.0914  1.6281 -0.6178
  918SOL    HW2 2754   1.892   2.227   2.528  0.6154 -0.0393  1.1427
  919SOL     OW 2755   0.709   0.220   1.351  0.7675  0.5943 -0.1494
  919SOL    HW1 2756   0.632   0.256   1.410  0.7579  3.1848 -1.1309
  919SOL    HW2 2757   0.761   0.152   1.403 -0.8204  0.5798 -0.9286
  920SOL     OW 2758   2.794   0.347   2.174  0.0025  0.4958  0.3713
  920SOL    HW1 2759   2.736   0.405   2.110 -0.6771 -0.0830 -0.9560
  920SOL    HW2 2760   2.754   0.336   2.264  2.3741 -0.8910 -3.6383
  921SOL     OW 2761   2.778   1.131   1.390 -0.3288 -0.2889 -0.1152
  921SOL    HW1 2762   2.833   1.048   1.418 -0.5667  3.2711 -2.1973
  921SOL    HW2 2763   2.710   1.154   1.466 -1.5012  0.0500  1.8790
  922SOL     OW 2764   2.347   2.126   0.576  0.5464 -0.4799  0.0199
  922SOL    HW1 2765   2.295   2.211   0.583 -0.2047 -3.3307  1.3540
  922SOL    HW2 2766   2.416   2.119   0.653  0.3791  0.8409  0.7053
  923SOL     OW 2767   0.436   2.545   0.576 -0.7093 -0.0742  0.2664
  923SOL    HW1 2768   0.437   2.464   0.513 -2.3911  1.6156 -0.3352
  923SOL    HW2 2769   0.405   2.526   0.667 -0.2780  3.4338 -1.7385
  924SOL     OW 2770   1.019   0.894   2.516 -0.1221  0.5510  0.2593
  924SOL    HW1 2771   1.039   0.949   2.598 -1.2179  1.8915 -0.8762
  924SOL    HW2 2772   1.106   0.877   2.469 -1.9461 -1.1821  1.5229
  925SOL     OW 2773   2.827   1.424   0.625  0.6945  0.1317 -0.2436
  925SOL    HW1 2774   2.788   1.362   0.693 -1.1466 -0.5474  1.1681
  925SOL    HW2 2775   2.785   1.404   0.536  1.0178  0.2535 -0.8967
  926SOL     OW 2776   0.053   0.094   0.886  0.7729  0.1501  0.1882
  926SOL    HW1 2777   0.113   0.030   0.824  1.3093  0.5567 -0.1864
  926SOL    HW2 2778   3.045   0.043   0.910  0.4942 -1.9432  0.9977
  927SOL     OW 2779   0.284   1.928   2.754 -0.7670 -0.6909 -0.1258
  927SOL    HW1 2780   0.252   1.945   2.848 -1.2563  1.5398 -2.2358
  927SOL    HW2 2781   0.208   1.876   2.706 -0.7766  0.0555  0.8296
  928SOL     OW 2782   0.006   0.305   2.271  0.2934  0.5455  0.5582
  928SOL    HW1 2783   0.095   0.265   2.247  0.4386 -0.4518  0.8942
  928SOL    HW2 2784   3.056   0.364   2.197  2.5753  0.2858 -0.7566
  929SOL     OW 2785   2.891   1.989   1.064  0.1189 -0.0200  0.5119
  929SOL    HW1 2786   2.803   2.015   1.110 -2.7766  0.8630  1.1311
  929SOL    HW2 2787   2.910   2.049   0.985  0.6345  0.7691  1.3370
  930SOL     OW 2788   1.867   0.265   2.310  0.3817 -0.1184 -0.1809
  930SOL    HW1 2789   1.769   0.245   2.303  0.6914  0.1042  1.0183
  930SOL    HW2 2790   1.871   0.357   2.355 -0.5528 -0.3199  0.6923
  931SOL     OW 2791   2.266   1.058   2.815  0.8014  0.1325 -0.0893
  931SOL    HW1 2792   2.226   1.154   2.816 -0.7732  0.4072 -0.2767
  931SOL    HW2 2793   2.254   1.010   2.725 -1.2552  1.1057 -0.0612
  932SOL     OW 2794   2.030   1.036   0.627  0.1706  0.1814  0.0859
  932SOL    HW1 2795   1.967   0.964   0.602  0.9331  0.9259  1.2571
  932SOL    HW2 2796   2.003   1.131   0.594  0.3775 -1.1468  1.5253
  933SOL     OW 2797   2.397   1.388   0.895  0.6427  0.5517  0.2447
  933SOL    HW1 2798   2.299   1.408   0.900  1.3873  2.9510 -0.5602
  933SOL    HW2 2799   2.447   1.447   0.826  2.9121  0.6626 -0.1957
  934SOL     OW 2800   2.254   0.940   2.557  0.4291  0.1294 -0.1795
  934SOL    HW1 2801   2.334   0.877   2.536  2.7000 -1.5171 -0.3939
  934SOL    HW2 2802   2.181   0.925   2.491  4.8825  0.8245  0.3423
  935SOL     OW 2803   0.188   1.515   0.706  0.0865 -0.3860 -0.2426
  935SOL    HW1 2804   0.280   1.476   0.674  2.1997 -1.9720 -3.0968
  935SOL    HW2 2805   0.120   1.481   0.641  4.1214  0.1217  1.6840
  936SOL     OW 2806   3.024   2.329   0.484 -0.3615 -0.0365  0.6052
  936SOL    HW1 2807   0.041   2.332   0.517  2.2262 -1.8604  0.7064
  936SOL    HW2 2808   3.023   2.394   0.404 -0.3295 -0.0273 -2.2350
  937SOL     OW 2809   3.013   2.306   1.883  0.1917  1.1196 -0.5146
  937SOL    HW1 2810   3.077   2.330   1.807 -0.5268 -1.2460 -0.1680
  937SOL    HW2 2811   3.044   2.212   1.928  1.2386 -2.3782  2.1294
  938SOL     OW 2812   2.559   1.981   3.011 -0.2109  0.0888  0.2078
  938SOL    HW1 2813   2.658   2.001   2.993 -2.6462 -1.1576  1.9077
  938SOL    HW2 2814   2.532   1.885   2.982 -0.3966  1.0026 -3.0934
  939SOL     OW 2815   1.035   0.838   1.247 -0.1625 -0.1012  0.0177
  939SOL    HW1 2816   1.119   0.898   1.252 -2.4780 -1.8684  1.6950
  939SOL    HW2 2817   0.973   0.858   1.174  3.1081  1.0553  1.7683
  940SOL     OW 2818   2.476   3.014   2.824  0.7107 -0.1843 -0.0801
  940SOL    HW1 2819   2.397   3.027   2.764  2.0110  2.3000  0.2551
  940SOL    HW2 2820   2.497   2.914   2.828  0.9067 -1.4781  1.3370
  941SOL     OW 2821   2.638   2.816   2.235 -0.1031 -0.4030 -0.1716
  941SOL    HW1 2822   2.655   2.739   2.171 -0.9286 -1.7058  0.7566
  941SOL    HW2 2823   2.635   2.903   2.184 -1.4928  0.1397 -2.5537
  942SOL     OW 2824   1.354   0.344   1.156 -0.0390 -0.4928  0.3493
  942SOL    HW1 2825   1.416   0.371   1.076 -0.9502  0.4011 -1.0275
  942SOL    HW2 2826   1.379   0.407   1.232  2.2775  0.0929  1.4818
  943SOL     OW 2827   0.555   1.655   2.417 -0.5791 -0.2535 -0.3042
  943SOL    HW1 2828   0.507   1.633   2.328  1.9550  0.8512 -1.4215
  943SOL    HW2 2829   0.521   1.741   2.458  1.0375 -0.8340 -0.3639
  944SOL     OW 2830   2.278   0.894   0.786  0.3366 -0.1007 -0.1622
  944SOL    HW1 2831   2.189   0.851   0.754 -1.9437 -1.0370  0.7178
  944SOL    HW2 2832   2.335   0.937   0.715  2.5686  0.5198  0.5649
  945SOL     OW 2833   3.005   0.101   2.857  0.2965 -0.3894  0.0823
  945SOL    HW1 2834   3.038   0.068   2.766  2.2406 -1.0702 -0.4192
  945SOL    HW2 2835   3.079   0.091   2.924  2.1963 -2.6169  2.3206
  946SOL     OW 2836   0.166   1.255   1.541  0.4882 -0.7742 -0.3321
  946SOL    HW1 2837   0.265   1.284   1.536  2.2465 -0.8692  0.4479
  946SOL    HW2 2838   0.117   1.320   1.606  1.8003 -0.2646  0.1717
  947SOL     OW 2839   1.048   0.049   0.044  0.1741 -0.1702 -0.2382
  947SOL    HW1 2840   1.082   0.017   0.136  0.7945  0.3235  1.8157
  947SOL    HW2 2841   1.049   3.060   3.051  1.3662  1.0928 -0.3222
  948SOL     OW 2842   2.560   1.597   1.352 -0.3577  0.2441  0.6143
  948SOL    HW1 2843   2.629   1.624   1.424  1.2013  0.4508 -0.7735
  948SOL    HW2 2844   2.609   1.542   1.282  0.7291  2.1397 -2.6237
  949SOL     OW 2845   0.295   0.761   2.924 -0.0087  0.2333 -0.1023
  949SOL    HW1 2846   0.322   0.825   2.996 -0.2092  0.3440  2.7102
  949SOL    HW2 2847   0.239   0.801   2.850  1.4351 -1.8137  1.1702
  950SOL     OW 2848   0.242   2.701   1.292 -0.3363  0.2592  0.3163
  950SOL    HW1 2849   0.195   2.683   1.380 -3.1061  1.4714 -0.9267
  950SOL    HW2 2850   0.330   2.749   1.304 -3.7431  0.4372  0.5040
  951SOL     OW 2851   0.827   1.750   2.689 -0.2821 -0.1210 -0.3849
  951SOL    HW1 2852   0.724   1.749   2.701 -2.4722  1.3649  3.1601
  951SOL    HW2 2853   0.857   1.846   2.679 -0.9058 -2.8853 -0.2072
  952SOL     OW 2854   0.699   1.397   0.591 -0.2367 -0.4547  0.5136
  952SOL    HW1 2855   0.743   1.311   0.623  2.0685  2.1338  0.4800
  952SOL    HW2 2856   0.742   1.478   0.640  1.6975  1.3694 -0.3408
  953SOL     OW 2857   2.232   1.707   2.700  0.4449 -0.2948  0.6345
  953SOL    HW1 2858   2.277   1.700   2.605  1.4632 -0.8730 -2.4237
  953SOL    HW2 2859   2.305   1.693   2.769  2.3115 -2.9938 -1.3603
  954SOL     OW 2860   1.663   0.602   0.682  0.1397 -0.9031 -0.5454
  954SOL    HW1 2861   1.595   0.527   0.699 -0.8805  1.3970  0.3578
  954SOL    HW2 2862   1.648   0.676   0.750  0.4097 -0.0888  1.0216
  955SOL     OW 2863   0.806   1.806   3.039 -0.4563 -0.2798 -0.3060
  955SOL    HW1 2864   0.846   1.893   3.007  2.8477  1.1161 -1.0476
  955SOL    HW2 2865   0.880   1.753   0.001  1.0147 -0.4961 -0.5872
  956SOL     OW 2866   2.891   0.609   1.911 -0.3208  0.6837  0.4077
  956SOL    HW1 2867   2.861   0.542   1.844  1.4086  3.1881  3.2929
  956SOL    HW2 2868   2.826   0.621   1.989 -2.4386 -1.2722  0.9981
  957SOL     OW 2869   1.716   1.895   2.151  0.0074  0.0511 -0.0562
  957SOL    HW1 2870   1.810   1.869   2.125 -1.3933 -1.8028 -1.3174
  957SOL    HW2 2871   1.649   1.877   2.069 -0.6982 -1.2045 -1.4025
  958SOL     OW 2872   1.572   0.969   1.388 -0.0175  0.6006 -0.5183
  958SOL    HW1 2873   1.551   1.056   1.447  0.0366  0.9960  0.6006
  958SOL    HW2 2874   1.669   0.960   1.364  1.3399 -2.7904  0.1529
  959SOL     OW 2875   1.568   1.810   1.954  0.6923  0.1622 -0.4268
  959SOL    HW1 2876   1.598   1.771   1.869 -2.6923 -0.1363  3.0891
  959SOL    HW2 2877   1.496   1.748   1.998 -1.5697 -0.6265 -1.8568
  960SOL     OW 2878   0.533   0.858   2.728  0.1070 -0.5063  0.3348
  960SOL    HW1 2879   0.497   0.944   2.771 -1.5787 -0.2225  2.7531
  960SOL    HW2 2880   0.542   0.785   2.802  0.1311 -1.4947  1.9339
  961SOL     OW 2881   0.191   1.097   3.010 -0.0731  0.1367  0.1008
  961SOL    HW1 2882   0.106   1.068   2.969 -0.6950  1.0972  1.4703
  961SOL    HW2 2883   0.185   1.200   3.038 -0.3066  1.8565  1.1529
  962SOL     OW 2884   0.872   2.069   2.964 -0.1253 -0.4387  0.2735
  962SOL    HW1 2885   0.793   2.122   2.996  1.8698 -0.9711 -0.2867
  962SOL    HW2 2886   0.962   2.110   2.982 -1.0355  0.6463 -1.5756
  963SOL     OW 2887   2.822   1.641   2.998  0.3225 -0.1604  0.7242
  963SOL    HW1 2888   2.901   1.582   3.004 -0.5570  0.4675 -0.6159
  963SOL    HW2 2889   2.834   1.708   3.076  0.6384  0.6996  0.3996
  964SOL     OW 2890   0.652   2.331   2.363  0.0700 -0.1568 -0.5932
  964SOL    HW1 2891   0.629   2.346   2.270  1.8645  1.3194  2.8506
  964SOL    HW2 2892   0.753   2.337   2.374 -0.2571  1.1593 -2.3112
  965SOL     OW 2893   1.619   1.835   1.516 -0.4764 -0.2590 -0.3317
  965SOL    HW1 2894   1.622   1.763   1.447 -0.7538 -0.4379 -2.5816
  965SOL    HW2 2895   1.639   1.803   1.613  1.5507  0.1148  1.9833
  966SOL     OW 2896   2.964   1.533   0.299 -0.1647 -0.2026 -0.4564
  966SOL    HW1 2897   3.048   1.544   0.357 -2.2840  0.9437 -1.3708
  966SOL    HW2 2898   2.992   1.515   0.205 -0.0843  1.1761  3.4820
  967SOL     OW 2899   2.068   2.630   1.973 -0.4027 -0.0305  0.2756
  967SOL    HW1 2900   1.991   2.567   1.943 -2.9398  1.4662 -2.7411
  967SOL    HW2 2901   2.071   2.713   1.914  1.9678 -0.9495  0.6518
  968SOL     OW 2902   1.482   1.140   2.959 -0.0666 -0.3749  0.2221
  968SOL    HW1 2903   1.577   1.109   2.985  1.0877  0.7338 -0.0401
  968SOL    HW2 2904   1.453   1.098   2.873  1.2438  1.2659  0.2468
  969SOL     OW 2905   0.187   1.281   2.334 -0.0640 -0.4120 -0.1663
  969SOL    HW1 2906   0.223   1.210   2.271 -1.7389 -0.9169 -0.8988
  969SOL    HW2 2907   0.238   1.290   2.422  0.2441  2.7192  0.3679
  970SOL     OW 2908   2.218   2.762   0.650  0.2162 -0.3186 -0.1039
  970SOL    HW1 2909   2.226   2.765   0.545  1.2365 -1.5712 -2.3054
  970SOL    HW2 2910   2.121   2.727   0.665  2.6295 -0.6448 -0.5019
  971SOL     OW 2911   1.986   2.128   0.864 -0.2408  0.0503 -0.0471
  971SOL    HW1 2912   2.056   2.061   0.901 -2.5835 -1.1557  2.2745
  971SOL    HW2 2913   2.024   2.222   0.855  3.1999  1.1754  2.8668
  972SOL     OW 2914   0.220   1.577   2.729  1.1571  0.3235 -0.3341
  972SOL    HW1 2915   0.174   1.646   2.670 -1.1418  2.7122 -1.6042
  972SOL    HW2 2916   0.322   1.561   2.705  1.9927 -0.4623  1.4196
  973SOL     OW 2917   0.787   0.482   0.247  0.8017  0.1255 -0.3217
  973SOL    HW1 2918   0.842   0.409   0.209 -1.2331  0.0597  0.2412
  973SOL    HW2 2919   0.850   0.558   0.269 -0.1643 -1.9100 -0.5234
  974SOL     OW 2920   2.289   0.942   1.699 -0.0462  0.1826 -0.3414
  974SOL    HW1 2921   2.245   0.852   1.724  0.9991  2.1573  2.3601
  974SOL    HW2 2922   2.385   0.924   1.690 -2.5767 -0.7197 -1.6132
  975SOL     OW 2923   2.995   3.040   0.600 -0.6099 -0.1035  0.4512
  975SOL    HW1 2924   3.079   3.053   0.656 -1.4829  1.3036 -2.2411
  975SOL    HW2 2925   2.918   0.024   0.616  2.4364  0.0915  0.4911
  976SOL     OW 2926   0.699   1.579   1.486 -0.3843  0.1019 -0.2147
  976SOL    HW1 2927   0.722   1.502   1.555 -0.8231 -1.3171  0.4711
  976SOL    HW2 2928   0.651   1.535   1.409 -0.4097  1.4397  0.4297
  977SOL     OW 2929   1.296   2.132   0.442  0.2707  0.2229 -0.1132
  977SOL    HW1 2930   1.357   2.142   0.357  0.1361 -0.5961  0.6604
  977SOL    HW2 2931   1.199   2.169   0.426 -2.5466  0.8540 -0.2394
  978SOL     OW 2932   0.116   0.631   0.039  0.2359  0.2685  0.0744
  978SOL    HW1 2933   0.110   0.625   3.016  0.5121  0.0513 -1.4489
  978SOL    HW2 2934   0.157   0.720   0.072  2.1630  0.1024  0.0889
  979SOL     OW 2935   1.908   1.522   0.680  0.0719 -0.0039  0.3002
  979SOL    HW1 2936   1.924   1.576   0.590  1.2030  3.8577 -1.1744
  979SOL    HW2 2937   1.866   1.582   0.741 -1.5330 -2.0204 -0.4840
  980SOL     OW 2938   0.578   2.085   1.756 -0.1707  0.2825  0.1950
  980SOL    HW1 2939   0.654   2.015   1.742  2.0235 -1.5286  0.2322
  980SOL    HW2 2940   0.536   2.107   1.666  1.0310  0.2252  1.5706
  981SOL     OW 2941   2.643   1.355   2.493  0.0324  0.5344 -0.4908
  981SOL    HW1 2942   2.705   1.282   2.460  2.5809  0.6925 -0.8974
  981SOL    HW2 2943   2.554   1.312   2.522 -1.9805 -0.5921  0.9499
  982SOL     OW 2944   0.163   1.991   1.760  0.2895 -0.1389  0.1669
  982SOL    HW1 2945   0.218   2.027   1.681  0.3763  2.2701 -2.0182
  982SOL    HW2 2946   0.223   1.944   1.824 -2.6043  1.1794  3.9163
  983SOL     OW 2947   1.635   0.255   1.883  0.1217 -0.1735  0.3762
  983SOL    HW1 2948   1.555   0.314   1.876  1.3595 -1.3863  0.7502
  983SOL    HW2 2949   1.655   0.202   1.802 -0.6407  1.8996 -0.2063
  984SOL     OW 2950   2.823   2.994   2.940 -0.1302 -0.0565  0.1232
  984SOL    HW1 2951   2.894   3.066   2.932 -0.2182 -0.6271  3.0928
  984SOL    HW2 2952   2.805   2.956   2.848  0.4349 -0.2502  1.6787
  985SOL     OW 2953   1.379   1.267   1.863 -0.1691 -0.1569  0.5870
  985SOL    HW1 2954   1.367   1.352   1.805 -3.0946 -2.6958  0.3240
  985SOL    HW2 2955   1.437   1.199   1.813 -1.8515 -1.7823  1.4838
  986SOL     OW 2956   1.988   0.355   2.756 -0.5083  0.6892 -0.3576
  986SOL    HW1 2957   2.085   0.382   2.778  0.0331  2.8734 -0.3729
  986SOL    HW2 2958   1.940   0.438   2.721 -0.4253  1.9822 -1.3825
  987SOL     OW 2959   2.837   1.539   2.584  0.2691 -0.4864 -0.2014
  987SOL    HW1 2960   2.818   1.610   2.656  0.0908 -0.0431  0.1813
  987SOL    HW2 2961   2.763   1.466   2.578 -3.5305  0.9418  1.5739
  988SOL     OW 2962   3.050   0.269   1.276 -0.0714 -0.2428 -0.1487
  988SOL    HW1 2963   0.031   0.248   1.356 -0.3314  1.1617  2.0513
  988SOL    HW2 2964   2.979   0.195   1.262  2.1205  0.6720 -2.7527
  989SOL     OW 2965   2.091   0.242   0.983  0.4181  0.1507 -0.1086
  989SOL    HW1 2966   2.079   0.138   0.973 -2.2074 -0.9003  1.0723
  989SOL    HW2 2967   2.149   0.252   1.067 -0.4916 -1.5083  2.0362
  990SOL     OW 2968   2.503   0.775   2.888 -0.5050 -0.1137 -0.0502
  990SOL    HW1 2969   2.606   0.780   2.855  1.5235 -0.9461 -0.3225
  990SOL    HW2 2970   2.499   0.823   2.974 -2.1202 -0.5011 -1.0225
  991SOL     OW 2971   0.334   1.321   0.316 -0.0160 -0.2451 -0.1059
  991SOL    HW1 2972   0.313   1.223   0.332  0.6588 -1.3915 -0.6324
  991SOL    HW2 2973   0.437   1.328   0.323 -0.6972  1.3777 -1.5727
  992SOL     OW 2974   2.074   1.314   1.890  0.0547  0.1335 -0.1296
  992SOL    HW1 2975   2.089   1.362   1.982 -1.2412  1.7925  2.8715
  992SOL    HW2 2976   2.160   1.270   1.856 -0.1276  0.0462 -1.9650
  993SOL     OW 2977   0.215   2.297   0.557 -0.0214  0.1410 -0.0036
  993SOL    HW1 2978   0.270   2.342   0.632  1.6991  2.7783  0.2069
  993SOL    HW2 2979   0.264   2.311   0.470 -0.3918  0.7066 -2.8150
  994SOL     OW 2980   2.932   1.809   1.829 -0.0661 -0.0421  0.2218
  994SOL    HW1 2981   2.843   1.846   1.856 -1.0632 -0.6878  0.5569
  994SOL    HW2 2982   2.958   1.833   1.733 -2.0699 -0.9508 -0.4552
  995SOL     OW 2983   1.959   1.679   2.662 -0.1043  0.1749  0.4369
  995SOL    HW1 2984   1.940   1.770   2.620 -2.1650  0.1653 -1.2479
  995SOL    HW2 2985   2.060   1.677   2.679 -0.5703  0.9516 -0.9916
  996SOL     OW 2986   2.143   2.345   0.326 -0.2397 -0.2752  0.0886
  996SOL    HW1 2987   2.053   2.300   0.320  1.9143 -1.1031  0.1924
  996SOL    HW2 2988   2.220   2.279   0.295 -0.4112  1.7839 -0.3795
  997SOL     OW 2989   0.992   1.766   2.319  0.5065 -0.1831 -0.7706
  997SOL    HW1 2990   0.906   1.719   2.358 -0.4609  1.1504 -0.8323
  997SOL    HW2 2991   1.044   1.697   2.266 -0.9070  0.2696 -0.7034
  998SOL     OW 2992   2.776   2.340   0.576 -0.7736 -0.5712  0.4334
  998SOL    HW1 2993   2.748   2.300   0.661 -0.7482 -1.4793 -4.7501
  998SOL    HW2 2994   2.878   2.354   0.562  0.7547 -0.5866 -1.2594
  999SOL     OW 2995   0.592   2.989   0.488  0.3938 -0.2217  0.7051
  999SOL    HW1 2996   0.496   3.006   0.463  1.3066  0.9098  2.9987
  999SOL    HW2 2997   0.608   2.891   0.510 -1.1028  2.6178 -1.0424
 1000SOL     OW 2998   1.342   0.206   0.304 -0.4170  0.1148  0.3818
 1000SOL    HW1 2999   1.335   0.264   0.222 -1.2172 -0.2578  0.3134
 1000SOL    HW2 3000   1.276   0.246   0.374 -2.3777  2.0418  0.5402
   3.08146   3.08146   3.08146
