1000 SPC/Fw water molecules t= 263.00000 step= 263000
 3000
    1SOL     OW    1   2.858   2.455   1.004  0.4454  0.4914  0.3566
    1SOL    HW1    2   2.940   2.516   0.999 -1.4803  2.8581 -1.7662
    1SOL    HW2    3   2.769   2.512   0.999 -1.4781  0.4865  1.0295
    2SOL     OW    4   1.926   2.006   1.190  0.4858 -0.1490  0.7018
    2SOL    HW1    5   1.843   2.029   1.247 -1.2936 -0.4178 -0.6845
    2SOL    HW2    6   2.002   1.978   1.250 -1.8713 -1.2975 -2.6041
    3SOL     OW    7   1.017   2.671   2.934  0.2955  0.1719 -0.0693
    3SOL    HW1    8   0.951   2.611   2.888  1.0597  0.4977  2.1776
    3SOL    HW2    9   1.089   2.689   2.866  0.0718  2.3257  0.4431
    4SOL     OW   10   2.007   2.003   1.750 -0.5339  0.2166 -0.1830
    4SOL    HW1   11   1.962   1.980   1.839  1.2873  0.0632 -0.7386
    4SOL    HW2   12   1.984   2.097   1.726  0.8883 -1.6510  0.5254
    5SOL     OW   13   1.284   1.051   1.401  0.7302  0.3769 -0.3376
    5SOL    HW1   14   1.271   1.047   1.302 -0.3764  0.8919  1.5745
    5SOL    HW2   15   1.383   1.074   1.419  0.1892  1.8820 -2.9709
    6SOL     OW   16   2.444   3.051   0.201 -0.0502 -0.0741  0.3750
    6SOL    HW1   17   2.384   3.054   0.120  2.7982  1.3015 -0.1598
    6SOL    HW2   18   2.539   3.046   0.162  1.5696  0.3714 -0.9537
    7SOL     OW   19   2.880   1.163   1.208 -0.4161  0.0799 -0.6969
    7SOL    HW1   20   2.948   1.211   1.146  0.4287  1.3805 -0.8323
    7SOL    HW2   21   2.810   1.235   1.235  0.5191  1.8122  0.9400
    8SOL     OW   22   1.390   3.006   0.886  0.1960 -0.0252 -0.5313
    8SOL    HW1   23   1.412   3.025   0.984 -0.7052 -0.6188 -2.6509
    8SOL    HW2   24   1.447   2.925   0.853  3.8661 -0.3897 -1.6206
    9SOL     OW   25   1.541   3.022   2.205  0.2304  0.4426 -0.7267
    9SOL    HW1   26   1.455   3.073   2.174 -0.7857  0.1485 -0.4080
    9SOL    HW2   27   1.621   3.064   2.171 -2.2296 -1.7915 -1.0152
   10SOL     OW   28   0.798   2.253   0.706 -0.5381  0.5587  0.1620
   10SOL    HW1   29   0.735   2.332   0.697 -0.6421 -1.8511  0.6875
   10SOL    HW2   30   0.855   2.260   0.792 -1.4281 -1.6133  1.9584
   11SOL     OW   31   1.342   1.287   0.382 -0.8585 -0.1276  0.0145
   11SOL    HW1   32   1.378   1.307   0.284  1.2151 -0.1275 -2.6404
   11SOL    HW2   33   1.277   1.356   0.414  0.0698 -3.1278  0.2282
   12SOL     OW   34   2.745   2.871   1.880 -0.2377  0.3623  0.0548
   12SOL    HW1   35   2.708   2.911   1.968  1.9219 -1.4135 -1.9342
   12SOL    HW2   36   2.809   2.797   1.898 -0.8862  1.3169 -0.3599
   13SOL     OW   37   1.860   0.218   0.499  0.0271  0.3534 -0.2751
   13SOL    HW1   38   1.843   0.317   0.481 -0.0167  0.3572 -0.4538
   13SOL    HW2   39   1.954   0.197   0.517 -1.4960 -1.9849 -0.9750
   14SOL     OW   40   1.397   2.430   1.047 -0.4310 -0.3479  0.4082
   14SOL    HW1   41   1.393   2.529   1.014  0.1590  1.4554  1.0579
   14SOL    HW2   42   1.497   2.404   1.045  0.0290  0.3541 -0.5653
   15SOL     OW   43   2.956   1.513   1.350  0.0729 -0.4716 -0.2413
   15SOL    HW1   44   3.026   1.579   1.310 -0.2108 -0.6983  0.2221
   15SOL    HW2   45   3.011   1.436   1.386 -2.6164 -0.8396 -0.2556
   16SOL     OW   46   2.165   2.467   0.212  0.2866  0.2613 -0.1558
   16SOL    HW1   47   2.094   2.456   0.281  0.8194 -0.4543 -1.6756
   16SOL    HW2   48   2.112   2.471   0.125  1.4367 -1.4814  1.3276
   17SOL     OW   49   0.829   0.018   1.379  0.4656  0.2904  0.7416
   17SOL    HW1   50   0.842   0.118   1.391  0.2175 -0.2757  2.3623
   17SOL    HW2   51   0.740   3.088   1.419 -0.5611 -0.2045  0.4856
   18SOL     OW   52   1.285   0.850   3.061  0.0082  0.2467  0.0759
   18SOL    HW1   53   1.303   0.915   0.036 -0.8718 -1.1393 -1.8651
   18SOL    HW2   54   1.379   0.820   3.031  2.5743 -0.2780 -1.6981
   19SOL     OW   55   1.846   1.897   3.000 -0.4763  0.1714  0.8869
   19SOL    HW1   56   1.894   1.904   2.910 -2.0524  1.9953  0.3417
   19SOL    HW2   57   1.834   1.985   3.044 -1.1921 -0.6960 -1.5293
   20SOL     OW   58   2.161   1.738   1.946 -0.2431 -0.0653  0.3665
   20SOL    HW1   59   2.176   1.756   1.845  0.9014  1.7588 -2.2821
   20SOL    HW2   60   2.240   1.681   1.981 -0.5590 -3.3202 -0.6139
   21SOL     OW   61   0.876   1.634   0.189  0.1489  1.0563  0.2247
   21SOL    HW1   62   0.868   1.533   0.162  2.1642 -1.1956  0.2364
   21SOL    HW2   63   0.803   1.643   0.267 -3.3630 -1.2517  3.7335
   22SOL     OW   64   1.884   0.008   1.522 -0.3451 -0.0850  0.1955
   22SOL    HW1   65   1.860   0.047   1.424  2.9735 -0.6445 -0.4814
   22SOL    HW2   66   1.935   0.084   1.573 -0.6671 -0.5219 -1.6396
   23SOL     OW   67   2.861   0.798   1.999 -0.0788 -0.3098  0.4673
   23SOL    HW1   68   2.808   0.810   1.913  2.4808 -0.0974  0.5355
   23SOL    HW2   69   2.801   0.801   2.086  0.6749 -1.8060  4.5100
   24SOL     OW   70   2.348   2.651   0.334  0.0557 -0.3917  0.4051
   24SOL    HW1   71   2.398   2.685   0.247 -1.3721  0.0564 -4.2164
   24SOL    HW2   72   2.278   2.590   0.309  1.7389 -1.3577 -0.0470
   25SOL     OW   73   1.489   2.981   2.465  0.2911 -0.0621 -0.0020
   25SOL    HW1   74   1.497   2.995   2.363 -1.3320 -1.1356  1.0782
   25SOL    HW2   75   1.580   2.979   2.507 -0.1187  0.5244 -3.1188
   26SOL     OW   76   1.744   2.687   0.068  0.1945 -0.5501  0.1979
   26SOL    HW1   77   1.664   2.703   3.098  0.7216 -0.9880 -3.2849
   26SOL    HW2   78   1.704   2.705   0.157 -0.1294 -1.4801 -1.6390
   27SOL     OW   79   2.881   2.010   2.869  0.3389 -0.0344  0.3231
   27SOL    HW1   80   2.791   2.006   2.914  3.0844  2.1327 -1.6042
   27SOL    HW2   81   2.883   2.098   2.824  1.9652 -2.8339 -0.4265
   28SOL     OW   82   0.198   0.964   1.899  0.1769  0.0919 -0.1587
   28SOL    HW1   83   0.233   0.870   1.880 -2.0027  0.3132  2.4980
   28SOL    HW2   84   0.269   1.036   1.894  0.6097  2.3091  0.3723
   29SOL     OW   85   2.456   2.317   1.286  0.0905 -0.4378 -0.5486
   29SOL    HW1   86   2.493   2.370   1.367 -0.2560 -1.7892  0.9560
   29SOL    HW2   87   2.534   2.277   1.232  2.4853 -0.1379  0.2825
   30SOL     OW   88   1.526   0.370   0.426  0.0363  0.6596  0.0840
   30SOL    HW1   89   1.455   0.408   0.489 -0.9767  0.4894  0.9038
   30SOL    HW2   90   1.617   0.414   0.446  0.1433  0.2054 -1.3767
   31SOL     OW   91   2.657   2.493   1.848 -0.4261  0.2894 -0.4132
   31SOL    HW1   92   2.560   2.527   1.832 -0.3704  1.4328 -0.7294
   31SOL    HW2   93   2.687   2.424   1.786 -4.1561  1.9457 -0.0729
   32SOL     OW   94   0.906   1.979   1.130 -0.3074  0.2777 -0.4813
   32SOL    HW1   95   0.902   1.933   1.039  0.1610  2.1496  2.7149
   32SOL    HW2   96   0.820   2.025   1.152 -0.2246  0.6401 -1.4643
   33SOL     OW   97   0.704   2.967   2.786 -0.1835 -0.3647  0.3248
   33SOL    HW1   98   0.786   2.972   2.852  3.8455 -0.2714 -0.7678
   33SOL    HW2   99   0.663   2.875   2.784  1.2496  2.2392  0.3389
   34SOL     OW  100   1.442   2.788   0.601 -0.2839 -0.0498  0.1612
   34SOL    HW1  101   1.461   2.891   0.597 -0.3315 -1.2873  2.6305
   34SOL    HW2  102   1.530   2.736   0.585  2.1507 -2.4485 -2.9581
   35SOL     OW  103   2.157   3.004   1.201  0.0907  0.4816  0.0709
   35SOL    HW1  104   2.228   3.041   1.137 -0.3999 -0.1411 -3.5276
   35SOL    HW2  105   2.169   3.044   1.295  1.5073 -2.3942 -3.9376
   36SOL     OW  106   1.703   2.747   2.186  0.4596 -0.4254 -0.0318
   36SOL    HW1  107   1.694   2.798   2.096  0.3834 -0.4283  1.0519
   36SOL    HW2  108   1.611   2.728   2.225 -0.9639  1.0843  2.4871
   37SOL     OW  109   0.783   0.137   2.463 -0.1049 -0.6185  0.2215
   37SOL    HW1  110   0.786   0.089   2.371 -0.4891 -1.6714  0.0623
   37SOL    HW2  111   0.774   0.238   2.448 -1.9925 -1.1746  1.5245
   38SOL     OW  112   0.337   2.473   2.655  0.5091 -0.2835  0.3941
   38SOL    HW1  113   0.434   2.489   2.621  3.2027  1.1781 -2.6458
   38SOL    HW2  114   0.275   2.441   2.582  1.4703  0.8529 -2.4100
   39SOL     OW  115   2.131   1.099   1.744  0.3555 -0.1061 -0.2809
   39SOL    HW1  116   2.220   1.138   1.702  0.8681  2.5071  0.3965
   39SOL    HW2  117   2.119   1.121   1.842 -0.8649 -0.7715  2.5426
   40SOL     OW  118   0.754   2.983   0.361  0.4100  0.0611 -0.2481
   40SOL    HW1  119   0.824   3.002   0.433  1.5411 -1.2778  1.0545
   40SOL    HW2  120   0.722   3.069   0.316 -2.5063 -2.4429  0.1010
   41SOL     OW  121   2.122   1.157   1.041 -0.3155 -0.0458 -0.4382
   41SOL    HW1  122   2.190   1.109   1.102  1.5420  0.8798  2.9227
   41SOL    HW2  123   2.159   1.246   1.020 -0.0315  0.6852  0.8831
   42SOL     OW  124   0.630   0.510   1.038 -0.0176  0.3718  0.1686
   42SOL    HW1  125   0.597   0.584   0.983 -0.6578 -2.0889  2.6043
   42SOL    HW2  126   0.682   0.538   1.118 -3.1678 -0.3036 -1.1293
   43SOL     OW  127   2.344   1.598   2.758  0.1019 -0.5732 -0.1897
   43SOL    HW1  128   2.363   1.560   2.853  0.6558 -1.6959  1.9246
   43SOL    HW2  129   2.314   1.525   2.693  0.7801 -0.2141 -2.0552
   44SOL     OW  130   3.012   2.982   1.505 -0.0332  0.4263  0.3680
   44SOL    HW1  131   0.013   3.015   1.503 -0.1210 -0.7680 -1.2187
   44SOL    HW2  132   2.954   3.062   1.479  0.0398  1.0153 -0.2213
   45SOL     OW  133   0.321   2.773   1.362 -0.3091 -0.1180 -0.2073
   45SOL    HW1  134   0.313   2.845   1.285 -0.4323  1.3465 -1.6318
   45SOL    HW2  135   0.414   2.753   1.394 -1.0494 -0.7389  1.5842
   46SOL     OW  136   2.137   3.035   2.729 -0.5965 -0.0775  0.1476
   46SOL    HW1  137   2.085   2.961   2.680  1.8324 -0.8864  1.9250
   46SOL    HW2  138   2.232   3.034   2.700 -2.1589  2.2724 -0.2293
   47SOL     OW  139   1.992   1.830   0.744 -0.4491 -0.1401 -0.4769
   47SOL    HW1  140   2.018   1.738   0.779 -1.5391 -0.9629  2.9572
   47SOL    HW2  141   1.972   1.829   0.642 -0.5195  0.2163 -1.1195
   48SOL     OW  142   0.667   1.978   0.334 -0.1086 -0.0492 -0.3902
   48SOL    HW1  143   0.698   2.069   0.299 -0.6248  1.3572  0.3019
   48SOL    HW2  144   0.621   1.927   0.259  0.7117 -2.4989 -1.6124
   49SOL     OW  145   2.718   0.455   2.574 -0.3309 -0.5600  0.1365
   49SOL    HW1  146   2.633   0.516   2.553 -1.5383  1.2737 -2.0124
   49SOL    HW2  147   2.755   0.415   2.488  1.8117 -1.7629 -0.6333
   50SOL     OW  148   2.029   0.804   0.401  0.7256  0.1430 -1.0946
   50SOL    HW1  149   2.099   0.802   0.327  1.1598 -3.0166  1.1668
   50SOL    HW2  150   1.939   0.780   0.360 -1.3363  0.8110  3.2181
   51SOL     OW  151   2.176   0.835   0.734  0.1279 -0.4118  0.2836
   51SOL    HW1  152   2.112   0.858   0.808 -1.5763  0.2972  1.6232
   51SOL    HW2  153   2.145   0.746   0.686 -3.1325 -3.2331 -2.1439
   52SOL     OW  154   1.490   1.508   2.104  0.2289  0.4143 -0.1489
   52SOL    HW1  155   1.541   1.529   2.024 -1.4587 -3.8695  3.8160
   52SOL    HW2  156   1.402   1.464   2.079 -0.9444 -1.0003 -0.1741
   53SOL     OW  157   0.668   1.894   2.105  0.3580  0.0417  0.2552
   53SOL    HW1  158   0.718   1.836   2.034  0.0667 -1.2491 -2.7908
   53SOL    HW2  159   0.665   1.992   2.080  1.3550 -0.2463 -0.5137
   54SOL     OW  160   2.250   0.420   1.238 -0.1847  0.2242  0.4562
   54SOL    HW1  161   2.300   0.364   1.168 -0.2053  1.2232  3.0291
   54SOL    HW2  162   2.274   0.516   1.235 -0.6141 -1.3733  1.1753
   55SOL     OW  163   2.343   2.088   0.840 -0.2582 -0.0033 -0.3546
   55SOL    HW1  164   2.431   2.062   0.893  2.8575  0.5257 -0.7650
   55SOL    HW2  165   2.312   2.001   0.796  0.8212  2.2252  0.4784
   56SOL     OW  166   1.093   0.076   1.971  0.2799  0.2067 -0.1133
   56SOL    HW1  167   1.153   0.019   2.030 -0.2263 -1.1920  1.2681
   56SOL    HW2  168   1.085   0.169   2.013  1.9204  0.4778  2.8263
   57SOL     OW  169   1.395   1.738   0.069  0.2224  0.3164 -0.1140
   57SOL    HW1  170   1.448   1.715   0.151 -0.6149 -2.0412 -0.2211
   57SOL    HW2  171   1.290   1.726   0.086 -2.2166  1.5147  0.8161
   58SOL     OW  172   0.073   1.079   2.506 -0.3023 -0.3072  0.4908
   58SOL    HW1  173   0.139   1.032   2.567  0.1525  0.4863  0.4827
   58SOL    HW2  174   0.125   1.095   2.421  2.7240 -0.6819  3.7438
   59SOL     OW  175   1.120   0.137   2.667  0.7459 -0.8120  1.1813
   59SOL    HW1  176   1.024   0.166   2.691  2.6145  0.0338 -1.6037
   59SOL    HW2  177   1.151   0.073   2.734 -0.1598  0.1907 -1.8366
   60SOL     OW  178   2.940   2.069   0.321 -0.5714  0.5895 -0.1610
   60SOL    HW1  179   3.025   2.127   0.320 -0.4645 -0.3562 -0.0926
   60SOL    HW2  180   2.964   1.981   0.272  1.8570  1.1429  1.2984
   61SOL     OW  181   1.137   1.996   0.087  0.0707 -0.6045 -0.8515
   61SOL    HW1  182   1.092   2.058   0.021  1.8628  0.6666  0.3742
   61SOL    HW2  183   1.146   2.052   0.173 -0.3921  0.4937 -2.3210
   62SOL     OW  184   2.049   2.164   2.307  0.3412 -0.2105 -0.4245
   62SOL    HW1  185   2.027   2.121   2.221  0.7296  1.1302  0.2261
   62SOL    HW2  186   1.973   2.238   2.319 -3.5996  0.6217 -0.8639
   63SOL     OW  187   2.078   2.149   3.092 -0.0955  0.0253 -0.5085
   63SOL    HW1  188   2.121   2.056   0.002 -3.5345 -1.1141 -2.7456
   63SOL    HW2  189   2.148   2.215   3.049  0.0815  1.5292 -1.0207
   64SOL     OW  190   1.710   1.058   2.504  0.3937  0.4958  0.2191
   64SOL    HW1  191   1.710   1.038   2.404 -3.2414 -0.5236 -0.2881
   64SOL    HW2  192   1.646   0.996   2.552 -1.2673 -0.9647 -0.3040
   65SOL     OW  193   1.220   2.185   2.679  0.2547 -0.0928 -0.3021
   65SOL    HW1  194   1.233   2.089   2.653 -2.6650  0.1355  0.4530
   65SOL    HW2  195   1.287   2.213   2.746 -3.2078 -0.0439 -1.5355
   66SOL     OW  196   0.274   1.613   1.983  0.2829 -0.1257  0.1623
   66SOL    HW1  197   0.348   1.634   2.055  0.1746  0.5657  1.6534
   66SOL    HW2  198   0.273   1.509   1.959 -0.9160 -0.7547 -0.5673
   67SOL     OW  199   2.713   2.684   2.908 -0.6408  0.5525 -0.1967
   67SOL    HW1  200   2.715   2.686   3.009  1.4749 -0.1585 -2.7325
   67SOL    HW2  201   2.690   2.772   2.864  2.1984  1.7496  0.5933
   68SOL     OW  202   0.731   2.494   1.317  0.5749 -0.0710  0.1583
   68SOL    HW1  203   0.747   2.517   1.221 -1.0094  2.9835  0.2700
   68SOL    HW2  204   0.808   2.450   1.367 -2.0883  1.1758 -1.2235
   69SOL     OW  205   0.775   2.665   0.671  0.1629  0.2744  0.3142
   69SOL    HW1  206   0.726   2.577   0.698 -0.8219  2.5505  2.8305
   69SOL    HW2  207   0.840   2.652   0.591  3.0835  0.4104 -3.7305
   70SOL     OW  208   2.655   0.976   3.040 -0.4232 -0.1883 -0.2792
   70SOL    HW1  209   2.749   0.930   3.018 -0.1594 -2.7117  0.4958
   70SOL    HW2  210   2.575   0.918   3.008 -0.8374  1.5774  0.8115
   71SOL     OW  211   0.684   1.116   2.241  0.4600  0.1817 -0.4341
   71SOL    HW1  212   0.767   1.053   2.254 -1.0792 -0.0828  0.0529
   71SOL    HW2  213   0.687   1.201   2.301  0.5713  0.4654  0.5626
   72SOL     OW  214   0.128   1.986   0.314 -0.2670  0.2289 -0.1225
   72SOL    HW1  215   0.176   1.920   0.254 -1.0515 -0.1874  0.4639
   72SOL    HW2  216   0.063   1.941   0.375  1.1887  1.2192 -2.3768
   73SOL     OW  217   0.919   1.419   0.449  0.1706 -0.8364  0.0770
   73SOL    HW1  218   0.906   1.385   0.354  0.9336  0.6849  0.4551
   73SOL    HW2  219   0.869   1.503   0.464 -0.1842  0.6910 -2.5541
   74SOL     OW  220   2.465   2.760   0.120 -0.5277  0.0222 -0.1672
   74SOL    HW1  221   2.563   2.756   0.089  0.6367  2.8634 -0.3723
   74SOL    HW2  222   2.426   2.840   0.075 -2.0525 -2.8010 -1.2923
   75SOL     OW  223   2.132   1.418   1.904  0.2509  0.6603 -0.5216
   75SOL    HW1  224   2.081   1.331   1.916 -0.8474 -0.8385  0.8912
   75SOL    HW2  225   2.156   1.430   1.807 -0.0686  0.8701  2.2930
   76SOL     OW  226   1.826   2.484   1.873  0.0802  0.1659  0.1596
   76SOL    HW1  227   1.869   2.513   1.962  1.1214 -1.7362  1.7517
   76SOL    HW2  228   1.750   2.542   1.843  2.1477 -1.0627 -1.4075
   77SOL     OW  229   2.437   0.134   1.778  0.3439 -0.4818  0.0371
   77SOL    HW1  230   2.526   0.182   1.779  1.3821  2.2760  1.2872
   77SOL    HW2  231   2.356   0.191   1.748 -1.5034 -0.0536 -0.2660
   78SOL     OW  232   1.538   0.798   3.025 -0.4225 -0.4084 -0.5164
   78SOL    HW1  233   1.576   0.774   0.020 -0.3006 -2.2909 -1.5796
   78SOL    HW2  234   1.604   0.867   2.984  1.3269 -0.5277  0.0436
   79SOL     OW  235   2.487   1.305   1.939  0.0532 -0.1557  0.4267
   79SOL    HW1  236   2.475   1.305   1.840  3.0359  2.0003  0.9523
   79SOL    HW2  237   2.588   1.327   1.955  1.2154  1.8894 -1.9654
   80SOL     OW  238   1.946   1.191   1.244  0.0759 -0.0066 -0.6781
   80SOL    HW1  239   2.012   1.165   1.172 -0.5572 -0.2077 -1.0975
   80SOL    HW2  240   1.989   1.269   1.295  0.1490  0.2599  2.4038
   81SOL     OW  241   1.402   0.594   1.715 -0.6252 -0.0445  0.3212
   81SOL    HW1  242   1.459   0.661   1.769  1.9057 -1.9976 -0.1374
   81SOL    HW2  243   1.465   0.519   1.686 -2.1305  1.4427  2.6352
   82SOL     OW  244   1.408   2.501   1.312  0.7264  0.0730  0.0127
   82SOL    HW1  245   1.406   2.477   1.212 -0.5906  0.9225 -0.3577
   82SOL    HW2  246   1.372   2.599   1.319 -2.6004 -0.2030 -1.9725
   83SOL     OW  247   0.151   0.226   0.527 -0.0152 -0.3421  0.8001
   83SOL    HW1  248   0.219   0.152   0.539  0.0096 -1.2766  2.7284
   83SOL    HW2  249   0.207   0.301   0.477  0.7886  1.4933 -1.0259
   84SOL     OW  250   0.260   0.722   2.885  0.4777  0.4702  0.6961
   84SOL    HW1  251   0.248   0.641   2.825  0.7533 -0.9713 -1.0927
   84SOL    HW2  252   0.180   0.744   2.941  2.6768  1.6345 -1.2082
   85SOL     OW  253   2.731   1.715   1.802  0.1945  0.0346  0.2671
   85SOL    HW1  254   2.753   1.653   1.722  1.6335 -1.4449  1.2436
   85SOL    HW2  255   2.657   1.768   1.773  0.9403 -1.6044  0.7259
   86SOL     OW  256   2.764   2.276   1.740 -0.9731  0.0147  0.3505
   86SOL    HW1  257   2.864   2.257   1.743  0.6604  1.0189 -1.0087
   86SOL    HW2  258   2.712   2.196   1.774  1.6164  2.4002 -2.0593
   87SOL     OW  259   0.629   0.146   2.772 -0.0987 -0.0236 -0.2793
   87SOL    HW1  260   0.667   0.053   2.782  0.1752 -0.4817 -0.8882
   87SOL    HW2  261   0.599   0.182   2.864 -0.3342 -1.6233  1.6773
   88SOL     OW  262   0.411   2.168   0.957  0.4064  0.4906 -0.4164
   88SOL    HW1  263   0.369   2.162   0.865 -2.6140  1.2943 -2.9801
   88SOL    HW2  264   0.369   2.102   1.020 -2.5910  1.3836 -1.5547
   89SOL     OW  265   0.818   0.605   1.816 -0.4789  0.4197  0.7925
   89SOL    HW1  266   0.856   0.640   1.729 -1.5765 -0.7587  0.8050
   89SOL    HW2  267   0.887   0.596   1.889 -0.0408 -0.5458 -2.4907
   90SOL     OW  268   2.513   1.579   1.448 -0.0264 -0.2231  0.3492
   90SOL    HW1  269   2.555   1.605   1.357 -0.8785  0.3677 -0.6675
   90SOL    HW2  270   2.443   1.647   1.478 -0.7395 -0.1775 -1.0470
   91SOL     OW  271   1.322   1.422   0.698  0.3521  0.1597  0.4130
   91SOL    HW1  272   1.282   1.452   0.609  1.2732 -0.0628 -2.4195
   91SOL    HW2  273   1.300   1.325   0.713 -3.4961  1.2707  0.6707
   92SOL     OW  274   2.163   0.533   0.853 -0.2305 -0.3810  0.1868
   92SOL    HW1  275   2.130   0.561   0.761  1.3931  0.9308 -0.7740
   92SOL    HW2  276   2.133   0.604   0.928 -2.5311  2.3621  0.4226
   93SOL     OW  277   2.141   1.146   3.058  0.3890  0.2721  0.0592
   93SOL    HW1  278   2.127   1.167   0.057 -0.4557 -0.8601 -0.1571
   93SOL    HW2  279   2.078   1.199   2.993 -0.6378  0.9694 -2.3072
   94SOL     OW  280   2.479   2.159   2.240  0.2139  0.3223  0.1452
   94SOL    HW1  281   2.541   2.221   2.190  0.9148  0.0505 -1.8300
   94SOL    HW2  282   2.468   2.066   2.196  1.7433 -1.9981 -1.1919
   95SOL     OW  283   2.105   0.274   0.904  0.5722 -0.2287 -0.3656
   95SOL    HW1  284   2.144   0.365   0.880 -0.5461 -2.5752  0.1175
   95SOL    HW2  285   2.158   0.195   0.867 -1.0045 -0.5280  0.8331
   96SOL     OW  286   2.844   0.001   1.774 -0.6253  0.1778 -0.6313
   96SOL    HW1  287   2.816   3.013   1.819 -1.2720 -1.5043 -0.5331
   96SOL    HW2  288   2.763   0.056   1.750 -1.4688 -0.8630 -2.3177
   97SOL     OW  289   2.460   0.241   1.078  0.1810 -0.0299  0.2516
   97SOL    HW1  290   2.431   0.300   1.004  1.4568 -2.3638  1.0744
   97SOL    HW2  291   2.455   0.146   1.043  0.8149  1.6468 -3.3952
   98SOL     OW  292   1.601   2.214   1.550  0.1079 -0.0957 -0.0267
   98SOL    HW1  293   1.675   2.284   1.523  0.0499  2.1838  2.2135
   98SOL    HW2  294   1.507   2.254   1.533 -0.5305  0.2563 -0.6591
   99SOL     OW  295   2.509   2.182   1.631  0.0847 -0.0576  0.3012
   99SOL    HW1  296   2.567   2.262   1.611  2.2877  1.4955  0.3355
   99SOL    HW2  297   2.409   2.197   1.623  1.9784 -0.4332  0.1010
  100SOL     OW  298   0.495   0.864   2.891 -0.2324  0.1649  0.4795
  100SOL    HW1  299   0.501   0.931   2.816  0.2158  0.0701  1.3654
  100SOL    HW2  300   0.400   0.823   2.893  0.9180  0.6843  4.1320
  101SOL     OW  301   1.798   0.512   3.077 -0.6324  0.0936 -0.2298
  101SOL    HW1  302   1.808   0.523   2.979  1.0228  2.0383  2.6120
  101SOL    HW2  303   1.876   0.466   0.020 -1.3606 -1.1904 -1.2112
  102SOL     OW  304   0.152   0.626   1.809 -0.0454  0.0919 -0.6172
  102SOL    HW1  305   0.142   0.688   1.732 -0.0582 -2.7612  1.6925
  102SOL    HW2  306   0.135   0.527   1.784 -2.5264 -1.3841 -2.2243
  103SOL     OW  307   2.768   1.100   2.321  0.1960  0.2357  0.0048
  103SOL    HW1  308   2.758   1.169   2.397  0.8543 -1.4380  0.5840
  103SOL    HW2  309   2.833   1.025   2.346  2.6508 -0.1294 -0.1546
  104SOL     OW  310   0.552   0.307   2.578  0.5998  0.4814 -0.0802
  104SOL    HW1  311   0.594   0.246   2.649  1.0583  3.6179 -1.8007
  104SOL    HW2  312   0.626   0.359   2.532  2.2116  0.8735  0.8398
  105SOL     OW  313   2.328   1.748   1.530  0.4068 -0.4697 -0.3577
  105SOL    HW1  314   2.320   1.831   1.590  0.4120 -0.2042 -0.2632
  105SOL    HW2  315   2.247   1.759   1.469  1.2872 -1.5477 -0.3929
  106SOL     OW  316   2.154   0.222   0.565  0.6700 -0.3587  0.3633
  106SOL    HW1  317   2.181   0.145   0.502  0.8714  0.8085 -2.1492
  106SOL    HW2  318   2.188   0.205   0.660 -0.7258 -0.1076  1.6799
  107SOL     OW  319   3.064   1.571   1.023  0.4615  0.0835 -0.2841
  107SOL    HW1  320   0.023   1.592   1.105 -2.0502 -0.4070 -1.4238
  107SOL    HW2  321   0.020   1.555   0.936  2.1578  0.7643 -3.5517
  108SOL     OW  322   2.881   2.651   1.913 -0.5297 -0.3366 -0.1105
  108SOL    HW1  323   2.952   2.577   1.915 -0.7945 -3.5103  0.6403
  108SOL    HW2  324   2.796   2.603   1.890  1.0184 -0.8764 -1.1407
  109SOL     OW  325   2.254   0.058   0.799  0.4874 -0.2169  0.3723
  109SOL    HW1  326   2.348   0.069   0.760 -0.9693 -1.0588  1.7151
  109SOL    HW2  327   2.194   3.090   0.751  2.4581  2.2370 -0.2052
  110SOL     OW  328   0.409   2.120   2.528  0.1176 -0.2424 -0.1401
  110SOL    HW1  329   0.314   2.130   2.560  0.4442  0.6037 -0.7062
  110SOL    HW2  330   0.412   2.057   2.446 -2.0310 -0.6558  1.1681
  111SOL     OW  331   1.277   2.387   1.767 -0.3632 -0.1822 -0.2979
  111SOL    HW1  332   1.300   2.317   1.836 -0.5975 -0.3951 -0.0284
  111SOL    HW2  333   1.306   2.352   1.675 -0.2655 -0.0911  0.1802
  112SOL     OW  334   1.565   2.729   2.978  0.1579  0.3861  0.5447
  112SOL    HW1  335   1.582   2.667   2.895  0.0196  3.5565  1.0685
  112SOL    HW2  336   1.492   2.801   2.960 -3.5581  0.5278  1.8938
  113SOL     OW  337   1.984   2.694   1.511  0.1548  0.1465 -0.0263
  113SOL    HW1  338   1.896   2.662   1.553  0.2520  0.7309  0.4343
  113SOL    HW2  339   1.995   2.653   1.420 -0.5631  0.1347  3.9703
  114SOL     OW  340   3.075   0.922   0.688  0.5229 -0.8227 -0.1166
  114SOL    HW1  341   2.989   0.898   0.738  2.9440  1.0423  1.8027
  114SOL    HW2  342   0.024   1.001   0.732 -1.5653  1.2196  0.0456
  115SOL     OW  343   0.728   1.095   2.906  0.4918 -0.0812 -0.2677
  115SOL    HW1  344   0.663   1.153   2.854 -0.2808  0.3949  0.4720
  115SOL    HW2  345   0.693   1.074   3.003  2.0776  2.2256  2.3420
  116SOL     OW  346   2.552   1.720   2.023 -0.4126 -0.1114  0.1246
  116SOL    HW1  347   2.554   1.634   2.078  0.9095 -0.4155 -2.9380
  116SOL    HW2  348   2.594   1.707   1.931 -0.1165 -0.1290  0.1311
  117SOL     OW  349   2.646   2.603   0.884  0.1375  0.0093  0.2439
  117SOL    HW1  350   2.637   2.555   0.793  0.3890 -0.5477 -0.7132
  117SOL    HW2  351   2.677   2.697   0.861 -0.5004  1.2878  4.7992
  118SOL     OW  352   1.023   2.377   1.715  0.0443 -0.1395 -0.0708
  118SOL    HW1  353   1.121   2.398   1.744  1.0507  1.0490  0.6045
  118SOL    HW2  354   0.981   2.453   1.661 -1.0474  0.9553  2.2761
  119SOL     OW  355   0.142   1.912   2.838 -0.1784  0.0326 -0.0706
  119SOL    HW1  356   0.230   1.858   2.851 -0.0062 -1.2036 -1.1636
  119SOL    HW2  357   0.088   1.903   2.924  1.1586 -1.3646  1.0359
  120SOL     OW  358   0.933   0.895   2.897  0.0097  0.3010 -0.5275
  120SOL    HW1  359   0.863   0.961   2.875  3.5917 -2.1845 -0.0308
  120SOL    HW2  360   0.955   0.903   2.998  0.0593  1.4794  0.7312
  121SOL     OW  361   1.552   2.775   0.917 -0.0265 -0.1060 -0.2321
  121SOL    HW1  362   1.470   2.732   0.955  3.7331  1.1570 -2.0256
  121SOL    HW2  363   1.580   2.730   0.825 -1.1601 -0.6663 -3.0990
  122SOL     OW  364   2.212   2.586   1.663 -0.1365 -0.2679  0.6619
  122SOL    HW1  365   2.197   2.540   1.750  0.2880  3.5370  0.4155
  122SOL    HW2  366   2.124   2.621   1.621  0.9925  3.7267 -1.8738
  123SOL     OW  367   0.312   3.065   0.828 -0.0235 -0.0355 -0.0452
  123SOL    HW1  368   0.383   0.043   0.818 -0.8831  2.1514 -1.5736
  123SOL    HW2  369   0.361   2.974   0.834  0.2463  0.4329  2.3288
  124SOL     OW  370   2.240   1.257   2.746 -0.0450 -0.1419 -0.3061
  124SOL    HW1  371   2.255   1.155   2.757 -0.1216 -0.3717 -1.3640
  124SOL    HW2  372   2.154   1.292   2.793  1.9836  0.6279  1.1150
  125SOL     OW  373   0.690   0.827   0.491 -0.4474 -0.7265  0.0804
  125SOL    HW1  374   0.623   0.855   0.563 -0.7156 -1.7634 -0.2834
  125SOL    HW2  375   0.744   0.905   0.451 -1.6443  0.6190 -2.4943
  126SOL     OW  376   3.003   1.311   0.991 -0.1580 -0.2528  0.3720
  126SOL    HW1  377   2.936   1.290   0.918 -2.5921 -1.1142 -1.5126
  126SOL    HW2  378   3.013   1.415   0.997  0.2538  4.1510 -1.3179
  127SOL     OW  379   0.273   1.878   1.912 -0.1309 -0.1556  0.0370
  127SOL    HW1  380   0.278   1.777   1.936 -2.4425 -0.3210  0.8465
  127SOL    HW2  381   0.363   1.907   1.869  1.3706  0.4107  0.9830
  128SOL     OW  382   1.075   1.167   0.018 -0.6583  0.0161  0.9180
  128SOL    HW1  383   1.172   1.170   0.047 -0.6950 -2.3697 -1.7206
  128SOL    HW2  384   1.078   1.187   3.017  3.0704 -3.3337  0.7113
  129SOL     OW  385   2.809   1.167   0.839 -0.6629  0.6855 -0.4725
  129SOL    HW1  386   2.733   1.198   0.898  0.4124  0.6129  0.1813
  129SOL    HW2  387   2.797   1.065   0.821 -0.4695 -0.4898  2.0750
  130SOL     OW  388   2.354   0.974   1.445  0.0044  0.2255 -0.3125
  130SOL    HW1  389   2.428   0.897   1.438  1.1069 -0.1380 -0.0021
  130SOL    HW2  390   2.345   1.029   1.361  0.0489 -0.6532 -1.5539
  131SOL     OW  391   2.896   2.974   2.980 -0.6826 -0.0099  0.3955
  131SOL    HW1  392   2.909   2.927   2.885 -0.0308 -1.7816 -1.2808
  131SOL    HW2  393   2.938   3.071   2.989  0.7466  2.4933  1.5577
  132SOL     OW  394   0.031   1.705   1.269 -0.6315 -0.4072 -0.5908
  132SOL    HW1  395   0.074   1.765   1.202 -0.4187  1.3077  1.5743
  132SOL    HW2  396   0.048   1.740   1.366 -0.4871  1.4649 -0.8155
  133SOL     OW  397   1.137   0.072   1.480  0.2347 -0.1164  0.5989
  133SOL    HW1  398   1.074   0.041   1.550  0.4590  2.3126 -0.4882
  133SOL    HW2  399   1.151   0.178   1.485  0.0722  3.8641 -0.8647
  134SOL     OW  400   0.057   1.439   0.045  0.1818 -0.2540  0.4889
  134SOL    HW1  401   0.034   1.342   0.032  0.2759  2.3337 -1.7658
  134SOL    HW2  402   0.003   1.497   3.082  0.2934 -1.4975 -1.6489
  135SOL     OW  403   2.341   1.193   1.641  0.3025  0.5471  0.8008
  135SOL    HW1  404   2.338   1.119   1.567  0.3338 -1.9002 -1.1336
  135SOL    HW2  405   2.434   1.242   1.641  1.9497  2.1218 -0.5914
  136SOL     OW  406   0.190   0.869   0.362  0.1444  0.3565  0.1636
  136SOL    HW1  407   0.098   0.858   0.405  1.2711  1.6252  1.0461
  136SOL    HW2  408   0.188   0.959   0.311  0.8627  0.7163 -1.2052
  137SOL     OW  409   2.770   0.953   1.121  0.0977  0.3117 -0.0179
  137SOL    HW1  410   2.809   0.928   1.027  0.6545 -1.5284 -0.4836
  137SOL    HW2  411   2.806   1.039   1.169 -0.3491  1.4563 -2.6602
  138SOL     OW  412   1.572   0.955   1.010  0.3719  0.2427  0.3079
  138SOL    HW1  413   1.511   0.883   1.054  1.1608 -0.7905  2.3906
  138SOL    HW2  414   1.611   1.014   1.082 -1.4524 -2.5402  0.5921
  139SOL     OW  415   1.927   3.095   0.061 -0.3385  0.2954  0.0641
  139SOL    HW1  416   1.956   3.002   0.099  3.5458 -1.6750  3.2668
  139SOL    HW2  417   1.885   0.052   0.135 -1.6855  2.2985 -0.7776
  140SOL     OW  418   1.666   1.798   1.493 -0.5228 -0.0721  0.6217
  140SOL    HW1  419   1.664   1.717   1.429  1.5359 -0.7913  0.1163
  140SOL    HW2  420   1.570   1.833   1.504 -3.7532  2.1240 -0.0036
  141SOL     OW  421   1.993   2.400   0.389 -0.1854  0.0059  0.1302
  141SOL    HW1  422   2.009   2.367   0.484 -1.2459 -1.6748  0.3194
  141SOL    HW2  423   1.982   2.317   0.327  0.3744 -3.3297  0.1918
  142SOL     OW  424   0.593   0.951   0.023 -0.1591 -1.0937  0.6133
  142SOL    HW1  425   0.610   0.886   0.099 -0.9948 -0.1321 -0.2873
  142SOL    HW2  426   0.562   0.913   3.030 -0.1025  0.4623 -0.6726
  143SOL     OW  427   0.354   2.183   0.112 -0.1678 -0.2845 -0.2123
  143SOL    HW1  428   0.273   2.197   0.173 -0.8172 -0.2514  1.3189
  143SOL    HW2  429   0.328   2.200   0.015  0.8460  0.7173  0.0811
  144SOL     OW  430   1.503   3.088   1.134  1.1192 -0.3002 -0.6098
  144SOL    HW1  431   1.532   0.085   1.129 -0.4849  2.4231  1.8756
  144SOL    HW2  432   1.582   3.021   1.137  0.0321  1.0058 -2.3906
  145SOL     OW  433   2.371   1.388   0.335 -0.4952  0.1199 -0.0451
  145SOL    HW1  434   2.457   1.370   0.380  0.4802  0.6986  1.0451
  145SOL    HW2  435   2.336   1.298   0.310  1.1242  1.4149  0.9383
  146SOL     OW  436   2.984   1.807   0.238  0.8393 -0.5701 -0.1741
  146SOL    HW1  437   2.929   1.799   0.153  3.1385 -0.3714 -0.7569
  146SOL    HW2  438   3.046   1.728   0.243 -1.4313  2.0470  0.9877
  147SOL     OW  439   2.288   2.881   1.740 -0.1165  0.7402 -0.1366
  147SOL    HW1  440   2.190   2.873   1.713 -3.0814 -0.1536 -1.4862
  147SOL    HW2  441   2.349   2.896   1.659  0.7032 -0.6123  0.7138
  148SOL     OW  442   1.311   2.768   2.080  0.2743  0.5219 -0.3232
  148SOL    HW1  443   1.333   2.727   1.988  0.8874 -0.2258 -1.3420
  148SOL    HW2  444   1.372   2.719   2.144  1.8055 -3.6807  0.0960
  149SOL     OW  445   1.840   0.544   2.209 -0.8183 -0.3206 -0.1250
  149SOL    HW1  446   1.888   0.499   2.130 -0.9900 -1.4778  1.1202
  149SOL    HW2  447   1.892   0.620   2.261  0.9739  1.5024  1.6737
  150SOL     OW  448   0.285   0.004   0.561  0.0771 -0.0235 -0.3955
  150SOL    HW1  449   0.274   3.080   0.664 -0.0582  1.7328  1.0811
  150SOL    HW2  450   0.265   3.026   0.499  0.1998 -1.6974  1.3010
  151SOL     OW  451   3.000   1.640   3.048 -0.0107 -0.1166 -0.0429
  151SOL    HW1  452   2.957   1.731   3.062  2.3569 -0.0077 -0.9667
  151SOL    HW2  453   2.986   1.613   2.951  0.1953 -2.4795 -1.8394
  152SOL     OW  454   2.932   0.124   0.697 -0.5901  0.0262  0.2804
  152SOL    HW1  455   3.014   0.102   0.753 -0.2885 -0.7822  0.0300
  152SOL    HW2  456   2.846   0.138   0.754 -2.0990  2.0521  0.1337
  153SOL     OW  457   2.633   0.008   1.311  0.2732 -0.3180  0.0832
  153SOL    HW1  458   2.557   0.032   1.376  0.7555  0.7891  1.0102
  153SOL    HW2  459   2.620   3.011   1.283  2.2416 -0.9874  1.5884
  154SOL     OW  460   1.074   0.554   1.918 -0.1947 -0.1858  0.4113
  154SOL    HW1  461   1.143   0.487   1.892 -0.4335  3.3871  1.9485
  154SOL    HW2  462   1.051   0.531   2.019 -0.7252 -2.3882  2.3932
  155SOL     OW  463   0.037   0.966   1.202 -0.4338 -1.1486  0.3133
  155SOL    HW1  464   0.086   1.048   1.159  1.4196  0.0297 -0.9500
  155SOL    HW2  465   3.052   0.999   1.250  2.2895 -1.6820  1.6381
  156SOL     OW  466   3.082   1.926   3.039  0.1836  0.5044 -0.4729
  156SOL    HW1  467   3.094   2.016   3.086 -1.0202 -1.9986 -0.7667
  156SOL    HW2  468   3.002   1.939   2.975 -0.7910  2.1705 -0.1771
  157SOL     OW  469   0.730   0.501   0.264  0.4377  0.4397  0.6090
  157SOL    HW1  470   0.693   0.477   0.359 -1.2472  0.9800  1.5897
  157SOL    HW2  471   0.796   0.426   0.227  1.2853 -1.4404 -1.8620
  158SOL     OW  472   2.682   0.101   2.741 -0.2776  0.2658 -0.1800
  158SOL    HW1  473   2.674   0.189   2.789  2.6595 -1.1604 -1.3816
  158SOL    HW2  474   2.736   0.114   2.653  0.0545 -0.1589  0.8999
  159SOL     OW  475   0.693   0.125   0.260 -0.5439 -0.3143  0.4689
  159SOL    HW1  476   0.705   0.146   0.160 -0.2575 -2.1881  0.4730
  159SOL    HW2  477   0.612   0.174   0.285 -0.1486 -2.5266 -1.8348
  160SOL     OW  478   1.170   1.946   2.875  1.0442 -0.1102  0.3881
  160SOL    HW1  479   1.118   2.027   2.917 -0.3861  1.0606 -0.8485
  160SOL    HW2  480   1.265   1.938   2.905 -0.7057 -3.1188 -4.3549
  161SOL     OW  481   2.831   1.703   2.451  0.0598 -0.7381  0.3679
  161SOL    HW1  482   2.745   1.716   2.402 -0.3227  2.5232  0.1581
  161SOL    HW2  483   2.832   1.743   2.541 -1.6236  0.6092  0.7988
  162SOL     OW  484   0.365   2.457   1.543 -0.0059 -0.1533 -0.4471
  162SOL    HW1  485   0.443   2.513   1.577  1.8405  1.1793 -0.6833
  162SOL    HW2  486   0.280   2.505   1.563  0.3078  0.7476  0.0330
  163SOL     OW  487   1.938   0.326   2.821 -0.2523 -0.2305 -0.0683
  163SOL    HW1  488   1.884   0.414   2.824  1.7515  0.7615 -0.2034
  163SOL    HW2  489   1.956   0.302   2.724  0.8146 -1.9365  1.6894
  164SOL     OW  490   2.763   1.340   0.633 -0.0626 -0.1259 -0.0377
  164SOL    HW1  491   2.695   1.401   0.668  0.0531 -0.0662 -0.5838
  164SOL    HW2  492   2.798   1.274   0.703  0.5388  2.8212  2.2072
  165SOL     OW  493   0.346   0.100   1.803 -0.2055  0.6393 -0.0226
  165SOL    HW1  494   0.262   0.074   1.854  0.7668 -0.5480 -0.8972
  165SOL    HW2  495   0.362   0.199   1.805  0.8671 -1.1909  1.1535
  166SOL     OW  496   2.037   0.641   0.623  0.6581 -0.3150 -0.2830
  166SOL    HW1  497   2.028   0.705   0.542 -2.7075 -0.1735  0.7118
  166SOL    HW2  498   1.947   0.633   0.669  1.0775  1.1808 -1.0234
  167SOL     OW  499   0.363   0.733   0.150  0.5282  0.8524  0.0090
  167SOL    HW1  500   0.464   0.748   0.161 -2.1439  2.7328 -0.5175
  167SOL    HW2  501   0.311   0.747   0.237 -0.6523  0.2488 -1.7374
  168SOL     OW  502   1.998   2.940   1.929 -0.0699  0.0535 -0.4491
  168SOL    HW1  503   2.054   3.012   1.974 -3.5214  1.3174  0.2630
  168SOL    HW2  504   1.997   2.952   1.827 -1.1267 -1.0862 -0.1061
  169SOL     OW  505   0.876   1.153   0.809  0.6895 -0.1053 -0.0384
  169SOL    HW1  506   0.900   1.055   0.818 -0.0418  0.4644 -1.4287
  169SOL    HW2  507   0.864   1.195   0.902  2.0330 -0.5391 -2.2461
  170SOL     OW  508   0.030   0.511   1.470 -0.0340  0.2005 -0.3668
  170SOL    HW1  509   0.117   0.464   1.474 -3.0870  0.3719  1.2022
  170SOL    HW2  510   3.064   0.491   1.544  0.6008  1.6867 -1.0718
  171SOL     OW  511   0.979   2.852   2.341  0.7466 -0.5893 -0.1147
  171SOL    HW1  512   0.958   2.850   2.243  1.7002 -1.5025  1.3572
  171SOL    HW2  513   1.024   2.766   2.369  1.3139  0.5373  1.9323
  172SOL     OW  514   0.490   2.348   1.341  0.0583  0.0750  0.7814
  172SOL    HW1  515   0.576   2.402   1.328 -0.4912 -1.2113 -1.1589
  172SOL    HW2  516   0.424   2.382   1.409 -0.1402 -0.2414 -2.2334
  173SOL     OW  517   1.512   0.953   2.730  0.1832 -0.6153 -0.1484
  173SOL    HW1  518   1.425   0.900   2.746  1.2425 -0.7973 -1.7591
  173SOL    HW2  519   1.577   0.940   2.810 -2.1050 -0.8449  1.2866
  174SOL     OW  520   1.810   0.129   2.964  0.0002  0.4699  0.1184
  174SOL    HW1  521   1.846   0.079   3.040  1.1330  1.5210  0.4361
  174SOL    HW2  522   1.883   0.176   2.913 -1.4349 -0.7495  0.7753
  175SOL     OW  523   1.769   2.546   0.422 -0.1904  0.6324 -0.1299
  175SOL    HW1  524   1.686   2.488   0.404  0.7641 -0.3909  1.1132
  175SOL    HW2  525   1.852   2.503   0.384 -0.4308  0.9277 -0.6962
  176SOL     OW  526   1.607   0.247   2.803  0.5927 -0.2959 -0.4508
  176SOL    HW1  527   1.539   0.297   2.856  1.0370  0.4165 -0.5640
  176SOL    HW2  528   1.679   0.211   2.865  2.1122 -0.4037 -1.3656
  177SOL     OW  529   1.178   1.477   0.472  0.2851 -0.5097  0.1311
  177SOL    HW1  530   1.205   1.563   0.424 -0.8346  1.5411 -0.3875
  177SOL    HW2  531   1.073   1.466   0.474 -0.2563 -0.5906  0.1410
  178SOL     OW  532   2.881   2.274   2.778 -0.0462  0.1491 -0.3696
  178SOL    HW1  533   2.872   2.305   2.680 -1.8341  2.3614 -0.4240
  178SOL    HW2  534   2.922   2.352   2.827  4.2628 -1.1353 -0.0700
  179SOL     OW  535   0.599   2.699   2.798 -0.0092  0.0744 -0.2595
  179SOL    HW1  536   0.613   2.626   2.727 -0.4184  2.7521 -0.7527
  179SOL    HW2  537   0.590   2.659   2.892  0.1854  2.2599 -0.0917
  180SOL     OW  538   1.498   1.591   0.795  0.6133 -0.3422  0.0006
  180SOL    HW1  539   1.493   1.680   0.744 -0.8316  0.0155 -1.4306
  180SOL    HW2  540   1.428   1.528   0.762  0.4024  1.7103  0.2460
  181SOL     OW  541   2.271   0.826   2.164  0.0357 -0.1104 -0.1507
  181SOL    HW1  542   2.177   0.798   2.206  0.1049 -0.2255  2.0627
  181SOL    HW2  543   2.300   0.913   2.209 -2.7343  0.2883 -0.0882
  182SOL     OW  544   3.054   3.077   2.685 -0.5865 -0.2132  0.3561
  182SOL    HW1  545   2.971   0.020   2.645 -1.2066  1.1389 -0.0097
  182SOL    HW2  546   0.032   0.039   2.660  2.7326  0.8214  0.5694
  183SOL     OW  547   1.516   0.763   2.373 -0.2032 -0.3427 -0.0078
  183SOL    HW1  548   1.522   0.709   2.459  1.0899  1.9484 -0.8533
  183SOL    HW2  549   1.494   0.696   2.296  1.2566 -1.0615 -1.0426
  184SOL     OW  550   0.600   0.536   1.925 -0.3178 -0.1658 -0.0673
  184SOL    HW1  551   0.543   0.614   1.964  0.2827  2.2777 -0.0555
  184SOL    HW2  552   0.687   0.573   1.889 -1.3886  0.1987  3.8755
  185SOL     OW  553   1.809   0.983   0.523 -0.4027 -0.0723 -1.0534
  185SOL    HW1  554   1.873   1.055   0.487 -1.1209 -2.2989  0.8447
  185SOL    HW2  555   1.857   0.892   0.530 -3.0755  1.6641  0.8730
  186SOL     OW  556   0.251   2.228   2.970  0.0334 -0.1337 -0.6484
  186SOL    HW1  557   0.289   2.193   2.884  1.5517  0.7471  0.0775
  186SOL    HW2  558   0.151   2.208   2.979  2.9709  1.2835 -0.0486
  187SOL     OW  559   2.661   1.249   0.130 -0.3252 -0.3202  0.3286
  187SOL    HW1  560   2.656   1.264   0.230  2.6077 -1.3176 -1.4059
  187SOL    HW2  561   2.571   1.210   0.095 -2.5849  0.0370 -0.2667
  188SOL     OW  562   0.065   1.535   0.786  0.0630  0.2205  0.1938
  188SOL    HW1  563   0.138   1.610   0.779  3.2116  2.1253  0.0652
  188SOL    HW2  564   0.014   1.552   0.699  1.0812  0.5319 -0.9613
  189SOL     OW  565   2.360   0.283   0.295  0.1362 -0.7517  0.1647
  189SOL    HW1  566   2.303   0.210   0.339  0.7192  1.6898 -2.2688
  189SOL    HW2  567   2.456   0.264   0.323 -0.9825  2.9495 -1.0387
  190SOL     OW  568   1.098   1.756   1.972 -0.0019  0.0601 -0.0290
  190SOL    HW1  569   1.006   1.793   1.992  1.3903  0.7702  3.5137
  190SOL    HW2  570   1.095   1.657   1.933 -1.7473 -1.0130 -1.5317
  191SOL     OW  571   2.658   0.331   1.771 -0.4625 -0.3220  0.0398
  191SOL    HW1  572   2.691   0.300   1.859 -2.6260  2.3856 -1.9991
  191SOL    HW2  573   2.734   0.335   1.704  0.6955  0.5752  2.7640
  192SOL     OW  574   1.688   1.337   1.383  0.0921 -0.5941 -0.2910
  192SOL    HW1  575   1.694   1.260   1.316  0.1718  0.4277  0.2441
  192SOL    HW2  576   1.769   1.324   1.449  1.4814 -2.1868 -0.3820
  193SOL     OW  577   0.868   0.869   0.900 -0.3229  0.1266  0.0880
  193SOL    HW1  578   0.812   0.801   0.849 -2.1295  0.7247 -1.1340
  193SOL    HW2  579   0.829   0.879   0.996 -1.8611 -2.0057  1.2184
  194SOL     OW  580   0.955   2.383   1.409 -0.4838  0.2536  0.0677
  194SOL    HW1  581   1.017   2.435   1.348 -0.9745  0.4492  0.2552
  194SOL    HW2  582   1.004   2.305   1.448 -0.3803  0.2155 -0.3070
  195SOL     OW  583   2.191   0.351   2.927  0.4190  0.1958 -0.6485
  195SOL    HW1  584   2.199   0.306   3.021 -1.0466  0.0184  2.1135
  195SOL    HW2  585   2.100   0.321   2.891  0.9509 -0.6191  0.5980
  196SOL     OW  586   1.062   2.678   1.722  0.1365 -0.0553  0.0654
  196SOL    HW1  587   1.071   2.685   1.824  3.0139 -1.7884 -0.9493
  196SOL    HW2  588   0.966   2.672   1.693  0.6161  0.0455  0.4773
  197SOL     OW  589   0.894   2.729   0.903  0.3472 -0.2910  0.4468
  197SOL    HW1  590   0.854   2.740   0.807  1.1701 -0.6992 -3.2051
  197SOL    HW2  591   0.978   2.787   0.910  0.2726 -1.1926  0.6853
  198SOL     OW  592   0.770   0.693   0.716 -0.0287  0.3637  0.6662
  198SOL    HW1  593   0.708   0.614   0.718  4.2764  0.9495  3.1896
  198SOL    HW2  594   0.787   0.733   0.626 -1.1301  0.3769  4.0604
  199SOL     OW  595   0.324   2.766   1.671  0.4699  0.5077 -0.2829
  199SOL    HW1  596   0.252   2.734   1.608  0.8869  0.7424  1.8120
  199SOL    HW2  597   0.350   2.697   1.738  0.4318  0.5174  2.5688
  200SOL     OW  598   2.141   1.871   2.413  0.5627 -0.1012 -0.6383
  200SOL    HW1  599   2.106   1.967   2.419  1.6504  0.7156  0.7389
  200SOL    HW2  600   2.188   1.854   2.503 -2.1610  0.4327  1.1782
  201SOL     OW  601   2.807   2.087   1.297  0.2165  0.3105 -0.1653
  201SOL    HW1  602   2.851   2.011   1.254  0.4425  1.3160 -1.9518
  201SOL    HW2  603   2.791   2.076   1.397  3.9557 -1.6768 -2.0851
  202SOL     OW  604   2.774   0.019   0.345 -0.3978  0.5008  0.0906
  202SOL    HW1  605   2.871   0.026   0.382  0.1570  0.0785 -1.3992
  202SOL    HW2  606   2.780   0.002   0.241  0.2498 -0.0937 -2.0199
  203SOL     OW  607   1.047   2.149   1.987  0.1085  0.2591  0.3895
  203SOL    HW1  608   0.975   2.134   1.914 -2.8288 -1.1087  0.9350
  203SOL    HW2  609   1.030   2.083   2.063 -0.7818  1.1711 -1.4358
  204SOL     OW  610   1.437   1.947   1.568 -0.3562 -0.3669  0.4598
  204SOL    HW1  611   1.507   2.020   1.602  1.4045  1.8913  0.9789
  204SOL    HW2  612   1.343   1.954   1.604 -1.6478 -0.4822  0.5224
  205SOL     OW  613   1.162   2.072   1.724 -0.1948 -0.5428  0.1835
  205SOL    HW1  614   1.182   2.131   1.645  1.0799  0.8018 -1.5297
  205SOL    HW2  615   1.194   2.115   1.811  0.2049 -0.0156  2.7058
  206SOL     OW  616   0.288   0.438   2.854  0.8438 -0.7585 -0.2772
  206SOL    HW1  617   0.367   0.477   2.796  2.4211  0.2589  0.2551
  206SOL    HW2  618   0.200   0.424   2.806 -1.6681 -0.3163  2.5299
  207SOL     OW  619   0.973   0.057   1.740  0.4121 -0.8979 -0.0545
  207SOL    HW1  620   0.953   0.152   1.707  1.4459  1.2306  1.4459
  207SOL    HW2  621   1.023   0.058   1.828 -1.7436 -2.0775  0.2514
  208SOL     OW  622   0.613   2.594   2.077 -0.2127  0.2827  0.3433
  208SOL    HW1  623   0.566   2.611   2.164 -1.0228  0.4890 -5.1025
  208SOL    HW2  624   0.630   2.685   2.029  0.1919  1.6264  0.5852
  209SOL     OW  625   1.651   0.669   0.133  0.2345 -0.1895 -0.2075
  209SOL    HW1  626   1.705   0.620   0.056  0.2277 -1.1588  0.5518
  209SOL    HW2  627   1.567   0.619   0.163  1.3306  0.9119  0.3393
  210SOL     OW  628   3.080   0.547   0.826 -0.4003 -0.1635  0.2535
  210SOL    HW1  629   3.080   0.615   0.906  0.2102  0.6716  0.8860
  210SOL    HW2  630   0.071   0.496   0.819  2.1867 -0.8504  0.8897
  211SOL     OW  631   0.734   0.659   1.254  0.3466  0.2263  0.3777
  211SOL    HW1  632   0.824   0.637   1.301  0.9069 -2.2213  1.5006
  211SOL    HW2  633   0.675   0.704   1.319  0.1256 -1.0506  0.8143
  212SOL     OW  634   1.526   1.851   0.625  0.3171 -0.2688  0.0898
  212SOL    HW1  635   1.428   1.889   0.609  0.4907 -1.1734 -0.6995
  212SOL    HW2  636   1.558   1.854   0.722  1.2295  1.8265 -3.2121
  213SOL     OW  637   1.918   0.204   1.915  0.7315  0.1517  0.2605
  213SOL    HW1  638   1.937   0.223   1.818 -0.6887  0.1837 -0.6170
  213SOL    HW2  639   2.004   0.168   1.958  0.1336  1.3739 -2.5608
  214SOL     OW  640   1.053   2.608   2.597 -0.8873  0.9365 -0.2153
  214SOL    HW1  641   1.119   2.665   2.650 -1.3497 -1.0998  0.8074
  214SOL    HW2  642   1.102   2.522   2.567 -1.6117  0.6202 -0.4005
  215SOL     OW  643   2.622   1.641   1.212 -0.4146 -0.0250 -0.4994
  215SOL    HW1  644   2.535   1.673   1.176  1.5257 -2.5629  0.9176
  215SOL    HW2  645   2.686   1.623   1.134 -2.4150 -1.1516 -2.9334
  216SOL     OW  646   0.259   0.440   2.256 -0.4907  0.0879 -0.4592
  216SOL    HW1  647   0.264   0.372   2.328 -0.2076 -0.7821 -2.9567
  216SOL    HW2  648   0.312   0.520   2.284 -0.4178 -0.1558  0.2756
  217SOL     OW  649   3.002   0.359   0.286  0.4525 -0.4263  0.0237
  217SOL    HW1  650   2.917   0.387   0.245  0.4854  1.0920  1.3655
  217SOL    HW2  651   2.997   0.271   0.334 -0.1592  0.0198 -0.3348
  218SOL     OW  652   1.750   1.845   1.775  0.1027 -0.1336 -0.3385
  218SOL    HW1  653   1.761   1.761   1.834 -1.1764  0.0782  1.0951
  218SOL    HW2  654   1.725   1.822   1.681  0.7523  0.5978  1.1895
  219SOL     OW  655   1.772   0.748   0.347  0.3970  0.8357  0.7200
  219SOL    HW1  656   1.734   0.724   0.254  1.8616  1.6992  0.2739
  219SOL    HW2  657   1.718   0.828   0.384 -2.4899 -1.5552  1.2332
  220SOL     OW  658   1.605   1.887   0.873  0.1215 -0.1702 -0.7088
  220SOL    HW1  659   1.523   1.870   0.937 -2.5110  2.0874  2.2838
  220SOL    HW2  660   1.694   1.866   0.916  1.7231  0.0693 -1.0962
  221SOL     OW  661   0.231   0.510   3.096  0.0518 -0.3074 -0.8435
  221SOL    HW1  662   0.275   0.484   3.006 -1.9011  0.9005 -1.3885
  221SOL    HW2  663   0.285   0.586   0.031 -1.2399 -1.4040 -0.7178
  222SOL     OW  664   0.880   2.933   1.565  0.5097 -0.2149  0.3178
  222SOL    HW1  665   0.942   2.990   1.623  1.7018 -2.3790 -0.7127
  222SOL    HW2  666   0.833   2.989   1.491 -1.9343  0.0098 -2.2048
  223SOL     OW  667   1.543   0.612   2.836  0.2014  0.1578 -0.1661
  223SOL    HW1  668   1.499   0.540   2.894 -1.2910  0.1813  0.5483
  223SOL    HW2  669   1.544   0.700   2.886 -0.3053 -2.7915 -0.6012
  224SOL     OW  670   2.979   0.564   1.244  0.2424 -0.0272 -0.0278
  224SOL    HW1  671   3.022   0.564   1.334 -0.4905 -0.5125 -3.1924
  224SOL    HW2  672   2.941   0.474   1.218  0.7357  0.5019  1.1775
  225SOL     OW  673   0.855   1.271   1.352  0.0448 -0.1911 -0.1463
  225SOL    HW1  674   0.794   1.350   1.342  1.8146 -0.9056 -2.5104
  225SOL    HW2  675   0.935   1.298   1.405 -2.5670  0.4720 -2.1316
  226SOL     OW  676   1.179   0.045   0.478 -0.3356  0.0139 -0.0399
  226SOL    HW1  677   1.191   3.051   0.449 -0.4383  2.2605  0.6244
  226SOL    HW2  678   1.163   0.057   0.576  1.2194  1.6804 -0.1975
  227SOL     OW  679   0.952   1.715   1.286  0.0273  0.5951  0.3611
  227SOL    HW1  680   0.971   1.803   1.239 -0.2885 -0.1749 -1.1361
  227SOL    HW2  681   1.019   1.700   1.363  0.9014 -1.2775  0.0411
  228SOL     OW  682   0.588   2.980   1.442 -0.0553 -0.2403 -0.4466
  228SOL    HW1  683   0.598   2.878   1.425  0.4876 -2.0957 -2.9940
  228SOL    HW2  684   0.532   2.991   1.529  0.8074  0.9777 -0.0822
  229SOL     OW  685   2.540   0.884   0.491  0.0463  0.1628  0.5341
  229SOL    HW1  686   2.525   0.781   0.487  1.3872 -1.3765 -2.1200
  229SOL    HW2  687   2.597   0.913   0.417 -1.8120  1.5290  3.5769
  230SOL     OW  688   0.421   1.145   1.826  0.4832  0.0457  0.2550
  230SOL    HW1  689   0.412   1.097   1.741 -0.9613  2.9980  1.0861
  230SOL    HW2  690   0.499   1.125   1.886 -1.6655 -2.3536 -0.8316
  231SOL     OW  691   1.301   2.776   1.273 -0.5398 -0.0714 -0.4495
  231SOL    HW1  692   1.337   2.873   1.272  0.3711  1.9716  0.5548
  231SOL    HW2  693   1.215   2.781   1.327 -0.3671 -1.0718 -0.5286
  232SOL     OW  694   2.427   2.355   0.181 -0.5152 -0.2434 -0.0369
  232SOL    HW1  695   2.345   2.408   0.192 -0.4729 -0.7835 -1.8950
  232SOL    HW2  696   2.416   2.267   0.131  0.6720  0.1772 -0.2250
  233SOL     OW  697   0.986   2.691   0.102 -0.2535  0.0610  0.0369
  233SOL    HW1  698   0.900   2.743   0.112 -0.1850  0.6030 -0.9200
  233SOL    HW2  699   1.006   2.669   0.004  2.4216 -0.4066  0.5106
  234SOL     OW  700   1.230   0.580   2.323 -0.2641  0.3997 -0.1658
  234SOL    HW1  701   1.311   0.573   2.262 -1.0870 -1.4270  0.1656
  234SOL    HW2  702   1.148   0.558   2.266  0.2968  2.0221  3.5537
  235SOL     OW  703   0.110   2.236   0.253  0.7079 -0.7279 -0.2828
  235SOL    HW1  704   0.121   2.321   0.309  0.1773  0.0092 -0.9079
  235SOL    HW2  705   0.133   2.150   0.305 -0.6027 -0.2594 -0.5278
  236SOL     OW  706   1.814   2.796   2.417  1.4449 -0.2555 -0.0920
  236SOL    HW1  707   1.799   2.783   2.312  0.9140 -1.0719 -2.3457
  236SOL    HW2  708   1.909   2.797   2.445 -1.8756 -1.2459 -0.7321
  237SOL     OW  709   1.896   1.310   1.574 -0.5092  0.6022  0.2858
  237SOL    HW1  710   1.970   1.348   1.519 -2.9350 -0.8162  0.6160
  237SOL    HW2  711   1.912   1.214   1.604  1.6986 -2.0752 -0.2506
  238SOL     OW  712   1.888   0.071   2.426  0.0531 -0.1078 -0.5226
  238SOL    HW1  713   1.845   0.099   2.339 -0.6456 -3.0678 -0.1936
  238SOL    HW2  714   1.827   0.020   2.493  1.5861 -1.6266 -0.8063
  239SOL     OW  715   0.731   2.049   1.593 -0.0764 -0.0916  0.5407
  239SOL    HW1  716   0.669   2.074   1.512  0.8229  1.6613  0.4515
  239SOL    HW2  717   0.775   1.956   1.584  1.3971  0.9625  1.3821
  240SOL     OW  718   0.127   2.537   0.793  0.2253 -0.0325  0.2295
  240SOL    HW1  719   0.187   2.617   0.783 -2.7386  0.2367 -0.6028
  240SOL    HW2  720   0.093   2.514   0.700 -0.4046 -0.1628  0.8020
  241SOL     OW  721   1.582   2.123   0.005  0.0242  0.4266 -0.0893
  241SOL    HW1  722   1.630   2.127   0.097 -2.7056  0.2722 -1.0761
  241SOL    HW2  723   1.654   2.148   3.038  0.1959  2.8635  0.4395
  242SOL     OW  724   2.215   1.141   0.332  0.2973  0.7402 -0.2214
  242SOL    HW1  725   2.265   1.136   0.422 -0.6812  0.7324 -0.4143
  242SOL    HW2  726   2.229   1.059   0.274 -0.2561  0.2182 -1.3542
  243SOL     OW  727   0.754   0.313   1.920 -0.1005  0.0891 -0.3582
  243SOL    HW1  728   0.829   0.328   1.851  1.9217 -0.2502  1.7897
  243SOL    HW2  729   0.686   0.393   1.933  0.6103  0.1871  0.4289
  244SOL     OW  730   1.710   3.006   2.842  0.2187 -0.2052  0.7652
  244SOL    HW1  731   1.626   2.989   2.897 -1.2937 -0.7345 -0.6599
  244SOL    HW2  732   1.748   3.097   2.867  0.7483 -1.9264 -0.1224
  245SOL     OW  733   1.621   3.073   0.068  0.4115  0.1717  0.0475
  245SOL    HW1  734   1.623   0.056   0.005 -1.8498  1.1944 -2.0813
  245SOL    HW2  735   1.533   3.030   0.055  0.0512 -1.3293 -1.1908
  246SOL     OW  736   1.114   1.170   2.211  0.6156 -0.0817 -0.0791
  246SOL    HW1  737   1.200   1.199   2.254 -1.5923  1.5050 -2.7609
  246SOL    HW2  738   1.035   1.207   2.263  0.4498 -1.6164 -0.2436
  247SOL     OW  739   3.004   0.666   2.262  0.1484 -0.3637  0.2176
  247SOL    HW1  740   3.000   0.640   2.161 -1.1615  0.3992 -0.9596
  247SOL    HW2  741   2.983   0.587   2.320  2.2567  1.7778  0.5988
  248SOL     OW  742   0.538   0.856   1.824  0.2445 -0.4291  0.1019
  248SOL    HW1  743   0.577   0.931   1.882 -1.0428 -1.6044 -1.9759
  248SOL    HW2  744   0.476   0.895   1.753  0.7340  1.3208 -1.6978
  249SOL     OW  745   2.344   0.542   0.287 -0.3369  0.0745 -0.6615
  249SOL    HW1  746   2.248   0.558   0.320  2.6440 -0.2807 -1.0825
  249SOL    HW2  747   2.369   0.444   0.289  1.0491  2.6895  0.8082
  250SOL     OW  748   2.903   0.418   0.628 -0.1598 -0.2279 -0.3560
  250SOL    HW1  749   2.981   0.475   0.657  0.1690 -0.9403 -0.1231
  250SOL    HW2  750   2.922   0.316   0.627  0.6522 -2.6497  1.8636
  251SOL     OW  751   0.870   0.914   2.275 -0.1860  0.0980  0.4853
  251SOL    HW1  752   0.860   0.859   2.359 -0.3046  0.8180  0.2164
  251SOL    HW2  753   0.963   0.899   2.228 -2.7459 -2.9047 -1.1894
  252SOL     OW  754   1.365   1.572   1.819 -0.1200 -0.1136  0.1463
  252SOL    HW1  755   1.383   1.675   1.815  2.7012  1.9116 -1.4892
  252SOL    HW2  756   1.264   1.558   1.828 -3.2766  2.0160  1.3126
  253SOL     OW  757   1.363   2.671   1.813 -0.5229  0.2398  0.1934
  253SOL    HW1  758   1.339   2.745   1.751 -1.9953 -2.7087  3.4044
  253SOL    HW2  759   1.299   2.592   1.788 -1.9664 -2.2391 -1.0668
  254SOL     OW  760   0.798   2.181   2.314 -0.4800  0.1051 -0.0804
  254SOL    HW1  761   0.879   2.129   2.279 -0.3349 -2.2780  1.0783
  254SOL    HW2  762   0.747   2.231   2.243  2.8461 -0.1957  3.9162
  255SOL     OW  763   1.353   0.497   0.586  0.1594 -0.2430 -0.2336
  255SOL    HW1  764   1.312   0.464   0.673  0.4629  2.6342 -1.1436
  255SOL    HW2  765   1.282   0.508   0.513  2.3014  0.1052  1.1591
  256SOL     OW  766   1.875   2.312   1.229 -0.6354 -0.8136 -0.1470
  256SOL    HW1  767   1.948   2.382   1.210 -1.0166 -1.0197  1.2903
  256SOL    HW2  768   1.901   2.216   1.212 -2.7266  0.1640  0.3484
  257SOL     OW  769   0.136   2.023   2.589  0.1574 -0.4750 -0.3957
  257SOL    HW1  770   0.126   1.992   2.689 -0.6106 -0.7397 -1.4944
  257SOL    HW2  771   0.134   1.942   2.530  1.1334  1.9092 -0.7677
  258SOL     OW  772   0.535   0.920   2.405 -0.0732 -0.4880  0.6360
  258SOL    HW1  773   0.608   0.975   2.354  0.1173  2.6694  1.9804
  258SOL    HW2  774   0.466   0.984   2.446 -0.0580  2.3614 -0.1503
  259SOL     OW  775   1.290   0.925   2.376  0.1199  0.0071  0.1194
  259SOL    HW1  776   1.228   0.858   2.327  4.2959  0.2339  1.3464
  259SOL    HW2  777   1.381   0.881   2.383 -1.5204 -3.7969 -2.0488
  260SOL     OW  778   1.812   0.593   0.732 -0.1024  0.2915 -0.0980
  260SOL    HW1  779   1.716   0.624   0.716  2.4676 -1.4980  1.6033
  260SOL    HW2  780   1.832   0.560   0.827  0.2849 -0.2627 -0.1471
  261SOL     OW  781   0.968   0.530   3.051 -0.4629  0.6163 -0.6114
  261SOL    HW1  782   0.901   0.463   3.092 -1.0339 -1.1432  2.7454
  261SOL    HW2  783   0.931   0.561   2.957 -0.2487 -0.7123 -1.5922
  262SOL     OW  784   2.554   2.983   2.855  0.1539 -0.5433  0.3259
  262SOL    HW1  785   2.643   3.037   2.864  0.9804 -1.6616 -1.2371
  262SOL    HW2  786   2.521   3.000   2.757 -0.0096  1.9628  1.5447
  263SOL     OW  787   0.693   1.885   3.030  0.2731  0.2385  0.1756
  263SOL    HW1  788   0.788   1.872   3.062 -1.3893  0.9576 -0.2549
  263SOL    HW2  789   0.689   1.922   2.935 -1.0246  3.0605 -2.0383
  264SOL     OW  790   0.468   1.718   1.610 -0.0781  0.3104 -0.3247
  264SOL    HW1  791   0.528   1.644   1.639 -2.8943 -0.2967  2.1085
  264SOL    HW2  792   0.485   1.804   1.660 -0.5996  0.7824 -0.7461
  265SOL     OW  793   0.594   1.219   0.383  0.1881  0.3633  0.1853
  265SOL    HW1  794   0.555   1.197   0.287 -3.1982 -1.4879 -0.8859
  265SOL    HW2  795   0.680   1.165   0.402 -1.6268 -1.7871 -1.1799
  266SOL     OW  796   1.965   1.637   0.298 -0.3016 -0.2543 -0.1697
  266SOL    HW1  797   1.951   1.731   0.333  2.7787 -1.6181  0.7499
  266SOL    HW2  798   1.951   1.645   0.197  0.2288 -0.6557  1.6644
  267SOL     OW  799   2.788   0.182   3.036 -0.1257  0.2941 -0.7706
  267SOL    HW1  800   2.885   0.181   3.005 -2.0178 -0.9732 -0.5921
  267SOL    HW2  801   2.731   0.239   2.975  0.3179 -2.1798  0.1166
  268SOL     OW  802   0.488   0.278   2.970  0.2615 -0.6302 -0.5036
  268SOL    HW1  803   0.516   0.343   3.051 -1.4369  3.0134  2.6378
  268SOL    HW2  804   0.411   0.325   2.916  0.0576 -0.1517 -3.1990
  269SOL     OW  805   1.803   0.568   2.826  0.2109 -0.7322  0.2323
  269SOL    HW1  806   1.862   0.625   2.763 -0.4041  0.5394 -0.5120
  269SOL    HW2  807   1.705   0.587   2.825  3.8301 -0.7661  0.6503
  270SOL     OW  808   1.118   0.939   2.571 -0.2793 -0.7561 -0.5720
  270SOL    HW1  809   1.194   0.948   2.501  0.5424  3.0301 -0.5606
  270SOL    HW2  810   1.076   1.033   2.584 -1.2672  2.7211  1.1042
  271SOL     OW  811   2.455   0.945   0.147  0.1405 -0.2544 -0.3773
  271SOL    HW1  812   2.457   1.027   0.084  0.0601 -1.6239 -0.1709
  271SOL    HW2  813   2.489   0.866   0.098 -0.2785  1.8202 -2.4585
  272SOL     OW  814   2.464   1.966   2.793  0.5237  0.2431 -0.1670
  272SOL    HW1  815   2.485   2.065   2.783 -0.9361  0.8901 -0.1425
  272SOL    HW2  816   2.502   1.917   2.715  0.3386 -0.1502  2.5311
  273SOL     OW  817   2.453   0.497   2.984 -0.2204 -0.0903 -0.4577
  273SOL    HW1  818   2.351   0.476   2.992 -0.8784 -0.6588  1.9693
  273SOL    HW2  819   2.502   0.416   2.952 -1.2786  1.1533 -0.4485
  274SOL     OW  820   0.202   3.015   1.462 -0.4097  0.4391 -0.0091
  274SOL    HW1  821   0.217   2.923   1.424  0.4700  2.5556  0.9280
  274SOL    HW2  822   0.280   3.032   1.527  0.5023  0.3781 -0.0073
  275SOL     OW  823   2.075   1.553   0.754  0.6916  0.0270 -0.0303
  275SOL    HW1  824   2.013   1.467   0.757 -1.4295 -2.8803 -1.5316
  275SOL    HW2  825   2.132   1.549   0.671 -0.7030  0.4995 -0.0989
  276SOL     OW  826   0.290   1.379   2.563  0.2028  0.1298 -0.8047
  276SOL    HW1  827   0.368   1.429   2.604 -1.0666 -2.2170 -1.4921
  276SOL    HW2  828   0.246   1.427   2.476  0.6221 -1.1552 -1.3790
  277SOL     OW  829   1.628   2.648   1.850 -0.1657 -0.1903 -0.0329
  277SOL    HW1  830   1.664   2.725   1.907  1.1075 -0.5759 -1.5834
  277SOL    HW2  831   1.531   2.649   1.836  2.6106  0.1357  0.8130
  278SOL     OW  832   1.578   0.422   1.608 -0.2771  0.2316  0.1416
  278SOL    HW1  833   1.554   0.325   1.575 -0.4245  0.0393  1.2023
  278SOL    HW2  834   1.618   0.479   1.535 -0.7202  2.2274  1.0403
  279SOL     OW  835   1.708   1.282   0.086  0.2824  0.4308 -0.3480
  279SOL    HW1  836   1.723   1.183   0.101  3.0807  0.9833  1.5632
  279SOL    HW2  837   1.748   1.331   0.164 -0.7076 -2.7212 -0.0761
  280SOL     OW  838   0.780   1.559   1.011  0.2912 -0.0260  0.2465
  280SOL    HW1  839   0.774   1.628   0.934  1.3640  2.1605  0.6379
  280SOL    HW2  840   0.699   1.573   1.073  2.0839  0.2572 -0.0308
  281SOL     OW  841   0.169   0.132   2.613  0.4447  0.1064  0.5561
  281SOL    HW1  842   0.215   0.175   2.532  1.9086  0.3890 -1.7162
  281SOL    HW2  843   0.237   0.090   2.680  1.1778  0.8860  1.6162
  282SOL     OW  844   0.430   0.991   1.384  0.7883  0.5344 -0.1179
  282SOL    HW1  845   0.434   1.069   1.318  1.2563 -1.4631 -2.4788
  282SOL    HW2  846   0.346   0.930   1.369  1.6960 -2.6392 -2.3383
  283SOL     OW  847   1.814   2.275   2.735 -0.1384  0.0853 -0.3987
  283SOL    HW1  848   1.814   2.378   2.734  0.1039  0.0187  0.3151
  283SOL    HW2  849   1.739   2.244   2.676  3.2906  1.8648 -0.0475
  284SOL     OW  850   1.958   1.219   0.454 -0.0859  0.0412 -0.3266
  284SOL    HW1  851   1.906   1.280   0.391 -1.0652  0.0760 -0.7544
  284SOL    HW2  852   2.051   1.204   0.420 -0.6765  0.0817 -1.2954
  285SOL     OW  853   3.039   0.112   2.955  0.2303 -0.0517 -0.4854
  285SOL    HW1  854   0.030   0.116   3.008  0.0417  0.7161 -0.7542
  285SOL    HW2  855   3.053   0.068   2.865  0.1129 -0.4281  0.3923
  286SOL     OW  856   1.650   2.988   1.597 -0.1486 -0.0906  0.0195
  286SOL    HW1  857   1.627   2.900   1.549  3.2910 -2.8865 -2.1645
  286SOL    HW2  858   1.745   3.020   1.570  0.5131  2.2766 -0.2844
  287SOL     OW  859   0.829   1.018   1.397 -0.0816  0.1048 -0.5325
  287SOL    HW1  860   0.792   0.975   1.482  2.2950 -0.8642 -0.0548
  287SOL    HW2  861   0.802   1.114   1.391 -0.6678 -3.2208  1.2670
  288SOL     OW  862   1.385   2.582   0.210 -0.1562  0.3106 -0.4992
  288SOL    HW1  863   1.460   2.645   0.243  1.2117  0.5619 -1.0500
  288SOL    HW2  864   1.354   2.520   0.282 -1.9618 -2.4229 -1.2332
  289SOL     OW  865   3.008   1.458   2.803  0.1627  0.6001  0.3680
  289SOL    HW1  866   3.039   1.554   2.773 -0.0510 -1.1960  2.3409
  289SOL    HW2  867   3.021   1.390   2.731 -2.4802  0.2502  0.8854
  290SOL     OW  868   1.104   2.539   0.498  0.1145 -0.0065 -0.3609
  290SOL    HW1  869   1.057   2.617   0.537  1.8757 -2.4150 -0.4508
  290SOL    HW2  870   1.183   2.509   0.552 -0.2192 -0.4736 -2.7412
  291SOL     OW  871   2.164   2.730   2.983 -0.8707 -0.0075  0.3318
  291SOL    HW1  872   2.244   2.721   2.918  0.2771  1.5776 -2.0655
  291SOL    HW2  873   2.092   2.780   2.938  1.8799 -2.7724  1.9342
  292SOL     OW  874   0.834   1.228   1.904  0.1698  0.5553  0.8834
  292SOL    HW1  875   0.935   1.247   1.887  3.0399 -0.5044  0.3282
  292SOL    HW2  876   0.793   1.215   1.814  2.4036  2.0904  0.3298
  293SOL     OW  877   2.381   2.748   1.208  0.1877  0.3742 -0.1799
  293SOL    HW1  878   2.323   2.833   1.209  0.8997 -2.6918 -0.3857
  293SOL    HW2  879   2.476   2.764   1.169  2.3537  0.5170  1.0520
  294SOL     OW  880   3.066   0.545   2.545  0.1594  0.0317 -0.5318
  294SOL    HW1  881   2.982   0.606   2.572 -3.6250 -1.0346  2.3671
  294SOL    HW2  882   0.052   0.587   2.582  0.7060 -3.1679 -0.3535
  295SOL     OW  883   1.132   1.745   0.192 -0.2396  0.1958  0.2933
  295SOL    HW1  884   1.034   1.723   0.193 -1.4303  0.8762 -1.8655
  295SOL    HW2  885   1.141   1.831   0.139  0.2788 -0.2731  1.3178
  296SOL     OW  886   2.008   1.946   2.779  0.4766 -0.2842  0.0792
  296SOL    HW1  887   1.998   2.034   2.738 -1.2732  0.7637  0.3639
  296SOL    HW2  888   2.094   1.900   2.750 -1.6145  0.3407 -1.2516
  297SOL     OW  889   2.530   0.658   0.110 -0.3617  0.0567 -0.2975
  297SOL    HW1  890   2.498   0.606   0.029  3.9312  0.4354  0.6960
  297SOL    HW2  891   2.473   0.633   0.196 -1.7022 -0.7266  3.4838
  298SOL     OW  892   0.741   1.923   2.736 -0.3521 -0.4653  0.2189
  298SOL    HW1  893   0.724   1.933   2.636  2.3845  2.9760  2.4825
  298SOL    HW2  894   0.701   2.002   2.787  0.6002 -0.0359  1.8114
  299SOL     OW  895   1.234   2.894   2.542 -0.2793  0.2628  0.3645
  299SOL    HW1  896   1.329   2.904   2.512 -2.1556  0.1739  0.0295
  299SOL    HW2  897   1.169   2.947   2.485 -0.6374 -0.7073 -0.4454
  300SOL     OW  898   2.758   0.355   0.137  0.0978  0.0319 -0.2269
  300SOL    HW1  899   2.779   0.453   0.116  2.9607  0.8572 -0.5737
  300SOL    HW2  900   2.785   0.298   0.057 -0.0756  1.1078 -0.2020
  301SOL     OW  901   1.084   0.970   1.535  0.2361 -0.0126  0.7355
  301SOL    HW1  902   1.166   0.996   1.478  2.8594 -3.2925 -0.4667
  301SOL    HW2  903   1.000   1.000   1.488  0.1167 -1.9206  0.3420
  302SOL     OW  904   0.011   2.210   0.007  0.1379 -0.2262 -0.0706
  302SOL    HW1  905   0.046   2.237   0.101  0.1403  2.9786 -0.2854
  302SOL    HW2  906   3.017   2.250   0.001  1.6305 -0.3295  2.1911
  303SOL     OW  907   2.905   2.848   2.745 -0.3979 -0.3206  0.3348
  303SOL    HW1  908   2.963   2.925   2.711  1.5453  0.3633  1.6563
  303SOL    HW2  909   2.871   2.788   2.671 -0.5778  1.1739 -1.4187
  304SOL     OW  910   2.681   0.786   2.221  0.1774 -0.5178  0.0625
  304SOL    HW1  911   2.643   0.874   2.259 -0.3799  0.9661 -0.2917
  304SOL    HW2  912   2.602   0.732   2.192  2.5561  0.9149  0.2922
  305SOL     OW  913   0.508   2.585   2.333 -0.3431 -0.0842  0.1419
  305SOL    HW1  914   0.540   2.676   2.366  0.2385 -1.6080 -0.0902
  305SOL    HW2  915   0.547   2.499   2.378  1.9891 -3.4441 -3.1406
  306SOL     OW  916   2.766   0.848   1.758  0.1348 -0.3670  0.0197
  306SOL    HW1  917   2.770   0.949   1.743 -2.0097  1.9108 -3.4264
  306SOL    HW2  918   2.674   0.816   1.781  1.9195  0.6531  0.8603
  307SOL     OW  919   1.658   0.612   1.427 -0.2020 -0.1081  1.0435
  307SOL    HW1  920   1.726   0.680   1.387  0.6043  1.3727 -2.4354
  307SOL    HW2  921   1.575   0.593   1.365  1.3179 -0.1812  1.5749
  308SOL     OW  922   2.392   1.743   1.086 -0.3827  0.5204  0.2446
  308SOL    HW1  923   2.321   1.815   1.072  0.5003  0.0612 -0.3657
  308SOL    HW2  924   2.444   1.724   0.997  0.8617 -1.0172 -0.3748
  309SOL     OW  925   2.204   1.502   1.638  0.2334  0.3599  0.5367
  309SOL    HW1  926   2.265   1.581   1.619 -0.3496  0.4667  0.5190
  309SOL    HW2  927   2.237   1.419   1.587  0.3007 -0.7924 -2.3104
  310SOL     OW  928   2.837   1.800   2.692 -0.7698  0.2272  0.2995
  310SOL    HW1  929   2.837   1.880   2.755 -1.6410 -3.6987 -0.2013
  310SOL    HW2  930   2.754   1.743   2.702  3.1735 -0.0387 -1.0723
  311SOL     OW  931   2.245   2.341   2.681 -0.3818  0.3496  1.1057
  311SOL    HW1  932   2.180   2.272   2.641  0.0430 -1.0148  0.1773
  311SOL    HW2  933   2.340   2.302   2.680  2.7746 -4.6961 -0.5347
  312SOL     OW  934   2.141   1.926   1.355 -0.5400 -0.2789 -0.1560
  312SOL    HW1  935   2.098   1.888   1.441 -0.0880 -0.3519 -0.5319
  312SOL    HW2  936   2.209   2.001   1.379  1.5990 -1.1091 -0.1135
  313SOL     OW  937   2.257   2.410   1.123  0.0682 -0.5427  0.5544
  313SOL    HW1  938   2.311   2.461   1.050 -0.6913 -0.0913  0.9523
  313SOL    HW2  939   2.325   2.364   1.184  2.6721 -0.4295  1.5460
  314SOL     OW  940   0.898   2.119   0.493 -0.1193 -0.3293  0.3598
  314SOL    HW1  941   0.842   2.140   0.574  1.6059  0.8022 -1.3058
  314SOL    HW2  942   0.854   2.056   0.426 -0.2424  1.2229 -1.7407
  315SOL     OW  943   0.609   2.493   2.597  0.2764 -0.6045  0.0177
  315SOL    HW1  944   0.641   2.394   2.600 -0.4551 -1.2882  2.1617
  315SOL    HW2  945   0.674   2.564   2.556 -0.7343  2.1201  0.8906
  316SOL     OW  946   0.084   0.524   0.420  0.3409 -0.6330 -0.4694
  316SOL    HW1  947   0.049   0.623   0.434 -2.2923 -0.6316  0.4688
  316SOL    HW2  948   0.014   0.469   0.371 -0.2829 -0.4031  2.4859
  317SOL     OW  949   1.188   0.422   0.834 -0.1640  0.1887 -0.0335
  317SOL    HW1  950   1.184   0.349   0.904 -1.3787 -2.6202  0.8251
  317SOL    HW2  951   1.104   0.438   0.777  0.9149  2.0329 -0.9600
  318SOL     OW  952   3.010   2.433   0.565 -0.3991 -0.3062  0.4137
  318SOL    HW1  953   2.984   2.535   0.554  0.7397  0.9157 -0.5240
  318SOL    HW2  954   2.982   2.401   0.655 -0.7405 -0.1030 -0.9077
  319SOL     OW  955   0.363   1.720   2.401 -0.2519  0.7256  0.1742
  319SOL    HW1  956   0.420   1.731   2.488  1.4371  3.0836  3.3291
  319SOL    HW2  957   0.267   1.746   2.419  0.6651 -2.2587 -0.4412
  320SOL     OW  958   0.607   2.831   2.373  0.1141  0.1914 -0.4809
  320SOL    HW1  959   0.600   2.882   2.285 -0.3249 -3.8886 -2.4896
  320SOL    HW2  960   0.621   2.896   2.450  0.4986 -1.4335 -0.6238
  321SOL     OW  961   1.245   2.824   0.147 -0.3596  0.1398  0.1514
  321SOL    HW1  962   1.309   2.753   0.173  0.1954  2.9494 -3.4481
  321SOL    HW2  963   1.151   2.785   0.130  1.8846 -0.2119 -1.5759
  322SOL     OW  964   2.368   1.092   2.065 -0.5000 -0.0353 -0.2905
  322SOL    HW1  965   2.422   1.172   2.027 -1.2353 -0.1363 -1.0418
  322SOL    HW2  966   2.287   1.118   2.125 -1.8745 -0.0875 -1.7985
  323SOL     OW  967   2.530   0.612   0.493  0.0915 -0.2210  0.0186
  323SOL    HW1  968   2.464   0.580   0.422 -1.4119 -3.1657 -1.5869
  323SOL    HW2  969   2.530   0.549   0.573  1.7301  1.9146  4.3204
  324SOL     OW  970   0.480   2.918   3.079  0.5159 -0.4536 -0.1257
  324SOL    HW1  971   0.472   3.019   3.057 -0.1842  0.3715 -2.1054
  324SOL    HW2  972   0.452   2.866   3.001 -0.0096  1.7856  1.6595
  325SOL     OW  973   1.580   0.297   2.511  0.2170 -0.1027 -0.1424
  325SOL    HW1  974   1.622   0.249   2.594  3.4775 -0.0559  1.5917
  325SOL    HW2  975   1.478   0.305   2.531 -1.0020  1.3700 -1.9729
  326SOL     OW  976   2.377   2.653   1.465  0.4397 -0.3320  0.2117
  326SOL    HW1  977   2.305   2.614   1.529 -2.7747 -0.5473  1.0137
  326SOL    HW2  978   2.348   2.647   1.365  1.4526  0.2858 -0.5223
  327SOL     OW  979   1.436   0.412   3.011  0.4827 -0.4148 -0.0053
  327SOL    HW1  980   1.365   0.453   3.072  1.1554  0.0029 -0.2576
  327SOL    HW2  981   1.516   0.384   3.068 -0.7932  0.5369  1.1664
  328SOL     OW  982   2.700   1.330   2.470 -0.4968 -0.1577  0.5215
  328SOL    HW1  983   2.616   1.384   2.487 -1.7050  2.0965 -0.6177
  328SOL    HW2  984   2.784   1.383   2.438  1.0376  0.7950  0.8219
  329SOL     OW  985   1.516   3.040   1.831 -0.3828 -0.4138 -0.0819
  329SOL    HW1  986   1.562   3.015   1.740 -0.3733 -0.9488  0.0440
  329SOL    HW2  987   1.413   3.044   1.816 -1.4955  1.7728 -2.1371
  330SOL     OW  988   2.757   1.226   1.466 -0.2782 -0.0529  0.1186
  330SOL    HW1  989   2.741   1.276   1.375 -2.9224  1.5022 -0.0355
  330SOL    HW2  990   2.821   1.150   1.460 -2.1180 -0.0884 -1.6494
  331SOL     OW  991   0.425   1.442   1.390 -0.2100 -0.2987 -0.2677
  331SOL    HW1  992   0.486   1.524   1.368 -1.7560  2.4031  1.1819
  331SOL    HW2  993   0.335   1.450   1.343  0.4195  0.3731 -0.8555
  332SOL     OW  994   0.831   0.299   1.397 -0.1158 -0.0634  0.2309
  332SOL    HW1  995   0.901   0.339   1.328  0.9493  3.4723 -2.8247
  332SOL    HW2  996   0.736   0.323   1.366  0.3962 -0.3419 -0.8668
  333SOL     OW  997   2.215   2.487   1.923 -0.1450 -0.2093 -0.2346
  333SOL    HW1  998   2.213   2.398   1.977  0.1560  0.1005 -0.5568
  333SOL    HW2  999   2.155   2.566   1.959  0.4155  1.9013 -2.6194
  334SOL     OW 1000   1.125   1.387   1.437  0.1876 -0.8459  0.3751
  334SOL    HW1 1001   1.105   1.488   1.448  3.1416  2.3715 -1.5198
  334SOL    HW2 1002   1.224   1.375   1.415  1.5581  1.6312  0.4285
  335SOL     OW 1003   0.922   2.916   2.996  0.0065  0.4915 -0.1142
  335SOL    HW1 1004   0.896   2.884   3.094 -2.5450  0.0053  0.7737
  335SOL    HW2 1005   0.961   2.834   2.947  2.6115 -0.9754 -0.5902
  336SOL     OW 1006   3.086   2.809   1.991  0.4461 -0.2723  0.2059
  336SOL    HW1 1007   3.069   2.866   2.074  1.9479 -1.8014  1.4495
  336SOL    HW2 1008   3.006   2.748   1.972 -2.7151  0.1173  0.6165
  337SOL     OW 1009   2.645   1.591   0.569  0.5022 -0.4462  0.2088
  337SOL    HW1 1010   2.546   1.595   0.553 -2.7200 -1.8665 -0.5772
  337SOL    HW2 1011   2.690   1.594   0.476  2.7390  3.5243  1.3444
  338SOL     OW 1012   1.133   2.101   1.180  0.1131  0.3310  0.0589
  338SOL    HW1 1013   1.206   2.027   1.178  1.7603 -4.3362  1.3527
  338SOL    HW2 1014   1.038   2.069   1.163 -0.2184  1.1592 -2.0557
  339SOL     OW 1015   2.950   0.926   2.390 -0.5468  0.1672 -0.3350
  339SOL    HW1 1016   2.966   0.833   2.349  0.3970 -1.2671 -0.2709
  339SOL    HW2 1017   3.044   0.968   2.403  0.4917 -0.1741 -0.6137
  340SOL     OW 1018   1.701   2.908   1.146  0.3647 -0.6213  0.0941
  340SOL    HW1 1019   1.803   2.905   1.150 -0.9146 -0.4121  0.6755
  340SOL    HW2 1020   1.671   2.860   1.059 -0.8676 -0.3870 -0.4321
  341SOL     OW 1021   1.830   1.800   1.049 -0.0514  0.0151 -0.2088
  341SOL    HW1 1022   1.917   1.756   1.019 -0.5946 -2.1568  0.5026
  341SOL    HW2 1023   1.850   1.879   1.113 -0.3151  0.0498 -0.2373
  342SOL     OW 1024   0.450   1.550   0.950  0.3667  0.2484 -0.3680
  342SOL    HW1 1025   0.363   1.499   0.921 -3.0679  1.2181 -1.6854
  342SOL    HW2 1026   0.449   1.649   0.922  2.1805  1.9636  3.7798
  343SOL     OW 1027   2.387   0.390   1.470  0.5120  0.4012  0.0085
  343SOL    HW1 1028   2.427   0.467   1.524  3.4660  1.3440  0.3766
  343SOL    HW2 1029   2.336   0.415   1.385  0.6716 -0.1499 -0.8875
  344SOL     OW 1030   2.072   2.298   0.676  0.2390  0.3228 -0.0778
  344SOL    HW1 1031   2.026   2.225   0.729 -0.1861 -0.0761  0.0458
  344SOL    HW2 1032   2.175   2.294   0.660 -0.4273 -2.7582 -0.7855
  345SOL     OW 1033   3.010   2.618   2.570 -0.5771 -0.8877 -0.2174
  345SOL    HW1 1034   0.011   2.647   2.559  1.7245 -0.9398 -0.8767
  345SOL    HW2 1035   2.997   2.521   2.558  0.1245  0.4419  0.2819
  346SOL     OW 1036   0.124   1.176   0.726 -0.1857  0.1163  0.0796
  346SOL    HW1 1037   0.179   1.236   0.792  0.3481  0.1835  0.8212
  346SOL    HW2 1038   0.116   1.215   0.628  0.3382  0.7596 -1.2286
  347SOL     OW 1039   1.950   2.846   1.073 -0.3326  0.8082 -0.0264
  347SOL    HW1 1040   2.039   2.894   1.092 -1.1912 -2.1719 -1.2275
  347SOL    HW2 1041   1.949   2.799   0.980 -2.0126 -3.1775  0.5226
  348SOL     OW 1042   1.492   1.433   2.363 -0.2247 -0.1846 -0.2406
  348SOL    HW1 1043   1.424   1.359   2.363  1.9989  1.3544  0.6316
  348SOL    HW2 1044   1.509   1.466   2.268  1.0457 -1.4366  0.6888
  349SOL     OW 1045   2.166   1.179   2.205 -0.0054 -0.0437 -0.2454
  349SOL    HW1 1046   2.105   1.135   2.278 -0.8886 -2.3111  2.1902
  349SOL    HW2 1047   2.205   1.267   2.238  0.6694 -0.9562  0.4987
  350SOL     OW 1048   3.071   1.854   0.886  0.0431  0.2392 -0.0971
  350SOL    HW1 1049   0.057   1.841   0.938 -1.7333 -0.3932 -1.1821
  350SOL    HW2 1050   3.070   1.948   0.854 -0.0291 -3.3829  1.1913
  351SOL     OW 1051   0.780   0.404   2.465 -0.0133 -0.7314 -0.3241
  351SOL    HW1 1052   0.847   0.442   2.534  2.6262  1.4800  1.8472
  351SOL    HW2 1053   0.771   0.463   2.386 -1.0007 -1.2690 -0.5207
  352SOL     OW 1054   0.786   2.715   1.699  0.5573 -0.1732 -0.1893
  352SOL    HW1 1055   0.755   2.753   1.789 -1.1522  0.8381  0.0248
  352SOL    HW2 1056   0.813   2.793   1.634  1.2712 -1.3158 -1.1733
  353SOL     OW 1057   0.530   1.426   2.188 -0.1854 -0.0152 -0.0043
  353SOL    HW1 1058   0.441   1.382   2.171 -0.1974  2.6328 -1.0469
  353SOL    HW2 1059   0.516   1.528   2.191  1.3992 -0.7860 -2.3205
  354SOL     OW 1060   1.913   1.328   0.700 -0.1863  0.0952  0.4274
  354SOL    HW1 1061   1.816   1.343   0.726  1.6420 -0.7730 -0.4224
  354SOL    HW2 1062   1.914   1.285   0.607  0.7631 -0.5618 -1.0891
  355SOL     OW 1063   2.520   0.087   0.723 -0.5005  0.1334  0.2757
  355SOL    HW1 1064   2.555   0.005   0.675 -2.3929 -1.5630 -1.4137
  355SOL    HW2 1065   2.586   0.118   0.791 -1.5858  0.8831  0.2031
  356SOL     OW 1066   3.006   1.273   2.595  0.4380  0.6172 -0.5369
  356SOL    HW1 1067   2.969   1.338   2.528  1.4714 -2.7809 -0.8202
  356SOL    HW2 1068   3.075   1.208   2.555  0.7835  1.1631 -0.1692
  357SOL     OW 1069   0.448   3.010   1.645  0.3692 -0.4667  0.5652
  357SOL    HW1 1070   0.406   2.922   1.674  1.6992 -2.6106 -0.7375
  357SOL    HW2 1071   0.405   3.086   1.703 -0.0947  1.0479  1.1294
  358SOL     OW 1072   2.929   1.458   2.405 -0.1819 -0.5271 -0.5180
  358SOL    HW1 1073   2.983   1.454   2.314  3.4654  2.5908 -0.1171
  358SOL    HW2 1074   2.892   1.555   2.425 -1.0928  0.7401  2.4152
  359SOL     OW 1075   2.599   2.412   2.898 -0.6073 -0.3676  0.1003
  359SOL    HW1 1076   2.641   2.497   2.864 -0.2005  2.0883  1.8553
  359SOL    HW2 1077   2.542   2.426   2.981  0.6204 -0.8210 -0.4080
  360SOL     OW 1078   1.473   1.370   1.048 -0.1672 -0.8060 -0.1380
  360SOL    HW1 1079   1.508   1.292   0.991  1.5279  2.6904 -2.8682
  360SOL    HW2 1080   1.515   1.460   1.024 -0.9163  0.4323 -2.5009
  361SOL     OW 1081   2.037   2.533   1.192 -0.6005  0.1959 -0.0910
  361SOL    HW1 1082   2.116   2.479   1.155  0.0185 -0.6972 -0.0238
  361SOL    HW2 1083   2.024   2.616   1.140  2.0437 -1.3438  1.8142
  362SOL     OW 1084   1.618   1.617   1.036  0.0335  0.1144 -0.2925
  362SOL    HW1 1085   1.709   1.666   1.032 -0.3430  2.1909 -1.5242
  362SOL    HW2 1086   1.578   1.617   0.939  0.2702  0.5694 -4.1029
  363SOL     OW 1087   2.688   2.088   3.085  0.2281  0.2150 -0.2687
  363SOL    HW1 1088   2.589   2.122   3.081 -0.5290  2.1578  0.4867
  363SOL    HW2 1089   2.750   2.164   0.005  0.5853  0.7270 -0.7411
  364SOL     OW 1090   2.253   0.297   1.678 -0.8552  0.0422  0.4640
  364SOL    HW1 1091   2.310   0.325   1.596  0.6692  0.6990 -0.6771
  364SOL    HW2 1092   2.263   0.367   1.754 -0.2253  3.1269  1.6811
  365SOL     OW 1093   2.858   2.454   1.406 -0.0395  0.0313 -0.3329
  365SOL    HW1 1094   2.936   2.489   1.465 -0.9006 -1.7356 -0.3714
  365SOL    HW2 1095   2.892   2.383   1.340  1.5727  0.8979  0.3898
  366SOL     OW 1096   3.079   1.177   0.002  0.0984  0.5536 -0.0129
  366SOL    HW1 1097   2.985   1.168   3.067  1.0377 -0.1614  0.7972
  366SOL    HW2 1098   0.007   1.096   0.059 -1.6703  0.1073  0.5658
  367SOL     OW 1099   2.393   2.525   3.050 -0.1088 -0.2359  0.3602
  367SOL    HW1 1100   2.379   2.566   2.956  2.6437  0.0998  0.7043
  367SOL    HW2 1101   2.389   2.588   0.027  1.2286 -0.7973 -1.3609
  368SOL     OW 1102   0.017   1.848   1.508  0.3009 -0.0947  1.2821
  368SOL    HW1 1103   0.035   1.945   1.533  0.4238  1.1628 -1.3558
  368SOL    HW2 1104   3.018   1.832   1.502  0.1666 -0.1372  1.5198
  369SOL     OW 1105   0.461   0.192   0.772  0.1691  0.8923 -0.2270
  369SOL    HW1 1106   0.454   0.250   0.856 -0.5410 -0.9572 -0.8131
  369SOL    HW2 1107   0.486   0.243   0.688  0.5382 -1.8255 -0.3068
  370SOL     OW 1108   0.874   0.376   0.941 -0.1039  0.2253 -0.3018
  370SOL    HW1 1109   0.786   0.424   0.961 -1.5072  0.9175  2.0201
  370SOL    HW2 1110   0.924   0.418   0.860  0.5673  2.9559 -0.2465
  371SOL     OW 1111   2.537   1.804   0.260 -0.5341  0.4268 -0.1060
  371SOL    HW1 1112   2.606   1.750   0.310 -1.7505  1.2427 -0.3855
  371SOL    HW2 1113   2.583   1.866   0.190 -0.2627  0.2107 -2.6498
  372SOL     OW 1114   0.260   0.971   2.659 -0.0568  0.2159  0.6891
  372SOL    HW1 1115   0.244   0.982   2.758 -0.2287 -0.2334 -0.4015
  372SOL    HW2 1116   0.352   1.012   2.632 -0.9614  0.5348 -0.3600
  373SOL     OW 1117   3.022   0.765   0.458  0.2893  0.2007  0.3252
  373SOL    HW1 1118   3.035   0.814   0.545 -1.5468  0.7977 -1.8555
  373SOL    HW2 1119   2.931   0.716   0.450  0.7438 -0.6564 -0.3177
  374SOL     OW 1120   0.692   2.171   2.878 -0.2523 -0.5288  0.4691
  374SOL    HW1 1121   0.697   2.248   2.944 -1.0831 -0.8517 -2.3653
  374SOL    HW2 1122   0.736   2.193   2.790 -3.4307 -3.5834  0.2831
  375SOL     OW 1123   1.211   0.458   0.067 -0.2479  0.0733  0.2947
  375SOL    HW1 1124   1.149   0.506   3.097 -0.6985  1.1307 -0.5136
  375SOL    HW2 1125   1.151   0.419   0.136 -0.0776 -0.2201 -2.1803
  376SOL     OW 1126   0.145   2.975   1.836  0.7400 -0.6108 -0.5929
  376SOL    HW1 1127   0.084   2.917   1.892  3.6932 -0.7661 -0.2087
  376SOL    HW2 1128   0.214   2.922   1.792 -3.3497  2.4087  2.7231
  377SOL     OW 1129   3.097   2.225   2.454 -0.0886 -0.0187 -0.0630
  377SOL    HW1 1130   0.066   2.296   2.427 -0.9924  1.2015  2.0906
  377SOL    HW2 1131   0.042   2.155   2.511 -0.8035  0.7083  2.2623
  378SOL     OW 1132   1.447   0.944   0.601  0.3808  0.4210 -0.0410
  378SOL    HW1 1133   1.376   0.987   0.536 -0.8996  3.3653  0.3478
  378SOL    HW2 1134   1.443   0.983   0.697  1.1861 -0.5425 -0.0764
  379SOL     OW 1135   1.229   1.069   0.486  0.0324 -0.2732 -0.3323
  379SOL    HW1 1136   1.298   1.131   0.443 -0.3895  0.6785 -4.3738
  379SOL    HW2 1137   1.159   1.120   0.538  1.0426  1.9054  0.8964
  380SOL     OW 1138   2.230   2.269   2.064 -0.2219  0.2312 -0.1869
  380SOL    HW1 1139   2.311   2.282   2.127 -0.3703 -0.6749  1.0416
  380SOL    HW2 1140   2.209   2.170   2.056 -2.5226 -2.2501 -2.4433
  381SOL     OW 1141   0.134   1.045   2.255 -0.3377 -0.9434  0.0252
  381SOL    HW1 1142   0.062   1.039   2.181 -1.4961  0.7825 -3.7037
  381SOL    HW2 1143   0.159   0.954   2.290  2.4453 -2.1465 -1.6650
  382SOL     OW 1144   2.828   2.316   0.015  0.2055 -0.3101  0.2710
  382SOL    HW1 1145   2.805   2.340   3.022  2.7119 -1.9418  4.2750
  382SOL    HW2 1146   2.783   2.380   0.080  1.0399 -2.5363 -0.3052
  383SOL     OW 1147   1.549   1.177   2.103  0.5521 -0.1049  0.0188
  383SOL    HW1 1148   1.500   1.169   2.011  2.5979  1.5216 -2.0613
  383SOL    HW2 1149   1.649   1.167   2.088  0.6623 -0.3738  1.3210
  384SOL     OW 1150   0.679   1.921   2.453 -0.2886 -0.4685 -0.5347
  384SOL    HW1 1151   0.703   2.012   2.414  3.4857 -0.1516 -1.5828
  384SOL    HW2 1152   0.751   1.850   2.445  3.0939  0.8551 -0.2087
  385SOL     OW 1153   2.831   1.896   0.513 -0.2192  0.1792  0.3426
  385SOL    HW1 1154   2.852   1.945   0.424  2.1853  0.4918  1.6273
  385SOL    HW2 1155   2.794   1.960   0.580 -1.2236  0.1984 -0.3074
  386SOL     OW 1156   1.320   1.027   0.168 -0.0758  0.3308  0.3845
  386SOL    HW1 1157   1.394   1.098   0.165 -0.8449 -2.5568 -0.0237
  386SOL    HW2 1158   1.337   0.965   0.244 -1.9662 -1.2658  0.0001
  387SOL     OW 1159   0.073   0.352   1.711 -0.0576  0.2587 -0.0722
  387SOL    HW1 1160   0.169   0.365   1.687 -0.1040 -0.2557  2.4037
  387SOL    HW2 1161   0.057   0.252   1.723 -2.0762  1.7914  0.0512
  388SOL     OW 1162   2.772   0.766   1.332 -0.2025 -0.2507 -0.0824
  388SOL    HW1 1163   2.754   0.825   1.250  1.4012 -2.2547  0.7050
  388SOL    HW2 1164   2.834   0.691   1.313 -0.5762  0.6290 -0.8876
  389SOL     OW 1165   1.851   1.268   2.634 -0.2176 -0.2233  0.4175
  389SOL    HW1 1166   1.785   1.191   2.627  1.1867 -0.8246 -0.4356
  389SOL    HW2 1167   1.808   1.351   2.595 -0.5915 -0.4797 -0.5011
  390SOL     OW 1168   1.957   2.188   0.216 -0.1847 -0.0085  0.3767
  390SOL    HW1 1169   2.002   2.185   0.129 -0.3867  0.4308  1.9693
  390SOL    HW2 1170   1.990   2.118   0.279  1.2911  0.1987 -1.7114
  391SOL     OW 1171   1.321   2.682   1.016 -0.5914 -0.1249  0.5690
  391SOL    HW1 1172   1.253   2.687   0.944 -0.0304  1.7877  3.0997
  391SOL    HW2 1173   1.301   2.727   1.108 -0.9617 -0.9982  3.1883
  392SOL     OW 1174   2.553   2.449   1.483  0.1137  0.6665 -0.5811
  392SOL    HW1 1175   2.649   2.469   1.486 -3.1462  1.0908 -1.0243
  392SOL    HW2 1176   2.496   2.534   1.479  1.1028 -0.1415 -0.3654
  393SOL     OW 1177   1.823   2.326   2.300  0.1981  0.1892  0.3582
  393SOL    HW1 1178   1.757   2.244   2.293 -0.2490 -0.3334  2.0547
  393SOL    HW2 1179   1.778   2.400   2.360 -0.8659  1.3264  2.8176
  394SOL     OW 1180   0.106   2.911   2.471 -0.5071  0.0017  0.0001
  394SOL    HW1 1181   0.178   2.968   2.430 -0.1301 -0.2353  3.6033
  394SOL    HW2 1182   0.071   2.953   2.557 -0.8095  0.3890 -1.0995
  395SOL     OW 1183   0.433   1.218   1.250  0.2877 -0.4183 -0.1994
  395SOL    HW1 1184   0.431   1.306   1.307 -0.1783  2.9900  0.6859
  395SOL    HW2 1185   0.468   1.238   1.160 -1.7310 -2.1666  0.0336
  396SOL     OW 1186   2.019   1.157   2.441 -0.0277 -0.6564 -0.2380
  396SOL    HW1 1187   1.956   1.215   2.485  1.1372 -3.1932 -0.2976
  396SOL    HW2 1188   2.041   1.079   2.504  0.6442 -1.6347 -0.6426
  397SOL     OW 1189   2.719   0.358   2.827  0.1934  0.2794  0.2565
  397SOL    HW1 1190   2.747   0.437   2.889  0.8623  0.9911  1.1849
  397SOL    HW2 1191   2.730   0.390   2.727 -0.2613  0.7969 -2.7890
  398SOL     OW 1192   1.785   0.099   0.725  0.1022 -0.0518  0.3053
  398SOL    HW1 1193   1.811   0.002   0.746 -0.3039 -1.9105 -1.1268
  398SOL    HW2 1194   1.819   0.128   0.632 -3.5604 -0.1196  0.5175
  399SOL     OW 1195   2.423   2.674   1.896 -0.2770  0.4185  0.0072
  399SOL    HW1 1196   2.386   2.767   1.871 -0.0619 -0.0364  0.8039
  399SOL    HW2 1197   2.345   2.609   1.900 -0.2956 -0.9585 -0.3095
  400SOL     OW 1198   2.991   2.273   2.147  0.5872 -0.4094  0.0560
  400SOL    HW1 1199   2.943   2.186   2.182  1.4161 -0.7755  0.6399
  400SOL    HW2 1200   3.089   2.274   2.163 -2.2905 -1.2874  1.0203
  401SOL     OW 1201   0.619   0.421   0.497  0.2422 -0.2203 -0.2257
  401SOL    HW1 1202   0.580   0.327   0.483  0.5243 -0.7461  0.2956
  401SOL    HW2 1203   0.564   0.469   0.573 -2.7658 -1.9509  1.9533
  402SOL     OW 1204   0.706   2.818   1.933  0.1573 -0.6827 -0.4728
  402SOL    HW1 1205   0.786   2.839   1.992 -1.6372  1.2319  0.0586
  402SOL    HW2 1206   0.623   2.880   1.951  1.1460  2.6243  0.2988
  403SOL     OW 1207   0.257   1.346   1.931 -0.6924  0.5662  0.4278
  403SOL    HW1 1208   0.313   1.272   1.878  2.3818 -2.8880 -1.9725
  403SOL    HW2 1209   0.249   1.316   2.023  0.5860 -0.1350 -1.1414
  404SOL     OW 1210   2.781   2.440   2.290  0.2108 -0.0261 -0.2913
  404SOL    HW1 1211   2.851   2.423   2.217 -0.0450  3.2854 -1.3046
  404SOL    HW2 1212   2.806   2.399   2.381  0.4086  0.1797 -3.2636
  405SOL     OW 1213   2.418   0.247   2.735  0.5584 -0.4218  0.0542
  405SOL    HW1 1214   2.331   0.220   2.781 -2.4868  1.4845  3.0273
  405SOL    HW2 1215   2.485   0.174   2.718 -2.6261 -0.8689 -1.3533
  406SOL     OW 1216   1.586   2.325   0.402  0.3092 -0.0875  0.6953
  406SOL    HW1 1217   1.484   2.324   0.388  0.6795  0.0917  0.4279
  406SOL    HW2 1218   1.617   2.250   0.349 -0.7970  1.4166  0.9627
  407SOL     OW 1219   1.839   1.407   0.323  0.5998  0.3213  0.2182
  407SOL    HW1 1220   1.874   1.502   0.322 -0.2430  0.7373  0.8565
  407SOL    HW2 1221   1.756   1.400   0.379 -0.6532  0.7016  0.2638
  408SOL     OW 1222   0.175   0.791   2.346  0.8438  0.6071 -0.2186
  408SOL    HW1 1223   0.099   0.730   2.304 -4.1472 -4.1009 -0.2706
  408SOL    HW2 1224   0.206   0.751   2.435  0.9742 -1.6888 -0.2683
  409SOL     OW 1225   2.790   1.425   2.976  0.0285  0.1295 -0.1637
  409SOL    HW1 1226   2.862   1.423   2.903 -0.1031 -1.2791  1.4206
  409SOL    HW2 1227   2.784   1.344   3.035  1.5390  3.2553 -0.4121
  410SOL     OW 1228   2.704   1.359   1.216  0.5144  0.2840 -0.3605
  410SOL    HW1 1229   2.663   1.341   1.124 -0.9783 -1.6571  0.0777
  410SOL    HW2 1230   2.733   1.457   1.226  4.0117 -1.6449  1.0255
  411SOL     OW 1231   2.791   0.594   0.436 -0.1936  0.3894 -1.2131
  411SOL    HW1 1232   2.842   0.523   0.480 -0.5403  0.0034  1.1186
  411SOL    HW2 1233   2.698   0.604   0.477  1.5826 -0.8976 -0.4432
  412SOL     OW 1234   1.833   0.185   0.225  0.1970 -0.5589  0.4428
  412SOL    HW1 1235   1.811   0.158   0.325 -0.1988 -1.3108  2.5178
  412SOL    HW2 1236   1.923   0.231   0.224 -0.5906 -1.5984 -1.1283
  413SOL     OW 1237   1.269   0.385   1.787 -0.1003 -0.3249  0.0240
  413SOL    HW1 1238   1.337   0.320   1.825 -0.4343  1.5541 -2.0476
  413SOL    HW2 1239   1.311   0.475   1.763 -1.0900  2.8437  0.8200
  414SOL     OW 1240   0.513   1.183   0.124 -0.4414 -0.0933  0.0710
  414SOL    HW1 1241   0.555   1.095   0.091 -1.0816  2.6488  1.3372
  414SOL    HW2 1242   0.462   1.229   0.048  2.5936 -0.9140 -1.2464
  415SOL     OW 1243   0.113   1.283   0.485 -0.0676  0.2007 -0.1108
  415SOL    HW1 1244   0.011   1.285   0.483  1.4249  0.2259  0.8957
  415SOL    HW2 1245   0.155   1.272   0.392  1.2876  0.0720 -1.5111
  416SOL     OW 1246   2.237   0.813   0.214  0.1772  0.0731  0.5537
  416SOL    HW1 1247   2.213   0.770   0.124  0.0974 -0.5305 -0.7306
  416SOL    HW2 1248   2.324   0.866   0.205 -2.8640 -0.7401 -0.9618
  417SOL     OW 1249   2.743   2.690   0.071 -0.5926 -0.1472  0.4082
  417SOL    HW1 1250   2.841   2.719   0.082  3.8070 -1.0367 -2.2229
  417SOL    HW2 1251   2.726   2.603   0.125  0.5075  0.3182  2.3703
  418SOL     OW 1252   2.794   0.625   0.171  0.5507  0.0380 -0.7605
  418SOL    HW1 1253   2.800   0.629   0.276 -1.1095  0.9031  0.3373
  418SOL    HW2 1254   2.699   0.658   0.143  0.1806  1.1275 -0.1161
  419SOL     OW 1255   0.897   0.335   0.474  0.6038 -0.4388 -0.1579
  419SOL    HW1 1256   0.795   0.344   0.505 -0.6849 -1.6249  1.6638
  419SOL    HW2 1257   0.913   0.253   0.421 -0.8187  1.8386  1.6988
  420SOL     OW 1258   0.529   0.954   0.703 -0.3892  0.1357 -0.0290
  420SOL    HW1 1259   0.445   0.909   0.686  1.2822  3.6400  0.1849
  420SOL    HW2 1260   0.563   0.941   0.798  1.2059  0.3151  1.0330
  421SOL     OW 1261   0.336   1.895   0.507 -0.2000 -0.2567  0.4884
  421SOL    HW1 1262   0.416   1.855   0.458 -1.1070 -1.2293 -1.8695
  421SOL    HW2 1263   0.269   1.924   0.435  1.8218 -0.9404  3.6398
  422SOL     OW 1264   2.891   0.300   1.609 -0.7970  0.2341 -0.3336
  422SOL    HW1 1265   2.966   0.316   1.680  2.6946  1.3835 -0.8818
  422SOL    HW2 1266   2.899   0.201   1.573  1.6389 -4.5677 -2.5044
  423SOL     OW 1267   2.124   1.986   0.323 -0.2699 -0.6669 -0.3569
  423SOL    HW1 1268   2.218   1.985   0.370  3.4374  1.2732 -2.0511
  423SOL    HW2 1269   2.134   1.960   0.227  1.0513  1.5294  2.6971
  424SOL     OW 1270   1.663   1.586   2.807  0.5338  0.3748 -0.0109
  424SOL    HW1 1271   1.648   1.689   2.821  1.5332  3.2793 -1.3201
  424SOL    HW2 1272   1.675   1.571   2.708 -1.3501 -0.1926 -0.6181
  425SOL     OW 1273   0.443   2.935   2.177  0.3129  0.1551 -0.2342
  425SOL    HW1 1274   0.362   2.869   2.177  0.2445 -0.9330  0.3463
  425SOL    HW2 1275   0.457   2.977   2.086 -0.5761  0.9872 -1.0299
  426SOL     OW 1276   2.360   3.000   3.046 -0.1884  0.2415  0.5220
  426SOL    HW1 1277   2.436   3.000   2.977  3.1126 -0.0041  3.3304
  426SOL    HW2 1278   2.278   3.057   3.018  0.0800 -0.1147  0.8672
  427SOL     OW 1279   0.466   1.686   2.148  0.2565 -0.1253  0.6931
  427SOL    HW1 1280   0.531   1.762   2.132 -0.5726 -0.1684  0.2478
  427SOL    HW2 1281   0.422   1.703   2.242 -1.1285  0.7346  0.9905
  428SOL     OW 1282   2.239   1.417   2.518  0.5197  0.5147 -0.3229
  428SOL    HW1 1283   2.157   1.419   2.458  1.3681 -1.1202  0.0057
  428SOL    HW2 1284   2.242   1.334   2.579 -0.4049 -1.3099  0.5517
  429SOL     OW 1285   2.680   2.994   0.597 -0.2426  0.0358  0.3442
  429SOL    HW1 1286   2.751   3.031   0.541 -4.1104 -0.0943 -0.3445
  429SOL    HW2 1287   2.605   2.961   0.538 -0.6699  2.7272  2.1720
  430SOL     OW 1288   1.923   2.064   2.087  0.1482  0.2592 -0.6212
  430SOL    HW1 1289   1.860   1.984   2.087  0.6287 -2.0891 -2.0613
  430SOL    HW2 1290   1.870   2.149   2.073  0.3068 -1.4099  1.2236
  431SOL     OW 1291   2.908   1.911   1.830 -0.3280  0.3701  0.2404
  431SOL    HW1 1292   2.850   1.973   1.771 -2.8969  0.6222 -0.3131
  431SOL    HW2 1293   2.851   1.830   1.842 -1.4674  1.6055 -0.7969
  432SOL     OW 1294   0.981   2.404   2.046 -0.1206  0.4747  0.3957
  432SOL    HW1 1295   0.995   2.309   2.015 -1.8797  1.3003  3.5919
  432SOL    HW2 1296   0.882   2.423   2.046  0.9399 -2.5581  0.1848
  433SOL     OW 1297   1.086   2.936   0.889  0.1627  0.4386  0.1538
  433SOL    HW1 1298   1.189   2.929   0.891  2.6439 -2.1089 -0.5626
  433SOL    HW2 1299   1.046   3.023   0.910 -0.7250 -1.0842  2.2816
  434SOL     OW 1300   0.157   2.258   2.166  0.0210  0.0033 -0.5213
  434SOL    HW1 1301   0.184   2.314   2.085 -3.2195  0.9596  0.4389
  434SOL    HW2 1302   0.188   2.161   2.156 -1.4501  2.6839 -0.7378
  435SOL     OW 1303   0.514   1.228   0.649  0.3733  0.0318 -0.1784
  435SOL    HW1 1304   0.516   1.142   0.705  0.1066 -0.9375  1.4614
  435SOL    HW2 1305   0.555   1.208   0.559 -0.0519  1.0601 -1.5433
  436SOL     OW 1306   0.479   1.952   1.764 -0.5078 -0.1481  0.2719
  436SOL    HW1 1307   0.577   1.968   1.767 -0.8164 -2.0701  1.7953
  436SOL    HW2 1308   0.442   2.030   1.715  1.5928 -1.7630 -1.2330
  437SOL     OW 1309   1.151   0.462   0.398 -0.4854 -0.6894 -0.6725
  437SOL    HW1 1310   1.127   0.366   0.378  0.7500  1.2414 -1.4992
  437SOL    HW2 1311   1.078   0.527   0.363 -0.5911 -0.8947  0.9203
  438SOL     OW 1312   0.901   1.887   0.867  0.2558 -0.8678 -0.1856
  438SOL    HW1 1313   0.913   1.787   0.858 -0.6691 -0.2698 -0.0895
  438SOL    HW2 1314   0.978   1.937   0.825 -1.1492 -0.3759  0.1791
  439SOL     OW 1315   1.489   1.906   1.881 -0.1208  0.4375 -0.2627
  439SOL    HW1 1316   1.499   1.995   1.832  1.9474  1.2820  0.1370
  439SOL    HW2 1317   1.556   1.891   1.957  1.5903 -0.9693  2.4148
  440SOL     OW 1318   1.529   0.214   1.300 -0.5055  0.1823  0.4430
  440SOL    HW1 1319   1.490   0.192   1.392  4.3262 -0.2806 -3.6193
  440SOL    HW2 1320   1.626   0.181   1.307 -0.5740  1.2767 -0.5023
  441SOL     OW 1321   0.513   0.038   1.223  0.0511  0.0254  0.1660
  441SOL    HW1 1322   0.530   0.139   1.232  0.2551 -3.0783  1.2361
  441SOL    HW2 1323   0.540   3.089   1.307 -1.2903 -2.2175  1.0980
  442SOL     OW 1324   2.258   1.860   0.698  0.3442 -0.3801 -0.4048
  442SOL    HW1 1325   2.159   1.856   0.708 -0.2051  1.9998  0.0236
  442SOL    HW2 1326   2.284   1.899   0.608 -3.3660  0.7998  0.2885
  443SOL     OW 1327   2.575   0.216   2.199  0.4940 -0.0834 -0.2561
  443SOL    HW1 1328   2.521   0.302   2.211  0.4100 -1.0768 -0.7450
  443SOL    HW2 1329   2.635   0.208   2.115  0.2146 -0.5538 -0.5274
  444SOL     OW 1330   1.800   1.338   2.250 -0.2341  0.7672  0.4897
  444SOL    HW1 1331   1.752   1.416   2.199  0.0307  1.2712  2.0813
  444SOL    HW2 1332   1.723   1.278   2.282 -1.0120 -0.8189 -0.1704
  445SOL     OW 1333   2.733   2.003   1.566  0.1474 -0.0402  0.0682
  445SOL    HW1 1334   2.671   2.083   1.572  1.6032 -1.3464  0.8008
  445SOL    HW2 1335   2.683   1.919   1.603 -0.5660  1.8706  1.8982
  446SOL     OW 1336   0.272   0.910   0.632  0.0406  0.3752  0.3204
  446SOL    HW1 1337   0.252   0.860   0.547  0.1362  0.4543  0.0615
  446SOL    HW2 1338   0.229   1.001   0.631 -1.3895  1.1469  0.3771
  447SOL     OW 1339   0.801   1.639   0.755 -0.2405  0.1568 -0.1998
  447SOL    HW1 1340   0.770   1.542   0.732 -1.2453  1.0604  0.8363
  447SOL    HW2 1341   0.773   1.707   0.682 -1.5740  1.4888 -1.3484
  448SOL     OW 1342   1.153   1.029   1.812  0.2987  0.5138  0.0972
  448SOL    HW1 1343   1.130   1.029   1.712  0.9545 -1.4225  0.9403
  448SOL    HW2 1344   1.157   0.932   1.844  0.9850  0.0105 -1.5948
  449SOL     OW 1345   0.192   1.699   3.060 -0.3699 -0.1125 -0.3452
  449SOL    HW1 1346   0.221   1.631   2.990 -1.0192  0.1643  2.8991
  449SOL    HW2 1347   0.095   1.723   3.054 -0.2032 -1.9632 -0.7752
  450SOL     OW 1348   2.645   2.338   2.088  0.1456 -0.1093  0.7957
  450SOL    HW1 1349   2.628   2.401   2.007 -0.2566 -0.4651 -0.6321
  450SOL    HW2 1350   2.694   2.378   2.168 -1.8792  0.0039  0.8004
  451SOL     OW 1351   2.143   0.353   2.180  0.1708 -0.0676 -0.4217
  451SOL    HW1 1352   2.143   0.250   2.168  1.3192 -0.7041 -2.2865
  451SOL    HW2 1353   2.105   0.400   2.101  0.8287 -1.0817  1.8702
  452SOL     OW 1354   0.750   2.844   1.127 -0.0340  0.0580  0.3027
  452SOL    HW1 1355   0.777   2.781   1.055  0.8135  1.5527 -0.5403
  452SOL    HW2 1356   0.835   2.899   1.151  0.3173 -1.4350  0.0158
  453SOL     OW 1357   1.197   1.326   1.048  0.0462  0.5638 -0.1482
  453SOL    HW1 1358   1.295   1.356   1.063 -0.9961  2.7892 -1.1448
  453SOL    HW2 1359   1.135   1.402   1.073  1.2925  2.4341 -1.1433
  454SOL     OW 1360   0.138   1.207   1.130  0.4749 -0.6151 -0.3408
  454SOL    HW1 1361   0.183   1.279   1.196  2.5856  3.1551  3.1366
  454SOL    HW2 1362   0.073   1.250   1.057 -0.1423 -1.1101 -3.0592
  455SOL     OW 1363   3.018   2.846   0.333 -0.2031  0.2450  0.4878
  455SOL    HW1 1364   3.024   2.834   0.228  0.0512  1.3800 -3.3167
  455SOL    HW2 1365   3.054   2.938   0.346  2.0939  0.1728  0.2953
  456SOL     OW 1366   2.373   2.293   0.669  0.2180 -0.0491  0.0159
  456SOL    HW1 1367   2.376   2.213   0.733  0.4688  1.4215 -0.2219
  456SOL    HW2 1368   2.429   2.277   0.584  0.4782  2.3078  1.6948
  457SOL     OW 1369   1.166   0.191   3.046 -0.5534  0.4551  0.4082
  457SOL    HW1 1370   1.251   0.135   3.043 -0.3493  1.7605  2.5876
  457SOL    HW2 1371   1.184   0.267   0.008  2.0826  2.4002  1.5720
  458SOL     OW 1372   2.916   2.677   0.526 -0.3544  0.3883  0.6484
  458SOL    HW1 1373   2.947   2.726   0.443 -2.0179 -1.6158  1.4117
  458SOL    HW2 1374   2.813   2.670   0.526 -1.7019 -1.4260  2.1960
  459SOL     OW 1375   2.391   0.434   2.276 -0.6351 -0.3926  0.1830
  459SOL    HW1 1376   2.404   0.406   2.371  1.7755  2.0800  1.2140
  459SOL    HW2 1377   2.297   0.412   2.245  2.1704  0.9474  0.9480
  460SOL     OW 1378   0.135   0.299   0.136 -0.1703 -0.6583  0.0711
  460SOL    HW1 1379   0.158   0.386   0.086  1.6939  3.4473 -1.2196
  460SOL    HW2 1380   0.047   0.312   0.190 -1.0219  2.2430 -0.0896
  461SOL     OW 1381   0.498   1.829   1.353  0.1509  0.3578  0.1213
  461SOL    HW1 1382   0.486   1.812   1.454  0.6468  1.5359  2.2066
  461SOL    HW2 1383   0.554   1.914   1.339  0.7591  0.6329 -2.2574
  462SOL     OW 1384   2.976   2.708   1.548 -0.1304  0.0713  0.1351
  462SOL    HW1 1385   3.001   2.805   1.530  1.3696 -1.3678 -0.2809
  462SOL    HW2 1386   2.878   2.691   1.545  1.2608 -1.5364 -1.7339
  463SOL     OW 1387   2.834   1.164   2.981 -0.1535  0.1860 -0.1136
  463SOL    HW1 1388   2.755   1.117   3.027 -3.7462  0.1554  0.1492
  463SOL    HW2 1389   2.858   1.134   2.883  0.0507 -0.4396 -0.6617
  464SOL     OW 1390   0.359   2.400   1.095  0.0919  0.5653 -0.1973
  464SOL    HW1 1391   0.381   2.319   1.033 -1.5156 -2.0398 -0.0957
  464SOL    HW2 1392   0.398   2.383   1.184  2.0343 -0.0047  2.2082
  465SOL     OW 1393   0.533   0.559   0.714  0.5775  0.4293  0.5468
  465SOL    HW1 1394   0.445   0.548   0.662  0.0183  3.1405  1.5815
  465SOL    HW2 1395   0.530   0.636   0.781 -0.9288  0.4455  2.1307
  466SOL     OW 1396   1.247   3.037   2.140 -0.0989 -0.3865 -0.5065
  466SOL    HW1 1397   1.260   2.935   2.145 -3.1587  1.0010  0.8019
  466SOL    HW2 1398   1.256   3.083   2.232  3.0357  0.7186  0.8935
  467SOL     OW 1399   0.717   0.543   2.224  0.0273  0.3196 -0.6417
  467SOL    HW1 1400   0.686   0.459   2.179  1.1752  1.1327 -0.7599
  467SOL    HW2 1401   0.637   0.607   2.241 -2.1675  3.4766  1.3083
  468SOL     OW 1402   0.289   1.276   2.197  0.1596  0.1453  0.4951
  468SOL    HW1 1403   0.238   1.187   2.214  0.8290 -0.0474  1.3435
  468SOL    HW2 1404   0.259   1.348   2.257 -0.5869 -0.2043 -4.2961
  469SOL     OW 1405   0.267   1.670   0.672  0.1079  0.2463  0.0815
  469SOL    HW1 1406   0.243   1.717   0.583 -0.2701 -0.6175  3.3088
  469SOL    HW2 1407   0.297   1.573   0.654 -0.4676  1.2704  0.7862
  470SOL     OW 1408   2.593   1.760   2.317 -0.2721  0.2111  0.3290
  470SOL    HW1 1409   2.549   1.671   2.293  0.1136  0.8145  2.8322
  470SOL    HW2 1410   2.542   1.834   2.265  1.2070  1.2122 -0.4827
  471SOL     OW 1411   1.541   0.596   2.575 -0.0432 -0.0244  0.0053
  471SOL    HW1 1412   1.567   0.505   2.542  1.3400  2.8421  0.4291
  471SOL    HW2 1413   1.536   0.598   2.676 -1.0965  0.7513 -0.7819
  472SOL     OW 1414   0.623   2.512   1.664 -0.2142 -0.2478 -0.2618
  472SOL    HW1 1415   0.677   2.423   1.671 -0.1101 -0.1117 -2.2992
  472SOL    HW2 1416   0.684   2.592   1.659 -3.0617 -0.1676  1.1555
  473SOL     OW 1417   0.332   0.227   2.419  0.2071  0.9231 -0.3774
  473SOL    HW1 1418   0.415   0.268   2.464  1.0530 -0.4540 -0.1394
  473SOL    HW2 1419   0.341   0.125   2.414  1.5825  1.4722 -2.4199
  474SOL     OW 1420   1.827   0.127   1.304  0.0561 -0.1997  0.6939
  474SOL    HW1 1421   1.880   0.217   1.290  0.2978  1.8905  1.7447
  474SOL    HW2 1422   1.846   0.061   1.225  0.0078 -0.8290 -2.3512
  475SOL     OW 1423   2.009   0.919   0.935 -0.2259  0.0833 -0.3240
  475SOL    HW1 1424   1.913   0.931   0.906 -1.8693  1.3425 -0.2449
  475SOL    HW2 1425   2.043   1.011   0.960 -2.1612 -1.3140  0.6468
  476SOL     OW 1426   0.586   0.989   1.004  0.1780 -0.0909  0.0400
  476SOL    HW1 1427   0.572   1.090   0.978 -0.2799  4.1946  0.1228
  476SOL    HW2 1428   0.649   0.996   1.087  0.0829 -0.4566  0.3986
  477SOL     OW 1429   1.330   2.366   0.364 -0.2134 -0.5370  0.0722
  477SOL    HW1 1430   1.263   2.352   0.290  3.5703 -0.2224  1.8038
  477SOL    HW2 1431   1.282   2.385   0.449 -0.2274  2.2220  0.1667
  478SOL     OW 1432   0.183   2.413   2.390 -0.0536  0.0629 -0.1510
  478SOL    HW1 1433   0.191   2.513   2.376 -0.3059 -5.1906 -1.8209
  478SOL    HW2 1434   0.185   2.371   2.295  0.2665  1.2242  2.3976
  479SOL     OW 1435   2.643   0.381   1.264  0.3912  0.0013  0.3080
  479SOL    HW1 1436   2.601   0.402   1.355 -0.8105 -1.0759  1.1937
  479SOL    HW2 1437   2.584   0.315   1.212 -0.6712  1.0109  0.0990
  480SOL     OW 1438   0.443   2.432   0.475 -0.0165 -0.3094  0.5630
  480SOL    HW1 1439   0.475   2.395   0.385  0.6300 -0.9499 -2.9278
  480SOL    HW2 1440   0.344   2.451   0.472  0.6381  1.0713  0.4279
  481SOL     OW 1441   2.233   2.261   1.652  0.2300  0.5922  0.1863
  481SOL    HW1 1442   2.260   2.352   1.678 -2.5277 -4.3844  0.8814
  481SOL    HW2 1443   2.136   2.247   1.685 -4.3765 -0.0402  0.9990
  482SOL     OW 1444   1.238   2.729   2.762  0.2879  0.1956  0.1103
  482SOL    HW1 1445   1.249   2.777   2.673 -2.5637 -2.9096 -0.0766
  482SOL    HW2 1446   1.325   2.716   2.812 -0.4086  1.9358  0.2274
  483SOL     OW 1447   0.819   2.228   1.787  0.3622  1.0612 -0.5172
  483SOL    HW1 1448   0.900   2.280   1.752  0.0633 -2.3861  2.7635
  483SOL    HW2 1449   0.781   2.166   1.721  2.1866  6.3037  0.2967
  484SOL     OW 1450   1.178   0.336   1.546 -0.2307 -0.7520 -0.2471
  484SOL    HW1 1451   1.208   0.422   1.500 -0.0175  2.4066  0.7565
  484SOL    HW2 1452   1.193   0.344   1.647 -0.2033  2.2582  0.5433
  485SOL     OW 1453   1.728   0.971   2.902  0.7170 -0.6718  0.6142
  485SOL    HW1 1454   1.818   0.949   2.942 -0.4563 -2.0890  0.3792
  485SOL    HW2 1455   1.740   1.058   2.852  3.0295 -2.7468  2.2442
  486SOL     OW 1456   2.202   0.077   1.424 -0.1160  0.0798 -0.2343
  486SOL    HW1 1457   2.189   0.174   1.419 -0.2084 -2.9139 -2.2240
  486SOL    HW2 1458   2.298   0.056   1.457  2.1497 -2.0694  1.3875
  487SOL     OW 1459   0.681   2.128   1.065  0.0549  0.0448  1.3054
  487SOL    HW1 1460   0.751   2.185   1.015 -0.2316 -0.2077  1.2501
  487SOL    HW2 1461   0.591   2.154   1.026 -1.0908 -0.3451  0.6435
  488SOL     OW 1462   2.416   2.132   0.028  0.0903  0.1450  0.4646
  488SOL    HW1 1463   2.370   2.156   3.041 -4.5488  0.8247 -0.2260
  488SOL    HW2 1464   2.423   2.031   0.039  3.6141 -0.7242 -0.3012
  489SOL     OW 1465   2.108   3.004   0.616 -0.2377  0.5570  0.5801
  489SOL    HW1 1466   2.168   2.921   0.610  0.6397 -0.1025 -1.2107
  489SOL    HW2 1467   2.059   3.005   0.530  2.4973  2.0853  0.6258
  490SOL     OW 1468   0.942   1.835   3.075  0.2768  0.6500 -0.1797
  490SOL    HW1 1469   1.031   1.886   0.001  1.8556 -0.5431  1.1916
  490SOL    HW2 1470   0.934   1.758   0.042  0.2330 -2.4615  1.2743
  491SOL     OW 1471   0.231   2.143   1.418  0.2894 -0.0947  0.2593
  491SOL    HW1 1472   0.156   2.209   1.433 -0.3440 -0.7189 -1.1146
  491SOL    HW2 1473   0.303   2.154   1.489  0.4910  0.3885  2.6739
  492SOL     OW 1474   0.721   1.561   1.691  0.1063 -0.2551  0.0263
  492SOL    HW1 1475   0.788   1.502   1.635 -1.4602 -1.3420 -4.7276
  492SOL    HW2 1476   0.653   1.512   1.745  0.5970  0.2148  2.0629
  493SOL     OW 1477   2.522   1.727   0.848  0.3640  0.1736 -0.5228
  493SOL    HW1 1478   2.491   1.696   0.761 -0.7463  1.1397  1.8269
  493SOL    HW2 1479   2.621   1.742   0.842 -1.2185 -0.1514  0.1297
  494SOL     OW 1480   2.788   1.748   0.785 -0.3841  0.2900  0.1060
  494SOL    HW1 1481   2.773   1.692   0.706  0.6492  0.0446  1.3146
  494SOL    HW2 1482   2.884   1.773   0.792 -1.8674  2.1749 -1.7712
  495SOL     OW 1483   2.478   2.904   0.430  0.1035  0.0867 -0.3372
  495SOL    HW1 1484   2.454   2.924   0.329  0.5570 -1.2394 -0.0956
  495SOL    HW2 1485   2.396   2.890   0.493  1.4551  2.3463 -0.8460
  496SOL     OW 1486   2.469   0.046   1.506  0.6294  0.1850 -0.0406
  496SOL    HW1 1487   2.471   3.041   1.532  2.3160 -1.8962 -0.0220
  496SOL    HW2 1488   2.463   0.102   1.595  1.4739 -4.0409  0.5469
  497SOL     OW 1489   2.488   1.281   2.849  0.2452 -0.4745  0.1180
  497SOL    HW1 1490   2.399   1.267   2.801  3.1896  0.6540  0.8323
  497SOL    HW2 1491   2.573   1.258   2.804  0.8899 -1.7165  2.1169
  498SOL     OW 1492   2.937   1.874   1.138 -0.0749  0.7334  0.5621
  498SOL    HW1 1493   2.919   1.784   1.183 -0.6672 -0.6943 -0.2952
  498SOL    HW2 1494   2.984   1.853   1.048  1.1708 -0.2669 -1.4483
  499SOL     OW 1495   0.891   2.250   2.700 -0.4278 -0.0682  0.7395
  499SOL    HW1 1496   0.990   2.245   2.687 -0.2997 -1.5274  1.5825
  499SOL    HW2 1497   0.846   2.211   2.616 -0.0632  1.4467  1.8604
  500SOL     OW 1498   1.591   1.403   0.445 -0.2892 -0.5651  0.4265
  500SOL    HW1 1499   1.501   1.351   0.438 -0.4327  2.0468 -2.3791
  500SOL    HW2 1500   1.629   1.394   0.540 -1.5977 -0.4179 -0.0316
  501SOL     OW 1501   1.517   0.142   1.584  0.0439 -0.2706  0.0820
  501SOL    HW1 1502   1.435   0.135   1.648 -4.2030 -2.8850  0.5571
  501SOL    HW2 1503   1.595   0.081   1.616 -1.1089 -2.1699  0.1741
  502SOL     OW 1504   2.525   0.553   1.646 -0.5307  0.4483  0.3933
  502SOL    HW1 1505   2.571   0.476   1.688  0.0916  1.5748  1.0006
  502SOL    HW2 1506   2.513   0.629   1.716 -0.6183 -1.1633 -0.3831
  503SOL     OW 1507   2.495   1.506   2.176  0.3416 -0.3347  0.0536
  503SOL    HW1 1508   2.391   1.519   2.176 -2.8016 -0.6797  0.7281
  503SOL    HW2 1509   2.508   1.416   2.129 -2.4794 -3.5507  0.2221
  504SOL     OW 1510   1.115   1.250   1.951 -0.4130 -0.0988 -0.1730
  504SOL    HW1 1511   1.093   1.216   2.047 -0.9419 -0.3696  0.3572
  504SOL    HW2 1512   1.126   1.164   1.897 -1.9404  0.1803  3.4081
  505SOL     OW 1513   0.312   0.417   1.589 -0.0002 -0.4839  0.4407
  505SOL    HW1 1514   0.370   0.448   1.506  2.5313  2.0304 -3.3752
  505SOL    HW2 1515   0.360   0.422   1.676  1.2324 -2.5417  0.7295
  506SOL     OW 1516   0.148   0.059   0.028 -0.1541 -0.2203  0.4570
  506SOL    HW1 1517   0.143   0.159   0.051  0.7106  0.4330  1.5037
  506SOL    HW2 1518   0.233   0.034   3.077  2.8610  1.0570 -2.4441
  507SOL     OW 1519   0.538   2.591   3.066 -0.5620  0.2792  0.1247
  507SOL    HW1 1520   0.520   2.609   0.067 -0.3294  1.1344  0.5654
  507SOL    HW2 1521   0.452   2.552   3.028  0.5791 -2.5118  4.7274
  508SOL     OW 1522   0.988   0.522   2.153  0.2064  0.1306  0.0454
  508SOL    HW1 1523   0.890   0.544   2.167  0.1785  2.5749 -1.0531
  508SOL    HW2 1524   1.006   0.426   2.179  0.1033  2.0738  3.5371
  509SOL     OW 1525   1.540   2.087   1.181 -0.1162  0.4166  0.6051
  509SOL    HW1 1526   1.608   2.062   1.252  0.9821  0.0950  0.4687
  509SOL    HW2 1527   1.542   2.187   1.166  3.9633  2.4235  2.9573
  510SOL     OW 1528   3.014   1.085   1.518 -0.6241  0.2162  0.2572
  510SOL    HW1 1529   2.973   1.071   1.614 -1.5704  0.4845 -1.5712
  510SOL    HW2 1530   3.028   0.991   1.483  0.6814  0.7893 -2.0525
  511SOL     OW 1531   1.303   1.899   1.169 -0.2972  0.1189  0.0569
  511SOL    HW1 1532   1.389   1.957   1.181  3.2508 -1.9710  0.2676
  511SOL    HW2 1533   1.325   1.811   1.224  2.3535 -0.5884  0.9606
  512SOL     OW 1534   0.002   1.552   0.299 -0.3420  0.3454 -0.1133
  512SOL    HW1 1535   3.040   1.490   0.347  0.3410  0.8518  0.3952
  512SOL    HW2 1536   0.016   1.522   0.202 -2.0515  0.9253 -0.6737
  513SOL     OW 1537   0.178   1.424   2.862  0.1079 -0.3800 -0.1637
  513SOL    HW1 1538   0.224   1.388   2.780 -0.0694  2.2612  0.7245
  513SOL    HW2 1539   0.077   1.405   2.855  0.5207 -0.7719  0.4017
  514SOL     OW 1540   2.290   2.314   2.355 -0.5656  0.0036 -0.2749
  514SOL    HW1 1541   2.206   2.257   2.352  1.3603  2.0717 -0.9950
  514SOL    HW2 1542   2.380   2.263   2.341  0.4277 -0.5735 -1.3526
  515SOL     OW 1543   2.450   0.857   0.756  0.2205  0.4072  0.2049
  515SOL    HW1 1544   2.355   0.826   0.771  2.0008  1.7393 -0.0843
  515SOL    HW2 1545   2.469   0.883   0.661 -2.2003  0.9390  2.3839
  516SOL     OW 1546   2.694   2.459   0.214  0.1382 -0.1609  0.2483
  516SOL    HW1 1547   2.601   2.440   0.177 -0.9946 -0.1686 -2.0491
  516SOL    HW2 1548   2.713   2.411   0.300 -1.3314  2.5639  0.5316
  517SOL     OW 1549   0.630   1.618   3.018  0.4042 -0.2612 -0.4334
  517SOL    HW1 1550   0.679   1.704   3.036 -3.9334 -0.4982  1.6324
  517SOL    HW2 1551   0.580   1.590   0.004 -3.7028  0.2487  1.6597
  518SOL     OW 1552   2.749   0.201   1.988  0.1989  0.7453 -0.2738
  518SOL    HW1 1553   2.726   0.107   2.018 -0.6077  1.1218 -2.2397
  518SOL    HW2 1554   2.852   0.213   1.975  2.0710 -0.9471 -1.5555
  519SOL     OW 1555   1.771   1.003   0.162 -0.8142 -0.2079  0.0259
  519SOL    HW1 1556   1.837   0.933   0.191 -0.8826  1.0655 -0.8478
  519SOL    HW2 1557   1.700   1.014   0.233  2.2108  1.8330  1.5792
  520SOL     OW 1558   2.761   2.827   2.253  0.0426 -0.1932 -0.0030
  520SOL    HW1 1559   2.862   2.850   2.255 -0.6577 -0.5876 -2.6048
  520SOL    HW2 1560   2.732   2.760   2.322  1.1267 -1.3773  0.4445
  521SOL     OW 1561   0.216   1.975   2.162  0.1461 -0.4646  0.3289
  521SOL    HW1 1562   0.243   1.945   2.066 -0.2374  0.7239  0.1912
  521SOL    HW2 1563   0.300   1.980   2.220 -0.1608 -1.6111  1.8045
  522SOL     OW 1564   1.286   0.050   1.733  0.0769  0.2857 -0.0300
  522SOL    HW1 1565   1.242   0.141   1.756 -0.8505  0.1058  0.1392
  522SOL    HW2 1566   1.216   3.080   1.709  3.2224 -1.2346  1.7672
  523SOL     OW 1567   2.157   2.189   1.008 -0.0667 -0.1801 -0.0595
  523SOL    HW1 1568   2.228   2.172   0.937  0.7879 -1.7830 -1.3621
  523SOL    HW2 1569   2.171   2.273   1.063  2.0949 -4.2831  1.8346
  524SOL     OW 1570   1.151   2.193   0.548  0.0453 -0.6893 -0.5155
  524SOL    HW1 1571   1.167   2.266   0.620 -1.4717 -2.6736  3.5168
  524SOL    HW2 1572   1.048   2.179   0.536  0.5596 -0.8506 -0.2149
  525SOL     OW 1573   2.746   0.415   0.868 -0.3666  0.4090  0.0033
  525SOL    HW1 1574   2.702   0.505   0.869  0.8331 -2.5718  2.3747
  525SOL    HW2 1575   2.799   0.400   0.782  0.4510 -1.4986 -2.5400
  526SOL     OW 1576   1.527   3.039   0.621 -0.2412 -0.0657  0.2404
  526SOL    HW1 1577   1.619   3.067   0.665 -1.1887  0.1613  0.9088
  526SOL    HW2 1578   1.454   3.089   0.674  0.0898  2.0588 -0.9095
  527SOL     OW 1579   2.016   1.636   1.319 -0.1493  0.1270  0.4225
  527SOL    HW1 1580   1.954   1.709   1.349 -0.6165  1.7929  0.9220
  527SOL    HW2 1581   2.034   1.632   1.219 -0.6113  1.1231  0.9358
  528SOL     OW 1582   2.740   2.676   2.474 -0.3524 -1.0983  0.1371
  528SOL    HW1 1583   2.829   2.656   2.520 -1.5642 -2.1985  1.7473
  528SOL    HW2 1584   2.714   2.598   2.409 -0.5426 -0.8332 -2.0353
  529SOL     OW 1585   0.951   1.310   2.396  0.9053 -0.1015  0.2105
  529SOL    HW1 1586   1.006   1.279   2.475 -0.4154  0.9114  1.8650
  529SOL    HW2 1587   0.852   1.324   2.432 -2.7317 -2.4779  0.3793
  530SOL     OW 1588   1.938   0.872   2.524  0.5848  0.0905  0.0334
  530SOL    HW1 1589   1.856   0.934   2.529  1.1347  3.3167 -1.2245
  530SOL    HW2 1590   2.008   0.905   2.590 -3.2713  2.0491 -0.4731
  531SOL     OW 1591   0.157   0.885   0.058  0.1174  0.0351  0.4851
  531SOL    HW1 1592   0.248   0.840   0.077  3.5037 -0.0986 -0.2727
  531SOL    HW2 1593   0.104   0.915   0.137  1.0691 -0.1701 -4.3084
  532SOL     OW 1594   1.635   1.372   0.719  0.7317  0.1008  0.2352
  532SOL    HW1 1595   1.601   1.279   0.748 -0.7603  0.6602 -0.7093
  532SOL    HW2 1596   1.562   1.443   0.735 -1.3647 -2.5364  3.1087
  533SOL     OW 1597   0.202   0.669   2.607 -0.1806  0.0560 -0.2818
  533SOL    HW1 1598   0.239   0.745   2.663 -1.0852 -1.2686 -2.1310
  533SOL    HW2 1599   0.276   0.601   2.601 -1.6650 -0.5411 -0.1487
  534SOL     OW 1600   0.977   0.488   2.631  0.2370 -0.6859 -0.4406
  534SOL    HW1 1601   1.076   0.508   2.618 -0.4051  2.7386 -1.5425
  534SOL    HW2 1602   0.955   0.406   2.685 -0.1316  0.5027  1.3056
  535SOL     OW 1603   0.614   0.642   2.985 -0.8737  0.1497  0.1274
  535SOL    HW1 1604   0.695   0.643   2.927  1.5136  0.3740  1.7025
  535SOL    HW2 1605   0.554   0.723   2.957 -0.5015  1.4556  2.3169
  536SOL     OW 1606   0.542   1.051   2.664  0.5975 -0.2913 -0.4432
  536SOL    HW1 1607   0.594   1.062   2.580 -0.9877  1.1951  0.1348
  536SOL    HW2 1608   0.527   1.142   2.705 -0.0843  0.9692  0.3671
  537SOL     OW 1609   1.359   3.000   1.435  0.1622 -0.9152  0.3775
  537SOL    HW1 1610   1.437   3.065   1.459  1.3331  0.0731  0.3098
  537SOL    HW2 1611   1.266   3.047   1.434 -2.8764 -1.4806 -0.8679
  538SOL     OW 1612   0.723   2.371   3.054  0.2645 -0.0251 -0.4772
  538SOL    HW1 1613   0.652   2.434   3.092 -0.1631  3.3295  1.5290
  538SOL    HW2 1614   0.785   2.419   2.988 -1.5774  0.8819  1.7554
  539SOL     OW 1615   2.823   1.117   1.745 -0.3370 -0.2374  0.4979
  539SOL    HW1 1616   2.775   1.177   1.678  1.7708 -0.0962  1.0810
  539SOL    HW2 1617   2.818   1.158   1.839 -1.7953 -0.6800  1.3193
  540SOL     OW 1618   2.003   1.806   1.558  0.3897  0.2159 -0.0425
  540SOL    HW1 1619   1.946   1.723   1.575  0.7163 -0.1876 -1.2371
  540SOL    HW2 1620   1.984   1.872   1.629 -1.5311 -0.0089 -0.3613
  541SOL     OW 1621   0.787   1.802   1.518 -0.9740  0.0522 -0.3308
  541SOL    HW1 1622   0.808   1.800   1.418 -1.3247 -1.2929 -0.9970
  541SOL    HW2 1623   0.765   1.706   1.543 -0.6513  3.8905 -0.4958
  542SOL     OW 1624   1.761   1.085   1.935  0.1330 -0.3960 -0.1616
  542SOL    HW1 1625   1.717   1.117   1.847  0.6086 -0.6669  0.3528
  542SOL    HW2 1626   1.818   1.001   1.920  0.6971 -1.3899  1.3650
  543SOL     OW 1627   0.967   0.496   0.692  0.0501 -0.0026 -0.0138
  543SOL    HW1 1628   0.901   0.574   0.702 -3.0012  1.0435 -0.9492
  543SOL    HW2 1629   0.957   0.457   0.597 -1.2053 -0.0022  0.1030
  544SOL     OW 1630   2.000   1.781   2.176  0.1343 -0.4156 -0.4476
  544SOL    HW1 1631   2.049   1.785   2.084 -0.1022  2.3981 -0.4007
  544SOL    HW2 1632   2.074   1.814   2.236 -0.6895  1.9635 -1.8500
  545SOL     OW 1633   1.661   1.610   1.309 -0.6841 -0.4898 -0.3744
  545SOL    HW1 1634   1.648   1.613   1.210 -1.8922  0.7892  1.7371
  545SOL    HW2 1635   1.679   1.513   1.336  1.3426 -1.1020 -0.7660
  546SOL     OW 1636   0.386   0.041   2.993  0.0626 -0.3911 -0.1124
  546SOL    HW1 1637   0.384   0.019   2.894  1.3900  1.7413 -0.6853
  546SOL    HW2 1638   0.424   0.137   2.995 -1.4423 -0.1690 -1.0212
  547SOL     OW 1639   2.072   0.697   0.024  0.1619  0.0907 -0.2232
  547SOL    HW1 1640   2.122   0.670   3.037 -1.1670  1.2435  0.6224
  547SOL    HW2 1641   2.044   0.614   0.076  1.9773 -0.6661 -0.3289
  548SOL     OW 1642   2.417   1.906   2.139 -0.3960 -0.8400  0.1415
  548SOL    HW1 1643   2.322   1.932   2.119 -1.0908 -1.5222  0.2712
  548SOL    HW2 1644   2.457   1.844   2.066  0.5117 -2.0245 -0.0259
  549SOL     OW 1645   2.358   3.086   1.030  0.0101 -0.1104 -0.5147
  549SOL    HW1 1646   2.430   3.011   1.018  1.2890 -0.2516 -2.2241
  549SOL    HW2 1647   2.306   0.008   0.944 -1.8263  2.3237  0.1721
  550SOL     OW 1648   2.338   1.603   0.157  0.5237 -0.1139 -0.2307
  550SOL    HW1 1649   2.341   1.526   0.219  1.1112  0.5243 -1.9377
  550SOL    HW2 1650   2.374   1.690   0.196  2.6057  0.0818  1.3256
  551SOL     OW 1651   1.441   0.231   1.886  0.2779  0.5881 -0.1996
  551SOL    HW1 1652   1.435   0.259   1.986  0.1818  0.4258  2.0351
  551SOL    HW2 1653   1.480   0.139   1.880  1.8403  0.1778  1.2788
  552SOL     OW 1654   2.940   2.516   2.901  0.1355 -0.0843 -0.5208
  552SOL    HW1 1655   3.013   2.547   2.965  0.5977  0.1188  0.7358
  552SOL    HW2 1656   2.868   2.590   2.896 -1.0645 -0.3942 -0.5769
  553SOL     OW 1657   0.860   3.023   0.619 -0.0999 -0.1112 -0.0631
  553SOL    HW1 1658   0.901   3.047   0.710  1.1545 -0.5834 -2.3878
  553SOL    HW2 1659   0.774   3.072   0.602  2.1649  1.9882 -2.6739
  554SOL     OW 1660   1.951   2.281   1.699 -1.0456  0.2006 -0.3446
  554SOL    HW1 1661   1.885   2.294   1.620 -2.9426 -1.7203 -2.1503
  554SOL    HW2 1662   1.914   2.329   1.777  0.4100 -1.8470 -0.2522
  555SOL     OW 1663   1.354   2.326   1.510 -0.0888  0.2986 -0.5915
  555SOL    HW1 1664   1.390   2.385   1.430 -2.2271  3.6982  0.5374
  555SOL    HW2 1665   1.265   2.281   1.491  0.1784 -1.4335  1.3148
  556SOL     OW 1666   1.662   1.881   0.385 -0.4193  0.5442 -0.3028
  556SOL    HW1 1667   1.638   1.785   0.354 -2.1128 -0.1229  0.2961
  556SOL    HW2 1668   1.611   1.890   0.472  1.0362  2.1600  1.4572
  557SOL     OW 1669   1.307   2.180   1.927  0.1014  0.0292  0.2863
  557SOL    HW1 1670   1.369   2.107   1.961  0.4721  1.2759  0.1173
  557SOL    HW2 1671   1.213   2.175   1.965 -1.3904  0.5637  3.3324
  558SOL     OW 1672   3.040   0.254   2.021  0.4577  0.4365 -0.0373
  558SOL    HW1 1673   3.021   0.347   2.056  0.0661  0.5448  0.0914
  558SOL    HW2 1674   0.007   0.253   1.948 -1.4193  0.6624  1.4032
  559SOL     OW 1675   2.489   2.886   1.542 -0.0705  0.0152  0.2159
  559SOL    HW1 1676   2.429   2.811   1.499 -0.3283 -2.0789  0.7047
  559SOL    HW2 1677   2.592   2.856   1.552  0.6432 -0.3179  2.5616
  560SOL     OW 1678   0.771   2.840   0.117 -1.1114 -0.3106 -0.3355
  560SOL    HW1 1679   0.679   2.830   0.080 -0.5036  0.5692 -2.6312
  560SOL    HW2 1680   0.773   2.892   0.203 -0.0753 -0.4841 -0.0760
  561SOL     OW 1681   1.068   0.834   0.518  0.2789 -0.2029  0.2790
  561SOL    HW1 1682   1.007   0.765   0.467 -0.5328 -1.5628  0.9788
  561SOL    HW2 1683   1.136   0.885   0.461 -0.7482 -0.2613 -0.2467
  562SOL     OW 1684   0.888   0.770   2.527  0.3564  0.3503  0.2451
  562SOL    HW1 1685   0.962   0.839   2.552  1.2682  0.4867 -0.8636
  562SOL    HW2 1686   0.922   0.676   2.546  2.3743  1.4112 -2.1674
  563SOL     OW 1687   2.127   2.581   2.681 -0.5986  0.8156 -0.9882
  563SOL    HW1 1688   2.173   2.494   2.681 -0.4844  3.1604  0.6920
  563SOL    HW2 1689   2.034   2.567   2.718 -1.0817 -1.6168 -2.2806
  564SOL     OW 1690   0.245   1.288   0.260  0.1565  0.1454  0.5978
  564SOL    HW1 1691   0.329   1.268   0.206 -0.3202  0.9097  1.2583
  564SOL    HW2 1692   0.195   1.365   0.212  2.7868  2.4057 -0.7698
  565SOL     OW 1693   1.420   0.025   2.700 -0.4552 -0.2062  0.1975
  565SOL    HW1 1694   1.422   3.079   2.609 -1.6793  0.6083  1.6093
  565SOL    HW2 1695   1.507   0.078   2.713  0.0059  1.2889 -0.9406
  566SOL     OW 1696   1.735   3.007   2.568 -0.0358 -0.6396 -0.7426
  566SOL    HW1 1697   1.765   2.913   2.529 -1.0529 -0.6827 -2.1012
  566SOL    HW2 1698   1.728   2.996   2.670  2.3083 -0.6689  1.7194
  567SOL     OW 1699   2.572   1.288   0.972  0.5393  0.3148  0.0254
  567SOL    HW1 1700   2.523   1.199   0.972 -2.7430  0.7256 -0.2240
  567SOL    HW2 1701   2.509   1.352   0.924  0.0668  0.5991 -0.9695
  568SOL     OW 1702   1.931   1.653   0.017  0.3280  0.1014 -0.4548
  568SOL    HW1 1703   1.862   1.583   3.087  2.5232  0.2583 -2.1378
  568SOL    HW2 1704   1.910   1.742   3.068  1.5439  1.3186  0.8383
  569SOL     OW 1705   2.239   1.841   2.678 -0.4666 -0.5183 -0.0345
  569SOL    HW1 1706   2.314   1.907   2.695 -1.3654 -0.6138 -2.3503
  569SOL    HW2 1707   2.271   1.748   2.710  1.1605 -1.8859 -0.8202
  570SOL     OW 1708   3.015   2.424   1.916 -0.5619  0.2211  0.3093
  570SOL    HW1 1709   3.000   2.363   2.000  2.9222 -2.0909 -0.5088
  570SOL    HW2 1710   3.019   2.363   1.838  0.3212 -3.7410  1.2858
  571SOL     OW 1711   3.067   0.357   2.326 -0.7826  0.0070 -0.2057
  571SOL    HW1 1712   0.064   0.348   2.292 -0.9117 -0.3247  1.7051
  571SOL    HW2 1713   3.068   0.430   2.396  1.0137 -0.4444  1.6309
  572SOL     OW 1714   1.148   1.620   0.867 -0.0691 -0.4332  0.9495
  572SOL    HW1 1715   1.210   1.552   0.820  1.9946 -0.5738  0.5415
  572SOL    HW2 1716   1.094   1.570   0.937  1.2639 -0.4323  0.8649
  573SOL     OW 1717   0.921   0.294   0.116 -0.2421 -0.5435  0.2218
  573SOL    HW1 1718   0.898   0.229   0.043  0.6282  1.0902 -1.3207
  573SOL    HW2 1719   0.993   0.256   0.182  0.2891 -4.0800 -1.2508
  574SOL     OW 1720   0.658   0.085   0.593  0.0811 -0.4963  0.2473
  574SOL    HW1 1721   0.594   0.115   0.519  2.6773 -0.6080  0.5027
  574SOL    HW2 1722   0.612   0.089   0.683  1.4220  0.3271 -1.0386
  575SOL     OW 1723   0.107   1.436   1.698 -0.1347 -0.3265 -0.4133
  575SOL    HW1 1724   0.155   1.503   1.632  0.1291  1.4582 -2.3515
  575SOL    HW2 1725   0.169   1.401   1.765 -2.9016  0.5051 -3.7718
  576SOL     OW 1726   2.290   0.455   1.903  0.6096 -0.2011 -0.6708
  576SOL    HW1 1727   2.244   0.541   1.872 -0.6115  0.8917 -1.0580
  576SOL    HW2 1728   2.359   0.476   1.975 -3.4119 -0.4741 -0.2727
  577SOL     OW 1729   2.753   1.336   1.941 -0.6147 -0.3137  0.1575
  577SOL    HW1 1730   2.806   1.300   2.021  1.6165  2.1370 -1.1430
  577SOL    HW2 1731   2.815   1.394   1.880 -0.0778  1.8946  2.0867
  578SOL     OW 1732   1.459   2.626   2.277  0.0231  0.4256 -0.0860
  578SOL    HW1 1733   1.470   2.528   2.247 -1.3571  0.7887 -2.2413
  578SOL    HW2 1734   1.404   2.636   2.356 -0.4948  1.4888 -1.6497
  579SOL     OW 1735   2.173   1.999   2.026  0.5342  0.0588 -0.3402
  579SOL    HW1 1736   2.079   2.026   2.055 -0.0836  0.6182  1.8071
  579SOL    HW2 1737   2.176   1.914   1.969  0.5594 -2.5341  2.3648
  580SOL     OW 1738   1.807   1.401   1.883  0.1791  0.1188 -0.6867
  580SOL    HW1 1739   1.738   1.404   1.811  0.0263  1.2192  1.7822
  580SOL    HW2 1740   1.874   1.322   1.872 -0.2177 -3.2376  0.7148
  581SOL     OW 1741   1.371   1.200   2.328  0.2520  0.1098  0.7436
  581SOL    HW1 1742   1.439   1.224   2.254 -0.1161  0.2383 -0.4052
  581SOL    HW2 1743   1.349   1.097   2.317 -1.6115 -3.9011  1.3309
  582SOL     OW 1744   0.055   2.002   1.808  0.1870 -0.6606 -0.7869
  582SOL    HW1 1745   0.121   1.922   1.824 -0.1760 -0.3193 -1.3794
  582SOL    HW2 1746   3.062   1.972   1.816  2.0223 -1.2207 -3.7601
  583SOL     OW 1747   1.511   1.139   0.831  0.2345  0.1573 -0.2153
  583SOL    HW1 1748   1.418   1.163   0.817  0.7334 -0.1362  1.6425
  583SOL    HW2 1749   1.526   1.062   0.899 -0.5278  1.7445  1.2607
  584SOL     OW 1750   1.113   2.184   0.277 -0.4806  0.1547  0.1258
  584SOL    HW1 1751   1.017   2.211   0.271 -2.9822  0.1412  0.4422
  584SOL    HW2 1752   1.141   2.172   0.373 -0.1417 -1.5812  0.0269
  585SOL     OW 1753   0.100   2.584   3.079  0.3275 -0.2908  0.3224
  585SOL    HW1 1754   0.152   2.599   0.066 -0.9428  0.9207 -0.0677
  585SOL    HW2 1755   0.174   2.555   3.009  1.8737  0.5590 -1.7628
  586SOL     OW 1756   2.626   1.252   0.400  0.4297 -0.2322  0.3013
  586SOL    HW1 1757   2.640   1.155   0.392 -1.6424  4.5899  0.8778
  586SOL    HW2 1758   2.680   1.294   0.476 -1.7569  2.9826 -1.0206
  587SOL     OW 1759   1.005   1.506   2.758 -0.1193  0.7472 -0.0813
  587SOL    HW1 1760   1.102   1.481   2.745  0.6069 -2.0382 -0.2595
  587SOL    HW2 1761   0.981   1.605   2.750  0.6854  1.4485  1.2199
  588SOL     OW 1762   0.202   0.398   0.814 -0.4858  0.0960  0.3352
  588SOL    HW1 1763   0.162   0.319   0.760 -2.4607  0.7851  1.3720
  588SOL    HW2 1764   0.262   0.369   0.892  0.3510 -2.6963 -0.5595
  589SOL     OW 1765   1.374   0.176   0.777 -0.5255 -0.9218 -0.2241
  589SOL    HW1 1766   1.272   0.173   0.754 -0.2820 -1.8823  0.7955
  589SOL    HW2 1767   1.403   0.104   0.838  0.0621  0.1181 -0.9421
  590SOL     OW 1768   2.522   2.272   0.434  0.2466  0.0586 -0.5366
  590SOL    HW1 1769   2.622   2.256   0.420 -2.1503  0.6700 -0.1278
  590SOL    HW2 1770   2.487   2.312   0.348  0.4396 -3.0077  2.8181
  591SOL     OW 1771   0.189   2.423   1.934 -0.0156 -0.5837  0.3664
  591SOL    HW1 1772   0.244   2.495   1.882 -0.1663  0.2899 -1.2172
  591SOL    HW2 1773   0.090   2.428   1.910  0.2088  2.3793  1.1134
  592SOL     OW 1774   0.002   1.806   2.207  0.2559  0.5888  1.0616
  592SOL    HW1 1775   3.098   1.740   2.130 -2.3341  0.1248 -0.7169
  592SOL    HW2 1776   0.069   1.879   2.185  0.4050 -0.5672  0.7251
  593SOL     OW 1777   1.416   1.396   1.348  0.1070 -0.1151  0.1999
  593SOL    HW1 1778   1.509   1.386   1.397  1.8525  0.1494  0.3604
  593SOL    HW2 1779   1.427   1.354   1.260 -1.2713  0.8610  1.0555
  594SOL     OW 1780   0.538   1.269   2.820  0.3521  0.8898 -0.5477
  594SOL    HW1 1781   0.492   1.287   2.907  2.1304 -0.8153 -2.2665
  594SOL    HW2 1782   0.613   1.344   2.815  1.5431 -1.4748 -0.7678
  595SOL     OW 1783   1.216   0.682   0.919 -0.1558 -0.6557  0.3883
  595SOL    HW1 1784   1.209   0.584   0.904  1.1681  1.1572 -0.9140
  595SOL    HW2 1785   1.161   0.732   0.845 -0.4722 -1.9383 -0.4619
  596SOL     OW 1786   0.584   1.262   0.997  0.6608  0.2010 -0.1751
  596SOL    HW1 1787   0.680   1.283   1.004 -2.9648  0.7399  1.6384
  596SOL    HW2 1788   0.533   1.331   0.949  0.3659 -1.8028  0.0905
  597SOL     OW 1789   0.715   2.331   2.052  0.0033 -0.0544  0.2442
  597SOL    HW1 1790   0.673   2.425   2.060 -0.7816 -0.6161 -2.3858
  597SOL    HW2 1791   0.775   2.319   1.969  2.0662  1.1783 -2.5127
  598SOL     OW 1792   1.877   2.548   2.125 -0.5287  0.0903  0.1357
  598SOL    HW1 1793   1.813   2.619   2.161 -1.6044 -3.2529  3.0198
  598SOL    HW2 1794   1.909   2.492   2.203  1.5355  0.3343 -0.5502
  599SOL     OW 1795   0.826   1.056   0.401  0.1527 -0.4799  0.4430
  599SOL    HW1 1796   0.901   1.053   0.470  1.4174  1.0234 -0.6368
  599SOL    HW2 1797   0.869   1.044   0.308  4.4576  1.4100 -1.1203
  600SOL     OW 1798   1.427   0.554   0.228 -0.1379 -0.2648  0.1424
  600SOL    HW1 1799   1.334   0.552   0.187  1.8745  1.5431  0.4767
  600SOL    HW2 1800   1.452   0.471   0.284  0.6525 -1.8807 -1.2149
  601SOL     OW 1801   0.587   0.306   1.260 -0.0025  0.2408 -0.3877
  601SOL    HW1 1802   0.561   0.377   1.327  1.7502  1.1417 -1.4029
  601SOL    HW2 1803   0.603   0.347   1.166  2.2115  1.6085 -0.5720
  602SOL     OW 1804   0.336   2.120   0.696  0.1654  0.9707 -0.0885
  602SOL    HW1 1805   0.330   2.032   0.642  2.4258  1.2607 -3.7242
  602SOL    HW2 1806   0.376   2.188   0.633 -3.1656 -3.3117 -0.0021
  603SOL     OW 1807   0.800   2.653   2.502  0.1266  0.0759  0.4781
  603SOL    HW1 1808   0.891   2.663   2.546  0.9588 -1.4656  0.1746
  603SOL    HW2 1809   0.774   2.735   2.441 -1.9144  0.9587 -2.0305
  604SOL     OW 1810   0.535   2.331   0.251 -0.3035  0.5328 -0.3420
  604SOL    HW1 1811   0.467   2.289   0.191  0.5349 -0.9707 -1.1689
  604SOL    HW2 1812   0.629   2.289   0.244  3.3435  0.0788  1.4281
  605SOL     OW 1813   1.854   1.577   1.621 -0.2770 -0.3548  0.1400
  605SOL    HW1 1814   1.835   1.493   1.568  0.3195 -0.4766  2.3635
  605SOL    HW2 1815   1.935   1.553   1.682 -0.2058 -3.4314  0.5272
  606SOL     OW 1816   0.974   1.260   2.837 -0.3974  0.2025  0.1061
  606SOL    HW1 1817   0.880   1.224   2.842 -1.5304  0.6581 -1.6621
  606SOL    HW2 1818   0.978   1.360   2.807 -0.9160  3.1063  2.2828
  607SOL     OW 1819   1.176   1.072   1.153 -0.2904 -0.1582  0.1844
  607SOL    HW1 1820   1.089   1.039   1.197 -3.9854 -2.8593 -4.4949
  607SOL    HW2 1821   1.171   1.154   1.087 -0.3707  1.4644 -4.2264
  608SOL     OW 1822   2.674   2.110   1.928 -0.3189 -0.4913  0.2846
  608SOL    HW1 1823   2.716   2.055   2.005  1.3450 -2.8707  2.8026
  608SOL    HW2 1824   2.641   2.202   1.963 -1.0647  0.4874  1.8361
  609SOL     OW 1825   2.229   0.038   0.349 -0.1110  0.0064  0.1426
  609SOL    HW1 1826   2.311   0.008   0.296  2.0183  1.5814 -0.1260
  609SOL    HW2 1827   2.149   3.078   0.336  0.3911  0.8934  1.0125
  610SOL     OW 1828   0.051   2.359   1.476  0.5809  0.0440 -0.0831
  610SOL    HW1 1829   0.050   2.459   1.508 -1.2881  1.3741 -0.3248
  610SOL    HW2 1830   0.008   2.362   1.385  2.5976 -0.4471 -0.8236
  611SOL     OW 1831   1.700   2.100   0.242 -0.2483  0.3923  0.1504
  611SOL    HW1 1832   1.799   2.127   0.238  0.9628 -1.7198  1.7429
  611SOL    HW2 1833   1.668   2.019   0.295  0.1639  0.6193  0.1747
  612SOL     OW 1834   0.622   0.174   2.102 -0.8025  0.5071  0.3096
  612SOL    HW1 1835   0.677   0.219   2.026 -0.6004 -0.6178 -3.3359
  612SOL    HW2 1836   0.521   0.168   2.093 -2.4257  0.2896 -0.1313
  613SOL     OW 1837   2.937   1.377   0.410  0.1003 -0.5178  0.0849
  613SOL    HW1 1838   2.867   1.375   0.486 -4.2379  0.2096 -0.7375
  613SOL    HW2 1839   2.898   1.402   0.316  0.8848 -0.9711 -2.5691
  614SOL     OW 1840   1.984   0.488   1.995 -0.3008  0.0037 -0.4082
  614SOL    HW1 1841   2.028   0.551   1.928  0.7547 -0.8154 -3.1460
  614SOL    HW2 1842   1.910   0.429   1.948  1.0566 -2.0901  2.8958
  615SOL     OW 1843   1.023   1.527   1.099  0.5903  0.3160 -0.0186
  615SOL    HW1 1844   1.023   1.585   1.184  0.7985  0.2882  0.9711
  615SOL    HW2 1845   0.934   1.535   1.049  1.4768 -0.4751 -1.9825
  616SOL     OW 1846   1.612   1.843   2.878  0.0241  0.7439  0.3339
  616SOL    HW1 1847   1.529   1.857   2.933 -0.1450 -0.2310 -1.1041
  616SOL    HW2 1848   1.691   1.851   2.944  0.6363 -0.2368  0.6735
  617SOL     OW 1849   2.011   2.950   0.366  0.7117  0.4422 -0.2452
  617SOL    HW1 1850   2.038   2.912   0.276  0.5518  1.1262 -0.9740
  617SOL    HW2 1851   1.958   2.878   0.413  1.8154 -1.7137 -0.7057
  618SOL     OW 1852   0.620   0.702   2.552  0.2811 -0.1325 -0.4314
  618SOL    HW1 1853   0.577   0.780   2.501 -0.3112  1.3641  0.1303
  618SOL    HW2 1854   0.720   0.720   2.543  0.4589  2.5173  1.0783
  619SOL     OW 1855   2.789   1.577   1.007 -0.0404 -0.4071 -0.4398
  619SOL    HW1 1856   2.755   1.622   0.923  0.0671 -0.8648 -1.8913
  619SOL    HW2 1857   2.889   1.567   0.999 -1.0768 -1.7461  0.6283
  620SOL     OW 1858   2.125   0.008   2.991  0.3031 -0.1188  0.1174
  620SOL    HW1 1859   2.034   3.097   3.041  0.2133  0.8351  1.5353
  620SOL    HW2 1860   2.127   3.062   2.901 -0.0389 -0.1193  2.2914
  621SOL     OW 1861   2.383   1.489   3.001  0.0717  0.1304 -0.0957
  621SOL    HW1 1862   2.326   1.494   3.088 -2.8254  0.9661 -2.1949
  621SOL    HW2 1863   2.423   1.395   2.983  0.3731  0.9545  0.0461
  622SOL     OW 1864   1.732   2.866   1.935 -0.3381  0.1320 -0.3975
  622SOL    HW1 1865   1.668   2.936   1.905  3.0582 -2.0460  0.5913
  622SOL    HW2 1866   1.830   2.892   1.943 -2.0681 -1.6330 -2.8544
  623SOL     OW 1867   1.267   1.742   0.425  0.1921 -0.8180  0.1953
  623SOL    HW1 1868   1.247   1.813   0.499 -0.0439 -1.7074  1.2046
  623SOL    HW2 1869   1.202   1.753   0.347 -0.1153  1.5985  0.8421
  624SOL     OW 1870   0.279   2.935   0.162  0.4167  0.1721  0.3685
  624SOL    HW1 1871   0.350   2.927   0.088  2.4189  1.4482 -2.0446
  624SOL    HW2 1872   0.202   2.997   0.128 -1.8173  1.4515 -1.5339
  625SOL     OW 1873   0.733   1.627   0.429  0.1983 -0.4939  0.0784
  625SOL    HW1 1874   0.643   1.584   0.412 -3.7154 -1.4511  0.0616
  625SOL    HW2 1875   0.735   1.719   0.474 -0.4711 -0.1533 -2.3228
  626SOL     OW 1876   3.020   2.774   0.058 -0.5977  0.4531  0.3170
  626SOL    HW1 1877   3.067   2.696   0.011  0.2370 -0.5733 -0.6138
  626SOL    HW2 1878   2.989   2.835   3.084  1.9264 -1.3181 -0.8464
  627SOL     OW 1879   1.287   1.922   2.646 -0.1979 -0.1953  0.5221
  627SOL    HW1 1880   1.283   1.831   2.600  0.1699 -1.0280 -0.7166
  627SOL    HW2 1881   1.226   1.921   2.728 -2.6325  1.1359 -0.9617
  628SOL     OW 1882   0.364   3.092   2.740 -0.3489  0.5293 -0.1696
  628SOL    HW1 1883   0.434   0.012   2.666  3.0429 -0.4187 -2.0271
  628SOL    HW2 1884   0.349   2.991   2.739  0.6838 -0.5558 -0.6345
  629SOL     OW 1885   0.353   3.060   2.408 -0.5990 -0.0653  0.0220
  629SOL    HW1 1886   0.440   3.063   2.462 -1.0481  1.0289  1.2380
  629SOL    HW2 1887   0.379   3.032   2.310  0.2322 -2.3118 -3.3868
  630SOL     OW 1888   1.429   1.095   1.866 -0.0298 -0.3062 -0.0300
  630SOL    HW1 1889   1.483   1.008   1.875  0.6510 -3.2181  0.6342
  630SOL    HW2 1890   1.332   1.075   1.861  1.5655  2.3924  0.8446
  631SOL     OW 1891   2.308   1.052   0.569 -0.5401  0.4006 -0.0766
  631SOL    HW1 1892   2.264   0.969   0.606  2.0619  2.4575  3.3106
  631SOL    HW2 1893   2.377   1.019   0.502  1.3166  1.5073 -2.6156
  632SOL     OW 1894   2.460   0.642   2.111  0.3784 -0.0477 -0.0115
  632SOL    HW1 1895   2.393   0.716   2.116 -1.2593  0.0741  0.7865
  632SOL    HW2 1896   2.431   0.567   2.180 -2.5068  0.9086 -0.9033
  633SOL     OW 1897   0.784   2.235   0.214 -0.2721 -0.6248 -0.3512
  633SOL    HW1 1898   0.758   2.258   0.120  0.4804 -1.5267  1.3589
  633SOL    HW2 1899   0.854   2.297   0.245 -3.1300 -1.6522 -1.1711
  634SOL     OW 1900   1.736   2.538   2.450 -0.1413 -0.1132  0.3070
  634SOL    HW1 1901   1.755   2.641   2.438  1.8033  1.7557  1.4815
  634SOL    HW2 1902   1.634   2.525   2.451 -1.0007 -0.3496  0.8296
  635SOL     OW 1903   2.013   0.411   0.128  0.5859  0.2628 -0.2508
  635SOL    HW1 1904   2.086   0.355   0.089 -3.5161  0.3910  2.4162
  635SOL    HW2 1905   2.035   0.425   0.226  1.0746  2.5012  0.2454
  636SOL     OW 1906   0.737   1.369   0.712  0.3548  0.0110 -0.2309
  636SOL    HW1 1907   0.658   1.361   0.648  0.2207 -1.1899 -0.4340
  636SOL    HW2 1908   0.769   1.278   0.746 -0.2189  1.2456  0.4754
  637SOL     OW 1909   0.003   1.905   0.531 -0.1551 -0.5388 -0.0302
  637SOL    HW1 1910   0.031   1.973   0.607  1.8157  3.6756 -1.2766
  637SOL    HW2 1911   3.004   1.910   0.509 -2.1958  1.1965 -0.8944
  638SOL     OW 1912   0.904   0.098   3.024  0.0672 -0.1902  0.2675
  638SOL    HW1 1913   0.922   3.098   3.026 -2.0852  0.6739  3.5582
  638SOL    HW2 1914   0.997   0.141   3.026  0.5301 -0.4647  0.0252
  639SOL     OW 1915   1.408   1.935   3.002 -0.5708  0.5042 -0.5398
  639SOL    HW1 1916   1.400   1.856   3.070  1.2957 -1.0473  1.9916
  639SOL    HW2 1917   1.452   2.017   3.044 -2.7568  0.8779 -0.8548
  640SOL     OW 1918   1.882   2.963   0.778 -0.2127 -0.1400 -0.7699
  640SOL    HW1 1919   1.976   2.990   0.746  1.8205  1.3824  0.4068
  640SOL    HW2 1920   1.867   2.861   0.788  0.8122 -0.7355 -0.2482
  641SOL     OW 1921   0.070   2.763   0.573 -0.2743 -0.0856 -0.2267
  641SOL    HW1 1922   3.087   2.739   0.522  0.7452  0.1442 -1.2346
  641SOL    HW2 1923   0.141   2.795   0.508 -0.9609  0.4814 -2.5935
  642SOL     OW 1924   0.915   0.307   1.673  0.4902 -0.6254 -0.0772
  642SOL    HW1 1925   0.877   0.304   1.579 -1.7330 -1.5979  0.2926
  642SOL    HW2 1926   0.968   0.394   1.691  1.6724 -0.3133  1.0583
  643SOL     OW 1927   0.532   2.137   2.083 -0.1927  0.0171 -0.2131
  643SOL    HW1 1928   0.602   2.212   2.074 -1.9593 -2.1772 -0.0160
  643SOL    HW2 1929   0.451   2.154   2.025 -1.1057  2.7504  1.0282
  644SOL     OW 1930   0.570   2.765   0.459  0.1155  0.1952  0.1139
  644SOL    HW1 1931   0.611   2.856   0.425  0.6046 -0.3569 -2.5125
  644SOL    HW2 1932   0.625   2.737   0.538 -1.5176  0.5334  1.7882
  645SOL     OW 1933   1.458   2.281   2.870  0.2720 -0.2903 -0.3814
  645SOL    HW1 1934   1.512   2.202   2.908 -0.7502 -0.0441  2.7894
  645SOL    HW2 1935   1.428   2.336   2.949 -0.4938 -0.4434 -3.4885
  646SOL     OW 1936   0.402   1.352   3.038 -0.0526  0.5416  0.6346
  646SOL    HW1 1937   0.312   1.383   2.996  0.5418  1.8043  1.4223
  646SOL    HW2 1938   0.437   1.427   3.097 -0.0873  0.0965 -1.0807
  647SOL     OW 1939   0.891   0.068   0.879 -0.4659 -0.0298 -0.3892
  647SOL    HW1 1940   0.825   3.098   0.911  1.9641 -0.2534  0.7732
  647SOL    HW2 1941   0.918   0.142   0.941  0.5147  0.4637  0.2469
  648SOL     OW 1942   1.973   0.262   1.653  0.3395 -0.1304 -0.2325
  648SOL    HW1 1943   1.946   0.342   1.597  0.5014 -0.4696  0.4202
  648SOL    HW2 1944   2.072   0.258   1.657  1.3288  0.4459 -1.2865
  649SOL     OW 1945   0.903   1.787   2.490  0.1108  0.0841 -0.1735
  649SOL    HW1 1946   0.967   1.788   2.569  0.4793 -0.2421 -2.0905
  649SOL    HW2 1947   0.960   1.791   2.404  1.2033 -0.9500 -1.6919
  650SOL     OW 1948   2.796   1.571   1.564 -0.2021 -0.5406  0.0278
  650SOL    HW1 1949   2.840   1.554   1.471 -1.0135 -4.9300 -2.1716
  650SOL    HW2 1950   2.698   1.553   1.550 -2.6822 -1.3810  1.8332
  651SOL     OW 1951   1.223   2.878   0.417 -0.3038  0.7476 -0.3366
  651SOL    HW1 1952   1.212   2.852   0.321  0.0336 -2.5364  0.6189
  651SOL    HW2 1953   1.303   2.831   0.452 -2.0160 -1.3630 -1.7492
  652SOL     OW 1954   2.796   1.820   0.009 -0.2899 -0.5336 -0.0731
  652SOL    HW1 1955   2.733   1.749   3.080  2.0421 -1.0897 -3.1921
  652SOL    HW2 1956   2.760   1.916   0.004  2.7917 -2.4364  0.1156
  653SOL     OW 1957   3.096   0.317   0.998  0.3365 -0.0455  0.5485
  653SOL    HW1 1958   3.049   0.308   1.089  0.2772  0.1186  1.4312
  653SOL    HW2 1959   3.046   0.388   0.941 -3.1292 -0.2478  1.3399
  654SOL     OW 1960   2.055   0.178   2.614 -0.0928 -0.6164  0.4425
  654SOL    HW1 1961   2.010   0.147   2.529 -0.7638 -2.4131  2.1934
  654SOL    HW2 1962   2.066   0.102   2.682  0.0127 -0.3997 -0.1024
  655SOL     OW 1963   0.486   2.533   0.892  0.3259 -0.1459 -0.5731
  655SOL    HW1 1964   0.443   2.615   0.846 -1.1910 -0.3893  1.3872
  655SOL    HW2 1965   0.430   2.501   0.974 -2.8783  0.3036  4.5027
  656SOL     OW 1966   0.155   0.044   2.066 -0.2339 -0.5062 -0.0551
  656SOL    HW1 1967   0.073   0.053   2.129 -0.6028 -2.1354 -1.7914
  656SOL    HW2 1968   0.130   3.079   1.993 -1.3475  1.2110  0.4550
  657SOL     OW 1969   2.400   0.454   2.567 -0.5120 -0.4600  0.1670
  657SOL    HW1 1970   2.302   0.470   2.555  0.1905  3.0206  0.3296
  657SOL    HW2 1971   2.420   0.381   2.636 -1.5341  0.8005  0.2392
  658SOL     OW 1972   2.188   1.909   1.067  0.2547  0.0781 -0.0839
  658SOL    HW1 1973   2.160   2.000   1.035 -0.4239 -0.5523  0.5662
  658SOL    HW2 1974   2.175   1.897   1.168 -1.0382 -1.4486 -0.5463
  659SOL     OW 1975   2.204   0.229   0.071 -0.5185 -0.2275 -0.5659
  659SOL    HW1 1976   2.251   0.240   0.165 -3.1061 -0.9366 -0.5117
  659SOL    HW2 1977   2.197   0.135   0.032 -0.0832  1.1126  0.3538
  660SOL     OW 1978   1.416   1.525   2.963 -0.6032  0.0484 -0.8214
  660SOL    HW1 1979   1.513   1.521   2.926  0.1171  1.7068 -1.7275
  660SOL    HW2 1980   1.394   1.607   3.022  0.3254  1.5547 -2.4283
  661SOL     OW 1981   2.379   2.491   0.893  0.3507  0.1151  0.2337
  661SOL    HW1 1982   2.403   2.441   0.805  0.1280 -1.0751 -1.0492
  661SOL    HW2 1983   2.469   2.540   0.919  2.0739  1.8102 -0.4618
  662SOL     OW 1984   0.614   0.750   0.220  0.4173  0.2920  0.1343
  662SOL    HW1 1985   0.646   0.656   0.239 -1.7048 -0.8741  2.3161
  662SOL    HW2 1986   0.636   0.809   0.303 -1.7148 -0.0547 -2.3904
  663SOL     OW 1987   1.824   2.179   2.997  0.0804 -0.6941  0.2333
  663SOL    HW1 1988   1.825   2.223   2.901 -1.8890 -0.5152 -1.3599
  663SOL    HW2 1989   1.914   2.176   3.040 -1.2856  0.2864  0.5023
  664SOL     OW 1990   0.600   2.086   1.316 -0.2371  0.3380  0.1195
  664SOL    HW1 1991   0.547   2.172   1.341  0.5572 -0.6291 -1.7876
  664SOL    HW2 1992   0.640   2.098   1.222  0.6303  0.3367 -0.0959
  665SOL     OW 1993   1.729   2.267   2.010 -0.6056  0.1730  0.3542
  665SOL    HW1 1994   1.773   2.355   1.989 -1.5019 -0.3472  1.4138
  665SOL    HW2 1995   1.713   2.222   1.920  2.9906 -0.8380 -0.3928
  666SOL     OW 1996   0.468   2.611   0.244  0.5805  0.3937 -0.3967
  666SOL    HW1 1997   0.513   2.655   0.323 -2.4558  2.1798 -2.5022
  666SOL    HW2 1998   0.493   2.508   0.241 -0.2607 -4.5544  0.2026
  667SOL     OW 1999   2.004   1.200   1.974 -0.0683 -0.2740  0.3236
  667SOL    HW1 2000   2.059   1.199   2.059 -1.5659  1.6634  0.9314
  667SOL    HW2 2001   1.918   1.153   1.994 -1.8877 -1.4182 -1.3139
  668SOL     OW 2002   0.428   0.529   2.627 -0.4517 -0.6414  0.1106
  668SOL    HW1 2003   0.508   0.592   2.608  0.7382  0.8593 -1.3442
  668SOL    HW2 2004   0.463   0.437   2.615  0.3575  2.5824  0.7931
  669SOL     OW 2005   1.632   2.179   2.553 -0.0527  0.0403  0.1500
  669SOL    HW1 2006   1.606   2.092   2.602 -0.7857  3.2006 -0.7185
  669SOL    HW2 2007   1.613   2.170   2.456  0.8783 -4.1274 -1.2752
  670SOL     OW 2008   2.269   2.299   2.971  0.1718 -0.5791  0.6526
  670SOL    HW1 2009   2.305   2.383   3.019  0.2659  3.1932 -0.4756
  670SOL    HW2 2010   2.246   2.318   2.870 -0.8154  3.4512 -0.0352
  671SOL     OW 2011   0.844   1.282   1.074 -0.5810  0.0274 -0.5797
  671SOL    HW1 2012   0.841   1.261   1.174  1.1221  0.9222 -0.3486
  671SOL    HW2 2013   0.847   1.382   1.061  0.2212 -0.5456  1.2754
  672SOL     OW 2014   2.489   0.950   2.545 -0.1982  0.1240  0.0444
  672SOL    HW1 2015   2.468   0.967   2.449 -0.0978  0.9704  2.2926
  672SOL    HW2 2016   2.562   1.013   2.582 -1.0709 -0.7090  0.1313
  673SOL     OW 2017   2.565   2.663   2.129 -0.1119  0.2011 -0.9642
  673SOL    HW1 2018   2.655   2.715   2.134  0.0003  1.3698 -0.8169
  673SOL    HW2 2019   2.534   2.636   2.035  0.5781  0.4270  1.1941
  674SOL     OW 2020   1.159   2.397   2.258  0.0718  0.0382  0.5932
  674SOL    HW1 2021   1.078   2.385   2.197 -1.1009 -0.1955  0.6196
  674SOL    HW2 2022   1.248   2.371   2.220  0.9641  0.5995  0.4125
  675SOL     OW 2023   0.749   0.895   1.661 -0.4296 -0.2689  0.3359
  675SOL    HW1 2024   0.818   0.822   1.638 -2.2433 -1.1693 -0.4438
  675SOL    HW2 2025   0.692   0.871   1.741  0.7761 -1.1160  1.8947
  676SOL     OW 2026   1.747   0.912   0.811 -0.2998  0.8685  0.1618
  676SOL    HW1 2027   1.659   0.904   0.868 -0.2875 -2.4688  0.9158
  676SOL    HW2 2028   1.745   0.978   0.735  0.8528  1.1490 -4.3493
  677SOL     OW 2029   2.548   1.848   2.574 -0.2668 -0.3032 -0.0308
  677SOL    HW1 2030   2.558   1.758   2.620 -2.1033  1.9109 -1.7538
  677SOL    HW2 2031   2.562   1.830   2.477  1.1170  1.5777 -2.2115
  678SOL     OW 2032   2.572   2.033   1.020 -0.4893  0.0642  0.1772
  678SOL    HW1 2033   2.609   2.110   1.078  0.3110  2.3253  3.1003
  678SOL    HW2 2034   2.546   1.959   1.083 -0.9072 -1.2291  0.7398
  679SOL     OW 2035   1.656   2.638   0.687  0.6332  0.2299 -0.0799
  679SOL    HW1 2036   1.587   2.558   0.692 -1.6374  0.3755  3.5593
  679SOL    HW2 2037   1.721   2.619   0.615 -0.5398 -1.0150  1.0589
  680SOL     OW 2038   0.236   2.682   2.358 -0.0305 -0.5681  0.0247
  680SOL    HW1 2039   0.214   2.769   2.409  2.9405  1.6714 -0.9191
  680SOL    HW2 2040   0.337   2.664   2.341  2.2123 -3.8655  0.4248
  681SOL     OW 2041   0.009   1.321   1.468 -0.4364 -0.0408 -0.3260
  681SOL    HW1 2042   0.045   1.349   1.559 -0.7321 -0.2332 -0.2532
  681SOL    HW2 2043   3.051   1.241   1.489  0.0880 -3.3104  0.1578
  682SOL     OW 2044   0.301   1.977   1.226  0.1863  0.3316  0.4829
  682SOL    HW1 2045   0.262   2.032   1.301 -1.1312 -0.7610 -1.1836
  682SOL    HW2 2046   0.378   1.918   1.261  1.9364  0.1297 -0.3311
  683SOL     OW 2047   2.374   1.367   1.307  0.0539  0.0513  0.1462
  683SOL    HW1 2048   2.320   1.398   1.229  2.1760  1.4710  1.9184
  683SOL    HW2 2049   2.427   1.447   1.339  2.1054  2.6529 -0.1133
  684SOL     OW 2050   2.605   1.620   3.052 -0.3657  0.1725 -0.2553
  684SOL    HW1 2051   2.659   1.547   3.012 -1.0303  0.4887 -0.5113
  684SOL    HW2 2052   2.508   1.585   3.050 -0.0621  0.4713 -2.5951
  685SOL     OW 2053   1.438   1.331   0.127 -0.3005  0.2305  0.6849
  685SOL    HW1 2054   1.411   1.356   0.031  0.6399 -2.0294  0.2380
  685SOL    HW2 2055   1.538   1.307   0.130 -0.6727 -0.0171  1.6334
  686SOL     OW 2056   0.184   0.320   1.182 -0.4012 -0.5993  0.0243
  686SOL    HW1 2057   0.164   0.277   1.271 -1.3473  0.8557  1.0115
  686SOL    HW2 2058   0.109   0.312   1.112 -0.0642 -0.0014  0.9270
  687SOL     OW 2059   0.988   2.015   2.197  0.0672  0.2553 -0.1055
  687SOL    HW1 2060   1.085   1.996   2.214  0.0454 -1.4260 -0.5822
  687SOL    HW2 2061   0.931   1.930   2.216 -1.4498 -2.7631  0.9952
  688SOL     OW 2062   0.203   1.841   1.025  0.5522 -0.1874  0.2229
  688SOL    HW1 2063   0.242   1.902   1.101  0.5453 -0.8426 -1.4825
  688SOL    HW2 2064   0.279   1.806   0.970 -0.8461  2.5988 -2.0549
  689SOL     OW 2065   1.594   0.844   1.615  0.4840  0.7561 -0.0861
  689SOL    HW1 2066   1.605   0.919   1.549  2.2207 -2.5886  1.0392
  689SOL    HW2 2067   1.573   0.760   1.567  1.5045  1.1578 -2.5899
  690SOL     OW 2068   2.512   1.016   1.001  0.0287  0.1357  0.2132
  690SOL    HW1 2069   2.479   0.952   0.930  0.5271 -1.3269  0.2720
  690SOL    HW2 2070   2.607   0.985   1.029 -0.1342  0.2794 -1.4441
  691SOL     OW 2071   0.326   2.188   1.900 -0.1218 -0.3587 -0.5903
  691SOL    HW1 2072   0.258   2.265   1.892  0.3271  1.6502 -0.3951
  691SOL    HW2 2073   0.272   2.099   1.908  0.8961 -1.0735 -0.4364
  692SOL     OW 2074   1.932   0.081   1.049 -0.3530  0.7957  0.5612
  692SOL    HW1 2075   1.993   0.156   1.026 -0.8449  1.0389 -2.6338
  692SOL    HW2 2076   1.975   3.092   1.017  1.2732  0.4842 -1.7358
  693SOL     OW 2077   0.201   1.491   2.341  0.4667  0.0158  0.1599
  693SOL    HW1 2078   0.254   1.581   2.353 -0.6773 -2.3436  0.9577
  693SOL    HW2 2079   0.108   1.497   2.292 -2.2038  2.3525 -0.5811
  694SOL     OW 2080   2.114   0.704   1.060  0.1468  0.6194  0.1245
  694SOL    HW1 2081   2.190   0.719   1.130  1.5140 -1.8248 -2.7777
  694SOL    HW2 2082   2.070   0.791   1.036  2.2912 -1.3678 -0.8834
  695SOL     OW 2083   0.924   1.390   1.624  0.4340  0.6335 -0.0746
  695SOL    HW1 2084   0.869   1.307   1.620  2.4099  1.0926  1.1301
  695SOL    HW2 2085   1.008   1.372   1.569  0.5953 -1.4241 -2.4090
  696SOL     OW 2086   1.353   3.070   0.080  0.1757  0.2204 -0.5731
  696SOL    HW1 2087   1.310   2.989   0.126  0.1595  0.2718  0.7810
  696SOL    HW2 2088   1.374   0.047   0.145  0.8311 -0.0589 -0.4016
  697SOL     OW 2089   0.975   0.387   1.178  0.1473 -0.5252  0.0560
  697SOL    HW1 2090   0.909   0.367   1.105  1.0313  1.4229  3.9733
  697SOL    HW2 2091   1.070   0.351   1.152  2.4308 -2.2702  0.7081
  698SOL     OW 2092   1.216   1.469   2.122  0.4243 -0.8662  0.1153
  698SOL    HW1 2093   1.182   1.419   2.043  1.6701  0.3832 -0.9460
  698SOL    HW2 2094   1.136   1.507   2.175 -2.0941 -0.6499  1.0398
  699SOL     OW 2095   1.346   0.819   1.113  0.0570 -0.2607  0.0379
  699SOL    HW1 2096   1.290   0.903   1.138  0.4869 -2.3077  0.0635
  699SOL    HW2 2097   1.299   0.749   1.048 -3.2590 -0.2019 -2.1031
  700SOL     OW 2098   0.999   2.805   0.537  0.8532  0.1513  1.3842
  700SOL    HW1 2099   1.079   2.834   0.485 -1.0090 -2.6242  1.4274
  700SOL    HW2 2100   0.940   2.885   0.570 -2.0129 -0.2424 -1.2980
  701SOL     OW 2101   2.422   2.984   2.603 -0.4359  0.2205  0.2282
  701SOL    HW1 2102   2.415   2.883   2.592 -0.9420 -1.7871 -0.0585
  701SOL    HW2 2103   2.457   3.035   2.523 -1.2588  0.1250 -0.6881
  702SOL     OW 2104   1.137   0.207   0.280  0.6247 -0.3590 -0.4660
  702SOL    HW1 2105   1.237   0.203   0.251  2.6964  0.0533 -2.1469
  702SOL    HW2 2106   1.125   0.145   0.361  1.0004  0.0378  2.4916
  703SOL     OW 2107   2.575   3.094   2.396 -0.0948  0.1586 -0.1330
  703SOL    HW1 2108   2.528   3.021   2.345  0.9391  0.0269  1.1321
  703SOL    HW2 2109   2.587   0.077   2.335 -1.5505  2.7581  0.1957
  704SOL     OW 2110   3.055   1.617   0.555 -0.4602  0.0189  0.3521
  704SOL    HW1 2111   3.092   1.584   0.461 -0.3317 -0.8079 -1.3110
  704SOL    HW2 2112   3.058   1.720   0.560 -1.6739 -1.3244  0.0181
  705SOL     OW 2113   3.032   2.938   2.227 -0.4108  0.5357 -0.0572
  705SOL    HW1 2114   3.031   3.037   2.234  1.8346  1.2403 -0.5027
  705SOL    HW2 2115   3.068   2.902   2.316  1.4513 -0.6915  1.1100
  706SOL     OW 2116   2.156   2.577   0.736 -0.2403 -0.0194  0.5206
  706SOL    HW1 2117   2.217   2.553   0.812  0.1374  0.0433 -0.2738
  706SOL    HW2 2118   2.121   2.497   0.686 -2.8908  0.7611 -1.5411
  707SOL     OW 2119   1.129   2.177   1.458  0.1720  0.0801  0.2540
  707SOL    HW1 2120   1.051   2.131   1.500  1.8655  0.7986  2.3347
  707SOL    HW2 2121   1.142   2.140   1.364 -0.3165  2.1920  0.5128
  708SOL     OW 2122   3.032   2.230   1.704  0.0479 -0.3645 -0.1759
  708SOL    HW1 2123   3.079   2.269   1.620  4.1524  0.4582 -0.3169
  708SOL    HW2 2124   3.095   2.153   1.729 -0.1007 -0.3977 -1.1186
  709SOL     OW 2125   2.136   0.084   2.019 -0.2560  0.0271 -0.1733
  709SOL    HW1 2126   2.134   0.062   2.120  0.1542 -1.5562 -0.4174
  709SOL    HW2 2127   2.217   0.039   1.974 -1.1042  1.5504  0.8556
  710SOL     OW 2128   2.089   0.950   2.729  0.1397  0.3762 -0.1091
  710SOL    HW1 2129   2.044   0.933   2.822  0.9204 -2.9637 -1.2784
  710SOL    HW2 2130   2.191   0.965   2.740 -0.2664  0.7580 -0.0749
  711SOL     OW 2131   1.012   2.155   3.001 -0.1833 -0.3306  0.0036
  711SOL    HW1 2132   1.047   2.248   3.014 -0.8569  2.0112 -3.5475
  711SOL    HW2 2133   0.916   2.156   2.964  0.0139  2.9386  0.1732
  712SOL     OW 2134   0.668   2.221   2.550  0.1040  0.3301  0.2847
  712SOL    HW1 2135   0.705   2.206   2.456  3.5418  1.3203  0.6557
  712SOL    HW2 2136   0.569   2.194   2.551  0.1375 -1.3527 -0.7650
  713SOL     OW 2137   1.798   1.465   3.008 -0.0577  0.4002 -0.3554
  713SOL    HW1 2138   1.745   1.502   2.928  0.7245  0.0829  0.2409
  713SOL    HW2 2139   1.741   1.392   3.056 -1.8685 -2.2876 -0.4334
  714SOL     OW 2140   1.137   1.684   1.478  0.4165 -0.6718 -0.4130
  714SOL    HW1 2141   1.230   1.696   1.438 -1.4293  1.0798 -0.0154
  714SOL    HW2 2142   1.143   1.693   1.579  0.7773 -0.1898 -0.3255
  715SOL     OW 2143   1.643   0.306   0.082 -0.5831 -0.6422  0.0643
  715SOL    HW1 2144   1.692   0.394   0.065 -0.8859 -1.3731 -0.6433
  715SOL    HW2 2145   1.705   0.246   0.139  1.0824 -0.1033  0.4920
  716SOL     OW 2146   0.239   2.742   2.087  0.6399 -0.1440  0.1846
  716SOL    HW1 2147   0.157   2.761   2.033 -2.2128  0.6348  2.5904
  716SOL    HW2 2148   0.214   2.694   2.171  0.5616 -0.8422 -2.4142
  717SOL     OW 2149   3.069   0.732   1.052 -0.0612 -0.0327  0.0866
  717SOL    HW1 2150   0.019   0.817   1.087  2.0802  2.7716 -2.3096
  717SOL    HW2 2151   3.052   0.674   1.134  1.6044 -1.6243  2.7145
  718SOL     OW 2152   0.687   1.348   2.392  0.1797  0.1261 -0.2342
  718SOL    HW1 2153   0.651   1.405   2.467  1.7284  2.7908 -1.5870
  718SOL    HW2 2154   0.630   1.373   2.306 -1.5510  0.6989 -1.2182
  719SOL     OW 2155   2.422   1.169   3.095 -0.4584 -0.4378  0.0384
  719SOL    HW1 2156   2.323   1.165   3.083  1.7692 -0.4669  1.6700
  719SOL    HW2 2157   2.477   1.185   3.006 -0.6680  0.6923 -0.0821
  720SOL     OW 2158   0.781   0.906   1.167  0.1312  0.1245  0.2833
  720SOL    HW1 2159   0.797   0.959   1.251 -0.4243  1.9465 -0.4541
  720SOL    HW2 2160   0.775   0.803   1.190  0.1922 -0.6682  1.6207
  721SOL     OW 2161   2.627   0.255   0.343  0.1656  0.1215 -0.1464
  721SOL    HW1 2162   2.674   0.293   0.257  2.7654 -2.4380 -0.6665
  721SOL    HW2 2163   2.677   0.170   0.362  0.3084  2.1258  1.6901
  722SOL     OW 2164   2.198   0.616   2.873 -0.0068  0.9017 -0.3901
  722SOL    HW1 2165   2.183   0.514   2.870 -0.4205 -0.2535 -1.9709
  722SOL    HW2 2166   2.176   0.659   2.783 -0.7521  0.0373  0.3200
  723SOL     OW 2167   2.519   0.337   0.594 -0.2447 -0.0955  0.2305
  723SOL    HW1 2168   2.582   0.329   0.514  0.3066 -0.6610 -1.4412
  723SOL    HW2 2169   2.519   0.248   0.640 -1.1542  0.9644 -1.7634
  724SOL     OW 2170   0.808   1.714   1.957 -0.1310 -0.3970  0.4263
  724SOL    HW1 2171   0.771   1.633   2.008 -1.9411  1.0336 -1.3006
  724SOL    HW2 2172   0.824   1.683   1.860  0.3814 -1.2365 -2.4681
  725SOL     OW 2173   1.922   0.466   1.488  1.1241  0.2769  0.0519
  725SOL    HW1 2174   1.836   0.517   1.478  1.2096  0.7221  1.8954
  725SOL    HW2 2175   1.958   0.430   1.395  2.0355 -1.9209 -5.5014
  726SOL     OW 2176   1.941   2.734   0.529 -0.3398  0.7542 -0.0413
  726SOL    HW1 2177   2.035   2.700   0.543 -0.1826 -1.4204 -0.8484
  726SOL    HW2 2178   1.878   2.664   0.499  0.9751  1.5146  0.4048
  727SOL     OW 2179   1.806   1.651   1.972 -0.1050  0.0396  0.1875
  727SOL    HW1 2180   1.888   1.679   2.035  1.2296  1.2585  0.5901
  727SOL    HW2 2181   1.810   1.562   1.925  0.4944  3.7253 -1.5904
  728SOL     OW 2182   2.008   2.907   1.667  0.2961  0.1143  0.0428
  728SOL    HW1 2183   1.961   2.991   1.618 -2.2823 -0.4873  0.8248
  728SOL    HW2 2184   2.017   2.825   1.605  0.2559 -3.6590  0.8472
  729SOL     OW 2185   2.376   1.400   0.841  0.0830 -0.5936 -0.1189
  729SOL    HW1 2186   2.300   1.343   0.812  0.6640 -0.1503  2.4833
  729SOL    HW2 2187   2.370   1.488   0.789 -4.0843  0.4110 -1.0225
  730SOL     OW 2188   0.385   1.150   2.454 -0.5150 -0.6293 -0.2140
  730SOL    HW1 2189   0.348   1.231   2.499  0.3626 -2.1893  0.0653
  730SOL    HW2 2190   0.400   1.174   2.355  1.0530 -3.8294  2.7186
  731SOL     OW 2191   0.052   0.085   0.865 -0.6329  0.0076 -0.7474
  731SOL    HW1 2192   0.139   0.026   0.879  2.7240 -3.0473 -2.4482
  731SOL    HW2 2193   0.062   0.178   0.906  0.6810  1.3647  2.4477
  732SOL     OW 2194   1.400   0.810   0.339  0.0751 -0.1049  0.5230
  732SOL    HW1 2195   1.371   0.795   0.434  0.6027  0.2789  0.4753
  732SOL    HW2 2196   1.417   0.717   0.297 -0.0189 -1.0070 -1.2482
  733SOL     OW 2197   0.411   1.794   0.862 -0.4742  0.0121  0.1352
  733SOL    HW1 2198   0.500   1.847   0.858 -1.5131 -1.0064 -0.8235
  733SOL    HW2 2199   0.354   1.791   0.775  2.0932 -0.6809  1.9959
  734SOL     OW 2200   0.148   2.458   0.418  0.5969 -0.0844  0.2860
  734SOL    HW1 2201   0.144   2.533   0.345 -1.3529  1.0450 -0.1076
  734SOL    HW2 2202   0.058   2.454   0.470 -0.8106 -1.0581  1.8928
  735SOL     OW 2203   1.192   0.260   1.086  0.0538  0.0665 -0.0254
  735SOL    HW1 2204   1.188   0.173   1.138  0.7232  0.3689  1.0936
  735SOL    HW2 2205   1.282   0.301   1.096 -3.1391  0.0719 -1.4458
  736SOL     OW 2206   1.997   2.541   0.013  0.1756 -0.2778 -0.0655
  736SOL    HW1 2207   2.063   2.594   3.054 -0.3918 -1.0886  0.8320
  736SOL    HW2 2208   1.905   2.566   3.088  1.6064 -1.4559 -3.4643
  737SOL     OW 2209   0.209   0.754   0.884 -0.4024 -1.0006  0.1168
  737SOL    HW1 2210   0.135   0.697   0.852  2.2564  1.7167  1.4228
  737SOL    HW2 2211   0.223   0.833   0.819 -1.4768  0.0969 -1.0978
  738SOL     OW 2212   2.759   2.865   1.593  0.1152  0.0316 -0.0861
  738SOL    HW1 2213   2.755   2.866   1.693  3.0994  2.0797 -1.3930
  738SOL    HW2 2214   2.840   2.915   1.557  2.4439 -0.3434 -1.3201
  739SOL     OW 2215   1.553   2.529   2.791  0.4545 -0.0134 -0.0727
  739SOL    HW1 2216   1.508   2.533   2.699 -1.0971 -0.9135  3.2945
  739SOL    HW2 2217   1.550   2.431   2.819  2.7045  1.9780 -0.4737
  740SOL     OW 2218   1.448   0.358   1.093 -0.2870 -0.8931  0.1768
  740SOL    HW1 2219   1.474   0.300   1.174  0.8863  1.6471 -1.8480
  740SOL    HW2 2220   1.528   0.355   1.030  0.1860  0.3281  1.4409
  741SOL     OW 2221   2.899   0.824   0.871  0.6151  0.1379 -0.5844
  741SOL    HW1 2222   2.841   0.746   0.846 -0.8051 -0.6228  1.8675
  741SOL    HW2 2223   2.969   0.803   0.939 -1.8292  1.2556 -0.5432
  742SOL     OW 2224   0.543   1.497   2.585  0.0705  0.0578  0.3532
  742SOL    HW1 2225   0.606   1.482   2.662  0.5401 -0.1338  1.1815
  742SOL    HW2 2226   0.523   1.597   2.574  0.0540  1.4204  1.1565
  743SOL     OW 2227   1.472   0.599   2.178 -0.2208 -0.1725 -0.4155
  743SOL    HW1 2228   1.484   0.661   2.098  0.2841  2.4621 -0.2313
  743SOL    HW2 2229   1.488   0.502   2.156  0.5649 -1.8524  1.7984
  744SOL     OW 2230   2.045   0.862   1.430 -0.8314 -0.0314 -0.1042
  744SOL    HW1 2231   2.147   0.882   1.435  1.7911 -0.7800 -0.3289
  744SOL    HW2 2232   1.990   0.939   1.469  0.2481 -0.6814  1.3600
  745SOL     OW 2233   1.083   1.495   1.852 -0.5642  0.9951  0.3842
  745SOL    HW1 2234   1.019   1.485   1.772  0.4333 -0.8496  0.1862
  745SOL    HW2 2235   1.105   1.400   1.892 -0.8153 -1.9933  0.4968
  746SOL     OW 2236   2.071   1.662   0.998 -0.8508 -0.6199 -0.1331
  746SOL    HW1 2237   2.135   1.742   0.991 -4.3407  1.1785 -1.1533
  746SOL    HW2 2238   2.059   1.620   0.904 -1.0350 -2.7655  0.4553
  747SOL     OW 2239   2.235   1.445   1.083 -0.0570 -0.3427 -1.0229
  747SOL    HW1 2240   2.151   1.505   1.060 -2.2107  0.0657 -0.8642
  747SOL    HW2 2241   2.301   1.435   1.006  1.2872 -1.2535 -1.9628
  748SOL     OW 2242   0.665   1.968   0.819  0.3327  0.0054 -0.0090
  748SOL    HW1 2243   0.645   2.069   0.845 -0.5099  2.8867  1.7876
  748SOL    HW2 2244   0.760   1.938   0.845 -1.5862  0.2511 -2.0839
  749SOL     OW 2245   2.136   2.748   2.307  0.3653 -0.1124 -0.7199
  749SOL    HW1 2246   2.123   2.746   2.202 -0.3614 -1.9351  0.4575
  749SOL    HW2 2247   2.213   2.688   2.335  2.9702 -1.9707  1.8044
  750SOL     OW 2248   2.408   0.397   0.851  0.7979 -0.5285  0.0071
  750SOL    HW1 2249   2.428   0.352   0.765  1.3463 -2.4450 -1.2794
  750SOL    HW2 2250   2.325   0.455   0.841 -0.5870 -1.7004  1.4487
  751SOL     OW 2251   2.644   2.682   0.443 -0.4177  0.5325 -0.0677
  751SOL    HW1 2252   2.653   2.665   0.344 -1.8864 -0.8170  0.4701
  751SOL    HW2 2253   2.578   2.762   0.459  1.2782  2.2136 -0.6393
  752SOL     OW 2254   3.015   2.839   0.806 -0.2119  0.0120 -0.5753
  752SOL    HW1 2255   3.041   2.786   0.727  2.2082  1.4515  0.2940
  752SOL    HW2 2256   3.030   2.937   0.796 -1.6015 -0.6481 -0.6890
  753SOL     OW 2257   1.668   0.974   2.253 -0.1994  0.2236 -0.6406
  753SOL    HW1 2258   1.598   1.035   2.208  2.5588  1.2792  0.6752
  753SOL    HW2 2259   1.616   0.898   2.292  0.9251  1.2708 -0.9259
  754SOL     OW 2260   1.685   2.108   1.801  0.2492 -0.0066 -0.3721
  754SOL    HW1 2261   1.664   2.148   1.710 -1.1512 -1.3941  0.3829
  754SOL    HW2 2262   1.726   2.011   1.796  0.0541 -2.1910  1.5121
  755SOL     OW 2263   2.653   0.674   0.857 -0.0192 -0.3903  0.1287
  755SOL    HW1 2264   2.615   0.642   0.945 -1.4898 -1.8444  2.4700
  755SOL    HW2 2265   2.588   0.738   0.810  1.8357  1.1325  1.6838
  756SOL     OW 2266   0.715   1.471   2.808  0.7273 -0.4372  0.1841
  756SOL    HW1 2267   0.812   1.466   2.811 -2.0885 -1.1485  3.1310
  756SOL    HW2 2268   0.675   1.535   2.876 -0.1562  0.1773  0.4088
  757SOL     OW 2269   1.198   2.693   0.749 -0.1953  0.2062 -0.5494
  757SOL    HW1 2270   1.127   2.762   0.723 -2.2595  0.6116 -0.7329
  757SOL    HW2 2271   1.284   2.718   0.703 -2.6455 -0.9867  2.0688
  758SOL     OW 2272   1.058   2.791   1.378  0.3622  0.0242  0.4361
  758SOL    HW1 2273   1.018   2.840   1.301 -0.0517 -0.3382  1.4507
  758SOL    HW2 2274   1.001   2.824   1.456  0.9290 -1.6614 -0.2437
  759SOL     OW 2275   0.297   0.505   0.596 -0.3146  0.7518  0.6190
  759SOL    HW1 2276   0.250   0.484   0.686 -0.0500 -0.7677  0.2888
  759SOL    HW2 2277   0.232   0.516   0.516  0.3132  1.9281  1.1069
  760SOL     OW 2278   2.344   1.116   1.224 -0.0815  0.9715 -0.1920
  760SOL    HW1 2279   2.402   1.083   1.151  0.6431 -0.2289  1.7019
  760SOL    HW2 2280   2.379   1.201   1.264  2.6418 -0.4775  2.7509
  761SOL     OW 2281   1.864   0.422   0.972 -0.0658 -0.1558  0.1113
  761SOL    HW1 2282   1.784   0.359   0.962  1.4824  0.7612 -0.1469
  761SOL    HW2 2283   1.949   0.380   0.930  1.6774 -2.1011 -1.5563
  762SOL     OW 2284   2.383   1.941   0.447  0.0466  0.1143  0.8999
  762SOL    HW1 2285   2.406   1.882   0.368  0.6792  0.3373  0.9797
  762SOL    HW2 2286   2.445   2.025   0.441  1.1311  0.3622  1.5579
  763SOL     OW 2287   0.754   1.531   1.333  0.0199 -0.3224  0.2386
  763SOL    HW1 2288   0.683   1.533   1.260  0.5622 -1.1707  2.4429
  763SOL    HW2 2289   0.825   1.604   1.312 -2.1104  2.3099  1.4331
  764SOL     OW 2290   2.662   2.095   2.491  0.5446  0.1520  0.0892
  764SOL    HW1 2291   2.596   2.137   2.425  1.8947 -0.7089 -1.4148
  764SOL    HW2 2292   2.651   1.994   2.509  1.6567 -2.9177 -0.1223
  765SOL     OW 2293   0.745   2.528   1.051 -0.1233 -0.8691 -0.1082
  765SOL    HW1 2294   0.791   2.585   0.973  1.2229  0.6631 -2.5605
  765SOL    HW2 2295   0.642   2.528   1.044  1.2575  0.0377  2.5618
  766SOL     OW 2296   2.956   2.021   2.280  0.0342 -0.2165 -0.0686
  766SOL    HW1 2297   3.003   1.935   2.249  0.1094  3.7019 -0.6744
  766SOL    HW2 2298   3.007   2.075   2.352  2.9694  0.4016  4.1194
  767SOL     OW 2299   2.346   1.002   2.770  0.4437 -0.0479  0.0435
  767SOL    HW1 2300   2.406   0.991   2.682  0.4650  0.8350  0.0989
  767SOL    HW2 2301   2.389   0.956   2.851 -0.3823  1.2027 -0.7434
  768SOL     OW 2302   1.317   0.327   2.587  0.0318 -0.1219  0.4322
  768SOL    HW1 2303   1.296   0.426   2.584 -0.0606  1.9911  0.7919
  768SOL    HW2 2304   1.250   0.276   2.640  2.4883  4.4472  0.1321
  769SOL     OW 2305   0.103   2.463   1.061 -0.3661  0.7217 -0.9099
  769SOL    HW1 2306   0.103   2.471   0.955 -0.1838 -0.1686  1.0531
  769SOL    HW2 2307   0.202   2.443   1.095  3.8344  1.4539  0.8821
  770SOL     OW 2308   0.559   0.461   0.074 -0.1699  0.3619 -0.4766
  770SOL    HW1 2309   0.587   0.531   0.005  1.7217 -2.2065 -1.2690
  770SOL    HW2 2310   0.593   0.489   0.166 -0.2613  0.3618  1.7880
  771SOL     OW 2311   1.297   1.674   2.565 -0.4969  0.1223  0.7739
  771SOL    HW1 2312   1.308   1.652   2.467 -3.2217  2.6183 -0.7156
  771SOL    HW2 2313   1.281   1.596   2.630 -1.1485 -1.8186  0.3253
  772SOL     OW 2314   2.119   0.022   2.276  0.0864  0.0187 -0.0359
  772SOL    HW1 2315   2.147   3.025   2.285 -1.9842  0.4773  0.6176
  772SOL    HW2 2316   2.049   0.050   2.347 -3.7131  3.2550  0.1372
  773SOL     OW 2317   1.518   0.826   1.867  0.3421  0.5139 -0.1596
  773SOL    HW1 2318   1.558   0.838   1.770 -1.6999 -1.1397  2.1121
  773SOL    HW2 2319   1.578   0.762   1.925  0.1319 -1.6350  2.9520
  774SOL     OW 2320   1.258   0.608   1.468  0.3309  0.2663  0.0497
  774SOL    HW1 2321   1.325   0.613   1.392  0.8563 -1.8749  1.3825
  774SOL    HW2 2322   1.293   0.653   1.552  3.4561  0.9023  0.2571
  775SOL     OW 2323   2.055   2.843   0.117  0.2376 -0.1260  0.2946
  775SOL    HW1 2324   1.989   2.771   0.095  0.6047 -1.1078  0.1823
  775SOL    HW2 2325   2.139   2.824   0.060  0.3567 -0.5360  1.9392
  776SOL     OW 2326   1.926   1.032   1.611  0.0234 -0.1069  0.4682
  776SOL    HW1 2327   1.857   0.981   1.670 -0.3372 -0.6042  0.1795
  776SOL    HW2 2328   2.013   1.041   1.664 -1.5611  1.4143 -1.5080
  777SOL     OW 2329   3.048   1.438   2.173 -0.2117  0.3104  0.2134
  777SOL    HW1 2330   3.007   1.354   2.136 -1.0563  2.4466  0.6635
  777SOL    HW2 2331   3.033   1.515   2.111  1.0624  0.2824 -1.1945
  778SOL     OW 2332   2.652   1.134   2.653  0.0920 -0.2289  0.4739
  778SOL    HW1 2333   2.738   1.098   2.692 -4.1974  0.4237  0.4569
  778SOL    HW2 2334   2.663   1.210   2.587  1.2625  1.7888 -0.0057
  779SOL     OW 2335   2.846   0.571   2.999  0.0575  0.3664  0.4719
  779SOL    HW1 2336   2.941   0.545   2.979 -0.8791  1.0157  0.9029
  779SOL    HW2 2337   2.837   0.597   3.098 -0.6867 -1.2837  2.6092
  780SOL     OW 2338   2.377   2.580   2.337 -0.2442 -0.7053 -0.1047
  780SOL    HW1 2339   2.447   2.590   2.261 -0.1723 -1.9148 -1.9066
  780SOL    HW2 2340   2.339   2.490   2.346 -1.2503  2.5006  0.2898
  781SOL     OW 2341   3.045   0.977   2.043 -0.5714  0.3780 -0.0408
  781SOL    HW1 2342   2.973   0.902   2.025 -0.0665 -2.0389  2.0804
  781SOL    HW2 2343   0.033   0.964   1.986  1.8280  0.1714  0.1320
  782SOL     OW 2344   1.475   2.443   2.528  0.3582  0.4280  0.1845
  782SOL    HW1 2345   1.526   2.353   2.538  0.7315 -0.0019  1.7223
  782SOL    HW2 2346   1.376   2.429   2.529  0.8951  1.0052 -3.2858
  783SOL     OW 2347   0.884   2.290   0.976  0.4530 -0.0117  0.2613
  783SOL    HW1 2348   0.988   2.306   0.971  3.7382  0.7691 -1.2447
  783SOL    HW2 2349   0.842   2.381   1.005 -0.3093  0.2513 -2.6630
  784SOL     OW 2350   2.123   0.435   2.479  0.0943  0.0182 -0.1661
  784SOL    HW1 2351   2.097   0.344   2.524 -0.6009 -1.4382 -1.4054
  784SOL    HW2 2352   2.129   0.437   2.379  1.8685 -0.1172  2.7719
  785SOL     OW 2353   0.187   0.190   1.424  0.6402  0.1465 -0.1897
  785SOL    HW1 2354   0.169   0.091   1.408  0.5579  1.5180 -2.9131
  785SOL    HW2 2355   0.259   0.202   1.493 -1.3286 -0.0738 -0.3881
  786SOL     OW 2356   1.331   2.382   0.028  0.1430  0.3411  0.1807
  786SOL    HW1 2357   1.383   2.297   0.056  1.5622  0.0700 -0.7439
  786SOL    HW2 2358   1.354   2.468   0.078  0.8858 -0.0293  0.7889
  787SOL     OW 2359   1.100   0.155   0.727  0.0217  0.3160 -0.2305
  787SOL    HW1 2360   1.021   0.127   0.785  0.4992  1.5374  1.6700
  787SOL    HW2 2361   1.073   0.241   0.681  2.9274  2.5303 -1.8698
  788SOL     OW 2362   0.175   1.470   1.266 -0.0068 -0.6705 -0.2907
  788SOL    HW1 2363   0.121   1.555   1.267 -0.1422  1.1981  0.8663
  788SOL    HW2 2364   0.137   1.409   1.334 -1.3221 -4.9898  0.9532
  789SOL     OW 2365   2.508   1.031   2.283 -0.4301 -0.1230  0.2074
  789SOL    HW1 2366   2.474   1.039   2.189 -1.1541 -0.2029 -0.6995
  789SOL    HW2 2367   2.609   1.056   2.281  5.0094  0.2872 -1.7093
  790SOL     OW 2368   1.266   0.824   2.783 -0.0846  0.3783 -0.2432
  790SOL    HW1 2369   1.202   0.871   2.719  0.7248  1.6412 -0.2958
  790SOL    HW2 2370   1.241   0.847   2.878  3.0312  1.1152  0.4662
  791SOL     OW 2371   0.183   2.653   0.227  0.1744  0.3117  0.0181
  791SOL    HW1 2372   0.167   2.755   0.241  0.1090  2.8440  0.4179
  791SOL    HW2 2373   0.281   2.627   0.220  1.2764 -1.1608  0.0466
  792SOL     OW 2374   1.210   0.791   1.911  0.0634 -0.5409  0.5025
  792SOL    HW1 2375   1.307   0.776   1.886 -0.3267 -0.1053  0.7701
  792SOL    HW2 2376   1.154   0.707   1.912  1.5551 -0.5679 -2.9820
  793SOL     OW 2377   2.895   0.279   1.224  0.0245  0.3733 -0.3954
  793SOL    HW1 2378   2.888   0.193   1.174 -0.4485  3.7652 -0.7497
  793SOL    HW2 2379   2.798   0.313   1.247 -0.5107  0.3787  0.5040
  794SOL     OW 2380   2.789   0.279   2.366 -0.1785 -0.0786 -0.1100
  794SOL    HW1 2381   2.704   0.264   2.311 -0.3287  0.2232 -0.5776
  794SOL    HW2 2382   2.857   0.329   2.313 -1.7396 -2.6890 -1.0033
  795SOL     OW 2383   0.447   1.555   0.121  0.1551 -0.3926 -0.1813
  795SOL    HW1 2384   0.468   1.515   0.212  2.5544  1.2243 -0.4970
  795SOL    HW2 2385   0.370   1.621   0.137  0.5257  0.9792 -0.9952
  796SOL     OW 2386   2.879   0.850   2.987 -0.3506  0.5937 -0.0840
  796SOL    HW1 2387   2.836   0.756   2.983 -1.2389 -1.3552 -1.9861
  796SOL    HW2 2388   2.939   0.868   2.911 -1.3501  0.1079  0.8052
  797SOL     OW 2389   2.061   2.807   2.559  0.4027  0.4976 -0.4551
  797SOL    HW1 2390   2.088   2.728   2.621 -0.5135 -2.9135 -0.4277
  797SOL    HW2 2391   2.102   2.789   2.465 -1.1402  2.3486  0.6900
  798SOL     OW 2392   3.012   2.950   1.204 -0.0732 -0.2582 -0.2144
  798SOL    HW1 2393   3.052   2.861   1.183  0.3444 -1.6367  1.8395
  798SOL    HW2 2394   3.002   2.955   1.302 -1.6375  2.5198  0.8112
  799SOL     OW 2395   2.966   0.791   1.563  0.1454  0.6154  0.0808
  799SOL    HW1 2396   2.924   0.755   1.477 -0.3581 -1.7261  0.8794
  799SOL    HW2 2397   2.887   0.796   1.631 -0.1464 -0.3906 -0.9452
  800SOL     OW 2398   0.518   1.489   0.367  0.2791  0.1747 -0.1089
  800SOL    HW1 2399   0.567   1.402   0.359 -4.0131  0.9490 -0.9613
  800SOL    HW2 2400   0.437   1.477   0.424 -1.9951 -2.5693  2.0257
  801SOL     OW 2401   1.942   1.870   0.468 -0.2127 -0.6646  0.1269
  801SOL    HW1 2402   2.007   1.931   0.419 -0.4324  0.1014  0.3173
  801SOL    HW2 2403   1.851   1.877   0.430  1.7806  1.7665  2.2901
  802SOL     OW 2404   1.379   1.200   2.632 -0.0734  0.4924 -0.7640
  802SOL    HW1 2405   1.379   1.201   2.527  0.0466 -0.4537 -2.8323
  802SOL    HW2 2406   1.448   1.138   2.677  3.9038 -0.1282 -2.1425
  803SOL     OW 2407   1.196   1.803   1.721 -0.1262 -1.1560 -0.6069
  803SOL    HW1 2408   1.180   1.909   1.718 -1.0109  0.4135  0.1000
  803SOL    HW2 2409   1.158   1.769   1.810  0.4232  0.1892  2.5399
  804SOL     OW 2410   1.550   2.343   0.674  0.2011 -0.0941  0.7619
  804SOL    HW1 2411   1.602   2.286   0.741 -0.6487  1.3990  1.1630
  804SOL    HW2 2412   1.579   2.315   0.578  0.9950 -2.2958 -1.3953
  805SOL     OW 2413   2.862   2.291   2.510  0.1530 -0.2410 -0.2418
  805SOL    HW1 2414   2.796   2.214   2.491 -1.0018 -1.6941 -1.2088
  805SOL    HW2 2415   2.955   2.269   2.472  0.7218 -2.1844  0.7498
  806SOL     OW 2416   3.035   0.080   0.446 -0.3597  0.1709 -0.4994
  806SOL    HW1 2417   2.974   0.107   0.519 -0.2822 -2.5835  0.0007
  806SOL    HW2 2418   0.028   0.080   0.482 -2.2463  1.2673 -0.0488
  807SOL     OW 2419   2.453   0.794   2.942  0.2180 -0.1267 -0.1731
  807SOL    HW1 2420   2.543   0.743   2.953  0.0100  1.6788  0.0515
  807SOL    HW2 2421   2.371   0.739   2.942 -0.6193  2.3439 -2.1008
  808SOL     OW 2422   1.284   2.418   0.675 -0.0431  0.0555  0.7533
  808SOL    HW1 2423   1.383   2.412   0.681 -1.3013  0.4394  1.2234
  808SOL    HW2 2424   1.248   2.477   0.750 -0.4082  0.7293  0.8229
  809SOL     OW 2425   2.718   3.055   0.056 -0.1836  0.2929  0.5651
  809SOL    HW1 2426   2.786   3.005   3.099 -0.2499 -1.6872  1.7993
  809SOL    HW2 2427   2.707   0.048   0.009  0.1402  0.7626 -3.4673
  810SOL     OW 2428   1.251   1.169   0.802  0.4873 -0.0935  0.1114
  810SOL    HW1 2429   1.212   1.222   0.875 -0.0722 -2.2325 -0.3787
  810SOL    HW2 2430   1.195   1.089   0.780  0.7001  0.5845 -0.5153
  811SOL     OW 2431   1.730   2.628   1.572  0.1952  0.0086 -0.0609
  811SOL    HW1 2432   1.660   2.684   1.521 -0.0692  1.5158 -1.1821
  811SOL    HW2 2433   1.706   2.623   1.672 -1.4262 -1.4526  1.0585
  812SOL     OW 2434   1.657   2.984   0.340 -0.0484  0.4913  0.0609
  812SOL    HW1 2435   1.609   3.027   0.420  2.4683 -3.2754 -1.5665
  812SOL    HW2 2436   1.653   3.045   0.254 -1.6274  1.4072  4.3279
  813SOL     OW 2437   1.025   0.266   2.183  0.0948  0.3267  0.4912
  813SOL    HW1 2438   0.957   0.198   2.207  0.9690  0.0215 -1.0911
  813SOL    HW2 2439   1.110   0.235   2.231  2.0895 -2.4891 -2.6973
  814SOL     OW 2440   0.315   2.961   1.165  0.9818 -0.2589  0.4868
  814SOL    HW1 2441   0.276   2.972   1.070  1.1772  0.7242  0.2781
  814SOL    HW2 2442   0.399   3.017   1.162 -1.7444  0.4824  1.8051
  815SOL     OW 2443   0.314   2.732   0.753  0.0322  0.1977  0.0654
  815SOL    HW1 2444   0.240   2.738   0.683  0.3563 -1.1596 -1.1235
  815SOL    HW2 2445   0.380   2.810   0.730  0.9444  0.9878  0.1591
  816SOL     OW 2446   2.616   1.642   2.724 -0.1767 -0.0941 -0.5327
  816SOL    HW1 2447   2.536   1.637   2.779  3.6625  0.9587 -3.1248
  816SOL    HW2 2448   2.675   1.560   2.735  0.6962 -0.1623 -0.1018
  817SOL     OW 2449   1.448   2.968   2.934  0.4965  0.2006  0.6546
  817SOL    HW1 2450   1.399   3.019   3.004  2.6606  1.9347  0.3963
  817SOL    HW2 2451   1.426   3.016   2.843 -0.3671 -1.3493 -1.5946
  818SOL     OW 2452   1.597   1.017   0.358  0.6454 -0.4745  0.0816
  818SOL    HW1 2453   1.672   1.009   0.433 -0.4782 -1.9235  4.0838
  818SOL    HW2 2454   1.523   0.952   0.385  1.1149 -0.9992  1.0886
  819SOL     OW 2455   1.866   2.547   2.747 -0.0980 -0.5970 -0.9336
  819SOL    HW1 2456   1.841   2.576   2.655 -1.1159 -1.8433 -1.4921
  819SOL    HW2 2457   1.845   2.618   2.817  1.3348 -2.1977 -0.9242
  820SOL     OW 2458   0.967   0.639   0.278 -0.1287  0.1509  0.1259
  820SOL    HW1 2459   0.999   0.695   0.200 -1.3313  1.6913  2.2312
  820SOL    HW2 2460   0.868   0.615   0.266 -1.1403 -1.1762 -2.5072
  821SOL     OW 2461   0.467   0.520   1.393  0.0388 -0.4272 -0.1911
  821SOL    HW1 2462   0.491   0.605   1.443 -0.2763 -0.1165  1.0113
  821SOL    HW2 2463   0.406   0.536   1.314 -0.4640  2.0013 -0.6449
  822SOL     OW 2464   1.436   2.380   2.151 -0.2792  0.3458 -0.4207
  822SOL    HW1 2465   1.522   2.342   2.194  0.8541  2.3163  0.1890
  822SOL    HW2 2466   1.444   2.396   2.049  0.1837  0.0960 -0.2126
  823SOL     OW 2467   0.629   1.057   1.970  0.3678  0.0589  0.1040
  823SOL    HW1 2468   0.689   1.138   1.958 -0.9281 -2.6527 -1.0584
  823SOL    HW2 2469   0.629   1.041   2.071  2.0061 -2.5094 -0.4077
  824SOL     OW 2470   2.341   3.041   1.930  0.3946  0.1755  0.8586
  824SOL    HW1 2471   2.319   2.976   1.850 -0.6525 -0.2170 -1.9891
  824SOL    HW2 2472   2.379   0.027   1.887  0.2499  0.4009  1.5784
  825SOL     OW 2473   0.914   1.322   0.191 -0.4948 -0.0813  0.1279
  825SOL    HW1 2474   0.997   1.269   0.212 -2.9715 -0.4528  1.8108
  825SOL    HW2 2475   0.865   1.269   0.118  1.1194 -1.5283 -0.3352
  826SOL     OW 2476   2.027   0.628   2.639 -0.0364  0.1359  0.3785
  826SOL    HW1 2477   1.981   0.706   2.595  2.1571 -1.1682  1.2465
  826SOL    HW2 2478   2.061   0.560   2.570 -0.4176  1.6602 -2.4185
  827SOL     OW 2479   0.451   2.079   2.816 -0.7662  0.6581 -0.0334
  827SOL    HW1 2480   0.525   2.135   2.860 -0.6782 -0.3251  1.5948
  827SOL    HW2 2481   0.455   2.070   2.712 -0.7584  2.5326  0.1700
  828SOL     OW 2482   2.864   0.092   1.421  0.7910 -0.1084  0.0341
  828SOL    HW1 2483   2.776   0.084   1.379  1.6478 -0.2062 -0.0009
  828SOL    HW2 2484   2.921   0.164   1.376 -0.2260  0.0623  0.3992
  829SOL     OW 2485   1.365   1.654   1.325 -0.0327 -0.1355  0.1822
  829SOL    HW1 2486   1.450   1.667   1.270  0.1099  2.2962 -2.3668
  829SOL    HW2 2487   1.365   1.557   1.356 -1.9116 -2.1709 -2.3566
  830SOL     OW 2488   0.332   0.938   1.651  0.2643  0.5141 -0.2752
  830SOL    HW1 2489   0.355   0.982   1.564 -1.6149  0.5354  0.5317
  830SOL    HW2 2490   0.242   0.889   1.648 -0.4005 -0.0877  1.0091
  831SOL     OW 2491   0.288   1.774   0.198 -0.2250  0.9346 -0.0726
  831SOL    HW1 2492   0.234   1.747   0.112  2.3728 -0.1530  0.9263
  831SOL    HW2 2493   0.359   1.834   0.168 -1.3835 -0.2618 -0.7084
  832SOL     OW 2494   0.885   0.249   2.774 -0.3904  0.1644 -0.2041
  832SOL    HW1 2495   0.876   0.198   2.866  2.3395  0.4816 -0.6449
  832SOL    HW2 2496   0.799   0.242   2.723 -0.9108  0.5128  0.5897
  833SOL     OW 2497   3.023   0.592   1.994  0.0983 -0.1303 -0.0279
  833SOL    HW1 2498   3.092   0.607   1.926 -0.3401 -1.8783  3.6817
  833SOL    HW2 2499   2.952   0.667   1.990 -0.1203  0.5688 -1.4134
  834SOL     OW 2500   0.226   0.618   1.175  0.2982  0.1947 -1.0890
  834SOL    HW1 2501   0.201   0.636   1.081 -0.2754  0.3064  3.2867
  834SOL    HW2 2502   0.179   0.534   1.204 -1.0587  0.6749  1.6470
  835SOL     OW 2503   2.623   2.851   1.140  0.6080  0.1831  0.2006
  835SOL    HW1 2504   2.647   2.871   1.042  0.6205  0.0481 -0.6308
  835SOL    HW2 2505   2.678   2.777   1.173 -1.8760  3.0074 -0.4928
  836SOL     OW 2506   0.420   1.801   2.889 -0.5798 -0.2193 -0.4438
  836SOL    HW1 2507   0.457   1.749   2.970  0.0227  1.3226  2.6517
  836SOL    HW2 2508   0.417   1.905   2.912  0.0311  0.0971  0.0581
  837SOL     OW 2509   2.042   2.185   2.607 -0.5156 -0.4767 -0.3096
  837SOL    HW1 2510   1.958   2.224   2.648 -0.7311  1.5310  0.5649
  837SOL    HW2 2511   2.040   2.170   2.507 -0.8716 -0.3880  0.5442
  838SOL     OW 2512   2.928   1.208   2.129 -0.2228 -0.2536  0.5716
  838SOL    HW1 2513   2.869   1.167   2.200 -2.6225 -1.6229  0.9075
  838SOL    HW2 2514   2.977   1.135   2.083  0.1758  0.5145  0.6096
  839SOL     OW 2515   0.928   1.005   0.168  0.3414 -0.0004 -0.0020
  839SOL    HW1 2516   0.948   0.914   0.129 -0.4403  0.0887 -1.1178
  839SOL    HW2 2517   0.997   1.073   0.133  0.4867  1.4302  0.1202
  840SOL     OW 2518   1.560   0.700   0.614 -0.0862  0.2610  0.2316
  840SOL    HW1 2519   1.525   0.794   0.616 -0.0663 -1.9656  1.9590
  840SOL    HW2 2520   1.482   0.636   0.623  1.5298  1.3015  0.5834
  841SOL     OW 2521   0.588   2.863   0.760  0.3264  0.4641 -0.1079
  841SOL    HW1 2522   0.607   2.942   0.825 -0.0068 -0.4315  0.6485
  841SOL    HW2 2523   0.677   2.825   0.729 -0.8728 -2.9617  1.8091
  842SOL     OW 2524   0.394   0.266   0.211 -0.0376  0.6836  0.2760
  842SOL    HW1 2525   0.298   0.248   0.184  0.5970 -0.5339 -1.5148
  842SOL    HW2 2526   0.426   0.342   0.157 -0.5400 -0.3152 -0.7395
  843SOL     OW 2527   0.408   0.371   1.856 -0.5405  0.3439 -0.1386
  843SOL    HW1 2528   0.497   0.418   1.880  1.7836  3.6767  1.7022
  843SOL    HW2 2529   0.382   0.312   1.932 -3.1290 -1.3057 -1.3230
  844SOL     OW 2530   1.910   2.820   2.909 -0.2866  0.2852  0.2063
  844SOL    HW1 2531   1.856   2.903   2.880 -1.9099 -2.9457  0.0535
  844SOL    HW2 2532   1.863   2.784   2.993 -3.6974 -1.8334  1.6039
  845SOL     OW 2533   2.678   3.051   2.094  0.0717  0.2410 -0.4928
  845SOL    HW1 2534   2.577   3.043   2.126 -2.9750 -1.7049  0.7821
  845SOL    HW2 2535   2.736   2.983   2.151 -1.5182 -2.2441  1.5960
  846SOL     OW 2536   1.877   1.677   2.400 -0.1670  0.4162  0.0404
  846SOL    HW1 2537   1.917   1.694   2.491  3.1720 -2.0491 -2.4530
  846SOL    HW2 2538   1.926   1.730   2.328 -0.0171  0.2211 -3.0588
  847SOL     OW 2539   2.079   2.689   2.037  0.5994 -0.1288  0.5897
  847SOL    HW1 2540   2.004   2.623   2.074  0.2587  2.5976 -0.8535
  847SOL    HW2 2541   2.041   2.779   2.003  2.4400  0.9607  1.7301
  848SOL     OW 2542   0.294   2.851   0.430 -0.2190  1.0006 -0.2129
  848SOL    HW1 2543   0.384   2.808   0.451  1.9226 -2.2295  1.1809
  848SOL    HW2 2544   0.285   2.868   0.329  0.4132 -0.7519 -0.9841
  849SOL     OW 2545   0.613   2.737   1.358  0.1409 -0.3553  0.5715
  849SOL    HW1 2546   0.635   2.637   1.358 -3.4490  4.4655 -0.3612
  849SOL    HW2 2547   0.653   2.770   1.271  0.4201  2.1941  0.4190
  850SOL     OW 2548   0.266   1.356   0.882  0.0237  0.5227  0.3245
  850SOL    HW1 2549   0.262   1.287   0.963  0.4932 -0.4187  0.0070
  850SOL    HW2 2550   0.180   1.389   0.847  1.8462 -0.2124  2.3822
  851SOL     OW 2551   3.095   0.508   2.956  0.1182 -0.5193  0.1881
  851SOL    HW1 2552   0.071   0.501   3.021  0.6302  1.2279  0.8415
  851SOL    HW2 2553   3.095   0.440   2.878 -1.9350  1.0278 -0.7776
  852SOL     OW 2554   1.694   1.895   2.083 -0.0781 -0.4229  0.0099
  852SOL    HW1 2555   1.695   1.798   2.054  0.2003 -1.1863  2.7186
  852SOL    HW2 2556   1.686   1.896   2.184  1.1065 -0.6765  0.2035
  853SOL     OW 2557   0.689   1.847   0.582 -0.7142 -0.6922  0.8014
  853SOL    HW1 2558   0.672   1.914   0.657  1.9689  0.0257  0.8579
  853SOL    HW2 2559   0.682   1.906   0.495  0.0157  4.2637 -4.0632
  854SOL     OW 2560   1.559   1.047   1.450  0.0799  0.1285 -0.5123
  854SOL    HW1 2561   1.581   1.112   1.526 -1.6766 -0.5067 -2.2678
  854SOL    HW2 2562   1.630   1.050   1.380  1.5571 -0.4688  1.4282
  855SOL     OW 2563   0.477   1.945   0.093 -0.6752 -0.0121 -0.6291
  855SOL    HW1 2564   0.559   1.930   0.029  0.8797  0.9615  2.5959
  855SOL    HW2 2565   0.451   2.042   0.099 -0.4222 -1.2663 -0.3240
  856SOL     OW 2566   3.097   0.091   1.737 -0.0945  0.5078 -0.1038
  856SOL    HW1 2567   0.058   0.017   1.701 -0.4556 -3.6063  2.1016
  856SOL    HW2 2568   3.001   0.063   1.749  2.8864 -1.1313 -0.1619
  857SOL     OW 2569   0.342   0.233   2.076  0.1203  0.4638  0.0916
  857SOL    HW1 2570   0.275   0.156   2.080 -0.4467  1.1827  0.9072
  857SOL    HW2 2571   0.300   0.315   2.128  0.2940  1.5849  0.6105
  858SOL     OW 2572   2.737   1.966   2.130  0.1401 -0.4742 -0.5236
  858SOL    HW1 2573   2.694   1.884   2.174  3.2333 -0.8728  2.4194
  858SOL    HW2 2574   2.818   1.993   2.187  1.4217 -0.9292  0.7965
  859SOL     OW 2575   2.265   2.768   0.552 -0.7427  0.1318 -0.1304
  859SOL    HW1 2576   2.305   2.726   0.464  2.4386 -1.3045 -0.9325
  859SOL    HW2 2577   2.254   2.701   0.629 -0.5888 -0.5860  0.5629
  860SOL     OW 2578   1.795   0.484   0.480 -0.1244 -0.0513 -0.2501
  860SOL    HW1 2579   1.800   0.510   0.582  0.7891 -0.0759  1.8598
  860SOL    HW2 2580   1.767   0.569   0.428 -1.2143  1.2538  1.2104
  861SOL     OW 2581   0.384   0.349   1.006 -0.2413 -0.0291  0.6824
  861SOL    HW1 2582   0.458   0.415   1.027 -2.0247  2.0215  0.7564
  861SOL    HW2 2583   0.323   0.333   1.088  1.7180  0.2394  2.9156
  862SOL     OW 2584   2.048   0.662   1.602  0.7847 -0.1493 -0.1444
  862SOL    HW1 2585   2.002   0.578   1.561  0.2417  1.7756 -2.8063
  862SOL    HW2 2586   2.054   0.735   1.538  0.1894 -1.5082  3.1917
  863SOL     OW 2587   0.544   1.598   1.182  0.0702  0.5287  0.0432
  863SOL    HW1 2588   0.503   1.578   1.089  1.8698  1.3152 -3.1142
  863SOL    HW2 2589   0.518   1.689   1.221  0.4867  1.5006 -0.2294
  864SOL     OW 2590   2.414   2.936   2.189 -0.5228 -0.1158  0.2753
  864SOL    HW1 2591   2.389   2.965   2.095  3.2457 -0.8159 -1.3835
  864SOL    HW2 2592   2.411   2.834   2.196 -2.1395  0.4047  1.7730
  865SOL     OW 2593   1.706   0.398   1.837  0.0169  0.1981 -0.0143
  865SOL    HW1 2594   1.670   0.401   1.739  0.6555  4.1950 -1.8288
  865SOL    HW2 2595   1.746   0.308   1.869 -0.2490 -1.1826  2.6836
  866SOL     OW 2596   2.724   2.870   0.861  0.3248 -0.4309  0.3303
  866SOL    HW1 2597   2.818   2.835   0.850  1.0319  1.2766 -0.4577
  866SOL    HW2 2598   2.702   2.927   0.780  4.2275  0.6797 -0.9443
  867SOL     OW 2599   2.580   2.504   0.645  0.5445  0.2131 -0.2329
  867SOL    HW1 2600   2.505   2.444   0.627 -0.7849  0.6038  1.4431
  867SOL    HW2 2601   2.601   2.571   0.571  0.9333 -1.3571  0.8653
  868SOL     OW 2602   1.554   1.917   2.630 -0.0032 -0.1254  0.1141
  868SOL    HW1 2603   1.453   1.929   2.647 -0.6081 -1.0944 -0.8588
  868SOL    HW2 2604   1.604   1.884   2.712 -1.0786 -1.3231 -4.0270
  869SOL     OW 2605   2.356   1.597   0.637 -0.2811  0.4964  0.4766
  869SOL    HW1 2606   2.301   1.558   0.559  3.0492 -0.9633  0.1196
  869SOL    HW2 2607   2.320   1.688   0.667 -1.2806 -0.0884  1.4153
  870SOL     OW 2608   2.750   1.666   0.335  0.0969  0.3282 -0.2979
  870SOL    HW1 2609   2.773   1.602   0.260 -0.6625  0.1823 -0.3226
  870SOL    HW2 2610   2.830   1.713   0.379 -1.4921 -0.8706 -0.9835
  871SOL     OW 2611   0.128   0.778   1.600  0.4035 -0.3554 -0.4151
  871SOL    HW1 2612   0.173   0.786   1.510  0.1206  2.9639  0.7312
  871SOL    HW2 2613   0.022   0.781   1.598 -1.8011  0.1366  0.6843
  872SOL     OW 2614   0.444   2.003   2.291 -0.7675 -0.5746  0.2577
  872SOL    HW1 2615   0.515   1.933   2.306  3.3248 -0.1425  1.9933
  872SOL    HW2 2616   0.473   2.065   2.213 -1.6755 -2.0167  0.0154
  873SOL     OW 2617   0.419   2.539   1.831  0.3696 -0.7674 -0.1043
  873SOL    HW1 2618   0.491   2.542   1.760  1.0198  1.9482  1.2599
  873SOL    HW2 2619   0.459   2.542   1.926 -1.2170  2.8370  1.2564
  874SOL     OW 2620   1.098   0.883   2.164 -0.2006  0.2199 -0.0627
  874SOL    HW1 2621   1.122   0.983   2.183 -0.3077  1.2911  0.6180
  874SOL    HW2 2622   1.130   0.846   2.075 -0.6879 -2.5184 -1.4882
  875SOL     OW 2623   2.802   2.654   1.221 -0.0779  0.8555 -0.1977
  875SOL    HW1 2624   2.832   2.584   1.288 -0.4575 -0.8082 -3.5850
  875SOL    HW2 2625   2.886   2.673   1.168  0.7026  1.5185 -2.2411
  876SOL     OW 2626   1.009   1.202   0.574  0.2822  0.0782  0.0349
  876SOL    HW1 2627   0.956   1.187   0.657  1.8919  1.2892 -0.6393
  876SOL    HW2 2628   0.981   1.291   0.533 -0.4625  0.8731  3.0555
  877SOL     OW 2629   1.002   0.592   1.357  0.2087 -0.0700  0.0986
  877SOL    HW1 2630   1.097   0.609   1.379 -1.3572 -2.5149 -2.5984
  877SOL    HW2 2631   0.992   0.520   1.289 -0.0663  0.4008  0.2257
  878SOL     OW 2632   2.424   1.868   3.057 -0.5337  0.0102  0.2409
  878SOL    HW1 2633   2.464   1.775   3.078 -1.0462  0.6066  0.9944
  878SOL    HW2 2634   2.446   1.903   2.961  1.1593  0.6278  1.4274
  879SOL     OW 2635   2.255   1.881   1.746  0.2949  0.1020 -0.5700
  879SOL    HW1 2636   2.343   1.934   1.774  1.0334  2.0357  2.2224
  879SOL    HW2 2637   2.176   1.948   1.731  0.0081  2.6593 -1.6636
  880SOL     OW 2638   1.147   2.306   1.013 -0.1490  0.9027 -0.3164
  880SOL    HW1 2639   1.231   2.365   1.018  0.8993 -0.2876  0.2690
  880SOL    HW2 2640   1.155   2.221   1.072 -0.0452 -0.8926 -2.1796
  881SOL     OW 2641   1.283   1.965   0.608 -0.5839  0.0963 -0.1284
  881SOL    HW1 2642   1.243   2.058   0.587  0.1237  1.9679 -0.6993
  881SOL    HW2 2643   1.264   1.934   0.705 -1.2321 -1.5692  0.7537
  882SOL     OW 2644   1.943   1.701   2.648 -0.4021 -0.1690 -0.7042
  882SOL    HW1 2645   2.007   1.638   2.696 -0.6255 -0.2984  2.1603
  882SOL    HW2 2646   1.938   1.792   2.695 -1.1504  1.9912  0.0633
  883SOL     OW 2647   1.456   0.602   1.243 -0.2466  0.1851  0.3627
  883SOL    HW1 2648   1.412   0.687   1.206  0.8167 -0.4413  0.3688
  883SOL    HW2 2649   1.476   0.540   1.164 -0.3581 -0.5156  2.5654
  884SOL     OW 2650   3.024   2.672   1.047 -0.4808 -0.4385 -0.1051
  884SOL    HW1 2651   3.040   2.721   0.956  2.8962 -0.6211 -3.6345
  884SOL    HW2 2652   0.002   2.609   1.071 -0.4267  0.2176 -0.2020
  885SOL     OW 2653   0.754   1.462   2.047 -0.4418 -0.0476 -0.4517
  885SOL    HW1 2654   0.672   1.460   2.110 -0.5945  1.4084 -1.6371
  885SOL    HW2 2655   0.770   1.369   2.005  2.7469 -1.5109  1.2727
  886SOL     OW 2656   1.086   1.228   2.601  0.1113  0.1678 -0.2927
  886SOL    HW1 2657   1.039   1.236   2.690 -0.2228 -0.8424  0.8338
  886SOL    HW2 2658   1.190   1.234   2.618 -0.0329 -0.6704  0.6992
  887SOL     OW 2659   1.650   0.270   0.901  0.0532  0.1333 -0.2458
  887SOL    HW1 2660   1.718   0.212   0.852 -1.9321  0.0163  3.2140
  887SOL    HW2 2661   1.566   0.282   0.844  1.3048 -2.2532 -0.2554
  888SOL     OW 2662   2.013   0.763   2.279 -0.3450  0.7707 -0.7607
  888SOL    HW1 2663   1.999   0.808   2.372  0.4648  1.0196  0.2005
  888SOL    HW2 2664   1.944   0.803   2.216 -2.5119  0.7167  2.0380
  889SOL     OW 2665   2.773   2.045   0.783  0.3519  0.0313  0.1432
  889SOL    HW1 2666   2.779   1.943   0.790 -0.5107  1.9025 -0.4647
  889SOL    HW2 2667   2.718   2.074   0.868  0.9320  0.9486  4.2557
  890SOL     OW 2668   1.099   2.420   3.016 -0.1533 -0.1277 -0.7676
  890SOL    HW1 2669   1.076   2.519   3.009  2.3105  0.2062 -0.0307
  890SOL    HW2 2670   1.192   2.405   3.059  1.5791 -0.8536 -0.0933
  891SOL     OW 2671   2.854   0.735   2.603  0.5709 -0.0606 -0.0026
  891SOL    HW1 2672   2.853   0.816   2.537 -1.4411 -1.0156  0.9171
  891SOL    HW2 2673   2.772   0.673   2.593 -2.4352  0.3571  1.5798
  892SOL     OW 2674   3.043   2.338   1.239  0.2723  0.0689 -0.1795
  892SOL    HW1 2675   0.001   2.386   1.172  2.1801 -2.7237  0.4863
  892SOL    HW2 2676   2.995   2.263   1.183 -2.7232 -3.0517 -1.9853
  893SOL     OW 2677   1.212   0.008   1.188 -0.7176 -0.6199 -0.2672
  893SOL    HW1 2678   1.314   3.089   1.177  0.0552 -3.6614 -0.1799
  893SOL    HW2 2679   1.194   0.027   1.288  2.3088  0.5114  0.0424
  894SOL     OW 2680   2.841   0.031   1.121 -0.2254  0.1257 -0.4342
  894SOL    HW1 2681   2.750   0.010   1.168 -1.6190  0.3905 -1.1769
  894SOL    HW2 2682   2.908   3.054   1.137 -1.6682 -0.5447 -0.0186
  895SOL     OW 2683   1.621   1.795   2.410  0.2522  0.0959 -0.1400
  895SOL    HW1 2684   1.714   1.755   2.400 -0.3360  1.6225  0.9632
  895SOL    HW2 2685   1.607   1.824   2.507  2.3115 -0.0456 -1.0915
  896SOL     OW 2686   1.835   0.756   1.283 -0.0241 -0.2190 -0.5812
  896SOL    HW1 2687   1.929   0.782   1.304 -0.2647 -1.7342 -0.7217
  896SOL    HW2 2688   1.824   0.688   1.210 -2.0669  1.6393 -1.5075
  897SOL     OW 2689   0.536   1.313   1.602  0.3878  0.6145  0.9756
  897SOL    HW1 2690   0.488   1.364   1.530 -0.1276  1.7880 -0.5076
  897SOL    HW2 2691   0.479   1.256   1.656  2.2042 -0.1614  1.0662
  898SOL     OW 2692   1.617   2.172   2.244 -0.2932  0.1538  0.1019
  898SOL    HW1 2693   1.611   2.189   2.144  1.8056 -0.0602  1.1486
  898SOL    HW2 2694   1.557   2.096   2.275  1.7414  1.9095 -0.5993
  899SOL     OW 2695   1.190   1.879   0.874  0.1050 -0.2924  0.3536
  899SOL    HW1 2696   1.244   1.888   0.959 -0.9748 -0.3528  0.6224
  899SOL    HW2 2697   1.164   1.779   0.863  0.1015 -1.8636  0.8512
  900SOL     OW 2698   0.587   3.062   2.545  0.0943 -0.3424 -0.3031
  900SOL    HW1 2699   0.620   3.026   2.637 -0.1349  2.0145  3.8149
  900SOL    HW2 2700   0.647   0.040   2.513  2.8103  3.2784 -0.2796
  901SOL     OW 2701   0.961   1.532   2.243 -0.0751  0.0640  0.3775
  901SOL    HW1 2702   0.890   1.507   2.173 -2.2424 -0.7187  0.8946
  901SOL    HW2 2703   0.964   1.460   2.316 -0.9042 -0.3852  0.9064
  902SOL     OW 2704   1.974   0.933   3.023  0.3189  0.1103 -0.6915
  902SOL    HW1 2705   2.034   1.008   3.053 -0.1834  0.5331 -0.8997
  902SOL    HW2 2706   1.981   0.859   3.091 -0.3106  1.0018  0.0001
  903SOL     OW 2707   1.964   1.281   2.893 -0.2229  0.5853 -0.0038
  903SOL    HW1 2708   1.907   1.356   2.935 -0.5423  0.1926 -3.4726
  903SOL    HW2 2709   1.918   1.243   2.811 -0.6659  0.4391  0.2311
  904SOL     OW 2710   1.606   1.206   1.705 -0.2638 -0.2346  0.4711
  904SOL    HW1 2711   1.531   1.189   1.771 -0.4761  0.7315 -0.1878
  904SOL    HW2 2712   1.612   1.307   1.680  1.6404  0.4957 -1.0393
  905SOL     OW 2713   2.522   0.573   1.056 -0.2138 -0.1697 -0.4595
  905SOL    HW1 2714   2.462   0.531   0.985 -0.3522 -1.2676  1.1107
  905SOL    HW2 2715   2.558   0.503   1.123  0.2751  1.2987 -1.1664
  906SOL     OW 2716   0.326   1.426   0.580 -0.1118 -0.0391 -0.0506
  906SOL    HW1 2717   0.386   1.362   0.628 -0.0063  4.0144  1.1395
  906SOL    HW2 2718   0.231   1.382   0.553 -2.6147 -3.5313  0.4195
  907SOL     OW 2719   1.440   0.184   0.233 -0.1156 -0.0737 -0.0657
  907SOL    HW1 2720   1.455   0.236   0.325  0.0269 -0.3154  1.1288
  907SOL    HW2 2721   1.500   0.236   0.163 -0.6227  1.4217 -1.5264
  908SOL     OW 2722   1.206   2.890   1.668 -0.3954  0.1014  0.8997
  908SOL    HW1 2723   1.149   2.805   1.679 -1.6500 -1.0141  1.5885
  908SOL    HW2 2724   1.265   2.888   1.581  0.8536 -1.2680 -2.7424
  909SOL     OW 2725   2.496   0.743   1.850 -0.1516 -0.3782 -0.6396
  909SOL    HW1 2726   2.495   0.693   1.940 -0.0737 -3.5175  0.2474
  909SOL    HW2 2727   2.410   0.802   1.839 -0.8363  2.6254  3.9234
  910SOL     OW 2728   1.303   0.222   2.294  0.4014 -0.0261 -0.1857
  910SOL    HW1 2729   1.328   0.286   2.374  3.2537  2.0362  1.5030
  910SOL    HW2 2730   1.252   0.147   2.344  0.2471 -1.8989 -0.8959
  911SOL     OW 2731   2.490   1.514   2.455 -0.4480  0.4728  0.4693
  911SOL    HW1 2732   2.483   1.496   2.356 -1.0015 -0.8141 -0.2104
  911SOL    HW2 2733   2.406   1.492   2.506  1.2520 -0.0669  1.2216
  912SOL     OW 2734   2.283   2.145   1.415 -0.1911  0.2168 -0.5854
  912SOL    HW1 2735   2.349   2.207   1.366 -0.7386  1.2252 -1.1032
  912SOL    HW2 2736   2.272   2.172   1.510 -1.6075  0.9447 -3.3423
  913SOL     OW 2737   2.536   1.934   1.776 -0.2614 -0.2291  0.3294
  913SOL    HW1 2738   2.599   1.969   1.849  1.4470  1.3700  0.8030
  913SOL    HW2 2739   2.508   2.010   1.714  3.8741 -0.2294  1.6895
  914SOL     OW 2740   1.949   2.077   0.814  0.1002  0.4149 -0.2326
  914SOL    HW1 2741   1.988   2.096   0.909 -1.4609 -1.6343  0.6547
  914SOL    HW2 2742   1.966   1.977   0.790  0.9259  1.4380  2.1045
  915SOL     OW 2743   1.072   2.668   2.000 -0.6275 -0.1795 -0.7968
  915SOL    HW1 2744   1.047   2.567   1.995  0.7524 -1.1764 -0.0703
  915SOL    HW2 2745   1.153   2.685   2.060  0.5993  0.2840 -0.2373
  916SOL     OW 2746   0.054   2.077   0.737  0.3284 -0.3361 -0.2162
  916SOL    HW1 2747   3.092   2.156   0.752 -2.9023 -0.4733  2.2479
  916SOL    HW2 2748   0.150   2.104   0.725 -2.3790  1.4467 -3.9174
  917SOL     OW 2749   2.909   1.083   2.743 -0.3433  0.1583 -0.2594
  917SOL    HW1 2750   2.976   1.012   2.754 -2.5481  3.5227 -0.3414
  917SOL    HW2 2751   2.949   1.166   2.697 -0.2643  1.5999  1.2003
  918SOL     OW 2752   1.458   1.982   2.292  0.7403  0.5914 -0.4969
  918SOL    HW1 2753   1.503   1.907   2.348 -0.4120 -2.8112 -0.7834
  918SOL    HW2 2754   1.368   1.959   2.249  1.2171  3.2325  0.1413
  919SOL     OW 2755   1.670   2.145   0.819 -0.2870  0.3102 -0.1455
  919SOL    HW1 2756   1.620   2.070   0.875 -0.1046 -1.4678  2.1231
  919SOL    HW2 2757   1.761   2.116   0.783  2.7512 -0.1641  1.2064
  920SOL     OW 2758   1.242   0.584   2.614  0.2853  0.5384 -0.1771
  920SOL    HW1 2759   1.271   0.665   2.673  0.6147 -0.1040 -0.1972
  920SOL    HW2 2760   1.254   0.597   2.517 -0.9104  1.5884  1.9042
  921SOL     OW 2761   0.062   0.337   2.745 -0.5942 -0.1429  0.3634
  921SOL    HW1 2762   0.013   0.395   2.676 -0.2623 -0.3766  0.3997
  921SOL    HW2 2763   0.100   0.256   2.693 -0.1303 -1.0576 -4.4344
  922SOL     OW 2764   2.572   1.349   1.632 -0.5004  0.5765  0.0402
  922SOL    HW1 2765   2.517   1.418   1.576 -1.6063 -0.0105 -0.3477
  922SOL    HW2 2766   2.645   1.300   1.578  0.9093 -1.4366  1.3750
  923SOL     OW 2767   0.089   1.752   2.457  0.1701 -0.0227 -0.0039
  923SOL    HW1 2768   0.042   1.755   2.363  0.4748  0.6844 -2.2384
  923SOL    HW2 2769   0.026   1.707   2.526 -2.5229 -1.5378  0.9909
  924SOL     OW 2770   1.707   0.282   2.263  0.1216  0.6132 -0.5290
  924SOL    HW1 2771   1.657   0.278   2.352 -0.1641 -0.8061  0.3376
  924SOL    HW2 2772   1.745   0.373   2.247 -2.5049  0.6756 -3.5104
  925SOL     OW 2773   3.010   0.933   0.211  0.1781  0.0270  0.1360
  925SOL    HW1 2774   2.977   0.903   0.124  0.1712  1.5957 -0.0990
  925SOL    HW2 2775   3.011   0.854   0.281  1.8054 -1.8689  1.3059
  926SOL     OW 2776   2.714   0.144   0.901  0.0318 -0.0575 -0.0675
  926SOL    HW1 2777   2.716   0.245   0.879  1.1995 -1.8382 -2.1675
  926SOL    HW2 2778   2.771   0.121   0.983 -0.4385  2.4143  0.3439
  927SOL     OW 2779   1.095   0.925   0.779 -0.3258 -0.8213 -0.6181
  927SOL    HW1 2780   1.074   0.907   0.680 -0.9903  0.6055 -0.8741
  927SOL    HW2 2781   1.014   0.906   0.843  1.3736 -2.7920  0.6610
  928SOL     OW 2782   3.027   0.104   2.232 -0.1791  0.0160 -0.0095
  928SOL    HW1 2783   3.016   0.150   2.143 -0.6557  0.8996  1.1160
  928SOL    HW2 2784   3.048   0.176   2.300  1.8688 -2.0945 -0.4834
  929SOL     OW 2785   2.503   0.741   1.424 -0.2847 -0.2062 -0.0724
  929SOL    HW1 2786   2.600   0.744   1.398 -1.3110 -0.1414 -0.7216
  929SOL    HW2 2787   2.492   0.690   1.513  1.0140 -2.5529 -0.9427
  930SOL     OW 2788   1.936   2.663   0.845  0.2614  0.2671 -0.4447
  930SOL    HW1 2789   1.854   2.632   0.799  0.5778  1.5828  0.2424
  930SOL    HW2 2790   2.019   2.627   0.800  1.5480  1.3000 -1.8260
  931SOL     OW 2791   2.169   1.255   0.737  0.0220  0.2042  0.0388
  931SOL    HW1 2792   2.066   1.249   0.734 -1.3744  0.4792 -0.7886
  931SOL    HW2 2793   2.209   1.188   0.671  0.0638  2.8491 -2.5074
  932SOL     OW 2794   0.214   0.840   1.347 -0.0408  0.4194 -1.0177
  932SOL    HW1 2795   0.147   0.901   1.302  4.4171 -2.8693  0.0315
  932SOL    HW2 2796   0.222   0.756   1.285 -1.3944  1.2738 -1.0070
  933SOL     OW 2797   2.238   1.487   2.150 -0.2541  0.6762 -0.3560
  933SOL    HW1 2798   2.161   1.500   2.213 -0.2431  0.4083  1.0952
  933SOL    HW2 2799   2.204   1.471   2.052 -0.1980  1.4127 -0.0650
  934SOL     OW 2800   1.560   2.792   1.408 -0.3943  0.2898 -0.1577
  934SOL    HW1 2801   1.593   2.780   1.314 -2.9564  1.6592  0.4544
  934SOL    HW2 2802   1.466   2.843   1.402 -2.5507  4.5326  0.5358
  935SOL     OW 2803   0.541   0.762   1.487 -0.3597 -0.5826 -0.4479
  935SOL    HW1 2804   0.538   0.864   1.453  0.2721  2.4596  1.1921
  935SOL    HW2 2805   0.550   0.763   1.587 -0.5492  0.6061 -4.1205
  936SOL     OW 2806   2.319   0.690   1.220 -0.4207 -0.0968  0.1056
  936SOL    HW1 2807   2.380   0.676   1.140 -2.0942 -1.5064 -1.9956
  936SOL    HW2 2808   2.371   0.740   1.296  1.4088  2.0749  0.4475
  937SOL     OW 2809   0.970   2.986   1.191  0.1038 -0.1110  0.1452
  937SOL    HW1 2810   0.906   3.028   1.259 -2.2568 -1.9279  0.5041
  937SOL    HW2 2811   1.057   3.044   1.176 -0.0118  1.7323 -1.7239
  938SOL     OW 2812   2.955   2.281   0.788  0.6938 -0.8082 -0.1631
  938SOL    HW1 2813   2.877   2.218   0.772  1.2686  0.2791  0.6554
  938SOL    HW2 2814   2.940   2.345   0.865  3.7986  0.1205 -2.8383
  939SOL     OW 2815   3.077   1.694   2.744 -0.2701 -0.1709  0.1470
  939SOL    HW1 2816   2.981   1.732   2.746  2.5538 -0.8017  0.6049
  939SOL    HW2 2817   0.047   1.763   2.771 -0.9355 -1.6318  4.5921
  940SOL     OW 2818   2.390   2.697   2.831  0.0687  0.3620 -0.0600
  940SOL    HW1 2819   2.379   2.673   2.731 -0.6440 -0.4933 -1.2501
  940SOL    HW2 2820   2.445   2.782   2.839 -1.8835  4.1800 -1.3042
  941SOL     OW 2821   1.582   2.725   0.328  0.1331  0.5099  0.7094
  941SOL    HW1 2822   1.661   2.667   0.358  0.1114 -1.4509 -0.6457
  941SOL    HW2 2823   1.610   2.827   0.338  2.1297  0.3725 -0.3574
  942SOL     OW 2824   1.717   2.043   1.389  0.0810 -0.3910  0.4020
  942SOL    HW1 2825   1.722   1.952   1.441 -0.6433 -0.4090  2.2458
  942SOL    HW2 2826   1.668   2.109   1.451 -2.4651  3.8504 -2.4220
  943SOL     OW 2827   1.894   0.846   1.886  0.4583 -0.4499 -0.1201
  943SOL    HW1 2828   1.818   0.777   1.881  1.2349  0.4274 -0.8484
  943SOL    HW2 2829   1.983   0.799   1.895 -1.8875  1.6753 -0.3566
  944SOL     OW 2830   1.685   0.634   1.991  0.0851 -0.2751  0.3897
  944SOL    HW1 2831   1.695   0.558   1.920  2.5701 -1.9562 -2.5381
  944SOL    HW2 2832   1.719   0.602   2.082  2.5821 -2.0941  1.6429
  945SOL     OW 2833   2.672   2.252   1.145  0.4122 -0.3229  0.2803
  945SOL    HW1 2834   2.730   2.324   1.094 -0.7567  2.5049  0.3537
  945SOL    HW2 2835   2.729   2.208   1.219  2.6297  0.5708  0.6530
  946SOL     OW 2836   0.751   1.181   1.653 -0.6098  0.5013  0.3872
  946SOL    HW1 2837   0.675   1.234   1.619  1.5491  0.3685  3.1714
  946SOL    HW2 2838   0.742   1.081   1.643 -0.6718 -0.4670  0.3670
  947SOL     OW 2839   0.618   2.458   0.688  0.1488  0.4550  0.4091
  947SOL    HW1 2840   0.571   2.512   0.764 -2.5472 -1.0049  0.5416
  947SOL    HW2 2841   0.554   2.457   0.607 -1.0817  0.1924 -0.5891
  948SOL     OW 2842   2.944   1.465   1.786 -0.2190 -0.7280 -0.3582
  948SOL    HW1 2843   3.037   1.436   1.760 -3.9615  1.6161 -1.0237
  948SOL    HW2 2844   2.893   1.514   1.716 -0.5019  3.0657  0.2044
  949SOL     OW 2845   0.451   0.665   2.258  0.2004 -0.2772 -0.5880
  949SOL    HW1 2846   0.460   0.733   2.331  0.9927 -1.8283  0.8458
  949SOL    HW2 2847   0.415   0.705   2.172 -0.7116 -0.0907  0.6645
  950SOL     OW 2848   0.484   0.733   0.925 -0.3331  0.5277 -0.4198
  950SOL    HW1 2849   0.518   0.819   0.959 -1.1827 -2.4386  1.8065
  950SOL    HW2 2850   0.387   0.732   0.906  4.5791  3.1729  1.8580
  951SOL     OW 2851   1.093   1.767   2.289 -0.5519 -0.0818  0.5835
  951SOL    HW1 2852   1.038   1.683   2.273 -1.0343 -4.3662 -1.5969
  951SOL    HW2 2853   1.194   1.747   2.297 -1.0693  1.4449  2.1523
  952SOL     OW 2854   1.289   1.429   2.756 -0.1838  0.5524 -0.1933
  952SOL    HW1 2855   1.340   1.349   2.719  1.6360 -1.6583  0.7066
  952SOL    HW2 2856   1.333   1.455   2.842 -0.8719  1.4478 -0.1263
  953SOL     OW 2857   1.129   0.013   2.416  0.0086  0.4958  0.5616
  953SOL    HW1 2858   1.050   3.063   2.368 -2.0660 -0.3063 -3.8927
  953SOL    HW2 2859   1.112   0.046   2.512 -0.8118  2.4247  1.5679
  954SOL     OW 2860   2.143   1.504   0.474 -0.3485  0.1742  0.0895
  954SOL    HW1 2861   2.074   1.555   0.422  1.7116 -0.5317  0.5554
  954SOL    HW2 2862   2.191   1.439   0.414  0.6262 -0.0462 -1.5525
  955SOL     OW 2863   0.316   2.494   2.938  0.6311 -0.0084 -0.5469
  955SOL    HW1 2864   0.331   2.484   2.838  0.7960 -1.3503  0.3446
  955SOL    HW2 2865   0.273   2.409   2.971 -0.3817  4.1014  0.6579
  956SOL     OW 2866   0.938   0.741   1.586  0.1785  0.0010 -0.6530
  956SOL    HW1 2867   0.956   0.693   1.500 -0.3423  0.1223  3.0698
  956SOL    HW2 2868   1.009   0.813   1.592 -0.6631 -0.3071 -1.7949
  957SOL     OW 2869   2.038   1.465   2.361 -0.1189  0.2194 -0.0874
  957SOL    HW1 2870   1.974   1.390   2.329 -0.7494  0.9160  0.5006
  957SOL    HW2 2871   1.988   1.553   2.362  2.7344 -0.5365 -1.6049
  958SOL     OW 2872   1.804   2.364   1.488 -0.3117 -0.1433  0.1028
  958SOL    HW1 2873   1.802   2.466   1.493 -1.0756  1.6278  0.3144
  958SOL    HW2 2874   1.838   2.337   1.392  2.4424 -1.9719 -1.5450
  959SOL     OW 2875   1.607   1.477   1.707 -0.0170  0.6110 -0.1758
  959SOL    HW1 2876   1.662   1.555   1.669 -1.5218 -1.6627 -0.4961
  959SOL    HW2 2877   1.514   1.511   1.733 -1.5101 -1.4452  1.9171
  960SOL     OW 2878   3.048   0.845   2.772 -0.0777 -0.4170  0.1550
  960SOL    HW1 2879   3.003   0.772   2.724  1.3452  0.6132  1.7541
  960SOL    HW2 2880   0.039   0.872   2.737  0.9459  2.3919 -3.0197
  961SOL     OW 2881   0.363   0.728   1.991 -0.0263  0.3397 -0.2451
  961SOL    HW1 2882   0.297   0.657   1.956  0.5893 -1.4498  0.9061
  961SOL    HW2 2883   0.418   0.773   1.920 -1.7300  1.3166  0.8350
  962SOL     OW 2884   1.517   1.634   0.318  0.4698  0.0983  0.2822
  962SOL    HW1 2885   1.452   1.682   0.376  1.9703 -0.6993 -0.3372
  962SOL    HW2 2886   1.540   1.543   0.360 -2.6261 -1.6463  1.4814
  963SOL     OW 2887   1.211   2.401   2.521  0.1705 -0.5639 -0.2151
  963SOL    HW1 2888   1.189   2.387   2.422 -1.7362 -2.2816 -1.1094
  963SOL    HW2 2889   1.206   2.310   2.570  1.0835 -1.6922  0.0977
  964SOL     OW 2890   0.955   2.445   0.256  0.0240  0.7618  0.3250
  964SOL    HW1 2891   0.987   2.522   0.201  1.1754 -2.0244 -1.2874
  964SOL    HW2 2892   0.986   2.459   0.351  1.6135 -0.1288 -0.0486
  965SOL     OW 2893   0.641   3.030   0.968  0.2057 -0.2595  0.1232
  965SOL    HW1 2894   0.671   2.944   1.023  2.0503  0.3766  0.5890
  965SOL    HW2 2895   0.596   3.098   1.025  1.9419 -0.2880  0.4345
  966SOL     OW 2896   0.160   1.000   2.917 -0.5851 -0.8769 -1.0740
  966SOL    HW1 2897   0.119   1.091   2.949  0.1429  0.6172  0.0917
  966SOL    HW2 2898   0.170   0.943   3.007  3.5964  0.4712  1.1859
  967SOL     OW 2899   0.957   2.899   2.063  0.2531 -0.0300 -0.3660
  967SOL    HW1 2900   1.007   2.977   2.020 -1.8568 -2.1438 -0.7737
  967SOL    HW2 2901   0.996   2.810   2.038  1.6449 -1.8623  1.2158
  968SOL     OW 2902   2.078   0.425   0.389  0.0515  0.1923  0.2954
  968SOL    HW1 2903   2.135   0.384   0.457 -4.9805  0.8944  0.2287
  968SOL    HW2 2904   2.003   0.472   0.433  1.4847 -0.0717 -2.2653
  969SOL     OW 2905   3.087   1.652   1.994 -1.0325  0.1041  0.4784
  969SOL    HW1 2906   3.032   1.645   1.904 -0.1669  3.8073 -0.6496
  969SOL    HW2 2907   0.087   1.638   1.975  0.6826 -0.0852  1.4345
  970SOL     OW 2908   2.099   1.380   1.385 -0.0600 -0.3463 -0.0825
  970SOL    HW1 2909   2.083   1.481   1.373  1.1250  0.1585  0.5003
  970SOL    HW2 2910   2.197   1.360   1.363 -0.0142  0.5686 -1.4427
  971SOL     OW 2911   1.986   0.382   1.234 -0.3420  0.1453  0.3096
  971SOL    HW1 2912   2.084   0.398   1.214 -0.3575 -1.5980 -1.4431
  971SOL    HW2 2913   1.934   0.404   1.148  0.7205  1.9152  0.9806
  972SOL     OW 2914   0.548   3.054   1.952  0.0956  0.0328  0.6139
  972SOL    HW1 2915   0.602   0.017   2.007 -0.6089 -0.7283 -1.8908
  972SOL    HW2 2916   0.491   0.006   1.884 -0.8709  0.0597  0.4493
  973SOL     OW 2917   2.699   0.979   0.264 -0.3268 -0.0052 -0.0224
  973SOL    HW1 2918   2.650   0.988   0.180  2.5014 -0.7838  1.5862
  973SOL    HW2 2919   2.798   0.969   0.240  1.8341  0.7040  0.7136
  974SOL     OW 2920   1.695   1.499   2.556 -0.2456  0.0353  0.2234
  974SOL    HW1 2921   1.780   1.539   2.520 -2.0386  1.0536  1.5054
  974SOL    HW2 2922   1.619   1.478   2.487 -2.3954  2.9204 -2.4416
  975SOL     OW 2923   0.145   2.643   1.506  0.4440  0.0834  0.2500
  975SOL    HW1 2924   0.212   2.678   1.442 -3.4381  1.7984  3.3378
  975SOL    HW2 2925   0.050   2.683   1.505 -0.2012 -0.8327  1.3954
  976SOL     OW 2926   0.199   1.648   1.566  0.2845  0.0384  0.1438
  976SOL    HW1 2927   0.134   1.729   1.557 -0.4797 -2.1470  0.0680
  976SOL    HW2 2928   0.296   1.672   1.585 -1.4562 -0.6037  0.0845
  977SOL     OW 2929   0.863   2.485   2.806  0.1738  0.1038  1.0005
  977SOL    HW1 2930   0.822   2.546   2.736 -0.5038  2.0918 -2.1376
  977SOL    HW2 2931   0.885   2.388   2.765  1.5350 -3.0865 -0.9095
  978SOL     OW 2932   0.494   1.758   2.623  0.4374 -0.1538 -0.3780
  978SOL    HW1 2933   0.575   1.816   2.606  0.1134  0.1902  0.4905
  978SOL    HW2 2934   0.454   1.776   2.717  1.6565 -0.3692 -2.7195
  979SOL     OW 2935   1.643   2.300   1.037 -0.1476 -0.1052 -1.0478
  979SOL    HW1 2936   1.731   2.322   1.095  0.2993  5.9659  0.4536
  979SOL    HW2 2937   1.662   2.257   0.947  2.5759  3.4811 -1.7084
  980SOL     OW 2938   0.982   1.793   2.752 -0.5310 -0.1634 -0.1837
  980SOL    HW1 2939   0.885   1.821   2.768  1.2100  0.6272  0.2926
  980SOL    HW2 2940   1.042   1.850   2.812  0.0984  0.5920 -1.2065
  981SOL     OW 2941   2.845   0.068   2.515 -0.1423  0.2253 -0.5318
  981SOL    HW1 2942   2.849   0.150   2.457 -3.0335  1.4363  1.4766
  981SOL    HW2 2943   2.761   0.023   2.494  2.5543  2.0824 -0.2649
  982SOL     OW 2944   0.375   2.822   2.825 -0.2140 -0.1586  0.6153
  982SOL    HW1 2945   0.311   2.753   2.855 -0.6265  0.1844 -0.8537
  982SOL    HW2 2946   0.463   2.781   2.788  0.8339 -0.6439 -2.5823
  983SOL     OW 2947   2.261   0.893   1.878 -0.1586 -0.8269  0.5653
  983SOL    HW1 2948   2.284   0.931   1.970  1.5109  3.9675  1.0245
  983SOL    HW2 2949   2.232   0.973   1.820  1.1202  2.3000  1.0939
  984SOL     OW 2950   1.484   0.325   2.132  0.3047  0.0481  0.5856
  984SOL    HW1 2951   1.409   0.293   2.196  2.0732  0.5009 -0.9440
  984SOL    HW2 2952   1.573   0.319   2.173 -2.1797  1.2502 -0.8192
  985SOL     OW 2953   1.276   1.922   2.095  0.2029  0.5964  0.1919
  985SOL    HW1 2954   1.212   1.846   2.068  0.5056 -0.2279  0.6351
  985SOL    HW2 2955   1.355   1.917   2.035 -0.9509  0.6494  1.5189
  986SOL     OW 2956   1.767   0.071   2.128  0.2228 -0.0611 -0.3371
  986SOL    HW1 2957   1.829   0.094   2.053 -0.3925 -0.1869 -2.3180
  986SOL    HW2 2958   1.733   0.154   2.179  0.3946  0.5547 -0.8618
  987SOL     OW 2959   2.135   0.658   1.857  0.0083  0.2902 -0.6976
  987SOL    HW1 2960   2.095   0.658   1.762 -3.2636 -1.8421 -2.3318
  987SOL    HW2 2961   2.194   0.740   1.878 -0.5435  1.9287  2.5688
  988SOL     OW 2962   2.565   0.667   2.524  0.2663 -0.7149  0.0028
  988SOL    HW1 2963   2.536   0.755   2.562  0.9228 -1.5801  1.0962
  988SOL    HW2 2964   2.497   0.590   2.536 -0.2752 -0.3764 -0.9230
  989SOL     OW 2965   2.486   2.688   2.569 -0.7215 -0.6139 -0.0719
  989SOL    HW1 2966   2.444   2.651   2.480 -1.3230 -2.4079 -0.5424
  989SOL    HW2 2967   2.590   2.690   2.561  3.4642 -2.2819  2.4015
  990SOL     OW 2968   0.853   0.659   2.831  0.0276  0.4083 -0.4376
  990SOL    HW1 2969   0.879   0.757   2.846 -1.1853  0.8819  0.7281
  990SOL    HW2 2970   0.898   0.624   2.744 -3.1981  4.5428 -3.3858
  991SOL     OW 2971   1.032   0.786   0.035 -0.5033 -0.0288 -0.1057
  991SOL    HW1 2972   1.005   0.697   3.091  2.4838  0.8314  2.3313
  991SOL    HW2 2973   1.130   0.812   0.016  1.4886 -0.3086 -0.9833
  992SOL     OW 2974   2.538   2.219   2.736 -0.1435  0.1317  0.3275
  992SOL    HW1 2975   2.597   2.201   2.658 -1.4413 -0.0100 -1.2904
  992SOL    HW2 2976   2.571   2.278   2.811 -0.1429 -1.5816  0.1631
  993SOL     OW 2977   0.459   0.179   0.449  0.0323 -0.3778  0.7615
  993SOL    HW1 2978   0.441   0.220   0.354  0.3952  0.5559 -2.0096
  993SOL    HW2 2979   0.400   0.102   0.479  0.1042 -1.7851 -0.7609
  994SOL     OW 2980   0.397   2.180   1.630  0.2713 -0.3918  0.4841
  994SOL    HW1 2981   0.349   2.184   1.719  2.7057  1.1990 -0.0785
  994SOL    HW2 2982   0.422   2.272   1.594 -0.3565  2.5416  2.2382
  995SOL     OW 2983   2.151   1.883   0.060  0.2304 -0.5448 -0.4540
  995SOL    HW1 2984   2.234   1.867   0.003 -2.4560  0.8393  1.8678
  995SOL    HW2 2985   2.087   1.805   0.043 -1.7262  0.6003 -1.2703
  996SOL     OW 2986   1.355   1.688   2.297 -0.2075 -0.0179 -0.1797
  996SOL    HW1 2987   1.351   1.593   2.255 -2.9591 -2.5140 -1.6482
  996SOL    HW2 2988   1.449   1.715   2.316  0.5945 -1.0512 -0.4408
  997SOL     OW 2989   1.728   1.032   1.240 -0.1165 -0.4270  0.7745
  997SOL    HW1 2990   1.814   1.087   1.223  0.7570  0.4007 -0.6145
  997SOL    HW2 2991   1.736   0.931   1.251  2.1162  1.9136 -1.3370
  998SOL     OW 2992   2.833   1.486   0.161 -0.1565 -0.1980  0.4085
  998SOL    HW1 2993   2.771   1.415   0.123  1.2689 -1.8117  3.2219
  998SOL    HW2 2994   2.883   1.532   0.085  1.4222  2.5936 -1.4074
  999SOL     OW 2995   2.807   2.297   0.425 -0.5795  0.2342 -0.0242
  999SOL    HW1 2996   2.882   2.349   0.477  1.3186  1.5350  2.9439
  999SOL    HW2 2997   2.841   2.206   0.395 -0.2548  0.6630  0.8693
 1000SOL     OW 2998   0.837   0.040   2.219  0.0862 -0.0890  0.6058
 1000SOL    HW1 2999   0.768   0.070   2.150  1.1034  0.0507 -4.5004
 1000SOL    HW2 3000   0.864   3.040   2.200  0.0567 -1.0340  1.8184
   3.09956   3.09956   3.09956
