1000 SPC/Fw water molecules t= 453.00000 step= 453000
 3000
    1SOL     OW    1   3.060   3.013   1.447 -0.3294 -0.0205  0.0693
    1SOL    HW1    2   3.021   2.951   1.379 -0.7489  0.5470 -2.5160
    1SOL    HW2    3   3.054   2.969   1.539  1.3108  1.0243 -0.0900
    2SOL     OW    4   2.774   0.082   0.052 -0.5311 -0.0774  0.7624
    2SOL    HW1    5   2.811   3.104   0.077  0.6816  0.3829  2.8419
    2SOL    HW2    6   2.726   0.135   0.130 -1.8533  0.5938  2.1200
    3SOL     OW    7   1.350   2.761   0.144  0.8983 -0.4769 -0.3333
    3SOL    HW1    8   1.301   2.689   0.092  0.5876 -0.7409  0.1404
    3SOL    HW2    9   1.445   2.733   0.174  2.6154 -0.0241 -1.0956
    4SOL     OW   10   1.329   2.547   2.405 -0.3685 -0.0212 -0.0479
    4SOL    HW1   11   1.415   2.589   2.440 -0.3510  0.2465  1.2317
    4SOL    HW2   12   1.253   2.569   2.464 -2.8502  0.0011 -0.5060
    5SOL     OW   13   2.255   0.392   2.164  0.1344  0.0580  0.0738
    5SOL    HW1   14   2.258   0.319   2.094 -2.3691  1.1785  0.6591
    5SOL    HW2   15   2.324   0.466   2.143 -0.5019  1.5530 -0.6008
    6SOL     OW   16   2.704   1.999   1.233  0.0803 -0.4902  0.2541
    6SOL    HW1   17   2.700   1.943   1.148 -2.4542 -1.7801 -1.9749
    6SOL    HW2   18   2.695   2.098   1.205  0.9870  0.5411  1.0394
    7SOL     OW   19   1.200   2.015   0.601 -0.5458 -0.0863  0.1415
    7SOL    HW1   20   1.137   1.980   0.668  0.0785 -1.5074  0.8416
    7SOL    HW2   21   1.145   2.049   0.524  0.5668 -0.9541  0.8707
    8SOL     OW   22   0.280   0.859   0.579  0.1323  0.0339  0.1920
    8SOL    HW1   23   0.372   0.899   0.553  1.4861  0.1010  0.3616
    8SOL    HW2   24   0.261   0.772   0.533  0.4707 -1.0322  0.9953
    9SOL     OW   25   0.273   3.018   1.490  0.0029  0.1599 -0.2272
    9SOL    HW1   26   0.231   2.951   1.426 -1.4226 -1.0292  0.2302
    9SOL    HW2   27   0.221   3.008   1.577 -0.1645 -0.2139 -1.3347
   10SOL     OW   28   1.115   2.590   0.808  0.2074  0.1884 -0.7751
   10SOL    HW1   29   1.100   2.525   0.878 -0.9168  1.4133 -1.8400
   10SOL    HW2   30   1.033   2.627   0.765  1.1314 -0.8558 -0.0465
   11SOL     OW   31   2.381   1.179   1.265  0.5713 -0.0921  0.4879
   11SOL    HW1   32   2.429   1.095   1.231 -0.8757 -1.5959 -1.2547
   11SOL    HW2   33   2.287   1.148   1.295  1.3433 -0.2209 -0.7391
   12SOL     OW   34   0.130   0.822   2.054  0.3367  0.1089  0.1687
   12SOL    HW1   35   0.188   0.827   1.972  0.7557 -0.5734  0.3839
   12SOL    HW2   36   0.180   0.810   2.142  0.7431 -1.3196  0.1881
   13SOL     OW   37   2.222   0.134   0.306 -0.1084  0.0735  0.4575
   13SOL    HW1   38   2.246   0.080   0.384 -0.4054  0.6210  0.4346
   13SOL    HW2   39   2.174   0.073   0.240  2.1944  1.5609 -0.2484
   14SOL     OW   40   1.697   2.017   0.176  0.0152 -0.7752  0.5218
   14SOL    HW1   41   1.649   1.992   0.261 -1.4569 -0.6442 -3.9913
   14SOL    HW2   42   1.630   2.053   0.106  0.0995  2.3993 -2.0007
   15SOL     OW   43   3.017   2.671   2.351 -0.2390  0.3732 -0.1681
   15SOL    HW1   44   3.111   2.691   2.378  1.6678  0.8616  2.1190
   15SOL    HW2   45   2.981   2.708   2.265 -0.9183 -4.2602 -0.9441
   16SOL     OW   46   2.934   0.601   1.155 -0.1296  0.4574  0.4186
   16SOL    HW1   47   2.972   0.540   1.085 -0.6864  1.9169 -0.3309
   16SOL    HW2   48   2.846   0.570   1.189 -0.6558  0.9139 -1.8942
   17SOL     OW   49   0.813   0.507   0.837 -0.2076 -0.2857  0.6058
   17SOL    HW1   50   0.821   0.491   0.934  0.4471  0.3281 -0.6351
   17SOL    HW2   51   0.885   0.458   0.784 -1.1667  1.2278 -1.9339
   18SOL     OW   52   0.279   0.211   0.401  0.0365 -0.6740 -0.3645
   18SOL    HW1   53   0.222   0.259   0.475 -1.0214 -0.5010 -1.0494
   18SOL    HW2   54   0.360   0.168   0.440 -0.2721 -0.4049 -0.6697
   19SOL     OW   55   1.560   0.991   0.892 -0.1057  0.3265  0.1191
   19SOL    HW1   56   1.484   1.036   0.845 -0.8504 -0.5026 -0.9769
   19SOL    HW2   57   1.529   0.957   0.982 -0.0162 -0.6227  1.4076
   20SOL     OW   58   2.259   1.824   2.752 -0.2023  0.7800 -0.1280
   20SOL    HW1   59   2.279   1.907   2.700 -0.3122 -0.2819 -0.9056
   20SOL    HW2   60   2.342   1.776   2.785 -2.8460 -2.2798  1.0554
   21SOL     OW   61   1.307   2.845   0.586 -0.2723  0.3293  0.0098
   21SOL    HW1   62   1.323   2.745   0.574  0.2872 -2.4648 -0.0217
   21SOL    HW2   63   1.395   2.888   0.550  0.2160 -0.5088 -1.1884
   22SOL     OW   64   2.385   1.091   0.359 -0.1233 -0.1207  0.0830
   22SOL    HW1   65   2.378   1.105   0.462  0.3792  0.6194 -0.0708
   22SOL    HW2   66   2.382   1.186   0.323 -2.6242 -0.2203  1.9700
   23SOL     OW   67   0.879   0.462   1.917 -0.3547  0.3335 -0.0023
   23SOL    HW1   68   0.851   0.439   1.823  0.0756 -0.1996  0.6950
   23SOL    HW2   69   0.977   0.489   1.922  0.1515  1.2067 -0.0743
   24SOL     OW   70   1.862   2.402   0.691  0.7212 -0.4503  0.4630
   24SOL    HW1   71   1.914   2.457   0.627 -1.3273 -1.8958  0.3500
   24SOL    HW2   72   1.829   2.457   0.766  1.1271 -2.5805 -0.1463
   25SOL     OW   73   1.631   0.115   2.503  1.2917  0.4646  0.1735
   25SOL    HW1   74   1.630   0.150   2.600  0.7091 -2.1142 -0.5870
   25SOL    HW2   75   1.562   0.173   2.446 -2.4092  0.6770 -1.1391
   26SOL     OW   76   1.390   2.781   2.877 -0.5922  0.4030 -0.3896
   26SOL    HW1   77   1.436   2.691   2.853  0.1374  1.9706 -0.4255
   26SOL    HW2   78   1.303   2.759   2.917  1.7868  1.1523 -1.5391
   27SOL     OW   79   1.118   0.264   1.088  0.2149  0.2853  0.0487
   27SOL    HW1   80   1.019   0.244   1.114 -0.5028 -2.3572  1.9816
   27SOL    HW2   81   1.186   0.234   1.159 -1.1145 -1.2902 -1.6715
   28SOL     OW   82   0.377   1.702   1.033 -0.0139  0.1816 -0.6541
   28SOL    HW1   83   0.465   1.685   0.987  0.2841  0.1750 -1.4278
   28SOL    HW2   84   0.369   1.659   1.125  0.9634  1.8682 -1.6554
   29SOL     OW   85   2.758   0.996   1.276 -0.0943  0.1253 -0.3761
   29SOL    HW1   86   2.796   1.091   1.268  1.1097 -1.5670  0.3252
   29SOL    HW2   87   2.675   0.997   1.339 -0.3401  1.6973 -1.3889
   30SOL     OW   88   1.659   2.616   1.564  0.0424  0.4965 -0.7891
   30SOL    HW1   89   1.712   2.593   1.479  0.8836 -1.5971 -0.7144
   30SOL    HW2   90   1.613   2.702   1.544 -1.5478  1.4217 -0.4210
   31SOL     OW   91   1.609   2.725   1.242  0.5420  0.0500  0.1493
   31SOL    HW1   92   1.669   2.646   1.237  2.0438 -1.1058 -1.7359
   31SOL    HW2   93   1.565   2.748   1.153 -4.2288  0.5079  1.4152
   32SOL     OW   94   2.179   1.405   2.000 -0.4060  0.2995 -0.5350
   32SOL    HW1   95   2.258   1.363   2.053  0.0347 -0.7712  0.5591
   32SOL    HW2   96   2.199   1.399   1.900 -0.8955  1.6902 -1.3289
   33SOL     OW   97   2.331   2.987   2.395  0.6867 -0.3598 -0.4523
   33SOL    HW1   98   2.405   3.056   2.395 -1.1632 -2.7811 -2.0152
   33SOL    HW2   99   2.245   3.020   2.350 -3.6236 -1.7515 -2.1196
   34SOL     OW  100   2.124   0.717   0.793  0.4527  0.4081  0.3160
   34SOL    HW1  101   2.166   0.638   0.747 -3.0033  4.4092 -1.9231
   34SOL    HW2  102   2.032   0.741   0.756 -1.1121 -0.2212 -0.8961
   35SOL     OW  103   0.110   1.580   1.893  0.0586  0.6121  0.3045
   35SOL    HW1  104   0.171   1.588   1.978  1.8319 -0.3019  1.7960
   35SOL    HW2  105   0.011   1.585   1.926 -1.5816 -2.7000  2.2141
   36SOL     OW  106   2.514   2.342   2.750 -0.4683  0.5384 -0.1255
   36SOL    HW1  107   2.615   2.364   2.760 -0.9217 -1.0845 -1.0911
   36SOL    HW2  108   2.458   2.351   2.835  1.2796 -1.3430  2.1489
   37SOL     OW  109   1.181   2.864   1.721  0.1054  0.2068 -0.5310
   37SOL    HW1  110   1.217   2.870   1.817 -0.6544  1.0720  1.1851
   37SOL    HW2  111   1.256   2.885   1.657 -0.7149  3.5200 -2.2433
   38SOL     OW  112   0.750   0.934   2.294  0.1368 -0.3526 -0.4025
   38SOL    HW1  113   0.742   0.831   2.303 -0.0752  0.9425  0.0307
   38SOL    HW2  114   0.748   0.969   2.195  0.8949  1.3874 -2.8294
   39SOL     OW  115   1.964   0.767   1.641 -0.7622  0.5713 -0.1061
   39SOL    HW1  116   1.955   0.716   1.553  0.2868 -1.1968  0.3094
   39SOL    HW2  117   1.967   0.708   1.723 -1.5794  0.3560  0.1092
   40SOL     OW  118   0.799   2.345   0.559 -0.1058 -0.1398 -0.3708
   40SOL    HW1  119   0.853   2.323   0.644 -2.1864  1.4898 -0.1670
   40SOL    HW2  120   0.804   2.271   0.488  1.1737 -0.2900 -1.4862
   41SOL     OW  121   2.423   1.986   1.195 -0.0433  0.0681 -0.1691
   41SOL    HW1  122   2.519   1.957   1.222  1.3412  3.1949 -0.5571
   41SOL    HW2  123   2.408   2.084   1.224 -2.4320 -0.9228 -3.0920
   42SOL     OW  124   2.471   0.777   0.607  0.1439 -0.1836  1.1423
   42SOL    HW1  125   2.550   0.838   0.619  0.8705 -1.0316 -0.7386
   42SOL    HW2  126   2.479   0.693   0.666  1.4787 -0.1926 -1.3625
   43SOL     OW  127   0.573   1.093   2.472 -0.6346  0.0492  0.0244
   43SOL    HW1  128   0.548   1.183   2.427 -0.6501 -0.4238  0.9644
   43SOL    HW2  129   0.636   1.035   2.416 -1.5897 -1.2492 -0.5000
   44SOL     OW  130   1.776   2.526   1.334  0.2274  0.2190 -0.0521
   44SOL    HW1  131   1.700   2.459   1.326 -2.1574 -1.3968  1.9752
   44SOL    HW2  132   1.862   2.475   1.341 -0.1610 -0.1260 -1.1551
   45SOL     OW  133   0.415   2.513   3.045  0.4234  0.1711 -0.5258
   45SOL    HW1  134   0.422   2.535   0.026 -2.6928 -0.3490  0.7515
   45SOL    HW2  135   0.508   2.512   3.008 -1.6366  1.4306  1.0292
   46SOL     OW  136   0.489   2.805   2.125 -0.2211  0.1582  0.2247
   46SOL    HW1  137   0.568   2.838   2.072 -0.1532  0.5152  0.3733
   46SOL    HW2  138   0.522   2.769   2.214  1.6740  1.4390  2.2307
   47SOL     OW  139   0.339   1.820   0.683 -0.0236 -0.0635  0.0905
   47SOL    HW1  140   0.406   1.803   0.608 -1.3101 -0.4070  1.7554
   47SOL    HW2  141   0.383   1.872   0.758  0.0363  2.2886 -0.6750
   48SOL     OW  142   0.774   3.008   1.337 -0.0578  0.3261 -0.0755
   48SOL    HW1  143   0.779   2.918   1.379 -1.8055  3.8492 -1.9537
   48SOL    HW2  144   0.691   3.063   1.364 -2.9788  1.5234  3.4546
   49SOL     OW  145   3.013   2.761   2.784  0.0703 -0.1288  0.9357
   49SOL    HW1  146   2.930   2.771   2.843 -0.1882  1.4143 -3.2347
   49SOL    HW2  147   3.082   2.704   2.835  1.6492  0.8810  2.3942
   50SOL     OW  148   1.283   1.068   0.178 -0.3688 -0.4642  0.1344
   50SOL    HW1  149   1.184   1.077   0.194  2.0143  0.3045  0.4063
   50SOL    HW2  150   1.325   1.161   0.160  1.2494 -0.7425 -2.4509
   51SOL     OW  151   1.886   0.146   0.579 -0.0626 -0.1789 -0.1713
   51SOL    HW1  152   1.846   0.208   0.506 -0.5579  1.2940  1.6144
   51SOL    HW2  153   1.848   0.178   0.666 -0.5462 -1.4175 -2.7577
   52SOL     OW  154   0.322   1.548   0.730 -0.1837 -0.5908  0.0857
   52SOL    HW1  155   0.323   1.653   0.711 -0.7611  2.1073 -1.2784
   52SOL    HW2  156   0.390   1.530   0.806  0.9936  0.6026  3.7146
   53SOL     OW  157   0.118   1.067   2.902  0.4446 -0.1531 -0.7122
   53SOL    HW1  158   0.033   1.106   2.948 -0.6847  1.4101 -0.1388
   53SOL    HW2  159   0.193   1.055   2.972  1.4356 -1.7566  0.7759
   54SOL     OW  160   2.649   2.256   0.027 -0.3547  0.9616 -0.5282
   54SOL    HW1  161   2.748   2.277   0.034  1.5797  1.0767 -0.1827
   54SOL    HW2  162   2.596   2.316   3.079  1.0615 -1.3828 -0.5282
   55SOL     OW  163   2.669   2.250   1.159  0.3757  0.0346 -0.7423
   55SOL    HW1  164   2.732   2.319   1.202  2.6542  1.4481  1.7958
   55SOL    HW2  165   2.570   2.262   1.186  0.1352  1.0795 -1.8754
   56SOL     OW  166   1.906   0.176   1.246  0.1594  0.6141 -0.1684
   56SOL    HW1  167   1.832   0.223   1.199 -0.1553  0.6605  0.1865
   56SOL    HW2  168   1.862   0.110   1.313 -1.3275 -2.5506  0.5364
   57SOL     OW  169   2.183   1.926   1.294  0.0377  0.2707 -0.5094
   57SOL    HW1  170   2.277   1.935   1.255  1.1221  2.2113 -1.7674
   57SOL    HW2  171   2.110   1.951   1.230  1.4467 -0.0618  0.8536
   58SOL     OW  172   2.607   0.406   2.087 -0.1188  0.1652  0.3061
   58SOL    HW1  173   2.661   0.407   2.175  0.0935 -0.7292  1.4391
   58SOL    HW2  174   2.548   0.489   2.074 -0.4782  1.9571 -0.7869
   59SOL     OW  175   1.368   2.549   2.078 -0.1189 -0.0452  0.4465
   59SOL    HW1  176   1.271   2.547   2.092  0.5006  0.6597  1.1204
   59SOL    HW2  177   1.399   2.545   1.978 -0.4738  0.7482 -0.7002
   60SOL     OW  178   0.684   2.545   2.915  0.0377 -0.5384  0.1731
   60SOL    HW1  179   0.747   2.562   2.996 -1.7071  0.7086  0.4836
   60SOL    HW2  180   0.714   2.608   2.838 -0.0976  1.8355 -0.8522
   61SOL     OW  181   0.549   2.060   0.319  0.0124  0.1984  0.3248
   61SOL    HW1  182   0.556   2.150   0.282  1.0692 -0.0122  1.5546
   61SOL    HW2  183   0.544   1.992   0.240  1.9500 -0.3897 -2.0242
   62SOL     OW  184   1.375   1.561   1.834  0.2382  0.5095 -0.0350
   62SOL    HW1  185   1.306   1.629   1.868 -0.2805  0.6848 -0.8971
   62SOL    HW2  186   1.461   1.602   1.809 -2.7243 -1.5859  0.5050
   63SOL     OW  187   0.940   2.007   0.746  0.3155  0.3899 -0.1948
   63SOL    HW1  188   0.838   2.016   0.738 -3.1334 -2.8175 -1.0338
   63SOL    HW2  189   0.968   1.916   0.776  0.9170  2.9474  0.3873
   64SOL     OW  190   1.188   1.598   2.957  0.2937 -0.7589  0.9350
   64SOL    HW1  191   1.228   1.692   2.975  0.5368  1.9172  0.1213
   64SOL    HW2  192   1.119   1.599   2.886 -2.5313 -0.5948  0.1953
   65SOL     OW  193   1.837   2.068   2.103  0.3397 -0.1410  0.5776
   65SOL    HW1  194   1.869   2.021   2.017  1.7164  2.1400 -2.6588
   65SOL    HW2  195   1.827   2.002   2.180 -0.4236 -0.6795 -0.9270
   66SOL     OW  196   0.044   1.010   0.980 -0.5304 -0.5377 -0.4983
   66SOL    HW1  197   3.086   0.970   1.033 -1.4600  2.0282 -2.1418
   66SOL    HW2  198   0.037   0.979   0.883  1.0527  3.1542 -2.0934
   67SOL     OW  199   2.117   2.519   0.816 -0.1363  0.1011  0.7817
   67SOL    HW1  200   2.158   2.470   0.741 -3.7716  2.2836 -0.0034
   67SOL    HW2  201   2.125   2.618   0.803  0.9378 -1.4081 -0.5786
   68SOL     OW  202   2.475   2.651   1.615 -0.4485 -0.1125 -0.1639
   68SOL    HW1  203   2.548   2.713   1.578  2.7966  4.4413  2.3914
   68SOL    HW2  204   2.499   2.611   1.705 -0.1220 -1.4514 -0.9872
   69SOL     OW  205   2.443   2.858   3.087  0.3042  0.4267  0.1214
   69SOL    HW1  206   2.417   2.821   2.996  0.9656 -0.6542  2.6187
   69SOL    HW2  207   2.388   2.939   3.110  1.2041 -0.1009  1.0415
   70SOL     OW  208   0.501   1.431   2.682  0.3221  0.6227  0.5263
   70SOL    HW1  209   0.580   1.375   2.656 -0.9228  0.7133 -2.1119
   70SOL    HW2  210   0.421   1.366   2.700 -0.9520  0.5584  2.4742
   71SOL     OW  211   0.722   1.334   2.060 -0.2710 -0.0419  0.3104
   71SOL    HW1  212   0.625   1.356   2.034  1.6759 -2.0876  1.1116
   71SOL    HW2  213   0.792   1.388   2.001  3.2439  1.2725 -0.9491
   72SOL     OW  214   2.847   1.250   1.679 -0.5202  0.0972 -0.1515
   72SOL    HW1  215   2.848   1.353   1.667 -1.7786  2.5989 -0.4535
   72SOL    HW2  216   2.793   1.225   1.760  0.7678  0.5655 -3.0581
   73SOL     OW  217   0.896   2.043   2.392  0.4078  0.2537  0.2801
   73SOL    HW1  218   0.803   2.051   2.441 -1.8451 -0.5732  0.3347
   73SOL    HW2  219   0.891   1.986   2.308 -0.5633 -0.0828  1.8066
   74SOL     OW  220   1.585   0.040   1.847  0.3353 -0.3280 -0.2846
   74SOL    HW1  221   1.627   3.067   1.821 -1.5615 -0.7829 -1.9290
   74SOL    HW2  222   1.596   0.058   1.947 -1.0303  0.2211  2.0375
   75SOL     OW  223   1.081   2.935   0.699 -0.6350  0.1878 -0.0181
   75SOL    HW1  224   1.033   2.846   0.695  1.1385  1.2410  1.3720
   75SOL    HW2  225   1.174   2.919   0.668 -2.9573  1.9324 -0.3616
   76SOL     OW  226   0.662   1.861   2.716 -0.4031  0.8677  0.5117
   76SOL    HW1  227   0.749   1.840   2.766  2.1950  1.9033 -1.0713
   76SOL    HW2  228   0.624   1.773   2.676 -1.6812 -2.7986 -1.0529
   77SOL     OW  229   0.668   2.668   1.179 -0.3924  0.2918 -0.5059
   77SOL    HW1  230   0.612   2.736   1.236  1.2167  1.8958  1.6980
   77SOL    HW2  231   0.729   2.723   1.117 -2.8011 -0.9739 -2.2770
   78SOL     OW  232   2.414   1.329   0.211 -0.1833  0.1648  0.1476
   78SOL    HW1  233   2.479   1.291   0.140 -0.1133  1.2969 -1.2074
   78SOL    HW2  234   2.469   1.380   0.284  0.8847  1.9436  2.8616
   79SOL     OW  235   0.526   1.594   2.896  1.1575  0.2205  0.0501
   79SOL    HW1  236   0.504   1.534   2.976  1.7556 -0.8466 -0.8283
   79SOL    HW2  237   0.509   1.550   2.808  0.6024 -0.7600  2.6929
   80SOL     OW  238   1.854   1.652   1.608  0.3081 -0.2421  0.1910
   80SOL    HW1  239   1.809   1.731   1.559 -0.1151  1.7216 -1.3813
   80SOL    HW2  240   1.833   1.664   1.707  1.4478  3.0711  0.2023
   81SOL     OW  241   2.287   0.873   2.351  0.0933 -0.3791 -0.0073
   81SOL    HW1  242   2.202   0.815   2.346 -1.3089 -0.1736  1.2583
   81SOL    HW2  243   2.278   0.965   2.304 -0.3931 -0.2072  1.3697
   82SOL     OW  244   1.746   1.866   1.479 -0.0735 -0.4428 -0.1894
   82SOL    HW1  245   1.645   1.885   1.472  0.7363  0.4690 -0.7853
   82SOL    HW2  246   1.792   1.961   1.491  0.1696  2.5223  0.3242
   83SOL     OW  247   2.964   0.053   2.746  0.8092  0.4684 -0.3140
   83SOL    HW1  248   2.931   0.017   2.657  1.9613  3.7397 -1.1292
   83SOL    HW2  249   2.885   0.047   2.812  3.1252 -0.9802  1.5190
   84SOL     OW  250   0.761   1.047   0.278 -0.1084 -0.1231 -0.0848
   84SOL    HW1  251   0.734   1.021   0.185  1.9406  1.2588  0.8574
   84SOL    HW2  252   0.779   0.970   0.340  1.7035  3.0397 -1.9223
   85SOL     OW  253   2.248   1.669   1.379  0.0357  0.0934  0.1345
   85SOL    HW1  254   2.200   1.752   1.350  1.8391 -1.7236 -2.3810
   85SOL    HW2  255   2.255   1.613   1.291 -0.0730 -0.3437 -1.2825
   86SOL     OW  256   0.662   0.864   1.166  0.2120 -0.8430  0.8102
   86SOL    HW1  257   0.699   0.945   1.221  2.4700  0.2041  1.8136
   86SOL    HW2  258   0.601   0.813   1.226  2.6936 -0.1594  0.0357
   87SOL     OW  259   2.972   2.066   2.661  0.1709 -0.3534 -0.2438
   87SOL    HW1  260   2.911   2.093   2.743 -0.0175  0.7059  1.2684
   87SOL    HW2  261   2.923   2.074   2.572  1.3966 -0.6365  0.1600
   88SOL     OW  262   0.023   2.916   0.194 -0.1613  0.2638  0.3351
   88SOL    HW1  263   0.113   2.956   0.167 -3.3643 -1.2395  0.4823
   88SOL    HW2  264   3.101   2.974   0.269  0.6093  1.6413 -0.4308
   89SOL     OW  265   1.272   0.079   0.523  0.3187  0.2065  0.0792
   89SOL    HW1  266   1.328   3.112   0.541 -0.0463 -1.4004 -0.0314
   89SOL    HW2  267   1.334   0.157   0.533  2.0848 -0.2708 -0.6835
   90SOL     OW  268   2.693   1.018   2.309 -0.1439  0.4339  0.0188
   90SOL    HW1  269   2.639   1.078   2.370 -1.6545 -0.4899  0.7012
   90SOL    HW2  270   2.793   1.027   2.313 -2.5282 -0.2050  0.6543
   91SOL     OW  271   2.112   0.009   0.944 -0.0401 -0.3783  0.0806
   91SOL    HW1  272   2.169   3.111   1.029 -1.2457  0.1486  0.2628
   91SOL    HW2  273   2.089   3.037   0.891  0.9042 -3.5058  0.4032
   92SOL     OW  274   1.595   1.725   0.841 -0.1048 -0.0327  0.1880
   92SOL    HW1  275   1.599   1.640   0.791  2.5654  4.0224  2.0754
   92SOL    HW2  276   1.668   1.792   0.811  0.9429  0.6353 -1.7868
   93SOL     OW  277   0.191   1.636   0.288  0.1452  0.1277  0.3358
   93SOL    HW1  278   0.162   1.707   0.360 -2.0796  3.3012  2.6334
   93SOL    HW2  279   0.292   1.632   0.274  0.6855 -1.5671  0.4244
   94SOL     OW  280   0.937   2.504   1.415  0.3736  0.7670  0.3180
   94SOL    HW1  281   1.034   2.492   1.426 -5.3395 -1.0751  0.9413
   94SOL    HW2  282   0.912   2.438   1.342 -0.1282 -1.4174  0.6496
   95SOL     OW  283   0.065   0.956   0.701  0.4140 -0.0972 -0.2651
   95SOL    HW1  284   0.153   0.925   0.664  0.5939 -1.3979  2.2395
   95SOL    HW2  285   0.005   0.878   0.721 -1.3243  1.3296 -2.4562
   96SOL     OW  286   0.678   2.908   1.915  0.2551 -0.5315  0.8885
   96SOL    HW1  287   0.642   2.966   1.841  0.8354 -1.1417  0.1051
   96SOL    HW2  288   0.727   2.824   1.880 -1.0050 -0.3439  3.9105
   97SOL     OW  289   2.510   1.048   0.942 -0.0007  0.4335 -0.0371
   97SOL    HW1  290   2.488   1.005   1.032 -0.6190  1.6043 -0.0857
   97SOL    HW2  291   2.452   1.002   0.875 -3.0114 -1.0323  0.8682
   98SOL     OW  292   0.103   2.302   1.936 -0.1082  0.0016 -0.1953
   98SOL    HW1  293   0.125   2.335   2.030  0.3984  0.1951  0.2403
   98SOL    HW2  294   0.018   2.344   1.904  0.9659  0.6534 -0.7035
   99SOL     OW  295   3.004   0.429   1.455  0.1258 -0.0106 -0.0888
   99SOL    HW1  296   3.016   0.327   1.452 -1.6914  3.3671  0.4835
   99SOL    HW2  297   2.971   0.459   1.548 -1.4756 -1.9473 -4.0065
  100SOL     OW  298   1.983   0.408   2.667 -0.3156 -0.3190 -0.1203
  100SOL    HW1  299   2.078   0.420   2.627  0.0235 -1.2264  0.0836
  100SOL    HW2  300   1.918   0.359   2.607  0.9184  4.1400  0.0717
  101SOL     OW  301   1.111   0.018   2.045  0.1476 -0.0132  0.3755
  101SOL    HW1  302   1.014   3.105   2.042 -0.9401  0.0921 -3.1184
  101SOL    HW2  303   1.147   0.015   2.141 -0.1540 -1.0620  1.0179
  102SOL     OW  304   0.837   0.780   1.634  0.3031 -0.0621  0.1101
  102SOL    HW1  305   0.741   0.782   1.670 -1.7920  0.8290  0.6294
  102SOL    HW2  306   0.866   0.859   1.573  2.8721 -2.2471  0.7507
  103SOL     OW  307   0.869   0.694   2.949  0.1982 -0.5091 -0.0415
  103SOL    HW1  308   0.917   0.711   2.862  3.2113  0.5336  1.5407
  103SOL    HW2  309   0.769   0.678   2.935 -0.7766 -0.1833  0.4980
  104SOL     OW  310   0.326   0.355   2.083  0.1968  0.1529 -0.3065
  104SOL    HW1  311   0.354   0.314   1.995 -1.7138  1.8534  0.0739
  104SOL    HW2  312   0.347   0.288   2.160 -0.1720  0.0642 -1.6955
  105SOL     OW  313   2.685   2.249   1.601  0.1026 -0.1932  0.1670
  105SOL    HW1  314   2.731   2.169   1.558  1.0916 -0.9960 -0.2353
  105SOL    HW2  315   2.668   2.232   1.696  0.6245 -0.2723  0.4223
  106SOL     OW  316   0.888   0.015   0.699 -0.1507  0.1582  0.2128
  106SOL    HW1  317   0.915   0.059   0.613  0.4102 -1.2332  0.2449
  106SOL    HW2  318   0.959   3.061   0.726  2.4962  0.1636  0.0586
  107SOL     OW  319   3.033   2.095   1.348 -0.0985 -0.1514 -0.2581
  107SOL    HW1  320   3.002   2.028   1.279 -2.4431 -0.0577 -0.7162
  107SOL    HW2  321   2.966   2.085   1.424 -1.4846 -2.3137 -0.6978
  108SOL     OW  322   0.086   2.131   0.504  0.1777 -0.0690 -0.0525
  108SOL    HW1  323   0.189   2.125   0.513  2.1455 -0.8396  1.4983
  108SOL    HW2  324   0.035   2.133   0.594 -0.7138 -0.7467 -0.2180
  109SOL     OW  325   1.703   2.871   0.721  0.1236  0.3463  0.2142
  109SOL    HW1  326   1.790   2.845   0.672 -0.4827 -0.6624  2.2536
  109SOL    HW2  327   1.724   2.964   0.759  2.0601 -2.1274 -1.8290
  110SOL     OW  328   1.777   1.866   0.718 -0.7288  0.5717 -0.4487
  110SOL    HW1  329   1.773   1.964   0.740  0.3200 -0.4687  0.7838
  110SOL    HW2  330   1.874   1.846   0.700  0.5564  1.2294 -1.3158
  111SOL     OW  331   1.921   2.786   1.942  0.2470 -0.0516  0.2637
  111SOL    HW1  332   2.009   2.733   1.938 -1.6021 -1.4397  1.2475
  111SOL    HW2  333   1.896   2.787   2.040  1.3366  1.1856  1.0289
  112SOL     OW  334   1.669   2.241   2.534 -0.6985 -0.7515  0.1095
  112SOL    HW1  335   1.577   2.233   2.491 -2.1093 -0.7004 -1.7348
  112SOL    HW2  336   1.691   2.341   2.556  1.6113  0.0283  1.3027
  113SOL     OW  337   2.135   2.004   2.164  0.3249 -0.4153  0.0469
  113SOL    HW1  338   2.140   1.922   2.214  1.2109  2.5486 -0.4249
  113SOL    HW2  339   2.091   1.976   2.071  0.1263 -1.6004 -1.7029
  114SOL     OW  340   0.141   1.260   1.053  0.1813  0.4151 -0.4377
  114SOL    HW1  341   0.107   1.167   1.023 -0.6924  1.4810 -0.5752
  114SOL    HW2  342   0.064   1.297   1.113 -1.9179  0.9506 -1.8712
  115SOL     OW  343   2.595   0.712   2.679  0.3634 -0.3912  0.2430
  115SOL    HW1  344   2.683   0.740   2.725  0.3870 -0.6531  0.7903
  115SOL    HW2  345   2.603   0.631   2.620  0.9040  1.0011  1.4289
  116SOL     OW  346   2.769   0.448   2.962 -0.1254  0.5528  0.0235
  116SOL    HW1  347   2.714   0.531   2.991 -0.2282  2.7522  0.4652
  116SOL    HW2  348   2.706   0.392   2.905 -0.6878 -0.2415 -0.5681
  117SOL     OW  349   2.505   2.696   0.716  0.0848  0.0223  0.2095
  117SOL    HW1  350   2.510   2.593   0.722 -1.2599 -0.2988  0.0971
  117SOL    HW2  351   2.568   2.729   0.644 -2.0595  1.6405 -0.5416
  118SOL     OW  352   0.890   1.938   2.124 -0.0204 -0.2265  0.3288
  118SOL    HW1  353   0.887   2.015   2.058 -0.2198 -3.4781 -0.7485
  118SOL    HW2  354   0.984   1.894   2.135  2.6794 -1.1504  0.4368
  119SOL     OW  355   0.663   2.808   0.442  0.0710 -0.3574 -0.1881
  119SOL    HW1  356   0.697   2.886   0.386 -0.3376  4.0135  2.0547
  119SOL    HW2  357   0.710   2.718   0.437  1.3249 -0.7698 -1.2366
  120SOL     OW  358   1.333   0.590   0.420 -0.2325 -0.2256  0.1903
  120SOL    HW1  359   1.435   0.574   0.439 -0.3489  1.2711 -0.5141
  120SOL    HW2  360   1.308   0.681   0.464 -0.9608  1.0680  0.2949
  121SOL     OW  361   1.687   0.631   0.742  0.1226  0.1814 -0.1195
  121SOL    HW1  362   1.640   0.672   0.825 -0.7008  1.6117  0.0954
  121SOL    HW2  363   1.766   0.688   0.720  0.4246  1.0833  1.8305
  122SOL     OW  364   1.937   1.387   2.420  0.4840  0.4951 -0.4372
  122SOL    HW1  365   1.923   1.294   2.387  1.2690 -2.1842  0.7360
  122SOL    HW2  366   1.978   1.445   2.348 -2.4062 -0.6268 -2.5092
  123SOL     OW  367   0.910   1.278   1.044  0.9215 -0.1871  0.3111
  123SOL    HW1  368   0.944   1.229   0.964 -1.3165 -0.0942 -0.0877
  123SOL    HW2  369   0.845   1.348   1.016  2.0797 -1.7169 -0.5572
  124SOL     OW  370   0.586   0.319   2.683 -0.2993 -0.2270  0.1440
  124SOL    HW1  371   0.558   0.322   2.782 -0.4258 -2.8788  1.1187
  124SOL    HW2  372   0.688   0.321   2.679 -1.1448  1.0708 -4.2695
  125SOL     OW  373   1.009   3.078   3.105 -0.4214  0.1828  0.4203
  125SOL    HW1  374   1.047   3.116   3.015  3.1040 -1.1099 -1.7735
  125SOL    HW2  375   1.010   0.029   0.060  0.0859 -2.8276  0.0287
  126SOL     OW  376   0.691   1.326   0.078 -0.4821  0.0249 -0.5875
  126SOL    HW1  377   0.722   1.233   0.040 -1.5044 -2.5449 -1.1628
  126SOL    HW2  378   0.703   1.331   0.179  0.6378  1.0124 -0.0862
  127SOL     OW  379   1.204   2.341   1.333 -0.4039 -0.2881  0.1623
  127SOL    HW1  380   1.255   2.397   1.403 -0.0901  2.0152 -0.7134
  127SOL    HW2  381   1.254   2.353   1.246  0.4056  0.9255 -0.6488
  128SOL     OW  382   0.945   1.696   0.169  0.3385 -0.1353 -0.2429
  128SOL    HW1  383   0.929   1.622   0.100  0.2482  0.2929 -0.8327
  128SOL    HW2  384   1.038   1.734   0.156 -1.0960 -2.7311 -4.3256
  129SOL     OW  385   1.987   1.509   2.181  0.0991  0.0349 -0.0789
  129SOL    HW1  386   1.917   1.453   2.135  0.3208 -0.4775 -0.9288
  129SOL    HW2  387   2.077   1.497   2.132 -2.6536 -0.1228 -1.6138
  130SOL     OW  388   2.127   1.659   1.845  0.4707 -0.1344  0.2819
  130SOL    HW1  389   2.180   1.599   1.912  1.6071  0.3273  2.1619
  130SOL    HW2  390   2.099   1.611   1.758 -1.3778 -2.6248  0.3962
  131SOL     OW  391   0.666   2.525   2.115 -0.0771 -0.0475 -0.5858
  131SOL    HW1  392   0.649   2.427   2.135  2.0194 -1.3434 -3.4679
  131SOL    HW2  393   0.647   2.540   2.016  2.7834  0.0997  2.1256
  132SOL     OW  394   2.458   1.603   0.661 -0.1802  0.0618 -0.1878
  132SOL    HW1  395   2.532   1.552   0.708  1.5776  2.1607 -1.4163
  132SOL    HW2  396   2.494   1.658   0.586 -2.2834 -2.7196 -1.1988
  133SOL     OW  397   0.485   1.478   1.952  0.6300 -0.0264  0.9054
  133SOL    HW1  398   0.525   1.549   1.888 -0.7558  1.9250  0.8911
  133SOL    HW2  399   0.411   1.520   2.014  0.0160  1.2910  3.8635
  134SOL     OW  400   3.054   1.549   0.780  0.1655  0.6474  0.2889
  134SOL    HW1  401   0.008   1.475   0.788 -1.5077  1.1322 -1.0557
  134SOL    HW2  402   3.005   1.543   0.691  2.6599  0.2190 -1.9915
  135SOL     OW  403   1.758   1.051   2.966  0.2404  0.0173  0.0899
  135SOL    HW1  404   1.718   1.061   3.061 -1.5038 -2.2112 -0.5817
  135SOL    HW2  405   1.692   0.999   2.905 -1.5387  1.7491 -1.7370
  136SOL     OW  406   3.084   1.506   1.164  0.3477 -0.6329 -0.5269
  136SOL    HW1  407   3.111   1.520   1.266 -1.5309  0.4103 -0.2218
  136SOL    HW2  408   0.005   1.574   1.096 -2.2271  0.2149  0.4624
  137SOL     OW  409   2.213   1.610   0.548  0.2423  0.1084  0.0492
  137SOL    HW1  410   2.154   1.527   0.568 -0.5767 -0.9339 -1.5531
  137SOL    HW2  411   2.307   1.595   0.582 -0.7849 -1.6653 -0.8394
  138SOL     OW  412   2.550   0.621   0.824 -0.5925  0.5583  0.7385
  138SOL    HW1  413   2.502   0.615   0.911  1.4074 -0.4744  0.3518
  138SOL    HW2  414   2.577   0.536   0.778 -2.5167 -0.3423 -1.8936
  139SOL     OW  415   2.739   0.052   2.895  0.0448  0.4442 -0.1968
  139SOL    HW1  416   2.752   0.079   2.992 -0.2244 -2.2879  0.2434
  139SOL    HW2  417   2.734   3.066   2.882 -0.0439 -1.4186 -0.8996
  140SOL     OW  418   0.841   1.422   1.514  0.0348 -0.8204 -0.3187
  140SOL    HW1  419   0.767   1.359   1.496 -1.2743  1.0940 -0.5384
  140SOL    HW2  420   0.803   1.498   1.575 -2.0181  1.0222  0.5684
  141SOL     OW  421   1.175   1.505   0.789  0.1230 -0.0420  0.0165
  141SOL    HW1  422   1.201   1.453   0.869 -0.4905  0.0089 -0.1411
  141SOL    HW2  423   1.110   1.451   0.732 -2.7678 -1.0838 -2.5509
  142SOL     OW  424   1.456   0.673   0.923  0.2158  0.2334  0.0760
  142SOL    HW1  425   1.357   0.669   0.899  1.8498 -0.4561 -0.2355
  142SOL    HW2  426   1.462   0.730   1.009 -0.3827 -3.8459  0.0600
  143SOL     OW  427   0.605   0.589   2.935  0.2360 -0.5171  0.0851
  143SOL    HW1  428   0.548   0.674   2.932 -2.7678 -0.0561  0.8762
  143SOL    HW2  429   0.546   0.510   2.950 -0.1029  0.4318  0.0125
  144SOL     OW  430   2.592   0.198   0.225  0.2331  0.2531  0.0745
  144SOL    HW1  431   2.522   0.268   0.210 -0.6279 -3.1191 -1.1972
  144SOL    HW2  432   2.611   0.185   0.321 -0.0240 -0.8348 -2.8787
  145SOL     OW  433   2.098   0.132   2.540  0.1680  0.2219  0.4506
  145SOL    HW1  434   2.170   0.163   2.602 -1.4306 -1.2670 -1.4719
  145SOL    HW2  435   2.119   0.161   2.446  0.5467 -0.0456  1.2712
  146SOL     OW  436   2.782   3.005   0.367 -0.0595 -0.2519 -0.2049
  146SOL    HW1  437   2.776   2.969   0.272  0.8732  2.3638 -1.5924
  146SOL    HW2  438   2.873   3.050   0.383  1.5435  1.5606 -0.6332
  147SOL     OW  439   1.341   0.850   2.596  0.1665 -0.3921 -0.1114
  147SOL    HW1  440   1.387   0.779   2.650 -2.7337 -0.7972  0.4275
  147SOL    HW2  441   1.334   0.938   2.641 -1.1720  0.6941  0.4600
  148SOL     OW  442   1.004   0.077   0.459 -0.4221  0.4959  0.0662
  148SOL    HW1  443   1.104   0.083   0.473  0.9035 -0.8561  0.7029
  148SOL    HW2  444   0.983   3.114   0.399  1.2906  2.5883  2.8980
  149SOL     OW  445   1.151   0.778   2.302 -0.3660  0.2214  0.1028
  149SOL    HW1  446   1.251   0.752   2.307  3.5521  0.7144 -0.2577
  149SOL    HW2  447   1.140   0.879   2.278 -0.9119  1.5551 -2.6241
  150SOL     OW  448   1.733   0.010   2.927 -0.5767 -0.0935 -0.0020
  150SOL    HW1  449   1.791   0.058   3.000  2.4413 -0.1765  1.1043
  150SOL    HW2  450   1.791   3.046   2.900 -0.1552  0.4006  1.1177
  151SOL     OW  451   0.459   1.437   3.110  0.0516 -0.5293  0.7109
  151SOL    HW1  452   0.376   1.389   0.023 -0.7154  1.8061  0.0662
  151SOL    HW2  453   0.541   1.388   0.020 -0.4774  1.3730 -0.7913
  152SOL     OW  454   0.774   0.451   1.108  0.3210 -0.1076  0.0349
  152SOL    HW1  455   0.675   0.470   1.140 -1.3809  0.8674  1.7486
  152SOL    HW2  456   0.807   0.357   1.133 -0.8231 -0.8745  1.6402
  153SOL     OW  457   2.477   3.066   1.932  0.3833  0.1068  0.3350
  153SOL    HW1  458   2.532   0.013   1.997  1.3522  1.4977  2.3265
  153SOL    HW2  459   2.387   3.048   1.979  0.8620  1.1253  0.4350
  154SOL     OW  460   2.257   2.946   2.060 -0.8381 -0.1334 -0.5567
  154SOL    HW1  461   2.204   2.975   2.148 -1.1260  1.3447  2.8368
  154SOL    HW2  462   2.194   2.939   1.984  0.3119 -1.4283  1.6451
  155SOL     OW  463   3.093   1.240   0.358 -0.0692  0.1627  0.0144
  155SOL    HW1  464   3.114   1.151   0.307  0.6138 -3.2932  1.3988
  155SOL    HW2  465   3.111   1.229   0.462  0.7443 -1.2329  1.8660
  156SOL     OW  466   2.045   1.417   0.595 -0.3580  0.0803 -0.2011
  156SOL    HW1  467   2.001   1.361   0.670 -0.2780  0.6675  1.7156
  156SOL    HW2  468   2.043   1.364   0.511 -2.3234 -1.8669  1.4501
  157SOL     OW  469   0.706   2.943   2.797  0.3371 -0.3391 -0.3611
  157SOL    HW1  470   0.642   2.902   2.863  2.4661 -0.0722  1.3321
  157SOL    HW2  471   0.666   3.004   2.724  0.0410  0.9170  1.2459
  158SOL     OW  472   2.139   1.086   1.342 -0.6552 -0.1753 -0.8731
  158SOL    HW1  473   2.139   1.034   1.430  2.5041 -1.7673  0.6728
  158SOL    HW2  474   2.079   1.168   1.356  2.6141  0.3276  0.5290
  159SOL     OW  475   0.166   0.125   0.180 -0.5879 -0.4564 -0.4892
  159SOL    HW1  476   0.217   0.041   0.148 -0.3108  1.2197  1.5433
  159SOL    HW2  477   0.213   0.163   0.265 -0.2917  1.1862  3.5425
  160SOL     OW  478   2.598   2.112   1.845 -0.2438  0.3334  0.0230
  160SOL    HW1  479   2.660   2.054   1.904  1.7581  2.3949 -0.5133
  160SOL    HW2  480   2.540   2.164   1.906  2.8165 -1.6991 -1.4385
  161SOL     OW  481   0.274   0.673   3.062 -0.6683 -0.0388  0.2201
  161SOL    HW1  482   0.353   0.721   3.016  0.1584 -0.8913 -1.1954
  161SOL    HW2  483   0.214   0.628   2.995 -0.8475  4.0590 -0.0638
  162SOL     OW  484   0.798   0.417   1.646 -0.3247 -0.0877 -0.1799
  162SOL    HW1  485   0.854   0.394   1.565  1.5285  0.9871 -2.1926
  162SOL    HW2  486   0.706   0.452   1.625 -2.7023  2.5174  2.9716
  163SOL     OW  487   2.663   2.955   2.386  0.3202  0.2079  0.6853
  163SOL    HW1  488   2.667   2.879   2.321 -1.0276  1.5309  0.5975
  163SOL    HW2  489   2.604   3.028   2.350  1.4290 -0.7570  1.9816
  164SOL     OW  490   2.253   1.691   0.287  0.4707 -0.0382  0.1194
  164SOL    HW1  491   2.195   1.635   0.222 -0.7756 -0.5531  1.2377
  164SOL    HW2  492   2.235   1.666   0.382 -0.1966 -1.1191 -1.8900
  165SOL     OW  493   0.301   0.032   0.742 -0.2040 -0.0373 -0.1463
  165SOL    HW1  494   0.379   0.069   0.689 -3.5081  0.3761  1.1599
  165SOL    HW2  495   0.332   3.098   0.824 -0.7162  3.3544 -2.2487
  166SOL     OW  496   2.918   0.331   0.043 -0.4281 -0.0944  0.0322
  166SOL    HW1  497   2.869   0.388   3.091  0.4007  0.6162 -2.2324
  166SOL    HW2  498   2.869   0.245   0.055  1.1819  2.1292  0.6578
  167SOL     OW  499   2.244   0.736   0.493 -0.0290 -0.5284  0.1323
  167SOL    HW1  500   2.332   0.767   0.536 -2.2900  1.2123 -0.5816
  167SOL    HW2  501   2.266   0.701   0.400 -0.1033  1.3186  3.6341
  168SOL     OW  502   1.570   0.309   2.289  0.3635  0.0749 -0.2792
  168SOL    HW1  503   1.581   0.375   2.361  0.9953 -1.6960 -2.3906
  168SOL    HW2  504   1.545   0.355   2.198  0.5776  1.8434 -0.7964
  169SOL     OW  505   0.447   1.962   0.884  0.1526  0.1861  0.3541
  169SOL    HW1  506   0.414   1.898   0.956  0.0988 -0.7275 -2.8757
  169SOL    HW2  507   0.454   2.061   0.910 -0.7843  0.4016 -0.7131
  170SOL     OW  508   0.336   0.119   1.328 -0.2873  0.2640  0.2226
  170SOL    HW1  509   0.387   0.178   1.389 -0.3651 -1.2863 -0.1373
  170SOL    HW2  510   0.305   0.041   1.380  1.7123  1.1206 -1.8146
  171SOL     OW  511   2.405   1.415   2.370  0.2237  0.1967  0.0782
  171SOL    HW1  512   2.398   1.376   2.275 -0.1351  0.3713 -2.6619
  171SOL    HW2  513   2.467   1.501   2.365  2.1149  1.6684  0.0586
  172SOL     OW  514   0.904   1.718   1.080 -0.2879  0.3128 -0.5238
  172SOL    HW1  515   0.820   1.701   1.032  1.8235  0.5934  0.2300
  172SOL    HW2  516   0.901   1.688   1.178 -0.2954 -0.6955 -1.7022
  173SOL     OW  517   1.860   2.168   3.019  0.3393  0.4194  0.4944
  173SOL    HW1  518   1.831   2.227   3.098 -1.1614 -0.6397 -0.8278
  173SOL    HW2  519   1.887   2.072   3.043  3.6501 -0.7647 -0.3615
  174SOL     OW  520   1.774   0.632   0.098  0.3634  0.4461 -0.4103
  174SOL    HW1  521   1.866   0.673   0.096  0.2128 -0.8139  2.2942
  174SOL    HW2  522   1.707   0.691   0.052  0.0069 -1.0423 -2.3497
  175SOL     OW  523   0.589   1.712   1.858  0.0607 -0.4137 -0.0303
  175SOL    HW1  524   0.493   1.733   1.834 -1.0167  0.5594 -1.0295
  175SOL    HW2  525   0.626   1.789   1.915 -0.2817  1.7728  0.0699
  176SOL     OW  526   0.738   0.354   0.395  0.4251  0.6041  0.3815
  176SOL    HW1  527   0.831   0.402   0.383  0.1895  1.2992 -0.2052
  176SOL    HW2  528   0.688   0.398   0.472  1.1096 -2.9405  0.3337
  177SOL     OW  529   3.105   1.607   3.066 -0.1613 -0.0896 -0.7258
  177SOL    HW1  530   3.073   1.558   2.982 -1.2912  0.6241  1.2910
  177SOL    HW2  531   3.098   1.538   0.022 -2.1107  1.2243 -0.7223
  178SOL     OW  532   2.953   2.227   2.272 -0.3811  0.3529  0.2837
  178SOL    HW1  533   2.903   2.206   2.184 -1.0558 -0.8490  0.0194
  178SOL    HW2  534   3.009   2.146   2.298  3.1767  0.9297 -2.2321
  179SOL     OW  535   2.276   0.114   2.782  0.5482  0.4895  0.4937
  179SOL    HW1  536   2.333   0.198   2.807  2.6175 -0.6738 -1.3511
  179SOL    HW2  537   2.199   0.101   2.851 -1.9155  1.8921  1.8164
  180SOL     OW  538   2.418   0.310   1.052 -0.1472  0.1780 -0.0483
  180SOL    HW1  539   2.349   0.321   0.980 -0.9472 -0.7456  0.9572
  180SOL    HW2  540   2.428   0.404   1.095 -0.9297 -2.3256 -0.6985
  181SOL     OW  541   2.882   0.000   2.499 -0.5508  0.3471  0.2463
  181SOL    HW1  542   2.942   0.017   2.414 -0.9744  1.8902 -0.7376
  181SOL    HW2  543   2.818   3.039   2.482 -1.0084 -0.9711  1.9099
  182SOL     OW  544   2.274   2.386   2.333  0.0402 -0.3834  0.0649
  182SOL    HW1  545   2.346   2.392   2.406  0.5289  0.9724  1.2595
  182SOL    HW2  546   2.302   2.309   2.269  1.4028 -0.7272 -0.6184
  183SOL     OW  547   2.679   1.069   1.555  0.5717  0.5241 -0.6777
  183SOL    HW1  548   2.761   1.111   1.599  0.5362  1.3853  0.0683
  183SOL    HW2  549   2.605   1.137   1.541  0.0389  0.9317  1.7030
  184SOL     OW  550   2.834   1.634   0.927 -0.2715 -0.7315 -0.3523
  184SOL    HW1  551   2.817   1.617   1.028  0.2006 -1.3855 -1.3729
  184SOL    HW2  552   2.926   1.596   0.894 -0.6585 -0.9251  0.0727
  185SOL     OW  553   0.153   2.861   0.963 -0.6478  0.7427  0.2822
  185SOL    HW1  554   0.077   2.847   0.900 -0.2335 -1.4795  2.6815
  185SOL    HW2  555   0.249   2.874   0.918  2.3601 -0.9322 -1.3676
  186SOL     OW  556   2.333   2.629   2.164 -0.2006  0.1818  0.7283
  186SOL    HW1  557   2.286   2.691   2.229  0.2407  1.0695 -2.9835
  186SOL    HW2  558   2.325   2.531   2.193  2.6803  0.1946  1.3495
  187SOL     OW  559   0.252   1.442   0.489 -0.3042  0.2502  0.1020
  187SOL    HW1  560   0.175   1.495   0.459 -0.6532  0.9617  1.5252
  187SOL    HW2  561   0.283   1.480   0.577  0.4271  1.5217 -0.7416
  188SOL     OW  562   1.633   1.961   0.435 -0.1007 -0.0602  0.2069
  188SOL    HW1  563   1.663   1.886   0.498 -2.1912 -1.5948  1.3484
  188SOL    HW2  564   1.572   2.021   0.484  2.0861 -0.3102 -1.5605
  189SOL     OW  565   3.015   1.469   2.849  0.1589  0.1485 -0.1475
  189SOL    HW1  566   2.985   1.382   2.894 -0.9994  3.8219 -0.6448
  189SOL    HW2  567   2.963   1.496   2.767 -1.5517  1.6797  2.4466
  190SOL     OW  568   2.341   0.747   2.621  0.2339 -0.4454 -0.5341
  190SOL    HW1  569   2.329   0.815   2.547  1.4885  3.2790  0.9327
  190SOL    HW2  570   2.438   0.719   2.623 -2.1243  0.8360 -1.7415
  191SOL     OW  571   0.785   1.062   2.064  0.0045 -0.2680 -0.5566
  191SOL    HW1  572   0.796   1.055   1.964 -1.1243 -0.2549 -0.8416
  191SOL    HW2  573   0.741   1.153   2.080  2.1811 -0.0944 -1.2040
  192SOL     OW  574   1.836   1.289   2.070 -0.6043  0.0906 -0.0323
  192SOL    HW1  575   1.758   1.224   2.051 -1.7064 -1.4349 -2.2700
  192SOL    HW2  576   1.916   1.258   2.022  0.8354 -1.5770 -0.1215
  193SOL     OW  577   1.230   2.687   1.312 -0.4019 -0.1809 -0.0811
  193SOL    HW1  578   1.291   2.641   1.246 -1.4916  0.0140 -3.0318
  193SOL    HW2  579   1.163   2.743   1.254 -1.5408 -0.9268 -2.1965
  194SOL     OW  580   1.415   1.304   1.873 -0.1703  0.0517 -0.4227
  194SOL    HW1  581   1.465   1.276   1.788 -0.2030 -0.0753 -1.2942
  194SOL    HW2  582   1.380   1.399   1.869 -0.6278  2.5368 -0.9675
  195SOL     OW  583   1.815   0.230   0.821 -0.1383  0.0262  0.0805
  195SOL    HW1  584   1.719   0.237   0.857  1.0523 -0.9138  3.2978
  195SOL    HW2  585   1.867   0.305   0.865 -2.6341  0.7777  3.0672
  196SOL     OW  586   0.931   1.317   2.251 -0.3302  0.1858  0.2344
  196SOL    HW1  587   0.850   1.315   2.189 -0.2918  1.9536 -1.1199
  196SOL    HW2  588   0.942   1.233   2.303 -0.7705  0.9386 -0.9582
  197SOL     OW  589   0.406   0.185   2.285 -0.1674  0.0030  0.2912
  197SOL    HW1  590   0.411   0.191   2.389 -2.3144  1.0157  1.2987
  197SOL    HW2  591   0.422   0.086   2.259  0.4612 -1.0778  1.3549
  198SOL     OW  592   2.980   1.264   1.191  0.0890 -0.1340  0.7080
  198SOL    HW1  593   3.004   1.361   1.172  1.1345  1.8074 -0.4585
  198SOL    HW2  594   2.879   1.252   1.190 -0.0321  1.4281 -1.1341
  199SOL     OW  595   0.459   2.188   1.333 -0.1729 -0.0357  0.2316
  199SOL    HW1  596   0.357   2.183   1.356 -0.3200  0.2379  1.5354
  199SOL    HW2  597   0.482   2.281   1.298 -0.1100  1.3095  0.5088
  200SOL     OW  598   2.648   1.913   2.732 -0.5647 -0.2541  0.6438
  200SOL    HW1  599   2.721   1.939   2.803 -0.5727  1.1509  0.5389
  200SOL    HW2  600   2.606   1.823   2.759 -0.1589  0.0377  0.3934
  201SOL     OW  601   0.734   1.880   1.333 -0.1775 -0.1561  0.7997
  201SOL    HW1  602   0.786   1.943   1.388 -0.1180 -1.6848 -0.3424
  201SOL    HW2  603   0.809   1.815   1.292  1.0316 -2.1247 -1.5026
  202SOL     OW  604   0.871   2.355   0.139 -0.3882 -0.2262 -0.1447
  202SOL    HW1  605   0.934   2.387   0.211  2.0398  0.6988 -2.6495
  202SOL    HW2  606   0.912   2.267   0.100  0.1529 -1.7329  0.8189
  203SOL     OW  607   1.850   0.306   2.446 -0.2386  0.4272 -0.1536
  203SOL    HW1  608   1.916   0.265   2.382  1.1195  0.9611  1.6800
  203SOL    HW2  609   1.765   0.248   2.439 -0.0580 -0.6482  1.9824
  204SOL     OW  610   0.199   1.351   1.740  0.1833  0.2903  0.1918
  204SOL    HW1  611   0.191   1.443   1.793 -1.0551  5.2108  0.7303
  204SOL    HW2  612   0.247   1.277   1.789 -0.7280 -0.3607 -0.4512
  205SOL     OW  613   2.267   1.453   2.591 -0.2769 -0.5596  0.3898
  205SOL    HW1  614   2.308   1.444   2.498  0.6137  3.7092  0.3999
  205SOL    HW2  615   2.210   1.538   2.591 -0.4426 -1.3954 -0.5947
  206SOL     OW  616   0.308   2.113   2.694  0.2413 -0.9109  0.0407
  206SOL    HW1  617   0.258   2.026   2.675 -3.0279 -0.8646  0.4350
  206SOL    HW2  618   0.239   2.184   2.721 -2.0212  0.1724 -0.4800
  207SOL     OW  619   0.515   2.959   1.648  0.2511  0.8681 -0.8261
  207SOL    HW1  620   0.421   2.991   1.617  0.8542 -0.4186  1.3090
  207SOL    HW2  621   0.538   2.873   1.597 -2.3632  0.8333 -2.0596
  208SOL     OW  622   0.369   2.502   1.519 -0.7694 -0.4574  0.7174
  208SOL    HW1  623   0.328   2.504   1.427 -0.5401 -0.3537 -2.6963
  208SOL    HW2  624   0.305   2.481   1.592  3.3315  1.5670  1.3610
  209SOL     OW  625   1.142   2.596   2.605 -0.0623  0.3299 -0.1667
  209SOL    HW1  626   1.157   2.494   2.607  2.3731 -0.8952 -0.3483
  209SOL    HW2  627   1.113   2.640   2.696 -0.9981  1.5594  1.7101
  210SOL     OW  628   2.741   1.337   2.218  0.6904  0.0135 -0.5352
  210SOL    HW1  629   2.816   1.337   2.292 -0.5414 -2.7096  1.9907
  210SOL    HW2  630   2.657   1.390   2.249 -3.9774  1.3597  0.8165
  211SOL     OW  631   1.247   2.897   1.976  0.7291  0.0077  0.8502
  211SOL    HW1  632   1.327   2.896   2.038 -1.9514  1.8615  0.6568
  211SOL    HW2  633   1.189   2.978   1.997 -1.0179  1.5405  3.0160
  212SOL     OW  634   1.477   2.551   1.822 -0.2779 -0.0556  0.3549
  212SOL    HW1  635   1.570   2.571   1.852  0.1606 -1.6322 -1.2816
  212SOL    HW2  636   1.473   2.561   1.723 -0.9599 -1.0730  1.4706
  213SOL     OW  637   2.531   0.637   1.766 -0.5554  0.4183 -0.1808
  213SOL    HW1  638   2.484   0.622   1.677  0.2116  2.0686 -1.2143
  213SOL    HW2  639   2.581   0.721   1.760  0.0302 -0.7279 -2.8504
  214SOL     OW  640   0.839   2.475   1.117 -0.4022 -0.4257 -0.1072
  214SOL    HW1  641   0.781   2.395   1.138 -0.7036  0.0134  2.8833
  214SOL    HW2  642   0.786   2.563   1.134  0.1731  1.8699 -1.0711
  215SOL     OW  643   2.451   2.152   0.733  0.0025 -0.2225  0.2960
  215SOL    HW1  644   2.534   2.168   0.784 -1.7804  0.3904 -3.6446
  215SOL    HW2  645   2.457   2.097   0.645 -0.5996  3.5259  0.8736
  216SOL     OW  646   0.161   0.821   1.505 -0.3461 -0.3529 -0.4578
  216SOL    HW1  647   0.162   0.723   1.472 -0.3615 -1.3169 -0.7272
  216SOL    HW2  648   0.086   0.871   1.458 -1.3843 -1.1840 -0.4968
  217SOL     OW  649   2.279   0.378   1.382  0.0821  0.3434  0.4185
  217SOL    HW1  650   2.310   0.287   1.348 -0.6952  0.3489 -2.0783
  217SOL    HW2  651   2.210   0.417   1.317  0.2087 -1.2996  0.3007
  218SOL     OW  652   1.791   2.206   1.196  0.5680  0.1828 -0.3840
  218SOL    HW1  653   1.830   2.270   1.126  0.9352 -0.9753  0.7389
  218SOL    HW2  654   1.714   2.254   1.256 -1.5386  0.7994 -0.0193
  219SOL     OW  655   1.534   2.327   0.033  0.0954  0.1724  0.0461
  219SOL    HW1  656   1.609   2.390   0.012  0.6237 -0.4189 -0.6812
  219SOL    HW2  657   1.490   2.349   0.122  1.3652 -1.0998 -0.2154
  220SOL     OW  658   1.525   2.519   2.899 -0.8091 -0.0764  0.1345
  220SOL    HW1  659   1.507   2.419   2.917 -0.7970 -2.3416  2.5476
  220SOL    HW2  660   1.623   2.526   2.902 -0.8453 -3.8543 -0.9692
  221SOL     OW  661   0.233   2.461   1.745 -0.1882 -0.1269 -0.1398
  221SOL    HW1  662   0.265   2.527   1.816  0.3116  0.2913 -2.7784
  221SOL    HW2  663   0.170   2.397   1.783  0.2617  0.6547 -1.3098
  222SOL     OW  664   1.951   2.441   1.046  0.0371  0.0200  0.0373
  222SOL    HW1  665   1.923   2.538   1.066 -3.1904  0.9027 -0.3370
  222SOL    HW2  666   2.006   2.438   0.959 -0.8337  0.2525  0.0652
  223SOL     OW  667   0.942   2.344   1.862 -0.3286 -0.3561 -0.1172
  223SOL    HW1  668   0.890   2.389   1.787 -0.6011 -0.1530 -1.0588
  223SOL    HW2  669   0.972   2.409   1.935  1.5326 -1.0272  0.1171
  224SOL     OW  670   2.809   2.389   1.398  0.3046 -0.2926 -0.2614
  224SOL    HW1  671   2.913   2.388   1.426  3.3971  1.2898 -3.8497
  224SOL    HW2  672   2.752   2.346   1.472 -1.0012  0.6727  1.5442
  225SOL     OW  673   2.252   2.323   0.638  0.4738  0.4132 -0.0317
  225SOL    HW1  674   2.322   2.262   0.685 -0.4355 -1.8085 -0.5393
  225SOL    HW2  675   2.203   2.264   0.571 -0.2431  0.5735  0.6219
  226SOL     OW  676   1.327   2.565   0.644  0.0891 -0.1170  0.2788
  226SOL    HW1  677   1.259   2.592   0.712 -0.4127  0.6820  1.7280
  226SOL    HW2  678   1.397   2.510   0.694 -1.5750 -0.9117  0.3682
  227SOL     OW  679   2.083   1.139   0.937 -0.1258 -0.2494  0.3308
  227SOL    HW1  680   2.062   1.084   1.020 -0.1046  3.8698 -1.6080
  227SOL    HW2  681   2.157   1.210   0.962  1.8673  1.9900  0.0705
  228SOL     OW  682   1.542   0.486   2.496  0.1940 -0.3123 -0.7116
  228SOL    HW1  683   1.591   0.479   2.585 -1.4871 -3.1334 -0.8134
  228SOL    HW2  684   1.530   0.585   2.470 -0.8838  0.8490 -1.6908
  229SOL     OW  685   2.972   1.218   2.969  0.7710  0.0730 -0.1352
  229SOL    HW1  686   2.964   1.145   3.039  0.1202 -0.7436  0.7012
  229SOL    HW2  687   2.951   1.180   2.876 -3.2094 -1.0052  0.6446
  230SOL     OW  688   0.497   1.437   0.932 -0.3366 -0.1266 -0.1560
  230SOL    HW1  689   0.438   1.410   1.014  0.2966  0.6476  0.9875
  230SOL    HW2  690   0.531   1.353   0.880  0.4269 -0.5437 -0.3624
  231SOL     OW  691   2.392   3.020   2.675  0.3893  0.3715 -0.6143
  231SOL    HW1  692   2.336   3.094   2.726 -1.1638  1.8592 -1.5626
  231SOL    HW2  693   2.374   3.024   2.575  1.8947 -0.3402 -0.5111
  232SOL     OW  694   0.252   2.342   0.124 -0.1299 -0.5640  0.5672
  232SOL    HW1  695   0.311   2.273   0.086  0.1255 -0.8446 -0.9289
  232SOL    HW2  696   0.157   2.333   0.086  3.0999 -0.1528  1.1829
  233SOL     OW  697   1.472   2.299   2.193  0.3169  0.1193  0.1579
  233SOL    HW1  698   1.440   2.388   2.142 -0.7089  2.0626 -0.7710
  233SOL    HW2  699   1.577   2.293   2.185 -0.5699 -2.2122 -0.3686
  234SOL     OW  700   1.310   1.442   1.589 -0.0885  0.2130  0.4222
  234SOL    HW1  701   1.312   1.466   1.686  0.3682 -0.3490 -1.2429
  234SOL    HW2  702   1.406   1.437   1.557  2.0363 -0.6625  2.2995
  235SOL     OW  703   1.208   1.767   1.885 -0.1464  0.2696  0.4383
  235SOL    HW1  704   1.250   1.843   1.834 -2.1118 -1.0797 -0.9012
  235SOL    HW2  705   1.105   1.760   1.864 -1.4651  1.7924 -0.5076
  236SOL     OW  706   1.428   3.046   2.859 -0.0654  0.4816  0.0784
  236SOL    HW1  707   1.518   3.079   2.891 -0.8134  0.6858 -1.9740
  236SOL    HW2  708   1.424   2.938   2.861 -1.0136  0.0905  0.7532
  237SOL     OW  709   1.238   0.203   1.366  0.1537 -0.1320  0.0456
  237SOL    HW1  710   1.211   0.110   1.386 -0.3860 -1.9306  0.7891
  237SOL    HW2  711   1.320   0.236   1.411  1.2604  2.2539  1.1060
  238SOL     OW  712   1.323   0.556   3.042  0.6638  0.4465  0.5368
  238SOL    HW1  713   1.326   0.651   3.070 -1.7680 -0.9253  0.1299
  238SOL    HW2  714   1.247   0.511   3.097 -0.2943 -0.2614  1.2502
  239SOL     OW  715   2.823   0.802   2.784 -0.0698  0.2440 -0.1356
  239SOL    HW1  716   2.815   0.903   2.784 -1.0575 -2.5015  0.9964
  239SOL    HW2  717   2.881   0.763   2.857  0.8431  1.0480 -0.8028
  240SOL     OW  718   2.484   2.436   0.792  0.2474  0.1265  0.2932
  240SOL    HW1  719   2.510   2.341   0.809  0.6574  0.8150 -0.9439
  240SOL    HW2  720   2.400   2.439   0.732 -0.1734 -0.9027 -3.8955
  241SOL     OW  721   1.146   1.256   1.190 -0.0933 -0.1341  0.3902
  241SOL    HW1  722   1.130   1.282   1.288 -0.2296  0.6193 -0.2781
  241SOL    HW2  723   1.065   1.269   1.128 -2.6404  2.0703 -1.0945
  242SOL     OW  724   0.587   0.630   0.864 -0.3826  0.3449 -1.0293
  242SOL    HW1  725   0.583   0.733   0.847 -0.9511  1.5857  2.1101
  242SOL    HW2  726   0.680   0.590   0.869  1.9465  2.7846 -0.9768
  243SOL     OW  727   0.178   0.437   1.110  0.1340  0.3041 -0.1233
  243SOL    HW1  728   0.136   0.519   1.157  0.2036  0.8142 -0.6112
  243SOL    HW2  729   0.273   0.457   1.072  0.5433  2.8878 -1.8058
  244SOL     OW  730   1.038   0.210   0.185 -0.5757 -0.0197  0.0036
  244SOL    HW1  731   1.036   0.169   0.281 -0.9119 -2.2471  2.8638
  244SOL    HW2  732   1.132   0.199   0.146 -1.0240 -1.2111 -0.3521
  245SOL     OW  733   1.996   0.795   0.364 -0.0707 -0.0360  0.0359
  245SOL    HW1  734   2.022   0.777   0.264  0.0180 -1.5014  1.0094
  245SOL    HW2  735   2.072   0.766   0.426  0.5572  2.0247  0.8388
  246SOL     OW  736   0.319   0.616   1.720 -0.2285 -0.2127  0.4562
  246SOL    HW1  737   0.328   0.715   1.700  0.6697 -0.2400  2.3022
  246SOL    HW2  738   0.232   0.598   1.772 -2.4395  0.1239  1.9101
  247SOL     OW  739   0.743   0.127   1.909  0.0260  0.1362  0.0673
  247SOL    HW1  740   0.755   0.056   1.981  0.4094 -0.4091 -1.9639
  247SOL    HW2  741   0.814   0.132   1.832  1.2861  2.0777 -4.1376
  248SOL     OW  742   0.667   1.534   2.292 -0.4372 -0.0565  0.3556
  248SOL    HW1  743   0.737   1.599   2.329 -0.7388 -1.1091 -0.0351
  248SOL    HW2  744   0.629   1.569   2.205  2.0666 -2.2319 -0.8502
  249SOL     OW  745   0.615   2.803   0.023  0.4842 -0.1262  0.5530
  249SOL    HW1  746   0.578   2.803   3.044 -0.0069  1.4326 -2.3521
  249SOL    HW2  747   0.593   2.723   0.080  0.1388  0.0259  0.3684
  250SOL     OW  748   0.663   0.219   2.217  0.1792 -0.1102 -0.3949
  250SOL    HW1  749   0.562   0.230   2.221  0.5200  0.0980 -1.0635
  250SOL    HW2  750   0.698   0.143   2.162 -0.8553  0.2874  1.6922
  251SOL     OW  751   3.041   1.826   1.260 -0.2320 -0.2971  0.1266
  251SOL    HW1  752   3.057   1.843   1.159 -1.0122 -2.6380  0.5000
  251SOL    HW2  753   2.962   1.765   1.272 -1.5765  1.3052 -1.3923
  252SOL     OW  754   1.924   0.048   1.803  1.1297  0.0510 -0.0372
  252SOL    HW1  755   1.892   0.112   1.875  0.8430  2.6165  0.9127
  252SOL    HW2  756   1.880   3.074   1.806  1.6197 -2.0001  1.6695
  253SOL     OW  757   2.117   1.674   2.580  0.5374 -0.4580 -0.1164
  253SOL    HW1  758   2.022   1.643   2.603  0.6222  3.0064  0.6531
  253SOL    HW2  759   2.164   1.727   2.658 -0.4503  0.6442  1.3511
  254SOL     OW  760   0.765   1.649   1.646  0.3264  0.2194 -0.5404
  254SOL    HW1  761   0.843   1.711   1.643  0.5575 -1.8275 -2.1258
  254SOL    HW2  762   0.708   1.662   1.730  0.2537  1.3628  0.8702
  255SOL     OW  763   0.638   0.109   1.596 -0.1703 -0.3117  0.1952
  255SOL    HW1  764   0.736   0.100   1.623  0.3317 -2.2337 -1.8543
  255SOL    HW2  765   0.592   0.021   1.610  0.7222  1.0312 -0.0273
  256SOL     OW  766   0.041   2.401   0.717  0.3151 -0.0751  0.2129
  256SOL    HW1  767   3.063   2.365   0.734  0.1202 -2.1855 -0.1635
  256SOL    HW2  768   0.068   2.450   0.800  3.2117 -3.2169 -0.9358
  257SOL     OW  769   0.587   2.641   2.331 -0.1221  0.1097 -0.7389
  257SOL    HW1  770   0.624   2.592   2.250 -0.3611  0.8404 -0.0967
  257SOL    HW2  771   0.559   2.579   2.406 -0.4501  1.0906  1.7365
  258SOL     OW  772   1.352   1.384   2.157  0.7463 -0.1206 -0.0977
  258SOL    HW1  773   1.409   1.387   2.075  1.6943  1.6855 -0.6142
  258SOL    HW2  774   1.257   1.398   2.120 -0.7369  0.8056 -1.2566
  259SOL     OW  775   1.151   1.201   1.967 -0.1251  0.6217  0.8597
  259SOL    HW1  776   1.085   1.247   1.905 -0.8565  1.3790 -3.5086
  259SOL    HW2  777   1.242   1.206   1.918 -0.0515  0.4631  1.0444
  260SOL     OW  778   2.099   0.660   2.368 -0.2379  0.4808  0.1543
  260SOL    HW1  779   2.157   0.593   2.322  0.1413 -0.5495 -1.4757
  260SOL    HW2  780   2.001   0.629   2.373 -1.3346 -0.5904  1.6608
  261SOL     OW  781   0.771   1.325   0.770  0.3648 -0.3973 -0.4233
  261SOL    HW1  782   0.689   1.265   0.745 -4.9173  1.2329 -1.4509
  261SOL    HW2  783   0.854   1.311   0.706  1.4918 -0.1199 -4.1686
  262SOL     OW  784   2.078   2.054   2.496 -0.2344 -0.1031  0.3240
  262SOL    HW1  785   2.084   2.090   2.397  1.6765 -1.8231 -2.9332
  262SOL    HW2  786   2.119   2.113   2.568 -1.5585 -1.0357 -0.6793
  263SOL     OW  787   1.069   2.409   0.996  0.1698 -0.6418 -0.5465
  263SOL    HW1  788   0.994   2.449   1.051 -0.5990  0.6044  0.8966
  263SOL    HW2  789   1.104   2.323   1.043 -1.5698  0.2820  0.5006
  264SOL     OW  790   3.082   2.344   0.360 -0.2755  0.4711  0.6119
  264SOL    HW1  791   0.016   2.285   0.425  0.7635  3.7091 -1.6657
  264SOL    HW2  792   0.012   2.433   0.338  0.3823 -0.5605 -0.2143
  265SOL     OW  793   1.432   1.323   2.855 -0.0680  0.0848 -0.2724
  265SOL    HW1  794   1.406   1.225   2.869 -4.0550  0.1361 -1.2866
  265SOL    HW2  795   1.345   1.375   2.865 -0.2147 -2.3181 -1.6130
  266SOL     OW  796   1.178   1.871   2.141 -0.1305 -0.5213  0.0224
  266SOL    HW1  797   1.171   1.973   2.121 -0.4688 -1.6714  0.6110
  266SOL    HW2  798   1.193   1.815   2.060 -0.1913  0.2378  1.0819
  267SOL     OW  799   2.402   1.143   2.730  0.0808  0.5174  0.1518
  267SOL    HW1  800   2.479   1.177   2.787  0.0734  0.6596 -0.4014
  267SOL    HW2  801   2.330   1.214   2.716  0.7008  1.4282 -0.5921
  268SOL     OW  802   1.097   1.305   3.075 -0.2178 -0.3896 -0.5387
  268SOL    HW1  803   1.177   1.360   3.097 -3.4237 -0.1944  0.9966
  268SOL    HW2  804   1.092   1.280   2.977 -0.8617 -0.9957 -2.0249
  269SOL     OW  805   2.951   1.841   2.251 -0.2931  0.0765 -0.0426
  269SOL    HW1  806   2.861   1.848   2.292  3.6676 -0.4281 -0.4488
  269SOL    HW2  807   3.002   1.756   2.286 -2.1439  1.4319  0.2074
  270SOL     OW  808   0.462   2.247   3.058  0.0533  1.0161 -0.9514
  270SOL    HW1  809   0.487   2.184   2.982 -0.3963 -1.1344  1.5254
  270SOL    HW2  810   0.429   2.336   3.034 -1.9794 -3.9059  0.0026
  271SOL     OW  811   0.222   0.445   0.261  0.3423  0.5811  0.4033
  271SOL    HW1  812   0.227   0.359   0.322 -0.0289  0.6268  1.5368
  271SOL    HW2  813   0.174   0.423   0.172  1.6755 -0.4412 -0.0843
  272SOL     OW  814   3.039   3.082   0.383 -0.1891 -0.0457  0.4098
  272SOL    HW1  815   0.001   3.077   0.454 -0.3742  0.5534 -0.6719
  272SOL    HW2  816   3.011   0.070   0.380  0.4495  3.3224 -2.4399
  273SOL     OW  817   0.174   3.045   1.728 -0.4184  0.3325 -0.4777
  273SOL    HW1  818   0.239   3.032   1.809  2.8603  2.6114  1.5642
  273SOL    HW2  819   0.146   0.030   1.722  0.8842  0.9216 -1.1604
  274SOL     OW  820   0.058   0.669   1.223  0.2372 -0.3610 -0.3397
  274SOL    HW1  821   3.074   0.658   1.204  0.1701  1.1602 -1.5082
  274SOL    HW2  822   0.073   0.660   1.326  0.8464 -1.8379 -0.3698
  275SOL     OW  823   0.651   1.653   0.948  0.0927 -0.2513 -0.1194
  275SOL    HW1  824   0.708   1.650   0.863  1.2260 -2.5617  1.1220
  275SOL    HW2  825   0.601   1.566   0.946 -2.1400 -0.3190  0.3316
  276SOL     OW  826   0.361   1.157   1.839 -0.0764  0.0633 -0.3517
  276SOL    HW1  827   0.385   1.149   1.939  0.5319 -0.3409  0.8538
  276SOL    HW2  828   0.447   1.131   1.789  2.3633  0.4900 -0.6113
  277SOL     OW  829   1.353   1.972   1.765  0.6242 -0.7316 -0.3613
  277SOL    HW1  830   1.421   1.951   1.836  1.6053  0.1950  0.4893
  277SOL    HW2  831   1.338   2.071   1.753  1.2168  1.2818 -1.5291
  278SOL     OW  832   2.514   2.755   2.018 -0.2312  0.5893 -0.3713
  278SOL    HW1  833   2.478   2.844   1.987  1.2996  1.0013 -1.2309
  278SOL    HW2  834   2.443   2.704   2.077  1.1029 -1.0298 -1.8660
  279SOL     OW  835   1.415   1.809   2.925  0.4307 -0.4900 -0.0403
  279SOL    HW1  836   1.483   1.740   2.959 -0.3563 -1.1051  0.0321
  279SOL    HW2  837   1.395   1.868   3.008 -1.5089 -0.8573  1.3797
  280SOL     OW  838   1.365   0.342   0.296  0.1804 -0.1128 -0.6275
  280SOL    HW1  839   1.386   0.330   0.396 -3.5304 -0.8834  0.2159
  280SOL    HW2  840   1.359   0.442   0.282 -3.0708 -0.1139 -0.9978
  281SOL     OW  841   0.550   0.498   1.254 -0.5967 -0.5640 -0.2409
  281SOL    HW1  842   0.509   0.582   1.293  1.2947  2.2551 -0.0338
  281SOL    HW2  843   0.545   0.418   1.319  0.7600 -1.7608  2.3287
  282SOL     OW  844   3.107   2.647   0.558 -0.0893 -0.1433 -0.4391
  282SOL    HW1  845   0.014   2.554   0.596  0.9799  0.4211  0.2972
  282SOL    HW2  846   0.070   2.689   0.515 -1.8162 -1.6805 -0.5856
  283SOL     OW  847   1.444   1.870   1.528  0.1845  0.2635 -0.2686
  283SOL    HW1  848   1.377   1.874   1.454  0.0009 -0.7921  2.1948
  283SOL    HW2  849   1.404   1.897   1.621 -2.5789  0.9935  4.2670
  284SOL     OW  850   2.736   2.735   1.537 -0.0386 -0.0498 -0.2810
  284SOL    HW1  851   2.785   2.823   1.510  0.6636  2.6170 -4.4384
  284SOL    HW2  852   2.707   2.685   1.456  1.7984 -1.7964  2.8605
  285SOL     OW  853   0.537   2.517   0.607 -0.2670  0.3980  0.0202
  285SOL    HW1  854   0.621   2.478   0.579 -1.6318  3.7941  0.0140
  285SOL    HW2  855   0.454   2.457   0.593  0.7543 -1.0508  1.2504
  286SOL     OW  856   0.500   2.855   1.279 -0.2038  0.2314 -0.3705
  286SOL    HW1  857   0.524   2.930   1.213  1.9855 -0.3260 -1.1733
  286SOL    HW2  858   0.401   2.828   1.271  0.5905 -0.8774 -1.7928
  287SOL     OW  859   0.526   1.215   0.726 -0.0869  0.0283 -0.0041
  287SOL    HW1  860   0.529   1.241   0.628  0.0650  0.5358  1.6740
  287SOL    HW2  861   0.448   1.151   0.738 -2.8256 -0.8999  2.8201
  288SOL     OW  862   1.352   1.973   2.452 -0.4194 -0.0593 -0.0447
  288SOL    HW1  863   1.388   1.929   2.535  3.2894 -0.7040 -1.5523
  288SOL    HW2  864   1.398   1.940   2.368 -0.9864  0.6268 -1.0038
  289SOL     OW  865   2.435   1.602   0.126 -0.2386  0.1495 -0.0578
  289SOL    HW1  866   2.347   1.631   0.176 -1.2452 -2.5560 -0.9480
  289SOL    HW2  867   2.501   1.570   0.197  1.7429  4.6310  1.0227
  290SOL     OW  868   1.321   1.319   0.981 -0.6520 -0.0733  0.4411
  290SOL    HW1  869   1.393   1.366   1.034 -0.6509 -2.5195 -0.0679
  290SOL    HW2  870   1.251   1.289   1.049 -1.5438 -1.8256  2.4511
  291SOL     OW  871   1.371   1.076   2.880 -0.4754  0.3010 -0.4883
  291SOL    HW1  872   1.302   1.033   2.945 -0.0571  1.3620  0.0492
  291SOL    HW2  873   1.434   1.005   2.844 -1.9755  3.5392 -0.3765
  292SOL     OW  874   1.278   1.762   0.439 -0.7491  1.0091  0.2066
  292SOL    HW1  875   1.263   1.843   0.494 -0.8298 -0.2482 -1.4323
  292SOL    HW2  876   1.301   1.683   0.502 -1.2274  1.3086  1.7740
  293SOL     OW  877   1.548   0.030   1.312 -0.1159 -0.3642 -0.5897
  293SOL    HW1  878   1.648   0.008   1.315 -0.8774  1.0867  1.2275
  293SOL    HW2  879   1.496   3.106   1.389 -2.0652 -1.7350  1.4618
  294SOL     OW  880   2.000   0.976   3.028  0.0044 -0.0595  0.0386
  294SOL    HW1  881   1.909   1.014   3.006  2.8516 -1.1819 -0.2118
  294SOL    HW2  882   2.066   1.053   3.045 -0.4292 -0.3379  0.8406
  295SOL     OW  883   1.836   1.850   2.931  0.1054 -1.0062 -0.0101
  295SOL    HW1  884   1.837   1.816   3.029 -1.9395 -1.3868 -1.8970
  295SOL    HW2  885   1.745   1.837   2.887 -0.6669  0.1836 -0.4403
  296SOL     OW  886   1.790   1.318   1.272 -0.8762 -0.1483 -0.1169
  296SOL    HW1  887   1.805   1.347   1.177  0.6809 -0.5650 -0.1323
  296SOL    HW2  888   1.719   1.246   1.276  1.4230 -1.4829  2.4858
  297SOL     OW  889   0.200   0.787   2.322 -0.1117  0.5436  0.1880
  297SOL    HW1  890   0.238   0.694   2.313 -1.8893  2.4883 -2.4414
  297SOL    HW2  891   0.107   0.788   2.368 -0.8322 -1.8173  1.2223
  298SOL     OW  892   1.523   2.117   1.459 -0.4302  0.1038  0.2395
  298SOL    HW1  893   1.493   2.026   1.490 -1.5728  1.8020 -2.1729
  298SOL    HW2  894   1.544   2.181   1.537 -0.8782  0.9098  2.3978
  299SOL     OW  895   1.081   0.365   2.431  0.2698  0.5939  0.0596
  299SOL    HW1  896   1.178   0.339   2.411  1.9501  3.5786 -0.8629
  299SOL    HW2  897   1.016   0.283   2.435 -2.7678 -0.7689  1.1065
  300SOL     OW  898   2.482   2.010   0.498  0.4426 -0.2117 -0.2191
  300SOL    HW1  899   2.539   2.079   0.449 -5.2124  1.2079  1.4850
  300SOL    HW2  900   2.389   2.004   0.453  1.1707 -0.1607  0.1491
  301SOL     OW  901   2.246   0.459   2.594  0.0612 -0.6484  0.1300
  301SOL    HW1  902   2.259   0.558   2.580  1.3758 -0.1922 -0.9417
  301SOL    HW2  903   2.305   0.417   2.665  0.8200  0.7701 -0.0912
  302SOL     OW  904   2.404   2.064   2.694 -0.6857 -0.1310  0.0805
  302SOL    HW1  905   2.490   2.013   2.711  2.8739  0.3547  0.0728
  302SOL    HW2  906   2.430   2.163   2.671 -2.1368  1.2763  0.9822
  303SOL     OW  907   0.221   2.654   2.322  0.1187 -0.2037 -0.3823
  303SOL    HW1  908   0.263   2.741   2.303 -1.3240  0.3106  0.2021
  303SOL    HW2  909   0.258   2.613   2.406  1.8050 -0.3257 -0.2997
  304SOL     OW  910   3.109   1.560   1.465  0.1352 -0.3968  0.1737
  304SOL    HW1  911   0.057   1.481   1.475 -1.3897 -0.0826 -1.2207
  304SOL    HW2  912   0.042   1.637   1.425 -2.8187 -0.3214 -0.6957
  305SOL     OW  913   0.070   0.385   2.024 -0.2991 -0.1232  0.3513
  305SOL    HW1  914   0.164   0.379   2.069  1.2203  0.9940  0.4138
  305SOL    HW2  915   0.035   0.297   1.990 -0.5113  0.4320 -0.1362
  306SOL     OW  916   1.079   1.557   0.398 -0.8512  0.0463  0.0612
  306SOL    HW1  917   1.150   1.629   0.398 -1.1863  0.9681  2.1659
  306SOL    HW2  918   1.010   1.584   0.331 -1.4540 -0.6645  1.7373
  307SOL     OW  919   0.051   3.080   0.625 -0.2097 -0.2635  0.4489
  307SOL    HW1  920   0.150   3.101   0.647  2.1260  0.9153 -0.4216
  307SOL    HW2  921   0.025   2.990   0.671  0.0974 -1.0953  0.0653
  308SOL     OW  922   2.981   1.053   2.293 -0.2213 -0.0199  0.0635
  308SOL    HW1  923   3.006   0.965   2.344  1.3103 -1.3469 -1.5759
  308SOL    HW2  924   3.052   1.079   2.225 -0.8013  1.1073  0.9451
  309SOL     OW  925   3.051   1.801   2.637  0.1043 -0.0748 -0.2051
  309SOL    HW1  926   3.003   1.713   2.648  1.1736 -0.6101  1.8092
  309SOL    HW2  927   2.990   1.880   2.639  0.7598 -0.6415 -0.6828
  310SOL     OW  928   2.320   0.655   0.246 -0.0638  0.2350  0.0988
  310SOL    HW1  929   2.383   0.736   0.225  0.5897  0.3794 -0.7954
  310SOL    HW2  930   2.251   0.648   0.175  1.5323 -0.2721  3.7874
  311SOL     OW  931   2.012   0.789   0.092 -0.0514  0.3855 -0.3203
  311SOL    HW1  932   2.003   0.863   0.027 -1.4255 -6.4320  2.8314
  311SOL    HW2  933   2.048   0.706   0.044 -0.7203  1.7631 -0.3844
  312SOL     OW  934   1.283   1.660   2.544  0.2938  0.5237 -0.0366
  312SOL    HW1  935   1.359   1.726   2.563 -0.2013 -0.2031 -1.1241
  312SOL    HW2  936   1.224   1.647   2.624 -3.0544 -0.3085  0.5593
  313SOL     OW  937   0.175   0.653   0.442 -0.0795 -0.1109  0.3488
  313SOL    HW1  938   0.199   0.581   0.377  0.4813  1.2755  2.3177
  313SOL    HW2  939   0.085   0.696   0.416 -0.7129 -0.8628  0.6234
  314SOL     OW  940   0.562   1.704   1.441  0.0054 -0.2784  0.6472
  314SOL    HW1  941   0.622   1.671   1.515  1.1543 -0.9370  1.1745
  314SOL    HW2  942   0.596   1.785   1.395 -0.4299 -2.2485  1.8280
  315SOL     OW  943   0.923   1.765   1.850  0.1714  0.2040 -0.0764
  315SOL    HW1  944   0.911   1.667   1.890  1.0409 -0.3912  1.1422
  315SOL    HW2  945   0.870   1.835   1.903  0.2548  1.0518  0.3645
  316SOL     OW  946   0.312   2.345   0.649 -0.1161  0.0570 -0.0309
  316SOL    HW1  947   0.213   2.369   0.655 -0.1998 -2.6142 -2.7613
  316SOL    HW2  948   0.319   2.249   0.616  0.7573 -2.0110  2.0241
  317SOL     OW  949   2.405   0.159   1.278 -0.1335 -0.2435 -0.2910
  317SOL    HW1  950   2.407   0.208   1.189  0.0466  1.9853  1.8998
  317SOL    HW2  951   2.502   0.147   1.301  0.7986 -1.6354 -1.3665
  318SOL     OW  952   1.639   3.021   0.294 -0.0732 -0.1295  0.2654
  318SOL    HW1  953   1.558   3.061   0.240 -2.5832  1.3192 -2.7428
  318SOL    HW2  954   1.651   2.929   0.266  0.7391  2.7027  0.0016
  319SOL     OW  955   1.647   0.482   2.742 -0.5438  0.0799  0.1925
  319SOL    HW1  956   1.661   0.397   2.784  0.1137  1.9828 -0.7495
  319SOL    HW2  957   1.725   0.545   2.757  0.9529  1.2677 -2.0688
  320SOL     OW  958   2.968   1.938   1.843 -0.4580  0.0513 -0.1777
  320SOL    HW1  959   2.876   1.929   1.882 -1.2091  0.7043  0.4072
  320SOL    HW2  960   2.973   1.868   1.771  0.2183 -1.2194  1.8774
  321SOL     OW  961   0.005   2.625   2.980 -0.3515  0.7255  0.5468
  321SOL    HW1  962   3.098   2.631   3.081  0.4921 -1.2567  0.1587
  321SOL    HW2  963   0.007   2.526   2.951  0.8990 -3.6067 -2.0075
  322SOL     OW  964   2.556   0.552   2.460 -0.1303  0.6964 -0.1115
  322SOL    HW1  965   2.566   0.626   2.395 -1.7351 -1.7161  2.9930
  322SOL    HW2  966   2.580   0.464   2.422  1.1181  1.1910  2.8172
  323SOL     OW  967   1.893   1.260   0.776 -0.3933  0.3593  0.0331
  323SOL    HW1  968   1.958   1.204   0.834  2.2172 -2.0229  0.6258
  323SOL    HW2  969   1.846   1.199   0.713  0.6192  1.1552 -0.9927
  324SOL     OW  970   0.119   0.178   1.171 -0.1004 -0.5141 -0.2045
  324SOL    HW1  971   0.209   0.160   1.221 -0.3343 -0.6150  1.5692
  324SOL    HW2  972   0.120   0.283   1.152  0.1265  2.3951 -0.5770
  325SOL     OW  973   2.723   3.083   1.787 -0.0722 -0.2654  0.7418
  325SOL    HW1  974   2.769   0.053   1.813  1.3032  1.2175 -1.8854
  325SOL    HW2  975   2.629   3.078   1.828  0.6405 -1.2387  1.8028
  326SOL     OW  976   1.617   2.752   0.216 -0.3668  0.2630 -0.2006
  326SOL    HW1  977   1.660   2.688   0.287  0.5710  0.6774 -1.7788
  326SOL    HW2  978   1.684   2.768   0.146 -2.4250 -0.8309 -0.9046
  327SOL     OW  979   1.849   2.235   0.268  0.5341  0.2497  0.1752
  327SOL    HW1  980   1.795   2.249   0.353 -0.1006 -0.5821 -0.4798
  327SOL    HW2  981   1.814   2.150   0.218  1.8237 -0.0689  0.9866
  328SOL     OW  982   2.852   2.224   2.007 -0.5918  0.0144  0.4070
  328SOL    HW1  983   2.846   2.124   1.987  1.3097 -0.6337 -0.8671
  328SOL    HW2  984   2.845   2.279   1.920 -0.1139 -0.1633 -3.0635
  329SOL     OW  985   0.031   2.322   1.182  0.2450  0.1224 -0.5476
  329SOL    HW1  986   3.078   2.395   1.164  1.0004  1.8483  0.8944
  329SOL    HW2  987   3.104   2.246   1.234 -0.9148 -3.0899  0.5934
  330SOL     OW  988   2.358   0.908   2.868  0.0627  0.3909  0.3127
  330SOL    HW1  989   2.374   0.835   2.798  0.7872  0.2643 -3.1426
  330SOL    HW2  990   2.350   0.996   2.821 -0.3861  0.4316  0.7500
  331SOL     OW  991   2.392   1.689   0.893 -0.0266  0.0487 -0.2923
  331SOL    HW1  992   2.395   1.650   0.801 -2.1351  3.6536  0.7320
  331SOL    HW2  993   2.377   1.790   0.874 -0.3719  0.5926 -1.3828
  332SOL     OW  994   0.458   2.635   0.991 -0.4302 -0.5770  0.2921
  332SOL    HW1  995   0.455   2.665   0.888  0.2219  0.0815 -3.7721
  332SOL    HW2  996   0.550   2.648   1.029 -2.7342 -1.1524  1.8873
  333SOL     OW  997   0.022   1.927   2.074  0.1043 -0.0313  0.0417
  333SOL    HW1  998   3.104   1.932   1.981 -0.8646 -3.7172  2.6177
  333SOL    HW2  999   3.071   1.896   2.146 -0.4707 -1.0875 -1.2673
  334SOL     OW 1000   0.610   0.897   0.876 -0.5098 -0.0070  0.5733
  334SOL    HW1 1001   0.514   0.932   0.879  0.8388 -0.0085 -2.0190
  334SOL    HW2 1002   0.647   0.890   0.969 -2.9710  0.7912 -0.0695
  335SOL     OW 1003   3.113   1.559   2.275  0.1934  0.1244 -0.4146
  335SOL    HW1 1004   0.073   1.604   2.321 -1.6071  0.5974 -0.9247
  335SOL    HW2 1005   0.025   1.472   2.227  0.3295 -1.1625 -1.4721
  336SOL     OW 1006   2.092   3.055   2.259  0.5930  0.1591 -0.0607
  336SOL    HW1 1007   2.034   2.991   2.316 -1.5699 -1.1647  1.0264
  336SOL    HW2 1008   2.062   0.037   2.257  1.9757  4.0022  0.1368
  337SOL     OW 1009   0.915   0.711   1.172 -0.2337 -0.1391 -0.3963
  337SOL    HW1 1010   0.831   0.767   1.184  1.0905 -0.7542  0.1701
  337SOL    HW2 1011   0.886   0.620   1.143 -0.8335  2.0004  1.6193
  338SOL     OW 1012   1.571   1.943   1.166 -0.3519 -0.0941 -0.2622
  338SOL    HW1 1013   1.663   1.891   1.143  2.6305 -1.6432 -2.0172
  338SOL    HW2 1014   1.594   2.006   1.245  1.5081  1.0637 -0.1822
  339SOL     OW 1015   0.368   1.609   1.293  0.1034 -0.2719  0.1501
  339SOL    HW1 1016   0.460   1.632   1.333 -0.4483 -0.1324 -1.3168
  339SOL    HW2 1017   0.296   1.675   1.330  2.0399  0.3036 -0.3501
  340SOL     OW 1018   0.825   3.040   2.116 -0.3730  0.7153 -0.1493
  340SOL    HW1 1019   0.823   2.972   2.191  0.8001  1.4678 -0.5625
  340SOL    HW2 1020   0.787   2.993   2.034  0.5092 -1.5191 -1.1099
  341SOL     OW 1021   1.827   1.600   0.572  0.2824 -0.0276  0.1881
  341SOL    HW1 1022   1.887   1.681   0.589 -0.2120 -0.1975  0.3400
  341SOL    HW2 1023   1.893   1.521   0.562 -0.0461  0.0462 -1.7773
  342SOL     OW 1024   1.927   1.246   0.381  0.1124  0.8758 -0.1557
  342SOL    HW1 1025   2.006   1.226   0.315  3.1937  1.3466 -2.3178
  342SOL    HW2 1026   1.848   1.295   0.338 -0.1256 -1.1265  5.2453
  343SOL     OW 1027   2.082   0.243   1.059  0.0941  0.6148  0.4011
  343SOL    HW1 1028   2.026   0.223   1.140  0.2327 -0.6579  0.6124
  343SOL    HW2 1029   2.098   0.152   1.014  0.4654 -2.3442  1.0182
  344SOL     OW 1030   2.622   0.586   0.354 -0.5891 -0.6939  0.1636
  344SOL    HW1 1031   2.547   0.553   0.296  1.5472  2.7237 -0.5941
  344SOL    HW2 1032   2.696   0.518   0.365  1.7988  4.2778  0.4641
  345SOL     OW 1033   1.117   2.599   1.714 -0.4111  0.1397 -0.1152
  345SOL    HW1 1034   1.130   2.704   1.715  1.0525  1.3860 -0.6168
  345SOL    HW2 1035   1.141   2.551   1.801 -0.5093 -2.9552 -0.9039
  346SOL     OW 1036   2.419   2.268   1.259 -0.6128  0.0913  0.2266
  346SOL    HW1 1037   2.322   2.282   1.236  1.8665  1.3142  1.6992
  346SOL    HW2 1038   2.457   2.312   1.346  2.9548  0.7867  1.2924
  347SOL     OW 1039   2.229   3.068   1.181 -0.0047  0.2517  0.2691
  347SOL    HW1 1040   2.277   0.021   1.243  1.2041  1.7818 -0.5117
  347SOL    HW2 1041   2.156   3.015   1.233 -1.2208  0.1336  0.2016
  348SOL     OW 1042   0.893   1.002   1.501  0.6791 -0.0706  0.6486
  348SOL    HW1 1043   0.962   1.066   1.524 -2.0819  0.2332 -2.1974
  348SOL    HW2 1044   0.848   1.033   1.416 -0.2231  0.4344  0.2072
  349SOL     OW 1045   2.367   0.484   3.073 -0.0794  0.0733 -0.1534
  349SOL    HW1 1046   2.452   0.541   3.060  0.6642 -0.5491 -0.4532
  349SOL    HW2 1047   2.379   0.422   0.038  1.7627 -0.8147 -0.7805
  350SOL     OW 1048   2.125   2.199   2.767 -0.4171  0.2802  0.5487
  350SOL    HW1 1049   2.065   2.126   2.812  0.9759 -0.1583  0.1250
  350SOL    HW2 1050   2.218   2.193   2.801 -4.7615 -0.2238  0.8772
  351SOL     OW 1051   1.058   0.527   0.438  0.3664 -0.2154  0.3876
  351SOL    HW1 1052   0.995   0.571   0.369 -1.9312 -2.0367 -0.2047
  351SOL    HW2 1053   1.155   0.540   0.418 -2.8587 -0.7121 -1.1779
  352SOL     OW 1054   1.633   2.097   2.811  0.4269 -0.6822  0.2143
  352SOL    HW1 1055   1.657   2.068   2.716  2.5327  0.5600 -1.1124
  352SOL    HW2 1056   1.716   2.128   2.858 -1.3672 -1.1087  0.5498
  353SOL     OW 1057   0.475   0.846   2.904 -0.1321  0.1889  0.0534
  353SOL    HW1 1058   0.463   0.798   2.815 -1.2825 -0.3163  0.0421
  353SOL    HW2 1059   0.524   0.933   2.895 -0.8917  0.4922  0.1486
  354SOL     OW 1060   0.867   2.262   2.672  0.2181 -0.8498 -0.5616
  354SOL    HW1 1061   0.806   2.180   2.652  0.1027  1.6071  2.2049
  354SOL    HW2 1062   0.877   2.275   2.771 -2.0366 -1.4177  0.0582
  355SOL     OW 1063   2.839   2.613   1.756  0.2012  0.1290  0.1397
  355SOL    HW1 1064   2.873   2.677   1.823 -0.9578  0.3830 -0.8657
  355SOL    HW2 1065   2.808   2.656   1.669 -3.2136  1.4161 -0.8127
  356SOL     OW 1066   2.722   1.280   1.162 -0.5193  0.0221  0.3353
  356SOL    HW1 1067   2.656   1.305   1.231  2.7586 -0.5641 -2.7391
  356SOL    HW2 1068   2.673   1.274   1.070 -1.5516 -0.3898 -1.9932
  357SOL     OW 1069   2.689   0.112   1.297  0.1513 -0.0210  0.2978
  357SOL    HW1 1070   2.708   0.051   1.376 -2.0818  0.4362 -0.0804
  357SOL    HW2 1071   2.770   0.120   1.238  0.5208  1.1534 -1.3845
  358SOL     OW 1072   0.908   2.033   1.488  0.2012 -0.6801 -0.7834
  358SOL    HW1 1073   0.996   2.078   1.462  0.5978 -0.0726 -2.4423
  358SOL    HW2 1074   0.885   2.066   1.581  2.0058  1.9920  0.2771
  359SOL     OW 1075   2.878   2.640   2.587  0.0352 -0.0812  0.0545
  359SOL    HW1 1076   2.932   2.703   2.647 -1.4129  0.6863 -1.2364
  359SOL    HW2 1077   2.924   2.627   2.496  0.2325  0.9322 -1.3785
  360SOL     OW 1078   1.279   0.895   1.474 -0.1284  0.2089  0.4130
  360SOL    HW1 1079   1.246   0.877   1.566  0.0945 -1.9146 -2.2095
  360SOL    HW2 1080   1.317   0.807   1.432 -1.4993  0.6508  0.6827
  361SOL     OW 1081   2.617   0.348   0.777 -0.0710  0.0280 -0.0305
  361SOL    HW1 1082   2.633   0.271   0.842 -1.1131  3.8333 -0.4024
  361SOL    HW2 1083   2.535   0.325   0.717  0.5137 -0.4521 -0.3463
  362SOL     OW 1084   0.533   0.102   0.504 -0.0520 -0.4272  0.3193
  362SOL    HW1 1085   0.609   0.067   0.446  0.3771  1.1692 -1.0221
  362SOL    HW2 1086   0.551   0.199   0.538  0.4656  2.6198 -1.6573
  363SOL     OW 1087   0.695   1.323   0.383 -0.2207 -0.5974  0.2219
  363SOL    HW1 1088   0.598   1.314   0.414  0.7658 -2.9552  0.3245
  363SOL    HW2 1089   0.739   1.231   0.369  1.2295  0.5555 -1.5152
  364SOL     OW 1090   0.550   0.999   1.675 -0.4132  0.1963  0.3260
  364SOL    HW1 1091   0.556   0.905   1.714  2.1627 -0.4878 -1.0342
  364SOL    HW2 1092   0.491   1.005   1.595 -2.6122  0.1749 -0.0708
  365SOL     OW 1093   2.860   1.110   0.652  0.0211 -0.1693 -0.3398
  365SOL    HW1 1094   2.836   1.080   0.746 -1.6917  2.1957  0.5891
  365SOL    HW2 1095   2.944   1.161   0.635 -3.2303 -1.4806 -0.5042
  366SOL     OW 1096   2.685   1.437   0.703  0.0301  0.4561 -0.3132
  366SOL    HW1 1097   2.657   1.367   0.636  0.8508 -0.9013  0.2982
  366SOL    HW2 1098   2.778   1.475   0.678 -0.4341 -1.4750 -1.9876
  367SOL     OW 1099   2.395   1.918   2.405 -0.1223 -0.3187  0.4483
  367SOL    HW1 1100   2.325   1.982   2.450 -2.3174  1.5758  1.5188
  367SOL    HW2 1101   2.367   1.823   2.417  0.8939  0.3821  0.3398
  368SOL     OW 1102   2.761   1.750   0.708 -0.1307  0.1124  0.2203
  368SOL    HW1 1103   2.772   1.709   0.801 -3.1923 -1.9051 -0.5543
  368SOL    HW2 1104   2.677   1.708   0.666  0.9956  0.1227 -2.4012
  369SOL     OW 1105   2.090   2.466   2.730  0.3354 -0.1798  0.4804
  369SOL    HW1 1106   2.086   2.360   2.734 -0.6514 -4.0409  0.9344
  369SOL    HW2 1107   2.013   2.515   2.774 -0.1220 -0.1389 -1.6592
  370SOL     OW 1108   3.114   3.062   1.085  0.3660 -0.5260 -0.6495
  370SOL    HW1 1109   0.030   0.041   1.111  0.3030  1.7962  1.2050
  370SOL    HW2 1110   0.068   2.995   1.049  1.4498  2.5350 -1.1534
  371SOL     OW 1111   0.795   1.901   0.070 -0.4890  0.1425 -0.6063
  371SOL    HW1 1112   0.847   1.831   0.125 -1.2365 -2.4901 -1.8211
  371SOL    HW2 1113   0.698   1.885   0.082  3.8670  1.8501 -1.9519
  372SOL     OW 1114   1.004   1.175   0.196  0.2726 -0.2437 -0.3410
  372SOL    HW1 1115   0.913   1.131   0.191 -0.0904  1.0554  1.2376
  372SOL    HW2 1116   1.039   1.201   0.106 -1.1029  3.6601 -0.0615
  373SOL     OW 1117   1.564   2.650   2.492  0.2885  0.4927  0.0436
  373SOL    HW1 1118   1.631   2.581   2.529  1.3605 -3.1463  0.0656
  373SOL    HW2 1119   1.577   2.740   2.535  0.3062 -0.1662 -1.2361
  374SOL     OW 1120   0.187   2.531   0.325 -0.2747  0.5311  0.4504
  374SOL    HW1 1121   0.234   2.459   0.265 -0.0384 -0.5959 -2.4052
  374SOL    HW2 1122   0.260   2.583   0.369 -1.4758 -3.2061 -0.0999
  375SOL     OW 1123   0.641   1.349   1.736  0.2475  0.1965  0.1931
  375SOL    HW1 1124   0.699   1.432   1.743  1.1699  0.1537 -0.1995
  375SOL    HW2 1125   0.566   1.352   1.807 -1.8009 -0.4964  0.3537
  376SOL     OW 1126   0.605   2.576   1.840  0.4311  0.1075 -0.1054
  376SOL    HW1 1127   0.693   2.622   1.812  1.1760  1.2463 -2.6625
  376SOL    HW2 1128   0.587   2.491   1.784  2.1433 -0.0045 -2.1196
  377SOL     OW 1129   2.903   1.434   2.409  0.1802 -0.1145 -0.1517
  377SOL    HW1 1130   2.977   1.491   2.368 -1.0789 -1.1579 -2.5253
  377SOL    HW2 1131   2.935   1.342   2.447 -0.9304 -3.8805  0.8386
  378SOL     OW 1132   1.378   3.028   0.067  0.2381 -0.3679 -0.1586
  378SOL    HW1 1133   1.405   3.042   3.088  0.9152  1.7383 -0.8184
  378SOL    HW2 1134   1.381   2.929   0.090 -0.0190 -1.2989  2.5609
  379SOL     OW 1135   1.882   0.812   0.612 -0.4244 -0.3882 -0.3473
  379SOL    HW1 1136   1.868   0.888   0.682 -0.8275  0.9126  0.0944
  379SOL    HW2 1137   1.916   0.853   0.526  0.0169  1.4568 -3.2315
  380SOL     OW 1138   0.180   1.790   1.387  0.3017 -0.2006 -0.0186
  380SOL    HW1 1139   0.185   1.854   1.464 -1.6789 -1.8902 -2.0432
  380SOL    HW2 1140   0.105   1.826   1.323 -2.3673  1.3168 -1.0168
  381SOL     OW 1141   2.095   1.761   2.309  0.0160 -0.4305 -0.0328
  381SOL    HW1 1142   2.103   1.739   2.409  0.1806  0.4925  1.2492
  381SOL    HW2 1143   2.080   1.679   2.248  1.5879 -0.1766 -0.3638
  382SOL     OW 1144   0.035   0.231   2.701 -0.0170 -0.0500 -0.0085
  382SOL    HW1 1145   3.078   0.159   2.691 -0.1674  0.4138 -1.8272
  382SOL    HW2 1146   0.044   0.275   2.606  0.5085  0.1494 -0.3401
  383SOL     OW 1147   1.688   1.409   2.801 -0.4876  0.5948  0.0740
  383SOL    HW1 1148   1.742   1.347   2.863  0.3634  1.1292 -0.4571
  383SOL    HW2 1149   1.590   1.408   2.820  1.8557  1.0889  0.1650
  384SOL     OW 1150   1.145   2.117   1.445  1.0532 -0.1713 -0.3669
  384SOL    HW1 1151   1.224   2.070   1.406 -0.0774 -0.5201 -1.0980
  384SOL    HW2 1152   1.155   2.210   1.409  1.7608 -0.4838  0.1106
  385SOL     OW 1153   1.735   2.601   0.865 -0.4062 -0.1957  0.2065
  385SOL    HW1 1154   1.796   2.648   0.937  2.4719  0.5560 -1.4260
  385SOL    HW2 1155   1.739   2.656   0.779  1.1916 -1.8657 -0.0646
  386SOL     OW 1156   1.969   1.973   1.137  0.1601  0.0288  0.1781
  386SOL    HW1 1157   1.918   1.885   1.147  0.7640 -1.6455 -1.3199
  386SOL    HW2 1158   1.912   2.054   1.167 -1.3508  1.4387 -1.5678
  387SOL     OW 1159   0.163   2.183   1.423  0.1074 -0.0142 -0.0651
  387SOL    HW1 1160   0.080   2.144   1.374  3.0099 -0.6656  1.2884
  387SOL    HW2 1161   0.168   2.152   1.519 -0.1473  2.1559  0.9855
  388SOL     OW 1162   2.923   0.527   1.687 -0.0403  0.2759 -0.0535
  388SOL    HW1 1163   2.882   0.617   1.681  0.9140  1.3301  0.6873
  388SOL    HW2 1164   2.863   0.459   1.738 -0.4019 -1.2271  0.7984
  389SOL     OW 1165   1.750   0.941   0.327  0.0615 -0.4536 -0.4871
  389SOL    HW1 1166   1.845   0.911   0.315  1.9718  1.1850 -0.3887
  389SOL    HW2 1167   1.681   0.865   0.323  0.5754  1.1566  0.4445
  390SOL     OW 1168   1.106   2.012   2.596  0.4459 -0.0769  0.3944
  390SOL    HW1 1169   1.022   2.010   2.537 -0.8544  0.3368  1.4231
  390SOL    HW2 1170   1.190   2.012   2.536  0.5578  0.0714 -0.1415
  391SOL     OW 1171   0.895   2.257   2.947  0.1442  0.7721 -0.5426
  391SOL    HW1 1172   0.824   2.319   2.982  3.3476 -0.4372  0.6108
  391SOL    HW2 1173   0.981   2.301   2.933 -2.8695 -0.4486  0.8396
  392SOL     OW 1174   3.069   2.890   1.694  0.1153 -0.1287  0.1387
  392SOL    HW1 1175   0.034   2.939   1.722 -1.3777 -1.3821  0.0988
  392SOL    HW2 1176   3.009   2.888   1.773  1.5031 -2.2012 -0.3741
  393SOL     OW 1177   1.697   2.531   0.348 -0.0768 -0.3453 -0.2388
  393SOL    HW1 1178   1.756   2.520   0.267  1.7929  1.6386  0.3234
  393SOL    HW2 1179   1.685   2.443   0.398 -1.9095 -0.8273 -0.2487
  394SOL     OW 1180   0.753   0.472   2.167 -0.7512  0.0526 -0.3891
  394SOL    HW1 1181   0.811   0.446   2.086  1.8098 -1.6225 -3.7567
  394SOL    HW2 1182   0.714   0.391   2.208  1.2631 -1.9159 -2.2914
  395SOL     OW 1183   0.338   1.202   1.346  0.1966 -0.1208  0.1061
  395SOL    HW1 1184   0.369   1.254   1.257 -0.5255  2.2275 -4.6770
  395SOL    HW2 1185   0.254   1.244   1.390  2.0510 -0.4753  1.0187
  396SOL     OW 1186   1.908   1.084   2.378 -0.0199  0.2076 -0.2507
  396SOL    HW1 1187   1.802   1.078   2.387  1.1061  1.5672  2.0027
  396SOL    HW2 1188   1.953   1.018   2.438 -2.9734 -0.2200 -0.5373
  397SOL     OW 1189   0.862   0.295   3.113  0.1203 -0.2160 -0.3844
  397SOL    HW1 1190   0.912   0.237   0.062 -1.5892 -0.4456 -1.0355
  397SOL    HW2 1191   0.762   0.268   3.108  0.9961 -0.1362  0.3725
  398SOL     OW 1192   0.885   1.954   2.920 -0.1327 -0.3036 -0.5415
  398SOL    HW1 1193   0.839   1.944   3.012 -0.3931  2.6341 -0.7371
  398SOL    HW2 1194   0.867   2.048   2.883  0.4417 -0.9271 -0.0635
  399SOL     OW 1195   2.571   1.512   2.635 -0.0389 -0.5181  0.4633
  399SOL    HW1 1196   2.495   1.448   2.643  2.0969  2.7829 -1.2910
  399SOL    HW2 1197   2.600   1.518   2.538  0.2934 -0.0288  2.2258
  400SOL     OW 1198   2.526   1.269   1.486  0.8898  0.0005  0.2807
  400SOL    HW1 1199   2.587   1.349   1.467 -2.4154  1.2919  2.1627
  400SOL    HW2 1200   2.468   1.251   1.405 -2.9786  3.9323  3.4668
  401SOL     OW 1201   1.044   1.743   0.820 -0.0807  0.0150 -0.0717
  401SOL    HW1 1202   1.022   1.745   0.921  2.2026 -0.2297  0.5975
  401SOL    HW2 1203   1.102   1.661   0.806  0.1300 -0.0238 -0.6025
  402SOL     OW 1204   0.221   2.484   2.122 -0.3732  0.1116 -0.3349
  402SOL    HW1 1205   0.207   2.545   2.198  0.6142 -1.6206  0.4893
  402SOL    HW2 1206   0.286   2.530   2.054 -0.6375  0.9507 -3.2247
  403SOL     OW 1207   0.140   1.324   2.545 -0.1880  0.3429  0.4361
  403SOL    HW1 1208   0.137   1.417   2.571 -2.3512 -1.2114 -0.2732
  403SOL    HW2 1209   0.205   1.273   2.607  0.8817  0.6901  3.2326
  404SOL     OW 1210   2.148   2.124   1.508 -0.3614  0.0106  0.1713
  404SOL    HW1 1211   2.216   2.158   1.579  4.5404  1.4832  3.1275
  404SOL    HW2 1212   2.187   2.054   1.441 -1.0370 -2.1455 -2.3976
  405SOL     OW 1213   2.632   0.285   2.793 -0.1423  0.0207 -0.1034
  405SOL    HW1 1214   2.652   0.274   2.692 -0.5821 -1.2498  0.1085
  405SOL    HW2 1215   2.661   0.199   2.837  0.5485  0.2163 -1.7777
  406SOL     OW 1216   0.750   1.082   3.108  0.5328  0.1420 -0.0900
  406SOL    HW1 1217   0.837   1.031   3.105  1.3468 -2.2705  0.1547
  406SOL    HW2 1218   0.694   1.073   3.026  0.7152  0.8448  0.7415
  407SOL     OW 1219   1.858   2.577   2.830  0.1869 -0.3719  0.3646
  407SOL    HW1 1220   1.828   2.551   2.927 -0.5852 -3.1287  1.0040
  407SOL    HW2 1221   1.850   2.678   2.819  0.0541  1.6676  0.4595
  408SOL     OW 1222   2.940   2.951   0.022 -0.1783 -0.1545 -0.1641
  408SOL    HW1 1223   3.009   2.949   0.095 -2.3706  2.4781  0.3508
  408SOL    HW2 1224   2.987   2.955   3.050  0.8395  1.0958 -1.5592
  409SOL     OW 1225   2.254   1.571   1.123  0.3292  0.8138  0.2425
  409SOL    HW1 1226   2.157   1.551   1.123  0.8026  1.0408 -1.9824
  409SOL    HW2 1227   2.289   1.572   1.028  0.1805 -1.3040  0.8916
  410SOL     OW 1228   2.476   2.051   0.106  0.6564 -0.9815  0.3488
  410SOL    HW1 1229   2.531   1.973   0.070  0.1698 -4.5430  1.4326
  410SOL    HW2 1230   2.532   2.137   0.104  0.5962  0.7408  1.7134
  411SOL     OW 1231   3.100   1.206   0.620 -0.2115  0.2802 -0.1993
  411SOL    HW1 1232   0.024   1.262   0.695 -0.3409 -0.6903 -0.4303
  411SOL    HW2 1233   0.015   1.110   0.639 -0.0453  1.2533  1.1599
  412SOL     OW 1234   1.982   2.561   0.458  0.2017  0.1522  0.5482
  412SOL    HW1 1235   1.927   2.547   0.372  0.7086  0.0090 -0.9703
  412SOL    HW2 1236   2.070   2.510   0.448  2.5261  3.3423  0.5117
  413SOL     OW 1237   1.858   0.824   2.029  0.1215  0.9385 -0.9141
  413SOL    HW1 1238   1.787   0.773   2.086 -0.5104 -1.1352  0.0576
  413SOL    HW2 1239   1.904   0.745   1.978  3.3641 -2.0838 -2.5556
  414SOL     OW 1240   3.043   0.403   0.405 -0.4163  0.2025 -0.3633
  414SOL    HW1 1241   2.974   0.330   0.420 -1.4248  0.8746  0.2277
  414SOL    HW2 1242   3.112   0.398   0.477 -1.6682  1.8868 -2.5862
  415SOL     OW 1243   1.100   1.656   1.528 -0.9585  0.0584  0.1231
  415SOL    HW1 1244   1.191   1.615   1.555 -2.1528  0.3576 -1.8631
  415SOL    HW2 1245   1.097   1.759   1.538  0.9468 -1.0895  1.2600
  416SOL     OW 1246   0.216   3.084   2.985 -0.2098  0.0402  0.1024
  416SOL    HW1 1247   0.228   0.067   2.958  0.8083  0.1456 -1.1507
  416SOL    HW2 1248   0.122   3.041   2.970 -1.5096 -0.2833  3.1629
  417SOL     OW 1249   2.605   0.157   0.951  0.6044 -0.1778 -0.4563
  417SOL    HW1 1250   2.542   0.227   0.989  0.8912  0.2289  0.4158
  417SOL    HW2 1251   2.672   0.134   1.019  0.1195 -1.8072 -3.4661
  418SOL     OW 1252   0.246   0.511   2.644  0.2074  0.4468  0.0128
  418SOL    HW1 1253   0.173   0.456   2.598 -2.6910  2.3647 -3.3351
  418SOL    HW2 1254   0.338   0.498   2.598  1.1691  1.3941 -0.4753
  419SOL     OW 1255   0.120   1.307   1.489  0.3068  0.2789 -0.6509
  419SOL    HW1 1256   0.166   1.327   1.577 -0.5610 -0.8191  0.5569
  419SOL    HW2 1257   0.036   1.252   1.511  1.5338 -1.7395  2.6281
  420SOL     OW 1258   0.599   1.733   0.549  0.6386 -0.4309  0.3951
  420SOL    HW1 1259   0.621   1.693   0.458  1.8903 -0.6620 -0.5838
  420SOL    HW2 1260   0.643   1.684   0.625 -2.6788  1.0423 -1.8499
  421SOL     OW 1261   2.033   2.485   2.436  0.5162  0.0106 -0.5473
  421SOL    HW1 1262   2.042   2.511   2.535  2.3246 -0.5704  3.1956
  421SOL    HW2 1263   2.128   2.463   2.405  0.4642  0.5836 -0.7570
  422SOL     OW 1264   2.999   0.449   2.791  0.3749  0.4528 -0.0102
  422SOL    HW1 1265   2.921   0.444   2.857 -0.6109  0.5653  0.5118
  422SOL    HW2 1266   3.044   0.356   2.776 -0.9024 -2.3948 -1.1399
  423SOL     OW 1267   1.351   2.085   0.993  0.4071 -0.0007 -0.3155
  423SOL    HW1 1268   1.387   1.997   1.032 -1.5742 -1.4834  1.0636
  423SOL    HW2 1269   1.255   2.108   1.029 -0.5571  1.0326  0.1018
  424SOL     OW 1270   0.696   2.012   1.762  0.2745  0.0986 -0.4761
  424SOL    HW1 1271   0.619   2.019   1.696 -3.4746  0.6009  1.0408
  424SOL    HW2 1272   0.667   2.041   1.856 -0.7766  0.7461 -0.3779
  425SOL     OW 1273   0.069   2.829   2.048  0.0948 -0.6390 -0.2484
  425SOL    HW1 1274   0.124   2.751   2.089  0.3874 -1.4525  1.2238
  425SOL    HW2 1275   3.083   2.826   2.072 -3.9325  0.5024  3.6517
  426SOL     OW 1276   1.587   0.594   0.492 -0.0697 -0.3927 -0.2360
  426SOL    HW1 1277   1.668   0.551   0.444  1.2317 -1.2554  0.5214
  426SOL    HW2 1278   1.609   0.623   0.591 -0.8121 -1.4239 -0.4770
  427SOL     OW 1279   0.966   0.918   0.016 -0.0655  0.3303  0.0693
  427SOL    HW1 1280   1.013   0.905   0.103 -0.5197  0.1409  1.7369
  427SOL    HW2 1281   0.961   0.835   3.073 -2.1771 -0.4885  1.3919
  428SOL     OW 1282   1.495   1.316   0.152 -0.2628 -0.4852  0.3963
  428SOL    HW1 1283   1.467   1.338   0.249  0.9688 -0.6077 -0.6512
  428SOL    HW2 1284   1.445   1.376   0.084 -2.1386 -0.2843 -0.0985
  429SOL     OW 1285   2.832   2.735   0.681  0.0980  0.1982 -0.0882
  429SOL    HW1 1286   2.893   2.689   0.614  1.0090 -0.1371 -1.4825
  429SOL    HW2 1287   2.749   2.765   0.627 -2.1783 -2.5836  1.1656
  430SOL     OW 1288   0.565   2.954   2.396 -0.0770  0.1759 -0.2900
  430SOL    HW1 1289   0.560   2.988   2.491 -2.0241 -1.3095 -0.3963
  430SOL    HW2 1290   0.655   2.908   2.384 -1.0937 -1.8123 -0.3219
  431SOL     OW 1291   2.774   0.990   0.917 -0.6828 -0.5841  0.0290
  431SOL    HW1 1292   2.680   1.029   0.910 -0.0150 -1.6432  0.4753
  431SOL    HW2 1293   2.805   0.964   1.008 -1.8005 -0.7011 -1.0372
  432SOL     OW 1294   2.175   2.657   1.919  0.2762 -0.1210  0.0117
  432SOL    HW1 1295   2.256   2.647   1.983  0.3990 -1.6878  0.0444
  432SOL    HW2 1296   2.142   2.569   1.877 -0.5703  1.4533 -0.4388
  433SOL     OW 1297   1.488   2.456   0.846  0.6042  0.3297  0.4311
  433SOL    HW1 1298   1.521   2.360   0.860  3.4453 -1.9077  2.4918
  433SOL    HW2 1299   1.571   2.511   0.876 -0.3647 -1.6418  1.6469
  434SOL     OW 1300   0.572   2.076   2.000 -0.6474 -0.1766 -0.1956
  434SOL    HW1 1301   0.613   2.142   2.067  0.9329 -0.5629 -0.6878
  434SOL    HW2 1302   0.487   2.105   1.959  2.3545 -0.9582  0.6231
  435SOL     OW 1303   2.964   0.982   0.023 -0.0736  0.3289  0.1427
  435SOL    HW1 1304   3.013   0.976   0.113 -2.0206 -2.8009  0.0414
  435SOL    HW2 1305   2.986   0.906   3.077  0.6183  2.8304  0.9661
  436SOL     OW 1306   0.374   2.592   1.942  0.0766  0.0535 -0.1580
  436SOL    HW1 1307   0.391   2.660   2.011  0.8748 -1.1141 -1.5124
  436SOL    HW2 1308   0.464   2.567   1.906 -1.8711  0.3333 -0.5774
  437SOL     OW 1309   1.776   2.570   1.825 -0.4201  0.4815  0.3668
  437SOL    HW1 1310   1.767   2.585   1.723 -0.5552 -0.2577 -0.9034
  437SOL    HW2 1311   1.833   2.644   1.864 -0.1387 -0.5067 -0.8070
  438SOL     OW 1312   0.114   1.748   0.531 -0.1103 -0.4711  0.0966
  438SOL    HW1 1313   0.175   1.761   0.607 -2.3028  2.6332 -1.2630
  438SOL    HW2 1314   0.020   1.781   0.549  1.1081 -0.2725 -0.3927
  439SOL     OW 1315   0.126   0.499   0.819  0.1534  0.2829  0.2836
  439SOL    HW1 1316   0.178   0.589   0.826 -1.1037  0.1315  0.0057
  439SOL    HW2 1317   0.168   0.412   0.856 -2.5214 -0.0320  4.1119
  440SOL     OW 1318   0.319   2.894   2.491  0.4784  0.5044  0.9509
  440SOL    HW1 1319   0.309   2.798   2.517 -0.0400  1.3657 -0.6044
  440SOL    HW2 1320   0.418   2.903   2.463 -2.6423  2.6963  1.2151
  441SOL     OW 1321   3.043   0.729   0.813  0.2377 -0.1614 -0.3470
  441SOL    HW1 1322   3.109   0.653   0.802 -0.1890  0.4711  2.2287
  441SOL    HW2 1323   2.947   0.707   0.798  1.6865  0.4060 -0.5377
  442SOL     OW 1324   1.395   2.242   2.457  0.1801  0.0809 -0.1142
  442SOL    HW1 1325   1.390   2.144   2.446  0.7648  1.9032  1.3832
  442SOL    HW2 1326   1.395   2.289   2.369 -2.5791 -2.2798  3.0867
  443SOL     OW 1327   0.621   0.699   0.384  0.3162  0.3724 -0.2716
  443SOL    HW1 1328   0.595   0.719   0.289  0.7036  1.8779  0.4747
  443SOL    HW2 1329   0.720   0.691   0.383 -2.2773 -0.8322  0.5779
  444SOL     OW 1330   1.617   1.298   2.553  0.6161  0.1059 -0.1174
  444SOL    HW1 1331   1.536   1.341   2.506 -0.8113 -0.0038  0.8432
  444SOL    HW2 1332   1.631   1.342   2.644  0.3909  1.0653 -1.6246
  445SOL     OW 1333   0.116   0.330   0.588  0.4260 -0.4654  0.0454
  445SOL    HW1 1334   0.118   0.407   0.657  1.1451 -0.1258 -0.7236
  445SOL    HW2 1335   0.091   0.244   0.640  1.8435 -2.4871  1.1112
  446SOL     OW 1336   2.189   0.750   1.059  0.0721 -0.0270  0.4121
  446SOL    HW1 1337   2.128   0.822   1.096  0.1509 -1.4964 -1.5856
  446SOL    HW2 1338   2.164   0.740   0.961 -0.1855 -1.3049 -0.7409
  447SOL     OW 1339   0.086   0.781   0.101 -0.1838 -0.8850 -0.1326
  447SOL    HW1 1340   0.164   0.743   0.044 -1.2594 -0.0861  0.6832
  447SOL    HW2 1341   0.013   0.711   0.104  1.0274  0.5146  0.1773
  448SOL     OW 1342   1.839   2.061   1.781 -0.2626  0.1698  0.3303
  448SOL    HW1 1343   1.800   2.151   1.801 -0.2234 -2.9574  0.2783
  448SOL    HW2 1344   1.864   2.049   1.678 -2.6735  0.0455 -1.8763
  449SOL     OW 1345   0.782   1.597   0.735  0.2293  0.5520 -0.3701
  449SOL    HW1 1346   0.873   1.616   0.689  1.0494 -2.2631 -1.8475
  449SOL    HW2 1347   0.769   1.493   0.730  1.1869 -0.8025  0.7542
  450SOL     OW 1348   2.712   2.382   2.304  0.6740 -0.2429  0.1304
  450SOL    HW1 1349   2.705   2.477   2.260  0.5729  5.2256  0.3674
  450SOL    HW2 1350   2.807   2.350   2.304 -2.1452  1.0280 -1.1213
  451SOL     OW 1351   2.605   1.250   2.873 -0.0834 -0.1592  0.3471
  451SOL    HW1 1352   2.626   1.223   2.972  0.4772 -0.8659  1.6540
  451SOL    HW2 1353   2.613   1.350   2.861  0.1964 -2.9542  0.3466
  452SOL     OW 1354   2.014   0.991   1.136  0.4398  0.0524  0.2779
  452SOL    HW1 1355   2.051   1.052   1.214  1.4550  1.2943  2.3562
  452SOL    HW2 1356   1.937   0.925   1.158  1.3680  0.0168  0.0634
  453SOL     OW 1357   2.384   0.879   1.423 -0.3707 -0.1249  0.1284
  453SOL    HW1 1358   2.306   0.888   1.486 -0.0628  3.6287 -0.0231
  453SOL    HW2 1359   2.476   0.855   1.462 -0.9830 -1.8382 -3.3061
  454SOL     OW 1360   2.796   1.409   0.004 -0.0791  0.0037  0.6350
  454SOL    HW1 1361   2.894   1.385   3.107  1.9177  0.7007  1.6502
  454SOL    HW2 1362   2.732   1.338   0.034  2.1246 -0.2196  1.0249
  455SOL     OW 1363   2.630   1.542   1.427  0.6555  0.2424 -0.2127
  455SOL    HW1 1364   2.588   1.560   1.332  0.4731 -0.8144 -0.4699
  455SOL    HW2 1365   2.582   1.599   1.496  0.5425  0.0250  0.2398
  456SOL     OW 1366   0.978   0.297   1.445 -0.2377  0.4686  0.3544
  456SOL    HW1 1367   0.979   0.395   1.418  1.6292  0.7895  0.1975
  456SOL    HW2 1368   1.065   0.253   1.415 -1.2834 -1.3505  1.9677
  457SOL     OW 1369   1.888   2.735   1.060 -0.5475 -0.4166 -0.0344
  457SOL    HW1 1370   1.948   2.786   0.994  3.0494  3.0159 -0.8199
  457SOL    HW2 1371   1.870   2.782   1.146  0.4157 -1.2027 -0.6110
  458SOL     OW 1372   2.896   0.181   0.501  0.2308  0.4084  0.0253
  458SOL    HW1 1373   2.796   0.160   0.501 -0.8220 -0.8217  1.4901
  458SOL    HW2 1374   2.940   0.156   0.593  2.4326 -2.9097  2.2255
  459SOL     OW 1375   1.577   0.837   0.057 -0.2970  0.0728 -0.6090
  459SOL    HW1 1376   1.613   0.930   0.070  0.0989 -2.5222  1.0548
  459SOL    HW2 1377   1.558   0.789   0.144 -1.0845 -0.4341  2.8392
  460SOL     OW 1378   0.312   2.639   2.585  0.2290 -0.0685 -0.3999
  460SOL    HW1 1379   0.268   2.619   2.675  1.1501 -0.3107  0.6464
  460SOL    HW2 1380   0.409   2.602   2.582  3.8374 -0.3794 -0.1724
  461SOL     OW 1381   0.455   1.628   0.200  0.3186  0.3840 -0.1096
  461SOL    HW1 1382   0.529   1.605   0.262 -0.5450  0.0201  1.8087
  461SOL    HW2 1383   0.460   1.575   0.116  0.2903  2.1589  1.6101
  462SOL     OW 1384   2.064   1.997   0.876 -0.7517  0.2190  0.4810
  462SOL    HW1 1385   2.166   2.006   0.878  0.3829  0.0521 -0.0558
  462SOL    HW2 1386   2.032   1.996   0.972  0.2056 -0.9571 -1.8934
  463SOL     OW 1387   3.011   0.694   0.377  0.4374  0.1142 -0.4182
  463SOL    HW1 1388   2.973   0.762   0.441  0.2954 -0.0201  0.6484
  463SOL    HW2 1389   3.005   0.602   0.420 -0.3329  0.8715  1.5601
  464SOL     OW 1390   0.834   2.594   0.437 -0.6919 -0.2951 -0.2041
  464SOL    HW1 1391   0.916   2.603   0.375  1.3528  0.9140 -0.2546
  464SOL    HW2 1392   0.810   2.498   0.468  0.7349 -1.1580  1.9429
  465SOL     OW 1393   2.224   0.299   0.835 -0.1631  0.2792 -0.2603
  465SOL    HW1 1394   2.154   0.282   0.909  1.5436  0.1578  0.2255
  465SOL    HW2 1395   2.196   0.366   0.762  1.0299  3.0626  0.5736
  466SOL     OW 1396   2.111   0.299   0.495 -0.3992  0.0879 -0.0457
  466SOL    HW1 1397   2.023   0.260   0.534  0.4046 -0.2624  0.5907
  466SOL    HW2 1398   2.154   0.252   0.420  0.9293 -2.2442  0.2966
  467SOL     OW 1399   1.138   0.446   1.869  0.2403 -0.4890  0.5485
  467SOL    HW1 1400   1.204   0.493   1.924  0.2742 -1.2005 -1.5405
  467SOL    HW2 1401   1.124   0.347   1.894  0.4508  0.0469 -0.5697
  468SOL     OW 1402   2.734   0.372   1.819  0.4098  0.5771  0.3192
  468SOL    HW1 1403   2.660   0.333   1.757 -1.4383 -2.9302  2.0815
  468SOL    HW2 1404   2.689   0.418   1.896 -1.4542 -0.1024 -2.9079
  469SOL     OW 1405   1.050   2.230   2.266  0.2639  0.3674 -0.6154
  469SOL    HW1 1406   1.005   2.146   2.315 -1.7412 -0.6522 -0.3042
  469SOL    HW2 1407   1.104   2.193   2.190  1.3663  1.4395 -0.2771
  470SOL     OW 1408   1.932   1.108   1.849  0.4843  0.0459  0.8373
  470SOL    HW1 1409   2.032   1.114   1.832  2.3265 -0.2409  1.7562
  470SOL    HW2 1410   1.918   1.047   1.927  2.1430 -1.2222 -2.0630
  471SOL     OW 1411   2.804   1.670   3.072  0.0638  0.1100  0.0167
  471SOL    HW1 1412   2.903   1.681   3.049  0.9983 -2.9252 -0.2864
  471SOL    HW2 1413   2.779   1.572   3.096 -1.6978 -1.0935  0.5768
  472SOL     OW 1414   0.411   2.679   0.433 -0.1173  0.3841 -0.1095
  472SOL    HW1 1415   0.443   2.635   0.520 -1.4111  0.5872  0.6018
  472SOL    HW2 1416   0.485   2.752   0.411  3.7685 -0.3472 -1.6527
  473SOL     OW 1417   1.136   2.479   2.235 -0.0243 -0.1510  0.6180
  473SOL    HW1 1418   1.095   2.389   2.250  0.5405  0.1557 -1.6612
  473SOL    HW2 1419   1.214   2.491   2.299 -1.3111 -1.5371 -1.9138
  474SOL     OW 1420   1.375   3.106   2.603 -0.5889  0.6551  0.1195
  474SOL    HW1 1421   1.389   3.083   2.700 -0.2773 -3.1207  1.4902
  474SOL    HW2 1422   1.334   3.031   2.551  0.4493  0.7954 -2.3699
  475SOL     OW 1423   1.051   2.551   0.258  1.3460  0.0620  0.2842
  475SOL    HW1 1424   1.067   2.557   0.158 -1.1192 -2.1009  3.7001
  475SOL    HW2 1425   1.135   2.516   0.300 -3.0685 -0.7769 -2.6615
  476SOL     OW 1426   0.445   0.460   1.017  0.7732  0.2441 -0.4506
  476SOL    HW1 1427   0.470   0.471   1.112  0.5577 -0.8187 -1.6908
  476SOL    HW2 1428   0.498   0.527   0.961  0.1984  1.6374  0.9000
  477SOL     OW 1429   1.883   2.093   1.498 -0.0015 -0.0827  0.1112
  477SOL    HW1 1430   1.855   2.185   1.478  1.0579 -0.4146  3.5561
  477SOL    HW2 1431   1.990   2.081   1.495  2.5328  0.1009 -1.3402
  478SOL     OW 1432   2.990   0.748   2.987 -0.6709  0.4849 -0.1355
  478SOL    HW1 1433   2.957   0.686   3.064 -1.2284 -0.2050  0.6998
  478SOL    HW2 1434   3.075   0.718   2.936  1.7814 -0.1311 -0.6793
  479SOL     OW 1435   0.706   2.974   0.847  0.4374 -0.6258 -0.4025
  479SOL    HW1 1436   0.767   2.908   0.894 -0.3945  0.5490  1.2280
  479SOL    HW2 1437   0.753   3.049   0.793  0.9231  4.4023 -1.1504
  480SOL     OW 1438   2.644   2.820   0.510 -0.5410 -0.0724  0.2677
  480SOL    HW1 1439   2.677   2.909   0.467  2.1919  2.4484  0.1125
  480SOL    HW2 1440   2.645   2.747   0.442 -1.9124  0.6323  0.7045
  481SOL     OW 1441   2.769   0.455   1.321  0.2458 -0.2487  0.1228
  481SOL    HW1 1442   2.745   0.353   1.307  1.0728 -2.8370 -1.7081
  481SOL    HW2 1443   2.857   0.469   1.367 -0.8975 -2.6722  0.7181
  482SOL     OW 1444   1.087   2.815   1.139  0.2849  0.0709  0.3310
  482SOL    HW1 1445   1.162   2.764   1.089  0.4828 -0.0734 -2.7575
  482SOL    HW2 1446   1.100   2.917   1.123 -1.5465 -1.5900  0.1828
  483SOL     OW 1447   0.294   1.254   2.792  0.3378 -0.1611 -0.1396
  483SOL    HW1 1448   0.263   1.336   2.837 -1.0022 -2.4909  0.3891
  483SOL    HW2 1449   0.237   1.172   2.818  0.7770 -1.7561  0.9051
  484SOL     OW 1450   1.645   1.501   2.024  0.1316  0.3271 -0.1347
  484SOL    HW1 1451   1.718   1.433   2.011  0.6767  0.5840 -2.5777
  484SOL    HW2 1452   1.649   1.530   2.120 -0.6947 -0.4967 -1.1352
  485SOL     OW 1453   0.074   3.013   2.502  0.3627 -0.1334 -0.4395
  485SOL    HW1 1454   0.007   2.963   2.561 -1.1480 -0.3727 -0.6620
  485SOL    HW2 1455   0.165   2.962   2.517  0.1338  0.8863 -1.6258
  486SOL     OW 1456   1.529   2.979   0.544 -0.3718 -1.0462  0.3602
  486SOL    HW1 1457   1.587   2.934   0.617  0.9724  1.2430  3.0255
  486SOL    HW2 1458   1.579   3.000   0.456 -0.2515  2.0661 -0.0409
  487SOL     OW 1459   1.578   3.037   1.026 -0.0567 -0.0939  0.0533
  487SOL    HW1 1460   1.592   3.097   1.110 -0.7303 -1.3931 -0.8820
  487SOL    HW2 1461   1.650   3.060   0.955  1.0533 -0.0389  4.1290
  488SOL     OW 1462   2.276   0.968   0.806  0.4612  0.6017  0.0743
  488SOL    HW1 1463   2.225   1.033   0.868  0.0553  3.5800  1.1319
  488SOL    HW2 1464   2.224   0.883   0.776 -2.4817 -2.8112 -1.2472
  489SOL     OW 1465   1.160   3.066   1.378 -0.0684  0.2980  0.7479
  489SOL    HW1 1466   1.072   3.032   1.416 -0.3636  1.6065  0.3996
  489SOL    HW2 1467   1.161   3.048   1.277 -0.7488 -0.8684  2.0499
  490SOL     OW 1468   0.900   0.908   0.505  0.6272 -0.8252 -0.1514
  490SOL    HW1 1469   0.853   0.952   0.582  2.8687  0.8516 -1.5768
  490SOL    HW2 1470   0.977   0.852   0.541 -0.2022  3.4727 -0.1851
  491SOL     OW 1471   1.225   2.916   0.338  0.8484 -0.0526 -0.4580
  491SOL    HW1 1472   1.266   2.890   0.429 -1.0477  1.9515  0.4733
  491SOL    HW2 1473   1.268   2.866   0.262 -0.7137  3.4882 -0.9680
  492SOL     OW 1474   0.921   1.503   1.909 -0.5377  0.1292  0.2423
  492SOL    HW1 1475   0.975   1.507   2.001  1.7033 -0.0658 -1.0612
  492SOL    HW2 1476   0.972   1.453   1.838 -0.1452  0.9903  1.6726
  493SOL     OW 1477   0.090   2.005   0.245 -0.1234 -0.0517 -0.5011
  493SOL    HW1 1478   0.165   2.064   0.207 -0.6094 -1.5574  0.2469
  493SOL    HW2 1479   0.052   2.038   0.332  0.5561  0.4046 -1.6457
  494SOL     OW 1480   1.842   1.623   0.284 -0.1534 -0.0661  0.1701
  494SOL    HW1 1481   1.802   1.637   0.375  2.1342  0.3006 -0.0050
  494SOL    HW2 1482   1.805   1.537   0.239 -2.7121 -1.3804 -0.9547
  495SOL     OW 1483   0.350   0.932   2.544  0.0834  0.3159  0.1763
  495SOL    HW1 1484   0.308   0.917   2.452 -1.9389  1.5729 -1.1969
  495SOL    HW2 1485   0.433   0.990   2.535 -0.8430  1.5860  0.4226
  496SOL     OW 1486   0.151   0.085   2.310 -0.2960  0.4810  0.2762
  496SOL    HW1 1487   0.125   0.023   2.387  0.2757 -1.3604 -2.4013
  496SOL    HW2 1488   0.250   0.103   2.308 -1.1811 -0.8481  0.0132
  497SOL     OW 1489   1.798   1.100   0.556 -0.7396 -0.1127 -0.2768
  497SOL    HW1 1490   1.872   1.159   0.516  0.0828 -0.6739 -1.4380
  497SOL    HW2 1491   1.765   1.037   0.482  0.4033 -1.5759  1.2433
  498SOL     OW 1492   2.759   2.853   2.906 -0.5616  0.2213 -0.2454
  498SOL    HW1 1493   2.733   2.766   2.953  1.5118 -1.6118  0.1614
  498SOL    HW2 1494   2.708   2.870   2.820 -0.1517  0.5535  0.9948
  499SOL     OW 1495   1.985   2.793   0.596 -0.2253 -0.3770 -0.2694
  499SOL    HW1 1496   2.038   2.877   0.562  0.0136  1.2910 -0.5053
  499SOL    HW2 1497   2.008   2.709   0.547  0.5713  2.1297 -0.5656
  500SOL     OW 1498   1.038   0.707   2.713 -0.0073 -0.2468 -0.3304
  500SOL    HW1 1499   1.009   0.662   2.628  1.3166 -0.6788  2.7214
  500SOL    HW2 1500   1.131   0.749   2.715 -2.6846  1.8797  0.6282
  501SOL     OW 1501   1.387   3.046   1.518  0.2774 -0.6185 -0.2117
  501SOL    HW1 1502   1.364   3.109   1.597 -0.1897 -2.5771 -0.3049
  501SOL    HW2 1503   1.310   3.033   1.454  1.4262  0.0321 -1.2352
  502SOL     OW 1504   0.005   0.140   1.923  0.2919 -0.1004 -0.2918
  502SOL    HW1 1505   0.074   0.084   1.973  0.9235 -1.5315 -1.1220
  502SOL    HW2 1506   0.049   0.150   1.832  0.2160 -0.7948  1.9238
  503SOL     OW 1507   1.734   2.301   2.136 -0.0252  0.4518 -0.4114
  503SOL    HW1 1508   1.795   2.357   2.196 -0.1161 -2.0397 -0.3857
  503SOL    HW2 1509   1.768   2.209   2.121  0.1973  0.0053  2.1311
  504SOL     OW 1510   2.144   0.165   1.715  0.5681 -0.1981 -0.0099
  504SOL    HW1 1511   2.111   0.249   1.663 -3.1629  0.5117  0.1886
  504SOL    HW2 1512   2.058   0.115   1.742  0.4093 -0.7697  0.3485
  505SOL     OW 1513   2.810   1.761   1.687  0.3477 -0.0718  0.0073
  505SOL    HW1 1514   2.823   1.666   1.651 -1.3228 -0.1547 -0.4227
  505SOL    HW2 1515   2.725   1.760   1.747 -2.2144 -1.1545  4.7867
  506SOL     OW 1516   0.153   1.332   2.268 -0.0276  0.7372 -0.2680
  506SOL    HW1 1517   0.144   1.325   2.367 -2.3546 -0.6613 -1.7650
  506SOL    HW2 1518   0.129   1.249   2.210 -0.1622 -2.4099  0.1497
  507SOL     OW 1519   0.227   2.819   1.260  0.3480  0.3596  0.1622
  507SOL    HW1 1520   0.222   2.844   1.161 -1.7570 -0.4457  1.3853
  507SOL    HW2 1521   0.193   2.723   1.274 -2.2969 -0.5768 -0.5757
  508SOL     OW 1522   1.402   0.668   1.347  0.1581 -0.3010  0.2647
  508SOL    HW1 1523   1.357   0.612   1.275  0.3856  1.5117  1.4203
  508SOL    HW2 1524   1.404   0.607   1.427  2.1622  1.0079  0.7623
  509SOL     OW 1525   1.728   2.307   1.872 -0.4395 -0.4463 -0.2017
  509SOL    HW1 1526   1.749   2.405   1.843  1.0491  3.0555  0.8374
  509SOL    HW2 1527   1.737   2.292   1.973 -0.1501 -2.1455  1.2941
  510SOL     OW 1528   2.461   1.467   3.009  0.0470 -0.1372  0.0908
  510SOL    HW1 1529   2.450   1.512   3.100 -0.2396 -0.2486 -0.2915
  510SOL    HW2 1530   2.373   1.418   2.982 -0.4520  0.0749  1.2392
  511SOL     OW 1531   0.406   1.482   1.618  0.4493  0.0988 -0.1218
  511SOL    HW1 1532   0.351   1.412   1.669 -0.1926  0.8222 -1.2853
  511SOL    HW2 1533   0.467   1.443   1.547  2.3886  1.2197  2.1370
  512SOL     OW 1534   2.519   2.422   0.260 -0.1528  0.1944 -0.7649
  512SOL    HW1 1535   2.590   2.498   0.272  1.4196  0.3283  4.1261
  512SOL    HW2 1536   2.550   2.334   0.297 -1.2560  0.8000 -1.4776
  513SOL     OW 1537   0.840   1.717   2.403 -0.5295 -0.0685 -0.7380
  513SOL    HW1 1538   0.944   1.721   2.385  2.7277  0.4942 -2.2154
  513SOL    HW2 1539   0.816   1.765   2.490  0.8080  0.1407  4.9338
  514SOL     OW 1540   0.331   2.192   2.267  0.0164 -0.4976  0.0656
  514SOL    HW1 1541   0.312   2.101   2.230 -0.2227 -0.0293  4.8490
  514SOL    HW2 1542   0.237   2.236   2.281 -1.3004  0.8226 -2.2302
  515SOL     OW 1543   1.839   1.157   1.597 -0.1737  0.9840 -0.2954
  515SOL    HW1 1544   1.879   1.136   1.689  2.7728 -1.6327  2.2316
  515SOL    HW2 1545   1.895   1.232   1.553  0.3343  1.3117  1.0518
  516SOL     OW 1546   1.945   2.502   0.192  0.8161 -0.2737  0.5151
  516SOL    HW1 1547   1.998   2.575   0.143  0.3438 -0.1571  0.7212
  516SOL    HW2 1548   1.998   2.414   0.183  0.5633 -1.1294  2.8761
  517SOL     OW 1549   0.710   1.595   0.317 -0.5695 -0.9222  0.2343
  517SOL    HW1 1550   0.797   1.628   0.275  2.0552  0.2525 -0.0896
  517SOL    HW2 1551   0.707   1.495   0.331 -0.6098 -0.0244  1.1089
  518SOL     OW 1552   2.026   2.528   1.602 -0.3549  0.0327 -0.6318
  518SOL    HW1 1553   2.057   2.610   1.549 -2.7196  0.4724 -0.5130
  518SOL    HW2 1554   2.000   2.455   1.533 -2.2232  0.4833  2.5110
  519SOL     OW 1555   2.186   2.388   1.175 -0.3610 -0.0395 -0.1741
  519SOL    HW1 1556   2.254   2.452   1.136 -1.6110 -2.2325  0.9009
  519SOL    HW2 1557   2.105   2.383   1.112  1.8576 -1.0136  0.3488
  520SOL     OW 1558   0.032   2.277   2.595 -0.4418  0.2907 -0.9740
  520SOL    HW1 1559   0.016   2.177   2.614  0.2638 -0.4978 -2.5819
  520SOL    HW2 1560   0.056   2.298   2.499  1.6303  0.9538 -3.4638
  521SOL     OW 1561   2.511   1.154   2.465  0.1438  0.4203  0.4469
  521SOL    HW1 1562   2.456   1.126   2.548 -0.4381 -1.0810 -1.1407
  521SOL    HW2 1563   2.480   1.243   2.427 -0.7890  1.2623  0.6918
  522SOL     OW 1564   0.762   0.675   2.338  0.3612  0.2615 -0.1791
  522SOL    HW1 1565   0.848   0.660   2.386  0.6507  1.6434  0.0146
  522SOL    HW2 1566   0.743   0.601   2.270  1.9057  0.8492  3.8070
  523SOL     OW 1567   0.116   2.141   0.974  0.1228 -0.1498 -0.5232
  523SOL    HW1 1568   0.213   2.169   0.947 -1.0998  1.6564 -0.1462
  523SOL    HW2 1569   0.096   2.204   1.049 -0.1747 -3.7044  0.9836
  524SOL     OW 1570   2.022   2.728   0.070  0.1535  0.1075 -0.1416
  524SOL    HW1 1571   2.081   2.776   0.139 -1.0487  1.0304 -2.4853
  524SOL    HW2 1572   2.066   2.748   3.095 -0.3569  1.2272 -0.2111
  525SOL     OW 1573   2.428   0.535   1.548 -0.0889 -0.4600 -0.0346
  525SOL    HW1 1574   2.485   0.580   1.477  0.5133 -1.6156 -1.2017
  525SOL    HW2 1575   2.365   0.477   1.496 -1.5648  1.0318  1.2113
  526SOL     OW 1576   0.890   2.722   0.694  0.6389 -0.2901  0.0113
  526SOL    HW1 1577   0.873   2.698   0.601 -0.7221 -1.5245  0.3453
  526SOL    HW2 1578   0.814   2.685   0.754 -0.5686 -4.3475 -3.9275
  527SOL     OW 1579   2.351   3.054   0.536 -0.3276  0.0018  0.0048
  527SOL    HW1 1580   2.425   3.066   0.609 -0.6670  1.5888  0.3054
  527SOL    HW2 1581   2.381   2.994   0.455 -1.8733  2.5429 -0.4105
  528SOL     OW 1582   1.538   0.764   0.303 -0.0277 -0.2098  0.2273
  528SOL    HW1 1583   1.453   0.819   0.329  1.0269  0.8749 -1.9071
  528SOL    HW2 1584   1.556   0.688   0.368 -2.2231 -0.3274 -1.1334
  529SOL     OW 1585   1.431   1.450   2.409 -0.0568  0.2042 -0.2580
  529SOL    HW1 1586   1.374   1.527   2.444  1.2820 -2.4377 -1.7936
  529SOL    HW2 1587   1.398   1.418   2.312 -0.7463  0.4092 -2.2675
  530SOL     OW 1588   2.371   0.366   0.197  0.0963 -0.2429 -0.0703
  530SOL    HW1 1589   2.337   0.459   0.225  0.8523  0.9051  1.1899
  530SOL    HW2 1590   2.312   0.290   0.232  2.2717 -0.6788 -2.0069
  531SOL     OW 1591   1.581   0.894   2.810  0.3361 -0.8570 -0.4303
  531SOL    HW1 1592   1.654   0.868   2.742  0.9403 -0.4646  2.6697
  531SOL    HW2 1593   1.509   0.818   2.823 -0.5409  2.0895 -0.5587
  532SOL     OW 1594   1.448   0.426   0.785  0.2714  0.3472  0.5176
  532SOL    HW1 1595   1.350   0.437   0.805  1.3100  0.1690 -1.0772
  532SOL    HW2 1596   1.499   0.509   0.815 -0.6186 -1.9753  1.1042
  533SOL     OW 1597   0.449   0.717   2.669  0.2124 -0.0415  0.4164
  533SOL    HW1 1598   0.415   0.797   2.615 -0.5246 -1.7028 -0.4634
  533SOL    HW2 1599   0.371   0.656   2.686  1.3156 -0.6797 -0.9632
  534SOL     OW 1600   1.648   0.206   2.761 -0.1733 -0.1951 -0.3297
  534SOL    HW1 1601   1.672   0.131   2.826  0.1970  0.6441 -0.6483
  534SOL    HW2 1602   1.552   0.229   2.759  2.5355  1.7551 -1.7036
  535SOL     OW 1603   0.430   2.874   2.938  0.3003 -0.3955 -0.3207
  535SOL    HW1 1604   0.384   2.796   2.890  0.2002 -0.1168  1.8978
  535SOL    HW2 1605   0.362   2.951   2.936  1.2402 -0.7626 -0.6424
  536SOL     OW 1606   0.753   0.075   0.258  0.1275 -0.1960 -0.1757
  536SOL    HW1 1607   0.776   0.150   0.324  1.7198  2.3787  2.8540
  536SOL    HW2 1608   0.830   0.013   0.257  1.8037  2.0538  1.4252
  537SOL     OW 1609   1.598   0.248   0.173 -0.0896 -0.1395  0.0140
  537SOL    HW1 1610   1.595   0.259   0.072  2.0979 -0.5634  1.2055
  537SOL    HW2 1611   1.509   0.292   0.210 -0.6622  0.4798 -1.6769
  538SOL     OW 1612   2.838   2.061   2.896 -0.2787  0.3473  1.0398
  538SOL    HW1 1613   2.917   2.010   2.941  1.0801  1.5719 -0.7715
  538SOL    HW2 1614   2.783   2.109   2.963  1.2431 -0.6731 -0.8387
  539SOL     OW 1615   2.264   2.140   3.065 -0.4409 -0.0277  0.1084
  539SOL    HW1 1616   2.191   2.079   3.024 -2.3711 -0.0329  0.0374
  539SOL    HW2 1617   2.347   2.089   3.102 -1.5826 -0.3684 -0.5865
  540SOL     OW 1618   0.843   2.676   1.834 -1.0030 -0.6722 -0.2983
  540SOL    HW1 1619   0.870   2.640   1.927  1.0434 -1.3574  0.8465
  540SOL    HW2 1620   0.902   2.645   1.755  1.1026 -2.6758 -1.3815
  541SOL     OW 1621   2.508   0.082   2.351 -0.9203 -0.3019 -0.1253
  541SOL    HW1 1622   2.548   0.102   2.263 -0.8795 -0.9686  0.8888
  541SOL    HW2 1623   2.440   0.153   2.375  0.2264 -0.6844  0.0633
  542SOL     OW 1624   0.097   0.596   2.856  0.3516  0.0869  0.0695
  542SOL    HW1 1625   0.165   0.589   2.784 -0.3091 -0.1003  1.9951
  542SOL    HW2 1626   0.010   0.547   2.831 -0.9046 -2.8227 -0.4478
  543SOL     OW 1627   0.288   0.752   1.098  0.1601  0.2848  0.5104
  543SOL    HW1 1628   0.290   0.758   0.995 -2.4107 -0.1723  1.0619
  543SOL    HW2 1629   0.193   0.736   1.131  1.2540  0.1424 -0.2953
  544SOL     OW 1630   2.575   0.629   1.337 -0.3586  0.0174  0.1857
  544SOL    HW1 1631   2.647   0.556   1.336  0.6330  1.6215  1.1472
  544SOL    HW2 1632   2.600   0.703   1.402 -3.4274 -1.3715 -0.8955
  545SOL     OW 1633   1.450   2.103   0.600 -0.0269 -0.0871  0.0780
  545SOL    HW1 1634   1.357   2.057   0.593 -1.2224 -0.3521 -0.5747
  545SOL    HW2 1635   1.464   2.126   0.702  1.0872  0.3471  0.3088
  546SOL     OW 1636   2.347   2.703   1.352 -0.1172  0.2932 -0.5993
  546SOL    HW1 1637   2.368   2.634   1.424 -1.3681  2.7600  2.1178
  546SOL    HW2 1638   2.349   2.673   1.255  1.2625 -1.4300 -4.0569
  547SOL     OW 1639   0.552   2.505   2.566  0.2965  0.0617 -0.2808
  547SOL    HW1 1640   0.552   2.403   2.561 -0.5049  1.5763  1.4237
  547SOL    HW2 1641   0.627   2.539   2.622 -2.6554  1.4162  1.5737
  548SOL     OW 1642   1.415   0.632   2.797 -0.0677  0.5472  0.3510
  548SOL    HW1 1643   1.355   0.596   2.870 -2.5643  0.5763 -1.7848
  548SOL    HW2 1644   1.498   0.569   2.784 -1.2026  0.5422  0.4291
  549SOL     OW 1645   2.686   1.115   0.266 -0.1625  0.2607  0.5058
  549SOL    HW1 1646   2.675   1.152   0.359  4.3942  1.0374 -3.6969
  549SOL    HW2 1647   2.702   1.014   0.280  0.9471 -1.2007  2.8190
  550SOL     OW 1648   2.026   1.815   0.637 -0.0092  0.1063 -0.3242
  550SOL    HW1 1649   2.065   1.876   0.711  0.1694 -0.3713 -0.0363
  550SOL    HW2 1650   2.094   1.745   0.607 -0.2156 -0.9807 -1.6461
  551SOL     OW 1651   1.297   0.028   0.911  0.0879 -0.1158 -0.1022
  551SOL    HW1 1652   1.371   3.074   0.915 -1.6895  0.2840 -1.3452
  551SOL    HW2 1653   1.216   0.005   0.856 -0.4520 -1.7588  1.6973
  552SOL     OW 1654   2.700   2.706   2.201  0.5411  0.3104 -0.2355
  552SOL    HW1 1655   2.622   2.723   2.137  0.3404  1.6681  2.3388
  552SOL    HW2 1656   2.664   2.686   2.295 -0.9978 -1.5120 -0.9305
  553SOL     OW 1657   0.403   3.041   2.202 -0.0916  0.0958  0.9002
  553SOL    HW1 1658   0.432   2.986   2.123 -1.9892 -0.5012 -1.3606
  553SOL    HW2 1659   0.451   2.998   2.283 -1.3159 -0.2572  0.4816
  554SOL     OW 1660   0.517   2.986   1.037 -0.1330  0.1326 -0.0459
  554SOL    HW1 1661   0.481   3.081   1.033  2.0166 -2.8641  0.5220
  554SOL    HW2 1662   0.572   2.964   0.956  0.7778  0.5660  1.9108
  555SOL     OW 1663   2.609   2.080   2.228  0.0364  0.2373 -0.0821
  555SOL    HW1 1664   2.504   2.085   2.225 -2.9967  1.4803 -1.2765
  555SOL    HW2 1665   2.637   2.177   2.237 -1.0343  1.1979 -0.9547
  556SOL     OW 1666   1.135   0.269   2.718  0.3018  0.4408  0.1517
  556SOL    HW1 1667   1.095   0.319   2.796  1.4106 -1.3200 -1.7595
  556SOL    HW2 1668   1.117   0.303   2.624  0.9682 -1.1326  0.9685
  557SOL     OW 1669   0.376   1.807   2.236 -0.2530  0.4666 -0.1085
  557SOL    HW1 1670   0.343   1.871   2.163 -0.0863 -2.1003 -0.1789
  557SOL    HW2 1671   0.474   1.813   2.229 -2.5821  1.5809  0.8110
  558SOL     OW 1672   2.407   1.031   0.004  0.0374 -0.1751 -0.1385
  558SOL    HW1 1673   2.412   0.991   3.027  0.9875 -1.8492  0.2260
  558SOL    HW2 1674   2.436   0.968   0.080 -0.3049 -0.9533  1.8180
  559SOL     OW 1675   2.365   1.781   1.873 -0.0534 -0.6521 -0.3531
  559SOL    HW1 1676   2.396   1.834   1.796 -0.6457  0.7295  0.0506
  559SOL    HW2 1677   2.270   1.743   1.864  0.9030  1.6293  1.2460
  560SOL     OW 1678   2.413   0.952   1.900 -0.4751 -0.0698  0.3709
  560SOL    HW1 1679   2.378   0.856   1.884  0.7747  0.4053  0.4038
  560SOL    HW2 1680   2.493   0.952   1.962  0.0837  0.5570  0.4950
  561SOL     OW 1681   3.107   2.994   2.902  0.1499 -0.1809  0.3698
  561SOL    HW1 1682   3.066   3.067   2.841 -0.4932  1.2500  0.2793
  561SOL    HW2 1683   3.090   2.902   2.854 -0.4082 -1.8184 -2.7274
  562SOL     OW 1684   1.107   1.367   1.428 -0.5268  0.0003  0.2206
  562SOL    HW1 1685   1.186   1.390   1.488  0.0473  2.2994 -1.1619
  562SOL    HW2 1686   1.031   1.434   1.444  0.8819 -0.1803 -0.1541
  563SOL     OW 1687   1.149   0.021   2.865 -0.0002 -0.2048 -0.0237
  563SOL    HW1 1688   1.247   3.112   2.881 -0.6836  1.4172 -2.0880
  563SOL    HW2 1689   1.138   0.101   2.801 -2.8932 -1.3503  0.8510
  564SOL     OW 1690   3.074   2.117   0.728  0.1747  0.0388  0.3328
  564SOL    HW1 1691   0.024   2.131   0.801 -1.1984  0.0779  0.3756
  564SOL    HW2 1692   2.984   2.098   0.770  0.4904 -1.8354  1.8285
  565SOL     OW 1693   0.613   2.044   1.174 -0.2441 -0.2238 -0.3620
  565SOL    HW1 1694   0.563   2.114   1.231  1.5094  0.7117 -0.7335
  565SOL    HW2 1695   0.642   1.962   1.228  1.2462 -0.1044  0.2397
  566SOL     OW 1696   1.548   2.743   2.206  0.2271  0.2163 -0.1354
  566SOL    HW1 1697   1.496   2.666   2.161  0.2122 -1.4942 -1.3184
  566SOL    HW2 1698   1.584   2.717   2.297 -1.4886  0.9789 -0.8991
  567SOL     OW 1699   2.294   2.741   0.886 -0.0006 -0.6794  0.4758
  567SOL    HW1 1700   2.322   2.828   0.930 -1.8221  1.0913 -0.4105
  567SOL    HW2 1701   2.366   2.722   0.813 -0.4633 -0.7315 -0.9291
  568SOL     OW 1702   1.565   1.212   0.573 -0.4037  0.1657  0.1303
  568SOL    HW1 1703   1.496   1.171   0.637 -0.8369 -1.1547  0.5634
  568SOL    HW2 1704   1.653   1.162   0.588 -0.3840 -1.9154  0.5997
  569SOL     OW 1705   0.194   1.860   2.662  0.1760 -0.1201 -0.0009
  569SOL    HW1 1706   0.209   1.850   2.763  0.5158 -2.0448 -1.0008
  569SOL    HW2 1707   0.099   1.831   2.646  2.1679  1.7620 -0.1859
  570SOL     OW 1708   3.113   0.177   1.424  0.0579  0.1165 -0.0054
  570SOL    HW1 1709   0.040   0.179   1.328  2.4509  0.7659 -2.4074
  570SOL    HW2 1710   3.072   0.081   1.440 -0.9314 -1.2116  1.5610
  571SOL     OW 1711   0.364   0.351   1.667 -0.0995 -0.1422 -0.1214
  571SOL    HW1 1712   0.419   0.317   1.743  1.7337 -0.7934 -0.5120
  571SOL    HW2 1713   0.352   0.453   1.677 -0.6048  0.6800 -1.0534
  572SOL     OW 1714   0.157   2.542   1.325 -0.0222  0.1835  0.3440
  572SOL    HW1 1715   0.123   2.466   1.264 -1.8652 -1.0559 -0.0906
  572SOL    HW2 1716   0.088   2.562   1.395  3.1110 -1.5838 -0.7731
  573SOL     OW 1717   1.089   0.513   0.054 -0.0617  0.2170  0.3775
  573SOL    HW1 1718   1.037   0.591   0.012  0.7482  2.0657  1.1035
  573SOL    HW2 1719   1.030   0.432   0.065  1.9523  0.9181 -0.0554
  574SOL     OW 1720   2.497   3.044   0.260 -0.2442 -0.1700  0.2205
  574SOL    HW1 1721   2.560   2.970   0.233  1.3921 -1.4049 -0.9437
  574SOL    HW2 1722   2.525   0.018   0.216 -1.5387 -0.1131  0.5166
  575SOL     OW 1723   1.576   2.339   1.303 -0.1610 -0.5919 -0.7172
  575SOL    HW1 1724   1.565   2.245   1.344  2.2510 -1.7503 -1.7211
  575SOL    HW2 1725   1.511   2.356   1.226  0.7258 -1.0243 -1.4751
  576SOL     OW 1726   1.125   3.075   1.109 -0.6620 -0.8527 -0.1317
  576SOL    HW1 1727   1.192   0.009   1.054 -0.8640 -1.0036 -2.6044
  576SOL    HW2 1728   1.030   3.094   1.086  1.6441 -2.3485  0.3626
  577SOL     OW 1729   2.564   1.333   0.942  0.0461 -0.4053 -0.5117
  577SOL    HW1 1730   2.611   1.361   0.853 -0.1496  3.5778 -1.1060
  577SOL    HW2 1731   2.521   1.244   0.937  2.7749  2.8304  0.4480
  578SOL     OW 1732   1.472   0.283   0.538 -0.4669 -0.2284 -0.5857
  578SOL    HW1 1733   1.465   0.355   0.608  2.7314 -0.3223 -0.3247
  578SOL    HW2 1734   1.557   0.224   0.550  3.1353  0.7944 -2.1875
  579SOL     OW 1735   2.102   0.564   3.090  0.1519 -0.2676 -0.2963
  579SOL    HW1 1736   2.199   0.547   3.073  0.8081 -0.9594 -0.8936
  579SOL    HW2 1737   2.048   0.489   3.057  1.1822  0.7613 -1.6790
  580SOL     OW 1738   1.705   0.705   2.212  0.0965  0.3967 -0.0443
  580SOL    HW1 1739   1.767   0.660   2.276 -0.8082  0.7937 -2.1042
  580SOL    HW2 1740   1.621   0.736   2.257  0.3148 -1.2665  1.3325
  581SOL     OW 1741   0.305   0.722   0.831 -0.1294 -0.2938 -0.3003
  581SOL    HW1 1742   0.393   0.669   0.839  2.6186 -2.2842 -0.6820
  581SOL    HW2 1743   0.304   0.788   0.759 -0.8342 -1.0963  0.6073
  582SOL     OW 1744   2.848   0.145   1.931 -0.2289  0.1530  0.3306
  582SOL    HW1 1745   2.818   0.229   1.882 -1.0459  1.9110  2.1715
  582SOL    HW2 1746   2.950   0.158   1.933  1.0444  0.0748  2.0672
  583SOL     OW 1747   0.314   0.543   2.292 -0.8279  0.2174 -0.1755
  583SOL    HW1 1748   0.369   0.488   2.363  2.2134  2.3113  0.2225
  583SOL    HW2 1749   0.327   0.488   2.202  0.1589 -0.7275 -0.0444
  584SOL     OW 1750   1.515   2.068   3.055 -0.0681  0.2571  0.2300
  584SOL    HW1 1751   1.562   2.048   2.967  1.1929  0.9264  1.7565
  584SOL    HW2 1752   1.529   2.160   3.096  0.4115  0.5068  2.8754
  585SOL     OW 1753   0.253   2.647   2.871 -0.1733  0.0377 -0.2909
  585SOL    HW1 1754   0.166   2.631   2.914  2.6931  0.6831  1.0633
  585SOL    HW2 1755   0.323   2.600   2.928  1.0757  2.9369 -1.1857
  586SOL     OW 1756   1.705   1.794   2.641  0.0199  0.0914 -0.5184
  586SOL    HW1 1757   1.757   1.852   2.574  1.3678  1.6422 -0.3901
  586SOL    HW2 1758   1.737   1.696   2.632  0.6754 -0.9208  0.5398
  587SOL     OW 1759   2.402   2.366   2.992  0.0830 -0.7025  0.3433
  587SOL    HW1 1760   2.395   2.453   3.040  0.9632 -2.7016 -2.0134
  587SOL    HW2 1761   2.365   2.292   3.047  1.0237  1.6033  1.5912
  588SOL     OW 1762   3.020   0.375   0.979  0.0395 -0.5149  0.1253
  588SOL    HW1 1763   2.968   0.393   0.897  0.2053 -1.6737  0.2494
  588SOL    HW2 1764   0.001   0.390   0.960 -0.8337  1.1304  1.2389
  589SOL     OW 1765   0.877   0.657   0.261 -0.7033  0.1332  0.4594
  589SOL    HW1 1766   0.937   0.740   0.249 -0.1066 -0.8011  1.6441
  589SOL    HW2 1767   0.811   0.635   0.185 -0.0216  0.5770  0.3163
  590SOL     OW 1768   2.109   2.261   0.368 -0.2537  0.4407  0.1254
  590SOL    HW1 1769   2.144   2.178   0.412 -2.3646  0.4421  0.0240
  590SOL    HW2 1770   2.010   2.257   0.340 -1.9305 -0.9998 -1.8882
  591SOL     OW 1771   0.501   2.442   1.213  0.0759 -0.2462 -0.0381
  591SOL    HW1 1772   0.469   2.457   1.118  3.4184 -0.8269 -0.6671
  591SOL    HW2 1773   0.551   2.522   1.246  0.9901 -1.7275  1.9741
  592SOL     OW 1774   1.278   0.487   1.181  0.5601  0.2564  0.3604
  592SOL    HW1 1775   1.200   0.476   1.247 -0.6475 -1.6731 -0.8495
  592SOL    HW2 1776   1.257   0.452   1.086  0.3117  0.7255  2.6118
  593SOL     OW 1777   0.889   1.628   1.332 -0.0103 -0.4029  0.1017
  593SOL    HW1 1778   0.830   1.546   1.350  0.2097  0.5602 -0.8136
  593SOL    HW2 1779   0.971   1.628   1.398  2.9199  0.7284  1.2957
  594SOL     OW 1780   1.057   2.118   0.390 -0.1126  0.0147  0.6142
  594SOL    HW1 1781   1.056   2.095   0.289 -1.3117 -1.8371  1.5532
  594SOL    HW2 1782   0.964   2.104   0.430  0.3185 -3.5260  2.1724
  595SOL     OW 1783   1.609   0.869   1.363  0.3976 -0.2011  0.8631
  595SOL    HW1 1784   1.644   0.887   1.458 -0.7255  2.3472  1.6828
  595SOL    HW2 1785   1.536   0.797   1.377 -1.6969 -1.4156 -0.6299
  596SOL     OW 1786   2.901   0.813   1.618  0.0950 -0.1319 -0.1400
  596SOL    HW1 1787   2.920   0.870   1.700 -1.3266  0.2340 -3.3053
  596SOL    HW2 1788   2.953   0.842   1.536  1.9990  0.2563 -2.1199
  597SOL     OW 1789   0.817   2.343   2.415  0.0383  1.0993 -0.3238
  597SOL    HW1 1790   0.821   2.322   2.514 -0.2349  0.0391 -1.4487
  597SOL    HW2 1791   0.896   2.301   2.368 -1.1362 -0.5130  3.3814
  598SOL     OW 1792   2.613   1.618   1.833 -0.1865  0.8625 -0.3076
  598SOL    HW1 1793   2.532   1.678   1.854  0.6064 -1.0650  0.6164
  598SOL    HW2 1794   2.584   1.537   1.788  1.4295  2.9266  0.6963
  599SOL     OW 1795   0.886   2.843   0.048  0.1909 -0.3077 -0.0017
  599SOL    HW1 1796   0.783   2.820   0.040 -0.6750 -1.2667  0.1751
  599SOL    HW2 1797   0.914   2.941   0.024 -0.6235  1.0708  0.1476
  600SOL     OW 1798   0.051   2.268   3.058  0.4398 -0.2627 -0.3358
  600SOL    HW1 1799   0.024   2.166   3.059 -2.1067 -1.1908  0.8924
  600SOL    HW2 1800   3.103   2.313   2.989 -3.7432 -0.2963 -1.0935
  601SOL     OW 1801   0.456   0.747   1.301  0.1682 -0.0326  0.1911
  601SOL    HW1 1802   0.384   0.745   1.223  0.8475 -0.8566  2.2410
  601SOL    HW2 1803   0.437   0.830   1.354  2.4087  2.1124 -2.5657
  602SOL     OW 1804   0.600   0.347   0.644  0.8521 -0.0444 -0.2242
  602SOL    HW1 1805   0.665   0.387   0.713  0.4769  1.0050  1.1899
  602SOL    HW2 1806   0.537   0.414   0.611  1.6814  0.9509  2.3075
  603SOL     OW 1807   0.347   0.164   2.566  0.3100  0.3468 -0.5806
  603SOL    HW1 1808   0.247   0.157   2.544  0.9907  0.2813  1.2428
  603SOL    HW2 1809   0.360   0.239   2.634 -0.9569 -1.2712  0.8559
  604SOL     OW 1810   0.837   2.760   1.460  0.6188 -0.2129 -0.1101
  604SOL    HW1 1811   0.738   2.735   1.441 -0.4597  0.6694  0.0079
  604SOL    HW2 1812   0.896   2.680   1.437  1.3272  0.3273 -0.2662
  605SOL     OW 1813   1.468   1.045   2.233  0.2850 -0.4626 -0.0358
  605SOL    HW1 1814   1.369   1.059   2.239  1.8210  0.7745 -2.9766
  605SOL    HW2 1815   1.504   1.093   2.147 -0.6912  2.5587 -0.4968
  606SOL     OW 1816   2.121   2.796   2.951  0.2332 -0.4380 -0.3109
  606SOL    HW1 1817   2.070   2.846   2.877  0.3996  0.0821  2.1425
  606SOL    HW2 1818   2.218   2.783   2.924  1.7725  0.9574  0.0708
  607SOL     OW 1819   0.873   0.214   1.191 -0.5577 -0.0429  0.0003
  607SOL    HW1 1820   0.863   0.220   1.293 -2.8715  0.8479  0.4202
  607SOL    HW2 1821   0.882   0.115   1.160 -0.5188 -1.6846 -1.2556
  608SOL     OW 1822   0.185   1.713   2.409  0.0889  0.9381  0.3059
  608SOL    HW1 1823   0.249   1.764   2.348 -1.0936 -1.0695  0.3282
  608SOL    HW2 1824   0.187   1.748   2.502 -0.9338  0.2882  1.4570
  609SOL     OW 1825   1.156   1.184   0.418 -0.3098 -0.6077 -0.0710
  609SOL    HW1 1826   1.237   1.241   0.408 -0.4438  1.0073  0.1128
  609SOL    HW2 1827   1.094   1.188   0.333 -3.2883  0.0451 -1.0747
  610SOL     OW 1828   0.183   0.245   0.880 -0.0812 -0.0418 -0.3034
  610SOL    HW1 1829   0.240   0.184   0.823  1.0316 -2.8303 -0.9973
  610SOL    HW2 1830   0.191   0.222   0.983  0.1992 -0.2642  0.3757
  611SOL     OW 1831   1.163   1.045   0.641  0.4965  0.1303 -0.1256
  611SOL    HW1 1832   1.140   1.104   0.557 -1.8210  0.4298 -1.3168
  611SOL    HW2 1833   1.139   0.948   0.630  1.1501 -0.9857  1.7143
  612SOL     OW 1834   2.056   1.561   0.121 -0.4169 -0.6368  0.0653
  612SOL    HW1 1835   1.999   1.618   0.180  2.6326  0.5729 -1.6002
  612SOL    HW2 1836   2.065   1.467   0.157  0.8742 -2.5792 -1.4703
  613SOL     OW 1837   1.635   1.095   0.099 -0.0540 -0.7012 -0.0214
  613SOL    HW1 1838   1.688   1.069   0.181 -3.5005  0.4854  0.6246
  613SOL    HW2 1839   1.562   1.161   0.126 -1.2834  2.0541 -0.8684
  614SOL     OW 1840   2.728   0.215   2.517 -0.3036  0.5422 -0.4053
  614SOL    HW1 1841   2.800   0.147   2.512  1.4533  1.2345 -0.1215
  614SOL    HW2 1842   2.648   0.187   2.463  0.4222  2.2086  0.0242
  615SOL     OW 1843   0.691   1.984   0.676 -0.0467  0.2900 -0.2948
  615SOL    HW1 1844   0.672   1.899   0.618  0.6395  0.8203  0.3278
  615SOL    HW2 1845   0.637   1.982   0.765  0.3215  0.7481 -1.5121
  616SOL     OW 1846   1.708   0.851   2.574  0.8870  0.4080 -0.2694
  616SOL    HW1 1847   1.667   0.923   2.516  1.1574 -1.0259 -0.2137
  616SOL    HW2 1848   1.809   0.867   2.575 -0.4844 -0.8122 -0.7052
  617SOL     OW 1849   1.293   0.169   0.090 -0.0148  0.7246  0.0823
  617SOL    HW1 1850   1.315   0.215   0.175  1.5650  1.4921 -2.2653
  617SOL    HW2 1851   1.327   0.071   0.085 -0.6023 -0.9022 -1.2306
  618SOL     OW 1852   2.695   1.868   2.457  0.2792  0.1150 -0.1108
  618SOL    HW1 1853   2.644   1.933   2.406  1.2651  0.4541  2.5355
  618SOL    HW2 1854   2.678   1.891   2.552  1.2282 -0.3248 -1.0192
  619SOL     OW 1855   2.332   1.975   0.901  0.3201 -0.2392  0.1992
  619SOL    HW1 1856   2.367   1.983   0.997 -1.5259 -1.1063  2.5466
  619SOL    HW2 1857   2.386   2.039   0.838  1.0206  1.9264  0.0062
  620SOL     OW 1858   2.254   2.794   1.697 -0.0131  0.5899 -0.1531
  620SOL    HW1 1859   2.341   2.746   1.669  2.3626  2.1898 -1.2478
  620SOL    HW2 1860   2.220   2.771   1.789 -3.0000  0.2638 -0.4717
  621SOL     OW 1861   3.084   1.923   0.998 -0.4412 -0.2250  0.4235
  621SOL    HW1 1862   0.026   1.845   0.970 -1.1033  5.3099 -1.0833
  621SOL    HW2 1863   0.020   2.008   1.017 -0.9592 -1.4147  0.2885
  622SOL     OW 1864   1.076   1.731   2.743 -0.2601 -0.2449 -0.4852
  622SOL    HW1 1865   0.984   1.727   2.796 -1.6469 -2.8656  0.7899
  622SOL    HW2 1866   1.102   1.829   2.734 -0.3561 -1.0431  0.9396
  623SOL     OW 1867   2.609   2.670   2.461  0.1208 -0.0695  0.0868
  623SOL    HW1 1868   2.674   2.667   2.540  2.1562 -1.4003  1.4878
  623SOL    HW2 1869   2.553   2.585   2.465  1.4350  0.5095  4.6876
  624SOL     OW 1870   0.800   2.072   0.444  0.0309  0.1561  0.0302
  624SOL    HW1 1871   0.798   2.046   0.541  0.2507  0.7794 -0.1950
  624SOL    HW2 1872   0.709   2.056   0.396 -2.5147  1.3946 -3.1534
  625SOL     OW 1873   0.645   1.863   2.161  0.4924 -0.0104 -0.1530
  625SOL    HW1 1874   0.748   1.857   2.159 -1.2008  0.5319 -0.5370
  625SOL    HW2 1875   0.609   1.949   2.114 -0.4993  0.7351  0.6000
  626SOL     OW 1876   0.508   2.559   0.173 -0.0992  0.3128  0.1417
  626SOL    HW1 1877   0.540   2.464   0.197 -1.3533 -0.0217  0.7648
  626SOL    HW2 1878   0.464   2.602   0.254 -4.1048  1.2682  1.4481
  627SOL     OW 1879   1.271   1.484   0.061 -0.4834 -0.1620  0.4495
  627SOL    HW1 1880   1.253   1.563   0.119  2.6413  2.1777 -0.6279
  627SOL    HW2 1881   1.263   1.510   3.080 -1.1904  0.2531  2.1549
  628SOL     OW 1882   1.578   2.164   0.841 -0.1085  0.6404  0.2193
  628SOL    HW1 1883   1.534   2.098   0.902  0.7027 -0.7001 -1.0489
  628SOL    HW2 1884   1.678   2.144   0.814  1.5006  1.3495 -2.2182
  629SOL     OW 1885   0.521   0.293   1.442 -0.2217 -0.5425  0.1326
  629SOL    HW1 1886   0.468   0.342   1.513 -0.1533  0.4704 -1.9991
  629SOL    HW2 1887   0.580   0.222   1.486  0.8600 -0.9922  3.1947
  630SOL     OW 1888   2.514   0.259   1.659  0.0450 -0.1894  0.3168
  630SOL    HW1 1889   2.447   0.195   1.627  2.1574  1.7719  1.2293
  630SOL    HW2 1890   2.491   0.353   1.629  0.4970 -1.7276  0.4096
  631SOL     OW 1891   1.509   0.201   0.897  0.3153 -0.1086 -0.2410
  631SOL    HW1 1892   1.495   0.289   0.850 -0.6927 -3.0096  2.7878
  631SOL    HW2 1893   1.428   0.139   0.889 -3.2140  0.0778  1.3871
  632SOL     OW 1894   2.835   0.774   1.970  0.2771  0.4138 -0.1816
  632SOL    HW1 1895   2.893   0.854   1.946  0.9694 -0.5697  0.4491
  632SOL    HW2 1896   2.893   0.704   2.016 -0.8097  0.1584  0.0871
  633SOL     OW 1897   1.315   0.865   3.098 -0.0488 -0.6489 -0.5191
  633SOL    HW1 1898   1.278   0.924   0.056 -0.8799  1.3059 -0.9256
  633SOL    HW2 1899   1.417   0.858   3.097  0.5276  1.9233  0.8326
  634SOL     OW 1900   0.593   2.294   0.185  0.3926 -0.0753  0.1831
  634SOL    HW1 1901   0.695   2.311   0.168  1.4468 -0.9572 -1.3601
  634SOL    HW2 1902   0.539   2.287   0.099  1.2282 -0.4071 -1.2971
  635SOL     OW 1903   2.992   1.622   2.026 -0.1907  0.0848 -0.8046
  635SOL    HW1 1904   2.908   1.679   2.023 -3.1736 -1.4772 -1.4062
  635SOL    HW2 1905   3.033   1.618   2.120  0.7968 -0.3030  0.9670
  636SOL     OW 1906   3.039   1.789   0.157 -0.2323 -0.5896 -0.4083
  636SOL    HW1 1907   3.076   1.702   0.114 -1.6776  3.0037  0.0862
  636SOL    HW2 1908   3.115   1.849   0.194  1.4819  0.0358 -0.9275
  637SOL     OW 1909   2.825   2.368   0.454  0.8288  0.0743  0.4781
  637SOL    HW1 1910   2.921   2.374   0.429  0.7148  1.4516  1.1562
  637SOL    HW2 1911   2.813   2.348   0.552 -0.4692 -0.9003 -2.0490
  638SOL     OW 1912   2.681   2.879   0.112 -0.1208  0.3988  0.0764
  638SOL    HW1 1913   2.766   2.894   0.060 -3.0185  1.5723  1.0405
  638SOL    HW2 1914   2.606   2.868   0.045  0.3057  0.1791  0.9072
  639SOL     OW 1915   1.445   0.314   3.042  0.2007 -0.0557  0.4581
  639SOL    HW1 1916   1.410   0.412   3.056 -0.1777 -0.7711  2.4406
  639SOL    HW2 1917   1.374   0.251   3.087  0.3433 -4.4577 -1.7286
  640SOL     OW 1918   2.391   2.016   1.693 -0.3515  0.0652  0.3436
  640SOL    HW1 1919   2.481   2.021   1.737 -2.2395 -1.7453  0.5231
  640SOL    HW2 1920   2.351   2.109   1.687 -3.5793 -1.1263 -1.0138
  641SOL     OW 1921   2.957   2.883   1.214  0.1051  0.2079  0.1380
  641SOL    HW1 1922   2.855   2.893   1.211  2.0029 -1.2476 -0.3996
  641SOL    HW2 1923   3.004   2.961   1.163  2.7083  1.7637 -1.5404
  642SOL     OW 1924   1.580   1.159   1.311  0.5665 -0.0630  0.2211
  642SOL    HW1 1925   1.576   1.057   1.328 -1.6950  0.4912 -0.4817
  642SOL    HW2 1926   1.492   1.201   1.348  1.8297 -0.5610 -0.8327
  643SOL     OW 1927   1.123   1.696   2.327 -0.1817 -0.6279 -0.0536
  643SOL    HW1 1928   1.175   1.706   2.416  0.0373 -0.0889 -0.0740
  643SOL    HW2 1929   1.132   1.782   2.267  1.3885  2.7581  0.6211
  644SOL     OW 1930   1.857   0.197   2.046 -0.3541 -0.7825 -0.0348
  644SOL    HW1 1931   1.778   0.140   2.082  1.0914 -0.1627  0.9697
  644SOL    HW2 1932   1.825   0.292   2.022  0.3128  1.2578  0.3884
  645SOL     OW 1933   1.571   1.201   1.656  0.7340 -0.2092 -0.0231
  645SOL    HW1 1934   1.510   1.161   1.584 -1.1254 -0.8726  1.0043
  645SOL    HW2 1935   1.670   1.179   1.646  1.2398  0.9315 -0.0049
  646SOL     OW 1936   1.232   2.531   0.032 -0.1865 -0.0205 -0.0130
  646SOL    HW1 1937   1.214   2.453   3.086  0.6861  1.8130 -1.0042
  646SOL    HW2 1938   1.315   2.513   0.086 -1.7848 -1.3208  2.0510
  647SOL     OW 1939   1.373   2.354   1.096 -0.3761 -0.5568 -0.0343
  647SOL    HW1 1940   1.363   2.443   1.049  0.9017  0.0337 -1.8473
  647SOL    HW2 1941   1.381   2.282   1.023 -0.7410  1.4934  0.7154
  648SOL     OW 1942   3.057   2.385   1.479 -0.1717  0.1943  0.1211
  648SOL    HW1 1943   0.018   2.318   1.462  0.9413  0.1722  1.7300
  648SOL    HW2 1944   3.088   2.472   1.531  1.7601  0.8346  0.1333
  649SOL     OW 1945   1.151   2.334   2.637  0.1966  0.3912 -0.3791
  649SOL    HW1 1946   1.225   2.288   2.583  0.9956  3.1329  2.0461
  649SOL    HW2 1947   1.060   2.296   2.613  1.2311 -0.8782 -0.3861
  650SOL     OW 1948   3.063   1.994   3.042 -0.0790 -0.0817 -0.4491
  650SOL    HW1 1949   3.026   1.965   0.011  0.2769 -1.5732 -1.5125
  650SOL    HW2 1950   0.024   1.937   3.010  0.7264 -2.1787  0.9974
  651SOL     OW 1951   2.352   2.177   2.174  0.0334  0.3685 -0.3547
  651SOL    HW1 1952   2.270   2.122   2.163  0.4587  0.7840  2.3094
  651SOL    HW2 1953   2.374   2.228   2.084  0.2600 -0.1501 -1.1284
  652SOL     OW 1954   2.044   2.872   0.852  0.1562  0.0168  0.2100
  652SOL    HW1 1955   2.128   2.822   0.871 -0.9517 -0.0383 -3.3596
  652SOL    HW2 1956   2.016   2.838   0.761 -1.4946  1.3049 -1.5044
  653SOL     OW 1957   3.004   1.163   1.483 -0.1937  0.3171  0.0102
  653SOL    HW1 1958   2.939   1.196   1.554 -0.6353 -0.4934  0.2038
  653SOL    HW2 1959   2.999   1.218   1.396 -0.0149  0.4390  0.1175
  654SOL     OW 1960   0.981   0.426   2.912  0.1492 -0.7240  0.0859
  654SOL    HW1 1961   0.964   0.526   2.916  0.7379  1.6932  0.0941
  654SOL    HW2 1962   0.936   0.376   2.987  0.0329  2.0923 -0.6869
  655SOL     OW 1963   1.101   0.873   1.045 -0.5541 -0.0516  0.4415
  655SOL    HW1 1964   1.035   0.805   1.081 -1.1904  0.0627 -1.6721
  655SOL    HW2 1965   1.168   0.903   1.116 -1.3079  0.5537 -0.1450
  656SOL     OW 1966   0.943   2.571   2.064  0.0676 -0.1723  0.2075
  656SOL    HW1 1967   0.848   2.572   2.103  2.1380 -0.2976 -1.9609
  656SOL    HW2 1968   1.015   2.547   2.133  1.2249  0.4123 -0.1613
  657SOL     OW 1969   2.127   1.306   0.200  0.2063  0.2577 -0.0411
  657SOL    HW1 1970   2.134   1.240   0.119  1.1874  4.0860 -0.8106
  657SOL    HW2 1971   2.217   1.340   0.226 -3.4129 -4.0296 -2.5065
  658SOL     OW 1972   1.580   2.313   1.639 -0.5491  0.6983 -0.6039
  658SOL    HW1 1973   1.583   2.407   1.605 -0.2372 -2.2973  0.1691
  658SOL    HW2 1974   1.608   2.309   1.739 -0.6749  1.6860  3.5350
  659SOL     OW 1975   2.850   1.979   0.123  0.0122 -0.0979 -0.2538
  659SOL    HW1 1976   2.762   1.945   0.081  1.3081  1.1898 -2.1018
  659SOL    HW2 1977   2.914   1.901   0.142 -0.3185  2.3986  1.5620
  660SOL     OW 1978   1.005   0.373   0.672  0.4094  0.3662 -0.5024
  660SOL    HW1 1979   1.008   0.270   0.659  0.3973  1.3174  0.2424
  660SOL    HW2 1980   1.018   0.422   0.581 -0.1679 -0.5726 -0.7688
  661SOL     OW 1981   1.759   0.296   0.400  0.0457  0.1881  0.1247
  661SOL    HW1 1982   1.701   0.277   0.321  2.0174 -0.0658 -0.1901
  661SOL    HW2 1983   1.810   0.383   0.384  0.5455 -0.4167 -1.4161
  662SOL     OW 1984   0.447   0.546   0.537 -0.2302  0.0440  0.0136
  662SOL    HW1 1985   0.351   0.568   0.509  0.6678 -1.7945 -0.6181
  662SOL    HW2 1986   0.513   0.602   0.484  2.3976  1.4933 -2.3993
  663SOL     OW 1987   1.433   2.987   2.178  0.1612 -0.3887 -0.4730
  663SOL    HW1 1988   1.336   2.992   2.212 -1.2618 -0.6315  0.4890
  663SOL    HW2 1989   1.467   2.891   2.182  2.5000  2.2323 -0.2025
  664SOL     OW 1990   0.805   2.394   1.642 -0.6291  0.1077 -0.3236
  664SOL    HW1 1991   0.711   2.365   1.609  0.6317  0.1188  1.4855
  664SOL    HW2 1992   0.864   2.427   1.565 -1.3022 -2.2159  0.7108
  665SOL     OW 1993   1.314   2.230   1.732  0.2000 -0.4626  0.2422
  665SOL    HW1 1994   1.245   2.242   1.662 -0.0631  0.2608 -0.2427
  665SOL    HW2 1995   1.395   2.289   1.721  1.4011 -0.6990 -0.2994
  666SOL     OW 1996   0.991   3.070   2.474 -0.3492 -0.5575  0.0564
  666SOL    HW1 1997   0.976   3.039   2.569 -1.4842 -0.5140 -0.8250
  666SOL    HW2 1998   0.954   0.046   2.456  1.1716  0.9897 -0.2685
  667SOL     OW 1999   2.637   0.803   1.527  0.4283 -0.1827  0.4596
  667SOL    HW1 2000   2.642   0.902   1.543  0.5634 -1.1331 -0.0898
  667SOL    HW2 2001   2.733   0.776   1.557  1.2433 -2.0390  2.3480
  668SOL     OW 2002   1.795   0.003   1.426  0.4329  0.3550  0.1094
  668SOL    HW1 2003   1.747   3.032   1.457  0.5521 -0.0411  0.6650
  668SOL    HW2 2004   1.781   0.066   1.503  1.5348  1.4286  0.4776
  669SOL     OW 2005   2.676   2.602   1.315  0.1670 -0.5135  0.5606
  669SOL    HW1 2006   2.715   2.513   1.343 -1.8228  1.7336 -0.8640
  669SOL    HW2 2007   2.634   2.600   1.223  2.3324 -2.1194  1.4136
  670SOL     OW 2008   1.423   2.264   2.761 -0.2326  0.4287 -0.0471
  670SOL    HW1 2009   1.503   2.202   2.776 -1.5380  1.3212  0.5695
  670SOL    HW2 2010   1.426   2.306   2.669  2.0351 -0.9547 -0.6861
  671SOL     OW 2011   0.446   1.273   0.415  0.1553  1.0274  0.0920
  671SOL    HW1 2012   0.422   1.192   0.356 -1.5625 -0.8459 -0.5523
  671SOL    HW2 2013   0.365   1.332   0.442 -0.8779  0.6917  2.0845
  672SOL     OW 2014   2.607   1.197   0.029  0.1156  0.3922 -0.1475
  672SOL    HW1 2015   2.654   1.169   0.116  0.4345  0.6684 -0.0345
  672SOL    HW2 2016   2.523   1.137   0.021 -0.2977 -2.6788 -0.3181
  673SOL     OW 2017   0.242   1.970   1.665  0.3060  0.8096  0.0831
  673SOL    HW1 2018   0.151   2.015   1.686 -3.9246  0.2096  2.2880
  673SOL    HW2 2019   0.275   1.917   1.742  0.1735 -1.2178 -3.5299
  674SOL     OW 2020   1.174   2.128   2.042 -0.0493  0.5794 -0.0965
  674SOL    HW1 2021   1.267   2.122   2.003  1.2336  0.6321 -1.5794
  674SOL    HW2 2022   1.111   2.154   1.965 -0.3553 -1.2776  0.0819
  675SOL     OW 2023   1.277   0.984   1.223 -0.0879 -0.3674  0.0762
  675SOL    HW1 2024   1.256   0.950   1.322 -0.0152  0.6971 -1.7555
  675SOL    HW2 2025   1.262   1.086   1.220 -1.5707 -2.1810  0.4314
  676SOL     OW 2026   2.101   0.479   1.208 -0.0182 -0.2410 -0.5045
  676SOL    HW1 2027   2.153   0.560   1.171  2.0294  0.9250 -1.4853
  676SOL    HW2 2028   2.080   0.408   1.139 -0.6685 -1.4198  1.1896
  677SOL     OW 2029   2.691   0.845   0.354  0.1970  0.1355 -0.1355
  677SOL    HW1 2030   2.769   0.873   0.415  2.4942  3.2550  0.5005
  677SOL    HW2 2031   2.667   0.745   0.361  1.0866  1.1067  0.6185
  678SOL     OW 2032   2.542   1.531   1.164  0.3480 -0.6001  0.6866
  678SOL    HW1 2033   2.549   1.482   1.073 -1.1349 -1.8115 -1.7414
  678SOL    HW2 2034   2.452   1.586   1.161 -1.0042  2.7092  0.4245
  679SOL     OW 2035   2.577   0.644   2.991  0.5168 -0.4471  0.0228
  679SOL    HW1 2036   2.538   0.674   2.902 -0.0714 -0.4400  1.6584
  679SOL    HW2 2037   2.619   0.729   3.038  0.0393 -0.4780 -0.6150
  680SOL     OW 2038   0.462   1.121   2.081  0.0764  0.2128  0.3557
  680SOL    HW1 2039   0.466   1.017   2.102 -0.6897 -0.7513  0.0526
  680SOL    HW2 2040   0.469   1.174   2.170  2.2209 -1.1851 -2.0041
  681SOL     OW 2041   2.792   2.038   1.489  0.1501  0.0200 -0.1805
  681SOL    HW1 2042   2.834   1.952   1.530  1.0030 -0.6153 -0.0965
  681SOL    HW2 2043   2.754   2.015   1.397 -2.1526 -1.0712 -0.7923
  682SOL     OW 2044   0.417   1.841   2.990 -0.3360  0.3237  0.3566
  682SOL    HW1 2045   0.451   1.916   2.927 -2.2751 -3.2587 -1.3937
  682SOL    HW2 2046   0.466   1.752   2.967  0.2003  0.8128  2.5292
  683SOL     OW 2047   2.667   2.194   0.894  0.6466  0.3434  0.1997
  683SOL    HW1 2048   2.749   2.132   0.887 -0.2390 -0.2873  1.6598
  683SOL    HW2 2049   2.651   2.225   0.991  3.0754  0.8283 -0.0616
  684SOL     OW 2050   2.665   0.970   2.035  0.2428 -0.0104  0.3672
  684SOL    HW1 2051   2.719   0.886   2.009 -2.0407 -1.7418 -0.6509
  684SOL    HW2 2052   2.691   0.996   2.130  3.0652  0.3126  1.9794
  685SOL     OW 2053   1.194   0.738   0.837 -0.4363  0.5657  0.2720
  685SOL    HW1 2054   1.183   0.636   0.842  1.9132 -0.2164  0.4126
  685SOL    HW2 2055   1.153   0.792   0.913  0.5112  1.9380 -0.4546
  686SOL     OW 2056   0.603   0.219   0.042  0.2034  0.0846 -0.1701
  686SOL    HW1 2057   0.619   0.144   0.108 -2.3469 -1.1839 -0.2357
  686SOL    HW2 2058   0.564   0.295   0.095  1.9034 -1.0078  0.1392
  687SOL     OW 2059   0.475   2.218   2.518 -0.3068 -0.4086 -0.2764
  687SOL    HW1 2060   0.430   2.223   2.429 -0.0949 -1.3107  2.6377
  687SOL    HW2 2061   0.403   2.183   2.581  3.5001  4.6005  1.3514
  688SOL     OW 2062   2.111   0.411   1.571 -0.8609  0.1266 -0.5244
  688SOL    HW1 2063   2.037   0.472   1.535 -0.1000 -2.0438 -1.3715
  688SOL    HW2 2064   2.184   0.394   1.504 -2.8562  1.8111  0.7336
  689SOL     OW 2065   1.851   0.962   0.865  0.1755 -0.7749  0.0178
  689SOL    HW1 2066   1.885   0.973   0.959 -1.1624  0.8489  0.5702
  689SOL    HW2 2067   1.751   0.983   0.851 -3.4380  0.1495 -2.1521
  690SOL     OW 2068   3.062   0.920   1.397 -0.1144 -0.1349  0.2570
  690SOL    HW1 2069   3.063   1.011   1.446  1.8740 -0.3419 -1.3870
  690SOL    HW2 2070   3.047   0.937   1.294  2.3397  0.0028 -1.1195
  691SOL     OW 2071   3.099   1.210   1.864 -0.1382  0.1271 -0.3998
  691SOL    HW1 2072   0.042   1.261   1.802  0.0965 -0.2424  0.2187
  691SOL    HW2 2073   3.022   1.270   1.900  0.2279  0.9285  0.7569
  692SOL     OW 2074   1.073   0.625   1.658  0.1514  0.6437  0.6823
  692SOL    HW1 2075   1.088   0.573   1.744 -0.4410  2.2485 -0.5781
  692SOL    HW2 2076   0.981   0.668   1.665  1.6123 -0.7079  0.8908
  693SOL     OW 2077   0.421   1.302   2.349 -0.0016 -0.3393  0.1808
  693SOL    HW1 2078   0.447   1.398   2.367 -1.6762 -1.1987 -2.5187
  693SOL    HW2 2079   0.319   1.291   2.341 -1.4316  1.9174 -0.2028
  694SOL     OW 2080   1.369   1.534   0.592 -0.5774  0.3734 -0.4207
  694SOL    HW1 2081   1.463   1.525   0.634  2.3351  0.9178 -0.0977
  694SOL    HW2 2082   1.299   1.539   0.667 -0.7346 -1.1692  0.5037
  695SOL     OW 2083   0.615   1.233   1.483  1.1433  0.0648 -0.1056
  695SOL    HW1 2084   0.518   1.204   1.452 -4.0671  1.0267  0.4923
  695SOL    HW2 2085   0.626   1.245   1.586  0.8111  0.2856  0.7146
  696SOL     OW 2086   0.207   2.839   0.527 -0.6050  0.2003  0.0312
  696SOL    HW1 2087   0.141   2.881   0.468  0.3900 -3.6104 -1.2646
  696SOL    HW2 2088   0.289   2.804   0.474 -1.5641  0.8206 -3.6510
  697SOL     OW 2089   1.684   0.540   1.118 -0.1775 -0.3524  0.0025
  697SOL    HW1 2090   1.604   0.588   1.076  0.0722  2.1099 -0.5443
  697SOL    HW2 2091   1.667   0.440   1.117 -1.2277 -0.0756  0.9386
  698SOL     OW 2092   1.546   1.622   1.536 -0.3151  0.8335 -0.2934
  698SOL    HW1 2093   1.499   1.709   1.532 -1.2114 -1.8887  2.3983
  698SOL    HW2 2094   1.597   1.618   1.626 -0.1711 -1.3339  1.7857
  699SOL     OW 2095   0.083   0.332   2.452  0.0517 -0.2743  0.5209
  699SOL    HW1 2096   0.027   0.389   2.390 -2.8593 -2.5146  0.0007
  699SOL    HW2 2097   0.105   0.245   2.404  0.2983  2.6393  0.3308
  700SOL     OW 2098   1.506   2.787   0.954 -0.4828 -0.1778  0.2384
  700SOL    HW1 2099   1.529   2.883   0.989 -0.9055  0.7767 -3.4874
  700SOL    HW2 2100   1.549   2.769   0.862 -0.6644  0.6708 -3.1471
  701SOL     OW 2101   0.145   1.521   2.720  0.1134 -0.3456 -0.1566
  701SOL    HW1 2102   0.156   1.621   2.710  0.0678 -0.1396  0.0734
  701SOL    HW2 2103   0.064   1.502   2.783 -1.4160 -0.1527  1.3489
  702SOL     OW 2104   0.484   0.349   2.944  0.2608 -0.3073  0.3101
  702SOL    HW1 2105   0.385   0.350   2.920  2.9903 -0.7797  2.4440
  702SOL    HW2 2106   0.506   0.268   3.003 -0.7639  0.1845  0.0146
  703SOL     OW 2107   1.858   0.004   2.577 -0.1935 -0.3324 -0.1629
  703SOL    HW1 2108   1.934   0.068   2.553 -0.8171  1.0517  2.1765
  703SOL    HW2 2109   1.766   0.043   2.556  0.0375  0.2336 -0.7939
  704SOL     OW 2110   2.587   1.743   0.482 -0.0460 -0.2296 -0.5885
  704SOL    HW1 2111   2.539   1.835   0.483 -0.3499 -0.8016  2.1003
  704SOL    HW2 2112   2.675   1.750   0.439  0.6783 -0.7336  3.2583
  705SOL     OW 2113   2.739   1.955   2.017 -0.3055 -0.6029 -0.4544
  705SOL    HW1 2114   2.756   1.858   2.037  2.0509  0.8751  3.0671
  705SOL    HW2 2115   2.715   2.000   2.107  2.1315  0.9401  0.6105
  706SOL     OW 2116   2.882   2.555   0.918  0.0094  0.1832 -0.1191
  706SOL    HW1 2117   2.951   2.578   0.992  0.7538 -2.0536  1.7594
  706SOL    HW2 2118   2.862   2.630   0.849  0.1561  3.8495 -0.9902
  707SOL     OW 2119   0.967   2.975   0.294 -0.2284  0.2631 -0.5782
  707SOL    HW1 2120   1.068   2.955   0.305 -0.8953 -1.4076  0.9749
  707SOL    HW2 2121   0.945   2.919   0.212  0.9480  1.9910 -0.0825
  708SOL     OW 2122   0.514   2.086   1.590  0.2912 -0.7210 -0.5893
  708SOL    HW1 2123   0.438   2.019   1.610  0.8722  0.5627  0.9491
  708SOL    HW2 2124   0.546   2.071   1.495  1.1671 -1.5329 -0.0939
  709SOL     OW 2125   1.634   0.080   2.143 -0.4441 -0.3041  0.3199
  709SOL    HW1 2126   1.626   0.161   2.200 -2.5906  0.7289 -0.6898
  709SOL    HW2 2127   1.553   0.016   2.150  0.4806 -0.0240 -1.6877
  710SOL     OW 2128   1.578   2.912   2.597  0.3960 -0.0485 -0.3676
  710SOL    HW1 2129   1.612   3.002   2.563  1.1386 -0.3934  0.7579
  710SOL    HW2 2130   1.476   2.916   2.603  3.7956  0.3382  1.3825
  711SOL     OW 2131   1.127   2.387   2.932  0.0910 -0.4651  0.4029
  711SOL    HW1 2132   1.110   2.489   2.944  1.7271  2.3016 -2.0367
  711SOL    HW2 2133   1.178   2.361   2.847  2.6406 -0.4774 -0.3462
  712SOL     OW 2134   1.213   2.085   2.847  0.2989  0.3225  0.1930
  712SOL    HW1 2135   1.296   2.144   2.836 -0.1133  1.3784  0.1172
  712SOL    HW2 2136   1.173   2.059   2.756 -0.4776  0.3547  3.4116
  713SOL     OW 2137   1.377   1.145   1.475  0.3387 -0.3437  0.3147
  713SOL    HW1 2138   1.318   1.224   1.506  2.3987  0.8005 -1.4848
  713SOL    HW2 2139   1.331   1.055   1.478 -0.5036  0.5507  0.8765
  714SOL     OW 2140   1.523   1.504   1.059 -0.0516  0.4415  0.0824
  714SOL    HW1 2141   1.564   1.536   1.151  0.9253  0.0536  1.5150
  714SOL    HW2 2142   1.482   1.585   1.010 -1.9019  2.0820 -0.9969
  715SOL     OW 2143   2.460   3.069   0.784  0.3931 -0.1432  0.1349
  715SOL    HW1 2144   2.445   3.009   0.863 -1.4560  0.5478 -1.5998
  715SOL    HW2 2145   2.513   0.032   0.808 -2.4431 -1.6975 -2.2913
  716SOL     OW 2146   0.575   2.793   0.702 -0.1552  0.1552  0.2752
  716SOL    HW1 2147   0.617   2.788   0.607 -0.2149 -0.6462  0.4230
  716SOL    HW2 2148   0.614   2.866   0.760 -1.4167  1.0865 -0.7536
  717SOL     OW 2149   0.089   0.332   0.047  0.0101  0.0865  0.2295
  717SOL    HW1 2150   3.106   0.355   0.052  0.8113 -2.2493 -0.7832
  717SOL    HW2 2151   0.102   0.238   0.088  0.5065  0.2164  0.8880
  718SOL     OW 2152   1.792   1.775   1.188  0.5368  0.0953  0.0501
  718SOL    HW1 2153   1.801   1.824   1.275 -0.7061  0.4436  0.1839
  718SOL    HW2 2154   1.742   1.689   1.203  0.9622 -2.5861  0.4386
  719SOL     OW 2155   2.720   2.593   0.331 -0.4411 -0.0097 -0.1984
  719SOL    HW1 2156   2.775   2.621   0.251  0.8041  0.5886  0.8488
  719SOL    HW2 2157   2.765   2.510   0.372 -0.3488  0.3582  0.8608
  720SOL     OW 2158   1.016   1.075   0.881  0.0163 -0.3993 -0.2553
  720SOL    HW1 2159   1.054   1.011   0.953  1.1584 -0.3573  0.7071
  720SOL    HW2 2160   1.077   1.081   0.800  0.5714 -0.1287 -1.0163
  721SOL     OW 2161   1.609   0.261   1.140  0.2636 -0.4087  0.7385
  721SOL    HW1 2162   1.574   0.250   1.044  0.9283  0.8050  0.3474
  721SOL    HW2 2163   1.557   0.206   1.208 -2.0367  0.6762  0.6542
  722SOL     OW 2164   1.074   1.505   2.126 -0.1390 -0.5531  0.0106
  722SOL    HW1 2165   1.100   1.569   2.204 -1.3256  0.5433 -0.2420
  722SOL    HW2 2166   1.035   1.420   2.165  2.2733  0.3709 -0.3332
  723SOL     OW 2167   0.910   0.109   1.666 -0.2213  0.0182 -0.1574
  723SOL    HW1 2168   0.935   0.184   1.598  0.2293  1.6557 -0.7895
  723SOL    HW2 2169   0.935   0.015   1.639  0.6190  3.9538  1.3242
  724SOL     OW 2170   1.997   1.882   1.925  0.1956  0.2890 -0.2678
  724SOL    HW1 2171   1.943   1.918   1.847  0.9375 -1.2840  1.6834
  724SOL    HW2 2172   2.046   1.798   1.895 -0.3314  0.6121 -3.8168
  725SOL     OW 2173   1.290   2.525   1.515  0.3852  0.5329 -0.4534
  725SOL    HW1 2174   1.289   2.605   1.452  1.6923 -0.6346  0.4841
  725SOL    HW2 2175   1.229   2.544   1.596 -0.5794  1.5511  2.1837
  726SOL     OW 2176   1.776   2.781   0.018 -0.1635  0.3681  0.4328
  726SOL    HW1 2177   1.763   2.832   3.045 -0.2615  0.7269  0.9150
  726SOL    HW2 2178   1.871   2.748   0.038 -1.8412 -0.3430  0.2993
  727SOL     OW 2179   1.336   1.782   0.925  0.1174 -0.8680 -0.4526
  727SOL    HW1 2180   1.271   1.800   0.848 -1.7128  1.7234  1.3428
  727SOL    HW2 2181   1.434   1.769   0.898 -4.2800 -2.0847 -1.0856
  728SOL     OW 2182   1.930   2.885   2.423  0.0944 -0.2258  0.2767
  728SOL    HW1 2183   1.891   2.962   2.477 -0.4092  1.3843  0.5711
  728SOL    HW2 2184   2.014   2.841   2.457 -1.2859 -1.5438  1.6655
  729SOL     OW 2185   2.465   1.771   1.534 -0.5575  0.4229  0.2381
  729SOL    HW1 2186   2.428   1.858   1.573 -2.3485 -0.0919 -0.6805
  729SOL    HW2 2187   2.403   1.752   1.454 -1.7408  0.3201  0.8880
  730SOL     OW 2188   1.848   0.598   2.428  0.2653  0.4798 -0.3402
  730SOL    HW1 2189   1.839   0.501   2.461  0.0330 -1.2568 -0.3438
  730SOL    HW2 2190   1.817   0.657   2.508  0.4845 -0.8195  0.6638
  731SOL     OW 2191   0.422   0.139   1.053 -0.1155 -0.1526  0.1768
  731SOL    HW1 2192   0.401   0.137   1.151 -0.3160 -1.2608  2.3749
  731SOL    HW2 2193   0.440   0.232   1.021  0.2771  0.5920 -0.6186
  732SOL     OW 2194   1.800   3.083   0.872  0.4703 -0.3091  0.3414
  732SOL    HW1 2195   1.812   0.066   0.848 -2.3146  1.3794 -0.6672
  732SOL    HW2 2196   1.890   3.037   0.884 -0.2272 -0.1658  0.8431
  733SOL     OW 2197   0.763   1.106   1.281  0.1401 -0.3998  0.0849
  733SOL    HW1 2198   0.716   1.167   1.348  1.4095  0.7623  2.9869
  733SOL    HW2 2199   0.827   1.165   1.231 -0.5134 -0.4861  0.9794
  734SOL     OW 2200   2.306   1.951   0.301 -0.0866 -0.3787  0.5731
  734SOL    HW1 2201   2.273   1.856   0.287 -0.0233 -2.4514  1.1856
  734SOL    HW2 2202   2.360   1.984   0.221 -1.1818 -1.9183  0.1067
  735SOL     OW 2203   0.440   0.784   0.181  0.1770 -0.0110 -0.1553
  735SOL    HW1 2204   0.477   0.729   0.103  1.7824 -0.6754 -3.8189
  735SOL    HW2 2205   0.346   0.752   0.205 -0.7316  1.7258 -3.0374
  736SOL     OW 2206   1.790   2.493   2.581  0.1799 -0.4287  0.5039
  736SOL    HW1 2207   1.875   2.476   2.524  3.3604  0.4423  0.7523
  736SOL    HW2 2208   1.810   2.496   2.681 -0.0820  2.1206 -1.2722
  737SOL     OW 2209   1.111   2.140   1.128 -0.0968  0.1210 -0.3578
  737SOL    HW1 2210   1.087   2.039   1.149  2.6242 -0.7216  1.6321
  737SOL    HW2 2211   1.107   2.200   1.209 -1.0881 -0.4244  2.0262
  738SOL     OW 2212   1.832   2.757   2.202  0.1830 -0.9517  0.3644
  738SOL    HW1 2213   1.732   2.780   2.200 -0.1944 -1.0599  2.2558
  738SOL    HW2 2214   1.869   2.787   2.292  2.8566 -3.4044 -2.3927
  739SOL     OW 2215   1.443   2.055   2.080  0.5287 -0.3507  0.1789
  739SOL    HW1 2216   1.452   2.146   2.130  0.8333  2.9466  3.2609
  739SOL    HW2 2217   1.436   1.974   2.139 -0.9690 -1.2165  0.1572
  740SOL     OW 2218   2.105   2.403   1.838  0.0455 -0.7834 -0.4022
  740SOL    HW1 2219   2.080   2.359   1.931 -0.5076  0.9574  1.5469
  740SOL    HW2 2220   2.022   2.430   1.789  2.4952  2.6811 -0.7279
  741SOL     OW 2221   2.099   1.953   2.922  0.1327  0.2854  0.0369
  741SOL    HW1 2222   2.004   1.914   2.900 -3.9477  0.3695  0.2404
  741SOL    HW2 2223   2.164   1.890   2.872  1.2058  0.7337 -0.5830
  742SOL     OW 2224   0.566   1.095   2.880 -0.0586  0.2525  0.1030
  742SOL    HW1 2225   0.475   1.133   2.904  1.1500 -0.6854  1.6174
  742SOL    HW2 2226   0.617   1.152   2.812 -1.8058  1.8117  2.4806
  743SOL     OW 2227   2.080   0.847   2.777  0.4932  0.0475  0.0520
  743SOL    HW1 2228   2.180   0.828   2.749 -1.4738  1.1577 -3.0400
  743SOL    HW2 2229   2.075   0.900   2.860  0.6158 -1.7084 -1.1890
  744SOL     OW 2230   2.104   2.749   1.483  0.2081  0.4621  0.1188
  744SOL    HW1 2231   2.184   2.719   1.420  1.8272 -1.8201  1.9795
  744SOL    HW2 2232   2.139   2.797   1.569  0.4549  3.5763  0.5367
  745SOL     OW 2233   2.633   1.826   1.019  0.4346  0.0960 -0.2416
  745SOL    HW1 2234   2.690   1.744   0.997  0.8240  0.8141 -1.2822
  745SOL    HW2 2235   2.541   1.799   1.039  2.1002  0.1256 -0.6093
  746SOL     OW 2236   2.866   2.002   0.865  0.1204 -0.2488 -0.0857
  746SOL    HW1 2237   2.805   1.928   0.838  1.8850  2.2697 -0.1757
  746SOL    HW2 2238   2.950   1.970   0.912  1.2796 -0.3991 -0.5119
  747SOL     OW 2239   2.138   2.880   0.258  0.1194  0.4055  0.6439
  747SOL    HW1 2240   2.232   2.846   0.285  3.0346  1.7173  0.1773
  747SOL    HW2 2241   2.100   2.929   0.336  1.1981  0.9120  0.0762
  748SOL     OW 2242   0.983   2.097   0.085 -0.1464  0.2385  0.2353
  748SOL    HW1 2243   0.990   2.124   3.106 -1.5100 -0.0706  0.8659
  748SOL    HW2 2244   0.928   2.010   0.088  0.3553 -0.0917 -1.3530
  749SOL     OW 2245   2.750   0.391   2.306 -0.0573  0.2864 -0.2967
  749SOL    HW1 2246   2.756   0.298   2.348 -1.2157 -1.4152 -1.4864
  749SOL    HW2 2247   2.835   0.447   2.303  0.4820  3.3848  0.1060
  750SOL     OW 2248   1.343   0.511   1.551 -0.0613 -0.2551 -0.3314
  750SOL    HW1 2249   1.243   0.500   1.566 -0.3517  0.9789  3.9269
  750SOL    HW2 2250   1.393   0.422   1.572  1.2958  2.0847  0.9004
  751SOL     OW 2251   2.455   2.336   1.959 -0.1822  0.6386  0.0215
  751SOL    HW1 2252   2.402   2.304   1.878  0.9408  0.7449  1.2746
  751SOL    HW2 2253   2.501   2.421   1.935  1.4116 -1.5323 -1.2092
  752SOL     OW 2254   1.966   1.571   1.112  0.1452 -0.4373  0.0961
  752SOL    HW1 2255   1.943   1.663   1.158  0.3684 -0.0150  1.7556
  752SOL    HW2 2256   1.878   1.521   1.100 -0.4114 -0.2526  1.6279
  753SOL     OW 2257   1.460   0.775   2.325  0.2558  0.1010 -0.1420
  753SOL    HW1 2258   1.462   0.855   2.257  1.9635  3.5710 -2.7165
  753SOL    HW2 2259   1.453   0.820   2.416 -1.0539 -1.4041 -0.4846
  754SOL     OW 2260   0.170   2.580   0.922 -0.2318 -0.0676 -0.7625
  754SOL    HW1 2261   0.216   2.662   0.877  0.2198 -1.0001 -4.0622
  754SOL    HW2 2262   0.211   2.555   1.010  1.0715 -2.2958 -0.1635
  755SOL     OW 2263   2.443   2.959   1.385  0.5767  0.1933 -0.0784
  755SOL    HW1 2264   2.395   3.034   1.438  1.0284  1.0803  0.2516
  755SOL    HW2 2265   2.398   2.867   1.402 -0.7725 -1.0845  1.8351
  756SOL     OW 2266   1.649   1.063   2.432 -0.3271  0.0250  0.4282
  756SOL    HW1 2267   1.657   1.143   2.487  0.2218 -2.7615 -2.4873
  756SOL    HW2 2268   1.585   1.070   2.354  4.9086 -0.1573 -2.0436
  757SOL     OW 2269   2.881   2.858   1.873 -0.5012 -0.0635 -0.1584
  757SOL    HW1 2270   2.885   2.859   1.974 -1.9592 -1.4211  0.5347
  757SOL    HW2 2271   2.818   2.930   1.836 -0.5987 -1.1534  0.6032
  758SOL     OW 2272   0.555   2.719   1.493  0.4027  0.6499 -0.4722
  758SOL    HW1 2273   0.544   2.767   1.398 -1.4291  4.4404 -0.2253
  758SOL    HW2 2274   0.483   2.648   1.497 -0.5553  1.9466 -1.5428
  759SOL     OW 2275   2.294   1.296   1.018  0.6499 -0.0603  0.5379
  759SOL    HW1 2276   2.293   1.275   1.119 -2.5237 -0.6625 -0.1553
  759SOL    HW2 2277   2.380   1.341   0.983  1.3799  3.3196 -2.6700
  760SOL     OW 2278   1.724   0.149   1.634 -0.2122 -0.1588  0.4211
  760SOL    HW1 2279   1.681   0.095   1.707  0.2053 -1.7116  0.3956
  760SOL    HW2 2280   1.800   0.205   1.670 -0.1015  2.5445 -0.6486
  761SOL     OW 2281   2.175   0.520   0.636  0.6323  0.4613  0.6119
  761SOL    HW1 2282   2.162   0.432   0.585 -1.8264  0.9448  0.0957
  761SOL    HW2 2283   2.179   0.600   0.573  0.5604 -2.2075 -1.1134
  762SOL     OW 2284   2.370   2.781   0.369 -0.7214 -0.4906 -0.3125
  762SOL    HW1 2285   2.471   2.795   0.385  2.6269 -0.1580 -0.1089
  762SOL    HW2 2286   2.344   2.685   0.386 -3.2702  0.8085  2.0281
  763SOL     OW 2287   0.978   0.555   1.397  0.4351  0.1960 -0.0977
  763SOL    HW1 2288   1.018   0.579   1.483 -1.1437 -0.9547  0.4539
  763SOL    HW2 2289   0.940   0.634   1.353  1.6588  2.2976  0.0876
  764SOL     OW 2290   2.314   2.578   2.611  0.1238 -0.3588 -0.3846
  764SOL    HW1 2291   2.388   2.513   2.585 -0.7441  2.1945 -2.8682
  764SOL    HW2 2292   2.239   2.528   2.664 -0.7588  0.0672  0.3360
  765SOL     OW 2293   3.073   0.839   2.442  0.5963 -0.4906  0.2938
  765SOL    HW1 2294   3.048   0.750   2.484  0.5688  0.2538 -0.3503
  765SOL    HW2 2295   3.113   0.900   2.516  0.8127  1.4120  1.4556
  766SOL     OW 2296   2.867   1.551   2.645  0.1377  0.2732 -0.6498
  766SOL    HW1 2297   2.769   1.573   2.652  0.5441  0.7227 -0.3201
  766SOL    HW2 2298   2.887   1.522   2.549  0.3019  2.0296 -0.5546
  767SOL     OW 2299   0.361   2.191   1.874  0.2400 -0.4509 -0.4558
  767SOL    HW1 2300   0.401   2.257   1.808  1.4307  0.6910  1.2533
  767SOL    HW2 2301   0.275   2.232   1.913 -1.1293 -0.6465  1.1800
  768SOL     OW 2302   0.970   1.041   2.642  0.4496 -0.2443 -0.2823
  768SOL    HW1 2303   0.982   1.119   2.705 -0.2848  0.8488 -0.0124
  768SOL    HW2 2304   0.993   0.957   2.692  1.2689  2.7289 -0.5676
  769SOL     OW 2305   1.784   2.857   2.815  0.6857 -0.0791  0.3230
  769SOL    HW1 2306   1.874   2.907   2.798 -0.2215  0.3071  0.6477
  769SOL    HW2 2307   1.709   2.871   2.740  1.1568 -0.8069 -0.8785
  770SOL     OW 2308   0.861   0.184   2.445  0.2217 -0.0619  0.1841
  770SOL    HW1 2309   0.790   0.200   2.376  1.9757 -3.1345 -0.3693
  770SOL    HW2 2310   0.846   0.250   2.521 -0.5240  0.5654  0.0340
  771SOL     OW 2311   0.712   2.550   0.856  0.0258 -0.1034 -0.0856
  771SOL    HW1 2312   0.646   2.543   0.778 -0.4415  0.7209  0.9032
  771SOL    HW2 2313   0.736   2.462   0.897 -1.5948 -2.5362  0.4477
  772SOL     OW 2314   3.102   0.962   0.273 -0.2250 -0.3670  0.3614
  772SOL    HW1 2315   0.032   0.887   0.218  2.1770  2.5087 -0.9418
  772SOL    HW2 2316   3.054   0.927   0.357  0.2998 -1.9266 -1.0939
  773SOL     OW 2317   1.653   0.907   1.869 -0.2908  0.0793  0.2447
  773SOL    HW1 2318   1.739   0.887   1.926  1.0269  0.0409  2.1555
  773SOL    HW2 2319   1.673   0.911   1.771  0.3759  3.1760  1.0982
  774SOL     OW 2320   0.554   0.944   0.551  0.2428 -0.8462  0.1642
  774SOL    HW1 2321   0.625   1.000   0.597 -0.4750  0.8511  1.4476
  774SOL    HW2 2322   0.593   0.854   0.529 -0.2334  3.2839  1.6679
  775SOL     OW 2323   1.810   0.056   0.112  0.0251  0.1284  0.0943
  775SOL    HW1 2324   1.748   3.109   0.162 -0.0434  1.0398  1.1443
  775SOL    HW2 2325   1.778   0.151   0.123 -2.8182 -1.1616 -0.8076
  776SOL     OW 2326   2.334   0.257   2.413 -0.2280  0.1488 -0.1491
  776SOL    HW1 2327   2.309   0.312   2.491  2.8397  2.6898 -0.6279
  776SOL    HW2 2328   2.328   0.307   2.326  2.2255 -0.2751  0.8767
  777SOL     OW 2329   0.907   1.484   0.013 -1.0018  0.0396 -0.0288
  777SOL    HW1 2330   0.980   1.412   3.112  1.9817  0.2891 -0.3752
  777SOL    HW2 2331   0.816   1.442   3.110  0.6599  1.2207  2.3897
  778SOL     OW 2332   0.002   2.654   0.135  0.3891 -0.2381 -0.2012
  778SOL    HW1 2333   0.057   2.609   0.207 -2.7093  1.5953  0.8549
  778SOL    HW2 2334   0.010   2.754   0.161 -2.5682 -0.6162 -0.7670
  779SOL     OW 2335   0.231   1.306   0.032  0.0799 -0.0116  0.0641
  779SOL    HW1 2336   0.156   1.359   0.073  0.8414  0.4047  0.2885
  779SOL    HW2 2337   0.209   1.208   0.041 -0.9053  1.3993  0.7637
  780SOL     OW 2338   2.025   0.226   2.269 -0.6618  0.1875  0.1127
  780SOL    HW1 2339   2.099   0.292   2.247 -1.4106 -1.7064 -2.0699
  780SOL    HW2 2340   1.968   0.210   2.187 -1.5484 -0.8383 -0.1680
  781SOL     OW 2341   1.744   0.911   1.591  0.4094 -0.3001  0.4467
  781SOL    HW1 2342   1.774   1.008   1.562  1.6529  1.0729  0.3926
  781SOL    HW2 2343   1.829   0.865   1.625 -0.9474  2.0325  1.1719
  782SOL     OW 2344   1.825   1.863   2.295 -0.6183 -0.4581 -0.0729
  782SOL    HW1 2345   1.807   1.927   2.367 -2.1706 -1.9509  0.9549
  782SOL    HW2 2346   1.922   1.821   2.298  1.1593 -2.6358 -0.0788
  783SOL     OW 2347   1.358   0.095   1.721  0.2469  0.8640 -0.3048
  783SOL    HW1 2348   1.277   0.132   1.773  0.5127 -0.2981  0.5166
  783SOL    HW2 2349   1.429   0.051   1.780  1.0309  0.6223  1.2489
  784SOL     OW 2350   1.981   0.845   2.534 -0.0333 -0.4753 -0.3206
  784SOL    HW1 2351   2.007   0.850   2.636  1.8354 -0.9148  3.3532
  784SOL    HW2 2352   2.027   0.767   2.488 -0.3148  0.5847 -0.8151
  785SOL     OW 2353   1.834   0.568   0.357 -0.0048 -0.2590 -0.3283
  785SOL    HW1 2354   1.800   0.591   0.259 -1.3674 -0.4233 -0.9761
  785SOL    HW2 2355   1.901   0.643   0.389  1.8452 -0.3464  4.3146
  786SOL     OW 2356   2.994   1.871   0.600  0.0451  0.0795 -0.4226
  786SOL    HW1 2357   3.037   1.959   0.634  1.0031  0.8562 -1.2458
  786SOL    HW2 2358   2.913   1.843   0.650  1.0485  1.2781 -2.0673
  787SOL     OW 2359   1.651   2.288   0.472 -0.2380 -0.3145  0.0672
  787SOL    HW1 2360   1.577   2.233   0.514  0.2798 -0.1510 -2.9852
  787SOL    HW2 2361   1.714   2.329   0.541 -0.2984 -0.9823 -0.7037
  788SOL     OW 2362   2.091   1.549   1.557 -0.2663 -0.0017 -0.1525
  788SOL    HW1 2363   2.155   1.605   1.504  0.8679  0.3144  1.0949
  788SOL    HW2 2364   2.003   1.595   1.570  2.8309 -2.2644  0.0554
  789SOL     OW 2365   2.999   1.199   2.522 -0.2810  0.2655 -0.7625
  789SOL    HW1 2366   3.093   1.235   2.539  1.6562  0.1613  0.1867
  789SOL    HW2 2367   2.991   1.138   2.442 -1.3760 -0.5495  0.5795
  790SOL     OW 2368   0.538   3.072   2.636  0.1626  0.9475 -0.5863
  790SOL    HW1 2369   0.545   0.059   2.629  1.0122  0.7294 -0.6276
  790SOL    HW2 2370   0.445   3.046   2.665 -1.5700 -1.0487 -0.7374
  791SOL     OW 2371   0.977   2.951   2.752 -0.4494 -0.2817 -0.2353
  791SOL    HW1 2372   0.882   2.946   2.782  0.9462 -2.9127 -2.2502
  791SOL    HW2 2373   1.028   3.007   2.815 -0.6598 -0.2292 -1.6308
  792SOL     OW 2374   1.727   0.424   1.924 -0.3464 -0.7689 -0.2569
  792SOL    HW1 2375   1.688   0.475   2.000  0.6480  1.2952 -2.2675
  792SOL    HW2 2376   1.653   0.425   1.853 -0.3823  2.5206  0.9913
  793SOL     OW 2377   2.609   0.129   2.104 -0.1929  0.3652  0.4582
  793SOL    HW1 2378   2.706   0.105   2.091  0.1004  0.9678  1.2451
  793SOL    HW2 2379   2.590   0.224   2.076  0.3151  1.7127 -1.9994
  794SOL     OW 2380   0.604   0.747   1.783 -0.0045 -0.0504  0.3617
  794SOL    HW1 2381   0.626   0.757   1.881 -0.0729 -3.6675 -2.7089
  794SOL    HW2 2382   0.542   0.666   1.773  0.5808  0.2349 -1.8387
  795SOL     OW 2383   2.896   1.513   0.539  0.8462 -0.2686  0.3085
  795SOL    HW1 2384   2.885   1.433   0.479 -1.6985 -0.3976 -0.5820
  795SOL    HW2 2385   2.872   1.597   0.488 -1.3385  0.9819  0.4200
  796SOL     OW 2386   2.710   2.587   3.020  0.3330  0.1484  0.2058
  796SOL    HW1 2387   2.781   2.572   3.092 -1.2870  2.5411 -2.5845
  796SOL    HW2 2388   2.615   2.578   3.055  1.5799 -0.5795  0.3402
  797SOL     OW 2389   2.304   2.518   0.437 -0.5070 -0.0330  0.5002
  797SOL    HW1 2390   2.352   2.464   0.364 -0.5081 -0.4665  0.3034
  797SOL    HW2 2391   2.286   2.452   0.515  1.2963  0.0101  1.5193
  798SOL     OW 2392   0.391   0.961   1.461 -0.2243  0.1141 -0.7755
  798SOL    HW1 2393   0.303   0.913   1.480 -2.0729 -2.4748  2.1481
  798SOL    HW2 2394   0.371   1.037   1.396 -1.3925 -0.6303  0.2845
  799SOL     OW 2395   2.975   0.540   2.303 -0.1874 -0.1977 -0.1064
  799SOL    HW1 2396   2.945   0.587   2.385  1.7717 -1.3278  0.9359
  799SOL    HW2 2397   3.012   0.600   2.230 -2.7320 -0.9442  0.1434
  800SOL     OW 2398   2.653   2.156   0.340  0.4742  0.2195  0.0617
  800SOL    HW1 2399   2.661   2.128   0.247  0.4830 -0.4023  4.0336
  800SOL    HW2 2400   2.727   2.221   0.364 -0.2044 -1.0925 -0.3826
  801SOL     OW 2401   1.376   1.149   0.768 -0.1771 -0.2726  0.4072
  801SOL    HW1 2402   1.306   1.126   0.697  0.5054 -1.1827  1.1203
  801SOL    HW2 2403   1.346   1.220   0.835 -1.7238 -0.2518  2.3425
  802SOL     OW 2404   1.320   1.922   1.306 -0.1752  0.1122 -0.0097
  802SOL    HW1 2405   1.404   1.928   1.253 -1.9220 -1.9030  3.9582
  802SOL    HW2 2406   1.239   1.895   1.251  1.4908  1.3066  0.2005
  803SOL     OW 2407   2.853   1.756   0.398  0.5354  0.2394 -0.0084
  803SOL    HW1 2408   2.923   1.761   0.326  0.6228  4.1524  1.4141
  803SOL    HW2 2409   2.874   1.831   0.460  0.8888 -2.2473 -0.1268
  804SOL     OW 2410   1.281   2.666   1.014 -0.4841 -0.2373 -0.0831
  804SOL    HW1 2411   1.235   2.639   0.926 -0.9444  1.1215 -0.4794
  804SOL    HW2 2412   1.374   2.708   0.993  0.1749 -0.8790  2.0373
  805SOL     OW 2413   1.606   1.654   3.036  0.4921 -0.2199  0.1337
  805SOL    HW1 2414   1.673   1.702   3.094 -0.2959 -0.6621 -0.3373
  805SOL    HW2 2415   1.621   1.556   3.013  0.4726  0.9839 -1.0438
  806SOL     OW 2416   1.613   2.887   1.465 -0.4523 -0.2460  0.0495
  806SOL    HW1 2417   1.523   2.934   1.479  1.0462 -2.7450 -0.2791
  806SOL    HW2 2418   1.617   2.834   1.381 -1.1241 -0.2860  1.5670
  807SOL     OW 2419   2.009   3.009   2.802  0.4423 -0.2339  0.6467
  807SOL    HW1 2420   1.988   3.047   2.710 -0.4115  3.4616 -0.1731
  807SOL    HW2 2421   2.041   3.086   2.863  2.3178  0.3431  0.5999
  808SOL     OW 2422   0.028   1.462   0.174 -0.4161  0.0753 -0.0060
  808SOL    HW1 2423   0.005   1.399   0.244  2.7556  1.0910 -1.6633
  808SOL    HW2 2424   0.087   1.537   0.211  0.7923  0.9388 -2.1707
  809SOL     OW 2425   2.532   0.796   2.273  0.0003  0.2312 -0.5117
  809SOL    HW1 2426   2.448   0.834   2.316  1.2153  1.8673  3.6331
  809SOL    HW2 2427   2.612   0.857   2.289 -0.0086 -1.7542 -0.5843
  810SOL     OW 2428   2.977   0.016   2.229 -0.0579 -0.7430 -0.3923
  810SOL    HW1 2429   3.076   0.032   2.233  0.6124  0.9353 -0.6086
  810SOL    HW2 2430   2.936   0.069   2.153  1.5971 -1.0527 -1.3878
  811SOL     OW 2431   2.305   2.282   1.685 -0.3476  0.0696 -0.3685
  811SOL    HW1 2432   2.237   2.330   1.746  0.8838  1.3013  1.2468
  811SOL    HW2 2433   2.351   2.340   1.618 -2.1859 -2.4286  0.6194
  812SOL     OW 2434   1.732   0.420   3.059  0.3099 -0.4693 -0.2650
  812SOL    HW1 2435   1.634   0.400   3.030 -0.5649 -0.8950 -1.3605
  812SOL    HW2 2436   1.735   0.505   0.005  1.7615  1.2482  1.4899
  813SOL     OW 2437   1.933   0.615   1.867 -0.7791  0.1616  0.2191
  813SOL    HW1 2438   1.868   0.540   1.885  1.9459  0.0854 -0.6525
  813SOL    HW2 2439   2.031   0.583   1.853 -0.1773 -0.9593  2.1425
  814SOL     OW 2440   2.002   1.317   1.426 -0.1638  0.1647  0.4415
  814SOL    HW1 2441   2.038   1.408   1.453  3.1656  4.2798  1.0448
  814SOL    HW2 2442   1.931   1.330   1.356 -0.1453 -0.3021 -1.1398
  815SOL     OW 2443   0.436   1.020   0.291  0.5318 -0.2195 -0.2254
  815SOL    HW1 2444   0.495   1.014   0.373 -0.0835 -0.3447  1.5638
  815SOL    HW2 2445   0.442   0.929   0.246  0.8158 -1.4803 -2.2112
  816SOL     OW 2446   1.443   1.834   2.660 -0.6289 -0.3450  0.0231
  816SOL    HW1 2447   1.541   1.814   2.654 -4.2103 -1.1244  1.5902
  816SOL    HW2 2448   1.414   1.824   2.762 -0.7208 -3.2474  2.3782
  817SOL     OW 2449   3.093   2.862   0.749 -0.1389  0.6563  0.0135
  817SOL    HW1 2450   2.996   2.879   0.779 -3.5802  1.5847  1.2251
  817SOL    HW2 2451   3.104   2.766   0.710  0.9471 -2.2171  0.9651
  818SOL     OW 2452   1.396   0.252   2.769 -0.1833  0.0672  0.3627
  818SOL    HW1 2453   1.400   0.265   2.872  1.9420 -0.9318  0.9483
  818SOL    HW2 2454   1.299   0.244   2.730 -1.7570 -0.2662  0.0933
  819SOL     OW 2455   0.795   1.008   0.716  0.1779  0.1642  0.1535
  819SOL    HW1 2456   0.865   1.053   0.769  0.1705 -2.0574 -1.2787
  819SOL    HW2 2457   0.724   0.970   0.777 -3.0450 -1.6977  0.6407
  820SOL     OW 2458   2.420   0.909   1.159  0.2642 -0.2570  0.1638
  820SOL    HW1 2459   2.338   0.864   1.117  0.8504 -2.7020  4.5400
  820SOL    HW2 2460   2.422   0.896   1.262 -1.2924  1.2559  1.8117
  821SOL     OW 2461   2.410   0.240   0.648  0.1031 -0.0052  0.0273
  821SOL    HW1 2462   2.406   0.141   0.627  0.1221 -0.9711 -0.5476
  821SOL    HW2 2463   2.327   0.267   0.698  2.6300 -1.0068  1.4598
  822SOL     OW 2464   0.906   2.615   2.428 -0.3845 -0.1856 -0.1296
  822SOL    HW1 2465   0.874   2.527   2.385  0.4006  0.3131  0.2355
  822SOL    HW2 2466   0.995   2.599   2.480 -0.0704  0.2333  2.3530
  823SOL     OW 2467   0.011   2.112   1.738  0.3065 -0.6561 -0.2401
  823SOL    HW1 2468   0.017   2.189   1.808  0.8633  0.9992 -0.0527
  823SOL    HW2 2469   3.059   2.041   1.773 -0.5814  2.2697 -0.4606
  824SOL     OW 2470   0.830   2.887   2.332  0.4349  0.6306 -0.3385
  824SOL    HW1 2471   0.890   2.953   2.382  2.5686 -0.1706 -0.8928
  824SOL    HW2 2472   0.866   2.791   2.360  1.4560 -0.2979  0.6607
  825SOL     OW 2473   1.202   1.778   0.157 -0.1978 -0.3311 -0.3821
  825SOL    HW1 2474   1.227   1.868   0.124 -0.3431 -0.0683  2.3395
  825SOL    HW2 2475   1.251   1.765   0.245  1.7449  0.2317  0.4243
  826SOL     OW 2476   1.049   2.706   2.864 -0.2327  0.0899  0.1845
  826SOL    HW1 2477   1.009   2.790   2.825  2.5371  1.7333  0.3871
  826SOL    HW2 2478   1.002   2.665   2.944  2.8251 -0.1294  2.3472
  827SOL     OW 2479   0.335   1.701   1.753  0.2032  0.0483  0.1038
  827SOL    HW1 2480   0.246   1.667   1.779  2.0570  2.2892 -2.0593
  827SOL    HW2 2481   0.373   1.646   1.681 -0.5185  0.1666 -0.5937
  828SOL     OW 2482   2.830   1.611   1.197  0.6959 -0.1807  0.2155
  828SOL    HW1 2483   2.911   1.553   1.171  1.3490  1.1397 -0.6996
  828SOL    HW2 2484   2.754   1.562   1.242  0.8553  0.4732 -0.3908
  829SOL     OW 2485   2.870   2.534   0.110  0.1446  0.0557  0.6944
  829SOL    HW1 2486   2.949   2.599   0.126  0.1126 -0.6490 -2.4130
  829SOL    HW2 2487   2.887   2.436   0.125  0.2990 -0.3951  3.3071
  830SOL     OW 2488   1.106   0.762   0.586  0.2757  0.0787 -0.5252
  830SOL    HW1 2489   1.082   0.670   0.555 -1.1764  1.9686  1.7102
  830SOL    HW2 2490   1.129   0.756   0.689  0.9537 -1.0232  2.1013
  831SOL     OW 2491   2.907   2.262   0.138 -0.3301 -0.3045  0.4798
  831SOL    HW1 2492   2.880   2.165   0.141 -0.8706 -0.3496 -1.1410
  831SOL    HW2 2493   2.980   2.281   0.207  1.3031  0.8061  0.0778
  832SOL     OW 2494   1.237   2.410   0.409  0.2027 -0.4803 -0.5746
  832SOL    HW1 2495   1.173   2.332   0.422  0.1710 -0.0510 -0.1399
  832SOL    HW2 2496   1.268   2.453   0.499  1.6677 -0.8335  1.7603
  833SOL     OW 2497   0.705   0.605   2.637  0.2098 -0.1777  0.1396
  833SOL    HW1 2498   0.766   0.668   2.582  1.5689  1.2629 -0.2825
  833SOL    HW2 2499   0.622   0.651   2.672  1.4536 -1.9340 -1.1880
  834SOL     OW 2500   2.759   0.785   0.752  0.3673  0.5798 -0.1887
  834SOL    HW1 2501   2.666   0.740   0.768 -1.1317 -2.3326 -0.7542
  834SOL    HW2 2502   2.769   0.856   0.826 -1.3641 -0.5075  0.4502
  835SOL     OW 2503   2.418   0.596   2.121  0.8604 -0.1382  0.6102
  835SOL    HW1 2504   2.381   0.665   2.054 -0.7108 -2.3303 -1.5819
  835SOL    HW2 2505   2.458   0.652   2.201 -1.4247  0.6377 -0.2298
  836SOL     OW 2506   0.392   2.240   0.921  0.3718 -0.3569 -0.4009
  836SOL    HW1 2507   0.350   2.294   0.846  1.9602  1.6507 -1.4527
  836SOL    HW2 2508   0.478   2.285   0.956  1.6897  0.7473  1.2778
  837SOL     OW 2509   2.498   1.779   2.150  0.3371  0.2315 -0.0030
  837SOL    HW1 2510   2.490   1.853   2.218 -1.9331  1.4252  3.0081
  837SOL    HW2 2511   2.428   1.795   2.076  0.4771 -0.5627 -2.1201
  838SOL     OW 2512   0.062   1.091   2.111  0.1430  0.2796 -0.5639
  838SOL    HW1 2513   0.087   0.998   2.103 -1.8943  0.9492  1.3985
  838SOL    HW2 2514   0.044   1.127   2.020  1.0198 -0.5836  0.3074
  839SOL     OW 2515   0.258   3.004   0.113 -0.1745  0.5710 -0.2539
  839SOL    HW1 2516   0.258   3.028   0.013  0.7144  2.0933 -0.0408
  839SOL    HW2 2517   0.353   3.016   0.146  0.5990 -0.5046 -3.8883
  840SOL     OW 2518   2.932   0.652   2.567 -0.3822 -0.6340 -0.7936
  840SOL    HW1 2519   2.894   0.724   2.634  1.3092  2.3379  1.6778
  840SOL    HW2 2520   2.936   0.563   2.618 -2.2417  0.2530 -0.7100
  841SOL     OW 2521   0.698   2.076   2.558 -0.6301 -0.1533 -0.0829
  841SOL    HW1 2522   0.669   1.993   2.608 -0.5437 -0.2042  1.1508
  841SOL    HW2 2523   0.627   2.149   2.563  0.6064 -0.1668 -1.5267
  842SOL     OW 2524   0.856   3.088   1.086  0.2762 -0.1944  0.1751
  842SOL    HW1 2525   0.824   3.039   1.168  1.2096 -0.4301 -1.6913
  842SOL    HW2 2526   0.793   3.069   1.004  0.2233  0.0534 -0.8292
  843SOL     OW 2527   0.589   1.649   2.566 -0.5731 -0.7398  0.4692
  843SOL    HW1 2528   0.604   1.631   2.467 -1.9944  1.5122 -1.0037
  843SOL    HW2 2529   0.543   1.571   2.613 -1.0698  0.9764  0.6878
  844SOL     OW 2530   1.468   1.790   2.201 -0.2889 -0.1737 -0.5584
  844SOL    HW1 2531   1.383   1.741   2.166 -2.3501 -0.1903 -1.0067
  844SOL    HW2 2532   1.539   1.726   2.231  0.4855  1.3242 -0.6703
  845SOL     OW 2533   2.395   2.762   2.838 -0.6903 -0.1181 -0.6087
  845SOL    HW1 2534   2.377   2.847   2.788  2.4831 -1.3429  1.0856
  845SOL    HW2 2535   2.402   2.678   2.779  0.1253 -0.3427 -0.8265
  846SOL     OW 2536   1.982   1.587   2.962 -0.0773  0.2959  0.3070
  846SOL    HW1 2537   1.912   1.654   2.945 -0.5158  0.2834  0.2362
  846SOL    HW2 2538   2.008   1.595   3.063 -1.0876 -1.6212 -0.3238
  847SOL     OW 2539   2.380   0.364   2.814 -0.0363 -0.6296 -1.0709
  847SOL    HW1 2540   2.478   0.329   2.814 -1.6908  0.0460 -3.6475
  847SOL    HW2 2541   2.362   0.427   2.891  0.6971 -0.4987 -1.4664
  848SOL     OW 2542   2.972   0.607   0.111 -0.4439  0.1923 -0.0252
  848SOL    HW1 2543   2.975   0.648   0.200  0.7987 -0.2878 -0.6076
  848SOL    HW2 2544   2.963   0.507   0.122 -1.9989  0.7192  0.8135
  849SOL     OW 2545   1.314   0.234   2.493 -0.1801 -0.3021  0.1006
  849SOL    HW1 2546   1.347   0.138   2.511  0.0153 -1.9814 -1.8145
  849SOL    HW2 2547   1.345   0.304   2.557  2.8404 -0.9343 -0.1372
  850SOL     OW 2548   2.896   0.872   0.537  0.2774  0.4483  0.0873
  850SOL    HW1 2549   2.866   0.814   0.613 -2.0865 -0.7349  1.2878
  850SOL    HW2 2550   2.889   0.971   0.566 -0.1337 -0.8482  1.2120
  851SOL     OW 2551   0.348   1.020   0.948 -0.3208  0.1719  0.7180
  851SOL    HW1 2552   0.401   1.022   1.036  2.1028 -0.6490  3.4883
  851SOL    HW2 2553   0.254   1.041   0.971  0.1806  0.2101 -0.7238
  852SOL     OW 2554   1.179   0.930   1.841 -0.0077 -0.4395 -0.0053
  852SOL    HW1 2555   1.137   1.005   1.894  0.7939 -0.3593 -0.9260
  852SOL    HW2 2556   1.113   0.852   1.828 -1.1298 -1.6178  0.4531
  853SOL     OW 2557   1.864   1.317   3.043 -0.5561 -0.2687  0.2165
  853SOL    HW1 2558   1.945   1.367   3.009  0.7360 -0.9451 -0.8185
  853SOL    HW2 2559   1.855   1.237   2.981  0.4191  0.5916  1.3604
  854SOL     OW 2560   1.617   1.154   1.997  1.0782 -0.1386 -0.3037
  854SOL    HW1 2561   1.631   1.064   1.950 -1.3561  0.2905  0.9521
  854SOL    HW2 2562   1.584   1.228   1.936  2.4328  0.0985 -1.4830
  855SOL     OW 2563   0.630   2.273   2.209 -0.1888  0.5841  0.0053
  855SOL    HW1 2564   0.532   2.261   2.240 -0.1097  0.7487  0.2816
  855SOL    HW2 2565   0.693   2.295   2.289  0.6169  0.7619  0.9853
  856SOL     OW 2566   1.208   1.078   2.206  0.3449 -0.3338 -0.2988
  856SOL    HW1 2567   1.144   1.076   2.286  1.2782  0.2856 -0.9422
  856SOL    HW2 2568   1.171   1.134   2.127  0.8560 -1.0035 -1.6375
  857SOL     OW 2569   0.986   1.075   2.365  0.5714 -0.2114 -0.8487
  857SOL    HW1 2570   0.911   1.023   2.330  0.2833  2.4169 -0.1657
  857SOL    HW2 2571   0.992   1.065   2.468 -1.7186  2.0641  2.1036
  858SOL     OW 2572   0.084   0.515   1.763  0.2427 -0.1566  0.3419
  858SOL    HW1 2573   3.110   0.538   1.721 -0.9345  2.1845 -1.6483
  858SOL    HW2 2574   0.077   0.458   1.849 -1.8103  0.7568  3.4286
  859SOL     OW 2575   2.422   2.948   1.033 -0.0754 -0.3916 -0.1627
  859SOL    HW1 2576   2.364   2.994   1.101  0.3503 -0.5859 -1.2273
  859SOL    HW2 2577   2.517   2.920   1.064  1.3462 -0.1868  0.8617
  860SOL     OW 2578   1.677   0.493   1.433 -0.5036 -0.1861 -0.1027
  860SOL    HW1 2579   1.614   0.435   1.486  0.4208 -1.5289  1.9896
  860SOL    HW2 2580   1.634   0.538   1.352 -0.3924  0.3369 -0.4461
  861SOL     OW 2581   1.826   0.821   1.171 -0.0932  0.4067 -0.4847
  861SOL    HW1 2582   1.757   0.841   1.247 -2.6960  0.8282  2.2791
  861SOL    HW2 2583   1.833   0.719   1.152  0.2009 -0.3969  2.0924
  862SOL     OW 2584   1.232   2.878   2.564  0.1511  0.8015 -0.0930
  862SOL    HW1 2585   1.211   2.780   2.598  0.3398  0.8915  0.8532
  862SOL    HW2 2586   1.158   2.940   2.581  3.3328 -1.6471  1.2909
  863SOL     OW 2587   2.708   3.028   1.486 -0.4446  0.2235 -0.1536
  863SOL    HW1 2588   2.608   3.010   1.464  1.8982  0.2740 -1.7315
  863SOL    HW2 2589   2.711   3.055   1.583 -2.4765  1.2834 -0.4123
  864SOL     OW 2590   2.933   2.873   2.149 -0.5543  0.2158 -0.1378
  864SOL    HW1 2591   2.843   2.834   2.172 -2.4542  0.6714  1.5627
  864SOL    HW2 2592   2.943   2.968   2.195 -0.6819  1.6878  2.8673
  865SOL     OW 2593   1.046   1.223   2.815  0.0953  0.4652  0.2134
  865SOL    HW1 2594   1.116   1.243   2.745 -1.7182  1.6737  0.7588
  865SOL    HW2 2595   0.963   1.283   2.795 -3.6311  3.1246 -2.6763
  866SOL     OW 2596   2.670   2.906   1.193 -0.0423 -0.1318  0.2681
  866SOL    HW1 2597   2.615   2.981   1.235 -0.8908  1.7164 -4.0323
  866SOL    HW2 2598   2.643   2.818   1.231 -1.3831 -1.5128 -3.3317
  867SOL     OW 2599   3.055   2.628   1.124  0.6944  0.4251  0.6114
  867SOL    HW1 2600   0.031   2.652   1.094 -2.1668 -0.4784 -0.4142
  867SOL    HW2 2601   3.011   2.703   1.187 -1.3513  1.3016  1.9590
  868SOL     OW 2602   2.874   1.513   1.585  0.0606 -0.6692 -0.0324
  868SOL    HW1 2603   2.965   1.526   1.538  0.2653 -1.9564  0.3305
  868SOL    HW2 2604   2.795   1.535   1.523 -0.0543  0.5163 -2.1916
  869SOL     OW 2605   1.820   2.008   2.509  0.2885  0.0112 -0.3046
  869SOL    HW1 2606   1.782   2.098   2.524  0.0479  0.4260  2.5281
  869SOL    HW2 2607   1.923   2.016   2.516  0.0927  2.2942  0.6508
  870SOL     OW 2608   1.415   0.856   0.651  0.2059 -0.1696  0.0576
  870SOL    HW1 2609   1.518   0.863   0.665  4.9897 -0.0661  3.4946
  870SOL    HW2 2610   1.373   0.806   0.728  1.1654 -1.6429  1.6385
  871SOL     OW 2611   2.738   1.698   2.065 -0.1029 -0.5319  0.0188
  871SOL    HW1 2612   2.717   1.648   1.977 -0.2904  0.5610  2.8585
  871SOL    HW2 2613   2.644   1.730   2.098 -2.3311 -2.8040  0.4946
  872SOL     OW 2614   0.846   1.684   2.893 -0.4830  0.4427  0.0063
  872SOL    HW1 2615   0.844   1.779   2.929 -0.2691  0.9792  0.9149
  872SOL    HW2 2616   0.870   1.625   2.973  4.0138 -0.6085  2.5224
  873SOL     OW 2617   0.981   1.269   1.763 -0.1043 -0.1155 -0.1865
  873SOL    HW1 2618   0.910   1.200   1.790 -1.9618  0.4993 -1.6471
  873SOL    HW2 2619   0.970   1.289   1.665 -0.0303 -0.1439  0.6092
  874SOL     OW 2620   1.497   0.865   1.118  0.1447 -0.0640  0.2863
  874SOL    HW1 2621   1.581   0.910   1.153  1.3566 -1.4046 -1.0930
  874SOL    HW2 2622   1.425   0.899   1.181  0.0965  0.7451 -3.0252
  875SOL     OW 2623   2.622   2.893   2.683 -0.0918  0.0565  0.2166
  875SOL    HW1 2624   2.530   2.940   2.686  1.4748  1.3496 -0.8518
  875SOL    HW2 2625   2.647   2.873   2.586  2.0985 -0.1776 -0.4988
  876SOL     OW 2626   1.001   1.371   0.579  0.2055 -0.4872  0.6216
  876SOL    HW1 2627   1.035   1.279   0.547  0.3017 -0.5736 -1.3640
  876SOL    HW2 2628   1.036   1.446   0.519  2.6299  0.7502 -0.2158
  877SOL     OW 2629   2.087   3.040   0.510  0.6357  0.4304  0.2395
  877SOL    HW1 2630   2.031   0.003   0.538  0.1823 -0.8092 -2.0940
  877SOL    HW2 2631   2.183   3.043   0.546  2.2226  0.8391 -1.0193
  878SOL     OW 2632   2.104   2.314   0.102 -0.3047  0.1324 -0.3495
  878SOL    HW1 2633   2.149   2.258   0.031 -1.4322  3.2223 -0.9965
  878SOL    HW2 2634   2.137   2.294   0.194  0.4239  1.1538 -1.0866
  879SOL     OW 2635   0.514   2.342   1.691  0.1409  0.4708  0.5295
  879SOL    HW1 2636   0.461   2.398   1.620 -2.2504 -0.2554 -4.6390
  879SOL    HW2 2637   0.511   2.245   1.660 -3.6260 -2.7722  0.2477
  880SOL     OW 2638   0.106   1.679   0.965  0.0431  0.0977  0.3080
  880SOL    HW1 2639   0.208   1.689   0.955  0.8473  0.4439  1.1788
  880SOL    HW2 2640   0.054   1.642   0.883 -1.4445 -1.4450  1.4156
  881SOL     OW 2641   1.194   3.111   2.298  0.1564 -0.4705  0.0808
  881SOL    HW1 2642   1.105   3.088   2.351 -1.0919  1.8839  1.7161
  881SOL    HW2 2643   1.258   0.045   2.356  1.7025  0.5066 -1.2071
  882SOL     OW 2644   2.626   1.215   0.561  0.1797  0.1589 -0.2938
  882SOL    HW1 2645   2.540   1.160   0.579 -0.0790 -1.5385  0.6387
  882SOL    HW2 2646   2.706   1.163   0.590 -1.0870 -0.6373 -1.5089
  883SOL     OW 2647   1.243   0.652   2.028  0.0978  0.4236 -0.3183
  883SOL    HW1 2648   1.176   0.708   2.079  0.4578 -1.3646 -0.0786
  883SOL    HW2 2649   1.313   0.703   1.973 -0.2966  1.1420  2.1393
  884SOL     OW 2650   0.099   0.178   1.681 -0.3624  0.1675  0.0525
  884SOL    HW1 2651   0.060   0.175   1.589 -1.9136 -0.6112  1.5566
  884SOL    HW2 2652   0.184   0.227   1.686 -0.7742  0.9114 -1.6047
  885SOL     OW 2653   2.079   1.280   2.702 -0.1755 -0.2885  0.0678
  885SOL    HW1 2654   2.131   1.357   2.655 -3.5897 -1.4600 -1.2236
  885SOL    HW2 2655   1.998   1.253   2.650  2.0304  0.7633  0.5622
  886SOL     OW 2656   1.978   0.367   2.949 -0.3078  0.4550 -0.0434
  886SOL    HW1 2657   1.987   0.397   2.852  1.1352 -0.4860 -0.8920
  886SOL    HW2 2658   1.883   0.384   2.983  0.3805  4.0423  0.4858
  887SOL     OW 2659   0.977   2.976   1.608 -0.0733 -0.3892 -0.0819
  887SOL    HW1 2660   1.042   2.934   1.671 -1.7212  0.3424  0.3514
  887SOL    HW2 2661   0.910   2.913   1.572  1.2315 -0.7980  0.2943
  888SOL     OW 2662   2.235   1.395   1.735  0.2037 -0.2469  0.1359
  888SOL    HW1 2663   2.195   1.455   1.661  0.4186  0.6424  0.4121
  888SOL    HW2 2664   2.334   1.378   1.722 -1.2505 -1.2107  1.2642
  889SOL     OW 2665   2.009   2.344   1.405  0.3789  0.0917  0.8408
  889SOL    HW1 2666   2.047   2.377   1.316 -1.4469  1.0926 -0.2952
  889SOL    HW2 2667   2.064   2.265   1.443  0.9535 -0.9893 -1.1725
  890SOL     OW 2668   0.926   2.274   0.782 -0.3925  0.2736 -0.1593
  890SOL    HW1 2669   0.945   2.172   0.781  2.1886  0.9061  0.3510
  890SOL    HW2 2670   0.981   2.323   0.849 -0.1845 -0.0484 -2.2934
  891SOL     OW 2671   2.857   1.389   0.272  0.5043  0.4061 -0.1032
  891SOL    HW1 2672   2.851   1.397   0.170  0.2986  0.2724  2.8448
  891SOL    HW2 2673   2.910   1.307   0.301  2.3338  0.2458 -0.2653
  892SOL     OW 2674   2.457   1.678   2.837 -0.1211  0.2482 -0.4033
  892SOL    HW1 2675   2.469   1.621   2.754 -0.6582  0.3161 -0.8104
  892SOL    HW2 2676   2.452   1.615   2.921 -0.5082  2.3898  3.9796
  893SOL     OW 2677   2.354   2.576   1.088  0.3224  0.2713  0.4518
  893SOL    HW1 2678   2.298   2.627   1.018  0.4033  1.2383 -0.2227
  893SOL    HW2 2679   2.453   2.584   1.064 -0.6875  0.6119  1.1737
  894SOL     OW 2680   2.885   0.405   0.751 -0.0472 -0.0616  0.0590
  894SOL    HW1 2681   2.909   0.311   0.727  1.1134  1.1327  2.3434
  894SOL    HW2 2682   2.789   0.424   0.773  1.3008  0.6402 -0.5097
  895SOL     OW 2683   2.501   2.388   2.493 -0.0009  0.8659  0.0594
  895SOL    HW1 2684   2.585   2.370   2.433  1.5355  0.0141 -2.0740
  895SOL    HW2 2685   2.522   2.360   2.591  2.3344  0.3789 -0.7265
  896SOL     OW 2686   2.202   2.758   2.412  0.3564 -0.4534  0.2775
  896SOL    HW1 2687   2.198   2.694   2.490  0.2328 -1.6643 -0.9747
  896SOL    HW2 2688   2.262   2.842   2.429  0.4806 -1.1880 -0.8471
  897SOL     OW 2689   0.261   1.561   2.105  0.1590  0.2025  0.5302
  897SOL    HW1 2690   0.223   1.486   2.159  0.0427 -0.1116 -1.3477
  897SOL    HW2 2691   0.271   1.644   2.166  1.7557  0.0249  1.4018
  898SOL     OW 2692   0.290   1.984   2.058  0.0222 -0.4606  0.7630
  898SOL    HW1 2693   0.193   1.956   2.061  1.9262  0.5529  1.3786
  898SOL    HW2 2694   0.305   2.059   1.990 -1.6153  1.0343 -0.7612
  899SOL     OW 2695   2.016   2.916   1.304 -0.3350 -0.4963 -0.3583
  899SOL    HW1 2696   1.960   2.995   1.343 -1.3500  3.4373 -3.3952
  899SOL    HW2 2697   2.033   2.846   1.378  1.3841 -0.5157 -1.3402
  900SOL     OW 2698   1.318   0.877   0.402 -0.2463 -0.4180 -0.3402
  900SOL    HW1 2699   1.330   0.867   0.502 -0.3167 -0.6797 -0.1507
  900SOL    HW2 2700   1.315   0.975   0.371 -1.6608 -2.1887  1.2066
  901SOL     OW 2701   1.204   1.257   2.596 -0.0607  0.0576  0.0847
  901SOL    HW1 2702   1.289   1.246   2.549 -1.6771 -1.1868 -0.4730
  901SOL    HW2 2703   1.141   1.320   2.546  0.5929 -0.4001  0.6788
  902SOL     OW 2704   2.847   2.363   0.746 -0.1476 -0.5396 -0.3754
  902SOL    HW1 2705   2.876   2.438   0.809  1.4451 -1.0254  1.6881
  902SOL    HW2 2706   2.767   2.324   0.793  0.5044 -1.5100  0.8098
  903SOL     OW 2707   2.926   1.367   1.989 -0.2576 -0.2825 -0.3377
  903SOL    HW1 2708   2.946   1.464   1.985 -0.0822 -2.2159 -2.5992
  903SOL    HW2 2709   2.884   1.346   2.077  2.2947  0.0648 -3.5332
  904SOL     OW 2710   1.382   1.335   0.404 -0.4614 -0.0912 -0.0872
  904SOL    HW1 2711   1.347   1.410   0.463  0.3024 -0.5626 -1.8220
  904SOL    HW2 2712   1.460   1.276   0.443  4.0250 -1.7521 -0.9597
  905SOL     OW 2713   2.504   2.395   1.487  0.0196 -1.1046 -0.0512
  905SOL    HW1 2714   2.499   2.491   1.528 -0.2938  2.0277  0.5823
  905SOL    HW2 2715   2.572   2.338   1.536 -1.9926  1.8621 -1.1986
  906SOL     OW 2716   1.756   2.493   3.102 -0.3066  0.3382 -0.1956
  906SOL    HW1 2717   1.829   2.457   0.046 -1.4220  0.0551  0.2406
  906SOL    HW2 2718   1.719   2.584   0.007  0.4502 -2.0849 -0.4887
  907SOL     OW 2719   0.308   2.800   0.759 -0.0303  0.4939  0.3359
  907SOL    HW1 2720   0.260   2.808   0.669 -1.8568  1.2421  0.6282
  907SOL    HW2 2721   0.409   2.801   0.747  0.0398  0.8964  4.2865
  908SOL     OW 2722   0.515   0.302   1.887 -0.2704 -0.6482 -0.5842
  908SOL    HW1 2723   0.600   0.249   1.884 -1.6498  2.7912 -1.4256
  908SOL    HW2 2724   0.549   0.398   1.899  2.5830  1.7916  1.4846
  909SOL     OW 2725   1.940   0.601   1.429  0.4226  0.2495 -0.2518
  909SOL    HW1 2726   1.847   0.555   1.423 -1.6288 -0.8767  0.5483
  909SOL    HW2 2727   1.990   0.579   1.345 -2.3175  1.8834 -1.2225
  910SOL     OW 2728   1.066   0.863   0.269  0.1680  0.2256 -0.0777
  910SOL    HW1 2729   1.011   0.903   0.346  2.3146 -1.8617  2.6997
  910SOL    HW2 2730   1.158   0.837   0.299 -1.6477 -0.8887  0.5714
  911SOL     OW 2731   0.218   0.225   2.935  0.0601 -0.6703  0.0795
  911SOL    HW1 2732   0.182   0.289   3.009  1.4580 -0.3496  0.3933
  911SOL    HW2 2733   0.149   0.213   2.865  1.1410 -1.1558  1.1954
  912SOL     OW 2734   2.775   2.453   2.786  0.0973  0.0211 -0.1616
  912SOL    HW1 2735   2.790   2.535   2.730 -1.1062 -2.4406  0.6542
  912SOL    HW2 2736   2.754   2.483   2.883 -0.0212  3.0393  2.0732
  913SOL     OW 2737   2.478   2.575   0.027 -0.2210 -0.3742 -0.0620
  913SOL    HW1 2738   2.470   2.531   0.116 -0.8009  1.0533 -3.7495
  913SOL    HW2 2739   2.470   2.678   0.029  0.5944  0.6060  0.4267
  914SOL     OW 2740   1.651   1.672   1.819 -0.1299  0.3763  0.0443
  914SOL    HW1 2741   1.665   1.612   1.899  1.3034  0.5958 -0.7413
  914SOL    HW2 2742   1.642   1.770   1.847  1.1614 -1.3068 -1.0484
  915SOL     OW 2743   0.100   2.315   2.315 -0.1500  0.3641  0.3973
  915SOL    HW1 2744   0.126   2.387   2.257 -0.2125 -0.8043  2.6432
  915SOL    HW2 2745   3.114   2.291   2.314  0.3800 -2.0561 -0.2596
  916SOL     OW 2746   3.033   0.953   1.845 -0.9155  0.4640  0.0198
  916SOL    HW1 2747   3.047   1.054   1.859  0.7422  2.3292 -0.5383
  916SOL    HW2 2748   0.006   0.903   1.865  4.1306  2.3749  0.9460
  917SOL     OW 2749   2.096   0.079   2.977 -0.6931 -0.0742 -0.1988
  917SOL    HW1 2750   2.116   0.042   3.072  1.8419 -0.0472  2.6684
  917SOL    HW2 2751   2.071   0.179   2.982 -0.1560 -3.0367  1.3747
  918SOL     OW 2752   1.934   2.501   2.193  0.1884  0.0974  0.6600
  918SOL    HW1 2753   1.981   2.491   2.283  0.0995 -0.7014 -1.2039
  918SOL    HW2 2754   1.889   2.589   2.186  1.7521  0.5484 -1.5250
  919SOL     OW 2755   2.065   2.292   2.075 -0.4681 -0.1674  0.5282
  919SOL    HW1 2756   2.044   2.370   2.134  1.0794 -0.9196 -1.1565
  919SOL    HW2 2757   2.044   2.202   2.116  2.7913 -2.0400 -0.9592
  920SOL     OW 2758   0.196   1.053   0.048 -0.0240 -0.0206  0.1215
  920SOL    HW1 2759   0.286   1.046   0.095  0.2713  0.9666  0.5359
  920SOL    HW2 2760   0.155   0.961   0.045  0.8491 -1.9201  0.2383
  921SOL     OW 2761   2.846   1.103   2.750  0.2919 -0.2089 -0.2556
  921SOL    HW1 2762   2.766   1.163   2.766  3.5899  0.3702  1.7695
  921SOL    HW2 2763   2.888   1.114   2.657  2.7020 -0.5425  0.7026
  922SOL     OW 2764   0.517   1.884   0.120 -0.4509 -0.1486 -0.2651
  922SOL    HW1 2765   0.462   1.889   0.035 -0.3863  1.1135 -1.1211
  922SOL    HW2 2766   0.491   1.808   0.181  2.4930 -0.7984  1.1283
  923SOL     OW 2767   0.425   0.863   2.176  0.1185  0.2770  0.1391
  923SOL    HW1 2768   0.354   0.826   2.236  1.3059 -2.2196 -2.7660
  923SOL    HW2 2769   0.501   0.796   2.152 -0.0189 -1.2400 -1.0151
  924SOL     OW 2770   0.733   2.692   2.658  0.5309  0.4079 -0.4339
  924SOL    HW1 2771   0.787   2.667   2.576 -1.6428 -0.0421 -1.2902
  924SOL    HW2 2772   0.747   2.785   2.694 -0.4845  0.1192 -0.7531
  925SOL     OW 2773   1.606   1.467   0.715 -0.3773 -0.0812  0.1081
  925SOL    HW1 2774   1.604   1.367   0.731 -1.0125  1.1953  2.2887
  925SOL    HW2 2775   1.695   1.498   0.666  0.1731  2.2503  0.5440
  926SOL     OW 2776   1.499   0.554   2.079 -0.2714 -0.0650 -0.5829
  926SOL    HW1 2777   1.403   0.592   2.087  2.1565 -0.1608 -0.2955
  926SOL    HW2 2778   1.567   0.617   2.129  1.2895 -1.0038  1.9406
  927SOL     OW 2779   3.002   2.401   1.803  0.3467  0.3017 -0.3080
  927SOL    HW1 2780   2.968   2.339   1.727  1.7416 -3.1133  1.3520
  927SOL    HW2 2781   2.956   2.489   1.798 -2.2272 -2.8177 -4.0461
  928SOL     OW 2782   0.098   0.936   2.658  0.0880  0.9135 -0.0517
  928SOL    HW1 2783   0.084   0.978   2.754 -0.3176  1.3655  2.5350
  928SOL    HW2 2784   0.194   0.940   2.635 -1.8202  1.1901  0.9860
  929SOL     OW 2785   3.015   0.153   0.743 -0.5250  0.1170  0.2435
  929SOL    HW1 2786   3.080   0.080   0.721  0.4766 -0.3999 -0.2069
  929SOL    HW2 2787   3.013   0.155   0.846  0.1417  0.8047 -1.8177
  930SOL     OW 2788   2.276   0.225   1.957  0.1633 -0.1301  0.0754
  930SOL    HW1 2789   2.205   0.194   1.889  1.2226 -1.0064  0.0906
  930SOL    HW2 2790   2.373   0.196   1.944  0.8330 -0.7477  0.4662
  931SOL     OW 2791   2.172   1.174   3.070 -0.1151  0.5602 -0.2598
  931SOL    HW1 2792   2.260   1.130   3.094  0.9423  0.2361  0.4905
  931SOL    HW2 2793   2.181   1.254   3.007  1.4421 -1.4775  0.8531
  932SOL     OW 2794   2.515   1.381   1.741  0.1982  0.1866  0.3068
  932SOL    HW1 2795   2.528   1.325   1.657 -5.4440  1.2570  2.3060
  932SOL    HW2 2796   2.564   1.328   1.821  1.3353 -2.5536  2.4141
  933SOL     OW 2797   0.024   2.605   1.601  0.0016  0.1912  0.2094
  933SOL    HW1 2798   0.083   2.572   1.677  1.8512 -1.9066 -0.9631
  933SOL    HW2 2799   3.114   2.706   1.619  0.4248  2.4547  1.4504
  934SOL     OW 2800   0.829   2.777   0.997 -0.6831 -0.1206 -0.4081
  934SOL    HW1 2801   0.916   2.799   1.052 -2.2057 -0.0216  1.6435
  934SOL    HW2 2802   0.825   2.683   0.966  0.4013  0.1695 -1.2697
  935SOL     OW 2803   2.413   1.290   2.132 -0.0872 -0.0681  0.0477
  935SOL    HW1 2804   2.480   1.272   2.057 -0.2719 -2.0721 -0.8640
  935SOL    HW2 2805   2.355   1.203   2.149 -1.9152 -0.7324 -0.5970
  936SOL     OW 2806   2.208   1.125   1.787  0.1013 -0.2879  0.2955
  936SOL    HW1 2807   2.223   1.218   1.748  0.5824  1.0038  1.0934
  936SOL    HW2 2808   2.283   1.089   1.844 -0.6294 -0.2996  1.3550
  937SOL     OW 2809   2.007   1.027   2.133 -0.1321  0.2370  0.6868
  937SOL    HW1 2810   1.968   1.064   2.220 -1.3299 -2.3727 -0.5672
  937SOL    HW2 2811   1.941   0.954   2.094 -5.6283 -1.3064  1.0697
  938SOL     OW 2812   0.887   2.586   3.100 -0.0981 -1.0572  0.0011
  938SOL    HW1 2813   0.886   2.516   0.061  0.2660 -1.0539  3.1863
  938SOL    HW2 2814   0.898   2.685   0.012 -0.1127 -0.4410  1.1623
  939SOL     OW 2815   2.698   0.858   0.006  0.1913  0.3579  0.5051
  939SOL    HW1 2816   2.788   0.891   0.030 -1.3620  1.4102  1.4361
  939SOL    HW2 2817   2.638   0.866   0.088 -2.1305 -0.0109  2.6374
  940SOL     OW 2818   1.141   1.844   1.118  0.0319  0.0192 -0.0300
  940SOL    HW1 2819   1.052   1.794   1.118  1.6984 -2.2515  1.3006
  940SOL    HW2 2820   1.206   1.827   1.040 -0.6270  0.5418  0.6903
  941SOL     OW 2821   0.889   2.095   1.909 -0.1705 -0.4112 -0.0718
  941SOL    HW1 2822   0.894   2.192   1.878  0.7882 -2.5065  1.1234
  941SOL    HW2 2823   0.838   2.045   1.838 -0.4850  0.9433  0.0413
  942SOL     OW 2824   0.512   2.071   2.854  0.1194 -0.3227  0.2737
  942SOL    HW1 2825   0.434   2.092   2.792  0.5812 -0.8517 -1.5222
  942SOL    HW2 2826   0.575   2.012   2.797  0.5544 -1.3946 -0.8462
  943SOL     OW 2827   1.754   2.937   1.780 -0.3091 -0.7147 -0.2701
  943SOL    HW1 2828   1.796   2.870   1.846 -1.2447 -0.7206  2.4619
  943SOL    HW2 2829   1.748   2.900   1.683  4.0945 -1.0092 -1.2890
  944SOL     OW 2830   1.269   1.986   3.110  0.2027  0.1761 -0.1624
  944SOL    HW1 2831   1.346   2.049   0.016 -2.2099  0.6139  1.1740
  944SOL    HW2 2832   1.206   2.019   3.033 -3.2060 -1.7236 -2.4302
  945SOL     OW 2833   2.629   2.540   1.022 -0.5348  0.2061  0.9573
  945SOL    HW1 2834   2.729   2.540   1.001  1.1758 -0.3250  1.1673
  945SOL    HW2 2835   2.579   2.523   0.936  1.3544  2.8119  0.0765
  946SOL     OW 2836   0.895   1.454   2.720 -0.3091  0.1688 -0.5714
  946SOL    HW1 2837   0.934   1.466   2.627 -1.1645 -1.6987  1.9487
  946SOL    HW2 2838   0.856   1.539   2.757 -0.2981  0.0258  1.0972
  947SOL     OW 2839   3.055   0.619   2.048  0.0199  0.0872  0.4287
  947SOL    HW1 2840   0.010   0.691   2.037  0.4711  1.5414 -3.2838
  947SOL    HW2 2841   3.092   0.528   2.047  0.6270  1.3085 -0.1686
  948SOL     OW 2842   0.133   1.355   0.791 -0.1916 -0.5093  0.2356
  948SOL    HW1 2843   0.202   1.427   0.776 -0.7885 -2.0514  1.9107
  948SOL    HW2 2844   0.155   1.301   0.872  2.0365  2.4722 -2.7879
  949SOL     OW 2845   0.680   0.758   2.048  0.0401  0.3166 -0.2266
  949SOL    HW1 2846   0.669   0.662   2.085 -1.0666  0.3223 -2.0420
  949SOL    HW2 2847   0.777   0.781   2.026  1.6556 -0.0554 -0.6635
  950SOL     OW 2848   0.120   0.551   1.481 -0.3749 -0.2868  0.1244
  950SOL    HW1 2849   0.156   0.530   1.572 -0.4436  0.6191 -2.0543
  950SOL    HW2 2850   0.035   0.497   1.465 -1.7619 -0.3336  0.6870
  951SOL     OW 2851   0.707   1.240   2.704  0.3765  0.1937 -0.2152
  951SOL    HW1 2852   0.795   1.292   2.711 -0.6326 -1.3450 -0.1016
  951SOL    HW2 2853   0.724   1.161   2.643  1.9661  0.2810 -1.3574
  952SOL     OW 2854   1.850   2.140   0.768 -0.0603 -0.1517 -0.9323
  952SOL    HW1 2855   1.876   2.232   0.751  0.1680 -4.2112  1.5427
  952SOL    HW2 2856   1.922   2.091   0.820 -0.1654 -0.1672 -1.3932
  953SOL     OW 2857   0.488   0.421   0.185  0.0290  0.1696  0.4916
  953SOL    HW1 2858   0.527   0.424   0.283  0.9320  4.1765  0.5753
  953SOL    HW2 2859   0.386   0.425   0.192  3.2932 -0.4260 -0.1089
  954SOL     OW 2860   2.430   0.590   1.115 -0.0412 -0.2963 -0.6160
  954SOL    HW1 2861   2.361   0.665   1.098  1.1097  0.4781  2.4337
  954SOL    HW2 2862   2.478   0.621   1.197  1.7300 -0.9259 -0.2759
  955SOL     OW 2863   1.779   1.391   0.173  0.2307 -0.4591 -0.0325
  955SOL    HW1 2864   1.815   1.345   0.084  1.8028 -1.2148 -2.1585
  955SOL    HW2 2865   1.675   1.366   0.179 -4.0806 -0.5374 -1.4097
  956SOL     OW 2866   0.979   0.612   2.472 -0.1529  0.3080  0.3305
  956SOL    HW1 2867   1.051   0.665   2.418  0.5045  1.0735  0.3082
  956SOL    HW2 2868   1.006   0.513   2.478 -2.0216  2.7278  0.1012
  957SOL     OW 2869   1.479   0.280   1.568 -0.2377  0.0773 -0.2798
  957SOL    HW1 2870   1.420   0.216   1.628 -0.7654 -1.9108  1.9985
  957SOL    HW2 2871   1.573   0.241   1.557  3.5079 -1.3973 -1.0420
  958SOL     OW 2872   0.363   2.071   0.528  0.4456 -0.0335  0.2113
  958SOL    HW1 2873   0.436   2.065   0.457  0.5384  0.1869  0.8222
  958SOL    HW2 2874   0.354   1.990   0.588  2.8024  0.8994  1.7971
  959SOL     OW 2875   2.164   0.937   1.581  0.1616  0.5724  0.2635
  959SOL    HW1 2876   2.181   0.998   1.660  0.8333 -0.5067 -0.3330
  959SOL    HW2 2877   2.093   0.870   1.606  1.0941  1.3825 -1.8557
  960SOL     OW 2878   0.142   1.789   2.925 -0.1152 -0.2139  0.4364
  960SOL    HW1 2879   0.232   1.799   2.965 -2.7540  3.7919  0.7011
  960SOL    HW2 2880   0.082   1.724   2.979 -0.0958 -0.3266  3.2915
  961SOL     OW 2881   0.659   2.251   0.982  0.0381  0.5653 -0.2893
  961SOL    HW1 2882   0.642   2.166   1.041  1.5270 -2.8493  2.9840
  961SOL    HW2 2883   0.719   2.238   0.903 -1.0792 -0.3380 -2.0880
  962SOL     OW 2884   0.358   1.387   1.144 -0.0927  0.0784 -0.5440
  962SOL    HW1 2885   0.268   1.350   1.122 -0.5330  1.6856  2.5748
  962SOL    HW2 2886   0.351   1.456   1.219  0.7182  2.3403 -1.5116
  963SOL     OW 2887   1.693   1.642   2.272 -0.2660  0.0349  0.1735
  963SOL    HW1 2888   1.688   1.599   2.360  0.6829 -0.8236 -2.2030
  963SOL    HW2 2889   1.753   1.728   2.265 -0.6650 -0.5481  1.3351
  964SOL     OW 2890   0.176   3.089   2.026  0.3069  0.6120  0.1748
  964SOL    HW1 2891   0.132   2.998   2.035  0.3391  1.7070 -0.6108
  964SOL    HW2 2892   0.238   3.108   2.101  0.5019 -1.8375 -0.0813
  965SOL     OW 2893   3.030   2.355   2.844  0.2386 -0.6747 -0.2352
  965SOL    HW1 2894   2.933   2.381   2.811 -2.8169 -2.4214 -0.3380
  965SOL    HW2 2895   3.085   2.315   2.769  0.3405 -1.3711 -1.6787
  966SOL     OW 2896   2.591   1.804   0.024  0.1927  0.7525 -0.1380
  966SOL    HW1 2897   2.667   1.761   3.091 -0.1004  0.6385  0.1087
  966SOL    HW2 2898   2.528   1.736   0.070 -0.5922 -0.9703 -0.5782
  967SOL     OW 2899   2.092   3.106   0.117  0.1540 -0.0194 -0.1254
  967SOL    HW1 2900   2.124   3.016   0.162  0.2506 -2.5152 -2.5467
  967SOL    HW2 2901   1.995   0.001   0.104  0.4833  0.6133 -0.0903
  968SOL     OW 2902   2.611   0.149   0.489  0.1075 -0.5461 -0.2029
  968SOL    HW1 2903   2.591   0.048   0.492 -0.1155 -1.8368 -1.4264
  968SOL    HW2 2904   2.533   0.209   0.526 -0.7066 -0.4138 -1.6698
  969SOL     OW 2905   0.220   0.910   1.796  0.0004 -0.4149  0.0284
  969SOL    HW1 2906   0.251   1.007   1.788 -0.7134 -0.9520  0.1034
  969SOL    HW2 2907   0.171   0.882   1.715  2.3719  1.9789 -0.6729
  970SOL     OW 2908   1.797   1.782   0.080 -0.1899 -0.2248  0.2225
  970SOL    HW1 2909   1.811   1.713   0.150 -1.4469  0.2799 -1.2000
  970SOL    HW2 2910   1.761   1.863   0.127  1.0582 -3.2457  0.4003
  971SOL     OW 2911   2.371   0.020   1.609  0.9744 -0.2985  0.2988
  971SOL    HW1 2912   2.280   0.068   1.628  0.9941 -1.1198 -2.7932
  971SOL    HW2 2913   2.396   3.080   1.691  0.0884  0.7246  1.4149
  972SOL     OW 2914   2.894   0.121   1.127 -0.4616 -0.3667 -0.4304
  972SOL    HW1 2915   2.937   0.209   1.112 -0.2541  0.8987 -0.1398
  972SOL    HW2 2916   2.949   0.043   1.092 -1.6191  1.5120  2.3427
  973SOL     OW 2917   0.501   0.468   2.485 -0.3275 -0.5901  0.4377
  973SOL    HW1 2918   0.558   0.543   2.446  2.2374  2.4018  3.6649
  973SOL    HW2 2919   0.542   0.422   2.570 -0.3048 -1.9343  0.5168
  974SOL     OW 2920   2.640   1.249   1.946 -0.5057  0.3490  0.2639
  974SOL    HW1 2921   2.690   1.287   2.029  3.8269  1.1749 -0.0371
  974SOL    HW2 2922   2.643   1.149   1.945  0.9402  0.7461  3.1134
  975SOL     OW 2923   1.116   0.167   1.827 -0.4141  0.3835  0.3739
  975SOL    HW1 2924   1.033   0.136   1.776  1.0252  0.0284 -0.5610
  975SOL    HW2 2925   1.136   0.115   1.912  0.1855  0.6922  0.9775
  976SOL     OW 2926   1.668   1.560   1.289 -0.2440 -0.5572 -0.5403
  976SOL    HW1 2927   1.622   1.608   1.367  0.3057 -1.1796 -3.3802
  976SOL    HW2 2928   1.715   1.474   1.307 -0.2162  0.7606 -2.0174
  977SOL     OW 2929   0.547   3.031   0.190  0.3811  0.0154  0.5549
  977SOL    HW1 2930   0.618   3.100   0.206 -2.0704 -0.1009  1.6968
  977SOL    HW2 2931   0.570   2.971   0.112 -0.9305  0.8730 -1.5918
  978SOL     OW 2932   2.284   1.066   2.146  0.3996 -0.7554 -0.0810
  978SOL    HW1 2933   2.335   1.013   2.081 -0.4327  0.5428  0.7954
  978SOL    HW2 2934   2.187   1.041   2.133  1.0225 -0.3901 -0.1971
  979SOL     OW 2935   1.426   0.828   1.944  0.1997 -0.2533  0.6363
  979SOL    HW1 2936   1.362   0.895   1.902  0.5191  1.8611  0.9360
  979SOL    HW2 2937   1.521   0.852   1.918 -1.1499 -1.3350  2.3555
  980SOL     OW 2938   1.845   1.548   2.611  0.2692 -0.1182 -0.3797
  980SOL    HW1 2939   1.866   1.484   2.534 -1.6348 -0.0101  2.3794
  980SOL    HW2 2940   1.795   1.495   2.688 -1.2369  2.5012  1.4225
  981SOL     OW 2941   1.521   0.547   1.770  0.0945 -0.4219 -0.6525
  981SOL    HW1 2942   1.558   0.631   1.816 -0.0176 -1.1837 -1.0511
  981SOL    HW2 2943   1.483   0.562   1.672 -3.1115 -2.3534 -2.2581
  982SOL     OW 2944   0.673   0.590   0.095  0.1242  0.6333  0.1788
  982SOL    HW1 2945   0.603   0.530   0.137 -2.0732  0.3052  0.3290
  982SOL    HW2 2946   0.691   0.563   3.114 -0.4631 -0.9000 -0.9002
  983SOL     OW 2947   2.459   0.881   0.214 -0.0588 -0.0730 -0.3167
  983SOL    HW1 2948   2.421   0.959   0.272 -0.3942  1.0137 -0.3122
  983SOL    HW2 2949   2.538   0.831   0.257  2.6610 -0.0653  0.3795
  984SOL     OW 2950   0.857   0.372   2.656 -0.6251  0.4484  0.2705
  984SOL    HW1 2951   0.898   0.384   2.747 -1.5484 -0.3504  1.4110
  984SOL    HW2 2952   0.816   0.462   2.625  0.6837  0.6685 -1.4104
  985SOL     OW 2953   1.604   1.938   1.899 -0.2388  0.1751 -0.1687
  985SOL    HW1 2954   1.675   2.008   1.871 -1.2581 -1.2579 -0.4608
  985SOL    HW2 2955   1.553   1.965   1.981 -0.9833 -1.0587 -0.7591
  986SOL     OW 2956   2.583   2.563   1.847 -0.1858  0.0459  0.3057
  986SOL    HW1 2957   2.674   2.578   1.804 -0.2651  0.7523  2.1798
  986SOL    HW2 2958   2.552   2.641   1.906  0.7226  3.1347 -0.4832
  987SOL     OW 2959   1.783   1.423   1.025  0.0239 -0.2210  0.1536
  987SOL    HW1 2960   1.810   1.392   0.932 -1.5990  2.1662 -0.7720
  987SOL    HW2 2961   1.685   1.439   1.023  2.7250 -3.9289 -1.6413
  988SOL     OW 2962   2.573   1.630   2.369  0.0324  0.4791  0.1119
  988SOL    HW1 2963   2.609   1.710   2.425  3.3595 -0.4674 -1.8806
  988SOL    HW2 2964   2.560   1.662   2.275  1.5039 -2.1831  0.9982
  989SOL     OW 2965   1.447   2.493   0.235 -0.4178 -0.2165  0.1432
  989SOL    HW1 2966   1.365   2.473   0.288  1.6621 -1.0166 -2.4670
  989SOL    HW2 2967   1.522   2.510   0.300 -2.6902  1.1670 -1.4596
  990SOL     OW 2968   1.872   0.629   2.772 -0.7376 -0.0604  0.3046
  990SOL    HW1 2969   1.939   0.699   2.804  2.1192  0.8020  1.8127
  990SOL    HW2 2970   1.922   0.548   2.739  0.2287 -0.7371  1.6861
  991SOL     OW 2971   1.168   0.443   0.875 -0.1522  0.3411  0.0591
  991SOL    HW1 2972   1.101   0.431   0.798  2.4652 -1.0493 -2.1996
  991SOL    HW2 2973   1.146   0.378   0.952  0.4722  0.2037  0.9531
  992SOL     OW 2974   2.967   0.884   1.140 -0.4530 -0.7583 -0.7518
  992SOL    HW1 2975   2.882   0.914   1.196 -2.7051  2.2796  2.6470
  992SOL    HW2 2976   2.959   0.785   1.140 -0.7055  5.0628  3.3849
  993SOL     OW 2977   2.300   0.704   1.887  0.6234 -0.2494 -0.2231
  993SOL    HW1 2978   2.234   0.631   1.854  0.1775 -0.2406 -1.5769
  993SOL    HW2 2979   2.397   0.671   1.870 -0.8854  0.2730  0.7975
  994SOL     OW 2980   1.025   1.464   2.466  0.0874  0.1722  0.5060
  994SOL    HW1 2981   0.966   1.417   2.397 -1.5466  0.2689  1.1499
  994SOL    HW2 2982   1.054   1.556   2.436 -0.1271  0.1344 -0.4431
  995SOL     OW 2983   2.215   1.416   2.896 -0.5580 -0.0523 -0.2128
  995SOL    HW1 2984   2.197   1.366   2.813  1.4918  2.3615  3.4701
  995SOL    HW2 2985   2.145   1.480   2.924  3.9837 -0.3807  0.9274
  996SOL     OW 2986   2.148   2.038   0.520 -0.2920  0.1984 -0.0756
  996SOL    HW1 2987   2.069   1.997   0.569  1.1561 -1.9302 -2.3702
  996SOL    HW2 2988   2.206   1.969   0.472 -0.5551 -0.5879 -0.7746
  997SOL     OW 2989   2.169   0.470   1.858 -0.7434 -0.5294  0.0221
  997SOL    HW1 2990   2.219   0.406   1.916 -0.5423  1.4716  2.4114
  997SOL    HW2 2991   2.176   0.445   1.759  0.6327  3.7008 -1.9255
  998SOL     OW 2992   2.360   1.154   0.630  0.8481 -0.2649 -0.0092
  998SOL    HW1 2993   2.320   1.240   0.667 -0.6566  2.5733 -0.4754
  998SOL    HW2 2994   2.340   1.076   0.694 -1.5139  0.9030  1.6735
  999SOL     OW 2995   2.596   1.492   0.334 -0.4984  0.2403 -0.7614
  999SOL    HW1 2996   2.615   1.570   0.404  1.5025 -0.7083  0.4484
  999SOL    HW2 2997   2.682   1.455   0.298 -1.3565 -2.9284 -1.9293
 1000SOL     OW 2998   0.819   1.068   1.773  0.4560 -0.3080  0.2393
 1000SOL    HW1 2999   0.876   1.040   1.691 -1.2940  2.6009 -0.5323
 1000SOL    HW2 3000   0.720   1.045   1.758 -2.1998 -1.7214  2.4365
   3.11628   3.11628   3.11628
