1000 SPC/Fw water molecules t= 456.00000 step= 456000
 3000
    1SOL     OW    1   2.867   3.036   1.439  0.2327  0.2758 -0.3471
    1SOL    HW1    2   2.859   3.080   1.350  0.4710 -0.4472 -0.5386
    1SOL    HW2    3   2.770   3.027   1.477  0.6498  0.2241  1.3616
    2SOL     OW    4   2.817   0.190   0.058 -0.1838 -0.0888 -0.4252
    2SOL    HW1    5   2.799   0.093   0.031  0.3619 -2.3043 -0.2864
    2SOL    HW2    6   2.729   0.239   0.077  0.5867 -0.9406  0.7964
    3SOL     OW    7   1.323   2.728   0.172 -0.1388  0.1769  0.1619
    3SOL    HW1    8   1.276   2.638   0.158 -1.0096 -0.2156  0.1811
    3SOL    HW2    9   1.422   2.708   0.186  1.0956  0.3563 -1.5279
    4SOL     OW   10   1.586   2.532   2.331 -0.4471  0.6245  0.2164
    4SOL    HW1   11   1.630   2.499   2.417  1.3880 -0.7490  0.1892
    4SOL    HW2   12   1.518   2.468   2.293 -2.3786  0.3338 -0.2727
    5SOL     OW   13   2.353   0.333   1.996  0.0455  0.4733 -0.2278
    5SOL    HW1   14   2.378   0.313   1.898  0.8162 -0.5614 -3.1596
    5SOL    HW2   15   2.364   0.430   2.017 -1.9405 -0.2410  0.7712
    6SOL     OW   16   2.725   1.890   1.214 -0.3779  0.8122  0.0866
    6SOL    HW1   17   2.730   1.804   1.156  0.1072 -1.7982 -0.6546
    6SOL    HW2   18   2.633   1.934   1.217  1.3137  2.7494  0.4733
    7SOL     OW   19   1.174   2.148   0.569  0.3500 -0.2526  0.0122
    7SOL    HW1   20   1.121   2.111   0.641 -1.7875 -0.3590 -0.9787
    7SOL    HW2   21   1.117   2.138   0.482 -1.3006 -0.5823  2.7775
    8SOL     OW   22   0.184   0.745   0.465 -0.3228 -0.2559  0.0815
    8SOL    HW1   23   0.280   0.767   0.432  0.0533  0.8425 -0.5054
    8SOL    HW2   24   0.122   0.722   0.386  1.4442  1.0917  3.3749
    9SOL     OW   25   0.170   2.998   1.567 -0.8545 -0.3055 -0.0245
    9SOL    HW1   26   0.236   2.927   1.537 -2.2603 -0.0374  2.3409
    9SOL    HW2   27   0.077   2.956   1.558  2.2765  1.7895  1.4726
   10SOL     OW   28   1.202   2.499   0.702  0.4323 -0.4076 -0.0700
   10SOL    HW1   29   1.133   2.442   0.748 -0.3115  2.4389 -1.8642
   10SOL    HW2   30   1.174   2.523   0.605  1.3646  1.6523 -0.3389
   11SOL     OW   31   2.226   1.045   1.243 -0.1351  0.0297  0.3507
   11SOL    HW1   32   2.233   0.946   1.216 -0.1332  1.4461 -1.1816
   11SOL    HW2   33   2.135   1.073   1.280 -0.7350  3.2404 -1.9144
   12SOL     OW   34   0.250   0.853   2.060  0.0184 -0.0495  0.0109
   12SOL    HW1   35   0.310   0.797   1.996  2.6735  1.6907  0.0779
   12SOL    HW2   36   0.293   0.945   2.061 -0.6733  1.4647 -1.9238
   13SOL     OW   37   2.263   0.075   0.159 -0.2236 -0.7231  0.3533
   13SOL    HW1   38   2.326   3.094   0.159  0.2953 -0.1431 -0.2894
   13SOL    HW2   39   2.184   0.052   0.106 -1.0374  1.0133  0.9770
   14SOL     OW   40   1.701   1.997   0.055 -0.2016  0.2464  0.2678
   14SOL    HW1   41   1.764   1.917   0.030  0.0109  0.3055  1.6150
   14SOL    HW2   42   1.637   2.016   3.079  0.5162 -0.2431  0.2249
   15SOL     OW   43   3.088   2.734   2.408 -0.7432  0.0069  0.1661
   15SOL    HW1   44   0.079   2.767   2.444  2.5933  1.2399 -0.1566
   15SOL    HW2   45   3.019   2.806   2.410  1.8651 -0.0579 -0.4941
   16SOL     OW   46   2.942   0.764   1.086 -0.3069  0.5127  0.3245
   16SOL    HW1   47   2.974   0.736   0.993 -0.0754 -4.2530 -0.7757
   16SOL    HW2   48   2.948   0.680   1.147  0.0648 -4.0377  1.7331
   17SOL     OW   49   0.750   0.217   0.830  0.6759  0.2179 -0.2085
   17SOL    HW1   50   0.782   0.172   0.918 -2.2183 -0.1166  2.2525
   17SOL    HW2   51   0.798   0.181   0.748  3.8000 -2.0152  0.3715
   18SOL     OW   52   0.173   0.227   0.402  0.1916  0.1115  0.0073
   18SOL    HW1   53   0.144   0.297   0.466 -0.7818 -0.8248  0.5937
   18SOL    HW2   54   0.269   0.197   0.423 -1.7615 -0.8237 -0.3226
   19SOL     OW   55   1.514   1.037   1.111 -0.1188 -0.0600 -0.4006
   19SOL    HW1   56   1.449   1.098   1.064 -1.4069 -2.3051 -2.4100
   19SOL    HW2   57   1.536   1.061   1.212 -1.5440 -1.4555  2.4115
   20SOL     OW   58   2.292   1.820   2.621  0.0489  0.6223 -0.1883
   20SOL    HW1   59   2.347   1.905   2.599  3.9768  0.8404  0.8955
   20SOL    HW2   60   2.354   1.741   2.653 -1.8058  0.3946  1.0702
   21SOL     OW   61   1.388   2.892   0.531  0.0722 -0.1468  1.0623
   21SOL    HW1   62   1.414   2.794   0.542 -0.9716 -0.3826 -0.8583
   21SOL    HW2   63   1.470   2.954   0.510  0.0623  1.5767 -1.2465
   22SOL     OW   64   2.379   0.973   0.341  0.7587  0.1347 -0.3853
   22SOL    HW1   65   2.326   1.060   0.334 -1.2645 -0.2310 -1.0329
   22SOL    HW2   66   2.479   0.981   0.329  0.7879 -1.1746 -2.9489
   23SOL     OW   67   1.005   0.399   2.009  0.0515  0.0181  0.0012
   23SOL    HW1   68   0.961   0.326   1.958 -0.1506 -0.7396 -0.9812
   23SOL    HW2   69   1.108   0.398   2.008 -2.5661  1.1140  1.0994
   24SOL     OW   70   1.967   2.392   0.762  0.0804 -0.0239 -0.5607
   24SOL    HW1   71   2.062   2.426   0.745 -0.1770  2.7397 -2.6184
   24SOL    HW2   72   1.909   2.467   0.802 -0.4133  1.0114 -0.1214
   25SOL     OW   73   1.758   0.057   2.620 -0.2241  0.0350  0.2453
   25SOL    HW1   74   1.809   0.143   2.611 -3.0722  3.1656  0.0264
   25SOL    HW2   75   1.708   0.063   2.706  1.0532  1.2257 -0.2664
   26SOL     OW   76   1.418   2.780   2.717  0.2866 -0.3410  0.5671
   26SOL    HW1   77   1.422   2.777   2.615 -0.2506 -1.7749  0.3799
   26SOL    HW2   78   1.333   2.731   2.742 -2.9272  1.7938 -1.4608
   27SOL     OW   79   1.189   0.395   1.174  0.1885 -0.6687  0.3968
   27SOL    HW1   80   1.093   0.432   1.175 -3.6479 -0.6600  1.5659
   27SOL    HW2   81   1.203   0.327   1.247 -1.4742 -0.8964  1.0157
   28SOL     OW   82   0.235   1.881   1.002 -0.0482  0.1055 -0.6591
   28SOL    HW1   83   0.333   1.861   1.004 -2.3718 -1.7193  0.1806
   28SOL    HW2   84   0.199   1.872   1.093  1.4539  1.8956 -2.2476
   29SOL     OW   85   2.644   1.192   1.183  0.2380  0.3694 -0.3121
   29SOL    HW1   86   2.653   1.133   1.099  0.0705 -1.3002 -1.1725
   29SOL    HW2   87   2.630   1.141   1.275  2.3641  0.8838  0.7711
   30SOL     OW   88   1.750   2.725   1.487 -0.3198 -0.3838 -0.0413
   30SOL    HW1   89   1.744   2.655   1.410  1.1782 -3.1770  0.6108
   30SOL    HW2   90   1.691   2.800   1.460  1.3959  1.5856  0.1989
   31SOL     OW   91   1.498   2.787   1.239 -0.2730  0.1680  0.4175
   31SOL    HW1   92   1.401   2.770   1.216  3.9180 -1.7305 -0.4654
   31SOL    HW2   93   1.552   2.782   1.150 -1.2932 -0.2326 -3.1634
   32SOL     OW   94   2.234   1.252   2.005 -0.2389 -0.4558  0.0316
   32SOL    HW1   95   2.289   1.321   1.956  0.0180 -2.2430  2.8064
   32SOL    HW2   96   2.164   1.203   1.947 -2.8963 -3.5212 -0.8037
   33SOL     OW   97   2.281   2.892   2.337 -0.4806 -0.0344 -0.1436
   33SOL    HW1   98   2.298   2.990   2.372  1.8308 -1.1779  0.1088
   33SOL    HW2   99   2.346   2.866   2.266  4.9470 -3.1668 -0.8903
   34SOL     OW  100   2.021   0.824   0.778  0.4450  0.0564 -0.2049
   34SOL    HW1  101   2.037   0.823   0.678  0.0458  0.9252  0.2069
   34SOL    HW2  102   1.944   0.888   0.807 -2.3023 -1.8706 -0.6068
   35SOL     OW  103   0.080   1.499   1.928  0.3946 -0.3285 -0.1601
   35SOL    HW1  104   0.072   1.505   2.030  2.5982  2.3645  3.0010
   35SOL    HW2  105   3.091   1.517   1.878  2.8566 -0.8240 -0.9722
   36SOL     OW  106   2.521   2.384   2.854 -0.0414  0.7144 -0.4594
   36SOL    HW1  107   2.488   2.315   2.790 -0.7942 -1.1762 -1.1166
   36SOL    HW2  108   2.439   2.434   2.890 -0.0951  0.2847  0.6900
   37SOL     OW  109   1.311   2.720   1.893  0.2878  0.2247  0.2521
   37SOL    HW1  110   1.339   2.800   1.948 -0.7821 -1.3332 -2.2449
   37SOL    HW2  111   1.212   2.705   1.891  0.4131 -0.7313 -0.2176
   38SOL     OW  112   0.846   0.910   2.357 -0.4588  0.4120 -0.5623
   38SOL    HW1  113   0.862   0.809   2.366  0.7378  1.3580 -0.3719
   38SOL    HW2  114   0.824   0.935   2.260  1.1970 -1.1252  2.9067
   39SOL     OW  115   1.819   0.748   1.673  0.0324  0.6888 -0.8378
   39SOL    HW1  116   1.729   0.701   1.691  0.3732 -0.5993 -1.5848
   39SOL    HW2  117   1.899   0.708   1.724 -1.6214  1.8334  0.2838
   40SOL     OW  118   0.782   2.370   0.737 -0.0195 -0.1849 -0.5574
   40SOL    HW1  119   0.760   2.415   0.826 -3.7240 -1.1322  1.6674
   40SOL    HW2  120   0.797   2.273   0.752  1.6591  1.7399 -0.5127
   41SOL     OW  121   2.456   1.995   1.260 -0.3161  0.1426 -0.1815
   41SOL    HW1  122   2.444   1.937   1.343 -1.5350  0.9680 -1.3620
   41SOL    HW2  123   2.433   2.094   1.274 -1.7594 -1.4034  0.2593
   42SOL     OW  124   2.425   0.693   0.446 -0.3093 -0.3200  0.3743
   42SOL    HW1  125   2.500   0.646   0.390  2.4468 -2.3909 -3.0263
   42SOL    HW2  126   2.452   0.792   0.450  1.1135 -1.5390 -0.7657
   43SOL     OW  127   0.604   1.002   2.471 -0.7923 -0.4697 -0.3952
   43SOL    HW1  128   0.593   1.100   2.435  1.0475  2.0146 -0.7166
   43SOL    HW2  129   0.680   0.947   2.423  1.6423  0.3285  0.1297
   44SOL     OW  130   1.753   2.539   1.300  0.1320  0.2194 -0.9081
   44SOL    HW1  131   1.684   2.464   1.291  0.4495 -0.0687 -0.9067
   44SOL    HW2  132   1.846   2.506   1.319 -2.3413  3.2688 -0.3721
   45SOL     OW  133   0.561   2.387   2.727 -0.2910 -0.1727 -0.2375
   45SOL    HW1  134   0.497   2.398   2.805 -2.2914 -0.0123  0.5506
   45SOL    HW2  135   0.600   2.476   2.697 -1.1315 -0.8705  0.0136
   46SOL     OW  136   0.584   2.701   1.988  0.0997 -0.5969  0.1521
   46SOL    HW1  137   0.657   2.753   2.031 -1.4997  0.6565 -0.8075
   46SOL    HW2  138   0.560   2.615   2.039 -3.0381 -2.0534 -0.4618
   47SOL     OW  139   0.493   1.736   0.751 -0.0054  0.6182  0.6532
   47SOL    HW1  140   0.586   1.728   0.703  0.4873  0.8040 -2.2937
   47SOL    HW2  141   0.493   1.822   0.808  0.9721  0.2664  0.6127
   48SOL     OW  142   0.772   0.018   1.304  0.6854 -0.2291 -0.0575
   48SOL    HW1  143   0.804   3.063   1.381  0.1548  1.6268 -2.9105
   48SOL    HW2  144   0.670   0.025   1.305  0.4503 -0.1305  1.5524
   49SOL     OW  145   0.061   2.778   2.969  0.0138 -0.2345  0.1485
   49SOL    HW1  146   3.082   2.783   3.033 -1.3492  1.6865  1.1438
   49SOL    HW2  147   0.084   2.679   2.952  0.8068 -0.4806 -0.5595
   50SOL     OW  148   1.354   0.977   0.170  0.5317  0.0126  0.1041
   50SOL    HW1  149   1.275   0.921   0.205 -0.6223 -1.8507 -0.0607
   50SOL    HW2  150   1.319   1.064   0.139 -1.2797 -0.1110  1.1447
   51SOL     OW  151   1.937   0.131   0.527 -0.4022  0.3047 -0.0214
   51SOL    HW1  152   1.914   0.228   0.500  0.0877  2.0095 -0.1812
   51SOL    HW2  153   1.925   0.115   0.627  0.5936 -2.6498 -1.1544
   52SOL     OW  154   0.369   1.509   0.849  0.8061 -0.0817 -0.6762
   52SOL    HW1  155   0.423   1.581   0.806  0.7384 -1.2693  2.4018
   52SOL    HW2  156   0.417   1.423   0.844 -0.3603  2.2775  1.0789
   53SOL     OW  157   0.229   1.072   3.051  0.3752  0.1926  0.2372
   53SOL    HW1  158   0.139   1.025   3.045  2.8495 -0.0084 -1.0108
   53SOL    HW2  159   0.283   1.028   0.027  1.3022  1.1126  2.9738
   54SOL     OW  160   2.618   2.185   0.019  0.1787  0.5202  0.3331
   54SOL    HW1  161   2.708   2.209   0.061  2.2139  1.6594 -0.5999
   54SOL    HW2  162   2.555   2.263   0.026  1.7206 -0.0192 -0.8659
   55SOL     OW  163   2.630   2.274   1.237 -0.6258 -0.8278 -0.5357
   55SOL    HW1  164   2.675   2.251   1.325  1.5197 -1.7940  1.5851
   55SOL    HW2  165   2.530   2.274   1.256  1.7425  1.4512 -0.8234
   56SOL     OW  166   1.739   0.381   1.084 -0.6978 -0.9536  0.2818
   56SOL    HW1  167   1.711   0.291   1.048 -1.1573  1.3202 -0.1208
   56SOL    HW2  168   1.748   0.451   1.008  0.0434 -0.8278  1.5424
   57SOL     OW  169   2.036   1.952   1.256 -0.0948  0.0883 -0.3252
   57SOL    HW1  170   2.059   2.052   1.264  0.9758  3.2872  0.5342
   57SOL    HW2  171   1.942   1.937   1.216  1.6883 -2.8682  1.5186
   58SOL     OW  172   2.636   0.421   2.084  0.3037 -0.1774  0.1908
   58SOL    HW1  173   2.691   0.424   2.169 -0.4580 -3.2421  1.8832
   58SOL    HW2  174   2.545   0.462   2.095  0.9851  1.2407  1.2912
   59SOL     OW  175   1.411   2.452   2.118 -0.1167 -0.6922 -0.0335
   59SOL    HW1  176   1.312   2.476   2.125  1.4417 -1.8594 -0.8588
   59SOL    HW2  177   1.448   2.474   2.025  0.2780 -0.4745 -0.4147
   60SOL     OW  178   0.835   2.415   2.882  0.3310 -0.1105  0.4787
   60SOL    HW1  179   0.793   2.495   2.926  2.2377  0.9935 -3.0148
   60SOL    HW2  180   0.824   2.331   2.935 -0.7088  1.4378  0.4763
   61SOL     OW  181   0.565   2.087   0.246 -0.1411 -0.4231  0.5057
   61SOL    HW1  182   0.563   2.177   0.193  2.5739 -0.6703  0.6226
   61SOL    HW2  183   0.525   2.016   0.191  1.3832  3.9502 -2.6352
   62SOL     OW  184   1.212   1.582   1.856 -0.0347 -0.1584 -0.3368
   62SOL    HW1  185   1.164   1.540   1.778  1.3519 -0.9082  2.3480
   62SOL    HW2  186   1.209   1.682   1.857  0.9499 -3.0229  1.8564
   63SOL     OW  187   1.026   2.002   0.742 -0.0323 -0.6926 -0.0035
   63SOL    HW1  188   0.929   2.017   0.712  0.2330  0.4241  1.5876
   63SOL    HW2  189   1.060   1.904   0.745 -2.5414 -1.8735  0.7789
   64SOL     OW  190   1.157   1.525   2.744 -0.0417  0.3151  0.4790
   64SOL    HW1  191   1.230   1.592   2.766 -1.9645 -1.3095  1.2993
   64SOL    HW2  192   1.063   1.555   2.772  0.8104 -0.8905  0.7749
   65SOL     OW  193   1.709   1.933   1.931 -0.1510  0.0743  0.2005
   65SOL    HW1  194   1.750   1.996   1.862  0.0047 -2.3537 -1.4708
   65SOL    HW2  195   1.769   1.928   2.013 -1.1795  0.9177 -4.2019
   66SOL     OW  196   0.073   1.113   0.879  0.4690  0.1153  0.2206
   66SOL    HW1  197   3.082   1.078   0.911 -1.6221 -2.5554  0.4244
   66SOL    HW2  198   0.128   1.042   0.827 -1.1334 -1.8091 -0.1736
   67SOL     OW  199   2.236   2.584   0.938  0.3507 -0.0186  0.0893
   67SOL    HW1  200   2.286   2.535   0.869 -2.2575  1.3868  1.1586
   67SOL    HW2  201   2.184   2.665   0.902  0.5401  0.1637  0.5379
   68SOL     OW  202   2.421   2.549   1.530 -0.0984 -0.3657 -0.0379
   68SOL    HW1  203   2.452   2.618   1.462  0.5905  1.6639  1.0777
   68SOL    HW2  204   2.408   2.594   1.621 -2.2970  0.0982 -1.1032
   69SOL     OW  205   2.433   2.642   0.001 -0.7808 -0.6212 -0.2981
   69SOL    HW1  206   2.412   2.672   3.004  0.7662  0.7624 -0.5592
   69SOL    HW2  207   2.367   2.691   0.063 -0.8640 -0.7628  2.1903
   70SOL     OW  208   0.534   1.451   2.771 -0.2439 -0.2521 -0.3759
   70SOL    HW1  209   0.609   1.423   2.708  2.6335  0.2347  0.0891
   70SOL    HW2  210   0.479   1.373   2.805 -1.7757  1.6314  0.6755
   71SOL     OW  211   0.722   1.326   2.139 -0.1754  0.0939  0.2166
   71SOL    HW1  212   0.668   1.241   2.151  1.8330 -0.1453 -0.3211
   71SOL    HW2  213   0.664   1.398   2.101  2.0922 -2.7384 -0.2547
   72SOL     OW  214   2.757   1.224   1.634 -0.1072  0.4227  0.1626
   72SOL    HW1  215   2.784   1.321   1.630 -0.8109 -0.2241  1.2075
   72SOL    HW2  216   2.722   1.201   1.726  1.9812 -0.3791 -1.3504
   73SOL     OW  217   0.747   2.217   2.467  0.4177  0.1912 -0.4048
   73SOL    HW1  218   0.648   2.225   2.447  0.9477 -1.4374 -0.4449
   73SOL    HW2  219   0.796   2.146   2.412 -1.7175  1.8592  1.4969
   74SOL     OW  220   1.627   3.084   1.764 -0.4229 -0.0698  0.0460
   74SOL    HW1  221   1.659   2.995   1.735 -2.5854  0.4150  1.6581
   74SOL    HW2  222   1.683   0.061   1.719  2.4694  1.4154 -0.8136
   75SOL     OW  223   1.177   2.967   0.701  0.7511 -0.1044 -0.0390
   75SOL    HW1  224   1.176   3.060   0.748  0.2073  1.4596 -3.5044
   75SOL    HW2  225   1.265   2.950   0.651 -0.7922  1.4579  2.2206
   76SOL     OW  226   0.478   1.826   2.668  0.2010  0.6383  0.9017
   76SOL    HW1  227   0.488   1.760   2.742 -1.6863  0.4810  1.5924
   76SOL    HW2  228   0.423   1.789   2.591 -2.2846  1.0448  0.9067
   77SOL     OW  229   0.530   2.558   1.260  0.0867 -0.1442 -0.3983
   77SOL    HW1  230   0.457   2.518   1.316  1.9432  0.5886  1.9372
   77SOL    HW2  231   0.505   2.649   1.228 -1.4110 -1.0575  1.1759
   78SOL     OW  232   2.567   1.231   0.215 -0.6231  0.3681 -0.4131
   78SOL    HW1  233   2.543   1.327   0.185  0.5890  1.7966 -1.9359
   78SOL    HW2  234   2.603   1.228   0.309 -0.7237  0.0537 -1.4893
   79SOL     OW  235   0.454   1.655   2.884  0.0245 -0.2296 -0.0454
   79SOL    HW1  236   0.424   1.599   2.964 -0.6779 -1.0375 -2.0672
   79SOL    HW2  237   0.511   1.588   2.829 -0.5627 -2.1884  0.7529
   80SOL     OW  238   1.800   1.585   1.620 -0.4504  0.2384  0.0414
   80SOL    HW1  239   1.754   1.591   1.710  1.5163  0.0390  0.8171
   80SOL    HW2  240   1.762   1.502   1.568 -0.9149  1.1951  1.6832
   81SOL     OW  241   2.074   0.914   2.386  0.4782 -0.0348 -0.0502
   81SOL    HW1  242   2.006   0.968   2.338  0.4396 -2.6302 -0.4086
   81SOL    HW2  243   2.162   0.922   2.344 -1.3323 -1.9181 -1.4205
   82SOL     OW  244   1.670   1.818   1.483  0.5507  0.3148 -0.4990
   82SOL    HW1  245   1.568   1.826   1.497 -2.0746 -1.3153  0.2582
   82SOL    HW2  246   1.701   1.738   1.539  0.8579 -1.5927  0.8989
   83SOL     OW  247   2.968   0.054   2.700 -0.1626  0.0049  0.1819
   83SOL    HW1  248   2.939   0.072   2.606  2.8503 -0.1464 -1.4688
   83SOL    HW2  249   2.886   0.044   2.761 -0.1164  0.6152  0.2248
   84SOL     OW  250   0.938   0.838   0.468  0.6986  0.0471 -0.0441
   84SOL    HW1  251   0.869   0.910   0.437  1.4481 -0.3624  1.0196
   84SOL    HW2  252   0.977   0.874   0.555 -1.4705  1.7333  1.1170
   85SOL     OW  253   2.152   1.758   1.424 -0.3129  0.1894 -0.3760
   85SOL    HW1  254   2.100   1.832   1.378  2.3523  0.4283  2.6216
   85SOL    HW2  255   2.161   1.678   1.365 -0.4269  1.1865 -2.2219
   86SOL     OW  256   0.768   1.070   1.340 -0.2477  0.0049  0.9616
   86SOL    HW1  257   0.694   1.139   1.318 -2.9725  1.4354 -3.6036
   86SOL    HW2  258   0.727   1.002   1.400  0.7341 -2.2898  0.1165
   87SOL     OW  259   3.003   2.208   2.486  0.4584 -0.2171 -0.0568
   87SOL    HW1  260   2.945   2.193   2.405 -1.6927  0.9683 -0.6247
   87SOL    HW2  261   2.959   2.275   2.550 -0.5433  2.9719  0.6384
   88SOL     OW  262   0.154   2.839   0.215  0.2864  0.5919 -0.1065
   88SOL    HW1  263   0.162   2.919   0.154  1.2751  0.6059 -0.6092
   88SOL    HW2  264   0.243   2.827   0.265  0.5797 -0.2000  1.2101
   89SOL     OW  265   1.378   0.190   0.471 -0.2347 -0.1845 -0.2844
   89SOL    HW1  266   1.461   0.126   0.468  2.3643  1.3552  1.5561
   89SOL    HW2  267   1.396   0.285   0.443 -2.6416  0.0016  1.3787
   90SOL     OW  268   2.686   0.879   2.240  0.9842  0.4071 -0.2386
   90SOL    HW1  269   2.659   0.930   2.321  0.1593 -0.3602 -2.0133
   90SOL    HW2  270   2.675   0.780   2.263  0.4253  0.6720 -3.0288
   91SOL     OW  271   2.100   2.998   1.050 -0.3252 -0.6699 -0.0905
   91SOL    HW1  272   2.059   3.009   1.142 -2.2175  1.0702  1.8654
   91SOL    HW2  273   2.109   2.901   1.015  2.1850 -3.6285 -1.1090
   92SOL     OW  274   1.583   1.768   0.680 -0.5288 -0.2332  0.3862
   92SOL    HW1  275   1.630   1.746   0.770  1.3673  1.0138  1.6914
   92SOL    HW2  276   1.643   1.834   0.629 -1.2138  0.9247  2.3046
   93SOL     OW  277   0.350   1.522   0.436 -0.4075 -0.2892 -0.5450
   93SOL    HW1  278   0.284   1.583   0.484 -0.6131  1.2691  0.1282
   93SOL    HW2  279   0.415   1.574   0.376 -0.3185 -0.2599 -0.4437
   94SOL     OW  280   0.874   2.679   1.396  0.4342  0.0043  0.2139
   94SOL    HW1  281   0.972   2.673   1.388 -1.3947 -0.9963 -0.1348
   94SOL    HW2  282   0.832   2.596   1.357 -0.6152  2.5111  1.5004
   95SOL     OW  283   0.114   0.951   0.627 -0.2571  0.5603 -0.4458
   95SOL    HW1  284   0.131   0.857   0.581 -2.2749  0.4130  1.7588
   95SOL    HW2  285   0.027   0.952   0.675  2.0678 -0.1338 -3.5238
   96SOL     OW  286   0.731   2.925   1.795 -0.2080  0.5198 -0.0250
   96SOL    HW1  287   0.634   2.951   1.767 -0.7224  1.1393 -0.7984
   96SOL    HW2  288   0.747   2.825   1.801  2.1616 -0.7146  1.1367
   97SOL     OW  289   2.503   0.891   0.850  0.2170 -0.1428  0.2670
   97SOL    HW1  290   2.514   0.819   0.918  0.7054  1.0010  1.2471
   97SOL    HW2  291   2.405   0.927   0.842 -0.3827  1.1712 -0.2044
   98SOL     OW  292   0.144   2.299   1.898  0.1079  0.6245  0.0090
   98SOL    HW1  293   0.215   2.329   1.968  1.8700  1.8929 -0.4580
   98SOL    HW2  294   0.049   2.293   1.941  2.2436 -2.1960  0.7631
   99SOL     OW  295   0.014   0.422   1.513 -0.3829 -0.4087  0.2305
   99SOL    HW1  296   3.099   0.323   1.502 -0.2591  1.3757  1.4203
   99SOL    HW2  297   3.066   0.457   1.597  0.5838 -1.0615  4.4388
  100SOL     OW  298   2.018   0.223   2.671  0.1568  0.1129  0.5979
  100SOL    HW1  299   2.119   0.234   2.681 -0.5459  1.0859  1.8700
  100SOL    HW2  300   1.989   0.271   2.584 -0.1876 -1.6019 -2.2185
  101SOL     OW  301   1.081   3.002   2.053 -0.7652  0.0202 -0.0330
  101SOL    HW1  302   1.154   3.028   2.112  0.1200 -2.7197 -2.4894
  101SOL    HW2  303   0.999   2.994   2.108 -0.9043  5.6729  0.4063
  102SOL     OW  304   0.954   0.695   1.645  0.1751 -0.0239 -0.6353
  102SOL    HW1  305   0.876   0.663   1.578  0.1751 -0.2473 -2.7726
  102SOL    HW2  306   1.046   0.696   1.597 -1.4708  0.3922 -1.7713
  103SOL     OW  307   0.852   0.827   3.029  0.2164  0.1735 -0.1100
  103SOL    HW1  308   0.804   0.867   2.946 -0.9149 -0.2680 -2.5817
  103SOL    HW2  309   0.870   0.725   3.024  2.0432  0.4893  0.2962
  104SOL     OW  310   0.459   0.437   2.180  0.3051 -0.0707 -0.2720
  104SOL    HW1  311   0.471   0.412   2.081 -1.1748 -0.0729  1.3563
  104SOL    HW2  312   0.549   0.437   2.224  1.4913 -0.1002 -0.0512
  105SOL     OW  313   2.645   2.198   1.722  0.2189 -0.2714 -0.0401
  105SOL    HW1  314   2.633   2.097   1.747 -1.4363 -1.2328 -0.7382
  105SOL    HW2  315   2.594   2.259   1.785 -0.6441 -1.7490 -1.5121
  106SOL     OW  316   0.899   2.927   0.617 -0.2469  0.2232 -0.2421
  106SOL    HW1  317   0.871   2.852   0.555 -2.0624  0.6682  2.6924
  106SOL    HW2  318   1.001   2.926   0.635 -0.5573  1.1334 -2.9524
  107SOL     OW  319   2.924   2.093   1.151  0.1250 -0.0588  0.1273
  107SOL    HW1  320   2.947   2.068   1.057 -1.3902 -1.2781  3.0300
  107SOL    HW2  321   2.846   2.037   1.185  1.2250  1.2289 -0.4763
  108SOL     OW  322   0.150   2.331   0.487  0.1784  0.1530 -0.1597
  108SOL    HW1  323   0.152   2.430   0.463  3.1211 -1.1817  0.3795
  108SOL    HW2  324   0.077   2.315   0.558 -0.6145  2.3600 -1.0855
  109SOL     OW  325   1.696   2.915   0.673  0.2311 -0.3982  0.0273
  109SOL    HW1  326   1.761   2.838   0.656  1.5958 -0.0557  2.1636
  109SOL    HW2  327   1.729   2.979   0.748 -0.3764 -0.6893  2.9484
  110SOL     OW  328   1.756   1.930   0.571 -0.4608 -0.0592  0.3338
  110SOL    HW1  329   1.735   1.981   0.483  0.6588  0.9812 -3.1059
  110SOL    HW2  330   1.798   1.998   0.639  2.4600  1.6491  0.4475
  111SOL     OW  331   1.919   2.721   1.864 -0.3972 -0.9038 -0.4401
  111SOL    HW1  332   2.013   2.707   1.829 -0.9716  1.4028 -0.7716
  111SOL    HW2  333   1.900   2.682   1.956 -0.2012  0.0243 -0.1118
  112SOL     OW  334   1.552   2.231   2.524 -0.4696  0.1477 -0.0191
  112SOL    HW1  335   1.563   2.231   2.423 -2.3619 -1.1416  0.7074
  112SOL    HW2  336   1.606   2.312   2.560 -1.7771  1.2975  1.0854
  113SOL     OW  337   2.300   1.982   2.179  0.5037 -0.0361 -0.5255
  113SOL    HW1  338   2.275   1.918   2.255 -0.7578  1.0603  0.2742
  113SOL    HW2  339   2.235   2.062   2.166  1.4066  2.0875 -1.1771
  114SOL     OW  340   0.195   1.248   1.095  0.7877 -0.0501 -0.2186
  114SOL    HW1  341   0.141   1.201   1.023 -0.5178  0.1344 -2.2514
  114SOL    HW2  342   0.134   1.320   1.131 -0.0351 -1.5342 -1.1963
  115SOL     OW  343   2.473   0.788   2.523 -0.2332 -0.0573  0.0944
  115SOL    HW1  344   2.514   0.881   2.531  1.7044 -0.0763  1.4911
  115SOL    HW2  345   2.517   0.740   2.449  2.2336  2.6594  0.1412
  116SOL     OW  346   2.745   0.541   2.806 -0.1031 -0.3674  0.3285
  116SOL    HW1  347   2.657   0.587   2.776 -0.3954  1.8212 -0.9906
  116SOL    HW2  348   2.739   0.440   2.785  0.3700  0.1149  0.0998
  117SOL     OW  349   2.582   2.680   0.642  0.0200  0.0622  0.3365
  117SOL    HW1  350   2.589   2.597   0.699 -0.6065 -0.9275 -0.1184
  117SOL    HW2  351   2.664   2.740   0.632  1.7792 -0.4948  0.2524
  118SOL     OW  352   0.893   2.026   2.327 -0.3972 -0.4981 -0.3474
  118SOL    HW1  353   0.960   2.046   2.255  1.9646 -1.7676  0.5542
  118SOL    HW2  354   0.828   1.954   2.300  0.7096 -0.1483  0.6897
  119SOL     OW  355   0.633   2.743   0.487  0.2075  0.0375  0.3500
  119SOL    HW1  356   0.724   2.746   0.450 -0.3934 -0.1144  0.8711
  119SOL    HW2  357   0.613   2.653   0.525  0.8687  2.6639  2.4286
  120SOL     OW  358   1.335   0.586   0.830 -0.1016  0.2611 -0.0481
  120SOL    HW1  359   1.405   0.521   0.848 -2.0646  4.9086  0.9798
  120SOL    HW2  360   1.385   0.666   0.789  0.2575  0.7467 -1.7287
  121SOL     OW  361   1.707   0.569   0.865  0.4224 -0.2322  1.0483
  121SOL    HW1  362   1.704   0.662   0.913  0.8498  3.8719  2.4339
  121SOL    HW2  363   1.774   0.573   0.791 -1.6523 -0.0657  1.4539
  122SOL     OW  364   1.947   1.462   2.435  0.3223 -0.5518 -0.3561
  122SOL    HW1  365   1.865   1.400   2.441  0.1255 -0.1263  0.0562
  122SOL    HW2  366   2.035   1.415   2.416  0.4172 -2.7589 -0.0366
  123SOL     OW  367   0.925   1.197   0.979  0.0412 -0.4627 -0.4650
  123SOL    HW1  368   0.846   1.161   1.033  1.1097  2.7584  1.2674
  123SOL    HW2  369   0.903   1.222   0.886 -0.4144  0.3282 -0.0798
  124SOL     OW  370   0.592   0.164   2.691  0.1901  0.5807  0.4948
  124SOL    HW1  371   0.544   0.220   2.761 -0.3394 -1.9274  1.0185
  124SOL    HW2  372   0.645   0.233   2.637 -1.3812  0.7793 -1.4487
  125SOL     OW  373   1.032   2.989   0.166 -0.1603 -0.1959  0.0935
  125SOL    HW1  374   1.062   3.040   0.082 -1.5267 -0.8966 -0.7632
  125SOL    HW2  375   1.112   2.944   0.218  0.9634 -0.6462 -0.4118
  126SOL     OW  376   0.815   1.384   0.169  0.5825  0.4163 -0.0241
  126SOL    HW1  377   0.783   1.290   0.130  0.8023  0.0575 -1.2427
  126SOL    HW2  378   0.769   1.404   0.256  0.0287 -0.8809  0.4102
  127SOL     OW  379   1.136   2.400   1.193 -0.0186  0.4131 -0.1293
  127SOL    HW1  380   1.139   2.477   1.264  1.0143  0.6917 -0.3534
  127SOL    HW2  381   1.215   2.397   1.134 -0.4562  1.5735  0.5053
  128SOL     OW  382   0.920   1.803   0.139 -0.5606  0.1727 -0.2803
  128SOL    HW1  383   0.935   1.717   0.088 -1.2352  1.2659 -3.0031
  128SOL    HW2  384   1.013   1.850   0.159  0.2975  1.4491 -0.5710
  129SOL     OW  385   2.031   1.498   2.061  0.2829 -0.6039 -0.3622
  129SOL    HW1  386   1.968   1.440   2.014 -0.7105  0.4060 -0.6674
  129SOL    HW2  387   2.127   1.479   2.045 -1.2336 -0.2634 -0.0905
  130SOL     OW  388   2.096   1.828   1.913 -0.0356  0.4502  0.0696
  130SOL    HW1  389   2.052   1.750   1.963 -2.1501  1.0379  1.6402
  130SOL    HW2  390   2.098   1.804   1.812  0.2179 -4.4438  0.7046
  131SOL     OW  391   0.759   2.394   2.011 -0.1760  0.3632 -0.2865
  131SOL    HW1  392   0.852   2.359   1.996 -0.3514 -2.1574 -3.0304
  131SOL    HW2  393   0.703   2.381   1.925 -1.8591  0.3216  0.8579
  132SOL     OW  394   2.525   1.575   0.794 -0.1765  0.1310  0.4126
  132SOL    HW1  395   2.603   1.583   0.721  0.9307 -3.7211 -1.7977
  132SOL    HW2  396   2.548   1.621   0.880  1.0082 -2.8081  3.5544
  133SOL     OW  397   0.577   1.529   2.065 -0.0574  0.4750 -0.1943
  133SOL    HW1  398   0.588   1.586   1.983 -1.6952 -1.8885  2.9433
  133SOL    HW2  399   0.497   1.559   2.113  1.6495  0.1909 -0.6801
  134SOL     OW  400   3.032   1.557   0.661  0.1067  0.2026 -0.2222
  134SOL    HW1  401   0.011   1.496   0.690  1.4375  1.3657  0.2550
  134SOL    HW2  402   3.027   1.569   0.562 -1.5808 -0.8539  1.3132
  135SOL     OW  403   1.926   1.024   0.015  0.6542  0.3457 -0.5036
  135SOL    HW1  404   1.997   1.096   0.029 -0.5682 -0.7299  0.2129
  135SOL    HW2  405   1.878   1.012   0.106  0.3885 -0.0996  1.7183
  136SOL     OW  406   0.035   1.440   1.146  0.0620 -0.1957 -0.2136
  136SOL    HW1  407   3.037   1.397   1.153 -2.5560 -1.1391  3.3884
  136SOL    HW2  408   0.053   1.485   1.059 -0.0091 -0.8308 -0.0619
  137SOL     OW  409   2.297   1.561   0.610  0.4392  0.0756  0.3993
  137SOL    HW1  410   2.259   1.470   0.599  0.5518  2.2584  0.3840
  137SOL    HW2  411   2.389   1.558   0.652  0.2842 -1.0908 -2.6685
  138SOL     OW  412   2.636   0.565   0.686 -0.4399  0.1573  0.1142
  138SOL    HW1  413   2.564   0.544   0.755  1.8304 -1.2924 -2.9401
  138SOL    HW2  414   2.636   0.492   0.614 -1.9050  2.2775  0.3967
  139SOL     OW  415   2.751   0.029   2.858  0.3653  0.5490  0.9544
  139SOL    HW1  416   2.793   3.096   2.943 -1.8575  1.2130 -4.3726
  139SOL    HW2  417   2.703   3.047   2.813 -0.4442 -2.9020 -0.9595
  140SOL     OW  418   0.635   1.642   1.377 -0.3461 -0.4914  0.2344
  140SOL    HW1  419   0.648   1.617   1.283 -2.2677  1.8225  0.5098
  140SOL    HW2  420   0.662   1.739   1.398 -1.0768  0.9222  0.1822
  141SOL     OW  421   1.366   1.496   0.764  0.3781  0.5652  0.6241
  141SOL    HW1  422   1.438   1.433   0.727  1.4934 -0.8817 -3.3910
  141SOL    HW2  423   1.379   1.532   0.857 -0.9652  0.7614  1.0361
  142SOL     OW  424   1.585   0.785   1.028 -0.3743 -0.4845  0.1898
  142SOL    HW1  425   1.521   0.729   1.085 -0.5710  0.7428  0.0656
  142SOL    HW2  426   1.567   0.885   1.046 -1.6800  0.7083  0.8104
  143SOL     OW  427   0.639   0.523   2.945 -0.0555  0.4961 -0.3012
  143SOL    HW1  428   0.545   0.543   2.978 -0.0002  0.4959  0.2191
  143SOL    HW2  429   0.631   0.446   2.882 -1.5612  0.3017 -0.2206
  144SOL     OW  430   2.480   0.341   0.278 -0.4349  0.0759  0.1709
  144SOL    HW1  431   2.424   0.343   0.196 -0.3680 -0.7653  0.7219
  144SOL    HW2  432   2.470   0.251   0.327 -1.8104 -0.9681 -1.2762
  145SOL     OW  433   2.270   0.056   2.425  0.2038  0.0057 -0.0894
  145SOL    HW1  434   2.276   0.060   2.524  1.0719 -0.4972 -0.8271
  145SOL    HW2  435   2.178   0.036   2.385  0.2414 -0.5418 -4.0912
  146SOL     OW  436   2.737   2.919   0.238  0.2363 -0.0300 -0.4140
  146SOL    HW1  437   2.722   2.816   0.211 -0.7910 -0.4816 -1.0867
  146SOL    HW2  438   2.838   2.941   0.238  0.1036  0.1490 -1.3094
  147SOL     OW  439   1.357   0.711   2.612  0.0437  0.4638  0.5951
  147SOL    HW1  440   1.411   0.656   2.677 -0.9941  3.0576 -1.7160
  147SOL    HW2  441   1.293   0.771   2.661  0.0643  0.5600 -0.4151
  148SOL     OW  442   1.234   0.110   0.238 -0.2784  0.5668 -0.1239
  148SOL    HW1  443   1.265   0.156   0.328  1.6327 -1.3527  2.4918
  148SOL    HW2  444   1.298   0.032   0.217 -1.5383 -1.1433 -1.9026
  149SOL     OW  445   1.371   0.772   2.348 -0.0269 -0.2488  0.5184
  149SOL    HW1  446   1.384   0.740   2.442 -0.8242  0.0973 -0.1265
  149SOL    HW2  447   1.300   0.845   2.347 -1.4606 -2.9478 -1.5134
  150SOL     OW  448   1.731   0.058   2.931  0.1461  0.0511 -0.3579
  150SOL    HW1  449   1.770   0.064   3.029  3.4383 -0.2328  1.9532
  150SOL    HW2  450   1.706   3.062   2.903 -3.0152 -2.9089 -1.2914
  151SOL     OW  451   0.410   1.490   0.050 -0.4363 -0.6774  0.0145
  151SOL    HW1  452   0.402   1.395   0.083  0.4502  0.6335 -2.2285
  151SOL    HW2  453   0.426   1.550   0.131  0.5095  0.2885  0.0181
  152SOL     OW  454   0.942   0.469   1.224 -0.2857 -0.7522 -0.1140
  152SOL    HW1  455   0.881   0.549   1.248  2.2734 -0.2332 -0.5881
  152SOL    HW2  456   0.909   0.389   1.277 -1.7026  0.2335 -1.5402
  153SOL     OW  457   2.471   0.017   1.896 -0.6043 -0.2769  0.1165
  153SOL    HW1  458   2.518   0.043   1.986  0.9018 -1.3317  4.2562
  153SOL    HW2  459   2.397   3.048   1.902 -0.5651  1.2192 -2.9723
  154SOL     OW  460   2.261   2.907   1.927  0.7311 -0.3263 -0.1740
  154SOL    HW1  461   2.191   2.951   1.988  1.4928  0.9595 -3.3863
  154SOL    HW2  462   2.225   2.819   1.884 -0.9138 -0.3279  0.9448
  155SOL     OW  463   3.065   1.252   0.337 -0.3261  0.0456 -0.1581
  155SOL    HW1  464   2.993   1.184   0.352  0.1006 -1.9319 -0.4867
  155SOL    HW2  465   0.040   1.236   0.404  1.6433 -0.5929 -0.8880
  156SOL     OW  466   2.234   1.290   0.553  0.0226  0.2468  0.7055
  156SOL    HW1  467   2.138   1.276   0.576  3.4482 -1.4670 -2.6011
  156SOL    HW2  468   2.242   1.278   0.451 -1.4715  0.8956 -1.6929
  157SOL     OW  469   0.692   2.872   2.828 -0.0806 -0.6637 -0.8218
  157SOL    HW1  470   0.641   2.842   2.907  0.8597  0.0625 -2.3610
  157SOL    HW2  471   0.646   2.949   2.788  1.1898 -0.5038  0.6389
  158SOL     OW  472   1.981   1.071   1.355  0.0240  0.0866  0.3957
  158SOL    HW1  473   1.984   0.987   1.415 -1.5456 -1.1689 -0.5396
  158SOL    HW2  474   1.969   1.154   1.411  1.1770  2.2538 -0.1056
  159SOL     OW  475   0.043   0.103   0.209  0.1125 -0.4854  0.4077
  159SOL    HW1  476   0.108   0.055   0.149  0.8265  1.2551  1.0003
  159SOL    HW2  477   0.099   0.143   0.288  2.6086 -0.0457 -1.6531
  160SOL     OW  478   2.501   1.985   1.992 -0.7015 -0.8183  0.1452
  160SOL    HW1  479   2.597   1.983   2.024 -0.4968  1.2695 -2.8687
  160SOL    HW2  480   2.424   1.972   2.064 -0.7694 -1.7628 -1.3292
  161SOL     OW  481   0.245   0.533   0.108 -0.0229  0.1794 -0.0068
  161SOL    HW1  482   0.297   0.570   0.032 -2.8872  1.0931  0.3558
  161SOL    HW2  483   0.165   0.481   0.067 -0.3346 -0.0552 -2.0223
  162SOL     OW  484   0.680   0.615   1.571 -0.0241  0.0508  0.4621
  162SOL    HW1  485   0.666   0.617   1.672  1.5669  3.4388  0.5881
  162SOL    HW2  486   0.635   0.530   1.532 -1.1836 -1.5359  0.6537
  163SOL     OW  487   2.607   2.813   2.461 -0.2888  0.1807  0.0776
  163SOL    HW1  488   2.577   2.736   2.518  1.0010  0.0283 -2.6948
  163SOL    HW2  489   2.568   2.903   2.494 -0.7617  2.3733 -0.6911
  164SOL     OW  490   2.232   1.587   0.289 -0.0217 -0.0142 -0.3250
  164SOL    HW1  491   2.159   1.519   0.256 -1.1951 -0.8684  0.1693
  164SOL    HW2  492   2.221   1.599   0.387 -2.1553 -0.9546  0.2803
  165SOL     OW  493   0.254   3.050   0.649  0.1709  0.2371  0.1691
  165SOL    HW1  494   0.279   0.031   0.594  3.5910 -1.3378 -1.6587
  165SOL    HW2  495   0.324   2.980   0.635 -3.1529  1.8658 -0.5597
  166SOL     OW  496   2.983   0.270   2.949 -0.1343 -0.8862 -0.4384
  166SOL    HW1  497   3.001   0.198   2.887 -0.3101  0.4519  2.9247
  166SOL    HW2  498   2.928   0.241   3.030  3.4915 -0.0018 -1.1728
  167SOL     OW  499   2.161   0.645   0.438  0.0630 -0.3872 -0.0165
  167SOL    HW1  500   2.262   0.665   0.444  0.8864 -0.0280 -0.6429
  167SOL    HW2  501   2.145   0.611   0.344 -3.1840  1.2542 -1.7208
  168SOL     OW  502   1.667   0.241   2.305 -0.0972  0.3767  0.1116
  168SOL    HW1  503   1.576   0.229   2.351 -0.0226  0.3422 -0.6671
  168SOL    HW2  504   1.666   0.326   2.244 -0.6676  0.1231 -0.0230
  169SOL     OW  505   0.510   1.954   0.947 -0.3264 -0.3479  0.3653
  169SOL    HW1  506   0.568   1.976   1.029 -0.8270 -3.1700 -0.0726
  169SOL    HW2  507   0.495   2.030   0.880 -0.0212 -1.1316 -2.2196
  170SOL     OW  508   0.284   0.134   1.458  0.3817 -0.8444 -0.1928
  170SOL    HW1  509   0.314   0.203   1.528  1.4011  0.1026  0.9086
  170SOL    HW2  510   0.248   0.052   1.499  1.2365  2.4925  2.1750
  171SOL     OW  511   2.203   1.316   2.507  0.3220  0.1888 -0.3635
  171SOL    HW1  512   2.161   1.250   2.442  0.5894 -0.4828 -2.5323
  171SOL    HW2  513   2.280   1.365   2.458  2.9789 -0.6693 -0.9865
  172SOL     OW  514   1.025   1.690   1.076  0.4489 -0.1030 -0.0145
  172SOL    HW1  515   0.936   1.660   1.107 -0.9825 -0.4569 -0.4552
  172SOL    HW2  516   1.039   1.781   1.115  0.7691 -1.1212  0.4176
  173SOL     OW  517   1.870   2.202   0.037  0.4788 -0.8057 -0.0071
  173SOL    HW1  518   1.955   2.164   0.069 -3.2672  2.7245 -1.7135
  173SOL    HW2  519   1.811   2.123   0.014  1.2267  1.2629  1.6998
  174SOL     OW  520   1.743   0.653   0.143 -0.0104  0.0111  0.2530
  174SOL    HW1  521   1.839   0.675   0.116  0.6870  1.1808  2.1510
  174SOL    HW2  522   1.686   0.734   0.113 -0.3979  1.3441  0.9464
  175SOL     OW  523   0.592   1.737   1.790  0.3725  0.2522  0.2081
  175SOL    HW1  524   0.500   1.696   1.801  2.6401  2.2621 -0.8381
  175SOL    HW2  525   0.593   1.834   1.764 -1.7758 -1.9760  1.5428
  176SOL     OW  526   0.786   0.215   0.366 -0.5869 -0.0180  0.4354
  176SOL    HW1  527   0.878   0.221   0.319 -2.5976  0.2924 -1.7783
  176SOL    HW2  528   0.800   0.190   0.468 -1.2846 -2.9298 -1.3659
  177SOL     OW  529   0.083   1.530   0.029 -0.0674 -0.2437  0.4291
  177SOL    HW1  530   0.031   1.459   3.081 -0.3542 -0.6044  2.5978
  177SOL    HW2  531   0.142   1.491   0.098 -0.0067 -0.8514  0.0498
  178SOL     OW  532   2.923   2.379   2.109 -0.3854 -0.0766  0.0349
  178SOL    HW1  533   2.925   2.402   2.010  0.5704 -2.2091  2.0054
  178SOL    HW2  534   2.978   2.437   2.174 -0.7573 -0.3460 -1.5065
  179SOL     OW  535   2.321   0.032   2.678 -0.0623  0.0118  0.0575
  179SOL    HW1  536   2.365   0.112   2.724 -1.3068 -1.8970 -0.4712
  179SOL    HW2  537   2.234   3.100   2.718  1.0877 -0.7158 -3.3031
  180SOL     OW  538   2.494   0.447   0.882  0.0419 -0.2125  0.2912
  180SOL    HW1  539   2.399   0.416   0.848 -2.3720 -1.7771 -0.9210
  180SOL    HW2  540   2.492   0.530   0.946 -0.3124  1.7512  0.0664
  181SOL     OW  541   2.881   2.913   2.421 -0.7238 -0.6513  0.5933
  181SOL    HW1  542   2.900   2.970   2.336  0.3017 -1.0593 -3.2714
  181SOL    HW2  543   2.780   2.902   2.425  3.0727  0.5662  0.0974
  182SOL     OW  544   2.461   2.299   2.382  0.8972  0.2785  0.5605
  182SOL    HW1  545   2.538   2.334   2.440  1.6493  1.9707 -2.6098
  182SOL    HW2  546   2.489   2.295   2.284 -1.9564  0.2940 -0.9620
  183SOL     OW  547   2.605   1.088   1.431 -0.0551 -0.4418  0.1923
  183SOL    HW1  548   2.661   1.130   1.505  1.1809 -0.9120  0.3744
  183SOL    HW2  549   2.509   1.116   1.439  4.2326 -4.4582 -0.4365
  184SOL     OW  550   2.938   1.551   0.918 -0.4626 -0.2338  0.1200
  184SOL    HW1  551   3.027   1.593   0.943 -0.0671  0.2616 -0.7440
  184SOL    HW2  552   2.920   1.547   0.819 -4.3353  1.9022  0.6214
  185SOL     OW  553   0.259   3.072   0.915 -0.1706 -0.5338  0.8870
  185SOL    HW1  554   0.250   3.078   0.812  1.6253  1.1294 -1.1829
  185SOL    HW2  555   0.352   3.057   0.953 -0.4226 -1.0729 -1.2363
  186SOL     OW  556   2.234   2.598   2.167 -0.0804  0.6007  0.0232
  186SOL    HW1  557   2.220   2.602   2.269 -0.5378  3.7407  1.7117
  186SOL    HW2  558   2.270   2.504   2.141  1.1689 -3.5749 -2.2787
  187SOL     OW  559   0.372   1.298   0.602 -0.5308  0.2952 -0.3024
  187SOL    HW1  560   0.379   1.384   0.548  0.1489  0.6278 -0.5684
  187SOL    HW2  561   0.288   1.248   0.574  2.2628 -1.9485  2.6693
  188SOL     OW  562   1.602   1.814   0.222  0.4847  0.5329  0.1316
  188SOL    HW1  563   1.608   1.891   0.152  1.1744 -0.5953  0.5679
  188SOL    HW2  564   1.528   1.826   0.288  2.6195 -0.8738  0.5246
  189SOL     OW  565   0.005   1.366   2.895  0.3691 -0.0663  0.1434
  189SOL    HW1  566   3.075   1.270   2.881 -1.6473  0.4319 -0.4607
  189SOL    HW2  567   3.052   1.430   2.828 -1.0003  2.0647 -0.3496
  190SOL     OW  568   2.214   0.719   2.505  0.0673 -0.4513  0.0442
  190SOL    HW1  569   2.154   0.791   2.458 -0.3104 -3.0247 -0.9281
  190SOL    HW2  570   2.316   0.736   2.505  0.1427 -0.6398  0.9278
  191SOL     OW  571   0.801   1.000   2.071 -0.0256 -0.4630  0.3500
  191SOL    HW1  572   0.783   0.986   1.970 -1.5717 -0.6432  2.1472
  191SOL    HW2  573   0.719   1.032   2.123 -0.2789 -1.1347  0.1114
  192SOL     OW  574   1.704   1.351   2.016  0.0213 -0.3116  0.0927
  192SOL    HW1  575   1.664   1.254   2.028 -1.7920  0.2637  0.4466
  192SOL    HW2  576   1.754   1.363   1.929  0.3940 -1.3138  1.2246
  193SOL     OW  577   1.237   2.718   1.105 -0.4727  0.5946  0.4944
  193SOL    HW1  578   1.301   2.660   1.047 -2.2004 -1.5775  3.4619
  193SOL    HW2  579   1.182   2.783   1.047 -1.8858 -0.3958 -0.3541
  194SOL     OW  580   1.382   1.338   1.838 -0.3044  0.8844  0.9803
  194SOL    HW1  581   1.465   1.353   1.778 -0.1176 -0.8368  0.2019
  194SOL    HW2  582   1.311   1.415   1.833 -1.3291 -0.3553 -1.7668
  195SOL     OW  583   1.848   0.259   0.763  0.2167 -0.3633 -0.4229
  195SOL    HW1  584   1.840   0.353   0.728 -0.7192 -1.0945  0.3600
  195SOL    HW2  585   1.918   0.248   0.838  0.5447 -0.2982  3.1845
  196SOL     OW  586   1.004   1.361   2.226  0.2612  0.5418  0.1515
  196SOL    HW1  587   0.917   1.315   2.198  0.0755  1.4755 -2.8393
  196SOL    HW2  588   1.072   1.354   2.151 -1.2144  0.1877 -1.0797
  197SOL     OW  589   0.425   0.192   2.339  0.3453  0.2964 -0.1440
  197SOL    HW1  590   0.374   0.199   2.429 -0.2554 -2.0007 -1.3806
  197SOL    HW2  591   0.364   0.217   2.261 -4.5269  2.2839 -2.3033
  198SOL     OW  592   2.929   1.258   1.175 -0.2767  0.1198  0.2697
  198SOL    HW1  593   2.830   1.252   1.184 -0.8419  0.5199  0.4043
  198SOL    HW2  594   2.961   1.177   1.119 -1.1381  1.5417 -0.0875
  199SOL     OW  595   0.388   2.067   1.326 -0.0218 -0.4828  0.3302
  199SOL    HW1  596   0.309   2.007   1.347  3.4583  0.6233  0.6570
  199SOL    HW2  597   0.371   2.135   1.249  2.6703  1.4021  1.2420
  200SOL     OW  598   2.453   2.088   2.811 -0.3161  0.1117 -0.6970
  200SOL    HW1  599   2.548   2.054   2.829  0.9701  0.6147 -2.7264
  200SOL    HW2  600   2.396   2.097   2.899 -1.0177  2.2876 -0.3331
  201SOL     OW  601   0.812   2.182   1.372  0.1557  0.1206  0.6607
  201SOL    HW1  602   0.908   2.160   1.374 -4.6294  0.3859 -2.1683
  201SOL    HW2  603   0.798   2.274   1.329  0.0328  0.6938 -1.7556
  202SOL     OW  604   0.750   2.275   0.105  0.2224 -0.4933 -0.5317
  202SOL    HW1  605   0.822   2.302   0.170 -1.0236  0.8995 -1.9131
  202SOL    HW2  606   0.790   2.202   0.045 -1.2793  1.6030 -0.2200
  203SOL     OW  607   1.912   0.268   2.414  0.0984  0.0165  0.3611
  203SOL    HW1  608   1.954   0.236   2.327  0.9340 -1.2102 -0.1348
  203SOL    HW2  609   1.812   0.247   2.409 -0.5449 -0.6123 -0.9277
  204SOL     OW  610   0.214   1.249   1.824  0.3573  0.6585  0.1144
  204SOL    HW1  611   0.190   1.340   1.858  1.5920 -1.6488  0.9365
  204SOL    HW2  612   0.309   1.225   1.855  2.2793  2.3382 -2.9277
  205SOL     OW  613   2.106   1.421   2.718  0.0148  1.1917 -0.1541
  205SOL    HW1  614   2.158   1.397   2.635 -2.5448 -1.6190 -0.1098
  205SOL    HW2  615   2.093   1.524   2.719  0.7861 -1.0429 -0.4778
  206SOL     OW  616   0.062   2.023   2.623  0.3056  0.3819 -0.3344
  206SOL    HW1  617   0.017   2.092   2.562 -0.5287  0.7373  1.4438
  206SOL    HW2  618   0.050   1.930   2.584  1.1288 -1.0494  1.5065
  207SOL     OW  619   0.488   3.019   1.708 -0.0186  0.0393  0.3289
  207SOL    HW1  620   0.424   3.037   1.784 -0.2686 -2.7121  1.3349
  207SOL    HW2  621   0.448   2.971   1.626 -1.2998 -3.1059  0.6607
  208SOL     OW  622   0.331   2.536   1.524 -0.4665  0.0029  0.4189
  208SOL    HW1  623   0.280   2.509   1.440  1.3865 -1.2983  1.4110
  208SOL    HW2  624   0.283   2.534   1.612 -0.0987  0.4839  0.1090
  209SOL     OW  625   1.145   2.679   2.513 -0.0138 -0.5098 -0.6779
  209SOL    HW1  626   1.152   2.582   2.484 -1.8202  2.1836  1.7817
  209SOL    HW2  627   1.122   2.693   2.616 -0.7708  1.7657 -0.6993
  210SOL     OW  628   2.685   1.145   2.110  0.1825 -0.1045  0.5303
  210SOL    HW1  629   2.705   1.191   2.197 -0.0554  1.2550  1.2673
  210SOL    HW2  630   2.695   1.043   2.116 -0.6364 -1.5737 -0.2049
  211SOL     OW  631   1.426   2.970   1.985 -0.1840 -0.5434  0.0043
  211SOL    HW1  632   1.512   3.014   1.951  2.5753 -0.2914 -1.4041
  211SOL    HW2  633   1.395   2.998   2.075  1.2587  0.0543 -2.7884
  212SOL     OW  634   1.495   2.522   1.861 -0.3625  0.2480 -0.2536
  212SOL    HW1  635   1.410   2.568   1.846 -0.7762 -0.7757  0.0895
  212SOL    HW2  636   1.567   2.550   1.793 -1.7784 -1.2312 -1.0550
  213SOL     OW  637   2.507   0.642   1.615  0.2321 -0.1566  0.5549
  213SOL    HW1  638   2.514   0.558   1.560 -1.2870  0.4537  3.7394
  213SOL    HW2  639   2.549   0.719   1.571 -2.2594 -2.3662  0.9322
  214SOL     OW  640   0.773   2.460   1.255  0.2316  0.1647 -0.1315
  214SOL    HW1  641   0.820   2.440   1.169  1.4275  1.9367  1.8988
  214SOL    HW2  642   0.671   2.486   1.243 -1.6987 -3.5563 -1.6459
  215SOL     OW  643   2.459   1.984   0.776 -0.0168  0.1084 -0.9065
  215SOL    HW1  644   2.547   1.969   0.826 -0.2332  4.0011  2.5256
  215SOL    HW2  645   2.459   1.958   0.677 -0.1720  0.3041  1.2365
  216SOL     OW  646   0.226   0.848   1.594  0.0554  0.1960 -0.2346
  216SOL    HW1  647   0.230   0.772   1.526 -0.9001 -3.2464 -2.7282
  216SOL    HW2  648   0.151   0.837   1.659  0.9171 -2.4472  2.7343
  217SOL     OW  649   2.340   0.349   1.234 -0.6880 -0.1992  0.3233
  217SOL    HW1  650   2.402   0.280   1.188  0.4646 -2.0926  1.8879
  217SOL    HW2  651   2.278   0.383   1.161  1.0756 -0.6690  1.1213
  218SOL     OW  652   1.744   2.154   1.169 -0.8697  0.1595  0.0315
  218SOL    HW1  653   1.828   2.204   1.135  1.2456 -0.4835 -0.5201
  218SOL    HW2  654   1.678   2.222   1.217 -1.1413 -0.3193  0.5525
  219SOL     OW  655   1.502   2.332   2.968 -0.2648  0.2438  1.3296
  219SOL    HW1  656   1.559   2.407   2.926 -2.8270 -0.2162  3.7102
  219SOL    HW2  657   1.471   2.362   3.059  1.7805  1.9890 -0.9885
  220SOL     OW  658   1.667   2.518   2.808  0.0184  0.1140 -0.2755
  220SOL    HW1  659   1.624   2.607   2.812 -0.1138  0.5452  0.6137
  220SOL    HW2  660   1.734   2.507   2.883  0.7279 -0.6644  0.5763
  221SOL     OW  661   0.171   2.503   1.729  0.2517 -0.1836  0.6508
  221SOL    HW1  662   0.188   2.578   1.793 -1.7615 -0.3076  1.5951
  221SOL    HW2  663   0.142   2.416   1.776 -0.6910 -0.1538 -0.3063
  222SOL     OW  664   1.949   2.293   1.053 -0.1404  0.1904 -0.0418
  222SOL    HW1  665   2.038   2.251   1.067 -2.2168 -3.1304 -0.6440
  222SOL    HW2  666   1.932   2.336   0.963 -0.5519 -0.8298  0.0611
  223SOL     OW  667   1.041   2.659   1.796 -0.2758  0.1421 -0.3396
  223SOL    HW1  668   0.961   2.638   1.744  1.8276  1.9470  2.5088
  223SOL    HW2  669   1.028   2.624   1.896  0.7092 -0.4133  3.7002
  224SOL     OW  670   2.781   2.220   1.462 -0.0563  0.0247 -0.1750
  224SOL    HW1  671   2.865   2.267   1.500  1.2753  0.5294 -1.0971
  224SOL    HW2  672   2.708   2.202   1.532 -0.1494 -2.0019 -1.1633
  225SOL     OW  673   2.279   2.372   0.692 -0.6199 -0.1166  0.0659
  225SOL    HW1  674   2.272   2.274   0.727  0.2560 -3.2121  1.6179
  225SOL    HW2  675   2.313   2.373   0.596  4.7484 -1.2936  0.7548
  226SOL     OW  676   1.417   2.591   0.557 -0.2100 -0.2349 -0.1740
  226SOL    HW1  677   1.347   2.567   0.628  0.5730 -0.1600 -2.9796
  226SOL    HW2  678   1.509   2.586   0.599 -2.7784  1.0265 -1.0323
  227SOL     OW  679   2.039   1.181   0.900 -0.5931 -0.5863  0.4477
  227SOL    HW1  680   1.977   1.153   0.971  2.7565 -1.2198 -1.2608
  227SOL    HW2  681   2.124   1.231   0.937  1.8326  2.4778  0.4160
  228SOL     OW  682   1.588   0.332   2.640 -0.3270 -0.0502  0.4967
  228SOL    HW1  683   1.645   0.331   2.720  1.5490 -3.0140 -2.0851
  228SOL    HW2  684   1.601   0.416   2.587 -0.3067 -0.3045  3.6246
  229SOL     OW  685   3.021   1.118   2.880  0.0646 -0.1782 -0.6070
  229SOL    HW1  686   3.016   1.041   2.943  0.2022  0.1132  0.6750
  229SOL    HW2  687   3.067   1.097   2.793 -0.1069  0.6619  0.6464
  230SOL     OW  688   0.553   1.424   1.108  0.1986  0.0621  0.5071
  230SOL    HW1  689   0.481   1.471   1.162 -0.5954  3.3990  0.2881
  230SOL    HW2  690   0.509   1.402   1.019 -0.6484  1.2993  0.9528
  231SOL     OW  691   2.557   3.054   2.573 -0.0826 -0.3938 -0.8403
  231SOL    HW1  692   2.476   3.077   2.634 -1.0701 -3.0567  0.7689
  231SOL    HW2  693   2.548   0.016   2.491 -2.3812  1.9815  3.0863
  232SOL     OW  694   0.246   2.235   0.055 -0.4099 -0.4520  0.2794
  232SOL    HW1  695   0.325   2.240   3.091 -0.4147  0.1558  4.2444
  232SOL    HW2  696   0.162   2.187   0.006 -0.0005  0.6012 -0.3411
  233SOL     OW  697   1.537   2.234   2.203  0.0918 -0.4401  0.2115
  233SOL    HW1  698   1.475   2.312   2.176 -0.7986 -0.1293 -1.0465
  233SOL    HW2  699   1.623   2.231   2.144  1.0607  1.7098 -1.0907
  234SOL     OW  700   1.211   1.590   1.540 -0.8135 -0.5826 -0.1684
  234SOL    HW1  701   1.280   1.632   1.600  0.7263 -1.2259  0.7990
  234SOL    HW2  702   1.233   1.625   1.446  0.3119  1.0704  0.2728
  235SOL     OW  703   0.984   1.876   1.826  0.0451 -0.2032 -0.0921
  235SOL    HW1  704   0.934   1.946   1.770 -1.5311 -1.4290  0.1686
  235SOL    HW2  705   0.939   1.787   1.800 -0.4491  1.8525  0.0743
  236SOL     OW  706   1.357   2.997   2.969  0.3209  0.0653  0.2728
  236SOL    HW1  707   1.391   3.086   2.939 -1.6546 -0.5305 -0.1613
  236SOL    HW2  708   1.404   2.919   2.920 -0.9219  4.4458  2.3066
  237SOL     OW  709   1.278   0.172   1.365 -0.2929  0.7036 -0.5807
  237SOL    HW1  710   1.282   0.102   1.293 -1.8280  0.7044  1.4788
  237SOL    HW2  711   1.367   0.183   1.413  1.7151 -4.9783 -1.5420
  238SOL     OW  712   1.111   0.716   0.019  0.8575 -0.2068 -0.3338
  238SOL    HW1  713   1.129   0.801   3.062  0.1603  0.9864 -1.0418
  238SOL    HW2  714   1.019   0.680   3.090 -1.1407 -0.0669 -0.4710
  239SOL     OW  715   2.771   0.864   2.705  0.5850 -0.1334  0.3559
  239SOL    HW1  716   2.725   0.953   2.724 -1.4680 -0.9961  1.4335
  239SOL    HW2  717   2.808   0.825   2.787 -0.0811 -1.3898 -2.6059
  240SOL     OW  718   2.516   2.461   0.818  0.4838  0.1077  0.0237
  240SOL    HW1  719   2.560   2.378   0.851 -2.7888  0.1129  0.0389
  240SOL    HW2  720   2.435   2.428   0.762 -2.0045 -0.3817 -0.5227
  241SOL     OW  721   1.109   1.291   1.160 -0.8446  0.3607  0.3221
  241SOL    HW1  722   1.065   1.368   1.208  1.0067 -1.4113 -0.8207
  241SOL    HW2  723   1.049   1.246   1.090 -1.2895  1.6708  1.5941
  242SOL     OW  724   0.633   0.500   0.904 -0.0555  0.0755  0.3370
  242SOL    HW1  725   0.706   0.557   0.949 -1.9918 -0.7252 -0.1101
  242SOL    HW2  726   0.673   0.420   0.859  0.2484 -2.0105 -1.1889
  243SOL     OW  727   0.289   0.443   1.192  0.1528  0.0205 -0.7022
  243SOL    HW1  728   0.267   0.482   1.100  3.4511  3.5737 -1.4763
  243SOL    HW2  729   0.388   0.411   1.194  0.0067 -1.0376 -0.5609
  244SOL     OW  730   1.019   0.249   0.207 -0.0716 -0.3607 -0.1083
  244SOL    HW1  731   1.078   0.168   0.222  1.4728  0.2113  0.8595
  244SOL    HW2  732   1.048   0.333   0.263  1.5035  3.0092  1.4470
  245SOL     OW  733   2.014   0.851   0.487  0.2109  0.1172  0.2994
  245SOL    HW1  734   2.042   0.934   0.429 -0.4645  1.5104 -0.5725
  245SOL    HW2  735   2.072   0.770   0.465 -0.4485 -0.1685 -0.4551
  246SOL     OW  736   0.368   0.531   1.664  0.0706 -0.4803  0.2106
  246SOL    HW1  737   0.348   0.550   1.566  2.3358 -0.0054  2.0421
  246SOL    HW2  738   0.284   0.559   1.720 -2.4614 -0.3980 -2.1113
  247SOL     OW  739   0.847   0.194   1.929 -0.9561  0.1579 -0.4247
  247SOL    HW1  740   0.826   0.129   2.006 -0.2142  0.6578 -1.6135
  247SOL    HW2  741   0.880   0.150   1.843  0.2239  0.7854  1.9202
  248SOL     OW  742   0.578   1.514   2.373 -0.7690  0.0257  0.7344
  248SOL    HW1  743   0.647   1.542   2.442 -0.2616 -0.3404 -3.3026
  248SOL    HW2  744   0.608   1.511   2.274 -1.6486 -1.0746  0.4251
  249SOL     OW  745   0.526   2.836   3.034 -0.0427  0.2656  0.5246
  249SOL    HW1  746   0.446   2.843   2.971  0.2045 -0.2168 -2.3649
  249SOL    HW2  747   0.505   2.768   0.004  1.8577  0.9276  0.5078
  250SOL     OW  748   0.695   0.186   2.284  0.2634 -0.5018  0.3945
  250SOL    HW1  749   0.593   0.196   2.302  1.5428 -0.8378 -2.4427
  250SOL    HW2  750   0.718   0.116   2.210  0.6413 -0.0172 -2.9711
  251SOL     OW  751   2.848   1.948   1.470 -0.1941 -0.2988  0.0067
  251SOL    HW1  752   2.802   1.889   1.398 -2.1963  1.3547 -0.5827
  251SOL    HW2  753   2.836   2.049   1.462  0.7308 -1.0039 -0.5747
  252SOL     OW  754   1.890   0.110   1.679 -0.0557 -0.1649 -0.0073
  252SOL    HW1  755   1.896   0.137   1.780 -3.2253  2.1171 -0.1143
  252SOL    HW2  756   1.917   0.012   1.665  1.4811  0.3384  0.4467
  253SOL     OW  757   2.079   1.704   2.730 -0.5211 -0.6283 -0.7879
  253SOL    HW1  758   2.005   1.775   2.733  0.5289  4.7918 -0.8278
  253SOL    HW2  759   2.160   1.751   2.687 -1.5485 -2.2264  0.7017
  254SOL     OW  760   0.542   1.440   1.538  0.4795  0.2049  0.2152
  254SOL    HW1  761   0.572   1.356   1.486  2.3810 -0.5557  0.1211
  254SOL    HW2  762   0.580   1.519   1.488 -4.6748  0.6487 -1.3398
  255SOL     OW  763   0.649   0.122   1.613 -0.2710  0.0381  0.6478
  255SOL    HW1  764   0.738   0.124   1.665  2.0088  1.4794 -1.2528
  255SOL    HW2  765   0.587   0.046   1.647 -1.1650  1.4037  1.7881
  256SOL     OW  766   0.161   2.611   0.626  0.3232  1.0048 -0.0696
  256SOL    HW1  767   0.153   2.516   0.665  2.5345 -2.1208 -0.6011
  256SOL    HW2  768   0.216   2.677   0.681 -0.5719  0.0956 -1.0141
  257SOL     OW  769   0.563   2.498   2.175 -0.3869 -0.3924 -0.2247
  257SOL    HW1  770   0.651   2.473   2.126 -0.5054  0.6262 -2.9219
  257SOL    HW2  771   0.568   2.508   2.277 -1.2396  0.7009  2.7656
  258SOL     OW  772   1.320   1.627   2.121  0.1002  0.0374 -0.5702
  258SOL    HW1  773   1.424   1.618   2.121  2.7590 -1.0958  0.8460
  258SOL    HW2  774   1.285   1.580   2.037  0.3101 -0.9984 -3.2781
  259SOL     OW  775   1.076   1.059   2.101 -0.0115 -0.2545  0.3500
  259SOL    HW1  776   0.977   1.043   2.089  1.4797  1.0678 -1.2085
  259SOL    HW2  777   1.098   1.144   2.044 -1.7996 -0.6895 -1.9143
  260SOL     OW  778   2.166   0.490   2.245  0.5822  0.7771 -0.1021
  260SOL    HW1  779   2.126   0.414   2.187  2.9195 -1.3605 -1.4198
  260SOL    HW2  780   2.088   0.523   2.300  0.4688 -0.6629 -0.3645
  261SOL     OW  781   0.780   1.261   0.740 -0.1532  0.3796  0.0333
  261SOL    HW1  782   0.688   1.231   0.774 -1.9754  1.3761  0.2804
  261SOL    HW2  783   0.802   1.221   0.648  0.5687  0.0116 -0.0332
  262SOL     OW  784   2.079   2.048   2.593 -0.0137 -0.6563  0.0225
  262SOL    HW1  785   2.138   1.972   2.561  1.2242  0.5318 -3.8438
  262SOL    HW2  786   2.079   2.060   2.694  0.7084  3.2698  1.0611
  263SOL     OW  787   0.937   2.659   1.054 -0.0370  0.5236 -0.4035
  263SOL    HW1  788   0.995   2.732   1.022  1.8167 -1.4257 -0.4269
  263SOL    HW2  789   0.997   2.592   1.094 -1.6281 -1.0963  0.0711
  264SOL     OW  790   0.116   2.105   0.322  0.3527 -0.0112  0.7615
  264SOL    HW1  791   0.130   2.191   0.377  0.6696  2.6455  0.7559
  264SOL    HW2  792   0.161   2.120   0.231 -0.9184  1.2327 -1.9120
  265SOL     OW  793   1.275   1.306   2.699 -0.5686 -0.2561  0.9042
  265SOL    HW1  794   1.248   1.271   2.607 -1.6799 -1.0105  2.1626
  265SOL    HW2  795   1.232   1.393   2.724  1.6502  3.0603  1.8100
  266SOL     OW  796   1.049   2.037   2.089  0.2006 -0.4065  0.2751
  266SOL    HW1  797   1.145   2.033   2.125 -1.1254 -0.0494  2.2590
  266SOL    HW2  798   1.027   1.974   2.009  0.0262  0.1044 -3.5499
  267SOL     OW  799   2.338   1.101   2.640 -1.0996 -0.0156  0.0638
  267SOL    HW1  800   2.397   1.149   2.710 -1.3135 -0.6565  1.8224
  267SOL    HW2  801   2.276   1.162   2.593 -0.4887 -0.1760  2.3557
  268SOL     OW  802   0.966   1.176   2.990 -0.4259  0.2235  0.8070
  268SOL    HW1  803   0.886   1.173   3.050  0.7411 -0.3900  0.2436
  268SOL    HW2  804   0.940   1.181   2.892 -1.9616  0.4855 -1.3979
  269SOL     OW  805   2.890   1.556   2.348  0.2516 -0.1107 -0.6259
  269SOL    HW1  806   2.840   1.611   2.421 -0.2835 -0.5603  1.1478
  269SOL    HW2  807   2.970   1.510   2.391 -1.3227  1.4744  0.0555
  270SOL     OW  808   0.430   2.191   2.933  0.1591 -0.0547  0.4361
  270SOL    HW1  809   0.353   2.144   2.886  0.6721 -1.4842 -2.9646
  270SOL    HW2  810   0.515   2.148   2.907 -0.7772 -1.7753  0.2385
  271SOL     OW  811   0.334   0.435   0.334  0.4797 -0.3469 -0.1526
  271SOL    HW1  812   0.258   0.377   0.362  0.8866  4.9573  1.0562
  271SOL    HW2  813   0.308   0.484   0.247  2.4120  0.5887 -2.8390
  272SOL     OW  814   3.006   2.969   0.223  0.1695  0.3111  0.2619
  272SOL    HW1  815   3.045   3.067   0.225  0.8201  1.1135 -0.6663
  272SOL    HW2  816   3.078   2.904   0.194  0.5314 -1.8651 -0.2574
  273SOL     OW  817   0.240   2.966   1.826 -0.1407 -0.0487  0.1823
  273SOL    HW1  818   0.178   2.984   1.906 -0.1143  2.1981 -0.1432
  273SOL    HW2  819   0.189   2.986   1.740 -0.9076 -0.5001  1.1755
  274SOL     OW  820   0.113   0.781   1.179  0.1703 -0.2583  0.1232
  274SOL    HW1  821   0.015   0.781   1.144 -1.2465 -1.0732 -0.8813
  274SOL    HW2  822   0.120   0.754   1.274  0.4279 -0.2299 -0.2034
  275SOL     OW  823   0.800   1.518   1.095  0.5875  0.0793 -0.0947
  275SOL    HW1  824   0.847   1.511   1.004 -0.5944  1.6801 -0.2449
  275SOL    HW2  825   0.703   1.477   1.083 -0.5617 -0.3196 -2.8082
  276SOL     OW  826   0.446   1.163   1.908  0.4247 -0.2248  0.3768
  276SOL    HW1  827   0.486   1.145   1.999 -1.7896  1.6678 -0.0402
  276SOL    HW2  828   0.503   1.233   1.854  1.1885  1.0913  2.4795
  277SOL     OW  829   1.266   1.895   1.762 -0.4327  0.0283  0.1038
  277SOL    HW1  830   1.337   1.943   1.819  3.2919  2.6883 -0.6830
  277SOL    HW2  831   1.171   1.903   1.801  1.7324 -3.4474  0.8857
  278SOL     OW  832   2.458   2.739   2.050  0.2622 -0.0584  0.4128
  278SOL    HW1  833   2.400   2.808   2.011  0.7960 -0.4079  1.1007
  278SOL    HW2  834   2.399   2.658   2.080 -3.3025 -1.2716  1.5586
  279SOL     OW  835   1.266   1.750   2.888 -0.6454 -0.5363 -0.5029
  279SOL    HW1  836   1.371   1.738   2.889  0.5150 -0.5384  1.4958
  279SOL    HW2  837   1.234   1.822   2.950 -1.6806 -2.4691 -2.6335
  280SOL     OW  838   1.433   0.436   0.367 -0.2640 -0.0755 -0.2155
  280SOL    HW1  839   1.509   0.435   0.435 -0.5511 -0.8622  1.7322
  280SOL    HW2  840   1.405   0.534   0.355  2.3231  0.0579  2.0805
  281SOL     OW  841   0.764   0.668   1.297  0.6184  0.1418 -0.3589
  281SOL    HW1  842   0.685   0.725   1.267  1.4756 -1.7864 -1.1766
  281SOL    HW2  843   0.780   0.665   1.399  1.1880 -0.9166  0.8717
  282SOL     OW  844   3.070   2.757   0.489  0.2135 -0.2728 -0.6046
  282SOL    HW1  845   0.032   2.690   0.528 -5.9657  1.4813  1.3962
  282SOL    HW2  846   3.061   2.753   0.387  0.7517  1.7041 -2.0138
  283SOL     OW  847   1.395   1.909   1.511 -0.5954  0.3115 -0.1158
  283SOL    HW1  848   1.353   1.847   1.445 -2.8678  2.1977  0.6962
  283SOL    HW2  849   1.333   1.907   1.595 -0.6793 -1.0715  3.4163
  284SOL     OW  850   2.831   2.601   1.454 -0.0365  0.4458 -0.5746
  284SOL    HW1  851   2.932   2.606   1.467 -0.4878  1.0878  0.7661
  284SOL    HW2  852   2.799   2.568   1.361 -0.5464 -2.2902  1.5916
  285SOL     OW  853   0.507   2.502   0.715  0.6099 -0.0221 -0.1972
  285SOL    HW1  854   0.599   2.469   0.742 -2.2617  0.2944 -0.2997
  285SOL    HW2  855   0.467   2.430   0.651 -0.0791  1.9047 -1.2585
  286SOL     OW  856   0.370   2.791   1.213 -0.2054 -0.2370 -0.3996
  286SOL    HW1  857   0.411   2.870   1.157 -0.8787  1.9515 -1.9540
  286SOL    HW2  858   0.275   2.811   1.244 -2.4913 -0.2073 -1.5681
  287SOL     OW  859   0.513   1.254   0.815 -0.5313  0.3959  0.0260
  287SOL    HW1  860   0.452   1.271   0.732 -1.7151 -0.8196  0.8541
  287SOL    HW2  861   0.481   1.170   0.868 -0.8689 -2.4389  0.8495
  288SOL     OW  862   1.288   1.952   2.521 -0.3594  0.0233 -0.2808
  288SOL    HW1  863   1.343   1.928   2.602 -0.3084  1.2957 -0.6197
  288SOL    HW2  864   1.311   1.890   2.444 -0.0318  0.5773 -1.1573
  289SOL     OW  865   2.465   1.472   0.135  0.6181 -0.4873  0.1933
  289SOL    HW1  866   2.371   1.515   0.154  0.2896  1.2096 -1.3001
  289SOL    HW2  867   2.541   1.539   0.157 -2.2643 -3.4570 -1.8491
  290SOL     OW  868   1.345   1.236   0.993  0.0624 -0.2335  0.1321
  290SOL    HW1  869   1.361   1.341   0.998  1.0101  3.2212 -1.6020
  290SOL    HW2  870   1.252   1.216   1.034 -1.5362  0.2561  0.8979
  291SOL     OW  871   1.133   0.947   2.949  0.0320 -0.6588 -0.2934
  291SOL    HW1  872   1.226   0.993   2.938 -1.3469  1.3735 -1.4334
  291SOL    HW2  873   1.063   1.002   2.991 -1.8456 -3.7409 -2.7732
  292SOL     OW  874   1.375   1.828   0.391  0.3090  0.9020  0.7565
  292SOL    HW1  875   1.397   1.894   0.466  3.9473 -2.4808  2.0907
  292SOL    HW2  876   1.400   1.735   0.421  1.4332 -0.5750 -1.2123
  293SOL     OW  877   1.440   3.016   0.996 -0.8201 -0.1025 -0.3208
  293SOL    HW1  878   1.509   3.080   1.026 -1.4912 -0.4730 -0.9385
  293SOL    HW2  879   1.356   3.041   1.047  1.1801  1.3862  0.1251
  294SOL     OW  880   2.076   1.030   0.271  0.3851 -0.6653  0.2233
  294SOL    HW1  881   2.015   0.958   0.233 -0.1775 -2.8941  0.1255
  294SOL    HW2  882   2.136   1.063   0.197 -1.3379 -0.1938  0.9301
  295SOL     OW  883   1.860   1.796   3.046  0.4972  0.4007 -0.0248
  295SOL    HW1  884   1.775   1.734   3.061 -1.1855  0.1613  2.4124
  295SOL    HW2  885   1.865   1.836   2.953  0.0365 -0.6654  0.2215
  296SOL     OW  886   1.655   1.325   1.201 -0.2000  0.4341  0.1626
  296SOL    HW1  887   1.646   1.306   1.100  1.7150 -0.0132  2.3132
  296SOL    HW2  888   1.652   1.240   1.258  1.2427  1.1831 -0.5610
  297SOL     OW  889   0.134   0.800   2.364  0.1672  0.4306  0.1138
  297SOL    HW1  890   0.189   0.724   2.336 -2.9952  0.8998  2.1777
  297SOL    HW2  891   0.053   0.762   2.412  1.6022 -1.8312 -0.3742
  298SOL     OW  892   1.509   2.178   1.508 -0.2994  0.0742 -0.8467
  298SOL    HW1  893   1.467   2.087   1.510  0.5640  1.9333 -0.2277
  298SOL    HW2  894   1.506   2.223   1.601  0.1568  0.2357  3.2430
  299SOL     OW  895   1.149   0.268   2.438 -0.3935 -0.4205 -0.5927
  299SOL    HW1  896   1.237   0.218   2.452 -2.5890  1.5674 -0.4096
  299SOL    HW2  897   1.065   0.209   2.439 -2.2641 -0.1503 -1.5864
  300SOL     OW  898   2.484   1.861   0.530 -0.5558  0.0128  0.0472
  300SOL    HW1  899   2.422   1.836   0.451  3.2518 -0.7497 -0.3315
  300SOL    HW2  900   2.499   1.779   0.597 -4.1052 -1.5723  1.1166
  301SOL     OW  901   2.207   0.440   2.618  0.6214  0.2791  0.4898
  301SOL    HW1  902   2.192   0.524   2.565  1.0965  0.0050  3.6291
  301SOL    HW2  903   2.288   0.453   2.676  0.6671  0.0029 -2.1958
  302SOL     OW  904   2.440   2.050   2.546 -0.7572  0.1528 -0.2940
  302SOL    HW1  905   2.445   2.074   2.646 -0.4684  0.0968 -0.9569
  302SOL    HW2  906   2.451   2.132   2.488 -0.3851 -0.2169  2.6981
  303SOL     OW  907   0.347   2.755   2.315  0.0417  0.6129 -0.0399
  303SOL    HW1  908   0.402   2.674   2.345 -2.3056  0.9582 -0.6238
  303SOL    HW2  909   0.368   2.830   2.385 -0.0186  2.5921  3.6394
  304SOL     OW  910   3.022   1.610   1.436 -0.3220  0.2392 -0.1858
  304SOL    HW1  911   0.001   1.564   1.394 -1.9869 -1.4726 -0.1805
  304SOL    HW2  912   3.049   1.704   1.468 -2.4019 -1.5908  1.6178
  305SOL     OW  913   0.145   0.521   2.045  0.2338 -0.0986 -0.0251
  305SOL    HW1  914   0.191   0.539   2.136  1.4322 -0.7041 -1.0153
  305SOL    HW2  915   0.159   0.425   2.009 -2.9341 -0.7688  0.7589
  306SOL     OW  916   1.154   1.466   0.602  0.5645 -0.2631 -0.4363
  306SOL    HW1  917   1.229   1.473   0.675 -0.6349 -1.7539 -0.4020
  306SOL    HW2  918   1.169   1.524   0.523 -1.7971 -0.5798  1.4642
  307SOL     OW  919   0.033   2.934   0.706 -0.4394  0.2702  0.0358
  307SOL    HW1  920   0.116   2.992   0.686 -0.4876 -0.4344  0.2447
  307SOL    HW2  921   0.017   2.866   0.631  1.6033  1.3545 -0.0799
  308SOL     OW  922   3.022   1.159   2.462 -0.0788  0.3215  0.0009
  308SOL    HW1  923   3.073   1.128   2.545  0.5439 -1.2921  1.4410
  308SOL    HW2  924   3.065   1.114   2.375  0.6600 -1.1068 -3.6137
  309SOL     OW  925   2.749   1.780   2.762  0.1679  0.7078  0.2442
  309SOL    HW1  926   2.754   1.708   2.837 -2.0172 -1.5052 -1.0149
  309SOL    HW2  927   2.682   1.850   2.796 -3.3419 -2.2332  0.8697
  310SOL     OW  928   2.132   0.559   0.166  0.1266 -0.0094 -0.2528
  310SOL    HW1  929   2.210   0.634   0.164  3.3710  3.7861  2.4454
  310SOL    HW2  930   2.055   0.584   0.105 -2.0558  1.1683  0.2896
  311SOL     OW  931   1.960   0.727   0.016 -0.0236 -0.4499 -0.0614
  311SOL    HW1  932   1.887   0.791   3.086  2.0170 -1.7040 -2.3789
  311SOL    HW2  933   2.031   0.710   3.044 -0.1939 -0.1371  1.0724
  312SOL     OW  934   1.085   1.722   2.367  0.1888 -0.2723 -0.2806
  312SOL    HW1  935   1.124   1.792   2.300  0.1759 -0.8689 -2.0080
  312SOL    HW2  936   1.148   1.642   2.382  1.0165 -0.2190 -2.0140
  313SOL     OW  937   0.052   0.711   0.231  0.5141 -0.1602  0.1706
  313SOL    HW1  938   0.123   0.665   0.176  0.2105  0.9624  1.9141
  313SOL    HW2  939   3.060   0.675   0.221  1.4847  1.2816 -2.3729
  314SOL     OW  940   0.382   1.696   1.433 -0.0105 -0.3139 -0.0689
  314SOL    HW1  941   0.339   1.624   1.490  0.2244  0.0032  2.0890
  314SOL    HW2  942   0.482   1.672   1.428  0.4088 -0.4059 -2.0269
  315SOL     OW  943   0.848   1.651   1.766 -0.6355  0.2749  0.2350
  315SOL    HW1  944   0.870   1.576   1.829 -1.8820 -0.1120 -0.0326
  315SOL    HW2  945   0.764   1.696   1.789  0.8534  2.5682  1.8612
  316SOL     OW  946   0.393   2.302   0.585  0.0341  0.4114 -0.0088
  316SOL    HW1  947   0.295   2.307   0.567  0.9725 -0.0273  0.9568
  316SOL    HW2  948   0.429   2.204   0.587  0.1368 -3.1740 -0.1486
  317SOL     OW  949   2.523   0.204   1.115 -0.4647 -0.3468 -0.2266
  317SOL    HW1  950   2.518   0.173   1.017  0.2015  1.4450  1.5379
  317SOL    HW2  951   2.611   0.249   1.136 -3.2375  2.0712  0.6490
  318SOL     OW  952   1.672   2.964   0.236  0.0886 -0.0462  0.2388
  318SOL    HW1  953   1.580   2.987   0.190 -0.5765 -1.1446 -1.2276
  318SOL    HW2  954   1.673   2.871   0.272 -0.8034 -0.0120 -0.1527
  319SOL     OW  955   1.641   0.591   2.548 -0.3183  0.3000 -0.3792
  319SOL    HW1  956   1.716   0.635   2.605  2.3518 -2.3138 -1.6632
  319SOL    HW2  957   1.631   0.650   2.463  0.8689 -0.0086 -3.7905
  320SOL     OW  958   2.900   1.862   1.935  0.2015 -0.1400  0.7218
  320SOL    HW1  959   2.886   1.858   2.037 -1.8919  0.0170  0.5373
  320SOL    HW2  960   2.948   1.780   1.902 -1.6230 -0.0081 -0.7196
  321SOL     OW  961   0.093   2.484   2.942  1.0959 -0.9446 -0.1427
  321SOL    HW1  962   0.032   2.470   3.028 -3.7249 -0.0766  2.2418
  321SOL    HW2  963   0.076   2.402   2.880  1.1351 -0.3513 -2.2187
  322SOL     OW  964   2.594   0.630   2.341  0.2489 -0.5813  0.2248
  322SOL    HW1  965   2.516   0.595   2.285  0.7549  0.8901  0.3147
  322SOL    HW2  966   2.657   0.554   2.374  1.7491 -0.8854  1.2853
  323SOL     OW  967   1.983   1.247   0.654 -0.4581  0.2468  0.3750
  323SOL    HW1  968   2.024   1.228   0.744 -0.4045  0.8498 -0.9653
  323SOL    HW2  969   1.907   1.180   0.630  1.6691 -0.2592 -3.4334
  324SOL     OW  970   0.099   0.218   1.268 -0.1524  0.0442 -0.0547
  324SOL    HW1  971   0.171   0.175   1.324 -2.0779  0.0424 -2.4108
  324SOL    HW2  972   0.115   0.319   1.258  0.1262 -1.1162 -1.1000
  325SOL     OW  973   2.608   3.010   1.533 -0.1372 -0.5138 -0.2602
  325SOL    HW1  974   2.614   0.004   1.566 -1.9098 -2.5026  1.0657
  325SOL    HW2  975   2.534   2.966   1.587 -0.7184  1.8010 -0.3559
  326SOL     OW  976   1.595   2.666   0.209  0.0783  0.6587  0.2102
  326SOL    HW1  977   1.652   2.583   0.218 -1.5643  2.7888  0.2697
  326SOL    HW2  978   1.609   2.714   0.123 -3.0221  1.3981  2.3931
  327SOL     OW  979   1.752   2.106   0.360  0.0826 -0.2413  0.1761
  327SOL    HW1  980   1.693   2.183   0.388  0.9489  0.1891 -0.8285
  327SOL    HW2  981   1.730   2.070   0.267  1.5730 -0.2830  1.0869
  328SOL     OW  982   2.965   2.137   1.918  0.3560 -0.3434 -0.2807
  328SOL    HW1  983   2.947   2.038   1.907 -0.0259  3.2986  1.0024
  328SOL    HW2  984   2.881   2.194   1.948 -3.8211  0.5419 -1.3017
  329SOL     OW  985   3.010   2.377   1.202 -0.5173 -0.0036 -0.7656
  329SOL    HW1  986   2.924   2.433   1.210 -0.0329  1.4174  2.1036
  329SOL    HW2  987   2.986   2.280   1.204  1.4042  1.7814  0.5375
  330SOL     OW  988   2.216   0.859   2.757  0.0797 -0.6143  0.3477
  330SOL    HW1  989   2.227   0.786   2.686  0.8359 -0.9808  1.5329
  330SOL    HW2  990   2.271   0.939   2.730 -0.6320 -2.3067  3.9258
  331SOL     OW  991   2.188   1.686   1.041  0.2121  0.2351 -0.3365
  331SOL    HW1  992   2.126   1.678   0.965 -0.0364 -0.8223  4.5358
  331SOL    HW2  993   2.198   1.781   1.070  0.0135  1.2309  0.9933
  332SOL     OW  994   0.303   2.526   1.050 -0.3095 -0.2424  0.2606
  332SOL    HW1  995   0.323   2.603   0.985 -0.8707  3.2076  0.8335
  332SOL    HW2  996   0.262   2.556   1.138 -0.9271 -0.6944  3.5634
  333SOL     OW  997   2.953   1.896   2.274 -0.1809  0.3361 -0.4872
  333SOL    HW1  998   3.020   1.843   2.332  1.7928  0.7109  0.8020
  333SOL    HW2  999   2.859   1.859   2.287  1.6436 -1.3564  1.7429
  334SOL     OW 1000   0.688   0.983   1.020 -0.3247  0.0856 -0.1016
  334SOL    HW1 1001   0.604   1.037   1.015  1.4874  1.1885 -0.1400
  334SOL    HW2 1002   0.675   0.914   1.095  0.5188 -0.2233 -1.4955
  335SOL     OW 1003   0.100   1.508   2.193 -0.3591  0.2850  0.0710
  335SOL    HW1 1004   0.073   1.581   2.261  0.5070 -0.7917  0.0115
  335SOL    HW2 1005   0.120   1.418   2.233 -0.9013  3.1877 -0.7661
  336SOL     OW 1006   2.083   3.027   2.085  0.5078  0.2519 -0.1180
  336SOL    HW1 1007   2.039   2.963   2.150 -0.5416  0.5270  1.1837
  336SOL    HW2 1008   2.036   0.016   2.095  1.6505  0.1049  1.5786
  337SOL     OW 1009   0.963   0.937   1.177 -0.2854 -0.1282 -0.3520
  337SOL    HW1 1010   0.907   0.992   1.241 -1.9100 -0.0965  0.2386
  337SOL    HW2 1011   0.922   0.926   1.084 -0.7991  0.2406 -1.5556
  338SOL     OW 1012   1.555   1.977   1.125 -0.1122 -0.2959 -0.2771
  338SOL    HW1 1013   1.603   2.065   1.144 -0.5332 -0.9970  1.6629
  338SOL    HW2 1014   1.615   1.894   1.150  1.6707 -0.7207 -1.1776
  339SOL     OW 1015   0.203   1.835   1.286 -0.7048  0.5181  0.4264
  339SOL    HW1 1016   0.277   1.788   1.337  0.1537 -0.6403  1.5682
  339SOL    HW2 1017   0.129   1.844   1.355  1.4497 -0.1533  1.3497
  340SOL     OW 1018   0.715   0.009   2.084 -0.4596  0.2563  0.1082
  340SOL    HW1 1019   0.760   3.022   2.061 -0.5788  2.7241 -0.3329
  340SOL    HW2 1020   0.617   3.092   2.093  0.5144  0.7455  0.2679
  341SOL     OW 1021   1.864   1.503   0.700 -0.2051  0.7506 -0.3687
  341SOL    HW1 1022   1.951   1.552   0.712 -1.3273 -1.8873  0.9224
  341SOL    HW2 1023   1.882   1.408   0.661  1.1008 -2.2706 -2.3787
  342SOL     OW 1024   1.741   1.412   0.315 -0.2043 -0.1400  0.3589
  342SOL    HW1 1025   1.676   1.384   0.239 -3.6817  0.8785 -0.8740
  342SOL    HW2 1026   1.740   1.514   0.333 -1.8926 -1.2319  1.4794
  343SOL     OW 1027   2.062   0.168   0.946  0.0160  0.2320 -0.0694
  343SOL    HW1 1028   2.117   0.235   0.995 -2.7694 -0.3886 -1.1288
  343SOL    HW2 1029   2.086   0.074   0.977 -0.6326 -1.4320  0.6460
  344SOL     OW 1030   2.628   0.569   0.315  0.0740 -0.0604 -0.1008
  344SOL    HW1 1031   2.593   0.475   0.339  1.5466 -0.0675 -1.9139
  344SOL    HW2 1032   2.728   0.569   0.330  0.3081 -1.2694 -0.0613
  345SOL     OW 1033   1.238   2.603   1.611 -0.1505 -0.1038  0.4344
  345SOL    HW1 1034   1.303   2.681   1.597  1.1951  0.0654  0.8333
  345SOL    HW2 1035   1.172   2.626   1.684  0.7578  0.5475  1.4524
  346SOL     OW 1036   2.364   2.258   1.266  0.3873  0.7531 -0.2694
  346SOL    HW1 1037   2.307   2.336   1.229 -2.6694 -0.7666 -1.8691
  346SOL    HW2 1038   2.364   2.266   1.365  0.0059 -0.2882 -5.0095
  347SOL     OW 1039   2.358   3.018   1.165 -0.5012  0.1959  0.5146
  347SOL    HW1 1040   2.368   3.095   1.235 -3.6560  1.5143  2.7252
  347SOL    HW2 1041   2.257   3.010   1.142 -2.2976  1.5559 -0.5315
  348SOL     OW 1042   0.936   1.240   1.476  0.5586 -0.1859  0.1592
  348SOL    HW1 1043   0.865   1.189   1.426 -2.0397  1.0254  0.4093
  348SOL    HW2 1044   0.957   1.320   1.421 -1.4331 -0.8688  0.5326
  349SOL     OW 1045   2.349   0.449   2.938  0.1109 -0.1724 -0.2554
  349SOL    HW1 1046   2.403   0.533   2.940 -0.6891 -1.7514  0.1460
  349SOL    HW2 1047   2.327   0.415   3.033  2.1086  1.4547 -0.1766
  350SOL     OW 1048   2.073   2.076   2.868  0.3799  0.2455 -0.3457
  350SOL    HW1 1049   2.142   2.146   2.897 -1.4095  1.5481 -2.2194
  350SOL    HW2 1050   2.097   1.990   2.918  3.3687 -0.4627  0.3378
  351SOL     OW 1051   1.136   0.200   0.609  0.2212  0.2554 -0.1530
  351SOL    HW1 1052   1.205   0.185   0.536 -3.0098  3.7928 -0.5054
  351SOL    HW2 1053   1.130   0.300   0.626  0.7279  1.3099  0.6144
  352SOL     OW 1054   1.750   2.073   2.647  0.3288  0.2021  0.1518
  352SOL    HW1 1055   1.683   2.134   2.606  0.8860 -0.8247  1.0237
  352SOL    HW2 1056   1.843   2.116   2.653  3.8079 -0.0352 -1.1590
  353SOL     OW 1057   0.377   0.688   3.020 -0.1437  0.1893  0.5911
  353SOL    HW1 1058   0.341   0.714   2.929  1.5212 -0.4491  0.3178
  353SOL    HW2 1059   0.404   0.768   3.075  1.5261 -1.2838  0.5064
  354SOL     OW 1060   0.901   2.369   2.598 -0.4511  0.2851  0.1481
  354SOL    HW1 1061   0.840   2.299   2.558  1.7096  4.4680  0.4969
  354SOL    HW2 1062   0.874   2.396   2.693 -0.2901  0.8826 -1.8036
  355SOL     OW 1063   2.784   2.661   1.727 -0.2980 -0.4064 -0.3418
  355SOL    HW1 1064   2.832   2.750   1.748 -0.3075  0.9199 -1.1470
  355SOL    HW2 1065   2.781   2.639   1.627  2.3566  4.5291  1.6396
  356SOL     OW 1066   2.660   1.088   0.942 -0.5021 -0.0788  0.1031
  356SOL    HW1 1067   2.601   1.002   0.931 -0.8754 -0.6090 -2.0750
  356SOL    HW2 1068   2.624   1.169   0.898  2.7412 -2.6465  1.9454
  357SOL     OW 1069   2.824   0.298   1.134  0.2824  0.5271 -0.5703
  357SOL    HW1 1070   2.865   0.207   1.158 -1.1564  1.3006  2.2269
  357SOL    HW2 1071   2.845   0.309   1.031 -3.1445 -1.9994 -3.8581
  358SOL     OW 1072   1.085   2.185   1.381  0.3881  0.3774 -0.5800
  358SOL    HW1 1073   1.095   2.260   1.317  0.5681 -3.4621  1.5716
  358SOL    HW2 1074   1.141   2.209   1.464 -0.6950  0.9506 -1.2070
  359SOL     OW 1075   3.038   2.614   2.640 -0.4663 -0.1462 -0.4572
  359SOL    HW1 1076   0.012   2.629   2.709 -0.8402  2.9441  0.7842
  359SOL    HW2 1077   3.060   2.662   2.553  0.3312  1.6718 -1.2232
  360SOL     OW 1078   1.262   0.928   1.654  0.2085  0.3269  0.2449
  360SOL    HW1 1079   1.223   0.904   1.744  3.3196 -0.4947 -1.2836
  360SOL    HW2 1080   1.255   0.848   1.593 -2.7113 -0.9685  0.5832
  361SOL     OW 1081   2.639   0.344   0.527  0.2735  0.1135 -0.2409
  361SOL    HW1 1082   2.726   0.289   0.531  1.8088  2.0488  1.6797
  361SOL    HW2 1083   2.557   0.291   0.489 -2.2608 -0.3818 -3.0232
  362SOL     OW 1084   0.422   0.110   0.489 -0.8654  0.1128  0.0177
  362SOL    HW1 1085   0.484   0.061   0.423  1.3097 -1.5700  0.9651
  362SOL    HW2 1086   0.472   0.130   0.573 -1.2532 -0.4826 -1.4439
  363SOL     OW 1087   0.697   1.452   0.421  0.6092  0.3708 -0.2868
  363SOL    HW1 1088   0.598   1.436   0.447 -1.7640 -0.0280  2.5000
  363SOL    HW2 1089   0.759   1.377   0.445 -2.1056  0.9075 -2.2334
  364SOL     OW 1090   0.666   0.907   1.536 -0.1025 -0.2242  0.0093
  364SOL    HW1 1091   0.659   0.805   1.550  0.3744 -1.4462 -2.0450
  364SOL    HW2 1092   0.572   0.945   1.517  2.1283  0.0466 -1.0165
  365SOL     OW 1093   2.854   1.363   0.573 -0.1916  0.1384  0.5835
  365SOL    HW1 1094   2.842   1.290   0.645 -0.7493  1.1002  0.6722
  365SOL    HW2 1095   2.951   1.396   0.560 -0.8597  0.4142  1.2478
  366SOL     OW 1096   2.696   1.586   0.594  0.7955 -0.1788 -0.2201
  366SOL    HW1 1097   2.760   1.510   0.578  0.5071  3.1135 -0.1805
  366SOL    HW2 1098   2.719   1.653   0.522  0.4855 -2.6907 -1.2376
  367SOL     OW 1099   2.200   1.794   2.352 -0.2569  0.4550 -0.1702
  367SOL    HW1 1100   2.214   1.786   2.455  0.1969 -0.3925  0.6476
  367SOL    HW2 1101   2.114   1.744   2.325  1.4657 -2.2273  0.2805
  368SOL     OW 1102   2.706   1.682   1.028  0.2557  0.3401  0.3300
  368SOL    HW1 1103   2.791   1.647   0.978 -3.2202 -0.4623 -0.0204
  368SOL    HW2 1104   2.661   1.609   1.081  1.0350 -0.9658 -0.1757
  369SOL     OW 1105   2.260   2.359   2.736 -0.0601 -0.3830 -0.3886
  369SOL    HW1 1106   2.229   2.275   2.689 -0.1696  0.4349 -0.4476
  369SOL    HW2 1107   2.175   2.407   2.766 -0.9744 -0.2695 -0.2717
  370SOL     OW 1108   0.050   0.009   1.102 -0.4636 -0.1899 -0.3244
  370SOL    HW1 1109   0.077   0.098   1.152  0.3951  2.6079  1.3412
  370SOL    HW2 1110   0.119   3.082   1.028 -0.5216 -2.3467  1.2355
  371SOL     OW 1111   0.701   1.874   3.043  0.2447  0.2456 -0.5452
  371SOL    HW1 1112   0.785   1.879   3.100  0.2929 -0.0210 -1.0851
  371SOL    HW2 1113   0.616   1.882   3.096 -1.6525 -0.3194 -1.0433
  372SOL     OW 1114   1.157   0.828   0.257  0.0910 -0.5627 -0.2697
  372SOL    HW1 1115   1.083   0.826   0.322  0.9823  0.6987 -3.7790
  372SOL    HW2 1116   1.138   0.784   0.165  0.9850  0.0049 -1.9386
  373SOL     OW 1117   1.708   2.428   2.571 -0.2758  0.1965 -0.2516
  373SOL    HW1 1118   1.813   2.427   2.558  0.5811 -1.5840  0.0940
  373SOL    HW2 1119   1.687   2.465   2.668  1.5807 -1.6599  2.5234
  374SOL     OW 1120   0.293   2.450   0.234 -0.3121  0.2985  0.3889
  374SOL    HW1 1121   0.275   2.377   0.168  1.7337  1.0845  1.5277
  374SOL    HW2 1122   0.380   2.425   0.279  0.1967 -0.8261 -0.3118
  375SOL     OW 1123   0.615   1.353   1.785  0.0750  0.2201  0.3654
  375SOL    HW1 1124   0.593   1.407   1.700  0.8814  0.9366 -3.3362
  375SOL    HW2 1125   0.699   1.296   1.772 -1.7017  0.1682 -2.8269
  376SOL     OW 1126   0.557   2.315   1.860  0.0945  0.3378  0.2087
  376SOL    HW1 1127   0.547   2.375   1.777  0.0388  0.9676 -0.6024
  376SOL    HW2 1128   0.507   2.353   1.945 -0.7608 -2.0742  2.2719
  377SOL     OW 1129   2.814   1.279   2.315 -0.3982 -0.1260 -0.2027
  377SOL    HW1 1130   2.813   1.380   2.330 -1.0170  0.0203 -1.0415
  377SOL    HW2 1131   2.866   1.230   2.383 -0.0465  0.3023 -3.1139
  378SOL     OW 1132   1.389   2.994   0.149  0.3163  0.1099 -0.0492
  378SOL    HW1 1133   1.362   2.994   0.051  2.7168  0.3214  1.5955
  378SOL    HW2 1134   1.385   2.896   0.175 -0.5118  2.0798 -1.9470
  379SOL     OW 1135   1.868   0.503   0.662  0.4275 -0.2331  0.7431
  379SOL    HW1 1136   1.836   0.559   0.579 -1.1160  1.0126  0.0241
  379SOL    HW2 1137   1.971   0.496   0.659 -1.0185  0.6366  1.0186
  380SOL     OW 1138   0.027   1.872   1.491 -0.4269  0.2127 -0.1192
  380SOL    HW1 1139   0.066   1.850   1.585  0.2231 -0.6891 -0.8798
  380SOL    HW2 1140   3.047   1.938   1.485  0.0014  1.0204 -0.4906
  381SOL     OW 1141   1.966   1.680   2.254  0.1589 -0.1382 -0.3226
  381SOL    HW1 1142   1.952   1.618   2.333  2.6570  4.0403  0.6582
  381SOL    HW2 1143   1.982   1.620   2.172  0.0608 -1.3192 -3.9938
  382SOL     OW 1144   0.074   0.242   2.679 -0.5080 -0.2561  0.1879
  382SOL    HW1 1145   0.004   0.169   2.704 -1.3419 -1.7876 -0.3017
  382SOL    HW2 1146   0.047   0.315   2.611 -2.9336  0.6021  0.5135
  383SOL     OW 1147   1.532   1.392   2.763  0.6487 -0.2007  0.4090
  383SOL    HW1 1148   1.554   1.342   2.852  1.1971 -1.9541 -1.0962
  383SOL    HW2 1149   1.449   1.345   2.732  2.7986  0.1076  1.9471
  384SOL     OW 1150   1.221   1.777   1.338 -0.1980 -0.2785  0.5701
  384SOL    HW1 1151   1.267   1.767   1.245  0.1593 -0.4358 -2.3160
  384SOL    HW2 1152   1.143   1.847   1.348 -2.0214  0.4794  1.8184
  385SOL     OW 1153   1.814   2.617   0.827 -0.3437  0.5904  0.2225
  385SOL    HW1 1154   1.782   2.639   0.925  1.5922 -1.7218  1.0512
  385SOL    HW2 1155   1.852   2.696   0.775  2.1748  0.1529 -0.7961
  386SOL     OW 1156   1.841   1.895   1.051 -0.1967 -0.2661 -0.6025
  386SOL    HW1 1157   1.779   1.820   1.042 -0.7385  0.2454  0.0428
  386SOL    HW2 1158   1.797   1.982   1.067 -0.9324 -0.8172 -0.9105
  387SOL     OW 1159   0.211   2.261   1.489 -0.4488 -0.0940  0.1618
  387SOL    HW1 1160   0.275   2.213   1.422 -0.1382 -0.7485 -1.6141
  387SOL    HW2 1161   0.219   2.226   1.585  1.5131 -0.8177  0.5491
  388SOL     OW 1162   2.990   0.557   1.722 -0.3854 -0.0990 -0.4669
  388SOL    HW1 1163   2.969   0.644   1.683 -1.1496 -1.5581  1.1626
  388SOL    HW2 1164   2.912   0.530   1.783  3.7726 -0.7414  0.3207
  389SOL     OW 1165   1.767   0.990   0.502  0.1720  0.2614  0.8205
  389SOL    HW1 1166   1.857   0.946   0.536  4.2671 -1.3336  1.7518
  389SOL    HW2 1167   1.690   0.928   0.526  1.2470  0.7175 -1.6919
  390SOL     OW 1168   1.010   1.996   2.584 -0.1906  0.6165 -0.1475
  390SOL    HW1 1169   0.966   2.006   2.492 -1.1972 -1.1893  1.3625
  390SOL    HW2 1170   1.093   1.945   2.567 -1.6848  0.4465 -0.4481
  391SOL     OW 1171   0.665   2.159   2.805  0.2840 -0.2048  0.1511
  391SOL    HW1 1172   0.627   2.250   2.780  0.5016  1.7383  1.8308
  391SOL    HW2 1173   0.716   2.119   2.726 -0.5454  0.1282  1.3927
  392SOL     OW 1174   3.030   2.868   1.604 -0.2359 -0.0672  0.1877
  392SOL    HW1 1175   2.976   2.919   1.531 -1.8550  0.6216 -0.8499
  392SOL    HW2 1176   2.984   2.876   1.696  0.2437 -1.9713  0.8756
  393SOL     OW 1177   1.750   2.422   0.206  0.4903  0.2353 -0.4946
  393SOL    HW1 1178   1.786   2.355   0.139 -3.7341 -0.9277 -2.1022
  393SOL    HW2 1179   1.721   2.376   0.291 -0.3454  1.2654  0.3538
  394SOL     OW 1180   0.816   0.436   2.223  0.3130  0.0425 -0.0653
  394SOL    HW1 1181   0.897   0.407   2.168 -0.8275 -1.0678 -0.3372
  394SOL    HW2 1182   0.753   0.354   2.226  1.6402 -2.0157 -1.7424
  395SOL     OW 1183   0.321   1.196   1.344 -0.1270 -0.5025 -0.1663
  395SOL    HW1 1184   0.276   1.191   1.253  0.6494 -1.2781  1.6765
  395SOL    HW2 1185   0.261   1.230   1.412  0.9868 -1.8509 -2.3355
  396SOL     OW 1186   1.697   1.143   2.364 -0.2319  1.2487  0.4119
  396SOL    HW1 1187   1.608   1.130   2.314 -1.9224 -2.3617 -4.3444
  396SOL    HW2 1188   1.695   1.220   2.431  2.4036  3.1368  0.1574
  397SOL     OW 1189   0.882   0.318   0.006  0.3150 -0.5665 -0.3772
  397SOL    HW1 1190   0.945   0.291   0.083  1.6773 -3.5021  0.4637
  397SOL    HW2 1191   0.799   0.263   0.014  0.4887 -1.7506 -0.3543
  398SOL     OW 1192   0.829   1.865   2.779 -0.4683  0.0104 -0.3970
  398SOL    HW1 1193   0.786   1.873   2.870  1.3288 -1.7336 -0.8682
  398SOL    HW2 1194   0.922   1.914   2.777 -0.1822 -0.2855 -1.3838
  399SOL     OW 1195   2.625   1.463   2.516 -0.0853 -0.1723 -0.2307
  399SOL    HW1 1196   2.552   1.423   2.458 -0.0785 -0.1080  1.5843
  399SOL    HW2 1197   2.624   1.567   2.501  3.5737  1.2860 -0.5276
  400SOL     OW 1198   2.347   1.226   1.409  0.2703 -0.0301  0.2057
  400SOL    HW1 1199   2.369   1.317   1.369 -0.6386 -0.7017  1.6551
  400SOL    HW2 1200   2.288   1.161   1.357  2.9274 -0.9455  0.4445
  401SOL     OW 1201   1.080   1.734   0.816  0.2779  0.3582  0.2257
  401SOL    HW1 1202   1.072   1.704   0.914  0.5396 -1.4934  0.4959
  401SOL    HW2 1203   1.040   1.661   0.761 -1.2671  0.3376  1.3845
  402SOL     OW 1204   0.207   2.705   2.084  0.2576  0.4919 -0.1596
  402SOL    HW1 1205   0.265   2.718   2.170 -1.3421 -0.8638  0.3132
  402SOL    HW2 1206   0.262   2.720   1.996 -0.8005  2.1798 -1.9832
  403SOL     OW 1207   0.354   1.231   2.592  0.1547 -0.5477 -0.3829
  403SOL    HW1 1208   0.279   1.303   2.594 -2.1777  2.9079 -0.1784
  403SOL    HW2 1209   0.344   1.166   2.668 -0.3927  2.3677 -1.2850
  404SOL     OW 1210   2.052   2.164   1.444 -0.4298 -0.0358 -0.3178
  404SOL    HW1 1211   2.116   2.165   1.521 -2.3590  0.5785 -0.3216
  404SOL    HW2 1212   1.959   2.127   1.473 -0.0966 -0.8041  1.6709
  405SOL     OW 1213   2.723   0.276   2.748  0.1119 -0.2888 -0.0079
  405SOL    HW1 1214   2.755   0.245   2.661  1.9097  2.2229  1.8111
  405SOL    HW2 1215   2.709   0.197   2.808 -0.6859 -2.5380 -0.1441
  406SOL     OW 1216   0.747   1.161   0.052  0.3614 -0.3732 -0.4722
  406SOL    HW1 1217   0.708   1.088   0.113 -0.2109 -2.0187  3.4127
  406SOL    HW2 1218   0.682   1.175   3.072 -1.3878  1.6190 -0.0682
  407SOL     OW 1219   2.035   2.531   2.814 -0.3739 -0.1579 -0.1769
  407SOL    HW1 1220   1.973   2.492   2.887  0.5471 -0.3817 -1.3995
  407SOL    HW2 1221   2.066   2.623   2.845 -0.3250 -0.8242 -0.7804
  408SOL     OW 1222   2.895   3.021   3.060  0.2497 -0.0917 -0.3796
  408SOL    HW1 1223   2.887   2.921   3.045  1.3694 -0.5452 -0.1943
  408SOL    HW2 1224   2.937   3.046   0.048  0.0146  1.2770 -2.4770
  409SOL     OW 1225   2.135   1.550   1.244 -0.1929  0.0899  0.2189
  409SOL    HW1 1226   2.038   1.536   1.250  3.0066 -1.9000  1.9819
  409SOL    HW2 1227   2.165   1.597   1.158 -2.4050  0.6851  0.9517
  410SOL     OW 1228   2.530   1.925   0.110 -0.4248 -0.6094  0.1609
  410SOL    HW1 1229   2.589   1.866   0.052 -1.5784 -1.1848  2.6558
  410SOL    HW2 1230   2.551   2.024   0.093 -0.0684 -0.2454 -1.0229
  411SOL     OW 1231   0.149   1.191   0.532  0.1741  0.4244 -0.6917
  411SOL    HW1 1232   0.157   1.252   0.614  0.9685  3.2889 -1.4818
  411SOL    HW2 1233   0.136   1.088   0.552  2.6438 -0.2529 -0.8804
  412SOL     OW 1234   2.009   2.551   0.521  0.5455 -0.5459 -0.0651
  412SOL    HW1 1235   2.078   2.547   0.448  1.8498  2.3896  1.0558
  412SOL    HW2 1236   1.974   2.460   0.558 -3.0036 -0.2334  2.4306
  413SOL     OW 1237   1.906   0.828   2.035 -0.2828 -0.1690 -0.4159
  413SOL    HW1 1238   1.862   0.776   2.114 -1.7925 -1.3578  0.0867
  413SOL    HW2 1239   1.941   0.764   1.966  1.2440 -0.9394 -0.3591
  414SOL     OW 1240   2.982   0.336   0.264 -0.0236  0.6354  0.1069
  414SOL    HW1 1241   3.022   0.270   0.330  0.3440 -0.5328 -0.4958
  414SOL    HW2 1242   2.905   0.291   0.205 -1.3300 -3.2348 -2.1174
  415SOL     OW 1243   0.938   1.642   1.528 -0.0792 -0.7178 -0.4109
  415SOL    HW1 1244   1.038   1.623   1.515  1.8438 -1.9574 -2.7808
  415SOL    HW2 1245   0.908   1.651   1.624  0.8184 -0.8593  0.6681
  416SOL     OW 1246   0.301   0.037   2.866 -0.4694 -0.5499  0.2135
  416SOL    HW1 1247   0.275   0.125   2.906 -0.3027  0.6799  2.0438
  416SOL    HW2 1248   0.220   3.097   2.826  0.5031  0.5823 -1.3486
  417SOL     OW 1249   2.611   0.200   0.847 -0.0891 -0.4853 -0.0400
  417SOL    HW1 1250   2.554   0.284   0.850  2.5491  0.6317 -1.5241
  417SOL    HW2 1251   2.706   0.223   0.872 -3.5748  0.8782 -0.1026
  418SOL     OW 1252   0.170   0.555   2.740 -0.1357  0.5015  0.3061
  418SOL    HW1 1253   0.075   0.521   2.740 -1.0043  0.0549 -0.9582
  418SOL    HW2 1254   0.228   0.492   2.684 -0.3703  3.2114  3.1884
  419SOL     OW 1255   0.151   1.258   1.551 -0.8600 -0.1214  0.4628
  419SOL    HW1 1256   0.158   1.217   1.642 -0.2529  1.0136 -3.4202
  419SOL    HW2 1257   0.060   1.266   1.517  0.7383  1.2276  5.2277
  420SOL     OW 1258   0.749   1.722   0.653  0.3453 -0.5074  0.3161
  420SOL    HW1 1259   0.784   1.746   0.560  1.6680  1.7747 -1.6378
  420SOL    HW2 1260   0.804   1.644   0.687  0.0307  4.3782  0.0458
  421SOL     OW 1261   2.173   2.281   2.457 -0.2835 -0.2639 -0.0796
  421SOL    HW1 1262   2.166   2.193   2.507 -2.5714 -0.6201 -1.1232
  421SOL    HW2 1263   2.267   2.295   2.412  2.1943 -0.8317  0.6200
  422SOL     OW 1264   3.016   0.532   2.698 -0.4068  0.5284  0.1649
  422SOL    HW1 1265   2.926   0.544   2.746 -1.8162  0.0922  1.2649
  422SOL    HW2 1266   2.999   0.516   2.600  2.1401  0.6329  0.7051
  423SOL     OW 1267   1.404   2.072   0.928  0.0882  0.2632  0.3728
  423SOL    HW1 1268   1.465   2.027   0.999  2.8543 -2.2066  0.8672
  423SOL    HW2 1269   1.365   2.003   0.861 -0.1997  1.8865  4.2878
  424SOL     OW 1270   0.620   2.000   1.726  0.7653  0.6683  0.6972
  424SOL    HW1 1271   0.593   2.079   1.669 -0.1275  0.2684 -0.5502
  424SOL    HW2 1272   0.574   2.012   1.813  1.8372  2.4122 -2.1258
  425SOL     OW 1273   0.063   2.931   2.038  0.0252 -0.0057  0.2446
  425SOL    HW1 1274   0.112   2.839   2.056  1.9676  2.3766 -1.3517
  425SOL    HW2 1275   3.064   2.930   2.061  1.4913 -1.6424 -1.8954
  426SOL     OW 1276   1.552   0.847   0.536  0.5683 -0.0798  0.7182
  426SOL    HW1 1277   1.510   0.793   0.459 -0.4541  0.7771 -0.2260
  426SOL    HW2 1278   1.511   0.828   0.627 -1.3877  2.6274  2.2596
  427SOL     OW 1279   0.712   0.884   0.143  0.0863 -0.4161  0.3314
  427SOL    HW1 1280   0.648   0.804   0.143  1.9623  0.4040 -2.0178
  427SOL    HW2 1281   0.759   0.888   0.051  2.1221 -2.0613  1.0178
  428SOL     OW 1282   1.370   1.354   0.069  0.1731  0.6936 -0.2192
  428SOL    HW1 1283   1.358   1.393   0.162  0.7375  3.3837 -0.8867
  428SOL    HW2 1284   1.288   1.367   0.012  2.2559 -1.2872 -1.3938
  429SOL     OW 1285   2.819   2.797   0.631  0.1731 -0.1460  0.0560
  429SOL    HW1 1286   2.903   2.790   0.573  2.5793  0.3073 -0.8551
  429SOL    HW2 1287   2.788   2.895   0.625  0.1290  1.5866  0.7676
  430SOL     OW 1288   0.527   2.870   2.494  0.0613 -0.7385 -0.0207
  430SOL    HW1 1289   0.518   2.940   2.571  0.0768  2.8977  0.8709
  430SOL    HW2 1290   0.542   2.778   2.534 -0.1954  1.4276 -1.8214
  431SOL     OW 1291   2.832   1.114   0.703 -0.1414 -0.0737  0.3254
  431SOL    HW1 1292   2.747   1.093   0.752 -3.6322  3.2218 -1.7329
  431SOL    HW2 1293   2.900   1.042   0.712  0.3648  0.5360 -1.2560
  432SOL     OW 1294   2.178   2.651   1.878 -0.1200  0.0300 -0.0739
  432SOL    HW1 1295   2.178   2.625   1.980  3.7385  1.2947 -2.2842
  432SOL    HW2 1296   2.168   2.562   1.832  1.6255 -0.0279  1.5518
  433SOL     OW 1297   1.618   2.479   0.702  0.4204  0.4755 -0.1338
  433SOL    HW1 1298   1.626   2.385   0.740 -0.9192 -1.1750 -0.0531
  433SOL    HW2 1299   1.678   2.541   0.757  0.0887 -0.1894 -0.3196
  434SOL     OW 1300   0.472   2.078   1.944  0.1726 -0.1032  0.0874
  434SOL    HW1 1301   0.527   2.161   1.921  0.8875  1.2492 -0.7051
  434SOL    HW2 1302   0.379   2.088   1.905 -2.1371 -1.6180  0.0487
  435SOL     OW 1303   3.079   0.916   3.031 -0.4278  0.7663  0.8684
  435SOL    HW1 1304   3.024   0.908   0.016 -0.6949 -2.0981  0.9090
  435SOL    HW2 1305   0.014   0.826   3.000  0.1809  2.8329  0.3053
  436SOL     OW 1306   0.333   2.722   1.858  0.0969 -0.3621  0.5678
  436SOL    HW1 1307   0.307   2.812   1.829 -3.3874 -1.9711  1.7544
  436SOL    HW2 1308   0.425   2.712   1.897 -0.2835  0.9913 -1.8160
  437SOL     OW 1309   1.700   2.614   1.731 -0.1010 -0.4375 -0.0702
  437SOL    HW1 1310   1.713   2.646   1.635 -2.6695 -0.7321  3.0022
  437SOL    HW2 1311   1.767   2.662   1.792  1.9214 -0.8915  0.2144
  438SOL     OW 1312   0.207   1.725   0.563 -0.2678  0.4530 -0.1785
  438SOL    HW1 1313   0.272   1.728   0.643 -0.1929  0.7439  1.3305
  438SOL    HW2 1314   0.116   1.759   0.599 -0.1796 -1.4225 -2.5059
  439SOL     OW 1315   0.211   0.518   0.920  0.0582 -0.0640  0.5858
  439SOL    HW1 1316   0.278   0.588   0.883  3.3826 -1.0749 -0.0560
  439SOL    HW2 1317   0.243   0.420   0.897  1.1929 -1.6707  0.6995
  440SOL     OW 1318   0.221   2.790   2.589 -0.4590  0.1093  0.0177
  440SOL    HW1 1319   0.247   2.695   2.603 -0.1485  1.2825 -1.9946
  440SOL    HW2 1320   0.299   2.854   2.580 -3.1056  0.4311  0.0820
  441SOL     OW 1321   2.969   0.888   0.730 -0.2094  0.2130 -0.6923
  441SOL    HW1 1322   3.012   0.817   0.785 -0.0881  1.6169 -2.4978
  441SOL    HW2 1323   2.874   0.858   0.711  2.9422 -3.1035 -0.3740
  442SOL     OW 1324   1.294   2.233   2.569 -0.1439 -0.2978 -0.5580
  442SOL    HW1 1325   1.263   2.135   2.549 -0.8648 -2.2845  0.6711
  442SOL    HW2 1326   1.395   2.250   2.533  1.5180 -0.6224 -3.3101
  443SOL     OW 1327   0.692   0.540   0.577  0.0061 -0.3365  0.2398
  443SOL    HW1 1328   0.763   0.583   0.637 -0.1495 -1.0507 -1.2197
  443SOL    HW2 1329   0.732   0.517   0.483  1.3060 -0.8288 -4.3183
  444SOL     OW 1330   1.536   1.575   2.494  0.0746 -0.5359 -0.2443
  444SOL    HW1 1331   1.435   1.548   2.496 -1.5032  1.3404 -2.7124
  444SOL    HW2 1332   1.534   1.669   2.449  1.9199  2.5323 -2.8338
  445SOL     OW 1333   0.146   0.417   0.591  0.0028 -0.0434  0.1409
  445SOL    HW1 1334   0.174   0.379   0.680 -0.4852  0.1472  0.9488
  445SOL    HW2 1335   0.188   0.507   0.573 -0.1510 -2.2345  2.5759
  446SOL     OW 1336   2.019   0.677   1.032 -0.0998  0.2323 -0.6946
  446SOL    HW1 1337   1.939   0.691   1.089  1.4970  1.2868  0.5041
  446SOL    HW2 1338   2.017   0.736   0.951 -0.2866 -2.1213 -1.7615
  447SOL     OW 1339   0.035   0.965   0.223 -0.3050 -0.0171  0.2050
  447SOL    HW1 1340   0.027   0.867   0.234 -0.6476  1.3190  0.6223
  447SOL    HW2 1341   3.065   1.019   0.276 -2.6631 -0.4081 -0.9619
  448SOL     OW 1342   1.831   2.108   1.762  1.0503 -0.3283  0.0251
  448SOL    HW1 1343   1.821   2.207   1.769 -0.5104 -0.1066  0.9453
  448SOL    HW2 1344   1.836   2.076   1.667 -1.4349 -1.2047  0.0844
  449SOL     OW 1345   0.914   1.513   0.703 -0.4293  0.4497  0.0786
  449SOL    HW1 1346   0.997   1.490   0.649 -0.7535 -0.3446  0.5243
  449SOL    HW2 1347   0.862   1.427   0.727  0.0484 -2.3977 -3.2665
  450SOL     OW 1348   2.735   2.524   2.283 -0.8145  0.2372 -0.2245
  450SOL    HW1 1349   2.724   2.622   2.252  2.9401  1.4514 -0.0194
  450SOL    HW2 1350   2.788   2.471   2.214 -0.7577 -2.2035  0.3434
  451SOL     OW 1351   2.469   1.213   2.863  0.0213 -0.0519 -0.1001
  451SOL    HW1 1352   2.441   1.166   2.951  1.7756  1.2369  1.2264
  451SOL    HW2 1353   2.456   1.314   2.877  1.3145  0.4285 -0.3961
  452SOL     OW 1354   1.900   1.030   1.086 -0.4130 -0.0049 -0.1762
  452SOL    HW1 1355   1.931   1.041   1.182 -0.2542  1.1898 -3.2812
  452SOL    HW2 1356   1.847   0.941   1.064 -1.7332 -1.3440 -1.5873
  453SOL     OW 1357   2.208   0.663   1.424 -0.5754 -0.3007  0.1985
  453SOL    HW1 1358   2.130   0.718   1.450  1.1266 -0.8166  0.8248
  453SOL    HW2 1359   2.285   0.669   1.486 -0.9827 -0.5670 -1.9222
  454SOL     OW 1360   2.837   1.289   3.054 -0.3379 -0.3221 -0.6042
  454SOL    HW1 1361   2.917   1.238   3.010  1.6713  1.0614  1.6587
  454SOL    HW2 1362   2.754   1.234   3.066  0.4603  1.4601  0.5469
  455SOL     OW 1363   2.554   1.603   1.507 -0.1186  1.0523  0.3853
  455SOL    HW1 1364   2.485   1.534   1.467 -1.9191 -1.9209  0.8215
  455SOL    HW2 1365   2.548   1.697   1.474  0.6345 -2.0128  2.3814
  456SOL     OW 1366   1.092   0.249   1.563  0.6777 -0.0141  0.0767
  456SOL    HW1 1367   1.122   0.332   1.618  2.8040 -0.3233 -0.0004
  456SOL    HW2 1368   1.157   0.231   1.484  1.7729 -0.9676 -3.0197
  457SOL     OW 1369   1.763   2.677   1.065  0.2510 -0.1121  0.2838
  457SOL    HW1 1370   1.765   2.612   1.142  3.2745 -0.4634  0.3173
  457SOL    HW2 1371   1.792   2.771   1.097  3.5125  0.2723 -3.1804
  458SOL     OW 1372   2.876   0.197   0.571  0.1781  0.0973 -0.1167
  458SOL    HW1 1373   2.855   0.110   0.524  0.7209  0.7731 -1.1039
  458SOL    HW2 1374   2.962   0.184   0.626  0.0258  1.4375 -3.7590
  459SOL     OW 1375   1.581   0.869   0.090 -0.2998 -0.4139 -0.4177
  459SOL    HW1 1376   1.489   0.908   0.112  2.1611  1.3348 -0.6414
  459SOL    HW2 1377   1.596   0.846   3.094 -1.0985 -2.2392  2.8078
  460SOL     OW 1378   0.301   2.534   2.668  0.0322  0.4059 -0.2990
  460SOL    HW1 1379   0.323   2.519   2.765 -0.6932 -1.7809  0.1180
  460SOL    HW2 1380   0.299   2.444   2.621  1.0013 -0.1180 -1.4365
  461SOL     OW 1381   0.497   1.679   0.275 -0.2548  0.2686 -0.2247
  461SOL    HW1 1382   0.585   1.695   0.328  2.1081 -2.7753  2.1766
  461SOL    HW2 1383   0.479   1.761   0.217 -2.0871 -1.3872 -0.6999
  462SOL     OW 1384   2.064   1.934   0.899  0.3445  0.6229  0.1227
  462SOL    HW1 1385   2.135   1.963   0.967  1.9574  0.3088  0.5154
  462SOL    HW2 1386   1.981   1.903   0.950 -0.7192  3.6375 -1.6536
  463SOL     OW 1387   2.912   0.600   0.236 -0.8564  0.3119 -0.0294
  463SOL    HW1 1388   2.943   0.504   0.254  2.3049  2.2672 -0.4348
  463SOL    HW2 1389   2.856   0.611   0.152 -0.7150 -1.8120 -2.4445
  464SOL     OW 1390   0.765   2.472   0.479  0.3885 -0.3615  0.2152
  464SOL    HW1 1391   0.828   2.534   0.429 -0.1158  0.7124 -2.3443
  464SOL    HW2 1392   0.795   2.446   0.574  0.6817 -1.4793  0.2895
  465SOL     OW 1393   2.239   0.323   0.808  0.5814 -0.7387  0.4992
  465SOL    HW1 1394   2.187   0.241   0.837 -1.6830 -1.7613 -0.1702
  465SOL    HW2 1395   2.198   0.362   0.722  2.3749 -0.7456 -0.4510
  466SOL     OW 1396   2.176   0.191   0.403  0.4417 -0.1344 -0.3296
  466SOL    HW1 1397   2.083   0.151   0.423 -0.6480 -1.0380  0.7056
  466SOL    HW2 1398   2.215   0.152   0.316  1.5383 -1.5228 -1.9288
  467SOL     OW 1399   1.280   0.413   1.978  0.4816  0.2022  0.2424
  467SOL    HW1 1400   1.335   0.486   2.025  1.3314  1.1689 -2.4028
  467SOL    HW2 1401   1.321   0.322   1.960 -0.1182 -1.1097  0.3101
  468SOL     OW 1402   2.681   0.536   1.816  0.1655 -0.0416 -0.3755
  468SOL    HW1 1403   2.601   0.533   1.755 -0.0702  1.9752  0.4990
  468SOL    HW2 1404   2.661   0.481   1.904 -1.8245 -1.1217  1.0441
  469SOL     OW 1405   1.015   2.293   1.993  0.1169  0.1586 -0.7919
  469SOL    HW1 1406   1.019   2.201   2.034  0.1056 -1.4767  1.4426
  469SOL    HW2 1407   0.996   2.288   1.894 -0.5838  1.9991  1.6216
  470SOL     OW 1408   1.964   1.112   1.929  0.2686  0.0869  0.3806
  470SOL    HW1 1409   2.004   1.018   1.911  2.1699 -0.4188  1.1097
  470SOL    HW2 1410   1.964   1.132   2.030  0.3525  0.1958 -1.6206
  471SOL     OW 1411   2.771   1.536   2.918  0.2637  0.3703  0.5116
  471SOL    HW1 1412   2.767   1.473   2.836 -0.6110  0.5943  1.8521
  471SOL    HW2 1413   2.807   1.480   2.995 -1.3502 -0.5302  3.1691
  472SOL     OW 1414   0.522   2.424   0.382 -0.1606 -0.0441  0.5577
  472SOL    HW1 1415   0.479   2.384   0.461  4.3514  1.6853 -1.6823
  472SOL    HW2 1416   0.625   2.436   0.400  0.6861  0.0665  0.9862
  473SOL     OW 1417   1.153   2.450   2.182 -0.2026 -0.2263 -0.0980
  473SOL    HW1 1418   1.096   2.376   2.142  1.8534 -0.9501  2.2849
  473SOL    HW2 1419   1.150   2.451   2.283 -0.9761  0.3691 -0.1048
  474SOL     OW 1420   1.320   3.055   2.633 -0.3774  0.3635  0.3853
  474SOL    HW1 1421   1.221   3.046   2.634  2.1218  1.3604  1.3052
  474SOL    HW2 1422   1.364   2.971   2.664 -2.8095  2.0800 -1.2076
  475SOL     OW 1423   1.000   2.404   0.280  0.0936 -0.0627 -0.0712
  475SOL    HW1 1424   1.047   2.434   0.196  1.4553 -1.5612 -1.4690
  475SOL    HW2 1425   1.025   2.304   0.302  0.6955  2.8280  1.9030
  476SOL     OW 1426   0.565   0.397   1.175  0.0056 -0.5578 -0.6856
  476SOL    HW1 1427   0.616   0.427   1.258 -0.3282  0.1126 -0.5643
  476SOL    HW2 1428   0.600   0.438   1.088 -1.0892  0.1977  0.4104
  477SOL     OW 1429   1.803   2.059   1.494 -0.6529 -0.7881  0.1720
  477SOL    HW1 1430   1.749   2.126   1.437 -2.4836  1.9238 -1.8918
  477SOL    HW2 1431   1.767   1.962   1.481 -0.5860  0.9428 -1.7991
  478SOL     OW 1432   0.062   0.654   2.987  0.4216  0.2792  0.3741
  478SOL    HW1 1433   0.052   0.578   3.059  0.2282 -1.8375  0.2500
  478SOL    HW2 1434   0.115   0.622   2.908  0.2636  0.7672 -1.2540
  479SOL     OW 1435   0.688   2.959   0.813  0.0253  0.0541  0.1817
  479SOL    HW1 1436   0.696   2.881   0.878  0.1458 -2.1011  2.7849
  479SOL    HW2 1437   0.767   2.971   0.743  4.1117  0.4598 -2.8382
  480SOL     OW 1438   2.484   2.698   0.387 -0.1274  0.4053  0.2421
  480SOL    HW1 1439   2.512   2.699   0.483 -0.2477 -0.1094 -1.1373
  480SOL    HW2 1440   2.533   2.623   0.339  2.1512  0.4696  2.2321
  481SOL     OW 1441   2.960   0.536   1.286 -0.6704  0.2739 -0.2398
  481SOL    HW1 1442   2.971   0.463   1.214 -0.9018  0.8362 -0.8741
  481SOL    HW2 1443   2.963   0.498   1.380 -0.7193 -1.2920 -0.4122
  482SOL     OW 1444   1.099   2.853   0.938  0.3438 -0.0237 -0.4755
  482SOL    HW1 1445   1.118   2.864   0.839  0.2253  2.2350  1.7387
  482SOL    HW2 1446   1.055   2.940   0.975  0.9518  0.4671  1.8762
  483SOL     OW 1447   0.356   1.299   2.916 -0.0766  0.5784  0.1158
  483SOL    HW1 1448   0.258   1.271   2.935 -1.6346  2.5359  0.5580
  483SOL    HW2 1449   0.389   1.323   3.008  1.8730 -0.9617 -0.8570
  484SOL     OW 1450   1.612   1.612   2.114 -0.4443 -0.1323 -0.4527
  484SOL    HW1 1451   1.621   1.508   2.094 -0.1027 -3.0554  2.0080
  484SOL    HW2 1452   1.684   1.634   2.185 -1.4771 -0.8145  1.4851
  485SOL     OW 1453   0.108   3.022   2.567  0.4128  0.0105 -0.3643
  485SOL    HW1 1454   0.073   3.063   2.653 -0.6771  2.9847 -0.8851
  485SOL    HW2 1455   0.123   2.921   2.573  0.0889 -1.6217 -0.7519
  486SOL     OW 1456   1.581   0.008   0.470 -0.2477  0.6245  0.5048
  486SOL    HW1 1457   1.622   3.062   0.552 -0.7199 -1.7386  0.1839
  486SOL    HW2 1458   1.644   3.070   0.395 -2.2854 -0.9289  0.2083
  487SOL     OW 1459   1.603   0.161   0.747  0.3336  0.2292  0.1853
  487SOL    HW1 1460   1.698   0.186   0.732 -2.6169  1.7640  1.0114
  487SOL    HW2 1461   1.583   0.068   0.785 -2.5398 -1.5728  1.0441
  488SOL     OW 1462   2.246   0.975   0.855  0.2015  0.2451 -0.1064
  488SOL    HW1 1463   2.196   1.059   0.887 -0.0766 -0.9373  1.3862
  488SOL    HW2 1464   2.183   0.898   0.838 -0.4744  1.1826  2.7099
  489SOL     OW 1465   1.255   3.061   1.199 -0.1104 -0.1955 -0.4740
  489SOL    HW1 1466   1.226   3.028   1.290  1.5958  0.0057  1.4126
  489SOL    HW2 1467   1.170   3.076   1.141 -1.3682  2.2538 -2.4055
  490SOL     OW 1468   0.899   0.674   0.706 -0.2287  0.5882  0.1882
  490SOL    HW1 1469   0.893   0.703   0.802 -1.1421 -1.7104  1.8449
  490SOL    HW2 1470   0.914   0.755   0.648 -1.0106 -1.2361  0.5160
  491SOL     OW 1471   1.174   2.832   0.374 -0.4183  0.0656 -0.0404
  491SOL    HW1 1472   1.220   2.885   0.446 -0.3951 -0.6763  1.2698
  491SOL    HW2 1473   1.237   2.788   0.307 -1.2861 -1.5030  0.9625
  492SOL     OW 1474   0.892   1.415   1.917 -0.0248 -0.2253 -0.6587
  492SOL    HW1 1475   0.822   1.398   1.987  0.3727 -0.8070 -1.0770
  492SOL    HW2 1476   0.889   1.333   1.850  2.1675 -5.2321 -0.4064
  493SOL     OW 1477   0.218   1.855   0.311 -0.0759  0.0365  1.3348
  493SOL    HW1 1478   0.167   1.944   0.316 -0.6128 -3.2028 -0.0025
  493SOL    HW2 1479   0.219   1.821   0.407  0.7329 -0.6188 -0.9040
  494SOL     OW 1480   1.816   1.683   0.346 -0.1520  0.0624  0.0150
  494SOL    HW1 1481   1.826   1.709   0.445  2.8386 -1.3014  0.8238
  494SOL    HW2 1482   1.754   1.746   0.297  2.0941  3.4871  0.0045
  495SOL     OW 1483   0.391   0.807   2.487 -0.4673 -0.3444  0.1512
  495SOL    HW1 1484   0.304   0.837   2.443 -1.0736  1.7861 -0.7068
  495SOL    HW2 1485   0.453   0.890   2.500  1.7819  0.5022  0.4393
  496SOL     OW 1486   0.047   0.082   2.352 -0.3763  0.3191  0.0341
  496SOL    HW1 1487   0.070   0.034   2.440 -0.5157 -1.3824 -0.4775
  496SOL    HW2 1488   0.117   0.054   2.285 -0.4517 -0.0866  0.7902
  497SOL     OW 1489   1.690   1.234   0.498 -1.0455 -0.0663  0.4429
  497SOL    HW1 1490   1.710   1.300   0.422 -1.5106 -0.3385 -1.3931
  497SOL    HW2 1491   1.716   1.140   0.474 -1.1891 -0.3881  0.2382
  498SOL     OW 1492   2.941   2.728   0.027  1.0278  0.6699  0.3162
  498SOL    HW1 1493   2.971   2.635   0.053  1.3807  0.0148  1.1980
  498SOL    HW2 1494   2.839   2.737   0.038  1.7002  2.5883 -0.0627
  499SOL     OW 1495   1.954   2.786   0.626  0.5029 -0.5954  0.2327
  499SOL    HW1 1496   1.946   2.858   0.552  2.2198  0.3249 -0.9445
  499SOL    HW2 1497   1.982   2.697   0.587 -0.4193  0.7707 -0.5316
  500SOL     OW 1498   0.823   0.759   2.721 -0.3811 -0.1016 -0.1304
  500SOL    HW1 1499   0.758   0.693   2.674 -3.0892 -1.0637  1.3878
  500SOL    HW2 1500   0.770   0.840   2.748  1.4188  0.1227 -0.8277
  501SOL     OW 1501   1.406   2.867   1.679 -0.2253 -0.2643  0.0495
  501SOL    HW1 1502   1.375   2.816   1.761  0.9150  1.6240  0.3622
  501SOL    HW2 1503   1.399   2.971   1.696 -0.7249  3.5474 -0.9991
  502SOL     OW 1504   0.155   0.269   1.983  0.1750  0.4058 -0.2356
  502SOL    HW1 1505   0.213   0.211   2.047  1.8527 -1.3903  0.0778
  502SOL    HW2 1506   0.118   0.218   1.904  0.3130  1.1022  0.1299
  503SOL     OW 1507   1.777   2.220   2.068  0.1510 -0.1769 -0.0014
  503SOL    HW1 1508   1.829   2.286   2.130  0.9891 -1.3646  0.1910
  503SOL    HW2 1509   1.816   2.125   2.077 -0.3915 -2.3469  1.5251
  504SOL     OW 1510   2.067   0.141   1.456  0.0527  0.0272  0.0509
  504SOL    HW1 1511   2.076   0.241   1.442 -2.4133 -0.1754 -0.9473
  504SOL    HW2 1512   2.021   0.117   1.544 -0.8282  1.5789  0.9131
  505SOL     OW 1513   2.547   1.695   1.783  0.4203  0.1341 -0.0895
  505SOL    HW1 1514   2.620   1.767   1.770  0.9631  2.2856  3.4566
  505SOL    HW2 1515   2.503   1.665   1.696 -0.0545 -1.7510  3.0293
  506SOL     OW 1516   0.187   1.281   2.302  0.2832  0.6111  0.3759
  506SOL    HW1 1517   0.277   1.259   2.340 -0.4096 -0.3103 -0.5444
  506SOL    HW2 1518   0.141   1.201   2.262  2.0411 -0.7603  0.1055
  507SOL     OW 1519   0.139   2.907   1.275  0.2731  0.5003 -0.3947
  507SOL    HW1 1520   0.124   2.974   1.200  1.5780 -0.9768  1.5938
  507SOL    HW2 1521   0.053   2.864   1.312 -1.4008 -0.1599 -1.8405
  508SOL     OW 1522   1.210   0.684   1.550 -0.3767  0.3032 -0.4052
  508SOL    HW1 1523   1.182   0.708   1.455 -1.9452 -0.9807 -0.4641
  508SOL    HW2 1524   1.287   0.624   1.541  0.1703  0.3122 -0.3708
  509SOL     OW 1525   1.809   2.373   1.800 -0.6161  0.6479  0.0465
  509SOL    HW1 1526   1.774   2.466   1.775  1.0798 -0.4987 -0.0810
  509SOL    HW2 1527   1.772   2.338   1.889  1.4978  0.4005 -0.1116
  510SOL     OW 1528   2.420   1.463   2.958 -0.3342  0.3553  0.8958
  510SOL    HW1 1529   2.449   1.466   3.053  0.7208 -2.4638 -1.2728
  510SOL    HW2 1530   2.317   1.458   2.948 -0.8872 -0.3376  1.0857
  511SOL     OW 1531   0.288   1.478   1.594  0.3992 -0.2803  0.0199
  511SOL    HW1 1532   0.232   1.394   1.592 -1.2410  0.2586  1.7751
  511SOL    HW2 1533   0.385   1.469   1.615 -3.9702 -2.1709 -3.2846
  512SOL     OW 1534   2.476   2.126   0.444  0.2253 -0.6807 -0.1229
  512SOL    HW1 1535   2.574   2.141   0.454  0.8611 -0.1615 -0.7529
  512SOL    HW2 1536   2.454   2.029   0.461  0.3910 -0.4581  0.5796
  513SOL     OW 1537   0.730   1.806   2.222  0.2912  0.5976 -0.1025
  513SOL    HW1 1538   0.793   1.759   2.153 -1.0242  0.0586 -2.1753
  513SOL    HW2 1539   0.742   1.774   2.315  0.6396  2.0535  1.4467
  514SOL     OW 1540   0.159   2.277   2.290  0.1075 -0.0165 -0.0551
  514SOL    HW1 1541   0.105   2.195   2.254 -0.1247 -0.6096 -3.2241
  514SOL    HW2 1542   0.101   2.356   2.299  3.2695 -3.5987  1.7521
  515SOL     OW 1543   1.856   1.323   1.792 -0.2614 -0.0750 -0.2917
  515SOL    HW1 1544   1.871   1.231   1.840 -2.8693 -0.3539 -0.7766
  515SOL    HW2 1545   1.934   1.373   1.744 -1.9370  0.2179 -1.9807
  516SOL     OW 1546   2.111   2.538   0.195  0.0991 -0.1525 -0.1111
  516SOL    HW1 1547   2.014   2.569   0.179 -0.4815  0.7852 -1.9667
  516SOL    HW2 1548   2.123   2.436   0.174  0.8049 -3.2196 -0.4449
  517SOL     OW 1549   0.800   1.718   0.376  0.0161 -0.4040  0.1504
  517SOL    HW1 1550   0.849   1.724   0.286  0.7439  0.7454 -0.6858
  517SOL    HW2 1551   0.755   1.628   0.399 -0.9816  2.2795  2.9194
  518SOL     OW 1552   1.988   2.631   1.547  0.2297 -0.2909 -0.9394
  518SOL    HW1 1553   1.893   2.676   1.551 -1.4510  2.2358  1.9288
  518SOL    HW2 1554   1.984   2.549   1.489 -1.7368  1.0034 -0.3740
  519SOL     OW 1555   2.223   2.494   1.218 -0.0962 -0.0588 -0.1155
  519SOL    HW1 1556   2.284   2.565   1.243 -0.2692 -2.9492 -1.9162
  519SOL    HW2 1557   2.204   2.507   1.119 -1.8854 -1.2956  1.1933
  520SOL     OW 1558   2.847   2.168   2.274  0.0908 -0.2875  0.1026
  520SOL    HW1 1559   2.860   2.078   2.228  0.2940 -0.2939 -0.3868
  520SOL    HW2 1560   2.873   2.248   2.217  0.5671  3.1230 -0.4569
  521SOL     OW 1561   2.603   1.031   2.463  0.2088  0.1847 -0.0847
  521SOL    HW1 1562   2.655   1.057   2.549  3.1091  0.3588  2.5257
  521SOL    HW2 1563   2.516   1.083   2.463 -1.8116  0.2945  1.2079
  522SOL     OW 1564   0.889   0.638   2.404  0.5427 -0.1667  0.3809
  522SOL    HW1 1565   0.978   0.630   2.446  0.8571  0.3132 -1.8776
  522SOL    HW2 1566   0.871   0.559   2.343  1.7568  0.9465 -0.5388
  523SOL     OW 1567   0.157   2.093   0.842  0.2059 -0.2590  0.5293
  523SOL    HW1 1568   0.173   2.012   0.896 -2.5657 -0.6830 -1.0184
  523SOL    HW2 1569   0.151   2.174   0.898  1.3642 -4.2867  1.1214
  524SOL     OW 1570   1.964   2.718   0.018 -0.4607  0.2416 -0.1899
  524SOL    HW1 1571   1.982   2.776   0.101  0.7809 -3.3782  1.7570
  524SOL    HW2 1572   2.044   2.728   3.054 -0.1199 -0.1350 -1.4543
  525SOL     OW 1573   2.529   0.442   1.410  0.4556  0.2431  0.2435
  525SOL    HW1 1574   2.572   0.525   1.369  0.8485 -0.2181  2.4008
  525SOL    HW2 1575   2.464   0.400   1.347  1.4073 -2.2274  2.1786
  526SOL     OW 1576   1.136   2.566   0.436 -0.0475  0.3556 -0.2745
  526SOL    HW1 1577   1.079   2.505   0.378  2.3710  1.8944  4.2378
  526SOL    HW2 1578   1.121   2.662   0.410  0.6825 -0.4415 -0.0511
  527SOL     OW 1579   2.279   3.012   0.468 -0.2270  0.5537  0.3904
  527SOL    HW1 1580   2.310   2.958   0.547 -2.0254 -0.3874  2.4185
  527SOL    HW2 1581   2.355   3.055   0.415  2.3516  0.3961 -2.0930
  528SOL     OW 1582   1.423   0.706   0.310  0.5464  0.1001  0.4598
  528SOL    HW1 1583   1.321   0.717   0.305 -3.1387 -0.5498  0.0932
  528SOL    HW2 1584   1.456   0.727   0.216 -1.2820  1.3919 -1.7040
  529SOL     OW 1585   1.247   1.516   2.390 -0.1249 -0.4642 -0.1499
  529SOL    HW1 1586   1.195   1.431   2.420  2.4086  4.3470  0.4347
  529SOL    HW2 1587   1.281   1.506   2.294  1.7741 -0.6171  0.3706
  530SOL     OW 1588   2.295   0.345   0.074 -0.4148  0.1962 -0.3026
  530SOL    HW1 1589   2.231   0.419   0.099 -0.9033  1.1350  0.6195
  530SOL    HW2 1590   2.250   0.255   0.097 -0.9090  0.4932 -0.3932
  531SOL     OW 1591   1.563   0.770   2.929  0.1963  0.1799 -0.5929
  531SOL    HW1 1592   1.591   0.840   2.858 -2.1411 -0.5642 -2.5394
  531SOL    HW2 1593   1.510   0.697   2.883 -0.3284 -0.7262  0.7540
  532SOL     OW 1594   1.503   0.385   0.847  0.1825  0.1844 -0.1704
  532SOL    HW1 1595   1.513   0.299   0.790 -0.0055  0.7252  1.1495
  532SOL    HW2 1596   1.575   0.459   0.832  2.9566  3.4772  1.3804
  533SOL     OW 1597   0.353   0.745   2.755  0.9710  0.1907 -0.2487
  533SOL    HW1 1598   0.371   0.754   2.654  0.9925  2.2611 -0.8966
  533SOL    HW2 1599   0.265   0.696   2.774 -2.6712 -0.4107  2.1871
  534SOL     OW 1600   1.712   0.335   2.879  0.2808  0.8371 -0.4260
  534SOL    HW1 1601   1.700   0.234   2.893  0.0280 -2.3859 -0.8951
  534SOL    HW2 1602   1.659   0.385   2.949 -2.6015 -0.5427  3.0084
  535SOL     OW 1603   0.344   2.799   2.844 -0.2172 -0.2687  0.0420
  535SOL    HW1 1604   0.361   2.700   2.867 -0.3800  1.2554  0.8282
  535SOL    HW2 1605   0.243   2.832   2.847 -4.4864  1.2737  0.9103
  536SOL     OW 1606   0.638   3.095   0.351  0.7873  0.6705 -0.2718
  536SOL    HW1 1607   0.711   0.065   0.330 -0.4029 -3.9302 -1.1079
  536SOL    HW2 1608   0.671   3.013   0.401 -1.6593  2.4794 -0.9764
  537SOL     OW 1609   1.659   0.290   0.181  0.2903  0.2781  0.6586
  537SOL    HW1 1610   1.656   0.376   0.122 -4.2468  3.2588  0.8528
  537SOL    HW2 1611   1.568   0.249   0.186  3.3481 -1.2192 -0.1532
  538SOL     OW 1612   2.711   2.010   2.913 -0.1340  0.2537  0.3753
  538SOL    HW1 1613   2.809   1.984   2.903  0.1182  0.9403 -0.8678
  538SOL    HW2 1614   2.709   2.090   2.976  2.0545  0.1372  0.6063
  539SOL     OW 1615   2.230   2.005   0.108  0.0495 -0.0458  0.5591
  539SOL    HW1 1616   2.217   1.937   0.035  0.9048 -1.6262 -1.0072
  539SOL    HW2 1617   2.305   1.978   0.175  0.5543 -0.6064 -0.7224
  540SOL     OW 1618   1.054   2.991   1.792 -0.7905 -0.9171 -0.2903
  540SOL    HW1 1619   1.087   2.993   1.890 -0.4642  1.9740  1.0820
  540SOL    HW2 1620   0.968   2.935   1.787 -0.2178  0.5854  0.9487
  541SOL     OW 1621   2.591   0.125   2.374 -0.2453 -0.4314  0.0833
  541SOL    HW1 1622   2.592   0.124   2.273 -2.1113  1.3906  0.7497
  541SOL    HW2 1623   2.550   0.215   2.410  0.4390  1.8217  1.1521
  542SOL     OW 1624   3.094   0.789   2.642  0.7766  0.6405  0.3076
  542SOL    HW1 1625   3.080   0.696   2.682 -2.0872  1.2235 -1.8827
  542SOL    HW2 1626   3.012   0.818   2.591  2.0385  1.9556 -0.8600
  543SOL     OW 1627   0.345   0.841   1.062 -0.1837 -0.5306  0.5376
  543SOL    HW1 1628   0.363   0.785   0.976  0.1928 -0.3767 -1.9162
  543SOL    HW2 1629   0.258   0.816   1.111 -0.7066 -0.5896  0.6185
  544SOL     OW 1630   2.684   0.647   1.294 -0.1794  0.4141 -0.3602
  544SOL    HW1 1631   2.776   0.622   1.257  0.6153 -1.4839  1.4799
  544SOL    HW2 1632   2.697   0.716   1.371  3.6814 -0.3007  0.5890
  545SOL     OW 1633   1.417   2.048   0.553  0.2350 -0.2162 -0.3157
  545SOL    HW1 1634   1.334   2.108   0.563  3.4676  0.2813  0.1928
  545SOL    HW2 1635   1.490   2.072   0.620  0.3317  3.8679  0.9563
  546SOL     OW 1636   2.184   2.808   1.480  0.4357 -0.0831 -0.5416
  546SOL    HW1 1637   2.119   2.740   1.518 -0.3319  1.9591  2.6116
  546SOL    HW2 1638   2.245   2.769   1.409  0.3171 -1.3916 -0.8065
  547SOL     OW 1639   0.507   2.505   2.439 -0.0812 -0.0635  0.2328
  547SOL    HW1 1640   0.441   2.441   2.482  0.8031  3.1434  0.5769
  547SOL    HW2 1641   0.582   2.521   2.505  3.1754  1.5208 -1.6718
  548SOL     OW 1642   1.459   0.547   2.805 -0.2163 -0.5738  0.0052
  548SOL    HW1 1643   1.400   0.528   2.884 -0.1044 -0.8907 -0.1687
  548SOL    HW2 1644   1.488   0.457   2.763 -0.4664  2.0028  1.5174
  549SOL     OW 1645   2.769   0.908   0.092 -0.2142 -0.6281  0.5141
  549SOL    HW1 1646   2.788   0.819   0.045 -2.7633 -1.0371 -2.6001
  549SOL    HW2 1647   2.739   0.901   0.185  0.8738 -0.6490 -1.4718
  550SOL     OW 1648   2.070   1.687   0.767 -0.0101  0.1948  0.0962
  550SOL    HW1 1649   2.039   1.777   0.802  1.9897  0.6734 -0.3875
  550SOL    HW2 1650   2.157   1.695   0.711  3.7336 -2.0537  0.0866
  551SOL     OW 1651   1.195   0.112   0.847  0.3322  0.3776 -0.1699
  551SOL    HW1 1652   1.271   0.139   0.908 -2.7737 -0.0512  1.2393
  551SOL    HW2 1653   1.200   0.161   0.759  1.4949 -2.5130 -1.0253
  552SOL     OW 1654   2.668   2.827   2.196 -0.6764  0.2613  0.3651
  552SOL    HW1 1655   2.610   2.769   2.135  0.5166 -1.4302 -0.7676
  552SOL    HW2 1656   2.639   2.820   2.290 -0.4218  1.4571 -1.0424
  553SOL     OW 1657   0.464   2.959   2.101 -0.0699  0.4802 -0.0327
  553SOL    HW1 1658   0.511   2.906   2.027  0.0205 -1.0957 -0.8536
  553SOL    HW2 1659   0.438   2.902   2.182 -1.1465 -0.1301  0.5641
  554SOL     OW 1660   0.496   3.046   1.040  0.1139 -0.0075  0.1492
  554SOL    HW1 1661   0.502   0.034   1.094 -0.5666  3.3653  0.2521
  554SOL    HW2 1662   0.584   3.014   1.002  1.1681 -2.0165  0.0937
  555SOL     OW 1663   2.637   1.999   2.398 -0.2039  0.2533  0.3496
  555SOL    HW1 1664   2.546   2.008   2.447 -1.1769  2.1794  1.7011
  555SOL    HW2 1665   2.704   2.075   2.418 -1.4799  3.0123  1.2808
  556SOL     OW 1666   1.072   0.242   2.904 -0.3679  1.0602 -0.5227
  556SOL    HW1 1667   1.011   0.286   2.972  1.9663 -1.0617 -0.5987
  556SOL    HW2 1668   1.070   0.298   2.818 -2.9552 -1.4391  3.5051
  557SOL     OW 1669   0.237   1.903   2.254 -0.0805 -0.0306 -0.5835
  557SOL    HW1 1670   0.178   1.982   2.225 -2.5449  0.8695 -0.7254
  557SOL    HW2 1671   0.326   1.942   2.277 -0.2535  1.7600 -2.6250
  558SOL     OW 1672   2.263   0.937   3.016  0.1375 -0.1646 -0.2303
  558SOL    HW1 1673   2.238   0.877   2.937  1.2120 -2.3500 -0.7995
  558SOL    HW2 1674   2.358   0.966   2.998 -0.7830 -1.4577 -1.8153
  559SOL     OW 1675   2.335   1.716   1.956 -0.1185 -0.6997  0.8085
  559SOL    HW1 1676   2.411   1.751   1.897 -1.1419 -0.0790 -1.8229
  559SOL    HW2 1677   2.257   1.776   1.948  0.2262  1.1838 -1.6984
  560SOL     OW 1678   2.263   0.842   1.936 -0.0365 -0.6634  0.3917
  560SOL    HW1 1679   2.255   0.741   1.922  0.4352  0.1482  0.0718
  560SOL    HW2 1680   2.359   0.865   1.959 -0.8749 -0.5530 -0.7988
  561SOL     OW 1681   0.044   3.021   2.852 -0.0301  0.0042 -0.3437
  561SOL    HW1 1682   3.058   3.055   2.810  0.6218  0.0130 -0.0540
  561SOL    HW2 1683   0.033   2.943   2.919  0.8154  2.4669 -0.3211
  562SOL     OW 1684   1.189   1.318   1.579 -0.1517 -0.4892 -0.9881
  562SOL    HW1 1685   1.177   1.416   1.570  0.5469 -3.5994  0.1688
  562SOL    HW2 1686   1.110   1.272   1.536  0.1607  1.4519  1.1019
  563SOL     OW 1687   1.092   3.085   3.028 -0.0062 -0.0360  0.3524
  563SOL    HW1 1688   1.171   3.031   2.994  0.4195  1.8116  0.9644
  563SOL    HW2 1689   1.097   0.080   2.996  1.6628 -3.6509  2.7827
  564SOL     OW 1690   3.091   2.250   0.700  0.1576 -0.8845 -0.3019
  564SOL    HW1 1691   0.061   2.195   0.747 -0.0322  2.3901  0.6732
  564SOL    HW2 1692   3.022   2.285   0.767  1.0324 -1.7601  0.2629
  565SOL     OW 1693   0.621   1.982   1.216 -0.0442 -0.1689 -0.2086
  565SOL    HW1 1694   0.526   1.999   1.252  0.2134  0.8295  0.9123
  565SOL    HW2 1695   0.689   1.973   1.288 -1.3464  0.2794 -3.8523
  566SOL     OW 1696   1.609   2.700   2.108  0.8313 -0.4103 -0.2636
  566SOL    HW1 1697   1.535   2.691   2.037 -0.4731  0.5197  1.0698
  566SOL    HW2 1698   1.597   2.622   2.173 -2.7282 -2.1073 -0.0128
  567SOL     OW 1699   2.344   2.875   0.713  0.0208 -0.1898 -0.3041
  567SOL    HW1 1700   2.394   2.906   0.795  0.2339 -2.0368 -0.7276
  567SOL    HW2 1701   2.399   2.806   0.662  0.7439  0.7366 -1.0903
  568SOL     OW 1702   1.532   1.290   0.695 -0.1424  0.0552 -0.2912
  568SOL    HW1 1703   1.466   1.215   0.713  0.4319  1.4327  2.1968
  568SOL    HW2 1704   1.591   1.272   0.613 -0.2617  1.2517 -1.4475
  569SOL     OW 1705   3.065   1.584   2.734  0.2197 -0.2668  0.7547
  569SOL    HW1 1706   3.076   1.648   2.807 -0.6898 -2.4589 -1.8994
  569SOL    HW2 1707   2.976   1.605   2.689 -0.2217  1.8231 -0.4512
  570SOL     OW 1708   3.035   0.145   1.508 -0.0727  0.0164  0.4699
  570SOL    HW1 1709   3.078   0.164   1.414  1.0473  1.3591 -2.2510
  570SOL    HW2 1710   2.987   0.059   1.505 -0.5788  1.8722  0.5689
  571SOL     OW 1711   0.387   0.270   1.676  0.1882 -0.1102 -0.1216
  571SOL    HW1 1712   0.463   0.240   1.736  0.1286  1.0206  0.8353
  571SOL    HW2 1713   0.390   0.372   1.688 -1.2709 -0.6020  1.5852
  572SOL     OW 1714   0.164   2.513   1.317  0.1820  0.0731 -0.1505
  572SOL    HW1 1715   0.128   2.419   1.316 -0.0569 -0.8799 -0.2650
  572SOL    HW2 1716   0.106   2.569   1.388 -0.7281  0.4519  1.9914
  573SOL     OW 1717   0.891   0.570   3.010 -0.1074  0.2537  0.5959
  573SOL    HW1 1718   0.793   0.556   2.989  2.1999 -1.3420 -1.1590
  573SOL    HW2 1719   0.920   0.476   3.037 -2.1110  1.8739  0.4959
  574SOL     OW 1720   2.450   2.983   0.209  0.2161  0.5962 -0.5104
  574SOL    HW1 1721   2.395   2.897   0.219  0.4198  0.1602  0.4982
  574SOL    HW2 1722   2.552   2.965   0.218  0.6982  0.5976  0.4654
  575SOL     OW 1723   1.579   2.317   1.284  0.1364 -0.0855 -0.5676
  575SOL    HW1 1724   1.532   2.291   1.369 -1.0241  1.5883  0.1287
  575SOL    HW2 1725   1.509   2.323   1.210 -0.8029  0.5479 -3.1428
  576SOL     OW 1726   1.048   3.098   1.031  0.2247 -0.5178 -0.1551
  576SOL    HW1 1727   1.097   0.046   0.954  1.6468  2.0288 -0.1327
  576SOL    HW2 1728   0.961   0.049   1.054  0.1473 -0.3340 -1.5045
  577SOL     OW 1729   2.531   1.311   0.864  0.0500 -0.0617  0.2497
  577SOL    HW1 1730   2.521   1.399   0.817  0.4077 -3.8777  3.4005
  577SOL    HW2 1731   2.475   1.232   0.822  0.3341 -3.8762  0.3212
  578SOL     OW 1732   1.620   0.358   0.554  0.4461 -0.2182  0.4084
  578SOL    HW1 1733   1.614   0.272   0.612  0.7542  0.2084  2.9381
  578SOL    HW2 1734   1.704   0.368   0.499  3.8178  0.8400  0.7608
  579SOL     OW 1735   2.132   0.609   2.929  0.1234  0.1473 -0.3879
  579SOL    HW1 1736   2.216   0.550   2.932  0.7293  0.5566  2.6501
  579SOL    HW2 1737   2.050   0.555   2.891 -1.8684 -1.5732 -0.5651
  580SOL     OW 1738   1.780   0.680   2.259  0.1893  0.0476  0.2280
  580SOL    HW1 1739   1.851   0.627   2.307  2.8823  2.5188  0.7498
  580SOL    HW2 1740   1.743   0.745   2.325  1.5454  0.5800 -0.1956
  581SOL     OW 1741   0.412   0.695   0.837 -0.3129  0.1605 -0.2059
  581SOL    HW1 1742   0.495   0.630   0.858  3.2850 -0.7023 -1.2297
  581SOL    HW2 1743   0.426   0.747   0.748 -0.8021 -0.0939  0.8775
  582SOL     OW 1744   2.852   0.153   1.909  0.4491  0.4900 -0.7662
  582SOL    HW1 1745   2.816   0.155   1.816  1.6497 -0.6778  1.2891
  582SOL    HW2 1746   2.946   0.192   1.907 -1.7870 -3.2282  1.0504
  583SOL     OW 1747   0.270   0.566   2.302 -0.4595  0.1979  0.0349
  583SOL    HW1 1748   0.285   0.551   2.402  2.1916  2.2554 -1.2961
  583SOL    HW2 1749   0.340   0.520   2.247 -1.1227 -0.7095  1.0986
  584SOL     OW 1750   1.520   2.050   2.935 -0.3561 -0.9333  0.2417
  584SOL    HW1 1751   1.526   2.015   2.840  1.2039  0.9348  0.0953
  584SOL    HW2 1752   1.523   2.153   2.939  1.4892 -0.6093 -3.1103
  585SOL     OW 1753   0.345   2.548   2.942 -0.5914 -0.0039 -0.1971
  585SOL    HW1 1754   0.242   2.537   2.956  0.0345  0.4176  1.3640
  585SOL    HW2 1755   0.399   2.503   3.020 -1.0640 -1.3267  0.2035
  586SOL     OW 1756   1.832   1.843   2.790  0.3081 -0.1344  0.1415
  586SOL    HW1 1757   1.801   1.930   2.747 -1.6529 -0.8076  1.2940
  586SOL    HW2 1758   1.783   1.773   2.735 -0.7660 -0.6049  1.1831
  587SOL     OW 1759   2.272   2.196   3.022  0.6718 -0.3975  0.2952
  587SOL    HW1 1760   2.313   2.278   3.067  1.3530 -0.7096  0.8912
  587SOL    HW2 1761   2.257   2.116   3.084  1.5164 -1.2063  1.5739
  588SOL     OW 1762   3.073   0.671   0.858  0.0943 -0.2598 -0.0235
  588SOL    HW1 1763   3.007   0.599   0.814  1.3988 -0.4615 -0.0014
  588SOL    HW2 1764   0.059   0.623   0.888 -0.5872 -0.4259 -0.4150
  589SOL     OW 1765   1.037   0.461   0.375 -0.3173  0.5183 -0.5632
  589SOL    HW1 1766   0.966   0.531   0.346 -1.2765 -1.2786 -1.5057
  589SOL    HW2 1767   1.059   0.490   0.470 -0.6816  3.8354  0.8646
  590SOL     OW 1768   2.020   2.180   0.452 -0.0817 -0.0285  0.1555
  590SOL    HW1 1769   1.929   2.140   0.427 -0.8218  1.1549 -2.1302
  590SOL    HW2 1770   2.065   2.122   0.520 -0.2767 -0.0130 -3.1895
  591SOL     OW 1771   0.383   2.269   1.129 -0.3769 -0.0149  0.4099
  591SOL    HW1 1772   0.358   2.364   1.111  0.4523 -0.0229  2.1284
  591SOL    HW2 1773   0.483   2.257   1.098 -0.2316  0.0069 -0.1419
  592SOL     OW 1774   1.359   0.637   1.093  0.0404  0.5369 -0.3202
  592SOL    HW1 1775   1.308   0.569   1.148  1.2221  2.2937  0.7683
  592SOL    HW2 1776   1.331   0.633   0.994  0.1274 -2.1554 -1.1918
  593SOL     OW 1777   0.813   1.862   1.395  0.3301 -0.2104  0.1534
  593SOL    HW1 1778   0.839   1.782   1.455 -0.5771 -0.8798  0.0627
  593SOL    HW2 1779   0.894   1.892   1.347 -1.8815 -1.6028  1.0359
  594SOL     OW 1780   1.012   2.118   0.351  0.1404  0.0357 -0.1096
  594SOL    HW1 1781   1.074   2.047   0.316 -0.7515  1.3059 -0.4202
  594SOL    HW2 1782   0.915   2.082   0.339  0.7048  2.0283 -1.2988
  595SOL     OW 1783   1.704   0.859   1.442  0.4544 -0.6481  0.0134
  595SOL    HW1 1784   1.735   0.816   1.529 -0.0631  0.5084  1.0469
  595SOL    HW2 1785   1.609   0.828   1.425 -1.6898  3.1394  1.4167
  596SOL     OW 1786   2.922   0.832   1.642  0.1455  0.5896 -0.3460
  596SOL    HW1 1787   2.923   0.872   1.733 -0.3005 -0.8263 -1.4221
  596SOL    HW2 1788   2.975   0.891   1.581 -0.1129 -0.5566 -1.1547
  597SOL     OW 1789   0.886   2.619   2.479 -0.0871 -0.7470 -0.4645
  597SOL    HW1 1790   0.881   2.519   2.496  0.6082 -0.8033 -0.2548
  597SOL    HW2 1791   0.983   2.649   2.500  0.4980 -0.8546 -0.5061
  598SOL     OW 1792   2.397   1.438   1.904 -0.3867  0.4284 -0.3976
  598SOL    HW1 1793   2.380   1.537   1.902  1.6943 -1.7408 -2.2086
  598SOL    HW2 1794   2.470   1.414   1.842 -2.8217  1.0080  0.0461
  599SOL     OW 1795   0.787   2.852   0.107  0.5029  0.1872 -0.3898
  599SOL    HW1 1796   0.731   2.888   0.031  0.3418  1.0312  0.4369
  599SOL    HW2 1797   0.878   2.900   0.110  0.5816  1.0592  1.4890
  600SOL     OW 1798   0.012   2.136   3.034 -0.3180  0.4396 -0.2961
  600SOL    HW1 1799   3.065   2.042   3.020  0.0709 -0.0630  1.1954
  600SOL    HW2 1800   0.018   2.181   2.941  1.7851  0.6410 -0.9707
  601SOL     OW 1801   0.564   0.821   1.223 -0.2376  0.8144 -0.1040
  601SOL    HW1 1802   0.489   0.806   1.155  0.8465 -1.4241 -2.1869
  601SOL    HW2 1803   0.528   0.859   1.310 -2.7884 -1.0269  1.8282
  602SOL     OW 1804   0.495   0.230   0.728 -0.2304  0.5121  0.1100
  602SOL    HW1 1805   0.594   0.231   0.760  3.5757 -0.3540  0.1452
  602SOL    HW2 1806   0.473   0.310   0.666  1.4123  0.5109 -1.8867
  603SOL     OW 1807   0.339   0.186   2.575  0.3053  0.4106 -0.0269
  603SOL    HW1 1808   0.271   0.189   2.652 -1.4208 -0.5850 -0.1486
  603SOL    HW2 1809   0.431   0.154   2.606  0.9397 -0.3636  0.9328
  604SOL     OW 1810   0.881   2.936   1.477 -0.1054  0.1592  0.7137
  604SOL    HW1 1811   0.846   2.952   1.568 -0.5598 -0.2483  1.2218
  604SOL    HW2 1812   0.865   2.838   1.445  1.6248 -0.6755  0.3175
  605SOL     OW 1813   1.463   1.107   2.227  0.1305 -0.2634  0.0148
  605SOL    HW1 1814   1.372   1.081   2.260  1.3205 -1.2686 -1.2169
  605SOL    HW2 1815   1.475   1.110   2.125  1.7614 -2.5386  3.1570
  606SOL     OW 1816   2.135   2.759   2.897  0.0047 -0.2119  0.8349
  606SOL    HW1 1817   2.086   2.808   2.821  0.6909  1.1633  0.8598
  606SOL    HW2 1818   2.230   2.757   2.870 -1.9015  2.9219 -0.6983
  607SOL     OW 1819   0.883   0.260   1.377 -0.7180  0.3559  0.2078
  607SOL    HW1 1820   0.952   0.252   1.453  0.0375  0.6090  4.4530
  607SOL    HW2 1821   0.838   0.176   1.350  2.5547  1.3802  3.9047
  608SOL     OW 1822   0.080   1.769   2.445 -0.8808 -0.1103 -0.2981
  608SOL    HW1 1823   0.138   1.816   2.375  3.0421  0.1701 -4.3292
  608SOL    HW2 1824   0.139   1.692   2.484  1.7207  2.4380  0.9175
  609SOL     OW 1825   1.063   1.368   0.323 -0.2257 -0.4501 -0.1883
  609SOL    HW1 1826   1.158   1.382   0.290 -0.5178  0.9873  0.2847
  609SOL    HW2 1827   0.989   1.390   0.261 -1.5629 -1.5534  0.7891
  610SOL     OW 1828   0.274   0.270   0.864  0.0875  0.4430 -0.3321
  610SOL    HW1 1829   0.364   0.256   0.811 -1.2374  1.0092 -2.6741
  610SOL    HW2 1830   0.268   0.213   0.943  0.6504  3.3762 -0.8908
  611SOL     OW 1831   1.218   1.198   0.572  0.3836  0.1391 -0.1072
  611SOL    HW1 1832   1.188   1.293   0.558  0.4641 -1.0333  1.1052
  611SOL    HW2 1833   1.285   1.171   0.498 -0.8197 -0.0007 -1.9120
  612SOL     OW 1834   1.989   1.486   0.185 -0.0292 -0.2954  0.1743
  612SOL    HW1 1835   1.975   1.577   0.229  0.9367 -2.4608 -2.2913
  612SOL    HW2 1836   1.907   1.431   0.202  0.7011  1.2506 -0.2520
  613SOL     OW 1837   1.788   0.954   0.239  0.9125 -0.3488  0.2901
  613SOL    HW1 1838   1.787   0.956   0.341 -1.9599  1.7580  1.7613
  613SOL    HW2 1839   1.698   0.927   0.197 -0.5648 -1.8413 -1.2478
  614SOL     OW 1840   2.839   0.223   2.494  0.6028  0.2481 -0.8262
  614SOL    HW1 1841   2.930   0.250   2.456 -1.9307  1.5403  1.7624
  614SOL    HW2 1842   2.784   0.164   2.428  0.7291 -0.6041 -1.8361
  615SOL     OW 1843   0.779   2.090   0.659 -0.2274 -0.2587  0.0314
  615SOL    HW1 1844   0.775   2.080   0.559  1.2251  1.2316 -2.4503
  615SOL    HW2 1845   0.685   2.100   0.696 -1.3069 -1.0291 -1.8982
  616SOL     OW 1846   1.670   0.937   2.685  0.3932  0.3614 -0.4221
  616SOL    HW1 1847   1.762   0.980   2.662  0.7404  1.5073 -0.5188
  616SOL    HW2 1848   1.630   0.891   2.607  0.7002  1.2454  1.6622
  617SOL     OW 1849   1.363   0.314   0.116 -0.6016 -0.4464  0.0146
  617SOL    HW1 1850   1.399   0.381   0.186 -1.0030 -0.5893 -1.3674
  617SOL    HW2 1851   1.301   0.238   0.157  1.3794 -0.8674  0.1261
  618SOL     OW 1852   2.685   1.723   2.501  0.0406  0.0298 -0.2888
  618SOL    HW1 1853   2.648   1.807   2.448  1.1459  2.2182 -1.0210
  618SOL    HW2 1854   2.701   1.747   2.601 -1.9477  1.1156  1.1742
  619SOL     OW 1855   2.291   1.972   1.049 -0.1272  0.0204  0.6524
  619SOL    HW1 1856   2.345   2.002   1.132  1.3127  1.6267  3.0126
  619SOL    HW2 1857   2.353   1.967   0.965  0.1022 -0.8837 -2.3676
  620SOL     OW 1858   2.378   2.931   1.652  0.1599  0.1696 -0.1665
  620SOL    HW1 1859   2.308   2.883   1.594 -1.0682  1.2474  1.8639
  620SOL    HW2 1860   2.359   2.918   1.751 -1.5892  0.3145 -2.9470
  621SOL     OW 1861   3.012   1.965   0.902  0.0374  0.1192 -0.0999
  621SOL    HW1 1862   3.041   1.885   0.961  0.7119 -0.7625 -1.4572
  621SOL    HW2 1863   3.085   2.034   0.880  1.1129  1.4983 -0.9203
  622SOL     OW 1864   0.737   1.840   2.520  0.5170 -0.1163 -0.5730
  622SOL    HW1 1865   0.649   1.822   2.564  2.5532 -0.4956 -2.1490
  622SOL    HW2 1866   0.803   1.856   2.600  1.7562  1.2179  1.3284
  623SOL     OW 1867   2.818   2.729   2.820  0.2625 -0.1119  0.2145
  623SOL    HW1 1868   2.889   2.720   2.753 -2.2366  0.4443  1.3398
  623SOL    HW2 1869   2.795   2.644   2.860 -0.8446  3.7542 -6.4611
  624SOL     OW 1870   0.761   1.989   0.411 -0.1417  0.0958 -0.1348
  624SOL    HW1 1871   0.774   1.891   0.386 -1.2573 -1.7661 -2.7889
  624SOL    HW2 1872   0.697   2.028   0.343  2.7169  0.9417  1.8123
  625SOL     OW 1873   0.531   2.000   2.213 -0.2600 -0.0971  0.1533
  625SOL    HW1 1874   0.602   1.924   2.217  1.0679  0.2379  1.6594
  625SOL    HW2 1875   0.507   2.026   2.117  0.8761 -0.5479 -1.4150
  626SOL     OW 1876   0.527   2.664   0.181 -0.0132 -0.1129  0.1203
  626SOL    HW1 1877   0.518   2.565   0.150  0.4614  0.1219 -0.4457
  626SOL    HW2 1878   0.453   2.693   0.249 -1.3886 -0.6593  3.9571
  627SOL     OW 1879   1.143   1.378   3.012 -0.1998 -0.2438 -0.7114
  627SOL    HW1 1880   1.181   1.403   2.921  0.3226 -0.5212 -0.0441
  627SOL    HW2 1881   1.094   1.291   3.008 -2.4982  1.0532 -2.0197
  628SOL     OW 1882   1.618   2.220   0.796 -0.3311 -0.2060  0.2361
  628SOL    HW1 1883   1.539   2.191   0.856  2.1236 -0.8259 -2.7597
  628SOL    HW2 1884   1.701   2.163   0.810  0.4607 -0.5262 -1.3792
  629SOL     OW 1885   0.625   0.365   1.460  0.2667 -0.7888  0.6463
  629SOL    HW1 1886   0.589   0.296   1.524  0.3471  1.2550 -0.3096
  629SOL    HW2 1887   0.718   0.340   1.438 -1.4928 -0.1577  1.5801
  630SOL     OW 1888   2.590   0.169   1.468  0.2017 -0.0521 -0.9067
  630SOL    HW1 1889   2.498   0.140   1.442 -0.0328 -0.4715  2.9859
  630SOL    HW2 1890   2.625   0.253   1.418  1.7554  2.3667 -2.4499
  631SOL     OW 1891   1.372   0.238   1.034 -0.0601 -0.3202 -0.3644
  631SOL    HW1 1892   1.426   0.305   0.986 -3.0673 -1.9001  0.3764
  631SOL    HW2 1893   1.299   0.288   1.090 -3.0364  0.1810  0.3517
  632SOL     OW 1894   2.697   0.805   1.848  0.1056  0.2811 -0.0345
  632SOL    HW1 1895   2.792   0.837   1.867  0.5125 -0.4861  0.5046
  632SOL    HW2 1896   2.696   0.700   1.841  0.7853 -1.7981 -0.9713
  633SOL     OW 1897   1.355   1.144   2.914 -0.0175 -0.0675 -0.2706
  633SOL    HW1 1898   1.456   1.159   2.928  1.2969 -1.5288 -0.8129
  633SOL    HW2 1899   1.326   1.199   2.836 -1.1031 -1.1893  0.6613
  634SOL     OW 1900   0.537   2.403   0.015  0.7327  0.0277 -0.4846
  634SOL    HW1 1901   0.629   2.383   0.058 -1.5116 -1.7600  1.0756
  634SOL    HW2 1902   0.512   2.329   3.053 -0.5950 -1.1142  0.9787
  635SOL     OW 1903   2.849   1.545   2.059  0.8942  0.3562 -0.4713
  635SOL    HW1 1904   2.749   1.568   2.057 -2.4727 -2.0006 -2.2739
  635SOL    HW2 1905   2.879   1.555   2.156  1.2837 -1.3745 -1.0293
  636SOL     OW 1906   3.084   1.763   0.191 -0.1198  0.2148 -0.1861
  636SOL    HW1 1907   0.003   1.686   0.124 -0.5741  1.6218  0.3168
  636SOL    HW2 1908   0.073   1.808   0.213  1.7475 -0.9860  0.1410
  637SOL     OW 1909   2.809   2.444   0.599  0.2383  0.6364 -0.2154
  637SOL    HW1 1910   2.838   2.391   0.678  2.0730  1.0591  1.2092
  637SOL    HW2 1911   2.823   2.542   0.614 -1.6242  0.4580 -0.4438
  638SOL     OW 1912   2.681   2.676   0.120  0.2335  0.1327  0.0661
  638SOL    HW1 1913   2.702   2.583   0.158 -0.0551 -2.4652 -0.9483
  638SOL    HW2 1914   2.608   2.669   0.051  1.6945 -1.5206  3.8193
  639SOL     OW 1915   1.305   0.481   3.018  0.9195 -0.5530 -0.2312
  639SOL    HW1 1916   1.221   0.544   3.008  0.0831  3.1333  0.4056
  639SOL    HW2 1917   1.303   0.420   3.096  0.9042  1.8739 -1.6035
  640SOL     OW 1918   2.415   1.992   1.696  0.0241  0.3641  0.3534
  640SOL    HW1 1919   2.438   1.978   1.793 -0.9356 -0.0106 -1.2505
  640SOL    HW2 1920   2.332   2.050   1.681  0.9281  1.0259 -0.1765
  641SOL     OW 1921   2.879   0.022   1.176  0.1359 -0.6477 -0.1608
  641SOL    HW1 1922   2.836   3.031   1.159  1.3456 -1.8505  0.4641
  641SOL    HW2 1923   2.978   0.026   1.143  3.3293 -0.0883  0.2191
  642SOL     OW 1924   1.610   1.123   1.367  0.0722  0.2402  0.7395
  642SOL    HW1 1925   1.644   1.029   1.381 -0.3388 -0.9492  0.2505
  642SOL    HW2 1926   1.547   1.144   1.446  0.4347 -0.5453 -2.2321
  643SOL     OW 1927   0.969   1.679   2.100 -0.1861 -0.1232  0.1979
  643SOL    HW1 1928   1.001   1.668   2.194 -2.4194 -0.7338 -1.9190
  643SOL    HW2 1929   0.993   1.601   2.046 -1.0544  2.2708  3.3699
  644SOL     OW 1930   1.873   0.191   1.938  0.6019  0.2395  0.5223
  644SOL    HW1 1931   1.804   0.131   1.989  1.4822 -1.1637  3.1521
  644SOL    HW2 1932   1.826   0.278   1.908 -1.8672  2.0075  0.7526
  645SOL     OW 1933   1.601   1.368   1.654 -0.1764 -0.0027 -0.0697
  645SOL    HW1 1934   1.554   1.280   1.620 -0.9362 -2.9299 -1.0047
  645SOL    HW2 1935   1.691   1.347   1.701 -2.1452 -1.7783  1.3319
  646SOL     OW 1936   1.182   2.473   0.081  0.2442 -0.2083 -0.3396
  646SOL    HW1 1937   1.140   2.464   3.088 -0.4998  0.5985 -0.5135
  646SOL    HW2 1938   1.285   2.446   0.079  0.4601 -0.4468 -0.6960
  647SOL     OW 1939   1.424   2.327   1.051 -0.1178 -0.3641  0.5532
  647SOL    HW1 1940   1.408   2.418   1.002  3.2026 -0.7376 -2.6342
  647SOL    HW2 1941   1.398   2.237   1.004  2.1872 -1.4516  1.5175
  648SOL     OW 1942   3.023   2.276   1.601  0.0293  0.3586 -0.0373
  648SOL    HW1 1943   3.021   2.209   1.677  1.6847  1.0869 -0.2890
  648SOL    HW2 1944   0.017   2.295   1.571 -0.3874  0.1203  0.2885
  649SOL     OW 1945   1.128   2.409   2.462 -0.4129  0.2162  0.3222
  649SOL    HW1 1946   1.209   2.360   2.501 -0.5235  1.4273  0.6444
  649SOL    HW2 1947   1.040   2.373   2.496 -0.2376  1.6809 -0.8413
  650SOL     OW 1948   2.947   1.922   3.003  0.1055  0.2358 -0.5828
  650SOL    HW1 1949   2.896   1.904   3.089  0.7968  0.3413 -1.8043
  650SOL    HW2 1950   3.001   1.841   2.976 -0.7776  0.0206  2.2275
  651SOL     OW 1951   2.342   2.358   2.088  0.2735 -0.4222 -0.3844
  651SOL    HW1 1952   2.260   2.299   2.108  0.4314 -0.9429  3.1457
  651SOL    HW2 1953   2.386   2.328   2.002 -3.2077  1.7137  1.8101
  652SOL     OW 1954   2.121   2.811   0.835 -0.1593 -0.0217  0.3987
  652SOL    HW1 1955   2.204   2.850   0.791 -0.4996  0.2295 -1.7552
  652SOL    HW2 1956   2.046   2.803   0.763 -1.5971 -0.7828 -1.9956
  653SOL     OW 1957   2.968   1.261   1.458  0.1234 -0.0701 -0.3984
  653SOL    HW1 1958   2.882   1.246   1.511 -2.0316  2.4809  1.7716
  653SOL    HW2 1959   2.943   1.271   1.360  0.3018  0.1878 -0.0615
  654SOL     OW 1960   0.932   0.485   2.729  0.4501  0.0458  0.0679
  654SOL    HW1 1961   0.991   0.524   2.653  1.7653  0.1576  1.9100
  654SOL    HW2 1962   0.907   0.555   2.794 -0.8298 -0.3909 -2.3119
  655SOL     OW 1963   1.140   0.953   0.942  0.1453  0.2382 -0.1581
  655SOL    HW1 1964   1.102   0.990   1.030 -2.4750  0.1845  1.4073
  655SOL    HW2 1965   1.227   0.999   0.914 -1.6814  0.5672 -0.0450
  656SOL     OW 1966   0.952   2.590   2.048 -0.0789 -0.5206 -0.6036
  656SOL    HW1 1967   0.876   2.536   2.012  0.3074 -0.6975 -0.1709
  656SOL    HW2 1968   1.020   2.534   2.107 -1.2825 -0.7075  0.1907
  657SOL     OW 1969   2.286   1.238   0.293  0.6764  0.0346  0.0647
  657SOL    HW1 1970   2.229   1.212   0.213  0.8239 -0.1811  0.2356
  657SOL    HW2 1971   2.378   1.261   0.257  0.2574 -3.5949  0.3313
  658SOL     OW 1972   1.475   2.271   1.757 -0.0893  0.2533  0.0493
  658SOL    HW1 1973   1.472   2.358   1.815  0.5637 -0.8125  1.4253
  658SOL    HW2 1974   1.454   2.181   1.805  1.5433 -0.8598 -0.6356
  659SOL     OW 1975   2.857   1.914   0.167 -0.1125 -0.0600 -0.8145
  659SOL    HW1 1976   2.785   1.889   0.238 -2.0370 -1.2716  0.2592
  659SOL    HW2 1977   2.940   1.861   0.176 -3.3648  0.8389  0.9577
  660SOL     OW 1978   0.881   0.094   0.609 -0.0104  0.6827 -0.2686
  660SOL    HW1 1979   0.889   3.090   0.610  0.5867 -1.8051  0.7886
  660SOL    HW2 1980   0.972   0.137   0.613 -3.2308  2.9352 -1.7508
  661SOL     OW 1981   1.844   0.337   0.394  0.0822 -0.0195 -0.7794
  661SOL    HW1 1982   1.767   0.327   0.327  0.1911  2.4519 -0.1561
  661SOL    HW2 1983   1.902   0.413   0.366  0.5387 -1.3323 -2.1833
  662SOL     OW 1984   0.449   0.467   0.583  1.0537  0.2065  0.6642
  662SOL    HW1 1985   0.407   0.478   0.489 -2.0490  1.5768 -2.1775
  662SOL    HW2 1986   0.546   0.496   0.582 -2.8301  2.5080 -1.8083
  663SOL     OW 1987   1.620   2.930   2.237  0.1568 -0.4672 -0.4848
  663SOL    HW1 1988   1.526   2.963   2.224 -1.7398  0.8854 -0.0421
  663SOL    HW2 1989   1.626   2.837   2.205 -1.6285  2.4182 -2.9467
  664SOL     OW 1990   0.804   2.629   1.665  0.3183  0.2772  1.3125
  664SOL    HW1 1991   0.727   2.562   1.650 -1.2890 -1.8097  2.3954
  664SOL    HW2 1992   0.844   2.654   1.576 -0.5943 -0.3689  2.1481
  665SOL     OW 1993   1.216   2.317   1.601  0.5939  0.2932  0.4449
  665SOL    HW1 1994   1.222   2.420   1.590  2.8439  3.1646  1.1850
  665SOL    HW2 1995   1.295   2.279   1.648 -3.3437  2.1499 -0.7521
  666SOL     OW 1996   1.056   3.029   2.582 -0.1001 -0.6279  0.3032
  666SOL    HW1 1997   1.009   2.963   2.644  0.7107  1.1343 -2.5063
  666SOL    HW2 1998   0.990   0.003   2.563 -1.1611  0.0208  0.9391
  667SOL     OW 1999   2.690   0.817   1.497  0.2289  0.0906  0.3494
  667SOL    HW1 2000   2.663   0.911   1.473  3.3123 -2.6427  1.6019
  667SOL    HW2 2001   2.782   0.811   1.548  3.5611 -0.6974 -1.6221
  668SOL     OW 2002   1.668   0.026   1.348 -0.2397  0.2621 -0.5715
  668SOL    HW1 2003   1.623   3.048   1.398 -0.6176  1.7649  2.4777
  668SOL    HW2 2004   1.693   0.103   1.412 -2.0253 -0.5254 -0.7628
  669SOL     OW 2005   2.767   2.494   1.218 -0.6853  0.3190  0.5135
  669SOL    HW1 2006   2.726   2.398   1.214  0.1812 -0.7183  1.2539
  669SOL    HW2 2007   2.712   2.559   1.161  1.9205  1.5690  0.6906
  670SOL     OW 2008   1.257   2.289   2.835 -0.2301  0.7875  0.0058
  670SOL    HW1 2009   1.345   2.299   2.882  0.7336  0.4514  0.4896
  670SOL    HW2 2010   1.276   2.268   2.735  1.2073  1.3739  0.3081
  671SOL     OW 2011   0.540   1.196   0.414 -0.1866 -0.1461 -0.0074
  671SOL    HW1 2012   0.499   1.206   0.324  0.6176 -0.8919  0.1173
  671SOL    HW2 2013   0.476   1.216   0.491  0.3318 -0.6687  0.4159
  672SOL     OW 2014   2.644   1.115   3.089  0.5122 -0.3798 -0.3932
  672SOL    HW1 2015   2.718   1.052   0.017 -1.8349  0.5658 -2.1164
  672SOL    HW2 2016   2.610   1.156   0.076  0.8224  2.1255 -0.3567
  673SOL     OW 2017   0.112   1.799   1.767 -0.1592 -0.1679  0.4120
  673SOL    HW1 2018   0.043   1.725   1.788  0.4749  0.9056  2.5804
  673SOL    HW2 2019   0.202   1.753   1.778 -2.4107  0.3332  2.1840
  674SOL     OW 2020   0.963   2.281   1.729  0.3308  0.2885  0.5355
  674SOL    HW1 2021   0.919   2.189   1.704 -1.2562  0.8611 -0.9047
  674SOL    HW2 2022   1.031   2.307   1.658 -1.0645 -0.0559  0.2632
  675SOL     OW 2023   1.277   1.008   1.348  0.0261  0.6595  0.2113
  675SOL    HW1 2024   1.325   1.055   1.429  1.4898  3.1651  2.0627
  675SOL    HW2 2025   1.193   1.053   1.319  0.1744 -2.6127  1.3651
  676SOL     OW 2026   2.170   0.433   1.025  0.3770 -0.5568  0.3209
  676SOL    HW1 2027   2.089   0.492   1.012 -0.0413 -1.0401  0.0163
  676SOL    HW2 2028   2.221   0.417   0.944 -1.5729  3.5246  0.8500
  677SOL     OW 2029   2.529   0.685   0.092  0.0489  0.8244  0.2934
  677SOL    HW1 2030   2.430   0.714   0.106  0.3506 -0.1168  1.4539
  677SOL    HW2 2031   2.562   0.640   0.176 -1.8759 -0.1007  1.8749
  678SOL     OW 2032   2.374   1.484   1.303  0.8026  0.1685 -0.0273
  678SOL    HW1 2033   2.438   1.489   1.226 -1.4789 -4.1410  0.7401
  678SOL    HW2 2034   2.276   1.498   1.272 -1.7041 -0.1735  1.8892
  679SOL     OW 2035   2.488   0.673   2.811  0.6433 -0.8018  0.0822
  679SOL    HW1 2036   2.499   0.701   2.714 -1.1693  2.1335  2.6989
  679SOL    HW2 2037   2.484   0.754   2.872 -2.4493 -0.8344  1.3462
  680SOL     OW 2038   0.582   1.101   2.187 -0.4596  0.0747  0.3518
  680SOL    HW1 2039   0.578   1.000   2.208  1.3953 -2.6774 -0.2680
  680SOL    HW2 2040   0.553   1.152   2.269 -0.8072 -1.4115 -2.2126
  681SOL     OW 2041   2.728   1.914   1.760 -0.4486 -0.0773 -0.0551
  681SOL    HW1 2042   2.783   1.898   1.845  0.4431 -3.4195  3.1862
  681SOL    HW2 2043   2.788   1.924   1.675  2.7433 -2.1813 -2.9662
  682SOL     OW 2044   0.287   1.851   2.975  0.3017 -0.1798 -0.2744
  682SOL    HW1 2045   0.288   1.926   2.906 -0.5757  1.6375 -0.1255
  682SOL    HW2 2046   0.354   1.774   2.945  0.6871 -2.7369  0.3826
  683SOL     OW 2047   2.659   2.221   0.939 -0.3827  1.0694  0.5591
  683SOL    HW1 2048   2.668   2.120   0.918  1.4756 -0.5232  0.4168
  683SOL    HW2 2049   2.647   2.244   1.038 -0.1968 -0.7057 -0.5584
  684SOL     OW 2050   2.502   0.867   2.040  0.3521  0.2219  0.4327
  684SOL    HW1 2051   2.583   0.861   1.975  1.1585  2.1794  0.1166
  684SOL    HW2 2052   2.538   0.869   2.135 -0.4823  0.2501  2.3213
  685SOL     OW 2053   1.098   0.681   0.946 -0.2151  0.7607  0.0278
  685SOL    HW1 2054   1.169   0.613   0.918 -0.2403 -1.3909 -1.4759
  685SOL    HW2 2055   1.136   0.778   0.937  3.1350  1.5393 -1.2564
  686SOL     OW 2056   0.586   0.188   0.033  0.3173  0.5283  0.0891
  686SOL    HW1 2057   0.531   0.106   0.062 -1.0236  1.1529 -1.0217
  686SOL    HW2 2058   0.590   0.259   0.111 -0.7399  0.2732  2.8428
  687SOL     OW 2059   0.327   2.309   2.504  0.0356  0.4126  0.6289
  687SOL    HW1 2060   0.246   2.282   2.449  3.6717 -1.0355 -1.2660
  687SOL    HW2 2061   0.380   2.221   2.502  2.6986 -1.1251  0.4080
  688SOL     OW 2062   2.129   0.398   1.402  0.1579 -0.2578 -0.2816
  688SOL    HW1 2063   2.150   0.494   1.400  1.0507 -1.9048 -1.2945
  688SOL    HW2 2064   2.206   0.352   1.359  0.2751  1.9410  0.5582
  689SOL     OW 2065   1.811   0.978   0.840 -0.6488  0.1015  0.0666
  689SOL    HW1 2066   1.713   0.991   0.850  2.1674 -0.9089 -2.3073
  689SOL    HW2 2067   1.863   1.016   0.919  1.1835  0.5322  0.0723
  690SOL     OW 2068   3.077   1.002   1.503 -0.4643 -0.4596  0.2944
  690SOL    HW1 2069   3.029   1.089   1.471 -0.8842  0.7814  1.8960
  690SOL    HW2 2070   0.075   0.992   1.491 -0.1774 -2.0798 -0.6508
  691SOL     OW 2071   0.001   1.109   1.968  0.2843 -0.5023 -0.0749
  691SOL    HW1 2072   0.086   1.126   1.921 -1.0191 -1.0276  0.0659
  691SOL    HW2 2073   3.035   1.185   1.949  0.4778  0.7835  1.2653
  692SOL     OW 2074   0.980   0.674   1.913 -0.0439  0.1950 -0.8134
  692SOL    HW1 2075   1.003   0.579   1.937  1.5926  2.1467 -1.4277
  692SOL    HW2 2076   0.973   0.685   1.812  2.3747  0.5099  2.7580
  693SOL     OW 2077   0.522   1.251   2.390  0.0593  0.2368 -0.1293
  693SOL    HW1 2078   0.545   1.348   2.364  2.3154 -0.1693  1.9994
  693SOL    HW2 2079   0.474   1.238   2.483 -2.2348 -2.6419  3.4696
  694SOL     OW 2080   1.553   1.552   0.482 -0.4492 -0.3698 -0.2966
  694SOL    HW1 2081   1.580   1.470   0.532  2.5501  1.7472  0.0027
  694SOL    HW2 2082   1.574   1.632   0.538 -1.0209 -0.0687 -0.9847
  695SOL     OW 2083   0.587   1.248   1.300 -0.2893 -0.1326 -0.1910
  695SOL    HW1 2084   0.587   1.303   1.215 -0.7841  1.4442 -1.3403
  695SOL    HW2 2085   0.490   1.222   1.330  1.6460 -0.0116 -0.7175
  696SOL     OW 2086   0.364   2.750   0.377 -0.6208 -0.7100  0.3791
  696SOL    HW1 2087   0.328   2.657   0.396  1.1607  2.6600 -0.2809
  696SOL    HW2 2088   0.449   2.767   0.429  0.5250 -2.4130 -1.4712
  697SOL     OW 2089   1.588   0.524   1.293  0.2898  0.2583  0.0329
  697SOL    HW1 2090   1.681   0.514   1.335 -1.5659  0.1321  1.2249
  697SOL    HW2 2091   1.584   0.484   1.200 -0.7935  0.5135  0.5116
  698SOL     OW 2092   1.479   1.626   1.611  0.2064 -0.6178 -0.0864
  698SOL    HW1 2093   1.496   1.693   1.683 -2.6176  1.4677 -0.1912
  698SOL    HW2 2094   1.535   1.539   1.628 -0.7183  0.3154 -1.6423
  699SOL     OW 2095   3.066   0.355   2.423  0.7879 -0.8599 -0.3181
  699SOL    HW1 2096   3.069   0.439   2.367 -2.8348 -2.6705  0.3904
  699SOL    HW2 2097   0.011   0.275   2.374 -0.1453 -0.9720 -1.8731
  700SOL     OW 2098   1.526   2.779   0.926 -0.4222  0.3155 -0.1555
  700SOL    HW1 2099   1.489   2.873   0.946 -1.6687  2.3715  0.2772
  700SOL    HW2 2100   1.606   2.781   0.866 -0.1319 -1.5420  1.9164
  701SOL     OW 2101   0.223   1.461   2.690 -0.0848  0.2093 -0.2265
  701SOL    HW1 2102   0.139   1.507   2.736 -1.6621 -1.8103  0.1065
  701SOL    HW2 2103   0.296   1.436   2.760  3.1672  1.4619  0.0701
  702SOL     OW 2104   0.465   0.303   2.908 -0.3200 -0.4480  0.9036
  702SOL    HW1 2105   0.366   0.320   2.931  0.9858  1.8118  0.3401
  702SOL    HW2 2106   0.510   0.264   2.992  3.2960  0.6195 -0.3175
  703SOL     OW 2107   1.802   2.978   2.441  0.4133 -0.5559 -0.0623
  703SOL    HW1 2108   1.773   3.040   2.515 -0.4052  1.9664 -0.0055
  703SOL    HW2 2109   1.744   2.991   2.362 -2.7999  0.0192  2.5015
  704SOL     OW 2110   2.754   1.817   0.443  0.9707  0.0852  0.6500
  704SOL    HW1 2111   2.681   1.882   0.453  1.4434 -2.5365 -1.2041
  704SOL    HW2 2112   2.842   1.862   0.457 -1.4996 -0.9499  0.1709
  705SOL     OW 2113   2.702   1.894   2.163 -0.3894  0.3783 -0.1877
  705SOL    HW1 2114   2.679   1.804   2.122  3.6634  1.1812  1.2232
  705SOL    HW2 2115   2.655   1.916   2.250  1.5818 -0.8993 -2.9428
  706SOL     OW 2116   2.867   2.693   0.947  0.1024 -0.1684 -0.2457
  706SOL    HW1 2117   2.919   2.666   1.028 -1.1454 -1.8776 -2.7838
  706SOL    HW2 2118   2.926   2.713   0.864 -1.8905 -0.4551 -2.2604
  707SOL     OW 2119   0.899   2.788   0.372  0.5972  0.0718 -0.4816
  707SOL    HW1 2120   0.994   2.815   0.383 -1.0591  1.7240 -2.4354
  707SOL    HW2 2121   0.876   2.788   0.274  0.2465 -0.5674  2.4018
  708SOL     OW 2122   0.579   2.151   1.508  0.3672  0.0168  0.2620
  708SOL    HW1 2123   0.509   2.111   1.448 -0.6493  0.2614  2.9425
  708SOL    HW2 2124   0.670   2.162   1.465  0.6222  0.0322 -0.0234
  709SOL     OW 2125   1.677   0.076   2.106  0.0579 -0.4453 -0.0727
  709SOL    HW1 2126   1.665   0.149   2.175 -0.4421 -0.4915 -2.3094
  709SOL    HW2 2127   1.698   3.086   2.145 -0.4681 -0.7282 -3.8934
  710SOL     OW 2128   1.494   2.779   2.431  0.5304  0.0500  0.0460
  710SOL    HW1 2129   1.517   2.695   2.379  0.0623 -0.2624  1.5388
  710SOL    HW2 2130   1.540   2.861   2.394 -1.8141 -0.0509 -1.3144
  711SOL     OW 2131   1.088   2.472   2.923  0.2659  0.1122  0.6647
  711SOL    HW1 2132   0.991   2.445   2.897  0.0653 -1.7766  1.1162
  711SOL    HW2 2133   1.159   2.405   2.893 -0.0908 -1.4762 -0.2008
  712SOL     OW 2134   1.055   2.133   2.820  0.2364 -0.6876  0.4454
  712SOL    HW1 2135   1.127   2.209   2.828 -0.1531  2.7181  1.5002
  712SOL    HW2 2136   1.049   2.088   2.725 -1.9099  0.8187 -0.9617
  713SOL     OW 2137   1.404   1.147   1.552  0.0391  0.3159 -0.0721
  713SOL    HW1 2138   1.337   1.225   1.565 -0.3380 -1.9760 -1.5695
  713SOL    HW2 2139   1.374   1.066   1.607 -0.6699  0.5136  0.4870
  714SOL     OW 2140   1.359   1.537   1.043 -0.0143  0.0346 -0.2369
  714SOL    HW1 2141   1.408   1.521   1.133  2.2625  0.8683  2.5480
  714SOL    HW2 2142   1.298   1.617   1.056 -0.4196  0.2160 -0.3040
  715SOL     OW 2143   2.546   3.092   0.693  0.1655  0.0786  0.3504
  715SOL    HW1 2144   2.578   3.005   0.734 -1.3807  0.5042 -2.4453
  715SOL    HW2 2145   2.577   0.068   0.748 -4.1074 -0.7406 -1.7707
  716SOL     OW 2146   0.478   2.906   0.657  0.3178  0.1313 -0.3872
  716SOL    HW1 2147   0.541   2.849   0.602  2.3564  0.9974  2.1501
  716SOL    HW2 2148   0.535   2.937   0.741  2.0398 -0.6258  3.6274
  717SOL     OW 2149   3.100   0.433   0.044  0.4511 -0.6007 -0.0118
  717SOL    HW1 2150   3.040   0.399   3.074  1.3300 -1.0466  2.7393
  717SOL    HW2 2151   3.076   0.382   0.127  1.4559  1.1980  1.1888
  718SOL     OW 2152   1.636   1.738   1.225  0.1213  0.1239  0.3050
  718SOL    HW1 2153   1.669   1.778   1.312  0.8737  3.1545 -2.0093
  718SOL    HW2 2154   1.572   1.661   1.237  0.4426  0.1331  2.4518
  719SOL     OW 2155   2.697   2.451   0.280 -0.3194  0.1822 -0.0453
  719SOL    HW1 2156   2.674   2.352   0.271 -0.7969 -1.7346 -0.9102
  719SOL    HW2 2157   2.714   2.473   0.378  1.4307 -1.7736 -0.3006
  720SOL     OW 2158   1.021   0.974   0.688 -0.2165  0.0257 -0.2595
  720SOL    HW1 2159   1.070   0.962   0.778  3.6932  4.3297  1.1105
  720SOL    HW2 2160   1.056   1.060   0.641  3.0278  0.2936 -0.3513
  721SOL     OW 2161   1.615   0.108   1.104 -0.3499 -0.6411  0.4469
  721SOL    HW1 2162   1.533   0.169   1.093 -0.1897  0.6299 -3.9355
  721SOL    HW2 2163   1.616   0.064   1.194  0.5953 -0.7339 -0.8434
  722SOL     OW 2164   1.127   1.297   1.993 -0.3143 -0.5544 -0.0734
  722SOL    HW1 2165   1.208   1.301   1.928  1.1957  0.1160  1.0881
  722SOL    HW2 2166   1.049   1.353   1.960  2.0999 -0.7488  2.5684
  723SOL     OW 2167   0.909   0.084   1.698 -0.1371  0.3106  0.0645
  723SOL    HW1 2168   0.975   0.154   1.665  1.1335  1.0233 -0.9142
  723SOL    HW2 2169   0.951   3.096   1.728 -2.7135  2.4778  0.7555
  724SOL     OW 2170   2.030   2.091   1.926 -0.1933  0.8870  0.0211
  724SOL    HW1 2171   1.954   2.106   1.859  1.4157 -0.7276 -1.1576
  724SOL    HW2 2172   2.053   1.993   1.940 -0.9884 -0.8206  2.7955
  725SOL     OW 2173   1.138   2.635   1.321 -0.4484  0.1796 -0.3317
  725SOL    HW1 2174   1.174   2.678   1.234  0.4713  0.0615 -0.4351
  725SOL    HW2 2175   1.153   2.695   1.404 -0.9300 -2.1207 -0.1208
  726SOL     OW 2176   1.687   2.766   3.054 -0.2516 -0.2342  0.1432
  726SOL    HW1 2177   1.679   2.822   2.967  1.1230 -1.5252  0.3152
  726SOL    HW2 2178   1.780   2.740   3.071 -0.0383 -0.1512 -2.5950
  727SOL     OW 2179   1.328   1.857   0.782 -0.4694 -0.1998 -0.0277
  727SOL    HW1 2180   1.250   1.799   0.794  0.0150  0.8846 -0.8657
  727SOL    HW2 2181   1.408   1.818   0.736  0.4313  0.2344  0.1406
  728SOL     OW 2182   2.003   2.834   2.286  0.1060  0.5051  0.3772
  728SOL    HW1 2183   1.942   2.877   2.353 -0.5441 -0.7467  0.4684
  728SOL    HW2 2184   2.101   2.845   2.314 -0.4222 -3.2569  3.8781
  729SOL     OW 2185   2.425   1.834   1.485  0.2060  0.0490 -0.1845
  729SOL    HW1 2186   2.434   1.896   1.568  1.1251 -2.8758 -1.3077
  729SOL    HW2 2187   2.330   1.803   1.475 -1.0579  0.1890  0.3137
  730SOL     OW 2188   1.951   0.552   2.407 -0.9500 -0.5067 -0.0302
  730SOL    HW1 2189   1.903   0.465   2.426 -1.2438  0.7566  0.8824
  730SOL    HW2 2190   1.955   0.611   2.490  0.9290  1.3743  0.8561
  731SOL     OW 2191   0.519   0.135   1.229 -0.8424  0.0000 -0.4721
  731SOL    HW1 2192   0.447   0.125   1.304 -0.5149  1.5917  2.5337
  731SOL    HW2 2193   0.524   0.230   1.201  0.4889 -1.8206  1.7670
  732SOL     OW 2194   1.805   3.036   0.922 -0.6010 -0.0616  0.0759
  732SOL    HW1 2195   1.725   3.083   0.963 -1.0313 -2.6237 -0.0699
  732SOL    HW2 2196   1.848   2.982   0.994 -1.3496  1.8190  2.4501
  733SOL     OW 2197   0.939   1.449   1.324  0.1393 -0.0578  0.0002
  733SOL    HW1 2198   0.883   1.475   1.241  0.6332 -0.2427 -2.4579
  733SOL    HW2 2199   0.945   1.525   1.386 -1.0777 -0.9099 -2.9769
  734SOL     OW 2200   2.354   1.834   0.300 -0.0862 -0.1624 -0.3739
  734SOL    HW1 2201   2.285   1.762   0.282  0.6433  1.2726  0.5820
  734SOL    HW2 2202   2.431   1.836   0.230  0.4545  0.6591 -0.7340
  735SOL     OW 2203   0.433   0.809   0.383  0.1009  0.6190  0.2798
  735SOL    HW1 2204   0.449   0.724   0.328  2.7860  2.5939 -1.0204
  735SOL    HW2 2205   0.475   0.797   0.475  2.9679 -1.4774  0.0855
  736SOL     OW 2206   1.966   2.421   2.549 -0.4190 -0.5675 -0.3142
  736SOL    HW1 2207   2.056   2.385   2.507  0.3946 -3.2484  1.1203
  736SOL    HW2 2208   1.991   2.459   2.640 -0.6003 -2.9700 -0.8204
  737SOL     OW 2209   1.002   1.999   1.234 -0.5526  0.2635  0.0840
  737SOL    HW1 2210   1.030   2.033   1.142 -0.4343 -2.2372  1.2879
  737SOL    HW2 2211   1.027   2.069   1.303 -0.9072 -2.6308 -3.4433
  738SOL     OW 2212   1.876   2.662   2.136  0.3415  0.1957  0.0092
  738SOL    HW1 2213   1.780   2.691   2.134  0.1832 -0.6826  0.0675
  738SOL    HW2 2214   1.938   2.733   2.182  1.1766  0.8236  2.4973
  739SOL     OW 2215   1.303   2.047   2.174  0.6047  0.2315  0.3665
  739SOL    HW1 2216   1.363   2.124   2.199 -0.4183  0.6042 -0.6920
  739SOL    HW2 2217   1.332   1.964   2.220 -2.4496  2.6545  0.7679
  740SOL     OW 2218   2.111   2.351   1.856  0.2635 -0.0166 -0.2577
  740SOL    HW1 2219   2.098   2.300   1.945 -0.0691 -0.5264  2.3275
  740SOL    HW2 2220   2.017   2.373   1.815 -3.0514  2.2560 -2.4696
  741SOL     OW 2221   2.227   1.830   2.982 -0.2772 -0.5909  0.2013
  741SOL    HW1 2222   2.155   1.757   2.976  1.1773 -1.6156  0.2228
  741SOL    HW2 2223   2.314   1.810   2.932  2.0813 -1.4373 -1.3087
  742SOL     OW 2224   0.562   1.072   2.973 -0.4869  0.5336  0.0477
  742SOL    HW1 2225   0.479   1.122   2.948  1.6927 -1.0242  1.2187
  742SOL    HW2 2226   0.603   1.029   2.884  0.8415 -0.0161  0.9297
  743SOL     OW 2227   1.936   0.890   2.850  0.6146  0.1551 -0.4872
  743SOL    HW1 2228   2.031   0.861   2.869  2.0343 -1.1165 -0.7478
  743SOL    HW2 2229   1.896   0.948   2.923 -1.8748  1.7964  0.6694
  744SOL     OW 2230   2.045   3.002   1.330  0.1968  0.1469 -0.0462
  744SOL    HW1 2231   2.116   2.952   1.386  1.7176  0.9217 -2.7215
  744SOL    HW2 2232   2.050   0.002   1.351  3.6547 -1.2461 -0.6359
  745SOL     OW 2233   2.565   1.441   1.107 -0.1184 -0.6094 -0.2427
  745SOL    HW1 2234   2.604   1.370   1.166 -0.0668  1.9694 -2.2556
  745SOL    HW2 2235   2.579   1.414   1.006  0.9881 -1.7453 -1.9445
  746SOL     OW 2236   2.727   1.921   0.887 -0.0052 -0.1759 -0.2624
  746SOL    HW1 2237   2.701   1.834   0.933 -1.5457  0.1349 -0.3590
  746SOL    HW2 2238   2.824   1.954   0.900 -0.5098 -0.8732 -1.0382
  747SOL     OW 2239   2.043   2.905   0.209 -0.0748  0.4772  0.2882
  747SOL    HW1 2240   2.144   2.880   0.198  3.6798  0.7348 -2.1877
  747SOL    HW2 2241   2.032   2.953   0.298  0.2519  0.6767 -0.7880
  748SOL     OW 2242   0.860   2.147   2.993 -0.3050 -0.1164 -0.0700
  748SOL    HW1 2243   0.943   2.137   2.928  1.2374  1.9982 -0.4621
  748SOL    HW2 2244   0.779   2.129   2.932 -0.4119  0.9090  2.4084
  749SOL     OW 2245   2.789   0.439   2.310  0.1191 -0.1019  0.5313
  749SOL    HW1 2246   2.791   0.363   2.378 -0.6582 -1.0843  0.3070
  749SOL    HW2 2247   2.870   0.500   2.307  1.0645  0.2961 -1.5100
  750SOL     OW 2248   1.172   0.453   1.710 -0.1230 -0.1262  0.2418
  750SOL    HW1 2249   1.218   0.467   1.799  0.2769 -1.3828  0.1602
  750SOL    HW2 2250   1.175   0.532   1.649 -1.2627 -0.8522 -0.8524
  751SOL     OW 2251   2.382   2.373   1.818  0.3253  0.1583 -0.0682
  751SOL    HW1 2252   2.282   2.378   1.831  0.3218  3.3741  1.4036
  751SOL    HW2 2253   2.425   2.468   1.798  2.1763  0.6996 -2.2490
  752SOL     OW 2254   1.848   1.502   1.258 -0.2021 -0.3223  0.4253
  752SOL    HW1 2255   1.810   1.598   1.247 -1.8453 -2.9036  0.5337
  752SOL    HW2 2256   1.784   1.432   1.217 -1.2310 -1.0365 -2.0549
  753SOL     OW 2257   1.640   0.832   2.409  0.3760  0.2479 -0.6352
  753SOL    HW1 2258   1.668   0.924   2.438  1.9281  0.7313  0.9529
  753SOL    HW2 2259   1.546   0.839   2.375  1.4085  0.1308 -1.3770
  754SOL     OW 2260   0.100   2.341   1.008  0.0098 -0.6602 -0.3031
  754SOL    HW1 2261   0.173   2.414   1.012 -3.4702  2.9518  0.0777
  754SOL    HW2 2262   0.038   2.349   1.087  0.0959  0.6038 -1.3294
  755SOL     OW 2263   2.598   2.780   1.395  0.2813 -0.3358 -0.6165
  755SOL    HW1 2264   2.619   2.876   1.421  0.8342 -1.4897  0.8809
  755SOL    HW2 2265   2.671   2.721   1.433  2.2794 -0.0753 -0.6931
  756SOL     OW 2266   1.717   1.358   2.499  0.3410 -0.0554 -0.1385
  756SOL    HW1 2267   1.743   1.344   2.600 -1.2317  1.5476  2.7517
  756SOL    HW2 2268   1.645   1.434   2.493 -0.0474  2.0316  0.4991
  757SOL     OW 2269   2.877   2.931   1.815  0.1592 -0.3757  0.3162
  757SOL    HW1 2270   2.888   2.905   1.914 -1.2280 -2.5069  2.6231
  757SOL    HW2 2271   2.835   3.021   1.804  2.3767  0.1670 -1.2399
  758SOL     OW 2272   0.404   2.839   1.502 -0.1804 -0.1408  0.1468
  758SOL    HW1 2273   0.436   2.827   1.405 -0.0505 -1.0093 -2.9522
  758SOL    HW2 2274   0.385   2.749   1.546 -0.6872  0.5478  0.3062
  759SOL     OW 2275   2.264   1.232   1.060 -0.0420  0.2509  0.2487
  759SOL    HW1 2276   2.258   1.165   1.139  1.8474 -1.0650 -0.6732
  759SOL    HW2 2277   2.357   1.276   1.061  2.0813  2.2823  2.5357
  760SOL     OW 2278   1.727   0.233   1.514  0.6204  0.0062 -0.7399
  760SOL    HW1 2279   1.802   0.191   1.571  0.1009  1.7581  1.3835
  760SOL    HW2 2280   1.760   0.304   1.450 -0.3188 -0.6931 -2.0310
  761SOL     OW 2281   2.116   0.415   0.572  0.6112  0.3302 -0.7473
  761SOL    HW1 2282   2.123   0.337   0.507 -1.5627 -1.1507 -1.7618
  761SOL    HW2 2283   2.144   0.502   0.527 -2.7888  0.7435  0.8539
  762SOL     OW 2284   2.292   2.734   0.199  0.3127  0.1845  0.4134
  762SOL    HW1 2285   2.365   2.721   0.271  0.4635  1.2401  2.2678
  762SOL    HW2 2286   2.224   2.655   0.201  0.9310  0.3879  0.6359
  763SOL     OW 2287   1.093   0.722   1.312  0.8161 -0.0464  0.4332
  763SOL    HW1 2288   1.062   0.634   1.264 -0.5410 -0.2991 -2.2950
  763SOL    HW2 2289   1.046   0.802   1.264  1.8726  2.3016 -1.7024
  764SOL     OW 2290   2.432   2.549   2.632 -0.0594 -0.1247 -0.6038
  764SOL    HW1 2291   2.523   2.504   2.604 -2.2489  0.2996 -0.6456
  764SOL    HW2 2292   2.362   2.481   2.672 -0.6585 -0.2397 -1.5128
  765SOL     OW 2293   0.068   1.041   2.659  0.4843 -0.2397 -0.2179
  765SOL    HW1 2294   0.035   0.941   2.654  2.9912 -2.1547 -0.0855
  765SOL    HW2 2295   0.157   1.042   2.708  0.7132  3.1469  0.1284
  766SOL     OW 2296   2.818   1.368   2.677  0.1187 -0.0434  0.0774
  766SOL    HW1 2297   2.740   1.395   2.613 -1.2430 -0.9751 -1.3036
  766SOL    HW2 2298   2.907   1.395   2.633  0.6034  0.0209  0.0516
  767SOL     OW 2299   0.163   2.093   1.735 -1.3863 -0.1898  0.7511
  767SOL    HW1 2300   0.096   2.023   1.752  2.4817  4.4311 -0.6360
  767SOL    HW2 2301   0.166   2.170   1.802  1.1204  2.7201  0.2754
  768SOL     OW 2302   1.093   0.831   2.712  0.2517 -0.3611  0.3666
  768SOL    HW1 2303   0.994   0.797   2.696 -1.4483 -2.7919 -0.3260
  768SOL    HW2 2304   1.101   0.866   2.807 -0.6681 -0.5896 -0.8528
  769SOL     OW 2305   1.662   2.877   2.815  0.4949 -0.7057  0.2614
  769SOL    HW1 2306   1.740   2.892   2.747  3.0377  3.4215  0.3420
  769SOL    HW2 2307   1.581   2.831   2.765  0.1168 -2.7809 -0.5150
  770SOL     OW 2308   0.896   0.143   2.483 -0.0609 -0.5806  0.0533
  770SOL    HW1 2309   0.830   0.108   2.414 -0.9118  0.1310  1.6786
  770SOL    HW2 2310   0.855   0.221   2.528  1.7738 -1.0932 -2.5087
  771SOL     OW 2311   0.719   2.521   0.958  0.8895 -0.3657  0.1531
  771SOL    HW1 2312   0.632   2.568   0.992 -1.9204  3.1730  0.8239
  771SOL    HW2 2313   0.796   2.568   1.005 -0.5564 -1.4005  2.2005
  772SOL     OW 2314   2.912   1.044   0.395 -0.1409 -0.4464  0.4931
  772SOL    HW1 2315   2.936   1.024   0.491 -3.7177 -0.9842  0.9858
  772SOL    HW2 2316   2.820   0.996   0.377  1.5773 -1.1884 -1.7672
  773SOL     OW 2317   1.690   0.961   1.850  0.3614  0.5007 -0.2265
  773SOL    HW1 2318   1.755   0.926   1.918  1.8401  0.3979 -1.4206
  773SOL    HW2 2319   1.725   0.963   1.755  3.9868  1.4852  0.7490
  774SOL     OW 2320   0.574   0.789   0.621 -0.1653  0.2635 -0.6021
  774SOL    HW1 2321   0.637   0.858   0.667 -1.5682 -0.0274 -0.2775
  774SOL    HW2 2322   0.615   0.697   0.626 -1.8736  1.0929  0.0354
  775SOL     OW 2323   1.812   0.077   0.100 -0.4095 -0.4686  0.0534
  775SOL    HW1 2324   1.759   3.095   0.128 -0.3809  0.5059  1.4814
  775SOL    HW2 2325   1.769   0.159   0.143  2.9115  2.4206  1.6362
  776SOL     OW 2326   2.398   0.340   2.416  0.0267  0.3263 -0.3154
  776SOL    HW1 2327   2.336   0.381   2.486 -1.8598 -1.8621 -1.2899
  776SOL    HW2 2328   2.351   0.269   2.361  1.2978 -0.9144  0.0156
  777SOL     OW 2329   0.943   1.550   3.093 -0.1770 -0.3786  0.1562
  777SOL    HW1 2330   1.032   1.504   3.065  0.1036  1.7482 -2.1557
  777SOL    HW2 2331   0.892   1.480   0.041  2.8412  0.4574  1.6596
  778SOL     OW 2332   0.061   2.587   0.243  0.5990 -0.0756 -0.4225
  778SOL    HW1 2333   0.150   2.536   0.243 -0.3809 -1.6635 -0.2312
  778SOL    HW2 2334   0.076   2.681   0.204 -0.8824 -0.0206  1.2058
  779SOL     OW 2335   0.402   1.240   0.198 -0.3837 -0.0549 -0.1736
  779SOL    HW1 2336   0.322   1.305   0.213  0.3918 -0.9922  0.8288
  779SOL    HW2 2337   0.372   1.160   0.148  0.4237  0.5802  1.3031
  780SOL     OW 2338   2.097   0.266   2.081 -0.0377  0.3787  0.2031
  780SOL    HW1 2339   2.194   0.269   2.051  0.0834 -1.1760 -0.2614
  780SOL    HW2 2340   2.034   0.223   2.007 -2.6486 -0.7516  0.8984
  781SOL     OW 2341   1.803   1.051   1.618  0.1668  0.1564  0.4580
  781SOL    HW1 2342   1.787   0.983   1.547  1.0243  2.8641 -1.9436
  781SOL    HW2 2343   1.849   1.135   1.583 -0.9883  0.7437  3.2403
  782SOL     OW 2344   1.855   1.924   2.160  0.5049 -0.0735  0.1008
  782SOL    HW1 2345   1.884   2.003   2.221  1.1150  0.9678  0.7256
  782SOL    HW2 2346   1.902   1.837   2.184  0.3075  0.5804 -0.2123
  783SOL     OW 2347   1.446   0.194   1.872 -0.0010  0.0091 -0.1400
  783SOL    HW1 2348   1.375   0.125   1.868  0.8866  2.6297 -0.2243
  783SOL    HW2 2349   1.531   0.146   1.869 -4.5172  0.1733 -1.8692
  784SOL     OW 2350   1.932   1.023   2.614 -0.3754  0.1128  0.1002
  784SOL    HW1 2351   1.970   0.970   2.694  0.7530  0.6412  0.1686
  784SOL    HW2 2352   1.957   0.978   2.530 -2.6384  2.8525  0.7848
  785SOL     OW 2353   1.863   0.623   0.416  0.1009  0.1211  0.2352
  785SOL    HW1 2354   1.837   0.614   0.320  0.2587  0.7725  2.1282
  785SOL    HW2 2355   1.920   0.701   0.437 -0.8550 -2.0170 -2.0495
  786SOL     OW 2356   3.051   1.819   0.668  0.4000 -0.0604 -0.0315
  786SOL    HW1 2357   3.030   1.876   0.748 -2.1468 -1.7164 -1.1392
  786SOL    HW2 2358   3.031   1.723   0.682 -1.9637  0.6704 -1.9037
  787SOL     OW 2359   1.613   2.328   0.434 -0.6044 -0.1172 -0.1249
  787SOL    HW1 2360   1.512   2.330   0.416 -3.0065 -0.9553 -0.1022
  787SOL    HW2 2361   1.637   2.364   0.526  0.7449  2.6123  0.5691
  788SOL     OW 2362   2.053   1.702   1.681 -0.0784  0.1632 -0.0167
  788SOL    HW1 2363   2.091   1.731   1.587  0.0733  1.4626 -0.8600
  788SOL    HW2 2364   1.963   1.649   1.669 -1.3968  1.8935  1.7995
  789SOL     OW 2365   3.059   1.415   2.514  0.0486 -0.0960  0.4992
  789SOL    HW1 2366   0.043   1.434   2.565 -3.6749 -1.1237  2.3382
  789SOL    HW2 2367   3.063   1.314   2.480  1.4198 -3.4828  1.3797
  790SOL     OW 2368   0.498   3.020   2.701  0.3166 -0.3645 -0.0162
  790SOL    HW1 2369   0.537   0.019   2.707  0.1141  2.4215 -0.2084
  790SOL    HW2 2370   0.405   3.013   2.748 -4.2582  1.3190  1.6914
  791SOL     OW 2371   0.967   2.908   2.814 -0.1379  0.2501  0.1167
  791SOL    HW1 2372   0.869   2.888   2.806 -1.6859  1.1664  0.6145
  791SOL    HW2 2373   0.995   2.967   2.893  1.2324  2.0189 -2.1663
  792SOL     OW 2374   1.739   0.437   1.898 -1.1516 -0.7014  0.6880
  792SOL    HW1 2375   1.680   0.438   1.981  1.7293  0.1177  0.5097
  792SOL    HW2 2376   1.700   0.499   1.825 -0.1890 -1.8458 -0.3094
  793SOL     OW 2377   2.639   0.141   2.094  0.1380 -0.2291  0.1700
  793SOL    HW1 2378   2.711   0.143   2.022 -2.1207  0.6217  2.2953
  793SOL    HW2 2379   2.608   0.238   2.105  2.5910 -0.3813 -0.9385
  794SOL     OW 2380   0.628   0.660   1.851 -0.1888 -0.6153 -0.3912
  794SOL    HW1 2381   0.665   0.649   1.947  0.7111 -1.1157  1.6922
  794SOL    HW2 2382   0.556   0.732   1.840  1.1239 -1.5450 -0.7341
  795SOL     OW 2383   2.997   1.564   0.388 -0.4345  0.5445  0.0167
  795SOL    HW1 2384   2.946   1.501   0.332  1.8555 -1.2222 -0.9571
  795SOL    HW2 2385   3.029   1.640   0.331 -1.3244 -0.0784 -1.9429
  796SOL     OW 2386   2.771   2.448   2.933  0.1437 -0.4566  0.2139
  796SOL    HW1 2387   2.833   2.433   3.013 -0.0459 -2.6687  0.1861
  796SOL    HW2 2388   2.687   2.390   2.940  1.3322 -0.3326 -1.7272
  797SOL     OW 2389   2.316   2.337   0.418  0.3047 -0.5984 -0.0677
  797SOL    HW1 2390   2.221   2.308   0.409  2.8325 -0.6111  0.5324
  797SOL    HW2 2391   2.376   2.250   0.417  1.5261  0.2384 -2.6019
  798SOL     OW 2392   0.430   0.967   1.444 -0.1865 -0.0767  0.4336
  798SOL    HW1 2393   0.367   0.929   1.515 -0.0854 -1.9379  0.5602
  798SOL    HW2 2394   0.388   1.050   1.397 -0.6139 -2.0119  1.9680
  799SOL     OW 2395   3.001   0.623   2.309 -0.1843  0.2257 -0.3264
  799SOL    HW1 2396   2.944   0.687   2.363  2.1231 -4.5647 -2.3419
  799SOL    HW2 2397   3.040   0.669   2.227  1.0406  0.0380 -0.1661
  800SOL     OW 2398   2.752   2.162   0.462 -0.0054 -0.4191  0.1529
  800SOL    HW1 2399   2.836   2.105   0.467  0.3452 -0.7211 -0.5030
  800SOL    HW2 2400   2.775   2.247   0.510  0.8135 -1.1082 -0.4867
  801SOL     OW 2401   1.348   1.087   0.766  0.0862 -0.5432 -0.3883
  801SOL    HW1 2402   1.288   1.126   0.688 -3.0278 -0.1463 -3.1624
  801SOL    HW2 2403   1.341   1.143   0.855  1.5935  0.5556  3.1897
  802SOL     OW 2404   1.335   1.820   1.107 -0.0610  0.1552 -0.7509
  802SOL    HW1 2405   1.427   1.853   1.126 -1.5045 -2.6609  1.4372
  802SOL    HW2 2406   1.301   1.844   1.013 -0.6696  3.2200 -2.1344
  803SOL     OW 2407   2.982   1.976   0.448  0.6390  0.2493  0.4024
  803SOL    HW1 2408   3.030   1.926   0.520 -0.0412  1.1879 -0.5068
  803SOL    HW2 2409   3.047   2.032   0.394  0.1000  1.2929  1.4230
  804SOL     OW 2410   1.368   2.561   0.930 -0.1190 -0.6699  0.0088
  804SOL    HW1 2411   1.303   2.536   0.855  3.8827 -2.7173  0.0646
  804SOL    HW2 2412   1.428   2.642   0.907  1.8546  0.1658  0.2755
  805SOL     OW 2413   1.530   1.655   2.847 -0.0461  0.2737 -0.3483
  805SOL    HW1 2414   1.581   1.664   2.933  0.2518 -0.8730 -1.7975
  805SOL    HW2 2415   1.522   1.559   2.810 -0.1661 -4.0770  3.2549
  806SOL     OW 2416   1.554   2.922   1.461 -0.0398  0.2265 -0.0968
  806SOL    HW1 2417   1.485   2.903   1.539  0.8851 -0.2274  0.5215
  806SOL    HW2 2418   1.522   2.887   1.367  0.5252 -2.8715 -2.0825
  807SOL     OW 2419   1.965   2.882   2.695 -0.1856 -0.0839 -0.2725
  807SOL    HW1 2420   1.944   2.882   2.595  1.3311 -0.7454 -0.0468
  807SOL    HW2 2421   2.001   2.971   2.733  2.8571 -0.0932 -0.6992
  808SOL     OW 2422   0.186   1.399   0.249 -0.0602 -0.6894 -0.5058
  808SOL    HW1 2423   0.092   1.360   0.264 -0.0353  2.5320  0.4196
  808SOL    HW2 2424   0.225   1.438   0.337  0.3353  0.1050  0.7020
  809SOL     OW 2425   2.313   0.951   2.251 -0.0558 -0.8876 -0.0503
  809SOL    HW1 2426   2.283   0.919   2.159 -0.6512  1.5440  3.7083
  809SOL    HW2 2427   2.346   1.046   2.255  2.1846 -2.0391  1.8419
  810SOL     OW 2428   2.902   0.059   2.213 -0.8396  0.4659  0.1217
  810SOL    HW1 2429   2.996   0.095   2.225  0.2980 -0.8520 -0.4738
  810SOL    HW2 2430   2.826   0.109   2.169 -0.2765  0.0668  0.5435
  811SOL     OW 2431   2.206   2.180   1.654  0.9084  0.5068  0.0846
  811SOL    HW1 2432   2.162   2.232   1.729  0.7817  0.6745  1.1957
  811SOL    HW2 2433   2.272   2.241   1.609 -3.6214 -1.2092  1.9086
  812SOL     OW 2434   1.597   0.452   3.086 -0.2005 -0.1871 -0.4385
  812SOL    HW1 2435   1.500   0.451   3.098  4.2782  0.1329 -0.2863
  812SOL    HW2 2436   1.643   0.533   0.024 -1.1144 -2.3039  0.0985
  813SOL     OW 2437   2.001   0.638   1.831 -0.3754  0.0560  0.2927
  813SOL    HW1 2438   1.960   0.570   1.888  3.0296  0.5117  0.4445
  813SOL    HW2 2439   2.095   0.615   1.801 -1.4085 -1.5467 -3.5845
  814SOL     OW 2440   1.947   1.303   1.503 -0.2575 -0.3118  0.4106
  814SOL    HW1 2441   2.026   1.312   1.561 -1.8881  1.2743 -0.9141
  814SOL    HW2 2442   1.936   1.369   1.425 -0.5876 -1.7204  0.2533
  815SOL     OW 2443   0.780   1.004   0.370 -0.2195  0.2982 -0.1083
  815SOL    HW1 2444   0.695   1.056   0.389 -0.7915  1.5053  1.3312
  815SOL    HW2 2445   0.772   0.959   0.280 -3.1650 -0.7240  0.4994
  816SOL     OW 2446   1.515   1.878   2.676 -0.0658  0.7157  0.7319
  816SOL    HW1 2447   1.532   1.790   2.725  1.0794  2.6059 -2.4290
  816SOL    HW2 2448   1.595   1.919   2.636  0.4084 -0.6723 -0.8942
  817SOL     OW 2449   0.118   2.784   0.938 -0.4902 -0.1472  0.1344
  817SOL    HW1 2450   0.075   2.832   0.861  1.3961 -0.8812 -2.7749
  817SOL    HW2 2451   0.220   2.798   0.946  1.2354  1.0540  0.1091
  818SOL     OW 2452   1.386   0.180   2.971  0.3332 -0.4754 -0.2866
  818SOL    HW1 2453   1.306   0.190   2.913  0.7603 -1.1456  1.9853
  818SOL    HW2 2454   1.368   0.213   3.071  0.3473  0.1170  2.8128
  819SOL     OW 2455   0.720   0.950   0.766 -0.3833  0.7525  0.0932
  819SOL    HW1 2456   0.786   1.020   0.737  1.0642 -0.4511  0.7301
  819SOL    HW2 2457   0.719   0.951   0.871  1.1255  0.0759  0.6977
  820SOL     OW 2458   2.236   0.770   1.176  0.0147  0.0474  0.1351
  820SOL    HW1 2459   2.160   0.735   1.117  3.0170  2.5527  3.7404
  820SOL    HW2 2460   2.219   0.726   1.266 -0.6240  0.1297 -1.3964
  821SOL     OW 2461   2.465   0.141   0.455 -0.7972 -0.3037  0.1425
  821SOL    HW1 2462   2.486   0.091   0.541  0.8629 -0.0634  1.9945
  821SOL    HW2 2463   2.371   0.175   0.455  1.3110  0.6276 -0.9670
  822SOL     OW 2464   0.732   2.778   2.324  0.2335  0.1560 -0.1979
  822SOL    HW1 2465   0.685   2.845   2.383 -0.5573 -1.8720 -0.7983
  822SOL    HW2 2466   0.805   2.726   2.374 -1.2214 -2.1232  1.1793
  823SOL     OW 2467   2.949   1.617   1.826 -0.4298  0.4042  0.6053
  823SOL    HW1 2468   2.904   1.582   1.909  0.7905 -2.3023 -1.6848
  823SOL    HW2 2469   2.896   1.579   1.746  1.6879 -0.0029  1.5113
  824SOL     OW 2470   0.821   2.845   2.086 -0.2504 -0.1501  0.3608
  824SOL    HW1 2471   0.785   2.839   2.179 -0.7928  1.2414 -1.2645
  824SOL    HW2 2472   0.878   2.764   2.069  0.3413  0.1820 -1.4632
  825SOL     OW 2473   1.182   1.931   0.203  0.4973 -0.5417 -0.1381
  825SOL    HW1 2474   1.202   1.924   0.103  0.4057  2.0168 -0.5581
  825SOL    HW2 2475   1.263   1.923   0.261 -0.5386  0.5889 -2.6143
  826SOL     OW 2476   1.152   2.685   2.788  0.3194  0.5580 -0.1467
  826SOL    HW1 2477   1.086   2.760   2.800 -1.3507  2.2611 -0.5645
  826SOL    HW2 2478   1.124   2.608   2.854  0.6001 -1.9289  1.8794
  827SOL     OW 2479   0.317   1.647   1.904 -0.4110 -0.2073 -0.1897
  827SOL    HW1 2480   0.365   1.674   1.991  0.7063  0.8367  1.4249
  827SOL    HW2 2481   0.242   1.586   1.923 -1.3456  2.3438  0.3668
  828SOL     OW 2482   3.058   1.808   1.110  0.3787 -0.0433  0.4031
  828SOL    HW1 2483   0.029   1.810   1.182 -2.2714 -1.4606  2.1216
  828SOL    HW2 2484   2.976   1.866   1.121  0.3074 -2.0276 -0.8582
  829SOL     OW 2485   2.965   2.445   0.068  0.7558 -0.0940 -0.2525
  829SOL    HW1 2486   3.038   2.472   0.137  0.1620  0.3000 -1.0562
  829SOL    HW2 2487   2.926   2.357   0.104 -1.8120 -0.5123  0.9562
  830SOL     OW 2488   1.106   0.499   0.640 -0.0987 -0.4679  0.0474
  830SOL    HW1 2489   1.195   0.515   0.687 -0.2246  2.5393  0.0344
  830SOL    HW2 2490   1.036   0.567   0.667 -2.1368  1.6526  1.8667
  831SOL     OW 2491   2.903   2.182   0.110 -0.3628  0.3546  0.2208
  831SOL    HW1 2492   2.881   2.095   0.164  3.0222 -0.6280  0.9960
  831SOL    HW2 2493   2.990   2.162   0.063 -2.5807 -1.6233  1.4304
  832SOL     OW 2494   1.356   2.353   0.396 -0.0945 -0.0281 -0.2767
  832SOL    HW1 2495   1.291   2.284   0.434 -0.2435 -0.5671  0.4294
  832SOL    HW2 2496   1.365   2.440   0.450  0.1207  2.3576  2.6645
  833SOL     OW 2497   0.646   0.630   2.516  0.0072 -0.1451  0.7159
  833SOL    HW1 2498   0.735   0.635   2.467 -0.0541  0.2104 -1.4611
  833SOL    HW2 2499   0.574   0.687   2.476  2.6947 -0.6014 -1.3420
  834SOL     OW 2500   2.686   0.828   0.661 -0.6786 -0.3081 -0.7641
  834SOL    HW1 2501   2.680   0.724   0.663 -0.5439 -3.0441 -1.3002
  834SOL    HW2 2502   2.616   0.863   0.730  2.3008 -3.7401 -0.8397
  835SOL     OW 2503   2.397   0.567   2.150 -0.0901 -0.4929 -0.4236
  835SOL    HW1 2504   2.393   0.661   2.101 -1.2239  0.1321  0.2057
  835SOL    HW2 2505   2.304   0.544   2.188 -0.0276  0.3288 -2.4688
  836SOL     OW 2506   0.524   2.187   0.805  0.0486  0.5573 -0.4428
  836SOL    HW1 2507   0.462   2.257   0.763  0.6673  0.3237  1.8306
  836SOL    HW2 2508   0.561   2.220   0.896 -0.4640  1.4501 -2.0286
  837SOL     OW 2509   2.379   1.628   2.225  0.2178 -0.0421 -0.3808
  837SOL    HW1 2510   2.333   1.702   2.280  1.5783  2.0235 -0.3082
  837SOL    HW2 2511   2.337   1.615   2.134  1.4839  0.2884  0.5913
  838SOL     OW 2512   0.075   1.037   2.245  0.4151  0.4432 -0.0764
  838SOL    HW1 2513   0.113   0.942   2.268 -0.5320 -0.1851 -1.1304
  838SOL    HW2 2514   0.014   1.040   2.163  0.8363 -0.5764  3.0752
  839SOL     OW 2515   0.215   3.057   0.053 -0.2126  0.3947 -0.0553
  839SOL    HW1 2516   0.230   3.076   3.051  0.5067 -0.3557 -1.9243
  839SOL    HW2 2517   0.309   3.054   0.097 -0.1773  0.4140 -0.7912
  840SOL     OW 2518   2.865   0.797   2.466 -0.1266 -0.4558  0.1735
  840SOL    HW1 2519   2.807   0.813   2.551 -1.2851 -0.1060  0.7265
  840SOL    HW2 2520   2.813   0.836   2.388 -0.6522  3.2018 -1.4426
  841SOL     OW 2521   0.486   2.096   2.476  0.2803 -0.7690 -0.1065
  841SOL    HW1 2522   0.498   2.029   2.548  1.9039 -1.2344 -0.3858
  841SOL    HW2 2523   0.517   2.052   2.389  0.3424 -1.0700  0.5018
  842SOL     OW 2524   0.823   0.162   1.081 -0.4935  0.3127  0.3173
  842SOL    HW1 2525   0.777   0.106   1.149  1.4115  2.6517 -1.2375
  842SOL    HW2 2526   0.799   0.259   1.089 -0.2298  1.3803  0.8164
  843SOL     OW 2527   0.325   1.634   2.510  0.1360 -0.6152  0.2699
  843SOL    HW1 2528   0.400   1.586   2.457  0.4575 -2.5700 -2.5945
  843SOL    HW2 2529   0.286   1.571   2.577  2.6131 -0.7627 -0.1606
  844SOL     OW 2530   1.382   1.823   2.298  0.1624 -0.2913 -0.0911
  844SOL    HW1 2531   1.359   1.754   2.226  1.6708  0.1904 -1.2418
  844SOL    HW2 2532   1.483   1.840   2.298 -0.1154  2.1306  2.2292
  845SOL     OW 2533   2.395   2.734   2.829  0.4066 -0.2910 -0.4888
  845SOL    HW1 2534   2.444   2.820   2.806  0.4424  0.5065  0.5644
  845SOL    HW2 2535   2.413   2.665   2.756  0.8637 -1.2536 -0.8655
  846SOL     OW 2536   2.068   1.600   3.052 -0.1616 -0.1565  0.1406
  846SOL    HW1 2537   2.004   1.671   3.024  0.6506 -3.6009  1.0912
  846SOL    HW2 2538   2.038   1.556   0.038 -1.2646  1.7282  2.0630
  847SOL     OW 2539   2.446   0.240   2.778  0.0078 -0.3813  0.0055
  847SOL    HW1 2540   2.546   0.261   2.762 -1.0324 -1.3346 -1.9880
  847SOL    HW2 2541   2.412   0.306   2.847  0.5010  3.9296 -0.2745
  848SOL     OW 2542   2.773   0.623   0.010  0.1929 -0.4791  0.1451
  848SOL    HW1 2543   2.678   0.624   0.034  2.9282  0.9020 -0.6498
  848SOL    HW2 2544   2.784   0.616   3.011  0.6219 -0.1713 -0.0750
  849SOL     OW 2545   1.447   0.134   2.479 -0.6412  0.1168  0.2220
  849SOL    HW1 2546   1.420   0.061   2.549 -2.2476 -1.1856 -0.4791
  849SOL    HW2 2547   1.513   0.200   2.530  2.2764 -0.2963 -0.9935
  850SOL     OW 2548   2.659   0.953   0.414 -0.4010 -0.3515 -0.2604
  850SOL    HW1 2549   2.685   0.883   0.483  2.7263  1.3794  0.0588
  850SOL    HW2 2550   2.653   1.043   0.462  1.4380  3.8744 -0.1420
  851SOL     OW 2551   0.441   1.098   1.018  0.0466  0.6827  0.1154
  851SOL    HW1 2552   0.400   1.010   1.043  1.7039 -0.1654 -0.8970
  851SOL    HW2 2553   0.383   1.169   1.055  3.0565 -1.5488  2.0085
  852SOL     OW 2554   1.172   0.855   1.941  0.2864 -0.4813  0.0613
  852SOL    HW1 2555   1.151   0.930   2.009  0.1027  0.2241 -1.8583
  852SOL    HW2 2556   1.103   0.772   1.938 -5.4940 -2.7417  0.8138
  853SOL     OW 2557   1.650   1.169   2.896 -0.0222  0.1357  0.6290
  853SOL    HW1 2558   1.722   1.218   2.840  1.1979  2.3058 -1.3241
  853SOL    HW2 2559   1.648   1.074   2.862 -0.5908 -0.1513 -1.8670
  854SOL     OW 2560   1.516   1.127   1.954  0.0957 -0.5702 -0.1186
  854SOL    HW1 2561   1.580   1.055   1.920  0.7398 -3.6779  1.6343
  854SOL    HW2 2562   1.466   1.186   1.882  0.5508  3.3958 -1.7351
  855SOL     OW 2563   0.326   2.399   2.093  0.3394  0.6044  0.4139
  855SOL    HW1 2564   0.256   2.374   2.162  1.0203  1.0931 -1.0914
  855SOL    HW2 2565   0.411   2.434   2.141  1.4972 -0.9363  0.4931
  856SOL     OW 2566   1.214   0.997   2.326 -0.9649 -0.0835  0.1905
  856SOL    HW1 2567   1.149   1.015   2.405 -3.8338 -2.2956  1.5939
  856SOL    HW2 2568   1.166   1.011   2.236  0.1048  1.9599  1.4372
  857SOL     OW 2569   1.023   1.031   2.531 -0.1057  0.1075 -0.0458
  857SOL    HW1 2570   0.954   0.997   2.467  1.9438  1.8931 -0.0243
  857SOL    HW2 2571   1.062   0.953   2.586  1.6169  1.4740  1.5790
  858SOL     OW 2572   0.165   0.613   1.795  0.2480  0.0287 -0.3398
  858SOL    HW1 2573   0.074   0.585   1.768 -0.1619  0.9142  2.3674
  858SOL    HW2 2574   0.180   0.593   1.895  0.3453 -1.2033  1.8934
  859SOL     OW 2575   2.545   2.923   0.909 -0.0698 -0.1519  0.2479
  859SOL    HW1 2576   2.560   2.840   0.966  2.3455 -2.4157 -0.0284
  859SOL    HW2 2577   2.551   2.995   0.978 -0.2433 -0.7660  0.7182
  860SOL     OW 2578   1.422   0.520   1.517  0.0274  0.2199 -0.2652
  860SOL    HW1 2579   1.399   0.422   1.518  0.9179  4.2121  0.0380
  860SOL    HW2 2580   1.480   0.542   1.441 -3.2975  2.3575 -0.5399
  861SOL     OW 2581   1.804   0.759   1.180 -0.3090 -0.0241  0.2714
  861SOL    HW1 2582   1.787   0.754   1.277 -2.6604  1.8585 -1.4724
  861SOL    HW2 2583   1.715   0.758   1.132  0.8591  0.7264  2.8485
  862SOL     OW 2584   1.144   2.909   2.348 -0.3969  0.1911  0.0256
  862SOL    HW1 2585   1.156   2.807   2.371 -2.7473  1.5820 -1.0634
  862SOL    HW2 2586   1.097   2.957   2.418  0.8336 -0.9475 -2.7366
  863SOL     OW 2587   2.801   0.171   1.650  0.0067  0.0143  0.2076
  863SOL    HW1 2588   2.716   0.172   1.598  2.3636  0.1832  1.6329
  863SOL    HW2 2589   2.885   0.182   1.595  1.2885  1.2471  1.3075
  864SOL     OW 2590   2.904   2.930   2.106  0.2599 -0.4938  0.6894
  864SOL    HW1 2591   2.829   2.879   2.145  0.6430 -0.0803  1.1036
  864SOL    HW2 2592   2.912   3.028   2.136 -1.3891 -0.8132 -2.1826
  865SOL     OW 2593   0.879   1.186   2.706 -0.2475  0.3309 -0.8895
  865SOL    HW1 2594   0.920   1.138   2.624 -3.2229 -0.9556  0.8685
  865SOL    HW2 2595   0.869   1.286   2.693  0.1330  0.3874 -1.7334
  866SOL     OW 2596   2.761   2.878   1.186  0.9427  0.1457 -0.0897
  866SOL    HW1 2597   2.677   2.845   1.241 -0.6135 -0.8486 -0.9257
  866SOL    HW2 2598   2.820   2.804   1.158 -0.8779  3.2617  3.2345
  867SOL     OW 2599   3.039   2.670   1.133 -0.5666  0.1850  0.1227
  867SOL    HW1 2600   0.002   2.716   1.068 -2.3001 -1.4237  1.2381
  867SOL    HW2 2601   3.085   2.596   1.185 -0.0985  0.9787  1.4125
  868SOL     OW 2602   2.815   1.506   1.593 -0.8508  0.2111  0.3020
  868SOL    HW1 2603   2.877   1.528   1.513 -0.4490  1.3364 -3.5208
  868SOL    HW2 2604   2.722   1.536   1.573  2.4037  1.2094 -2.7440
  869SOL     OW 2605   1.925   2.135   2.314 -0.0232  0.9889  0.1221
  869SOL    HW1 2606   1.877   2.224   2.315  0.5166 -0.0608 -0.8122
  869SOL    HW2 2607   1.956   2.111   2.405 -0.3899 -1.7309  0.3008
  870SOL     OW 2608   1.476   0.823   0.783 -0.4195  0.0837 -0.3850
  870SOL    HW1 2609   1.546   0.805   0.859 -0.0100  1.0661 -1.2750
  870SOL    HW2 2610   1.435   0.918   0.785  0.5846 -1.7335 -0.2812
  871SOL     OW 2611   2.604   1.647   2.061  0.4115  0.3235 -0.6217
  871SOL    HW1 2612   2.523   1.649   2.126 -1.0932  0.2224  2.5108
  871SOL    HW2 2613   2.580   1.673   1.968  0.5732 -0.1583  1.3338
  872SOL     OW 2614   0.922   1.616   2.830  0.3367  0.5542 -0.1792
  872SOL    HW1 2615   0.908   1.709   2.788  1.2981 -1.6651  0.7055
  872SOL    HW2 2616   0.933   1.614   2.931 -3.5461  0.1283 -0.5706
  873SOL     OW 2617   0.884   1.202   1.757 -0.1742 -0.1905 -0.0375
  873SOL    HW1 2618   0.881   1.106   1.786  0.9349  1.5024 -0.0287
  873SOL    HW2 2619   0.900   1.209   1.655  1.5807  0.3849  2.4534
  874SOL     OW 2620   1.461   0.804   1.323 -0.4800  0.2343  0.0160
  874SOL    HW1 2621   1.452   0.712   1.282 -2.7423 -0.6536  1.0242
  874SOL    HW2 2622   1.374   0.857   1.307 -4.9244  0.3633  0.8698
  875SOL     OW 2623   2.599   2.904   2.784 -0.1622  0.0161 -0.0240
  875SOL    HW1 2624   2.610   2.963   2.701 -0.2651 -1.5258  1.3476
  875SOL    HW2 2625   2.676   2.836   2.793 -2.1115 -1.3910 -1.5063
  876SOL     OW 2626   0.880   1.241   0.494  0.2487 -0.1048  0.6657
  876SOL    HW1 2627   0.857   1.170   0.425 -1.1320  2.2017 -0.3886
  876SOL    HW2 2628   0.963   1.288   0.456  0.4115  0.8648  0.5069
  877SOL     OW 2629   2.014   2.984   0.455 -0.2751 -0.0057  0.1454
  877SOL    HW1 2630   1.979   3.074   0.484  0.2931  2.8979 -0.8634
  877SOL    HW2 2631   2.117   2.974   0.459  0.8715  0.6432 -3.0016
  878SOL     OW 2632   2.128   2.257   0.213  0.1411  1.1656  0.5466
  878SOL    HW1 2633   2.170   2.173   0.176  2.5007  1.9907 -0.0738
  878SOL    HW2 2634   2.084   2.232   0.301 -1.6464 -4.5358 -1.7778
  879SOL     OW 2635   0.578   2.428   1.600  0.0596  0.1790  0.0317
  879SOL    HW1 2636   0.495   2.468   1.552  0.5503 -0.7597 -1.6410
  879SOL    HW2 2637   0.576   2.327   1.584 -2.7661  0.4364 -1.5057
  880SOL     OW 2638   0.124   1.609   0.938  0.8933 -0.3434 -0.0132
  880SOL    HW1 2639   0.125   1.705   0.971 -1.0513 -0.0822  3.2372
  880SOL    HW2 2640   0.210   1.565   0.922 -0.2491  1.3331  1.0113
  881SOL     OW 2641   1.373   3.039   2.247 -0.3512 -0.5675  0.4130
  881SOL    HW1 2642   1.294   2.991   2.294 -2.6666  0.1689  1.4227
  881SOL    HW2 2643   1.396   0.028   2.287  1.7514 -0.0960 -0.3164
  882SOL     OW 2644   2.629   1.225   0.479 -0.0522  0.0496 -0.0807
  882SOL    HW1 2645   2.577   1.208   0.567  0.9303  0.2750  1.1388
  882SOL    HW2 2646   2.709   1.289   0.493 -0.6623  0.6681 -2.7016
  883SOL     OW 2647   1.381   0.626   2.127  0.1545  0.3591  0.2134
  883SOL    HW1 2648   1.378   0.674   2.220 -0.8444 -3.5785  1.2107
  883SOL    HW2 2649   1.413   0.684   2.048  2.2122 -0.6804 -2.8768
  884SOL     OW 2650   0.093   0.172   1.750 -0.2439 -0.0881  0.1570
  884SOL    HW1 2651   0.030   0.130   1.679 -1.9207 -1.2208  1.5851
  884SOL    HW2 2652   0.186   0.176   1.724 -2.2844 -0.3791  0.3387
  885SOL     OW 2653   1.851   1.257   2.713  0.1737  0.0478  1.2043
  885SOL    HW1 2654   1.903   1.344   2.714  1.9000  0.9304 -0.4950
  885SOL    HW2 2655   1.897   1.176   2.676 -2.8673  0.0912  0.9194
  886SOL     OW 2656   1.934   0.456   2.823 -0.1907  0.1217  0.0217
  886SOL    HW1 2657   1.985   0.383   2.763  2.9681 -4.5178 -1.5328
  886SOL    HW2 2658   1.850   0.413   2.864 -2.8228  3.9728  3.0427
  887SOL     OW 2659   1.166   2.992   1.445  0.2119  0.1609  0.2091
  887SOL    HW1 2660   1.205   2.984   1.536 -1.1217  1.5652  0.1132
  887SOL    HW2 2661   1.074   3.023   1.449  3.7085 -0.7697 -0.3456
  888SOL     OW 2662   2.118   1.424   1.714  0.1876  0.5892 -0.9549
  888SOL    HW1 2663   2.131   1.524   1.717 -0.0440 -2.6671 -1.7956
  888SOL    HW2 2664   2.208   1.380   1.723 -0.1290  3.4005 -0.4896
  889SOL     OW 2665   1.995   2.420   1.355 -0.5838 -0.4139 -0.5859
  889SOL    HW1 2666   2.079   2.450   1.311  1.2295 -0.1214  1.1961
  889SOL    HW2 2667   2.003   2.321   1.388  0.8462 -2.2570  1.7761
  890SOL     OW 2668   0.927   2.294   1.025 -0.3471  0.0855  0.0719
  890SOL    HW1 2669   0.970   2.222   0.967  0.4867  0.3483  1.1172
  890SOL    HW2 2670   0.988   2.321   1.099  3.5383  2.3384  1.1951
  891SOL     OW 2671   2.899   1.410   0.199 -0.1265  0.3612 -0.3283
  891SOL    HW1 2672   2.860   1.374   0.111  1.2918  0.0073  2.1814
  891SOL    HW2 2673   2.967   1.347   0.246  2.3410  0.3152  1.0102
  892SOL     OW 2674   2.437   1.598   2.713  0.0695  0.0590 -0.1024
  892SOL    HW1 2675   2.491   1.547   2.647  1.0059  1.1748 -0.8239
  892SOL    HW2 2676   2.460   1.568   2.809  2.2032  0.1745 -1.2844
  893SOL     OW 2677   2.359   2.723   1.272  0.3205 -0.3807  0.0490
  893SOL    HW1 2678   2.342   2.791   1.199 -1.3845  0.1698 -0.2678
  893SOL    HW2 2679   2.454   2.723   1.300 -1.6526  3.4586  1.0538
  894SOL     OW 2680   2.887   0.474   0.695  0.4379 -0.1316 -0.5409
  894SOL    HW1 2681   2.788   0.504   0.697 -0.9902 -0.5429 -1.5895
  894SOL    HW2 2682   2.906   0.409   0.618  1.2994 -3.0468 -3.2179
  895SOL     OW 2683   2.648   2.413   2.546  0.4692  0.3284  0.4719
  895SOL    HW1 2684   2.688   2.455   2.467 -0.9328 -1.9067  0.0954
  895SOL    HW2 2685   2.725   2.388   2.607 -0.3875  3.9616 -0.1308
  896SOL     OW 2686   2.245   2.630   2.437 -0.2892  0.0788 -0.0845
  896SOL    HW1 2687   2.299   2.597   2.512  0.3368  3.5495  0.5600
  896SOL    HW2 2688   2.246   2.732   2.436 -1.1867  0.7530 -0.4004
  897SOL     OW 2689   0.353   1.640   2.189 -0.0890  0.1784  0.1561
  897SOL    HW1 2690   0.269   1.576   2.179  0.0804  0.2451 -0.0298
  897SOL    HW2 2691   0.318   1.732   2.225 -0.5898  0.5254  0.7044
  898SOL     OW 2692   0.027   2.073   2.152  0.0325 -0.3751  0.6034
  898SOL    HW1 2693   3.076   2.001   2.204 -1.0736 -0.9310 -0.5482
  898SOL    HW2 2694   3.075   2.093   2.062  0.5340  1.1931 -0.0903
  899SOL     OW 2695   1.823   2.928   1.175 -0.2525  0.9656  0.2510
  899SOL    HW1 2696   1.759   3.005   1.197  1.8098  2.2105 -1.7866
  899SOL    HW2 2697   1.898   2.926   1.243 -3.6959 -2.2958  1.2500
  900SOL     OW 2698   1.430   1.177   0.392 -0.1141 -0.0868  0.4197
  900SOL    HW1 2699   1.519   1.168   0.449 -0.2127 -0.0896  1.4720
  900SOL    HW2 2700   1.422   1.106   0.316 -2.3915 -0.5865 -1.9454
  901SOL     OW 2701   1.113   1.278   2.464 -0.4958  0.6443  0.1314
  901SOL    HW1 2702   1.081   1.186   2.494 -1.6051 -2.3539 -2.4349
  901SOL    HW2 2703   1.060   1.311   2.384 -0.1967 -0.0980 -0.5815
  902SOL     OW 2704   2.912   2.314   0.884 -0.0178 -0.3692  0.3213
  902SOL    HW1 2705   2.935   2.372   0.962 -0.3159  1.3154  0.9249
  902SOL    HW2 2706   2.822   2.273   0.902  1.8874 -3.4803 -0.6516
  903SOL     OW 2707   2.868   1.261   1.955  0.0839  0.4281 -0.3027
  903SOL    HW1 2708   2.860   1.359   1.963 -2.8568 -1.0831 -0.4572
  903SOL    HW2 2709   2.809   1.209   2.020  0.5330  0.2805  2.0245
  904SOL     OW 2710   1.351   1.428   0.310  0.0770 -0.4071 -0.0021
  904SOL    HW1 2711   1.398   1.488   0.373  1.4567  0.1581 -0.7219
  904SOL    HW2 2712   1.386   1.329   0.325 -0.2925 -0.5259 -1.5049
  905SOL     OW 2713   2.461   2.280   1.506 -0.8887  0.1562 -0.4385
  905SOL    HW1 2714   2.471   2.380   1.531  0.2741  4.5731  2.3106
  905SOL    HW2 2715   2.508   2.220   1.573  0.7782 -0.5539 -0.1438
  906SOL     OW 2716   1.831   2.468   3.018  0.2685 -0.4336 -0.1810
  906SOL    HW1 2717   1.870   2.377   3.047  0.2146  0.3916 -0.2412
  906SOL    HW2 2718   1.800   2.525   0.001  1.5959  1.2491  1.3246
  907SOL     OW 2719   0.377   2.702   0.826  0.3073 -0.5922 -0.4193
  907SOL    HW1 2720   0.431   2.622   0.783  0.2271 -1.1060  2.7130
  907SOL    HW2 2721   0.403   2.787   0.777  0.8252 -2.6431  1.6398
  908SOL     OW 2722   0.605   0.360   1.951  0.2681 -0.2396 -0.2530
  908SOL    HW1 2723   0.684   0.291   1.947 -0.2062  0.3375  0.3145
  908SOL    HW2 2724   0.623   0.435   1.887  0.2192  0.7700  2.3833
  909SOL     OW 2725   1.852   0.428   1.349  0.3250  0.1680 -0.3142
  909SOL    HW1 2726   1.948   0.419   1.377 -0.5417 -1.7567 -1.1572
  909SOL    HW2 2727   1.844   0.396   1.253  0.2902 -1.7180  2.0245
  910SOL     OW 2728   0.832   0.635   0.322 -0.4083 -0.3920  0.4314
  910SOL    HW1 2729   0.770   0.665   0.247 -3.4554 -0.9399  1.5583
  910SOL    HW2 2730   0.860   0.718   0.371 -1.2749 -1.8188 -1.3255
  911SOL     OW 2731   0.186   0.279   2.941  0.1952 -0.3255  0.3288
  911SOL    HW1 2732   0.099   0.295   2.999 -2.8450  2.2790  4.2581
  911SOL    HW2 2733   0.161   0.276   2.843  0.0627  0.5802  1.8198
  912SOL     OW 2734   2.874   2.385   2.688  0.8690  0.8835 -0.1245
  912SOL    HW1 2735   2.925   2.463   2.652  1.7596 -2.6632  0.8448
  912SOL    HW2 2736   2.831   2.403   2.778 -1.0199 -0.0229 -2.0501
  913SOL     OW 2737   2.418   2.379   0.060  0.8280  0.2453  0.0448
  913SOL    HW1 2738   2.374   2.380   0.152  3.8710 -1.3966  0.1209
  913SOL    HW2 2739   2.444   2.477   0.039  1.6152  1.8003  0.7982
  914SOL     OW 2740   1.644   1.680   1.861 -0.0780 -0.2491  0.1220
  914SOL    HW1 2741   1.633   1.648   1.958 -1.4792 -2.6727 -1.2056
  914SOL    HW2 2742   1.666   1.778   1.858 -1.3681 -1.8580 -0.9691
  915SOL     OW 2743   0.023   2.549   2.216 -0.1107  0.1752 -0.8354
  915SOL    HW1 2744   0.099   2.582   2.150  2.3617 -0.8446  1.9257
  915SOL    HW2 2745   0.014   2.598   2.303 -1.6881  0.2704  2.2139
  916SOL     OW 2746   2.948   0.881   1.905 -0.0730  1.2522  0.4041
  916SOL    HW1 2747   3.002   0.966   1.915 -1.9541 -0.7260 -2.6988
  916SOL    HW2 2748   2.986   0.802   1.956  2.9780 -0.0867 -3.8359
  917SOL     OW 2749   2.061   3.094   2.815 -0.2882 -0.3919  0.0855
  917SOL    HW1 2750   2.061   3.090   2.918  1.7748  0.2110  0.6572
  917SOL    HW2 2751   2.019   0.083   2.780 -0.4274  0.5841  1.6191
  918SOL     OW 2752   1.909   2.425   2.272 -0.3628  1.2360  0.7942
  918SOL    HW1 2753   1.931   2.437   2.371  0.3398  1.7771 -0.3712
  918SOL    HW2 2754   1.924   2.510   2.217  1.1612  1.4995 -2.0603
  919SOL     OW 2755   2.141   2.189   2.133  0.2154  0.0704  0.2665
  919SOL    HW1 2756   2.079   2.194   2.215 -1.9167 -0.2044  2.2620
  919SOL    HW2 2757   2.101   2.141   2.050  0.2241  0.7831  3.1307
  920SOL     OW 2758   0.328   0.944   0.159 -0.1381  0.2150  0.1977
  920SOL    HW1 2759   0.381   0.909   0.240 -0.0690  1.1604 -0.1482
  920SOL    HW2 2760   0.229   0.927   0.167 -0.6552  1.1397 -1.0391
  921SOL     OW 2761   2.689   1.133   2.692  0.0536 -0.4537  0.7191
  921SOL    HW1 2762   2.599   1.163   2.733 -0.6758  0.0862 -0.7859
  921SOL    HW2 2763   2.755   1.204   2.712 -2.1727 -0.8054 -1.4719
  922SOL     OW 2764   0.422   1.892   0.117 -0.1363  0.3464 -0.3123
  922SOL    HW1 2765   0.387   1.897   0.023 -2.3229  2.0342  0.4192
  922SOL    HW2 2766   0.348   1.887   0.186 -1.4022  1.7134  0.0304
  923SOL     OW 2767   0.583   0.826   2.224  0.0243  0.0818 -0.3158
  923SOL    HW1 2768   0.517   0.758   2.263  1.4440  0.7520 -2.0945
  923SOL    HW2 2769   0.649   0.787   2.155  1.1214 -2.0360 -1.9480
  924SOL     OW 2770   0.653   2.634   2.654 -0.0892 -0.5350 -0.3247
  924SOL    HW1 2771   0.732   2.624   2.592 -0.4506 -1.8372  2.5766
  924SOL    HW2 2772   0.663   2.711   2.724 -1.2545  2.4187  0.9916
  925SOL     OW 2773   1.723   1.651   0.898  0.5097  0.9281  0.1335
  925SOL    HW1 2774   1.680   1.570   0.946 -0.8544 -1.4343  0.0889
  925SOL    HW2 2775   1.800   1.626   0.844 -2.4092  0.9736  1.2318
  926SOL     OW 2776   1.605   0.478   2.142 -0.3932 -0.0389  0.0894
  926SOL    HW1 2777   1.520   0.528   2.126  0.5074 -1.1778 -2.1449
  926SOL    HW2 2778   1.669   0.534   2.196  0.1278 -0.7171 -1.7423
  927SOL     OW 2779   2.886   2.416   1.830  0.5774 -0.0321 -0.2815
  927SOL    HW1 2780   2.937   2.380   1.751 -0.1456 -0.9340 -0.9648
  927SOL    HW2 2781   2.840   2.505   1.805  0.5449 -0.6707  0.7436
  928SOL     OW 2782   0.331   1.024   2.799 -0.0852 -0.6877  0.2440
  928SOL    HW1 2783   0.289   1.036   2.892  1.8270  1.2394 -0.7302
  928SOL    HW2 2784   0.341   0.925   2.779 -1.3524 -1.6395  0.8836
  929SOL     OW 2785   3.074   0.106   0.729 -0.1367 -0.1061  0.9665
  929SOL    HW1 2786   3.064   0.004   0.730  0.9550  1.1892 -0.0812
  929SOL    HW2 2787   0.057   0.144   0.775 -1.7360  0.4712  1.7979
  930SOL     OW 2788   2.486   0.246   1.741 -0.1179  0.3598 -0.7921
  930SOL    HW1 2789   2.487   0.155   1.793 -0.6622 -0.4437  1.2143
  930SOL    HW2 2790   2.542   0.249   1.660 -2.1946  0.0435  2.9592
  931SOL     OW 2791   2.210   1.165   0.035 -0.2119 -0.1573 -0.3686
  931SOL    HW1 2792   2.226   1.081   3.083  2.0455  2.0880  0.5507
  931SOL    HW2 2793   2.197   1.246   3.073 -1.0818 -1.2222  0.2865
  932SOL     OW 2794   2.345   1.244   1.683  0.2678  0.6865  0.7762
  932SOL    HW1 2795   2.356   1.241   1.581 -0.3954  2.2695 -2.4323
  932SOL    HW2 2796   2.430   1.228   1.735  1.0423 -0.6584 -1.0638
  933SOL     OW 2797   0.023   2.631   1.511 -0.2906 -0.2562 -0.2370
  933SOL    HW1 2798   0.092   2.594   1.579  1.3475 -0.9969 -0.0812
  933SOL    HW2 2799   3.087   2.722   1.546 -0.9537 -1.0594 -0.8228
  934SOL     OW 2800   0.732   2.844   1.079 -0.1345 -0.0379  0.3127
  934SOL    HW1 2801   0.821   2.789   1.070  0.9406  1.8707 -2.6791
  934SOL    HW2 2802   0.731   2.892   1.169  1.0373 -1.0822 -1.0608
  935SOL     OW 2803   2.409   1.201   2.193  0.2012  0.0420 -0.8890
  935SOL    HW1 2804   2.490   1.153   2.159 -2.2287  2.4456  0.9606
  935SOL    HW2 2805   2.338   1.220   2.120 -1.9720  0.8794 -3.4568
  936SOL     OW 2806   2.219   0.987   1.682  0.1272 -0.3393 -0.0455
  936SOL    HW1 2807   2.268   1.071   1.697 -1.0377 -2.3702  3.4098
  936SOL    HW2 2808   2.209   0.949   1.775 -0.6727 -0.5718  0.5726
  937SOL     OW 2809   1.911   1.068   2.207 -0.3660  0.0274  0.1856
  937SOL    HW1 2810   1.827   1.100   2.254 -0.8653  2.0679 -0.7536
  937SOL    HW2 2811   1.892   0.976   2.157  0.0204 -1.1666 -3.7552
  938SOL     OW 2812   0.753   2.594   3.071 -0.3096  0.1103 -0.2348
  938SOL    HW1 2813   0.681   2.548   0.023  2.2854  2.0538  1.4135
  938SOL    HW2 2814   0.797   2.651   0.041  0.3521 -1.3544  2.3017
  939SOL     OW 2815   2.545   0.883   2.986 -0.4831  0.1247  0.3837
  939SOL    HW1 2816   2.588   0.965   3.029  0.0792  0.0222 -1.2982
  939SOL    HW2 2817   2.556   0.803   3.046 -1.2153  0.3230  0.4018
  940SOL     OW 2818   1.102   2.087   0.978  0.1703 -0.5550  0.0440
  940SOL    HW1 2819   1.079   2.031   0.895  1.0205  1.3008 -1.4142
  940SOL    HW2 2820   1.201   2.128   0.975  2.4520  1.7708 -0.1962
  941SOL     OW 2821   0.870   2.038   1.634 -0.0446 -0.0727  0.1271
  941SOL    HW1 2822   0.860   2.052   1.536  1.5029 -1.4254  2.0791
  941SOL    HW2 2823   0.774   2.022   1.674 -1.2641 -0.7517 -1.0666
  942SOL     OW 2824   0.305   2.032   2.773 -0.3438  0.4127  0.2042
  942SOL    HW1 2825   0.223   2.058   2.728  3.5084  2.4571  1.8463
  942SOL    HW2 2826   0.359   1.968   2.721  1.3264  2.5099  2.8108
  943SOL     OW 2827   1.937   2.935   1.679 -0.5271 -0.0433 -0.1918
  943SOL    HW1 2828   1.929   2.873   1.758 -1.1653  0.6522  1.8001
  943SOL    HW2 2829   1.984   2.887   1.604  1.2139  0.1736  2.4128
  944SOL     OW 2830   1.244   1.974   3.049  0.1877  0.3555  0.1198
  944SOL    HW1 2831   1.335   2.018   3.050 -0.6528  1.3492 -0.1576
  944SOL    HW2 2832   1.168   2.022   3.000 -0.1286  2.3636  0.2097
  945SOL     OW 2833   2.630   2.632   1.018  0.0122  0.2598 -0.5951
  945SOL    HW1 2834   2.712   2.684   0.988 -1.6393 -3.2026 -1.3551
  945SOL    HW2 2835   2.583   2.602   0.931  1.0253  1.1682 -0.4995
  946SOL     OW 2836   0.788   1.443   2.682  0.1883  0.6268 -0.1240
  946SOL    HW1 2837   0.829   1.487   2.596 -0.4608  0.1586 -2.7275
  946SOL    HW2 2838   0.799   1.503   2.766 -0.0557 -0.2392  2.4640
  947SOL     OW 2839   0.004   0.729   2.077 -0.1212  0.0168 -0.6439
  947SOL    HW1 2840   0.081   0.798   2.083  0.7200  0.1188  3.2510
  947SOL    HW2 2841   0.044   0.636   2.064 -1.1211  1.6366  0.3213
  948SOL     OW 2842   0.141   1.384   0.734 -0.0050 -0.2125  0.2972
  948SOL    HW1 2843   0.226   1.442   0.740  2.1025  0.6083  0.7624
  948SOL    HW2 2844   0.136   1.327   0.818 -0.3315 -0.5482 -1.5445
  949SOL     OW 2845   0.760   0.687   2.087  0.3705 -0.8200  0.2214
  949SOL    HW1 2846   0.790   0.599   2.124  0.4933  3.4348 -1.9686
  949SOL    HW2 2847   0.830   0.722   2.024  1.5943  4.4296 -0.1404
  950SOL     OW 2848   0.185   0.606   1.414 -0.1203 -0.0885  0.1620
  950SOL    HW1 2849   0.213   0.568   1.320  1.9432  2.5492 -3.6305
  950SOL    HW2 2850   0.120   0.540   1.457  1.6299  0.2069 -1.7534
  951SOL     OW 2851   0.677   0.997   2.737  0.3967 -0.0026  0.3434
  951SOL    HW1 2852   0.743   1.072   2.750  1.4574 -1.6376  0.3965
  951SOL    HW2 2853   0.638   1.002   2.641 -0.4738 -0.9330 -3.3024
  952SOL     OW 2854   1.877   2.105   0.774  0.6807 -0.8813 -0.0530
  952SOL    HW1 2855   1.908   2.193   0.736  0.2810 -0.8422  1.4301
  952SOL    HW2 2856   1.937   2.056   0.840  2.1682 -0.5277 -0.6345
  953SOL     OW 2857   0.585   0.364   0.243  0.2193  0.1433  0.1489
  953SOL    HW1 2858   0.654   0.319   0.306  1.4016  0.9814  0.1927
  953SOL    HW2 2859   0.494   0.374   0.284  0.6304 -1.0022 -0.0256
  954SOL     OW 2860   2.491   0.690   1.067 -0.0770 -0.4046 -0.3052
  954SOL    HW1 2861   2.400   0.724   1.085  4.2018  1.3933  0.6319
  954SOL    HW2 2862   2.543   0.688   1.158 -0.9367 -1.2179 -0.3767
  955SOL     OW 2863   1.624   1.344   0.074 -0.2017  0.2418 -0.3290
  955SOL    HW1 2864   1.665   1.286   0.001 -2.1017 -1.9949  0.7861
  955SOL    HW2 2865   1.523   1.357   0.063 -0.1688  2.0763 -0.0004
  956SOL     OW 2866   1.124   0.545   2.538  0.6225 -0.1660  0.0177
  956SOL    HW1 2867   1.217   0.589   2.557  1.4733 -2.9150  2.0866
  956SOL    HW2 2868   1.140   0.449   2.512  1.9197  1.3309  0.8965
  957SOL     OW 2869   1.466   0.254   1.581  0.2702  0.1283  0.3740
  957SOL    HW1 2870   1.453   0.241   1.683  0.8331 -1.3944  1.7046
  957SOL    HW2 2871   1.565   0.258   1.555 -2.6571 -1.8187  0.5438
  958SOL     OW 2872   0.439   2.040   0.502 -0.2598  0.2638 -0.4700
  958SOL    HW1 2873   0.495   2.054   0.418 -1.6362  0.9586  0.8918
  958SOL    HW2 2874   0.439   1.943   0.532 -0.6778  1.9484 -1.4905
  959SOL     OW 2875   2.029   0.858   1.523  0.3434 -0.3022 -0.2328
  959SOL    HW1 2876   2.085   0.924   1.579  0.2891  1.4841 -1.1785
  959SOL    HW2 2877   1.943   0.831   1.576 -0.3722 -0.0738 -1.1743
  960SOL     OW 2878   0.026   1.733   2.969 -0.6025 -0.8924 -0.2912
  960SOL    HW1 2879   0.097   1.801   2.993 -0.1874  2.6920  3.0405
  960SOL    HW2 2880   0.041   1.647   3.021 -1.0610 -1.1993 -2.4963
  961SOL     OW 2881   0.643   2.227   1.051  0.5996  0.2063 -0.1503
  961SOL    HW1 2882   0.661   2.158   1.127  3.4525 -5.5788  1.9083
  961SOL    HW2 2883   0.725   2.283   1.042 -0.3661 -1.8989  0.7493
  962SOL     OW 2884   0.311   1.518   1.227 -0.3405 -0.1275  0.3576
  962SOL    HW1 2885   0.212   1.503   1.209  0.8048 -0.3554 -1.8998
  962SOL    HW2 2886   0.327   1.578   1.309  2.0906 -1.4453  1.5673
  963SOL     OW 2887   1.652   1.855   2.366  0.4090  0.2061 -0.0885
  963SOL    HW1 2888   1.677   1.829   2.460 -0.0677 -0.4895 -0.5875
  963SOL    HW2 2889   1.727   1.882   2.306 -2.7108 -1.9622 -0.0952
  964SOL     OW 2890   0.218   0.036   2.116 -0.1940  0.0101 -0.0549
  964SOL    HW1 2891   0.146   3.073   2.090  1.4424  3.6024 -1.4270
  964SOL    HW2 2892   0.309   3.091   2.096 -2.1872  0.5737 -2.3670
  965SOL     OW 2893   3.080   2.226   2.793  0.0185 -0.3096  0.1461
  965SOL    HW1 2894   3.009   2.278   2.749 -0.6418 -1.2845  2.5748
  965SOL    HW2 2895   0.013   2.145   2.732 -0.0903  1.8917  1.0021
  966SOL     OW 2896   2.685   1.706   3.093 -0.2492 -0.0308 -0.4208
  966SOL    HW1 2897   2.712   1.631   3.026  1.7897  0.3838 -0.0757
  966SOL    HW2 2898   2.673   1.668   0.088  0.6245 -2.2993  0.3012
  967SOL     OW 2899   2.049   3.095   3.092  0.5760 -0.3220 -0.4028
  967SOL    HW1 2900   2.032   3.005   0.038  1.7215  0.5040  2.3061
  967SOL    HW2 2901   1.965   0.052   0.010 -1.4877  0.8386  3.2199
  968SOL     OW 2902   2.734   3.071   0.491 -0.6370 -0.2776  0.4395
  968SOL    HW1 2903   2.714   3.019   0.407  0.6749  0.6880  1.8675
  968SOL    HW2 2904   2.645   3.092   0.541 -0.5443  1.3836 -0.7460
  969SOL     OW 2905   0.419   0.873   1.820  0.1840  0.0383 -0.7118
  969SOL    HW1 2906   0.420   0.970   1.845  0.0178  2.8572  3.9787
  969SOL    HW2 2907   0.352   0.849   1.746  0.4981  0.6595 -0.4111
  970SOL     OW 2908   1.635   1.639   0.017  0.3819 -0.0603  0.6168
  970SOL    HW1 2909   1.614   1.546   0.052  1.2685 -1.9813 -1.4981
  970SOL    HW2 2910   1.630   1.701   0.098  1.2822  0.2080 -1.4588
  971SOL     OW 2911   2.340   0.057   1.419  0.4525  0.1517 -0.0811
  971SOL    HW1 2912   2.263   0.103   1.462  0.0167 -0.7003 -0.9809
  971SOL    HW2 2913   2.390   3.096   1.483 -0.6737  1.3349 -0.2301
  972SOL     OW 2914   2.912   0.279   0.889  0.1781 -0.1966  0.0129
  972SOL    HW1 2915   2.923   0.369   0.838  1.0735  1.6560 -1.5696
  972SOL    HW2 2916   2.956   0.208   0.828  1.5720 -0.7535 -0.1483
  973SOL     OW 2917   0.355   0.463   2.550  0.2315 -0.3807  0.6182
  973SOL    HW1 2918   0.445   0.506   2.550 -0.6176 -0.7510 -0.7335
  973SOL    HW2 2919   0.365   0.365   2.573  1.5077  0.4021  2.9178
  974SOL     OW 2920   2.555   1.143   1.838 -0.2674  0.2903 -0.0178
  974SOL    HW1 2921   2.548   1.043   1.824  1.3256  1.9099  1.1480
  974SOL    HW2 2922   2.612   1.166   1.917 -0.2211  1.9209 -0.6929
  975SOL     OW 2923   1.268   0.015   1.671  0.0072 -0.3147 -0.9314
  975SOL    HW1 2924   1.276   0.110   1.640 -0.2753 -0.0876 -0.1172
  975SOL    HW2 2925   1.175   3.086   1.700  1.7470 -1.9231 -4.2654
  976SOL     OW 2926   1.460   1.532   1.288 -0.7111  0.2712  1.2178
  976SOL    HW1 2927   1.446   1.566   1.383 -0.8992  3.3035 -0.0380
  976SOL    HW2 2928   1.498   1.435   1.283  2.2107 -2.3225 -1.1710
  977SOL     OW 2929   0.475   3.054   0.109  0.5450 -0.2578 -0.1535
  977SOL    HW1 2930   0.547   3.049   0.182  0.3901 -1.0257 -1.6371
  977SOL    HW2 2931   0.495   2.993   0.034  0.2434  1.2860 -0.2441
  978SOL     OW 2932   2.079   1.284   2.237  0.3356 -0.0148 -0.3978
  978SOL    HW1 2933   2.126   1.297   2.148  1.4843  1.9491 -0.7953
  978SOL    HW2 2934   2.014   1.204   2.237  1.3477 -3.7733  2.8843
  979SOL     OW 2935   1.419   0.786   1.907  0.7149  0.2366  0.1028
  979SOL    HW1 2936   1.329   0.838   1.933 -0.3708 -0.6005 -0.0535
  979SOL    HW2 2937   1.500   0.847   1.903 -0.8221  0.5753 -2.0512
  980SOL     OW 2938   1.794   1.669   2.569 -0.1132 -0.4741 -0.0758
  980SOL    HW1 2939   1.880   1.620   2.550  1.2372 -2.2889 -0.3278
  980SOL    HW2 2940   1.723   1.601   2.585  1.5549  0.5035 -2.3299
  981SOL     OW 2941   1.574   0.626   1.756 -0.6000 -0.0282  0.2835
  981SOL    HW1 2942   1.512   0.591   1.685 -0.0423  0.2047  0.2104
  981SOL    HW2 2943   1.529   0.675   1.825 -0.3046  2.2781 -3.8128
  982SOL     OW 2944   0.587   0.648   0.137 -0.4791  0.1233  0.2566
  982SOL    HW1 2945   0.611   0.556   0.170 -0.2692  0.6202  1.3529
  982SOL    HW2 2946   0.564   0.650   0.037  0.4844  0.7962 -0.6525
  983SOL     OW 2947   2.285   0.797   0.154 -0.3282  0.1178  0.2752
  983SOL    HW1 2948   2.303   0.845   0.240  2.1400 -0.5489 -0.3084
  983SOL    HW2 2949   2.270   0.866   0.080  0.0655  3.7793  0.3382
  984SOL     OW 2950   0.722   0.378   2.585  0.5112 -0.2024  0.0578
  984SOL    HW1 2951   0.812   0.381   2.639 -1.9242 -0.5711 -0.1525
  984SOL    HW2 2952   0.684   0.469   2.555 -1.4615 -0.0119 -0.1843
  985SOL     OW 2953   1.460   2.071   1.933  0.7194  0.0026 -0.1179
  985SOL    HW1 2954   1.556   2.034   1.950 -2.5959  2.2099 -1.4155
  985SOL    HW2 2955   1.397   2.051   2.008  0.0683 -1.6452 -1.8969
  986SOL     OW 2956   2.504   2.633   1.778 -0.0578 -0.1744 -0.4412
  986SOL    HW1 2957   2.597   2.672   1.774  1.1828  1.5790 -1.0108
  986SOL    HW2 2958   2.456   2.676   1.856  1.9385 -1.1035 -0.1641
  987SOL     OW 2959   1.689   1.367   0.927 -0.2088  0.1893 -0.0749
  987SOL    HW1 2960   1.781   1.377   0.882  0.7268 -0.3398  0.2175
  987SOL    HW2 2961   1.621   1.356   0.854  1.5272 -1.8806  1.2887
  988SOL     OW 2962   2.402   1.403   2.371 -0.0619  0.1748 -0.5744
  988SOL    HW1 2963   2.396   1.322   2.310  0.3401  0.2524 -1.3951
  988SOL    HW2 2964   2.387   1.494   2.322 -0.6503 -1.2594 -0.9040
  989SOL     OW 2965   1.446   2.421   0.134 -0.5651  0.2715 -0.1375
  989SOL    HW1 2966   1.404   2.388   0.224 -1.5019 -2.3682 -2.1397
  989SOL    HW2 2967   1.545   2.439   0.151  1.6829  0.4349  1.2477
  990SOL     OW 2968   1.883   0.667   2.652  0.2652 -0.0473  0.0577
  990SOL    HW1 2969   1.879   0.756   2.697  2.0897  0.6039 -1.0366
  990SOL    HW2 2970   1.886   0.594   2.717  1.9342  1.0079  0.2900
  991SOL     OW 2971   0.825   0.643   1.015 -0.5656 -0.3229 -0.4467
  991SOL    HW1 2972   0.804   0.641   1.115 -0.7325 -0.3578 -1.6195
  991SOL    HW2 2973   0.926   0.646   1.001 -2.4783 -1.8173  1.1895
  992SOL     OW 2974   2.942   1.035   1.013  0.5409 -0.0279  0.2779
  992SOL    HW1 2975   2.846   1.075   1.000  0.4568  2.1307  0.1076
  992SOL    HW2 2976   2.938   0.938   1.045  0.8564  1.3353 -1.1021
  993SOL     OW 2977   2.306   0.595   1.801 -0.2149  0.1170 -0.2840
  993SOL    HW1 2978   2.271   0.519   1.742 -3.9759  0.9473  0.3863
  993SOL    HW2 2979   2.395   0.628   1.760  0.2612 -0.3358  1.9119
  994SOL     OW 2980   0.877   1.527   2.410  0.1473  0.5150 -0.5255
  994SOL    HW1 2981   0.912   1.478   2.326  0.1979 -0.4947  0.5903
  994SOL    HW2 2982   0.932   1.610   2.440 -0.4312  3.6849  0.1128
  995SOL     OW 2983   2.180   1.375   2.967 -0.5306  0.1274 -0.4319
  995SOL    HW1 2984   2.156   1.379   2.867 -0.1032  0.3331  0.1189
  995SOL    HW2 2985   2.147   1.457   3.019 -1.2107  1.9664  0.6354
  996SOL     OW 2986   2.185   2.032   0.675  0.1546  0.0716 -0.2638
  996SOL    HW1 2987   2.126   1.992   0.748 -1.5912  1.6504 -1.0303
  996SOL    HW2 2988   2.285   2.019   0.703 -1.9032 -1.1468  0.3000
  997SOL     OW 2989   2.216   0.373   1.669  0.1644  0.0250 -0.2274
  997SOL    HW1 2990   2.296   0.318   1.697  0.4600 -1.1513 -1.5047
  997SOL    HW2 2991   2.169   0.349   1.579 -1.8664  0.9927  0.8945
  998SOL     OW 2992   2.414   1.135   0.694 -0.7514  0.1473 -0.7324
  998SOL    HW1 2993   2.370   1.210   0.637 -0.2412 -2.0577  0.5385
  998SOL    HW2 2994   2.353   1.054   0.703  0.2317  0.3309 -1.3930
  999SOL     OW 2995   2.680   1.611   0.235 -0.1074  0.0562 -0.1948
  999SOL    HW1 2996   2.692   1.669   0.316  0.1699 -0.7098  2.5657
  999SOL    HW2 2997   2.750   1.537   0.230 -2.8672 -2.2370 -1.1715
 1000SOL     OW 2998   0.804   0.930   1.794 -0.2617 -0.1129  0.2128
 1000SOL    HW1 2999   0.870   0.858   1.815 -0.7541  0.8107  1.8189
 1000SOL    HW2 3000   0.751   0.917   1.707  2.0047 -0.9097  0.6672
   3.09984   3.09984   3.09984
