1000 SPC/Fw water molecules t=   9.00000 step= 9000
 3000
    1SOL     OW    1   1.446   2.591   0.173 -0.8854  0.6003  0.5993
    1SOL    HW1    2   1.451   2.686   0.134  0.3180 -0.6088  0.0096
    1SOL    HW2    3   1.380   2.586   0.250  1.1379 -2.2318 -0.7734
    2SOL     OW    4   1.459   1.064   1.641  0.2277  0.1777  0.1644
    2SOL    HW1    5   1.496   1.029   1.551 -0.5533 -1.9240 -0.9236
    2SOL    HW2    6   1.511   1.138   1.679 -0.0052 -1.9802  0.0298
    3SOL     OW    7   0.729   0.159   2.718  0.0059 -0.3598  0.0790
    3SOL    HW1    8   0.759   0.250   2.676  0.9053  1.9285 -0.3583
    3SOL    HW2    9   0.647   0.174   2.774 -0.0275 -0.8186  1.5169
    4SOL     OW   10   1.446   1.501   3.040 -0.4091  0.0460  0.5392
    4SOL    HW1   11   1.400   1.579   2.997  0.7406 -3.0123 -1.4898
    4SOL    HW2   12   1.399   1.473   0.049  3.5133 -1.6761 -2.6145
    5SOL     OW   13   0.726   1.047   2.189 -0.2753 -0.4624  0.2890
    5SOL    HW1   14   0.779   0.964   2.156 -1.0759  0.0961  0.8428
    5SOL    HW2   15   0.782   1.107   2.245  1.9896  0.8797  0.4991
    6SOL     OW   16   2.399   0.933   2.462  0.2456  0.4979  0.0904
    6SOL    HW1   17   2.447   0.884   2.391 -1.7306 -0.8550  1.3584
    6SOL    HW2   18   2.337   1.000   2.412 -0.2141  0.8375  3.1975
    7SOL     OW   19   0.130   1.030   1.055  0.1781 -0.1324  0.0009
    7SOL    HW1   20   0.101   1.124   1.083 -1.0906 -0.6409  2.8270
    7SOL    HW2   21   0.220   1.025   1.009 -0.9352 -1.9518  3.4047
    8SOL     OW   22   2.026   2.734   1.887  0.1298 -0.7500 -0.0362
    8SOL    HW1   23   1.938   2.719   1.837 -0.0029 -2.2209  0.1071
    8SOL    HW2   24   2.033   2.829   1.929  1.2015  0.5516 -1.2677
    9SOL     OW   25   0.052   2.628   0.520  0.0021 -0.4713 -0.2080
    9SOL    HW1   26   0.136   2.604   0.579  0.9264  1.9554  2.9414
    9SOL    HW2   27   0.068   2.589   0.428 -0.8863  0.7301  1.3980
   10SOL     OW   28   0.016   2.284   2.498  0.4828 -0.1915 -0.0400
   10SOL    HW1   29   0.101   2.335   2.488  1.5825 -4.3129 -1.5240
   10SOL    HW2   30   0.046   2.184   2.504  0.9450 -0.4169 -0.5735
   11SOL     OW   31   0.152   1.709   0.096  0.1026  0.4855 -0.1963
   11SOL    HW1   32   0.186   1.635   0.032  3.4561  0.7916 -3.0666
   11SOL    HW2   33   0.238   1.745   0.148  1.2287  3.2071  1.2681
   12SOL     OW   34   2.258   3.061   0.488 -0.2978 -0.1052 -0.1573
   12SOL    HW1   35   2.238   0.037   0.402  0.4552 -0.9543  0.7366
   12SOL    HW2   36   2.354   3.027   0.496  2.2178 -0.7277 -0.5086
   13SOL     OW   37   0.331   0.373   2.609  0.5264 -0.0966 -0.1425
   13SOL    HW1   38   0.291   0.310   2.676 -2.3630  1.5923 -0.9620
   13SOL    HW2   39   0.353   0.459   2.650  0.5196 -0.6374 -2.6628
   14SOL     OW   40   1.261   0.884   1.417 -0.3838  1.1734  0.3082
   14SOL    HW1   41   1.206   0.880   1.501  0.2062 -1.1851 -1.4902
   14SOL    HW2   42   1.226   0.959   1.357  1.2186 -0.1646 -0.9590
   15SOL     OW   43   0.659   1.517   2.159 -0.5382 -0.1146  0.3309
   15SOL    HW1   44   0.573   1.564   2.140  1.5291  0.1795 -2.1466
   15SOL    HW2   45   0.665   1.422   2.118  0.8371 -2.0063 -2.6895
   16SOL     OW   46   1.803   0.977   2.580  0.4581  0.2074  0.1831
   16SOL    HW1   47   1.738   1.045   2.545  0.1176 -0.4040 -1.1704
   16SOL    HW2   48   1.897   1.020   2.579  0.6411  1.4727  2.8005
   17SOL     OW   49   0.071   2.281   2.165 -0.1520  0.3806 -0.4016
   17SOL    HW1   50   0.048   2.379   2.175  0.1461 -0.3005 -0.3451
   17SOL    HW2   51   0.051   2.246   2.073  0.6057  0.2684  0.4565
   18SOL     OW   52   1.519   1.200   0.698  0.0145  0.1465  0.3136
   18SOL    HW1   53   1.555   1.106   0.725 -0.7657 -0.6533  0.0316
   18SOL    HW2   54   1.430   1.193   0.642  0.0681 -2.2177  1.9727
   19SOL     OW   55   0.232   1.210   2.010 -0.0281 -0.6107 -0.1469
   19SOL    HW1   56   0.250   1.204   1.914 -2.0828  2.2705  1.8283
   19SOL    HW2   57   0.190   1.124   2.035  1.5291  3.5438 -0.5738
   20SOL     OW   58   2.224   2.314   3.010  0.4253 -0.6315  0.2978
   20SOL    HW1   59   2.230   2.327   0.040  1.4156  0.6279  2.3452
   20SOL    HW2   60   2.167   2.384   2.961 -0.1849  0.3480 -1.2399
   21SOL     OW   61   1.883   1.668   1.046  0.4810 -0.4555 -0.5326
   21SOL    HW1   62   1.830   1.590   1.087  3.7935  0.0679  2.3595
   21SOL    HW2   63   1.978   1.660   1.082  0.5393  0.3276  1.2744
   22SOL     OW   64   2.019   2.092   1.380 -0.2595  0.2597  0.8491
   22SOL    HW1   65   1.988   2.116   1.474  0.9867  1.4762 -1.5307
   22SOL    HW2   66   1.938   2.099   1.318 -2.8101  1.4774 -0.2444
   23SOL     OW   67   2.843   1.068   1.283  0.3950  0.3457 -0.0692
   23SOL    HW1   68   2.888   0.974   1.282  0.7870 -2.7527 -0.3800
   23SOL    HW2   69   2.769   1.073   1.211  3.0247  0.6441 -2.5759
   24SOL     OW   70   1.803   1.138   1.589  0.6165  0.1564  0.0646
   24SOL    HW1   71   1.825   1.172   1.493  0.8708  3.2902 -0.9772
   24SOL    HW2   72   1.834   1.041   1.605  1.6908 -3.6769  1.9364
   25SOL     OW   73   1.812   0.163   2.281  0.1746  0.1047 -0.7340
   25SOL    HW1   74   1.890   0.201   2.333  2.8998  0.9877 -1.2933
   25SOL    HW2   75   1.736   0.224   2.286  2.4129 -3.7850 -4.1746
   26SOL     OW   76   0.624   2.878   0.596  0.1875 -0.3414  0.7086
   26SOL    HW1   77   0.664   2.894   0.686  1.0128 -1.1507 -2.4489
   26SOL    HW2   78   0.686   2.821   0.537  0.0825  2.2159 -1.7986
   27SOL     OW   79   1.166   1.185   0.853  0.4438 -0.0035 -0.1740
   27SOL    HW1   80   1.221   1.212   0.936  0.1849  0.9236 -1.7779
   27SOL    HW2   81   1.103   1.260   0.821 -0.7842 -0.8084 -1.2617
   28SOL     OW   82   2.035   2.276   1.074 -0.4837  0.5588  0.1407
   28SOL    HW1   83   2.055   2.373   1.093  1.5600  0.3717 -0.2890
   28SOL    HW2   84   1.948   2.242   1.113 -3.4728  0.0506  0.5879
   29SOL     OW   85   2.219   2.938   2.208  0.0615  0.1321 -0.1805
   29SOL    HW1   86   2.205   2.851   2.265 -3.6970 -1.1477  2.2510
   29SOL    HW2   87   2.203   3.018   2.267 -0.8031  0.8152 -1.5741
   30SOL     OW   88   0.023   2.760   2.012  0.4912  0.0775  0.9952
   30SOL    HW1   89   3.004   2.788   2.046  1.9579  1.6223  0.6460
   30SOL    HW2   90   0.097   2.828   2.040  0.6584 -1.5101 -0.6662
   31SOL     OW   91   0.092   1.769   2.204 -0.1617  0.1533 -0.4055
   31SOL    HW1   92   0.049   1.860   2.211  0.2820 -0.4538 -1.6197
   31SOL    HW2   93   0.066   1.712   2.124  0.5102 -2.0994  0.5293
   32SOL     OW   94   0.902   2.334   2.158 -0.0437 -0.6590 -0.1944
   32SOL    HW1   95   0.878   2.336   2.257 -0.5037 -0.6378 -0.1721
   32SOL    HW2   96   1.005   2.348   2.148 -0.3771  0.2297  1.1480
   33SOL     OW   97   0.336   0.396   0.042 -0.3677 -0.5559  0.4557
   33SOL    HW1   98   0.366   0.418   0.138  0.0293  3.1655 -0.1786
   33SOL    HW2   99   0.408   0.410   3.045  0.9364  0.7144  0.4451
   34SOL     OW  100   2.767   0.106   3.071  0.0834  0.5701  0.7281
   34SOL    HW1  101   2.834   0.029   0.007  1.4617 -1.8320  1.1753
   34SOL    HW2  102   2.712   0.107   2.985 -1.7297 -1.8042 -1.4239
   35SOL     OW  103   2.927   2.573   1.790 -0.1203  0.1027 -0.0614
   35SOL    HW1  104   2.978   2.657   1.769  0.3560  2.6185  1.0578
   35SOL    HW2  105   2.953   2.498   1.729 -0.8980  1.3221  1.1535
   36SOL     OW  106   2.159   0.087   2.361 -0.0924  0.4824 -0.0275
   36SOL    HW1  107   2.198   0.078   2.456  0.7728  1.0951  3.1445
   36SOL    HW2  108   2.084   0.157   2.354  2.1428 -1.9805  0.6877
   37SOL     OW  109   1.684   2.779   2.969 -0.0781  0.0705 -0.4354
   37SOL    HW1  110   1.670   2.736   2.876 -1.0971  0.1553 -0.2589
   37SOL    HW2  111   1.593   2.791   3.017  1.5283 -0.2371 -1.5025
   38SOL     OW  112   0.546   0.391   0.690 -0.0745  0.4958  0.7755
   38SOL    HW1  113   0.586   0.481   0.650  0.2932  0.1208  1.0054
   38SOL    HW2  114   0.564   0.314   0.626 -2.3687  3.1020  1.3721
   39SOL     OW  115   0.987   1.893   2.157  0.4419  0.5397  0.1923
   39SOL    HW1  116   0.931   1.824   2.216 -1.6503 -1.5204  1.0730
   39SOL    HW2  117   1.080   1.904   2.194  1.5646 -0.7037  2.6220
   40SOL     OW  118   3.045   0.885   0.243  0.7438  0.0353 -0.2821
   40SOL    HW1  119   2.988   0.817   0.200  0.9440  1.6959 -1.2610
   40SOL    HW2  120   2.993   0.948   0.300 -0.7983  1.9051 -1.8392
   41SOL     OW  121   1.463   0.289   1.839  0.5130 -0.1770 -0.1678
   41SOL    HW1  122   1.457   0.363   1.768 -0.6832 -1.7822 -1.8284
   41SOL    HW2  123   1.386   0.306   1.908  1.2305 -2.1573 -1.2196
   42SOL     OW  124   2.389   0.221   1.272  0.1546 -0.2198  0.4910
   42SOL    HW1  125   2.422   0.213   1.175  0.0626 -0.8092  0.2630
   42SOL    HW2  126   2.386   0.321   1.301  1.4818  1.6819  2.2921
   43SOL     OW  127   1.496   0.501   1.632  0.5116  0.0069  0.0117
   43SOL    HW1  128   1.558   0.563   1.578  1.1312  0.9616 -0.7171
   43SOL    HW2  129   1.520   0.409   1.600 -0.8063  1.6268  2.5803
   44SOL     OW  130   0.393   0.706   0.097 -0.1724 -0.4046  0.0737
   44SOL    HW1  131   0.429   0.638   0.165  0.3213  0.0711  1.3180
   44SOL    HW2  132   0.350   0.793   0.140 -1.7396  2.4667 -2.0949
   45SOL     OW  133   0.603   1.545   1.708 -0.9252  0.0525  0.2693
   45SOL    HW1  134   0.596   1.571   1.608 -2.8813  1.4057 -1.6075
   45SOL    HW2  135   0.679   1.478   1.721 -0.6164 -1.6069  1.7838
   46SOL     OW  136   2.060   2.430   1.766 -0.2317  0.3781  0.2293
   46SOL    HW1  137   2.043   2.422   1.869  0.8381  1.4797 -1.4828
   46SOL    HW2  138   2.121   2.511   1.741  0.5276  2.2380 -1.2640
   47SOL     OW  139   0.408   1.813   1.571 -0.4720 -0.3444  0.2109
   47SOL    HW1  140   0.489   1.809   1.508  0.6941 -2.5619 -1.7811
   47SOL    HW2  141   0.393   1.905   1.607  0.1451  0.6648 -2.5849
   48SOL     OW  142   0.938   2.525   2.910  0.8566  0.2398 -0.5475
   48SOL    HW1  143   0.966   2.514   3.010 -0.3286 -0.2032 -1.2708
   48SOL    HW2  144   0.837   2.545   2.904 -0.5007 -0.1583  0.3812
   49SOL     OW  145   2.584   1.433   1.936 -0.4518 -0.3879 -0.1019
   49SOL    HW1  146   2.572   1.500   1.861 -0.4271 -0.8688  0.9881
   49SOL    HW2  147   2.614   1.338   1.906 -0.1237 -1.5578  0.8284
   50SOL     OW  148   0.867   2.835   0.458  0.3463  0.0570 -0.2002
   50SOL    HW1  149   0.943   2.852   0.525  0.5199  0.5134 -0.3893
   50SOL    HW2  150   0.874   2.899   0.385  0.8100 -0.1220 -0.8115
   51SOL     OW  151   1.375   0.257   1.147 -0.0095  0.6349 -0.1111
   51SOL    HW1  152   1.350   0.355   1.163 -2.6183 -0.4716  0.9892
   51SOL    HW2  153   1.298   0.190   1.147  2.0786 -2.6355  1.4728
   52SOL     OW  154   0.187   0.790   0.669 -0.1870  0.0104  0.3543
   52SOL    HW1  155   0.154   0.780   0.575  2.0956  0.8503  0.7281
   52SOL    HW2  156   0.174   0.886   0.705 -0.0590 -0.1507  2.2054
   53SOL     OW  157   1.401   3.062   2.817  0.6228  0.2084  0.5729
   53SOL    HW1  158   1.392   2.962   2.825 -0.7786  4.2260  0.2580
   53SOL    HW2  159   1.371   0.023   2.722 -1.5769  2.2390 -2.4887
   54SOL     OW  160   2.263   0.573   2.176  0.3482 -0.4215  0.1660
   54SOL    HW1  161   2.293   0.515   2.254 -0.2483 -1.8584  2.5439
   54SOL    HW2  162   2.190   0.528   2.124 -0.2484 -0.6079 -0.6986
   55SOL     OW  163   2.719   2.776   0.199 -0.2888  0.9429 -0.3078
   55SOL    HW1  164   2.799   2.748   0.259  1.9935  0.1733 -0.1425
   55SOL    HW2  165   2.739   2.814   0.109  0.7746 -0.5808  0.4403
   56SOL     OW  166   0.757   0.167   2.021 -0.0941 -0.4486 -0.1839
   56SOL    HW1  167   0.665   0.133   1.994  1.1984  0.5750  2.2451
   56SOL    HW2  168   0.773   0.154   2.123 -1.5937 -0.9778 -0.4598
   57SOL     OW  169   1.671   0.823   2.332  0.0605 -0.2877 -0.1701
   57SOL    HW1  170   1.681   0.923   2.321 -1.4368  2.8183 -1.3753
   57SOL    HW2  171   1.711   0.773   2.253  1.3143  1.3047 -0.0724
   58SOL     OW  172   0.064   0.983   2.114  0.0085  0.0574 -0.6701
   58SOL    HW1  173   3.051   1.046   2.104 -2.6154 -0.9869  2.5100
   58SOL    HW2  174   0.079   0.913   2.044  1.9023  1.0457  3.5361
   59SOL     OW  175   0.510   2.677   1.505  0.1203 -0.6731 -0.1874
   59SOL    HW1  176   0.451   2.740   1.562  0.8268 -0.4110 -2.3157
   59SOL    HW2  177   0.545   2.719   1.420 -1.8188 -1.0239 -0.1194
   60SOL     OW  178   2.129   2.871   0.250 -0.2097  0.3281 -0.0760
   60SOL    HW1  179   2.068   2.807   0.307 -1.1203  0.0873 -0.9818
   60SOL    HW2  180   2.228   2.846   0.263  0.8133  0.8529  1.7448
   61SOL     OW  181   1.469   2.325   0.222 -0.2761 -0.1055  0.0242
   61SOL    HW1  182   1.461   2.314   0.323 -0.7443 -0.8003 -3.1658
   61SOL    HW2  183   1.459   2.421   0.191 -2.1523  0.7165  2.5823
   62SOL     OW  184   1.980   2.564   2.831  0.4876  0.0630 -0.2510
   62SOL    HW1  185   1.904   2.491   2.839 -0.1685  1.0871  1.2868
   62SOL    HW2  186   1.978   2.640   2.902 -0.1622 -0.8912 -0.8269
   63SOL     OW  187   2.225   0.734   0.705 -0.0097  0.5882 -0.0351
   63SOL    HW1  188   2.306   0.754   0.643  0.7896  0.1802  2.7475
   63SOL    HW2  189   2.180   0.814   0.744 -0.9646 -1.0073  0.1763
   64SOL     OW  190   1.692   1.079   0.013  0.5066 -0.4173  0.5159
   64SOL    HW1  191   1.714   1.181   0.015  1.3016  0.8541 -2.7368
   64SOL    HW2  192   1.593   1.056   0.016  2.0971 -0.5624  1.1654
   65SOL     OW  193   0.658   2.309   1.587 -0.1291 -0.4573 -0.1138
   65SOL    HW1  194   0.568   2.283   1.542 -0.9889  0.2773  0.2919
   65SOL    HW2  195   0.646   2.372   1.672  0.1976 -0.1335  0.8112
   66SOL     OW  196   0.975   1.321   1.298  0.0484 -0.3636 -0.4597
   66SOL    HW1  197   0.935   1.233   1.279  3.8119 -0.5070 -0.8585
   66SOL    HW2  198   0.966   1.381   1.216 -0.1963 -0.4227  3.0233
   67SOL     OW  199   2.293   1.921   1.799  0.5074  0.2826  0.4376
   67SOL    HW1  200   2.310   1.846   1.735  0.5224 -0.8257 -1.3804
   67SOL    HW2  201   2.284   1.881   1.892  3.2752 -0.8731  1.8433
   68SOL     OW  202   1.189   1.675   1.890 -0.0096 -0.0627 -0.2394
   68SOL    HW1  203   1.141   1.612   1.823 -0.0512 -0.1867 -0.9352
   68SOL    HW2  204   1.144   1.767   1.895  2.0740  0.9003  1.9785
   69SOL     OW  205   2.833   0.314   0.171 -0.4151  0.2937 -0.2583
   69SOL    HW1  206   2.766   0.319   0.249  0.6125  0.9658  0.4104
   69SOL    HW2  207   2.799   0.246   0.102 -0.0685 -3.2359 -0.4185
   70SOL     OW  208   2.248   1.198   2.308  0.1040 -0.2286 -0.2154
   70SOL    HW1  209   2.147   1.223   2.298 -2.4467 -0.8894  0.3565
   70SOL    HW2  210   2.295   1.276   2.356  0.2643  0.8101 -0.2680
   71SOL     OW  211   0.965   2.038   0.796  0.5068  0.3040 -0.2051
   71SOL    HW1  212   1.029   2.117   0.815 -0.6698  0.1188 -0.2232
   71SOL    HW2  213   0.932   2.004   0.884 -0.1939 -0.0374  0.3885
   72SOL     OW  214   2.345   1.824   0.481  0.1567 -0.1278  0.7336
   72SOL    HW1  215   2.244   1.813   0.490 -1.0591  1.6272  3.1067
   72SOL    HW2  216   2.386   1.887   0.550 -0.8604 -0.6582 -1.4877
   73SOL     OW  217   0.954   0.790   0.987 -0.1789 -0.7837  0.0203
   73SOL    HW1  218   0.973   0.894   0.964 -2.2353 -1.1879  1.6936
   73SOL    HW2  219   0.897   0.750   0.913  0.6479  0.3769  4.2999
   74SOL     OW  220   2.560   2.028   1.937 -0.1759 -0.2047 -0.7959
   74SOL    HW1  221   2.537   2.044   1.842 -1.6214 -2.0205  1.5492
   74SOL    HW2  222   2.572   1.930   1.967  2.2160 -1.3312 -0.5440
   75SOL     OW  223   1.672   1.750   2.044  0.3902  0.1337  0.2727
   75SOL    HW1  224   1.581   1.714   2.015  2.0646  1.5567 -1.9448
   75SOL    HW2  225   1.730   1.684   2.093 -1.4481  1.6319 -0.3425
   76SOL     OW  226   1.271   1.577   1.046  0.3212  0.1464 -0.0122
   76SOL    HW1  227   1.178   1.620   1.025  0.6695 -0.2443 -1.4740
   76SOL    HW2  228   1.350   1.624   1.013 -3.3468 -1.2314  4.3808
   77SOL     OW  229   2.365   1.206   1.587 -0.7205  0.2526  0.6446
   77SOL    HW1  230   2.422   1.242   1.515  1.2793  0.5431 -1.2858
   77SOL    HW2  231   2.271   1.184   1.559  2.2545  0.5840 -2.8748
   78SOL     OW  232   1.711   0.647   0.281  0.6873 -0.0550 -0.2097
   78SOL    HW1  233   1.722   0.722   0.210 -2.9893  0.1767 -1.5909
   78SOL    HW2  234   1.658   0.567   0.246  1.9311 -2.3866 -3.0773
   79SOL     OW  235   1.149   1.561   2.132 -0.2303 -0.0044 -0.3348
   79SOL    HW1  236   1.142   1.603   2.042 -0.0358  0.3337  1.9661
   79SOL    HW2  237   1.061   1.572   2.185  0.7878 -0.4110  0.6730
   80SOL     OW  238   1.084   0.278   1.402  0.5998 -0.0115 -0.6323
   80SOL    HW1  239   1.100   0.375   1.432  0.7937  0.6115  0.6050
   80SOL    HW2  240   1.150   0.209   1.452  0.5746 -2.1902  2.0090
   81SOL     OW  241   0.451   2.464   0.248 -0.1592 -0.2212  0.0816
   81SOL    HW1  242   0.531   2.508   0.198  2.0035  0.8665  0.4923
   81SOL    HW2  243   0.490   2.413   0.330 -1.2702 -1.1197  1.2805
   82SOL     OW  244   1.174   0.082   1.594 -0.0041 -0.7473  0.2473
   82SOL    HW1  245   1.142   0.056   1.688  0.6614  0.7704  1.9824
   82SOL    HW2  246   1.276   0.063   1.588 -0.2849  2.1781 -0.5822
   83SOL     OW  247   0.359   2.343   0.970  0.0543 -0.2784 -0.0700
   83SOL    HW1  248   0.286   2.334   1.040 -1.1601 -5.5842  3.2851
   83SOL    HW2  249   0.371   2.257   0.922 -1.6183  0.1726  1.7112
   84SOL     OW  250   2.687   1.372   1.070 -0.2441 -0.9317 -0.0350
   84SOL    HW1  251   2.681   1.274   1.068 -1.6239 -0.5432  2.0782
   84SOL    HW2  252   2.735   1.406   0.982  0.6433  0.4100 -1.0378
   85SOL     OW  253   2.310   1.891   1.162 -0.0483 -0.6887 -0.2215
   85SOL    HW1  254   2.270   1.883   1.257  0.3859 -0.4286 -1.0262
   85SOL    HW2  255   2.401   1.933   1.169 -0.2190  1.4614 -0.4819
   86SOL     OW  256   1.305   2.174   1.999  0.2542 -0.0818 -0.1974
   86SOL    HW1  257   1.251   2.147   1.915  0.5484  2.8591  2.8406
   86SOL    HW2  258   1.401   2.164   1.971 -0.9307 -2.8888  0.0511
   87SOL     OW  259   2.197   1.440   0.673  0.1176 -0.0093 -0.1739
   87SOL    HW1  260   2.214   1.374   0.597  0.7724  1.8175  0.6103
   87SOL    HW2  261   2.279   1.498   0.671 -0.1225 -0.6520 -2.3824
   88SOL     OW  262   0.408   3.070   0.973  0.1439 -0.5659  0.1367
   88SOL    HW1  263   0.352   0.050   0.908  2.2674 -1.6102  0.5186
   88SOL    HW2  264   0.503   3.061   0.941 -2.7174 -0.1189  1.6246
   89SOL     OW  265   0.601   0.982   1.792 -0.4887 -0.1822  0.3362
   89SOL    HW1  266   0.599   0.902   1.856  2.0335  1.8563 -0.1281
   89SOL    HW2  267   0.694   0.990   1.747  6.1540  2.0154  0.3188
   90SOL     OW  268   2.779   1.961   0.368 -0.1545 -0.7517 -0.2002
   90SOL    HW1  269   2.710   2.024   0.404 -3.0651 -2.2551  0.6793
   90SOL    HW2  270   2.783   1.878   0.424  1.3246  1.7895  1.7807
   91SOL     OW  271   0.836   1.946   1.018  0.1215 -0.4040  0.0377
   91SOL    HW1  272   0.831   2.016   1.093 -1.5552  0.2546  0.2213
   91SOL    HW2  273   0.757   1.879   1.018 -0.3649 -1.8138 -1.8350
   92SOL     OW  274   2.199   0.001   1.785 -0.7638  0.0550 -0.0758
   92SOL    HW1  275   2.293   0.028   1.826  3.3343  0.6567  1.8063
   92SOL    HW2  276   2.132   3.048   1.857 -1.4151  3.0708 -0.9985
   93SOL     OW  277   0.340   1.795   2.845  0.3190 -0.1851 -0.0962
   93SOL    HW1  278   0.318   1.721   2.904  1.4269  2.1941 -1.6872
   93SOL    HW2  279   0.429   1.834   2.869 -1.6085 -1.9515  2.1645
   94SOL     OW  280   2.456   0.030   1.864 -0.1780  0.5676 -0.0040
   94SOL    HW1  281   2.452   0.125   1.899  0.9339  0.0160 -2.3827
   94SOL    HW2  282   2.543   0.026   1.803  0.2410  2.2642 -2.1818
   95SOL     OW  283   1.972   0.210   1.903 -0.7025  0.0961  0.3785
   95SOL    HW1  284   2.030   0.234   1.817  0.4755 -0.7855 -0.5337
   95SOL    HW2  285   1.981   0.113   1.929  0.0249  1.3650 -3.4825
   96SOL     OW  286   0.418   0.500   2.044 -0.0273 -0.2601  0.6474
   96SOL    HW1  287   0.325   0.475   2.066  2.1596 -1.2550  1.4031
   96SOL    HW2  288   0.435   0.602   2.032  0.1540 -0.0431 -0.2382
   97SOL     OW  289   2.098   2.970   1.363 -0.1848 -0.4900  0.3889
   97SOL    HW1  290   2.090   3.068   1.381 -1.3253  0.9351 -1.6974
   97SOL    HW2  291   2.004   2.927   1.348 -0.6940  0.0691  1.0043
   98SOL     OW  292   1.938   2.205   1.666  0.1683 -0.1344 -0.0277
   98SOL    HW1  293   2.007   2.277   1.691  2.0145 -0.9670 -0.4991
   98SOL    HW2  294   1.964   2.123   1.722 -0.6461  0.4623  1.7529
   99SOL     OW  295   0.614   0.721   0.984 -0.1534 -0.3213 -0.1142
   99SOL    HW1  296   0.529   0.729   0.933  3.0223 -0.7907  1.2113
   99SOL    HW2  297   0.682   0.678   0.928  1.9165 -0.0633  0.0375
  100SOL     OW  298   2.715   1.833   2.044  0.4013 -0.4596  0.2336
  100SOL    HW1  299   2.708   1.767   2.124  3.3404  0.3714 -1.3158
  100SOL    HW2  300   2.752   1.923   2.075 -0.1666  0.5497 -1.2278
  101SOL     OW  301   1.602   0.146   2.960 -0.2335 -0.0577 -0.0037
  101SOL    HW1  302   1.561   0.240   2.973  0.9555  2.4562 -1.0239
  101SOL    HW2  303   1.533   0.080   2.919 -2.0277  0.8852 -1.1862
  102SOL     OW  304   2.890   2.949   1.225  0.1937 -0.0180 -0.3956
  102SOL    HW1  305   2.833   3.039   1.230 -1.7244  0.6261 -0.8182
  102SOL    HW2  306   2.988   2.975   1.215 -0.0988  0.2031  0.3719
  103SOL     OW  307   0.343   2.896   2.361 -0.0778 -0.4625  0.4867
  103SOL    HW1  308   0.339   2.891   2.464  1.1131  3.2490 -0.7223
  103SOL    HW2  309   0.420   2.850   2.318 -0.0622 -1.5106 -0.9901
  104SOL     OW  310   0.387   2.222   1.472  0.7123 -0.4897  0.0490
  104SOL    HW1  311   0.287   2.229   1.454  2.2035  0.3942 -0.5062
  104SOL    HW2  312   0.424   2.148   1.410 -1.0882 -1.0460 -2.6739
  105SOL     OW  313   0.582   1.952   2.015  0.2499 -0.3114  0.1374
  105SOL    HW1  314   0.571   1.863   2.067  0.6479  2.0736 -0.7855
  105SOL    HW2  315   0.631   2.021   2.069 -1.5358 -0.6545 -1.0140
  106SOL     OW  316   2.514   2.866   0.510  0.0149  0.9608  0.1642
  106SOL    HW1  317   2.503   2.875   0.609 -0.6093 -1.2543 -2.7079
  106SOL    HW2  318   2.612   2.872   0.488 -3.2072 -0.0833 -1.4445
  107SOL     OW  319   0.685   1.194   0.990  0.0143  0.7900  0.1078
  107SOL    HW1  320   0.636   1.257   1.058  0.7257  3.1298  0.6780
  107SOL    HW2  321   0.652   1.098   1.008 -0.6909 -0.7928 -0.3872
  108SOL     OW  322   2.952   1.134   2.006  0.1144  0.2359  0.0362
  108SOL    HW1  323   2.849   1.151   2.013 -4.1504 -2.6455  0.8968
  108SOL    HW2  324   2.992   1.201   1.943  2.4633 -1.8032  1.0072
  109SOL     OW  325   1.942   2.795   3.041  0.3659 -0.4904 -0.0521
  109SOL    HW1  326   1.970   2.876   0.023 -1.5322 -0.5337  2.5948
  109SOL    HW2  327   1.841   2.797   3.027  1.2750 -0.0198  0.4857
  110SOL     OW  328   0.151   2.040   2.885  0.2936  0.1578 -0.0393
  110SOL    HW1  329   0.226   1.985   2.848 -3.7820 -0.9969 -1.2771
  110SOL    HW2  330   0.086   1.982   2.937 -0.4880 -1.1861 -1.0774
  111SOL     OW  331   2.794   0.835   2.389 -0.7771  0.1000  0.2072
  111SOL    HW1  332   2.785   0.798   2.484  0.1883 -0.3816 -2.1367
  111SOL    HW2  333   2.882   0.814   2.345 -0.5437  2.3661  0.9642
  112SOL     OW  334   2.267   2.639   1.664  0.0785  0.4151 -0.2609
  112SOL    HW1  335   2.281   2.734   1.639  0.9481  0.5328 -0.8165
  112SOL    HW2  336   2.299   2.615   1.759 -0.7307 -1.2785 -0.1307
  113SOL     OW  337   2.283   1.826   2.671  0.0196  0.4225  0.0845
  113SOL    HW1  338   2.328   1.739   2.703  0.9913  1.0748  1.5790
  113SOL    HW2  339   2.221   1.870   2.740  0.4474  0.6184  0.8427
  114SOL     OW  340   0.593   0.118   0.566  0.3116 -0.2813 -0.0565
  114SOL    HW1  341   0.590   0.016   0.559  1.4363 -2.9884 -0.7163
  114SOL    HW2  342   0.690   0.145   0.598 -1.0387  2.8209 -1.1221
  115SOL     OW  343   2.982   1.754   2.900 -0.0142  0.4789  0.3548
  115SOL    HW1  344   2.983   1.657   2.933  1.5070 -1.3416  0.5392
  115SOL    HW2  345   3.026   1.820   2.967 -1.4353  4.3842  0.3157
  116SOL     OW  346   3.031   1.317   1.845  0.0970 -0.4673 -0.1471
  116SOL    HW1  347   0.057   1.333   1.808  1.0444  2.4214  1.9383
  116SOL    HW2  348   2.975   1.403   1.849 -0.9525 -0.1744  0.8883
  117SOL     OW  349   2.051   0.192   1.419 -0.8619  0.3729  0.8291
  117SOL    HW1  350   2.077   0.258   1.349  0.8512 -1.6260 -1.8623
  117SOL    HW2  351   1.950   0.172   1.428  1.3422  0.5828  0.4493
  118SOL     OW  352   2.844   2.345   2.044 -0.1637  0.6069  0.1150
  118SOL    HW1  353   2.772   2.378   1.982  0.2056 -1.9608 -1.3261
  118SOL    HW2  354   2.929   2.399   2.047  1.8651 -0.7772 -0.7082
  119SOL     OW  355   0.326   1.578   1.669  0.4369 -0.1585  0.3055
  119SOL    HW1  356   0.351   1.669   1.633  1.5172 -3.7598  1.3039
  119SOL    HW2  357   0.415   1.525   1.671  2.3934  2.1279 -1.5026
  120SOL     OW  358   0.200   1.349   1.762  0.2447 -0.1279 -0.2896
  120SOL    HW1  359   0.269   1.280   1.728 -2.1848 -2.7222  1.0238
  120SOL    HW2  360   0.231   1.448   1.745  1.3859  2.1621  0.2426
  121SOL     OW  361   1.511   0.930   0.745 -0.3115 -0.3708  0.1496
  121SOL    HW1  362   1.432   0.889   0.695  0.3761 -1.8856  1.0079
  121SOL    HW2  363   1.596   0.873   0.754  2.6591 -2.7778  1.0500
  122SOL     OW  364   2.323   2.147   2.827 -0.4278 -0.2110  0.0753
  122SOL    HW1  365   2.298   2.224   2.894 -1.0415 -1.5515 -0.8155
  122SOL    HW2  366   2.332   2.182   2.732 -2.8514 -0.6633 -3.8370
  123SOL     OW  367   0.068   0.362   0.581 -0.0980 -0.7665 -0.1269
  123SOL    HW1  368   3.045   0.399   0.583 -0.0213 -3.2726  1.3700
  123SOL    HW2  369   0.080   0.285   0.645 -0.7873  1.6318  1.6281
  124SOL     OW  370   1.778   1.322   0.055  0.0921  0.7394  0.0055
  124SOL    HW1  371   1.784   1.411   0.004  3.1491  1.2586  0.5172
  124SOL    HW2  372   1.863   1.273   0.078 -0.3484 -2.1333 -0.0720
  125SOL     OW  373   3.045   0.773   2.286  0.1051 -0.1342 -0.1879
  125SOL    HW1  374   0.006   0.752   2.382  0.2290 -0.0653  0.9671
  125SOL    HW2  375   0.010   0.857   2.245 -1.6308 -6.0922  2.6289
  126SOL     OW  376   3.022   2.725   0.062 -0.1756  0.8191 -0.4736
  126SOL    HW1  377   2.953   2.676   0.004  1.0145 -2.0154 -1.2296
  126SOL    HW2  378   3.004   2.696   0.160  0.2232 -2.7379  3.1079
  127SOL     OW  379   2.636   1.851   0.119 -0.0736  0.2149 -0.1901
  127SOL    HW1  380   2.693   1.909   0.176  2.8034 -3.4804 -1.8082
  127SOL    HW2  381   2.563   1.902   0.068 -1.2884  0.7739  2.6651
  128SOL     OW  382   0.933   1.084   0.911 -0.7137  0.0040  0.1153
  128SOL    HW1  383   1.025   1.124   0.884  3.1118 -0.2905  1.7393
  128SOL    HW2  384   0.874   1.146   0.962 -2.8710 -1.4887  1.2751
  129SOL     OW  385   2.256   2.133   1.001 -0.5267  0.1593  0.7781
  129SOL    HW1  386   2.267   2.052   1.067  1.4786 -0.5894  0.9852
  129SOL    HW2  387   2.188   2.201   1.038  0.9255  0.9383  1.1996
  130SOL     OW  388   2.087   0.788   0.276  0.1210  0.2454  0.6812
  130SOL    HW1  389   2.108   0.789   0.176 -1.2514  0.4193  3.3954
  130SOL    HW2  390   1.993   0.817   0.283  1.6761  0.3811 -0.3784
  131SOL     OW  391   2.957   1.523   2.619 -0.2318 -0.1005 -0.5551
  131SOL    HW1  392   2.965   1.477   2.524  0.8733 -0.5896 -3.1088
  131SOL    HW2  393   2.983   1.623   2.610  2.1986  0.5069  0.0072
  132SOL     OW  394   1.045   1.035   1.903  0.2874 -0.5376 -0.1654
  132SOL    HW1  395   0.986   1.120   1.919 -0.7652 -1.3510 -1.4892
  132SOL    HW2  396   1.120   1.053   1.835 -0.4520 -0.6055  0.0531
  133SOL     OW  397   0.472   1.188   0.750 -0.6863 -0.5286  0.3688
  133SOL    HW1  398   0.539   1.180   0.672 -0.9262 -0.5163  0.0607
  133SOL    HW2  399   0.467   1.285   0.770 -1.4133  0.5565  0.9875
  134SOL     OW  400   3.003   1.517   3.057 -0.2252 -0.1155 -0.0505
  134SOL    HW1  401   3.050   1.481   0.070  2.9168 -1.1755 -0.7288
  134SOL    HW2  402   3.041   1.466   2.978  0.8824  0.4255 -0.0845
  135SOL     OW  403   1.799   0.812   0.068 -0.4242 -0.0470  0.1277
  135SOL    HW1  404   1.752   0.900   0.053  0.3067 -1.6403  0.5359
  135SOL    HW2  405   1.813   0.770   3.049 -1.3863  0.5728  0.9104
  136SOL     OW  406   2.181   1.876   1.399  0.1309  0.2496 -0.0851
  136SOL    HW1  407   2.115   1.797   1.403  1.2280 -0.6024  0.7818
  136SOL    HW2  408   2.133   1.964   1.383  1.2973 -2.6489 -2.3161
  137SOL     OW  409   2.170   2.679   0.537  0.3098  0.6523 -0.0281
  137SOL    HW1  410   2.193   2.745   0.614 -0.1747 -0.9664 -3.2094
  137SOL    HW2  411   2.074   2.692   0.504  2.0098  1.3277  1.5966
  138SOL     OW  412   2.211   0.450   1.796  0.3561 -0.1423 -0.3161
  138SOL    HW1  413   2.130   0.513   1.818 -3.6200  3.2219 -1.0922
  138SOL    HW2  414   2.173   0.373   1.740  0.2993 -0.8395 -0.8936
  139SOL     OW  415   2.614   2.404   2.901 -0.2453  0.2362  0.1448
  139SOL    HW1  416   2.603   2.302   2.884 -0.9760  1.0654  0.9307
  139SOL    HW2  417   2.606   2.460   2.815  1.5415 -0.1685  1.7646
  140SOL     OW  418   1.609   2.078   2.530  0.0088 -0.5317 -0.1336
  140SOL    HW1  419   1.676   2.144   2.570  1.1935 -1.0208  0.1457
  140SOL    HW2  420   1.658   1.999   2.497 -2.4184  1.5330  1.5954
  141SOL     OW  421   1.162   1.173   2.520 -0.4540  0.0468  0.1075
  141SOL    HW1  422   1.195   1.151   2.614  1.0873 -0.3247 -2.4524
  141SOL    HW2  423   1.242   1.173   2.456  1.5851  0.1801  1.6537
  142SOL     OW  424   2.022   2.597   2.108 -0.3163  0.8056 -0.1776
  142SOL    HW1  425   2.006   2.498   2.092  1.3917 -0.3869  0.5792
  142SOL    HW2  426   2.042   2.648   2.023  0.0984 -2.5163  0.4492
  143SOL     OW  427   1.064   2.383   0.387  0.5401  0.3479 -0.4019
  143SOL    HW1  428   1.046   2.391   0.492 -1.9240  2.2304  4.6190
  143SOL    HW2  429   1.011   2.304   0.347  2.1017 -1.2694 -0.2936
  144SOL     OW  430   0.702   2.609   0.438  0.1748  0.0079 -0.8229
  144SOL    HW1  431   0.781   2.668   0.448 -0.3738 -2.4325  1.1455
  144SOL    HW2  432   0.696   2.556   0.354  0.5065  2.5121 -1.2660
  145SOL     OW  433   1.735   2.412   2.851  0.2914  0.0046 -0.1309
  145SOL    HW1  434   1.654   2.410   2.788  0.1669  1.9790  0.3928
  145SOL    HW2  435   1.722   2.349   2.924  0.0016 -2.6268 -0.7179
  146SOL     OW  436   2.051   2.540   0.078  0.0558 -0.0814 -0.3880
  146SOL    HW1  437   1.994   2.613   0.035 -1.7982 -0.8209  0.7236
  146SOL    HW2  438   2.071   2.557   0.175 -1.7925 -2.0833 -0.2029
  147SOL     OW  439   0.299   1.633   1.937  0.1167 -0.2001 -0.1962
  147SOL    HW1  440   0.337   1.608   1.842  0.2136 -2.0605 -4.1639
  147SOL    HW2  441   0.197   1.652   1.941  0.8261 -0.1714  1.9065
  148SOL     OW  442   1.462   2.843   0.061 -0.0193  0.5803 -0.0648
  148SOL    HW1  443   1.449   2.900   0.143  2.0809 -1.1169 -2.9503
  148SOL    HW2  444   1.387   2.845   3.064  0.9237  3.0527  0.9707
  149SOL     OW  445   0.476   2.026   0.059  0.1711 -0.4652  0.0185
  149SOL    HW1  446   0.554   2.063   0.001  1.0841  0.7715 -0.6679
  149SOL    HW2  447   0.410   2.101   0.084  0.1448 -1.8686  2.5786
  150SOL     OW  448   0.262   2.650   1.168 -0.6822  0.0176  0.6314
  150SOL    HW1  449   0.315   2.574   1.212  1.7114 -0.8386  2.5089
  150SOL    HW2  450   0.187   2.689   1.222 -0.8104  1.3418 -2.5718
  151SOL     OW  451   0.315   1.562   2.996  0.3997 -0.2394 -0.8134
  151SOL    HW1  452   0.294   1.513   2.911  0.4250  1.2852  2.0332
  151SOL    HW2  453   0.370   1.501   3.057  0.0624  2.1733 -0.2208
  152SOL     OW  454   2.944   2.152   0.971  0.0277  0.2597  0.2254
  152SOL    HW1  455   2.867   2.091   0.991 -3.0915 -1.1634  1.2715
  152SOL    HW2  456   2.914   2.250   0.955  1.4258 -2.0667 -0.8332
  153SOL     OW  457   1.480   2.278   0.481  0.1000 -0.2730  0.5568
  153SOL    HW1  458   1.569   2.234   0.494 -2.2839  0.6351 -0.9371
  153SOL    HW2  459   1.407   2.219   0.518  0.4302 -1.4557  3.9772
  154SOL     OW  460   0.686   0.008   1.590 -0.3234 -0.1506 -0.1349
  154SOL    HW1  461   0.637   3.058   1.504  2.5126 -0.2943 -1.7854
  154SOL    HW2  462   0.696   0.110   1.598 -0.0075 -1.4411 -0.3518
  155SOL     OW  463   2.595   2.154   0.460  0.0557 -0.4885  0.3221
  155SOL    HW1  464   2.668   2.171   0.530 -0.2918  1.5212  1.5466
  155SOL    HW2  465   2.499   2.152   0.498  1.5792 -0.6423 -2.1418
  156SOL     OW  466   2.302   1.986   0.235 -0.1368 -0.0647  0.0119
  156SOL    HW1  467   2.361   2.063   0.198 -1.5859 -1.5877  0.7630
  156SOL    HW2  468   2.334   1.949   0.325  2.1190  1.9189 -1.3594
  157SOL     OW  469   0.464   2.858   1.910  0.3077 -0.1298 -0.0864
  157SOL    HW1  470   0.493   2.938   1.964 -0.3142  0.1724  1.7967
  157SOL    HW2  471   0.473   2.777   1.971 -0.7891  2.4504 -0.0787
  158SOL     OW  472   1.288   0.525   1.214 -0.0537  0.2373  0.0834
  158SOL    HW1  473   1.255   0.579   1.134 -0.0858 -2.5445 -0.2141
  158SOL    HW2  474   1.224   0.531   1.294  0.2427  1.8489 -0.5828
  159SOL     OW  475   1.841   1.065   2.861 -0.2265  1.1226  0.5452
  159SOL    HW1  476   1.809   0.996   2.792  3.1938 -0.2988 -3.2353
  159SOL    HW2  477   1.796   1.048   2.948  2.2339 -1.6972  0.7401
  160SOL     OW  478   1.038   2.027   0.464 -0.0420  0.7450 -0.4426
  160SOL    HW1  479   1.001   2.098   0.399  0.9610  1.8175  1.9888
  160SOL    HW2  480   0.969   1.993   0.533  0.2685 -2.6113  4.3711
  161SOL     OW  481   2.700   2.090   2.465  0.5173  0.0208  0.4703
  161SOL    HW1  482   2.715   2.180   2.518  0.1249  3.3651 -1.5761
  161SOL    HW2  483   2.613   2.048   2.479  4.7451  3.5717 -2.0383
  162SOL     OW  484   0.136   2.207   1.343  0.0363  0.5976 -0.1595
  162SOL    HW1  485   0.161   2.244   1.254  1.4621  0.1736  0.5933
  162SOL    HW2  486   0.038   2.215   1.371 -1.0158 -0.4560  0.3190
  163SOL     OW  487   0.375   0.611   2.760  0.3481 -0.5090 -0.0825
  163SOL    HW1  488   0.416   0.596   2.850 -2.0393  0.9338 -5.3207
  163SOL    HW2  489   0.283   0.654   2.770 -1.0300  1.0013 -3.2579
  164SOL     OW  490   0.153   2.674   2.733  0.5407  0.1688 -0.1621
  164SOL    HW1  491   0.110   2.579   2.745  1.8604  0.7898  1.5859
  164SOL    HW2  492   0.172   2.720   2.825 -1.9157  1.6819  0.6879
  165SOL     OW  493   2.462   0.910   1.442 -0.2685  0.0418  0.5718
  165SOL    HW1  494   2.451   1.014   1.440  0.9293  0.3513 -0.9345
  165SOL    HW2  495   2.503   0.883   1.532 -0.6978 -1.6688  1.1563
  166SOL     OW  496   1.978   1.654   1.492  0.2402 -0.0780  0.1825
  166SOL    HW1  497   2.056   1.590   1.495  0.5467 -0.3570 -1.0136
  166SOL    HW2  498   1.892   1.599   1.492  0.4410 -1.0196 -0.2035
  167SOL     OW  499   0.134   0.634   3.037 -0.1304 -0.1814 -0.1473
  167SOL    HW1  500   0.063   0.585   0.018 -3.5841 -3.1497 -0.4316
  167SOL    HW2  501   0.216   0.648   0.027 -0.1847 -1.6781  0.9253
  168SOL     OW  502   2.087   0.343   2.683 -0.2406  0.1865  0.3201
  168SOL    HW1  503   2.002   0.371   2.724  1.7559 -0.7986 -0.8498
  168SOL    HW2  504   2.166   0.401   2.711  0.3264  1.8723 -1.2073
  169SOL     OW  505   0.447   1.114   2.956  0.4734 -0.2815  0.2968
  169SOL    HW1  506   0.412   1.192   3.012  0.3728  1.6395  0.7672
  169SOL    HW2  507   0.390   1.029   2.957 -1.2284 -3.0927  0.6207
  170SOL     OW  508   1.186   1.159   1.668  0.5759 -0.1750 -0.4600
  170SOL    HW1  509   1.284   1.122   1.679  0.8960  2.1524  2.0289
  170SOL    HW2  510   1.182   1.244   1.618  0.1031  0.0756  1.0170
  171SOL     OW  511   1.382   2.650   1.175  0.3939  0.0054 -0.1155
  171SOL    HW1  512   1.400   2.750   1.195 -0.6194  0.7528  0.1451
  171SOL    HW2  513   1.467   2.597   1.162  1.7462 -0.5506  0.9775
  172SOL     OW  514   0.933   2.888   1.934  0.1654  0.3046  0.1455
  172SOL    HW1  515   0.841   2.879   1.897 -1.9817  0.9890 -0.2793
  172SOL    HW2  516   1.005   2.817   1.895  0.7916  1.3562 -2.0292
  173SOL     OW  517   0.632   2.459   0.703 -0.1372 -0.3796 -0.4217
  173SOL    HW1  518   0.722   2.498   0.680 -1.2290 -2.6249  1.7781
  173SOL    HW2  519   0.596   2.504   0.787 -0.4704 -0.4842 -1.1508
  174SOL     OW  520   2.159   0.170   0.265 -0.3300 -0.6232  0.8167
  174SOL    HW1  521   2.072   0.123   0.238 -1.2849 -2.1301 -3.0072
  174SOL    HW2  522   2.231   0.149   0.200 -0.6315  0.2781  1.3324
  175SOL     OW  523   1.000   1.417   0.812  0.1793  0.2641  0.2449
  175SOL    HW1  524   1.042   1.506   0.793 -1.5229 -4.0404 -0.7535
  175SOL    HW2  525   0.900   1.420   0.792 -2.3251  1.1679 -0.7615
  176SOL     OW  526   1.064   1.766   1.031  0.0867  0.0280 -0.1682
  176SOL    HW1  527   1.135   1.827   1.068 -1.5708 -4.5694 -2.2724
  176SOL    HW2  528   0.979   1.824   1.023 -0.3566  1.7505  1.0574
  177SOL     OW  529   1.429   0.899   1.022 -0.0886 -0.3490  0.4974
  177SOL    HW1  530   1.495   0.847   1.077 -2.6018  0.3066 -0.7416
  177SOL    HW2  531   1.473   0.930   0.936  1.8716  3.1713  1.3310
  178SOL     OW  532   2.262   1.320   0.419  0.2673  0.2658 -0.6351
  178SOL    HW1  533   2.361   1.359   0.412  1.6272 -0.4789  1.2908
  178SOL    HW2  534   2.190   1.374   0.369 -2.4726 -0.5564 -0.0106
  179SOL     OW  535   1.254   2.816   2.961 -0.0635 -0.2591 -0.1043
  179SOL    HW1  536   1.182   2.784   3.022  2.0398  3.3740 -0.6248
  179SOL    HW2  537   1.259   2.753   2.881  1.8157 -0.5963  0.3045
  180SOL     OW  538   1.851   1.264   1.350 -0.0414  0.3235  0.4581
  180SOL    HW1  539   1.845   1.358   1.389 -2.7364  0.3524 -2.3791
  180SOL    HW2  540   1.853   1.264   1.251 -0.7465  2.4017 -0.4422
  181SOL     OW  541   0.923   1.090   1.636  0.0560  0.9584  0.5273
  181SOL    HW1  542   1.020   1.104   1.624 -3.0451  0.3309 -0.5094
  181SOL    HW2  543   0.912   0.998   1.680  3.9894 -2.8175 -1.2155
  182SOL     OW  544   2.801   0.885   3.027  0.2605 -0.2644 -0.1404
  182SOL    HW1  545   2.827   0.871   2.927  0.8856 -0.8291 -2.9934
  182SOL    HW2  546   2.819   0.981   3.053  0.9600 -1.7357 -4.1797
  183SOL     OW  547   1.753   0.368   1.846  0.1426 -0.1579  0.3401
  183SOL    HW1  548   1.831   0.315   1.881  0.2093  1.7483 -1.3255
  183SOL    HW2  549   1.677   0.311   1.811  0.1909  0.9724  0.0497
  184SOL     OW  550   0.855   0.598   1.187 -0.0832  0.1797  0.2146
  184SOL    HW1  551   0.873   0.668   1.112  0.4907 -1.8567  0.5595
  184SOL    HW2  552   0.886   0.508   1.153  1.2607  1.5272  1.4122
  185SOL     OW  553   2.311   1.127   0.599 -0.2902 -0.1604 -0.0661
  185SOL    HW1  554   2.359   1.174   0.682  1.2880 -0.9209  2.6045
  185SOL    HW2  555   2.301   1.200   0.528 -1.8511 -0.1879  0.4299
  186SOL     OW  556   0.267   2.107   0.413  0.0408  0.8091 -0.5356
  186SOL    HW1  557   0.179   2.147   0.384  1.3738  1.8381 -2.4477
  186SOL    HW2  558   0.344   2.155   0.366  3.5712  0.8012 -1.5000
  187SOL     OW  559   1.830   2.022   2.752  0.0054 -0.2373  0.2008
  187SOL    HW1  560   1.930   2.004   2.748 -1.1717 -2.2415  0.6297
  187SOL    HW2  561   1.813   2.111   2.699  1.3592  0.7017  0.9096
  188SOL     OW  562   1.081   2.485   1.463  0.0975 -0.7567  0.0966
  188SOL    HW1  563   1.082   2.588   1.467  0.7130  1.4041 -1.1503
  188SOL    HW2  564   1.144   2.459   1.390 -0.4506  0.7603  2.3689
  189SOL     OW  565   2.745   1.172   2.659 -0.3102 -0.2053 -0.5209
  189SOL    HW1  566   2.732   1.267   2.693  3.0828  0.9518 -1.2046
  189SOL    HW2  567   2.843   1.150   2.655 -0.1561 -1.3561  1.3851
  190SOL     OW  568   0.973   2.759   2.220 -0.2127  0.0979  0.5775
  190SOL    HW1  569   0.924   2.687   2.162  2.4533 -3.4067  0.7773
  190SOL    HW2  570   0.941   2.854   2.196 -1.3834  1.4333  0.7100
  191SOL     OW  571   2.381   1.071   1.009  0.1042 -0.0487  0.2248
  191SOL    HW1  572   2.349   0.981   1.035 -0.1894 -0.6353 -2.2550
  191SOL    HW2  573   2.339   1.136   1.075 -1.5097 -2.4221  1.3137
  192SOL     OW  574   1.975   0.495   1.058 -0.2187 -0.2091 -0.3312
  192SOL    HW1  575   1.967   0.482   1.163 -0.2635 -1.1056  4.0005
  192SOL    HW2  576   1.935   0.415   1.007 -0.8546 -1.3210  1.5856
  193SOL     OW  577   1.122   0.133   0.170  0.5052  0.2957 -0.0436
  193SOL    HW1  578   1.186   0.158   0.099  0.1326 -0.2956  2.3563
  193SOL    HW2  579   1.041   0.193   0.175 -0.9992 -3.9401 -0.8329
  194SOL     OW  580   1.612   2.279   0.970 -0.0393 -0.0011 -0.2530
  194SOL    HW1  581   1.568   2.338   0.899  2.3198 -0.7370 -0.0833
  194SOL    HW2  582   1.543   2.214   1.009  1.7361  0.2770  0.7878
  195SOL     OW  583   2.806   0.842   0.625  0.4122 -0.7045  0.2889
  195SOL    HW1  584   2.719   0.861   0.675  5.4558  0.1932 -2.6638
  195SOL    HW2  585   2.795   0.762   0.565  0.1137  2.6414 -0.8308
  196SOL     OW  586   0.623   2.540   1.728  0.4356 -0.1137 -0.5429
  196SOL    HW1  587   0.585   2.588   1.645  1.4971 -1.7657  0.5095
  196SOL    HW2  588   0.545   2.499   1.783  1.6982 -2.7579  1.3060
  197SOL     OW  589   2.823   0.365   2.529  0.5668 -0.1611  0.3753
  197SOL    HW1  590   2.744   0.410   2.479 -0.8254 -0.2072  1.9159
  197SOL    HW2  591   2.858   0.285   2.473  0.3801 -0.6337 -2.2101
  198SOL     OW  592   2.107   1.532   0.301 -0.1354  0.0008 -0.3975
  198SOL    HW1  593   2.195   1.510   0.250  1.1973 -0.2758  0.1928
  198SOL    HW2  594   2.042   1.590   0.254 -0.9690 -0.6359 -0.2420
  199SOL     OW  595   2.332   0.698   1.732  0.0904  0.4776  0.0904
  199SOL    HW1  596   2.306   0.743   1.821  1.0207 -0.7679 -2.6890
  199SOL    HW2  597   2.327   0.602   1.758  0.5725 -1.0793 -0.6043
  200SOL     OW  598   1.677   3.071   2.659  0.4906 -0.3805  0.2797
  200SOL    HW1  599   1.734   0.060   2.715 -3.4369 -0.4113 -1.5065
  200SOL    HW2  600   1.660   2.987   2.713  0.2642 -0.8326  2.4162
  201SOL     OW  601   2.732   0.085   1.240 -0.1455  0.3963  0.0205
  201SOL    HW1  602   2.661   0.014   1.250 -1.0467  0.9628 -0.4102
  201SOL    HW2  603   2.688   0.172   1.214  0.3197  3.4375  3.9453
  202SOL     OW  604   2.794   2.910   0.523  0.1020 -0.1799 -0.0423
  202SOL    HW1  605   2.812   3.010   0.485  2.4217  2.7465 -1.3989
  202SOL    HW2  606   2.813   2.916   0.622 -2.4442 -0.3164 -0.9444
  203SOL     OW  607   1.725   1.772   0.615 -0.1028 -0.4947 -0.3075
  203SOL    HW1  608   1.637   1.812   0.628  1.8539  1.1566  1.5914
  203SOL    HW2  609   1.799   1.828   0.652 -2.8521 -1.3195  0.4548
  204SOL     OW  610   0.478   1.727   2.119  0.0247 -0.5585  0.3564
  204SOL    HW1  611   0.399   1.740   2.181 -0.2988 -0.7680 -2.0993
  204SOL    HW2  612   0.437   1.715   2.025 -0.7461 -1.4628 -0.1817
  205SOL     OW  613   0.818   0.621   0.820  0.4312 -0.1781 -0.5032
  205SOL    HW1  614   0.863   0.535   0.844  0.2035  1.2007  1.4545
  205SOL    HW2  615   0.764   0.610   0.731 -1.9858  1.2893 -1.8732
  206SOL     OW  616   0.558   0.911   0.013  0.1747  0.3153  0.2805
  206SOL    HW1  617   0.485   0.843   0.018  0.5230 -0.0639 -1.3588
  206SOL    HW2  618   0.522   0.994   3.035 -2.3911  0.1232  0.5927
  207SOL     OW  619   1.176   2.463   1.712  0.1169  0.8219 -0.3623
  207SOL    HW1  620   1.145   2.372   1.743  0.8011 -0.8018 -0.4069
  207SOL    HW2  621   1.137   2.475   1.619  0.7411 -1.0867 -0.7254
  208SOL     OW  622   2.392   0.265   1.552 -0.4016 -0.2740 -0.4156
  208SOL    HW1  623   2.302   0.286   1.597 -0.7350  1.3808 -0.4022
  208SOL    HW2  624   2.375   0.197   1.475  1.0970  0.8924  0.9165
  209SOL     OW  625   1.766   0.814   0.736  0.0389  0.3547 -0.0975
  209SOL    HW1  626   1.844   0.794   0.798  4.0147  0.2902  2.7274
  209SOL    HW2  627   1.803   0.825   0.641  0.8951 -0.7606  2.4549
  210SOL     OW  628   2.474   1.220   0.821  0.1886  0.2894  0.1847
  210SOL    HW1  629   2.427   1.174   0.898 -0.2260  0.8799  2.4083
  210SOL    HW2  630   2.574   1.240   0.847  0.3645  3.8493 -0.5077
  211SOL     OW  631   1.125   3.066   2.947 -0.8365 -0.0874 -0.5614
  211SOL    HW1  632   1.175   0.066   2.994 -2.3521  0.6556 -2.1689
  211SOL    HW2  633   1.189   2.983   2.932  0.3063  1.3340 -1.6299
  212SOL     OW  634   1.959   1.990   0.542 -0.0856 -0.3786  0.2399
  212SOL    HW1  635   1.995   2.013   0.633 -0.5777  1.5507 -1.9837
  212SOL    HW2  636   2.016   1.914   0.500 -0.2893  1.0346  1.1398
  213SOL     OW  637   2.465   2.903   3.072 -0.0297  0.2503  0.4884
  213SOL    HW1  638   2.526   2.921   2.992  1.5887  0.6062 -1.7971
  213SOL    HW2  639   2.387   2.837   3.057  0.2177 -0.1457  1.4256
  214SOL     OW  640   1.190   2.375   2.126  0.1572  0.2475  0.1512
  214SOL    HW1  641   1.211   2.466   2.080  1.6852 -0.8151  0.3767
  214SOL    HW2  642   1.232   2.296   2.080 -1.0717 -0.8146 -1.2550
  215SOL     OW  643   0.285   1.482   1.045  0.0272  0.5655 -0.3417
  215SOL    HW1  644   0.211   1.408   1.037 -1.1694  0.0982  0.4042
  215SOL    HW2  645   0.330   1.492   0.955  1.4858 -1.2920  2.2992
  216SOL     OW  646   0.461   0.040   2.686  0.2996  0.3681 -0.2530
  216SOL    HW1  647   0.458   3.014   2.660  0.8394 -1.7218  0.8033
  216SOL    HW2  648   0.363   0.077   2.687 -1.0190 -0.5986 -2.2123
  217SOL     OW  649   2.726   1.430   1.624 -0.3212 -0.1564 -0.2432
  217SOL    HW1  650   2.800   1.468   1.563  2.2699 -2.3974 -0.9114
  217SOL    HW2  651   2.714   1.327   1.618  0.1023 -0.0923  0.7714
  218SOL     OW  652   0.846   2.116   1.531 -0.0361  0.1347 -0.6738
  218SOL    HW1  653   0.783   2.187   1.562  2.0340 -0.6084 -0.3188
  218SOL    HW2  654   0.936   2.160   1.520 -1.1927 -0.2747  0.2116
  219SOL     OW  655   2.111   1.850   0.074  0.5403 -0.2964 -0.0396
  219SOL    HW1  656   2.189   1.874   0.134 -0.2152 -0.3816 -1.4993
  219SOL    HW2  657   2.138   1.773   0.012  0.3411  1.1616 -0.9928
  220SOL     OW  658   1.832   0.142   2.841  0.1962  0.0639  0.5487
  220SOL    HW1  659   1.900   0.079   2.884  0.5766  1.6472 -0.8928
  220SOL    HW2  660   1.752   0.157   2.904 -1.6799 -0.3151  0.9137
  221SOL     OW  661   2.836   0.708   0.149  0.5874  0.1044  0.2399
  221SOL    HW1  662   2.896   0.628   0.132  2.3600 -1.6470  2.4243
  221SOL    HW2  663   2.809   0.755   0.062  1.1524  1.9256  2.2351
  222SOL     OW  664   1.539   1.474   0.695 -0.1889 -0.2656  0.5036
  222SOL    HW1  665   1.538   1.375   0.689 -0.1774 -0.0398 -0.4486
  222SOL    HW2  666   1.632   1.509   0.709  3.3648 -0.8208  2.4986
  223SOL     OW  667   0.970   0.335   2.775 -0.7011  0.0076 -0.4514
  223SOL    HW1  668   1.047   0.293   2.728  0.3285  1.7236  3.8401
  223SOL    HW2  669   0.960   0.432   2.750 -1.7020 -3.6812  0.7672
  224SOL     OW  670   0.949   2.756   1.091 -0.2376 -0.0277 -0.1016
  224SOL    HW1  671   0.905   2.829   1.141 -1.6163 -1.1740 -0.1131
  224SOL    HW2  672   0.889   2.672   1.087 -1.0335 -0.1037  1.0963
  225SOL     OW  673   0.952   3.019   2.186 -0.3655  0.2659 -0.3861
  225SOL    HW1  674   0.935   2.994   2.091  2.3156  1.3652  1.4343
  225SOL    HW2  675   0.915   0.037   2.204  0.3823 -1.2053  0.6421
  226SOL     OW  676   1.327   1.642   0.608 -0.1431 -0.3989 -0.4796
  226SOL    HW1  677   1.372   1.736   0.596  2.1450  2.6654  2.1469
  226SOL    HW2  678   1.403   1.579   0.647  2.3282 -2.2868  0.7245
  227SOL     OW  679   0.396   1.990   1.336  0.8379  0.8902 -0.1845
  227SOL    HW1  680   0.359   1.918   1.399 -1.8848 -3.2867 -0.0402
  227SOL    HW2  681   0.376   1.968   1.242  0.1465  0.4129  1.1426
  228SOL     OW  682   3.031   1.789   0.626 -0.0125  0.2596 -0.1959
  228SOL    HW1  683   0.046   1.742   0.635 -1.8491  0.1858 -0.9261
  228SOL    HW2  684   3.037   1.887   0.652 -0.3416 -4.3717  0.3307
  229SOL     OW  685   2.620   0.086   2.829  0.2583  0.3788  0.6927
  229SOL    HW1  686   2.566   0.163   2.792 -1.1726 -0.5302 -1.3899
  229SOL    HW2  687   2.570   3.072   2.826 -2.7995  1.5171  1.8561
  230SOL     OW  688   2.522   0.575   0.306  0.0048 -0.1554 -0.6600
  230SOL    HW1  689   2.505   0.675   0.297  1.0727 -1.5969 -2.2303
  230SOL    HW2  690   2.461   0.528   0.242  3.1983  0.6363 -0.1027
  231SOL     OW  691   1.900   1.686   0.148 -0.2293 -0.5908  0.0438
  231SOL    HW1  692   1.819   1.666   0.086  0.8518 -2.3479 -0.7058
  231SOL    HW2  693   1.963   1.761   0.114  0.0778 -1.4140  0.6058
  232SOL     OW  694   1.818   1.899   0.886 -0.3190 -0.0407  0.0519
  232SOL    HW1  695   1.839   1.809   0.934  2.5451  0.7558  3.1833
  232SOL    HW2  696   1.903   1.951   0.863  1.2518  0.1786  1.1340
  233SOL     OW  697   0.352   2.865   1.647  0.0070  0.2491 -0.2520
  233SOL    HW1  698   0.385   2.917   1.731 -1.3162 -1.7910  0.0990
  233SOL    HW2  699   0.276   2.798   1.668 -0.4165  1.0824  0.2570
  234SOL     OW  700   0.735   0.386   2.555  0.5860  0.9181  0.2254
  234SOL    HW1  701   0.833   0.367   2.532  0.3854  2.6976  2.3757
  234SOL    HW2  702   0.733   0.465   2.615  2.0319 -4.2418 -1.9911
  235SOL     OW  703   2.546   1.102   1.754  0.7028 -0.3418  0.3462
  235SOL    HW1  704   2.553   0.998   1.752  0.6301  0.2208 -1.9257
  235SOL    HW2  705   2.463   1.140   1.707 -0.4192  0.4377  0.6109
  236SOL     OW  706   1.385   2.817   1.565 -0.4586  0.2686 -0.3121
  236SOL    HW1  707   1.299   2.825   1.516 -0.0545  0.0733  1.0950
  236SOL    HW2  708   1.414   2.717   1.555 -3.1016 -1.3401  1.5114
  237SOL     OW  709   0.498   1.573   2.647 -0.4992 -0.0911  0.1165
  237SOL    HW1  710   0.511   1.505   2.570  2.2672 -0.3594  1.6987
  237SOL    HW2  711   0.494   1.668   2.616 -0.9868 -0.8902  1.6871
  238SOL     OW  712   0.805   0.796   2.150 -0.3001 -0.1376  0.1517
  238SOL    HW1  713   0.903   0.775   2.119  0.2340 -3.5681  1.3142
  238SOL    HW2  714   0.793   0.765   2.244  2.7267  1.2322  1.6381
  239SOL     OW  715   0.896   1.759   2.461 -0.4693  0.5259  0.8554
  239SOL    HW1  716   0.813   1.787   2.514 -1.6264 -1.2898 -2.2953
  239SOL    HW2  717   0.968   1.830   2.478 -1.9398  0.6046 -3.6696
  240SOL     OW  718   2.411   2.818   0.255 -0.0133 -0.3498 -0.4706
  240SOL    HW1  719   2.453   2.868   0.180 -1.0118 -2.0829  3.2890
  240SOL    HW2  720   2.465   2.829   0.340  1.8062 -1.6763 -1.2064
  241SOL     OW  721   0.387   1.053   0.388 -0.2174  0.3793 -0.9739
  241SOL    HW1  722   0.320   1.036   0.468 -1.9879  0.3323  1.7105
  241SOL    HW2  723   0.395   1.153   0.368  2.3836 -1.8361 -0.2324
  242SOL     OW  724   1.493   2.565   1.573 -0.3669  0.4750 -0.1666
  242SOL    HW1  725   1.477   2.464   1.559  1.0411 -2.6451  0.3816
  242SOL    HW2  726   1.561   2.598   1.508 -0.1521 -1.6864  1.1010
  243SOL     OW  727   0.864   2.577   1.853 -0.2971  0.1522 -0.1856
  243SOL    HW1  728   0.937   2.634   1.806 -1.3186 -0.1405 -0.1832
  243SOL    HW2  729   0.784   2.558   1.793  0.9347 -0.5820 -0.4619
  244SOL     OW  730   2.347   0.643   2.522  0.1322 -0.3779  0.2673
  244SOL    HW1  731   2.297   0.704   2.454  1.3298 -2.2871  1.3109
  244SOL    HW2  732   2.371   0.702   2.602  1.2771 -3.6031  0.5169
  245SOL     OW  733   1.617   2.523   1.100 -0.0515  0.1330 -0.5311
  245SOL    HW1  734   1.629   2.428   1.084  1.6705  2.7131 -1.9086
  245SOL    HW2  735   1.704   2.577   1.077  1.9762  0.0598  1.0881
  246SOL     OW  736   1.486   3.053   0.241 -0.5728 -0.0320  0.3735
  246SOL    HW1  737   1.476   0.072   0.203  0.2219 -1.0290 -2.3024
  246SOL    HW2  738   1.451   3.055   0.334  1.6362 -0.1001  4.6704
  247SOL     OW  739   1.904   0.547   1.678  0.3732 -0.4100 -0.2633
  247SOL    HW1  740   1.908   0.569   1.583 -1.2814  0.9474  2.2830
  247SOL    HW2  741   1.846   0.462   1.690  0.3706  0.1117  0.4905
  248SOL     OW  742   0.064   2.087   1.618  0.3098 -0.4337  0.0819
  248SOL    HW1  743   0.164   2.069   1.629  0.9180 -0.2308 -0.0660
  248SOL    HW2  744   0.014   2.000   1.618  1.2255  2.2745  0.1351
  249SOL     OW  745   0.407   0.453   0.291 -0.3986 -0.1827 -0.1368
  249SOL    HW1  746   0.406   0.533   0.354 -0.6620 -2.0703  0.9892
  249SOL    HW2  747   0.485   0.392   0.306  0.6304 -2.7450 -1.7906
  250SOL     OW  748   2.462   0.215   2.259 -0.1506 -0.5144  0.1103
  250SOL    HW1  749   2.390   0.249   2.323 -0.9506 -0.0897  1.2256
  250SOL    HW2  750   2.435   0.235   2.161 -5.1100  0.0516 -1.3655
  251SOL     OW  751   1.391   0.609   0.007  0.2561  0.1941 -0.0032
  251SOL    HW1  752   1.337   0.651   0.082  1.1476 -2.0329 -2.0457
  251SOL    HW2  753   1.346   0.619   2.989 -1.0740 -0.7340  1.7414
  252SOL     OW  754   1.236   2.613   1.990  0.0315 -0.6946  0.3008
  252SOL    HW1  755   1.172   2.622   1.909 -2.8685 -2.7688 -0.6078
  252SOL    HW2  756   1.252   2.703   2.037 -0.6138  2.0794 -1.6546
  253SOL     OW  757   2.673   2.502   0.612  0.1656  0.0741 -0.4977
  253SOL    HW1  758   2.612   2.533   0.692 -2.2318  3.5732 -0.1713
  253SOL    HW2  759   2.638   2.535   0.520 -2.0853 -0.5717 -0.9406
  254SOL     OW  760   2.343   1.291   1.193 -0.0695 -0.1549 -0.0876
  254SOL    HW1  761   2.417   1.304   1.263  2.3265  0.8500 -1.6029
  254SOL    HW2  762   2.348   1.365   1.126 -1.9218 -1.3866  0.3190
  255SOL     OW  763   0.581   2.838   1.291 -0.3325 -0.4292  0.4046
  255SOL    HW1  764   0.679   2.870   1.268 -1.2355 -0.3637 -1.7391
  255SOL    HW2  765   0.542   2.803   1.204 -0.4511  2.4217  0.4256
  256SOL     OW  766   1.887   1.725   1.762  0.2249  0.1906  0.2337
  256SOL    HW1  767   1.867   1.644   1.812  1.3922 -0.4185  0.2763
  256SOL    HW2  768   1.934   1.699   1.671  0.5546  0.6144 -1.0200
  257SOL     OW  769   0.265   2.248   2.649 -0.2649 -0.1187 -0.7459
  257SOL    HW1  770   0.361   2.213   2.654  1.6222 -0.5110 -0.7983
  257SOL    HW2  771   0.257   2.334   2.704  1.2250 -0.6553  1.7081
  258SOL     OW  772   0.540   2.560   0.937  0.3266  0.1582  0.1979
  258SOL    HW1  773   0.474   2.486   0.963  1.2780  1.9935  0.5612
  258SOL    HW2  774   0.503   2.651   0.962  0.3781 -1.0207  1.4964
  259SOL     OW  775   1.404   0.622   2.630  0.3224  0.1430  0.4154
  259SOL    HW1  776   1.479   0.685   2.660  1.5327 -1.6416 -0.4462
  259SOL    HW2  777   1.355   0.645   2.545  3.3084 -2.5150  0.7672
  260SOL     OW  778   0.335   0.335   1.184  0.3858 -0.1348 -0.0890
  260SOL    HW1  779   0.362   0.235   1.178  2.6934 -0.6349 -1.2374
  260SOL    HW2  780   0.323   0.385   1.098 -1.5307 -0.1292  1.9476
  261SOL     OW  781   0.826   0.169   2.267  0.2579  0.3967 -0.2168
  261SOL    HW1  782   0.781   0.116   2.341  2.2385  0.7730 -1.2886
  261SOL    HW2  783   0.898   0.231   2.296 -1.5319  1.6871 -1.7581
  262SOL     OW  784   1.094   2.711   1.774  0.2099 -0.4073 -0.2978
  262SOL    HW1  785   1.103   2.770   1.692  1.2497 -0.1134 -0.3479
  262SOL    HW2  786   1.126   2.621   1.743 -2.6067  0.1719 -0.9996
  263SOL     OW  787   0.732   2.047   3.038  0.3254  0.1439 -0.1729
  263SOL    HW1  788   0.732   2.146   3.055  0.3390  1.3405  1.5425
  263SOL    HW2  789   0.803   2.029   2.965 -1.6244 -0.9653  3.4037
  264SOL     OW  790   1.490   1.665   0.920  0.6681  0.8175  0.4690
  264SOL    HW1  791   1.518   1.757   0.884 -0.3003  3.8612 -2.1885
  264SOL    HW2  792   1.511   1.591   0.852  2.0551 -0.4639 -1.1284
  265SOL     OW  793   0.923   2.165   0.275 -0.1883 -0.2164  0.0700
  265SOL    HW1  794   0.976   2.186   0.193  0.7539  0.3859  0.2819
  265SOL    HW2  795   0.837   2.108   0.259 -3.1523  1.6032  0.3655
  266SOL     OW  796   2.773   0.852   1.048  0.8944  0.0806  0.0372
  266SOL    HW1  797   2.748   0.767   0.996  2.8241 -1.6798 -1.2552
  266SOL    HW2  798   2.851   0.837   1.111 -1.0806  2.5132  1.3867
  267SOL     OW  799   0.030   1.474   0.228  0.4233 -0.0026 -0.5313
  267SOL    HW1  800   0.082   1.441   0.313  0.9739 -1.1492  2.1452
  267SOL    HW2  801   0.060   1.568   0.204 -2.7059 -0.3008  0.2118
  268SOL     OW  802   1.388   0.446   0.334  0.3942 -0.4406 -0.6746
  268SOL    HW1  803   1.296   0.446   0.287  0.9481 -1.1827  0.1225
  268SOL    HW2  804   1.419   0.537   0.371  2.1325  1.8112  0.4299
  269SOL     OW  805   2.589   0.709   2.013 -0.5670  0.0664 -0.7209
  269SOL    HW1  806   2.656   0.780   2.013 -2.7695  1.0914  0.7711
  269SOL    HW2  807   2.617   0.634   1.959 -0.5737  3.4985  3.0853
  270SOL     OW  808   2.810   1.088   0.463 -0.2731 -0.4080 -0.0046
  270SOL    HW1  809   2.807   1.005   0.531  1.3506 -2.3194  2.1973
  270SOL    HW2  810   2.778   1.062   0.373 -2.0076 -0.9755  1.9330
  271SOL     OW  811   3.071   1.386   2.127 -1.2282  0.0111  0.4198
  271SOL    HW1  812   2.987   1.401   2.073  0.5199  1.3117  1.1409
  271SOL    HW2  813   0.053   1.304   2.100 -1.2966 -2.5463  1.6953
  272SOL     OW  814   2.446   2.349   1.865  0.4819 -0.3589 -0.0687
  272SOL    HW1  815   2.514   2.424   1.881 -1.4638 -0.1774 -1.2271
  272SOL    HW2  816   2.422   2.311   1.956  2.1571  1.2908  0.7528
  273SOL     OW  817   0.104   2.439   0.013 -0.2062  0.3046  0.2954
  273SOL    HW1  818   0.164   2.381   3.024 -1.3175  2.0419  1.9970
  273SOL    HW2  819   0.027   2.485   3.037  0.4481  0.7260 -0.3272
  274SOL     OW  820   0.734   2.203   0.797  0.0836  0.3431  0.5005
  274SOL    HW1  821   0.730   2.281   0.731 -2.8808 -1.2679  0.3542
  274SOL    HW2  822   0.806   2.132   0.785  0.9894 -2.1467 -3.4480
  275SOL     OW  823   1.408   1.821   2.685  0.9003  0.1220 -0.1040
  275SOL    HW1  824   1.397   1.918   2.658  1.8322  1.4656  0.1274
  275SOL    HW2  825   1.475   1.774   2.634 -1.5909  1.8403 -1.7428
  276SOL     OW  826   2.809   1.489   2.088  0.0482  0.1596 -0.0501
  276SOL    HW1  827   2.732   1.468   2.027  1.3261 -1.3735 -2.3314
  276SOL    HW2  828   2.795   1.569   2.148  1.1076 -1.8909 -2.2701
  277SOL     OW  829   2.236   0.087   0.815  0.4635  0.3909 -0.4213
  277SOL    HW1  830   2.249   0.137   0.726  2.2934 -0.1821 -0.3373
  277SOL    HW2  831   2.212   3.062   0.801  1.8952 -1.9308 -2.3834
  278SOL     OW  832   1.314   0.225   2.249 -0.4004  0.3550  0.6185
  278SOL    HW1  833   1.287   0.135   2.283 -2.1980  0.2766 -0.4343
  278SOL    HW2  834   1.273   0.297   2.302  1.2385  0.5212 -0.6300
  279SOL     OW  835   1.192   2.722   0.980 -0.0571 -0.2117  0.1176
  279SOL    HW1  836   1.246   2.684   1.053 -2.1800  0.8892  1.4044
  279SOL    HW2  837   1.104   2.747   1.020  1.9282 -3.2984 -1.2927
  280SOL     OW  838   1.266   1.194   0.579 -0.0367 -0.0677  0.1465
  280SOL    HW1  839   1.243   1.126   0.508 -0.5950 -2.4735  1.9159
  280SOL    HW2  840   1.220   1.176   0.671 -1.5316 -1.7678  2.1072
  281SOL     OW  841   2.071   1.759   0.458  0.1643  0.9195 -0.1971
  281SOL    HW1  842   2.070   1.717   0.555  0.6991  0.9256  1.3506
  281SOL    HW2  843   2.063   1.688   0.384 -0.4686  3.0687  1.4532
  282SOL     OW  844   2.732   1.375   0.520  0.3185  0.4793 -0.3211
  282SOL    HW1  845   2.774   1.286   0.512 -0.4750 -0.5971  0.9639
  282SOL    HW2  846   2.776   1.442   0.458 -1.9327  1.6583  0.4360
  283SOL     OW  847   1.726   2.680   2.685  0.8667 -0.2326  0.0514
  283SOL    HW1  848   1.756   2.699   2.593 -0.6428  0.9993  0.4187
  283SOL    HW2  849   1.781   2.607   2.724  0.0250  0.0539  0.9965
  284SOL     OW  850   0.530   0.318   2.407  0.2595 -0.1135 -0.4948
  284SOL    HW1  851   0.614   0.341   2.464  0.6062  1.7842 -0.5821
  284SOL    HW2  852   0.450   0.344   2.465 -0.4831  0.3676 -0.8036
  285SOL     OW  853   1.696   1.589   3.054  0.3601 -0.5458  0.1883
  285SOL    HW1  854   1.601   1.553   0.004 -1.7336 -0.6258  0.4900
  285SOL    HW2  855   1.693   1.655   2.978  0.3421 -1.4356 -0.3934
  286SOL     OW  856   1.549   2.025   1.698 -0.0005 -0.3195  0.2034
  286SOL    HW1  857   1.476   2.075   1.648  1.5256 -2.3866  0.0790
  286SOL    HW2  858   1.561   2.059   1.796  1.1523 -0.9859  3.2729
  287SOL     OW  859   1.835   2.919   1.311  0.2002 -0.3769 -0.3491
  287SOL    HW1  860   1.763   2.906   1.379  0.6501  0.0723 -1.5491
  287SOL    HW2  861   1.827   3.014   1.279 -0.3172 -0.3595  0.0597
  288SOL     OW  862   0.513   2.607   2.027  0.4183 -0.0478 -0.2238
  288SOL    HW1  863   0.467   2.544   1.959 -1.7268 -0.6688  1.1411
  288SOL    HW2  864   0.610   2.575   2.040 -0.2140 -0.0081  1.0805
  289SOL     OW  865   0.171   1.813   0.881  0.1068 -0.4767 -0.3056
  289SOL    HW1  866   0.142   1.782   0.973  3.2684  2.3777  1.0815
  289SOL    HW2  867   0.132   1.905   0.864  2.7387  0.9425  1.8138
  290SOL     OW  868   1.117   2.103   1.799  0.4418 -0.3000 -0.3399
  290SOL    HW1  869   1.080   2.011   1.842  3.2376 -1.2901  0.3239
  290SOL    HW2  870   1.055   2.181   1.816  1.5822 -0.7421  0.3842
  291SOL     OW  871   1.746   0.208   0.389  0.0684  0.6916  0.1230
  291SOL    HW1  872   1.662   0.217   0.332 -0.9337 -0.0378 -2.2015
  291SOL    HW2  873   1.818   0.181   0.324  1.3281 -0.7168 -1.5883
  292SOL     OW  874   0.408   0.341   1.438 -0.2870  0.2872 -0.0117
  292SOL    HW1  875   0.369   0.321   1.345  1.1881  2.3520 -0.1082
  292SOL    HW2  876   0.390   0.267   1.505  2.4486  2.1457  0.3315
  293SOL     OW  877   2.312   1.504   0.995  0.4206  0.1407 -0.4273
  293SOL    HW1  878   2.371   1.518   0.917 -1.5442 -2.9178 -0.9025
  293SOL    HW2  879   2.235   1.439   0.965 -1.7281 -1.6132 -1.2503
  294SOL     OW  880   0.383   0.098   2.249  0.2766 -0.1094  0.4071
  294SOL    HW1  881   0.369   0.011   2.296 -2.5666 -0.7440 -1.1128
  294SOL    HW2  882   0.425   0.170   2.308  1.9682  0.0511  0.5390
  295SOL     OW  883   0.947   1.535   0.358  0.3150 -0.8648 -0.1956
  295SOL    HW1  884   1.048   1.527   0.352 -2.9795 -1.4215  0.9864
  295SOL    HW2  885   0.894   1.451   0.358 -1.9861  2.7887 -0.3928
  296SOL     OW  886   2.163   1.299   0.902  0.5114 -0.1550  0.3653
  296SOL    HW1  887   2.074   1.249   0.890  1.4217 -0.7382 -1.7358
  296SOL    HW2  888   2.188   1.344   0.814 -2.6681  0.9664 -1.7619
  297SOL     OW  889   1.881   0.665   2.493  0.3380  0.5448 -0.3728
  297SOL    HW1  890   1.817   0.744   2.493  0.6147 -1.5147 -2.0897
  297SOL    HW2  891   1.917   0.647   2.398  0.9593 -0.0624 -1.9145
  298SOL     OW  892   0.983   0.290   2.455 -0.7440  0.0294 -0.6046
  298SOL    HW1  893   1.045   0.254   2.531  0.7113 -2.1310  4.1123
  298SOL    HW2  894   1.039   0.345   2.392 -0.4697  1.9914  1.7785
  299SOL     OW  895   1.338   0.578   1.941  0.1140 -0.0834 -0.4124
  299SOL    HW1  896   1.333   0.652   2.007 -0.9835  2.1844  1.6534
  299SOL    HW2  897   1.318   0.490   1.991  1.7810  0.5575 -2.0865
  300SOL     OW  898   2.670   0.009   1.686 -0.5850 -0.2646  0.8380
  300SOL    HW1  899   2.623   3.037   1.608 -0.4385 -1.6401 -0.8695
  300SOL    HW2  900   2.669   0.109   1.673 -0.2162 -0.0003 -0.9942
  301SOL     OW  901   1.617   0.730   1.497 -0.6200  0.0895  0.3176
  301SOL    HW1  902   1.579   0.811   1.448  0.3701 -0.2831  0.0551
  301SOL    HW2  903   1.674   0.768   1.570  1.8140  1.1163 -2.4699
  302SOL     OW  904   0.602   2.659   2.636  0.4709 -0.0939 -0.1527
  302SOL    HW1  905   0.563   2.613   2.555 -2.7754 -0.2930  0.6807
  302SOL    HW2  906   0.687   2.704   2.596  1.1591 -0.7027 -2.7463
  303SOL     OW  907   2.038   1.976   1.753 -0.1804 -0.1532  0.4909
  303SOL    HW1  908   2.140   1.973   1.772  1.7405  1.9471 -0.1131
  303SOL    HW2  909   1.996   1.885   1.744  0.5189  0.5305 -1.2144
  304SOL     OW  910   0.346   2.912   0.680 -0.3555  0.2244  0.5907
  304SOL    HW1  911   0.433   2.863   0.675 -1.4640  1.8701 -3.5501
  304SOL    HW2  912   0.272   2.856   0.718  1.2162  1.3186  0.6148
  305SOL     OW  913   1.419   0.705   0.361  0.1447  0.1789  0.1881
  305SOL    HW1  914   1.434   0.785   0.300  0.9583  0.3602 -0.4250
  305SOL    HW2  915   1.403   0.737   0.455 -1.6768  1.7024  0.1323
  306SOL     OW  916   0.418   1.311   0.084  0.3092 -0.2283  0.6096
  306SOL    HW1  917   0.522   1.315   0.079 -2.2329  2.6549 -0.8647
  306SOL    HW2  918   0.389   1.309   0.184 -3.5504 -0.6577 -0.0485
  307SOL     OW  919   0.667   0.759   1.922  0.2115 -0.1993  0.1399
  307SOL    HW1  920   0.721   0.762   2.005 -4.8184 -1.0641 -1.2865
  307SOL    HW2  921   0.705   0.685   1.867 -3.2463 -0.3849 -0.5378
  308SOL     OW  922   0.686   0.076   1.171 -0.3476  0.0312  0.6858
  308SOL    HW1  923   0.652   0.086   1.075 -0.3342  2.6778  1.9909
  308SOL    HW2  924   0.661   0.152   1.234  1.6216 -0.7431 -2.2911
  309SOL     OW  925   2.219   0.795   0.017  0.0249 -0.0281  0.2380
  309SOL    HW1  926   2.303   0.751   0.053 -0.3832 -2.0416 -1.1809
  309SOL    HW2  927   2.241   0.875   3.032  3.0920 -0.0640 -1.1086
  310SOL     OW  928   1.145   1.232   0.088 -0.2025 -0.0413 -0.1803
  310SOL    HW1  929   1.072   1.276   0.031  2.6957  1.2325  0.1784
  310SOL    HW2  930   1.211   1.303   0.120  0.7506 -3.0476  2.1449
  311SOL     OW  931   1.656   2.477   2.485  0.4350  0.0418  0.6782
  311SOL    HW1  932   1.594   2.438   2.407 -0.1513 -2.0655 -0.7448
  311SOL    HW2  933   1.701   2.563   2.453 -1.6086  0.2124 -1.0062
  312SOL     OW  934   2.063   2.953   2.806  0.0234 -0.1373  0.3149
  312SOL    HW1  935   2.096   3.047   2.838 -3.4977  0.5078  0.4135
  312SOL    HW2  936   2.022   2.897   2.879 -1.5466  0.0549 -0.6928
  313SOL     OW  937   0.711   0.639   0.319  0.0219 -0.1529 -0.1569
  313SOL    HW1  938   0.637   0.709   0.303  1.2480 -0.4804  1.1595
  313SOL    HW2  939   0.798   0.685   0.347 -1.8448  0.3224  1.6140
  314SOL     OW  940   2.682   1.387   2.991  0.1183 -0.1793  0.6329
  314SOL    HW1  941   2.713   1.396   2.897 -2.1178 -2.8141  1.3690
  314SOL    HW2  942   2.701   1.477   3.038  2.6959 -1.2666  0.5657
  315SOL     OW  943   1.785   0.797   1.695 -0.1347  0.2149 -0.4226
  315SOL    HW1  944   1.824   0.701   1.705 -1.4569 -0.6187 -1.9304
  315SOL    HW2  945   1.734   0.822   1.782 -1.9548 -1.4716  1.4570
  316SOL     OW  946   3.024   0.623   0.761 -0.3135 -0.3455 -0.0390
  316SOL    HW1  947   2.961   0.695   0.797 -1.8687 -1.4381 -3.5798
  316SOL    HW2  948   0.030   0.672   0.725  0.5449 -0.0745  0.7847
  317SOL     OW  949   0.941   0.306   0.110  0.0746  0.5997  0.0803
  317SOL    HW1  950   0.858   0.367   0.114  1.7433  0.7573 -0.7503
  317SOL    HW2  951   0.929   0.251   0.024 -0.6693 -1.8539  1.5589
  318SOL     OW  952   2.493   2.647   1.206 -1.0089 -1.2794  0.5276
  318SOL    HW1  953   2.470   2.579   1.279  0.6967 -1.6503 -0.3498
  318SOL    HW2  954   2.576   2.629   1.147  0.3854 -0.1119  0.4665
  319SOL     OW  955   1.200   1.464   0.430 -0.2670 -0.2619  0.0311
  319SOL    HW1  956   1.237   1.382   0.481  2.4948  1.0465  2.6726
  319SOL    HW2  957   1.231   1.550   0.485  0.7800  1.1596  1.4687
  320SOL     OW  958   0.612   2.231   1.028  0.3137  0.2316 -0.1773
  320SOL    HW1  959   0.520   2.267   1.012  3.6902  0.3910  1.5140
  320SOL    HW2  960   0.666   2.223   0.943 -1.4166 -1.4965  0.8472
  321SOL     OW  961   2.194   2.678   2.298 -0.1257 -0.0408 -0.3292
  321SOL    HW1  962   2.153   2.635   2.377  1.0365  0.9958 -1.9056
  321SOL    HW2  963   2.129   2.676   2.221 -1.1948 -0.8983  0.4238
  322SOL     OW  964   2.773   2.509   2.509  0.4389  0.0734  0.3232
  322SOL    HW1  965   2.810   2.426   2.558  1.1019  1.9422 -1.3664
  322SOL    HW2  966   2.692   2.540   2.560  1.9707  1.2956  4.4637
  323SOL     OW  967   2.751   0.634   0.898  0.5610  0.0742  0.4288
  323SOL    HW1  968   2.754   0.540   0.937 -1.9029 -0.6465 -0.0816
  323SOL    HW2  969   2.694   0.634   0.807 -1.2492 -0.0539  2.4814
  324SOL     OW  970   2.450   1.999   2.522  0.3454  0.0839  0.1783
  324SOL    HW1  971   2.428   1.981   2.423  0.6276  0.4791 -4.3695
  324SOL    HW2  972   2.394   1.952   2.591  0.8064  1.6198  2.9689
  325SOL     OW  973   1.245   0.694   2.425  0.0572 -0.2943  0.1680
  325SOL    HW1  974   1.316   0.759   2.404  0.0916 -4.3119 -0.9626
  325SOL    HW2  975   1.168   0.744   2.464 -4.3950  2.7031 -1.5266
  326SOL     OW  976   2.791   2.239   0.629 -0.4374  0.2307  0.0506
  326SOL    HW1  977   2.768   2.337   0.607 -0.4247  4.4966  0.7535
  326SOL    HW2  978   2.894   2.226   0.637 -1.0323  0.3756  0.9744
  327SOL     OW  979   2.511   2.917   2.779 -0.2210 -0.1031  0.3734
  327SOL    HW1  980   2.425   2.868   2.770  0.7640  0.8963  1.7545
  327SOL    HW2  981   2.584   2.871   2.727  0.1521 -2.5601  0.5879
  328SOL     OW  982   1.023   0.396   0.467 -0.1330 -0.4445 -0.4811
  328SOL    HW1  983   0.924   0.394   0.455 -0.0527  2.3207  0.0348
  328SOL    HW2  984   1.068   0.426   0.379  0.1256 -0.6365  0.8439
  329SOL     OW  985   2.031   0.797   1.302 -0.0911  0.1655 -0.0914
  329SOL    HW1  986   2.051   0.871   1.237  1.7164  0.8362  0.6762
  329SOL    HW2  987   2.071   0.807   1.395 -2.1234 -1.0839 -2.0976
  330SOL     OW  988   1.126   0.248   0.662 -0.2805 -0.1060 -0.1123
  330SOL    HW1  989   1.085   0.322   0.607 -0.2681  1.2159  0.1027
  330SOL    HW2  990   1.224   0.275   0.694  3.2158  0.8171 -1.8531
  331SOL     OW  991   0.413   2.143   1.923 -0.3968 -0.0243  0.7291
  331SOL    HW1  992   0.387   2.175   2.012  0.1473  1.6364 -4.8839
  331SOL    HW2  993   0.468   2.055   1.928  1.1746 -4.0759 -0.1028
  332SOL     OW  994   2.283   2.206   1.705 -0.3601  0.0717  0.3801
  332SOL    HW1  995   2.321   2.285   1.759  0.7743  3.1048  1.6673
  332SOL    HW2  996   2.311   2.114   1.743  0.3298 -1.2358  1.2886
  333SOL     OW  997   2.741   2.843   1.018 -0.7181  0.1713 -0.2115
  333SOL    HW1  998   2.784   2.865   1.109 -1.2624  0.3220  0.0383
  333SOL    HW2  999   2.678   2.917   0.990  1.1212 -1.7577  0.3177
  334SOL     OW 1000   3.000   1.550   0.971 -0.2631 -0.4272 -0.6323
  334SOL    HW1 1001   3.060   1.624   1.004  1.2138  1.6392  3.5195
  334SOL    HW2 1002   2.927   1.578   0.904 -0.1212  1.6709 -0.1550
  335SOL     OW 1003   0.379   2.832   2.620 -0.3290 -0.1461  0.4989
  335SOL    HW1 1004   0.294   2.798   2.657  3.7149 -0.9649 -2.1129
  335SOL    HW2 1005   0.458   2.775   2.652 -0.1891 -1.2153 -0.0775
  336SOL     OW 1006   0.079   2.746   1.746 -0.2041 -0.5384  0.0981
  336SOL    HW1 1007   0.036   2.832   1.718  1.3209 -0.2265  1.7693
  336SOL    HW2 1008   0.062   2.731   1.846  1.1205 -1.2072  1.6598
  337SOL     OW 1009   1.068   2.006   2.460 -0.2143  0.2219  0.4695
  337SOL    HW1 1010   1.142   1.999   2.387  0.9259  0.3356  1.0982
  337SOL    HW2 1011   1.055   2.104   2.488 -0.0697  1.0237  0.4562
  338SOL     OW 1012   1.040   2.865   2.536 -0.1659 -0.2605  0.0879
  338SOL    HW1 1013   1.132   2.884   2.497 -0.3707 -0.5858  1.7307
  338SOL    HW2 1014   1.004   2.952   2.574  0.7744 -0.6124 -0.6104
  339SOL     OW 1015   0.015   1.385   2.836 -0.2750 -0.2079  0.1548
  339SOL    HW1 1016   3.041   1.414   2.746  0.4593  1.3549  0.7400
  339SOL    HW2 1017   0.114   1.395   2.817  0.0926  0.8572 -2.3588
  340SOL     OW 1018   2.111   0.488   1.326  0.2170  0.4604 -0.4948
  340SOL    HW1 1019   2.092   0.588   1.333 -1.3964 -1.7094  1.9106
  340SOL    HW2 1020   2.211   0.480   1.311 -0.5464  1.5912  1.5320
  341SOL     OW 1021   1.800   1.053   0.924 -0.2185 -0.2880 -0.1478
  341SOL    HW1 1022   1.841   1.134   0.874  0.6059  0.6206  1.1124
  341SOL    HW2 1023   1.778   0.974   0.865  0.8874  2.6327  2.7709
  342SOL     OW 1024   2.106   2.320   2.488  0.4306 -0.1882  0.6688
  342SOL    HW1 1025   2.202   2.294   2.497  1.1588  1.9679  0.9225
  342SOL    HW2 1026   2.091   2.414   2.528 -2.1185  1.0661  1.3754
  343SOL     OW 1027   0.046   2.585   0.901  0.4309  0.6093  0.1800
  343SOL    HW1 1028   0.125   2.576   0.838  1.1831 -1.5702  0.6931
  343SOL    HW2 1029   0.062   2.550   0.996  0.6620 -1.1908  2.9595
  344SOL     OW 1030   2.497   2.629   0.766 -0.5340  0.3568 -0.4743
  344SOL    HW1 1031   2.476   2.726   0.768  0.9192 -0.3985 -0.7996
  344SOL    HW2 1032   2.544   2.610   0.859 -0.1255 -1.5901  3.1437
  345SOL     OW 1033   2.323   2.227   0.565 -0.6719 -0.3269 -0.0749
  345SOL    HW1 1034   2.240   2.206   0.511  1.0968 -2.7576 -0.5881
  345SOL    HW2 1035   2.308   2.297   0.635  1.9090  3.3622 -0.5657
  346SOL     OW 1036   1.308   2.134   1.623  0.0136  0.0397  0.1136
  346SOL    HW1 1037   1.243   2.102   1.692  1.1842  0.9168  0.4249
  346SOL    HW2 1038   1.290   2.090   1.531 -2.0756  0.0457  0.9975
  347SOL     OW 1039   1.494   1.915   2.189 -0.6316 -0.0946 -0.5719
  347SOL    HW1 1040   1.576   1.871   2.141 -0.0436 -1.1223  0.8663
  347SOL    HW2 1041   1.510   2.014   2.207 -1.0263 -0.0613 -0.6226
  348SOL     OW 1042   0.581   1.744   1.323 -0.3838  0.3036  0.0229
  348SOL    HW1 1043   0.603   1.776   1.225  0.5232 -1.4784 -3.3443
  348SOL    HW2 1044   0.648   1.773   1.394  0.9845 -1.6480 -0.5005
  349SOL     OW 1045   1.755   1.510   1.398 -0.2620  0.2760  0.3127
  349SOL    HW1 1046   1.692   1.505   1.480 -0.9498 -0.2153  0.6380
  349SOL    HW2 1047   1.711   1.542   1.310 -1.1330 -1.1656 -1.7345
  350SOL     OW 1048   2.442   2.296   0.912 -0.1857  0.1274 -0.2857
  350SOL    HW1 1049   2.374   2.231   0.953  0.9195  2.3072  0.2719
  350SOL    HW2 1050   2.399   2.362   0.848  2.1660 -0.8717  1.8820
  351SOL     OW 1051   0.156   0.172   1.812 -0.2532  0.7404 -0.4949
  351SOL    HW1 1052   0.176   0.201   1.909  0.6089  0.4484  0.2238
  351SOL    HW2 1053   0.058   0.138   1.807  0.2173 -3.1844 -0.0276
  352SOL     OW 1054   0.851   1.004   0.302  0.2905 -0.2502 -0.6115
  352SOL    HW1 1055   0.904   0.936   0.356 -3.0221  2.4212 -0.0469
  352SOL    HW2 1056   0.759   0.968   0.272  1.0300  1.8336  0.3162
  353SOL     OW 1057   0.660   1.525   2.864  0.1553 -0.3615  0.3204
  353SOL    HW1 1058   0.752   1.539   2.813  1.9834  1.5183 -1.4345
  353SOL    HW2 1059   0.583   1.558   2.808 -0.1753  1.2664  0.7778
  354SOL     OW 1060   1.719   2.344   1.735  0.5698  0.4206  0.0867
  354SOL    HW1 1061   1.664   2.365   1.654  0.4517 -0.9970  0.2063
  354SOL    HW2 1062   1.812   2.313   1.710 -0.5961  1.8077  0.2409
  355SOL     OW 1063   2.141   0.575   2.949  0.0303  0.0653  0.3714
  355SOL    HW1 1064   2.102   0.612   2.861 -0.8154  1.1845 -1.1907
  355SOL    HW2 1065   2.176   0.649   3.012  0.0257  3.1527 -0.5269
  356SOL     OW 1066   0.640   2.036   1.230 -0.0904 -0.1852  0.1156
  356SOL    HW1 1067   0.618   2.116   1.170  1.0990 -1.3540 -0.8366
  356SOL    HW2 1068   0.559   2.012   1.289 -3.1488 -0.9664 -1.4800
  357SOL     OW 1069   2.966   0.099   1.810 -0.1803  0.1336 -0.1560
  357SOL    HW1 1070   2.895   0.132   1.746 -1.2106 -0.9454  2.6746
  357SOL    HW2 1071   2.937   0.118   1.907 -0.1299 -0.5160  0.5700
  358SOL     OW 1072   2.403   1.784   1.542 -0.2544  0.0637  0.2433
  358SOL    HW1 1073   2.329   1.840   1.495 -0.2886  0.7959  0.5035
  358SOL    HW2 1074   2.485   1.840   1.567  1.2496 -0.5332 -0.5839
  359SOL     OW 1075   2.030   2.112   2.338  0.4929 -0.5684  0.3202
  359SOL    HW1 1076   1.948   2.100   2.276 -3.1931 -0.2315 -1.2898
  359SOL    HW2 1077   2.024   2.193   2.401 -0.5623 -2.1389 -0.6645
  360SOL     OW 1078   1.288   2.582   0.748  0.5128  0.8505  0.3458
  360SOL    HW1 1079   1.258   2.625   0.839 -1.0573  2.2003  1.3526
  360SOL    HW2 1080   1.331   2.653   0.683 -0.7747 -0.2767  0.3864
  361SOL     OW 1081   1.945   3.072   0.232 -0.2594  0.1512  0.1171
  361SOL    HW1 1082   1.895   3.055   0.140  1.1605  2.2563 -0.3346
  361SOL    HW2 1083   2.012   2.997   0.248  3.2752  0.6646  1.6497
  362SOL     OW 1084   1.503   0.947   1.366 -0.1915  0.4058 -0.5689
  362SOL    HW1 1085   1.508   1.049   1.357 -2.7964 -0.5382  0.5582
  362SOL    HW2 1086   1.412   0.913   1.387 -0.2544 -0.1674 -1.0843
  363SOL     OW 1087   1.844   1.567   2.144 -0.6242 -0.1872 -0.0626
  363SOL    HW1 1088   1.786   1.541   2.225  0.8870 -0.5906 -0.0225
  363SOL    HW2 1089   1.932   1.511   2.142  1.8622 -1.8946  0.5585
  364SOL     OW 1090   0.575   0.549   1.523  0.7026 -0.0484  0.6653
  364SOL    HW1 1091   0.527   0.462   1.529  2.1110  1.1813  4.2398
  364SOL    HW2 1092   0.568   0.582   1.422  0.5247  1.0930 -3.2350
  365SOL     OW 1093   0.570   0.655   2.565 -0.6644  0.1563  0.0726
  365SOL    HW1 1094   0.497   0.661   2.640 -1.9830  0.4874  1.4979
  365SOL    HW2 1095   0.534   0.673   2.474 -0.9261 -2.3536  3.0548
  366SOL     OW 1096   2.152   1.285   2.823  0.4832  0.2245  0.1627
  366SOL    HW1 1097   2.133   1.234   2.910 -1.7233 -1.6515  0.5882
  366SOL    HW2 1098   2.102   1.376   2.824 -2.0348 -0.3632  2.6982
  367SOL     OW 1099   2.999   2.639   2.361 -0.3322 -0.3218 -0.1629
  367SOL    HW1 1100   2.940   2.609   2.440 -2.9355 -0.7246  0.8393
  367SOL    HW2 1101   2.971   2.731   2.334 -0.2841 -0.0395 -0.0978
  368SOL     OW 1102   2.989   1.277   1.306  0.2645 -0.7512 -0.1394
  368SOL    HW1 1103   3.038   1.248   1.395  0.4756 -0.3379  3.2440
  368SOL    HW2 1104   2.927   1.203   1.274  0.5510  0.7076  2.2832
  369SOL     OW 1105   0.574   2.740   2.305  0.0417  0.3183 -0.2748
  369SOL    HW1 1106   0.618   2.676   2.241  1.5112 -0.4588 -0.1106
  369SOL    HW2 1107   0.640   2.764   2.383 -1.7059  2.2281  0.0966
  370SOL     OW 1108   2.813   0.213   0.603 -0.5055  0.0991 -0.2381
  370SOL    HW1 1109   2.831   0.150   0.518 -1.1782 -2.4834 -0.8944
  370SOL    HW2 1110   2.850   0.306   0.588  0.6491  0.4903 -0.0609
  371SOL     OW 1111   0.835   2.396   1.385 -0.1302  0.1830  0.4453
  371SOL    HW1 1112   0.924   2.425   1.423 -1.7726 -0.4620 -0.4132
  371SOL    HW2 1113   0.762   2.368   1.452 -1.1928  2.7696 -2.7843
  372SOL     OW 1114   2.290   0.399   2.412  0.3348 -0.0761  0.5492
  372SOL    HW1 1115   2.318   0.482   2.468  2.5343 -0.7963 -2.7193
  372SOL    HW2 1116   2.188   0.392   2.389 -0.4641 -0.5337 -0.0554
  373SOL     OW 1117   0.018   2.037   0.768 -0.0441 -0.1959 -0.8832
  373SOL    HW1 1118   0.003   2.107   0.695  0.1355 -2.8538  1.1682
  373SOL    HW2 1119   3.038   2.061   0.856 -1.4965 -1.1207 -0.9477
  374SOL     OW 1120   0.056   0.069   2.482 -0.0398  0.4754  0.3528
  374SOL    HW1 1121   3.028   0.071   2.489  0.4061  2.7522 -0.6626
  374SOL    HW2 1122   0.098   0.132   2.415 -0.9168  0.3535  0.5194
  375SOL     OW 1123   0.746   0.578   2.761  0.0096 -0.4615  0.8647
  375SOL    HW1 1124   0.685   0.655   2.738  1.4783 -1.0007  3.0360
  375SOL    HW2 1125   0.843   0.608   2.755 -1.1933  0.7909  0.9951
  376SOL     OW 1126   3.047   2.341   1.638  0.2639 -0.2752 -0.1840
  376SOL    HW1 1127   2.960   2.362   1.586 -2.5175  0.5975  1.2472
  376SOL    HW2 1128   3.054   2.234   1.640 -1.8568  0.1608 -1.2811
  377SOL     OW 1129   1.188   0.241   2.616  0.1136  0.2920 -0.1782
  377SOL    HW1 1130   1.246   0.158   2.617 -1.4340  0.9391  0.2797
  377SOL    HW2 1131   1.238   0.313   2.669 -2.3646 -1.2207 -1.8066
  378SOL     OW 1132   2.880   0.793   2.787 -0.3421  0.1454 -0.4748
  378SOL    HW1 1133   2.979   0.815   2.790  1.0407 -1.5981 -0.7122
  378SOL    HW2 1134   2.843   0.762   2.698  0.8012 -0.0927  1.9251
  379SOL     OW 1135   1.126   0.918   2.842  0.7179 -0.3388  0.0062
  379SOL    HW1 1136   1.030   0.921   2.801  1.5454  1.3626  0.5309
  379SOL    HW2 1137   1.115   0.933   2.942 -1.4095 -0.6021  0.7653
  380SOL     OW 1138   3.037   1.929   1.904 -0.1045  0.2372 -0.4018
  380SOL    HW1 1139   3.068   2.026   1.897 -0.7851 -1.3065 -0.2063
  380SOL    HW2 1140   2.939   1.923   1.930 -0.0647  1.5477  1.9930
  381SOL     OW 1141   0.049   0.987   2.517  0.0869 -0.4284  0.3558
  381SOL    HW1 1142   0.129   0.999   2.461 -0.5905 -1.7169 -0.4122
  381SOL    HW2 1143   3.067   1.073   2.519  0.0507 -1.9946  2.1416
  382SOL     OW 1144   1.889   2.318   0.599  0.6419 -0.1651  0.0134
  382SOL    HW1 1145   1.823   2.243   0.573  1.4968 -0.9291  0.2740
  382SOL    HW2 1146   1.882   2.342   0.697 -1.7608  0.1324  1.8576
  383SOL     OW 1147   0.591   1.631   0.193  0.1612  0.0231 -0.1737
  383SOL    HW1 1148   0.690   1.667   0.194  3.4631  0.2945  0.6851
  383SOL    HW2 1149   0.564   1.581   0.278 -1.5150 -0.1970  1.4666
  384SOL     OW 1150   0.737   2.286   2.397 -0.3142  0.0183  0.1501
  384SOL    HW1 1151   0.680   2.366   2.431  1.0250  1.3095 -0.0106
  384SOL    HW2 1152   0.774   2.228   2.474  2.7553 -0.9622  2.6396
  385SOL     OW 1153   2.450   2.007   0.665  0.4001  0.0714  0.5424
  385SOL    HW1 1154   2.523   2.042   0.720 -1.6432 -4.4055  0.2044
  385SOL    HW2 1155   2.384   2.077   0.635  0.6421  1.2449 -1.6620
  386SOL     OW 1156   2.266   0.820   1.041 -0.4663 -0.0264  0.1613
  386SOL    HW1 1157   2.265   0.724   1.002 -0.5229 -2.5687  0.2017
  386SOL    HW2 1158   2.176   0.865   1.046  3.2181  1.4062 -0.5178
  387SOL     OW 1159   0.413   0.783   2.003  0.1322  0.2526  0.0579
  387SOL    HW1 1160   0.426   0.823   2.096 -1.2962 -1.6673 -0.9166
  387SOL    HW2 1161   0.506   0.767   1.956  1.1875  1.9949 -0.2485
  388SOL     OW 1162   0.906   1.596   2.241 -0.2535  0.4521  0.5771
  388SOL    HW1 1163   0.900   1.641   2.329  0.8674  2.4571 -2.8537
  388SOL    HW2 1164   0.811   1.565   2.215 -0.5038  1.2457  1.6047
  389SOL     OW 1165   0.885   1.269   1.910  0.0520 -0.0628  0.2282
  389SOL    HW1 1166   0.798   1.290   1.958  1.1268 -1.1361 -1.0100
  389SOL    HW2 1167   0.900   1.316   1.824  1.4245 -1.1634  1.9008
  390SOL     OW 1168   2.867   2.900   0.796  0.0354 -0.3730 -0.3869
  390SOL    HW1 1169   2.829   2.858   0.878  0.0278 -0.3234  1.2556
  390SOL    HW2 1170   2.889   2.999   0.811 -1.1409  0.7791 -2.4790
  391SOL     OW 1171   1.643   1.536   1.160 -0.2208  0.3548  0.2347
  391SOL    HW1 1172   1.595   1.584   1.090  1.8836 -0.1015  0.8041
  391SOL    HW2 1173   1.683   1.446   1.126 -1.0304 -0.6371 -0.2956
  392SOL     OW 1174   2.958   2.993   0.035 -0.1670 -0.3158 -0.1915
  392SOL    HW1 1175   3.011   3.046   0.103 -1.4448  0.3358 -0.0993
  392SOL    HW2 1176   2.983   2.895   0.042  0.7752 -4.0956  0.9639
  393SOL     OW 1177   1.384   2.102   2.657 -0.1631  0.6764 -0.2100
  393SOL    HW1 1178   1.469   2.095   2.598 -0.5916 -0.4362 -1.5705
  393SOL    HW2 1179   1.411   2.114   2.757  0.7330  1.4726  2.3519
  394SOL     OW 1180   0.066   2.403   2.758  0.0680 -0.4926  0.3309
  394SOL    HW1 1181   0.080   2.333   2.684 -0.1535 -0.3326  2.1884
  394SOL    HW2 1182   3.061   2.374   2.819  0.7073  0.2140 -1.5614
  395SOL     OW 1183   0.097   0.147   0.782 -0.2101 -0.1275  0.5070
  395SOL    HW1 1184   0.086   0.231   0.835  1.7543 -2.2623  0.4950
  395SOL    HW2 1185   0.192   0.138   0.744  0.1517  1.2444  2.2511
  396SOL     OW 1186   2.214   0.283   0.609 -0.2614 -0.4277  0.1791
  396SOL    HW1 1187   2.128   0.304   0.657  0.9745  2.5437  0.6576
  396SOL    HW2 1188   2.192   0.205   0.547 -3.7361  0.8006  1.1888
  397SOL     OW 1189   0.138   0.720   2.508 -0.8790 -0.6944 -0.5447
  397SOL    HW1 1190   0.117   0.687   2.602  2.5917  2.3463 -1.4836
  397SOL    HW2 1191   0.129   0.819   2.508  0.2523 -1.5095 -0.8711
  398SOL     OW 1192   0.896   0.151   2.961  0.6913  0.4171 -0.1370
  398SOL    HW1 1193   0.922   0.216   2.888 -1.7863 -0.0386  0.9883
  398SOL    HW2 1194   0.954   0.068   2.957 -0.3529  2.4824 -1.3815
  399SOL     OW 1195   2.015   0.425   2.090  0.1476  0.7529  0.1915
  399SOL    HW1 1196   1.948   0.445   2.162  1.5746 -0.4738 -2.7689
  399SOL    HW2 1197   1.998   0.328   2.054  0.0189  0.3430  1.6737
  400SOL     OW 1198   0.950   2.272   2.807  0.1778  0.2693  0.6493
  400SOL    HW1 1199   1.022   2.277   2.734 -0.8020  2.2599 -1.3860
  400SOL    HW2 1200   0.956   2.357   2.856  1.4250 -1.2369 -1.6786
  401SOL     OW 1201   0.159   1.398   2.504  0.5850  0.4234 -0.2332
  401SOL    HW1 1202   0.248   1.361   2.471 -0.1813  0.0633 -0.8550
  401SOL    HW2 1203   0.115   1.457   2.434  2.1977 -0.4260 -0.4046
  402SOL     OW 1204   0.262   2.791   0.275  0.2553  0.5221 -0.3362
  402SOL    HW1 1205   0.238   2.700   0.239 -1.8780  1.1458  0.4615
  402SOL    HW2 1206   0.211   2.826   0.360  0.3341  0.4296  2.4319
  403SOL     OW 1207   0.403   1.168   1.741 -0.0749  0.1574 -0.6396
  403SOL    HW1 1208   0.473   1.101   1.768  0.1828 -1.1543 -0.0380
  403SOL    HW2 1209   0.372   1.146   1.651  2.8027 -1.0899  3.4290
  404SOL     OW 1210   2.337   2.498   2.123  0.4382  0.0119  0.0794
  404SOL    HW1 1211   2.302   2.562   2.194 -1.7217  0.4442  0.3239
  404SOL    HW2 1212   2.303   2.402   2.146 -1.0590 -0.2420  1.0197
  405SOL     OW 1213   0.135   0.477   1.973 -0.2003  0.7186  0.2285
  405SOL    HW1 1214   0.048   0.433   2.003 -0.1652  0.7829  0.9641
  405SOL    HW2 1215   0.134   0.472   1.868 -1.5679 -0.6631 -1.8809
  406SOL     OW 1216   1.178   1.605   2.830 -0.2029 -0.6296 -0.5056
  406SOL    HW1 1217   1.106   1.613   2.899  0.6024  1.8848 -1.0706
  406SOL    HW2 1218   1.253   1.668   2.858  0.0234 -2.6058 -0.4244
  407SOL     OW 1219   2.053   0.713   2.725  0.3726 -0.4136  0.0962
  407SOL    HW1 1220   2.001   0.696   2.639 -1.1215 -0.4149  1.6732
  407SOL    HW2 1221   2.111   0.797   2.724 -1.4543 -1.6414  1.0950
  408SOL     OW 1222   0.369   2.488   2.233  0.1040  0.3110 -0.7400
  408SOL    HW1 1223   0.297   2.553   2.271 -1.8304  1.5904 -2.5618
  408SOL    HW2 1224   0.421   2.526   2.150  2.6514  1.4021 -2.5324
  409SOL     OW 1225   0.119   2.298   1.092 -0.0601 -0.2902  0.3729
  409SOL    HW1 1226   0.117   2.200   1.060  1.3905 -2.7303 -2.6152
  409SOL    HW2 1227   0.033   2.338   1.121  1.3378 -2.6157  2.8525
  410SOL     OW 1228   2.816   1.724   0.485  0.1983  0.0247 -0.7904
  410SOL    HW1 1229   2.900   1.761   0.531 -0.6383 -0.4158 -0.8839
  410SOL    HW2 1230   2.832   1.647   0.423 -2.1469 -0.0800  0.5718
  411SOL     OW 1231   2.542   2.911   1.217  0.0718 -0.1729 -0.7546
  411SOL    HW1 1232   2.462   2.954   1.172 -2.1904  0.0566 -2.2753
  411SOL    HW2 1233   2.531   2.809   1.240 -0.2024 -2.6067  0.7447
  412SOL     OW 1234   2.138   0.226   1.679  0.0916 -0.3216  0.4730
  412SOL    HW1 1235   2.160   0.136   1.719 -0.5389  0.0371 -0.6533
  412SOL    HW2 1236   2.099   0.217   1.587 -1.3562 -1.5280  2.0625
  413SOL     OW 1237   0.159   0.257   2.278  0.2638 -1.0461  0.3272
  413SOL    HW1 1238   0.193   0.344   2.318  1.2097  0.0457 -1.6340
  413SOL    HW2 1239   0.229   0.189   2.253 -0.7599  0.4842  1.9596
  414SOL     OW 1240   2.772   1.172   0.034  0.2090  0.3756 -0.1645
  414SOL    HW1 1241   2.722   1.249   3.060  0.4594  0.1248 -1.5923
  414SOL    HW2 1242   2.743   1.167   0.130  0.0620  0.6251 -1.5140
  415SOL     OW 1243   0.964   2.490   0.099  0.1260 -0.1802 -0.4898
  415SOL    HW1 1244   1.001   2.578   0.126  2.4663 -2.0999 -0.4089
  415SOL    HW2 1245   1.026   2.412   0.129 -0.2356  0.2320  1.7208
  416SOL     OW 1246   1.457   2.815   2.463 -0.3292  0.2222  0.5228
  416SOL    HW1 1247   1.373   2.775   2.424  1.8058  1.0201  0.4779
  416SOL    HW2 1248   1.536   2.775   2.410 -1.9439 -0.4912  2.3984
  417SOL     OW 1249   0.270   0.989   1.300  0.2157 -0.3894 -0.3606
  417SOL    HW1 1250   0.237   0.991   1.201 -1.4166 -3.4908  1.9382
  417SOL    HW2 1251   0.376   0.990   1.314  0.6985 -0.5308  2.1487
  418SOL     OW 1252   2.599   0.022   0.914  0.2371  0.6374  0.2910
  418SOL    HW1 1253   2.523   0.083   0.950  0.3034  2.0540  1.6710
  418SOL    HW2 1254   2.688   0.068   0.908 -0.6252  1.8893 -2.0378
  419SOL     OW 1255   0.194   0.148   0.401  0.1627  0.4034  0.1075
  419SOL    HW1 1256   0.171   0.055   0.438 -0.0168  1.6833  3.0449
  419SOL    HW2 1257   0.260   0.185   0.471 -1.7636 -1.1207 -0.9553
  420SOL     OW 1258   0.249   1.171   1.494 -0.8057 -0.2228  0.3148
  420SOL    HW1 1259   0.252   1.110   1.410  1.7958  1.1801  1.8597
  420SOL    HW2 1260   0.157   1.176   1.537 -0.0602  0.6116 -1.0979
  421SOL     OW 1261   1.702   2.598   0.791  0.2312 -0.0002 -0.3752
  421SOL    HW1 1262   1.754   2.511   0.815  1.1697 -0.1233 -0.6994
  421SOL    HW2 1263   1.606   2.575   0.767 -2.8059  1.9598 -0.9632
  422SOL     OW 1264   0.073   0.378   1.325  0.0071  0.3239 -0.0206
  422SOL    HW1 1265   0.165   0.356   1.278 -0.0093  0.2199 -0.5544
  422SOL    HW2 1266   0.086   0.466   1.378  0.3559  0.3759  0.6073
  423SOL     OW 1267   1.086   1.285   2.098  0.0303 -0.3584 -0.1855
  423SOL    HW1 1268   1.017   1.267   2.026  0.3685 -2.2714 -1.7449
  423SOL    HW2 1269   1.086   1.386   2.120 -0.6326 -0.5645  1.3696
  424SOL     OW 1270   1.719   2.122   0.503 -0.1283 -0.0925 -0.3358
  424SOL    HW1 1271   1.663   2.052   0.456  0.2587 -0.0827  0.5945
  424SOL    HW2 1272   1.811   2.080   0.508 -1.8323  0.1213  0.1661
  425SOL     OW 1273   2.842   2.821   2.109  0.2863  0.4826 -0.1909
  425SOL    HW1 1274   2.754   2.786   2.150 -1.1504  2.2463 -1.6299
  425SOL    HW2 1275   2.832   2.815   2.006 -0.6877 -0.7768  0.4750
  426SOL     OW 1276   2.991   2.838   2.774 -0.1578  0.7340  0.0555
  426SOL    HW1 1277   0.002   2.807   2.729 -2.7688 -0.7703  0.7206
  426SOL    HW2 1278   2.976   2.941   2.774 -2.0891  2.8816  1.1129
  427SOL     OW 1279   0.949   2.972   0.212  0.1478 -0.0088  0.6333
  427SOL    HW1 1280   1.020   3.035   0.180 -1.0251 -0.6265  1.7838
  427SOL    HW2 1281   0.858   3.009   0.178  1.7352 -1.9302 -1.0818
  428SOL     OW 1282   2.759   0.444   1.508 -0.5501  0.3460  0.0920
  428SOL    HW1 1283   2.819   0.364   1.489  1.2542  0.7806  0.2702
  428SOL    HW2 1284   2.752   0.493   1.422  0.9227 -0.7947 -0.5184
  429SOL     OW 1285   1.968   2.997   0.591 -0.4928 -0.5376 -0.9897
  429SOL    HW1 1286   1.899   2.974   0.525 -0.7367  3.4089 -0.0152
  429SOL    HW2 1287   2.056   3.014   0.543  1.6980 -1.0287 -1.6683
  430SOL     OW 1288   0.873   1.589   2.700 -0.0143  0.0900 -0.8162
  430SOL    HW1 1289   0.837   1.670   2.650  0.8040 -1.0870 -0.0906
  430SOL    HW2 1290   0.975   1.575   2.681 -0.8535  2.3739 -0.6372
  431SOL     OW 1291   0.061   1.932   1.359  0.3116  0.3462  0.1963
  431SOL    HW1 1292   3.059   1.916   1.431 -1.4683 -1.8191  0.9426
  431SOL    HW2 1293   0.117   2.015   1.376 -1.3548  0.1411  2.1625
  432SOL     OW 1294   1.510   2.439   2.709  0.5977  0.0353 -0.0709
  432SOL    HW1 1295   1.570   2.492   2.638  0.6511 -1.5316  0.5856
  432SOL    HW2 1296   1.472   2.355   2.664  0.7639 -0.8658 -1.0230
  433SOL     OW 1297   1.155   0.464   2.324 -0.2693  0.3216  0.1278
  433SOL    HW1 1298   1.083   0.473   2.257  1.5361  0.1159  1.6968
  433SOL    HW2 1299   1.193   0.556   2.350 -0.3610 -0.9366 -0.0882
  434SOL     OW 1300   0.782   2.568   2.104 -0.0292 -0.1151  0.0928
  434SOL    HW1 1301   0.814   2.577   2.009 -1.0058  2.8669  0.9902
  434SOL    HW2 1302   0.819   2.480   2.144  1.7942 -0.6664 -2.5300
  435SOL     OW 1303   0.313   0.136   0.171 -0.2074 -0.4290  0.1428
  435SOL    HW1 1304   0.257   0.130   0.252  2.6555 -0.4466 -0.7445
  435SOL    HW2 1305   0.309   0.229   0.134 -0.2230  1.5555  1.5188
  436SOL     OW 1306   0.598   1.410   2.420  0.4029  0.8153 -0.5314
  436SOL    HW1 1307   0.515   1.354   2.395 -0.3960 -0.9778  1.0520
  436SOL    HW2 1308   0.625   1.460   2.332 -1.4359  2.9589 -0.6676
  437SOL     OW 1309   1.171   2.385   2.403  0.3599  0.3544  0.3623
  437SOL    HW1 1310   1.192   2.370   2.300 -0.1347  1.2709 -2.7751
  437SOL    HW2 1311   1.076   2.431   2.412  0.1425  0.7076  2.0131
  438SOL     OW 1312   0.782   1.008   0.660 -0.3831 -0.3140  0.4699
  438SOL    HW1 1313   0.788   1.029   0.758 -0.2895 -0.4268 -2.5679
  438SOL    HW2 1314   0.876   0.989   0.618  0.5219 -1.3106 -2.0159
  439SOL     OW 1315   2.839   1.330   2.325 -0.1577 -0.5452  0.4852
  439SOL    HW1 1316   2.763   1.262   2.316 -0.9104 -0.8734 -0.5360
  439SOL    HW2 1317   2.848   1.366   2.230 -1.6134  1.0897 -0.3060
  440SOL     OW 1318   2.904   0.544   2.908 -0.1713  0.2792 -0.1394
  440SOL    HW1 1319   2.927   0.487   2.827 -1.8969  0.1367  0.3958
  440SOL    HW2 1320   2.896   0.644   2.882 -0.2678 -2.0916 -0.1892
  441SOL     OW 1321   0.742   1.851   1.526 -0.5898 -0.5153 -0.1320
  441SOL    HW1 1322   0.766   1.948   1.521 -0.7808 -0.4075  1.4544
  441SOL    HW2 1323   0.734   1.832   1.627 -0.3323  1.3473 -1.9177
  442SOL     OW 1324   1.847   1.299   0.798  0.5882 -0.6981 -0.1368
  442SOL    HW1 1325   1.876   1.262   0.711  0.0616  0.2962  1.6133
  442SOL    HW2 1326   1.791   1.384   0.787 -1.4352 -0.8278  2.5683
  443SOL     OW 1327   2.442   1.983   3.035  0.0139  0.3521  0.0455
  443SOL    HW1 1328   2.392   1.990   2.949 -1.3793 -0.1026  2.5481
  443SOL    HW2 1329   2.452   2.075   0.002 -1.2653  0.3615  2.2611
  444SOL     OW 1330   1.823   1.332   2.780  0.0847  0.1248 -0.2797
  444SOL    HW1 1331   1.839   1.241   2.821 -1.1812 -0.5674 -0.6643
  444SOL    HW2 1332   1.892   1.397   2.825  0.6572 -0.1556 -0.0211
  445SOL     OW 1333   0.331   2.225   2.165 -0.1431 -0.2036 -0.2117
  445SOL    HW1 1334   0.358   2.313   2.201  0.6834 -2.5242 -2.4726
  445SOL    HW2 1335   0.236   2.210   2.180  1.3511  5.2449 -1.2294
  446SOL     OW 1336   0.869   0.827   1.671 -0.1983 -0.6613 -0.1791
  446SOL    HW1 1337   0.848   0.742   1.721  2.5878  0.0538 -0.3129
  446SOL    HW2 1338   0.856   0.818   1.571 -0.4929 -0.1608  1.2436
  447SOL     OW 1339   1.079   0.889   0.579  0.1882  0.3041 -0.4277
  447SOL    HW1 1340   1.160   0.921   0.535 -0.9042 -2.0116 -2.2445
  447SOL    HW2 1341   1.089   0.802   0.625 -5.9142  1.5492 -1.3344
  448SOL     OW 1342   1.326   1.175   2.085  0.0052 -0.4025  0.7411
  448SOL    HW1 1343   1.234   1.217   2.104  0.5564  0.2591 -0.4695
  448SOL    HW2 1344   1.320   1.114   2.010  1.0715  1.4989  3.3475
  449SOL     OW 1345   0.288   1.677   2.341 -0.6553 -0.0425  0.0739
  449SOL    HW1 1346   0.219   1.739   2.301 -0.3131  0.5116  2.3126
  449SOL    HW2 1347   0.285   1.588   2.280  1.9028 -0.9670 -2.6129
  450SOL     OW 1348   2.073   1.410   2.151 -0.1671  0.9374  0.5406
  450SOL    HW1 1349   2.149   1.433   2.084 -0.5435 -1.2731 -0.2529
  450SOL    HW2 1350   2.094   1.454   2.235 -0.5251 -2.8460 -5.1461
  451SOL     OW 1351   2.549   1.300   1.419  0.5210  0.2101  0.2152
  451SOL    HW1 1352   2.575   1.395   1.401 -0.0514 -1.3803  0.2329
  451SOL    HW2 1353   2.629   1.244   1.456  0.3651  0.6697  0.5618
  452SOL     OW 1354   0.725   1.106   1.457 -0.0045  0.2345  0.2338
  452SOL    HW1 1355   0.779   1.092   1.546 -0.4972  0.2871  4.4384
  452SOL    HW2 1356   0.782   1.069   1.382 -1.6491 -2.4920 -1.1425
  453SOL     OW 1357   0.355   1.968   1.058 -0.2932  0.2084 -0.5361
  453SOL    HW1 1358   0.256   1.975   1.066 -2.3268  1.7595  0.1452
  453SOL    HW2 1359   0.383   2.010   0.973 -0.4141 -1.3084 -0.2102
  454SOL     OW 1360   1.331   1.413   0.200 -0.2215  0.1302  0.3102
  454SOL    HW1 1361   1.427   1.388   0.227 -0.6924  2.5343 -1.9620
  454SOL    HW2 1362   1.273   1.421   0.286  0.5341 -1.4470  0.6151
  455SOL     OW 1363   1.646   0.548   0.901  0.2253  0.3555  0.2530
  455SOL    HW1 1364   1.705   0.467   0.887 -3.2761 -0.1438  0.2520
  455SOL    HW2 1365   1.709   0.628   0.912 -0.6101  0.0643 -1.2578
  456SOL     OW 1366   1.795   2.939   0.391  0.2679  0.7063  0.1415
  456SOL    HW1 1367   1.695   2.931   0.369  0.3862  1.7328  0.3131
  456SOL    HW2 1368   1.832   3.013   0.333  1.7385 -0.9666  4.5183
  457SOL     OW 1369   1.957   0.941   2.305 -0.6131  0.3963  0.3667
  457SOL    HW1 1370   1.959   0.909   2.206 -0.1847 -0.3767 -2.3321
  457SOL    HW2 1371   1.951   1.041   2.305  2.0645 -0.0184  0.9195
  458SOL     OW 1372   2.587   0.495   2.400  0.5032 -0.4494  0.3039
  458SOL    HW1 1373   2.535   0.577   2.377 -0.0439 -1.8247  1.3867
  458SOL    HW2 1374   2.571   0.420   2.341 -2.2134  2.0740  2.1924
  459SOL     OW 1375   2.646   1.481   2.445 -0.2508  0.2301 -0.2315
  459SOL    HW1 1376   2.721   1.436   2.396 -1.9985  0.4507  1.9305
  459SOL    HW2 1377   2.657   1.482   2.544 -0.9969  1.4159 -4.2310
  460SOL     OW 1378   0.858   1.002   2.775  0.2589 -0.2305  0.3933
  460SOL    HW1 1379   0.829   1.102   2.781  2.1692  5.9138 -1.2571
  460SOL    HW2 1380   0.813   0.953   2.696  1.5700  1.7432  1.2103
  461SOL     OW 1381   0.340   2.246   0.171 -0.1787  0.3824 -0.2694
  461SOL    HW1 1382   0.394   2.322   0.217  0.8063 -0.5768 -0.0070
  461SOL    HW2 1383   0.304   2.267   0.079  1.5659  2.3119  3.4318
  462SOL     OW 1384   1.195   3.022   2.330  0.2523  0.4655 -0.3267
  462SOL    HW1 1385   1.259   2.962   2.281 -0.7288  2.5908 -1.4787
  462SOL    HW2 1386   1.104   3.024   2.281  0.5648 -0.3874  0.2779
  463SOL     OW 1387   2.005   2.348   2.066 -0.1109  0.6111  0.2070
  463SOL    HW1 1388   1.922   2.292   2.078  2.4856 -0.6033 -0.5352
  463SOL    HW2 1389   2.077   2.289   2.109 -1.5380  0.2736  0.4486
  464SOL     OW 1390   2.292   2.455   0.739  0.0685 -0.1009 -0.0721
  464SOL    HW1 1391   2.195   2.488   0.741 -0.7467 -1.0433  0.8956
  464SOL    HW2 1392   2.359   2.531   0.755  3.2115  3.0203 -0.1300
  465SOL     OW 1393   0.059   0.113   1.430 -0.4798 -0.1296 -0.4461
  465SOL    HW1 1394   0.093   0.070   1.344 -0.7901 -1.9002  0.1786
  465SOL    HW2 1395   0.052   0.212   1.429  1.9586 -1.3031 -1.4361
  466SOL     OW 1396   1.248   2.675   2.351  1.2233  0.0785 -0.2279
  466SOL    HW1 1397   1.195   2.590   2.378 -0.4091 -2.4851 -1.1830
  466SOL    HW2 1398   1.198   2.713   2.275  0.0145 -1.7215  2.0895
  467SOL     OW 1399   0.050   2.273   0.332  0.8032  0.3119 -0.0488
  467SOL    HW1 1400   3.067   2.211   0.274 -1.9605  1.1501  3.3760
  467SOL    HW2 1401   0.106   2.335   0.274  2.3665 -0.3460  1.0886
  468SOL     OW 1402   2.124   1.960   2.849  0.1426  0.1135 -0.4328
  468SOL    HW1 1403   2.082   1.918   2.935 -1.9560 -2.5273  1.6394
  468SOL    HW2 1404   2.201   2.020   2.875 -2.0922 -1.9456 -1.1819
  469SOL     OW 1405   0.804   1.916   0.633  0.0686  0.4481 -0.4106
  469SOL    HW1 1406   0.875   1.962   0.698  0.5627  2.6223  2.7079
  469SOL    HW2 1407   0.835   1.818   0.620 -1.4294  0.1672 -3.4391
  470SOL     OW 1408   1.898   0.738   0.966  0.3623  0.4826  0.7069
  470SOL    HW1 1409   1.919   0.657   1.023 -0.2015  0.3987 -1.5760
  470SOL    HW2 1410   1.933   0.824   1.002  0.0097 -1.2662 -0.7293
  471SOL     OW 1411   0.321   1.840   0.466 -0.3459 -0.4054  0.0312
  471SOL    HW1 1412   0.333   1.815   0.368 -2.7576  1.8357 -1.5143
  471SOL    HW2 1413   0.292   1.934   0.479  1.4043 -2.6149 -0.5360
  472SOL     OW 1414   2.740   1.891   2.644  0.0655 -0.0775 -0.0961
  472SOL    HW1 1415   2.826   1.837   2.618  1.8525  0.4180  1.6382
  472SOL    HW2 1416   2.708   1.963   2.578 -0.4108 -0.2432  1.5109
  473SOL     OW 1417   1.442   1.885   0.625 -0.2951  0.3118 -0.3928
  473SOL    HW1 1418   1.377   1.960   0.600  0.3948  0.0992  0.9196
  473SOL    HW2 1419   1.474   1.895   0.726  0.5062 -1.1008  1.9862
  474SOL     OW 1420   2.645   0.366   1.122 -0.3569 -0.4349 -0.3782
  474SOL    HW1 1421   2.560   0.378   1.073 -1.3914 -1.8914  0.8978
  474SOL    HW2 1422   2.724   0.374   1.058 -0.6731  0.3317 -0.7583
  475SOL     OW 1423   2.820   2.880   1.827  0.1761  0.2555  0.4967
  475SOL    HW1 1424   2.823   2.799   1.763 -0.3571  1.2123 -0.0234
  475SOL    HW2 1425   2.765   2.962   1.793 -2.6143  4.2773  0.8120
  476SOL     OW 1426   0.693   0.255   0.869  0.5745  0.1605  0.0580
  476SOL    HW1 1427   0.790   0.287   0.849  0.6168  1.4281 -0.0153
  476SOL    HW2 1428   0.622   0.318   0.828 -0.0033  1.0728  2.1695
  477SOL     OW 1429   1.282   2.421   1.288 -0.1635 -0.0087 -0.1700
  477SOL    HW1 1430   1.344   2.357   1.339 -0.2368 -1.3367  0.5759
  477SOL    HW2 1431   1.323   2.507   1.259  0.0859 -1.3466 -0.4457
  478SOL     OW 1432   1.255   2.527   2.747 -0.2533 -0.2890 -0.2042
  478SOL    HW1 1433   1.186   2.564   2.686  0.1146  0.3551  0.9573
  478SOL    HW2 1434   1.348   2.531   2.706  2.4625  0.1832  0.1506
  479SOL     OW 1435   2.214   1.052   2.075 -0.2340 -0.7301 -0.2339
  479SOL    HW1 1436   2.236   1.102   2.162  0.8481  1.0910 -0.7975
  479SOL    HW2 1437   2.280   0.973   2.074  0.9158 -3.3189  0.5998
  480SOL     OW 1438   2.680   2.102   2.880 -0.0274  0.1517 -0.2840
  480SOL    HW1 1439   2.689   2.056   2.793  0.1896 -0.8980  0.5571
  480SOL    HW2 1440   2.594   2.076   2.923 -1.5701 -1.3109 -1.1327
  481SOL     OW 1441   1.672   2.860   1.537  0.1178  0.0830 -0.2742
  481SOL    HW1 1442   1.736   2.831   1.616 -0.9499 -0.1415  3.2769
  481SOL    HW2 1443   1.580   2.814   1.537  0.9228 -1.3812  1.0895
  482SOL     OW 1444   1.502   2.433   2.209 -0.2913  0.0238  0.1145
  482SOL    HW1 1445   1.529   2.395   2.116 -1.4054 -0.5542 -0.0822
  482SOL    HW2 1446   1.438   2.508   2.191  1.1671 -0.7771  0.3625
  483SOL     OW 1447   0.991   2.614   2.644  0.0465 -0.4353 -0.0586
  483SOL    HW1 1448   0.974   2.601   2.747 -0.0207  2.8951  0.1240
  483SOL    HW2 1449   1.027   2.706   2.620 -1.9626 -0.3447 -0.4503
  484SOL     OW 1450   2.503   2.973   1.511  0.0190 -0.2883 -0.0692
  484SOL    HW1 1451   2.420   2.930   1.545 -0.0739  4.1133 -0.6265
  484SOL    HW2 1452   2.532   2.932   1.420 -0.9858 -0.9432  0.2440
  485SOL     OW 1453   1.974   0.477   0.637 -0.9272 -0.2823  0.2133
  485SOL    HW1 1454   2.030   0.555   0.602  0.0564  0.8098  0.4705
  485SOL    HW2 1455   1.892   0.458   0.582  0.7780 -2.2531  1.5733
  486SOL     OW 1456   2.452   2.483   2.434  0.1207  0.5955 -0.3112
  486SOL    HW1 1457   2.429   2.578   2.433  0.0616 -3.3262  0.8920
  486SOL    HW2 1458   2.516   2.454   2.361 -1.4823 -1.7274  2.3041
  487SOL     OW 1459   1.367   0.720   0.630 -0.2305  0.0543  0.0062
  487SOL    HW1 1460   1.275   0.672   0.628  2.7084 -2.1759  1.2214
  487SOL    HW2 1461   1.443   0.652   0.638  2.2181  2.0273  1.0078
  488SOL     OW 1462   2.611   2.836   2.410  0.1056 -0.8714 -0.0692
  488SOL    HW1 1463   2.597   2.789   2.320 -0.2258 -0.6606 -0.0695
  488SOL    HW2 1464   2.529   2.817   2.470 -2.5369  0.4541 -2.3944
  489SOL     OW 1465   1.250   2.633   0.361 -0.2389 -0.1964 -0.4085
  489SOL    HW1 1466   1.279   2.652   0.454  0.1969  0.6563 -0.4236
  489SOL    HW2 1467   1.181   2.554   0.359  0.6165  0.4510 -1.6321
  490SOL     OW 1468   1.543   0.399   3.031 -0.5322  0.5018  0.1557
  490SOL    HW1 1469   1.634   0.441   3.013 -0.8665  1.5622  0.6711
  490SOL    HW2 1470   1.477   0.476   3.055 -1.8945  3.1254  0.3082
  491SOL     OW 1471   0.837   2.946   1.254  0.5432 -0.0074 -0.2610
  491SOL    HW1 1472   0.777   3.024   1.216 -2.0780  0.8016 -1.3626
  491SOL    HW2 1473   0.888   2.974   1.336  0.1473  1.0367 -3.5319
  492SOL     OW 1474   1.603   2.648   0.400  0.6117  0.1820  0.0830
  492SOL    HW1 1475   1.662   2.566   0.419 -1.7629 -0.0633  1.4804
  492SOL    HW2 1476   1.586   2.654   0.300 -1.1431  2.1112  3.0603
  493SOL     OW 1477   1.007   2.035   2.914 -0.6082  0.9149  0.2850
  493SOL    HW1 1478   1.028   1.971   2.837 -1.6852  0.3046 -0.6454
  493SOL    HW2 1479   1.025   2.129   2.880 -0.9858 -0.0183 -0.7034
  494SOL     OW 1480   0.969   0.740   0.355 -0.3673  0.2461 -0.0499
  494SOL    HW1 1481   1.012   0.721   0.266  1.8143 -0.9334 -1.6461
  494SOL    HW2 1482   1.034   0.780   0.423  0.9909 -0.5311  3.8559
  495SOL     OW 1483   2.635   0.284   1.702 -0.0959 -0.1742  0.0440
  495SOL    HW1 1484   2.703   0.345   1.652 -0.4571  0.4272 -0.2663
  495SOL    HW2 1485   2.542   0.286   1.653 -3.7214  0.5820  1.0378
  496SOL     OW 1486   2.371   2.261   2.591  0.4883 -0.2455 -0.4452
  496SOL    HW1 1487   2.396   2.342   2.539 -0.1851  0.4382 -0.5614
  496SOL    HW2 1488   2.381   2.175   2.539 -1.0326 -1.4408  0.9666
  497SOL     OW 1489   1.736   1.498   2.595 -0.3459  0.0410 -0.3603
  497SOL    HW1 1490   1.795   1.428   2.644  1.4000 -1.1991  1.4627
  497SOL    HW2 1491   1.637   1.481   2.614  1.0651  0.7504 -0.8947
  498SOL     OW 1492   0.805   2.538   1.023 -0.5020 -0.5106  0.2967
  498SOL    HW1 1493   0.706   2.545   1.005  1.6107  1.3917  2.4357
  498SOL    HW2 1494   0.827   2.453   1.074 -1.8865 -0.6274  1.6936
  499SOL     OW 1495   0.060   2.022   1.104 -0.1362 -0.1304 -0.2070
  499SOL    HW1 1496   3.046   2.065   1.068 -0.8565  0.1416  0.6639
  499SOL    HW2 1497   0.060   2.012   1.209 -0.0348  0.5265  0.3880
  500SOL     OW 1498   0.643   2.586   2.897  0.7540  0.3534 -0.0510
  500SOL    HW1 1499   0.553   2.550   2.935  1.8429 -2.1968  0.1073
  500SOL    HW2 1500   0.627   2.616   2.800  0.8146 -0.6458  0.8320
  501SOL     OW 1501   1.744   3.038   0.047  0.4424  0.3064  0.3715
  501SOL    HW1 1502   1.703   2.944   0.054  0.5348  0.0968  1.4769
  501SOL    HW2 1503   1.673   0.033   0.022  1.4172  1.0679  0.5220
  502SOL     OW 1504   2.897   0.102   0.828  0.0329  0.2486 -0.2419
  502SOL    HW1 1505   2.858   0.134   0.741 -1.1275 -0.6551  1.4192
  502SOL    HW2 1506   2.996   0.105   0.825 -0.0696 -1.8446 -0.6075
  503SOL     OW 1507   2.061   2.997   2.001  0.0296  0.1994  0.2381
  503SOL    HW1 1508   2.122   2.964   2.079 -2.8349  0.4573  2.0311
  503SOL    HW2 1509   1.966   3.000   2.039 -0.2872 -0.7558  0.0563
  504SOL     OW 1510   2.125   1.140   1.832  0.4352  0.4249 -0.5458
  504SOL    HW1 1511   2.092   1.055   1.785  0.7059 -2.3242  0.8677
  504SOL    HW2 1512   2.187   1.117   1.914  2.4929 -0.0439  1.6497
  505SOL     OW 1513   1.808   0.001   2.066  0.2928 -0.8721 -0.4506
  505SOL    HW1 1514   1.814   0.065   2.148 -1.6361  0.1578  1.0381
  505SOL    HW2 1515   1.782   0.053   1.983  1.5950 -1.5788  1.5015
  506SOL     OW 1516   0.151   0.765   1.964  0.0141  0.4009  0.4022
  506SOL    HW1 1517   0.112   0.668   1.970  1.6316 -1.7445  0.8020
  506SOL    HW2 1518   0.249   0.762   1.984 -0.9849 -2.9092  0.0019
  507SOL     OW 1519   1.758   0.464   0.474 -0.0349 -0.0961 -0.1990
  507SOL    HW1 1520   1.743   0.539   0.404 -0.4539 -0.6973 -0.5131
  507SOL    HW2 1521   1.748   0.371   0.437  1.9009  0.9915  1.0730
  508SOL     OW 1522   2.012   0.636   1.922 -0.2394  0.4981  0.6246
  508SOL    HW1 1523   2.026   0.554   1.981 -3.1418  0.6353  0.9955
  508SOL    HW2 1524   1.942   0.628   1.849 -3.9266  1.4308 -0.8909
  509SOL     OW 1525   0.584   1.810   2.941 -0.5108  0.1319  0.3692
  509SOL    HW1 1526   0.610   1.880   3.012  0.6942 -3.2443 -1.4256
  509SOL    HW2 1527   0.610   1.715   2.967  0.5306 -0.6754  0.6719
  510SOL     OW 1528   0.373   1.030   0.956  0.4755 -0.2341  0.5487
  510SOL    HW1 1529   0.437   1.024   1.031 -2.5798 -2.3757  0.0188
  510SOL    HW2 1530   0.409   1.102   0.892  2.0117  2.4047  3.0911
  511SOL     OW 1531   1.433   1.399   1.409  0.1931  0.3606 -0.7203
  511SOL    HW1 1532   1.503   1.323   1.403 -0.1772 -0.3609 -0.8847
  511SOL    HW2 1533   1.456   1.486   1.357  0.5071  0.9721  1.4609
  512SOL     OW 1534   0.571   1.975   0.788  0.5017 -0.0193 -0.0032
  512SOL    HW1 1535   0.612   1.892   0.749 -0.1050  2.9434  0.8540
  512SOL    HW2 1536   0.636   2.053   0.787 -0.1687  0.6019  0.1007
  513SOL     OW 1537   0.288   2.603   0.744  0.0731  0.1954 -0.4350
  513SOL    HW1 1538   0.338   2.650   0.666  0.2078  2.1045 -0.4103
  513SOL    HW2 1539   0.350   2.581   0.820  1.6902  1.0072 -1.0211
  514SOL     OW 1540   0.659   2.073   0.482 -0.1601  0.2018  0.0047
  514SOL    HW1 1541   0.679   2.038   0.385  1.3756  0.1484  0.4708
  514SOL    HW2 1542   0.728   2.034   0.548  1.5542  1.1266  2.7476
  515SOL     OW 1543   0.081   0.325   3.036 -0.3951 -0.5267 -0.2017
  515SOL    HW1 1544   0.011   0.388   0.006 -3.6288 -1.2714  0.3423
  515SOL    HW2 1545   0.180   0.350   3.051  3.4475  1.9451 -1.2909
  516SOL     OW 1546   2.295   3.054   1.190  0.3966 -0.5444  0.2725
  516SOL    HW1 1547   2.222   3.013   1.247 -1.3837  1.2227 -2.0307
  516SOL    HW2 1548   2.334   0.066   1.239 -1.3599 -0.1340  0.3005
  517SOL     OW 1549   1.780   1.557   0.754  0.5841 -0.2129 -0.5140
  517SOL    HW1 1550   1.762   1.641   0.691  0.3232 -0.9416  0.1426
  517SOL    HW2 1551   1.877   1.562   0.782 -2.1256 -1.5879  0.3760
  518SOL     OW 1552   1.723   2.840   0.901 -0.2724  0.1086  0.1075
  518SOL    HW1 1553   1.745   2.798   0.994 -1.0684 -1.6606 -1.2410
  518SOL    HW2 1554   1.713   2.769   0.829  0.3797  1.3658  0.5230
  519SOL     OW 1555   2.929   2.727   0.352 -0.3204  0.4085  0.7512
  519SOL    HW1 1556   2.975   2.664   0.418 -3.2060  0.3490  1.3234
  519SOL    HW2 1557   2.889   2.799   0.416  0.7719 -0.1284 -2.5415
  520SOL     OW 1558   2.050   1.811   2.179  0.0011  0.3382  0.4151
  520SOL    HW1 1559   2.081   1.816   2.276 -1.9796 -3.0339  0.1782
  520SOL    HW2 1560   1.977   1.744   2.172  3.0108  0.1226  1.4994
  521SOL     OW 1561   1.358   2.988   1.869  0.7355 -0.1743 -0.1151
  521SOL    HW1 1562   1.337   2.906   1.815 -1.1872  0.6788 -1.7796
  521SOL    HW2 1563   1.280   3.051   1.858 -0.5229 -1.7568  4.0985
  522SOL     OW 1564   0.429   2.411   1.832  0.0857 -0.1545  0.1560
  522SOL    HW1 1565   0.341   2.419   1.776  0.4763 -1.0844 -1.3713
  522SOL    HW2 1566   0.439   2.309   1.854 -1.1980 -0.2674 -0.5059
  523SOL     OW 1567   0.968   2.314   1.883  0.1569  0.1183  0.1845
  523SOL    HW1 1568   0.941   2.408   1.859 -0.7077 -0.9031 -1.0481
  523SOL    HW2 1569   0.919   2.296   1.969  1.0725 -0.9717 -2.1936
  524SOL     OW 1570   2.096   2.212   0.404  0.0880 -0.5021  0.0395
  524SOL    HW1 1571   2.065   2.146   0.335 -1.6029  0.8556  1.7641
  524SOL    HW2 1572   2.011   2.247   0.448 -3.8336 -0.9302 -0.2487
  525SOL     OW 1573   2.699   0.708   2.603  0.3154 -0.0254 -0.0165
  525SOL    HW1 1574   2.673   0.633   2.537 -0.4734 -0.9704  0.0495
  525SOL    HW2 1575   2.621   0.722   2.663  3.8769 -2.1876  1.1466
  526SOL     OW 1576   0.428   2.662   0.503  0.2647 -0.1458 -0.2559
  526SOL    HW1 1577   0.524   2.634   0.491 -0.9445  0.1297  0.0950
  526SOL    HW2 1578   0.392   2.720   0.429 -1.2223  1.1342 -1.5722
  527SOL     OW 1579   2.941   0.912   0.853  0.1660 -0.1960 -0.3591
  527SOL    HW1 1580   2.894   0.878   0.769  1.7425  0.1038  0.5011
  527SOL    HW2 1581   2.882   0.903   0.938 -0.8065  1.6632  1.6488
  528SOL     OW 1582   0.885   1.131   2.432  0.3342  0.1373  0.3277
  528SOL    HW1 1583   0.832   1.202   2.477 -0.0975 -0.4644 -0.3895
  528SOL    HW2 1584   0.984   1.137   2.457  0.1662  1.6432 -1.9557
  529SOL     OW 1585   0.798   1.303   0.330  0.0079 -0.0815  0.0178
  529SOL    HW1 1586   0.861   1.227   0.307 -1.4036 -1.6985 -0.2364
  529SOL    HW2 1587   0.756   1.347   0.247  0.1453  2.1308  0.2247
  530SOL     OW 1588   1.145   0.820   1.669 -0.0648  0.0349  0.4879
  530SOL    HW1 1589   1.042   0.821   1.681 -0.7943  0.2710 -1.4183
  530SOL    HW2 1590   1.187   0.728   1.674  3.8336 -3.0116  1.0027
  531SOL     OW 1591   1.129   2.288   0.107  0.3034  0.4056 -0.3684
  531SOL    HW1 1592   1.178   2.310   0.021  0.2524  2.5907 -1.3192
  531SOL    HW2 1593   1.194   2.294   0.185 -0.0475  1.8610  1.0738
  532SOL     OW 1594   2.560   0.757   2.280 -0.3076 -0.2041  0.1621
  532SOL    HW1 1595   2.655   0.784   2.302  1.6702  1.0889 -0.3109
  532SOL    HW2 1596   2.559   0.705   2.195  0.2130  1.7793  1.8763
  533SOL     OW 1597   3.013   0.311   2.101  0.2509  0.0792  0.2360
  533SOL    HW1 1598   0.018   0.289   2.164  1.1408 -1.5743  0.2044
  533SOL    HW2 1599   2.933   0.256   2.116  0.4115  2.9987  0.3834
  534SOL     OW 1600   2.351   0.110   0.079 -0.2482 -0.0334 -0.4327
  534SOL    HW1 1601   2.408   0.175   0.025 -0.1123 -2.7839 -0.6764
  534SOL    HW2 1602   2.394   0.019   0.090 -1.2981 -2.2197 -1.3432
  535SOL     OW 1603   0.748   0.493   0.088  0.3056  0.2271  0.3871
  535SOL    HW1 1604   0.702   0.538   0.166  0.5323 -0.0804  0.1229
  535SOL    HW2 1605   0.675   0.466   0.015  0.8012  1.0351  0.7466
  536SOL     OW 1606   1.182   2.013   1.136 -0.1603  0.3616 -0.2484
  536SOL    HW1 1607   1.101   1.976   1.187 -1.6684 -0.3655 -0.9236
  536SOL    HW2 1608   1.177   2.119   1.131 -1.8395  4.5917  0.2857
  537SOL     OW 1609   2.796   2.325   1.497  0.0177 -0.0895 -0.9069
  537SOL    HW1 1610   2.779   2.423   1.483 -0.2794  0.5083 -0.4636
  537SOL    HW2 1611   2.716   2.285   1.551 -0.0528 -1.4446 -0.7262
  538SOL     OW 1612   0.548   2.332   0.454  0.0549 -0.3142  0.4527
  538SOL    HW1 1613   0.582   2.239   0.440 -0.9117  2.5111  0.9879
  538SOL    HW2 1614   0.571   2.356   0.551 -1.8008 -2.7775  0.8441
  539SOL     OW 1615   1.931   1.233   2.353  0.0348 -0.3137 -0.3894
  539SOL    HW1 1616   1.836   1.213   2.374  2.3925 -2.4220  1.4809
  539SOL    HW2 1617   1.934   1.300   2.275 -2.3276 -0.1544  0.0119
  540SOL     OW 1618   1.831   0.734   2.872  0.6312  0.3293 -0.0415
  540SOL    HW1 1619   1.818   0.636   2.899 -0.4320  0.1437  0.5704
  540SOL    HW2 1620   1.911   0.737   2.807  0.6323 -0.7576 -1.2913
  541SOL     OW 1621   0.719   0.918   2.562 -0.1734 -0.2649  0.4471
  541SOL    HW1 1622   0.657   0.840   2.540 -1.9263 -1.8712  0.6583
  541SOL    HW2 1623   0.711   0.994   2.492 -0.7118  0.1783 -2.4970
  542SOL     OW 1624   1.478   2.623   1.843 -0.1021 -0.1130  0.0283
  542SOL    HW1 1625   1.393   2.620   1.901 -0.2183  1.4258 -1.3139
  542SOL    HW2 1626   1.461   2.611   1.744 -1.9700  2.8764  0.7105
  543SOL     OW 1627   0.577   2.884   3.066  0.4469 -0.6040 -0.5145
  543SOL    HW1 1628   0.567   2.840   2.978 -0.2885  0.2261  2.0733
  543SOL    HW2 1629   0.483   2.923   0.008 -3.1940 -1.4203 -1.0173
  544SOL     OW 1630   2.851   2.066   2.099 -0.6561 -0.3911  0.4870
  544SOL    HW1 1631   2.870   2.160   2.060  0.7911  0.6883  0.7207
  544SOL    HW2 1632   2.906   2.052   2.179 -1.1112 -0.0518 -1.8553
  545SOL     OW 1633   1.487   1.760   1.690  0.4042 -0.5040  0.2470
  545SOL    HW1 1634   1.520   1.858   1.703  0.4330 -0.0206 -0.0114
  545SOL    HW2 1635   1.475   1.707   1.778 -1.9015 -0.3744 -1.4291
  546SOL     OW 1636   3.063   0.387   2.704  0.6664 -0.6765 -0.0549
  546SOL    HW1 1637   3.002   0.375   2.622 -1.9716 -0.1210 -3.0530
  546SOL    HW2 1638   0.030   0.297   2.732 -0.0614 -2.2669 -1.7393
  547SOL     OW 1639   1.477   2.978   0.930  0.4667 -0.4945 -0.0016
  547SOL    HW1 1640   1.473   2.970   1.029 -1.6551  1.6137 -0.5161
  547SOL    HW2 1641   1.560   2.927   0.899 -2.1618 -0.9544 -1.2590
  548SOL     OW 1642   1.268   1.999   3.030 -0.1318 -0.4758  0.2816
  548SOL    HW1 1643   1.273   2.038   0.053 -1.6992  1.9023  0.7857
  548SOL    HW2 1644   1.177   2.026   2.994 -1.6873  0.4792  1.2526
  549SOL     OW 1645   2.021   0.373   0.009  0.5253 -0.2745 -0.3447
  549SOL    HW1 1646   2.031   0.390   0.111  0.7588  0.2322  2.1622
  549SOL    HW2 1647   2.060   0.443   3.021  0.6007 -0.4667  0.1689
  550SOL     OW 1648   2.748   1.950   0.959  0.7573 -0.9050 -0.2749
  550SOL    HW1 1649   2.715   2.011   0.880  0.2462  1.0052  0.0208
  550SOL    HW2 1650   2.741   1.855   0.933 -0.0995  4.4281 -2.3774
  551SOL     OW 1651   1.143   0.138   1.115  0.3127 -0.0499  0.5090
  551SOL    HW1 1652   1.085   0.208   1.157  0.5198  0.1787 -1.7329
  551SOL    HW2 1653   1.109   0.133   1.019 -0.5341  1.9360 -1.2985
  552SOL     OW 1654   3.021   1.771   2.634  0.8006 -0.3586 -0.3470
  552SOL    HW1 1655   0.051   1.786   2.624  1.7859 -1.3663 -1.9664
  552SOL    HW2 1656   2.997   1.786   2.729 -1.8476 -3.0956 -0.8596
  553SOL     OW 1657   2.561   2.586   0.372 -0.3794 -0.1172  0.2326
  553SOL    HW1 1658   2.584   2.650   0.297 -0.3081  1.8127  4.0666
  553SOL    HW2 1659   2.462   2.579   0.388  1.7982  0.6468  0.4921
  554SOL     OW 1660   2.096   1.152   1.497  0.2767  0.5760 -0.0480
  554SOL    HW1 1661   2.022   1.217   1.472  1.4277 -3.8043 -0.3482
  554SOL    HW2 1662   2.058   1.078   1.558  0.7464  1.6500 -1.8978
  555SOL     OW 1663   0.517   2.473   2.464  0.3856 -0.1869 -0.0155
  555SOL    HW1 1664   0.483   2.394   2.519  0.0618 -0.5109  1.0657
  555SOL    HW2 1665   0.456   2.483   2.382 -1.0699  1.4060  1.3479
  556SOL     OW 1666   1.174   1.373   1.491 -0.4535  0.1420  0.3786
  556SOL    HW1 1667   1.270   1.391   1.456  0.7195  0.0561  0.7453
  556SOL    HW2 1668   1.104   1.359   1.412 -1.3279  0.0210 -1.1079
  557SOL     OW 1669   1.407   2.926   1.200  0.2416  0.5067 -0.2195
  557SOL    HW1 1670   1.476   2.991   1.225 -0.4514 -2.3331  0.1302
  557SOL    HW2 1671   1.312   2.957   1.233 -1.0257 -2.8748  0.9060
  558SOL     OW 1672   0.494   0.640   2.312  0.3840  0.4780 -0.0574
  558SOL    HW1 1673   0.568   0.582   2.268 -0.5430 -0.9746  0.0138
  558SOL    HW2 1674   0.415   0.578   2.328  1.6123  0.6518  0.0327
  559SOL     OW 1675   1.098   2.746   0.113 -0.8132  0.2997 -0.6055
  559SOL    HW1 1676   1.024   2.814   0.127 -2.6075 -0.3024 -0.0510
  559SOL    HW2 1677   1.155   2.733   0.198  2.0442  2.6883  1.0503
  560SOL     OW 1678   1.597   1.916   0.307  0.7740  0.0010  0.4806
  560SOL    HW1 1679   1.620   1.832   0.353  0.1208  1.5176 -1.4807
  560SOL    HW2 1680   1.660   1.940   0.227  1.7239 -0.4034 -0.1767
  561SOL     OW 1681   1.063   2.919   0.616  0.0679  0.1350 -0.0010
  561SOL    HW1 1682   1.053   2.996   0.554 -2.6642 -1.0153  2.1994
  561SOL    HW2 1683   1.147   2.915   0.672 -0.6723 -1.4341  0.1322
  562SOL     OW 1684   0.486   0.910   2.253  0.0704  0.7247 -0.0068
  562SOL    HW1 1685   0.570   0.944   2.208 -4.2390 -0.8456 -0.6547
  562SOL    HW2 1686   0.501   0.809   2.275  0.8598  0.8442  1.2822
  563SOL     OW 1687   1.236   1.976   2.259  0.6758 -0.1628  0.0812
  563SOL    HW1 1688   1.225   2.031   2.172 -0.4159  0.5522 -1.4341
  563SOL    HW2 1689   1.328   1.933   2.260 -0.3232 -0.0712  1.2836
  564SOL     OW 1690   2.452   0.741   1.239  0.0851 -0.5395 -0.3259
  564SOL    HW1 1691   2.384   0.763   1.163 -2.1486 -1.8445 -1.6431
  564SOL    HW2 1692   2.458   0.819   1.303  1.8846  1.0780  1.0579
  565SOL     OW 1693   1.491   0.954   0.262  0.0673  0.4415 -0.3205
  565SOL    HW1 1694   1.466   0.985   0.168 -0.5925 -2.9905  0.4125
  565SOL    HW2 1695   1.592   0.963   0.278  1.1697 -2.2809  0.7513
  566SOL     OW 1696   2.294   2.652   3.044 -0.6528 -0.5836 -0.1105
  566SOL    HW1 1697   2.382   2.626   0.019  1.4223 -0.0867  0.4418
  566SOL    HW2 1698   2.211   2.600   0.004 -1.1748  0.3621 -0.5447
  567SOL     OW 1699   1.535   1.158   1.042 -0.3142 -0.0044 -0.5702
  567SOL    HW1 1700   1.618   1.151   0.984 -0.6692  0.1294  2.1549
  567SOL    HW2 1701   1.486   1.069   1.052  0.9923 -3.8840  0.0096
  568SOL     OW 1702   1.169   1.325   2.803 -0.5207 -0.1033  0.2603
  568SOL    HW1 1703   1.084   1.308   2.850  2.3666 -0.3204 -0.3295
  568SOL    HW2 1704   1.200   1.422   2.811  1.4490  1.1185  0.1697
  569SOL     OW 1705   2.061   1.668   0.730 -0.5203  0.0381 -0.2940
  569SOL    HW1 1706   2.087   1.574   0.700 -0.2365 -0.9728 -0.3143
  569SOL    HW2 1707   2.102   1.688   0.823 -0.4438  0.8368  0.4238
  570SOL     OW 1708   2.674   2.447   2.268  0.2843  0.5916  0.9899
  570SOL    HW1 1709   2.738   2.410   2.199  0.2151 -2.3924  0.2499
  570SOL    HW2 1710   2.718   2.462   2.352  1.0449 -2.9611  0.3394
  571SOL     OW 1711   2.789   1.799   1.784 -0.3106 -0.2856 -0.1197
  571SOL    HW1 1712   2.753   1.800   1.880 -0.7700 -1.1756 -1.9018
  571SOL    HW2 1713   2.724   1.844   1.724  2.6321 -1.1126  0.9887
  572SOL     OW 1714   1.154   2.240   2.640  0.1836  0.1579  0.3372
  572SOL    HW1 1715   1.168   2.311   2.565  0.7930  1.3911 -2.5168
  572SOL    HW2 1716   1.245   2.187   2.648  3.1470 -1.5657 -2.1636
  573SOL     OW 1717   1.623   2.160   1.356 -0.0885 -0.2289 -0.5739
  573SOL    HW1 1718   1.561   2.095   1.320  2.8593  0.7653  1.9357
  573SOL    HW2 1719   1.680   2.116   1.429 -1.6667 -0.7782  0.6260
  574SOL     OW 1720   1.083   2.773   1.443  0.0045  0.0791 -0.0343
  574SOL    HW1 1721   0.997   2.809   1.485  0.5936 -0.6340 -1.9543
  574SOL    HW2 1722   1.103   2.832   1.363  1.1877  2.9337 -0.6599
  575SOL     OW 1723   0.956   0.401   0.927  0.0232  0.3952  0.0346
  575SOL    HW1 1724   1.054   0.404   0.897 -0.6363 -1.6067  1.4028
  575SOL    HW2 1725   0.946   0.351   1.019  1.2664 -0.9320 -0.0035
  576SOL     OW 1726   2.392   0.480   1.336 -0.2402  0.0127  0.4320
  576SOL    HW1 1727   2.418   0.568   1.286 -0.0190  2.7497 -3.4596
  576SOL    HW2 1728   2.451   0.457   1.418  0.0992 -2.2659 -0.6502
  577SOL     OW 1729   2.084   0.098   3.012  0.3298  0.0177 -0.2750
  577SOL    HW1 1730   2.162   0.082   0.006  3.9432 -2.3525  0.5339
  577SOL    HW2 1731   2.059   0.197   3.009 -2.0392 -2.1922  1.7602
  578SOL     OW 1732   1.793   1.961   1.950 -0.2279  0.1407  0.4263
  578SOL    HW1 1733   1.748   1.869   1.961  1.0355  0.8729  0.4052
  578SOL    HW2 1734   1.885   1.948   1.901  4.0032  1.1108 -1.0402
  579SOL     OW 1735   0.599   1.773   1.054  1.0977  0.3486  0.3673
  579SOL    HW1 1736   0.525   1.840   1.025 -1.6039 -1.8560 -0.4521
  579SOL    HW2 1737   0.615   1.716   0.974 -1.3879  1.8412  2.1728
  580SOL     OW 1738   1.418   2.783   2.722 -0.3588 -0.2643 -0.5706
  580SOL    HW1 1739   1.491   2.724   2.762 -0.6123  0.0195  0.1715
  580SOL    HW2 1740   1.431   2.798   2.622 -2.8680  0.4243 -0.6326
  581SOL     OW 1741   1.048   0.783   2.031 -0.1770 -0.5251 -0.1062
  581SOL    HW1 1742   1.140   0.796   2.075 -0.8976 -1.8687  0.4107
  581SOL    HW2 1743   1.027   0.870   1.975 -2.2018  2.5675 -0.7491
  582SOL     OW 1744   0.327   0.469   0.928 -0.3076 -0.6269  0.3271
  582SOL    HW1 1745   0.358   0.565   0.935  0.2135  1.6837  1.7785
  582SOL    HW2 1746   0.376   0.421   0.851 -2.0267  2.3201  0.5270
  583SOL     OW 1747   0.994   1.864   1.900  0.3603  0.2427 -0.2725
  583SOL    HW1 1748   0.904   1.840   1.851 -0.5126 -0.4787  0.7715
  583SOL    HW2 1749   0.979   1.886   1.999  1.7610  1.0953 -0.7870
  584SOL     OW 1750   2.275   2.590   0.305  0.3841 -0.1466 -0.2171
  584SOL    HW1 1751   2.230   2.615   0.398 -3.8146  0.5077  0.4828
  584SOL    HW2 1752   2.327   2.670   0.263  0.0866  2.6442 -2.3848
  585SOL     OW 1753   2.319   0.466   2.780 -0.5447  0.4916  0.1573
  585SOL    HW1 1754   2.274   0.518   2.856  0.5185  1.3539  0.5699
  585SOL    HW2 1755   2.358   0.537   2.716  1.0221  2.0864 -0.8012
  586SOL     OW 1756   0.374   1.343   0.374  0.0773  0.3558 -0.0323
  586SOL    HW1 1757   0.453   1.398   0.406  0.4714 -0.3666  0.1311
  586SOL    HW2 1758   0.283   1.367   0.418  0.3280  3.4612  0.1678
  587SOL     OW 1759   1.540   1.931   0.875 -0.3784 -0.4024  0.3073
  587SOL    HW1 1760   1.639   1.917   0.891 -1.5744 -2.0516 -3.5416
  587SOL    HW2 1761   1.508   1.985   0.954  0.4618 -1.6174 -0.9537
  588SOL     OW 1762   0.585   0.592   1.242 -0.3978 -0.0797 -0.7717
  588SOL    HW1 1763   0.687   0.601   1.242  0.6258 -1.5232 -1.1201
  588SOL    HW2 1764   0.554   0.644   1.159  0.0764 -3.4019 -1.6670
  589SOL     OW 1765   1.934   2.990   0.886 -0.1417  0.2833  0.0066
  589SOL    HW1 1766   1.943   3.009   0.787 -3.1936 -0.7305  2.3382
  589SOL    HW2 1767   1.857   2.924   0.896  3.4036 -0.2165 -0.3506
  590SOL     OW 1768   1.753   1.033   0.304 -0.1797  0.1119 -0.1313
  590SOL    HW1 1769   1.797   1.078   0.226 -0.4474  0.9718  1.6219
  590SOL    HW2 1770   1.736   1.098   0.381 -0.5887  1.2293  1.5382
  591SOL     OW 1771   2.211   2.188   2.140  0.9591 -0.1463  0.3567
  591SOL    HW1 1772   2.177   2.115   2.208  0.8208 -1.1843  3.8452
  591SOL    HW2 1773   2.316   2.196   2.138  2.1464  2.5441 -0.1847
  592SOL     OW 1774   1.467   2.064   1.080 -0.7550  0.1809  0.6745
  592SOL    HW1 1775   1.519   2.004   1.144  2.3509  1.1405  0.7988
  592SOL    HW2 1776   1.363   2.051   1.091 -2.1575 -1.0041  1.7060
  593SOL     OW 1777   0.661   3.053   0.872 -0.1960 -0.1909 -0.0179
  593SOL    HW1 1778   0.745   2.995   0.869  0.1530 -0.4050  3.4829
  593SOL    HW2 1779   0.678   0.079   0.864 -0.3587 -3.3185 -0.4889
  594SOL     OW 1780   2.820   0.841   1.976 -0.5690  0.0227 -0.1428
  594SOL    HW1 1781   2.855   0.936   1.960  0.3022 -0.6410  3.4005
  594SOL    HW2 1782   2.890   0.788   2.030  2.1928  1.2272  0.3230
  595SOL     OW 1783   0.143   2.994   0.505 -0.5483  0.6764  0.1539
  595SOL    HW1 1784   0.077   2.936   0.559 -0.1987 -3.1877  3.0014
  595SOL    HW2 1785   0.235   2.976   0.541 -4.2036 -1.3324 -3.1426
  596SOL     OW 1786   0.061   0.591   1.498 -0.2374 -0.1963 -0.2012
  596SOL    HW1 1787   0.139   0.657   1.508 -1.9400 -1.4623 -1.1011
  596SOL    HW2 1788   3.050   0.647   1.495  0.4364  1.2041  0.6226
  597SOL     OW 1789   2.422   0.848   0.549  0.1550 -0.3807 -0.1455
  597SOL    HW1 1790   2.455   0.848   0.453 -0.4600  1.3907 -2.9618
  597SOL    HW2 1791   2.408   0.946   0.573 -0.7900 -0.1058  1.0553
  598SOL     OW 1792   0.502   0.056   1.993  0.0293  0.0747  0.4833
  598SOL    HW1 1793   0.480   0.145   1.949 -1.9675  1.3476 -0.6711
  598SOL    HW2 1794   0.457   0.052   2.085 -0.7729 -1.1999 -0.0487
  599SOL     OW 1795   2.466   1.696   0.276 -0.2181  0.1350 -0.1334
  599SOL    HW1 1796   2.400   1.739   0.340 -4.1341 -0.1964 -1.3217
  599SOL    HW2 1797   2.532   1.757   0.230 -0.7800 -1.4755  0.0242
  600SOL     OW 1798   1.087   0.977   0.052 -0.6964  0.0109  0.1891
  600SOL    HW1 1799   1.104   1.077   0.071  1.3092 -0.3048  1.1427
  600SOL    HW2 1800   0.992   0.969   0.023  2.9216  0.1757  0.7330
  601SOL     OW 1801   1.387   1.058   0.043  0.0808  0.4611 -0.7561
  601SOL    HW1 1802   1.303   1.091   0.092  2.5325  1.5639  0.9269
  601SOL    HW2 1803   1.366   1.058   3.017 -1.0774 -0.4740  0.3214
  602SOL     OW 1804   0.963   3.047   1.477 -0.5695  0.0775 -0.5289
  602SOL    HW1 1805   1.034   0.039   1.515  1.3500  0.8170 -2.4802
  602SOL    HW2 1806   0.884   3.038   1.540  0.0281 -0.0177  0.1230
  603SOL     OW 1807   0.752   2.844   2.491  0.2089  0.3258 -0.3143
  603SOL    HW1 1808   0.707   2.934   2.506  0.3334 -0.1591 -1.0369
  603SOL    HW2 1809   0.851   2.855   2.514 -1.3960  1.5341  0.6750
  604SOL     OW 1810   2.813   0.085   2.103  0.2191  0.9174  0.6051
  604SOL    HW1 1811   2.759   0.065   2.192 -3.0569 -0.6764  3.4411
  604SOL    HW2 1812   2.823   0.003   2.041  2.1545  0.3270 -1.4660
  605SOL     OW 1813   2.753   2.588   1.432  0.3624  0.3817  0.0115
  605SOL    HW1 1814   2.649   2.607   1.440 -0.1569 -0.0166 -2.0358
  605SOL    HW2 1815   2.806   2.673   1.427 -0.2354 -0.3446 -1.4599
  606SOL     OW 1816   2.846   2.283   2.627  0.0403  0.1324 -0.3746
  606SOL    HW1 1817   2.857   2.249   2.719  1.3570  0.7330 -3.1872
  606SOL    HW2 1818   2.941   2.285   2.584 -0.9206  1.0645 -0.4607
  607SOL     OW 1819   0.843   0.199   0.616 -0.1057  0.1648 -0.0440
  607SOL    HW1 1820   0.851   0.255   0.533 -1.8247  0.1710  0.2378
  607SOL    HW2 1821   0.937   0.182   0.652 -1.3227 -0.6110 -1.5445
  608SOL     OW 1822   1.612   1.794   2.454 -0.0635  0.1381 -0.1256
  608SOL    HW1 1823   1.650   1.701   2.429 -0.3945  1.0347 -0.6982
  608SOL    HW2 1824   1.540   1.822   2.390  1.2451  0.7412  1.2704
  609SOL     OW 1825   2.853   0.345   0.963 -0.2632  0.3751 -0.2578
  609SOL    HW1 1826   2.871   0.255   0.921 -0.6703  0.4493 -2.3246
  609SOL    HW2 1827   2.946   0.390   0.980  4.8013  1.5823 -0.1830
  610SOL     OW 1828   0.716   2.288   0.057 -0.0150  0.6296 -0.7394
  610SOL    HW1 1829   0.629   2.327   0.091  0.1179  0.0423  0.2427
  610SOL    HW2 1830   0.796   2.344   0.072 -2.8404 -1.2078 -0.9473
  611SOL     OW 1831   1.953   1.244   0.556  0.2038  0.0366 -0.0351
  611SOL    HW1 1832   1.859   1.262   0.519  1.5598  0.9898  0.1793
  611SOL    HW2 1833   2.004   1.166   0.505  1.8077 -4.0893 -0.5102
  612SOL     OW 1834   0.938   2.550   2.390  0.0698  1.1396  0.2016
  612SOL    HW1 1835   0.915   2.578   2.481  0.2187  0.5520 -5.0093
  612SOL    HW2 1836   0.962   2.634   2.340 -2.6276 -2.1605 -1.7371
  613SOL     OW 1837   1.178   1.895   0.257  0.8123  0.5910 -0.3164
  613SOL    HW1 1838   1.108   1.913   0.331  1.4050  1.2235  0.5827
  613SOL    HW2 1839   1.248   1.970   0.261 -1.1136  1.7989  1.0783
  614SOL     OW 1840   2.567   2.203   1.657  0.1386 -0.9404 -0.4572
  614SOL    HW1 1841   2.512   2.222   1.574  1.3752 -1.7457 -0.3075
  614SOL    HW2 1842   2.536   2.258   1.739  0.7622  1.9212 -0.5888
  615SOL     OW 1843   2.442   1.288   0.011 -0.4499  0.1149 -0.4644
  615SOL    HW1 1844   2.505   1.319   3.008 -0.4960 -2.4033  0.6337
  615SOL    HW2 1845   2.402   1.197   3.072 -0.6579  0.5261  0.1754
  616SOL     OW 1846   1.532   0.074   0.725 -0.3975  0.1160  0.1315
  616SOL    HW1 1847   1.496   0.020   0.805 -0.3756  2.5540  2.7199
  616SOL    HW2 1848   1.637   0.078   0.715  3.2644 -0.0691  0.9959
  617SOL     OW 1849   0.285   1.423   2.745  0.1625 -0.1957 -0.1229
  617SOL    HW1 1850   0.377   1.462   2.727 -1.7515  3.2813  0.3260
  617SOL    HW2 1851   0.235   1.421   2.656  1.4597 -0.1891 -0.1348
  618SOL     OW 1852   0.509   0.793   1.573 -0.3112  0.4388  0.5607
  618SOL    HW1 1853   0.531   0.693   1.573  1.5075  0.2070  0.9044
  618SOL    HW2 1854   0.539   0.840   1.659 -0.3241 -0.7300  0.7653
  619SOL     OW 1855   2.558   0.839   1.680 -0.3131  0.0104 -0.4384
  619SOL    HW1 1856   2.631   0.770   1.672 -0.7970  0.5789  2.3968
  619SOL    HW2 1857   2.480   0.797   1.725  3.4776 -1.6252  1.9569
  620SOL     OW 1858   2.068   1.099   3.012 -0.0849  0.0940 -0.6145
  620SOL    HW1 1859   2.007   1.044   2.953 -0.3003 -0.6361  2.8376
  620SOL    HW2 1860   2.027   1.146   0.020 -0.9690 -1.4166 -0.7533
  621SOL     OW 1861   2.259   2.742   1.102 -0.1585  0.3519  0.4646
  621SOL    HW1 1862   2.334   2.690   1.145 -0.4038 -0.5879 -1.4655
  621SOL    HW2 1863   2.252   2.833   1.142 -0.2313 -0.2306 -0.9237
  622SOL     OW 1864   1.636   0.617   1.896  0.4457 -0.4570 -0.3042
  622SOL    HW1 1865   1.683   0.525   1.913 -0.9811 -0.6684 -1.0692
  622SOL    HW2 1866   1.547   0.599   1.851 -0.9769  2.5035  0.1316
  623SOL     OW 1867   1.040   0.852   2.554  0.7109 -0.2001 -0.5365
  623SOL    HW1 1868   0.985   0.917   2.502 -0.2138  1.4766  2.9281
  623SOL    HW2 1869   1.109   0.900   2.608 -0.8829 -1.2352 -3.5359
  624SOL     OW 1870   1.797   0.132   0.664 -0.3274 -0.1263  0.4320
  624SOL    HW1 1871   1.774   0.185   0.580 -0.6632  1.5767  1.2320
  624SOL    HW2 1872   1.866   0.060   0.639 -1.4579  1.3103 -0.0052
  625SOL     OW 1873   0.571   1.512   0.441  0.5278  0.1800  0.5652
  625SOL    HW1 1874   0.616   1.448   0.505 -0.4067  1.9040 -1.7230
  625SOL    HW2 1875   0.558   1.606   0.474 -0.0530  1.5935 -0.5060
  626SOL     OW 1876   1.659   1.139   2.335 -0.0438  0.5616 -0.2842
  626SOL    HW1 1877   1.662   1.138   2.234 -0.7179  0.7097 -2.8715
  626SOL    HW2 1878   1.569   1.178   2.367 -0.4911  0.9161 -1.9797
  627SOL     OW 1879   0.715   0.328   1.814  0.5005 -0.1638 -0.1664
  627SOL    HW1 1880   0.742   0.266   1.894  0.3955 -0.6044  0.7333
  627SOL    HW2 1881   0.612   0.330   1.797 -2.9301  1.2070  2.5090
  628SOL     OW 1882   2.163   0.799   2.362 -0.0196 -0.0569 -0.0012
  628SOL    HW1 1883   2.178   0.784   2.266  0.6768  1.0151  3.0461
  628SOL    HW2 1884   2.078   0.859   2.372 -0.8836  0.9416 -0.7687
  629SOL     OW 1885   0.680   1.374   0.094 -0.2620 -0.2723 -0.2456
  629SOL    HW1 1886   0.655   1.473   0.109  0.8807  0.3926  0.8930
  629SOL    HW2 1887   0.698   1.354   3.066 -1.3659 -0.2435  1.1297
  630SOL     OW 1888   1.010   0.516   1.970 -0.1255  0.5418 -0.3772
  630SOL    HW1 1889   1.034   0.615   1.947  0.3620 -1.0859  1.1630
  630SOL    HW2 1890   0.996   0.523   2.071  0.8505  2.2924  1.3446
  631SOL     OW 1891   2.604   0.889   0.797  0.1972  0.3439 -0.2639
  631SOL    HW1 1892   2.517   0.939   0.820 -0.6509  0.2197  0.4012
  631SOL    HW2 1893   2.640   0.831   0.873  0.8125 -1.1695  0.7445
  632SOL     OW 1894   2.443   1.498   0.744  0.2539 -0.1495 -0.2985
  632SOL    HW1 1895   2.496   1.416   0.774 -0.2877  1.1632 -3.3718
  632SOL    HW2 1896   2.504   1.563   0.692  3.5165  1.7304  0.1602
  633SOL     OW 1897   0.737   1.387   0.779 -0.3720 -0.2607  0.0991
  633SOL    HW1 1898   0.704   1.340   0.863  0.3416 -2.0653 -0.2611
  633SOL    HW2 1899   0.733   1.326   0.695  1.2741 -1.9237  0.7464
  634SOL     OW 1900   1.374   3.023   0.515 -0.7342 -0.4941 -0.0176
  634SOL    HW1 1901   1.275   3.044   0.506  0.3914  1.0763 -0.5233
  634SOL    HW2 1902   1.422   0.015   0.579  0.2054 -1.1575 -1.1316
  635SOL     OW 1903   1.844   0.615   1.416 -0.3130 -0.0764 -0.4247
  635SOL    HW1 1904   1.903   0.673   1.360 -0.8499  0.7309  0.1662
  635SOL    HW2 1905   1.750   0.655   1.411 -0.0263 -1.1544  1.3941
  636SOL     OW 1906   1.113   0.622   0.614 -0.2336 -0.0639  0.1984
  636SOL    HW1 1907   1.117   0.574   0.707  0.4334 -2.0990  1.4567
  636SOL    HW2 1908   1.081   0.555   0.542 -2.0175 -0.5478  1.1891
  637SOL     OW 1909   1.805   1.793   2.882 -0.0418 -0.7061 -0.4446
  637SOL    HW1 1910   1.872   1.724   2.859 -2.4742  1.8246  2.4234
  637SOL    HW2 1911   1.819   1.883   2.829 -0.4031 -0.4075 -0.4898
  638SOL     OW 1912   0.963   0.008   2.698 -0.2503  0.2577  0.1815
  638SOL    HW1 1913   0.984   3.059   2.795  0.9161 -4.2615 -0.1123
  638SOL    HW2 1914   0.880   0.064   2.692 -0.7173  0.0347  1.5579
  639SOL     OW 1915   1.280   2.009   1.398 -0.5858  0.3320 -0.0543
  639SOL    HW1 1916   1.286   1.908   1.422 -0.3819 -1.9356  1.6208
  639SOL    HW2 1917   1.253   2.015   1.301  1.7078 -0.3553  1.2464
  640SOL     OW 1918   0.495   0.200   2.906 -0.1225 -0.2384 -0.0063
  640SOL    HW1 1919   0.466   0.127   2.972 -1.8064 -1.2130 -1.1031
  640SOL    HW2 1920   0.469   0.163   2.814  1.0694  1.4315 -1.0763
  641SOL     OW 1921   0.417   0.681   0.412 -0.6443  0.2154  0.3029
  641SOL    HW1 1922   0.336   0.737   0.413 -0.9616  0.3845 -0.3152
  641SOL    HW2 1923   0.470   0.687   0.499 -1.7085 -1.0205  2.5772
  642SOL     OW 1924   0.322   1.652   1.254 -0.3836 -0.1973  0.3853
  642SOL    HW1 1925   0.422   1.670   1.277  0.7156 -0.9134 -0.6407
  642SOL    HW2 1926   0.320   1.588   1.174  2.7881 -0.6601 -0.8627
  643SOL     OW 1927   0.701   1.848   2.673  0.4755 -0.2940 -0.0501
  643SOL    HW1 1928   0.616   1.868   2.618 -2.2752  0.5912 -2.6986
  643SOL    HW2 1929   0.674   1.840   2.771  2.7177  0.1911  0.1345
  644SOL     OW 1930   1.661   2.245   0.005 -0.1031 -0.4982 -0.7266
  644SOL    HW1 1931   1.754   2.273   0.035 -4.2017 -1.2410 -2.6038
  644SOL    HW2 1932   1.592   2.268   0.076 -0.3595 -0.9030 -0.2080
  645SOL     OW 1933   1.771   2.047   1.552 -0.1284  0.4036  0.4283
  645SOL    HW1 1934   1.699   2.013   1.619  0.9257 -2.2594  0.0788
  645SOL    HW2 1935   1.839   2.113   1.591  0.6779  0.8116  1.7206
  646SOL     OW 1936   0.662   2.619   0.129  0.2572  0.6810  0.1158
  646SOL    HW1 1937   0.726   2.611   0.051  0.1448 -1.2434 -1.7490
  646SOL    HW2 1938   0.627   2.712   0.132  0.2594 -0.8677  0.7004
  647SOL     OW 1939   0.143   2.966   2.181 -0.5548 -0.1174 -0.0183
  647SOL    HW1 1940   0.060   2.965   2.234  1.1155 -0.4697  0.9136
  647SOL    HW2 1941   0.220   2.937   2.241 -0.2525 -1.4258  0.7454
  648SOL     OW 1942   2.670   1.089   1.075 -0.4487  0.7211 -0.1891
  648SOL    HW1 1943   2.709   0.989   1.053  0.3238 -4.3655 -1.6585
  648SOL    HW2 1944   2.568   1.087   1.054 -1.3009 -2.1310 -1.0588
  649SOL     OW 1945   2.073   2.603   2.554 -0.3272  0.5327  0.8618
  649SOL    HW1 1946   2.062   2.594   2.656 -1.0945  0.8698  2.0761
  649SOL    HW2 1947   2.039   2.696   2.527 -0.4749 -0.6409  1.4796
  650SOL     OW 1948   2.295   1.527   1.941  0.2767  0.0105  0.2864
  650SOL    HW1 1949   2.252   1.480   1.862 -0.8959  0.8399  0.3877
  650SOL    HW2 1950   2.391   1.521   1.940 -1.7727 -1.1009  1.6363
  651SOL     OW 1951   1.084   1.872   2.724 -0.4880 -0.3228 -0.2629
  651SOL    HW1 1952   1.078   1.927   2.636  0.6345  1.9353 -1.6196
  651SOL    HW2 1953   1.168   1.829   2.748  1.5492 -0.2683 -1.5711
  652SOL     OW 1954   0.656   0.052   2.455 -0.0226  0.8760 -0.1703
  652SOL    HW1 1955   0.564   0.096   2.439 -0.2017 -0.2545 -1.5578
  652SOL    HW2 1956   0.668   0.031   2.550  0.5403 -0.8490 -2.8181
  653SOL     OW 1957   2.214   1.760   0.932 -0.3215  0.0416  0.1156
  653SOL    HW1 1958   2.255   1.672   0.952 -2.4939  2.9802  0.0099
  653SOL    HW2 1959   2.242   1.826   1.006  0.2871  0.5774  0.8142
  654SOL     OW 1960   2.462   2.899   2.052  0.0782 -0.2686 -0.4897
  654SOL    HW1 1961   2.386   2.921   2.115  4.5797  0.0030  1.7413
  654SOL    HW2 1962   2.475   2.973   1.982  0.2309 -0.4117 -0.1329
  655SOL     OW 1963   2.535   2.300   1.171 -0.2983 -0.3442  0.1841
  655SOL    HW1 1964   2.634   2.325   1.161  1.8572 -0.1812 -0.2323
  655SOL    HW2 1965   2.499   2.297   1.075  0.5780  1.2453  1.5449
  656SOL     OW 1966   2.663   1.718   2.827 -0.5729  0.1153  0.3908
  656SOL    HW1 1967   2.654   1.781   2.745  0.3769 -1.7464 -0.4941
  656SOL    HW2 1968   2.738   1.760   2.882 -2.7686 -0.7956  0.5459
  657SOL     OW 1969   3.025   1.223   0.584 -0.5291 -0.2953  0.2608
  657SOL    HW1 1970   2.956   1.165   0.536 -1.7651 -2.1694  1.5449
  657SOL    HW2 1971   3.012   1.199   0.685  0.1260  1.0719  1.0906
  658SOL     OW 1972   1.364   1.712   1.259  0.4346 -0.1529  0.4190
  658SOL    HW1 1973   1.308   1.650   1.198 -2.3078 -0.5383 -2.5076
  658SOL    HW2 1974   1.331   1.724   1.354 -1.1499  2.6226 -2.1794
  659SOL     OW 1975   1.170   3.017   1.289  0.0794 -0.5841 -0.0391
  659SOL    HW1 1976   1.149   0.009   1.213  0.2593 -1.6053  2.3444
  659SOL    HW2 1977   1.106   3.030   1.364  3.3419  0.1319 -0.1601
  660SOL     OW 1978   2.208   0.582   0.918  0.0196 -0.2007  0.1212
  660SOL    HW1 1979   2.192   0.626   0.822  0.4366  2.1069 -3.3724
  660SOL    HW2 1980   2.121   0.544   0.963  0.1812  1.0948  0.7578
  661SOL     OW 1981   0.372   1.795   0.196  0.0667  0.0969 -0.2566
  661SOL    HW1 1982   0.450   1.735   0.176  0.9374  0.0015  0.5149
  661SOL    HW2 1983   0.389   1.881   0.145  1.1956 -3.3443  0.7302
  662SOL     OW 1984   1.979   0.871   2.044 -0.1973  0.3943 -0.6383
  662SOL    HW1 1985   2.035   0.813   1.982 -1.0220 -1.7520 -0.7709
  662SOL    HW2 1986   2.011   0.969   2.046 -1.7397  0.3086  0.7595
  663SOL     OW 1987   1.860   1.345   1.090  0.0173  0.4850 -0.0165
  663SOL    HW1 1988   1.842   1.326   0.988 -1.0745  2.1846 -1.2254
  663SOL    HW2 1989   1.947   1.382   1.111  1.0384 -1.7030  2.7728
  664SOL     OW 1990   0.324   0.065   1.222 -0.3385  0.3273 -0.2330
  664SOL    HW1 1991   0.379   0.041   1.140 -2.8130  1.8254 -0.4060
  664SOL    HW2 1992   0.361   0.015   1.302  0.3004  1.5830 -1.7228
  665SOL     OW 1993   1.427   0.378   2.773  0.2772  0.5235  0.5831
  665SOL    HW1 1994   1.467   0.389   2.865 -1.8452 -0.5743  0.2464
  665SOL    HW2 1995   1.432   0.466   2.722  0.0684  1.4067  2.4953
  666SOL     OW 1996   0.648   0.440   2.171 -0.1703  0.2469 -0.0724
  666SOL    HW1 1997   0.622   0.363   2.237 -0.6940 -2.6042  0.4122
  666SOL    HW2 1998   0.573   0.447   2.103  0.3796 -1.6207 -1.9530
  667SOL     OW 1999   1.650   1.547   1.669 -0.4792  0.1829 -0.0550
  667SOL    HW1 2000   1.696   1.548   1.760 -1.1159 -0.3065  2.0474
  667SOL    HW2 2001   1.586   1.626   1.666 -0.5849 -0.2769  0.7018
  668SOL     OW 2002   0.362   1.299   2.355  0.0674 -0.1988 -0.3356
  668SOL    HW1 2003   0.334   1.200   2.354  0.6854 -0.9296  0.9533
  668SOL    HW2 2004   0.334   1.340   2.269  1.2527 -2.1012  1.3954
  669SOL     OW 2005   2.556   2.566   0.040 -0.2769 -0.4981  0.4895
  669SOL    HW1 2006   2.589   2.508   3.038 -4.2332 -0.2692  1.1620
  669SOL    HW2 2007   2.633   2.622   0.076  0.8272 -0.7032 -0.2613
  670SOL     OW 2008   2.679   1.136   1.998 -0.0343 -0.2614 -0.7404
  670SOL    HW1 2009   2.634   1.131   1.908 -0.6620 -2.2308  0.0468
  670SOL    HW2 2010   2.596   1.146   2.061 -0.8971  0.4026  0.9424
  671SOL     OW 2011   2.574   1.688   0.594  0.9786  0.2611 -0.7334
  671SOL    HW1 2012   2.494   1.731   0.548  2.0645 -1.1845  0.3142
  671SOL    HW2 2013   2.655   1.711   0.547 -2.4995  1.6234  2.4189
  672SOL     OW 2014   1.374   0.985   1.902 -0.1253 -0.4256  0.1781
  672SOL    HW1 2015   1.469   0.986   1.928 -1.9332 -0.6501 -0.8030
  672SOL    HW2 2016   1.362   0.950   1.807 -1.4099  3.2561  0.6878
  673SOL     OW 2017   2.636   1.934   1.616 -0.2374 -0.0828  0.2775
  673SOL    HW1 2018   2.622   2.033   1.644  0.5521  2.8250 -0.6311
  673SOL    HW2 2019   2.677   1.926   1.526 -4.7008 -2.3585 -1.1222
  674SOL     OW 2020   1.295   1.746   1.511  0.1372 -0.4220 -0.1279
  674SOL    HW1 2021   1.371   1.753   1.577 -0.1326 -1.1380 -2.0402
  674SOL    HW2 2022   1.208   1.766   1.559  0.1925  0.5588 -1.4266
  675SOL     OW 2023   3.024   0.845   1.163  0.2541  0.7741 -0.4551
  675SOL    HW1 2024   0.014   0.910   1.123 -1.6317 -2.6188  0.4328
  675SOL    HW2 2025   3.060   0.747   1.145 -3.7009 -1.7572  0.5263
  676SOL     OW 2026   2.939   0.933   1.562  0.0065 -0.0864 -0.3493
  676SOL    HW1 2027   3.007   0.891   1.625 -1.5439  0.7562 -3.4830
  676SOL    HW2 2028   2.918   0.867   1.489  1.7943  0.4124  0.7726
  677SOL     OW 2029   2.047   1.142   2.597  0.1493 -0.0310 -0.5662
  677SOL    HW1 2030   2.027   1.201   2.517  0.7063  0.6298  1.8687
  677SOL    HW2 2031   2.074   1.202   2.672 -1.9770 -0.4291 -0.8033
  678SOL     OW 2032   2.614   1.547   1.258 -0.7450 -0.3732  0.0537
  678SOL    HW1 2033   2.634   1.478   1.181 -0.8395 -1.2581  0.6054
  678SOL    HW2 2034   2.679   1.626   1.259  1.5022 -0.3343 -2.2258
  679SOL     OW 2035   0.189   2.527   0.267  0.1043 -0.6366 -0.3108
  679SOL    HW1 2036   0.126   2.501   0.189  0.1493  0.3251 -0.1269
  679SOL    HW2 2037   0.283   2.488   0.246  0.8502 -1.1719 -1.2643
  680SOL     OW 2038   0.072   1.736   1.106 -0.1390 -0.5895  0.2507
  680SOL    HW1 2039   0.050   1.823   1.154 -0.6705  0.2629 -0.8120
  680SOL    HW2 2040   0.139   1.677   1.154  1.2181  0.3860 -3.1339
  681SOL     OW 2041   1.058   0.078   0.874 -0.2275  0.3784 -0.4752
  681SOL    HW1 2042   1.062   0.156   0.811 -1.4425 -1.1083 -0.7204
  681SOL    HW2 2043   1.118   3.072   0.845  3.9753 -2.6772 -1.7593
  682SOL     OW 2044   1.875   2.603   1.525 -0.0019  0.2241 -0.3589
  682SOL    HW1 2045   1.962   2.577   1.476 -0.2074 -0.3596  0.9099
  682SOL    HW2 2046   1.794   2.616   1.463 -2.6385  2.8473 -2.2027
  683SOL     OW 2047   2.529   1.582   1.711 -0.1020  0.0815  0.2806
  683SOL    HW1 2048   2.464   1.618   1.644  0.9686 -2.0262 -0.5034
  683SOL    HW2 2049   2.602   1.531   1.667  0.8930  1.0311  0.8617
  684SOL     OW 2050   0.016   1.675   1.974  0.2054 -0.1722 -0.1970
  684SOL    HW1 2051   3.031   1.627   1.910  0.6125  1.3470  3.3204
  684SOL    HW2 2052   0.004   1.775   1.964 -1.4156 -2.6698  3.9177
  685SOL     OW 2053   1.603   1.422   0.240  0.3314  0.2994  0.5069
  685SOL    HW1 2054   1.648   1.502   0.281 -1.5288 -0.9933  3.1058
  685SOL    HW2 2055   1.672   1.381   0.179  0.4470  2.3039 -1.8146
  686SOL     OW 2056   2.732   0.638   1.698  0.1072  0.1001  0.5658
  686SOL    HW1 2057   2.805   0.645   1.763 -0.8629  2.1530 -1.7623
  686SOL    HW2 2058   2.761   0.571   1.624  1.8931  0.9373  1.1352
  687SOL     OW 2059   1.596   0.267   2.591  0.3221 -0.1102 -0.5415
  687SOL    HW1 2060   1.615   0.171   2.612  1.1112  1.3863  1.6716
  687SOL    HW2 2061   1.531   0.311   2.654 -1.3494 -0.6066 -2.4546
  688SOL     OW 2062   1.260   1.624   2.487 -0.4069  0.3385 -0.1893
  688SOL    HW1 2063   1.183   1.561   2.523  0.7455  0.6030  2.6127
  688SOL    HW2 2064   1.243   1.720   2.509  2.4062 -0.1795 -0.6852
  689SOL     OW 2065   2.222   1.364   1.747  0.3501 -0.9185  0.3579
  689SOL    HW1 2066   2.179   1.275   1.767  2.3201  1.8298 -1.0587
  689SOL    HW2 2067   2.299   1.343   1.684  0.4520 -1.9534  1.3756
  690SOL     OW 2068   2.166   2.283   1.470 -0.5401 -0.0478  0.0254
  690SOL    HW1 2069   2.203   2.248   1.559  1.0981 -1.7681  0.3960
  690SOL    HW2 2070   2.105   2.208   1.430 -1.3701 -2.0343 -0.0215
  691SOL     OW 2071   0.226   1.663   0.656  0.2081  0.3373 -0.0720
  691SOL    HW1 2072   0.263   1.714   0.577  0.5863 -1.1618 -1.0390
  691SOL    HW2 2073   0.205   1.727   0.735 -3.7517  2.1521  0.3970
  692SOL     OW 2074   2.742   2.800   2.652 -0.4385 -0.0138 -0.0544
  692SOL    HW1 2075   2.840   2.788   2.692  2.1710 -1.6602  0.6647
  692SOL    HW2 2076   2.747   2.824   2.552 -2.1118  1.8808 -0.0524
  693SOL     OW 2077   0.340   1.437   2.123 -0.1992 -0.2758  0.3299
  693SOL    HW1 2078   0.307   1.349   2.084 -0.3576 -3.0645 -1.2571
  693SOL    HW2 2079   0.312   1.522   2.064  0.8582  3.2453 -0.5533
  694SOL     OW 2080   2.402   0.282   1.966  0.8157  0.0210 -0.3611
  694SOL    HW1 2081   2.482   0.345   1.986 -3.1724  1.5325 -0.6799
  694SOL    HW2 2082   2.333   0.337   1.929  2.2393 -2.9152 -1.2909
  695SOL     OW 2083   1.331   0.806   2.107  0.0991  0.0504 -0.3755
  695SOL    HW1 2084   1.334   0.832   2.205 -2.4667  2.9504 -0.9571
  695SOL    HW2 2085   1.347   0.893   2.053  2.1903 -0.0633  2.5636
  696SOL     OW 2086   2.248   2.892   1.569  0.5685 -0.4295 -0.0876
  696SOL    HW1 2087   2.222   2.967   1.632 -1.2977 -1.5746 -0.9031
  696SOL    HW2 2088   2.192   2.892   1.480  2.9373 -0.7255 -3.3137
  697SOL     OW 2089   1.015   0.259   1.980  0.4811  0.5208 -0.0784
  697SOL    HW1 2090   0.924   0.231   2.024  1.6099  0.2321  1.6587
  697SOL    HW2 2091   1.009   0.361   1.965 -2.1993 -0.1475  1.5261
  698SOL     OW 2092   2.408   1.595   2.815 -0.3728 -0.4175  0.0640
  698SOL    HW1 2093   2.428   1.503   2.780 -3.2626  0.1974 -1.4825
  698SOL    HW2 2094   2.490   1.651   2.841  0.1307 -2.0257  0.9826
  699SOL     OW 2095   2.155   0.618   0.467  0.2850  0.5065  0.2818
  699SOL    HW1 2096   2.137   0.689   0.394 -0.6978 -1.6809 -0.5726
  699SOL    HW2 2097   2.167   0.661   0.558 -0.5395  0.2514 -0.8633
  700SOL     OW 2098   1.251   2.942   0.810  0.5046 -0.4457 -0.3543
  700SOL    HW1 2099   1.352   2.953   0.826 -1.3022  3.8707  4.6265
  700SOL    HW2 2100   1.215   2.853   0.843  0.5282  3.5575  0.4340
  701SOL     OW 2101   2.878   0.462   0.603 -0.3260  0.3784 -0.0991
  701SOL    HW1 2102   2.809   0.514   0.549 -2.4922 -0.9202  0.2464
  701SOL    HW2 2103   2.926   0.525   0.672  1.1275  3.4220 -1.2772
  702SOL     OW 2104   1.663   2.615   1.365  0.0068 -0.0728  0.3590
  702SOL    HW1 2105   1.673   2.528   1.310 -1.7100 -0.6420 -1.8924
  702SOL    HW2 2106   1.664   2.698   1.304 -1.5927  2.2495  0.1182
  703SOL     OW 2107   0.056   0.596   1.154 -0.3841  0.8063 -0.0233
  703SOL    HW1 2108   0.021   0.517   1.210  2.0116  0.1476 -1.7819
  703SOL    HW2 2109   0.163   0.589   1.146  4.3191  1.6575 -0.8620
  704SOL     OW 2110   0.815   2.792   1.523 -0.3191 -0.4965  0.0833
  704SOL    HW1 2111   0.743   2.750   1.467  0.4179 -3.8141 -0.1980
  704SOL    HW2 2112   0.785   2.828   1.613 -1.1357 -1.9563 -1.3213
  705SOL     OW 2113   0.005   1.915   0.013  0.3374  0.3785 -0.0216
  705SOL    HW1 2114   0.067   1.849   0.063 -2.0331  1.7000 -1.3553
  705SOL    HW2 2115   3.033   1.977   0.080  0.8440 -0.6711  0.3933
  706SOL     OW 2116   0.134   0.454   0.336  0.4090 -0.0214 -0.3640
  706SOL    HW1 2117   0.227   0.449   0.295 -2.0433  0.4713  0.0727
  706SOL    HW2 2118   0.132   0.422   0.432  0.8104  3.4656 -1.5816
  707SOL     OW 2119   1.624   2.851   2.151 -0.4689  0.3341  0.2587
  707SOL    HW1 2120   1.670   2.762   2.117 -2.2391  0.1694  0.8069
  707SOL    HW2 2121   1.697   2.926   2.158  1.7690  2.0788  2.2018
  708SOL     OW 2122   0.356   0.149   1.626 -0.0689  0.0426 -0.3276
  708SOL    HW1 2123   0.378   0.072   1.563  0.9565  0.7487 -0.9752
  708SOL    HW2 2124   0.277   0.118   1.683  2.8784  1.9850 -1.7617
  709SOL     OW 2125   0.054   0.822   1.708  0.0905 -0.4599  0.1298
  709SOL    HW1 2126   0.131   0.834   1.644 -2.3497  2.9996 -1.6722
  709SOL    HW2 2127   0.079   0.814   1.808 -0.1641 -1.2041 -1.0077
  710SOL     OW 2128   0.350   0.742   0.881 -0.3934 -0.2081 -0.2589
  710SOL    HW1 2129   0.313   0.736   0.783  0.4205 -0.2628 -0.0485
  710SOL    HW2 2130   0.323   0.827   0.920  1.1352 -1.5601 -2.2885
  711SOL     OW 2131   2.404   2.627   1.900 -0.3430  0.2070  0.0533
  711SOL    HW1 2132   2.371   2.573   1.980  1.4990 -1.1117 -2.0749
  711SOL    HW2 2133   2.424   2.723   1.930 -1.2464  1.1583  1.2686
  712SOL     OW 2134   0.196   2.637   2.361  0.1107 -0.1163  0.1093
  712SOL    HW1 2135   0.236   2.714   2.417 -0.3910  1.3168  0.2413
  712SOL    HW2 2136   0.094   2.626   2.362 -1.3876 -1.7600 -2.2650
  713SOL     OW 2137   2.577   0.334   0.704 -0.1892  0.2971 -0.0477
  713SOL    HW1 2138   2.500   0.331   0.635  3.8051  0.1312  1.6713
  713SOL    HW2 2139   2.665   0.297   0.668  2.3468 -0.0869  1.2798
  714SOL     OW 2140   1.967   1.656   2.623 -0.0866 -0.0683  0.7454
  714SOL    HW1 2141   1.869   1.626   2.608 -0.5465 -0.3466  0.2414
  714SOL    HW2 2142   1.992   1.744   2.576  0.5456  2.5353  1.3435
  715SOL     OW 2143   0.058   0.414   0.882  0.2221  0.5022  0.2550
  715SOL    HW1 2144   0.156   0.438   0.900  0.1585  2.0868  0.4059
  715SOL    HW2 2145   0.013   0.490   0.826 -1.1803  0.7324 -0.0899
  716SOL     OW 2146   0.761   0.587   1.714  0.1431 -0.2038 -0.4151
  716SOL    HW1 2147   0.690   0.581   1.639 -0.6915 -0.0560  0.5651
  716SOL    HW2 2148   0.770   0.495   1.754 -3.1314 -2.3819 -1.7635
  717SOL     OW 2149   0.812   0.685   2.415  0.2073 -0.4036 -0.0337
  717SOL    HW1 2150   0.735   0.634   2.456  2.1025 -0.8360  0.2261
  717SOL    HW2 2151   0.858   0.741   2.485 -2.7484 -2.1419 -1.9789
  718SOL     OW 2152   1.126   0.060   0.455  0.1117  0.1759  0.5902
  718SOL    HW1 2153   1.139   0.136   0.524 -1.1872  2.6913  1.7801
  718SOL    HW2 2154   1.155   0.085   0.363  0.3265 -2.7104  1.4560
  719SOL     OW 2155   2.913   2.499   2.960 -0.0041  0.4859  0.1954
  719SOL    HW1 2156   2.894   2.422   3.022 -3.1026  1.3244 -0.4150
  719SOL    HW2 2157   2.836   2.510   2.898  0.2387  1.8681 -1.2316
  720SOL     OW 2158   1.240   0.563   1.681 -0.2548  0.5282 -0.2723
  720SOL    HW1 2159   1.332   0.547   1.642  1.8462 -0.7288  0.8717
  720SOL    HW2 2160   1.246   0.539   1.785 -1.9278 -1.6597  3.2952
  721SOL     OW 2161   0.110   2.861   0.957  0.0535 -0.4320 -0.1028
  721SOL    HW1 2162   0.091   2.910   0.868 -1.6583  4.3851  0.9516
  721SOL    HW2 2163   0.089   2.762   0.950 -0.1491 -0.3647  0.3863
  722SOL     OW 2164   0.688   1.236   2.867 -0.1425  0.2664  0.5090
  722SOL    HW1 2165   0.664   1.331   2.848 -0.5462 -0.0609  2.0817
  722SOL    HW2 2166   0.610   1.173   2.888 -0.8063 -2.1106 -0.0321
  723SOL     OW 2167   2.157   1.117   1.244 -0.0828 -0.2732 -0.2139
  723SOL    HW1 2168   2.233   1.185   1.233  1.4082 -3.2522 -0.2791
  723SOL    HW2 2169   2.133   1.105   1.339  1.9917 -0.7645  0.1660
  724SOL     OW 2170   0.831   1.725   0.207  0.1367  0.4856 -0.3132
  724SOL    HW1 2171   0.884   1.658   0.266  1.2141 -3.9627  0.7070
  724SOL    HW2 2172   0.892   1.785   0.155 -0.2024 -2.1183  1.3522
  725SOL     OW 2173   0.254   0.784   1.492  0.0808  0.4443 -0.4388
  725SOL    HW1 2174   0.348   0.767   1.527 -1.8241  0.7476  0.9785
  725SOL    HW2 2175   0.254   0.851   1.417  1.7606  0.0702 -0.3216
  726SOL     OW 2176   2.521   0.946   0.039 -0.4767 -0.0649 -0.0397
  726SOL    HW1 2177   2.448   0.979   3.047  1.5189 -0.3043 -0.7810
  726SOL    HW2 2178   2.602   0.918   3.054  0.3848  0.2693 -0.7045
  727SOL     OW 2179   2.215   0.947   2.687 -0.7046 -0.3530  0.3564
  727SOL    HW1 2180   2.145   1.018   2.669  0.2172 -0.7308 -1.9806
  727SOL    HW2 2181   2.287   0.940   2.613  0.4873 -2.1141 -1.7482
  728SOL     OW 2182   1.829   2.109   1.157 -0.3887 -0.0162  0.4130
  728SOL    HW1 2183   1.751   2.143   1.210  1.7633 -0.9856  2.6599
  728SOL    HW2 2184   1.800   2.050   1.079  0.9292  0.0666  1.2158
  729SOL     OW 2185   1.709   0.991   1.946  0.1293 -1.0747  0.3312
  729SOL    HW1 2186   1.768   0.916   1.976 -4.4305 -1.1202 -2.6894
  729SOL    HW2 2187   1.709   1.077   2.000  0.0092 -1.2378 -1.0572
  730SOL     OW 2188   1.229   0.486   0.850 -0.3496  0.3018 -0.2319
  730SOL    HW1 2189   1.259   0.568   0.906  1.5497 -1.1166 -1.4241
  730SOL    HW2 2190   1.313   0.424   0.826  3.5996 -1.3098 -1.2432
  731SOL     OW 2191   0.830   0.912   3.018  0.2290  0.4069  0.0365
  731SOL    HW1 2192   0.825   0.940   2.920  0.4331 -0.4119 -2.6672
  731SOL    HW2 2193   0.743   0.918   3.070 -0.4229  1.3253 -1.9173
  732SOL     OW 2194   0.565   0.843   0.653  0.0905 -0.1366 -0.3369
  732SOL    HW1 2195   0.628   0.924   0.645 -2.5308 -1.0600 -0.0992
  732SOL    HW2 2196   0.467   0.868   0.644  1.1574 -2.1577  0.2962
  733SOL     OW 2197   1.396   1.502   2.261 -0.3400  0.1080  0.3699
  733SOL    HW1 2198   1.356   1.537   2.343  0.9223 -0.2401 -2.7135
  733SOL    HW2 2199   1.340   1.528   2.185  1.4176  0.0385  0.8301
  734SOL     OW 2200   0.297   2.276   2.969 -0.4437 -0.0242 -0.4104
  734SOL    HW1 2201   0.247   2.197   2.929  3.4496  2.2409  0.3593
  734SOL    HW2 2202   0.395   2.287   2.933 -1.1908  0.4704  1.6898
  735SOL     OW 2203   2.465   0.451   0.941  0.1324  0.0197 -0.7666
  735SOL    HW1 2204   2.380   0.491   0.903  1.0208  1.9471 -1.1226
  735SOL    HW2 2205   2.525   0.422   0.864  0.2377  1.2056 -3.0727
  736SOL     OW 2206   2.120   1.522   2.383 -0.0904  0.2598 -0.2405
  736SOL    HW1 2207   2.214   1.477   2.382  0.4398 -1.1858  0.9063
  736SOL    HW2 2208   2.111   1.586   2.461 -1.6628  2.5158  0.1695
  737SOL     OW 2209   0.108   0.718   0.426 -0.2548 -0.1141 -0.0608
  737SOL    HW1 2210   0.061   0.771   0.354  0.5685  1.5159 -1.3131
  737SOL    HW2 2211   0.112   0.620   0.400  1.9856 -0.2237 -1.2975
  738SOL     OW 2212   0.987   1.941   1.305 -0.5695 -0.6164 -0.1108
  738SOL    HW1 2213   1.017   1.849   1.342  0.9607  0.0637  0.8821
  738SOL    HW2 2214   0.915   1.980   1.364 -0.7823 -0.3363  0.4007
  739SOL     OW 2215   1.371   2.827   2.090  0.2440 -0.0307 -0.0790
  739SOL    HW1 2216   1.468   2.827   2.124 -0.4502  1.4996  0.5637
  739SOL    HW2 2217   1.349   2.907   2.034  0.5735  1.5501 -0.7804
  740SOL     OW 2218   2.109   2.539   1.413  0.6554 -0.0822 -0.0324
  740SOL    HW1 2219   2.141   2.443   1.418  2.8153 -1.1829 -0.7805
  740SOL    HW2 2220   2.182   2.604   1.446 -1.5048  0.9285  1.6629
  741SOL     OW 2221   2.345   0.473   0.121  0.1602  0.2085  0.6669
  741SOL    HW1 2222   2.369   0.412   0.042 -1.0685  2.0867  3.9732
  741SOL    HW2 2223   2.248   0.453   0.148 -3.9997 -1.8866  0.5749
  742SOL     OW 2224   1.250   2.321   2.943  0.5894  0.1102  0.2484
  742SOL    HW1 2225   1.314   2.257   2.895 -2.3074  0.0412 -1.3874
  742SOL    HW2 2226   1.241   2.410   2.890  0.7137 -0.6662  0.7134
  743SOL     OW 2227   2.491   1.116   2.190  0.0763  0.1240  0.5078
  743SOL    HW1 2228   2.563   1.113   2.265  1.6053 -1.4035  1.9991
  743SOL    HW2 2229   2.408   1.168   2.229 -1.0895  0.4386  4.0011
  744SOL     OW 2230   2.831   0.064   0.381  0.0866  0.3132 -0.8586
  744SOL    HW1 2231   2.912   0.074   0.324  1.9049 -3.2001  1.8904
  744SOL    HW2 2232   2.749   0.049   0.323  1.3697  2.5528  1.1791
  745SOL     OW 2233   2.158   1.463   1.473  0.0861  0.2679  0.3495
  745SOL    HW1 2234   2.149   1.428   1.570  0.1835 -1.3144  3.2072
  745SOL    HW2 2235   2.254   1.491   1.451 -3.7348  1.8098 -1.5452
  746SOL     OW 2236   0.891   1.675   0.583  0.2247 -0.3867  0.1245
  746SOL    HW1 2237   0.976   1.657   0.636 -1.2968  0.0234  0.6550
  746SOL    HW2 2238   0.892   1.627   0.494 -0.0449  1.5779 -2.8004
  747SOL     OW 2239   1.064   1.549   1.672 -0.0690 -0.2878 -0.0470
  747SOL    HW1 2240   1.135   1.496   1.617  0.1298 -2.3841 -1.2848
  747SOL    HW2 2241   0.979   1.493   1.668 -1.2136  0.5619 -1.4145
  748SOL     OW 2242   0.303   2.969   0.077  0.3133 -0.0911 -0.5773
  748SOL    HW1 2243   0.277   2.912   0.159 -3.6293 -1.0068 -1.8350
  748SOL    HW2 2244   0.320   3.066   0.106  0.6850 -1.0211  1.3026
  749SOL     OW 2245   0.043   0.930   2.796 -0.2215  0.4194  0.2195
  749SOL    HW1 2246   3.067   1.018   2.824 -1.1220  2.7845  1.0008
  749SOL    HW2 2247   0.065   0.935   2.697 -0.1254  0.7817 -1.7370
  750SOL     OW 2248   1.602   1.282   1.728 -0.2491 -0.4576  0.0916
  750SOL    HW1 2249   1.622   1.382   1.718  2.4962  0.2209  1.4654
  750SOL    HW2 2250   1.671   1.228   1.677 -0.8365 -1.6332 -2.9564
  751SOL     OW 2251   2.768   0.633   0.416  0.5445  0.2268  0.2713
  751SOL    HW1 2252   2.813   0.663   0.329  0.2459  0.0555 -0.7192
  751SOL    HW2 2253   2.680   0.583   0.400 -0.6862 -0.4075  0.3366
  752SOL     OW 2254   2.657   2.603   0.994  0.7112  0.2050 -0.0713
  752SOL    HW1 2255   2.687   2.698   1.006 -0.4797 -0.6572  1.2174
  752SOL    HW2 2256   2.733   2.543   0.964 -1.3202  0.3983  2.8232
  753SOL     OW 2257   0.867   2.302   1.145  0.1150  0.1640  0.1577
  753SOL    HW1 2258   0.845   2.336   1.240  0.4139 -0.3721 -0.1538
  753SOL    HW2 2259   0.787   2.250   1.106  1.6334  0.7707  0.9326
  754SOL     OW 2260   3.050   2.518   2.120  0.0018  0.1009 -0.4103
  754SOL    HW1 2261   3.004   2.538   2.212 -0.8553 -1.7580  1.9928
  754SOL    HW2 2262   0.005   2.602   2.072  1.8675  0.0098  0.6101
  755SOL     OW 2263   2.448   0.645   3.023 -0.1493  0.2524  0.0283
  755SOL    HW1 2264   2.545   0.616   3.002  1.1411  1.7330  0.8888
  755SOL    HW2 2265   2.400   0.586   0.021 -0.6035 -1.5757 -0.4069
  756SOL     OW 2266   1.893   2.327   0.134  0.3667  0.1688  0.4278
  756SOL    HW1 2267   1.949   2.407   0.098 -1.2557  0.6944 -0.5441
  756SOL    HW2 2268   1.949   2.242   0.140  0.9045 -0.5617  0.1383
  757SOL     OW 2269   2.403   0.457   0.533 -0.2536  0.0183 -0.1231
  757SOL    HW1 2270   2.364   0.526   0.469  0.6439 -0.2762  2.0575
  757SOL    HW2 2271   2.329   0.390   0.564  2.2794 -0.5010 -0.3248
  758SOL     OW 2272   2.008   0.938   1.674  0.2329  0.7544  0.5241
  758SOL    HW1 2273   1.936   0.879   1.716  0.8510 -0.8852 -1.1321
  758SOL    HW2 2274   2.074   0.876   1.623 -0.1849  2.0937  0.1406
  759SOL     OW 2275   2.701   0.588   1.286 -0.0028  0.4065 -0.2879
  759SOL    HW1 2276   2.620   0.646   1.269  0.0046  0.0365 -1.9416
  759SOL    HW2 2277   2.693   0.500   1.227  2.0628 -3.9562  1.2325
  760SOL     OW 2278   0.505   1.281   1.405 -0.0169 -0.4681  0.0048
  760SOL    HW1 2279   0.590   1.239   1.438 -2.2100 -2.5537  1.2750
  760SOL    HW2 2280   0.427   1.230   1.439  3.4752 -2.4095  0.9261
  761SOL     OW 2281   1.113   0.710   0.132 -0.0060 -0.0990  0.3888
  761SOL    HW1 2282   1.055   0.667   0.061 -2.3996  0.8293  0.6592
  761SOL    HW2 2283   1.131   0.803   0.105  2.7957 -1.7137  1.3054
  762SOL     OW 2284   0.987   1.716   1.464  0.0958  0.0538  0.1294
  762SOL    HW1 2285   1.021   1.673   1.549 -0.9585  0.4565 -1.9384
  762SOL    HW2 2286   0.890   1.738   1.472 -0.2822 -0.0786  0.9837
  763SOL     OW 2287   0.919   0.775   1.389 -0.0775 -0.3022  0.2218
  763SOL    HW1 2288   0.985   0.824   1.332 -0.4823 -1.9990  2.9485
  763SOL    HW2 2289   0.872   0.712   1.325 -2.1214  0.1701 -0.8169
  764SOL     OW 2290   0.176   2.782   2.992 -0.1228  0.6527  0.1088
  764SOL    HW1 2291   0.222   2.853   3.046  1.6941  0.1461  0.2116
  764SOL    HW2 2292   0.097   2.743   3.042  1.5170  1.1741  0.9163
  765SOL     OW 2293   0.712   2.888   1.759 -0.1988  0.1412 -0.8677
  765SOL    HW1 2294   0.630   2.878   1.821 -2.6510 -0.3589 -2.4088
  765SOL    HW2 2295   0.701   2.979   1.713  1.2952 -2.3936  1.0908
  766SOL     OW 2296   2.736   1.680   2.252 -0.4049 -0.0615  0.3536
  766SOL    HW1 2297   2.664   1.630   2.313 -1.6664 -0.7819  3.4286
  766SOL    HW2 2298   2.794   1.743   2.312  0.7470  3.2005  0.1693
  767SOL     OW 2299   1.399   1.203   2.374  0.1601 -0.0413  0.5755
  767SOL    HW1 2300   1.414   1.302   2.394  2.1187 -0.4464 -2.2931
  767SOL    HW2 2301   1.359   1.199   2.275 -0.1718 -0.5737 -0.4740
  768SOL     OW 2302   1.708   1.634   0.357  0.0686  0.2133 -0.5275
  768SOL    HW1 2303   1.731   1.648   0.458 -1.1538  0.0279  1.6106
  768SOL    HW2 2304   1.783   1.666   0.303 -6.4190 -1.6691  3.5808
  769SOL     OW 2305   0.394   1.484   0.781  0.2911  0.0956  0.2012
  769SOL    HW1 2306   0.320   1.524   0.721 -2.5884  0.7417 -0.9249
  769SOL    HW2 2307   0.480   1.540   0.774  0.5420  0.8965  3.6540
  770SOL     OW 2308   1.419   0.876   2.358  0.3914  0.1342 -0.4462
  770SOL    HW1 2309   1.514   0.851   2.324 -1.2799  1.1042 -0.7337
  770SOL    HW2 2310   1.417   0.949   2.426 -4.7497 -2.0672  1.1607
  771SOL     OW 2311   2.649   0.028   2.317 -0.4649 -0.1835  0.2732
  771SOL    HW1 2312   2.570   0.098   2.302  1.8958  0.7737 -1.9183
  771SOL    HW2 2313   2.614   3.009   2.332 -1.2094  0.3447 -2.7412
  772SOL     OW 2314   2.375   1.968   2.246 -0.4009  0.2320  0.2274
  772SOL    HW1 2315   2.342   1.894   2.182 -0.0886  0.4301  0.3674
  772SOL    HW2 2316   2.428   2.044   2.206 -0.8929  0.7235  3.2758
  773SOL     OW 2317   0.824   1.375   1.628  0.0745  0.1669 -0.0656
  773SOL    HW1 2318   0.867   1.284   1.616  0.0283 -0.0439  3.8349
  773SOL    HW2 2319   0.795   1.412   1.537  0.0658  0.6747 -1.2892
  774SOL     OW 2320   1.261   0.684   2.846  0.0751 -0.1127 -0.3796
  774SOL    HW1 2321   1.226   0.783   2.833  3.4124 -0.7115 -0.3566
  774SOL    HW2 2322   1.317   0.656   2.762  1.1168  0.7751  1.7437
  775SOL     OW 2323   1.451   2.159   2.917 -0.0050 -0.1333 -0.2226
  775SOL    HW1 2324   1.528   2.197   2.976 -0.3437  0.4584 -0.2572
  775SOL    HW2 2325   1.380   2.109   2.965 -1.6859  0.0648 -3.0011
  776SOL     OW 2326   3.068   1.173   1.578  0.4074  0.0754 -0.1404
  776SOL    HW1 2327   3.018   1.082   1.574  1.8454 -1.3170  2.2861
  776SOL    HW2 2328   3.031   1.231   1.657 -1.9800 -1.0430 -0.9657
  777SOL     OW 2329   2.493   2.205   2.138 -0.7489  0.0303 -0.0146
  777SOL    HW1 2330   2.566   2.264   2.183  0.8080  1.2682 -0.4549
  777SOL    HW2 2331   2.538   2.140   2.069  1.5781 -1.7502 -2.8406
  778SOL     OW 2332   1.685   1.225   2.075  0.5594  0.7167 -0.4446
  778SOL    HW1 2333   1.612   1.291   2.050  0.1159 -1.1022 -0.0390
  778SOL    HW2 2334   1.771   1.251   2.027  2.2416  0.0085 -3.6829
  779SOL     OW 2335   2.739   0.963   0.230 -0.0098  0.4888 -0.5211
  779SOL    HW1 2336   2.787   0.890   0.180  2.7470 -0.8829 -0.1006
  779SOL    HW2 2337   2.655   0.997   0.185 -2.1935  0.9171 -0.0767
  780SOL     OW 2338   2.029   2.867   2.534 -0.3419  0.3668 -0.2497
  780SOL    HW1 2339   1.956   2.906   2.473  2.1212  0.1178 -1.9954
  780SOL    HW2 2340   2.039   2.911   2.626  4.2872 -0.9956 -0.4926
  781SOL     OW 2341   2.852   1.738   1.261 -0.7183  0.5160 -0.0931
  781SOL    HW1 2342   2.872   1.725   1.162 -2.8808 -0.0798  1.2758
  781SOL    HW2 2343   2.891   1.671   1.325  0.9193  1.6567  1.6990
  782SOL     OW 2344   2.811   2.241   0.013 -0.3689 -0.3367  0.2692
  782SOL    HW1 2345   2.761   2.295   0.083 -1.1142 -0.7759  0.6963
  782SOL    HW2 2346   2.757   2.202   3.008 -1.0523 -0.6064  3.6037
  783SOL     OW 2347   0.615   1.638   0.796  0.1934  0.2022 -0.8597
  783SOL    HW1 2348   0.689   1.570   0.801  1.0766  0.0519 -0.2267
  783SOL    HW2 2349   0.600   1.685   0.708  0.3318  1.6892  1.4639
  784SOL     OW 2350   2.557   1.185   0.237 -0.1111  0.0034 -0.0404
  784SOL    HW1 2351   2.517   1.219   0.152 -1.5908  0.4709 -0.3963
  784SOL    HW2 2352   2.558   1.260   0.306  1.0986  1.2170  0.8380
  785SOL     OW 2353   1.924   2.716   0.391 -0.5676  0.5164 -0.0086
  785SOL    HW1 2354   1.854   2.788   0.394 -1.0539 -2.3396  0.5692
  785SOL    HW2 2355   1.876   2.629   0.392 -1.3881  1.8313 -1.6835
  786SOL     OW 2356   0.506   2.174   2.597  0.6713  0.1460 -0.1595
  786SOL    HW1 2357   0.477   2.164   2.500 -0.1566 -0.2704  1.3203
  786SOL    HW2 2358   0.603   2.135   2.613  1.3092  0.5858 -0.3845
  787SOL     OW 2359   1.571   0.525   1.162  0.4377  0.2108 -0.5694
  787SOL    HW1 2360   1.473   0.539   1.173 -0.0552  2.8804 -0.1300
  787SOL    HW2 2361   1.587   0.518   1.062  1.2706  1.7855 -0.1443
  788SOL     OW 2362   0.587   0.887   0.267 -0.0875 -0.1409 -0.2413
  788SOL    HW1 2363   0.571   0.903   0.166  2.9353  0.2728  1.9553
  788SOL    HW2 2364   0.504   0.920   0.320 -2.2553  0.7365  1.5728
  789SOL     OW 2365   2.718   1.942   1.352  0.2896 -0.3950  0.1328
  789SOL    HW1 2366   2.777   1.871   1.306 -0.0677  0.3307  0.7981
  789SOL    HW2 2367   2.635   1.970   1.300  1.3709 -0.8317  1.7226
  790SOL     OW 2368   1.283   0.316   2.011  0.2899  0.2479  0.1818
  790SOL    HW1 2369   1.310   0.260   2.091 -2.2684 -0.7758 -0.6807
  790SOL    HW2 2370   1.186   0.293   1.996  3.6827 -1.1269 -1.9382
  791SOL     OW 2371   1.122   0.466   0.235 -0.2975 -0.1250 -0.1124
  791SOL    HW1 2372   1.067   0.407   0.175  1.2945  0.5452  1.4800
  791SOL    HW2 2373   1.113   0.565   0.206 -0.1765 -1.7085  4.1163
  792SOL     OW 2374   1.435   0.004   1.533  0.3191 -0.4070 -0.0692
  792SOL    HW1 2375   1.417   2.984   1.561  0.8009  2.7077 -0.6008
  792SOL    HW2 2376   1.484   0.009   1.448 -0.5917  1.7160  1.6358
  793SOL     OW 2377   0.859   2.875   0.815 -0.1472  0.5373 -0.5282
  793SOL    HW1 2378   0.924   2.878   0.736 -0.1661 -0.1371 -1.4586
  793SOL    HW2 2379   0.910   2.898   0.902  0.8929 -0.0068 -3.4033
  794SOL     OW 2380   0.646   1.268   2.064  0.5012 -0.3081  0.9438
  794SOL    HW1 2381   0.679   1.186   2.119  1.2681  1.4395  1.4408
  794SOL    HW2 2382   0.552   1.255   2.020  2.6820 -0.0577 -0.5001
  795SOL     OW 2383   0.009   1.553   2.344 -0.5063 -0.6491  0.7263
  795SOL    HW1 2384   0.040   1.647   2.312  0.1984 -0.7653  1.4157
  795SOL    HW2 2385   3.072   1.482   2.271 -1.6522 -1.6697  0.3172
  796SOL     OW 2386   1.938   1.250   1.995 -0.2616  0.5095 -0.2021
  796SOL    HW1 2387   2.000   1.208   1.923 -2.0588  0.7465 -0.6444
  796SOL    HW2 2388   1.985   1.324   2.049 -1.7001 -0.8766 -0.2496
  797SOL     OW 2389   0.195   0.128   2.711  0.3515  0.1229 -0.1382
  797SOL    HW1 2390   0.144   0.099   2.630  1.3502  1.0474 -0.1079
  797SOL    HW2 2391   0.133   0.117   2.791  1.2680  1.8173 -2.2063
  798SOL     OW 2392   0.075   2.194   1.916 -0.1446  0.2135  0.4095
  798SOL    HW1 2393   0.038   2.262   1.851 -0.3014 -0.6804  0.7454
  798SOL    HW2 2394   0.169   2.178   1.889 -2.3530 -0.0061  0.9485
  799SOL     OW 2395   2.687   2.325   0.261  0.2574 -0.1178 -0.2580
  799SOL    HW1 2396   2.668   2.256   0.336 -0.7165  0.7979 -0.4713
  799SOL    HW2 2397   2.644   2.413   0.291 -1.5549 -1.6502 -0.9998
  800SOL     OW 2398   1.109   1.669   0.753 -0.1261  0.4065  0.2720
  800SOL    HW1 2399   1.122   1.729   0.832 -0.1732 -1.9000  0.0823
  800SOL    HW2 2400   1.199   1.649   0.706 -0.9275 -0.2732  0.9885
  801SOL     OW 2401   2.607   0.626   0.684 -0.0110 -0.5558  0.2596
  801SOL    HW1 2402   2.553   0.715   0.675 -0.1342  1.4256  1.5148
  801SOL    HW2 2403   2.556   0.545   0.656  0.4562  2.1353  1.1112
  802SOL     OW 2404   2.507   1.414   0.380 -0.6256 -0.4841  0.0852
  802SOL    HW1 2405   2.513   1.512   0.366 -0.2058 -0.1020 -0.9370
  802SOL    HW2 2406   2.595   1.376   0.417  1.3999  0.6197  0.1186
  803SOL     OW 2407   1.386   1.761   2.947 -0.0975 -0.2221  0.1861
  803SOL    HW1 2408   1.429   1.801   2.863  0.4901 -0.0417  2.1240
  803SOL    HW2 2409   1.345   1.836   3.009 -1.9218  1.5311  2.2168
  804SOL     OW 2410   1.982   2.056   0.207  0.2714  0.3359  0.0467
  804SOL    HW1 2411   1.892   2.027   0.165 -0.3570 -1.8838 -2.0618
  804SOL    HW2 2412   2.061   1.998   0.176 -2.4692  0.4490  1.5749
  805SOL     OW 2413   2.728   1.446   2.715 -0.5328 -0.2606 -0.3451
  805SOL    HW1 2414   2.700   1.529   2.772 -0.4258  0.0558  1.7035
  805SOL    HW2 2415   2.825   1.459   2.685 -0.1862 -0.0222  0.5738
  806SOL     OW 2416   0.664   0.615   0.601 -0.4428  0.1667  0.3315
  806SOL    HW1 2417   0.682   0.615   0.499 -0.2321  0.4261  0.4953
  806SOL    HW2 2418   0.623   0.704   0.631 -1.4753  0.7454  0.7537
  807SOL     OW 2419   2.412   1.328   2.750  0.1431 -0.2272  0.2250
  807SOL    HW1 2420   2.314   1.310   2.769  1.3895 -2.4087  0.4301
  807SOL    HW2 2421   2.470   1.244   2.755 -0.5595 -2.4136  0.3394
  808SOL     OW 2422   0.146   1.421   0.487 -0.0112  0.0271  0.2312
  808SOL    HW1 2423   0.068   1.365   0.522 -2.4225 -0.1645 -2.3080
  808SOL    HW2 2424   0.166   1.499   0.548  0.0111  0.1186 -1.6426
  809SOL     OW 2425   2.436   0.752   2.763 -0.9346 -0.2268  0.0642
  809SOL    HW1 2426   2.440   0.723   2.862  0.7432  2.6093 -0.7964
  809SOL    HW2 2427   2.450   0.850   2.758 -2.9031 -0.1307  0.1580
  810SOL     OW 2428   1.241   0.998   0.388 -0.4839 -0.6561 -0.2026
  810SOL    HW1 2429   1.324   0.986   0.325 -1.2076  0.7096 -0.6728
  810SOL    HW2 2430   1.151   1.012   0.343  0.2326  1.3338  1.0972
  811SOL     OW 2431   1.497   2.395   0.750 -0.0609 -0.4704  0.0621
  811SOL    HW1 2432   1.417   2.459   0.745  0.0810  3.5352 -1.3433
  811SOL    HW2 2433   1.514   2.352   0.661 -0.3278 -3.1148 -1.7974
  812SOL     OW 2434   0.385   2.482   1.354 -0.2528 -0.5191  0.4535
  812SOL    HW1 2435   0.378   2.390   1.396  0.3725 -3.4033  0.9416
  812SOL    HW2 2436   0.438   2.542   1.409 -2.4425 -3.4084 -3.9412
  813SOL     OW 2437   1.107   0.026   1.852  0.4277 -0.0856  0.2327
  813SOL    HW1 2438   1.024   3.048   1.875 -2.9199  2.2619 -0.1730
  813SOL    HW2 2439   1.093   0.123   1.881  3.3410 -2.5745 -0.5068
  814SOL     OW 2440   1.339   0.016   2.542  0.1682 -0.7699  0.0305
  814SOL    HW1 2441   1.403   3.012   2.533  1.1677  0.7749 -1.6983
  814SOL    HW2 2442   1.263   0.016   2.469 -0.4309  1.2819 -0.1542
  815SOL     OW 2443   0.449   0.289   1.833 -0.4170 -0.1902  0.2217
  815SOL    HW1 2444   0.396   0.246   1.759 -0.1748 -0.9517  0.5177
  815SOL    HW2 2445   0.402   0.368   1.872 -0.3167  0.6194  0.3093
  816SOL     OW 2446   2.446   0.318   2.999 -0.9585 -0.1275  0.1180
  816SOL    HW1 2447   2.530   0.373   3.016 -2.0684  1.8995  0.0847
  816SOL    HW2 2448   2.430   0.322   2.899  0.3759  0.1185 -0.3068
  817SOL     OW 2449   1.825   0.461   2.667 -0.1093  0.2604  0.6612
  817SOL    HW1 2450   1.844   0.530   2.592  0.3811  3.7324  0.0265
  817SOL    HW2 2451   1.785   0.377   2.625 -0.5359  1.8888  2.8540
  818SOL     OW 2452   2.097   0.417   0.275 -0.2593 -0.0253 -0.0650
  818SOL    HW1 2453   2.119   0.319   0.297  0.6146  0.0557  2.5931
  818SOL    HW2 2454   2.141   0.480   0.343 -0.5348 -0.5899  0.3565
  819SOL     OW 2455   2.325   1.520   0.126 -0.4897 -0.3944 -0.0920
  819SOL    HW1 2456   2.382   1.581   0.185  0.7643 -2.6382 -0.9493
  819SOL    HW2 2457   2.377   1.437   0.095  1.1679 -0.2940 -0.1595
  820SOL     OW 2458   2.934   2.095   0.193  0.2258 -0.2139 -0.1260
  820SOL    HW1 2459   2.879   2.146   0.130  1.4845 -1.8306  0.4748
  820SOL    HW2 2460   2.882   2.047   0.267  0.1498 -3.8195  0.6524
  821SOL     OW 2461   0.086   2.754   1.347  0.0654  0.1831  0.2462
  821SOL    HW1 2462   0.098   2.764   1.447 -0.7446  3.9601 -3.2657
  821SOL    HW2 2463   0.053   2.838   1.300  0.8305  1.7812 -0.9402
  822SOL     OW 2464   2.586   2.569   2.683  0.4267  0.2875  0.1234
  822SOL    HW1 2465   2.647   2.647   2.667 -0.2480 -0.9995  0.4898
  822SOL    HW2 2466   2.496   2.598   2.666 -0.0306  3.2737 -2.0777
  823SOL     OW 2467   1.579   0.321   2.302  0.2996 -0.1718  0.6486
  823SOL    HW1 2468   1.489   0.285   2.271  2.1326 -0.1738 -1.7970
  823SOL    HW2 2469   1.575   0.344   2.405  1.7697  0.5939  1.2088
  824SOL     OW 2470   2.389   1.549   1.402  0.5245  0.2884 -0.5459
  824SOL    HW1 2471   2.426   1.623   1.452  0.7369 -4.7641 -0.0956
  824SOL    HW2 2472   2.451   1.537   1.320 -0.7549  2.3515  0.9157
  825SOL     OW 2473   2.863   1.894   2.365 -0.1602  0.3309 -0.0278
  825SOL    HW1 2474   2.806   1.980   2.378 -0.1860  0.7769 -0.4035
  825SOL    HW2 2475   2.964   1.922   2.359  2.4214  0.3861 -1.8528
  826SOL     OW 2476   2.683   1.101   2.377 -0.6037 -0.0760  0.1295
  826SOL    HW1 2477   2.710   1.123   2.473  2.5643 -0.8086  0.4754
  826SOL    HW2 2478   2.715   1.006   2.366  0.8378  1.6234  0.2553
  827SOL     OW 2479   2.472   2.566   1.477  0.6346 -0.5873  0.3425
  827SOL    HW1 2480   2.466   2.462   1.488  0.3340  1.3950  1.2294
  827SOL    HW2 2481   2.408   2.605   1.544 -0.7905  2.0550 -3.0097
  828SOL     OW 2482   2.841   2.841   1.480  0.2721  0.0516 -0.6375
  828SOL    HW1 2483   2.920   2.874   1.535 -0.9939 -0.6849 -0.1866
  828SOL    HW2 2484   2.837   2.898   1.394 -0.4469  0.4925 -0.1533
  829SOL     OW 2485   1.568   2.169   2.260  0.6776 -0.1124  0.1604
  829SOL    HW1 2486   1.531   2.261   2.235  0.1557 -1.0691 -0.8165
  829SOL    HW2 2487   1.552   2.144   2.355 -1.4342  2.3980  1.2036
  830SOL     OW 2488   1.553   0.529   0.645 -0.1805 -0.1999 -0.2805
  830SOL    HW1 2489   1.573   0.550   0.747 -1.2681  0.1864  0.6698
  830SOL    HW2 2490   1.633   0.496   0.584 -0.7982 -1.0674 -2.7575
  831SOL     OW 2491   2.751   1.372   0.792 -0.4370  0.1844 -0.1131
  831SOL    HW1 2492   2.840   1.325   0.787 -0.6115  0.0796 -0.7814
  831SOL    HW2 2493   2.711   1.388   0.700  1.2068  1.6852  1.6733
  832SOL     OW 2494   1.626   2.429   1.958 -0.4307 -0.4409 -0.4815
  832SOL    HW1 2495   1.566   2.507   1.929  1.4582 -1.7473 -1.8224
  832SOL    HW2 2496   1.676   2.406   1.874  0.6164  1.2398  0.6986
  833SOL     OW 2497   2.978   2.931   2.304  0.0327 -0.3404 -0.0501
  833SOL    HW1 2498   2.910   2.892   2.243  0.9191  0.1167  1.4126
  833SOL    HW2 2499   2.942   3.013   2.358  0.2366 -0.0496 -0.8662
  834SOL     OW 2500   0.963   1.029   1.254  0.4028 -0.0630  1.0988
  834SOL    HW1 2501   1.063   1.041   1.226  3.1644  0.1093  1.9177
  834SOL    HW2 2502   0.904   0.998   1.178 -2.1617 -1.2158  1.9092
  835SOL     OW 2503   0.096   0.646   2.779 -0.0873 -0.2772 -0.3568
  835SOL    HW1 2504   0.079   0.549   2.757  0.6649  0.6052 -1.2324
  835SOL    HW2 2505   0.092   0.649   2.882  1.9534  0.7202  1.4228
  836SOL     OW 2506   1.170   2.274   1.103  0.8169 -0.3972  0.0109
  836SOL    HW1 2507   1.067   2.290   1.095 -0.6870 -0.2086  1.6864
  836SOL    HW2 2508   1.211   2.332   1.176  0.5587 -3.7756  0.0915
  837SOL     OW 2509   2.005   0.960   1.084 -0.3579  0.2949 -0.4088
  837SOL    HW1 2510   1.935   0.998   1.022 -0.8469 -0.8213 -0.2257
  837SOL    HW2 2511   2.048   1.042   1.135  2.0470  4.9039  0.2924
  838SOL     OW 2512   1.469   1.504   2.631 -0.2712  0.0395 -0.3903
  838SOL    HW1 2513   1.436   1.449   2.712 -1.4402 -1.5080  5.5603
  838SOL    HW2 2514   1.405   1.581   2.603 -0.4932 -1.5171 -1.3644
  839SOL     OW 2515   0.527   2.322   2.824  0.5947 -0.0107  0.1086
  839SOL    HW1 2516   0.521   2.271   2.735 -1.4368 -1.8195  1.2213
  839SOL    HW2 2517   0.624   2.350   2.851  1.6794 -0.1511 -0.2182
  840SOL     OW 2518   0.392   2.577   3.012 -0.4577  0.4911  0.5548
  840SOL    HW1 2519   0.326   2.649   3.021 -0.2790 -2.0586 -0.3703
  840SOL    HW2 2520   0.343   2.486   2.990 -0.0289 -2.1327 -0.1345
  841SOL     OW 2521   1.741   1.994   0.047  0.1084  0.1341 -0.1881
  841SOL    HW1 2522   1.755   1.919   3.049 -2.2778 -0.9337  0.9234
  841SOL    HW2 2523   1.700   2.083   0.012 -0.9187  1.2826  0.8326
  842SOL     OW 2524   1.401   0.951   2.637 -0.2559 -0.9092  0.5738
  842SOL    HW1 2525   1.378   1.016   2.713  0.5113 -1.1039 -1.6840
  842SOL    HW2 2526   1.477   0.890   2.657  2.2248 -0.6462 -0.9672
  843SOL     OW 2527   1.413   2.748   0.573  0.1363  0.7312 -0.3148
  843SOL    HW1 2528   1.478   2.705   0.506 -0.3279 -0.4117 -0.3485
  843SOL    HW2 2529   1.392   2.843   0.555  0.0342  1.1753 -0.4799
  844SOL     OW 2530   2.369   2.751   2.538  0.2123  0.6520 -0.2783
  844SOL    HW1 2531   2.294   2.742   2.467  0.9067  2.1542 -1.2043
  844SOL    HW2 2532   2.329   2.766   2.631  1.4593 -0.3941 -0.9409
  845SOL     OW 2533   2.992   2.560   1.223 -0.2638  0.6878 -0.4619
  845SOL    HW1 2534   3.056   2.626   1.265 -1.3070 -0.2443  0.5020
  845SOL    HW2 2535   2.912   2.554   1.282  2.3035 -1.2495 -1.2244
  846SOL     OW 2536   0.020   2.037   2.280 -0.5356 -0.2046 -0.0886
  846SOL    HW1 2537   0.051   2.113   2.215 -1.3488  3.7351 -2.7731
  846SOL    HW2 2538   0.067   2.046   2.370 -1.6181 -0.7243 -0.5962
  847SOL     OW 2539   1.641   0.269   1.556  0.0813 -0.4687  0.8257
  847SOL    HW1 2540   1.640   0.308   1.454 -1.9111  1.3701 -0.6065
  847SOL    HW2 2541   1.647   0.169   1.558  1.0352  2.7883  0.4318
  848SOL     OW 2542   3.022   0.492   0.146  0.1746 -0.1426 -0.6038
  848SOL    HW1 2543   0.031   0.464   0.208  2.8746  0.2582  1.0193
  848SOL    HW2 2544   2.951   0.421   0.150  0.1043  1.2167 -1.6704
  849SOL     OW 2545   0.940   0.662   3.002 -0.1039  0.1472 -0.1139
  849SOL    HW1 2546   0.890   0.743   3.031  1.2826 -1.6005 -2.5058
  849SOL    HW2 2547   0.877   0.585   3.007 -1.2149 -1.8720 -2.4079
  850SOL     OW 2548   0.446   2.801   1.036  0.0211  0.0224 -0.5780
  850SOL    HW1 2549   0.361   2.762   1.081 -0.4158  1.0921 -0.5324
  850SOL    HW2 2550   0.423   2.887   0.988 -0.6997  0.9439 -1.2960
  851SOL     OW 2551   2.003   0.326   2.421  0.6073 -0.0123 -0.9188
  851SOL    HW1 2552   1.945   0.405   2.395  0.1941 -1.0595  0.9955
  851SOL    HW2 2553   2.032   0.327   2.521 -0.9328 -1.3561 -0.1001
  852SOL     OW 2554   1.673   1.493   2.325 -0.0977 -0.0509 -0.0903
  852SOL    HW1 2555   1.677   1.491   2.426  0.0451 -0.8127 -0.7772
  852SOL    HW2 2556   1.579   1.485   2.292 -1.0916 -0.4892 -1.7567
  853SOL     OW 2557   0.031   2.842   0.693 -0.3606 -0.4063 -0.0651
  853SOL    HW1 2558   0.027   2.758   0.646  0.8728  2.9848  0.8555
  853SOL    HW2 2559   3.014   2.857   0.738 -0.1188  1.3681 -2.0492
  854SOL     OW 2560   2.403   0.195   0.984 -0.0832 -0.3613  0.3882
  854SOL    HW1 2561   2.327   0.165   0.920  1.0351 -0.0879 -0.0841
  854SOL    HW2 2562   2.424   0.293   0.966  0.6308  1.6099  0.0674
  855SOL     OW 2563   1.273   2.102   0.571  0.1468 -0.7197 -0.1487
  855SOL    HW1 2564   1.196   2.059   0.518 -1.6054  0.0604 -0.5217
  855SOL    HW2 2565   1.250   2.121   0.666 -1.9064 -0.7860 -1.0703
  856SOL     OW 2566   2.598   0.292   0.316 -0.1214  0.1593  0.1109
  856SOL    HW1 2567   2.553   0.202   0.325 -0.2787 -1.1297 -0.7326
  856SOL    HW2 2568   2.560   0.368   0.372 -0.6907  0.1920  0.5520
  857SOL     OW 2569   1.802   2.718   1.749  0.3224  0.5183 -0.4576
  857SOL    HW1 2570   1.720   2.685   1.798 -1.1666 -1.1626  1.2325
  857SOL    HW2 2571   1.847   2.648   1.688 -0.2666 -2.5723  1.4320
  858SOL     OW 2572   2.445   2.288   1.426 -0.3982  1.1292 -0.0862
  858SOL    HW1 2573   2.470   2.273   1.330  2.5709 -0.7512  0.6887
  858SOL    HW2 2574   2.341   2.280   1.435 -0.4791  0.2611 -1.7850
  859SOL     OW 2575   1.072   2.433   0.663  0.3597 -0.0074 -0.4203
  859SOL    HW1 2576   0.986   2.484   0.690 -1.9115  2.1361 -0.7225
  859SOL    HW2 2577   1.154   2.482   0.697 -1.3923 -1.0269 -1.0290
  860SOL     OW 2578   2.273   2.339   0.210  0.1305 -0.6362  0.2541
  860SOL    HW1 2579   2.284   2.432   0.240  1.1453  0.8996 -0.8706
  860SOL    HW2 2580   2.224   2.288   0.283  2.0923 -1.2808  0.3384
  861SOL     OW 2581   2.053   2.554   1.136 -0.2434  0.4652 -0.0533
  861SOL    HW1 2582   2.102   2.618   1.080 -3.6120 -2.6961  1.8628
  861SOL    HW2 2583   2.082   2.553   1.234  3.3128 -2.5587  3.5084
  862SOL     OW 2584   1.796   2.990   2.411  0.4062  0.1449  0.0184
  862SOL    HW1 2585   1.794   3.071   2.347  0.9552  0.0280 -0.4367
  862SOL    HW2 2586   1.741   3.006   2.495  0.0993 -1.0393 -2.7468
  863SOL     OW 2587   0.595   0.229   0.283  0.1933  0.0772 -0.2327
  863SOL    HW1 2588   0.593   0.170   0.363 -0.7277  0.7638  0.9294
  863SOL    HW2 2589   0.616   0.173   0.200 -0.7816  0.0827 -0.4703
  864SOL     OW 2590   2.677   2.528   1.894 -0.1666  0.0182  0.0929
  864SOL    HW1 2591   2.762   2.553   1.844 -0.3968 -2.3861  1.1997
  864SOL    HW2 2592   2.606   2.601   1.888 -1.1960  0.7745 -0.5191
  865SOL     OW 2593   2.994   2.200   2.876 -0.1233  0.2795  0.6523
  865SOL    HW1 2594   0.001   2.138   2.871  0.6085 -0.8573  0.1384
  865SOL    HW2 2595   2.960   2.209   2.969  0.8214 -0.3213 -0.4953
  866SOL     OW 2596   2.509   0.284   2.695 -0.1651 -0.1120 -0.4316
  866SOL    HW1 2597   2.587   0.299   2.639 -2.5405  0.0891  0.9217
  866SOL    HW2 2598   2.432   0.350   2.682 -0.2417 -0.3142  1.1171
  867SOL     OW 2599   2.856   0.089   2.478 -0.5943  0.1091 -0.0776
  867SOL    HW1 2600   2.775   0.056   2.433  1.9419 -0.3419 -0.2849
  867SOL    HW2 2601   2.855   0.064   2.578 -1.6717 -1.6583  1.3347
  868SOL     OW 2602   0.904   2.605   0.784  0.1162  0.2151 -0.3283
  868SOL    HW1 2603   0.887   2.565   0.876  2.5701 -0.5031 -2.9494
  868SOL    HW2 2604   0.884   2.705   0.790  0.2616  0.1169  1.7671
  869SOL     OW 2605   1.282   1.293   1.061 -0.9875 -0.2049 -0.3781
  869SOL    HW1 2606   1.272   1.394   1.071 -2.4658 -2.1119  2.1083
  869SOL    HW2 2607   1.380   1.271   1.040 -0.2739  1.4648 -2.2574
  870SOL     OW 2608   1.822   1.879   1.355 -0.3288 -0.0908 -0.4429
  870SOL    HW1 2609   1.882   1.797   1.373 -0.1807 -1.7995 -0.9284
  870SOL    HW2 2610   1.797   1.930   1.437 -1.9049  0.1281 -3.5413
  871SOL     OW 2611   0.939   1.492   1.082  0.4151 -0.0653 -0.3878
  871SOL    HW1 2612   0.985   1.578   1.107  2.2836 -0.4334 -0.2805
  871SOL    HW2 2613   0.976   1.462   0.994 -2.1460 -4.8547 -0.0723
  872SOL     OW 2614   1.229   0.702   1.004  0.0982 -0.5578 -0.5021
  872SOL    HW1 2615   1.140   0.751   0.990 -0.0083 -0.5942 -0.9540
  872SOL    HW2 2616   1.308   0.772   0.994  1.6529  3.1751 -0.9870
  873SOL     OW 2617   1.618   0.785   2.677 -0.2013 -0.1920  0.0271
  873SOL    HW1 2618   1.666   0.750   2.754 -3.3531  1.6388 -5.1341
  873SOL    HW2 2619   1.679   0.849   2.627  0.6729  2.0784 -1.5530
  874SOL     OW 2620   0.499   1.335   1.141 -0.6308 -0.3474  0.4013
  874SOL    HW1 2621   0.513   1.352   1.241  0.4093 -0.1196 -0.7568
  874SOL    HW2 2622   0.408   1.379   1.116 -3.6522  0.3772 -1.2798
  875SOL     OW 2623   2.740   2.783   2.995 -0.2363 -0.1493  0.7690
  875SOL    HW1 2624   2.656   2.749   2.949 -0.7980  2.3433 -0.8263
  875SOL    HW2 2625   2.828   2.772   2.943  0.8188 -0.6071 -2.7843
  876SOL     OW 2626   1.017   0.602   2.709  1.1458 -0.0296  0.0820
  876SOL    HW1 2627   1.064   0.624   2.794 -0.6565 -0.3990 -0.0444
  876SOL    HW2 2628   1.047   0.662   2.634  2.2421 -3.5686 -1.4613
  877SOL     OW 2629   3.039   2.980   1.630  0.2881 -0.1686 -0.0997
  877SOL    HW1 2630   3.027   3.029   1.718  1.5789  0.9347  0.5712
  877SOL    HW2 2631   0.015   3.040   1.565  0.2284 -0.0278 -0.5149
  878SOL     OW 2632   1.840   2.254   2.592 -0.0100  0.1843 -0.1104
  878SOL    HW1 2633   1.789   2.334   2.555 -0.4125  1.9917 -1.0360
  878SOL    HW2 2634   1.941   2.262   2.570  2.5613  1.0875 -0.7082
  879SOL     OW 2635   2.266   1.787   2.035  0.1055  0.1088 -0.0282
  879SOL    HW1 2636   2.179   1.796   2.096 -1.0996 -0.4769  1.6014
  879SOL    HW2 2637   2.271   1.688   2.001 -0.2010  1.5226  1.1053
  880SOL     OW 2638   0.600   0.968   1.104 -0.0422 -0.2536 -0.3502
  880SOL    HW1 2639   0.584   0.964   1.203 -2.3782 -0.4560 -2.1085
  880SOL    HW2 2640   0.617   0.871   1.070  0.8930 -2.4057  2.1304
  881SOL     OW 2641   1.175   1.625   0.122 -0.1464 -0.0349  0.5663
  881SOL    HW1 2642   1.202   1.707   0.175  1.1574 -0.7171  1.1121
  881SOL    HW2 2643   1.228   1.542   0.143 -2.3542 -2.7818 -1.1948
  882SOL     OW 2644   1.802   0.129   1.261 -0.0241 -0.3935  0.1259
  882SOL    HW1 2645   1.780   0.226   1.294  0.9918  1.6798 -0.3357
  882SOL    HW2 2646   1.852   0.139   1.168  3.8687 -0.5036  0.3866
  883SOL     OW 2647   1.782   0.710   2.109 -0.1353  0.1818 -0.8525
  883SOL    HW1 2648   1.711   0.692   2.035  0.8220 -1.7173 -0.6108
  883SOL    HW2 2649   1.870   0.735   2.074  0.6001  1.9348  0.6222
  884SOL     OW 2650   2.661   0.471   3.067 -0.1164 -0.5438 -0.2121
  884SOL    HW1 2651   2.754   0.483   3.026 -1.2734  0.5195  1.6770
  884SOL    HW2 2652   2.667   0.498   0.095  2.8610 -0.2210  3.1830
  885SOL     OW 2653   1.150   2.218   0.833 -0.3630  0.0475 -0.3487
  885SOL    HW1 2654   1.136   2.293   0.769  3.6296 -2.5924  1.5077
  885SOL    HW2 2655   1.161   2.245   0.928 -0.2199 -2.0907 -3.3241
  886SOL     OW 2656   1.362   1.145   2.813 -0.3656  0.1092 -0.6231
  886SOL    HW1 2657   1.444   1.205   2.815 -2.3749 -0.5797  1.6495
  886SOL    HW2 2658   1.278   1.202   2.816 -0.7365  0.9149  2.0937
  887SOL     OW 2659   1.792   0.034   1.601  0.2443 -0.0019 -0.1019
  887SOL    HW1 2660   1.788   0.056   1.698  0.4262  0.3466 -1.2566
  887SOL    HW2 2661   1.750   3.015   1.584  0.9093 -1.2976 -0.7287
  888SOL     OW 2662   2.887   1.569   1.819  0.0823 -0.6846 -0.0185
  888SOL    HW1 2663   2.848   1.665   1.806  0.8549  2.9607  0.9766
  888SOL    HW2 2664   2.836   1.504   1.759 -1.4644  2.4744 -0.6663
  889SOL     OW 2665   2.876   2.469   0.832  0.0449 -0.0349 -0.0315
  889SOL    HW1 2666   2.840   2.501   0.743 -3.4345 -1.5682 -2.2881
  889SOL    HW2 2667   2.969   2.516   0.850  1.2314 -0.6791  1.1059
  890SOL     OW 2668   0.489   2.054   2.337  0.0428 -0.1123  0.0426
  890SOL    HW1 2669   0.580   2.074   2.302  1.2652  0.9394  0.5350
  890SOL    HW2 2670   0.420   2.095   2.271  0.0767  2.2305 -0.3707
  891SOL     OW 2671   0.574   1.754   0.555  0.6634  0.2143  0.0555
  891SOL    HW1 2672   0.658   1.805   0.524 -0.7224 -0.1615 -0.7999
  891SOL    HW2 2673   0.488   1.805   0.524 -2.7335  1.8362  0.2458
  892SOL     OW 2674   2.890   2.171   1.318 -0.4919  0.1343 -0.0714
  892SOL    HW1 2675   2.854   2.224   1.394  0.5305 -1.4026 -0.9008
  892SOL    HW2 2676   2.839   2.080   1.317 -2.7286 -1.2783 -0.1288
  893SOL     OW 2677   0.178   0.477   1.713 -0.4851 -0.2336 -0.3319
  893SOL    HW1 2678   0.123   0.535   1.648 -1.0994 -0.3571  0.0090
  893SOL    HW2 2679   0.182   0.386   1.669 -0.5266 -0.4835  1.6663
  894SOL     OW 2680   2.828   1.718   0.804 -0.0181 -0.0376  0.3891
  894SOL    HW1 2681   2.917   1.726   0.755  0.1238 -1.5424  0.0951
  894SOL    HW2 2682   2.760   1.666   0.744 -2.3253 -2.1467 -2.0077
  895SOL     OW 2683   1.443   2.323   1.493  0.0128  0.3067  0.1641
  895SOL    HW1 2684   1.405   2.255   1.560 -0.5351 -0.0281  0.3576
  895SOL    HW2 2685   1.528   2.289   1.457 -1.7341  0.5078  1.3791
  896SOL     OW 2686   0.651   0.288   1.319  0.3730 -0.1054 -0.1494
  896SOL    HW1 2687   0.562   0.318   1.362 -2.3466  0.7903  1.7394
  896SOL    HW2 2688   0.732   0.292   1.384 -0.2849 -0.6154  2.1251
  897SOL     OW 2689   1.211   1.041   1.174 -0.0370 -0.4118 -0.3004
  897SOL    HW1 2690   1.238   1.135   1.153 -0.4072  1.3531  1.9775
  897SOL    HW2 2691   1.284   0.979   1.149 -2.1779 -1.5489  0.1031
  898SOL     OW 2692   0.834   0.263   1.544 -0.3053 -0.0216 -0.6225
  898SOL    HW1 2693   0.826   0.281   1.647 -2.2651  0.0420  2.1573
  898SOL    HW2 2694   0.923   0.294   1.509 -0.8546  0.1941 -2.1226
  899SOL     OW 2695   1.545   0.278   0.217  0.0739 -0.5607  0.2553
  899SOL    HW1 2696   1.557   0.325   0.125 -0.8601  1.4049 -0.9827
  899SOL    HW2 2697   1.476   0.331   0.276  1.9473  0.0672 -2.9028
  900SOL     OW 2698   0.898   0.521   2.217  0.6141 -0.1495 -0.2698
  900SOL    HW1 2699   0.877   0.565   2.306  1.2551 -1.6205 -0.9103
  900SOL    HW2 2700   0.809   0.485   2.183 -2.5995 -3.1572 -0.8575
  901SOL     OW 2701   0.730   1.989   0.239 -0.3548 -0.7865  0.0688
  901SOL    HW1 2702   0.756   1.895   0.252 -0.5415  3.2412 -1.0329
  901SOL    HW2 2703   0.679   2.008   0.155  0.5628  0.2755  2.6370
  902SOL     OW 2704   1.836   0.351   0.861 -0.2944 -0.1039 -0.2693
  902SOL    HW1 2705   1.872   0.406   0.779  2.2000  0.8147 -0.3660
  902SOL    HW2 2706   1.812   0.259   0.829 -0.5623 -0.2035 -0.4150
  903SOL     OW 2707   2.999   1.243   2.537  0.5563 -0.1021  0.6094
  903SOL    HW1 2708   0.025   1.275   2.532  2.0451 -1.5972  2.4917
  903SOL    HW2 2709   2.935   1.274   2.465 -0.2431  1.5994  2.8917
  904SOL     OW 2710   1.677   1.248   0.479  0.7204  0.4675  0.5760
  904SOL    HW1 2711   1.660   1.313   0.401  1.3341  1.7329  0.3453
  904SOL    HW2 2712   1.619   1.255   0.561  0.2986  2.0672  1.6525
  905SOL     OW 2713   1.807   2.741   1.120  0.0020 -0.1856 -0.5161
  905SOL    HW1 2714   1.823   2.818   1.189  1.9349 -1.7848  2.0401
  905SOL    HW2 2715   1.894   2.689   1.115 -1.0860  0.7340 -1.4784
  906SOL     OW 2716   2.196   2.893   0.860  0.1318  0.2950  0.2561
  906SOL    HW1 2717   2.104   2.929   0.881 -1.2777 -1.5485 -0.5410
  906SOL    HW2 2718   2.220   2.831   0.935 -2.1584 -1.5388 -0.5705
  907SOL     OW 2719   2.102   1.044   0.377  0.8809  0.4042  0.2342
  907SOL    HW1 2720   2.187   1.087   0.408  1.0876 -0.0715 -0.7983
  907SOL    HW2 2721   2.123   0.948   0.340  0.3870 -0.2389 -0.8426
  908SOL     OW 2722   1.748   0.381   1.306  0.0075  0.1195  0.3713
  908SOL    HW1 2723   1.672   0.418   1.247  1.3235 -0.6099  2.3715
  908SOL    HW2 2724   1.805   0.457   1.347  1.6645 -0.5727 -0.1642
  909SOL     OW 2725   2.456   2.883   0.789  0.0127  0.1507  0.1786
  909SOL    HW1 2726   2.507   2.968   0.815 -1.1776  1.9633 -1.0067
  909SOL    HW2 2727   2.358   2.892   0.820 -2.1241 -0.4689  0.2594
  910SOL     OW 2728   2.336   0.770   2.000 -0.0357 -0.7124  0.1540
  910SOL    HW1 2729   2.297   0.689   2.041  2.2433  1.9009  0.0118
  910SOL    HW2 2730   2.433   0.779   2.024 -3.0778 -0.0584  0.5741
  911SOL     OW 2731   2.261   0.120   2.616 -0.1868 -0.1190 -0.2481
  911SOL    HW1 2732   2.193   0.183   2.657  0.0336 -2.5608  0.9789
  911SOL    HW2 2733   2.352   0.142   2.636 -0.5371 -0.6869  0.2858
  912SOL     OW 2734   0.524   0.969   1.359  0.2790  0.1461  0.8545
  912SOL    HW1 2735   0.578   1.050   1.397  1.1145  1.5729 -0.0803
  912SOL    HW2 2736   0.534   0.893   1.422 -1.3394  3.8719 -3.1030
  913SOL     OW 2737   2.796   2.339   1.122 -0.0605 -0.1653  0.7987
  913SOL    HW1 2738   2.856   2.421   1.132 -0.6800 -0.3435  2.4156
  913SOL    HW2 2739   2.831   2.266   1.186  3.0199 -1.4859 -3.1556
  914SOL     OW 2740   1.617   0.801   1.178 -0.1502 -0.1829  0.4651
  914SOL    HW1 2741   1.570   0.845   1.254  0.1262 -0.8026 -2.3982
  914SOL    HW2 2742   1.611   0.702   1.178  0.0486  0.1266 -1.2879
  915SOL     OW 2743   0.115   1.648   1.478  0.0040  0.0616  0.5955
  915SOL    HW1 2744   0.177   1.671   1.400 -0.9680 -0.8599  0.6786
  915SOL    HW2 2745   0.169   1.625   1.559  0.2907 -0.5649 -0.9071
  916SOL     OW 2746   1.857   2.372   0.891  0.2219  0.2324 -0.6462
  916SOL    HW1 2747   1.941   2.356   0.949  0.3696 -0.3106 -1.5319
  916SOL    HW2 2748   1.786   2.307   0.920  5.0447  1.3028  1.0845
  917SOL     OW 2749   1.750   2.613   2.130  0.1791  0.1710  0.1356
  917SOL    HW1 2750   1.847   2.612   2.108  0.4332 -2.1651 -0.6389
  917SOL    HW2 2751   1.699   2.538   2.088  0.6830 -0.0986  1.4839
  918SOL     OW 2752   2.071   1.862   2.473 -0.4270  0.2436  0.2717
  918SOL    HW1 2753   2.056   1.956   2.428  0.6238  0.2698  1.6742
  918SOL    HW2 2754   2.158   1.849   2.531 -1.5155  1.3106  0.4685
  919SOL     OW 2755   0.929   0.289   1.186 -0.2173 -0.8754  0.1101
  919SOL    HW1 2756   0.839   0.245   1.185 -0.2803 -0.3763  2.3800
  919SOL    HW2 2757   0.972   0.278   1.280  0.7276 -3.4755 -0.7918
  920SOL     OW 2758   2.926   0.561   2.145  0.0760 -0.1104  0.2769
  920SOL    HW1 2759   2.966   0.465   2.134  0.0775 -1.0769  1.4985
  920SOL    HW2 2760   2.982   0.619   2.210  1.1127 -0.6953  2.4770
  921SOL     OW 2761   2.724   1.166   1.555  0.4496 -0.4283 -0.2677
  921SOL    HW1 2762   2.797   1.110   1.525  0.0347  0.5906  1.2848
  921SOL    HW2 2763   2.680   1.129   1.637 -0.1375  1.0602  3.3843
  922SOL     OW 2764   2.638   2.147   0.811 -0.3762 -0.0665 -0.0120
  922SOL    HW1 2765   2.569   2.214   0.849 -2.0507  0.6628  2.0606
  922SOL    HW2 2766   2.715   2.201   0.763 -1.9606 -1.3874  0.3531
  923SOL     OW 2767   0.282   2.311   0.648 -0.3998 -0.3380 -0.2718
  923SOL    HW1 2768   0.361   2.264   0.603 -1.8240  0.4659 -1.3167
  923SOL    HW2 2769   0.295   2.403   0.684 -0.3604 -1.4778  2.0909
  924SOL     OW 2770   0.949   1.302   2.973  0.0392  0.3190  0.0041
  924SOL    HW1 2771   0.934   1.396   3.005  0.9903 -1.3014  1.7505
  924SOL    HW2 2772   0.862   1.277   2.929  1.5217 -0.4068 -0.6551
  925SOL     OW 2773   3.015   1.163   0.849 -0.0636 -0.1668  0.2151
  925SOL    HW1 2774   3.037   1.210   0.937 -0.7595 -0.8574 -0.8140
  925SOL    HW2 2775   2.991   1.066   0.860 -1.0919  4.5646 -0.6780
  926SOL     OW 2776   0.107   2.992   1.192 -0.3641  0.8496 -0.0338
  926SOL    HW1 2777   0.182   3.059   1.196 -1.4756  2.6735  1.9494
  926SOL    HW2 2778   0.106   2.938   1.105 -1.0081 -2.5673 -1.5832
  927SOL     OW 2779   0.484   1.824   2.461 -0.3682  0.4887  0.0758
  927SOL    HW1 2780   0.414   1.769   2.414 -0.0256  1.9993 -0.5034
  927SOL    HW2 2781   0.487   1.921   2.423  0.4110  0.6470 -1.3553
  928SOL     OW 2782   0.256   0.496   2.390 -0.4725 -0.2616 -0.5939
  928SOL    HW1 2783   0.265   0.442   2.472  0.0034  1.2853  1.1153
  928SOL    HW2 2784   0.224   0.588   2.420 -0.1488  0.3472 -0.2510
  929SOL     OW 2785   2.549   2.028   1.164  0.0529 -0.3541  0.3231
  929SOL    HW1 2786   2.555   2.128   1.187 -0.4585 -0.2044  0.3827
  929SOL    HW2 2787   2.618   2.000   1.092  3.9545 -0.4169 -2.1223
  930SOL     OW 2788   1.801   0.491   2.262  0.0199  0.8242 -0.0898
  930SOL    HW1 2789   1.718   0.437   2.273 -0.4241  0.1038  1.5151
  930SOL    HW2 2790   1.787   0.568   2.196 -1.5634  1.4703 -0.4746
  931SOL     OW 2791   2.316   1.038   2.948  0.2570 -0.3498  0.3216
  931SOL    HW1 2792   2.227   1.072   2.988  0.2695 -3.1459 -1.9760
  931SOL    HW2 2793   2.293   1.025   2.849  0.4591  1.4567  1.2706
  932SOL     OW 2794   1.820   0.818   0.467 -0.1013 -0.1124 -0.0612
  932SOL    HW1 2795   1.775   0.733   0.429  0.3998 -1.1871  0.1814
  932SOL    HW2 2796   1.808   0.901   0.411 -0.6662 -0.1209 -0.0387
  933SOL     OW 2797   2.177   0.987   0.789  0.0129  0.1896  0.9965
  933SOL    HW1 2798   2.185   1.035   0.875  0.8749  2.0875 -0.4040
  933SOL    HW2 2799   2.190   1.045   0.707 -0.5883  2.8828  0.9209
  934SOL     OW 2800   2.501   1.046   2.693 -0.0277 -0.3007 -0.2705
  934SOL    HW1 2801   2.593   1.085   2.694  0.4972  0.9992 -0.4611
  934SOL    HW2 2802   2.473   1.005   2.605 -3.0874  2.1170 -1.5059
  935SOL     OW 2803   0.042   1.314   1.066 -0.5742  0.2177 -0.0548
  935SOL    HW1 2804   3.071   1.393   1.023  1.0719  0.4188  1.0609
  935SOL    HW2 2805   0.005   1.313   1.164 -0.5567  1.7174  0.6045
  936SOL     OW 2806   3.048   0.118   0.230  0.1917  0.2482 -0.4758
  936SOL    HW1 2807   0.045   0.137   0.300  0.0901  2.1095  1.7359
  936SOL    HW2 2808   2.995   0.201   0.204  1.5177  1.3863 -2.5018
  937SOL     OW 2809   0.189   2.484   1.703 -0.4828  0.5699 -0.7564
  937SOL    HW1 2810   0.151   2.574   1.737  1.0766  0.4625 -1.7325
  937SOL    HW2 2811   0.123   2.421   1.659  1.0449  2.9083 -0.7063
  938SOL     OW 2812   2.476   2.204   0.115 -0.0864  0.2244  0.0191
  938SOL    HW1 2813   2.551   2.234   0.177 -3.3642  2.6158 -1.5991
  938SOL    HW2 2814   2.398   2.265   0.140  0.1363 -0.4013  1.2209
  939SOL     OW 2815   1.116   0.543   1.451  0.4120  0.1326  0.3407
  939SOL    HW1 2816   1.162   0.555   1.539 -1.7866 -0.6903 -0.8507
  939SOL    HW2 2817   1.055   0.620   1.431  0.0148 -1.0951 -0.2440
  940SOL     OW 2818   2.270   2.782   2.784  0.0929  0.7679  0.0899
  940SOL    HW1 2819   2.193   2.845   2.790  3.6738 -2.6770  2.0897
  940SOL    HW2 2820   2.272   2.728   2.871 -0.8245  0.0705 -2.6756
  941SOL     OW 2821   2.599   2.724   2.177 -0.1081 -0.3490  0.4319
  941SOL    HW1 2822   2.546   2.784   2.108  1.4562  0.1302 -1.1242
  941SOL    HW2 2823   2.565   2.628   2.187  0.0598  1.0485  1.0323
  942SOL     OW 2824   1.554   0.060   1.283 -0.5837 -0.4719 -0.2233
  942SOL    HW1 2825   1.656   0.084   1.282  4.3889 -0.9979  1.9809
  942SOL    HW2 2826   1.499   0.142   1.249 -2.3862  2.8603 -0.3426
  943SOL     OW 2827   1.066   1.438   2.519 -0.3067 -0.0926 -0.0244
  943SOL    HW1 2828   1.090   1.336   2.543 -0.2043 -0.7833  1.2348
  943SOL    HW2 2829   0.991   1.442   2.445 -2.6688 -1.7733 -1.5253
  944SOL     OW 2830   2.914   0.717   1.384 -0.2045  0.3724  0.4176
  944SOL    HW1 2831   2.983   0.745   1.312 -1.9784 -2.3199 -0.9724
  944SOL    HW2 2832   2.835   0.667   1.344 -0.1528 -0.7764 -1.6052
  945SOL     OW 2833   2.890   0.058   2.740 -0.0098  0.1031  0.1633
  945SOL    HW1 2834   2.803   0.076   2.791  2.2587  0.0782  0.3297
  945SOL    HW2 2835   2.967   0.108   2.786  1.0566  0.4603  4.1899
  946SOL     OW 2836   2.933   1.544   1.429  0.2117  0.4498 -0.2555
  946SOL    HW1 2837   3.031   1.577   1.445  2.1083  1.5295 -0.2598
  946SOL    HW2 2838   2.930   1.469   1.356 -1.4607 -0.0021 -1.2345
  947SOL     OW 2839   0.596   0.450   2.941 -0.2534  0.3984  0.3712
  947SOL    HW1 2840   0.653   0.494   2.867  0.7047  0.7982  1.0934
  947SOL    HW2 2841   0.590   0.348   2.922 -0.1309  1.0211  2.0317
  948SOL     OW 2842   2.105   1.496   1.183  0.0184  0.3107  0.0598
  948SOL    HW1 2843   2.120   1.472   1.282  1.0629  1.1226 -0.4256
  948SOL    HW2 2844   2.196   1.520   1.133  1.7092  0.0371 -0.1074
  949SOL     OW 2845   0.284   0.872   2.944 -0.3295  0.1625  0.2869
  949SOL    HW1 2846   0.254   0.805   3.014  1.0490  1.7630 -1.8778
  949SOL    HW2 2847   0.210   0.892   2.880  3.3498 -0.3401  0.4231
  950SOL     OW 2848   0.435   3.003   1.433 -0.1590 -0.4488 -0.4662
  950SOL    HW1 2849   0.383   2.942   1.500  0.4869 -0.1025 -1.5938
  950SOL    HW2 2850   0.500   2.941   1.382 -2.8578 -1.1126 -0.8666
  951SOL     OW 2851   0.787   2.120   2.636 -0.1878 -0.2334 -0.3596
  951SOL    HW1 2852   0.804   2.022   2.644 -2.4004  1.9614 -2.5466
  951SOL    HW2 2853   0.848   2.175   2.696  0.4057 -1.6453 -0.2105
  952SOL     OW 2854   0.682   1.236   0.566  0.0183  0.3127 -0.7421
  952SOL    HW1 2855   0.716   1.139   0.594  2.2185  0.0804 -1.1575
  952SOL    HW2 2856   0.714   1.252   0.469  1.3635 -2.5962  1.7505
  953SOL     OW 2857   2.201   1.632   2.999  0.8695 -0.0377 -0.1316
  953SOL    HW1 2858   2.262   1.629   2.919  1.9467 -1.8088  2.9992
  953SOL    HW2 2859   2.238   1.563   3.067 -1.5334 -0.7877  3.5965
  954SOL     OW 2860   1.397   0.308   0.690  0.2023 -0.1275 -0.3215
  954SOL    HW1 2861   1.463   0.378   0.651 -0.3375  3.6414 -0.1551
  954SOL    HW2 2862   1.444   0.223   0.725  1.0412 -1.1204  1.0263
  955SOL     OW 2863   0.969   1.587   3.041  0.1939 -0.3636 -0.0217
  955SOL    HW1 2864   0.894   1.654   3.035 -1.2128  2.0987  2.3302
  955SOL    HW2 2865   1.045   1.623   0.028  1.3929 -0.0932  3.1153
  956SOL     OW 2866   2.634   0.400   1.958  0.2852  0.1481 -0.7466
  956SOL    HW1 2867   2.657   0.331   1.889  0.4533  1.8462  3.2486
  956SOL    HW2 2868   2.715   0.417   2.014 -0.6169 -1.7284  0.1935
  957SOL     OW 2869   1.823   2.117   2.166  0.5033  0.2288  0.7113
  957SOL    HW1 2870   1.816   2.044   2.089 -0.8953 -0.8568 -2.2753
  957SOL    HW2 2871   1.733   2.145   2.200 -0.1936  0.6746 -1.6219
  958SOL     OW 2872   1.579   1.196   1.302  0.3953  0.1264  1.0682
  958SOL    HW1 2873   1.677   1.190   1.323 -0.9013  0.4825  0.3869
  958SOL    HW2 2874   1.551   1.200   1.203  3.1949  1.8210  2.2676
  959SOL     OW 2875   1.578   2.157   1.944 -0.3056 -0.2008 -0.0488
  959SOL    HW1 2876   1.659   2.096   1.946 -1.7668  0.2675 -0.9801
  959SOL    HW2 2877   1.587   2.249   1.985 -1.0764 -3.1653 -1.6224
  960SOL     OW 2878   0.800   1.327   2.584  0.0625  0.5367  0.4281
  960SOL    HW1 2879   0.817   1.380   2.666 -0.1409 -2.1113 -3.9818
  960SOL    HW2 2880   0.725   1.372   2.531  1.0318  0.7581  0.9739
  961SOL     OW 2881   2.949   1.150   2.899 -0.0856  0.0799 -0.2015
  961SOL    HW1 2882   3.003   1.237   2.882 -2.1281  0.7005 -0.5050
  961SOL    HW2 2883   2.888   1.155   2.982 -2.9068  1.3397 -1.4591
  962SOL     OW 2884   0.989   1.889   0.064 -0.2997  0.2135  0.0203
  962SOL    HW1 2885   1.062   1.921   0.132  0.5059  0.7242  1.6846
  962SOL    HW2 2886   0.993   1.943   3.048  0.3464  2.3602  1.0982
  963SOL     OW 2887   2.751   1.619   0.025 -0.1475 -0.0511 -0.8074
  963SOL    HW1 2888   2.848   1.603   0.004  0.3252 -1.0980 -0.8412
  963SOL    HW2 2889   2.720   1.716   0.037 -0.5474  0.1079 -0.9520
  964SOL     OW 2890   0.744   2.099   2.167 -0.4043 -0.9996  0.0569
  964SOL    HW1 2891   0.779   2.195   2.156 -0.5484  2.3956 -1.2333
  964SOL    HW2 2892   0.811   2.035   2.192 -0.7211 -0.3737 -0.9161
  965SOL     OW 2893   1.580   1.900   1.242 -0.0542 -0.3864  0.1939
  965SOL    HW1 2894   1.683   1.892   1.264  2.0339 -1.4746  0.6071
  965SOL    HW2 2895   1.536   1.813   1.258 -0.6820 -0.4282 -1.0263
  966SOL     OW 2896   2.843   1.529   0.307 -0.3881  0.1515 -0.3438
  966SOL    HW1 2897   2.940   1.495   0.292 -2.6610  0.2349 -1.3953
  966SOL    HW2 2898   2.791   1.550   0.220 -2.4844  2.5643 -1.4210
  967SOL     OW 2899   1.745   2.722   2.398  0.0247 -0.0068 -0.0996
  967SOL    HW1 2900   1.776   2.819   2.379  2.2758  0.9509 -1.0665
  967SOL    HW2 2901   1.734   2.676   2.307  0.6114  0.8016  0.2506
  968SOL     OW 2902   1.543   1.331   2.851  0.1125 -0.2769 -0.5111
  968SOL    HW1 2903   1.641   1.335   2.826 -1.5864 -0.2043  0.7736
  968SOL    HW2 2904   1.522   1.410   2.912 -0.3460  2.3943 -3.0976
  969SOL     OW 2905   0.254   1.022   2.322  0.7169 -0.8313 -0.6292
  969SOL    HW1 2906   0.190   1.010   2.244 -0.5435 -1.0032 -0.5723
  969SOL    HW2 2907   0.350   0.987   2.309 -0.6978  0.3576  1.1971
  970SOL     OW 2908   2.646   3.052   0.214 -0.2390  0.0470 -0.0823
  970SOL    HW1 2909   2.680   0.030   0.129  1.2017  2.9723 -1.5992
  970SOL    HW2 2910   2.672   2.953   0.218  0.8442 -2.0337 -0.9427
  971SOL     OW 2911   2.080   1.995   0.791 -0.6567 -0.1116  0.0734
  971SOL    HW1 2912   2.097   2.081   0.840  0.0204 -3.7880 -1.8813
  971SOL    HW2 2913   2.147   1.921   0.811 -0.9639  1.8637  0.9406
  972SOL     OW 2914   0.216   1.771   2.616 -0.3947  0.3948 -0.1334
  972SOL    HW1 2915   0.255   1.701   2.554  1.0486  0.7588 -0.0254
  972SOL    HW2 2916   0.273   1.773   2.703  0.1612  0.7513  0.4986
  973SOL     OW 2917   0.763   0.385   0.414 -0.0506  0.0122  0.3202
  973SOL    HW1 2918   0.706   0.322   0.358  3.0402 -2.1929 -2.0617
  973SOL    HW2 2919   0.769   0.477   0.373 -0.8601 -1.3481 -0.4929
  974SOL     OW 2920   2.203   0.802   1.528 -0.2188  0.0966  0.2863
  974SOL    HW1 2921   2.280   0.832   1.472 -3.2928 -1.1903 -0.3888
  974SOL    HW2 2922   2.245   0.750   1.602 -0.6241 -0.8480 -1.5509
  975SOL     OW 2923   0.354   0.104   0.715 -0.5279  0.1068 -0.7445
  975SOL    HW1 2924   0.350   0.004   0.688 -1.2863  0.6537 -1.5106
  975SOL    HW2 2925   0.448   0.136   0.709 -0.7600  1.1708  1.1100
  976SOL     OW 2926   0.631   1.506   1.457 -0.4779  0.4351  0.0124
  976SOL    HW1 2927   0.569   1.425   1.438 -0.8453 -1.9156  2.0341
  976SOL    HW2 2928   0.620   1.575   1.386  0.4731  1.9553  1.1151
  977SOL     OW 2929   1.366   2.074   0.222 -0.2326  0.0730 -0.5527
  977SOL    HW1 2930   1.433   2.005   0.258  0.7446 -1.7543  1.2101
  977SOL    HW2 2931   1.416   2.164   0.219 -1.7995 -0.0006  0.2909
  978SOL     OW 2932   0.245   0.921   0.173  0.1709  0.4280  0.1091
  978SOL    HW1 2933   0.144   0.916   0.170 -0.9221 -1.8857  0.7745
  978SOL    HW2 2934   0.286   1.003   0.224  0.2061 -0.0670 -1.8493
  979SOL     OW 2935   2.005   1.237   0.176  0.5078 -0.1090 -0.0739
  979SOL    HW1 2936   2.006   1.336   0.201 -0.4278  0.1270 -2.5844
  979SOL    HW2 2937   2.020   1.177   0.261 -0.7744  1.0777 -0.0822
  980SOL     OW 2938   0.712   1.791   1.792 -0.0322 -0.2896 -0.6547
  980SOL    HW1 2939   0.691   1.695   1.808 -1.0938  1.9317 -0.3849
  980SOL    HW2 2940   0.683   1.849   1.870 -1.4505  0.1807 -0.6011
  981SOL     OW 2941   2.380   1.375   2.473  0.1406 -0.0394 -0.7753
  981SOL    HW1 2942   2.473   1.411   2.447  1.3241 -1.2505 -1.5266
  981SOL    HW2 2943   2.385   1.356   2.571 -0.6526  0.5935  2.3814
  982SOL     OW 2944   0.333   2.075   1.682 -0.1021 -0.6142 -0.1849
  982SOL    HW1 2945   0.363   2.150   1.621  0.3708 -1.5066  1.1267
  982SOL    HW2 2946   0.363   2.084   1.778  1.2479  2.0520 -0.7125
  983SOL     OW 2947   1.626   0.080   1.844  0.3635 -0.4116  0.1609
  983SOL    HW1 2948   1.563   0.004   1.813  1.0030  2.7667  0.6892
  983SOL    HW2 2949   1.566   0.161   1.861 -0.0370 -1.3445  0.9365
  984SOL     OW 2950   0.011   0.112   2.901  0.2003  0.3007  0.2926
  984SOL    HW1 2951   0.029   0.200   2.954 -0.3029 -0.1367  1.2396
  984SOL    HW2 2952   3.059   0.046   2.971 -0.9606  2.1326 -1.1053
  985SOL     OW 2953   1.490   1.366   1.962 -0.1459  0.2320 -0.2563
  985SOL    HW1 2954   1.505   1.327   1.868 -1.7132  1.6506  1.9684
  985SOL    HW2 2955   1.417   1.322   2.015  1.2226 -0.1223 -1.9973
  986SOL     OW 2956   1.795   0.466   2.924  0.1452  0.0710  0.0269
  986SOL    HW1 2957   1.876   0.423   2.973  0.1524 -0.0176  0.2931
  986SOL    HW2 2958   1.796   0.444   2.823 -3.2437  1.8709  0.2997
  987SOL     OW 2959   0.129   2.019   2.526 -0.2222 -0.3339 -0.3675
  987SOL    HW1 2960   0.193   2.077   2.579  0.6886 -1.4058 -1.5580
  987SOL    HW2 2961   0.130   1.926   2.573 -0.2719 -1.9716 -1.6171
  988SOL     OW 2962   2.872   0.202   1.444  0.3540  0.0329  0.5880
  988SOL    HW1 2963   2.947   0.143   1.480 -1.6973  0.0634 -0.1506
  988SOL    HW2 2964   2.830   0.156   1.363 -0.3450  1.4106  2.4593
  989SOL     OW 2965   1.980   0.125   1.057  0.3400  0.4637  0.0317
  989SOL    HW1 2966   1.959   0.052   0.990  0.7302 -1.0063 -0.4108
  989SOL    HW2 2967   2.080   0.153   1.054  1.1298 -0.4319  0.4286
  990SOL     OW 2968   2.484   0.853   0.282 -0.3000 -0.2347  0.1164
  990SOL    HW1 2969   2.488   0.864   0.176  1.0976  2.3160 -2.6754
  990SOL    HW2 2970   2.558   0.914   0.319 -0.2313 -0.4518  0.6969
  991SOL     OW 2971   0.236   1.081   0.622  0.2485 -0.4352  0.1848
  991SOL    HW1 2972   0.146   1.134   0.628 -0.8378  1.0282  0.2135
  991SOL    HW2 2973   0.314   1.123   0.672  1.9160  3.7254  0.7097
  992SOL     OW 2974   1.798   1.492   1.880  0.0470  0.8258  0.1554
  992SOL    HW1 2975   1.796   1.527   1.980  2.0114  0.4404 -0.5279
  992SOL    HW2 2976   1.819   1.391   1.871  0.2022 -1.2114 -1.1306
  993SOL     OW 2977   0.347   2.117   0.838 -0.1888 -0.1269  0.1890
  993SOL    HW1 2978   0.423   2.055   0.804 -0.9416  1.7727 -0.1048
  993SOL    HW2 2979   0.279   2.132   0.762 -0.8418 -2.1576 -0.1293
  994SOL     OW 2980   2.987   1.835   1.577 -0.2438  0.8607  0.4157
  994SOL    HW1 2981   2.926   1.818   1.656 -1.7444  0.3916  1.6187
  994SOL    HW2 2982   3.040   1.756   1.540  1.3482  0.2190 -1.4837
  995SOL     OW 2983   2.014   1.526   2.841 -0.3095  0.3538 -0.0912
  995SOL    HW1 2984   2.010   1.584   2.757  2.2539  0.4573 -2.1827
  995SOL    HW2 2985   2.086   1.565   2.902  1.5953  0.6416 -2.4091
  996SOL     OW 2986   1.801   2.464   0.348  0.0486  0.1523  0.0980
  996SOL    HW1 2987   1.832   2.412   0.269  0.3189 -1.2584  0.3754
  996SOL    HW2 2988   1.839   2.421   0.435  1.7587 -1.0627 -0.1088
  997SOL     OW 2989   1.458   1.627   1.937  0.0283  0.0769  0.2650
  997SOL    HW1 2990   1.358   1.635   1.920  3.9164  0.6327  2.1665
  997SOL    HW2 2991   1.481   1.527   1.946 -3.3247 -1.8593 -0.8529
  998SOL     OW 2992   0.020   2.245   0.599 -0.1651  0.5299 -0.5796
  998SOL    HW1 2993   0.031   2.265   0.497  0.7604 -1.0058 -2.5551
  998SOL    HW2 2994   0.104   2.264   0.649 -3.6155  0.1376  0.5875
  999SOL     OW 2995   0.737   0.010   0.088 -0.2093  0.1429 -0.0977
  999SOL    HW1 2996   0.670   3.020   0.044  1.5192 -0.4038  0.4585
  999SOL    HW2 2997   0.776   0.075   0.023  2.2744 -2.9036 -0.7166
 1000SOL     OW 2998   1.289   0.197   3.017  0.3561 -0.3044 -0.0438
 1000SOL    HW1 2999   1.336   0.286   3.005 -1.4624  0.6129 -0.0235
 1000SOL    HW2 3000   1.326   0.124   2.954  2.1838 -0.3045  2.6865
   3.07252   3.07252   3.07252
