1000 SPC/Fw water molecules t= 205.00000 step= 205000
 3000
    1SOL     OW    1   2.976   2.958   0.909  0.1553  0.3224  0.2532
    1SOL    HW1    2   2.875   2.956   0.912  0.1682 -0.2032  3.3092
    1SOL    HW2    3   3.008   3.013   0.827 -1.3672  0.4500 -0.9206
    2SOL     OW    4   1.981   1.563   2.161 -0.6070 -0.1967  0.1856
    2SOL    HW1    5   1.984   1.636   2.233  2.0785 -0.6893 -1.1931
    2SOL    HW2    6   1.948   1.480   2.207 -1.6445 -1.1169  1.0476
    3SOL     OW    7   2.085   2.580   2.286  0.2616  0.2503 -0.4969
    3SOL    HW1    8   2.113   2.608   2.194 -0.8431  0.5958 -1.0601
    3SOL    HW2    9   2.042   2.487   2.287 -2.4249 -1.1884  0.0963
    4SOL     OW   10   1.977   1.784   2.325 -0.1099 -0.1696  0.1806
    4SOL    HW1   11   2.042   1.860   2.294  1.2956  1.0654  0.8787
    4SOL    HW2   12   2.003   1.749   2.417 -1.4922  0.4806  2.4944
    5SOL     OW   13   1.413   0.610   1.725 -0.0338  0.2462 -0.2353
    5SOL    HW1   14   1.334   0.629   1.662 -1.1121 -0.4970 -0.5560
    5SOL    HW2   15   1.472   0.526   1.704  0.5883  0.7467  0.5874
    6SOL     OW   16   2.733   0.764   2.943  0.2468  0.0282 -0.1208
    6SOL    HW1   17   2.713   0.718   2.858  1.7402  1.2596 -1.8884
    6SOL    HW2   18   2.717   0.697   3.016  0.6870  1.1796 -0.0002
    7SOL     OW   19   0.705   1.255   1.315 -0.1085 -0.6480 -0.4012
    7SOL    HW1   20   0.759   1.343   1.325  0.3265  1.2402  0.3555
    7SOL    HW2   21   0.625   1.279   1.257  1.1205  2.5100 -0.5295
    8SOL     OW   22   1.354   0.439   0.866 -0.1696 -0.0714  0.1265
    8SOL    HW1   23   1.252   0.442   0.884 -2.2199  0.8407  0.9441
    8SOL    HW2   24   1.407   0.387   0.934  0.5454 -0.8017 -0.6300
    9SOL     OW   25   1.005   0.679   2.687  0.3457 -0.0279 -0.1354
    9SOL    HW1   26   1.074   0.624   2.743  0.4170  2.3353  0.3185
    9SOL    HW2   27   1.041   0.707   2.594  2.2263  0.8145 -1.2056
   10SOL     OW   28   0.056   2.523   0.263  0.4522  0.3615  0.0973
   10SOL    HW1   29   0.089   2.425   0.258  0.5856  0.3468  1.3068
   10SOL    HW2   30   0.087   2.584   0.188 -0.0708  0.8711  0.4708
   11SOL     OW   31   0.624   1.260   0.035  0.0167 -0.0158  0.1897
   11SOL    HW1   32   0.587   1.216   3.040 -0.4056 -2.0233 -0.5391
   11SOL    HW2   33   0.568   1.346   0.062 -2.3663  0.5381 -0.5422
   12SOL     OW   34   0.459   0.344   1.415 -0.4062  0.2872  0.2944
   12SOL    HW1   35   0.425   0.264   1.359  0.2939  0.0043  1.6341
   12SOL    HW2   36   0.503   0.304   1.498 -0.8250  2.3408 -1.5846
   13SOL     OW   37   0.950   0.138   0.417  0.5283 -0.2942  0.6648
   13SOL    HW1   38   1.031   0.097   0.371 -1.2837  1.2337  1.1884
   13SOL    HW2   39   0.883   0.060   0.433  0.0761 -0.5878 -2.7115
   14SOL     OW   40   1.233   2.278   1.282  0.6637  0.0968 -0.2730
   14SOL    HW1   41   1.137   2.293   1.247 -0.0030  0.2061  0.4926
   14SOL    HW2   42   1.239   2.298   1.379 -0.0037  0.0863  1.9867
   15SOL     OW   43   2.523   0.737   1.954 -0.0076 -0.1314  0.0441
   15SOL    HW1   44   2.591   0.685   2.008 -0.2408  0.1029  1.1528
   15SOL    HW2   45   2.535   0.732   1.855 -3.7147  3.8873 -0.0606
   16SOL     OW   46   1.312   2.809   0.104  0.2216 -0.1399 -0.1233
   16SOL    HW1   47   1.274   2.789   0.194  2.1833 -0.0736 -0.9108
   16SOL    HW2   48   1.364   2.732   0.075 -2.0434  2.0504 -1.1842
   17SOL     OW   49   0.865   0.128   1.343 -0.1959  0.1965 -0.2483
   17SOL    HW1   50   0.806   0.089   1.419  0.8970  0.4054 -4.7368
   17SOL    HW2   51   0.871   0.228   1.357 -3.5119 -2.2721 -0.6006
   18SOL     OW   52   1.036   0.780   0.145 -0.7206 -0.1040  0.6691
   18SOL    HW1   53   0.996   0.858   0.202 -0.8513  0.2692 -2.6819
   18SOL    HW2   54   1.139   0.796   0.126  1.3347  0.4911 -0.0344
   19SOL     OW   55   2.108   1.621   0.057  0.0605 -0.1526  0.2231
   19SOL    HW1   56   2.090   1.675   3.061  0.0387  2.3611  1.2911
   19SOL    HW2   57   2.050   1.663   0.126  0.2861 -0.4235 -1.6520
   20SOL     OW   58   1.871   1.647   1.598  0.0686 -0.4693  0.6210
   20SOL    HW1   59   1.927   1.590   1.661 -1.2862 -0.5578 -1.3360
   20SOL    HW2   60   1.781   1.605   1.573  1.0300  0.9499  0.2180
   21SOL     OW   61   0.709   1.273   0.306  0.0667 -0.2303  0.3055
   21SOL    HW1   62   0.806   1.308   0.299 -0.0115 -0.6436 -0.4818
   21SOL    HW2   63   0.669   1.274   0.216 -0.5746  1.4249  0.7083
   22SOL     OW   64   2.366   3.064   1.200  0.3429  0.1711 -0.2241
   22SOL    HW1   65   2.275   0.026   1.201 -0.5888  0.6074  0.0172
   22SOL    HW2   66   2.352   2.965   1.209  1.7670  1.8357 -1.2875
   23SOL     OW   67   3.083   0.762   1.724  0.1321  0.3751 -0.2922
   23SOL    HW1   68   0.064   0.688   1.728  0.6644  0.9515  0.4938
   23SOL    HW2   69   3.080   0.818   1.638  0.7509  2.6369  3.3062
   24SOL     OW   70   2.127   2.425   1.176  0.0006 -0.1996  0.2191
   24SOL    HW1   71   2.187   2.495   1.132  0.0280  0.4850  0.3397
   24SOL    HW2   72   2.041   2.407   1.117 -2.4718 -0.6270 -0.6145
   25SOL     OW   73   1.930   2.904   2.742  0.5263  0.1042 -0.2047
   25SOL    HW1   74   1.851   2.936   2.793 -1.2011  0.4047 -1.1428
   25SOL    HW2   75   1.907   2.893   2.645 -0.1817  1.0726  1.5685
   26SOL     OW   76   1.453   2.537   0.050 -0.0133 -0.1716 -0.0946
   26SOL    HW1   77   1.502   2.462   0.101  2.5139 -1.1484 -0.3103
   26SOL    HW2   78   1.353   2.540   0.058  0.6901 -0.1485 -0.2807
   27SOL     OW   79   0.498   1.797   2.461  0.3107 -0.0833  0.0355
   27SOL    HW1   80   0.395   1.804   2.463  0.4150  0.4830  0.7905
   27SOL    HW2   81   0.528   1.709   2.416 -0.3189 -0.7194  0.7966
   28SOL     OW   82   0.068   1.196   1.585 -0.4643  0.1082 -0.1830
   28SOL    HW1   83   0.049   1.284   1.536 -1.3426 -0.2140  2.7683
   28SOL    HW2   84   0.170   1.179   1.581  1.5533  0.8999 -0.3711
   29SOL     OW   85   2.599   2.122   2.069 -0.1666 -0.1953 -0.5670
   29SOL    HW1   86   2.672   2.100   2.138 -2.5282 -2.1002 -0.3664
   29SOL    HW2   87   2.638   2.164   1.986 -0.6164 -3.5194  2.0983
   30SOL     OW   88   1.486   2.994   0.332 -0.1309  0.0681  0.3584
   30SOL    HW1   89   1.438   3.000   0.243  1.1715 -0.4457 -0.7997
   30SOL    HW2   90   1.477   3.076   0.393  1.4050  0.1138  0.0352
   31SOL     OW   91   2.580   2.582   1.795  0.3718  0.3048  0.0441
   31SOL    HW1   92   2.515   2.657   1.825 -0.6670 -0.2925  0.6068
   31SOL    HW2   93   2.632   2.551   1.876 -0.9522  3.2898  1.1069
   32SOL     OW   94   1.230   1.007   1.641  0.2424  0.2491 -0.4165
   32SOL    HW1   95   1.221   1.106   1.607 -0.2882 -0.8519  0.6423
   32SOL    HW2   96   1.153   0.953   1.601  0.8018  1.4480  1.5128
   33SOL     OW   97   3.048   2.654   2.597  0.2664  0.0542  0.6346
   33SOL    HW1   98   3.060   2.687   2.502  0.8953  0.7792 -2.2322
   33SOL    HW2   99   3.008   2.724   2.662 -0.8995  2.0926 -1.0041
   34SOL     OW  100   2.014   0.259   0.887  0.0246 -0.6514 -0.5883
   34SOL    HW1  101   2.081   0.258   0.812 -2.4910  0.7932  1.8790
   34SOL    HW2  102   1.995   0.167   0.921 -0.7587  1.7029 -0.8854
   35SOL     OW  103   2.350   0.134   0.681 -0.3407  0.5825 -0.6324
   35SOL    HW1  104   2.350   0.031   0.690 -1.2121 -1.1683  0.6083
   35SOL    HW2  105   2.365   0.161   0.585 -2.8108 -1.3588  2.0102
   36SOL     OW  106   1.929   2.833   2.455 -0.4604  0.1328  0.3319
   36SOL    HW1  107   2.028   2.816   2.438 -1.7981 -1.6203 -3.7877
   36SOL    HW2  108   1.868   2.779   2.392  1.7084 -0.5510 -1.6421
   37SOL     OW  109   1.106   2.432   2.463 -0.3043 -0.4445  0.1623
   37SOL    HW1  110   1.052   2.457   2.548 -1.4560 -0.4209  0.6371
   37SOL    HW2  111   1.191   2.490   2.447 -0.0184  0.3323 -1.9824
   38SOL     OW  112   2.653   0.389   2.840  0.6916  0.6888  0.5837
   38SOL    HW1  113   2.569   0.364   2.895 -3.4200  1.5074 -0.1803
   38SOL    HW2  114   2.739   0.349   2.875 -0.7148 -0.8522  0.8201
   39SOL     OW  115   2.276   1.562   1.746  0.2248 -0.2465 -0.3445
   39SOL    HW1  116   2.256   1.659   1.715  0.9464  1.5847 -0.0538
   39SOL    HW2  117   2.309   1.505   1.676  0.2962  2.4921  1.8249
   40SOL     OW  118   0.311   2.911   2.608  0.2257 -0.2534 -0.0987
   40SOL    HW1  119   0.323   3.010   2.605 -0.8630  0.1876 -1.8186
   40SOL    HW2  120   0.232   2.880   2.661 -1.4985  0.6332 -0.2629
   41SOL     OW  121   1.821   0.433   0.755 -0.8752 -0.6144  0.3031
   41SOL    HW1  122   1.832   0.526   0.800 -0.7013 -1.0982  0.8201
   41SOL    HW2  123   1.891   0.364   0.785  0.2649 -2.2580  0.3380
   42SOL     OW  124   0.633   0.567   1.372 -0.0304  0.3102 -0.3193
   42SOL    HW1  125   0.559   0.494   1.368 -0.0012 -0.9428 -0.9831
   42SOL    HW2  126   0.622   0.635   1.451  2.2707  2.5549 -1.8960
   43SOL     OW  127   2.681   1.299   2.090  0.3444  0.3493  0.2529
   43SOL    HW1  128   2.611   1.328   2.021  2.1462  1.3478  0.8907
   43SOL    HW2  129   2.692   1.198   2.083  0.1682 -1.7780  0.3244
   44SOL     OW  130   2.856   2.833   0.450  0.3866 -0.0895 -0.2866
   44SOL    HW1  131   2.813   2.930   0.455 -1.5537 -1.0496  0.7416
   44SOL    HW2  132   2.959   2.838   0.461  2.2978  1.4943 -1.1162
   45SOL     OW  133   2.891   2.412   1.890 -0.2484  0.7209  0.0849
   45SOL    HW1  134   2.927   2.509   1.883 -0.4493  0.6804  2.9334
   45SOL    HW2  135   2.958   2.350   1.842  0.1245 -2.1158  2.9719
   46SOL     OW  136   2.194   2.269   2.213 -0.4452 -0.3215 -0.3598
   46SOL    HW1  137   2.099   2.284   2.241  3.8633 -0.2141 -2.5814
   46SOL    HW2  138   2.261   2.274   2.290  0.5143  0.0601 -0.0621
   47SOL     OW  139   1.785   2.088   1.583 -0.1595 -0.2871 -0.1587
   47SOL    HW1  140   1.774   2.000   1.633 -2.0484  0.5032  2.1082
   47SOL    HW2  141   1.734   2.093   1.492  0.5436  0.7302 -1.1409
   48SOL     OW  142   0.702   1.689   0.488 -0.0985 -0.0715  0.0337
   48SOL    HW1  143   0.666   1.692   0.393  1.6964 -1.1580  0.1619
   48SOL    HW2  144   0.801   1.687   0.488 -0.5443 -0.7297  0.9492
   49SOL     OW  145   2.601   0.310   2.560 -0.3758  0.5919 -0.1891
   49SOL    HW1  146   2.615   0.320   2.660  0.1768  1.2093  0.0937
   49SOL    HW2  147   2.575   0.395   2.516  0.1495 -2.4962 -0.3024
   50SOL     OW  148   2.287   0.886   0.457 -0.2400  0.6574  0.0938
   50SOL    HW1  149   2.367   0.821   0.465 -0.1336  2.4870 -1.1400
   50SOL    HW2  150   2.271   0.903   0.356 -1.0589 -1.0299  0.2908
   51SOL     OW  151   2.013   0.731   1.040 -0.1961  0.5361  0.0355
   51SOL    HW1  152   1.997   0.645   0.992  0.8840  0.0654  4.2112
   51SOL    HW2  153   2.073   0.720   1.123  1.7190 -0.0975  0.9706
   52SOL     OW  154   1.028   1.336   0.013  0.2520  0.1122  0.4628
   52SOL    HW1  155   1.002   1.262   0.081 -0.6801 -0.9928  0.3119
   52SOL    HW2  156   1.090   1.405   0.057  2.6271 -1.9729 -0.8525
   53SOL     OW  157   0.908   1.541   2.139  0.1269  0.2726 -0.3414
   53SOL    HW1  158   0.926   1.633   2.182 -0.2041 -0.3640  2.1685
   53SOL    HW2  159   0.812   1.523   2.129  2.3580 -2.0168  1.5990
   54SOL     OW  160   2.248   0.285   1.176 -0.0363  0.1542  0.0541
   54SOL    HW1  161   2.189   0.205   1.198  3.9806 -2.4449 -1.2471
   54SOL    HW2  162   2.308   0.262   1.096 -1.2363 -1.1793 -2.2102
   55SOL     OW  163   2.546   2.871   0.574 -0.0619 -0.1456 -0.3459
   55SOL    HW1  164   2.585   2.809   0.505 -2.8199  0.6175  0.8410
   55SOL    HW2  165   2.608   2.953   0.576  2.6882  0.8509  0.3179
   56SOL     OW  166   0.990   2.812   1.465 -0.0142 -0.1069  0.1350
   56SOL    HW1  167   0.964   2.753   1.385  1.2210 -0.2907  0.5243
   56SOL    HW2  168   1.077   2.866   1.448 -0.3413  0.9782  1.5297
   57SOL     OW  169   1.537   1.360   0.407 -0.0393  0.2426  0.1975
   57SOL    HW1  170   1.498   1.298   0.477  0.7806 -0.1082 -1.0329
   57SOL    HW2  171   1.590   1.436   0.454 -1.0494 -0.7279 -1.2305
   58SOL     OW  172   2.999   0.482   2.380  0.2805  0.1291 -0.3218
   58SOL    HW1  173   2.957   0.571   2.358 -2.0701 -1.5597  1.4971
   58SOL    HW2  174   2.931   0.400   2.373 -1.1009  0.2629  1.3654
   59SOL     OW  175   1.011   2.749   2.756  0.4589 -0.2638  0.5177
   59SOL    HW1  176   1.063   2.782   2.838  0.0630  1.1236  1.3383
   59SOL    HW2  177   0.995   2.650   2.754  2.9853  0.0765  0.1984
   60SOL     OW  178   2.216   2.680   0.608 -0.3145  0.4184 -0.3954
   60SOL    HW1  179   2.300   2.621   0.619 -0.1953  1.5473  3.0236
   60SOL    HW2  180   2.219   2.742   0.528  0.4367 -0.3171  1.1356
   61SOL     OW  181   1.079   2.336   0.752  0.1458 -0.1272 -0.1974
   61SOL    HW1  182   1.107   2.322   0.654 -0.2642 -1.5733  1.0037
   61SOL    HW2  183   1.129   2.411   0.796  0.3782 -3.0142  0.8359
   62SOL     OW  184   2.388   2.147   2.762  0.0870 -0.5583 -0.2014
   62SOL    HW1  185   2.346   2.064   2.801 -0.3093  1.2906 -1.2135
   62SOL    HW2  186   2.436   2.207   2.826 -2.3559 -0.9445 -0.0840
   63SOL     OW  187   2.425   0.779   2.598  0.0208 -0.4092  0.4508
   63SOL    HW1  188   2.511   0.807   2.554 -0.5941  3.9155 -1.6336
   63SOL    HW2  189   2.369   0.750   2.519  1.9524 -1.5258 -1.8923
   64SOL     OW  190   1.157   0.542   2.851  0.1959  0.5996 -0.5425
   64SOL    HW1  191   1.088   0.558   2.925 -0.4404  1.4482  1.8510
   64SOL    HW2  192   1.257   0.546   2.880  2.3193  0.1189 -0.6533
   65SOL     OW  193   1.030   1.874   0.563  0.1185 -0.1314 -0.6645
   65SOL    HW1  194   1.011   1.779   0.535  0.1272 -0.4581 -1.0790
   65SOL    HW2  195   1.108   1.908   0.510 -1.5011 -3.2579  1.8354
   66SOL     OW  196   0.273   1.067   1.868 -0.1606  0.1639 -0.3847
   66SOL    HW1  197   0.312   1.156   1.905  2.7039  3.2219  0.0929
   66SOL    HW2  198   0.345   1.017   1.811  0.0853  0.6756  0.9459
   67SOL     OW  199   2.323   3.008   2.552  0.6074 -0.3996  0.1832
   67SOL    HW1  200   2.379   3.087   2.522 -0.9583 -1.3170 -1.6862
   67SOL    HW2  201   2.318   2.929   2.487 -0.3235 -3.1565 -1.3884
   68SOL     OW  202   0.686   1.865   1.278  0.2593 -0.7375  0.1587
   68SOL    HW1  203   0.699   1.919   1.191  1.3362  0.2947 -0.5235
   68SOL    HW2  204   0.612   1.798   1.267  1.7614  2.2815 -3.1377
   69SOL     OW  205   1.187   2.572   0.381  0.2978 -0.6110  0.4657
   69SOL    HW1  206   1.106   2.622   0.414  2.8642 -1.7010  1.1636
   69SOL    HW2  207   1.273   2.611   0.407 -2.6909 -2.0087 -2.5169
   70SOL     OW  208   2.930   1.149   2.888  0.0538  0.1409  0.0214
   70SOL    HW1  209   3.001   1.151   2.964 -1.5950 -0.0085  0.5806
   70SOL    HW2  210   2.967   1.129   2.795  0.2658  0.3622 -2.7682
   71SOL     OW  211   2.780   1.411   2.817 -0.3528 -0.0500  0.4370
   71SOL    HW1  212   2.837   1.328   2.844  1.7051  0.6829 -2.7401
   71SOL    HW2  213   2.751   1.409   2.720 -0.3483 -2.2105 -2.6823
   72SOL     OW  214   2.842   2.225   0.416 -0.0833 -0.6925 -0.3213
   72SOL    HW1  215   2.756   2.191   0.457 -1.7596  2.4743 -0.2406
   72SOL    HW2  216   2.899   2.152   0.375 -0.0308  3.1875  0.8485
   73SOL     OW  217   0.978   1.348   0.315 -0.4091 -0.1237  0.4589
   73SOL    HW1  218   1.055   1.328   0.380 -2.8734 -0.2747  0.7487
   73SOL    HW2  219   1.011   1.421   0.254  2.6802 -0.9622  4.1050
   74SOL     OW  220   3.050   0.646   2.936  0.2458 -0.7829  0.5009
   74SOL    HW1  221   2.984   0.594   2.996 -0.3436 -1.8295  2.0991
   74SOL    HW2  222   3.034   0.624   2.840  0.3054 -2.3070 -1.8693
   75SOL     OW  223   2.031   1.499   1.906 -0.2433  0.1793  0.3283
   75SOL    HW1  224   2.117   1.536   1.866  1.7133 -0.9695  1.7050
   75SOL    HW2  225   2.019   1.538   2.000 -0.6205  0.1425  1.2566
   76SOL     OW  226   2.157   2.797   1.505  0.2542  1.0452  0.0484
   76SOL    HW1  227   2.240   2.744   1.525  0.5953  1.6050  1.0777
   76SOL    HW2  228   2.070   2.753   1.544 -1.0365 -3.5843  2.0342
   77SOL     OW  229   2.682   0.294   1.204 -0.1023 -0.1079  0.0119
   77SOL    HW1  230   2.784   0.295   1.187  2.1655  0.5170 -0.2914
   77SOL    HW2  231   2.639   0.209   1.166  0.3204  2.6956  2.5739
   78SOL     OW  232   1.277   0.828   0.033 -0.3373  0.1841 -0.0691
   78SOL    HW1  233   1.361   0.824   3.066 -0.7952 -2.9680  1.3752
   78SOL    HW2  234   1.207   0.883   3.076  2.1681 -1.0781  0.2751
   79SOL     OW  235   0.578   1.802   1.860 -0.3569  0.2312  0.0666
   79SOL    HW1  236   0.579   1.899   1.824  0.5148 -2.1809  0.1870
   79SOL    HW2  237   0.670   1.765   1.840  2.6883 -1.2959  0.9268
   80SOL     OW  238   1.576   0.989   1.101  0.0028 -0.0140 -0.1667
   80SOL    HW1  239   1.603   0.973   1.200  1.8646  0.0632 -2.3490
   80SOL    HW2  240   1.518   0.916   1.062  1.4508  1.4229  1.7698
   81SOL     OW  241   0.478   0.180   1.058  0.2771 -0.1765 -0.4572
   81SOL    HW1  242   0.408   0.137   0.995  2.0293 -1.3213  0.3395
   81SOL    HW2  243   0.575   0.176   1.020  1.1236 -1.9248 -0.0519
   82SOL     OW  244   1.732   2.791   1.746 -0.4487 -0.1306  0.1388
   82SOL    HW1  245   1.636   2.750   1.748 -1.0696  0.5337  0.3971
   82SOL    HW2  246   1.761   2.786   1.838 -3.7896 -3.9660 -4.0662
   83SOL     OW  247   0.657   2.840   1.249 -0.0659 -0.2957 -0.1180
   83SOL    HW1  248   0.606   2.787   1.176 -0.5277 -0.3842 -2.4516
   83SOL    HW2  249   0.737   2.783   1.273 -0.8620  3.9643 -0.2828
   84SOL     OW  250   0.476   1.228   2.654 -0.1948 -0.0223  0.8256
   84SOL    HW1  251   0.413   1.304   2.633  1.3161 -2.4592  0.9104
   84SOL    HW2  252   0.570   1.239   2.616 -0.8136 -1.4404 -1.7443
   85SOL     OW  253   0.145   2.168   1.462 -0.3515  0.0767  0.2620
   85SOL    HW1  254   0.176   2.248   1.510 -2.6801 -3.0372  1.8495
   85SOL    HW2  255   0.161   2.197   1.364 -1.9900  3.3558  1.4695
   86SOL     OW  256   2.744   2.634   1.587  0.0783  0.1692 -0.1817
   86SOL    HW1  257   2.786   2.547   1.555  1.4721  0.5915  0.0437
   86SOL    HW2  258   2.683   2.618   1.669  1.6339 -2.2803  0.5467
   87SOL     OW  259   2.580   2.229   3.053 -0.2219  0.3257 -0.1151
   87SOL    HW1  260   2.602   2.323   3.023 -0.5461  1.0996 -1.6383
   87SOL    HW2  261   2.661   2.170   3.078 -3.0763  0.9148  1.2879
   88SOL     OW  262   0.439   1.769   1.240 -0.9435  0.0638 -0.0587
   88SOL    HW1  263   0.418   1.750   1.334  0.2943 -0.3264 -2.9321
   88SOL    HW2  264   0.399   1.696   1.178 -0.9497 -0.9704 -2.2795
   89SOL     OW  265   0.934   3.039   1.739 -0.1800 -0.2500  0.1827
   89SOL    HW1  266   1.000   0.011   1.685 -0.3836  2.2774 -2.5210
   89SOL    HW2  267   0.988   2.981   1.803 -1.4281  1.4157  1.2316
   90SOL     OW  268   0.119   1.825   1.755 -0.4049 -0.0558 -0.3538
   90SOL    HW1  269   0.031   1.780   1.753  0.6355  1.7072 -0.9376
   90SOL    HW2  270   0.112   1.916   1.795  2.1362 -3.2271  1.0217
   91SOL     OW  271   0.946   1.545   0.788 -0.4316  0.0236 -0.2635
   91SOL    HW1  272   0.887   1.533   0.707 -0.1641 -0.0634  3.3912
   91SOL    HW2  273   0.994   1.632   0.787 -2.1286 -0.5580 -0.6449
   92SOL     OW  274   2.604   0.052   1.096  0.3504 -0.1015 -0.1753
   92SOL    HW1  275   2.526   0.024   1.147  3.9449  3.3513 -0.0299
   92SOL    HW2  276   2.605   0.004   1.007  0.6129 -0.4650 -0.6007
   93SOL     OW  277   2.591   1.590   0.061  0.0840 -0.1855 -0.0371
   93SOL    HW1  278   2.603   1.512   0.128 -3.4905 -1.6087  1.6166
   93SOL    HW2  279   2.561   1.560   3.054 -1.9587 -1.9140 -0.9810
   94SOL     OW  280   2.610   2.405   2.627  0.3280  0.5099  0.1390
   94SOL    HW1  281   2.701   2.359   2.617 -1.0573  1.3251 -0.8484
   94SOL    HW2  282   2.589   2.425   2.724 -1.5649  0.6554  0.0083
   95SOL     OW  283   1.719   0.553   1.505 -0.0883 -0.1498  0.8585
   95SOL    HW1  284   1.752   0.604   1.589 -1.4261  0.9967 -2.8087
   95SOL    HW2  285   1.795   0.499   1.457 -0.2347 -0.9660  0.8265
   96SOL     OW  286   2.964   2.799   1.632 -0.0814 -0.1069  0.3758
   96SOL    HW1  287   2.870   2.763   1.620 -2.7772  0.1645 -0.7475
   96SOL    HW2  288   2.969   2.901   1.622  2.0979 -0.3960 -0.5136
   97SOL     OW  289   2.410   0.097   1.440 -0.2640  0.2772 -0.0132
   97SOL    HW1  290   2.422   0.035   1.359  2.6769  2.3052  1.3652
   97SOL    HW2  291   2.389   0.193   1.412  0.4609 -3.0074  1.2547
   98SOL     OW  292   1.510   2.221   1.512  0.4257  0.0612 -0.1783
   98SOL    HW1  293   1.566   2.281   1.455 -2.1595 -0.6774 -0.1700
   98SOL    HW2  294   1.533   2.129   1.477 -1.0764 -0.2854 -1.8729
   99SOL     OW  295   0.125   2.698   1.689 -0.2494 -0.1269  0.1727
   99SOL    HW1  296   0.200   2.741   1.633 -0.5884  1.3237 -1.0157
   99SOL    HW2  297   0.037   2.735   1.665  0.8078  1.0599 -0.5381
  100SOL     OW  298   0.077   1.035   2.424  0.0463  0.1481  0.2447
  100SOL    HW1  299   0.082   0.996   2.330  0.2872  1.9260  1.4439
  100SOL    HW2  300   0.161   1.094   2.446  2.4680  1.8715  0.1519
  101SOL     OW  301   2.006   0.636   0.125 -0.0871  0.1257  0.3253
  101SOL    HW1  302   1.919   0.612   0.072 -0.1866  0.9931 -2.4900
  101SOL    HW2  303   1.993   0.716   0.187 -0.5171 -0.7750 -0.9058
  102SOL     OW  304   0.299   0.553   1.074  0.8365  0.0922 -0.0217
  102SOL    HW1  305   0.393   0.531   1.046 -3.6421  0.4758 -0.0897
  102SOL    HW2  306   0.257   0.628   1.018 -0.1427  0.6479 -2.5219
  103SOL     OW  307   2.608   0.694   2.336  0.1931 -0.1379  0.2190
  103SOL    HW1  308   2.564   0.768   2.280 -0.2828 -0.7451 -1.7236
  103SOL    HW2  309   2.670   0.741   2.399  0.7016 -0.5064  1.7826
  104SOL     OW  310   0.360   0.110   2.625  0.4731 -0.0699 -0.2379
  104SOL    HW1  311   0.450   0.126   2.578 -1.2917 -0.9731  0.0412
  104SOL    HW2  312   0.352   0.157   2.718  0.5657  0.5630  2.1826
  105SOL     OW  313   2.064   1.130   1.525  0.3799  0.1014 -0.1657
  105SOL    HW1  314   2.038   1.033   1.500 -2.3433 -1.9326  1.1792
  105SOL    HW2  315   1.980   1.194   1.521  0.1451  2.1998  0.5505
  106SOL     OW  316   1.102   2.895   0.379  0.2350 -0.0375 -0.0944
  106SOL    HW1  317   1.097   2.881   0.478 -3.7827 -0.7254  0.0174
  106SOL    HW2  318   1.032   2.835   0.335  0.8713  0.9626 -0.3862
  107SOL     OW  319   0.427   1.674   1.493 -0.1724 -0.2121 -0.0325
  107SOL    HW1  320   0.364   1.652   1.567  1.7060  0.2590 -0.7951
  107SOL    HW2  321   0.523   1.662   1.524 -0.5095  1.1551  2.5369
  108SOL     OW  322   0.236   3.068   2.252 -0.2514  0.1102  0.0677
  108SOL    HW1  323   0.291   2.978   2.266  0.6799 -1.4734  0.2873
  108SOL    HW2  324   0.270   0.025   2.168  0.6217 -0.3274 -0.6315
  109SOL     OW  325   2.091   0.328   0.012 -0.2693  0.5071  0.4491
  109SOL    HW1  326   1.996   0.312   0.042  1.0410  1.4731 -0.9410
  109SOL    HW2  327   2.095   0.315   3.000 -0.3907 -4.1776 -0.2376
  110SOL     OW  328   0.408   2.457   2.530 -0.1205 -0.0516 -0.3311
  110SOL    HW1  329   0.468   2.512   2.475 -4.3900 -1.0750  1.0718
  110SOL    HW2  330   0.452   2.419   2.613  0.0844  0.5653 -2.8677
  111SOL     OW  331   1.441   2.703   2.196 -0.0092 -0.1819 -0.1992
  111SOL    HW1  332   1.354   2.752   2.190  2.3556 -0.9584 -1.3419
  111SOL    HW2  333   1.513   2.772   2.226 -2.0425  0.5248  0.4576
  112SOL     OW  334   1.908   2.109   2.492  0.1630  0.2030  0.4911
  112SOL    HW1  335   1.986   2.063   2.540  0.2495  0.3331 -2.8241
  112SOL    HW2  336   1.847   2.036   2.455 -0.2101 -1.8262  0.0167
  113SOL     OW  337   2.212   2.680   1.968 -0.3788  0.0240 -0.0983
  113SOL    HW1  338   2.253   2.595   2.004 -1.4063 -1.2061 -1.3965
  113SOL    HW2  339   2.119   2.651   1.941  1.2507 -0.7935 -0.5394
  114SOL     OW  340   2.928   0.964   0.831 -0.1259  0.1973  0.2415
  114SOL    HW1  341   2.978   1.037   0.884  0.6323  1.0566  2.7897
  114SOL    HW2  342   2.900   0.998   0.739  0.9235  0.9418  3.8544
  115SOL     OW  343   0.218   1.703   2.751 -0.0455 -0.2534 -0.2169
  115SOL    HW1  344   0.251   1.788   2.803  0.5042  0.5506 -1.5472
  115SOL    HW2  345   0.128   1.714   2.702 -2.2522  0.8841  0.1333
  116SOL     OW  346   0.371   1.310   1.982 -0.0221 -0.2603 -0.6773
  116SOL    HW1  347   0.426   1.326   1.898 -1.4774 -0.0034 -1.5246
  116SOL    HW2  348   0.286   1.373   1.990 -0.3356 -0.6344  2.4573
  117SOL     OW  349   2.724   3.075   0.526 -0.7985 -0.4121 -0.1254
  117SOL    HW1  350   2.763   0.034   0.611  1.6623  1.3263 -1.0761
  117SOL    HW2  351   2.715   0.056   0.455 -1.3965 -1.4895  0.4190
  118SOL     OW  352   1.273   1.758   1.839  0.0456  0.5955  0.6990
  118SOL    HW1  353   1.217   1.687   1.875  0.6162  0.8766 -1.3675
  118SOL    HW2  354   1.269   1.835   1.907 -2.6883  1.2241 -0.5429
  119SOL     OW  355   1.121   2.103   0.284  0.0630 -0.1835 -0.0049
  119SOL    HW1  356   1.188   2.039   0.325 -1.7277 -1.1470 -3.2402
  119SOL    HW2  357   1.110   2.185   0.343  0.6526  0.7019  2.3790
  120SOL     OW  358   0.249   1.248   2.388 -0.0615  0.1427 -0.2879
  120SOL    HW1  359   0.221   1.342   2.371 -0.1937  1.1913  1.4250
  120SOL    HW2  360   0.349   1.241   2.371  0.2033 -0.4119 -2.3909
  121SOL     OW  361   2.187   2.694   1.066 -0.0795 -0.2311 -0.0257
  121SOL    HW1  362   2.170   2.732   0.973 -1.6239 -2.2028  0.2381
  121SOL    HW2  363   2.281   2.725   1.095 -0.2433 -1.0661  0.7339
  122SOL     OW  364   2.225   2.037   1.857  0.1847  0.1217  0.1695
  122SOL    HW1  365   2.278   2.067   1.937 -2.6648 -1.6056 -1.6396
  122SOL    HW2  366   2.190   2.121   1.813  0.4630  2.0061 -1.4820
  123SOL     OW  367   3.047   3.071   0.617 -0.4641 -0.1635 -0.3115
  123SOL    HW1  368   3.007   0.047   0.546 -0.3391 -1.7562  0.8373
  123SOL    HW2  369   3.066   2.979   0.579  0.8946 -0.8425 -1.5982
  124SOL     OW  370   1.754   0.766   2.358  0.2691  0.6545 -0.2581
  124SOL    HW1  371   1.661   0.761   2.318 -0.5912 -0.7575  0.1015
  124SOL    HW2  372   1.831   0.754   2.297  1.2130 -0.4137 -1.8545
  125SOL     OW  373   0.333   1.310   0.498  0.2035  0.0065 -0.4965
  125SOL    HW1  374   0.424   1.341   0.464  0.2534  1.8065 -4.7530
  125SOL    HW2  375   0.332   1.315   0.603 -2.9454  0.6831  2.6278
  126SOL     OW  376   2.414   1.678   0.513 -0.1899 -0.3586  0.1275
  126SOL    HW1  377   2.490   1.628   0.464  0.7755  2.3222  0.1761
  126SOL    HW2  378   2.387   1.639   0.602 -1.0448  1.1014 -1.1566
  127SOL     OW  379   0.195   1.908   1.483 -0.3079  0.1421 -0.0496
  127SOL    HW1  380   0.152   1.879   1.574  0.5145  0.4751  3.1381
  127SOL    HW2  381   0.195   2.011   1.486 -2.3103 -2.1155 -0.4500
  128SOL     OW  382   0.749   0.597   2.622 -0.2688 -0.4785 -0.4611
  128SOL    HW1  383   0.712   0.507   2.600 -0.7022  1.1716 -1.8527
  128SOL    HW2  384   0.851   0.593   2.635  3.1527 -1.9538  3.4829
  129SOL     OW  385   2.353   1.256   1.164 -0.0592 -0.1200  0.0218
  129SOL    HW1  386   2.344   1.167   1.114 -1.3914 -1.3496 -2.3853
  129SOL    HW2  387   2.297   1.272   1.251  0.1390 -1.6834  1.8957
  130SOL     OW  388   2.408   1.476   1.519 -0.3111  0.0087 -0.1707
  130SOL    HW1  389   2.485   1.410   1.532 -0.3879  0.4824  3.5295
  130SOL    HW2  390   2.437   1.572   1.506 -0.2127  0.2893 -0.3042
  131SOL     OW  391   2.691   1.039   2.939  0.1598 -0.2465  0.1080
  131SOL    HW1  392   2.774   1.097   2.950  2.0395  0.2849  0.3623
  131SOL    HW2  393   2.709   0.938   2.929  0.1042  1.6277  2.2213
  132SOL     OW  394   2.333   2.478   2.083 -0.2702 -0.1010  0.2389
  132SOL    HW1  395   2.288   2.394   2.119  1.7296  1.4495  1.2697
  132SOL    HW2  396   2.425   2.490   2.127  3.3715 -1.7288  0.5822
  133SOL     OW  397   0.562   1.056   0.791 -0.1359  0.5441  0.2927
  133SOL    HW1  398   0.561   1.147   0.834  0.7135  0.5989 -0.1718
  133SOL    HW2  399   0.573   0.986   0.866  0.5482  0.6568 -1.3343
  134SOL     OW  400   0.269   1.297   0.080 -0.3225  0.4264 -0.2846
  134SOL    HW1  401   0.174   1.301   0.112 -1.4379 -0.4550 -0.2529
  134SOL    HW2  402   0.271   1.309   3.068 -1.1051 -0.0059 -1.8987
  135SOL     OW  403   2.091   1.525   1.246 -0.5601  0.0939 -0.8252
  135SOL    HW1  404   2.140   1.456   1.299 -2.1138  0.4357 -2.0170
  135SOL    HW2  405   2.005   1.486   1.207 -2.3775 -1.4473  1.3233
  136SOL     OW  406   2.367   0.992   0.681 -0.5227  0.2303 -0.7583
  136SOL    HW1  407   2.342   0.949   0.593 -1.2846 -1.6238 -0.1038
  136SOL    HW2  408   2.284   1.044   0.723 -0.5375  2.4386  1.5806
  137SOL     OW  409   2.665   1.705   0.934  0.1300  0.4784  0.4115
  137SOL    HW1  410   2.565   1.702   0.916  0.2784 -0.6325 -0.4282
  137SOL    HW2  411   2.678   1.781   0.998  2.2793 -2.0836  2.5984
  138SOL     OW  412   1.807   0.641   1.748 -0.6023  0.2645  0.0984
  138SOL    HW1  413   1.770   0.655   1.844 -1.6392 -1.7779  2.4565
  138SOL    HW2  414   1.900   0.598   1.753  1.5549 -1.9624 -1.9854
  139SOL     OW  415   2.305   2.829   2.761  0.0798 -0.2783  0.2998
  139SOL    HW1  416   2.230   2.864   2.824 -0.5482  2.4618  4.8959
  139SOL    HW2  417   2.321   2.892   2.684 -0.7657 -0.7110  1.5651
  140SOL     OW  418   1.623   1.716   2.142 -0.0191 -0.4106  0.5571
  140SOL    HW1  419   1.526   1.711   2.166  2.7877 -0.5628  0.8679
  140SOL    HW2  420   1.666   1.673   2.222 -0.3805  2.3296  2.0262
  141SOL     OW  421   1.824   1.854   1.204  0.8307  0.0864  0.2327
  141SOL    HW1  422   1.918   1.841   1.233 -0.2559  0.3721 -1.3049
  141SOL    HW2  423   1.768   1.777   1.239  1.7796  2.3280 -0.8788
  142SOL     OW  424   0.020   0.442   0.218 -0.0478  0.9197 -0.5148
  142SOL    HW1  425   3.045   0.444   0.143  1.4703 -0.4836  2.6640
  142SOL    HW2  426   3.065   0.495   0.291  2.6678  1.4391 -2.8641
  143SOL     OW  427   0.223   2.071   2.732  0.0480 -0.2625  0.1771
  143SOL    HW1  428   0.265   2.042   2.819  0.1307 -2.1565  0.5658
  143SOL    HW2  429   0.291   2.119   2.673 -1.0823 -1.5207  0.4531
  144SOL     OW  430   1.148   2.955   1.905 -0.4158  0.0326  0.4647
  144SOL    HW1  431   1.218   2.952   1.832  2.0464 -1.3664  0.0145
  144SOL    HW2  432   1.155   2.864   1.957 -0.1440 -0.5645  0.4258
  145SOL     OW  433   2.169   1.432   0.454 -0.1399 -0.2071 -0.2509
  145SOL    HW1  434   2.168   1.463   0.359  1.6088 -1.2573  1.8437
  145SOL    HW2  435   2.254   1.377   0.467  0.1091  0.4484  1.2430
  146SOL     OW  436   2.651   3.050   2.928 -0.4131 -0.0867 -0.2066
  146SOL    HW1  437   2.650   2.992   2.840 -2.1334 -0.4228 -0.0169
  146SOL    HW2  438   2.744   3.047   2.971  2.7803  0.6994  0.6453
  147SOL     OW  439   2.976   2.437   1.040  0.5500  0.3500  0.4974
  147SOL    HW1  440   2.906   2.468   1.105  0.4394 -0.8112 -0.2769
  147SOL    HW2  441   2.923   2.418   0.952 -1.3542  2.2755 -1.5928
  148SOL     OW  442   1.756   3.037   2.909  0.5926  0.2242 -0.3121
  148SOL    HW1  443   1.758   3.049   3.009 -0.2450 -1.1823  0.0340
  148SOL    HW2  444   1.676   2.978   2.886  1.8629 -0.8674 -2.7618
  149SOL     OW  445   1.186   0.354   2.380  0.4016 -0.2954  0.6368
  149SOL    HW1  446   1.236   0.372   2.466  1.3227 -1.5391  0.6341
  149SOL    HW2  447   1.096   0.316   2.409  1.5174 -0.2391  0.9953
  150SOL     OW  448   0.913   2.576   0.490  0.4215 -0.1283  0.2614
  150SOL    HW1  449   0.890   2.482   0.504  1.8059  0.7710 -2.2046
  150SOL    HW2  450   0.880   2.640   0.564 -2.1993 -0.3394  1.5085
  151SOL     OW  451   2.868   1.968   0.119  0.6573 -0.1343 -0.0984
  151SOL    HW1  452   2.827   1.910   0.045  1.5828 -0.3282  2.0857
  151SOL    HW2  453   2.956   2.003   0.083 -1.1609 -0.3091 -0.5511
  152SOL     OW  454   0.177   1.265   0.884 -0.0681 -0.7553 -0.0445
  152SOL    HW1  455   0.172   1.172   0.851  2.2693  3.1872 -1.2768
  152SOL    HW2  456   0.227   1.329   0.820  1.4717  0.2241  0.7078
  153SOL     OW  457   2.197   2.852   0.407  0.2257 -0.4211 -0.3791
  153SOL    HW1  458   2.223   2.951   0.392  0.1915 -0.3150 -1.5507
  153SOL    HW2  459   2.119   2.822   0.349 -2.1374  2.9254 -0.7646
  154SOL     OW  460   0.730   0.414   1.777  0.5608 -0.8487  0.6699
  154SOL    HW1  461   0.820   0.456   1.786  2.4098 -0.4596 -0.9789
  154SOL    HW2  462   0.683   0.401   1.867  0.2628 -1.9580  4.6112
  155SOL     OW  463   3.075   1.981   1.158 -0.1057 -0.7331 -0.4335
  155SOL    HW1  464   0.053   1.904   1.171  1.5952 -0.4610  0.7062
  155SOL    HW2  465   2.983   1.952   1.196 -2.9371  1.4282  2.6990
  156SOL     OW  466   1.974   2.124   0.105 -0.1951 -0.1177 -0.3955
  156SOL    HW1  467   2.061   2.066   0.122  3.8346 -0.1637 -0.4703
  156SOL    HW2  468   1.997   2.203   0.044  0.4683  0.2881 -1.4739
  157SOL     OW  469   1.052   2.725   0.980  0.1539 -0.2473  0.1818
  157SOL    HW1  470   0.966   2.665   0.982 -0.5084 -1.9342 -0.9111
  157SOL    HW2  471   1.039   2.828   0.975 -2.0858  0.9400  0.9104
  158SOL     OW  472   2.464   0.503   2.442  0.1742  0.6830 -0.3144
  158SOL    HW1  473   2.373   0.549   2.439 -1.5733  3.3752  3.9254
  158SOL    HW2  474   2.532   0.576   2.415 -0.0445  1.0445  0.9738
  159SOL     OW  475   0.597   0.289   2.876 -0.0523 -0.1056 -0.2172
  159SOL    HW1  476   0.643   0.379   2.885 -0.4451  0.8092  0.9748
  159SOL    HW2  477   0.502   0.294   2.903  0.4166 -1.6306 -0.0950
  160SOL     OW  478   0.759   2.141   0.167  0.3443  0.3245  0.4214
  160SOL    HW1  479   0.737   2.191   0.083 -1.2902  1.7374  4.0537
  160SOL    HW2  480   0.829   2.069   0.148 -0.9516 -1.1279 -0.4194
  161SOL     OW  481   3.030   2.086   2.823 -0.1086 -0.2477  0.0264
  161SOL    HW1  482   0.025   2.106   2.766 -0.0691  1.2920 -1.1858
  161SOL    HW2  483   3.012   2.164   2.881  1.1623 -0.1185  0.1577
  162SOL     OW  484   0.557   2.746   1.019  0.0494  0.1633 -0.2628
  162SOL    HW1  485   0.480   2.677   1.004 -1.3129 -0.6270 -0.6532
  162SOL    HW2  486   0.547   2.818   0.944 -2.2119  0.0193  0.0808
  163SOL     OW  487   2.390   0.563   2.821  0.0369 -0.4392  0.2658
  163SOL    HW1  488   2.417   0.625   2.745 -0.4242 -0.1197 -0.1238
  163SOL    HW2  489   2.307   0.502   2.800 -1.9878 -1.4944 -1.3449
  164SOL     OW  490   2.902   2.176   0.769 -0.2863  0.1767 -0.1414
  164SOL    HW1  491   2.978   2.148   0.834  5.7726 -1.0630  1.6334
  164SOL    HW2  492   2.834   2.243   0.815  0.1644  4.5643  1.7447
  165SOL     OW  493   2.943   3.075   1.562 -0.6894 -0.3680  0.0891
  165SOL    HW1  494   3.045   3.078   1.557 -1.6258 -1.0181 -0.2723
  165SOL    HW2  495   2.898   0.002   1.472 -2.2928  1.9338  0.3545
  166SOL     OW  496   2.187   0.357   0.706 -0.0010  0.1145 -0.1446
  166SOL    HW1  497   2.214   0.451   0.725 -4.9921 -2.2619 -1.1883
  166SOL    HW2  498   2.262   0.293   0.696  0.0112 -1.9075 -1.1783
  167SOL     OW  499   0.525   0.462   0.955 -0.1006 -0.0297  0.1493
  167SOL    HW1  500   0.612   0.502   0.989  0.8227 -0.6334  2.7618
  167SOL    HW2  501   0.519   0.366   0.980 -3.0201  3.6027 -0.4936
  168SOL     OW  502   2.237   2.897   2.156  0.4447  0.5366  0.1967
  168SOL    HW1  503   2.253   2.857   2.247  0.1558  1.1754 -1.8120
  168SOL    HW2  504   2.223   2.835   2.079 -2.7624  0.4554  0.8295
  169SOL     OW  505   0.080   1.488   0.635  0.0650  0.0661 -0.4796
  169SOL    HW1  506   0.121   1.480   0.540 -0.6592 -1.4480 -0.2348
  169SOL    HW2  507   0.150   1.529   0.695 -1.5650  0.4517 -0.0423
  170SOL     OW  508   2.733   0.834   1.156 -0.1713 -0.1764  0.1402
  170SOL    HW1  509   2.783   0.754   1.118  0.9535 -0.8098 -0.8297
  170SOL    HW2  510   2.662   0.807   1.220  1.8462  2.3131  2.7243
  171SOL     OW  511   1.266   2.464   1.730  0.1699 -0.7358 -0.1946
  171SOL    HW1  512   1.222   2.394   1.674 -0.4601  1.2233  1.3037
  171SOL    HW2  513   1.334   2.515   1.671  0.1909  2.1046  1.3596
  172SOL     OW  514   0.421   2.483   1.272  0.0450 -0.1881  0.5684
  172SOL    HW1  515   0.520   2.500   1.280 -0.7358 -0.6018  0.5702
  172SOL    HW2  516   0.375   2.554   1.217  3.3748 -0.2641 -0.8518
  173SOL     OW  517   1.405   0.149   0.187 -0.6358 -0.1232  0.1202
  173SOL    HW1  518   1.445   0.175   0.100 -0.4739 -1.7744  0.6375
  173SOL    HW2  519   1.438   0.204   0.271  3.0104  0.5389 -0.1449
  174SOL     OW  520   1.196   2.334   2.933  0.2587  0.6331  0.2947
  174SOL    HW1  521   1.232   2.278   3.015  2.5090  0.6000  2.3535
  174SOL    HW2  522   1.093   2.349   2.937 -0.8708 -0.5773 -1.6849
  175SOL     OW  523   1.710   0.005   0.078 -0.5890  0.2435  0.0675
  175SOL    HW1  524   1.737   3.079   0.173 -0.6532  0.4138 -0.2097
  175SOL    HW2  525   1.619   3.051   0.058  0.4387 -3.0594 -1.1066
  176SOL     OW  526   1.476   0.341   3.079  0.1662 -0.0730 -0.7477
  176SOL    HW1  527   1.399   0.395   0.024  2.3116 -0.9506  0.1985
  176SOL    HW2  528   1.467   0.311   2.982 -0.3824 -2.3185 -0.9509
  177SOL     OW  529   0.852   1.346   0.954 -0.2005 -0.1496 -0.2247
  177SOL    HW1  530   0.926   1.324   1.016 -0.6790  2.0284 -0.9618
  177SOL    HW2  531   0.872   1.429   0.900  0.3455 -0.0968 -1.7603
  178SOL     OW  532   2.662   1.684   2.192  0.4957 -0.1972  0.1575
  178SOL    HW1  533   2.750   1.648   2.153 -1.1796 -1.3865  0.0425
  178SOL    HW2  534   2.638   1.634   2.275  0.9738  3.4389 -0.5132
  179SOL     OW  535   0.581   2.533   2.766  0.5492 -0.5313 -0.3834
  179SOL    HW1  536   0.559   2.629   2.786  0.8376 -0.9882 -0.1871
  179SOL    HW2  537   0.653   2.528   2.691  0.6502  1.9474 -0.1419
  180SOL     OW  538   1.790   1.833   1.933 -0.0505 -0.0937 -0.2401
  180SOL    HW1  539   1.892   1.841   1.955  2.3322 -1.6295  2.1183
  180SOL    HW2  540   1.747   1.795   2.015  1.2844 -1.5007  0.1022
  181SOL     OW  541   1.097   1.131   2.370  0.3795 -0.2843  0.2414
  181SOL    HW1  542   1.137   1.145   2.463 -2.9756 -1.8130 -0.5643
  181SOL    HW2  543   1.073   1.225   2.332  1.0134 -2.8614 -0.5713
  182SOL     OW  544   0.030   0.342   2.678 -0.0477  0.2124 -0.0527
  182SOL    HW1  545   0.021   0.278   2.598  0.4872  0.0492  0.1870
  182SOL    HW2  546   0.125   0.347   2.720 -1.0891  0.0627  0.8349
  183SOL     OW  547   1.168   0.300   2.738 -0.2463 -0.1685  0.5334
  183SOL    HW1  548   1.155   0.394   2.786  1.5302 -0.2525 -0.0728
  183SOL    HW2  549   1.245   0.314   2.671  1.1990 -0.1468 -0.0394
  184SOL     OW  550   1.042   1.119   1.392  0.4366  0.7123 -0.1082
  184SOL    HW1  551   1.127   1.130   1.336  1.4658  0.1363 -0.4128
  184SOL    HW2  552   0.990   1.032   1.373 -0.1878 -0.2353 -2.7352
  185SOL     OW  553   2.912   1.218   1.221  0.1747 -0.2469 -0.0700
  185SOL    HW1  554   2.986   1.286   1.238 -1.3544  1.9641  1.4561
  185SOL    HW2  555   2.827   1.242   1.275 -2.2883 -0.2457  1.9437
  186SOL     OW  556   0.601   1.525   2.649 -0.5675 -0.4660  0.1959
  186SOL    HW1  557   0.642   1.552   2.560 -1.4841 -2.5802  0.8425
  186SOL    HW2  558   0.505   1.500   2.641  0.2940 -0.0683  0.9580
  187SOL     OW  559   2.646   1.521   0.402  0.0085  0.0778  0.0305
  187SOL    HW1  560   2.668   1.455   0.326 -1.6171 -0.6313  0.8720
  187SOL    HW2  561   2.728   1.574   0.427  3.2414 -1.1939 -0.3153
  188SOL     OW  562   0.188   2.330   0.719 -0.2554  0.2765  0.3485
  188SOL    HW1  563   0.229   2.240   0.750  2.1027  1.3792 -1.6948
  188SOL    HW2  564   0.118   2.309   0.649 -0.9577 -0.8859  2.2628
  189SOL     OW  565   2.608   1.109   0.093  0.3722 -0.3052  0.5788
  189SOL    HW1  566   2.612   1.080   3.082 -0.8728 -1.3881 -0.5629
  189SOL    HW2  567   2.617   1.028   0.155  0.0240  2.5334 -0.2645
  190SOL     OW  568   1.083   1.403   2.352  0.2757  0.0901  0.0628
  190SOL    HW1  569   1.177   1.421   2.318 -4.0375 -0.6522 -0.2527
  190SOL    HW2  570   1.012   1.430   2.287 -1.2682  0.2452  0.2564
  191SOL     OW  571   2.322   0.365   1.801 -0.6049 -0.0877 -0.3593
  191SOL    HW1  572   2.396   0.383   1.735  0.1501  2.3091 -0.8512
  191SOL    HW2  573   2.282   0.272   1.796 -0.1563  0.4027 -1.1498
  192SOL     OW  574   2.070   0.325   1.568 -0.0283 -0.2713  0.2249
  192SOL    HW1  575   2.049   0.225   1.556 -3.4065  2.2447  1.2716
  192SOL    HW2  576   2.044   0.360   1.660 -1.5150  0.1465 -1.1336
  193SOL     OW  577   0.755   0.455   0.610  0.0229  0.0329  0.1921
  193SOL    HW1  578   0.759   0.484   0.708  1.1752 -1.2355 -2.0660
  193SOL    HW2  579   0.814   0.516   0.548 -0.5013 -1.3922  0.5641
  194SOL     OW  580   1.267   2.911   1.103 -0.5646 -0.0707  0.7060
  194SOL    HW1  581   1.255   2.946   1.196 -1.2427 -0.6844 -0.9231
  194SOL    HW2  582   1.186   2.939   1.042 -2.7405 -0.5345 -2.3696
  195SOL     OW  583   2.500   0.708   0.521  0.2700  0.5167 -0.0687
  195SOL    HW1  584   2.586   0.709   0.463 -1.6314  0.6931 -2.8377
  195SOL    HW2  585   2.534   0.688   0.615  1.8050  3.3612  0.5186
  196SOL     OW  586   1.446   1.590   1.721  0.4743  0.5153  0.3430
  196SOL    HW1  587   1.490   1.560   1.809 -0.8721  2.7654  0.4206
  196SOL    HW2  588   1.377   1.662   1.736 -1.2882 -1.7047 -0.1490
  197SOL     OW  589   0.040   2.873   0.450  0.4980  0.0817  0.2299
  197SOL    HW1  590   0.114   2.930   0.408 -0.3094  0.6192 -1.1449
  197SOL    HW2  591   0.070   2.781   0.476 -1.8131 -0.2226 -0.0246
  198SOL     OW  592   0.943   1.207   0.743 -0.0698  0.4302  0.4394
  198SOL    HW1  593   0.887   1.265   0.803  0.0928 -1.9371 -3.0089
  198SOL    HW2  594   0.890   1.142   0.684  2.2917  1.6891 -1.9260
  199SOL     OW  595   2.824   0.674   1.787  0.6377 -0.1030  0.3488
  199SOL    HW1  596   2.800   0.664   1.887 -0.4948 -1.6079 -0.1763
  199SOL    HW2  597   2.923   0.704   1.774  0.1787 -0.6043 -1.6529
  200SOL     OW  598   2.096   1.984   2.654  0.5068  0.4131 -0.2554
  200SOL    HW1  599   2.174   1.944   2.606 -1.5115  2.2649  1.9253
  200SOL    HW2  600   2.107   1.977   2.759 -0.2993 -1.3652  2.0481
  201SOL     OW  601   2.350   2.953   0.716 -0.0320 -0.7986  0.6604
  201SOL    HW1  602   2.411   2.908   0.644  1.4622 -1.4039 -2.3193
  201SOL    HW2  603   2.296   2.892   0.773  0.4203 -0.2096 -1.3471
  202SOL     OW  604   2.720   0.860   0.163 -0.1337 -0.0831 -0.5412
  202SOL    HW1  605   2.672   0.774   0.133 -3.0314 -3.0019  0.3153
  202SOL    HW2  606   2.806   0.879   0.116  0.0952 -1.2070  1.5651
  203SOL     OW  607   1.365   1.491   2.287 -0.0561  0.7733 -0.1006
  203SOL    HW1  608   1.363   1.444   2.194 -0.7435 -0.9233 -2.2293
  203SOL    HW2  609   1.392   1.417   2.358 -0.8925 -2.9345  1.8652
  204SOL     OW  610   0.869   1.776   2.254  0.1119 -0.4999 -0.4032
  204SOL    HW1  611   0.826   1.850   2.197  2.7114 -0.1086 -1.8283
  204SOL    HW2  612   0.962   1.806   2.285  3.8903  0.8806 -0.2125
  205SOL     OW  613   1.451   1.900   1.539  0.3169  0.1796  0.3971
  205SOL    HW1  614   1.384   1.947   1.596 -0.3412 -3.0006 -1.7271
  205SOL    HW2  615   1.534   1.881   1.595 -2.7615  2.2049  3.0999
  206SOL     OW  616   3.003   0.580   2.671  0.3597 -0.1424 -0.1124
  206SOL    HW1  617   3.046   0.489   2.647  0.7015 -4.2253 -2.2223
  206SOL    HW2  618   3.047   0.661   2.631  1.3331  0.4007 -0.1680
  207SOL     OW  619   1.672   2.650   2.453  0.1005 -0.6449 -0.1943
  207SOL    HW1  620   1.659   2.624   2.552  1.0166  1.2213  0.2630
  207SOL    HW2  621   1.656   2.569   2.394  0.4259  0.8406  1.9644
  208SOL     OW  622   0.451   2.248   1.632 -0.6602 -0.6102 -0.3926
  208SOL    HW1  623   0.459   2.173   1.563  1.2054 -0.0806  0.1574
  208SOL    HW2  624   0.448   2.339   1.588 -0.4036  0.8615  2.1023
  209SOL     OW  625   1.652   0.796   2.745  0.3023 -0.5598  0.1929
  209SOL    HW1  626   1.652   0.891   2.711 -0.4570 -0.6858  1.3602
  209SOL    HW2  627   1.645   0.726   2.670 -0.2822 -1.6695 -0.4508
  210SOL     OW  628   2.650   0.713   0.768  0.2809 -0.1450  0.0814
  210SOL    HW1  629   2.595   0.637   0.807 -3.0722 -1.4230 -2.6264
  210SOL    HW2  630   2.636   0.798   0.818  1.8084  3.1566 -0.1816
  211SOL     OW  631   0.823   0.574   0.839 -0.4723 -0.3106 -0.0739
  211SOL    HW1  632   0.830   0.678   0.832 -0.9057 -1.2555  0.0415
  211SOL    HW2  633   0.793   0.542   0.930  2.8372 -1.0826  0.1718
  212SOL     OW  634   1.223   1.494   0.454 -0.2616 -0.8633 -0.2374
  212SOL    HW1  635   1.222   1.416   0.519 -0.5661  0.8710  2.9374
  212SOL    HW2  636   1.291   1.490   0.380  2.0209 -0.7065 -0.8812
  213SOL     OW  637   1.432   2.973   1.850 -0.1598  0.3907 -0.0406
  213SOL    HW1  638   1.408   3.050   1.786  0.7203  0.5506  2.3603
  213SOL    HW2  639   1.506   3.006   1.918  1.5109  2.2756 -0.0595
  214SOL     OW  640   1.448   1.305   2.474  0.2777 -0.2280  0.6297
  214SOL    HW1  641   1.401   1.237   2.539 -3.1948 -0.2156  1.3691
  214SOL    HW2  642   1.505   1.375   2.521  2.3452  1.2104 -3.1746
  215SOL     OW  643   0.317   1.589   1.079  0.1185 -0.2018 -0.2589
  215SOL    HW1  644   0.255   1.542   1.143 -2.1724  0.5560  3.7768
  215SOL    HW2  645   0.256   1.629   1.005 -1.9782  1.8508 -0.5244
  216SOL     OW  646   0.579   2.850   2.251  0.0815  0.0447  0.5021
  216SOL    HW1  647   0.610   2.864   2.154  1.7556  0.3292 -0.3355
  216SOL    HW2  648   0.645   2.889   2.317 -0.9868 -1.3432 -0.6189
  217SOL     OW  649   2.281   0.928   0.190  0.1194 -0.0774 -0.4314
  217SOL    HW1  650   2.307   0.868   0.109  0.2452 -1.1316 -0.3219
  217SOL    HW2  651   2.295   1.025   0.172  1.5177 -0.4482 -0.5228
  218SOL     OW  652   2.235   1.869   2.232 -0.3709  0.4626 -0.0822
  218SOL    HW1  653   2.269   1.770   2.235  1.2503  0.4375  2.5920
  218SOL    HW2  654   2.292   1.930   2.171  0.6782 -0.3306  0.2479
  219SOL     OW  655   1.659   1.130   0.237 -0.2101  0.0063  0.4268
  219SOL    HW1  656   1.589   1.194   0.280 -0.2297  0.5130 -0.4154
  219SOL    HW2  657   1.757   1.157   0.260  1.0650  1.4777 -1.4083
  220SOL     OW  658   1.429   1.797   1.147  0.2119 -0.0357 -0.1963
  220SOL    HW1  659   1.405   1.879   1.202 -1.0892  1.1383  0.0296
  220SOL    HW2  660   1.454   1.827   1.055 -3.5807 -3.6129  2.3107
  221SOL     OW  661   0.210   0.537   2.944 -0.1687  0.2026 -0.1362
  221SOL    HW1  662   0.129   0.599   2.930  1.3558 -0.3510  0.2070
  221SOL    HW2  663   0.263   0.575   3.020 -2.2209  1.7018  0.4990
  222SOL     OW  664   1.219   2.262   1.559  0.2925 -0.1025  0.2324
  222SOL    HW1  665   1.160   2.175   1.555 -0.3177  0.0697  1.9144
  222SOL    HW2  666   1.315   2.246   1.586 -1.8972  2.5093  0.4853
  223SOL     OW  667   1.374   2.489   2.724 -0.4926  0.6480  0.2727
  223SOL    HW1  668   1.427   2.534   2.799 -0.0208 -0.3158 -3.4910
  223SOL    HW2  669   1.299   2.426   2.753  0.4020  1.5249 -0.2048
  224SOL     OW  670   2.731   1.314   0.966 -0.0583  0.2258 -0.9199
  224SOL    HW1  671   2.733   1.223   1.004  0.1939  0.7773 -2.2203
  224SOL    HW2  672   2.681   1.317   0.876 -2.1023  0.0363 -2.1715
  225SOL     OW  673   1.427   1.085   1.454 -0.2361  0.2585  0.0631
  225SOL    HW1  674   1.381   1.048   1.531 -2.5211  1.2041 -1.7174
  225SOL    HW2  675   1.489   1.014   1.416  1.3918 -2.3310 -0.1045
  226SOL     OW  676   1.412   2.007   2.943 -0.0753 -0.1152 -0.1268
  226SOL    HW1  677   1.436   2.005   3.040 -0.0682 -0.6444 -2.2351
  226SOL    HW2  678   1.496   2.030   2.890 -0.0864  0.1886 -2.0945
  227SOL     OW  679   0.997   2.122   1.300  0.4351 -0.2921 -0.6837
  227SOL    HW1  680   1.027   2.096   1.393 -1.7184 -1.0530  0.3515
  227SOL    HW2  681   0.983   2.223   1.288  1.3324 -1.3151 -2.5498
  228SOL     OW  682   0.403   1.997   1.088 -0.0057 -0.4284  0.2734
  228SOL    HW1  683   0.419   2.090   1.133 -0.4194  3.4788  1.1323
  228SOL    HW2  684   0.414   1.921   1.158 -1.8621 -0.5238  2.8281
  229SOL     OW  685   2.111   0.772   3.011 -0.1126  0.2160  0.0455
  229SOL    HW1  686   2.216   0.764   3.005 -0.7006 -0.5345  1.0543
  229SOL    HW2  687   2.086   0.700   3.079 -0.8857 -1.0648 -0.1468
  230SOL     OW  688   0.998   0.964   2.112 -0.2281  0.0645 -0.7141
  230SOL    HW1  689   1.077   0.994   2.055 -1.8345 -0.9017  3.3477
  230SOL    HW2  690   1.022   1.001   2.206 -0.8267  2.4889 -0.1228
  231SOL     OW  691   1.225   1.674   2.144  0.1374  0.2323  0.3299
  231SOL    HW1  692   1.200   1.609   2.067 -1.7157 -1.0936 -1.7171
  231SOL    HW2  693   1.292   1.632   2.210 -0.2265  0.5066 -1.4133
  232SOL     OW  694   1.991   2.179   1.417 -0.5605 -0.0469  0.3383
  232SOL    HW1  695   1.938   2.127   1.484  0.1058 -1.6900 -0.4099
  232SOL    HW2  696   1.954   2.273   1.394 -0.2531 -0.5739 -2.3542
  233SOL     OW  697   1.815   2.261   2.701 -0.6943  0.2673  0.4620
  233SOL    HW1  698   1.823   2.220   2.610  0.8851 -1.1370  0.0621
  233SOL    HW2  699   1.899   2.303   2.742 -0.4259  1.0578  1.7321
  234SOL     OW  700   1.107   2.901   3.047 -0.6114  0.2727 -0.0968
  234SOL    HW1  701   1.183   2.900   0.031  3.0986  2.7669  1.3888
  234SOL    HW2  702   1.052   2.987   3.059 -3.8545 -0.0226  0.5409
  235SOL     OW  703   2.513   2.957   0.050  0.4465 -0.5761 -0.0462
  235SOL    HW1  704   2.580   2.985   3.063  1.8073  2.9706 -0.5348
  235SOL    HW2  705   2.433   3.022   0.045 -0.2136  2.7241  0.4255
  236SOL     OW  706   2.397   2.350   2.392  0.3000  0.1601 -0.0852
  236SOL    HW1  707   2.450   2.423   2.343  1.6108  0.0088 -0.0514
  236SOL    HW2  708   2.463   2.298   2.453  2.1085 -1.4784 -0.1943
  237SOL     OW  709   1.464   1.262   1.718  0.5910  0.2234  0.2450
  237SOL    HW1  710   1.500   1.163   1.707 -0.2482  0.1922 -1.4636
  237SOL    HW2  711   1.512   1.317   1.647 -1.3578 -1.2165  1.8324
  238SOL     OW  712   2.055   0.436   2.127 -0.4833 -0.4662 -0.6571
  238SOL    HW1  713   2.156   0.437   2.097  1.4616 -0.4896  0.5022
  238SOL    HW2  714   2.044   0.444   2.229 -1.5978 -0.0627 -2.2278
  239SOL     OW  715   0.409   1.628   2.201 -0.0202 -0.0278  0.1779
  239SOL    HW1  716   0.486   1.565   2.178  0.9997  2.5652 -0.3504
  239SOL    HW2  717   0.406   1.721   2.158 -1.4414 -1.0877 -0.0297
  240SOL     OW  718   2.820   2.735   0.707 -0.2533  0.2843  0.3118
  240SOL    HW1  719   2.906   2.682   0.726 -1.3263  1.0976 -0.9990
  240SOL    HW2  720   2.824   2.769   0.612 -0.0602  1.1844 -0.7631
  241SOL     OW  721   1.636   2.161   0.881 -0.3453 -0.5566  0.6680
  241SOL    HW1  722   1.690   2.078   0.903  1.1972  0.4418  0.0179
  241SOL    HW2  723   1.628   2.177   0.781 -2.6485 -1.5971  1.9452
  242SOL     OW  724   1.153   1.716   3.011  0.0224 -0.2012 -0.1788
  242SOL    HW1  725   1.254   1.717   3.004 -1.2341 -0.1827 -0.3017
  242SOL    HW2  726   1.117   1.706   2.915  2.3973  0.8765 -1.9378
  243SOL     OW  727   1.026   2.652   2.313  0.4355  0.5908 -0.4078
  243SOL    HW1  728   0.953   2.645   2.242  1.0206  2.1462  4.3282
  243SOL    HW2  729   1.037   2.559   2.355 -0.0735  1.3622  1.5374
  244SOL     OW  730   1.976   0.209   2.512  0.2166  0.0788 -0.5341
  244SOL    HW1  731   2.065   0.204   2.460 -2.6512  0.7558 -0.3289
  244SOL    HW2  732   1.967   0.291   2.574  0.2177  1.9425  0.8878
  245SOL     OW  733   1.410   2.666   0.466  0.4586 -0.2956  0.4486
  245SOL    HW1  734   1.416   2.623   0.557  1.5178 -2.5903 -1.0303
  245SOL    HW2  735   1.501   2.670   0.421 -1.1432  0.6501  0.6138
  246SOL     OW  736   0.987   0.061   0.029 -0.1639  0.2812 -0.6891
  246SOL    HW1  737   0.891   0.094   0.016  0.8002  0.0324 -0.3086
  246SOL    HW2  738   1.039   0.102   0.105  1.6011  4.4520 -1.2019
  247SOL     OW  739   0.289   0.709   2.196 -0.4363  0.3648  0.1294
  247SOL    HW1  740   0.281   0.680   2.099  0.6635  0.1072 -1.0734
  247SOL    HW2  741   0.316   0.626   2.252 -0.2458 -1.7887  1.6536
  248SOL     OW  742   0.790   1.039   1.922 -0.2621 -0.1289  0.3596
  248SOL    HW1  743   0.872   1.018   1.978 -2.0176 -2.1165  0.8283
  248SOL    HW2  744   0.712   1.042   1.989 -1.1058  1.6527 -0.0942
  249SOL     OW  745   2.191   0.473   0.254 -0.7580  0.2844  0.4230
  249SOL    HW1  746   2.110   0.526   0.221 -1.5613  1.6174  0.4529
  249SOL    HW2  747   2.204   0.392   0.189  1.1466  1.8155 -0.9805
  250SOL     OW  748   0.784   3.028   0.455 -0.4305 -0.1902  0.1528
  250SOL    HW1  749   0.776   2.964   0.532 -0.7714  0.0044 -0.7740
  250SOL    HW2  750   0.763   2.981   0.367  1.9925  1.6643  2.2150
  251SOL     OW  751   1.534   2.845   2.831  0.4426 -0.2706 -0.1338
  251SOL    HW1  752   1.506   2.836   2.732 -1.4499 -0.7401  0.4995
  251SOL    HW2  753   1.549   2.750   2.868 -0.7018 -1.7601  1.0932
  252SOL     OW  754   1.866   1.393   2.368 -0.1753  0.0825  0.4381
  252SOL    HW1  755   1.915   1.364   2.455  1.1902  0.1415 -0.0551
  252SOL    HW2  756   1.832   1.312   2.318 -1.6422 -1.1157 -0.3553
  253SOL     OW  757   2.562   2.512   2.241 -0.2523  0.3174  0.2355
  253SOL    HW1  758   2.641   2.512   2.307 -1.1013  1.9347 -0.7069
  253SOL    HW2  759   2.584   2.588   2.177  0.1268  1.4741 -0.2217
  254SOL     OW  760   1.084   1.998   1.574 -0.1443 -0.4788  0.2128
  254SOL    HW1  761   0.997   1.961   1.549  0.4801  1.6600  2.4228
  254SOL    HW2  762   1.127   1.958   1.658 -1.2708 -1.6306 -0.8063
  255SOL     OW  763   1.026   1.099   0.981  0.0591 -0.1304 -0.3441
  255SOL    HW1  764   1.131   1.090   0.982 -0.0779 -2.1457  1.3183
  255SOL    HW2  765   0.998   1.139   0.893  0.5350  0.5414  0.9365
  256SOL     OW  766   1.687   2.038   2.108 -0.1694 -0.1910  0.4374
  256SOL    HW1  767   1.661   2.125   2.061  1.6523 -0.2164  1.3339
  256SOL    HW2  768   1.719   1.975   2.035  1.2687  1.3532  1.7712
  257SOL     OW  769   0.313   2.669   2.904 -0.2954 -0.1620 -0.3444
  257SOL    HW1  770   0.388   2.724   2.858  0.3106  0.5778  0.2675
  257SOL    HW2  771   0.306   2.576   2.871 -1.7602  1.7538  1.1751
  258SOL     OW  772   0.840   0.083   1.959 -0.7212 -0.5255  0.1920
  258SOL    HW1  773   0.917   0.126   2.006  2.1211 -1.4084  1.1132
  258SOL    HW2  774   0.854   0.055   1.865 -0.0341  0.6825  1.8263
  259SOL     OW  775   1.029   0.208   2.100  0.2648 -0.2422  0.3911
  259SOL    HW1  776   1.076   0.122   2.135 -1.2144 -0.6352  0.9455
  259SOL    HW2  777   0.993   0.260   2.180  1.0231 -1.4119  3.2047
  260SOL     OW  778   1.659   0.680   0.838  0.3473 -0.8546  0.0323
  260SOL    HW1  779   1.646   0.655   0.742  1.8958 -1.7094  0.6276
  260SOL    HW2  780   1.671   0.782   0.853 -2.3672  0.5288 -0.7269
  261SOL     OW  781   0.291   0.321   2.813 -0.4433  0.2684  1.1424
  261SOL    HW1  782   0.288   0.230   2.862  1.8136 -0.0376 -1.0095
  261SOL    HW2  783   0.272   0.396   2.877  2.2036 -5.2508 -1.9017
  262SOL     OW  784   2.651   2.716   2.079  0.2112 -0.0955 -0.5208
  262SOL    HW1  785   2.582   2.743   2.006 -0.6725 -1.5231 -1.4767
  262SOL    HW2  786   2.724   2.786   2.085  1.5559  0.3647 -1.3168
  263SOL     OW  787   3.047   2.043   2.162 -0.3816 -0.3362  0.0489
  263SOL    HW1  788   2.948   2.056   2.173  0.7325 -1.8006 -1.8453
  263SOL    HW2  789   3.070   1.960   2.219  2.2005 -0.5160  1.0319
  264SOL     OW  790   0.792   1.053   1.114 -0.6067 -0.3695  0.3880
  264SOL    HW1  791   0.774   1.135   1.171  1.4968 -2.9102  1.2404
  264SOL    HW2  792   0.885   1.060   1.071  2.4318 -0.0596  1.7291
  265SOL     OW  793   0.503   1.980   0.068 -0.4406 -0.0115  0.2038
  265SOL    HW1  794   0.603   1.973   0.052  1.3961 -1.4225  1.9368
  265SOL    HW2  795   0.483   2.081   0.082  0.1298  0.8905  1.0128
  266SOL     OW  796   1.123   0.977   0.424 -0.3719 -0.1206 -0.2547
  266SOL    HW1  797   1.221   0.934   0.416 -0.3206 -0.9065 -1.7663
  266SOL    HW2  798   1.057   0.927   0.487 -0.9351 -1.9622  1.9331
  267SOL     OW  799   2.949   1.332   0.092  0.0676 -0.6091 -0.4263
  267SOL    HW1  800   2.982   1.412   0.150  3.4508 -0.3667 -0.4611
  267SOL    HW2  801   3.020   1.291   0.031 -0.3020  1.9275  0.1109
  268SOL     OW  802   2.210   0.071   2.757  0.1058 -0.0897  0.8176
  268SOL    HW1  803   2.221   0.018   2.672 -0.8917 -0.4004  1.3018
  268SOL    HW2  804   2.164   0.011   2.826 -0.2896  0.1337 -0.8895
  269SOL     OW  805   1.681   0.592   2.567 -0.4929 -0.2612  0.3685
  269SOL    HW1  806   1.672   0.495   2.538 -0.8639  2.8127  0.9265
  269SOL    HW2  807   1.703   0.643   2.479 -0.0653  1.0657 -3.2361
  270SOL     OW  808   0.879   0.832   2.869 -0.5454  0.1636  0.0182
  270SOL    HW1  809   0.901   0.778   2.786  2.4487  0.3961 -0.4636
  270SOL    HW2  810   0.838   0.773   2.939  0.6831  2.4369 -2.5769
  271SOL     OW  811   2.887   1.120   0.291  0.3636  0.3642 -0.3546
  271SOL    HW1  812   2.914   1.042   0.235 -0.1337  0.4195  0.9968
  271SOL    HW2  813   2.905   1.209   0.244  1.5283  2.4957 -2.3626
  272SOL     OW  814   2.983   1.612   2.887 -0.6536 -0.4841 -0.0745
  272SOL    HW1  815   2.904   1.555   2.862 -2.0010 -2.0188 -3.1266
  272SOL    HW2  816   3.034   1.643   2.804 -3.3024 -3.6186 -0.3777
  273SOL     OW  817   2.233   0.025   0.330 -0.2848  0.0907 -0.3549
  273SOL    HW1  818   2.319   0.089   0.331  1.0022 -0.3978 -0.7202
  273SOL    HW2  819   2.198   0.005   0.234 -0.4439  1.4822  0.1727
  274SOL     OW  820   0.334   2.593   0.997 -1.1414  0.2676  0.3944
  274SOL    HW1  821   0.273   2.509   0.987 -1.5118  0.3357 -1.1958
  274SOL    HW2  822   0.295   2.653   1.067  1.2055  1.4030 -0.5534
  275SOL     OW  823   2.440   1.336   0.457  0.2536 -0.2108 -0.0956
  275SOL    HW1  824   2.510   1.413   0.451 -1.8833 -2.1152 -0.4875
  275SOL    HW2  825   2.456   1.261   0.386 -0.4026  1.2321  0.2280
  276SOL     OW  826   2.951   1.184   2.305  0.2185  0.1228  0.4039
  276SOL    HW1  827   3.036   1.142   2.341 -0.0064  0.5304 -0.0638
  276SOL    HW2  828   2.875   1.115   2.293  1.5583 -1.1127  0.6687
  277SOL     OW  829   2.001   2.730   1.257 -0.2738  0.5786 -0.3288
  277SOL    HW1  830   2.068   2.711   1.179 -0.2129 -0.2926  0.1171
  277SOL    HW2  831   2.055   2.745   1.343  0.4327 -2.4569  0.1942
  278SOL     OW  832   1.290   3.062   2.127  0.1096  0.5171 -0.0210
  278SOL    HW1  833   1.253   3.025   2.040 -1.0377 -0.7014  1.1993
  278SOL    HW2  834   1.385   0.007   2.110 -2.4471 -0.1139  0.1324
  279SOL     OW  835   1.597   1.800   0.516 -0.3759  0.5286 -0.5741
  279SOL    HW1  836   1.545   1.812   0.601  1.9290  0.6057 -0.0781
  279SOL    HW2  837   1.668   1.875   0.519  0.7391  0.8317 -1.2058
  280SOL     OW  838   0.296   1.651   0.763  0.6745  0.1913 -0.0492
  280SOL    HW1  839   0.368   1.709   0.726 -1.7490 -2.0385  2.4293
  280SOL    HW2  840   0.235   1.696   0.834 -1.5940 -3.4865  3.3129
  281SOL     OW  841   2.803   0.282   2.368  0.2119  0.0517 -0.0197
  281SOL    HW1  842   2.821   0.185   2.340  1.5160  0.9419  0.8788
  281SOL    HW2  843   2.744   0.291   2.452  3.2516 -2.3480 -0.3143
  282SOL     OW  844   0.421   0.841   0.542 -0.2431 -0.3376  0.3803
  282SOL    HW1  845   0.458   0.808   0.633  2.3578  0.9173  0.1054
  282SOL    HW2  846   0.398   0.750   0.497  2.1996 -1.5681 -2.8829
  283SOL     OW  847   1.848   1.757   0.111 -0.4270  0.6164 -0.0991
  283SOL    HW1  848   1.794   1.841   0.140 -1.0706  3.1628 -1.5329
  283SOL    HW2  849   1.905   1.776   0.030 -0.1679 -1.0386  0.9507
  284SOL     OW  850   1.375   0.867   0.287 -0.2162  0.1625  0.6284
  284SOL    HW1  851   1.333   0.840   0.199 -2.7396  2.7088 -2.0460
  284SOL    HW2  852   1.466   0.911   0.262  3.0023  1.4623  1.3088
  285SOL     OW  853   2.229   0.710   2.427 -0.4393  0.4245 -0.1113
  285SOL    HW1  854   2.212   0.763   2.346  1.5915 -2.1694  3.5932
  285SOL    HW2  855   2.184   0.756   2.509  1.7059  3.3087 -0.7871
  286SOL     OW  856   1.727   2.812   1.383  0.2576  0.1831 -0.1382
  286SOL    HW1  857   1.808   2.771   1.428 -1.3521  0.2985  2.7102
  286SOL    HW2  858   1.749   2.827   1.289  0.0343  3.5850 -1.6078
  287SOL     OW  859   1.288   1.056   1.008  0.0273 -0.1924 -0.2222
  287SOL    HW1  860   1.324   0.962   1.006 -0.0055 -1.1712  1.1060
  287SOL    HW2  861   1.323   1.100   1.092 -0.8509  0.2535 -0.4805
  288SOL     OW  862   0.928   2.732   0.273  0.1907  0.0697 -0.2355
  288SOL    HW1  863   0.950   2.697   0.177 -0.4496 -2.1149 -0.6834
  288SOL    HW2  864   0.872   2.662   0.327 -0.9424  0.6093 -0.5495
  289SOL     OW  865   0.476   1.440   1.687 -0.0679  0.0396 -0.2108
  289SOL    HW1  866   0.570   1.453   1.716 -3.3717 -1.9548 -0.9467
  289SOL    HW2  867   0.411   1.521   1.708 -0.5989 -0.0701  2.4777
  290SOL     OW  868   1.632   2.379   1.059 -0.0761 -0.1437  0.1313
  290SOL    HW1  869   1.637   2.311   0.985 -0.0231 -0.0139 -1.1823
  290SOL    HW2  870   1.533   2.412   1.062  0.2162  0.3301  0.5209
  291SOL     OW  871   1.821   2.520   3.013 -0.4416 -0.2544  0.0170
  291SOL    HW1  872   1.893   2.570   2.954  2.8086  1.7971  1.3199
  291SOL    HW2  873   1.872   2.490   0.010  2.0774 -1.2824  2.7987
  292SOL     OW  874   0.967   0.557   1.847 -0.2112  0.9886 -0.3337
  292SOL    HW1  875   1.061   0.542   1.879 -0.9075 -0.6540 -0.8575
  292SOL    HW2  876   0.941   0.652   1.854 -2.8986 -0.4609 -2.5131
  293SOL     OW  877   1.835   2.622   0.877 -0.5733 -0.0248 -0.3090
  293SOL    HW1  878   1.882   2.554   0.939  2.3853 -1.0572 -1.9269
  293SOL    HW2  879   1.801   2.713   0.916 -0.8796  3.0764  1.8414
  294SOL     OW  880   0.408   0.965   2.520 -0.4721  0.0245 -0.7080
  294SOL    HW1  881   0.406   1.055   2.567  0.2018 -0.4881 -2.4922
  294SOL    HW2  882   0.452   0.891   2.578  2.3542 -0.0464  1.8135
  295SOL     OW  883   1.403   1.630   0.846 -0.4308 -0.6385 -0.0803
  295SOL    HW1  884   1.464   1.557   0.802  4.1645 -2.2019 -3.1004
  295SOL    HW2  885   1.315   1.601   0.886  1.2629  0.5350  0.3991
  296SOL     OW  886   2.207   2.019   0.253 -0.1619 -0.2964 -0.0788
  296SOL    HW1  887   2.287   2.077   0.221  0.2751 -0.8358 -2.1178
  296SOL    HW2  888   2.238   1.924   0.268 -0.8367  2.0447  0.9036
  297SOL     OW  889   2.257   0.031   0.055 -0.4752 -0.6137  0.0972
  297SOL    HW1  890   2.274   0.122   0.020 -2.2042  1.1526 -0.3450
  297SOL    HW2  891   2.194   3.070   3.082 -1.5567 -1.1389  1.0940
  298SOL     OW  892   1.261   2.097   2.686  0.2795  0.5782 -0.5691
  298SOL    HW1  893   1.177   2.093   2.743  0.4965  1.0516  1.0453
  298SOL    HW2  894   1.337   2.133   2.744 -1.1879 -1.8036 -0.9994
  299SOL     OW  895   1.312   2.601   2.455  0.1771 -0.0461 -0.6930
  299SOL    HW1  896   1.301   2.701   2.442  0.1512 -0.4035 -0.0523
  299SOL    HW2  897   1.350   2.584   2.549  0.5197 -2.3630  2.0713
  300SOL     OW  898   2.223   0.183   2.377 -0.3340 -0.0317 -0.1382
  300SOL    HW1  899   2.191   0.170   2.281 -2.1662 -1.1529  0.5257
  300SOL    HW2  900   2.315   0.145   2.389 -0.7409 -1.7389  0.3415
  301SOL     OW  901   1.383   0.977   2.074 -0.2371  0.4545 -0.0631
  301SOL    HW1  902   1.447   1.040   2.131  4.3044  0.9513  1.1196
  301SOL    HW2  903   1.441   0.932   2.002 -2.7598 -0.2761 -3.1819
  302SOL     OW  904   2.569   2.356   0.326  0.5333 -0.1001 -0.0125
  302SOL    HW1  905   2.527   2.331   0.417  0.6559 -0.5618 -1.8140
  302SOL    HW2  906   2.588   2.452   0.316 -0.7277 -1.8444 -1.1143
  303SOL     OW  907   2.794   2.512   2.378 -0.1392 -0.0203  0.1913
  303SOL    HW1  908   2.872   2.498   2.316 -3.4455 -0.5271  0.1363
  303SOL    HW2  909   2.782   2.435   2.449 -0.3368  1.0957  0.3343
  304SOL     OW  910   2.875   0.611   1.462  0.6504  0.2974  0.1622
  304SOL    HW1  911   2.859   0.688   1.525  1.4361  1.3856 -1.9308
  304SOL    HW2  912   2.802   0.536   1.469 -2.0251  0.6817  0.9615
  305SOL     OW  913   0.662   2.065   1.788 -0.0761  0.0450 -0.0013
  305SOL    HW1  914   0.577   2.131   1.787 -1.6075  2.1580 -1.8823
  305SOL    HW2  915   0.730   2.091   1.723 -3.8631 -3.1672  2.3122
  306SOL     OW  916   2.755   0.966   1.525 -0.1304  0.5573 -0.4373
  306SOL    HW1  917   2.724   0.979   1.433  1.4684  0.5106  3.3276
  306SOL    HW2  918   2.852   0.939   1.522 -0.0234  1.6691  2.1057
  307SOL     OW  919   1.513   0.800   1.885  0.0968  0.4656  0.2623
  307SOL    HW1  920   1.585   0.751   1.936 -0.8525  2.0405  0.1971
  307SOL    HW2  921   1.452   0.733   1.829 -4.8713 -1.8251 -1.8439
  308SOL     OW  922   2.813   1.623   1.220 -0.0703  0.5405 -0.3041
  308SOL    HW1  923   2.842   1.579   1.130 -1.6147  2.1118 -1.7616
  308SOL    HW2  924   2.725   1.581   1.250 -0.8205 -0.4927 -3.6306
  309SOL     OW  925   2.574   1.444   1.187 -0.1966  0.2165  0.7274
  309SOL    HW1  926   2.486   1.387   1.186 -1.8627  1.1293  2.2378
  309SOL    HW2  927   2.602   1.467   1.090  1.2851 -0.3722  0.5180
  310SOL     OW  928   2.736   1.855   2.545  0.0071  0.2160  0.3549
  310SOL    HW1  929   2.641   1.843   2.583 -2.4504  4.5635  0.1103
  310SOL    HW2  930   2.781   1.931   2.599 -0.7002  0.0343  1.7610
  311SOL     OW  931   3.025   2.669   2.972  0.0485 -0.0721 -0.6133
  311SOL    HW1  932   2.976   2.746   3.011  0.8184  0.7028 -0.5571
  311SOL    HW2  933   2.961   2.612   2.916 -0.7129  1.0630  1.0791
  312SOL     OW  934   1.961   1.773   0.820  0.5567  0.6494 -0.1286
  312SOL    HW1  935   1.985   1.749   0.720  0.6200 -2.4534  0.5496
  312SOL    HW2  936   1.976   1.690   0.876  0.0962  0.2794 -1.8286
  313SOL     OW  937   2.578   3.046   0.851  0.2493 -0.0109 -0.4141
  313SOL    HW1  938   2.502   3.017   0.791 -0.5272 -1.9543  0.7828
  313SOL    HW2  939   2.646   0.014   0.797  0.1763  2.1406  1.5447
  314SOL     OW  940   1.433   1.533   0.195  0.5564  0.0916  0.0280
  314SOL    HW1  941   1.475   1.463   0.254 -0.0517  0.7727  0.3338
  314SOL    HW2  942   1.477   1.546   0.103  2.6678  1.3892 -4.6186
  315SOL     OW  943   1.393   2.396   2.244  0.1635  0.0383  0.2393
  315SOL    HW1  944   1.376   2.465   2.312 -1.1924 -2.7111 -0.7886
  315SOL    HW2  945   1.341   2.402   2.156  1.5199 -1.1863  1.0879
  316SOL     OW  946   0.014   0.929   0.425  0.5572  0.2308  0.4174
  316SOL    HW1  947   3.018   0.946   0.482  1.4639  1.8717 -0.1637
  316SOL    HW2  948   0.087   0.991   0.462 -0.4015 -0.8138 -0.6609
  317SOL     OW  949   0.477   2.970   0.362 -0.3536  0.0815 -0.3834
  317SOL    HW1  950   0.454   2.891   0.419  1.5048  1.8947  0.2393
  317SOL    HW2  951   0.563   2.945   0.315  0.6004 -1.7589  1.4974
  318SOL     OW  952   2.376   2.291   0.521 -0.3209  0.5875  0.3450
  318SOL    HW1  953   2.354   2.207   0.575  1.6992  2.2497 -1.9110
  318SOL    HW2  954   2.313   2.297   0.446  2.9698 -0.9055  1.3554
  319SOL     OW  955   0.842   1.410   2.773 -0.7820 -0.4384  0.1099
  319SOL    HW1  956   0.792   1.487   2.820  1.0478  0.1504 -1.3924
  319SOL    HW2  957   0.778   1.354   2.716 -1.7029  3.7851 -2.2017
  320SOL     OW  958   0.495   2.584   1.898  0.2541  0.2524 -0.5401
  320SOL    HW1  959   0.503   2.642   1.815  1.1091  0.6431  2.8975
  320SOL    HW2  960   0.410   2.532   1.905  2.0354 -0.8702  0.1578
  321SOL     OW  961   1.653   2.281   3.029  0.2406 -0.4086 -0.4448
  321SOL    HW1  962   1.725   2.355   3.021  1.0149  1.8593  2.0216
  321SOL    HW2  963   1.653   2.211   2.955 -2.5145  0.6703  0.5522
  322SOL     OW  964   2.989   1.335   2.030 -0.1123 -0.4408  0.4110
  322SOL    HW1  965   2.974   1.279   2.110  1.7856 -1.1199  0.2014
  322SOL    HW2  966   2.944   1.288   1.951 -1.8741  1.3521 -1.4904
  323SOL     OW  967   2.618   1.121   0.558 -0.4371 -0.2488  0.2689
  323SOL    HW1  968   2.531   1.082   0.600 -0.0575 -1.2204  0.1243
  323SOL    HW2  969   2.694   1.054   0.547 -2.1993 -2.6458 -0.2246
  324SOL     OW  970   0.140   2.869   2.835 -0.0783 -0.3068 -0.0263
  324SOL    HW1  971   0.046   2.839   2.829  1.2881 -0.8791 -2.8103
  324SOL    HW2  972   0.191   2.822   2.907  1.9042  0.4806 -0.1626
  325SOL     OW  973   1.459   0.327   2.283 -0.1426 -0.3169 -0.0414
  325SOL    HW1  974   1.488   0.236   2.264  0.8314 -0.4207 -0.1014
  325SOL    HW2  975   1.383   0.322   2.349  0.8755 -2.3522 -1.9169
  326SOL     OW  976   2.324   2.572   1.527  0.3347 -0.2174 -0.3583
  326SOL    HW1  977   2.358   2.532   1.615  2.2049  0.3512  0.2174
  326SOL    HW2  978   2.257   2.505   1.485  0.2358 -3.0863  0.9203
  327SOL     OW  979   1.772   0.236   2.826 -0.2686 -0.5208  0.3170
  327SOL    HW1  980   1.772   0.137   2.852  1.6538 -3.5142  2.1702
  327SOL    HW2  981   1.794   0.294   2.910  1.9619 -1.3073 -1.4773
  328SOL     OW  982   2.940   0.754   2.245  0.1343  0.4699 -0.3186
  328SOL    HW1  983   3.031   0.790   2.229 -3.2950 -2.9168 -0.0506
  328SOL    HW2  984   2.876   0.832   2.268 -0.9332 -1.3690  1.7059
  329SOL     OW  985   1.533   0.086   2.040 -0.2930  0.4330 -0.3181
  329SOL    HW1  986   1.525   0.170   1.986 -2.6700 -0.9693  1.2135
  329SOL    HW2  987   1.626   0.071   2.073 -1.7324 -3.2707 -0.5969
  330SOL     OW  988   2.837   1.894   1.269  0.1629 -0.3905  0.2407
  330SOL    HW1  989   2.820   1.797   1.257  0.3352 -0.6946 -2.6890
  330SOL    HW2  990   2.835   1.912   1.371 -2.1125 -0.6623  2.8741
  331SOL     OW  991   0.685   1.593   2.387 -0.3594  0.6078  0.0247
  331SOL    HW1  992   0.761   1.658   2.376  0.0990 -0.0736  0.6937
  331SOL    HW2  993   0.671   1.536   2.301  1.1994  0.8750 -1.8871
  332SOL     OW  994   0.287   2.811   1.519 -0.3022  0.0156 -0.1637
  332SOL    HW1  995   0.392   2.819   1.528 -1.4422 -0.4875  2.5105
  332SOL    HW2  996   0.245   2.902   1.484 -1.6547  3.3826 -1.9014
  333SOL     OW  997   2.531   2.710   1.429 -0.1136  0.0136 -0.3396
  333SOL    HW1  998   2.621   2.667   1.447 -0.6067  2.9773  1.3178
  333SOL    HW2  999   2.451   2.670   1.478 -0.2669 -1.2689 -0.7984
  334SOL     OW 1000   0.792   1.815   0.993 -0.0349 -0.3848 -0.5011
  334SOL    HW1 1001   0.864   1.859   1.054 -1.0754 -0.7806  2.4950
  334SOL    HW2 1002   0.834   1.779   0.906  0.6707 -0.0929 -2.9400
  335SOL     OW 1003   0.100   2.269   3.042 -0.6857 -0.0252 -0.0250
  335SOL    HW1 1004   0.028   2.325   2.995  1.4242  2.2163 -0.4438
  335SOL    HW2 1005   0.064   2.176   3.068  0.7231  0.7103  0.3987
  336SOL     OW 1006   0.379   0.069   1.730  0.0025 -0.4274  0.2739
  336SOL    HW1 1007   0.296   0.088   1.684  2.7107 -0.3931  2.0929
  336SOL    HW2 1008   0.458   0.127   1.700 -2.6260  0.2333 -2.8621
  337SOL     OW 1009   2.629   1.949   2.885  0.1170  0.0091 -0.3691
  337SOL    HW1 1010   2.554   1.979   2.950 -0.1775 -0.3108  0.9851
  337SOL    HW2 1011   2.659   1.855   2.912 -0.1079  1.0233  2.4208
  338SOL     OW 1012   1.090   1.621   1.217 -0.3116 -0.6811 -0.2196
  338SOL    HW1 1013   1.164   1.659   1.269 -2.3539  1.9727 -2.7508
  338SOL    HW2 1014   1.027   1.700   1.193 -0.6396 -0.6679 -0.2834
  339SOL     OW 1015   3.070   0.596   1.996 -0.7915  0.1945  0.2050
  339SOL    HW1 1016   2.978   0.628   2.013  0.4010 -3.0252 -0.0208
  339SOL    HW2 1017   0.002   0.521   2.060  0.1659  1.2799 -2.0191
  340SOL     OW 1018   1.678   2.559   0.377 -0.4187 -0.1235 -0.1317
  340SOL    HW1 1019   1.626   2.477   0.345  1.0158  1.5654  1.2328
  340SOL    HW2 1020   1.701   2.557   0.481  2.5658  0.8508  1.8162
  341SOL     OW 1021   1.860   1.403   1.118  0.5417 -0.0445 -0.0226
  341SOL    HW1 1022   1.903   1.309   1.110 -0.1916  1.2295  0.3665
  341SOL    HW2 1023   1.761   1.392   1.156 -2.5515 -4.6609  0.2573
  342SOL     OW 1024   3.042   2.270   0.588  0.2998 -0.0945  0.2121
  342SOL    HW1 1025   2.994   2.220   0.665  3.5863 -1.3578  1.2493
  342SOL    HW2 1026   2.991   2.276   0.500 -2.3112  0.9087  0.0454
  343SOL     OW 1027   1.374   2.444   1.092  0.2844 -0.2545  0.3885
  343SOL    HW1 1028   1.392   2.542   1.113 -0.1907 -3.0248 -1.2536
  343SOL    HW2 1029   1.327   2.396   1.168 -1.7155  1.2811 -0.2811
  344SOL     OW 1030   2.147   2.793   0.837  0.3282  0.1718 -0.1988
  344SOL    HW1 1031   2.081   2.864   0.806  0.0859 -1.0916  0.9403
  344SOL    HW2 1032   2.168   2.739   0.755 -0.6176  2.8062  0.3049
  345SOL     OW 1033   2.794   2.079   2.704 -0.2622  0.8984  0.1284
  345SOL    HW1 1034   2.722   2.045   2.770  0.2364  1.6082 -1.2743
  345SOL    HW2 1035   2.892   2.075   2.740  1.1222 -1.2069 -1.7383
  346SOL     OW 1036   0.094   1.718   0.940 -0.0117 -0.0899  0.0182
  346SOL    HW1 1037   0.012   1.695   0.884  1.5765  2.0438  0.3319
  346SOL    HW2 1038   0.075   1.742   1.040 -0.1703 -0.6372 -0.3939
  347SOL     OW 1039   1.911   2.435   1.378  0.1566 -0.2136  0.0125
  347SOL    HW1 1040   1.929   2.466   1.474 -1.5405  0.5122  1.9531
  347SOL    HW2 1041   1.988   2.452   1.314  0.0382 -0.0612  1.5872
  348SOL     OW 1042   1.012   1.722   2.766 -0.1881  0.2655 -0.7113
  348SOL    HW1 1043   1.022   1.638   2.716 -2.0272  3.1337  3.9699
  348SOL    HW2 1044   0.973   1.792   2.701 -0.2222  1.5642 -2.0382
  349SOL     OW 1045   2.413   1.331   1.977  0.0454  0.2065 -0.3269
  349SOL    HW1 1046   2.329   1.297   2.025 -0.4960 -0.6626  0.4933
  349SOL    HW2 1047   2.405   1.429   1.962 -1.0558 -2.9954 -0.7030
  350SOL     OW 1048   0.038   2.472   1.304 -0.8119 -0.5220  0.1396
  350SOL    HW1 1049   0.012   2.561   1.256  0.0035  1.7134  1.0809
  350SOL    HW2 1050   0.107   2.416   1.258  0.3714 -0.4170 -0.1037
  351SOL     OW 1051   0.393   0.531   2.650  0.0198 -0.0461 -0.5290
  351SOL    HW1 1052   0.315   0.590   2.647  3.1668 -1.3418 -0.9950
  351SOL    HW2 1053   0.368   0.436   2.680  1.4727 -0.5655  1.3820
  352SOL     OW 1054   0.722   2.456   1.530  0.0267 -0.0469 -0.2864
  352SOL    HW1 1055   0.794   2.509   1.580  0.2433  1.2720 -0.6268
  352SOL    HW2 1056   0.631   2.492   1.560  1.1510  3.1369 -2.6526
  353SOL     OW 1057   1.000   1.530   2.574  0.4386 -0.0631  0.8226
  353SOL    HW1 1058   0.932   1.467   2.619  1.7356  0.1099 -2.5572
  353SOL    HW2 1059   1.023   1.491   2.480  1.2875  1.6956 -0.6685
  354SOL     OW 1060   1.594   0.888   0.540 -0.0754 -0.2016 -0.3875
  354SOL    HW1 1061   1.554   0.814   0.484  2.5879  0.5824 -0.4954
  354SOL    HW2 1062   1.543   0.905   0.624  1.6958 -0.1935 -2.4202
  355SOL     OW 1063   2.748   0.724   0.386  0.1725  0.0742 -0.8472
  355SOL    HW1 1064   2.748   0.795   0.310 -0.2196  3.0981 -1.4228
  355SOL    HW2 1065   2.839   0.725   0.428  2.6562  0.4319  0.4671
  356SOL     OW 1066   2.621   1.131   2.623 -0.0241  0.1544 -0.2167
  356SOL    HW1 1067   2.643   1.098   2.719 -0.6942 -1.6736 -1.2219
  356SOL    HW2 1068   2.522   1.113   2.609 -2.2041 -0.1965 -1.1516
  357SOL     OW 1069   0.811   2.692   1.638 -0.2036  0.4596 -0.0525
  357SOL    HW1 1070   0.873   2.745   1.576 -0.8698  1.0895  1.4025
  357SOL    HW2 1071   0.834   2.700   1.739 -0.4970 -0.4501  2.5669
  358SOL     OW 1072   2.145   1.264   1.990  0.6152 -0.4372 -0.0380
  358SOL    HW1 1073   2.092   1.346   1.960 -0.0879 -1.3260  1.2028
  358SOL    HW2 1074   2.149   1.194   1.914 -3.1171  1.2328 -0.9407
  359SOL     OW 1075   2.073   2.279   3.007 -0.2026 -0.0560 -0.1426
  359SOL    HW1 1076   2.018   2.313   2.925 -2.2468  1.5650 -1.4885
  359SOL    HW2 1077   2.126   2.353   3.047  0.6715 -1.0566 -0.5762
  360SOL     OW 1078   2.301   0.594   0.737  0.4732  0.8612 -0.6307
  360SOL    HW1 1079   2.322   0.617   0.834 -2.2388 -1.0025 -1.1671
  360SOL    HW2 1080   2.268   0.676   0.686 -0.6854 -0.0687  0.5743
  361SOL     OW 1081   1.983   3.064   0.972  0.3750  0.2077 -0.4934
  361SOL    HW1 1082   1.966   3.059   0.873  2.3886  0.1267  2.3383
  361SOL    HW2 1083   1.914   3.019   1.033  0.4998  0.8668  0.8339
  362SOL     OW 1084   1.403   1.238   0.608  0.5469 -0.0183 -0.7616
  362SOL    HW1 1085   1.303   1.257   0.589 -1.1551 -0.4697 -2.3595
  362SOL    HW2 1086   1.415   1.152   0.660  1.1343 -2.3464  0.6239
  363SOL     OW 1087   2.522   1.593   2.426  0.1803 -0.3478 -0.1307
  363SOL    HW1 1088   2.567   1.516   2.461 -0.4061  1.1989 -2.6569
  363SOL    HW2 1089   2.497   1.664   2.496 -2.4534  3.1099 -1.2363
  364SOL     OW 1090   1.297   0.659   1.268  0.0828 -0.7963 -0.0734
  364SOL    HW1 1091   1.387   0.621   1.273 -1.3865  0.3186  0.8963
  364SOL    HW2 1092   1.238   0.590   1.229  2.4506 -0.9913  3.3955
  365SOL     OW 1093   0.317   0.038   0.850 -0.2894  0.6042  0.4542
  365SOL    HW1 1094   0.214   0.069   0.853 -1.5364 -2.1352  0.8528
  365SOL    HW2 1095   0.326   3.022   0.841  0.4649 -0.0098 -0.6866
  366SOL     OW 1096   2.885   1.641   0.455  0.0664  0.6996 -0.7477
  366SOL    HW1 1097   2.863   1.626   0.550 -1.9014  0.4311 -1.9798
  366SOL    HW2 1098   2.904   1.736   0.435  0.1571 -1.8313  0.6509
  367SOL     OW 1099   2.898   2.327   2.960  0.0523  0.0544  0.0516
  367SOL    HW1 1100   2.872   2.393   2.886 -1.7783 -0.4910  1.4370
  367SOL    HW2 1101   2.889   2.365   3.057  0.8716  1.5480  2.5199
  368SOL     OW 1102   0.151   2.411   0.987 -0.3665 -0.7734 -0.0775
  368SOL    HW1 1103   0.156   2.398   0.884 -3.3502 -2.5627 -0.8804
  368SOL    HW2 1104   0.055   2.412   1.019  0.6059  0.1029 -0.1595
  369SOL     OW 1105   0.526   0.166   0.337  0.4156 -0.0775 -0.0335
  369SOL    HW1 1106   0.526   0.066   0.360  0.7164 -0.1139 -3.4323
  369SOL    HW2 1107   0.610   0.188   0.276  2.9566 -1.5162 -0.6694
  370SOL     OW 1108   0.370   0.867   1.433 -0.0787 -0.1670  0.4349
  370SOL    HW1 1109   0.333   0.774   1.437  1.3605  2.1125  0.7771
  370SOL    HW2 1110   0.469   0.869   1.446  2.2387 -0.1433  0.6016
  371SOL     OW 1111   1.995   2.279   0.792 -0.1135  0.0800  0.0756
  371SOL    HW1 1112   2.020   2.177   0.811  1.6569  0.5027  0.0880
  371SOL    HW2 1113   1.933   2.295   0.708 -1.7362  1.5202 -2.3574
  372SOL     OW 1114   2.966   1.128   2.610 -0.7952 -0.6888  0.2119
  372SOL    HW1 1115   2.887   1.171   2.565  4.4943 -0.0306  3.1101
  372SOL    HW2 1116   3.044   1.107   2.552 -0.8932 -0.5426  1.9078
  373SOL     OW 1117   2.751   1.560   0.711 -0.1346  0.0712  0.1485
  373SOL    HW1 1118   2.710   1.606   0.796 -1.2659  1.3491  2.0245
  373SOL    HW2 1119   2.692   1.478   0.694 -0.7314 -1.6932  0.7568
  374SOL     OW 1120   0.300   2.376   0.292 -0.0337 -0.5601  0.1954
  374SOL    HW1 1121   0.315   2.308   0.364 -1.0213  0.7224  1.0770
  374SOL    HW2 1122   0.320   2.341   0.200  1.0938  0.9321 -1.4061
  375SOL     OW 1123   0.769   0.258   0.227  0.2436 -0.3590  0.3628
  375SOL    HW1 1124   0.841   0.225   0.289 -1.1512 -0.9770  1.9828
  375SOL    HW2 1125   0.768   0.357   0.231 -2.0636 -1.3541  0.6074
  376SOL     OW 1126   0.465   2.936   1.872  0.0117  0.2724  0.1406
  376SOL    HW1 1127   0.431   2.998   1.800  1.0724 -1.2318  0.2842
  376SOL    HW2 1128   0.398   2.929   1.952 -1.1264  1.4175  1.6895
  377SOL     OW 1129   1.057   2.222   2.309  0.2055 -0.0214  0.3178
  377SOL    HW1 1130   1.128   2.156   2.337 -0.6605  3.5646 -0.4935
  377SOL    HW2 1131   1.064   2.309   2.370  3.1775  2.4064 -0.2400
  378SOL     OW 1132   1.015   0.815   0.604 -0.3002  0.0639  0.0775
  378SOL    HW1 1133   0.930   0.828   0.659  2.4936 -2.0606  0.8290
  378SOL    HW2 1134   1.098   0.805   0.660 -0.1936  2.7316  3.5195
  379SOL     OW 1135   0.777   1.713   2.919 -0.2640 -0.0179 -0.6865
  379SOL    HW1 1136   0.793   1.648   3.000  2.9643  0.1958  1.2739
  379SOL    HW2 1137   0.866   1.742   2.881  1.0672  0.7320  1.3625
  380SOL     OW 1138   2.843   1.933   1.542 -0.1622 -0.2401  0.0334
  380SOL    HW1 1139   2.823   1.905   1.640 -0.2401  1.2784 -0.4597
  380SOL    HW2 1140   2.870   2.031   1.541 -0.8688  2.0665  0.9078
  381SOL     OW 1141   0.037   0.940   1.929 -0.1712 -0.3608 -0.0771
  381SOL    HW1 1142   0.128   0.984   1.902  1.4964 -0.3812 -1.2381
  381SOL    HW2 1143   0.024   0.867   1.863  2.6374 -0.5550  2.2565
  382SOL     OW 1144   2.310   2.418   3.087  0.0703  0.3459  0.0500
  382SOL    HW1 1145   2.305   2.477   3.005 -2.3625 -1.4685  2.1751
  382SOL    HW2 1146   2.390   2.356   3.083  2.7011 -0.0734  0.8946
  383SOL     OW 1147   2.339   2.083   2.098  0.3129  0.2312  0.9498
  383SOL    HW1 1148   2.438   2.109   2.089 -1.7908 -1.3872  0.6745
  383SOL    HW2 1149   2.284   2.162   2.134 -0.1448  0.2048 -1.6486
  384SOL     OW 1150   0.905   2.333   2.005 -0.3980  0.3699 -0.2545
  384SOL    HW1 1151   0.944   2.266   2.071  0.3276  1.7843 -0.6133
  384SOL    HW2 1152   0.809   2.359   2.024 -0.0252 -1.5332 -0.4126
  385SOL     OW 1153   2.639   2.144   0.960 -0.5569  0.1091  0.5141
  385SOL    HW1 1154   2.542   2.140   0.948  1.6827 -0.9831 -1.0493
  385SOL    HW2 1155   2.662   2.073   1.029 -0.5334  0.2030 -0.4585
  386SOL     OW 1156   1.869   0.651   2.838  0.2889  0.1716  0.1908
  386SOL    HW1 1157   1.790   0.707   2.805 -0.7243 -0.1904  0.3186
  386SOL    HW2 1158   1.860   0.632   2.939 -1.6739  0.2308 -0.4223
  387SOL     OW 1159   0.491   0.467   2.036 -0.2675  0.0682  0.3148
  387SOL    HW1 1160   0.414   0.507   1.978  0.2654 -0.5959 -0.2399
  387SOL    HW2 1161   0.466   0.456   2.134  1.8513 -0.3514  0.0651
  388SOL     OW 1162   2.710   1.087   1.790 -0.2165 -0.2591  0.6266
  388SOL    HW1 1163   2.718   1.033   1.705 -1.3938  2.0922  1.7047
  388SOL    HW2 1164   2.791   1.147   1.811  0.8707  0.7064  0.2628
  389SOL     OW 1165   1.475   0.683   2.296 -0.0284  0.1009  0.1566
  389SOL    HW1 1166   1.394   0.744   2.284  3.8069  3.1257 -0.6551
  389SOL    HW2 1167   1.491   0.621   2.219  0.6818 -1.3403  1.8558
  390SOL     OW 1168   1.905   2.294   0.525 -0.0408  0.4443 -0.1803
  390SOL    HW1 1169   1.964   2.220   0.487 -2.1361 -1.7045 -1.8291
  390SOL    HW2 1170   1.956   2.378   0.517  0.6246 -1.1943  1.7492
  391SOL     OW 1171   1.840   2.898   1.128 -0.1986 -0.1723 -0.3775
  391SOL    HW1 1172   1.825   2.880   1.029  1.1235  3.2610  1.3062
  391SOL    HW2 1173   1.913   2.840   1.169 -1.4285 -0.9023  0.5676
  392SOL     OW 1174   2.756   2.530   1.203  0.3071  0.0555 -0.1499
  392SOL    HW1 1175   2.764   2.627   1.179  0.3638 -2.1480 -0.4264
  392SOL    HW2 1176   2.680   2.480   1.160  0.6854 -1.0231  2.7853
  393SOL     OW 1177   1.808   1.486   2.725 -0.0036  0.1179  0.0948
  393SOL    HW1 1178   1.804   1.587   2.736 -2.3111  0.2621 -0.0757
  393SOL    HW2 1179   1.839   1.438   2.811  3.1251 -0.6861  1.2948
  394SOL     OW 1180   0.148   2.657   0.027  0.6012 -0.4513  0.1086
  394SOL    HW1 1181   0.209   2.648   3.030  0.8086 -1.4848 -2.5388
  394SOL    HW2 1182   0.050   2.654   3.079 -1.9492  0.4659 -1.3482
  395SOL     OW 1183   1.258   1.232   1.303  0.1857  0.6435  0.6744
  395SOL    HW1 1184   1.332   1.186   1.356 -1.5390  0.5532  0.6278
  395SOL    HW2 1185   1.291   1.315   1.259 -2.8777  0.2401  4.3966
  396SOL     OW 1186   2.074   0.750   2.683  0.6166  0.5587 -0.1715
  396SOL    HW1 1187   2.000   0.720   2.749  3.0259  0.0683  3.4812
  396SOL    HW2 1188   2.143   0.797   2.738  0.7259  0.8876  2.2483
  397SOL     OW 1189   0.058   0.810   2.595  0.0847  0.3616  0.0099
  397SOL    HW1 1190   0.050   0.877   2.520 -1.0777 -1.0360  2.2719
  397SOL    HW2 1191   0.110   0.847   2.678  0.5262 -0.3576  3.8775
  398SOL     OW 1192   1.252   0.472   0.055  0.2718 -0.5975 -0.4902
  398SOL    HW1 1193   1.295   0.562   0.021  0.3244  0.0342 -2.0465
  398SOL    HW2 1194   1.159   0.462   0.016 -0.7374  0.9379 -3.5111
  399SOL     OW 1195   1.982   0.076   1.534  0.2026 -0.2643  0.5242
  399SOL    HW1 1196   2.072   0.030   1.560  0.9108 -1.3130  1.2821
  399SOL    HW2 1197   1.903   0.023   1.573  2.6418  0.7143 -0.7290
  400SOL     OW 1198   0.036   1.682   2.308 -0.6154 -0.1376 -0.6983
  400SOL    HW1 1199   0.044   1.690   2.209 -2.2867 -0.4061  3.1631
  400SOL    HW2 1200   3.024   1.678   2.334 -0.1664  0.6569 -0.0847
  401SOL     OW 1201   0.722   0.131   3.073 -0.4588  1.1034  0.2466
  401SOL    HW1 1202   0.723   0.180   0.072 -0.3836 -0.1950 -0.9647
  401SOL    HW2 1203   0.665   0.190   3.007 -0.4845 -0.6903 -1.6193
  402SOL     OW 1204   0.414   2.506   1.529  0.3408  0.5296  0.1582
  402SOL    HW1 1205   0.390   2.513   1.429  1.4832  0.9884  1.4003
  402SOL    HW2 1206   0.396   2.595   1.576  0.6515 -2.6864 -1.4493
  403SOL     OW 1207   0.361   1.426   1.353 -0.1881 -0.3345  0.0619
  403SOL    HW1 1208   0.369   1.357   1.430  1.4966  1.7003  0.3956
  403SOL    HW2 1209   0.417   1.510   1.382 -1.2397 -3.1064  1.6969
  404SOL     OW 1210   2.920   2.671   1.884  0.4172 -0.3224  0.5354
  404SOL    HW1 1211   2.924   2.719   1.795  2.8600  1.1006 -1.0658
  404SOL    HW2 1212   2.895   2.740   1.952 -1.9204 -0.4346  0.6576
  405SOL     OW 1213   2.728   0.378   2.127 -0.0151 -0.6359 -0.2324
  405SOL    HW1 1214   2.626   0.352   2.127 -2.3183 -0.1205  0.7908
  405SOL    HW2 1215   2.770   0.363   2.222  0.1641  0.1723  2.4245
  406SOL     OW 1216   1.910   2.416   0.197 -0.1065 -0.4859 -0.5266
  406SOL    HW1 1217   1.859   2.450   0.278 -1.3152 -0.8951  0.1903
  406SOL    HW2 1218   1.950   2.320   0.211  0.9238 -3.0033  0.5126
  407SOL     OW 1219   1.759   1.938   0.950  0.4435  0.0895  0.2214
  407SOL    HW1 1220   1.822   1.876   0.890  1.2268 -0.4194 -3.5221
  407SOL    HW2 1221   1.767   1.925   1.054 -0.5928  1.5729  1.6848
  408SOL     OW 1222   0.608   0.332   2.296 -0.2142  0.0363 -0.2374
  408SOL    HW1 1223   0.669   0.414   2.275 -0.3523 -0.5165  2.8893
  408SOL    HW2 1224   0.585   0.276   2.215  1.2512  0.5633  1.5014
  409SOL     OW 1225   2.462   1.924   0.628 -0.3052  0.2023 -0.4739
  409SOL    HW1 1226   2.556   1.964   0.640 -1.1017  1.8316  0.8942
  409SOL    HW2 1227   2.452   1.828   0.589  0.1475 -4.2222  1.1725
  410SOL     OW 1228   2.407   1.560   0.775 -0.3555 -0.2636  0.2068
  410SOL    HW1 1229   2.328   1.494   0.790 -0.1386 -0.2440 -0.0564
  410SOL    HW2 1230   2.389   1.652   0.827  2.3173  3.8364  0.2825
  411SOL     OW 1231   3.017   0.613   0.423  0.5624 -0.7275 -0.2721
  411SOL    HW1 1232   0.009   0.569   0.472  0.8919  1.6648 -0.2910
  411SOL    HW2 1233   3.030   0.711   0.402 -1.8751  3.0236 -1.3827
  412SOL     OW 1234   1.761   0.555   0.007 -0.7992 -0.0123 -0.4770
  412SOL    HW1 1235   1.775   0.449   0.002  1.6224 -2.9049 -0.5593
  412SOL    HW2 1236   1.665   0.580   3.072  0.8514  0.5715 -0.5464
  413SOL     OW 1237   0.887   0.874   1.300  0.2437  0.1613 -0.7052
  413SOL    HW1 1238   0.825   0.800   1.333  0.3442  0.9462  2.3653
  413SOL    HW2 1239   0.846   0.928   1.226  2.1620  1.0199 -0.5195
  414SOL     OW 1240   0.205   1.372   2.910 -0.1374 -0.3819  0.4575
  414SOL    HW1 1241   0.173   1.446   2.965 -1.2969 -3.3280  0.1851
  414SOL    HW2 1242   0.255   1.405   2.829 -2.2723  0.2804 -0.9509
  415SOL     OW 1243   0.180   1.795   3.078  0.0568  0.1685  0.1831
  415SOL    HW1 1244   0.255   1.814   3.010  0.0589 -0.8236 -0.3700
  415SOL    HW2 1245   0.139   1.701   3.069 -2.4742  0.0972 -0.6129
  416SOL     OW 1246   1.698   0.884   0.134 -0.3341  0.1906  0.6202
  416SOL    HW1 1247   1.754   0.839   0.209 -0.8706 -3.8939  4.3077
  416SOL    HW2 1248   1.684   0.982   0.153 -0.0867 -2.4464 -2.4574
  417SOL     OW 1249   0.254   0.842   0.978 -0.3316 -0.2222 -0.1197
  417SOL    HW1 1250   0.267   0.896   1.062 -1.0886 -1.4953 -0.5628
  417SOL    HW2 1251   0.237   0.908   0.903  0.0379 -0.8988  2.1077
  418SOL     OW 1252   2.276   1.169   2.693 -0.5268 -1.1003 -0.4717
  418SOL    HW1 1253   2.190   1.146   2.646 -1.0917 -1.7114 -0.2912
  418SOL    HW2 1254   2.310   1.088   2.740 -3.5000  3.5518 -2.6128
  419SOL     OW 1255   0.368   0.391   0.217 -0.2092  0.1083 -0.0542
  419SOL    HW1 1256   0.429   0.315   0.242  0.7322 -0.5419 -0.6657
  419SOL    HW2 1257   0.290   0.353   0.167  0.7204 -0.2506  1.1651
  420SOL     OW 1258   0.373   1.397   0.757  0.1722 -0.2540  0.3872
  420SOL    HW1 1259   0.460   1.387   0.811  1.7791  0.0496  0.7846
  420SOL    HW2 1260   0.352   1.498   0.748  2.2157  0.4548 -2.0537
  421SOL     OW 1261   0.427   2.171   0.427 -0.1153 -0.1986  0.0410
  421SOL    HW1 1262   0.366   2.131   0.502  0.5767  1.1171  0.1064
  421SOL    HW2 1263   0.504   2.107   0.404 -0.9140 -0.2763 -0.6997
  422SOL     OW 1264   2.699   0.391   1.475  0.2775 -0.0525 -0.6854
  422SOL    HW1 1265   2.690   0.342   1.384  0.2009  1.9351  0.0433
  422SOL    HW2 1266   2.710   0.337   1.562 -0.0086 -1.8936  0.9912
  423SOL     OW 1267   2.033   1.538   0.938  0.2606 -0.0088  0.1485
  423SOL    HW1 1268   1.964   1.500   1.005  0.3528  4.4864 -0.7588
  423SOL    HW2 1269   2.116   1.487   0.952 -0.3825  2.9347 -0.6171
  424SOL     OW 1270   1.898   1.247   0.220 -0.0687  0.0492 -0.2381
  424SOL    HW1 1271   1.967   1.214   0.152 -1.0184  1.1713  1.3042
  424SOL    HW2 1272   1.900   1.350   0.230  2.5269  0.0918 -1.0700
  425SOL     OW 1273   0.165   2.797   1.951 -0.1415 -0.0552  0.1404
  425SOL    HW1 1274   0.188   2.738   2.030  3.4076  1.9937 -0.8471
  425SOL    HW2 1275   0.142   2.745   1.871 -0.6767  0.5483  1.7338
  426SOL     OW 1276   2.592   2.502   2.887 -0.4810  0.1336  0.3797
  426SOL    HW1 1277   2.661   2.536   2.955  0.0372  0.2114 -2.0056
  426SOL    HW2 1278   2.522   2.575   2.898  3.3626  0.1801 -1.4427
  427SOL     OW 1279   0.667   0.825   2.356  0.2760  0.0765 -0.2144
  427SOL    HW1 1280   0.585   0.862   2.305  1.6767  2.2399 -0.3805
  427SOL    HW2 1281   0.734   0.899   2.387  1.0087  2.3639  1.5951
  428SOL     OW 1282   2.115   0.868   2.224 -0.4055 -0.1395 -0.3431
  428SOL    HW1 1283   2.176   0.853   2.147 -0.3539  2.9286 -0.0569
  428SOL    HW2 1284   2.103   0.966   2.244 -0.6502  0.8819 -0.6661
  429SOL     OW 1285   2.446   0.190   0.406 -0.4580 -0.1204  0.0168
  429SOL    HW1 1286   2.525   0.149   0.360 -5.1164  3.0212  0.8765
  429SOL    HW2 1287   2.450   0.291   0.403 -2.0747 -2.2333  2.2980
  430SOL     OW 1288   1.805   1.143   2.187 -0.0805  0.4748 -0.4312
  430SOL    HW1 1289   1.905   1.129   2.210 -0.5336 -0.4863 -0.7765
  430SOL    HW2 1290   1.785   1.149   2.088 -1.6229  1.6579  1.3906
  431SOL     OW 1291   2.962   2.196   1.515  0.2272  0.3775  0.5728
  431SOL    HW1 1292   3.052   2.180   1.475 -1.3945  1.5181 -2.7309
  431SOL    HW2 1293   2.913   2.280   1.478  0.4331 -3.0880  0.0740
  432SOL     OW 1294   1.479   2.830   2.578  0.2057  0.0550 -0.5292
  432SOL    HW1 1295   1.559   2.788   2.531  2.6020 -0.1325  0.1400
  432SOL    HW2 1296   1.439   2.909   2.524 -3.4285  2.4538  0.3893
  433SOL     OW 1297   1.527   3.077   1.415  0.0175 -0.2940  0.4316
  433SOL    HW1 1298   1.538   3.074   1.313 -0.4810  3.0966 -2.4457
  433SOL    HW2 1299   1.493   2.989   1.459 -0.8491  0.6324  1.0510
  434SOL     OW 1300   3.026   2.472   2.177  0.0815 -0.7963 -0.0283
  434SOL    HW1 1301   2.997   2.484   2.083  1.8124 -1.4313  3.1375
  434SOL    HW2 1302   0.001   2.392   2.177  1.8550  1.8829  0.0184
  435SOL     OW 1303   0.327   1.783   0.245 -0.0939  0.1720  0.4043
  435SOL    HW1 1304   0.409   1.838   0.250  1.8937  1.1100 -0.4201
  435SOL    HW2 1305   0.279   1.801   0.154 -0.9254  1.9627 -1.5165
  436SOL     OW 1306   0.526   0.994   1.743  0.2840  0.0045 -0.1842
  436SOL    HW1 1307   0.606   1.030   1.688  1.4219 -0.2486  0.5206
  436SOL    HW2 1308   0.539   0.988   1.845 -2.4423 -1.7823  0.1728
  437SOL     OW 1309   0.697   0.541   2.889  0.5134  0.3447  0.0228
  437SOL    HW1 1310   0.707   0.573   2.793 -0.0596 -0.7569 -2.9170
  437SOL    HW2 1311   0.653   0.606   2.952  5.4894 -1.6735 -1.8043
  438SOL     OW 1312   0.835   1.903   1.514 -0.2912  0.2902 -0.6248
  438SOL    HW1 1313   0.804   1.910   1.420  3.8439  0.7035  1.6606
  438SOL    HW2 1314   0.798   1.826   1.561  3.3923 -0.3840 -2.6372
  439SOL     OW 1315   1.914   1.392   2.956  0.0253 -0.4627  0.2378
  439SOL    HW1 1316   1.993   1.343   2.997 -1.8345 -0.3550 -1.5586
  439SOL    HW2 1317   1.847   1.438   3.019 -1.0247 -0.9837  1.6908
  440SOL     OW 1318   1.339   0.675   0.485 -0.7505  0.2747 -0.3194
  440SOL    HW1 1319   1.348   0.746   0.408 -0.7745 -2.3821  0.7630
  440SOL    HW2 1320   1.312   0.585   0.446 -2.0956 -0.1170 -1.1632
  441SOL     OW 1321   0.546   2.749   1.642 -0.5116  0.3064 -0.1635
  441SOL    HW1 1322   0.636   2.722   1.599  2.0738  3.2338 -0.5975
  441SOL    HW2 1323   0.556   2.831   1.698  0.4420 -1.8246 -1.6337
  442SOL     OW 1324   2.204   2.411   0.888  0.6729 -0.3074 -0.9284
  442SOL    HW1 1325   2.141   2.363   0.828  4.7797  1.5700  1.4448
  442SOL    HW2 1326   2.159   2.489   0.940 -2.1709  3.0483 -1.0914
  443SOL     OW 1327   2.674   1.398   2.563 -0.3670  0.6452  0.0208
  443SOL    HW1 1328   2.645   1.304   2.583 -2.2562 -0.7141 -0.4894
  443SOL    HW2 1329   2.736   1.411   2.478  2.8548  2.5111 -2.4914
  444SOL     OW 1330   1.379   0.672   2.555  0.3128 -0.0806 -0.4290
  444SOL    HW1 1331   1.427   0.682   2.465  1.4363 -1.3606 -0.1992
  444SOL    HW2 1332   1.278   0.676   2.537 -0.5315 -2.8539 -2.0275
  445SOL     OW 1333   2.376   2.418   1.742 -0.2518  0.6875 -0.0391
  445SOL    HW1 1334   2.410   2.350   1.672  2.3940 -1.7939 -1.2749
  445SOL    HW2 1335   2.454   2.475   1.774 -0.4404 -0.8914  1.4098
  446SOL     OW 1336   2.942   1.916   0.372  0.1890 -0.4653  0.3892
  446SOL    HW1 1337   2.898   1.926   0.282 -4.4515  0.3709 -0.6446
  446SOL    HW2 1338   3.043   1.917   0.375 -2.2983  2.1045  0.8584
  447SOL     OW 1339   1.158   2.591   1.322  0.1919 -0.2192 -0.2953
  447SOL    HW1 1340   1.235   2.638   1.275  0.0242  1.6862  3.8416
  447SOL    HW2 1341   1.117   2.653   1.393 -1.4993  1.4333  1.9847
  448SOL     OW 1342   1.601   1.512   1.961 -0.2487 -0.0287 -0.5481
  448SOL    HW1 1343   1.634   1.586   2.023 -1.1120 -2.0990  0.4967
  448SOL    HW2 1344   1.539   1.443   2.008 -1.8100 -1.4526  1.6344
  449SOL     OW 1345   0.341   2.136   2.325  0.1046  0.6105 -0.0505
  449SOL    HW1 1346   0.321   2.033   2.328  1.5131  0.3079  0.1097
  449SOL    HW2 1347   0.341   2.185   2.413 -0.7600  1.7604 -0.9868
  450SOL     OW 1348   2.885   1.651   2.440 -0.4686  0.6981 -0.1682
  450SOL    HW1 1349   2.838   1.586   2.376 -1.0152 -1.0223 -3.3173
  450SOL    HW2 1350   2.823   1.722   2.485  0.3878  2.8268 -0.7699
  451SOL     OW 1351   2.542   0.563   1.182 -0.0825  0.0505 -0.0681
  451SOL    HW1 1352   2.598   0.477   1.187  0.8785  0.4672 -2.4828
  451SOL    HW2 1353   2.540   0.617   1.267 -1.6619 -0.5509  0.5973
  452SOL     OW 1354   0.990   2.385   1.257  0.3241  0.0504 -0.2371
  452SOL    HW1 1355   1.052   2.448   1.306 -1.5114 -1.2534 -3.2693
  452SOL    HW2 1356   0.965   2.409   1.162 -1.0449  1.5143  1.1765
  453SOL     OW 1357   1.122   1.997   0.924  0.1023  0.1318  0.2136
  453SOL    HW1 1358   1.214   2.035   0.945  0.0414 -0.5639 -0.1202
  453SOL    HW2 1359   1.051   2.067   0.899 -0.8143 -1.5437  1.0241
  454SOL     OW 1360   3.005   1.246   0.702 -0.6147 -0.2028  0.1423
  454SOL    HW1 1361   2.979   1.243   0.799 -1.2166  2.3576  1.1178
  454SOL    HW2 1362   3.059   1.326   0.668 -4.5407 -3.2601  2.0252
  455SOL     OW 1363   0.648   0.870   0.385 -0.3117 -0.4586  0.7358
  455SOL    HW1 1364   0.628   0.896   0.290 -0.2154 -0.4946 -2.5574
  455SOL    HW2 1365   0.567   0.872   0.439  3.4109 -2.4310 -1.7383
  456SOL     OW 1366   1.908   2.386   1.009 -0.0650 -0.2593  0.0219
  456SOL    HW1 1367   1.810   2.384   1.046 -0.1194 -1.0299  1.3373
  456SOL    HW2 1368   1.938   2.326   0.933  1.0033  2.2083  0.1272
  457SOL     OW 1369   1.547   2.587   2.902  0.3759  0.2741 -0.3777
  457SOL    HW1 1370   1.643   2.557   2.909 -0.7346  0.6045  1.3397
  457SOL    HW2 1371   1.504   2.569   2.996  1.1317  0.6939  2.3914
  458SOL     OW 1372   2.457   0.159   2.946 -0.2204 -0.0447 -0.0150
  458SOL    HW1 1373   2.391   0.130   2.873  2.4513 -0.1564 -0.3812
  458SOL    HW2 1374   2.541   0.102   2.929 -2.2107 -0.0890  1.3978
  459SOL     OW 1375   2.165   0.125   1.815  0.3420  0.2264  1.0412
  459SOL    HW1 1376   2.184   0.093   1.911  3.2379  1.8195 -1.7810
  459SOL    HW2 1377   2.187   0.052   1.746 -1.3519  0.1405 -0.6324
  460SOL     OW 1378   2.734   0.610   2.723 -0.3949 -0.6452 -0.1608
  460SOL    HW1 1379   2.836   0.602   2.711 -0.1120  4.4419  0.0218
  460SOL    HW2 1380   2.695   0.528   2.769  1.0686 -1.2743 -2.0644
  461SOL     OW 1381   0.025   2.075   0.905  0.2565  0.6638 -0.6469
  461SOL    HW1 1382   3.082   2.056   1.001  1.6374 -1.0043  3.6729
  461SOL    HW2 1383   0.096   2.009   0.877  0.1136 -2.6764  0.1343
  462SOL     OW 1384   0.073   0.165   0.784  0.3032  0.0855  0.2466
  462SOL    HW1 1385   0.038   0.107   0.706 -2.6867 -2.8162  1.6242
  462SOL    HW2 1386   0.008   0.242   0.807 -1.8136 -0.7813  0.0326
  463SOL     OW 1387   2.313   1.448   0.172  0.0937  0.2890 -0.3046
  463SOL    HW1 1388   2.234   1.492   0.126  1.1686  1.6084 -1.6731
  463SOL    HW2 1389   2.396   1.510   0.162  1.3370  1.8813 -0.8136
  464SOL     OW 1390   0.828   3.062   1.123  0.0482  0.4178 -0.1718
  464SOL    HW1 1391   0.778   2.981   1.150  0.1714  1.9996 -0.4429
  464SOL    HW2 1392   0.848   0.031   1.206  1.4453  1.2826  0.6753
  465SOL     OW 1393   1.124   0.528   1.112 -0.1272 -0.4733  0.0832
  465SOL    HW1 1394   1.089   0.622   1.091 -0.1296  0.4666  0.0109
  465SOL    HW2 1395   1.057   0.464   1.071 -1.1768  3.2757 -0.4364
  466SOL     OW 1396   1.463   2.549   1.975  0.3124  0.3915  0.0090
  466SOL    HW1 1397   1.449   2.605   2.061 -0.2187  2.4948  0.0983
  466SOL    HW2 1398   1.377   2.525   1.933  1.4865  1.0373 -1.0917
  467SOL     OW 1399   0.914   2.755   1.887  0.8411  0.6759  0.6050
  467SOL    HW1 1400   0.862   2.836   1.923  0.8366  0.5060  1.1181
  467SOL    HW2 1401   0.999   2.732   1.938 -0.4016 -0.8594 -0.0991
  468SOL     OW 1402   0.143   1.448   1.967 -0.2913  0.4522 -0.1336
  468SOL    HW1 1403   0.060   1.392   1.971 -1.9736  0.1669  0.1167
  468SOL    HW2 1404   0.129   1.536   2.010 -0.1529 -0.9357 -2.7935
  469SOL     OW 1405   0.995   1.792   0.803  0.6157 -0.4615 -0.2602
  469SOL    HW1 1406   0.992   1.812   0.703 -0.7673  0.9024 -0.0069
  469SOL    HW2 1407   1.050   1.867   0.847  2.6725  3.7323 -2.2952
  470SOL     OW 1408   2.068   1.146   2.231 -0.2974  0.1459  0.2541
  470SOL    HW1 1409   2.086   1.184   2.138  1.9904 -4.0281 -0.8850
  470SOL    HW2 1410   2.130   1.195   2.296  1.5843 -1.4013 -1.7893
  471SOL     OW 1411   0.357   2.244   0.064 -0.1139 -0.2319  0.2830
  471SOL    HW1 1412   0.274   2.239   0.006  2.5725  1.3619  1.6422
  471SOL    HW2 1413   0.430   2.302   0.020  2.6560  0.3440  0.9642
  472SOL     OW 1414   3.087   2.929   2.237 -0.5172  0.3449  0.4153
  472SOL    HW1 1415   0.010   2.833   2.269 -0.5811  3.9189 -0.4248
  472SOL    HW2 1416   0.085   2.978   2.247  0.7793 -1.5224  1.0603
  473SOL     OW 1417   0.700   2.942   3.044 -0.4131 -0.7528  0.4472
  473SOL    HW1 1418   0.744   2.898   2.968 -0.3820  3.6997 -0.0218
  473SOL    HW2 1419   0.722   3.039   3.035 -1.5416  0.5818 -1.9527
  474SOL     OW 1420   1.622   0.293   0.664 -0.4949  0.5739 -0.4216
  474SOL    HW1 1421   1.651   0.258   0.572  1.8835 -1.6389  0.0593
  474SOL    HW2 1422   1.699   0.339   0.710 -2.5180 -1.8237 -1.8470
  475SOL     OW 1423   1.411   0.246   1.455  0.7068  0.0379  0.0768
  475SOL    HW1 1424   1.396   0.285   1.361 -1.5347  0.6060  1.0570
  475SOL    HW2 1425   1.450   0.149   1.452  1.7297  1.0137  2.5167
  476SOL     OW 1426   0.164   1.235   1.150  0.7396 -0.4392  0.6894
  476SOL    HW1 1427   0.166   1.141   1.185 -1.0007  4.3021  2.9288
  476SOL    HW2 1428   0.198   1.245   1.052  3.0562 -1.3733 -1.3908
  477SOL     OW 1429   0.586   1.943   0.877 -0.1256 -0.1725  0.2346
  477SOL    HW1 1430   0.678   1.907   0.919  3.2466  0.6824  1.4326
  477SOL    HW2 1431   0.527   1.973   0.952  1.2048  0.0833 -0.7356
  478SOL     OW 1432   0.079   2.684   2.324 -0.7415 -0.3700  0.4733
  478SOL    HW1 1433   0.048   2.605   2.264 -2.2020  0.0889 -1.5690
  478SOL    HW2 1434   0.176   2.717   2.321 -1.8354  0.3292  2.3491
  479SOL     OW 1435   0.095   0.404   1.151  0.7817  0.1167 -0.0307
  479SOL    HW1 1436   0.038   0.485   1.185  1.2017  0.2425  0.2599
  479SOL    HW2 1437   0.175   0.431   1.094 -0.3106  0.3982 -2.3318
  480SOL     OW 1438   2.738   2.572   0.001  0.1103  0.0850  0.4193
  480SOL    HW1 1439   2.808   2.546   0.071  1.6293  0.4190  3.4218
  480SOL    HW2 1440   2.669   2.635   0.032  2.0702 -3.4485 -1.5271
  481SOL     OW 1441   2.289   1.842   1.673  0.1940 -0.2634  0.0191
  481SOL    HW1 1442   2.258   1.879   1.580 -2.2741  1.4609 -1.3935
  481SOL    HW2 1443   2.250   1.901   1.745 -1.0720 -0.1334  1.9097
  482SOL     OW 1444   1.672   1.567   2.350 -0.0360  0.0717  0.0514
  482SOL    HW1 1445   1.754   1.511   2.357 -0.1498  2.4325  0.5170
  482SOL    HW2 1446   1.614   1.567   2.437 -1.2379  0.4374  1.9285
  483SOL     OW 1447   0.911   1.288   1.790 -0.2417 -0.2907 -0.7804
  483SOL    HW1 1448   1.000   1.280   1.742 -0.0482  0.1077  0.3170
  483SOL    HW2 1449   0.896   1.204   1.841  0.0761 -0.9386 -1.0279
  484SOL     OW 1450   0.279   0.552   1.367  0.2730 -0.1802  0.6143
  484SOL    HW1 1451   0.332   0.473   1.402 -2.0818  3.3942 -0.7728
  484SOL    HW2 1452   0.286   0.563   1.265  1.4105 -1.1330 -0.1442
  485SOL     OW 1453   2.360   1.192   0.136 -0.8502 -0.3873  0.6271
  485SOL    HW1 1454   2.459   1.189   0.117 -0.6396  0.1559 -0.7060
  485SOL    HW2 1455   2.345   1.288   0.157  1.8251 -1.2506 -4.2982
  486SOL     OW 1456   1.359   0.068   1.664  0.3969 -0.3652 -0.0775
  486SOL    HW1 1457   1.256   0.060   1.666  0.8534 -0.0221  0.7542
  486SOL    HW2 1458   1.386   0.145   1.602  0.5266  0.9212 -2.7854
  487SOL     OW 1459   0.790   2.188   1.590  0.1667  0.1595 -0.3242
  487SOL    HW1 1460   0.758   2.265   1.528 -0.2083 -1.3367 -1.3510
  487SOL    HW2 1461   0.826   2.107   1.537  0.3481  0.7073 -1.4215
  488SOL     OW 1462   2.529   1.499   2.889  0.1811  0.0480  0.4396
  488SOL    HW1 1463   2.621   1.457   2.863  0.4188  0.3974  1.0616
  488SOL    HW2 1464   2.457   1.485   2.815 -0.7972 -0.5775 -0.0249
  489SOL     OW 1465   1.960   2.974   0.717  0.1378  0.4891  0.0290
  489SOL    HW1 1466   1.881   2.915   0.690 -2.9271  0.4134 -0.9259
  489SOL    HW2 1467   1.987   3.041   0.646  0.0858  0.0245  1.5491
  490SOL     OW 1468   0.693   2.247   3.035  0.0547 -0.1460  0.4066
  490SOL    HW1 1469   0.673   2.197   2.951  1.1046  0.6899  0.1637
  490SOL    HW2 1470   0.632   2.332   3.037  1.1985  0.1504  2.2442
  491SOL     OW 1471   0.708   1.069   1.550  0.1655 -0.3902 -0.5157
  491SOL    HW1 1472   0.691   1.107   1.459  0.6777 -2.2501  2.4125
  491SOL    HW2 1473   0.763   1.136   1.600  0.1055  3.3594 -0.6040
  492SOL     OW 1474   0.920   0.705   2.106 -0.4563  1.0389 -0.1779
  492SOL    HW1 1475   1.011   0.659   2.133 -1.7446 -1.1863  1.0914
  492SOL    HW2 1476   0.936   0.804   2.103 -2.2121 -2.4848 -4.5143
  493SOL     OW 1477   2.063   2.025   0.835 -0.0329 -0.0457  0.3796
  493SOL    HW1 1478   2.013   1.943   0.810 -1.3578  3.3321 -0.3898
  493SOL    HW2 1479   2.107   2.019   0.928  0.4055  1.3296  0.8923
  494SOL     OW 1480   0.589   1.303   0.901 -0.2131 -0.0450  0.1189
  494SOL    HW1 1481   0.692   1.306   0.913  1.0310  0.2363  1.7186
  494SOL    HW2 1482   0.537   1.306   0.993 -0.3285 -0.2389  1.1766
  495SOL     OW 1483   2.409   2.504   0.694 -0.1664 -0.2602 -0.3237
  495SOL    HW1 1484   2.407   2.428   0.623  3.1162 -0.5651  0.4808
  495SOL    HW2 1485   2.338   2.495   0.767  0.5479  0.3159  1.6400
  496SOL     OW 1486   2.806   0.003   1.331 -0.1440 -0.7438  0.0904
  496SOL    HW1 1487   2.764   0.040   1.252  0.2754 -2.3445  1.0827
  496SOL    HW2 1488   2.732   3.039   1.387 -1.4200 -2.1756 -0.1281
  497SOL     OW 1489   2.349   1.161   2.425  0.2025 -0.4197  0.2982
  497SOL    HW1 1490   2.331   1.253   2.380 -1.3056  3.1103 -0.0867
  497SOL    HW2 1491   2.349   1.173   2.529  1.7025  0.8692 -0.0067
  498SOL     OW 1492   0.495   2.216   1.244 -0.8991 -0.2701 -0.2681
  498SOL    HW1 1493   0.465   2.314   1.255  2.0339  2.6771  0.6630
  498SOL    HW2 1494   0.479   2.158   1.323  2.3879 -0.7277 -1.3502
  499SOL     OW 1495   1.142   2.476   1.967 -0.7242  0.0867  0.1859
  499SOL    HW1 1496   1.054   2.427   1.979  0.0741  1.1453 -1.6014
  499SOL    HW2 1497   1.170   2.479   1.866  0.1724 -0.2427 -0.4943
  500SOL     OW 1498   0.647   2.008   0.371 -0.5159 -0.2139 -0.3808
  500SOL    HW1 1499   0.705   2.050   0.299  1.5320 -0.0945  0.1880
  500SOL    HW2 1500   0.610   1.919   0.337  0.8126  0.8687 -0.6504
  501SOL     OW 1501   2.099   0.048   1.193 -0.3851 -0.2908  0.3667
  501SOL    HW1 1502   2.070   0.029   1.094  0.3851 -0.5769 -2.3958
  501SOL    HW2 1503   2.020   0.077   1.250  1.5080  1.5324 -0.3751
  502SOL     OW 1504   2.799   0.228   1.676  0.0315  0.6739  0.9335
  502SOL    HW1 1505   2.879   0.219   1.616 -0.2658  1.6181  1.3095
  502SOL    HW2 1506   2.825   0.243   1.769 -0.6831 -3.5213 -0.9931
  503SOL     OW 1507   2.423   1.152   1.757 -0.5529  0.0226 -0.2541
  503SOL    HW1 1508   2.424   1.238   1.813 -0.6945  2.7650 -0.4462
  503SOL    HW2 1509   2.496   1.086   1.782  0.6109 -1.0411 -1.2614
  504SOL     OW 1510   1.576   1.027   1.725 -0.2312 -0.0639  0.0252
  504SOL    HW1 1511   1.538   0.944   1.767  1.2973  0.5575 -0.2816
  504SOL    HW2 1512   1.653   1.002   1.663  2.1246 -0.5069  0.0169
  505SOL     OW 1513   0.726   3.076   1.524  0.4057  0.0675  0.3871
  505SOL    HW1 1514   0.653   3.016   1.489  1.1856  2.7170 -0.5202
  505SOL    HW2 1515   0.784   3.030   1.590 -2.5286  1.9848 -1.2561
  506SOL     OW 1516   0.163   0.206   0.395  0.1738 -0.3413  0.0832
  506SOL    HW1 1517   0.194   0.233   0.301  0.9889 -1.2982  0.5196
  506SOL    HW2 1518   0.218   0.260   0.464  0.0587  1.1248 -0.5946
  507SOL     OW 1519   2.386   0.756   3.045 -0.1330 -0.1949  0.0151
  507SOL    HW1 1520   2.470   0.745   0.017  3.7297 -0.6300 -1.0672
  507SOL    HW2 1521   2.386   0.673   2.984  0.3070 -1.4030 -0.8420
  508SOL     OW 1522   1.454   0.309   1.881 -0.4192  0.3195  0.4810
  508SOL    HW1 1523   1.360   0.271   1.884 -2.2780 -0.1705 -1.0309
  508SOL    HW2 1524   1.489   0.334   1.791  1.2979  2.5804  1.5535
  509SOL     OW 1525   1.669   1.656   1.273  0.3156  0.2783 -0.2372
  509SOL    HW1 1526   1.664   1.650   1.375 -1.9681  0.3900 -0.5699
  509SOL    HW2 1527   1.577   1.682   1.234 -1.6751  1.1787 -1.8104
  510SOL     OW 1528   2.420   1.161   1.474 -0.1706  0.1840  0.2214
  510SOL    HW1 1529   2.408   1.148   1.573 -0.0947 -0.7489 -0.4995
  510SOL    HW2 1530   2.403   1.075   1.425  2.4217  0.0071  1.2100
  511SOL     OW 1531   1.671   2.059   1.323  0.1936 -0.0822  0.5091
  511SOL    HW1 1532   1.736   1.987   1.288 -0.2763 -0.8170 -1.8694
  511SOL    HW2 1533   1.701   2.153   1.303  0.1097  1.8075  0.0181
  512SOL     OW 1534   0.234   1.530   0.400  0.0108 -0.2302  0.0500
  512SOL    HW1 1535   0.285   1.449   0.437 -0.2663 -0.9196  0.5167
  512SOL    HW2 1536   0.296   1.595   0.356 -0.4845 -3.1416  2.1375
  513SOL     OW 1537   0.023   2.002   3.067 -0.3254 -0.3941 -0.2683
  513SOL    HW1 1538   3.066   1.995   2.980  1.3331  1.0801  1.1924
  513SOL    HW2 1539   0.097   1.931   3.070 -2.0566  0.0574  1.6473
  514SOL     OW 1540   2.779   1.957   2.224  0.7081 -0.6199  0.1284
  514SOL    HW1 1541   2.724   1.969   2.310 -1.4686  2.4622  0.5521
  514SOL    HW2 1542   2.779   1.857   2.201  0.6418 -1.4160 -0.1043
  515SOL     OW 1543   2.135   1.155   0.722  0.4581 -0.1658  0.2645
  515SOL    HW1 1544   2.080   1.243   0.712 -1.5639 -0.5381  1.1947
  515SOL    HW2 1545   2.076   1.091   0.777 -0.5331  2.7353  0.8583
  516SOL     OW 1546   1.997   2.717   0.269 -0.0620 -0.1371 -0.5274
  516SOL    HW1 1547   1.897   2.736   0.251 -4.8641  2.0109  1.9907
  516SOL    HW2 1548   2.005   2.645   0.340  0.5921 -0.0894 -1.2512
  517SOL     OW 1549   0.904   1.919   2.562  0.1499 -0.6989 -0.5311
  517SOL    HW1 1550   0.964   1.886   2.488  1.1954  1.9282  1.5132
  517SOL    HW2 1551   0.814   1.948   2.519 -0.8277  3.3204 -1.4204
  518SOL     OW 1552   0.349   0.070   2.017  0.1222  0.4934  0.1632
  518SOL    HW1 1553   0.444   0.100   2.012 -0.7432 -0.2158  0.7747
  518SOL    HW2 1554   0.317   0.041   1.924 -0.5363 -0.7614  0.2438
  519SOL     OW 1555   0.459   1.464   0.159 -0.0662  0.2385  0.2131
  519SOL    HW1 1556   0.384   1.399   0.139  0.5811  1.6707 -1.0791
  519SOL    HW2 1557   0.473   1.467   0.256  0.5009 -0.5859 -0.8313
  520SOL     OW 1558   2.750   1.911   1.857 -0.1983 -0.5954  0.1845
  520SOL    HW1 1559   2.663   1.879   1.898 -1.0666  1.7912  1.2342
  520SOL    HW2 1560   2.770   2.003   1.895  1.4758 -1.5932 -1.1269
  521SOL     OW 1561   0.740   2.484   2.557  0.4013  0.3095 -0.4892
  521SOL    HW1 1562   0.739   2.386   2.528 -0.7900 -1.8045  0.3808
  521SOL    HW2 1563   0.701   2.550   2.487 -0.9749  0.3491 -0.1461
  522SOL     OW 1564   1.797   3.082   2.118  1.0857  0.1366  0.1454
  522SOL    HW1 1565   1.820   3.060   2.021 -2.8337 -1.6448  0.0797
  522SOL    HW2 1566   1.850   0.074   2.162  0.5208 -2.9143 -3.3986
  523SOL     OW 1567   2.050   1.872   1.999 -0.0512 -0.3218  0.3446
  523SOL    HW1 1568   2.101   1.929   1.933  1.4191 -0.5200  0.3396
  523SOL    HW2 1569   2.111   1.851   2.084 -0.0935 -2.0708  1.8706
  524SOL     OW 1570   0.724   2.907   0.214 -0.6207 -0.1222 -0.1241
  524SOL    HW1 1571   0.813   2.853   0.228 -0.0881 -1.2538 -1.8969
  524SOL    HW2 1572   0.715   2.926   0.114  0.2962 -1.3902  1.2770
  525SOL     OW 1573   0.326   0.620   0.399 -0.0516 -0.0702 -0.2656
  525SOL    HW1 1574   0.363   0.531   0.373  1.1953  0.5580  3.0665
  525SOL    HW2 1575   0.241   0.607   0.457 -0.6088 -2.0443  1.1853
  526SOL     OW 1576   0.854   2.749   0.709 -0.2483  0.9062  0.4945
  526SOL    HW1 1577   0.819   2.676   0.777 -2.4716 -0.5273  1.8766
  526SOL    HW2 1578   0.778   2.816   0.688  0.1393 -1.5023 -1.6340
  527SOL     OW 1579   2.187   1.737   1.072  0.1770 -0.2559 -0.3235
  527SOL    HW1 1580   2.136   1.711   0.988  2.6021  0.4354  1.1163
  527SOL    HW2 1581   2.180   1.665   1.144 -0.0541  1.2728  1.8490
  528SOL     OW 1582   2.899   2.821   2.738  0.0418 -0.7274 -0.3748
  528SOL    HW1 1583   2.811   2.845   2.691 -1.1075  0.1561  0.6885
  528SOL    HW2 1584   2.893   2.852   2.835 -0.5857  0.0777 -2.2278
  529SOL     OW 1585   1.241   1.654   2.518  0.2228 -0.4041  0.1371
  529SOL    HW1 1586   1.146   1.624   2.549 -1.3759 -0.9353  0.0493
  529SOL    HW2 1587   1.289   1.574   2.478  0.4696  0.6111  3.9875
  530SOL     OW 1588   1.563   1.262   2.868  0.2869 -0.6240 -0.4935
  530SOL    HW1 1589   1.502   1.327   2.817  0.2855  2.6228 -0.9009
  530SOL    HW2 1590   1.504   1.183   2.901  1.2082 -0.5173 -1.0620
  531SOL     OW 1591   0.531   1.110   2.894  0.1334  0.1530  0.7266
  531SOL    HW1 1592   0.504   1.152   2.804 -1.9060 -1.4863 -1.7126
  531SOL    HW2 1593   0.515   1.013   2.904  1.5842  0.2239 -0.7443
  532SOL     OW 1594   1.727   1.552   0.521  0.2924 -0.2935 -0.2293
  532SOL    HW1 1595   1.705   1.506   0.608 -0.5470 -0.3395 -2.5031
  532SOL    HW2 1596   1.695   1.644   0.525  2.3590 -4.4489 -1.0144
  533SOL     OW 1597   0.590   0.169   2.510 -0.2934 -0.2551 -0.3038
  533SOL    HW1 1598   0.611   0.234   2.437 -1.3075 -2.2790  2.3926
  533SOL    HW2 1599   0.664   0.175   2.583  2.4714 -0.1413 -0.1596
  534SOL     OW 1600   0.512   2.437   3.012 -0.2930  0.2056 -0.3630
  534SOL    HW1 1601   0.537   2.459   2.915  2.2824 -0.5490  2.0979
  534SOL    HW2 1602   0.451   2.507   3.057 -0.3005  1.1076  3.6004
  535SOL     OW 1603   0.210   3.032   0.340  0.1430 -0.3947 -1.0540
  535SOL    HW1 1604   0.308   3.020   0.364  2.4431 -0.4547 -1.5865
  535SOL    HW2 1605   0.185   0.040   0.367  1.4932  1.0747 -1.0379
  536SOL     OW 1606   0.091   0.895   2.199  0.2051  0.0419  0.3204
  536SOL    HW1 1607   0.063   0.919   2.104  0.2139  0.3190  2.4815
  536SOL    HW2 1608   0.164   0.825   2.203 -0.8273 -2.0395  2.3244
  537SOL     OW 1609   1.164   0.097   1.343 -0.8004 -0.2249 -0.0581
  537SOL    HW1 1610   1.065   0.109   1.324 -1.8232  0.0518 -0.4964
  537SOL    HW2 1611   1.221   0.160   1.284  0.3549 -1.5250 -0.6453
  538SOL     OW 1612   0.135   1.916   0.386  0.5333  0.6255  0.2493
  538SOL    HW1 1613   0.195   1.852   0.331 -0.4203 -1.4249 -1.1898
  538SOL    HW2 1614   0.177   1.935   0.480  1.0162 -0.0772  0.8223
  539SOL     OW 1615   2.651   0.990   2.036 -0.3536 -0.0893 -0.3348
  539SOL    HW1 1616   2.678   1.038   1.951 -1.7966  0.7119  0.1287
  539SOL    HW2 1617   2.619   0.895   2.007  0.5486 -0.8651  0.3268
  540SOL     OW 1618   1.516   1.157   2.237 -0.3042 -0.8696 -0.4100
  540SOL    HW1 1619   1.502   1.196   2.325  0.4590  0.8071  0.2045
  540SOL    HW2 1620   1.615   1.154   2.213  0.1365  0.8256 -1.9270
  541SOL     OW 1621   0.883   0.830   1.753  0.4087 -0.3217  0.2694
  541SOL    HW1 1622   0.861   0.906   1.818 -0.7083  1.2875  0.5093
  541SOL    HW2 1623   0.806   0.765   1.725 -2.3038 -1.1078  1.1980
  542SOL     OW 1624   1.918   0.206   2.204 -0.4228  0.2427 -0.2121
  542SOL    HW1 1625   1.894   0.200   2.300 -1.3930 -0.4537 -0.5720
  542SOL    HW2 1626   1.910   0.303   2.176 -0.1998 -1.7465 -0.9283
  543SOL     OW 1627   1.125   0.382   0.532 -0.0870 -0.2017 -0.0032
  543SOL    HW1 1628   1.059   0.313   0.497  2.0865  1.6795  0.6808
  543SOL    HW2 1629   1.175   0.429   0.456  1.1258 -1.8941 -1.5493
  544SOL     OW 1630   2.544   1.857   2.023  0.6158 -0.7967 -0.2693
  544SOL    HW1 1631   2.563   1.789   2.095  0.9455 -1.7355  0.1016
  544SOL    HW2 1632   2.560   1.947   2.065 -0.3834  1.2140 -0.3567
  545SOL     OW 1633   1.896   2.344   2.031  0.5177  0.0890  0.1632
  545SOL    HW1 1634   1.889   2.322   2.127  0.2624  1.6453 -1.4806
  545SOL    HW2 1635   1.799   2.335   1.995 -1.2414 -3.0936 -0.1653
  546SOL     OW 1636   0.299   0.093   2.929  0.3477 -0.3516 -0.1293
  546SOL    HW1 1637   0.350   0.030   2.990  1.6051  0.0495 -0.8805
  546SOL    HW2 1638   0.219   0.047   2.889  0.0152 -2.8794 -1.1589
  547SOL     OW 1639   1.887   0.807   0.307 -0.0353  0.2890 -0.0046
  547SOL    HW1 1640   1.866   0.749   0.388  1.6750  0.4022 -1.2295
  547SOL    HW2 1641   1.928   0.894   0.342 -1.0758 -0.8262  0.7127
  548SOL     OW 1642   2.349   1.636   2.220  0.1191 -0.6151  0.2312
  548SOL    HW1 1643   2.370   1.571   2.139  1.4432 -0.1254 -0.8803
  548SOL    HW2 1644   2.419   1.626   2.295  2.5407  0.0554  0.3573
  549SOL     OW 1645   2.014   0.361   0.487  0.1309 -0.1011  0.1406
  549SOL    HW1 1646   2.070   0.389   0.405 -0.0673  0.7364  0.7897
  549SOL    HW2 1647   2.059   0.389   0.574 -0.9968 -0.0759  0.7885
  550SOL     OW 1648   2.352   2.217   0.994 -0.2168 -0.1050 -0.6843
  550SOL    HW1 1649   2.281   2.151   1.014  0.6756  1.4777  0.6343
  550SOL    HW2 1650   2.302   2.308   0.980  0.6274 -0.3402  0.2877
  551SOL     OW 1651   1.231   2.923   1.384 -0.7538  0.1972  1.2433
  551SOL    HW1 1652   1.216   3.022   1.401  1.9184 -1.1636 -0.5861
  551SOL    HW2 1653   1.322   2.887   1.410 -0.5944 -0.0513 -2.4909
  552SOL     OW 1654   2.813   2.235   2.498 -0.9373 -0.6205  0.9544
  552SOL    HW1 1655   2.828   2.178   2.580 -1.5966  1.4273  0.3625
  552SOL    HW2 1656   2.906   2.254   2.453  0.0791 -0.1631  0.8070
  553SOL     OW 1657   0.564   0.091   0.734  0.6062  0.0806  0.3206
  553SOL    HW1 1658   0.569   0.175   0.683 -2.4262 -1.4066  0.3771
  553SOL    HW2 1659   0.470   0.081   0.778 -1.7283  1.9211  2.7985
  554SOL     OW 1660   2.112   2.289   1.830  0.1286  0.3566  0.2225
  554SOL    HW1 1661   2.088   2.325   1.925 -0.9512  1.4844  0.0261
  554SOL    HW2 1662   2.195   2.337   1.792  3.7534  0.8801  0.2701
  555SOL     OW 1663   1.249   2.087   1.833  0.5416  0.5041 -0.3863
  555SOL    HW1 1664   1.159   2.132   1.815 -0.2883  1.2389 -0.8839
  555SOL    HW2 1665   1.256   2.049   1.927 -2.2315 -0.2786  4.5391
  556SOL     OW 1666   1.319   1.479   1.510 -0.5398 -0.0197 -1.1372
  556SOL    HW1 1667   1.312   1.564   1.451 -0.4538 -1.3979  0.4276
  556SOL    HW2 1668   1.360   1.501   1.604  0.7333 -1.6494  2.2058
  557SOL     OW 1669   1.920   2.350   2.334 -0.0938 -1.3347 -0.5097
  557SOL    HW1 1670   1.910   2.274   2.399 -0.4568 -0.9316 -2.3568
  557SOL    HW2 1671   1.824   2.381   2.311 -2.5012 -0.9278  1.2579
  558SOL     OW 1672   0.693   2.942   2.017 -0.4599  0.1447 -0.4111
  558SOL    HW1 1673   0.612   2.933   1.957 -1.2740 -3.0085  0.8197
  558SOL    HW2 1674   0.728   3.036   2.016 -2.4317 -0.5880 -0.1792
  559SOL     OW 1675   2.420   2.767   1.168  0.2184 -0.3869  0.1706
  559SOL    HW1 1676   2.465   2.726   1.248  0.9774 -3.1037  0.1805
  559SOL    HW2 1677   2.487   2.788   1.097 -2.3747 -1.7495  3.9853
  560SOL     OW 1678   1.108   2.326   0.460 -0.3679 -0.2343 -0.2065
  560SOL    HW1 1679   1.130   2.420   0.430  1.6774 -2.6117 -1.2509
  560SOL    HW2 1680   1.009   2.316   0.450  0.4416  0.4407 -0.6849
  561SOL     OW 1681   0.977   0.570   3.063  0.8012  0.0149 -0.1883
  561SOL    HW1 1682   0.899   0.514   0.009  1.0933  2.2096 -0.5206
  561SOL    HW2 1683   0.998   0.650   0.035  1.0825  2.0037  2.3352
  562SOL     OW 1684   0.794   0.217   2.694  0.4049  0.1162 -0.5278
  562SOL    HW1 1685   0.719   0.218   2.762  1.6591  0.3615 -1.9659
  562SOL    HW2 1686   0.879   0.189   2.747  3.4898 -1.5117 -1.1500
  563SOL     OW 1687   1.394   1.692   2.923  0.1160 -0.5303 -0.0314
  563SOL    HW1 1688   1.481   1.681   2.974  0.4706 -0.1142 -1.2088
  563SOL    HW2 1689   1.407   1.753   2.844 -2.6172  0.0895  0.8780
  564SOL     OW 1690   2.479   0.941   0.911 -0.1175 -0.2961 -0.1039
  564SOL    HW1 1691   2.557   1.004   0.935  2.0124  3.3321 -0.0061
  564SOL    HW2 1692   2.448   0.965   0.812  0.7839 -0.7431  0.0710
  565SOL     OW 1693   1.013   0.085   2.817  0.0737 -0.2674 -0.2997
  565SOL    HW1 1694   1.038   0.055   2.911  0.5585 -4.0359 -0.1658
  565SOL    HW2 1695   1.061   0.170   2.784 -3.1226  1.0283  0.2922
  566SOL     OW 1696   1.534   0.087   2.415  0.0649 -0.4355  0.1305
  566SOL    HW1 1697   1.466   0.012   2.422  0.9979 -1.5172  1.3766
  566SOL    HW2 1698   1.628   0.042   2.416 -0.1874  1.7929  0.4021
  567SOL     OW 1699   2.014   1.401   0.701  0.0697  0.6282 -0.5873
  567SOL    HW1 1700   2.084   1.423   0.631  0.0884 -0.1877  0.2623
  567SOL    HW2 1701   2.015   1.467   0.780  4.0659  0.8876  0.1418
  568SOL     OW 1702   1.766   1.995   0.470  0.1199  0.2790 -0.4874
  568SOL    HW1 1703   1.864   2.024   0.484 -0.2980  0.5721  0.8767
  568SOL    HW2 1704   1.712   2.061   0.526  2.2549 -1.2049 -0.7129
  569SOL     OW 1705   2.078   1.215   3.078 -0.3004  0.8123  0.1139
  569SOL    HW1 1706   2.040   1.121   3.071  0.3657 -0.8787 -0.8227
  569SOL    HW2 1707   2.174   1.211   0.022  1.2130  0.4455  0.9575
  570SOL     OW 1708   0.112   2.434   1.589  0.1993 -0.0426 -0.0943
  570SOL    HW1 1709   0.093   2.441   1.487 -0.6611 -1.6138 -1.6923
  570SOL    HW2 1710   0.120   2.524   1.630  5.0102  0.0692  0.0839
  571SOL     OW 1711   0.121   0.429   2.199 -0.3352 -0.0224 -0.2845
  571SOL    HW1 1712   0.204   0.462   2.252  1.2503 -0.9157 -0.0382
  571SOL    HW2 1713   0.038   0.418   2.262  2.1874  0.8572  0.3552
  572SOL     OW 1714   1.165   1.526   0.957  0.1791  0.7923 -0.1049
  572SOL    HW1 1715   1.156   1.555   1.053  0.0652  0.5735 -2.0951
  572SOL    HW2 1716   1.070   1.531   0.916 -1.6966  0.4566  1.4448
  573SOL     OW 1717   0.971   1.960   0.116  0.2552  0.5219  0.2609
  573SOL    HW1 1718   1.018   1.960   0.024 -0.7117 -0.4412  0.1280
  573SOL    HW2 1719   1.025   2.012   0.178  0.0566 -0.1785  0.1520
  574SOL     OW 1720   1.095   2.874   0.644  0.7831  0.0548  0.5304
  574SOL    HW1 1721   1.019   2.813   0.675  1.2057 -0.1795  0.0996
  574SOL    HW2 1722   1.077   2.966   0.683  0.4639 -1.1659 -1.9074
  575SOL     OW 1723   3.039   0.958   1.526  0.0497 -0.4912 -0.0198
  575SOL    HW1 1724   3.017   0.968   1.429 -0.0545 -0.8864  4.6469
  575SOL    HW2 1725   0.005   1.041   1.561  1.3295  3.5784  2.1460
  576SOL     OW 1726   1.817   0.137   1.263  0.4146  0.4218 -0.5179
  576SOL    HW1 1727   1.818   0.093   1.353 -0.3399  0.7694  0.9874
  576SOL    HW2 1728   1.748   0.094   1.205  0.4892  3.3245  3.3141
  577SOL     OW 1729   0.547   0.930   2.006 -0.1977 -0.1863 -0.2137
  577SOL    HW1 1730   0.602   0.845   1.999 -1.3565  1.2660 -1.0301
  577SOL    HW2 1731   0.487   0.925   2.087 -2.7546  2.7152  0.1855
  578SOL     OW 1732   2.065   0.494   2.392 -0.2862 -0.0791 -0.7198
  578SOL    HW1 1733   2.098   0.413   2.446  1.4335 -1.2296  0.6255
  578SOL    HW2 1734   2.120   0.577   2.416  0.9755  0.2208 -1.0931
  579SOL     OW 1735   2.474   2.273   1.545  0.3065 -0.2915  0.8720
  579SOL    HW1 1736   2.539   2.248   1.466 -0.6341  0.2803 -3.5176
  579SOL    HW2 1737   2.378   2.278   1.500  0.4555  0.5779 -1.5975
  580SOL     OW 1738   2.017   1.133   2.651 -0.0940  0.1628  0.2113
  580SOL    HW1 1739   1.945   1.137   2.726  2.0324 -2.2844 -2.4779
  580SOL    HW2 1740   1.980   1.078   2.577 -0.9399  2.7375  2.5998
  581SOL     OW 1741   1.372   1.063   2.907  0.5909  0.0107  0.1057
  581SOL    HW1 1742   1.276   1.060   2.942  0.5280  0.7275 -0.7613
  581SOL    HW2 1743   1.384   1.020   2.819  2.1448  3.8672 -0.5173
  582SOL     OW 1744   1.108   1.296   1.596  0.1186  0.4901  0.1542
  582SOL    HW1 1745   1.069   1.240   1.523 -0.4662  0.2779  2.2579
  582SOL    HW2 1746   1.184   1.351   1.553 -1.1713  1.6078  0.8806
  583SOL     OW 1747   1.605   1.300   1.486 -0.2645 -0.0361  0.4774
  583SOL    HW1 1748   1.538   1.223   1.501 -1.6183 -0.1535  0.0362
  583SOL    HW2 1749   1.600   1.338   1.392  2.1248 -2.4207  0.3076
  584SOL     OW 1750   1.718   2.523   0.657  0.2904  0.6009  0.1746
  584SOL    HW1 1751   1.618   2.498   0.670 -0.0927 -0.2833 -0.2446
  584SOL    HW2 1752   1.770   2.539   0.747  0.9317  0.4186  0.4329
  585SOL     OW 1753   2.021   2.665   2.876  0.6531  0.3287 -0.0908
  585SOL    HW1 1754   1.998   2.757   2.836 -0.7301  1.2279 -0.3760
  585SOL    HW2 1755   2.120   2.653   2.878  0.2240 -1.0064 -0.5613
  586SOL     OW 1756   2.732   2.367   0.866  0.7794  0.6544  0.2943
  586SOL    HW1 1757   2.686   2.458   0.890  0.3408  1.8799  0.5102
  586SOL    HW2 1758   2.691   2.287   0.916  0.1161  0.5575 -0.0810
  587SOL     OW 1759   0.894   1.671   0.190  0.9261  0.0613  0.1990
  587SOL    HW1 1760   0.929   1.757   0.149 -1.0506  2.8593  1.5388
  587SOL    HW2 1761   0.869   1.607   0.114 -1.1236  1.5106 -0.3432
  588SOL     OW 1762   0.741   0.155   0.955  0.1556 -0.1869  0.0102
  588SOL    HW1 1763   0.783   0.078   1.010 -0.8599 -1.2695 -0.9177
  588SOL    HW2 1764   0.767   0.136   0.861 -0.3933 -2.3704  4.6310
  589SOL     OW 1765   1.344   0.682   0.755 -0.1574  0.4731 -0.0033
  589SOL    HW1 1766   1.322   0.681   0.655  2.7668 -1.0684  1.8004
  589SOL    HW2 1767   1.354   0.589   0.798 -0.4223  1.3786  1.4984
  590SOL     OW 1768   1.482   2.970   3.061  0.1115 -0.1422 -0.3943
  590SOL    HW1 1769   1.492   2.931   2.969 -0.8170 -1.1035  1.2685
  590SOL    HW2 1770   1.411   2.916   0.019 -1.1295 -0.0273 -0.7104
  591SOL     OW 1771   0.138   2.409   2.560 -0.2521  0.0516 -0.5491
  591SOL    HW1 1772   0.239   2.412   2.543  3.1693  0.6221  0.6597
  591SOL    HW2 1773   0.100   2.506   2.563 -1.5692  3.2357  0.4468
  592SOL     OW 1774   2.881   1.575   2.012 -0.0152 -0.1790 -0.4618
  592SOL    HW1 1775   2.785   1.555   1.973 -2.0078 -2.2682  0.0583
  592SOL    HW2 1776   2.937   1.491   2.023 -0.3206  0.5741 -0.4977
  593SOL     OW 1777   1.639   1.572   1.528 -0.2032  0.4770  0.0175
  593SOL    HW1 1778   1.622   1.470   1.519 -0.7608 -1.1260 -0.5819
  593SOL    HW2 1779   1.572   1.596   1.601  0.9765 -0.6656 -1.2702
  594SOL     OW 1780   2.696   1.355   0.187  0.2214  0.4752 -0.2763
  594SOL    HW1 1781   2.791   1.343   0.144  0.9896  1.6672 -2.1898
  594SOL    HW2 1782   2.647   1.274   0.157  2.2173  2.5245 -0.8408
  595SOL     OW 1783   0.827   0.669   0.461 -0.4651  0.2537 -0.0767
  595SOL    HW1 1784   0.751   0.732   0.430 -0.1758 -0.0256 -2.3130
  595SOL    HW2 1785   0.901   0.723   0.517  1.3181  3.1269  3.0179
  596SOL     OW 1786   0.002   1.439   1.468 -0.2906  0.0451 -0.3005
  596SOL    HW1 1787   0.037   1.463   1.378 -0.7496 -1.0865  1.0907
  596SOL    HW2 1788   3.049   1.523   1.512 -0.7468 -0.5879 -1.7376
  597SOL     OW 1789   1.007   1.883   1.141 -0.1686 -0.4287  0.3087
  597SOL    HW1 1790   1.016   1.967   1.202  1.6303  0.8097 -0.3173
  597SOL    HW2 1791   1.069   1.898   1.062 -1.1570 -0.5471 -1.1295
  598SOL     OW 1792   0.096   3.063   1.896 -0.0054  0.9251 -0.0899
  598SOL    HW1 1793   0.128   2.967   1.906 -0.4818  4.2239 -0.5174
  598SOL    HW2 1794   3.081   3.057   1.886 -1.6735  1.4118 -2.3254
  599SOL     OW 1795   0.326   1.479   2.638  0.1693  0.5028 -0.4300
  599SOL    HW1 1796   0.288   1.558   2.693 -2.6000  0.7802  1.1193
  599SOL    HW2 1797   0.300   1.498   2.540  1.9195 -0.3947 -0.3588
  600SOL     OW 1798   0.513   0.846   2.905  0.3738 -0.4649 -0.0481
  600SOL    HW1 1799   0.516   0.827   2.804  1.0224  1.1804 -0.5241
  600SOL    HW2 1800   0.533   0.771   2.973  0.8794 -0.2446 -0.5452
  601SOL     OW 1801   0.501   0.652   1.691 -0.5715 -0.0511 -0.3390
  601SOL    HW1 1802   0.436   0.702   1.750  0.9560 -0.3715 -0.1550
  601SOL    HW2 1803   0.516   0.556   1.724  1.9429  1.1650  1.2064
  602SOL     OW 1804   0.433   3.033   0.013  0.1646 -0.2405  0.3582
  602SOL    HW1 1805   0.522   2.988   0.014  1.5638  1.1739 -1.3613
  602SOL    HW2 1806   0.390   3.034   0.105  0.7070 -1.8152  0.7308
  603SOL     OW 1807   1.581   2.365   2.570 -0.3904 -0.0781 -0.1052
  603SOL    HW1 1808   1.648   2.329   2.639 -0.3965  0.8434  0.2173
  603SOL    HW2 1809   1.494   2.395   2.619 -0.3283 -0.8780  0.3374
  604SOL     OW 1810   0.260   2.408   2.831  0.1443  0.2178 -1.1010
  604SOL    HW1 1811   0.221   2.368   2.917 -0.9638  1.5824  3.8854
  604SOL    HW2 1812   0.211   2.373   2.750  0.0622  0.2111  0.2470
  605SOL     OW 1813   2.349   0.934   1.323  0.2846 -0.3062  0.3843
  605SOL    HW1 1814   2.317   0.966   1.229 -0.0111 -0.7271 -0.1378
  605SOL    HW2 1815   2.277   0.865   1.353 -0.4531 -1.5751 -1.0420
  606SOL     OW 1816   0.938   1.048   2.694 -0.0304 -0.1318 -0.4882
  606SOL    HW1 1817   0.973   1.124   2.754 -1.9911  3.1874 -1.7949
  606SOL    HW2 1818   0.908   0.971   2.753  0.4000 -1.2023  1.0176
  607SOL     OW 1819   0.746   0.563   1.102 -0.1376 -0.0838  1.0887
  607SOL    HW1 1820   0.725   0.597   1.198 -2.6315  0.1936  1.4935
  607SOL    HW2 1821   0.799   0.475   1.110  0.3100  0.1157  1.9432
  608SOL     OW 1822   2.980   1.783   1.883  0.5720 -0.7129 -0.1916
  608SOL    HW1 1823   2.932   1.708   1.933  0.8621 -0.6775 -1.6446
  608SOL    HW2 1824   2.903   1.845   1.847  1.3733  1.5413 -3.6350
  609SOL     OW 1825   2.414   0.465   0.419  0.0863  0.3206  0.8539
  609SOL    HW1 1826   2.327   0.480   0.369  0.7385 -0.5049 -0.1237
  609SOL    HW2 1827   2.445   0.555   0.453 -1.8110  1.0121 -1.9288
  610SOL     OW 1828   0.265   2.706   1.249  0.0797  0.2839  0.2447
  610SOL    HW1 1829   0.310   2.755   1.325 -0.2274  1.0132  0.6872
  610SOL    HW2 1830   0.164   2.727   1.243 -1.0293 -0.7695 -2.4634
  611SOL     OW 1831   1.475   2.013   0.124  0.2232 -0.5657  0.5137
  611SOL    HW1 1832   1.577   2.025   0.118 -1.2862  1.6711 -3.3213
  611SOL    HW2 1833   1.443   1.925   0.169  0.2180 -1.6402 -0.9052
  612SOL     OW 1834   0.578   0.210   2.053 -0.3304 -0.2292 -0.3039
  612SOL    HW1 1835   0.676   0.208   2.023  1.8478 -0.3352  1.4700
  612SOL    HW2 1836   0.530   0.297   2.031  0.5705  1.2688  1.7332
  613SOL     OW 1837   0.356   2.137   0.838 -0.1518  0.4076  0.1149
  613SOL    HW1 1838   0.371   2.058   0.902  1.0898 -1.5424  3.1017
  613SOL    HW2 1839   0.444   2.181   0.824 -3.8419 -1.5347  0.0573
  614SOL     OW 1840   1.882   0.039   1.865  0.0324  0.7783 -0.1767
  614SOL    HW1 1841   1.979   0.055   1.847 -0.9030 -2.5118 -0.5522
  614SOL    HW2 1842   1.829   0.036   1.778  2.5618  0.2657 -0.1644
  615SOL     OW 1843   1.576   1.431   0.721 -0.1643 -0.2367  1.1209
  615SOL    HW1 1844   1.615   1.368   0.793  0.5176 -0.4980 -1.7503
  615SOL    HW2 1845   1.495   1.387   0.680  0.9928  1.0201  0.2283
  616SOL     OW 1846   1.839   1.498   0.275 -0.7218  0.3821 -0.6748
  616SOL    HW1 1847   1.775   1.510   0.356 -1.3134 -0.6740  0.9389
  616SOL    HW2 1848   1.849   1.585   0.220  0.0580 -4.7467 -1.3886
  617SOL     OW 1849   1.539   0.787   3.012  0.3588 -0.2886  0.0378
  617SOL    HW1 1850   1.602   0.822   3.084 -1.4682 -0.1812 -2.6093
  617SOL    HW2 1851   1.586   0.792   2.924 -0.1815 -1.2912  1.9839
  618SOL     OW 1852   0.679   0.659   1.982 -0.2582 -0.5877 -0.3903
  618SOL    HW1 1853   0.782   0.663   2.015  0.3363  1.3285 -1.6725
  618SOL    HW2 1854   0.626   0.577   2.016 -2.6380 -0.3030 -1.7524
  619SOL     OW 1855   2.970   1.685   1.485 -0.1104  0.2611 -0.2737
  619SOL    HW1 1856   2.954   1.783   1.501  1.6703 -2.4327  0.7306
  619SOL    HW2 1857   2.944   1.653   1.393  0.7065  0.9382  2.5422
  620SOL     OW 1858   2.619   2.874   2.715 -0.5838  0.2163  0.0342
  620SOL    HW1 1859   2.624   2.856   2.610  0.2851  2.3057 -2.7371
  620SOL    HW2 1860   2.526   2.838   2.746  0.8710  0.4276  2.2065
  621SOL     OW 1861   2.408   1.998   3.059  0.3097 -0.8196  0.1805
  621SOL    HW1 1862   2.409   1.916   0.031  0.4230  2.2121 -0.3034
  621SOL    HW2 1863   2.427   2.089   0.020 -0.0458  3.2632  0.7769
  622SOL     OW 1864   1.370   0.384   2.581 -0.0027 -0.1681 -0.2946
  622SOL    HW1 1865   1.457   0.345   2.608 -2.9311  1.3420 -2.9765
  622SOL    HW2 1866   1.385   0.488   2.579 -0.1958  0.9065  0.1684
  623SOL     OW 1867   0.691   1.647   1.556  0.5436  0.3299 -0.1806
  623SOL    HW1 1868   0.754   1.598   1.485  3.8701  1.1722 -1.3641
  623SOL    HW2 1869   0.721   1.635   1.654  2.9548  0.8451  0.2264
  624SOL     OW 1870   2.902   3.083   0.295  0.0357 -0.1971 -0.3715
  624SOL    HW1 1871   2.940   3.085   0.203 -1.2570  1.1686  0.0856
  624SOL    HW2 1872   2.931   0.068   0.352 -0.6975 -1.9861  1.1941
  625SOL     OW 1873   0.808   2.014   0.605  0.5924 -0.2795 -0.3357
  625SOL    HW1 1874   0.894   1.961   0.587  1.3673 -0.6527  1.2654
  625SOL    HW2 1875   0.748   2.014   0.523  1.1036 -0.8380  0.4375
  626SOL     OW 1876   2.735   0.830   2.556 -0.1288 -0.4655  0.0600
  626SOL    HW1 1877   2.738   0.751   2.619  0.8634  0.1552 -4.2512
  626SOL    HW2 1878   2.782   0.914   2.591 -0.9871 -1.5722  0.7821
  627SOL     OW 1879   1.142   1.983   2.934  0.1027  0.1739  0.2016
  627SOL    HW1 1880   1.239   2.002   2.938 -2.5213 -0.5756  0.5644
  627SOL    HW2 1881   1.136   1.883   2.951  0.3760  1.2866  0.9284
  628SOL     OW 1882   2.889   2.507   2.786  0.0198  0.1460 -0.5152
  628SOL    HW1 1883   2.968   2.525   2.724 -1.7737  0.6189  1.3023
  628SOL    HW2 1884   2.816   2.575   2.761  0.8184  0.0876  1.8175
  629SOL     OW 1885   0.755   2.871   2.734  0.0217  0.1731 -0.1372
  629SOL    HW1 1886   0.844   2.840   2.764  0.9492  2.6174 -3.2101
  629SOL    HW2 1887   0.763   2.906   2.636 -1.9554 -1.5581 -1.1864
  630SOL     OW 1888   1.191   0.245   1.880  0.2309 -0.2806 -0.2027
  630SOL    HW1 1889   1.168   0.190   1.800 -0.2616 -1.4250 -0.2503
  630SOL    HW2 1890   1.130   0.236   1.959  1.7842  1.0584 -1.0331
  631SOL     OW 1891   2.034   1.024   0.413  0.2588  0.2759  0.6461
  631SOL    HW1 1892   2.126   1.018   0.459  0.9189  0.5081 -0.8746
  631SOL    HW2 1893   1.978   1.091   0.465  0.7384 -2.0985 -1.1069
  632SOL     OW 1894   2.528   0.182   1.683  0.0444 -0.2286  0.2172
  632SOL    HW1 1895   2.480   0.167   1.595 -1.0887  0.5517  1.8590
  632SOL    HW2 1896   2.630   0.197   1.677 -0.8839 -1.4605  0.8998
  633SOL     OW 1897   1.133   1.240   0.533  0.4945  0.0695 -0.4177
  633SOL    HW1 1898   1.061   1.249   0.604  0.5869  0.4673 -0.8617
  633SOL    HW2 1899   1.123   1.146   0.497  0.4443 -0.4668  0.1052
  634SOL     OW 1900   2.686   2.780   2.427  0.4660 -0.0025  0.1883
  634SOL    HW1 1901   2.722   2.690   2.394  0.1763  0.8656 -0.4899
  634SOL    HW2 1902   2.700   2.847   2.355 -3.1788 -2.3336  2.0544
  635SOL     OW 1903   1.844   0.639   0.498  0.3324 -0.5182 -0.4434
  635SOL    HW1 1904   1.901   0.553   0.497  0.2235  0.4549  3.3645
  635SOL    HW2 1905   1.751   0.621   0.523  2.8187 -1.1144 -1.5962
  636SOL     OW 1906   0.763   1.096   0.585  0.3715 -0.3167  0.3920
  636SOL    HW1 1907   0.677   1.095   0.639 -1.8678  3.1395 -0.2994
  636SOL    HW2 1908   0.756   1.148   0.493 -0.0237 -0.5959  0.4956
  637SOL     OW 1909   2.455   2.141   0.226  0.1509  0.0407 -0.9479
  637SOL    HW1 1910   2.498   2.049   0.245  0.7695  0.8444  3.0575
  637SOL    HW2 1911   2.516   2.213   0.268 -1.1162  0.4770  0.4083
  638SOL     OW 1912   1.647   2.394   2.317 -0.2320  0.6501  0.3164
  638SOL    HW1 1913   1.563   2.388   2.259  0.6686 -0.6639  0.0342
  638SOL    HW2 1914   1.618   2.370   2.412 -0.6069  3.7469 -1.2506
  639SOL     OW 1915   1.377   2.055   0.677 -0.1703  0.1921 -0.2859
  639SOL    HW1 1916   1.334   2.113   0.752 -2.4384  1.0137  1.9684
  639SOL    HW2 1917   1.419   1.969   0.721  1.5160  0.5957  0.8719
  640SOL     OW 1918   2.041   0.074   0.523 -0.0939  0.2615 -0.1661
  640SOL    HW1 1919   2.113   0.048   0.459  0.3956  0.9277 -1.9924
  640SOL    HW2 1920   2.021   0.173   0.516 -0.2225 -0.8979 -0.6624
  641SOL     OW 1921   2.919   0.454   0.021  0.3912  0.2392  0.1666
  641SOL    HW1 1922   2.847   0.456   0.093  0.3382 -0.2431  0.9095
  641SOL    HW2 1923   2.892   0.394   3.030 -0.4785 -0.8620 -1.7157
  642SOL     OW 1924   0.519   0.795   1.208 -0.1779 -0.3831  0.0553
  642SOL    HW1 1925   0.538   0.697   1.219  1.7207 -1.0812 -1.3598
  642SOL    HW2 1926   0.464   0.835   1.289 -2.4669 -1.4989  1.9706
  643SOL     OW 1927   0.736   1.208   2.280 -0.0221  0.3518  0.4866
  643SOL    HW1 1928   0.756   1.115   2.313 -2.1669  1.4209  0.4201
  643SOL    HW2 1929   0.637   1.221   2.253 -1.4255 -0.0228  0.6411
  644SOL     OW 1930   1.396   2.237   0.461 -0.2855 -0.0200 -1.2907
  644SOL    HW1 1931   1.305   2.254   0.416 -2.3705 -0.8884 -3.8462
  644SOL    HW2 1932   1.406   2.155   0.521  0.0900 -2.3881  0.3821
  645SOL     OW 1933   1.269   1.962   0.461  0.1010  0.2921  0.0360
  645SOL    HW1 1934   1.334   1.899   0.411  1.3735 -2.0769  1.6432
  645SOL    HW2 1935   1.299   1.985   0.561  1.7638  2.1318  4.3929
  646SOL     OW 1936   3.067   1.732   2.633 -0.1965 -0.4885 -0.7201
  646SOL    HW1 1937   3.016   1.687   2.556  1.6877 -1.5891  1.0910
  646SOL    HW2 1938   3.086   1.825   2.603  0.2338 -0.8914  0.7280
  647SOL     OW 1939   0.913   0.347   1.032 -0.0477  0.6751  0.0982
  647SOL    HW1 1940   0.825   0.294   1.032 -1.4065 -0.3274  2.1350
  647SOL    HW2 1941   0.971   0.319   0.955 -1.3796  1.8513  0.3704
  648SOL     OW 1942   1.660   0.505   1.047 -0.5828  0.2172 -0.1543
  648SOL    HW1 1943   1.657   0.564   0.965  1.9967 -1.0087  1.4192
  648SOL    HW2 1944   1.761   0.488   1.068  1.9441 -0.8045  0.7901
  649SOL     OW 1945   0.976   1.641   0.463 -0.0754  0.2105  1.0572
  649SOL    HW1 1946   0.939   1.668   0.370  3.7013 -1.0751  1.0624
  649SOL    HW2 1947   1.066   1.590   0.451 -1.3766  0.1159  0.2165
  650SOL     OW 1948   2.420   1.608   1.961 -0.4388  0.1638 -0.1401
  650SOL    HW1 1949   2.447   1.710   1.973  1.7531  3.8528  1.4782
  650SOL    HW2 1950   2.368   1.595   1.872  0.3354 -0.7111 -1.3272
  651SOL     OW 1951   1.643   2.085   2.824  0.0152 -0.1868  0.1417
  651SOL    HW1 1952   1.710   2.155   2.788 -0.5632  1.7101 -0.5496
  651SOL    HW2 1953   1.635   2.010   2.758  0.6335  4.3464 -1.2302
  652SOL     OW 1954   2.418   1.787   0.154 -0.2080  0.1027 -0.1047
  652SOL    HW1 1955   2.457   1.702   0.106  0.1967  0.0336 -2.6722
  652SOL    HW2 1956   2.485   1.828   0.217 -1.2822  0.5547 -1.7717
  653SOL     OW 1957   0.262   0.306   0.639 -0.0902  0.2608 -0.0608
  653SOL    HW1 1958   0.361   0.314   0.629  0.8065  3.7480 -3.8734
  653SOL    HW2 1959   0.232   0.245   0.717  0.7765 -1.6712  2.9902
  654SOL     OW 1960   2.678   3.057   2.252 -0.2355  0.0118  0.2687
  654SOL    HW1 1961   2.772   3.045   2.211  1.0911  0.7333  0.6488
  654SOL    HW2 1962   2.604   3.072   2.183  0.3715 -0.1514  0.3194
  655SOL     OW 1963   0.806   2.629   0.969  0.2518 -0.2182 -0.2040
  655SOL    HW1 1964   0.717   2.665   1.002  2.1007  0.7776 -0.1459
  655SOL    HW2 1965   0.809   2.526   0.958 -1.1616 -0.5365  3.4029
  656SOL     OW 1966   0.005   0.044   2.864  0.2132  0.1801  0.2683
  656SOL    HW1 1967   0.000   0.036   2.759  0.3394  0.4966 -0.7308
  656SOL    HW2 1968   0.055   3.053   2.901 -2.0299 -1.2942  2.3115
  657SOL     OW 1969   0.051   1.176   3.057 -0.7042  0.1114  0.3425
  657SOL    HW1 1970   0.122   1.228   3.007 -0.6795  0.9610  1.0641
  657SOL    HW2 1971   0.070   1.077   3.038  0.6799 -0.9418  1.0295
  658SOL     OW 1972   2.436   1.915   1.336 -0.0516 -0.2661 -0.2073
  658SOL    HW1 1973   2.342   1.948   1.359  1.4141  0.8445 -0.5053
  658SOL    HW2 1974   2.472   1.859   1.409 -0.0515 -0.1131 -0.4360
  659SOL     OW 1975   1.711   2.701   0.157  0.1113 -0.6463  0.1878
  659SOL    HW1 1976   1.688   2.626   0.222 -0.6497 -1.9259 -1.0655
  659SOL    HW2 1977   1.724   2.663   0.066 -1.3356  1.7275 -0.8671
  660SOL     OW 1978   1.643   1.064   2.646  0.3958 -0.2838 -0.0749
  660SOL    HW1 1979   1.676   1.122   2.725  0.2705  0.4168 -0.6976
  660SOL    HW2 1980   1.717   1.057   2.573  2.7656 -2.4764  0.8111
  661SOL     OW 1981   0.196   2.232   1.202 -0.3203 -0.2929  0.1356
  661SOL    HW1 1982   0.220   2.287   1.121 -0.8185 -1.7716  2.6602
  661SOL    HW2 1983   0.113   2.170   1.187 -1.2658  1.4755  1.0373
  662SOL     OW 1984   0.329   0.634   0.087  0.3384 -0.2636  0.6014
  662SOL    HW1 1985   0.281   0.710   0.131 -0.0081 -0.1479  0.2286
  662SOL    HW2 1986   0.333   0.556   0.151 -0.1172  0.3417 -1.7130
  663SOL     OW 1987   2.178   1.958   1.412 -0.2125 -0.2854 -0.1531
  663SOL    HW1 1988   2.129   2.042   1.428  0.0154 -2.8392 -0.9799
  663SOL    HW2 1989   2.113   1.880   1.389 -2.4367  0.3522 -0.0925
  664SOL     OW 1990   0.834   1.558   1.339  0.7397  0.3314 -0.0604
  664SOL    HW1 1991   0.761   1.559   1.269  1.0547 -2.4799  1.9509
  664SOL    HW2 1992   0.925   1.590   1.310  2.6023 -1.3907 -0.2530
  665SOL     OW 1993   1.738   2.697   2.020  0.0011  0.1310 -0.1249
  665SOL    HW1 1994   1.729   2.757   2.098  0.3985 -1.6023  1.0499
  665SOL    HW2 1995   1.669   2.622   2.025 -0.9847  1.6246  0.4938
  666SOL     OW 1996   2.769   2.871   0.161 -0.4030 -0.6441 -0.2318
  666SOL    HW1 1997   2.669   2.895   0.156  0.4759  0.3558  2.6515
  666SOL    HW2 1998   2.814   2.892   0.252  2.0605 -1.0152  0.2094
  667SOL     OW 1999   2.664   1.374   1.611  0.4531  0.1636  0.4615
  667SOL    HW1 2000   2.682   1.313   1.528 -2.7727 -0.8326 -0.2688
  667SOL    HW2 2001   2.654   1.323   1.694 -0.5262 -1.7965 -1.8930
  668SOL     OW 2002   0.136   0.612   2.422  0.5643 -0.3126 -0.1067
  668SOL    HW1 2003   0.110   0.693   2.474 -1.8732  0.2523 -2.0503
  668SOL    HW2 2004   0.048   0.560   2.421  0.8370  0.0881  2.2062
  669SOL     OW 2005   2.327   1.968   2.466  0.8398  0.5023  0.2530
  669SOL    HW1 2006   2.392   2.046   2.439 -0.4145  0.3700  0.6139
  669SOL    HW2 2007   2.286   1.924   2.383 -0.9037  1.6812 -0.4262
  670SOL     OW 2008   2.664   1.516   1.874 -0.1767 -0.2720  0.6539
  670SOL    HW1 2009   2.577   1.536   1.920  0.1832 -0.3629  3.6847
  670SOL    HW2 2010   2.676   1.567   1.784 -1.4161  1.9507  1.1315
  671SOL     OW 2011   2.991   1.611   0.790  0.0967  0.7005 -0.1009
  671SOL    HW1 2012   3.057   1.574   0.718  1.9530  0.1231  0.7991
  671SOL    HW2 2013   2.893   1.609   0.756 -0.8327  0.1189 -0.5917
  672SOL     OW 2014   2.277   0.760   2.049 -0.2731 -0.4685  0.3733
  672SOL    HW1 2015   2.216   0.774   1.971 -0.2022 -2.2224  1.5212
  672SOL    HW2 2016   2.377   0.770   2.018  0.0878 -1.4814 -0.8131
  673SOL     OW 2017   2.454   2.796   1.883  0.1296 -0.3696  0.3296
  673SOL    HW1 2018   2.469   2.895   1.855  0.0177  0.8997  0.3836
  673SOL    HW2 2019   2.357   2.773   1.896 -3.0676  1.5993 -1.4336
  674SOL     OW 2020   1.932   2.661   1.592  0.3229  0.0619  0.1302
  674SOL    HW1 2021   1.870   2.717   1.645  1.5653  0.4434 -2.4742
  674SOL    HW2 2022   1.945   2.568   1.637  0.7581  1.9087 -1.2270
  675SOL     OW 2023   0.796   0.849   0.736 -0.4480 -0.4835  0.0586
  675SOL    HW1 2024   0.746   0.870   0.824 -0.9019  1.8368 -0.8332
  675SOL    HW2 2025   0.765   0.902   0.654 -2.4310  0.9974 -0.5095
  676SOL     OW 2026   1.711   1.106   0.662  0.1485 -0.6350 -0.2677
  676SOL    HW1 2027   1.661   1.031   0.616 -1.9729 -2.3217 -0.9728
  676SOL    HW2 2028   1.773   1.159   0.596 -0.9332  1.2723 -1.8328
  677SOL     OW 2029   2.780   1.422   2.312  0.1492 -0.1987  0.1783
  677SOL    HW1 2030   2.717   1.397   2.230  0.2660  0.0333 -2.7558
  677SOL    HW2 2031   2.846   1.350   2.330 -2.0766  1.1824 -0.6760
  678SOL     OW 2032   2.607   1.913   1.115 -0.3329  0.3898 -0.3143
  678SOL    HW1 2033   2.688   1.918   1.178 -1.2309  1.4924 -1.8619
  678SOL    HW2 2034   2.519   1.914   1.170  0.3866 -2.7664  0.9632
  679SOL     OW 2035   2.057   2.511   0.469  0.5559 -0.7612  0.4314
  679SOL    HW1 2036   2.122   2.460   0.408 -1.5043  0.6120  2.6428
  679SOL    HW2 2037   2.096   2.550   0.556 -2.1483 -0.4463  3.3545
  680SOL     OW 2038   2.717   2.218   1.861 -0.0264  0.1532  0.0051
  680SOL    HW1 2039   2.772   2.303   1.880 -0.6222  1.8662  2.1933
  680SOL    HW2 2040   2.667   2.229   1.770 -2.4321 -0.3385 -0.2284
  681SOL     OW 2041   0.359   1.214   1.593  0.5385  0.0378 -0.3132
  681SOL    HW1 2042   0.417   1.132   1.596 -0.5996  0.8473  0.1131
  681SOL    HW2 2043   0.404   1.302   1.621 -0.6387  0.1700 -0.9649
  682SOL     OW 2044   1.376   2.888   0.607 -0.7904 -0.2300  0.0787
  682SOL    HW1 2045   1.276   2.874   0.621 -0.7209  0.0411 -2.5501
  682SOL    HW2 2046   1.395   2.840   0.522  0.6446 -1.1162  1.8390
  683SOL     OW 2047   2.234   1.383   0.911 -0.2642 -0.2888 -0.0886
  683SOL    HW1 2048   2.294   1.368   1.001  0.9280 -1.8867  0.9705
  683SOL    HW2 2049   2.201   1.296   0.876  1.6202 -0.2375  0.2636
  684SOL     OW 2050   0.507   2.190   2.118 -0.5571  0.1645 -0.2073
  684SOL    HW1 2051   0.439   2.169   2.190  1.1609  0.8264 -4.0681
  684SOL    HW2 2052   0.457   2.208   2.029 -2.4269 -1.6504 -0.9246
  685SOL     OW 2053   1.636   1.627   0.008 -0.7717  0.5895 -0.5323
  685SOL    HW1 2054   1.716   1.688   0.026 -0.5466  1.0794  0.5897
  685SOL    HW2 2055   1.657   1.531   0.029  0.7202 -1.1399 -1.4543
  686SOL     OW 2056   3.028   0.623   1.224  0.3653  0.6669  0.4659
  686SOL    HW1 2057   2.945   0.622   1.286 -0.6156  2.2688  2.4554
  686SOL    HW2 2058   0.006   0.696   1.244 -1.9225  0.4474 -2.2202
  687SOL     OW 2059   0.925   2.420   2.987 -0.3034  0.3724 -0.3840
  687SOL    HW1 2060   0.901   2.510   3.026  1.8777 -3.5677 -1.1189
  687SOL    HW2 2061   0.845   2.359   2.992 -1.7848  0.5653 -0.9483
  688SOL     OW 2062   0.116   2.083   1.918  0.5258 -0.6936 -0.1244
  688SOL    HW1 2063   0.047   2.134   1.864  0.7371 -0.1336  0.5082
  688SOL    HW2 2064   0.085   2.039   2.004 -0.0923 -2.7565 -2.1118
  689SOL     OW 2065   1.838   0.901   1.874 -0.7381  0.3092 -0.0868
  689SOL    HW1 2066   1.778   0.836   1.927 -1.4014  0.6918 -0.7249
  689SOL    HW2 2067   1.813   0.999   1.888 -2.1223  0.5305 -0.4260
  690SOL     OW 2068   2.403   0.686   0.999 -0.3015 -0.7565  0.3476
  690SOL    HW1 2069   2.467   0.621   1.051  0.3020  2.2007 -0.1413
  690SOL    HW2 2070   2.445   0.779   0.994  2.1397 -1.5354  1.7571
  691SOL     OW 2071   0.856   1.748   1.772 -0.2282 -0.2836  0.2603
  691SOL    HW1 2072   0.881   1.833   1.819 -1.2913 -3.5607 -1.3928
  691SOL    HW2 2073   0.938   1.700   1.739 -0.0565  1.2879  0.2302
  692SOL     OW 2074   2.296   0.349   1.429 -0.1261 -0.4805 -0.2383
  692SOL    HW1 2075   2.213   0.341   1.490 -2.3782 -1.7000  0.5222
  692SOL    HW2 2076   2.262   0.345   1.328 -2.0012  1.2493 -0.8046
  693SOL     OW 2077   0.466   1.208   2.224  0.3684 -0.5064 -0.0486
  693SOL    HW1 2078   0.442   1.110   2.216 -1.0146 -1.6991 -0.7596
  693SOL    HW2 2079   0.420   1.262   2.149  0.0508 -0.9599  0.0673
  694SOL     OW 2080   1.636   3.071   1.117 -1.5397  0.7210 -0.5702
  694SOL    HW1 2081   1.622   0.020   1.021 -1.6171 -1.9629  3.1669
  694SOL    HW2 2082   1.717   3.002   1.126  1.5298 -1.8716  1.5976
  695SOL     OW 2083   1.176   1.004   1.910  0.6612 -0.9110  0.3209
  695SOL    HW1 2084   1.202   0.997   1.815  0.0851  1.1835  3.9727
  695SOL    HW2 2085   1.261   0.996   1.968 -0.2975 -0.9066  0.1237
  696SOL     OW 2086   1.427   0.062   0.575 -0.1294  0.5790  0.2256
  696SOL    HW1 2087   1.363   0.120   0.631  0.1364  1.8226 -1.3280
  696SOL    HW2 2088   1.410   3.048   0.585  0.6828  0.0812  3.2158
  697SOL     OW 2089   1.074   0.428   0.815  0.4315 -0.5554  0.2942
  697SOL    HW1 2090   0.992   0.484   0.821 -1.3928 -1.2277  0.3998
  697SOL    HW2 2091   1.098   0.399   0.719  1.5666  0.4774 -3.1420
  698SOL     OW 2092   1.235   1.177   2.613 -0.1515  0.1945  0.3784
  698SOL    HW1 2093   1.174   1.215   2.681  0.5589 -2.1489 -0.3276
  698SOL    HW2 2094   1.283   1.095   2.648  1.9040  1.3577  0.0003
  699SOL     OW 2095   1.602   1.395   1.225  0.2622  0.0147  0.1669
  699SOL    HW1 2096   1.644   1.489   1.233  2.1854 -1.2929  3.1489
  699SOL    HW2 2097   1.512   1.384   1.168 -4.2067 -1.1040 -0.1483
  700SOL     OW 2098   1.490   0.303   0.410 -0.0763 -0.0877  0.2020
  700SOL    HW1 2099   1.461   0.263   0.499 -1.4038  0.0501 -0.2933
  700SOL    HW2 2100   1.591   0.315   0.402 -0.4481  0.6654 -0.7972
  701SOL     OW 2101   2.933   0.097   2.218 -0.2348  0.5514 -0.5824
  701SOL    HW1 2102   2.986   0.173   2.177 -0.1682  0.0364 -1.4674
  701SOL    HW2 2103   2.988   0.016   2.222 -1.1955  2.2455 -0.0812
  702SOL     OW 2104   1.164   0.035   0.265  0.9019 -0.1467 -0.7244
  702SOL    HW1 2105   1.257   0.060   0.239  1.1271 -0.1774 -1.2438
  702SOL    HW2 2106   1.154   3.025   0.301 -0.0832 -0.7810  1.8968
  703SOL     OW 2107   2.476   2.636   2.565 -0.8642 -0.5494 -0.2750
  703SOL    HW1 2108   2.502   2.540   2.590  0.7931  0.1484  1.2028
  703SOL    HW2 2109   2.549   2.688   2.506  2.9565  2.1376 -4.0355
  704SOL     OW 2110   0.668   2.256   1.032  0.1107 -0.1991  0.1343
  704SOL    HW1 2111   0.658   2.201   0.947 -1.0266 -0.5893 -0.8355
  704SOL    HW2 2112   0.583   2.261   1.089  1.7350 -1.0366  0.8274
  705SOL     OW 2113   2.897   0.248   1.927  0.3281  0.2993 -0.4726
  705SOL    HW1 2114   2.988   0.268   1.969  0.7691  2.4194  0.8546
  705SOL    HW2 2115   2.828   0.288   1.985 -0.1577  1.0573  0.7284
  706SOL     OW 2116   1.769   0.282   0.381  0.0651 -0.2661 -0.3998
  706SOL    HW1 2117   1.775   0.181   0.372 -1.3329 -2.0032  1.0858
  706SOL    HW2 2118   1.851   0.314   0.424 -0.6036 -0.1796  1.9052
  707SOL     OW 2119   1.224   1.926   2.059  0.4528  0.2361  0.1914
  707SOL    HW1 2120   1.217   1.831   2.097  0.8817 -0.3861  0.1704
  707SOL    HW2 2121   1.262   1.988   2.128 -1.5239  0.2704 -2.9698
  708SOL     OW 2122   3.058   2.265   1.761 -0.0925 -0.5264 -0.2339
  708SOL    HW1 2123   3.028   2.206   1.684  2.7743  2.0850 -2.3190
  708SOL    HW2 2124   0.050   2.330   1.735 -0.0209  3.0890  0.7107
  709SOL     OW 2125   2.055   0.504   1.808 -0.0713 -0.3526  0.8494
  709SOL    HW1 2126   2.141   0.553   1.782  0.2064 -1.4818  1.5734
  709SOL    HW2 2127   2.081   0.427   1.867  1.9803 -2.2148 -1.7795
  710SOL     OW 2128   2.472   0.488   1.585 -0.1139  0.4356 -0.3654
  710SOL    HW1 2129   2.390   0.462   1.527 -0.9757  1.3693 -0.6573
  710SOL    HW2 2130   2.563   0.466   1.538 -2.1043 -0.3310 -2.6159
  711SOL     OW 2131   0.303   2.000   0.614  0.1644  0.0722  0.3696
  711SOL    HW1 2132   0.320   2.056   0.693 -1.1341 -2.3181 -3.7025
  711SOL    HW2 2133   0.358   1.912   0.622  0.7235  0.1714  1.2727
  712SOL     OW 2134   0.603   2.592   2.353 -0.0906 -0.2943 -0.4264
  712SOL    HW1 2135   0.655   2.537   2.287 -0.6734  1.8823  4.3323
  712SOL    HW2 2136   0.562   2.677   2.307  0.2117  1.8877  0.7897
  713SOL     OW 2137   1.948   0.980   3.081  0.4407  0.4338  0.2358
  713SOL    HW1 2138   1.885   0.952   0.067 -1.5809  0.6531 -3.1749
  713SOL    HW2 2139   2.005   0.899   3.046 -0.4949 -0.5362 -2.0282
  714SOL     OW 2140   0.667   1.601   1.129  0.6984 -0.3635  0.4305
  714SOL    HW1 2141   0.698   1.685   1.078 -2.8909  0.8833  1.1492
  714SOL    HW2 2142   0.576   1.572   1.087  0.7484 -1.6511  0.8725
  715SOL     OW 2143   2.113   2.975   2.961 -0.1667  0.4887 -0.3296
  715SOL    HW1 2144   2.106   2.898   3.035  1.3522 -0.8171  2.9311
  715SOL    HW2 2145   2.035   2.969   2.897 -0.7612 -1.1850 -0.9441
  716SOL     OW 2146   0.119   0.150   1.670 -0.3986 -0.2951  0.3911
  716SOL    HW1 2147   0.056   0.221   1.637 -0.7509 -1.4349 -0.3937
  716SOL    HW2 2148   0.091   0.121   1.759  2.0544  1.3427 -3.0039
  717SOL     OW 2149   0.237   0.832   0.275 -0.5667  0.4884 -0.0923
  717SOL    HW1 2150   0.180   0.877   0.346 -0.2822  1.1328 -0.6895
  717SOL    HW2 2151   0.283   0.740   0.308  1.5629 -1.5504  1.2511
  718SOL     OW 2152   1.396   0.955   2.627 -0.2818 -0.0954 -0.8485
  718SOL    HW1 2153   1.398   0.854   2.632 -0.3420  1.2855 -1.7478
  718SOL    HW2 2154   1.488   0.990   2.614  1.3316 -1.7755  1.9241
  719SOL     OW 2155   2.787   1.768   3.027  0.7914 -0.1750  0.8272
  719SOL    HW1 2156   2.725   1.715   0.003  1.1158 -2.8283 -0.5210
  719SOL    HW2 2157   2.851   1.703   2.977 -0.6974 -0.0073 -1.5110
  720SOL     OW 2158   1.373   0.802   1.055 -0.3994  0.2442  0.0580
  720SOL    HW1 2159   1.362   0.744   0.971  1.5896 -0.4588 -1.8490
  720SOL    HW2 2160   1.327   0.763   1.136  0.0262  2.8400 -2.6797
  721SOL     OW 2161   2.989   0.908   0.171 -0.1264 -0.2313  0.6652
  721SOL    HW1 2162   3.050   0.917   0.091 -1.0898 -0.4122 -1.7069
  721SOL    HW2 2163   3.041   0.907   0.259  0.1197 -0.5024 -2.0884
  722SOL     OW 2164   1.074   0.976   2.998  0.2190 -0.4415  0.1648
  722SOL    HW1 2165   1.035   1.014   3.087 -4.5589  0.5413 -0.5937
  722SOL    HW2 2166   1.008   0.923   2.945  1.0062  0.9460  0.0417
  723SOL     OW 2167   0.234   1.047   0.509 -0.3277  0.3952  0.2588
  723SOL    HW1 2168   0.279   1.134   0.485  1.0816  0.2634 -0.5924
  723SOL    HW2 2169   0.306   0.975   0.506  0.2032 -1.2614 -0.2978
  724SOL     OW 2170   0.985   2.185   1.798  0.4795 -0.2038 -0.0974
  724SOL    HW1 2171   0.958   2.258   1.862 -1.8502 -1.6434 -2.2178
  724SOL    HW2 2172   0.917   2.179   1.724  2.4464  1.3861 -0.4728
  725SOL     OW 2173   2.561   0.786   1.390 -0.6477  0.4089 -0.4400
  725SOL    HW1 2174   2.491   0.852   1.361  4.1856  1.2431 -3.1564
  725SOL    HW2 2175   2.568   0.786   1.490 -0.7360  1.1572 -0.4322
  726SOL     OW 2176   1.763   2.809   0.631  0.2049  0.5999  0.0242
  726SOL    HW1 2177   1.750   2.712   0.649  0.3381  3.2797  0.2863
  726SOL    HW2 2178   1.759   2.824   0.534  0.3811  0.8139  2.4729
  727SOL     OW 2179   1.308   0.899   2.314  0.0806  0.5752  0.7722
  727SOL    HW1 2180   1.331   0.977   2.371 -3.3471  0.7102  0.4838
  727SOL    HW2 2181   1.311   0.924   2.215  3.8307 -1.4488  3.1948
  728SOL     OW 2182   1.394   2.682   1.187 -0.7972 -0.2844 -0.1097
  728SOL    HW1 2183   1.468   2.714   1.253  1.7055 -0.3609  0.0738
  728SOL    HW2 2184   1.359   2.763   1.137 -0.1740  0.8897  3.1020
  729SOL     OW 2185   1.869   0.938   1.149  0.3128 -0.6230 -0.1101
  729SOL    HW1 2186   1.799   0.995   1.092  0.6404  1.9460  0.3888
  729SOL    HW2 2187   1.909   0.861   1.103 -5.4443  0.3279 -0.9160
  730SOL     OW 2188   0.734   2.000   2.106  0.3150 -0.5564 -0.2503
  730SOL    HW1 2189   0.796   1.984   2.031  0.0232  0.1556  1.2554
  730SOL    HW2 2190   0.663   2.070   2.078 -2.5584  0.6365 -2.0616
  731SOL     OW 2191   0.526   0.331   0.567 -0.6553  0.1154 -0.5368
  731SOL    HW1 2192   0.516   0.287   0.477  0.3464  1.5308 -0.9847
  731SOL    HW2 2193   0.622   0.368   0.576 -1.3414  0.3191  2.1103
  732SOL     OW 2194   0.600   0.671   0.031  0.0555 -0.2889  0.3502
  732SOL    HW1 2195   0.506   0.637   0.052 -0.1826  1.0135  1.3015
  732SOL    HW2 2196   0.609   0.775   0.054 -2.2786  2.9142 -1.2256
  733SOL     OW 2197   0.904   2.385   0.972  0.0354 -0.0073 -0.1110
  733SOL    HW1 2198   0.957   2.363   0.888 -2.0202  1.2232  0.7151
  733SOL    HW2 2199   0.824   2.325   0.988  2.4499  3.7464  0.7652
  734SOL     OW 2200   0.046   1.994   2.553 -0.0599  0.3384 -0.1563
  734SOL    HW1 2201   3.086   2.065   2.501  1.6898 -0.3101 -1.9644
  734SOL    HW2 2202   0.123   2.039   2.604  0.2460 -0.0168 -2.2592
  735SOL     OW 2203   1.063   3.006   0.981  0.1419  0.1618  0.1664
  735SOL    HW1 2204   0.981   3.042   1.024  2.1222 -2.8922 -2.7749
  735SOL    HW2 2205   1.087   3.051   0.891  1.5263  1.6618 -0.3107
  736SOL     OW 2206   1.753   0.271   0.006 -0.2937 -0.0979  0.0933
  736SOL    HW1 2207   1.757   0.187   0.063  0.1037  0.6883  0.5760
  736SOL    HW2 2208   1.659   0.298   3.075  0.7126 -3.8907 -0.1040
  737SOL     OW 2209   2.984   0.190   0.470  0.0416  0.2191 -0.4087
  737SOL    HW1 2210   3.081   0.204   0.450  1.6431 -0.8919 -0.8341
  737SOL    HW2 2211   2.927   0.277   0.447  0.3480  0.4643  1.4608
  738SOL     OW 2212   2.600   2.817   0.987 -0.0150 -0.0705  0.1796
  738SOL    HW1 2213   2.587   2.896   0.925 -2.3515  1.1780  0.8010
  738SOL    HW2 2214   2.607   2.731   0.929 -0.3684  0.9946  1.2924
  739SOL     OW 2215   1.560   2.336   0.256 -0.0283  0.3349 -0.2712
  739SOL    HW1 2216   1.485   2.280   0.300 -2.2426 -2.4710  1.0275
  739SOL    HW2 2217   1.618   2.284   0.191 -0.2721 -0.3570 -1.8328
  740SOL     OW 2218   1.541   0.090   0.870 -0.6432 -0.3480 -0.7021
  740SOL    HW1 2219   1.510   3.081   0.855  2.1753  0.0354 -5.9885
  740SOL    HW2 2220   1.517   0.146   0.787 -2.1996 -1.6324 -2.0869
  741SOL     OW 2221   2.079   0.760   0.593  0.2578 -0.1013  0.0750
  741SOL    HW1 2222   2.137   0.815   0.528  1.4508  0.2763  1.1361
  741SOL    HW2 2223   1.994   0.718   0.555 -0.0582 -0.2986  0.3518
  742SOL     OW 2224   1.267   2.074   2.417  0.2463  0.0976  0.1915
  742SOL    HW1 2225   1.253   2.101   2.514 -1.3255 -2.2204 -0.7553
  742SOL    HW2 2226   1.361   2.086   2.381  0.4210 -0.7503  1.9845
  743SOL     OW 2227   2.251   0.693   1.637  0.3894  0.2120  0.0259
  743SOL    HW1 2228   2.186   0.719   1.710  4.8361 -1.6547 -0.2494
  743SOL    HW2 2229   2.316   0.626   1.672 -1.2724  2.2238 -1.4574
  744SOL     OW 2230   2.415   0.220   0.966 -0.3402 -0.1323 -0.0552
  744SOL    HW1 2231   2.378   0.179   0.885  3.6896  1.4021 -1.2088
  744SOL    HW2 2232   2.476   0.161   1.023 -0.6442  0.6333 -3.6349
  745SOL     OW 2233   1.868   1.281   1.581  0.0426  0.3289 -0.4427
  745SOL    HW1 2234   1.845   1.341   1.656  1.2505  0.0544 -0.5409
  745SOL    HW2 2235   1.786   1.273   1.521  1.4568 -0.4860  0.4567
  746SOL     OW 2236   1.373   1.355   1.081  0.4900  0.0847 -0.3100
  746SOL    HW1 2237   1.287   1.400   1.044 -1.5237  2.3946 -1.1139
  746SOL    HW2 2238   1.423   1.296   1.013 -1.7268 -0.1187 -2.0522
  747SOL     OW 2239   2.007   1.184   1.200 -0.1651  0.5234  0.0741
  747SOL    HW1 2240   2.056   1.212   1.283 -0.9384  1.2354  0.5930
  747SOL    HW2 2241   1.975   1.089   1.199  3.6850 -2.0112 -3.2195
  748SOL     OW 2242   0.344   2.572   0.726  0.2350 -0.3424 -0.1203
  748SOL    HW1 2243   0.341   2.608   0.824 -1.4138  2.1854 -0.0242
  748SOL    HW2 2244   0.296   2.485   0.709  0.9230  1.1967 -0.3481
  749SOL     OW 2245   3.054   0.008   2.593  0.2641  0.0554 -0.2995
  749SOL    HW1 2246   0.045   0.060   2.552  3.7472 -0.1824 -0.5129
  749SOL    HW2 2247   2.993   3.057   2.527  0.7107 -1.0144  0.0275
  750SOL     OW 2248   2.582   0.462   0.907  0.7014 -0.1762  0.2221
  750SOL    HW1 2249   2.641   0.492   0.986  0.7470  1.5023 -1.4885
  750SOL    HW2 2250   2.514   0.394   0.943  0.0428  0.5090  0.5522
  751SOL     OW 2251   2.819   0.408   0.459  0.1819 -0.1453  0.0457
  751SOL    HW1 2252   2.868   0.495   0.474 -2.1265 -0.4629 -2.0541
  751SOL    HW2 2253   2.752   0.383   0.535 -0.8814 -2.6051  1.6411
  752SOL     OW 2254   0.308   2.852   0.816 -0.5236 -0.0611 -0.0518
  752SOL    HW1 2255   0.217   2.818   0.827  1.7881 -0.5558  1.6378
  752SOL    HW2 2256   0.358   2.800   0.743  0.9082  2.7148  0.7462
  753SOL     OW 2257   1.227   0.522   1.922 -0.2827  0.2761 -0.5236
  753SOL    HW1 2258   1.241   0.420   1.914  1.0381 -0.4545  1.5157
  753SOL    HW2 2259   1.303   0.568   1.873 -1.1453  0.7058  0.7532
  754SOL     OW 2260   1.632   2.306   1.986 -0.7653 -0.4085  0.1831
  754SOL    HW1 2261   1.584   2.390   2.007 -0.6432 -1.7897 -0.9015
  754SOL    HW2 2262   1.580   2.268   1.907 -3.1028  1.8718  0.7808
  755SOL     OW 2263   2.901   1.049   0.552  0.2837 -0.3339 -0.1210
  755SOL    HW1 2264   2.942   1.127   0.598  1.3644  1.1713 -2.5456
  755SOL    HW2 2265   2.895   1.071   0.455  1.4088 -1.7997  3.5250
  756SOL     OW 2266   1.316   1.423   2.803  0.0819 -0.4444  0.7381
  756SOL    HW1 2267   1.312   1.514   2.850 -1.0553  1.2434 -2.8122
  756SOL    HW2 2268   1.228   1.372   2.804  0.0905  0.6164  3.7977
  757SOL     OW 2269   1.710   2.859   0.364  0.3433  0.5339  0.5487
  757SOL    HW1 2270   1.618   2.909   0.354 -1.0907  0.3812 -1.2703
  757SOL    HW2 2271   1.723   2.816   0.277 -0.3927 -0.5982 -0.4941
  758SOL     OW 2272   0.369   0.121   1.297  0.1790 -0.2968 -0.4821
  758SOL    HW1 2273   0.270   0.124   1.314  4.9283  0.5491  0.3138
  758SOL    HW2 2274   0.409   0.130   1.207  0.2741  0.3134  2.2471
  759SOL     OW 2275   0.189   0.989   1.244 -0.2683 -0.0431 -0.0727
  759SOL    HW1 2276   0.248   0.978   1.327  0.3485 -3.3379  0.0270
  759SOL    HW2 2277   0.091   0.965   1.262  0.5768  0.2991 -0.4973
  760SOL     OW 2278   2.248   1.010   1.084  0.2710 -0.2500  0.1119
  760SOL    HW1 2279   2.158   1.046   1.054 -0.0491 -0.9251  0.0073
  760SOL    HW2 2280   2.302   0.979   1.004 -0.8245  0.0945  1.0777
  761SOL     OW 2281   1.398   0.976   0.736 -0.4972 -0.3999  0.2477
  761SOL    HW1 2282   1.372   0.885   0.762 -1.0792  3.1442 -0.0700
  761SOL    HW2 2283   1.411   1.033   0.819  1.3413 -0.7389  0.7088
  762SOL     OW 2284   2.236   2.298   1.419 -0.0385 -0.1571  0.1625
  762SOL    HW1 2285   2.138   2.266   1.431 -1.2216 -1.3925 -0.5926
  762SOL    HW2 2286   2.235   2.341   1.328 -2.2805 -0.1519  3.5317
  763SOL     OW 2287   1.423   1.350   2.079 -0.1104 -0.6826 -0.3472
  763SOL    HW1 2288   1.452   1.271   2.138  0.0645 -2.8709  0.8430
  763SOL    HW2 2289   1.350   1.331   2.009 -1.8155 -0.9818  1.6438
  764SOL     OW 2290   0.213   1.872   2.389 -0.4937  0.7457  0.3967
  764SOL    HW1 2291   0.183   1.778   2.373 -0.3212  0.8575  0.8769
  764SOL    HW2 2292   0.147   1.914   2.453  2.0720 -0.7900 -1.6163
  765SOL     OW 2293   0.912   2.693   1.246 -0.1742 -0.5025 -0.1691
  765SOL    HW1 2294   0.995   2.697   1.188  0.1962  1.1750  0.8488
  765SOL    HW2 2295   0.854   2.613   1.229 -0.7104 -0.2295 -0.9357
  766SOL     OW 2296   0.796   2.248   2.427  0.0874  0.2955  0.7638
  766SOL    HW1 2297   0.883   2.227   2.379 -1.4428 -1.0505  3.2428
  766SOL    HW2 2298   0.747   2.160   2.446 -0.3452 -0.2364  3.4002
  767SOL     OW 2299   1.663   0.342   2.464 -0.0656 -0.3862 -0.5084
  767SOL    HW1 2300   1.588   0.347   2.393 -0.0596 -0.1294 -0.5922
  767SOL    HW2 2301   1.675   0.250   2.492  2.4093  2.5991 -0.0168
  768SOL     OW 2302   1.290   2.233   0.111  0.4425 -1.0055 -0.4098
  768SOL    HW1 2303   1.219   2.193   0.174 -0.7005 -0.6337  1.0895
  768SOL    HW2 2304   1.378   2.176   0.120  3.6729 -2.7811  1.5028
  769SOL     OW 2305   3.060   2.711   1.179 -1.0049 -0.2475  0.1040
  769SOL    HW1 2306   2.962   2.742   1.195 -1.8638  1.9069  0.1670
  769SOL    HW2 2307   3.083   2.701   1.081  0.5614  1.7253  2.1586
  770SOL     OW 2308   0.497   2.813   2.780  0.5894 -0.2148  0.0148
  770SOL    HW1 2309   0.435   2.866   2.716  0.6336  0.3229 -0.4822
  770SOL    HW2 2310   0.592   2.827   2.759 -1.7194  0.9862  1.5606
  771SOL     OW 2311   0.978   2.467   2.700 -0.5119 -0.1370 -0.7430
  771SOL    HW1 2312   0.969   2.415   2.786 -0.1817  0.6271 -0.9306
  771SOL    HW2 2313   0.896   2.461   2.637 -0.8556 -0.0669 -0.3795
  772SOL     OW 2314   2.460   3.062   1.833  0.4200 -0.0661  0.2668
  772SOL    HW1 2315   2.451   3.087   1.930  0.8614  2.6651 -0.7969
  772SOL    HW2 2316   2.481   0.055   1.774 -1.3267  0.0402 -1.5540
  773SOL     OW 2317   1.148   2.724   2.049  0.3886  0.7279 -0.0115
  773SOL    HW1 2318   1.145   2.624   2.024 -0.1817 -0.0945 -1.5763
  773SOL    HW2 2319   1.114   2.733   2.145  2.2008 -1.2333 -1.4731
  774SOL     OW 2320   1.566   0.467   2.073  0.3582  0.2035  0.0202
  774SOL    HW1 2321   1.546   0.422   2.162 -0.9958  0.3290 -2.2524
  774SOL    HW2 2322   1.526   0.413   1.999  0.8947  2.4806  1.2841
  775SOL     OW 2323   2.163   2.795   0.062 -0.4694  0.4060 -0.2416
  775SOL    HW1 2324   2.109   2.764   0.144  0.1786  3.9174  0.9877
  775SOL    HW2 2325   2.249   2.746   0.056  0.5758  1.2228  0.1824
  776SOL     OW 2326   2.098   0.840   1.833  0.3983  0.5463 -0.4110
  776SOL    HW1 2327   1.996   0.831   1.857 -1.0271 -0.7509  1.3251
  776SOL    HW2 2328   2.120   0.937   1.806  0.6086 -1.1311 -0.5469
  777SOL     OW 2329   2.783   0.957   2.316 -0.0239  0.2344  0.2835
  777SOL    HW1 2330   2.756   0.918   2.407 -0.8139  0.2226  2.1447
  777SOL    HW2 2331   2.706   1.007   2.267  0.0381 -1.2221 -3.7993
  778SOL     OW 2332   2.311   0.467   2.057 -0.2730 -0.4380 -0.1475
  778SOL    HW1 2333   2.331   0.566   2.065  1.8119  2.6413 -0.0079
  778SOL    HW2 2334   2.319   0.431   1.961 -0.3085 -0.3432 -1.1952
  779SOL     OW 2335   3.004   0.075   0.043  0.0823  0.3353 -0.2492
  779SOL    HW1 2336   3.023   0.055   3.034  0.3377 -0.1328 -0.1154
  779SOL    HW2 2337   0.008   0.068   0.084  0.4083 -2.0087 -0.4673
  780SOL     OW 2338   2.152   0.080   2.119 -0.3023 -0.6753 -0.3736
  780SOL    HW1 2339   2.063   0.129   2.136 -1.7002  0.8947 -0.7352
  780SOL    HW2 2340   2.150   3.072   2.147 -0.5928 -0.2052 -1.8746
  781SOL     OW 2341   0.269   0.379   1.784 -0.1656 -0.2677  0.3723
  781SOL    HW1 2342   0.291   0.282   1.774 -0.6097  0.5492 -1.2642
  781SOL    HW2 2343   0.210   0.409   1.705  1.4527  0.5758 -0.6095
  782SOL     OW 2344   1.747   2.014   0.199 -0.2166  0.0689  0.7601
  782SOL    HW1 2345   1.830   2.069   0.175  1.4081 -1.6886  1.5272
  782SOL    HW2 2346   1.740   2.008   0.299  1.5169 -1.7810 -1.1379
  783SOL     OW 2347   1.031   1.605   1.633  0.2908 -0.4751  0.4858
  783SOL    HW1 2348   1.013   1.511   1.614  1.9921  2.3037  0.0894
  783SOL    HW2 2349   1.128   1.624   1.647  0.6909  1.3973  0.1927
  784SOL     OW 2350   1.930   0.685   2.163  0.6688  0.3466  0.3136
  784SOL    HW1 2351   1.967   0.589   2.169  0.1589  1.0747  0.7035
  784SOL    HW2 2352   2.007   0.747   2.178  0.3628 -1.4487  1.3581
  785SOL     OW 2353   2.928   0.300   0.826  0.2273  0.6196 -0.8701
  785SOL    HW1 2354   2.925   0.298   0.930  1.3973  0.1061  2.8071
  785SOL    HW2 2355   2.919   0.397   0.794  1.7516  0.9480 -3.5535
  786SOL     OW 2356   1.811   0.013   0.356  0.0038  0.0773 -0.1496
  786SOL    HW1 2357   1.902   0.013   0.396 -3.7784 -2.2501  1.7964
  786SOL    HW2 2358   1.764   3.011   0.373  1.2296  1.1603 -1.1609
  787SOL     OW 2359   1.062   0.036   0.755  0.5921  0.5898 -0.1325
  787SOL    HW1 2360   1.129   0.107   0.733 -1.2842 -2.2824 -4.0999
  787SOL    HW2 2361   0.970   0.083   0.748 -1.0359  0.4179 -1.9786
  788SOL     OW 2362   0.101   1.762   1.282 -0.1654  0.0297 -0.0620
  788SOL    HW1 2363   0.148   1.819   1.356 -0.8993  0.7404  0.3915
  788SOL    HW2 2364   0.104   1.660   1.300 -2.8834 -1.3873  0.4158
  789SOL     OW 2365   2.767   0.643   2.049 -0.2648 -0.4778  0.0807
  789SOL    HW1 2366   2.749   0.545   2.075  1.4681  1.2832 -1.3213
  789SOL    HW2 2367   2.795   0.694   2.133 -2.3457 -0.5819  1.3446
  790SOL     OW 2368   0.528   0.774   2.654  0.1451  0.5184  0.5732
  790SOL    HW1 2369   0.622   0.745   2.630 -0.5195  0.6306 -3.3358
  790SOL    HW2 2370   0.469   0.693   2.643 -0.1387 -1.9889  2.6303
  791SOL     OW 2371   2.470   0.414   3.041 -0.3651 -0.3351 -0.1491
  791SOL    HW1 2372   2.423   0.462   2.965 -0.3202  1.0276 -2.3022
  791SOL    HW2 2373   2.444   0.315   3.046  0.8394  1.7044 -0.0752
  792SOL     OW 2374   1.572   0.611   1.263  0.1232 -0.4707  0.4084
  792SOL    HW1 2375   1.612   0.561   1.179  1.3317 -0.6100  0.1919
  792SOL    HW2 2376   1.636   0.592   1.339 -1.3940 -1.1898 -2.5753
  793SOL     OW 2377   0.120   3.054   1.476 -0.1692  0.1590  0.0922
  793SOL    HW1 2378   0.132   0.032   1.552  2.4087  1.4116 -3.1984
  793SOL    HW2 2379   0.107   0.007   1.390 -2.8185 -1.2210  1.8890
  794SOL     OW 2380   0.061   0.232   2.024  0.0417  0.0819  0.1129
  794SOL    HW1 2381   0.101   0.306   2.080  2.0695  0.3259 -1.9715
  794SOL    HW2 2382   0.135   0.166   1.998  1.6271 -1.3683 -0.8445
  795SOL     OW 2383   0.476   2.166   2.607  0.3524  0.2008 -0.2312
  795SOL    HW1 2384   0.519   2.133   2.694  0.9283 -0.5733  2.4646
  795SOL    HW2 2385   0.526   2.133   2.526  0.6225  1.2284 -0.7372
  796SOL     OW 2386   1.946   0.466   2.650  0.1681  0.2018  0.1230
  796SOL    HW1 2387   1.941   0.502   2.558  0.0430  3.1420  4.1232
  796SOL    HW2 2388   1.919   0.540   2.717 -1.8470 -1.4900 -0.3589
  797SOL     OW 2389   2.171   2.010   2.949 -0.1773  0.2824  0.3045
  797SOL    HW1 2390   2.150   2.114   2.948 -0.0677 -0.0033  1.2992
  797SOL    HW2 2391   2.268   2.000   2.990  2.6741  0.3960  1.9582
  798SOL     OW 2392   0.040   0.548   1.520 -0.4125  0.1468  0.2033
  798SOL    HW1 2393   0.119   0.531   1.448  3.8342  0.1137 -3.9526
  798SOL    HW2 2394   3.040   0.584   1.480 -0.0914  0.9311 -1.0942
  799SOL     OW 2395   0.605   0.222   1.638 -0.1370  0.2183 -0.7625
  799SOL    HW1 2396   0.654   0.295   1.694 -0.8055 -1.5171  1.5311
  799SOL    HW2 2397   0.667   0.154   1.593  0.8048  1.9138 -1.3566
  800SOL     OW 2398   2.907   2.468   0.164 -0.5520 -0.0273 -0.2016
  800SOL    HW1 2399   2.896   2.380   0.212 -1.3013 -1.2823 -1.8514
  800SOL    HW2 2400   3.000   2.502   0.183 -0.3350  0.8534 -1.5528
  801SOL     OW 2401   1.522   1.863   0.790 -0.2554 -0.4941  0.1652
  801SOL    HW1 2402   1.601   1.867   0.848 -0.6759  0.3845 -1.6084
  801SOL    HW2 2403   1.481   1.768   0.803  1.7164 -2.9345 -0.0031
  802SOL     OW 2404   0.788   0.525   0.205  0.4544 -0.1512 -0.2493
  802SOL    HW1 2405   0.804   0.603   0.265 -1.7615 -0.9046 -0.6545
  802SOL    HW2 2406   0.735   0.555   0.123  1.5334 -3.1821 -0.1006
  803SOL     OW 2407   1.236   1.293   1.878  0.2631 -0.0756  0.0923
  803SOL    HW1 2408   1.179   1.211   1.869 -0.9894  2.0774  0.6012
  803SOL    HW2 2409   1.305   1.295   1.805 -0.8003 -1.0402  0.1646
  804SOL     OW 2410   1.671   2.359   1.338 -0.0650  0.1479 -0.0399
  804SOL    HW1 2411   1.759   2.404   1.365  0.4833  1.1005  0.2617
  804SOL    HW2 2412   1.647   2.379   1.243 -0.2645 -0.9109  0.3546
  805SOL     OW 2413   3.068   2.226   2.418  0.2871  0.2954  0.2847
  805SOL    HW1 2414   0.017   2.233   2.324  0.2628  0.2684  0.0177
  805SOL    HW2 2415   0.025   2.295   2.473  1.6056 -0.2572  1.0942
  806SOL     OW 2416   0.412   2.642   0.302 -0.0852  0.9237  0.0611
  806SOL    HW1 2417   0.434   2.672   0.209  0.8942 -1.5118  3.2310
  806SOL    HW2 2418   0.352   2.561   0.294 -0.4377  1.9993 -0.8002
  807SOL     OW 2419   2.360   0.956   2.805  0.7909  0.0935  0.2346
  807SOL    HW1 2420   2.363   0.918   2.901  0.4518  0.3781 -0.0372
  807SOL    HW2 2421   2.381   0.885   2.740 -0.2660  3.1706 -1.6870
  808SOL     OW 2422   1.375   2.072   0.992 -0.2592 -0.1981  0.4299
  808SOL    HW1 2423   1.462   2.108   0.956  0.8093  0.4943  0.3691
  808SOL    HW2 2424   1.374   2.057   1.092  1.5337 -0.8697  1.2710
  809SOL     OW 2425   0.123   0.529   0.594 -0.5095 -0.0444 -0.5368
  809SOL    HW1 2426   0.077   0.563   0.677 -1.2373  0.7340  0.5867
  809SOL    HW2 2427   0.159   0.435   0.608  0.8520  3.0899 -3.6905
  810SOL     OW 2428   1.166   1.531   0.130  0.3578 -0.7081 -0.2134
  810SOL    HW1 2429   1.266   1.537   0.156 -1.5212  0.2099  0.3312
  810SOL    HW2 2430   1.148   1.616   0.078  1.0870 -1.2061  2.8501
  811SOL     OW 2431   1.460   2.791   1.475 -0.4911 -0.5647  0.0344
  811SOL    HW1 2432   1.561   2.801   1.450 -0.3342 -0.0484  0.8306
  811SOL    HW2 2433   1.449   2.752   1.566 -0.1876  1.7751 -1.4001
  812SOL     OW 2434   1.256   0.220   0.707  0.0841  0.1582  0.2274
  812SOL    HW1 2435   1.207   0.268   0.636 -1.8289  0.4287  0.0862
  812SOL    HW2 2436   1.299   0.287   0.773 -1.2639  0.8834  1.2695
  813SOL     OW 2437   1.336   2.962   2.389 -0.2089  0.5050 -0.1502
  813SOL    HW1 2438   1.256   2.920   2.437 -0.7509  0.1640  2.1903
  813SOL    HW2 2439   1.298   3.004   2.304 -2.4413  1.2969 -1.3095
  814SOL     OW 2440   1.449   2.730   1.742 -0.3130 -0.5958  0.0545
  814SOL    HW1 2441   1.438   2.662   1.818  2.0513  0.8821  0.8155
  814SOL    HW2 2442   1.459   2.825   1.779  0.8366  0.2850  0.5902
  815SOL     OW 2443   0.093   2.943   0.105  0.2877 -0.1577  0.4335
  815SOL    HW1 2444   0.159   2.980   0.170 -4.6246  0.1331  0.7355
  815SOL    HW2 2445   0.088   2.844   0.109 -1.3841  1.1307 -0.1722
  816SOL     OW 2446   2.327   1.444   2.689  0.7000 -0.0199 -0.9358
  816SOL    HW1 2447   2.322   1.342   2.701  1.6386  1.4352  0.7411
  816SOL    HW2 2448   2.282   1.471   2.604 -0.0803 -2.0051  0.3657
  817SOL     OW 2449   2.558   2.125   2.498  0.0980  0.1999 -0.0997
  817SOL    HW1 2450   2.529   2.143   2.596  2.1241  1.7865  1.3079
  817SOL    HW2 2451   2.660   2.137   2.494  3.9599  0.9746  0.6259
  818SOL     OW 2452   0.959   1.045   0.216  0.4122 -0.0068  0.2374
  818SOL    HW1 2453   1.027   1.007   0.285  0.4860  0.3246  0.7997
  818SOL    HW2 2454   0.906   1.118   0.257  2.3140 -3.0750 -0.9100
  819SOL     OW 2455   1.671   1.368   0.041  0.4023  0.0775  0.4326
  819SOL    HW1 2456   1.648   1.306   3.057 -1.6932  1.7975  2.6035
  819SOL    HW2 2457   1.714   1.322   0.125  2.1566  0.2029  1.2914
  820SOL     OW 2458   0.262   1.027   0.776 -0.2974 -0.6704 -0.3986
  820SOL    HW1 2459   0.367   1.031   0.781  3.8816 -1.1813 -1.7926
  820SOL    HW2 2460   0.234   1.009   0.681  1.3117 -1.6552  1.3680
  821SOL     OW 2461   0.497   2.947   1.414  0.0100 -0.4908 -0.4097
  821SOL    HW1 2462   0.467   3.033   1.366  0.0621  0.9247  0.5821
  821SOL    HW2 2463   0.570   2.905   1.353  2.4923 -1.1282 -0.8672
  822SOL     OW 2464   1.860   1.758   2.717 -0.1533 -0.0262  0.0212
  822SOL    HW1 2465   1.786   1.820   2.686  2.1486  1.1911 -1.0845
  822SOL    HW2 2466   1.938   1.742   2.648 -0.5235  1.8539 -0.5475
  823SOL     OW 2467   0.748   0.555   2.279 -0.2504  0.0148 -0.1321
  823SOL    HW1 2468   0.836   0.579   2.233 -0.9271  3.5337  0.2733
  823SOL    HW2 2469   0.705   0.643   2.311 -0.3337  1.1196 -1.4146
  824SOL     OW 2470   2.597   2.980   1.451 -0.0028 -0.3028 -0.7993
  824SOL    HW1 2471   2.560   3.049   1.514  0.2385 -1.3871 -0.2221
  824SOL    HW2 2472   2.568   2.885   1.474  0.3356 -1.3326 -1.2917
  825SOL     OW 2473   0.235   1.527   2.393 -0.2634  0.4861 -0.0246
  825SOL    HW1 2474   0.301   1.568   2.326 -0.4499  2.3879  0.4175
  825SOL    HW2 2475   0.144   1.572   2.379 -2.1347  0.4831 -3.6670
  826SOL     OW 2476   1.609   0.430   2.785  0.1906  0.4753  0.4619
  826SOL    HW1 2477   1.650   0.502   2.728 -1.3560 -3.2061  3.1298
  826SOL    HW2 2478   1.676   0.351   2.795  0.6640  0.8671  1.0760
  827SOL     OW 2479   0.129   2.265   2.197  0.0221 -0.3903 -0.7836
  827SOL    HW1 2480   0.114   2.241   2.099  1.1472  2.2611 -0.6559
  827SOL    HW2 2481   0.215   2.221   2.226 -2.2106 -0.2322 -0.5201
  828SOL     OW 2482   0.078   0.166   1.292  0.4660  0.0092  0.1869
  828SOL    HW1 2483   0.091   0.253   1.244  1.6275 -2.3524 -1.6161
  828SOL    HW2 2484   0.037   0.093   1.233  1.5269  1.0374  1.8960
  829SOL     OW 2485   1.129   1.539   1.935 -0.2308  0.4435  0.3700
  829SOL    HW1 2486   1.144   1.443   1.906  0.7767  1.3952  3.1502
  829SOL    HW2 2487   1.045   1.544   1.992  2.0549 -0.2407 -1.0435
  830SOL     OW 2488   1.039   0.827   1.529  0.0517 -0.4668 -0.5536
  830SOL    HW1 2489   0.976   0.857   1.450 -0.5678  2.0467 -3.1195
  830SOL    HW2 2490   0.987   0.805   1.618 -0.3021 -0.6428  0.0433
  831SOL     OW 2491   2.563   1.913   0.346  0.5185  0.2495 -0.4050
  831SOL    HW1 2492   2.660   1.926   0.373  0.4970  1.2758  1.9238
  831SOL    HW2 2493   2.494   1.911   0.423 -2.0796  0.8400 -1.4237
  832SOL     OW 2494   1.184   2.496   0.133  0.9061  0.6962 -0.1238
  832SOL    HW1 2495   1.181   2.523   0.233  1.3905 -0.1788  0.8503
  832SOL    HW2 2496   1.211   2.398   0.123  0.3545 -0.1662 -3.5991
  833SOL     OW 2497   3.030   0.275   1.514  0.2027 -0.2776 -0.4594
  833SOL    HW1 2498   3.083   0.218   1.443 -1.2754  0.9878 -1.5103
  833SOL    HW2 2499   3.055   0.373   1.517  0.1971 -2.6054  0.4744
  834SOL     OW 2500   0.016   0.754   0.865 -0.2804  0.0255 -0.1845
  834SOL    HW1 2501   0.102   0.790   0.904 -2.1319  1.1431 -1.0100
  834SOL    HW2 2502   3.037   0.832   0.845  1.2429  2.1785 -0.2647
  835SOL     OW 2503   2.737   0.365   0.206  0.3568 -0.3231 -0.2106
  835SOL    HW1 2504   2.768   0.377   0.305  1.8065  1.2195  4.0746
  835SOL    HW2 2505   2.675   0.284   0.193  3.4281 -0.8053 -0.9262
  836SOL     OW 2506   0.661   2.087   2.815  0.3057  0.0678 -0.4649
  836SOL    HW1 2507   0.650   1.990   2.788  0.1611 -0.3035  2.5290
  836SOL    HW2 2508   0.759   2.101   2.820 -2.8137 -1.4381  2.1068
  837SOL     OW 2509   1.438   1.803   0.287  0.1376  0.1598  0.0242
  837SOL    HW1 2510   1.510   1.823   0.357 -0.0738  1.0607  0.2033
  837SOL    HW2 2511   1.445   1.705   0.260 -0.3307 -0.8444  2.2541
  838SOL     OW 2512   2.505   0.954   2.278  0.2445 -0.3298 -0.2094
  838SOL    HW1 2513   2.431   1.014   2.319 -0.1103 -0.3274 -0.9266
  838SOL    HW2 2514   2.530   0.982   2.181  0.1816 -0.3257 -3.4666
  839SOL     OW 2515   0.855   1.000   2.442  0.1485 -0.1896  0.2479
  839SOL    HW1 2516   0.929   1.061   2.401  2.0609  1.4774  2.5501
  839SOL    HW2 2517   0.865   0.998   2.541  2.2472 -1.0513 -2.5591
  840SOL     OW 2518   0.581   0.938   0.113  0.5273  0.6298  0.1309
  840SOL    HW1 2519   0.485   0.970   0.107  0.0725  1.7010 -0.7436
  840SOL    HW2 2520   0.631   1.002   0.055 -1.5894  0.6008  0.2721
  841SOL     OW 2521   0.856   2.311   0.392  0.2852  0.2321 -0.5812
  841SOL    HW1 2522   0.762   2.320   0.437 -0.0762  0.4540 -0.6459
  841SOL    HW2 2523   0.859   2.254   0.308  5.8158 -0.2948  1.8498
  842SOL     OW 2524   0.475   0.696   0.753 -0.3101  0.6123 -0.9663
  842SOL    HW1 2525   0.405   0.715   0.823 -1.1410  1.8767 -0.9656
  842SOL    HW2 2526   0.538   0.614   0.773  1.9371  1.3524 -2.2745
  843SOL     OW 2527   0.642   0.796   1.515 -0.1964 -0.2700  0.2111
  843SOL    HW1 2528   0.581   0.750   1.587 -0.3434  0.4650 -0.0659
  843SOL    HW2 2529   0.674   0.886   1.543 -0.4550  1.4115  1.1833
  844SOL     OW 2530   2.023   2.423   2.781 -0.0925  0.2814  0.5174
  844SOL    HW1 2531   2.015   2.524   2.803  2.0245  0.4154  0.1131
  844SOL    HW2 2532   2.102   2.414   2.715  0.3933  4.0526 -0.9391
  845SOL     OW 2533   2.207   3.042   1.600 -0.6966  0.2143  0.0381
  845SOL    HW1 2534   2.289   3.065   1.548 -3.3157  4.4629 -0.7300
  845SOL    HW2 2535   2.176   2.948   1.577  0.1286 -2.3651 -1.2365
  846SOL     OW 2536   1.903   0.917   2.534  0.0366  0.2847  0.9848
  846SOL    HW1 2537   1.847   0.871   2.465  2.3182 -1.1007  1.8888
  846SOL    HW2 2538   1.972   0.850   2.561 -0.0167 -0.6963  0.0235
  847SOL     OW 2539   2.930   3.066   1.851  0.1823 -0.6609 -0.2089
  847SOL    HW1 2540   2.909   0.074   1.887 -1.3173  0.0501 -1.7901
  847SOL    HW2 2541   2.891   3.049   1.758  3.6709  0.2572  1.8101
  848SOL     OW 2542   2.478   2.694   0.058 -0.0369 -0.0022 -0.6438
  848SOL    HW1 2543   2.484   2.801   0.052  1.5057  0.7285  0.7583
  848SOL    HW2 2544   2.435   2.673   0.146  2.9269  0.3045 -1.6942
  849SOL     OW 2545   0.647   2.907   0.647 -0.0213  0.4218  0.5868
  849SOL    HW1 2546   0.576   2.844   0.604 -1.3960 -0.4925 -1.4973
  849SOL    HW2 2547   0.611   3.000   0.670 -0.2699 -0.3301  1.3334
  850SOL     OW 2548   0.668   2.220   0.736  0.1278  0.4638  0.1509
  850SOL    HW1 2549   0.657   2.295   0.669 -0.8923  0.8848 -1.2100
  850SOL    HW2 2550   0.721   2.142   0.697 -1.3215  2.3052 -0.1997
  851SOL     OW 2551   2.170   0.359   2.776 -0.2921 -0.5023  0.2950
  851SOL    HW1 2552   2.082   0.404   2.749 -1.8573 -2.5574 -2.2242
  851SOL    HW2 2553   2.174   0.258   2.749 -2.4920  1.1834 -0.2857
  852SOL     OW 2554   1.676   1.897   2.596  0.2863  0.5200 -0.2594
  852SOL    HW1 2555   1.582   1.854   2.607 -1.0579 -3.2796 -3.2465
  852SOL    HW2 2556   1.695   1.921   2.503  1.5705 -1.0724  0.8948
  853SOL     OW 2557   0.037   2.166   0.254  0.0616 -0.2807 -0.1456
  853SOL    HW1 2558   0.065   2.134   0.162  1.6994 -2.0916 -1.5601
  853SOL    HW2 2559   0.060   2.092   0.318  2.0959  2.2720 -0.7320
  854SOL     OW 2560   1.704   0.685   2.024 -0.0286 -0.4120  0.6972
  854SOL    HW1 2561   1.647   0.604   2.047 -1.0683  3.7983  1.7333
  854SOL    HW2 2562   1.786   0.682   2.084 -0.7596 -1.3729  0.0558
  855SOL     OW 2563   0.131   2.619   0.498  0.0691  0.3425  0.0379
  855SOL    HW1 2564   0.226   2.621   0.527 -1.5277 -2.2942  2.0669
  855SOL    HW2 2565   0.118   2.567   0.409 -0.6720  1.5944 -2.0315
  856SOL     OW 2566   0.327   2.811   2.335  0.5104  0.0460  0.0948
  856SOL    HW1 2567   0.331   2.820   2.436  1.8603 -1.8249  0.7645
  856SOL    HW2 2568   0.418   2.799   2.292 -0.1479 -3.0351 -0.9681
  857SOL     OW 2569   1.095   0.135   1.622  0.2783  0.5923  0.0431
  857SOL    HW1 2570   1.078   0.239   1.623  0.4004 -0.6448  1.5786
  857SOL    HW2 2571   1.133   0.106   1.532  1.1378 -1.2862 -2.1919
  858SOL     OW 2572   0.344   2.236   1.914  0.1790  0.4108  0.5311
  858SOL    HW1 2573   0.262   2.175   1.907 -0.8675  1.8811  1.8224
  858SOL    HW2 2574   0.373   2.262   1.817 -1.2025  0.2710 -0.6105
  859SOL     OW 2575   1.959   2.578   1.940 -0.3626 -0.1710 -0.0116
  859SOL    HW1 2576   1.884   2.637   1.978  0.7105 -1.1625 -2.1534
  859SOL    HW2 2577   1.937   2.480   1.958  0.5344  1.7297 -3.4990
  860SOL     OW 2578   1.583   0.568   0.574  0.6579 -0.3370  0.0756
  860SOL    HW1 2579   1.496   0.602   0.533 -0.9098 -0.2055  0.8384
  860SOL    HW2 2580   1.572   0.469   0.600  0.3691  0.2452 -0.1043
  861SOL     OW 2581   2.900   0.586   0.772 -0.4874 -0.5762 -0.4222
  861SOL    HW1 2582   2.974   0.656   0.791  0.3613 -0.4550 -1.9308
  861SOL    HW2 2583   2.814   0.636   0.744 -0.4862  2.6065 -0.3902
  862SOL     OW 2584   2.166   0.737   1.374 -0.4824 -0.0627  0.1562
  862SOL    HW1 2585   2.194   0.660   1.314  1.5883 -0.4606 -0.1446
  862SOL    HW2 2586   2.208   0.724   1.468 -0.4523  0.3913 -1.2031
  863SOL     OW 2587   0.636   0.892   0.996 -0.1141  0.3498  0.5409
  863SOL    HW1 2588   0.587   0.837   1.063 -0.0721 -0.5914 -1.3078
  863SOL    HW2 2589   0.687   0.960   1.051  1.2671 -1.0964 -0.9894
  864SOL     OW 2590   2.859   2.901   2.058  0.0137 -0.4460  0.3610
  864SOL    HW1 2591   2.930   2.906   2.125 -1.7331 -1.9217  0.0257
  864SOL    HW2 2592   2.869   2.980   1.991 -1.8513  0.3161 -0.5102
  865SOL     OW 2593   1.142   0.558   2.183 -0.2851  0.3008 -0.0559
  865SOL    HW1 2594   1.156   0.480   2.253  0.9591 -4.0555  0.3886
  865SOL    HW2 2595   1.190   0.546   2.093 -2.0262 -1.7650  1.0016
  866SOL     OW 2596   2.388   2.674   0.322  0.0079 -0.1528  0.5462
  866SOL    HW1 2597   2.335   2.754   0.351  1.9504 -1.6197 -0.8611
  866SOL    HW2 2598   2.469   2.669   0.389  1.5839  2.1244  3.3764
  867SOL     OW 2599   2.630   2.646   0.423 -0.2779 -0.5994 -0.3240
  867SOL    HW1 2600   2.686   2.579   0.480 -1.8156 -0.1052 -0.2051
  867SOL    HW2 2601   2.687   2.723   0.390 -0.5889  0.4498  1.1466
  868SOL     OW 2602   1.832   1.134   2.833  0.0616  0.2638  0.3466
  868SOL    HW1 2603   1.871   1.067   2.900  0.6838 -0.5693 -1.1526
  868SOL    HW2 2604   1.806   1.218   2.876  0.1686 -2.3542 -1.2493
  869SOL     OW 2605   2.738   2.445   0.559  0.4379 -0.2173 -0.4211
  869SOL    HW1 2606   2.732   2.405   0.650  1.1957 -1.5942 -1.7219
  869SOL    HW2 2607   2.760   2.373   0.486  3.3198 -0.8080 -1.7995
  870SOL     OW 2608   2.247   2.075   0.638  0.2939 -0.6612  0.0254
  870SOL    HW1 2609   2.188   2.075   0.717  2.7967  2.7498 -2.9906
  870SOL    HW2 2610   2.330   2.012   0.649  0.3865  0.2813  0.1011
  871SOL     OW 2611   0.472   1.293   1.142  0.6281  0.4562  0.0857
  871SOL    HW1 2612   0.377   1.253   1.134 -0.6303  2.0509 -0.9873
  871SOL    HW2 2613   0.472   1.376   1.199  0.9975  0.3180  1.7917
  872SOL     OW 2614   1.104   1.874   2.357 -0.3964 -0.5072  0.7723
  872SOL    HW1 2615   1.153   1.962   2.374  0.6859  2.6586  0.2739
  872SOL    HW2 2616   1.165   1.793   2.370  1.8523 -1.8191  0.0984
  873SOL     OW 2617   0.843   2.614   2.125 -0.1480  0.3444 -0.4484
  873SOL    HW1 2618   0.848   2.660   2.034  0.4673 -2.4509 -0.7679
  873SOL    HW2 2619   0.761   2.550   2.112 -2.2116 -0.6488  0.6187
  874SOL     OW 2620   0.836   0.391   1.418 -0.3293 -0.1915 -0.4255
  874SOL    HW1 2621   0.772   0.468   1.397  0.6712  1.0731  0.7022
  874SOL    HW2 2622   0.897   0.415   1.494 -0.7342 -0.3138 -1.2035
  875SOL     OW 2623   2.950   0.265   1.092  0.4163  0.4504  0.4483
  875SOL    HW1 2624   3.031   0.313   1.124  0.3902 -0.7361 -4.4127
  875SOL    HW2 2625   2.963   0.164   1.089  0.8076  0.2207  0.6056
  876SOL     OW 2626   0.313   1.001   0.090 -0.3621  0.0948 -0.1962
  876SOL    HW1 2627   0.264   0.942   0.156 -0.3993  3.0912 -3.8915
  876SOL    HW2 2628   0.275   1.097   0.100 -2.1590  1.5132 -0.9980
  877SOL     OW 2629   1.222   0.641   1.543 -0.2310  0.5701  0.3445
  877SOL    HW1 2630   1.271   0.601   1.465 -1.8482 -1.2789  0.7580
  877SOL    HW2 2631   1.165   0.719   1.511  0.1903 -1.5529 -1.2046
  878SOL     OW 2632   2.043   2.075   0.450 -0.0532  0.2484 -0.1675
  878SOL    HW1 2633   2.088   2.069   0.360 -0.7482  1.4680  1.1266
  878SOL    HW2 2634   2.111   2.046   0.518  0.2564  1.2588  1.1191
  879SOL     OW 2635   2.752   1.630   1.623 -0.1397  0.3015 -0.3324
  879SOL    HW1 2636   2.837   1.655   1.578 -3.7878  2.1179 -0.1206
  879SOL    HW2 2637   2.733   1.535   1.620  0.6301  2.7451  2.1206
  880SOL     OW 2638   1.380   2.510   0.682  0.4384 -0.3617 -0.0342
  880SOL    HW1 2639   1.312   2.518   0.763 -1.8876  1.7639  4.6856
  880SOL    HW2 2640   1.356   2.422   0.632  2.5419 -1.6715 -0.7268
  881SOL     OW 2641   0.592   2.399   0.498  0.3505  0.0979  0.6906
  881SOL    HW1 2642   0.527   2.324   0.493 -0.8892 -1.3625 -2.5734
  881SOL    HW2 2643   0.545   2.485   0.468 -0.9785  1.6686 -1.8248
  882SOL     OW 2644   2.054   0.902   0.842  0.2397  0.1529  0.1192
  882SOL    HW1 2645   2.058   0.852   0.755 -0.8246 -1.7769 -1.3600
  882SOL    HW2 2646   2.042   0.842   0.923  0.7437 -1.5433 -0.7324
  883SOL     OW 2647   1.744   0.873   1.584 -0.1203 -0.3237 -0.0982
  883SOL    HW1 2648   1.759   0.809   1.665  0.9945 -1.3650  4.3896
  883SOL    HW2 2649   1.832   0.887   1.537 -0.7329 -1.3244  2.6083
  884SOL     OW 2650   2.617   0.606   0.074  0.5279 -0.2325  0.2925
  884SOL    HW1 2651   2.653   0.578   0.168 -1.2599  2.3355 -0.6535
  884SOL    HW2 2652   2.570   0.536   0.016 -0.1275  0.0676 -2.8588
  885SOL     OW 2653   1.078   1.281   2.821 -0.1484  0.3518 -0.2737
  885SOL    HW1 2654   1.085   1.307   2.917  0.6443  0.9218 -3.6459
  885SOL    HW2 2655   0.989   1.320   2.789  0.5971 -1.1286  0.5436
  886SOL     OW 2656   1.404   1.856   2.659 -0.0919  0.0145  0.6832
  886SOL    HW1 2657   1.346   1.781   2.629  1.9644 -1.7720  2.9894
  886SOL    HW2 2658   1.361   1.949   2.647 -1.4684  0.7149 -0.3488
  887SOL     OW 2659   1.287   0.307   1.223  0.2908  0.2231  0.0885
  887SOL    HW1 2660   1.363   0.281   1.157  1.6920  1.3160 -0.8442
  887SOL    HW2 2661   1.229   0.387   1.202 -1.1275  2.1295  1.0957
  888SOL     OW 2662   2.583   0.732   1.690 -0.4424 -0.1732  0.4640
  888SOL    HW1 2663   2.679   0.719   1.733  5.0326 -0.8717  1.5226
  888SOL    HW2 2664   2.539   0.645   1.653  1.2998  1.2834  0.3645
  889SOL     OW 2665   3.042   2.570   0.700  0.8453  0.2139 -0.2132
  889SOL    HW1 2666   0.017   2.615   0.637  0.4457  0.2196 -1.1012
  889SOL    HW2 2667   3.002   2.494   0.648  1.3551  1.3571  2.2384
  890SOL     OW 2668   1.644   2.224   0.574  0.0335 -0.1221  0.5747
  890SOL    HW1 2669   1.742   2.262   0.560 -0.3819  0.3615  0.9253
  890SOL    HW2 2670   1.578   2.262   0.507  0.5369 -0.7889  2.8693
  891SOL     OW 2671   0.225   0.943   2.829 -0.0887  0.2716 -0.4778
  891SOL    HW1 2672   0.256   1.037   2.812  2.5924 -1.9226  0.2574
  891SOL    HW2 2673   0.306   0.889   2.868  0.4596 -1.6569  0.9396
  892SOL     OW 2674   2.869   2.417   1.418  0.0682  0.4491  0.3823
  892SOL    HW1 2675   2.969   2.429   1.414 -1.5375  0.4049 -0.0317
  892SOL    HW2 2676   2.826   2.464   1.330 -0.8881 -0.6710 -3.8678
  893SOL     OW 2677   1.492   0.282   1.071  0.3403  0.1020 -0.0972
  893SOL    HW1 2678   1.510   0.209   1.006 -0.5377  2.1844 -0.6335
  893SOL    HW2 2679   1.570   0.350   1.067 -1.7551 -0.5278 -1.7965
  894SOL     OW 2680   2.606   0.363   0.653  0.1838 -0.0575  0.6637
  894SOL    HW1 2681   2.597   0.395   0.750  1.1580 -1.4334  0.6434
  894SOL    HW2 2682   2.531   0.395   0.597 -0.3328 -2.7500  1.1257
  895SOL     OW 2683   2.019   1.412   2.577 -0.0039  0.0195 -0.1516
  895SOL    HW1 2684   1.942   1.439   2.635 -0.9401  0.4330  0.1509
  895SOL    HW2 2685   2.057   1.321   2.614  0.8080 -1.0298  0.9525
  896SOL     OW 2686   1.567   0.370   1.641 -0.0450  0.0415  0.0733
  896SOL    HW1 2687   1.636   0.441   1.617  1.3854 -0.1555  2.2064
  896SOL    HW2 2688   1.510   0.335   1.557 -3.7627  0.5828 -0.7130
  897SOL     OW 2689   0.728   1.504   1.791  0.0096  0.4767  0.0207
  897SOL    HW1 2690   0.787   1.424   1.796 -1.1263 -0.8829 -0.0785
  897SOL    HW2 2691   0.780   1.585   1.821  0.5132 -1.4944  0.2732
  898SOL     OW 2692   2.236   2.765   2.422 -0.1684 -0.1201  0.2526
  898SOL    HW1 2693   2.181   2.695   2.368  1.5650 -1.3976  0.4434
  898SOL    HW2 2694   2.294   2.713   2.487 -2.1555  2.4679 -0.6520
  899SOL     OW 2695   1.020   1.350   1.167 -0.6078 -0.7243 -0.0800
  899SOL    HW1 2696   1.066   1.277   1.224  0.6063 -1.2722  1.4708
  899SOL    HW2 2697   1.064   1.437   1.192 -1.7000  0.0140 -0.2978
  900SOL     OW 2698   0.933   2.073   2.775  0.3586 -0.2713  0.0779
  900SOL    HW1 2699   1.009   2.067   2.837 -0.8164  2.0673 -0.8696
  900SOL    HW2 2700   0.944   2.023   2.690 -0.4449  0.6987  2.8422
  901SOL     OW 2701   0.673   2.011   2.406  0.1776 -0.0160 -0.0668
  901SOL    HW1 2702   0.678   2.031   2.307 -0.2022  0.1908  0.9711
  901SOL    HW2 2703   0.611   1.933   2.427  2.1296 -1.4126  1.3436
  902SOL     OW 2704   2.212   1.726   0.320 -0.2557  0.4238 -0.1081
  902SOL    HW1 2705   2.248   1.711   0.228 -0.8662 -2.7497  1.4425
  902SOL    HW2 2706   2.283   1.698   0.387 -0.5881 -0.6384 -0.0777
  903SOL     OW 2707   2.025   1.689   0.556 -0.1916 -0.2737  0.6825
  903SOL    HW1 2708   1.954   1.620   0.523  1.3687  2.2644 -0.5814
  903SOL    HW2 2709   2.091   1.707   0.477 -1.3822  1.5853  2.3681
  904SOL     OW 2710   1.123   0.711   2.426  0.4736  0.1761  0.3227
  904SOL    HW1 2711   1.158   0.798   2.388  0.2142 -1.6335  1.3045
  904SOL    HW2 2712   1.123   0.639   2.355  0.2041  2.2254  0.0291
  905SOL     OW 2713   2.741   0.142   0.744  0.4284 -0.2809  0.4584
  905SOL    HW1 2714   2.671   0.212   0.711 -2.0133  1.2712 -0.4052
  905SOL    HW2 2715   2.824   0.192   0.778  0.0613  1.2862 -0.2387
  906SOL     OW 2716   2.773   1.983   0.587 -0.2121 -0.0261 -0.2653
  906SOL    HW1 2717   2.827   1.923   0.528  1.0464  0.7480  3.1090
  906SOL    HW2 2718   2.834   2.018   0.659  1.7049  1.0456 -2.7777
  907SOL     OW 2719   1.305   0.468   0.321 -0.5216 -0.6016  0.2139
  907SOL    HW1 2720   1.364   0.393   0.349 -2.8240 -0.2211 -1.5556
  907SOL    HW2 2721   1.280   0.459   0.219  0.6296  1.3295 -2.6930
  908SOL     OW 2722   1.918   0.376   1.314  0.5301  0.3386  0.5238
  908SOL    HW1 2723   1.864   0.290   1.298  0.7468  0.2675  1.1124
  908SOL    HW2 2724   1.976   0.361   1.401 -0.8989 -2.9612  2.2875
  909SOL     OW 2725   2.828   0.615   1.043 -0.1202 -0.0139  0.3670
  909SOL    HW1 2726   2.831   0.586   0.946 -0.8077 -2.0250  0.2532
  909SOL    HW2 2727   2.923   0.629   1.079  3.0670 -0.7357 -2.9608
  910SOL     OW 2728   1.126   2.827   2.491 -0.0838  0.0269  0.5640
  910SOL    HW1 2729   1.095   2.803   2.585  3.2624  1.4457 -1.2788
  910SOL    HW2 2730   1.080   2.761   2.422 -0.8239  1.2649  2.2573
  911SOL     OW 2731   2.151   1.117   1.767 -0.0065  0.1260  0.7457
  911SOL    HW1 2732   2.254   1.114   1.754  1.4524  0.5608  1.1359
  911SOL    HW2 2733   2.106   1.125   1.675 -0.1913  1.6726 -1.7768
  912SOL     OW 2734   2.626   2.129   1.335 -0.2099  0.1054 -0.0845
  912SOL    HW1 2735   2.552   2.060   1.347 -0.7929 -0.3965  1.3587
  912SOL    HW2 2736   2.718   2.091   1.353  0.6174 -0.2264 -1.3813
  913SOL     OW 2737   2.534   2.327   1.161 -0.3134  0.1336  0.0285
  913SOL    HW1 2738   2.475   2.285   1.093 -0.0200  4.1484  3.4200
  913SOL    HW2 2739   2.573   2.248   1.219  0.2793  1.5254 -1.9523
  914SOL     OW 2740   2.015   1.756   1.373  0.0340  0.0844 -0.0185
  914SOL    HW1 2741   2.054   1.669   1.327  2.8109  0.3882 -0.4528
  914SOL    HW2 2742   1.956   1.734   1.446  1.0849  0.7200 -2.3648
  915SOL     OW 2743   1.316   1.733   1.381  0.6417 -0.0292  0.1264
  915SOL    HW1 2744   1.378   1.790   1.440 -0.6711 -1.3553 -2.7576
  915SOL    HW2 2745   1.350   1.728   1.280  1.2629 -0.0179 -1.6125
  916SOL     OW 2746   2.788   2.811   1.187  0.0482 -0.1435  0.1895
  916SOL    HW1 2747   2.724   2.817   1.104 -1.1772  0.9031 -2.8538
  916SOL    HW2 2748   2.749   2.857   1.273  0.4829  0.0203 -0.3775
  917SOL     OW 2749   2.476   1.796   2.613 -0.4994  0.1398 -0.0461
  917SOL    HW1 2750   2.440   1.884   2.585 -2.0630 -0.3034  1.6666
  917SOL    HW2 2751   2.419   1.751   2.683  2.0870  0.1437  0.3500
  918SOL     OW 2752   1.746   1.918   2.339 -0.0618  0.0983  0.2980
  918SOL    HW1 2753   1.729   1.962   2.246  1.8140  0.1882  1.0883
  918SOL    HW2 2754   1.832   1.864   2.333 -0.3332  3.2796  1.3943
  919SOL     OW 2755   1.485   2.201   1.785 -0.3421  0.5046  0.4652
  919SOL    HW1 2756   1.396   2.160   1.806 -1.0156  0.5834 -2.9652
  919SOL    HW2 2757   1.507   2.207   1.684  0.8536 -0.7351 -0.4426
  920SOL     OW 2758   2.896   0.298   2.875 -0.4063  0.6767  0.0019
  920SOL    HW1 2759   2.943   0.349   2.804 -1.1479 -1.5754  3.2300
  920SOL    HW2 2760   2.954   0.218   2.903 -0.5502 -2.5192 -0.4452
  921SOL     OW 2761   2.482   0.092   2.456 -0.0135  0.0725 -0.4258
  921SOL    HW1 2762   2.564   0.046   2.416 -0.7245 -1.1726  4.7008
  921SOL    HW2 2763   2.514   0.175   2.506  0.2377 -2.1237 -0.7447
  922SOL     OW 2764   2.379   1.802   0.871 -0.1822  0.7419  0.4871
  922SOL    HW1 2765   2.431   1.880   0.831 -0.6879  0.3618  0.8845
  922SOL    HW2 2766   2.330   1.825   0.957  1.6597  0.9634  1.4672
  923SOL     OW 2767   0.502   1.796   0.660  0.0091  0.3404  0.0107
  923SOL    HW1 2768   0.582   1.778   0.596 -1.5165 -1.2525  1.2041
  923SOL    HW2 2769   0.535   1.842   0.745  1.5159 -2.1709 -0.1102
  924SOL     OW 2770   1.409   0.569   2.901 -0.6467  1.0596 -0.1237
  924SOL    HW1 2771   1.441   0.664   2.912  3.7955 -2.7317 -1.8462
  924SOL    HW2 2772   1.475   0.509   2.845  1.8739 -1.9494 -0.3850
  925SOL     OW 2773   2.590   1.328   0.730 -0.3181 -0.2082  0.2230
  925SOL    HW1 2774   2.489   1.360   0.736 -1.1590 -1.1508  0.6978
  925SOL    HW2 2775   2.611   1.268   0.650 -0.5620  1.9630 -2.9335
  926SOL     OW 2776   2.722   1.063   1.002 -0.1905 -0.2088  0.1574
  926SOL    HW1 2777   2.708   0.980   1.061 -1.0395 -1.6605  0.9326
  926SOL    HW2 2778   2.795   1.042   0.938 -0.0371 -1.3524 -0.4291
  927SOL     OW 2779   0.555   1.444   0.415  0.1727 -0.7265 -0.6257
  927SOL    HW1 2780   0.636   1.388   0.387  0.6109 -2.6588 -0.7108
  927SOL    HW2 2781   0.581   1.522   0.475  1.4337  1.5739  0.0241
  928SOL     OW 2782   0.130   0.179   2.470 -0.4190 -0.4373 -0.1743
  928SOL    HW1 2783   0.208   0.162   2.539  2.7651 -2.4967  2.5253
  928SOL    HW2 2784   0.154   0.156   2.375  1.6252 -1.3460  0.1815
  929SOL     OW 2785   3.039   3.057   1.153 -0.1759  0.4041  0.0007
  929SOL    HW1 2786   3.024   3.010   1.060 -0.5745 -0.4175 -2.3718
  929SOL    HW2 2787   2.967   3.020   1.219 -1.8503 -2.1905 -0.6900
  930SOL     OW 2788   1.918   2.404   1.663 -0.3543 -0.1083  0.1162
  930SOL    HW1 2789   1.836   2.348   1.641  2.4275 -2.6565  2.3670
  930SOL    HW2 2790   1.980   2.349   1.722 -0.6231  0.8477 -2.1612
  931SOL     OW 2791   1.538   1.197   0.880  0.2587 -0.9073  0.3861
  931SOL    HW1 2792   1.574   1.154   0.966  0.5111 -1.7766 -0.8898
  931SOL    HW2 2793   1.584   1.153   0.798 -0.1261  0.1938 -0.2374
  932SOL     OW 2794   2.960   0.948   1.276  0.1289 -0.0964 -0.0751
  932SOL    HW1 2795   2.887   0.889   1.236  0.7473 -0.6292  0.1446
  932SOL    HW2 2796   2.943   1.049   1.266  1.6668  3.0865 -4.4549
  933SOL     OW 2797   2.504   1.747   1.548  0.0539  0.2112 -0.4360
  933SOL    HW1 2798   2.432   1.776   1.612  1.6818 -0.0070  0.2609
  933SOL    HW2 2799   2.598   1.739   1.591  1.4217  0.4534  2.9461
  934SOL     OW 2800   1.926   0.475   1.055 -0.0250 -0.4782  0.0484
  934SOL    HW1 2801   1.945   0.468   1.156  1.0615  3.1712  0.3695
  934SOL    HW2 2802   1.973   0.400   1.005 -1.8954 -0.1102 -1.4371
  935SOL     OW 2803   0.068   1.486   1.190  0.4894  0.1981  0.2909
  935SOL    HW1 2804   3.067   1.484   1.137 -1.6476 -1.5200  0.9465
  935SOL    HW2 2805   0.115   1.394   1.186  1.0598 -1.0691  0.1924
  936SOL     OW 2806   3.025   1.161   0.998 -0.1457  0.7678 -0.4964
  936SOL    HW1 2807   2.974   1.180   1.086 -0.5820  0.6250  2.8002
  936SOL    HW2 2808   0.029   1.201   1.000 -0.7170  0.5278 -0.0274
  937SOL     OW 2809   1.741   2.879   0.888 -0.3566 -0.2719 -0.4470
  937SOL    HW1 2810   1.642   2.893   0.900  0.8504  0.3390 -0.1289
  937SOL    HW2 2811   1.759   2.863   0.788  0.9466  2.2367  0.3208
  938SOL     OW 2812   2.622   2.610   0.821 -0.5376  0.0632  0.1172
  938SOL    HW1 2813   2.693   2.661   0.766  0.7859 -0.3454 -3.8099
  938SOL    HW2 2814   2.545   2.575   0.762 -4.4315  0.8425  1.6499
  939SOL     OW 2815   0.386   1.890   2.912  0.5563 -0.0175 -0.3789
  939SOL    HW1 2816   0.452   1.875   2.836  1.4399  2.4655 -1.9150
  939SOL    HW2 2817   0.430   1.937   2.992  0.3905 -1.8848  0.3533
  940SOL     OW 2818   2.916   2.914   3.034 -0.1063  0.2107 -0.0542
  940SOL    HW1 2819   2.977   2.986   3.070  1.1577 -0.6312 -1.3276
  940SOL    HW2 2820   2.866   2.868   0.025 -1.6336 -0.5811  2.8241
  941SOL     OW 2821   0.983   2.656   0.032  0.1572 -0.0896  0.0451
  941SOL    HW1 2822   1.056   2.588   0.038  0.6088  2.3454  0.1631
  941SOL    HW2 2823   1.007   2.733   3.052  0.1369  3.0437 -4.7919
  942SOL     OW 2824   1.676   1.825   1.695  0.5313 -0.1228 -0.0870
  942SOL    HW1 2825   1.708   1.837   1.791  2.5928 -0.8600  1.4150
  942SOL    HW2 2826   1.740   1.760   1.647  1.9081  0.2659  0.0040
  943SOL     OW 2827   2.201   1.340   1.402 -0.1461  0.0209 -0.2123
  943SOL    HW1 2828   2.278   1.373   1.461  1.2143 -0.9747 -1.6761
  943SOL    HW2 2829   2.169   1.252   1.454 -1.6366 -2.1346  2.1097
  944SOL     OW 2830   1.955   0.886   1.406 -0.3051  0.0904 -0.2472
  944SOL    HW1 2831   1.903   0.903   1.322  2.0149  0.8767 -1.7340
  944SOL    HW2 2832   2.032   0.824   1.380 -1.7306 -0.4105  1.1217
  945SOL     OW 2833   0.066   2.760   0.853  0.3728  0.0486 -0.4533
  945SOL    HW1 2834   0.026   2.672   0.826 -0.4039 -0.9751 -1.6449
  945SOL    HW2 2835   3.080   2.828   0.876 -0.0894  1.9373 -2.1897
  946SOL     OW 2836   0.242   0.616   1.929  0.1436  0.0135  0.3330
  946SOL    HW1 2837   0.142   0.625   1.950 -2.8208 -0.5276  1.9375
  946SOL    HW2 2838   0.255   0.529   1.875  2.8868 -0.0640 -2.1805
  947SOL     OW 2839   0.464   2.742   0.537 -0.0037 -0.2616  0.3723
  947SOL    HW1 2840   0.449   2.697   0.449 -0.2768 -0.9087  0.3787
  947SOL    HW2 2841   0.451   2.677   0.615 -0.0846 -0.7799  1.6593
  948SOL     OW 2842   2.988   1.165   1.805  0.0212  0.4557  0.4240
  948SOL    HW1 2843   3.061   1.214   1.750 -0.3904  1.5487 -1.4500
  948SOL    HW2 2844   3.027   1.073   1.837 -0.5427 -1.8318 -2.1550
  949SOL     OW 2845   0.426   0.944   2.260 -0.0465 -0.0521 -0.2599
  949SOL    HW1 2846   0.431   0.972   2.358  1.1301  1.5207  0.2838
  949SOL    HW2 2847   0.357   0.865   2.248 -1.8074  0.1457 -0.1459
  950SOL     OW 2848   1.044   0.786   1.070  0.1698  0.3714 -0.0643
  950SOL    HW1 2849   0.993   0.798   1.159 -1.5376 -0.4728 -0.5716
  950SOL    HW2 2850   1.050   0.875   1.027  0.4091 -0.6898  0.0466
  951SOL     OW 2851   0.942   1.952   1.920  0.4005  0.2466  0.4420
  951SOL    HW1 2852   1.017   1.956   1.990  0.7325 -1.7482 -3.0639
  951SOL    HW2 2853   0.939   2.046   1.877 -1.3563  0.4504 -1.2709
  952SOL     OW 2854   0.596   1.843   2.748 -0.3044  0.3871 -0.4867
  952SOL    HW1 2855   0.659   1.787   2.805 -1.9613  2.6235 -0.3938
  952SOL    HW2 2856   0.566   1.807   2.657  0.9381  1.6647  1.4124
  953SOL     OW 2857   1.642   2.888   2.234 -0.2763  0.2300 -0.3009
  953SOL    HW1 2858   1.653   2.900   2.337  0.0812  1.0763  0.8403
  953SOL    HW2 2859   1.712   2.948   2.192 -3.0537  0.3180  1.5082
  954SOL     OW 2860   1.882   1.243   0.499  0.2685 -0.8044  0.3325
  954SOL    HW1 2861   1.926   1.311   0.566 -0.4492  0.2484  0.1801
  954SOL    HW2 2862   1.914   1.261   0.399  1.0381 -1.0937 -2.0143
  955SOL     OW 2863   0.639   2.436   2.094  0.5075 -0.0490 -0.2952
  955SOL    HW1 2864   0.572   2.374   2.136  0.0220 -2.0783 -0.0009
  955SOL    HW2 2865   0.589   2.487   2.022 -0.4152 -2.5023  1.6596
  956SOL     OW 2866   1.586   0.888   1.363  0.0551  0.4697 -0.3721
  956SOL    HW1 2867   1.579   0.797   1.315 -1.2709 -0.9563 -2.3166
  956SOL    HW2 2868   1.652   0.883   1.445  1.9370  2.7803  3.9327
  957SOL     OW 2869   2.220   1.397   2.347  0.0093  0.1694 -0.2348
  957SOL    HW1 2870   2.239   1.487   2.303 -0.3659  1.5745  0.0698
  957SOL    HW2 2871   2.183   1.409   2.438  0.1766 -1.6631  0.7933
  958SOL     OW 2872   1.223   2.533   0.895 -0.0884 -0.3621 -0.8394
  958SOL    HW1 2873   1.174   2.615   0.930 -1.8900 -1.1602  1.4816
  958SOL    HW2 2874   1.270   2.482   0.974  2.7172 -1.8784  0.9948
  959SOL     OW 2875   1.551   1.500   2.619  0.8989 -0.0181 -0.3899
  959SOL    HW1 2876   1.464   1.482   2.668 -0.9489  0.8169 -1.3196
  959SOL    HW2 2877   1.634   1.491   2.674  2.7705 -3.3417  0.7692
  960SOL     OW 2878   0.171   0.251   0.118 -0.1072 -0.4524  0.0298
  960SOL    HW1 2879   0.094   0.315   0.138  2.1040  1.5908  0.1724
  960SOL    HW2 2880   0.164   0.224   0.021 -0.1819  1.6074 -1.0755
  961SOL     OW 2881   0.369   0.462   2.303  0.6166  0.5207 -0.3173
  961SOL    HW1 2882   0.424   0.377   2.305 -0.3132 -1.5630  0.1497
  961SOL    HW2 2883   0.372   0.508   2.395  1.2840  1.9204  1.3303
  962SOL     OW 2884   0.818   1.495   0.007  0.0500  0.4705  0.7933
  962SOL    HW1 2885   0.908   1.443   3.087  1.5318 -1.1264 -0.2009
  962SOL    HW2 2886   0.745   1.425   3.080  1.6974  0.0112  1.7652
  963SOL     OW 2887   2.014   1.783   2.934 -0.0830  0.7566  0.0360
  963SOL    HW1 2888   1.959   1.778   2.848  1.3607  0.1708  0.3206
  963SOL    HW2 2889   2.061   1.872   2.943 -2.0775  2.3235 -0.3512
  964SOL     OW 2890   1.453   2.904   0.909 -0.4963  0.0380  0.3516
  964SOL    HW1 2891   1.415   2.867   0.822 -1.0554  0.7883  1.8599
  964SOL    HW2 2892   1.382   2.921   0.982  1.1911  0.9701 -2.2461
  965SOL     OW 2893   0.716   2.490   1.243 -0.4852 -0.0683 -0.2160
  965SOL    HW1 2894   0.735   2.455   1.336  1.4528 -1.8592 -1.8416
  965SOL    HW2 2895   0.718   2.413   1.175 -0.6413 -0.3650 -2.4431
  966SOL     OW 2896   0.048   1.556   0.001 -0.2206 -0.2079  0.2610
  966SOL    HW1 2897   3.070   1.564   3.013  1.1751 -1.7281  0.9198
  966SOL    HW2 2898   0.011   1.544   0.095  2.5223 -0.3848 -0.1257
  967SOL     OW 2899   1.746   3.022   1.611 -0.1432 -0.3104  0.3514
  967SOL    HW1 2900   1.664   3.046   1.555 -0.1009  1.0022  0.0568
  967SOL    HW2 2901   1.745   2.919   1.638  0.3185 -2.8715  0.0413
  968SOL     OW 2902   1.764   0.942   0.880  0.8748  0.3385 -0.3253
  968SOL    HW1 2903   1.743   1.025   0.827  1.3101 -4.0516  1.7283
  968SOL    HW2 2904   1.859   0.906   0.848  3.9307 -1.3538 -0.0743
  969SOL     OW 2905   0.387   1.851   2.042  0.4521  0.0316 -0.0353
  969SOL    HW1 2906   0.453   1.843   1.968 -2.2097  0.1834  1.1588
  969SOL    HW2 2907   0.366   1.948   2.063  1.9756 -0.2850 -0.2733
  970SOL     OW 2908   2.673   1.249   1.355  0.3704  0.1337 -0.4601
  970SOL    HW1 2909   2.586   1.207   1.390  1.2635 -2.5117  0.5523
  970SOL    HW2 2910   2.656   1.320   1.287  0.3952 -3.6779  0.4346
  971SOL     OW 2911   1.043   0.417   1.619 -0.3682  0.2929 -0.4437
  971SOL    HW1 2912   1.004   0.475   1.695  0.4647 -0.0540 -0.6668
  971SOL    HW2 2913   1.106   0.468   1.565 -2.6691 -1.5699  0.0345
  972SOL     OW 2914   0.966   0.253   2.460  0.3344  0.2062  0.4857
  972SOL    HW1 2915   0.977   0.157   2.494  1.6318 -1.2618 -0.9657
  972SOL    HW2 2916   0.889   0.301   2.504 -0.4724 -1.0802 -0.6661
  973SOL     OW 2917   2.937   1.475   1.019 -0.0991 -0.4495  0.1723
  973SOL    HW1 2918   2.865   1.396   1.010  2.1637  2.0301  1.7351
  973SOL    HW2 2919   2.941   1.528   0.930 -4.2174 -1.2572 -2.3228
  974SOL     OW 2920   1.706   1.147   1.927  0.1390 -0.2640  0.0620
  974SOL    HW1 2921   1.709   1.237   1.886 -0.0093  1.9396 -2.3676
  974SOL    HW2 2922   1.647   1.090   1.869 -0.1525 -0.9996  5.8426
  975SOL     OW 2923   2.635   0.114   0.224  0.0695 -0.3560 -0.2677
  975SOL    HW1 2924   2.584   0.047   0.166  1.3538 -3.1634  1.1013
  975SOL    HW2 2925   2.738   0.095   0.216  2.2576 -2.4813 -1.4248
  976SOL     OW 2926   0.357   1.668   1.752 -0.2505  0.3370 -0.0889
  976SOL    HW1 2927   0.446   1.706   1.789  1.4706  1.2667  0.9542
  976SOL    HW2 2928   0.277   1.722   1.779  1.9335 -0.6562 -1.2958
  977SOL     OW 2929   0.470   2.692   0.048 -0.7217  0.2951  0.3913
  977SOL    HW1 2930   0.543   2.749   0.002 -1.7024  0.5039 -2.9230
  977SOL    HW2 2931   0.375   2.723   0.026 -0.4106 -2.9637  0.2650
  978SOL     OW 2932   0.626   1.693   0.235 -0.0098  0.2006 -0.0017
  978SOL    HW1 2933   0.543   1.651   0.198 -0.1791 -0.6466 -0.3342
  978SOL    HW2 2934   0.709   1.678   0.181  0.4039 -0.9317  1.5061
  979SOL     OW 2935   1.350   2.051   1.250  0.1450  0.2373  1.2149
  979SOL    HW1 2936   1.293   2.137   1.247 -1.0600 -0.0199  0.1489
  979SOL    HW2 2937   1.341   2.005   1.337  0.3818 -0.1484  0.0012
  980SOL     OW 2938   0.635   1.459   2.149  0.0716  0.4864  0.1704
  980SOL    HW1 2939   0.586   1.436   2.062  1.4842  0.3765 -0.7640
  980SOL    HW2 2940   0.670   1.374   2.201 -0.6402  0.5257  0.6259
  981SOL     OW 2941   3.056   1.511   0.260  0.0466 -0.0475 -0.0542
  981SOL    HW1 2942   0.053   1.526   0.316 -2.2763 -0.3468 -1.6562
  981SOL    HW2 2943   2.979   1.547   0.312  2.3408  1.0136 -1.3204
  982SOL     OW 2944   2.292   2.580   2.857 -0.0004  0.1066 -0.5077
  982SOL    HW1 2945   2.303   2.508   2.785  0.5083 -0.1138  1.0445
  982SOL    HW2 2946   2.315   2.669   2.812 -0.0103  0.7239 -0.5522
  983SOL     OW 2947   2.214   0.565   1.167 -0.0427 -0.0965  0.0856
  983SOL    HW1 2948   2.273   0.608   1.102  0.4605  0.8054 -0.3237
  983SOL    HW2 2949   2.212   0.464   1.155  2.2140 -1.1849  1.5369
  984SOL     OW 2950   0.985   3.070   2.547 -0.4301  0.2379 -0.1120
  984SOL    HW1 2951   0.980   0.021   2.641  0.2217  1.8754 -1.4938
  984SOL    HW2 2952   1.041   2.985   2.544  2.0136 -0.9449 -0.7184
  985SOL     OW 2953   1.472   2.110   2.244  0.1407  0.0243 -0.3769
  985SOL    HW1 2954   1.446   2.211   2.250  2.5189 -1.5764 -0.9583
  985SOL    HW2 2955   1.562   2.086   2.202  0.7004 -0.1898  0.6033
  986SOL     OW 2956   1.802   0.003   2.476  0.1125  0.1711 -0.5192
  986SOL    HW1 2957   1.861   0.083   2.486 -2.6919 -0.7923  2.1669
  986SOL    HW2 2958   1.861   3.010   2.455 -0.8633 -0.2712 -1.7841
  987SOL     OW 2959   2.457   0.025   2.108  0.4132  0.0735 -0.0291
  987SOL    HW1 2960   2.474   0.128   2.123 -0.0400 -0.7311  1.3440
  987SOL    HW2 2961   2.360   3.082   2.122  0.5176  1.7299 -0.2302
  988SOL     OW 2962   2.468   0.301   2.188 -0.6134  0.2350  0.0576
  988SOL    HW1 2963   2.490   0.332   2.284  1.7341  0.4186  0.1214
  988SOL    HW2 2964   2.392   0.358   2.146 -1.0940  1.0183 -1.0483
  989SOL     OW 2965   2.249   2.367   2.646 -0.2105  0.2055  0.2154
  989SOL    HW1 2966   2.237   2.366   2.545  1.9016  0.7496  0.7139
  989SOL    HW2 2967   2.303   2.287   2.676 -1.7358  2.8875  2.7855
  990SOL     OW 2968   0.055   0.887   3.033 -0.2372  0.2726 -0.1569
  990SOL    HW1 2969   0.020   0.799   3.014 -0.2984  0.6660  1.0574
  990SOL    HW2 2970   0.142   0.889   2.979  1.1274  0.5205  0.8716
  991SOL     OW 2971   0.727   1.227   2.574 -0.1341 -0.2817 -0.2804
  991SOL    HW1 2972   0.718   1.236   2.471  0.3113 -1.1861 -0.9825
  991SOL    HW2 2973   0.796   1.152   2.595 -0.0996 -0.0721  2.5884
  992SOL     OW 2974   0.111   1.712   2.052  0.2986 -0.6596 -0.1258
  992SOL    HW1 2975   0.201   1.744   2.019  1.5591  0.0828  1.6565
  992SOL    HW2 2976   0.034   1.743   1.997 -0.3997 -0.0549  0.5567
  993SOL     OW 2977   0.890   0.224   0.687  0.2610  0.2528  0.5111
  993SOL    HW1 2978   0.822   0.295   0.666 -1.5494 -2.2682 -0.5312
  993SOL    HW2 2979   0.905   0.177   0.598 -1.0046  2.6305 -0.0512
  994SOL     OW 2980   0.456   2.017   1.443 -0.4338  0.5718  0.2736
  994SOL    HW1 2981   0.379   1.956   1.463  2.2043 -1.7163  1.5358
  994SOL    HW2 2982   0.532   1.964   1.403  0.8696  0.5326  2.1580
  995SOL     OW 2983   2.222   1.698   2.767 -0.0432  0.0569 -0.2467
  995SOL    HW1 2984   2.270   1.606   2.767  1.0716 -4.0758 -0.2090
  995SOL    HW2 2985   2.180   1.732   2.853  0.2494  2.4934 -1.1618
  996SOL     OW 2986   2.062   1.670   2.558 -0.0789 -0.3129 -0.4887
  996SOL    HW1 2987   2.052   1.570   2.534 -1.4455 -0.7020 -0.0775
  996SOL    HW2 2988   2.138   1.685   2.625 -0.7265  0.3163 -0.4284
  997SOL     OW 2989   1.786   1.421   1.800  0.2952  0.2721  0.0780
  997SOL    HW1 2990   1.867   1.459   1.845 -0.2948 -0.9407  0.0896
  997SOL    HW2 2991   1.700   1.448   1.852  0.1199  2.8793  0.1555
  998SOL     OW 2992   2.177   1.999   1.076  0.0010  0.3174  0.0224
  998SOL    HW1 2993   2.162   2.028   1.177 -1.2772 -0.6166  3.0855
  998SOL    HW2 2994   2.177   1.897   1.073  0.2647 -0.8882  0.1098
  999SOL     OW 2995   2.265   2.432   0.313  0.3926  0.3391  0.0164
  999SOL    HW1 2996   2.320   2.517   0.317  0.3344 -0.7418  2.0250
  999SOL    HW2 2997   2.283   2.382   0.226 -1.1227  1.0212  0.8486
 1000SOL     OW 2998   0.724   2.992   2.455  0.1786 -0.4243  0.3280
 1000SOL    HW1 2999   0.661   3.073   2.468 -0.2150 -0.2476 -0.3172
 1000SOL    HW2 3000   0.825   3.019   2.461  0.3736  1.2745  0.3809
   3.08802   3.08802   3.08802
