1000 SPC/Fw water molecules t= 125.00000 step= 125000
 3000
    1SOL     OW    1   2.180   2.133   0.904  0.5358 -0.3154  0.1912
    1SOL    HW1    2   2.249   2.090   0.842 -0.4367  0.5733 -0.7663
    1SOL    HW2    3   2.133   2.069   0.970  1.5446  0.3054 -1.9951
    2SOL     OW    4   1.417   1.758   2.267  0.2448 -0.5700  0.0414
    2SOL    HW1    5   1.335   1.768   2.328  1.2245 -0.1540 -0.4714
    2SOL    HW2    6   1.423   1.660   2.234 -1.2536 -1.3770 -0.2358
    3SOL     OW    7   1.449   2.389   2.372  0.2618 -0.3094 -0.1220
    3SOL    HW1    8   1.377   2.368   2.301  1.5638 -0.5595  2.1133
    3SOL    HW2    9   1.502   2.308   2.396 -0.8341 -0.0633 -1.1614
    4SOL     OW   10   1.007   2.301   2.056 -0.3774  0.0805 -0.4192
    4SOL    HW1   11   1.069   2.272   1.983 -0.8882 -1.3809 -0.1476
    4SOL    HW2   12   0.999   2.226   2.129  0.8228 -3.7327  0.5319
    5SOL     OW   13   0.689   0.815   1.689 -0.4270 -0.3372 -0.2312
    5SOL    HW1   14   0.707   0.907   1.734  1.1834  1.4053  0.5892
    5SOL    HW2   15   0.591   0.818   1.650  0.7853 -0.6861 -0.8604
    6SOL     OW   16   2.170   0.903   0.163 -0.8112 -0.2856  0.0067
    6SOL    HW1   17   2.078   0.864   0.150  1.1554  0.4695  1.4464
    6SOL    HW2   18   2.243   0.827   0.168  0.8105 -1.6238 -0.3315
    7SOL     OW   19   0.503   0.162   1.604  0.3236  0.3413  0.0973
    7SOL    HW1   20   0.581   0.199   1.662  1.5825  1.0173 -0.1162
    7SOL    HW2   21   0.491   0.063   1.630  0.6469 -1.6737 -2.1606
    8SOL     OW   22   1.402   3.024   1.640 -0.4165  0.2295 -0.0152
    8SOL    HW1   23   1.401   2.923   1.649 -1.1120  3.5084  1.3232
    8SOL    HW2   24   1.431   3.063   1.727  1.7079 -2.7842 -2.2885
    9SOL     OW   25   0.633   0.714   0.516  0.2394  0.4581  0.1806
    9SOL    HW1   26   0.654   0.804   0.566  0.2637 -0.8311 -0.8429
    9SOL    HW2   27   0.533   0.713   0.491 -1.4302  0.2602  0.5562
   10SOL     OW   28   0.616   2.328   2.438 -0.7418  0.4729  0.2540
   10SOL    HW1   29   0.605   2.317   2.539 -1.2995  2.1259 -1.7217
   10SOL    HW2   30   0.592   2.422   2.407 -0.4408 -3.9051 -2.8589
   11SOL     OW   31   0.438   1.898   3.005  0.1447 -0.7182  0.4105
   11SOL    HW1   32   0.519   1.861   3.045 -2.4815  0.6230 -1.4681
   11SOL    HW2   33   0.367   1.905   0.005  1.2065 -0.1391 -1.6369
   12SOL     OW   34   0.332   0.161   1.396  0.2392  0.3180 -0.1168
   12SOL    HW1   35   0.408   0.149   1.467  2.8971  0.2373  2.4705
   12SOL    HW2   36   0.296   0.071   1.365 -1.4682  1.9377  0.3261
   13SOL     OW   37   0.785   2.519   0.197 -0.3089  0.7458  0.1959
   13SOL    HW1   38   0.853   2.465   0.143 -0.2335  1.9983  1.7043
   13SOL    HW2   39   0.814   2.616   0.196 -1.8393 -0.1099  1.8356
   14SOL     OW   40   1.590   1.748   0.928 -0.2565  0.3082  0.7693
   14SOL    HW1   41   1.664   1.733   0.991 -2.5167  0.4277 -0.8399
   14SOL    HW2   42   1.552   1.839   0.941  2.3162 -2.3462 -2.0492
   15SOL     OW   43   2.879   1.176   2.185  0.1130 -0.2999  0.1245
   15SOL    HW1   44   2.953   1.153   2.250 -0.8575  0.0184 -0.8777
   15SOL    HW2   45   2.823   1.251   2.219  0.1513 -0.1298  0.2250
   16SOL     OW   46   1.349   2.892   2.863 -0.0589  0.1617  0.4406
   16SOL    HW1   47   1.356   2.802   2.815  2.1427  1.2479 -0.9756
   16SOL    HW2   48   1.286   2.955   2.816  1.4993 -1.8628  1.9156
   17SOL     OW   49   0.632   2.384   2.072  0.5346  0.4400  1.0057
   17SOL    HW1   50   0.701   2.324   2.113  0.3268  1.7712 -2.4017
   17SOL    HW2   51   0.541   2.392   2.121  1.4916 -0.4834  2.8368
   18SOL     OW   52   1.595   0.731   0.328  0.6482 -0.3054  0.0568
   18SOL    HW1   53   1.668   0.796   0.361 -0.7173  0.7082 -0.4133
   18SOL    HW2   54   1.638   0.675   0.249  1.4438 -1.2085 -0.7339
   19SOL     OW   55   2.478   2.029   2.758 -0.6710 -0.0604 -0.0612
   19SOL    HW1   56   2.500   2.021   2.862  1.2258  2.0547  1.7580
   19SOL    HW2   57   2.553   1.972   2.717  0.7228 -0.7871 -1.3274
   20SOL     OW   58   2.473   2.209   2.440  0.4567  0.1238  0.0464
   20SOL    HW1   59   2.475   2.288   2.376 -0.0888 -1.4818 -0.8393
   20SOL    HW2   60   2.568   2.183   2.471 -0.8579  1.0062 -0.3278
   21SOL     OW   61   0.702   2.105   0.122  0.1763  0.1615  0.4340
   21SOL    HW1   62   0.616   2.163   0.146 -1.8296  3.0539 -1.5329
   21SOL    HW2   63   0.683   2.006   0.144  0.4057  1.2525  1.8215
   22SOL     OW   64   2.220   2.816   1.010  0.1417  0.2663 -0.1443
   22SOL    HW1   65   2.287   2.893   0.998  1.4451  1.6248  0.1642
   22SOL    HW2   66   2.197   2.807   1.107  0.0225 -3.0660 -1.0847
   23SOL     OW   67   0.441   1.294   1.507 -0.6457  0.1951 -0.1825
   23SOL    HW1   68   0.386   1.378   1.534  1.0317 -1.9980 -0.0861
   23SOL    HW2   69   0.540   1.326   1.504  4.8373  3.5273  0.9026
   24SOL     OW   70   2.115   1.972   1.661  1.0359  0.1167 -0.7801
   24SOL    HW1   71   2.052   1.965   1.739  0.7970 -2.4464 -1.9511
   24SOL    HW2   72   2.204   2.005   1.689 -0.1297 -1.8242 -0.4856
   25SOL     OW   73   1.864   0.205   2.544  0.5734  0.2087  0.4805
   25SOL    HW1   74   1.825   0.298   2.550  1.5606 -0.0505 -0.9476
   25SOL    HW2   75   1.817   0.147   2.477 -0.4370 -1.0372 -1.5434
   26SOL     OW   76   1.298   2.841   0.981 -0.2068  0.3364 -0.2416
   26SOL    HW1   77   1.352   2.826   0.896 -1.5272  0.8682  2.7996
   26SOL    HW2   78   1.316   2.937   1.012 -1.1937  0.4179 -1.2170
   27SOL     OW   79   1.225   1.760   3.037  0.4961  0.0611 -0.3933
   27SOL    HW1   80   1.276   1.786   0.048 -0.4066 -0.6390 -0.6888
   27SOL    HW2   81   1.124   1.757   3.055  1.1089 -1.2039  3.0641
   28SOL     OW   82   2.823   1.737   1.324  0.1134  0.9531  0.0225
   28SOL    HW1   83   2.792   1.720   1.421 -0.2022 -2.2148 -0.5649
   28SOL    HW2   84   2.910   1.791   1.332 -0.2633 -0.3854  3.2526
   29SOL     OW   85   2.163   2.491   1.947  0.9159 -0.1634 -0.6415
   29SOL    HW1   86   2.231   2.424   1.983  1.1634 -3.0344  0.9772
   29SOL    HW2   87   2.078   2.503   2.005  0.1651  0.8795  2.0538
   30SOL     OW   88   0.814   2.625   1.229  0.1871  0.0386 -0.4908
   30SOL    HW1   89   0.864   2.601   1.144 -0.5298  2.5215  2.0240
   30SOL    HW2   90   0.712   2.635   1.218  0.2908 -1.1979 -1.4146
   31SOL     OW   91   0.002   2.115   2.204  0.2939 -0.0937 -0.1197
   31SOL    HW1   92   3.046   2.018   2.181 -0.6495  0.7435 -0.7590
   31SOL    HW2   93   0.071   2.148   2.139 -0.6875 -0.7051  2.5657
   32SOL     OW   94   1.578   1.186   2.033  0.4881 -0.2699  0.5126
   32SOL    HW1   95   1.550   1.130   1.949 -0.4120  1.8880 -1.7460
   32SOL    HW2   96   1.490   1.202   2.088 -0.8623 -2.6038 -1.5102
   33SOL     OW   97   0.405   3.025   2.470 -0.2637  0.1130 -0.1158
   33SOL    HW1   98   0.331   2.962   2.488  2.3651  2.6924  1.2387
   33SOL    HW2   99   0.494   2.976   2.482  2.0658 -0.0008 -2.3654
   34SOL     OW  100   1.595   0.084   1.499 -0.1279 -0.3594 -0.8790
   34SOL    HW1  101   1.527   0.034   1.563 -1.4904 -0.3725  3.8127
   34SOL    HW2  102   1.671   0.134   1.545 -1.8613  1.1296  0.2192
   35SOL     OW  103   2.095   0.614   1.134  0.1873 -0.3628 -0.2717
   35SOL    HW1  104   2.112   0.683   1.210  1.2902 -1.1124 -0.3417
   35SOL    HW2  105   1.997   0.618   1.101 -1.3354  1.1854 -0.1561
   36SOL     OW  106   2.422   2.828   2.461  0.0960  0.1409  0.0516
   36SOL    HW1  107   2.344   2.819   2.531 -2.7552 -3.1776 -0.2069
   36SOL    HW2  108   2.482   2.908   2.476  1.1863 -1.5875  1.1586
   37SOL     OW  109   1.286   2.172   2.849 -0.1505 -0.2919 -0.0475
   37SOL    HW1  110   1.258   2.193   2.946 -1.7015 -0.5066 -2.5147
   37SOL    HW2  111   1.263   2.076   2.832 -1.7981  0.9464 -0.0902
   38SOL     OW  112   2.955   0.853   2.758 -0.0217 -0.2692  0.8011
   38SOL    HW1  113   2.917   0.810   2.670 -2.1976 -0.2437  0.1501
   38SOL    HW2  114   2.916   0.803   2.839 -1.0948  1.2043 -0.7637
   39SOL     OW  115   2.105   2.034   2.092  0.1072 -0.4097 -0.6238
   39SOL    HW1  116   2.058   2.002   2.005 -0.8835  0.6549 -0.6356
   39SOL    HW2  117   2.039   2.087   2.146  1.5230 -1.8657 -0.0241
   40SOL     OW  118   0.306   0.330   2.853 -0.5966  0.0510  0.1002
   40SOL    HW1  119   0.346   0.299   2.944  0.1237 -0.8553 -0.7537
   40SOL    HW2  120   0.278   0.249   2.794 -1.4821  0.4754 -1.0543
   41SOL     OW  121   1.486   0.964   1.424 -0.2714  0.1360  0.1435
   41SOL    HW1  122   1.564   1.008   1.376 -0.3098  1.4966  1.2037
   41SOL    HW2  123   1.429   1.025   1.477  1.4253 -1.7127 -3.1673
   42SOL     OW  124   0.079   0.234   1.951 -0.0068  0.1317 -0.5986
   42SOL    HW1  125   0.055   0.331   1.919 -0.2402  2.1944  1.4986
   42SOL    HW2  126   0.176   0.240   1.967 -2.3059  0.7808 -0.3841
   43SOL     OW  127   1.540   1.549   1.963 -0.5676 -0.0919  0.9982
   43SOL    HW1  128   1.453   1.553   2.016  2.5525 -0.7661  0.1568
   43SOL    HW2  129   1.604   1.476   1.996 -1.4017 -2.3719  2.4025
   44SOL     OW  130   2.904   2.821   2.536  0.7520  0.4854 -0.1072
   44SOL    HW1  131   2.916   2.915   2.560  0.6986 -3.0121 -1.0291
   44SOL    HW2  132   2.846   2.780   2.606  0.5416  2.3246  1.3160
   45SOL     OW  133   0.414   2.245   1.343  0.5595  0.4798  0.5163
   45SOL    HW1  134   0.432   2.169   1.404 -1.9983  2.8750 -1.5650
   45SOL    HW2  135   0.491   2.312   1.344 -1.0944 -0.3167  0.8088
   46SOL     OW  136   2.450   2.515   1.681  0.2981 -0.4590 -0.9018
   46SOL    HW1  137   2.352   2.502   1.665  1.8620  0.3150  1.3316
   46SOL    HW2  138   2.473   2.608   1.723  1.0031  1.8690  2.3642
   47SOL     OW  139   1.689   1.756   1.554 -0.4139  0.1842 -0.0227
   47SOL    HW1  140   1.611   1.746   1.622  0.3242 -0.5886  2.0443
   47SOL    HW2  141   1.764   1.696   1.582  1.0749  1.8689  1.8433
   48SOL     OW  142   0.228   2.139   0.422  0.5015 -0.1108 -0.1750
   48SOL    HW1  143   0.278   2.079   0.492  2.0422 -1.3541  0.5564
   48SOL    HW2  144   0.227   2.237   0.454 -1.8998 -1.8693  1.8236
   49SOL     OW  145   3.051   1.055   2.005  0.1883  0.5677 -0.4358
   49SOL    HW1  146   0.062   1.111   1.994 -2.2242 -0.1285  0.3952
   49SOL    HW2  147   3.003   1.084   2.093 -0.7705 -0.2226 -0.4855
   50SOL     OW  148   2.026   0.902   0.714 -0.0236 -0.4547 -0.3665
   50SOL    HW1  149   2.121   0.892   0.679  1.4350  0.3824  0.9421
   50SOL    HW2  150   1.958   0.839   0.675  0.6573 -1.1168  2.5353
   51SOL     OW  151   1.127   0.598   0.639 -0.3942  0.2419  0.5635
   51SOL    HW1  152   1.050   0.654   0.667 -0.2400 -1.5708 -0.2282
   51SOL    HW2  153   1.200   0.583   0.708  0.5302  2.5003 -0.4550
   52SOL     OW  154   1.320   1.092   0.149  0.1049  0.1920 -0.5490
   52SOL    HW1  155   1.409   1.100   0.099  0.9561 -0.4433  1.7985
   52SOL    HW2  156   1.316   0.995   0.187  0.0240 -0.8852 -2.1460
   53SOL     OW  157   1.161   2.247   2.604  0.0709  0.5166 -0.0270
   53SOL    HW1  158   1.177   2.187   2.523 -0.0125  1.6789  2.2310
   53SOL    HW2  159   1.219   2.213   2.677  0.6804  0.2482 -1.2947
   54SOL     OW  160   1.458   0.764   1.703  0.5581  0.1971 -0.5871
   54SOL    HW1  161   1.353   0.754   1.705  1.6862 -0.7805  1.1448
   54SOL    HW2  162   1.500   0.749   1.610 -1.8928 -0.0690  2.8686
   55SOL     OW  163   2.130   2.810   0.335 -0.3396 -0.8239  0.1917
   55SOL    HW1  164   2.054   2.852   0.288  3.0589 -1.0784 -1.8103
   55SOL    HW2  165   2.178   2.757   0.264  0.0505  1.2266 -1.1480
   56SOL     OW  166   1.167   2.735   1.581 -0.0335 -0.1336  0.0721
   56SOL    HW1  167   1.149   2.782   1.670 -3.4650  0.7549  1.3439
   56SOL    HW2  168   1.096   2.762   1.517 -0.2891 -1.2652  0.4583
   57SOL     OW  169   1.744   0.784   2.850 -0.3265  0.0676  0.0547
   57SOL    HW1  170   1.833   0.827   2.834 -2.2020 -0.4133  0.2591
   57SOL    HW2  171   1.760   0.681   2.853 -0.0318 -2.8583  0.5172
   58SOL     OW  172   2.877   1.090   1.792  0.1361  0.1775  0.0967
   58SOL    HW1  173   2.911   1.089   1.891 -0.8355  0.2206  1.9016
   58SOL    HW2  174   2.809   1.163   1.761 -1.2972  0.3555  0.5681
   59SOL     OW  175   0.568   2.597   2.311  0.3295 -0.5814 -0.3074
   59SOL    HW1  176   0.513   2.583   2.231  2.6789  1.0289  2.9358
   59SOL    HW2  177   0.629   2.679   2.293 -1.4402  1.1056 -3.3591
   60SOL     OW  178   2.551   2.496   0.970 -0.3730 -0.1647  0.0100
   60SOL    HW1  179   2.454   2.521   0.984  2.1607  0.1737 -0.5035
   60SOL    HW2  180   2.569   2.516   0.872  0.7561 -0.9390  0.2352
   61SOL     OW  181   1.036   2.317   0.443 -0.2868  0.3770  0.1984
   61SOL    HW1  182   1.126   2.324   0.395 -0.4552 -0.2912  2.9499
   61SOL    HW2  183   1.002   2.223   0.416 -1.3098  1.1048  0.4989
   62SOL     OW  184   2.032   2.731   2.999 -0.1874 -0.2130 -1.0302
   62SOL    HW1  185   2.119   2.678   2.978  2.5530 -1.0564  0.2554
   62SOL    HW2  186   1.948   2.682   2.964 -1.2614  0.4090 -1.3748
   63SOL     OW  187   1.857   0.232   3.026 -0.3378 -0.0027 -0.8853
   63SOL    HW1  188   1.793   0.162   2.989  0.0152 -1.2680  1.5857
   63SOL    HW2  189   1.951   0.192   3.031 -0.0006  2.6588  1.9103
   64SOL     OW  190   0.945   0.994   2.549  0.3892 -0.1585  0.1658
   64SOL    HW1  191   1.019   0.940   2.505 -0.6221  1.8445  2.4244
   64SOL    HW2  192   0.852   0.965   2.509  0.9120  0.8823 -0.1471
   65SOL     OW  193   1.362   2.575   0.593  0.5674  0.0998  0.4651
   65SOL    HW1  194   1.367   2.519   0.511 -1.6520  0.1660 -0.1061
   65SOL    HW2  195   1.419   2.531   0.665 -4.5578  0.6791  0.3573
   66SOL     OW  196   0.384   1.639   1.740  0.2739  0.2834 -0.2714
   66SOL    HW1  197   0.379   1.558   1.802 -1.2932  0.5458  0.0657
   66SOL    HW2  198   0.352   1.607   1.650 -1.8201  1.8411 -1.0945
   67SOL     OW  199   2.164   2.950   2.067  0.1574 -0.5384 -0.3719
   67SOL    HW1  200   2.143   2.894   1.988 -2.7743  3.0716  0.0339
   67SOL    HW2  201   2.226   3.025   2.035 -1.0118 -0.9198 -1.3362
   68SOL     OW  202   0.918   0.763   1.542  0.2098 -0.5082 -0.4557
   68SOL    HW1  203   0.907   0.693   1.471  0.7904  1.1086  0.1651
   68SOL    HW2  204   0.838   0.754   1.605 -1.5172  1.2912  1.8078
   69SOL     OW  205   1.918   2.949   0.265 -0.3713 -0.1851  0.3240
   69SOL    HW1  206   1.826   2.926   0.226  1.3308  0.2484 -1.0845
   69SOL    HW2  207   1.919   3.044   0.303  1.5757 -2.2105 -3.1919
   70SOL     OW  208   2.764   1.090   2.896  0.0109  0.4520  0.3776
   70SOL    HW1  209   2.813   1.168   2.849 -0.0031 -0.7062 -0.9463
   70SOL    HW2  210   2.800   1.059   2.987  1.6267 -2.2168  1.6945
   71SOL     OW  211   2.887   1.690   2.993 -0.2720 -0.4593  0.5464
   71SOL    HW1  212   2.830   1.690   2.910  3.3746  0.4306  0.3489
   71SOL    HW2  213   2.973   1.736   2.967 -1.8537 -0.4351  0.8378
   72SOL     OW  214   2.866   1.855   0.396 -0.1662  0.3073 -0.1911
   72SOL    HW1  215   2.867   1.765   0.445  0.4969 -2.9608 -1.2255
   72SOL    HW2  216   2.871   1.933   0.464  0.7471  0.8751  1.4438
   73SOL     OW  217   0.945   1.014   0.425  0.4688 -0.3830 -0.1653
   73SOL    HW1  218   0.971   1.101   0.380  4.4550 -0.9496 -0.8036
   73SOL    HW2  219   0.895   0.951   0.356 -1.1494 -0.8944 -2.4463
   74SOL     OW  220   0.164   1.964   1.929 -0.2913  0.0505  0.2247
   74SOL    HW1  221   0.167   2.067   1.937  0.1592 -2.9080 -0.9291
   74SOL    HW2  222   0.254   1.926   1.914 -3.7332  2.5807  1.1508
   75SOL     OW  223   1.689   1.354   1.587  0.1400  0.2771  0.2684
   75SOL    HW1  224   1.714   1.258   1.616 -1.6328 -1.3207  1.1362
   75SOL    HW2  225   1.589   1.374   1.590 -2.0273  2.3033  0.4456
   76SOL     OW  226   1.953   2.302   1.203 -0.3622 -0.2693 -0.2706
   76SOL    HW1  227   2.036   2.249   1.171  0.8480  0.4949  0.2504
   76SOL    HW2  228   1.989   2.395   1.208  0.2688 -0.7268  0.9304
   77SOL     OW  229   2.793   1.341   1.725  0.3506 -0.0554 -0.5010
   77SOL    HW1  230   2.711   1.394   1.760 -1.1427  2.1116  2.1833
   77SOL    HW2  231   2.879   1.396   1.735  0.2101  0.6640  0.4316
   78SOL     OW  232   1.374   0.432   0.538  0.3967  0.0152 -0.1795
   78SOL    HW1  233   1.353   0.448   0.637  0.7500  0.4670  1.3316
   78SOL    HW2  234   1.470   0.391   0.514 -0.2487 -2.2208 -1.1727
   79SOL     OW  235   2.437   1.518   1.496 -0.6400  0.7249  0.3002
   79SOL    HW1  236   2.368   1.554   1.558  1.3103 -0.6747  0.4381
   79SOL    HW2  237   2.422   1.420   1.475 -1.0304 -2.4108 -0.6512
   80SOL     OW  238   0.871   0.549   1.333  0.6533  0.3157 -0.1698
   80SOL    HW1  239   0.771   0.563   1.340  1.9319 -0.5417 -0.7176
   80SOL    HW2  240   0.908   0.523   1.242  0.8977  2.4951  2.6910
   81SOL     OW  241   0.668   2.660   0.824  0.4169 -0.0860 -0.0506
   81SOL    HW1  242   0.769   2.658   0.848  0.3786  0.1500 -1.1380
   81SOL    HW2  243   0.643   2.749   0.787  0.6049 -4.2180  2.4722
   82SOL     OW  244   1.554   2.867   1.960  0.3865 -0.6051  0.3034
   82SOL    HW1  245   1.523   2.841   1.868 -0.5297  2.2928  1.2613
   82SOL    HW2  246   1.472   2.890   2.017 -0.4941  0.1458 -1.9202
   83SOL     OW  247   1.422   1.758   0.704 -0.4657  0.3777  0.2635
   83SOL    HW1  248   1.497   1.754   0.771  0.2664  1.4027 -1.0512
   83SOL    HW2  249   1.433   1.841   0.644 -1.4615  2.2502  1.0551
   84SOL     OW  250   0.183   1.457   2.908  0.4254  0.1139 -0.4914
   84SOL    HW1  251   0.230   1.388   2.846  1.0962 -1.0104 -0.3820
   84SOL    HW2  252   0.086   1.474   2.879  0.1603 -2.0470 -1.1245
   85SOL     OW  253   0.319   2.272   1.100 -0.1424  1.0838 -0.1046
   85SOL    HW1  254   0.306   2.372   1.112 -1.7922 -1.1403  0.3826
   85SOL    HW2  255   0.354   2.229   1.186 -1.3650  3.5672  1.5792
   86SOL     OW  256   2.088   2.510   1.548 -0.4228 -0.2994 -0.1683
   86SOL    HW1  257   2.046   2.580   1.482 -0.8664  0.1277 -1.0326
   86SOL    HW2  258   2.045   2.527   1.643 -0.3054  0.1098  0.1973
   87SOL     OW  259   2.922   2.014   0.614 -0.1909 -0.4512 -0.1788
   87SOL    HW1  260   2.964   2.108   0.599  0.5155  2.8770  0.5394
   87SOL    HW2  261   2.980   1.944   0.649 -0.7943  3.3507 -0.1038
   88SOL     OW  262   0.959   0.813   0.990 -0.8207  0.0271 -0.4096
   88SOL    HW1  263   0.895   0.870   1.048  1.0835 -1.4497 -5.4417
   88SOL    HW2  264   1.054   0.834   1.010 -3.6692  0.1002  0.0968
   89SOL     OW  265   0.940   0.011   1.908 -0.3444 -0.2393 -0.0759
   89SOL    HW1  266   0.849   0.036   1.946 -2.3873 -0.6187  1.9299
   89SOL    HW2  267   1.018   0.033   1.974  0.0411 -0.0992  1.5190
   90SOL     OW  268   0.138   2.087   1.549  0.7757 -0.1389 -0.0572
   90SOL    HW1  269   0.138   2.001   1.604  1.2530 -0.9756  0.7418
   90SOL    HW2  270   0.172   2.164   1.608 -3.4542  0.6514  2.0557
   91SOL     OW  271   1.377   2.031   1.285  0.0955 -0.1803  0.0284
   91SOL    HW1  272   1.389   2.080   1.371  2.0140 -0.1705  1.4259
   91SOL    HW2  273   1.458   2.050   1.223  1.3819  1.5965 -0.3611
   92SOL     OW  274   2.589   2.876   1.509  0.2179 -0.3400  0.1977
   92SOL    HW1  275   2.578   2.951   1.443  0.3849 -3.0795  1.8227
   92SOL    HW2  276   2.687   2.857   1.530  0.2429 -1.5915 -2.8697
   93SOL     OW  277   0.027   1.064   2.826 -0.0318 -0.0072 -0.1248
   93SOL    HW1  278   0.074   1.042   2.911 -1.6882 -1.8023  0.1969
   93SOL    HW2  279   3.045   0.985   2.785 -3.3137 -1.6849 -0.8970
   94SOL     OW  280   2.624   2.311   1.794  0.3984  0.1076 -0.1202
   94SOL    HW1  281   2.585   2.318   1.888 -1.5185  1.4290  2.5254
   94SOL    HW2  282   2.573   2.365   1.725  1.0302 -2.3295  0.8943
   95SOL     OW  283   1.339   0.532   2.093  0.6083 -0.3583  0.3214
   95SOL    HW1  284   1.278   0.466   2.139  2.3873  1.2445 -1.4471
   95SOL    HW2  285   1.356   0.618   2.146  0.3603  0.7270 -1.0647
   96SOL     OW  286   2.501   0.582   1.725  0.3807  0.6243 -0.9544
   96SOL    HW1  287   2.475   0.512   1.655 -3.7491 -0.7172 -0.7800
   96SOL    HW2  288   2.492   0.544   1.821  0.4238 -1.1500  2.4589
   97SOL     OW  289   2.043   0.463   1.838 -0.3047  0.7055 -0.2670
   97SOL    HW1  290   1.983   0.519   1.898 -0.5760  0.6592 -0.7072
   97SOL    HW2  291   2.058   0.519   1.755  0.2432 -0.0573 -0.3666
   98SOL     OW  292   2.015   2.557   1.174 -0.3743  0.0761  0.0330
   98SOL    HW1  293   2.008   2.571   1.071 -2.0472  2.3183  2.1418
   98SOL    HW2  294   2.069   2.634   1.218  2.1376 -1.6154 -2.2849
   99SOL     OW  295   2.697   0.282   2.064 -0.4450 -0.1034 -0.0672
   99SOL    HW1  296   2.712   0.308   2.160 -0.2552 -1.6773  0.3733
   99SOL    HW2  297   2.758   0.347   2.006  1.8153 -0.9752 -2.7664
  100SOL     OW  298   2.265   1.654   1.694  0.1578 -0.1931  0.5077
  100SOL    HW1  299   2.186   1.674   1.756  4.1459 -0.0355 -0.0496
  100SOL    HW2  300   2.341   1.674   1.754 -0.7590  2.3219  1.5096
  101SOL     OW  301   1.661   0.034   0.772 -0.4177  0.2778  0.7731
  101SOL    HW1  302   1.676   0.054   0.867  1.0657 -1.4536 -1.4934
  101SOL    HW2  303   1.692   3.012   0.748  0.5175  2.3854 -1.1393
  102SOL     OW  304   0.635   0.793   1.181 -0.1608 -0.5707  0.5544
  102SOL    HW1  305   0.616   0.706   1.227 -2.7234  2.0467  0.2487
  102SOL    HW2  306   0.728   0.835   1.195  0.6373 -1.4550  0.4207
  103SOL     OW  307   2.605   0.379   2.967  0.0320 -0.0018  0.3074
  103SOL    HW1  308   2.683   0.308   2.961 -1.1096 -1.6390  0.0536
  103SOL    HW2  309   2.610   0.418   3.063  1.4568  1.2303  2.5153
  104SOL     OW  310   2.675   0.182   1.630 -0.9835 -0.5840 -0.4405
  104SOL    HW1  311   2.750   0.113   1.616  2.5946  0.4084  1.0107
  104SOL    HW2  312   2.718   0.275   1.617  0.2951  0.5808  1.1830
  105SOL     OW  313   1.858   0.913   2.094 -0.6910 -0.1437 -0.8371
  105SOL    HW1  314   1.847   0.836   2.164  1.2375 -1.9032  1.1904
  105SOL    HW2  315   1.936   0.977   2.111 -2.0268 -1.0252  0.0194
  106SOL     OW  316   1.757   2.855   0.739  0.5761 -0.0004  0.3181
  106SOL    HW1  317   1.780   2.849   0.839  1.3397  0.8217  2.2753
  106SOL    HW2  318   1.839   2.875   0.679  0.4285 -2.7165  1.8656
  107SOL     OW  319   0.755   1.068   0.858 -0.2638  0.0388  0.0213
  107SOL    HW1  320   0.732   1.165   0.889  0.7331  1.2208  0.5182
  107SOL    HW2  321   0.687   1.000   0.888  0.2268 -0.0536 -0.8818
  108SOL     OW  322   2.678   0.421   2.321 -0.1965  0.1354 -0.0689
  108SOL    HW1  323   2.752   0.352   2.338 -2.3802  2.1520 -1.9747
  108SOL    HW2  324   2.584   0.382   2.331  1.6568  3.3688 -1.3690
  109SOL     OW  325   1.851   0.311   0.221 -0.1053  0.2173  0.0378
  109SOL    HW1  326   1.820   0.253   0.141  2.3038 -0.3788  2.0648
  109SOL    HW2  327   1.839   0.406   0.198  0.7677  0.2134  0.0382
  110SOL     OW  328   0.130   2.207   2.801  0.0449 -0.0939 -0.0483
  110SOL    HW1  329   0.123   2.295   2.749  1.0151  1.5863 -3.6407
  110SOL    HW2  330   0.047   2.189   2.861 -0.7960 -1.1982  0.7337
  111SOL     OW  331   2.049   0.367   2.129 -0.3000 -0.1515  0.2793
  111SOL    HW1  332   2.136   0.389   2.084 -2.9195 -0.8549  1.4870
  111SOL    HW2  333   2.069   0.326   2.223  0.3689 -2.7025  1.5144
  112SOL     OW  334   2.530   0.025   0.568 -0.1342 -0.2905 -0.2410
  112SOL    HW1  335   2.462   0.100   0.582  0.6920 -0.6850 -2.3985
  112SOL    HW2  336   2.482   3.028   0.503  2.5907  0.4518 -2.4076
  113SOL     OW  337   2.467   1.949   1.600  0.8797  0.1054  0.3713
  113SOL    HW1  338   2.465   1.978   1.499 -0.0218  1.9128 -0.5804
  113SOL    HW2  339   2.412   2.022   1.653 -1.8675  0.5585  1.0063
  114SOL     OW  340   2.847   0.602   0.572 -0.2604  0.3598  0.2570
  114SOL    HW1  341   2.829   0.646   0.480 -0.2505 -1.5797  2.9705
  114SOL    HW2  342   2.915   0.530   0.565 -4.4039  0.4662 -0.4048
  115SOL     OW  343   2.831   1.691   0.182 -0.3088 -0.1181  0.2678
  115SOL    HW1  344   2.856   1.763   0.246 -2.4255 -0.0393 -1.5216
  115SOL    HW2  345   2.871   1.709   0.095 -1.7398  1.7738  0.3629
  116SOL     OW  346   3.027   1.514   1.971 -0.6751 -0.3543  0.0701
  116SOL    HW1  347   2.935   1.498   2.012 -0.0570  1.5815  0.8355
  116SOL    HW2  348   3.026   1.513   1.870  1.8445 -0.9039  2.3697
  117SOL     OW  349   2.787   0.016   0.534  0.5318  0.1937 -0.1495
  117SOL    HW1  350   2.685   0.020   0.554 -2.9632  0.9708 -1.4431
  117SOL    HW2  351   2.805   0.066   0.447  0.1952 -0.9634  3.1287
  118SOL     OW  352   0.343   2.618   1.606  0.0081 -0.2367 -0.2777
  118SOL    HW1  353   0.279   2.545   1.575  1.1693 -0.0558  0.0655
  118SOL    HW2  354   0.441   2.592   1.585  2.7414  1.5913 -1.6773
  119SOL     OW  355   1.720   2.292   1.096  0.1836  0.3630  0.2535
  119SOL    HW1  356   1.813   2.293   1.147  2.1243  0.4062  1.7853
  119SOL    HW2  357   1.681   2.384   1.097 -1.2654 -0.6755  0.3120
  120SOL     OW  358   0.431   1.952   2.360  0.1735 -0.2386 -0.0095
  120SOL    HW1  359   0.501   1.877   2.352 -1.5286  0.5386  0.7346
  120SOL    HW2  360   0.442   2.012   2.442 -2.5258  1.8007 -1.0304
  121SOL     OW  361   2.910   1.496   1.008 -0.1401 -0.4306 -0.5854
  121SOL    HW1  362   2.849   1.553   1.065 -0.3467 -1.0698 -0.3486
  121SOL    HW2  363   2.872   1.401   0.990 -0.8208  0.2563  0.6975
  122SOL     OW  364   2.068   1.636   2.452  0.5593 -0.2430 -0.4218
  122SOL    HW1  365   1.997   1.691   2.402 -2.7177  1.1181 -1.8421
  122SOL    HW2  366   2.155   1.691   2.454 -0.7789 -0.9012 -1.3937
  123SOL     OW  367   2.782   0.255   0.660  0.0321  0.2315  0.2101
  123SOL    HW1  368   2.848   0.323   0.625 -0.9590  1.2307 -0.7582
  123SOL    HW2  369   2.807   0.159   0.633  0.2467 -1.7268 -0.9541
  124SOL     OW  370   1.390   1.161   2.779 -0.2219  0.1811  0.1191
  124SOL    HW1  371   1.487   1.146   2.770  0.7478  2.0421  1.1838
  124SOL    HW2  372   1.357   1.236   2.712 -1.3219  1.1792 -0.9403
  125SOL     OW  373   0.373   1.616   2.553  0.1175 -0.1038  0.3531
  125SOL    HW1  374   0.371   1.656   2.643 -2.2771 -4.3630  0.0348
  125SOL    HW2  375   0.461   1.564   2.525 -0.9168  0.7666  2.9980
  126SOL     OW  376   2.693   2.042   0.288 -0.0508 -0.3049  0.2967
  126SOL    HW1  377   2.721   2.111   0.352  1.3556  0.9869  2.4495
  126SOL    HW2  378   2.754   1.962   0.309  1.2653 -0.4921  2.2687
  127SOL     OW  379   0.754   1.656   0.929 -0.1492  0.1983 -0.1059
  127SOL    HW1  380   0.667   1.673   0.986 -2.2346  1.2806  0.7572
  127SOL    HW2  381   0.726   1.631   0.835 -2.3997  1.7741  2.3450
  128SOL     OW  382   1.427   0.728   0.048  0.1070 -0.2859 -0.0817
  128SOL    HW1  383   1.384   0.763   0.133  2.7675 -1.4007 -1.6243
  128SOL    HW2  384   1.503   0.791   0.032  0.9285 -0.9565  4.6982
  129SOL     OW  385   2.288   1.806   1.197  0.1095  0.1053 -0.5202
  129SOL    HW1  386   2.337   1.879   1.249 -0.1699 -0.4444  0.6746
  129SOL    HW2  387   2.198   1.840   1.160  0.4276  3.1803  0.8935
  130SOL     OW  388   1.714   1.365   0.556  0.2044  0.3916  0.4330
  130SOL    HW1  389   1.709   1.458   0.512 -1.8729  1.3968  1.2767
  130SOL    HW2  390   1.753   1.365   0.650  1.4717  1.4090 -1.4761
  131SOL     OW  391   2.853   1.086   2.591  0.4328  0.6560  0.2425
  131SOL    HW1  392   2.900   1.069   2.679  0.3396 -0.9396 -2.0284
  131SOL    HW2  393   2.789   1.169   2.588 -1.8004  1.6642 -1.8650
  132SOL     OW  394   2.098   1.450   1.536 -0.3107 -0.3819  0.2617
  132SOL    HW1  395   2.119   1.523   1.469  1.7082  0.5390 -2.5167
  132SOL    HW2  396   2.130   1.471   1.629  2.5702  2.7389 -3.2212
  133SOL     OW  397   0.421   1.586   3.061 -0.0793 -0.2732 -0.2359
  133SOL    HW1  398   0.334   1.536   3.057  1.6051  0.8136  2.6634
  133SOL    HW2  399   0.440   1.619   0.086  2.3030 -2.6999 -0.4510
  134SOL     OW  400   2.861   1.396   3.054  0.4558 -0.0346 -0.1168
  134SOL    HW1  401   2.893   1.334   2.978 -0.4648 -1.0160 -1.4886
  134SOL    HW2  402   2.868   1.492   3.027 -0.7174 -0.1544 -0.3587
  135SOL     OW  403   2.556   1.026   0.150 -0.0871  0.5740  0.1383
  135SOL    HW1  404   2.482   1.080   0.106  1.2458  0.5243  1.0461
  135SOL    HW2  405   2.599   1.079   0.225  0.7238  1.5700 -1.4986
  136SOL     OW  406   2.007   1.190   1.516  0.8136  0.2416 -0.1989
  136SOL    HW1  407   2.033   1.287   1.541 -0.0678 -1.0656 -1.1802
  136SOL    HW2  408   1.943   1.147   1.582 -2.1640 -0.5703 -0.5504
  137SOL     OW  409   2.443   2.035   0.381  1.0117  0.3019  0.5716
  137SOL    HW1  410   2.385   1.960   0.340 -0.7571 -0.0690 -2.0426
  137SOL    HW2  411   2.536   2.044   0.338 -0.1174  0.7870  2.2615
  138SOL     OW  412   1.476   0.159   1.815 -0.5501 -0.8122  0.3143
  138SOL    HW1  413   1.417   0.183   1.895 -2.3665  0.3477 -0.7311
  138SOL    HW2  414   1.479   0.241   1.752  0.8484  1.7809 -0.5587
  139SOL     OW  415   2.363   0.209   2.911 -0.1631 -0.5619 -0.0096
  139SOL    HW1  416   2.380   0.310   2.889  0.7006 -2.4553  1.4591
  139SOL    HW2  417   2.422   0.175   2.984  0.6158  1.6150  0.0421
  140SOL     OW  418   1.427   1.980   2.573  0.0001 -0.0290 -0.0073
  140SOL    HW1  419   1.496   1.915   2.535  2.4552  1.5941 -2.3663
  140SOL    HW2  420   1.356   1.934   2.626  2.7054  1.2518 -2.3829
  141SOL     OW  421   0.900   0.921   1.952 -0.1173 -0.1578 -0.4666
  141SOL    HW1  422   0.840   0.940   2.032 -2.8983 -1.5452 -0.7002
  141SOL    HW2  423   0.910   0.818   1.944  1.4250 -0.8468  0.1697
  142SOL     OW  424   2.258   2.645   0.170  0.7458  0.0733  0.3023
  142SOL    HW1  425   2.257   2.711   0.093 -1.2785  0.8860  1.3147
  142SOL    HW2  426   2.271   2.548   0.136 -0.3950 -2.6791 -1.5556
  143SOL     OW  427   0.820   1.997   2.941  0.2861  0.3925  0.1796
  143SOL    HW1  428   0.866   2.079   2.897  0.4084  0.7418  0.6450
  143SOL    HW2  429   0.773   2.033   3.021  1.2643  0.5294 -2.5617
  144SOL     OW  430   1.086   2.601   0.277 -0.6962  0.7035 -0.2300
  144SOL    HW1  431   1.057   2.519   0.226 -0.6200 -0.3260 -0.2286
  144SOL    HW2  432   1.050   2.596   0.371 -1.5132 -2.6465  0.1708
  145SOL     OW  433   2.340   1.734   2.999  0.2353  0.0265 -0.0803
  145SOL    HW1  434   2.404   1.751   0.007 -0.5813  3.1404  0.3392
  145SOL    HW2  435   2.251   1.780   3.023 -2.5676  0.0334 -0.7319
  146SOL     OW  436   2.350   2.818   2.856 -0.2779  0.2626  0.7542
  146SOL    HW1  437   2.309   2.804   2.765  0.4574 -2.4755 -0.1096
  146SOL    HW2  438   2.426   2.886   2.853 -0.1012 -2.1725 -0.1038
  147SOL     OW  439   2.687   1.952   1.204  0.2324 -0.0781  0.0379
  147SOL    HW1  440   2.764   1.981   1.145 -2.4236 -1.7753 -0.2625
  147SOL    HW2  441   2.710   1.872   1.256  1.2042  2.7893 -0.9542
  148SOL     OW  442   1.699   0.007   2.989  0.1947 -0.2440  0.5757
  148SOL    HW1  443   1.721   2.983   2.971  0.2242  0.2694 -0.6822
  148SOL    HW2  444   1.637   0.018   0.001 -2.5774  0.2791  0.2648
  149SOL     OW  445   1.231   1.396   2.663  0.2923 -0.1282  0.3349
  149SOL    HW1  446   1.259   1.436   2.752 -0.2066 -2.4897 -0.8852
  149SOL    HW2  447   1.180   1.308   2.671  2.3874  1.3359 -1.1979
  150SOL     OW  448   0.611   2.107   0.695 -0.7910  0.1195  0.3773
  150SOL    HW1  449   0.630   2.164   0.773  0.8240  2.5867 -0.8810
  150SOL    HW2  450   0.689   2.049   0.670 -1.7732 -0.2982 -0.3241
  151SOL     OW  451   0.678   1.847   0.084 -0.7425 -0.6674  0.1073
  151SOL    HW1  452   0.660   1.778   0.153  2.5935  0.3260 -0.1093
  151SOL    HW2  453   0.766   1.817   0.035  0.0117 -0.7031 -3.5822
  152SOL     OW  454   2.622   1.202   0.350 -0.1493 -0.1089 -0.7304
  152SOL    HW1  455   2.548   1.210   0.421 -0.1161  0.4071 -1.3823
  152SOL    HW2  456   2.647   1.297   0.316  1.2765  3.2280 -0.9693
  153SOL     OW  457   2.097   2.333   0.518 -0.3488 -0.2016 -0.2818
  153SOL    HW1  458   2.094   2.299   0.421  1.3931 -0.7166  2.7346
  153SOL    HW2  459   2.015   2.393   0.537  0.4222 -0.5848 -0.2241
  154SOL     OW  460   0.690   2.901   0.664  0.1976  0.4621  0.0060
  154SOL    HW1  461   0.753   2.984   0.655  0.8338 -0.3621  0.9269
  154SOL    HW2  462   0.727   2.828   0.598  0.7414  0.2836 -0.0608
  155SOL     OW  463   0.365   2.001   0.707  0.0153 -0.1708  0.4042
  155SOL    HW1  464   0.455   2.050   0.703 -0.6368  2.4315  3.2043
  155SOL    HW2  465   0.296   2.054   0.764 -2.6782  1.4420  0.0105
  156SOL     OW  466   2.364   2.397   0.078  0.3631 -0.3787  0.7947
  156SOL    HW1  467   2.390   2.473   0.014 -0.5391 -2.1805 -2.2164
  156SOL    HW2  468   2.432   2.382   0.155 -1.8934  0.3434 -0.0437
  157SOL     OW  469   0.942   1.947   1.493 -0.1603 -0.6352  0.7042
  157SOL    HW1  470   0.852   2.000   1.478 -1.4210 -0.0556  2.2398
  157SOL    HW2  471   0.985   1.959   1.581 -3.4847  2.0968 -3.7865
  158SOL     OW  472   1.716   0.547   0.157 -0.2465 -0.6074 -0.4523
  158SOL    HW1  473   1.706   0.603   0.075 -0.2820 -0.9845 -0.0893
  158SOL    HW2  474   1.652   0.469   0.163 -0.6450  1.9901  0.1415
  159SOL     OW  475   1.136   0.549   3.028 -0.2333 -0.6641 -0.4342
  159SOL    HW1  476   1.228   0.527   2.998 -3.1528 -0.5188  1.7298
  159SOL    HW2  477   1.135   0.594   0.050 -3.5229 -0.4983  3.0425
  160SOL     OW  478   1.277   1.365   0.066 -0.2088  0.3610  0.1203
  160SOL    HW1  479   1.241   1.439   0.128 -0.2032  0.7178 -1.3671
  160SOL    HW2  480   1.303   1.281   0.108 -0.2835  0.7489 -0.4546
  161SOL     OW  481   0.156   2.047   2.555 -0.2617 -0.0962 -0.2771
  161SOL    HW1  482   0.141   2.086   2.651 -0.3626  0.8274  4.7198
  161SOL    HW2  483   0.146   1.943   2.560 -2.2801 -0.8183 -1.6770
  162SOL     OW  484   0.503   2.462   0.897 -0.3450  0.4519  0.0790
  162SOL    HW1  485   0.564   2.540   0.868 -1.6330  1.8251 -0.9333
  162SOL    HW2  486   0.448   2.482   0.980 -3.2564 -1.9713  1.6069
  163SOL     OW  487   3.020   0.805   0.005  0.0099 -0.0810 -0.5005
  163SOL    HW1  488   2.988   0.733   3.011  1.3418 -1.0373  1.9306
  163SOL    HW2  489   2.946   0.863   0.043 -0.3298 -1.9670 -1.9822
  164SOL     OW  490   0.250   0.115   2.694 -0.5013  0.1113 -0.2126
  164SOL    HW1  491   0.193   0.035   2.716  0.5813 -1.5253  0.4561
  164SOL    HW2  492   0.334   0.093   2.637  0.9205 -0.0765 -0.5394
  165SOL     OW  493   1.931   0.397   1.481  0.4401 -0.5609  0.2447
  165SOL    HW1  494   2.003   0.329   1.454 -2.5581  0.3781  1.6766
  165SOL    HW2  495   1.952   0.494   1.461 -0.9147  2.8948  0.2132
  166SOL     OW  496   1.906   2.892   1.421 -0.8362  0.0868  0.7395
  166SOL    HW1  497   1.842   2.835   1.372  1.6561  1.9316  1.4900
  166SOL    HW2  498   1.912   2.877   1.521 -1.0569  1.0654 -3.5268
  167SOL     OW  499   0.990   0.291   1.897 -0.3719 -0.8333 -0.1664
  167SOL    HW1  500   1.028   0.330   1.985  0.3151  1.0940  2.2715
  167SOL    HW2  501   1.053   0.309   1.819 -1.5800 -0.0817  2.9966
  168SOL     OW  502   2.494   0.411   1.953  0.7378 -0.1083 -0.3348
  168SOL    HW1  503   2.576   0.361   1.990 -0.9476  0.5352  0.3100
  168SOL    HW2  504   2.419   0.346   1.922 -1.6880  1.5890  0.1219
  169SOL     OW  505   0.431   1.623   0.264  0.7881  0.4689 -0.1861
  169SOL    HW1  506   0.348   1.678   0.287 -3.1013 -0.2549  1.6253
  169SOL    HW2  507   0.412   1.524   0.282  0.0696  0.1799  0.0636
  170SOL     OW  508   0.260   1.492   1.521  0.4742 -0.3905 -0.2053
  170SOL    HW1  509   0.290   1.563   1.451  1.5402  2.9860 -1.4665
  170SOL    HW2  510   0.162   1.459   1.500 -1.2548 -2.7556 -1.3436
  171SOL     OW  511   0.892   2.338   2.372 -0.9636  0.1642  0.3827
  171SOL    HW1  512   0.794   2.323   2.394 -1.2091  0.4401  0.4996
  171SOL    HW2  513   0.913   2.277   2.296 -2.4922  1.6880  0.5525
  172SOL     OW  514   0.573   2.495   1.552  0.4353 -0.2060  0.4600
  172SOL    HW1  515   0.660   2.475   1.607 -0.0459 -0.8538 -0.1504
  172SOL    HW2  516   0.582   2.462   1.458  0.5596 -1.0951  2.5857
  173SOL     OW  517   1.421   2.281   0.930  0.2453 -0.0827  0.3426
  173SOL    HW1  518   1.458   2.188   0.951 -1.1755 -1.9271  2.2754
  173SOL    HW2  519   1.349   2.310   1.003 -2.5618 -0.6223  4.1735
  174SOL     OW  520   1.154   0.050   0.663 -0.2164 -0.1549  0.6209
  174SOL    HW1  521   1.159   0.084   0.760 -2.3443  0.0216 -0.6467
  174SOL    HW2  522   1.231   3.060   0.645 -1.3054  1.0322 -0.6066
  175SOL     OW  523   1.094   1.208   0.289 -0.2906  0.2790 -0.0688
  175SOL    HW1  524   1.099   1.310   0.303  0.0825  1.1499  0.8300
  175SOL    HW2  525   1.181   1.175   0.252 -4.8374  2.0625  1.9285
  176SOL     OW  526   1.380   0.696   0.469  0.0865 -0.0792 -0.0948
  176SOL    HW1  527   1.463   0.706   0.410  0.4323 -1.9029 -3.2607
  176SOL    HW2  528   1.373   0.604   0.506  2.9305  2.8646  0.2811
  177SOL     OW  529   1.188   0.701   1.274 -0.6225  0.2786 -0.7257
  177SOL    HW1  530   1.090   0.708   1.241  2.0087  3.5845 -0.2822
  177SOL    HW2  531   1.223   0.792   1.303 -0.6062 -1.8560  0.4905
  178SOL     OW  532   2.674   1.667   2.809 -0.1220  0.7459  0.1355
  178SOL    HW1  533   2.675   1.651   2.707  0.6007  2.2611 -2.2844
  178SOL    HW2  534   2.585   1.634   2.853 -3.4178 -2.4516 -3.2842
  179SOL     OW  535   0.650   2.534   3.034 -0.1879 -0.2532  0.5407
  179SOL    HW1  536   0.629   2.625   2.992  3.6601 -0.6956 -1.0364
  179SOL    HW2  537   0.697   2.542   0.053 -0.3861 -0.5908  2.7720
  180SOL     OW  538   1.859   1.551   1.637 -0.7804  0.4622  0.2637
  180SOL    HW1  539   1.947   1.508   1.606  3.2907  1.3181 -2.3572
  180SOL    HW2  540   1.781   1.489   1.615 -1.0309 -1.4531 -0.7081
  181SOL     OW  541   1.339   1.184   2.164 -0.3027  0.0167  0.4681
  181SOL    HW1  542   1.252   1.239   2.154  0.9511  2.7221 -0.5636
  181SOL    HW2  543   1.333   1.137   2.250  2.7697 -0.3836 -0.9088
  182SOL     OW  544   2.968   0.922   2.413 -0.1740  0.0342 -0.1838
  182SOL    HW1  545   3.047   0.962   2.358  0.2240  0.9367 -1.1430
  182SOL    HW2  546   2.921   0.998   2.463 -0.6113  1.6912  0.7568
  183SOL     OW  547   1.599   0.518   2.353 -0.5451  0.2227  0.3606
  183SOL    HW1  548   1.500   0.504   2.374  3.1241 -2.0772 -3.2460
  183SOL    HW2  549   1.653   0.506   2.438  0.6209  0.4460 -3.9353
  184SOL     OW  550   0.121   0.668   1.498 -0.2660  0.3774 -0.5727
  184SOL    HW1  551   0.219   0.686   1.474  2.2149  1.7218 -1.4597
  184SOL    HW2  552   0.059   0.710   1.424 -1.8016  1.0425  1.4619
  185SOL     OW  553   2.409   1.680   0.976  0.1672 -0.2399 -0.7692
  185SOL    HW1  554   2.368   1.725   1.060 -2.5494  2.5874  1.8768
  185SOL    HW2  555   2.491   1.729   0.937  1.6481 -0.0384 -2.6280
  186SOL     OW  556   0.677   1.651   2.630  0.2283 -0.3589 -0.0383
  186SOL    HW1  557   0.654   1.728   2.690  0.9360 -1.4199  0.0094
  186SOL    HW2  558   0.663   1.557   2.669 -1.2336 -1.7020 -0.9171
  187SOL     OW  559   2.552   2.003   3.035  0.2932  0.5648 -0.4001
  187SOL    HW1  560   2.616   2.072   0.000 -0.9978  0.3514 -0.6961
  187SOL    HW2  561   2.558   1.921   0.026 -0.0271 -1.4612  1.5701
  188SOL     OW  562   0.634   2.307   0.502  0.4102  0.4747  0.2837
  188SOL    HW1  563   0.597   2.238   0.567 -2.2977 -1.0282  1.5341
  188SOL    HW2  564   0.629   2.261   0.410 -0.1797 -0.8312 -1.3352
  189SOL     OW  565   2.334   0.670   2.984  0.7745  0.2994 -0.2035
  189SOL    HW1  566   2.330   0.668   0.016  2.2050  0.7381 -1.5761
  189SOL    HW2  567   2.309   0.762   2.951 -2.7851  0.5130  0.4106
  190SOL     OW  568   1.331   1.805   2.024  0.0854  0.1934 -0.3347
  190SOL    HW1  569   1.332   1.904   1.999  0.8263 -2.3921 -2.2213
  190SOL    HW2  570   1.393   1.788   2.102 -0.4673 -0.9546  1.1719
  191SOL     OW  571   2.253   0.930   1.116  0.2100  0.2396  0.0045
  191SOL    HW1  572   2.305   0.849   1.074 -0.8902 -0.4093 -2.4537
  191SOL    HW2  573   2.165   0.949   1.066  2.0194  0.1139 -1.5093
  192SOL     OW  574   1.924   0.179   1.862 -0.1734 -0.0891  0.2234
  192SOL    HW1  575   1.989   0.263   1.861  2.5911  3.9513 -1.2673
  192SOL    HW2  576   1.880   0.172   1.958 -0.8477 -1.4961  3.4311
  193SOL     OW  577   0.070   0.517   0.780  0.0022 -0.9056  0.1031
  193SOL    HW1  578   0.017   0.468   0.852  1.3935  1.0599 -1.9898
  193SOL    HW2  579   0.150   0.563   0.821 -0.0084  0.1709  0.4479
  194SOL     OW  580   1.428   2.412   1.861  0.2550 -0.0230 -0.5040
  194SOL    HW1  581   1.337   2.421   1.811 -0.3529 -1.2002 -1.0884
  194SOL    HW2  582   1.507   2.417   1.797  0.7883 -0.5597 -0.6663
  195SOL     OW  583   2.620   0.648   0.747 -0.0877 -0.2200 -0.1781
  195SOL    HW1  584   2.562   0.571   0.708 -0.3644 -0.5957 -1.7867
  195SOL    HW2  585   2.710   0.642   0.701 -2.3523  0.6025  2.3231
  196SOL     OW  586   1.083   1.972   1.747 -0.0448 -0.1320  0.2469
  196SOL    HW1  587   1.115   2.066   1.774 -2.2338 -2.0305 -0.4002
  196SOL    HW2  588   1.162   1.918   1.711 -0.9555 -0.4834  1.5016
  197SOL     OW  589   0.157   0.261   2.506 -0.4541 -0.4459 -0.1771
  197SOL    HW1  590   0.193   0.211   2.589 -1.3610 -1.6277  0.7242
  197SOL    HW2  591   0.195   0.353   2.492 -0.8092 -2.5610  0.4804
  198SOL     OW  592   1.165   0.927   0.623 -0.0573 -0.4617  0.3007
  198SOL    HW1  593   1.156   0.828   0.647 -2.3124 -3.1337 -0.2415
  198SOL    HW2  594   1.099   0.954   0.551 -0.8556  1.9877 -0.2288
  199SOL     OW  595   2.530   0.782   1.979 -0.2389 -0.4782 -0.0959
  199SOL    HW1  596   2.593   0.843   2.033 -0.8079 -4.4273  1.6051
  199SOL    HW2  597   2.493   0.821   1.891 -1.3535  1.9377 -3.0628
  200SOL     OW  598   2.357   2.649   2.260  0.0786  0.1634 -0.2210
  200SOL    HW1  599   2.383   2.711   2.335  0.0968 -1.0309 -0.7054
  200SOL    HW2  600   2.379   2.697   2.172  1.1853  0.5106 -0.3388
  201SOL     OW  601   2.469   0.347   1.559  0.1646 -0.3734 -0.3049
  201SOL    HW1  602   2.541   0.276   1.573 -0.6647 -0.0374 -1.8965
  201SOL    HW2  603   2.417   0.326   1.472  0.0480  0.0838 -2.2753
  202SOL     OW  604   2.301   3.047   0.165  0.6943 -0.3149  0.0745
  202SOL    HW1  605   2.332   3.015   0.254  1.8853  2.3950 -0.6929
  202SOL    HW2  606   2.259   2.977   0.103  1.7090  2.5553  2.5738
  203SOL     OW  607   1.018   2.114   2.252 -0.2543 -0.0455  0.7161
  203SOL    HW1  608   0.955   2.034   2.265 -1.7220  0.1966 -0.2792
  203SOL    HW2  609   1.110   2.106   2.301 -2.3168  0.2704 -0.3226
  204SOL     OW  610   1.102   1.509   2.434 -0.5516  0.2033 -0.2568
  204SOL    HW1  611   1.144   1.469   2.520  0.4537  2.3959  1.0066
  204SOL    HW2  612   1.042   1.442   2.385 -0.3969 -1.4011  1.2837
  205SOL     OW  613   0.958   1.254   1.322  0.5263 -0.4238  0.1073
  205SOL    HW1  614   0.976   1.159   1.345 -0.1774  2.6403 -2.6207
  205SOL    HW2  615   0.957   1.266   1.221 -0.8545  1.9876  1.0129
  206SOL     OW  616   0.485   0.470   2.680 -0.0783  0.0752 -0.3243
  206SOL    HW1  617   0.423   0.531   2.620 -1.0586 -1.1963 -0.0953
  206SOL    HW2  618   0.434   0.418   2.749  0.1785 -2.1715  1.3569
  207SOL     OW  619   1.743   2.602   2.395 -0.3921  0.0647 -0.3680
  207SOL    HW1  620   1.802   2.679   2.425  1.6877  1.8602 -0.1091
  207SOL    HW2  621   1.646   2.609   2.429  2.6976 -1.0211  0.7030
  208SOL     OW  622   0.647   2.379   1.303 -0.3764  0.2304  0.1103
  208SOL    HW1  623   0.714   2.455   1.282  3.3625  2.0223 -0.5748
  208SOL    HW2  624   0.663   2.300   1.237 -0.5229  0.9255 -1.4482
  209SOL     OW  625   1.507   1.221   2.509  0.4509  0.4393  0.1344
  209SOL    HW1  626   1.549   1.198   2.419 -1.0284  1.9394  0.2724
  209SOL    HW2  627   1.555   1.158   2.579 -0.1809  0.6099  1.4285
  210SOL     OW  628   1.803   1.125   0.798 -0.0200  0.0608 -0.1142
  210SOL    HW1  629   1.870   1.158   0.865  1.9190 -2.4242 -0.8044
  210SOL    HW2  630   1.850   1.081   0.715  1.5084 -0.0637 -2.5645
  211SOL     OW  631   0.849   2.484   0.537  0.1446 -0.0981 -0.0212
  211SOL    HW1  632   0.773   2.413   0.534  0.7920 -2.5540  0.0162
  211SOL    HW2  633   0.936   2.448   0.492 -0.4721  0.3374  1.9775
  212SOL     OW  634   1.919   1.756   0.287 -0.1865  0.6870  0.4834
  212SOL    HW1  635   1.844   1.810   0.248  1.3095  1.7631 -1.0367
  212SOL    HW2  636   1.974   1.815   0.349 -0.5733  0.4842  2.1003
  213SOL     OW  637   1.745   0.506   2.924  0.3175  0.2133 -0.0634
  213SOL    HW1  638   1.796   0.435   2.981  1.4903 -4.2111  0.7520
  213SOL    HW2  639   1.672   0.475   2.865  2.4255  0.8072 -0.8673
  214SOL     OW  640   1.115   1.410   2.122 -0.4498  0.0640 -0.1024
  214SOL    HW1  641   1.030   1.359   2.119  0.1395 -0.1653  0.6641
  214SOL    HW2  642   1.106   1.493   2.066 -1.2508 -1.6220 -0.2522
  215SOL     OW  643   0.947   1.676   0.204 -0.5414 -0.0877 -0.2039
  215SOL    HW1  644   0.959   1.717   0.109 -0.5371 -0.1744 -2.7963
  215SOL    HW2  645   0.853   1.636   0.206  0.6447 -1.0508 -0.5941
  216SOL     OW  646   0.252   2.769   2.536 -0.4363 -0.5754 -0.1553
  216SOL    HW1  647   0.313   2.687   2.539 -1.7325 -1.1537  0.0680
  216SOL    HW2  648   0.212   2.781   2.446  4.1705 -1.6250 -0.9767
  217SOL     OW  649   2.415   0.756   0.950  0.2302  0.1739 -0.4378
  217SOL    HW1  650   2.479   0.730   0.881 -2.9753 -1.7026  3.7955
  217SOL    HW2  651   2.452   0.732   1.043  1.2127 -1.0648 -0.4806
  218SOL     OW  652   1.890   1.616   2.083  0.0141 -0.0203 -0.2632
  218SOL    HW1  653   1.856   1.523   2.098  1.1768  2.3242  1.5261
  218SOL    HW2  654   1.911   1.663   2.174  0.1046  2.1407  1.2363
  219SOL     OW  655   2.111   1.583   0.211 -0.1386 -0.0245 -0.0170
  219SOL    HW1  656   2.093   1.550   0.117  1.7247  4.1462  0.3339
  219SOL    HW2  657   2.037   1.653   0.227 -0.4644 -0.6213 -1.0898
  220SOL     OW  658   1.520   1.170   0.529  0.0245  0.3008  0.0154
  220SOL    HW1  659   1.439   1.179   0.593  2.9914  1.1135 -1.1093
  220SOL    HW2  660   1.595   1.237   0.550 -0.0178  0.8084 -0.4461
  221SOL     OW  661   0.670   0.548   2.885 -0.3407  0.1857 -0.0325
  221SOL    HW1  662   0.624   0.593   2.965 -0.6226  0.8954  1.0349
  221SOL    HW2  663   0.608   0.535   2.807  2.1049  0.7119 -0.2997
  222SOL     OW  664   1.538   1.277   0.304 -0.1977 -0.5258 -0.1534
  222SOL    HW1  665   1.516   1.373   0.333 -3.6508  1.5588  0.6862
  222SOL    HW2  666   1.522   1.219   0.388 -0.0999  0.4078 -1.2303
  223SOL     OW  667   1.055   0.126   0.196  0.9024 -0.2386  0.5781
  223SOL    HW1  668   0.980   0.097   0.262 -1.5465 -0.2647  2.3964
  223SOL    HW2  669   1.134   0.171   0.242 -0.1748  1.2392  0.1027
  224SOL     OW  670   2.061   0.061   1.464  0.0757  0.1385  0.3941
  224SOL    HW1  671   2.075   0.027   1.558  1.0246 -2.3364  1.3573
  224SOL    HW2  672   1.992   0.001   1.413 -2.3274 -1.5646  0.5527
  225SOL     OW  673   0.231   2.751   0.910  0.6628  0.8601 -0.0173
  225SOL    HW1  674   0.159   2.821   0.926  0.6027  2.5750 -0.8955
  225SOL    HW2  675   0.323   2.796   0.917  3.3521  0.0547  2.9083
  226SOL     OW  676   1.270   1.510   2.916 -0.3472  0.4192  0.3297
  226SOL    HW1  677   1.287   1.609   2.940  1.3186  2.2976 -2.5897
  226SOL    HW2  678   1.285   1.455   3.002 -0.6566  2.0129  0.4770
  227SOL     OW  679   1.165   1.441   0.992  0.2736  0.2099  0.2130
  227SOL    HW1  680   1.183   1.533   0.954 -0.5137  2.3639  1.8358
  227SOL    HW2  681   1.248   1.418   1.053  2.2798  0.5374  0.2234
  228SOL     OW  682   0.297   1.605   0.793 -0.2709 -0.1673  0.2313
  228SOL    HW1  683   0.388   1.571   0.776 -2.1195 -2.1075 -0.9583
  228SOL    HW2  684   0.267   1.645   0.707  1.3856 -2.6422  1.6270
  229SOL     OW  685   1.345   0.249   3.051 -0.2915  0.3170  0.3036
  229SOL    HW1  686   1.378   0.228   2.955  1.7769 -1.3795 -1.1539
  229SOL    HW2  687   1.257   0.299   3.054  0.5881 -1.8225 -0.5382
  230SOL     OW  688   1.607   0.822   2.617  0.5723  0.8759 -0.0630
  230SOL    HW1  689   1.658   0.814   2.705  0.7127  1.1035  0.7350
  230SOL    HW2  690   1.597   0.919   2.596  0.1032 -1.8047 -1.0437
  231SOL     OW  691   1.181   1.772   2.400 -0.5005  0.1299 -0.1709
  231SOL    HW1  692   1.140   1.817   2.483 -2.2536 -0.1815 -1.2130
  231SOL    HW2  693   1.145   1.675   2.389 -0.6003 -0.2240  1.1869
  232SOL     OW  694   2.367   2.221   0.549 -0.3763  0.1600  0.3281
  232SOL    HW1  695   2.272   2.255   0.554  3.0453 -0.4188  1.4433
  232SOL    HW2  696   2.383   2.164   0.463  0.6562  0.4290  0.8540
  233SOL     OW  697   2.322   2.534   0.408  1.0063 -0.2841 -0.3957
  233SOL    HW1  698   2.276   2.600   0.344  0.5071  1.0030  0.1174
  233SOL    HW2  699   2.261   2.513   0.491  0.1758  0.4211  0.3231
  234SOL     OW  700   0.871   0.584   2.689 -0.5037  0.0680 -0.0919
  234SOL    HW1  701   0.793   0.568   2.755  1.7633 -0.1252 -0.5895
  234SOL    HW2  702   0.932   0.650   2.732 -3.7230 -1.4544 -1.1789
  235SOL     OW  703   2.865   0.479   2.717  0.0156 -0.3989  0.4273
  235SOL    HW1  704   2.769   0.440   2.720  0.6525 -3.1775  0.0818
  235SOL    HW2  705   2.878   0.559   2.649  0.6072  0.0594 -1.0236
  236SOL     OW  706   1.947   2.450   1.787 -0.1760 -0.6348  0.0467
  236SOL    HW1  707   1.876   2.394   1.825  1.5501  0.6093 -2.1037
  236SOL    HW2  708   2.024   2.452   1.852  2.1693  3.8826 -1.7290
  237SOL     OW  709   0.611   1.581   2.064  0.4602  0.4648 -0.6904
  237SOL    HW1  710   0.584   1.681   2.063  0.5495 -1.4540  0.8923
  237SOL    HW2  711   0.652   1.562   2.158 -1.1910 -1.9469  0.3371
  238SOL     OW  712   1.539   0.411   2.750  0.0366  1.0626  0.2132
  238SOL    HW1  713   1.464   0.462   2.799  2.4081 -0.7648  0.4975
  238SOL    HW2  714   1.525   0.310   2.758 -0.8237 -0.1435 -0.6445
  239SOL     OW  715   0.247   2.268   1.714  0.6404  0.5092 -0.0617
  239SOL    HW1  716   0.205   2.331   1.786 -1.2704  1.1143  2.6948
  239SOL    HW2  717   0.345   2.237   1.736  1.1466 -3.9301  2.1647
  240SOL     OW  718   2.593   2.330   0.646  0.4783  0.0835  0.5757
  240SOL    HW1  719   2.561   2.423   0.671  1.3892 -0.1014  1.2871
  240SOL    HW2  720   2.512   2.273   0.611  0.7420 -3.1019 -1.8496
  241SOL     OW  721   2.653   1.084   0.785  0.5080 -0.0771  0.1896
  241SOL    HW1  722   2.620   1.058   0.880  1.7649  1.7713 -0.8800
  241SOL    HW2  723   2.587   1.138   0.727 -0.7945  1.4896  0.6673
  242SOL     OW  724   2.146   2.493   2.278 -0.3864  0.2938 -0.0371
  242SOL    HW1  725   2.081   2.487   2.201  1.5640 -1.6497 -0.6705
  242SOL    HW2  726   2.233   2.535   2.249  2.2266 -1.2110  1.1824
  243SOL     OW  727   0.827   2.428   1.644 -0.3309  0.0635  0.2353
  243SOL    HW1  728   0.860   2.519   1.676  0.1292  2.5610  0.2836
  243SOL    HW2  729   0.904   2.363   1.629  0.5373 -0.2997  0.0498
  244SOL     OW  730   1.510   0.139   2.787  0.4000  0.1603 -0.1837
  244SOL    HW1  731   1.584   0.107   2.851 -0.7016 -0.1602  0.5932
  244SOL    HW2  732   1.507   0.083   2.700 -1.0581  1.2457 -1.7016
  245SOL     OW  733   1.224   3.014   1.346 -0.2517  0.6128  0.2138
  245SOL    HW1  734   1.130   2.974   1.347  3.0834 -1.3536  1.4185
  245SOL    HW2  735   1.267   2.995   1.436 -1.7757  1.4317  2.8223
  246SOL     OW  736   1.649   2.392   0.183 -0.0063 -0.1557 -0.4242
  246SOL    HW1  737   1.701   2.454   0.246  0.9043 -1.0524  0.4300
  246SOL    HW2  738   1.626   2.433   0.094 -1.3741  0.0988  1.1825
  247SOL     OW  739   1.331   0.507   2.458 -0.4689  0.3624 -0.1856
  247SOL    HW1  740   1.237   0.539   2.428 -3.6446 -1.0852 -0.8626
  247SOL    HW2  741   1.323   0.408   2.477 -0.4102  0.3339 -2.0577
  248SOL     OW  742   0.479   2.099   1.789  0.4455  0.0116 -0.2126
  248SOL    HW1  743   0.568   2.122   1.833  0.1180  0.8714  1.3742
  248SOL    HW2  744   0.452   2.003   1.810 -1.5309  0.8264 -0.3159
  249SOL     OW  745   2.160   0.202   0.441  0.4682  0.9460 -0.4212
  249SOL    HW1  746   2.160   0.248   0.351 -1.1842 -2.1365  1.0431
  249SOL    HW2  747   2.064   0.161   0.447 -2.0054  0.1035 -0.5313
  250SOL     OW  748   0.240   0.579   0.301  0.4076  0.3121 -0.2196
  250SOL    HW1  749   0.290   0.516   0.242  2.0090  2.1014 -1.0335
  250SOL    HW2  750   0.147   0.604   0.260 -0.1940  0.9478 -1.1808
  251SOL     OW  751   1.393   0.556   2.917 -0.0700  0.0716 -0.8138
  251SOL    HW1  752   1.409   0.623   2.994 -1.0306  3.1887 -0.3213
  251SOL    HW2  753   1.382   0.605   2.828 -0.4684  0.0617 -0.5849
  252SOL     OW  754   1.668   1.780   2.013  0.4850  0.3255 -0.0777
  252SOL    HW1  755   1.760   1.736   2.040  0.0844  0.9827  0.0750
  252SOL    HW2  756   1.606   1.702   1.989  1.5301 -0.9299 -1.9388
  253SOL     OW  757   2.505   2.476   1.418 -0.3512  0.2353  0.3612
  253SOL    HW1  758   2.494   2.498   1.518  1.0241  2.0177  1.0425
  253SOL    HW2  759   2.429   2.407   1.394  1.0683  1.1090 -1.4640
  254SOL     OW  760   2.898   1.033   1.121 -0.5468  0.0821 -0.0263
  254SOL    HW1  761   2.954   1.082   1.191  0.2659  0.3548  0.0722
  254SOL    HW2  762   2.951   0.978   1.053 -0.9552  0.7212 -0.1559
  255SOL     OW  763   0.967   0.281   0.999 -0.5649 -0.2539 -0.6318
  255SOL    HW1  764   0.938   0.237   1.086  0.2790  1.1797 -2.0910
  255SOL    HW2  765   0.974   0.384   1.015  0.4425  1.6763  2.1083
  256SOL     OW  766   1.802   2.271   1.484  0.4911 -0.8168 -0.3868
  256SOL    HW1  767   1.775   2.174   1.455 -1.1881  1.0484 -0.1470
  256SOL    HW2  768   1.901   2.268   1.475 -4.1928 -0.1054  1.0208
  257SOL     OW  769   0.614   2.879   2.519  0.0562  0.3268  0.3669
  257SOL    HW1  770   0.600   2.798   2.582 -0.9418  2.4297  1.5172
  257SOL    HW2  771   0.668   2.859   2.437  0.2158  1.2129  2.7517
  258SOL     OW  772   0.973   2.139   0.194  0.2931 -0.2821 -0.3895
  258SOL    HW1  773   0.889   2.184   0.151 -2.0261 -1.0942 -2.9189
  258SOL    HW2  774   0.944   2.072   0.262  0.5314 -1.6334 -0.8629
  259SOL     OW  775   1.220   3.041   2.650 -0.1370 -0.0877  0.0893
  259SOL    HW1  776   1.136   2.993   2.613 -0.3438 -0.9301  0.8727
  259SOL    HW2  777   1.300   3.016   2.595 -2.5418 -0.3623  2.9222
  260SOL     OW  778   1.825   0.668   1.044 -0.1291 -0.1190 -0.0064
  260SOL    HW1  779   1.811   0.696   1.139 -0.3303  0.0542  0.5041
  260SOL    HW2  780   1.737   0.660   0.995 -1.6610 -0.1295 -0.6541
  261SOL     OW  781   0.421   0.355   2.290 -0.3211 -0.4137 -0.2098
  261SOL    HW1  782   0.323   0.368   2.286 -0.7290 -1.6146 -0.4537
  261SOL    HW2  783   0.466   0.443   2.259 -1.2323  0.0967 -0.0087
  262SOL     OW  784   0.188   2.239   2.030 -0.3168 -0.1676 -0.0882
  262SOL    HW1  785   0.274   2.252   2.078 -2.3719  1.2441 -0.3826
  262SOL    HW2  786   0.170   2.314   1.960 -0.8432  1.6332 -1.5304
  263SOL     OW  787   2.929   1.487   2.442 -0.9131  0.5051 -0.4967
  263SOL    HW1  788   2.996   1.432   2.392  0.3295 -3.1708  2.9478
  263SOL    HW2  789   2.931   1.583   2.406  1.8781  0.1530 -0.7800
  264SOL     OW  790   1.002   1.089   0.810 -0.6307 -0.0564 -0.3108
  264SOL    HW1  791   0.908   1.056   0.836  3.5965 -0.1216  1.9545
  264SOL    HW2  792   1.032   1.034   0.730  1.5070  1.8434  0.0538
  265SOL     OW  793   1.268   2.335   1.140  0.1918  0.0499  0.2801
  265SOL    HW1  794   1.221   2.281   1.213 -2.7634 -1.2816 -0.8775
  265SOL    HW2  795   1.297   2.427   1.178  0.9040 -0.4310 -0.6295
  266SOL     OW  796   1.640   0.936   1.190 -0.1744 -0.3895  0.0711
  266SOL    HW1  797   1.717   0.880   1.228  0.2762  2.3103  1.3132
  266SOL    HW2  798   1.647   0.929   1.090 -2.7857 -1.9260 -0.2076
  267SOL     OW  799   2.284   1.100   0.028 -0.3256  0.7764 -0.0968
  267SOL    HW1  800   2.297   1.060   3.007 -3.8160  2.5034 -0.5311
  267SOL    HW2  801   2.234   1.039   0.094 -0.2443 -0.0480 -1.6264
  268SOL     OW  802   1.216   0.240   0.419 -0.3676  0.0848 -0.2451
  268SOL    HW1  803   1.193   0.160   0.476 -0.7767  1.6669 -1.1008
  268SOL    HW2  804   1.291   0.302   0.461  3.6556  1.2697  0.2484
  269SOL     OW  805   2.851   0.717   2.545  0.2588 -0.1839 -0.0290
  269SOL    HW1  806   2.894   0.775   2.469 -0.0003 -0.8768 -1.1594
  269SOL    HW2  807   2.750   0.718   2.556  0.1059 -0.2886 -0.8121
  270SOL     OW  808   0.336   1.328   2.729  0.6690 -0.4451  0.5124
  270SOL    HW1  809   0.387   1.290   2.810  0.6690  0.0494  3.5718
  270SOL    HW2  810   0.396   1.361   2.655 -0.4596 -0.6484 -0.1722
  271SOL     OW  811   2.841   1.005   0.087 -0.3859  0.1763  0.2285
  271SOL    HW1  812   2.744   0.971   0.069 -2.2549 -1.2525 -1.8966
  271SOL    HW2  813   2.861   1.029   0.181  2.3239  1.1316  0.2689
  272SOL     OW  814   2.685   2.535   2.521 -0.7492  0.4555 -0.0960
  272SOL    HW1  815   2.718   2.610   2.457  0.6836  3.0694 -1.6632
  272SOL    HW2  816   2.761   2.468   2.543 -0.1774 -0.2489  0.7192
  273SOL     OW  817   3.003   3.068   2.647  0.3065  0.4642 -0.4407
  273SOL    HW1  818   2.999   0.088   2.600  1.1808  2.3713 -0.6861
  273SOL    HW2  819   2.963   3.069   2.742 -1.1181 -2.8054  2.6885
  274SOL     OW  820   0.699   2.274   0.898 -0.8086  0.1577 -0.6051
  274SOL    HW1  821   0.620   2.335   0.884  0.6123 -1.0062 -0.5629
  274SOL    HW2  822   0.784   2.323   0.881 -0.7469  1.2926  1.5141
  275SOL     OW  823   2.285   0.873   0.583 -0.0078 -0.1036 -0.4062
  275SOL    HW1  824   2.261   0.787   0.528  1.5278  0.7864 -0.8670
  275SOL    HW2  825   2.379   0.906   0.558 -1.5054 -0.2836  1.6866
  276SOL     OW  826   2.856   1.307   1.466  0.1944 -0.0918 -0.1383
  276SOL    HW1  827   2.770   1.291   1.407 -1.5573  1.0031 -1.2827
  276SOL    HW2  828   2.835   1.312   1.564  1.2618  1.5907  1.4231
  277SOL     OW  829   2.016   0.027   1.011  0.6297 -0.2489 -0.3272
  277SOL    HW1  830   1.965   3.005   1.000 -2.2743 -1.5007 -0.1226
  277SOL    HW2  831   1.955   0.106   1.009 -0.8050  1.1918 -1.2033
  278SOL     OW  832   1.502   2.627   2.475 -0.0170 -0.0293  0.0559
  278SOL    HW1  833   1.479   2.535   2.427  1.6232 -0.5406 -1.4111
  278SOL    HW2  834   1.417   2.686   2.475  0.5880 -1.0790 -2.5338
  279SOL     OW  835   1.643   2.034   1.181  0.8860 -0.4257 -0.1449
  279SOL    HW1  836   1.706   1.996   1.255  0.0572  1.8522 -2.8352
  279SOL    HW2  837   1.674   2.123   1.142 -2.4122 -2.9522 -1.0545
  280SOL     OW  838   0.322   1.379   1.028  0.6465 -0.8122 -0.3625
  280SOL    HW1  839   0.283   1.466   0.992  0.0407 -0.0235 -1.1489
  280SOL    HW2  840   0.392   1.392   1.107  3.6699 -1.4606  2.7320
  281SOL     OW  841   2.662   1.297   2.638 -0.1932 -0.0525 -0.5939
  281SOL    HW1  842   2.578   1.267   2.691 -0.7957  2.0610 -0.2875
  281SOL    HW2  843   2.644   1.394   2.611 -0.8060  3.4270 -3.0539
  282SOL     OW  844   0.684   1.601   0.209  0.1668  0.4923 -0.0779
  282SOL    HW1  845   0.587   1.592   0.233  1.4991 -2.5841 -0.2003
  282SOL    HW2  846   0.715   1.506   0.184  0.2993  0.2848  0.2969
  283SOL     OW  847   2.065   2.424   0.059  0.2135  0.0178 -0.5119
  283SOL    HW1  848   2.110   2.491   0.001 -1.1629 -0.7270  1.9643
  283SOL    HW2  849   2.004   2.362   0.000  0.7215 -0.4388 -2.7695
  284SOL     OW  850   0.863   2.974   0.929 -0.1440 -0.0224  0.4348
  284SOL    HW1  851   0.886   3.056   0.879 -0.7990 -1.8853  0.9498
  284SOL    HW2  852   0.929   2.900   0.908 -2.0371  0.3459  1.4410
  285SOL     OW  853   2.235   1.201   2.678 -0.2847  0.0376 -0.1288
  285SOL    HW1  854   2.200   1.273   2.614  1.1940  1.4259  1.0154
  285SOL    HW2  855   2.166   1.194   2.752  0.0748  0.0344  2.8437
  286SOL     OW  856   1.905   2.544   0.929 -0.0617  0.4621 -0.1431
  286SOL    HW1  857   1.934   2.465   0.878 -0.4374  2.1999  1.0008
  286SOL    HW2  858   1.938   2.625   0.877  0.4228  1.4708  0.4352
  287SOL     OW  859   1.182   0.139   0.913 -0.1845  0.2247  0.2645
  287SOL    HW1  860   1.230   0.084   0.986  0.1497 -1.2095 -0.5216
  287SOL    HW2  861   1.103   0.196   0.950  0.2392 -0.2419 -0.1269
  288SOL     OW  862   0.794   2.402   2.832 -0.6914 -0.2821  0.0127
  288SOL    HW1  863   0.822   2.479   2.771  0.8909 -0.2141 -1.0628
  288SOL    HW2  864   0.726   2.433   2.907  0.7528  0.6165 -1.6181
  289SOL     OW  865   0.066   1.449   0.828  0.1912  0.8615 -0.1223
  289SOL    HW1  866   3.058   1.497   0.860  1.3931 -1.9601 -0.1589
  289SOL    HW2  867   0.131   1.517   0.789 -0.9568 -0.7578  1.9055
  290SOL     OW  868   1.492   2.005   0.967 -0.0491 -0.2819  0.2466
  290SOL    HW1  869   1.544   1.997   1.055  3.1021 -0.3163  0.7319
  290SOL    HW2  870   1.391   1.979   0.983  0.6176  0.2595 -1.9451
  291SOL     OW  871   1.325   2.966   0.290  0.3559 -0.1058  0.5957
  291SOL    HW1  872   1.325   2.865   0.297 -0.9852 -0.8944  1.3885
  291SOL    HW2  873   1.281   2.991   0.199 -1.8185  0.9174 -0.3414
  292SOL     OW  874   0.307   0.340   2.003 -0.1440  0.2335  0.0009
  292SOL    HW1  875   0.268   0.432   2.008  2.5936  0.4331 -1.1980
  292SOL    HW2  876   0.407   0.338   2.010 -4.2236 -0.2991 -0.0626
  293SOL     OW  877   2.432   2.002   1.324 -0.3530  0.0843  0.1734
  293SOL    HW1  878   2.531   1.987   1.299  2.1058  0.9206  0.5925
  293SOL    HW2  879   2.419   2.102   1.336 -0.0745  1.2818 -0.3303
  294SOL     OW  880   0.871   0.231   2.350  0.1077 -0.2853  0.3430
  294SOL    HW1  881   0.906   0.284   2.428  1.1339  0.7575 -1.8615
  294SOL    HW2  882   0.774   0.197   2.351 -1.8257 -0.4207  1.7499
  295SOL     OW  883   1.645   1.621   1.309  0.3041 -0.8148  0.1765
  295SOL    HW1  884   1.678   1.527   1.319  0.4952  2.9449  0.1230
  295SOL    HW2  885   1.649   1.672   1.398  0.3713 -0.7902  1.1007
  296SOL     OW  886   2.569   1.767   0.111 -0.5881  0.2840  0.0523
  296SOL    HW1  887   2.509   1.711   0.174 -0.9775  2.1036  2.2235
  296SOL    HW2  888   2.667   1.749   0.133  2.9175  1.1731  0.0810
  297SOL     OW  889   2.762   0.173   0.315 -0.2469 -0.4112 -0.7794
  297SOL    HW1  890   2.673   0.225   0.330 -2.1673  0.0985 -0.1673
  297SOL    HW2  891   2.834   0.223   0.262 -0.1819  1.1112  0.7825
  298SOL     OW  892   0.757   2.996   2.925  0.5310 -0.3764  0.2090
  298SOL    HW1  893   0.761   3.027   2.826 -0.0968  0.1212  0.3356
  298SOL    HW2  894   0.750   0.004   2.988 -1.1638  0.1032 -0.5715
  299SOL     OW  895   0.694   2.134   2.204  0.6727 -0.0761 -0.0493
  299SOL    HW1  896   0.742   2.064   2.254  1.3962 -0.2153 -1.8644
  299SOL    HW2  897   0.631   2.181   2.270 -0.9916  1.6103  2.1303
  300SOL     OW  898   2.721   3.021   2.334 -0.2898 -0.9768  0.2896
  300SOL    HW1  899   2.764   0.043   2.331 -0.3939 -0.5395 -2.5963
  300SOL    HW2  900   2.788   2.950   2.304 -2.0214  0.4214 -0.2642
  301SOL     OW  901   1.179   0.537   1.867 -0.5045  0.0197  0.1029
  301SOL    HW1  902   1.194   0.460   1.804 -0.8141  1.6388  1.2569
  301SOL    HW2  903   1.250   0.552   1.944 -0.0147 -0.4583  0.7354
  302SOL     OW  904   3.050   2.181   3.021  0.8931 -0.5237 -0.4350
  302SOL    HW1  905   0.020   2.166   0.041  2.2876 -3.3158 -0.2547
  302SOL    HW2  906   2.977   2.254   3.018 -1.5726 -0.0334  1.4104
  303SOL     OW  907   2.397   2.724   1.360 -0.0862  0.1907 -0.0666
  303SOL    HW1  908   2.440   2.635   1.377 -2.6038 -1.3399  0.9026
  303SOL    HW2  909   2.449   2.805   1.389 -2.6773  0.9681  1.2820
  304SOL     OW  910   2.689   0.739   1.626  0.1222  0.1915  0.3282
  304SOL    HW1  911   2.615   0.674   1.664 -0.3789  0.3931 -0.3999
  304SOL    HW2  912   2.750   0.775   1.700 -3.3727  0.3435  1.3724
  305SOL     OW  913   0.963   1.822   0.818  0.4250  0.0540  0.2025
  305SOL    HW1  914   0.976   1.904   0.878 -0.0352 -0.5847  0.2377
  305SOL    HW2  915   0.897   1.759   0.866  3.0405 -0.8044  1.4470
  306SOL     OW  916   0.393   1.461   1.948  0.3816 -0.4529 -0.4848
  306SOL    HW1  917   0.298   1.494   1.978  1.0190  1.8418  1.9149
  306SOL    HW2  918   0.457   1.509   2.011  0.1163  0.2943 -1.5628
  307SOL     OW  919   0.773   0.246   1.714  0.3728  0.0098  0.3954
  307SOL    HW1  920   0.841   0.274   1.788 -0.0434 -1.9223  0.1522
  307SOL    HW2  921   0.783   0.142   1.695 -0.8805 -0.8776  0.7464
  308SOL     OW  922   3.061   0.895   0.981  0.2083  0.1031  0.0653
  308SOL    HW1  923   0.083   0.890   1.019 -0.6921 -0.9004  2.9288
  308SOL    HW2  924   3.054   0.872   0.884  0.1287  0.3348  1.6169
  309SOL     OW  925   2.669   1.010   1.276 -0.7438  0.0672  0.6518
  309SOL    HW1  926   2.662   1.105   1.308 -0.8792  0.0461  0.7513
  309SOL    HW2  927   2.750   0.997   1.214  2.9261  0.3423 -3.8850
  310SOL     OW  928   0.212   1.802   2.396 -0.2880 -0.4780 -0.1203
  310SOL    HW1  929   0.286   1.744   2.431  0.1147 -0.3812 -1.4160
  310SOL    HW2  930   0.259   1.892   2.372 -1.8273  1.5102 -2.7250
  311SOL     OW  931   2.568   2.690   2.070 -0.3919  0.2631 -0.3839
  311SOL    HW1  932   2.605   2.756   2.000 -1.0615 -4.4535  1.2242
  311SOL    HW2  933   2.576   2.720   2.169 -0.4328 -0.0066  0.4151
  312SOL     OW  934   2.136   2.122   2.887  0.3018  0.4987  0.3101
  312SOL    HW1  935   2.063   2.186   2.914  0.5602 -0.0285 -1.2669
  312SOL    HW2  936   2.210   2.125   2.960  1.2970 -0.6807 -0.0495
  313SOL     OW  937   2.971   2.897   0.603 -0.2375 -0.1649 -0.3107
  313SOL    HW1  938   2.909   2.976   0.584 -1.0197 -0.4853  0.8440
  313SOL    HW2  939   3.053   2.898   0.550 -2.0167 -2.1557 -0.1215
  314SOL     OW  940   1.879   1.099   0.174 -0.0865  0.4423 -0.1918
  314SOL    HW1  941   1.905   1.101   0.274 -1.7060 -1.9680  0.4474
  314SOL    HW2  942   1.943   1.162   0.119  0.8211  2.6093 -2.3316
  315SOL     OW  943   1.469   3.067   2.510  0.1795  0.1468  0.5830
  315SOL    HW1  944   1.481   0.008   2.410  0.7257 -0.4064 -0.3608
  315SOL    HW2  945   1.527   2.995   2.542 -1.5902 -0.0210  1.5114
  316SOL     OW  946   0.046   1.460   0.456  0.6442  0.0494 -0.2081
  316SOL    HW1  947   0.112   1.387   0.487  1.5616  1.2764  0.1445
  316SOL    HW2  948   3.049   1.434   0.384  1.1825  0.7713 -2.0492
  317SOL     OW  949   0.586   2.769   2.928 -0.1311 -0.1247  0.1463
  317SOL    HW1  950   0.500   2.812   2.968 -1.8536  0.6793  0.5389
  317SOL    HW2  951   0.653   2.846   2.909  0.2956 -0.1967 -0.8826
  318SOL     OW  952   2.238   2.319   1.086 -0.4681 -0.1932  0.2346
  318SOL    HW1  953   2.226   2.253   1.008 -3.5143  1.7036  2.3070
  318SOL    HW2  954   2.261   2.413   1.053 -1.2109  0.2871  0.7301
  319SOL     OW  955   1.274   1.891   2.798  0.5900  0.0621  0.0522
  319SOL    HW1  956   1.188   1.901   2.743  0.5710 -1.1273  1.1244
  319SOL    HW2  957   1.258   1.854   2.892  0.9729 -1.0985  0.4529
  320SOL     OW  958   0.533   1.980   1.251 -0.0646 -0.6061  0.1654
  320SOL    HW1  959   0.591   2.048   1.199 -1.7751  0.0934  3.0074
  320SOL    HW2  960   0.580   1.939   1.329  0.1529  1.7455 -0.2053
  321SOL     OW  961   1.246   2.716   2.501  0.3020  0.1888 -0.7463
  321SOL    HW1  962   1.228   2.808   2.454 -2.0765  1.5120  0.4869
  321SOL    HW2  963   1.174   2.650   2.496  1.7266  2.5300  2.1499
  322SOL     OW  964   2.507   1.756   1.812 -0.0344  0.1481  0.2149
  322SOL    HW1  965   2.491   1.802   1.901  0.9570  1.5409 -2.8060
  322SOL    HW2  966   2.509   1.823   1.733 -1.8644  1.1547 -2.4627
  323SOL     OW  967   2.827   0.754   1.189 -0.7377  1.1958  0.7523
  323SOL    HW1  968   2.788   0.702   1.106 -2.1123 -0.7426  1.2791
  323SOL    HW2  969   2.770   0.839   1.203 -0.6039 -2.2783  0.2052
  324SOL     OW  970   2.522   0.024   2.468 -0.3052 -0.2698  0.0662
  324SOL    HW1  971   2.558   0.044   2.560  2.2633  4.1478  0.9053
  324SOL    HW2  972   2.602   3.058   2.416  0.4614  1.7008 -1.5349
  325SOL     OW  973   1.062   0.595   2.405 -0.8795 -0.0191 -0.0672
  325SOL    HW1  974   1.033   0.519   2.467 -0.5370 -1.0721  0.4786
  325SOL    HW2  975   0.999   0.615   2.327  0.0973 -1.6908 -0.3863
  326SOL     OW  976   1.866   2.834   2.194  0.5788 -0.2808  0.0841
  326SOL    HW1  977   1.944   2.877   2.243 -0.2636 -1.0009  0.4180
  326SOL    HW2  978   1.861   2.867   2.097  0.4920 -1.4171 -0.6493
  327SOL     OW  979   2.107   0.151   2.992 -0.4131 -0.1843  0.2606
  327SOL    HW1  980   2.200   0.161   2.952  0.8872 -2.6486 -0.4876
  327SOL    HW2  981   2.074   0.054   2.996 -0.5735  1.6609 -1.6024
  328SOL     OW  982   0.128   1.370   2.208 -0.0409  0.4126  0.0147
  328SOL    HW1  983   0.114   1.454   2.151  1.3756  0.1385 -0.2994
  328SOL    HW2  984   0.134   1.398   2.308  0.4373  0.5703 -1.7317
  329SOL     OW  985   1.780   0.240   1.623  0.5847 -0.0862 -0.3800
  329SOL    HW1  986   1.854   0.217   1.691 -0.6593 -1.8332  1.8136
  329SOL    HW2  987   1.824   0.303   1.552 -0.5364  0.3302 -3.6681
  330SOL     OW  988   0.293   1.151   0.908 -0.2293  0.3353  0.4329
  330SOL    HW1  989   0.200   1.142   0.863  2.3614  0.2448 -0.5650
  330SOL    HW2  990   0.305   1.248   0.937 -0.6872 -1.0354 -0.7483
  331SOL     OW  991   0.218   1.645   2.055  0.0247  0.0976 -0.0202
  331SOL    HW1  992   0.118   1.636   2.074  0.2071 -0.1546  1.6905
  331SOL    HW2  993   0.243   1.711   1.984  0.2471 -2.6498 -1.4685
  332SOL     OW  994   2.837   2.585   1.521  0.3459  0.4247 -0.5109
  332SOL    HW1  995   2.806   2.561   1.424 -1.6998 -0.0438 -0.1857
  332SOL    HW2  996   2.854   2.504   1.574 -0.4105  2.9358  2.7373
  333SOL     OW  997   2.289   0.104   0.985  0.2943 -0.3754 -0.3000
  333SOL    HW1  998   2.190   0.076   1.005 -1.1709  0.4533  1.9687
  333SOL    HW2  999   2.347   0.039   1.035 -1.0809 -2.5438  0.3807
  334SOL     OW 1000   0.566   1.822   0.645 -0.3878  0.4004 -0.2552
  334SOL    HW1 1001   0.540   1.727   0.611 -0.3115 -1.7491 -1.1827
  334SOL    HW2 1002   0.488   1.873   0.680  0.1316 -0.4210  0.3722
  335SOL     OW 1003   0.183   2.486   2.952 -0.3434  0.6187 -0.3693
  335SOL    HW1 1004   0.184   2.462   2.853  2.9040  0.2168  1.5637
  335SOL    HW2 1005   0.268   2.444   3.004  1.7173 -2.1737  0.4396
  336SOL     OW 1006   0.178   2.781   2.280  0.3870 -0.4364  0.0229
  336SOL    HW1 1007   0.126   2.837   2.214  0.6541  0.5045 -0.9770
  336SOL    HW2 1008   0.160   2.680   2.266 -0.8640  0.1843  1.2082
  337SOL     OW 1009   1.950   2.549   2.101  0.2447  0.0960  0.4245
  337SOL    HW1 1010   1.929   2.637   2.141  2.4268 -5.1874 -2.0991
  337SOL    HW2 1011   1.867   2.513   2.060  3.0225  1.7844 -1.5290
  338SOL     OW 1012   0.660   3.011   0.229 -1.2573  0.3428 -0.5037
  338SOL    HW1 1013   0.676   3.060   0.143  0.1835 -0.6926  3.0999
  338SOL    HW2 1014   0.570   3.040   0.268  2.4948  0.4195 -2.2822
  339SOL     OW 1015   0.249   1.202   1.999  0.0700 -0.0834  0.5945
  339SOL    HW1 1016   0.286   1.272   1.932 -2.3632 -0.9526  1.0429
  339SOL    HW2 1017   0.215   1.242   2.086 -0.2790 -0.0151 -2.1295
  340SOL     OW 1018   1.587   2.751   0.400  0.0547  0.2768 -0.0443
  340SOL    HW1 1019   1.614   2.684   0.477 -0.7292 -1.6091  1.4350
  340SOL    HW2 1020   1.484   2.756   0.389 -3.5853 -0.4689  1.1973
  341SOL     OW 1021   2.206   1.169   0.790 -0.8753  0.4376 -0.3027
  341SOL    HW1 1022   2.127   1.109   0.812  0.6465 -2.6144  2.2279
  341SOL    HW2 1023   2.265   1.202   0.867  1.0926  3.5568 -0.0840
  342SOL     OW 1024   2.512   0.105   0.035  0.1397  0.1366  0.6174
  342SOL    HW1 1025   2.436   0.091   0.098 -1.7272 -1.7634 -2.7915
  342SOL    HW2 1026   2.589   0.040   0.063  2.4673 -0.8499 -0.6478
  343SOL     OW 1027   1.194   2.209   1.792  0.2320  0.2512  0.3914
  343SOL    HW1 1028   1.212   2.296   1.735 -2.4935  1.8004  0.0290
  343SOL    HW2 1029   1.277   2.189   1.845 -2.4803  0.0473 -1.9577
  344SOL     OW 1030   2.642   2.785   0.998  0.5104 -0.1298  0.1120
  344SOL    HW1 1031   2.638   2.690   1.037 -1.3631 -0.4711 -0.8353
  344SOL    HW2 1032   2.719   2.797   0.931  0.9951  1.9759  0.2440
  345SOL     OW 1033   2.712   2.198   0.048 -0.6950  0.3263 -0.0493
  345SOL    HW1 1034   2.695   2.299   0.055 -1.9883  0.3590 -1.4708
  345SOL    HW2 1035   2.720   2.158   0.143  0.5105 -0.0249  1.0732
  346SOL     OW 1036   2.387   2.037   0.758  0.1244 -0.6797 -0.2039
  346SOL    HW1 1037   2.403   2.092   0.671  1.1296 -1.2476 -1.2115
  346SOL    HW2 1038   2.443   2.074   0.833  0.8785  1.1935  3.4481
  347SOL     OW 1039   1.363   2.094   1.567  0.0652 -0.2673 -0.1370
  347SOL    HW1 1040   1.425   2.093   1.646 -1.4578  1.2108 -2.1954
  347SOL    HW2 1041   1.311   2.007   1.569  0.8984  0.3554  2.2981
  348SOL     OW 1042   0.582   1.740   2.373 -0.9227 -0.0729  0.2155
  348SOL    HW1 1043   0.546   1.731   2.469  0.4650 -1.8847 -0.8842
  348SOL    HW2 1044   0.654   1.666   2.365 -1.7219  1.5577 -0.0077
  349SOL     OW 1045   2.480   1.443   0.829  0.0116  0.4663  0.0182
  349SOL    HW1 1046   2.519   1.455   0.735 -1.9488  0.3182 -0.1919
  349SOL    HW2 1047   2.442   1.531   0.863 -0.6023  1.2920  0.5417
  350SOL     OW 1048   2.978   2.381   0.887 -0.0041  0.1678  0.3453
  350SOL    HW1 1049   2.907   2.381   0.959  1.4701 -0.5095 -0.4387
  350SOL    HW2 1050   2.946   2.434   0.805  0.3654  0.9341 -1.2202
  351SOL     OW 1051   0.302   2.926   1.933 -0.4912  0.3883  0.1192
  351SOL    HW1 1052   0.245   2.983   1.873  3.1548 -1.3893  2.0024
  351SOL    HW2 1053   0.399   2.949   1.918 -1.2642 -2.3108 -0.2856
  352SOL     OW 1054   0.892   1.383   1.087  0.2132  0.3127 -0.2497
  352SOL    HW1 1055   0.833   1.462   1.123 -1.0484  1.1973 -0.2380
  352SOL    HW2 1056   0.984   1.410   1.050 -1.2634 -1.3344 -1.4929
  353SOL     OW 1057   1.432   1.475   2.473  0.1911  0.1762 -0.0144
  353SOL    HW1 1058   1.345   1.477   2.524 -2.7542  2.7579  1.0474
  353SOL    HW2 1059   1.481   1.387   2.491 -0.9928  0.4417  0.7762
  354SOL     OW 1060   1.555   2.952   1.335 -0.1598 -0.5216  0.0498
  354SOL    HW1 1061   1.487   2.884   1.378 -1.4258  0.9314  3.2598
  354SOL    HW2 1062   1.585   3.021   1.405 -1.9700 -1.7817  0.7056
  355SOL     OW 1063   2.220   1.397   0.643 -0.0608  0.0720 -0.1304
  355SOL    HW1 1064   2.199   1.317   0.700  1.1859  0.0476 -2.3364
  355SOL    HW2 1065   2.188   1.392   0.546 -0.8232  2.2230 -0.7837
  356SOL     OW 1066   2.712   1.746   2.191 -0.5496  0.5635 -0.7491
  356SOL    HW1 1067   2.714   1.827   2.131 -1.5955 -2.0516  0.2941
  356SOL    HW2 1068   2.716   1.777   2.289  0.7022  1.9077  0.6956
  357SOL     OW 1069   0.560   2.867   1.447 -0.1779 -0.2513  0.3027
  357SOL    HW1 1070   0.534   2.811   1.371  0.2832  2.6266  1.4861
  357SOL    HW2 1071   0.620   2.943   1.418 -2.8408  1.7812  1.2243
  358SOL     OW 1072   2.432   1.289   1.844  0.0249 -0.1046  0.3127
  358SOL    HW1 1073   2.513   1.353   1.846  1.3412 -0.0770 -0.2941
  358SOL    HW2 1074   2.417   1.255   1.939  2.2818  1.1975 -0.6836
  359SOL     OW 1075   2.229   2.806   2.630  0.1070  0.3535  0.5814
  359SOL    HW1 1076   2.200   2.707   2.604 -0.5149 -2.2890 -1.2458
  359SOL    HW2 1077   2.160   2.851   2.691 -2.0097 -1.9813  1.7513
  360SOL     OW 1078   0.692   0.443   1.023 -0.1065 -0.0800 -0.1867
  360SOL    HW1 1079   0.677   0.341   1.037  0.7335 -0.9775 -1.2128
  360SOL    HW2 1080   0.607   0.489   1.055 -1.2197 -1.4673 -0.0238
  361SOL     OW 1081   1.820   2.907   1.007  0.0672  0.5221  0.5296
  361SOL    HW1 1082   1.756   2.979   1.042 -2.0131 -0.6123  0.4021
  361SOL    HW2 1083   1.827   2.841   1.084 -1.7606  2.6255  1.7265
  362SOL     OW 1084   1.206   1.077   1.006  0.1068 -0.2768  0.6610
  362SOL    HW1 1085   1.272   1.152   0.982  0.9184 -0.0779  0.3772
  362SOL    HW2 1086   1.119   1.087   0.947 -0.5562 -1.0131 -1.7651
  363SOL     OW 1087   2.349   1.679   2.684  0.1307 -0.4002  0.0604
  363SOL    HW1 1088   2.327   1.694   2.786 -1.1198 -0.3422  0.0247
  363SOL    HW2 1089   2.425   1.615   2.676 -0.2291 -0.5324 -0.0404
  364SOL     OW 1090   0.185   0.297   1.004  0.1522  0.0435  0.4355
  364SOL    HW1 1091   0.206   0.310   1.099  1.2659  0.8987 -3.3475
  364SOL    HW2 1092   0.091   0.341   0.987 -0.7145 -1.2190 -1.5365
  365SOL     OW 1093   0.145   2.915   2.720  0.0282 -0.2455 -0.5871
  365SOL    HW1 1094   0.188   2.852   2.654 -1.5212 -0.5448  1.3106
  365SOL    HW2 1095   0.072   2.967   2.678  0.3127 -2.1124  0.5462
  366SOL     OW 1096   2.314   2.132   0.014 -0.2298 -0.4768  0.1080
  366SOL    HW1 1097   2.403   2.080   0.006 -0.4648  0.4751  1.3956
  366SOL    HW2 1098   2.329   2.235   0.036  1.1418  2.6265  0.2589
  367SOL     OW 1099   2.547   2.610   3.006  0.6403  0.1968 -0.1028
  367SOL    HW1 1100   2.530   2.609   2.905 -0.7669 -1.4841 -0.7188
  367SOL    HW2 1101   2.629   2.555   3.031  0.9774 -0.4706  0.7078
  368SOL     OW 1102   0.283   1.671   1.058 -0.3312  0.1202 -0.0696
  368SOL    HW1 1103   0.279   1.665   0.959  2.2377 -2.8874  2.0571
  368SOL    HW2 1104   0.194   1.688   1.112 -0.0754  0.5531  1.5156
  369SOL     OW 1105   0.618   2.672   2.676  0.1120  0.7807  0.3419
  369SOL    HW1 1106   0.609   2.708   2.770 -0.1298 -1.4065  0.0837
  369SOL    HW2 1107   0.714   2.634   2.656  1.5952 -0.1793 -0.2064
  370SOL     OW 1108   3.070   0.811   0.711  0.5302 -0.0529  0.8326
  370SOL    HW1 1109   0.089   0.844   0.678 -3.5389 -2.1095 -0.0119
  370SOL    HW2 1110   0.001   0.711   0.729 -0.9350  1.7348 -0.4216
  371SOL     OW 1111   1.786   2.155   0.837  0.2949 -0.1495 -0.2681
  371SOL    HW1 1112   1.777   2.221   0.918 -0.7985  1.0001  4.5504
  371SOL    HW2 1113   1.799   2.057   0.874  0.9183 -2.4774 -2.1243
  372SOL     OW 1114   0.438   0.888   2.769  0.2008 -0.1916  0.1818
  372SOL    HW1 1115   0.519   0.836   2.733  1.5748  0.7360  1.6108
  372SOL    HW2 1116   0.402   0.844   2.856  1.9462  1.6172 -0.2003
  373SOL     OW 1117   0.060   1.950   1.004 -0.5871  0.1406  0.0106
  373SOL    HW1 1118   3.042   2.000   1.020  0.7201  0.0729  1.6059
  373SOL    HW2 1119   0.036   1.856   1.038 -0.4505  0.6501  0.3650
  374SOL     OW 1120   0.187   2.715   0.173  0.1962  0.3264 -0.1138
  374SOL    HW1 1121   0.165   2.624   0.214 -1.9492 -1.4544  1.1021
  374SOL    HW2 1122   0.194   2.715   0.074  0.8080  2.4950  2.5703
  375SOL     OW 1123   0.249   0.208   0.216 -0.5225 -0.0482 -0.1189
  375SOL    HW1 1124   0.317   0.284   0.193  0.8032  2.2175  3.2255
  375SOL    HW2 1125   0.152   0.236   0.196 -0.1571  0.4310  0.1514
  376SOL     OW 1126   2.965   2.574   1.900  0.0570 -0.6967  0.1509
  376SOL    HW1 1127   2.943   2.514   1.815  0.6680 -5.1085 -1.0662
  376SOL    HW2 1128   2.982   2.670   1.873 -0.3541  0.9464 -0.4948
  377SOL     OW 1129   1.925   2.411   2.706 -0.3112  0.0827  0.1321
  377SOL    HW1 1130   1.900   2.490   2.767  3.6203 -2.2692 -0.6867
  377SOL    HW2 1131   1.937   2.436   2.607 -2.4533 -0.8042  1.3971
  378SOL     OW 1132   0.514   0.277   0.403  0.0425 -0.5757 -0.2607
  378SOL    HW1 1133   0.586   0.245   0.334 -2.4022  0.5988  1.7001
  378SOL    HW2 1134   0.531   0.235   0.496  0.7595 -2.8694 -0.4006
  379SOL     OW 1135   0.713   1.552   0.555 -0.5991 -0.4437  0.6425
  379SOL    HW1 1136   0.713   1.558   0.451  1.5699 -0.0008 -0.6036
  379SOL    HW2 1137   0.791   1.491   0.582  2.2938 -0.8845  1.0273
  380SOL     OW 1138   0.387   1.673   1.366  0.4837 -0.0532  0.3212
  380SOL    HW1 1139   0.456   1.725   1.420 -3.0338 -1.9048 -0.3661
  380SOL    HW2 1140   0.374   1.701   1.270  0.8739  0.5767 -0.1776
  381SOL     OW 1141   0.586   1.178   1.986  0.0285 -0.2304 -0.6142
  381SOL    HW1 1142   0.601   1.126   1.900  2.4411  1.6161  1.6960
  381SOL    HW2 1143   0.536   1.263   1.968 -2.2355 -1.7475 -0.8889
  382SOL     OW 1144   2.219   1.842   0.640 -0.0458 -0.0375 -0.1468
  382SOL    HW1 1145   2.292   1.904   0.675  0.1519 -0.3695 -1.5632
  382SOL    HW2 1146   2.258   1.752   0.617  0.1540  0.7811  0.4494
  383SOL     OW 1147   2.782   1.754   2.461 -0.4509 -0.1947 -0.7454
  383SOL    HW1 1148   2.752   1.840   2.507  0.7661 -2.6346  1.6068
  383SOL    HW2 1149   2.877   1.765   2.427  0.7260 -2.0776  1.4639
  384SOL     OW 1150   0.443   2.100   2.583  0.3913 -0.1099  0.0172
  384SOL    HW1 1151   0.343   2.108   2.590 -0.0923  1.7695  0.8194
  384SOL    HW2 1152   0.487   2.158   2.654 -0.8235 -0.1418 -0.5657
  385SOL     OW 1153   2.532   2.061   0.985  0.1558 -0.5811  0.4940
  385SOL    HW1 1154   2.583   2.015   1.057 -0.7594  0.0378  0.9865
  385SOL    HW2 1155   2.600   2.082   0.910 -1.0413 -0.2185  1.9208
  386SOL     OW 1156   1.667   0.930   0.923 -0.0211  0.0692  0.2402
  386SOL    HW1 1157   1.714   0.990   0.855 -0.7671  0.1875 -1.3729
  386SOL    HW2 1158   1.572   0.942   0.907 -2.0908  2.4958  0.5651
  387SOL     OW 1159   0.424   0.817   1.646 -0.3781 -0.4036  0.3493
  387SOL    HW1 1160   0.403   0.894   1.705  0.5794 -2.7936  0.8587
  387SOL    HW2 1161   0.395   0.840   1.548 -1.3176 -0.3465 -1.6573
  388SOL     OW 1162   2.252   0.955   2.268 -0.2755 -1.0099 -0.4945
  388SOL    HW1 1163   2.262   0.956   2.369  0.2930 -3.1624  0.1791
  388SOL    HW2 1164   2.264   0.864   2.226 -1.8640  1.9354  1.2403
  389SOL     OW 1165   2.057   1.338   2.057 -0.3343  0.1705 -0.7721
  389SOL    HW1 1166   2.071   1.351   1.957  0.0787 -0.7352 -0.5146
  389SOL    HW2 1167   2.128   1.392   2.103 -2.1409 -1.4476  1.4378
  390SOL     OW 1168   1.707   2.806   0.146  0.6219  0.3669  0.2439
  390SOL    HW1 1169   1.667   2.781   0.232  0.2091  1.8901 -1.7593
  390SOL    HW2 1170   1.638   2.786   0.072 -0.4759  0.3182 -0.3199
  391SOL     OW 1171   2.053   1.979   1.109  0.8321 -0.1519  0.1807
  391SOL    HW1 1172   1.969   1.960   1.050  1.0038  1.0770  0.6457
  391SOL    HW2 1173   2.024   1.966   1.209 -0.9275  2.3597  1.3978
  392SOL     OW 1174   0.000   2.808   1.357 -0.8592  0.4885 -0.3904
  392SOL    HW1 1175   2.972   2.821   1.328 -1.4066  3.2649  1.2621
  392SOL    HW2 1176   0.018   2.709   1.347 -0.3027 -0.4696  2.6097
  393SOL     OW 1177   2.120   1.889   3.054  0.1918  0.2077  0.4257
  393SOL    HW1 1178   2.119   1.958   2.982 -0.3348 -2.8684  3.0352
  393SOL    HW2 1179   2.032   1.836   3.038 -3.0461 -1.2478 -0.4794
  394SOL     OW 1180   0.373   0.623   2.481 -0.4200 -0.3708 -0.5460
  394SOL    HW1 1181   0.326   0.568   2.411  1.6854 -0.6229  0.4667
  394SOL    HW2 1182   0.322   0.707   2.506  1.2518 -0.3645 -0.0661
  395SOL     OW 1183   0.930   0.759   0.697  0.0724  0.1406 -0.3611
  395SOL    HW1 1184   0.911   0.788   0.792 -1.4112  1.4552  1.3606
  395SOL    HW2 1185   0.870   0.812   0.632  1.7343  2.9750 -1.4099
  396SOL     OW 1186   1.210   0.907   3.010  0.4283  0.4216 -0.6492
  396SOL    HW1 1187   1.306   0.864   3.016  0.7400  2.2681  2.4053
  396SOL    HW2 1188   1.150   0.883   0.014  1.6872  0.1909  0.1181
  397SOL     OW 1189   0.556   0.757   2.023 -0.2733  0.2761 -0.2947
  397SOL    HW1 1190   0.588   0.789   1.931 -0.3988 -3.2027 -0.3233
  397SOL    HW2 1191   0.498   0.830   2.066 -0.5640 -1.2307  0.3304
  398SOL     OW 1192   0.832   0.087   0.371 -0.0942  0.0326 -0.0515
  398SOL    HW1 1193   0.857   0.034   0.456 -0.5431 -0.9985 -1.3604
  398SOL    HW2 1194   0.774   0.029   0.307  0.7503  1.8006 -0.3102
  399SOL     OW 1195   2.144   3.026   1.714  0.6466  0.1294 -0.5780
  399SOL    HW1 1196   2.158   2.931   1.745  0.8502  0.3312  0.9597
  399SOL    HW2 1197   2.138   0.022   1.794  2.7727 -0.8950  3.6697
  400SOL     OW 1198   0.578   1.841   2.110 -0.0128  0.1131  0.2619
  400SOL    HW1 1199   0.561   1.844   2.209  0.7121  0.8036 -0.0106
  400SOL    HW2 1200   0.648   1.912   2.085  1.3584  2.0097 -1.9986
  401SOL     OW 1201   0.663   0.597   2.452  0.4614 -0.2195  0.0016
  401SOL    HW1 1202   0.727   0.576   2.527  0.4498  2.1213 -0.1338
  401SOL    HW2 1203   0.569   0.589   2.483  0.7709  0.2866  1.2836
  402SOL     OW 1204   2.896   2.175   1.512 -0.3143 -0.0085  0.2489
  402SOL    HW1 1205   2.915   2.086   1.561 -1.6923 -1.2614  2.0270
  402SOL    HW2 1206   2.963   2.180   1.434  1.1395  1.0634 -0.3361
  403SOL     OW 1207   0.280   1.006   1.798  1.0794 -0.0322  0.7960
  403SOL    HW1 1208   0.194   1.039   1.745 -0.6052  1.0747  0.0492
  403SOL    HW2 1209   0.285   1.053   1.887 -2.3598 -0.6547 -1.7556
  404SOL     OW 1210   2.822   2.844   1.602  0.2031 -0.3355  0.4591
  404SOL    HW1 1211   2.885   2.845   1.682  3.8641  1.9802 -1.6848
  404SOL    HW2 1212   2.830   2.755   1.552 -2.0364  0.5368 -1.4985
  405SOL     OW 1213   0.304   0.363   1.724  0.0576 -0.1632  0.1158
  405SOL    HW1 1214   0.311   0.325   1.821  1.6345 -0.5053 -1.6405
  405SOL    HW2 1215   0.328   0.290   1.650  0.9783 -0.3279 -1.0665
  406SOL     OW 1216   1.855   2.175   2.566 -0.1862  0.3334 -0.3860
  406SOL    HW1 1217   1.907   2.264   2.585  3.3547 -0.1758  1.2646
  406SOL    HW2 1218   1.927   2.093   2.577  1.2812 -4.6962  0.7058
  407SOL     OW 1219   1.386   1.496   2.210  0.0917  0.4220 -0.1058
  407SOL    HW1 1220   1.296   1.450   2.183  0.5807 -1.8447  0.4002
  407SOL    HW2 1221   1.402   1.487   2.309 -0.1529  3.0694  0.3582
  408SOL     OW 1222   0.607   0.231   2.589  0.1951 -0.9084  0.1065
  408SOL    HW1 1223   0.583   0.241   2.491  0.1202 -1.8780  1.8881
  408SOL    HW2 1224   0.554   0.300   2.645 -0.4149  1.7576 -1.0720
  409SOL     OW 1225   0.234   1.929   0.141 -0.3874  0.3220  0.1593
  409SOL    HW1 1226   0.224   1.857   0.214  0.2053 -1.9256  2.2338
  409SOL    HW2 1227   0.208   2.019   0.181 -0.1430  2.1460  2.7111
  410SOL     OW 1228   2.658   1.471   0.331 -0.5266 -0.4536 -0.7075
  410SOL    HW1 1229   2.693   1.560   0.291 -0.6052 -0.4586 -0.2389
  410SOL    HW2 1230   2.551   1.480   0.340 -2.3600  1.6993  0.1073
  411SOL     OW 1231   2.758   0.565   1.008 -0.0594  0.6657  0.0302
  411SOL    HW1 1232   2.779   0.466   0.997 -1.3056 -0.9310 -0.5745
  411SOL    HW2 1233   2.734   0.605   0.917  1.6019 -0.5799 -1.4964
  412SOL     OW 1234   1.258   0.982   1.258 -0.0651  0.2227  0.5563
  412SOL    HW1 1235   1.268   1.000   1.154 -1.5083  2.7142 -3.2692
  412SOL    HW2 1236   1.347   0.977   1.302 -1.9743  1.3355 -1.9341
  413SOL     OW 1237   0.537   2.679   1.224 -0.3508  0.0156 -0.6750
  413SOL    HW1 1238   0.468   2.612   1.194  1.5350  1.5659  0.1468
  413SOL    HW2 1239   0.543   2.757   1.162 -0.9566 -0.0767  3.8438
  414SOL     OW 1240   3.053   1.516   2.691  0.2176 -0.1654  0.4074
  414SOL    HW1 1241   3.001   1.503   2.607 -1.2645  2.0922  0.6512
  414SOL    HW2 1242   0.035   1.604   2.682 -0.7281  1.8347 -0.2724
  415SOL     OW 1243   0.355   2.158   2.951 -0.2278  0.2178  0.1549
  415SOL    HW1 1244   0.354   2.057   2.966 -1.0260 -0.2122  0.7869
  415SOL    HW2 1245   0.272   2.183   2.894 -0.4050  2.6984 -0.9272
  416SOL     OW 1246   1.404   3.026   0.536  0.4024 -0.4062 -0.1858
  416SOL    HW1 1247   1.503   3.048   0.524 -0.5090 -2.3198  0.1043
  416SOL    HW2 1248   1.365   3.005   0.444 -1.5198 -0.5811 -2.0504
  417SOL     OW 1249   0.448   0.985   0.761  0.3512 -0.0373  0.7307
  417SOL    HW1 1250   0.515   0.928   0.815  1.0632 -3.7661  2.3964
  417SOL    HW2 1251   0.412   1.062   0.817 -1.4418 -1.6803 -1.8145
  418SOL     OW 1252   2.407   1.053   2.051  0.0652  0.0568 -0.1439
  418SOL    HW1 1253   2.383   1.027   1.954 -2.4714  0.8288 -1.0689
  418SOL    HW2 1254   2.344   1.009   2.116  1.2036 -1.5534  1.4284
  419SOL     OW 1255   3.019   0.392   0.575  0.6016  0.4809  0.9165
  419SOL    HW1 1256   0.002   0.316   0.530 -1.0946  0.3044 -0.3791
  419SOL    HW2 1257   0.005   0.429   0.654  2.1836 -1.4834 -0.3994
  420SOL     OW 1258   0.564   1.502   0.767  0.4395  0.5066 -0.1679
  420SOL    HW1 1259   0.613   1.521   0.683 -3.7182 -2.3365  2.6932
  420SOL    HW2 1260   0.594   1.412   0.806  0.8630  0.0521 -3.8737
  421SOL     OW 1261   0.921   2.407   0.778 -0.5363 -0.5275  0.0105
  421SOL    HW1 1262   0.888   2.462   0.697 -1.7994 -0.9387  1.2960
  421SOL    HW2 1263   1.023   2.392   0.752  1.8573 -2.5935 -1.7950
  422SOL     OW 1264   0.002   0.714   1.253 -0.2006 -0.6344  0.1969
  422SOL    HW1 1265   2.978   0.744   1.220 -1.6784 -3.3389 -0.3665
  422SOL    HW2 1266   0.065   0.747   1.181 -0.9117  0.1712 -2.8913
  423SOL     OW 1267   1.249   1.320   1.401  0.0580 -0.1481  0.2162
  423SOL    HW1 1268   1.178   1.251   1.393 -3.6068 -1.3165  0.7892
  423SOL    HW2 1269   1.298   1.323   1.314  1.2868 -0.0869 -0.4438
  424SOL     OW 1270   2.008   1.202   2.833  0.2884 -0.5980  0.4609
  424SOL    HW1 1271   2.026   1.197   2.934  1.0862 -2.2276  0.8626
  424SOL    HW2 1272   1.918   1.244   2.814 -0.1393  0.0688 -0.6147
  425SOL     OW 1273   0.019   0.555   1.947  0.0252 -0.0217  0.3718
  425SOL    HW1 1274   0.045   0.621   1.875 -3.4386 -2.1344 -0.4116
  425SOL    HW2 1275   2.990   0.546   1.951  1.7067 -3.6680  3.4549
  426SOL     OW 1276   2.771   2.731   2.760  0.5790  0.8168 -0.2234
  426SOL    HW1 1277   2.824   2.753   2.844 -1.4404  0.4378 -1.0800
  426SOL    HW2 1278   2.764   2.630   2.750 -1.7891  3.3484 -1.0513
  427SOL     OW 1279   0.888   0.643   2.215  0.0912 -0.0063  0.4901
  427SOL    HW1 1280   0.798   0.616   2.256 -0.4320 -0.4915 -0.7938
  427SOL    HW2 1281   0.884   0.644   2.111  0.0015 -0.0809 -3.9772
  428SOL     OW 1282   2.261   0.831   1.546 -0.2072 -0.3865 -0.7156
  428SOL    HW1 1283   2.349   0.792   1.513 -0.5481  0.7486  1.8196
  428SOL    HW2 1284   2.243   0.925   1.517 -1.9712 -0.2447  3.6047
  429SOL     OW 1285   2.547   2.679   0.363 -0.0057  0.2084  0.0641
  429SOL    HW1 1286   2.627   2.671   0.431  0.1880  1.0050  2.3722
  429SOL    HW2 1287   2.476   2.604   0.365 -2.2806  0.2344 -0.7687
  430SOL     OW 1288   1.622   1.805   2.511  0.1519  0.5774  0.2681
  430SOL    HW1 1289   1.596   1.772   2.420  0.6022 -1.3220  0.0149
  430SOL    HW2 1290   1.603   1.735   2.584 -0.2877  2.3398 -0.6789
  431SOL     OW 1291   0.025   1.690   1.128 -0.0853  0.8232  0.7893
  431SOL    HW1 1292   3.068   1.597   1.098  1.0522  0.7310 -0.1745
  431SOL    HW2 1293   0.007   1.704   1.229  2.8726  0.1797  0.2172
  432SOL     OW 1294   1.633   2.862   2.600  0.6004  0.0151  0.1414
  432SOL    HW1 1295   1.601   2.769   2.580 -0.4276  0.2858  1.2775
  432SOL    HW2 1296   1.734   2.869   2.583 -0.6154  2.2238  0.9981
  433SOL     OW 1297   1.780   0.013   2.320 -0.6760 -0.4410 -0.0229
  433SOL    HW1 1298   1.801   3.000   2.375 -0.0186 -0.1212 -0.6866
  433SOL    HW2 1299   1.690   0.001   2.276 -0.4373  0.2914  1.2789
  434SOL     OW 1300   0.368   2.579   2.134  0.5948  0.4543  0.1349
  434SOL    HW1 1301   0.296   2.538   2.193  2.6561  1.0894 -1.3367
  434SOL    HW2 1302   0.349   2.566   2.035  0.3586  1.1519  0.4281
  435SOL     OW 1303   3.028   2.453   0.035  0.0996  0.5641 -0.1532
  435SOL    HW1 1304   0.029   2.474   3.042  1.1091 -1.8181  0.3036
  435SOL    HW2 1305   3.064   2.438   0.125  1.0863  0.7113 -1.5804
  436SOL     OW 1306   0.743   0.538   1.769  0.5833 -0.0585  0.7538
  436SOL    HW1 1307   0.696   0.468   1.717  1.5978 -3.1580 -0.2325
  436SOL    HW2 1308   0.697   0.630   1.751  0.2088  2.5723 -0.0484
  437SOL     OW 1309   0.418   2.550   2.531 -0.1344  0.0088  0.1211
  437SOL    HW1 1310   0.428   2.564   2.434 -0.1281  1.5590 -0.0624
  437SOL    HW2 1311   0.501   2.576   2.583  0.4236  0.0279  0.6078
  438SOL     OW 1312   0.594   1.798   1.516  0.0662  0.4020  0.0286
  438SOL    HW1 1313   0.689   1.774   1.500 -2.3207  2.4127 -2.5170
  438SOL    HW2 1314   0.549   1.736   1.584  2.4850  1.8522 -0.7596
  439SOL     OW 1315   2.320   0.930   2.860  0.1324  0.5582 -0.3315
  439SOL    HW1 1316   2.416   0.899   2.867  0.4311  1.1455  0.6210
  439SOL    HW2 1317   2.313   0.972   2.766  1.3534 -0.0514  0.5819
  440SOL     OW 1318   0.594   0.657   0.048  0.0431 -0.0107 -0.3625
  440SOL    HW1 1319   0.630   0.616   0.131 -0.9237  2.2454 -2.9010
  440SOL    HW2 1320   0.628   0.753   0.050  0.1563 -2.3605 -1.2025
  441SOL     OW 1321   0.751   2.118   1.449 -0.5975  0.2642  0.3472
  441SOL    HW1 1322   0.654   2.115   1.468  0.2181 -0.8769  0.9088
  441SOL    HW2 1323   0.763   2.190   1.383 -1.6411 -1.0928  0.8983
  442SOL     OW 1324   2.822   1.663   0.794  0.3322 -0.1433 -0.0154
  442SOL    HW1 1325   2.748   1.728   0.785  2.1639 -1.0071  0.0673
  442SOL    HW2 1326   2.818   1.620   0.885 -0.2285  1.0602 -0.3491
  443SOL     OW 1327   2.703   2.097   2.534  0.0728 -0.5914  0.0852
  443SOL    HW1 1328   2.806   2.098   2.500 -2.1156  1.3668  2.4799
  443SOL    HW2 1329   2.694   2.053   2.628 -1.0515 -0.6660 -0.2190
  444SOL     OW 1330   1.663   1.253   2.873 -0.0557  0.2698 -0.3624
  444SOL    HW1 1331   1.668   1.354   2.864  0.4393  0.0886 -1.1421
  444SOL    HW2 1332   1.655   1.228   2.974 -1.8943  1.6834  0.8608
  445SOL     OW 1333   2.607   0.067   1.904 -0.7231  0.4469  0.0256
  445SOL    HW1 1334   2.632   0.096   1.810  0.5238 -1.5307  1.9049
  445SOL    HW2 1335   2.656   0.125   1.976 -1.6026  0.7076 -1.4633
  446SOL     OW 1336   0.400   1.081   1.169 -0.4785  0.0474 -0.0344
  446SOL    HW1 1337   0.497   1.068   1.159 -1.5518 -0.5009  2.4033
  446SOL    HW2 1338   0.361   1.118   1.083  1.7060 -1.2661 -0.0933
  447SOL     OW 1339   1.194   1.675   0.844 -0.3122 -0.0556 -0.3653
  447SOL    HW1 1340   1.114   1.727   0.804 -0.5151 -1.3347  1.3031
  447SOL    HW2 1341   1.272   1.689   0.781 -3.7058  0.8782  0.2514
  448SOL     OW 1342   1.284   1.059   1.589 -0.3647 -0.1018  0.8950
  448SOL    HW1 1343   1.242   1.144   1.626 -0.1460  1.7312  0.0330
  448SOL    HW2 1344   1.238   0.978   1.633  1.7557 -1.5235  0.6301
  449SOL     OW 1345   2.809   2.216   2.106  0.1757  0.1897 -0.3552
  449SOL    HW1 1346   2.768   2.308   2.094  1.2049 -0.2769  0.6048
  449SOL    HW2 1347   2.891   2.219   2.161 -4.8406 -2.8127  1.1063
  450SOL     OW 1348   0.025   1.789   1.737  0.0599 -0.0615 -0.8893
  450SOL    HW1 1349   3.003   1.830   1.728  0.3049 -0.0210 -0.3685
  450SOL    HW2 1350   0.086   1.850   1.794  0.4062 -0.5855  0.9467
  451SOL     OW 1351   1.992   0.897   1.008  0.1411  0.8042 -0.2699
  451SOL    HW1 1352   1.921   0.831   1.046 -0.4549  1.4754  3.6619
  451SOL    HW2 1353   1.990   0.894   0.908 -1.6782  0.1296  2.8038
  452SOL     OW 1354   0.654   1.293   0.966 -0.2513  0.0814 -0.2947
  452SOL    HW1 1355   0.753   1.330   0.989  1.6591  0.0276 -0.2891
  452SOL    HW2 1356   0.592   1.290   1.047  0.4428 -0.6015 -2.2777
  453SOL     OW 1357   1.060   2.120   0.814  0.1293  0.5817  0.2768
  453SOL    HW1 1358   1.093   2.210   0.782  1.2198  0.6899  1.2912
  453SOL    HW2 1359   1.097   2.045   0.756  1.3821 -0.1158 -1.0551
  454SOL     OW 1360   0.631   1.460   2.857  0.5938  0.1140 -0.2903
  454SOL    HW1 1361   0.666   1.385   2.915 -2.8366 -0.1116  1.0321
  454SOL    HW2 1362   0.556   1.513   2.909 -0.2213 -0.3315  0.2728
  455SOL     OW 1363   1.439   0.745   0.728  0.7137 -0.3420 -0.4622
  455SOL    HW1 1364   1.378   0.668   0.766  0.0011 -2.7106 -0.3946
  455SOL    HW2 1365   1.431   0.742   0.625 -0.6690 -1.5674 -1.0485
  456SOL     OW 1366   2.012   2.314   0.817 -0.1856 -0.6539  0.0199
  456SOL    HW1 1367   1.930   2.258   0.792 -1.9915 -1.3469 -0.7242
  456SOL    HW2 1368   2.085   2.248   0.849  1.0357 -1.0124  0.6097
  457SOL     OW 1369   1.650   2.825   2.871  0.3344  0.6562  0.4755
  457SOL    HW1 1370   1.587   2.789   2.935  0.4372  3.3166  0.0537
  457SOL    HW2 1371   1.592   2.874   2.800 -0.7567 -1.2673 -2.6531
  458SOL     OW 1372   2.259   0.470   0.291  0.2545 -0.6853 -0.0354
  458SOL    HW1 1373   2.211   0.389   0.251 -2.0274  2.5363 -2.1788
  458SOL    HW2 1374   2.194   0.525   0.352 -3.1084 -0.9625  2.8969
  459SOL     OW 1375   0.069   0.850   2.164 -0.1057  0.2392 -0.0552
  459SOL    HW1 1376   3.064   0.796   2.209 -0.9361 -1.8414  0.5168
  459SOL    HW2 1377   0.030   0.903   2.086  1.5776 -0.2391  1.1467
  460SOL     OW 1378   0.217   1.368   0.097 -0.1875  0.5813  0.0975
  460SOL    HW1 1379   0.186   1.402   0.003 -0.8388  2.4009  0.9632
  460SOL    HW2 1380   0.172   1.282   0.130  1.1335  0.5514  1.4506
  461SOL     OW 1381   2.755   2.728   0.578  0.7126 -0.0095 -0.1888
  461SOL    HW1 1382   2.837   2.791   0.573  0.4079 -1.0252 -0.5233
  461SOL    HW2 1383   2.688   2.777   0.643 -3.2247  0.8801  0.2214
  462SOL     OW 1384   0.084   0.164   1.531 -0.3969  0.0887 -0.2718
  462SOL    HW1 1385   0.061   0.257   1.564  2.7061  3.0470 -2.2354
  462SOL    HW2 1386   0.171   0.171   1.475  0.4197 -0.1208 -0.2604
  463SOL     OW 1387   1.965   2.229   2.209  0.0916  0.3789 -0.0153
  463SOL    HW1 1388   1.992   2.277   2.297 -0.9196 -0.7167 -1.3082
  463SOL    HW2 1389   1.890   2.288   2.162 -1.4784  2.3668  0.8045
  464SOL     OW 1390   0.750   3.049   1.395  0.2559 -0.0603 -0.2997
  464SOL    HW1 1391   0.707   0.067   1.360 -0.1265  1.8548 -0.3826
  464SOL    HW2 1392   0.797   3.058   1.480  0.8387 -0.0115  1.9704
  465SOL     OW 1393   0.544   2.994   1.892 -0.6962  0.0658 -0.1130
  465SOL    HW1 1394   0.593   2.936   1.822 -2.2914  1.7529 -0.6735
  465SOL    HW2 1395   0.606   3.065   1.933  1.0753  0.6914  1.5496
  466SOL     OW 1396   1.267   2.332   2.162  0.0068  0.1955 -0.6660
  466SOL    HW1 1397   1.169   2.317   2.143  2.1031 -1.0577 -0.4486
  466SOL    HW2 1398   1.300   2.423   2.138 -0.4306  1.9812 -0.0181
  467SOL     OW 1399   0.248   1.942   1.209 -0.1024  0.3969  0.0121
  467SOL    HW1 1400   0.193   1.943   1.124  0.8336 -0.8453 -0.0870
  467SOL    HW2 1401   0.347   1.967   1.196 -1.3589 -1.8780  0.8398
  468SOL     OW 1402   2.589   1.541   2.536  0.4569 -0.1568  0.2953
  468SOL    HW1 1403   2.651   1.606   2.494 -0.6569  0.8464 -0.9498
  468SOL    HW2 1404   2.514   1.488   2.484 -1.7938 -0.6472  0.1530
  469SOL     OW 1405   1.216   1.864   0.432  0.5507  0.0966  0.3451
  469SOL    HW1 1406   1.286   1.930   0.462 -0.5552 -0.6635 -2.4960
  469SOL    HW2 1407   1.127   1.908   0.402 -0.4655  1.3276 -1.1355
  470SOL     OW 1408   2.607   1.256   1.338  0.0654 -0.3218  0.1123
  470SOL    HW1 1409   2.564   1.331   1.286  2.6686 -0.6473  1.5749
  470SOL    HW2 1410   2.552   1.239   1.422 -1.2622  1.7378  0.3094
  471SOL     OW 1411   0.401   2.392   0.017 -0.1882 -0.5861  0.1284
  471SOL    HW1 1412   0.410   2.296   3.059  0.3901 -1.1980 -2.8479
  471SOL    HW2 1413   0.485   2.445   3.061 -0.6435  2.3257 -1.0630
  472SOL     OW 1414   3.047   1.861   2.105 -0.2958 -0.1139 -0.0435
  472SOL    HW1 1415   0.057   1.864   2.044 -0.4618  0.0764  2.3374
  472SOL    HW2 1416   2.962   1.888   2.055 -0.5213 -0.1512 -1.7386
  473SOL     OW 1417   0.756   2.725   0.456  0.0950  0.4136 -0.1381
  473SOL    HW1 1418   0.783   2.631   0.471 -0.6829  3.0389  0.1145
  473SOL    HW2 1419   0.836   2.783   0.427  0.7456 -0.6789  1.6026
  474SOL     OW 1420   2.810   0.032   0.989 -0.1606 -0.0974  0.6922
  474SOL    HW1 1421   2.767   0.119   0.966 -1.9255 -1.5435 -2.4490
  474SOL    HW2 1422   2.835   0.028   1.084  1.1715  1.6886 -3.0405
  475SOL     OW 1423   1.818   2.944   1.941  0.2505 -0.8454 -0.5387
  475SOL    HW1 1424   1.715   2.929   1.934  1.4405 -0.6417 -0.3099
  475SOL    HW2 1425   1.837   3.042   1.916 -0.9589 -0.0702 -0.7578
  476SOL     OW 1426   0.641   0.608   0.775  0.0206  0.4430 -0.0835
  476SOL    HW1 1427   0.625   0.627   0.676  0.2933 -0.7718  1.2699
  476SOL    HW2 1428   0.661   0.511   0.786 -1.5491  1.3183 -0.9427
  477SOL     OW 1429   0.713   2.151   1.135  0.4297 -0.3935 -0.0083
  477SOL    HW1 1430   0.682   2.199   1.046 -2.3068 -0.1832 -4.4194
  477SOL    HW2 1431   0.804   2.113   1.116 -0.5459  0.7342  1.1573
  478SOL     OW 1432   0.217   2.284   2.423 -0.6470 -0.1418  0.3118
  478SOL    HW1 1433   0.191   2.184   2.426  1.0525 -0.0064  2.7251
  478SOL    HW2 1434   0.213   2.319   2.519  2.2203  1.1658  2.1283
  479SOL     OW 1435   0.116   0.726   1.769 -0.3408 -0.1731 -0.4915
  479SOL    HW1 1436   0.202   0.785   1.774 -0.6549  2.7795 -1.2151
  479SOL    HW2 1437   0.086   0.717   1.674 -0.9351  0.2025  3.8784
  480SOL     OW 1438   2.758   2.484   0.062 -0.6368 -0.0166 -0.0524
  480SOL    HW1 1439   2.738   2.505   0.160  0.5344  0.8364  1.8385
  480SOL    HW2 1440   2.860   2.478   0.051  2.1437  1.4195 -0.4480
  481SOL     OW 1441   1.576   1.965   2.184  0.4665  0.3081  0.0801
  481SOL    HW1 1442   1.629   1.909   2.111  1.1690  1.6751 -0.9514
  481SOL    HW2 1443   1.489   1.922   2.211  0.8442 -1.5849  0.7215
  482SOL     OW 1444   1.626   2.153   2.727 -0.0884 -0.1402 -0.2261
  482SOL    HW1 1445   1.553   2.120   2.671  0.4985  1.6949  0.3514
  482SOL    HW2 1446   1.712   2.162   2.676 -3.1850 -3.2170  1.3192
  483SOL     OW 1447   0.823   2.016   2.634 -0.2060 -0.3226  0.3593
  483SOL    HW1 1448   0.735   1.970   2.662  2.0759 -1.4398 -1.3595
  483SOL    HW2 1449   0.857   2.077   2.710 -2.6269 -1.7285  0.4046
  484SOL     OW 1450   3.001   0.384   0.997 -0.0162 -0.1650  0.0275
  484SOL    HW1 1451   2.916   0.349   0.952 -0.1953  0.2472  1.6080
  484SOL    HW2 1452   2.974   0.407   1.093 -1.7960  0.1074  2.4013
  485SOL     OW 1453   2.127   0.633   0.478 -0.1390 -0.0792  0.2505
  485SOL    HW1 1454   2.101   0.583   0.560  0.2575  1.4967 -0.0730
  485SOL    HW2 1455   2.052   0.678   0.424 -0.9846  1.0849  0.9998
  486SOL     OW 1456   1.901   2.885   2.532 -0.5346  0.6302 -0.0662
  486SOL    HW1 1457   1.972   2.875   2.458  1.7330  2.0351 -3.0868
  486SOL    HW2 1458   1.937   2.843   2.620  3.4446 -3.4098  0.4520
  487SOL     OW 1459   1.528   1.486   0.865 -0.0978  0.2462 -0.1454
  487SOL    HW1 1460   1.626   1.455   0.857  0.3967 -1.4197  2.1537
  487SOL    HW2 1461   1.523   1.581   0.901 -1.2931 -3.1849 -0.0336
  488SOL     OW 1462   2.409   1.331   0.171  0.3143  0.0127  0.0136
  488SOL    HW1 1463   2.358   1.246   0.178  0.4531 -0.6702  2.1179
  488SOL    HW2 1464   2.474   1.325   0.096  0.4153 -0.1190  2.4837
  489SOL     OW 1465   2.316   0.192   0.661  0.2998 -0.4650  1.2507
  489SOL    HW1 1466   2.269   0.188   0.574  0.2527  0.2730 -1.3614
  489SOL    HW2 1467   2.270   0.121   0.720 -3.6970  1.1613  0.9269
  490SOL     OW 1468   1.463   2.749   0.011 -0.5030  0.2501 -0.1498
  490SOL    HW1 1469   1.419   2.721   0.099 -1.2823  0.8181 -1.2061
  490SOL    HW2 1470   1.389   2.788   3.021 -3.2847  1.0367  1.7027
  491SOL     OW 1471   0.745   0.943   0.605  0.7617  0.0520  0.0551
  491SOL    HW1 1472   0.713   1.005   0.679 -0.5761 -0.1266 -1.5755
  491SOL    HW2 1473   0.802   0.990   0.536  0.4933 -0.1724  0.0514
  492SOL     OW 1474   1.522   0.325   0.181  1.0389  0.2171 -0.0844
  492SOL    HW1 1475   1.513   0.230   0.209  0.8488  3.2393 -2.6403
  492SOL    HW2 1476   1.463   0.336   0.097  0.0831 -0.0351  0.0426
  493SOL     OW 1477   1.927   2.281   2.942  0.0706  0.1294  0.1375
  493SOL    HW1 1478   1.851   2.210   2.955  0.1092 -0.7324  1.3492
  493SOL    HW2 1479   1.904   2.337   2.861 -2.7408 -1.5348  0.9498
  494SOL     OW 1480   0.525   1.211   0.547  0.8729  0.4786 -0.0703
  494SOL    HW1 1481   0.522   1.111   0.565 -0.5289 -1.7126 -0.2477
  494SOL    HW2 1482   0.427   1.243   0.541  0.5172 -1.7567  3.1289
  495SOL     OW 1483   2.828   2.820   1.258  0.1712  0.2940  0.1121
  495SOL    HW1 1484   2.787   2.878   1.191  2.6557 -0.0136  3.4881
  495SOL    HW2 1485   2.796   2.725   1.262  2.4415  4.9116  0.3822
  496SOL     OW 1486   2.282   0.309   1.785  0.3286 -0.2607 -0.3245
  496SOL    HW1 1487   2.337   0.305   1.702 -2.5602 -1.9888  1.8154
  496SOL    HW2 1488   2.206   0.379   1.783 -3.4448  1.5693 -2.4638
  497SOL     OW 1489   1.893   1.802   2.697  0.4178 -0.1742  0.2561
  497SOL    HW1 1490   1.809   1.781   2.641 -1.8889 -0.3690 -0.3512
  497SOL    HW2 1491   1.952   1.870   2.646 -1.4894 -1.0900 -0.0592
  498SOL     OW 1492   0.793   1.917   0.595  0.0267 -0.2483 -0.1041
  498SOL    HW1 1493   0.698   1.879   0.616  0.2236 -1.2987 -1.6272
  498SOL    HW2 1494   0.859   1.893   0.672 -2.6621 -1.8373  0.0634
  499SOL     OW 1495   0.541   1.715   1.102 -0.2756  0.3223  0.4826
  499SOL    HW1 1496   0.549   1.812   1.117  1.4099 -1.4293  2.2184
  499SOL    HW2 1497   0.444   1.693   1.078 -2.0599 -1.2842  0.7197
  500SOL     OW 1498   1.290   2.223   0.383 -0.6825  0.0541  0.5606
  500SOL    HW1 1499   1.304   2.171   0.295 -0.7521  0.5783 -0.4523
  500SOL    HW2 1500   1.345   2.191   0.462  0.2328  0.3551 -0.7124
  501SOL     OW 1501   2.294   2.561   0.965  0.2068 -0.3342  0.1700
  501SOL    HW1 1502   2.253   2.649   0.989 -1.1797 -0.0022 -1.1246
  501SOL    HW2 1503   2.303   2.564   0.861  1.6489  0.1970 -0.3337
  502SOL     OW 1504   0.336   0.822   1.394  0.1983 -0.6134 -0.3403
  502SOL    HW1 1505   0.332   0.794   1.294  1.8593  1.4581  1.7442
  502SOL    HW2 1506   0.323   0.921   1.403 -1.3582 -0.8870  1.0243
  503SOL     OW 1507   2.047   0.678   1.655  0.6236 -0.0750 -0.0256
  503SOL    HW1 1508   1.964   0.740   1.663  0.8554 -0.6741  0.1427
  503SOL    HW2 1509   2.120   0.730   1.610 -0.7045 -2.8726  1.7963
  504SOL     OW 1510   1.573   0.637   1.917  0.0421  0.1725 -0.1734
  504SOL    HW1 1511   1.519   0.615   2.000 -1.1115 -0.7398 -1.5936
  504SOL    HW2 1512   1.513   0.641   1.831  0.6536 -1.5272  1.1119
  505SOL     OW 1513   1.099   0.208   2.732  0.4355 -0.1397 -0.1296
  505SOL    HW1 1514   1.136   0.117   2.709  1.3441  3.0648 -0.6455
  505SOL    HW2 1515   1.096   0.230   2.837 -2.4664  3.3899  0.1668
  506SOL     OW 1516   0.500   0.547   1.568  0.0185 -0.1120  0.1118
  506SOL    HW1 1517   0.463   0.645   1.579  0.7174  0.4320  0.2651
  506SOL    HW2 1518   0.448   0.482   1.625  1.4374  1.4729 -1.0364
  507SOL     OW 1519   1.315   3.051   0.017 -0.1821  0.1042  0.8632
  507SOL    HW1 1520   1.330   3.011   2.992  2.6118  0.1216 -1.9617
  507SOL    HW2 1521   1.337   0.081   0.020  1.2156  3.3723 -1.6295
  508SOL     OW 1522   2.585   0.662   2.643 -0.0745  0.3214 -0.0325
  508SOL    HW1 1523   2.559   0.592   2.714  1.2365 -1.2784  1.5515
  508SOL    HW2 1524   2.530   0.643   2.559 -1.4550 -2.2798 -0.2824
  509SOL     OW 1525   0.884   1.283   2.044 -0.4183 -0.4427  0.0452
  509SOL    HW1 1526   0.850   1.198   2.089  0.1666 -1.9784  0.7965
  509SOL    HW2 1527   0.807   1.337   2.004 -1.1831  0.7994 -1.6031
  510SOL     OW 1528   0.052   1.170   0.801  0.3415 -0.1095 -0.5753
  510SOL    HW1 1529   0.050   1.270   0.829  0.9086  1.3596  0.2118
  510SOL    HW2 1530   3.040   1.141   0.749  0.1234 -2.2205 -1.3005
  511SOL     OW 1531   1.818   1.695   1.108  0.3542 -0.4263  0.6330
  511SOL    HW1 1532   1.770   1.667   1.195  3.1464  1.6528 -2.3050
  511SOL    HW2 1533   1.874   1.620   1.066  2.2560 -3.9443 -1.9994
  512SOL     OW 1534   0.948   1.069   0.052 -0.1707  0.0180  0.2952
  512SOL    HW1 1535   0.980   1.089   0.147  0.2031  1.1475 -0.5809
  512SOL    HW2 1536   1.016   1.113   3.060 -1.1807  1.7142 -0.3578
  513SOL     OW 1537   0.243   2.377   0.506 -0.0180  0.1048 -0.6134
  513SOL    HW1 1538   0.166   2.428   0.550  1.6495 -1.0331  1.0435
  513SOL    HW2 1539   0.329   2.427   0.534 -1.0890  1.8263 -0.3020
  514SOL     OW 1540   2.970   2.113   2.462 -0.1791 -0.3021 -0.0289
  514SOL    HW1 1541   3.055   2.078   2.503 -0.5135  1.0556 -0.1168
  514SOL    HW2 1542   2.989   2.132   2.366  2.8167 -0.4220  1.6430
  515SOL     OW 1543   2.334   0.702   0.183  0.7672  0.4814  0.2746
  515SOL    HW1 1544   2.409   0.726   0.252 -1.0703 -2.5922 -0.3892
  515SOL    HW2 1545   2.289   0.616   0.219 -0.9472 -3.3701  1.6465
  516SOL     OW 1546   2.556   2.861   0.719 -0.3466 -0.2719  0.3282
  516SOL    HW1 1547   2.532   2.851   0.817 -0.0902 -0.0602 -1.1062
  516SOL    HW2 1548   2.556   2.958   0.682 -0.0528  2.6724  0.1325
  517SOL     OW 1549   1.501   1.728   2.820  0.6601 -0.3658 -0.2865
  517SOL    HW1 1550   1.543   1.727   2.913 -2.9396 -0.9343  2.0760
  517SOL    HW2 1551   1.432   1.803   2.811  0.7612  0.1165  0.2768
  518SOL     OW 1552   1.157   0.811   1.695 -0.0489  0.3083 -0.5654
  518SOL    HW1 1553   1.082   0.788   1.633 -0.1526 -1.8341 -0.1509
  518SOL    HW2 1554   1.146   0.751   1.778  1.6481  0.7660  3.2977
  519SOL     OW 1555   2.925   1.637   0.542  0.3785 -0.0478 -0.5830
  519SOL    HW1 1556   2.883   1.644   0.633  0.6563 -1.9184 -2.5982
  519SOL    HW2 1557   3.016   1.595   0.543 -0.6299  0.9320  1.2676
  520SOL     OW 1558   2.344   2.066   1.794 -0.1164  0.9228  0.3832
  520SOL    HW1 1559   2.327   2.156   1.842 -1.8699  1.7155 -0.1026
  520SOL    HW2 1560   2.360   1.990   1.861 -0.3187  0.9897  0.3560
  521SOL     OW 1561   0.982   2.927   2.557  0.4164 -0.7592  0.1036
  521SOL    HW1 1562   0.910   2.996   2.579 -0.7289  0.7065  0.1505
  521SOL    HW2 1563   0.973   2.878   2.467 -0.7062 -2.7912 -0.8281
  522SOL     OW 1564   2.323   0.437   2.153 -0.1701 -0.8803  0.4462
  522SOL    HW1 1565   2.384   0.436   2.074 -0.7961  2.2955  0.5041
  522SOL    HW2 1566   2.367   0.396   2.234  1.4041 -0.9913  0.9424
  523SOL     OW 1567   1.649   2.415   1.665  0.3548  0.0670  0.0551
  523SOL    HW1 1568   1.678   2.368   1.583  0.7545 -0.3654 -0.5355
  523SOL    HW2 1569   1.714   2.380   1.736 -1.5587 -0.8375  1.0805
  524SOL     OW 1570   1.783   2.055   2.943 -0.1745 -0.0865 -0.0827
  524SOL    HW1 1571   1.715   2.090   2.877  2.4014  0.1231 -0.3882
  524SOL    HW2 1572   1.806   1.958   2.927  1.6160  0.2273  2.2814
  525SOL     OW 1573   0.309   0.728   3.006 -0.9865 -0.3151  0.0376
  525SOL    HW1 1574   0.367   0.731   0.019 -0.2560 -0.7781  1.9581
  525SOL    HW2 1575   0.248   0.645   3.006 -2.8280  0.6591  0.0868
  526SOL     OW 1576   1.114   2.713   0.592 -0.1392 -0.1304  0.0942
  526SOL    HW1 1577   1.195   2.651   0.597  0.7664  1.7361 -1.3964
  526SOL    HW2 1578   1.087   2.751   0.680  1.0310  1.9971  0.8281
  527SOL     OW 1579   2.591   1.814   0.750  0.0282  0.6715 -0.1725
  527SOL    HW1 1580   2.590   1.914   0.771  1.7488  0.5271  0.5575
  527SOL    HW2 1581   2.522   1.791   0.682 -1.7996  0.8712  0.2071
  528SOL     OW 1582   0.765   1.010   2.175 -0.1333 -0.0058  0.1984
  528SOL    HW1 1583   0.756   0.976   2.268  4.1519 -0.4395 -0.0389
  528SOL    HW2 1584   0.684   1.063   2.143  0.0437 -0.8911  0.4464
  529SOL     OW 1585   1.641   1.580   2.654  0.0826 -0.5364  0.2321
  529SOL    HW1 1586   1.583   1.613   2.729  2.8800 -0.9089 -2.6539
  529SOL    HW2 1587   1.585   1.546   2.571 -3.0845  0.4585 -3.7357
  530SOL     OW 1588   1.653   1.145   2.295  0.4233  0.2866 -0.5872
  530SOL    HW1 1589   1.636   1.156   2.194 -0.0247  0.1403  1.3277
  530SOL    HW2 1590   1.633   1.050   2.322 -0.7468  0.5202  0.8282
  531SOL     OW 1591   0.564   2.274   2.753 -0.4307 -0.2769  0.0599
  531SOL    HW1 1592   0.520   2.275   2.844  1.3470 -0.6907 -1.4279
  531SOL    HW2 1593   0.658   2.314   2.754 -0.0112  0.0546 -2.6069
  532SOL     OW 1594   2.569   0.898   0.594 -0.5667 -0.1751  0.2245
  532SOL    HW1 1595   2.612   0.989   0.609 -1.2061 -0.2935 -1.3940
  532SOL    HW2 1596   2.592   0.830   0.664 -0.5913  1.5747 -2.7366
  533SOL     OW 1597   0.062   0.422   1.624 -0.3582  0.1043  0.3760
  533SOL    HW1 1598   0.154   0.397   1.667  1.9111 -1.9708 -0.0306
  533SOL    HW2 1599   0.073   0.516   1.591 -1.2359  2.0663 -0.6148
  534SOL     OW 1600   0.691   0.146   0.002 -0.2809 -0.6449 -0.0663
  534SOL    HW1 1601   0.586   0.161   3.064 -1.1731  0.1710  2.7915
  534SOL    HW2 1602   0.742   0.230   0.022  3.4693  2.8957  1.0139
  535SOL     OW 1603   0.364   2.923   3.057  0.0890  0.1867 -0.2547
  535SOL    HW1 1604   0.279   2.868   3.029 -0.0719  0.2783  1.3596
  535SOL    HW2 1605   0.365   2.938   0.089 -3.5917  0.2304  0.1780
  536SOL     OW 1606   0.668   1.578   1.296 -0.5577  0.5827  0.4612
  536SOL    HW1 1607   0.661   1.639   1.213  0.2616 -0.1588 -3.4134
  536SOL    HW2 1608   0.735   1.615   1.360 -2.5031  1.8258 -3.3902
  537SOL     OW 1609   0.896   2.659   1.779 -0.1711  0.3555 -0.1588
  537SOL    HW1 1610   0.976   2.727   1.795 -0.1295 -0.0847  1.0786
  537SOL    HW2 1611   0.838   2.650   1.862  0.7274 -0.2149 -2.3596
  538SOL     OW 1612   0.085   1.777   2.757  0.6437  0.3006  0.4692
  538SOL    HW1 1613   0.058   1.821   2.846 -1.3001  2.0620  1.4057
  538SOL    HW2 1614   0.190   1.762   2.759  0.6832 -0.5235 -0.0746
  539SOL     OW 1615   2.578   0.899   2.821 -0.2952  0.1341 -0.1647
  539SOL    HW1 1616   2.623   0.833   2.756  0.8356  0.0597  1.9840
  539SOL    HW2 1617   2.642   0.959   2.874  0.8948  2.3490  2.8490
  540SOL     OW 1618   1.748   0.447   2.580  0.0099  0.5405  0.6978
  540SOL    HW1 1619   1.667   0.438   2.641 -0.3805  0.4497 -2.1966
  540SOL    HW2 1620   1.805   0.526   2.607 -0.9705 -0.1840  1.5189
  541SOL     OW 1621   0.678   0.126   2.050 -0.3782  0.6799 -0.2462
  541SOL    HW1 1622   0.650   0.123   2.152 -2.5651 -1.4442  1.2434
  541SOL    HW2 1623   0.643   0.209   2.002  2.2608 -0.6578  0.4319
  542SOL     OW 1624   1.818   2.621   2.887 -0.4044 -0.1632  0.6076
  542SOL    HW1 1625   1.749   2.563   2.934  0.3094 -1.9197 -0.5786
  542SOL    HW2 1626   1.791   2.718   2.881  0.0084 -0.1335  1.0616
  543SOL     OW 1627   0.882   0.047   0.630 -0.1957  0.1280 -0.2167
  543SOL    HW1 1628   0.870   0.137   0.671  0.9065 -3.2444  0.5504
  543SOL    HW2 1629   0.982   0.026   0.623  1.2776 -2.6958  0.6141
  544SOL     OW 1630   2.614   1.505   1.835 -0.2260  0.2209  0.3080
  544SOL    HW1 1631   2.681   1.486   1.914 -0.2070  0.7061  0.5838
  544SOL    HW2 1632   2.581   1.602   1.829  2.3180 -2.1943  0.8292
  545SOL     OW 1633   2.133   1.625   1.315 -0.4037 -0.0076 -0.5717
  545SOL    HW1 1634   2.206   1.683   1.270  1.8327  1.8737  0.4797
  545SOL    HW2 1635   2.105   1.550   1.262  0.3409  2.8781  5.2862
  546SOL     OW 1636   0.000   0.235   2.188 -0.2957 -0.6852 -0.1310
  546SOL    HW1 1637   3.067   0.237   2.085 -2.0855  0.1933  0.2667
  546SOL    HW2 1638   0.077   0.176   2.221  0.9522  3.0962 -2.0897
  547SOL     OW 1639   1.352   0.602   1.055  0.4425  0.1753  0.0847
  547SOL    HW1 1640   1.281   0.618   1.127  0.9293 -1.5941 -1.0386
  547SOL    HW2 1641   1.384   0.694   1.026 -1.8703 -1.0205  0.1758
  548SOL     OW 1642   1.459   2.362   2.820  0.3368 -0.2606  0.0785
  548SOL    HW1 1643   1.374   2.304   2.830 -2.1753  1.6145 -0.7086
  548SOL    HW2 1644   1.525   2.305   2.774 -2.8966  1.0622  0.1682
  549SOL     OW 1645   2.196   0.227   0.167  0.3386 -0.1950  0.3545
  549SOL    HW1 1646   2.147   0.224   0.075 -0.0978  0.6916 -2.6075
  549SOL    HW2 1647   2.244   0.141   0.189  0.5010  2.8503  0.5101
  550SOL     OW 1648   2.721   2.092   0.772  0.6954 -0.1319  0.1701
  550SOL    HW1 1649   2.709   2.188   0.740 -2.5512  1.8264 -2.7328
  550SOL    HW2 1650   2.781   2.033   0.716 -0.9522 -0.2271  1.8898
  551SOL     OW 1651   1.218   2.949   2.348  0.2439  0.3551  0.1443
  551SOL    HW1 1652   1.275   2.949   2.264  1.1697 -1.8139 -1.0877
  551SOL    HW2 1653   1.169   3.039   2.365 -1.1528  3.5686  0.2425
  552SOL     OW 1654   2.861   2.455   2.751 -0.1524 -0.0694 -0.4337
  552SOL    HW1 1655   2.896   2.424   2.664 -1.1625  0.8008  1.6308
  552SOL    HW2 1656   2.843   2.374   2.809 -1.9282 -2.7753  0.6166
  553SOL     OW 1657   0.196   0.034   0.916 -0.1682  0.6194 -0.8817
  553SOL    HW1 1658   0.210   0.124   0.958 -1.9020  1.1585 -4.9387
  553SOL    HW2 1659   0.127   3.051   0.968 -1.1983 -1.4585  2.1195
  554SOL     OW 1660   2.077   2.236   1.481  0.2959 -0.4655 -0.1017
  554SOL    HW1 1661   2.114   2.159   1.537 -1.7468  3.7191 -0.6829
  554SOL    HW2 1662   2.093   2.329   1.530 -3.0523  4.0947  0.6990
  555SOL     OW 1663   1.391   2.092   2.007 -0.2967 -0.3207 -0.2477
  555SOL    HW1 1664   1.462   2.070   2.077 -0.4595  0.7284  4.0557
  555SOL    HW2 1665   1.328   2.158   2.051 -0.7023 -2.4867  3.0265
  556SOL     OW 1666   1.385   1.390   1.153 -0.0490  0.0628 -0.0622
  556SOL    HW1 1667   1.481   1.355   1.154  2.7801 -1.6465  0.9567
  556SOL    HW2 1668   1.390   1.494   1.168 -0.5405  4.2889  2.2278
  557SOL     OW 1669   1.908   2.816   1.716 -0.3411  0.2228  0.3590
  557SOL    HW1 1670   2.002   2.790   1.739  0.1053  0.2581  0.6356
  557SOL    HW2 1671   1.870   2.875   1.793 -0.7812 -0.2224  1.1513
  558SOL     OW 1672   0.126   0.020   1.795  0.0314  0.0236  0.5810
  558SOL    HW1 1673   0.100   0.101   1.851  2.7399  0.7638 -3.1007
  558SOL    HW2 1674   0.133   0.034   1.692  1.4544  1.1597 -3.6869
  559SOL     OW 1675   1.992   2.926   0.610 -0.0839  0.2318  0.2715
  559SOL    HW1 1676   2.032   3.015   0.643  3.0745  1.6660  0.6210
  559SOL    HW2 1677   1.999   2.897   0.509 -0.1341 -3.8960 -2.0316
  560SOL     OW 1678   1.654   2.618   0.646  0.3913 -0.2238 -0.6597
  560SOL    HW1 1679   1.674   2.715   0.674  0.7541  0.6480 -2.8792
  560SOL    HW2 1680   1.607   2.566   0.722  1.1691  0.7621  0.1503
  561SOL     OW 1681   0.662   0.158   0.982  0.1112 -0.4565 -0.4869
  561SOL    HW1 1682   0.717   0.204   0.908 -1.8820  1.5143 -0.5263
  561SOL    HW2 1683   0.668   0.058   0.988  0.8759  1.0024  0.7723
  562SOL     OW 1684   0.498   1.291   2.325  0.1651 -0.0443  0.1173
  562SOL    HW1 1685   0.438   1.307   2.247  1.6088 -0.0939  1.6008
  562SOL    HW2 1686   0.518   1.190   2.338 -1.8063 -3.1531  1.1666
  563SOL     OW 1687   1.635   2.169   2.369  0.7489 -0.0323  0.3016
  563SOL    HW1 1688   1.639   2.093   2.303  3.5143 -1.5077  0.0571
  563SOL    HW2 1689   1.710   2.162   2.435 -4.2954 -0.3500  0.1287
  564SOL     OW 1690   2.887   1.012   0.666 -0.1530  0.0001  0.2001
  564SOL    HW1 1691   2.951   0.935   0.684 -0.0898  1.8490  1.4331
  564SOL    HW2 1692   2.807   1.012   0.736 -0.3592 -1.2924  1.0386
  565SOL     OW 1693   0.732   0.917   0.009  0.3572 -0.5916  0.1487
  565SOL    HW1 1694   0.711   0.905   2.983  0.5964  0.9733 -0.2696
  565SOL    HW2 1695   0.805   0.989   0.022  2.3511  0.9483  0.2680
  566SOL     OW 1696   2.303   0.365   2.605  0.6413 -0.1051 -0.4174
  566SOL    HW1 1697   2.224   0.318   2.647  1.7241  0.0046  1.1843
  566SOL    HW2 1698   2.357   0.424   2.672  1.5775  1.3594 -0.3041
  567SOL     OW 1699   1.357   0.858   0.951  0.2129 -0.6677 -0.3925
  567SOL    HW1 1700   1.394   0.843   0.856  0.1513  1.8116  0.3786
  567SOL    HW2 1701   1.291   0.939   0.962 -0.1233 -1.3094  0.8921
  568SOL     OW 1702   1.886   1.797   2.973 -0.1681  0.3713  0.1056
  568SOL    HW1 1703   1.800   1.753   3.010 -0.2457 -0.9432 -1.2194
  568SOL    HW2 1704   1.888   1.794   2.872  2.0495  0.4468  0.0438
  569SOL     OW 1705   2.043   1.257   0.053 -0.3238  0.3268  0.1353
  569SOL    HW1 1706   2.036   1.351   0.018 -0.2885 -1.8474 -2.2159
  569SOL    HW2 1707   2.138   1.229   0.034 -2.5594 -1.5755 -1.2725
  570SOL     OW 1708   0.133   2.447   1.873 -0.0629  0.2691 -0.3154
  570SOL    HW1 1709   0.202   2.517   1.908  2.5284  1.1085  0.7887
  570SOL    HW2 1710   0.038   2.485   1.868  0.0974 -0.5117  0.4913
  571SOL     OW 1711   3.023   1.531   1.694 -0.4624  0.2082  0.5086
  571SOL    HW1 1712   3.068   1.623   1.706 -2.0352  0.6873  0.6264
  571SOL    HW2 1713   3.046   1.494   1.606 -0.7732  2.9518  6.3283
  572SOL     OW 1714   1.676   1.945   0.489 -0.6168 -0.8347 -0.3666
  572SOL    HW1 1715   1.717   1.895   0.567 -1.4865 -0.1147 -2.8874
  572SOL    HW2 1716   1.732   2.025   0.460 -0.3912 -0.6237  0.4100
  573SOL     OW 1717   1.845   2.143   0.431  0.2558  0.0740  0.3257
  573SOL    HW1 1718   1.920   2.175   0.368  1.4152  0.5509 -2.6134
  573SOL    HW2 1719   1.808   2.213   0.498 -0.0514 -3.2965 -0.2937
  574SOL     OW 1720   0.614   0.181   1.292  0.2808 -0.4893 -0.1977
  574SOL    HW1 1721   0.522   0.188   1.335 -1.0058 -2.7471 -0.0572
  574SOL    HW2 1722   0.609   0.158   1.194  3.1122  0.9266  0.2431
  575SOL     OW 1723   0.736   1.053   1.768 -0.2353  0.4102 -0.0726
  575SOL    HW1 1724   0.740   1.155   1.751  0.2816 -0.2769  0.6119
  575SOL    HW2 1725   0.817   1.015   1.822 -1.0590  1.5211  0.0389
  576SOL     OW 1726   2.529   0.001   1.312 -0.1877  0.2666  0.8905
  576SOL    HW1 1727   2.610   0.065   1.317  0.2025  0.6949 -2.4400
  576SOL    HW2 1728   2.461   0.006   1.387  0.1921  1.3435 -1.1977
  577SOL     OW 1729   1.065   1.088   2.285 -0.4250 -0.3232 -0.3785
  577SOL    HW1 1730   1.080   1.083   2.183  0.5062  1.6694 -0.7497
  577SOL    HW2 1731   1.109   1.005   2.326 -0.6931 -0.4683 -1.6596
  578SOL     OW 1732   2.149   1.374   2.497  1.2519  0.1739 -0.1676
  578SOL    HW1 1733   2.085   1.316   2.440  1.0907  0.5842 -0.1388
  578SOL    HW2 1734   2.102   1.466   2.494 -0.4645 -0.9290 -0.5007
  579SOL     OW 1735   1.527   2.128   1.783  0.0266  0.1598  0.9442
  579SOL    HW1 1736   1.478   2.092   1.864  0.5915 -1.2070 -0.2342
  579SOL    HW2 1737   1.560   2.221   1.805 -1.2919 -0.8780 -2.6981
  580SOL     OW 1738   1.354   1.777   0.236  0.2072  0.0625 -0.3545
  580SOL    HW1 1739   1.404   1.690   0.255 -4.3514 -0.6423  1.2856
  580SOL    HW2 1740   1.291   1.794   0.317 -0.8763 -0.5607 -0.6376
  581SOL     OW 1741   1.334   0.940   2.013  0.0474 -0.2540 -0.2163
  581SOL    HW1 1742   1.269   1.015   2.030 -0.9225  2.0786 -1.7811
  581SOL    HW2 1743   1.374   0.886   2.092  4.3171 -0.2612 -1.0052
  582SOL     OW 1744   0.727   1.315   1.707  0.0363 -0.1214  0.4267
  582SOL    HW1 1745   0.745   1.395   1.772 -0.4530  0.3999  2.0332
  582SOL    HW2 1746   0.737   1.335   1.606 -1.7029  1.5964 -2.5947
  583SOL     OW 1747   1.105   1.126   2.004  0.2785  0.5529  0.4920
  583SOL    HW1 1748   1.061   1.046   1.960  2.0594  2.7776  0.2054
  583SOL    HW2 1749   1.036   1.191   2.033 -0.3473  0.2613  0.0440
  584SOL     OW 1750   2.481   2.584   0.714  0.1727  0.6137  0.4379
  584SOL    HW1 1751   2.387   2.572   0.678  0.7080  1.5503  1.5520
  584SOL    HW2 1752   2.508   2.683   0.710 -0.0782  1.2784 -1.1963
  585SOL     OW 1753   2.074   0.188   2.713  0.2379  0.3328 -0.2036
  585SOL    HW1 1754   1.980   0.181   2.675  0.5815 -1.5725 -0.0226
  585SOL    HW2 1755   2.073   0.210   2.813 -1.2952  2.0327 -0.8711
  586SOL     OW 1756   0.019   2.217   0.665 -0.0681  0.0241  0.4434
  586SOL    HW1 1757   3.062   2.238   0.762 -0.3948  1.3079  1.1900
  586SOL    HW2 1758   0.117   2.248   0.662  1.3594 -2.6384  1.4873
  587SOL     OW 1759   1.630   1.687   3.044  0.1132 -0.6855  0.1734
  587SOL    HW1 1760   1.613   1.744   0.053 -0.9824 -1.4313 -2.6065
  587SOL    HW2 1761   1.682   1.598   3.063  0.1025  1.0703  0.8226
  588SOL     OW 1762   0.254   0.362   1.258 -0.0452 -0.3224 -0.7490
  588SOL    HW1 1763   0.285   0.278   1.300  0.5347 -0.5148 -1.0112
  588SOL    HW2 1764   0.161   0.376   1.289 -1.7365  1.3732  1.6550
  589SOL     OW 1765   1.354   0.477   0.809 -0.1971 -0.2540  0.8698
  589SOL    HW1 1766   1.378   0.375   0.807 -0.5725  0.0917 -1.5133
  589SOL    HW2 1767   1.339   0.517   0.903  2.3758 -1.1890 -1.7194
  590SOL     OW 1768   1.138   1.184   2.974  0.6237 -0.2920  0.4506
  590SOL    HW1 1769   1.187   1.261   3.024 -0.2859  1.4458  0.0477
  590SOL    HW2 1770   1.210   1.113   2.955  1.7051 -1.0282  1.2035
  591SOL     OW 1771   2.540   2.441   2.311  0.4715 -0.0345 -0.1539
  591SOL    HW1 1772   2.579   2.479   2.397  0.2321  0.2179 -0.4077
  591SOL    HW2 1773   2.479   2.506   2.267  0.9397  0.1110  0.6281
  592SOL     OW 1774   2.047   1.901   1.384 -0.5990 -0.5287  0.0015
  592SOL    HW1 1775   2.084   1.934   1.477  0.7773  0.6688  1.2590
  592SOL    HW2 1776   2.055   1.799   1.371 -1.1184 -0.2407 -0.7678
  593SOL     OW 1777   0.958   0.348   1.497  0.0785 -0.0332  0.8635
  593SOL    HW1 1778   0.881   0.326   1.556  0.5278 -0.2006  0.1874
  593SOL    HW2 1779   0.937   0.427   1.434  1.6778  1.8155  2.7038
  594SOL     OW 1780   2.565   0.985   2.515 -0.2526 -0.1051 -0.2772
  594SOL    HW1 1781   2.592   1.018   2.610  2.3490 -0.7388  1.8540
  594SOL    HW2 1782   2.614   0.898   2.491  0.2469 -0.9388  2.7373
  595SOL     OW 1783   0.232   0.022   0.652  0.2627 -0.1318  0.3185
  595SOL    HW1 1784   0.206   0.018   0.749 -1.4523 -0.3553 -3.2335
  595SOL    HW2 1785   0.333   0.012   0.641 -2.4556  1.9946  0.0125
  596SOL     OW 1786   0.092   1.365   1.180 -0.2327 -0.2698 -0.1901
  596SOL    HW1 1787   0.169   1.361   1.111  2.1341 -1.5257  0.0158
  596SOL    HW2 1788   0.017   1.294   1.165 -1.3638  0.8804  1.4771
  597SOL     OW 1789   1.740   1.619   0.430 -0.1085  0.7017 -0.8190
  597SOL    HW1 1790   1.723   1.680   0.510 -1.5835 -0.6955  0.0390
  597SOL    HW2 1791   1.807   1.662   0.368 -3.6407 -3.1691  0.2254
  598SOL     OW 1792   3.004   2.831   1.787 -0.3091  0.3205 -0.1422
  598SOL    HW1 1793   3.063   2.792   1.711 -1.9856  0.5496  1.9990
  598SOL    HW2 1794   3.045   2.916   1.821 -0.3643  1.6292 -1.9134
  599SOL     OW 1795   2.459   1.253   2.821  0.5890 -0.2117 -0.2951
  599SOL    HW1 1796   2.374   1.230   2.772 -0.3479  0.6729  1.7395
  599SOL    HW2 1797   2.456   1.350   2.852  0.2667 -2.5778 -1.2464
  600SOL     OW 1798   0.537   1.187   0.142  0.2303  0.0557  0.2174
  600SOL    HW1 1799   0.635   1.221   0.138  3.4083  2.8816 -2.3448
  600SOL    HW2 1800   0.473   1.246   0.192  2.0829  1.2018 -2.3204
  601SOL     OW 1801   0.622   0.840   0.931  0.2271 -0.1057 -0.4466
  601SOL    HW1 1802   0.627   0.756   0.881 -1.1121  1.5702  0.0575
  601SOL    HW2 1803   0.632   0.822   1.032  2.1200 -1.5038  1.2273
  602SOL     OW 1804   1.438   2.437   0.360 -0.4243  0.2957  0.0638
  602SOL    HW1 1805   1.377   2.356   0.369  0.3581 -0.2751  0.3774
  602SOL    HW2 1806   1.512   2.408   0.290 -0.4194 -0.5739 -4.4068
  603SOL     OW 1807   0.740   2.625   1.981  0.6706 -0.5827  0.0758
  603SOL    HW1 1808   0.661   2.685   2.001  1.5856 -0.4807  1.7243
  603SOL    HW2 1809   0.710   2.529   2.004 -1.2002  0.9259 -1.5434
  604SOL     OW 1810   0.166   0.460   2.297 -0.0485 -0.8379  0.4073
  604SOL    HW1 1811   0.085   0.405   2.275 -3.4583 -0.4835 -1.2198
  604SOL    HW2 1812   0.182   0.537   2.233 -0.0334  0.0086 -1.2589
  605SOL     OW 1813   3.029   1.147   1.337  0.2218  0.1646 -0.2216
  605SOL    HW1 1814   0.060   1.161   1.353  3.0550 -0.5010 -0.6578
  605SOL    HW2 1815   2.967   1.189   1.404  1.5616  1.9105  1.6867
  606SOL     OW 1816   0.944   1.648   2.611 -0.1843  0.3373 -0.0888
  606SOL    HW1 1817   0.842   1.644   2.619  0.9613  0.7171  1.4559
  606SOL    HW2 1818   0.990   1.598   2.536  0.9192 -1.4809  0.1166
  607SOL     OW 1819   0.391   3.036   0.291  0.1789 -0.0603  0.6130
  607SOL    HW1 1820   0.425   3.015   0.383 -0.0181 -0.5543  0.0927
  607SOL    HW2 1821   0.321   0.037   0.285  0.9537 -2.5401 -1.7583
  608SOL     OW 1822   2.262   1.824   2.183  0.4055  0.5017 -0.1368
  608SOL    HW1 1823   2.216   1.913   2.178 -1.4443 -3.5728  0.7856
  608SOL    HW2 1824   2.261   1.786   2.278 -1.1237  1.3667  0.5687
  609SOL     OW 1825   2.505   0.415   1.193 -1.2423 -0.2394  0.7221
  609SOL    HW1 1826   2.492   0.392   1.093 -1.0964 -1.2383  2.4147
  609SOL    HW2 1827   2.474   0.340   1.252  2.0489  0.5667 -0.1984
  610SOL     OW 1828   0.303   2.704   0.510  0.5399  0.0839  0.7240
  610SOL    HW1 1829   0.349   2.730   0.419  0.1816  0.4720 -0.0729
  610SOL    HW2 1830   0.363   2.634   0.553 -2.5623  1.9103 -1.7831
  611SOL     OW 1831   1.665   1.209   0.083 -0.1851 -0.1349  0.5974
  611SOL    HW1 1832   1.754   1.173   0.121 -0.3371  0.3055  0.1980
  611SOL    HW2 1833   1.601   1.217   0.158  1.7140  0.8473 -1.1057
  612SOL     OW 1834   0.723   2.253   1.837  0.0256  0.1896 -0.2339
  612SOL    HW1 1835   0.696   2.291   1.926  2.0046 -0.3402 -0.1420
  612SOL    HW2 1836   0.730   2.318   1.761 -0.9224  1.2381  1.5725
  613SOL     OW 1837   0.469   2.511   0.599 -0.5416  0.7464 -0.5728
  613SOL    HW1 1838   0.499   2.494   0.698  1.2020  0.5810  2.1058
  613SOL    HW2 1839   0.530   2.472   0.531 -0.6651 -0.5036  1.8417
  614SOL     OW 1840   2.156   2.782   1.275  0.1309 -0.2290  0.0464
  614SOL    HW1 1841   2.250   2.756   1.310  1.9764  1.7887 -0.4661
  614SOL    HW2 1842   2.106   2.839   1.344  0.3281 -0.4418 -1.3009
  615SOL     OW 1843   1.707   0.984   0.423 -0.2627  0.0664 -0.1457
  615SOL    HW1 1844   1.612   1.019   0.437  2.0664 -1.0332  0.9512
  615SOL    HW2 1845   1.775   1.064   0.419 -3.8513 -1.6872  0.0391
  616SOL     OW 1846   1.907   0.685   0.329  0.0260  0.4168  0.0578
  616SOL    HW1 1847   1.947   0.750   0.260  0.7704  1.1651 -2.2253
  616SOL    HW2 1848   1.841   0.621   0.281 -1.0624 -1.4178  2.3015
  617SOL     OW 1849   0.994   0.741   2.873 -0.4783 -0.4163  0.1493
  617SOL    HW1 1850   1.037   0.825   2.915  1.5366  1.5173 -0.0428
  617SOL    HW2 1851   1.042   0.664   2.912  0.5503  3.3649 -1.4434
  618SOL     OW 1852   0.546   2.777   2.080 -0.4116 -0.6214 -0.0996
  618SOL    HW1 1853   0.526   2.863   2.032  1.2650  0.9156 -0.7180
  618SOL    HW2 1854   0.460   2.726   2.103 -0.3267 -2.4675  0.6900
  619SOL     OW 1855   0.015   1.435   1.452  0.2297  0.2436  0.3411
  619SOL    HW1 1856   0.058   1.431   1.362 -1.0343  1.9752  0.2818
  619SOL    HW2 1857   2.994   1.386   1.451 -1.4118  1.9732 -0.0209
  620SOL     OW 1858   0.164   0.952   3.031  0.1085  0.2699 -0.5493
  620SOL    HW1 1859   0.226   0.880   2.998  2.3466 -0.3706 -1.3403
  620SOL    HW2 1860   0.075   0.912   3.061  1.0709  0.7407 -2.2185
  621SOL     OW 1861   2.273   2.244   2.043 -0.1606  0.1640 -0.6090
  621SOL    HW1 1862   2.359   2.213   2.082 -3.4417  2.4917 -0.7991
  621SOL    HW2 1863   2.197   2.189   2.085 -1.2602 -2.4650  2.1783
  622SOL     OW 1864   1.039   0.377   2.162  0.0543 -0.2028 -0.0111
  622SOL    HW1 1865   0.975   0.324   2.224 -4.0238  0.9443  0.5807
  622SOL    HW2 1866   1.005   0.475   2.155 -2.2556  2.6496 -1.7745
  623SOL     OW 1867   1.141   0.855   2.416 -0.5670 -0.5605  0.5094
  623SOL    HW1 1868   1.123   0.758   2.421 -0.8309 -0.3061  1.1941
  623SOL    HW2 1869   1.185   0.896   2.502  2.3060  1.8105 -1.1608
  624SOL     OW 1870   2.508   0.835   0.342 -0.3563  0.2665  0.1622
  624SOL    HW1 1871   2.533   0.915   0.282  0.0465 -1.7497  0.7719
  624SOL    HW2 1872   2.538   0.854   0.439  0.2606 -3.6455  2.2036
  625SOL     OW 1873   1.100   1.324   0.735 -0.3028 -0.7978 -0.6907
  625SOL    HW1 1874   1.117   1.377   0.821  0.0788  0.3254  0.6520
  625SOL    HW2 1875   1.055   1.234   0.755 -2.3774 -0.6486  4.6051
  626SOL     OW 1876   1.988   0.855   2.824 -0.5894  0.0001  0.7973
  626SOL    HW1 1877   1.958   0.875   2.730  1.4892 -3.4497 -0.1192
  626SOL    HW2 1878   2.087   0.884   2.825  0.6645 -0.9824 -1.4212
  627SOL     OW 1879   0.974   2.813   2.779  0.0070  0.5608  0.1757
  627SOL    HW1 1880   0.995   2.856   2.689  2.0117 -1.8178  0.0256
  627SOL    HW2 1881   0.914   2.865   2.841 -1.7074  1.5486  0.4687
  628SOL     OW 1882   2.099   0.252   2.359  0.0940  0.0740  0.2712
  628SOL    HW1 1883   2.168   0.179   2.368 -1.4210  0.7168 -1.9760
  628SOL    HW2 1884   2.034   0.249   2.436 -1.0950 -0.8222 -1.1317
  629SOL     OW 1885   0.868   0.426   3.071  0.3082  0.2511  0.0484
  629SOL    HW1 1886   0.800   0.457   3.006  1.5987 -1.7384  0.2690
  629SOL    HW2 1887   0.943   0.495   0.014  1.6127 -2.9051  0.9303
  630SOL     OW 1888   0.966   0.366   2.565  0.1707 -0.4599 -0.1631
  630SOL    HW1 1889   1.021   0.307   2.625 -1.8222 -3.3671 -0.9075
  630SOL    HW2 1890   0.925   0.444   2.619 -3.6439  3.8457 -1.6065
  631SOL     OW 1891   2.492   1.222   0.582  0.7652 -0.4813  0.3349
  631SOL    HW1 1892   2.402   1.204   0.630  0.0413 -0.3004  0.9732
  631SOL    HW2 1893   2.538   1.311   0.604 -0.7520  0.4662  0.1477
  632SOL     OW 1894   1.807   0.754   1.293  0.2328  0.1758 -0.6731
  632SOL    HW1 1895   1.886   0.789   1.344  1.5923  0.3150 -0.9211
  632SOL    HW2 1896   1.730   0.724   1.357 -0.4374  1.8831  0.1300
  633SOL     OW 1897   1.141   1.504   0.250 -0.1962  0.2701  0.1844
  633SOL    HW1 1898   1.071   1.561   0.204 -2.0048  0.2918 -1.1948
  633SOL    HW2 1899   1.126   1.523   0.350 -2.0703  2.7004 -0.4225
  634SOL     OW 1900   2.331   0.038   1.485 -0.7081  0.5283 -0.0858
  634SOL    HW1 1901   2.231   0.047   1.473  0.8968 -0.9278 -0.0552
  634SOL    HW2 1902   2.345   3.059   1.572  0.5827 -2.6453 -1.1606
  635SOL     OW 1903   1.689   0.394   0.818 -0.2250  0.3200 -0.0060
  635SOL    HW1 1904   1.688   0.491   0.815  3.0098 -2.0336 -1.7271
  635SOL    HW2 1905   1.598   0.347   0.815  0.4768  0.6869 -1.2633
  636SOL     OW 1906   0.773   1.237   0.399 -0.2387 -0.4340  0.0645
  636SOL    HW1 1907   0.680   1.246   0.438 -0.2519 -2.7024 -1.4556
  636SOL    HW2 1908   0.843   1.277   0.458 -2.6853 -1.8344 -1.3583
  637SOL     OW 1909   2.781   2.205   2.853  0.0428  0.1086  0.9641
  637SOL    HW1 1910   2.767   2.193   2.949 -1.4470 -0.3185 -0.5290
  637SOL    HW2 1911   2.703   2.252   2.806  2.4967 -2.4608  0.9589
  638SOL     OW 1912   1.359   2.632   2.765  1.0083 -0.2994 -0.4148
  638SOL    HW1 1913   1.374   2.644   2.664  1.2214  1.8811 -1.4238
  638SOL    HW2 1914   1.408   2.550   2.800 -1.0135 -1.0371  0.2307
  639SOL     OW 1915   1.409   1.651   1.186  0.2764 -0.7624  0.0717
  639SOL    HW1 1916   1.388   1.720   1.115  0.5615 -0.6172 -0.5452
  639SOL    HW2 1917   1.500   1.664   1.227 -1.1942  1.9466 -2.6641
  640SOL     OW 1918   2.389   2.913   0.436  0.4218 -0.4786  0.1459
  640SOL    HW1 1919   2.295   2.871   0.430  3.0047 -1.4698  0.5214
  640SOL    HW2 1920   2.454   2.835   0.418  1.8319 -1.5427  2.5019
  641SOL     OW 1921   2.927   3.016   2.896  0.9597  0.2183 -0.8125
  641SOL    HW1 1922   3.009   3.060   2.936 -2.4953 -2.6517  2.8709
  641SOL    HW2 1923   2.923   2.922   2.932  2.3308  1.8473 -0.5543
  642SOL     OW 1924   2.792   0.604   1.431 -0.7042  0.3030 -0.6950
  642SOL    HW1 1925   2.821   0.667   1.354  2.0528  1.2841  0.3584
  642SOL    HW2 1926   2.745   0.658   1.506 -1.7507  0.8619  1.8895
  643SOL     OW 1927   1.101   1.641   1.989  0.1717 -0.0563 -0.5489
  643SOL    HW1 1928   1.040   1.708   1.951  1.7233 -0.1633  0.6314
  643SOL    HW2 1929   1.186   1.688   2.013 -0.2434 -0.0038 -1.3265
  644SOL     OW 1930   1.708   2.309   0.604 -0.3475  0.3564  0.3423
  644SOL    HW1 1931   1.747   2.262   0.687 -1.8753  0.5523 -2.4753
  644SOL    HW2 1932   1.758   2.388   0.569 -1.5521  0.0258  1.6872
  645SOL     OW 1933   1.852   1.904   0.947  0.1056  0.0231  0.5346
  645SOL    HW1 1934   1.903   1.843   0.883  1.4517  0.3079  1.1468
  645SOL    HW2 1935   1.817   1.859   1.030 -0.1059 -0.6033 -0.7654
  646SOL     OW 1936   1.021   2.460   0.041  0.0691 -0.0402 -0.0308
  646SOL    HW1 1937   1.046   2.535   3.044  0.1040 -0.2908  0.6864
  646SOL    HW2 1938   1.056   2.376   0.007 -0.4247  1.6045  1.7267
  647SOL     OW 1939   0.301   2.665   1.872 -0.0942 -0.8505  0.3354
  647SOL    HW1 1940   0.292   2.765   1.904 -1.0797 -0.3871  0.2121
  647SOL    HW2 1941   0.328   2.656   1.770  3.0069 -1.8148 -0.8445
  648SOL     OW 1942   1.485   0.384   1.172  0.2240 -0.5772  0.7164
  648SOL    HW1 1943   1.467   0.430   1.260 -0.4592  0.8520  2.5087
  648SOL    HW2 1944   1.468   0.456   1.096  0.9522  0.7823 -1.5146
  649SOL     OW 1945   1.650   2.111   0.105  0.3095  0.6362 -0.0742
  649SOL    HW1 1946   1.651   2.206   0.136  0.3054 -2.8118 -0.8948
  649SOL    HW2 1947   1.700   2.096   0.018 -1.1823  0.7151 -1.6243
  650SOL     OW 1948   2.019   1.669   1.844 -0.1087  0.0024 -0.2911
  650SOL    HW1 1949   1.999   1.648   1.941  0.5654 -2.7650  0.8448
  650SOL    HW2 1950   1.959   1.616   1.782  0.7025  1.2703 -3.7786
  651SOL     OW 1951   1.581   2.519   3.034 -0.0083  0.5792  0.0341
  651SOL    HW1 1952   1.528   2.604   3.056  0.1638  2.8271 -0.3675
  651SOL    HW2 1953   1.532   2.458   2.967  1.4736 -0.7046 -1.9608
  652SOL     OW 1954   0.509   2.237   0.244  0.1021 -0.3127 -0.5280
  652SOL    HW1 1955   0.412   2.202   0.258 -0.7427 -1.2021 -0.8847
  652SOL    HW2 1956   0.521   2.339   0.257 -1.0188  0.1626 -0.1957
  653SOL     OW 1957   2.317   2.282   1.343 -0.2597 -0.1798  0.1294
  653SOL    HW1 1958   2.312   2.299   1.242 -1.1711 -0.9380 -1.4498
  653SOL    HW2 1959   2.225   2.269   1.376 -1.4485  0.2348 -1.4572
  654SOL     OW 1960   2.742   2.548   1.257 -0.2763 -0.0797  0.0561
  654SOL    HW1 1961   2.674   2.493   1.307 -0.7421  0.9692 -1.5290
  654SOL    HW2 1962   2.784   2.483   1.191 -2.6422 -2.5571  1.0545
  655SOL     OW 1963   0.072   2.152   1.279  0.1196  0.3053 -0.4706
  655SOL    HW1 1964   0.083   2.165   1.381 -0.1780  1.0778 -0.5563
  655SOL    HW2 1965   0.157   2.104   1.247  1.2598 -1.9365 -2.9046
  656SOL     OW 1966   2.815   2.704   2.320  0.1125  0.0712 -0.3862
  656SOL    HW1 1967   2.846   2.745   2.234  1.2702 -0.0068  0.0697
  656SOL    HW2 1968   2.851   2.761   2.397 -0.5401  3.0684 -2.5448
  657SOL     OW 1969   0.012   1.180   0.180 -0.1065 -0.3926 -0.3302
  657SOL    HW1 1970   3.030   1.117   0.119  0.5382 -1.0561  2.4079
  657SOL    HW2 1971   3.029   1.256   0.230 -1.8492  1.9021  3.1553
  658SOL     OW 1972   1.746   1.772   0.664  0.4396  0.2373 -0.3393
  658SOL    HW1 1973   1.847   1.760   0.683  3.0010  3.0829  1.4104
  658SOL    HW2 1974   1.691   1.756   0.749  2.0557 -0.1585 -1.3064
  659SOL     OW 1975   1.393   0.551   1.394 -0.6310  0.3329  0.3883
  659SOL    HW1 1976   1.312   0.589   1.355  0.7692 -1.9374 -0.4095
  659SOL    HW2 1977   1.376   0.492   1.477  1.1298  0.4052 -1.2102
  660SOL     OW 1978   1.769   1.457   3.062  0.1146 -0.6065 -0.1613
  660SOL    HW1 1979   1.734   1.382   0.052 -0.9028  0.5805  1.5058
  660SOL    HW2 1980   1.803   1.425   2.971  1.5950  0.8557  0.7501
  661SOL     OW 1981   0.095   2.180   0.193 -0.6715  0.2427 -0.4242
  661SOL    HW1 1982   0.106   2.159   0.293 -0.6652 -0.6944  2.5956
  661SOL    HW2 1983   0.154   2.264   0.172  2.6013  1.4040 -0.9427
  662SOL     OW 1984   0.327   0.937   2.110 -0.0182  0.4414  0.0258
  662SOL    HW1 1985   0.237   0.893   2.136  0.3716  1.1095  0.6625
  662SOL    HW2 1986   0.307   1.038   2.093 -0.1663  2.3010 -0.4650
  663SOL     OW 1987   1.777   1.394   0.825  0.4571 -0.1185  0.1921
  663SOL    HW1 1988   1.780   1.294   0.837  0.3158 -1.1896 -0.3978
  663SOL    HW2 1989   1.826   1.440   0.900 -1.5840  1.1708  0.5588
  664SOL     OW 1990   0.936   0.559   1.046 -0.5580  0.1392 -0.2552
  664SOL    HW1 1991   0.947   0.658   1.020  0.6988 -0.0675 -0.9044
  664SOL    HW2 1992   0.843   0.516   1.037  0.4060 -1.3663 -1.3389
  665SOL     OW 1993   1.068   2.863   0.091 -0.2023 -0.5730 -0.4523
  665SOL    HW1 1994   1.101   2.950   0.054  1.7799  1.5894  3.1991
  665SOL    HW2 1995   1.124   2.783   0.061  0.6535 -3.0128 -0.6600
  666SOL     OW 1996   2.974   0.267   2.584 -0.3507 -0.0295  0.1439
  666SOL    HW1 1997   3.067   0.295   2.545  1.9184 -0.0028 -1.6666
  666SOL    HW2 1998   2.930   0.327   2.653  2.2595 -1.4220  0.2195
  667SOL     OW 1999   2.451   1.905   2.015  0.2049 -0.0280  0.0110
  667SOL    HW1 2000   2.488   1.981   2.078  2.2249  0.7874  0.0205
  667SOL    HW2 2001   2.380   1.859   2.075 -0.8316 -0.8044 -1.7740
  668SOL     OW 2002   0.537   1.395   2.559 -0.4642  0.8567  0.1051
  668SOL    HW1 2003   0.628   1.349   2.582 -1.6089  1.8467  0.6788
  668SOL    HW2 2004   0.491   1.353   2.479  2.0504 -1.4930  5.2649
  669SOL     OW 2005   2.205   2.552   2.576  0.5261 -0.0425 -0.5055
  669SOL    HW1 2006   2.208   2.503   2.488  0.8063 -1.8713  4.3828
  669SOL    HW2 2007   2.198   2.483   2.650 -0.6073  0.2203 -0.1405
  670SOL     OW 2008   2.292   0.960   2.565 -1.0672  0.6313  0.1841
  670SOL    HW1 2009   2.392   0.968   2.557 -1.1928  1.7006 -0.5328
  670SOL    HW2 2010   2.253   1.044   2.605  1.5826 -2.2565  0.5491
  671SOL     OW 2011   2.597   1.307   3.067  0.5466 -0.4063 -0.4474
  671SOL    HW1 2012   2.582   1.255   2.978  2.8763  0.3635 -0.6757
  671SOL    HW2 2013   2.694   1.336   3.061  1.6370  2.8446 -0.4440
  672SOL     OW 2014   2.491   1.151   2.316 -0.3193  0.0709 -1.3019
  672SOL    HW1 2015   2.518   1.088   2.392 -1.3299 -1.0450 -0.2520
  672SOL    HW2 2016   2.450   1.102   2.238  0.2096 -0.9416  1.1484
  673SOL     OW 2017   2.523   0.821   1.416  0.1353  0.4008  0.0191
  673SOL    HW1 2018   2.554   0.892   1.348  0.2472 -2.8441 -0.7196
  673SOL    HW2 2019   2.594   0.819   1.489  0.8911  0.4263 -0.4092
  674SOL     OW 2020   1.980   1.935   1.893 -0.9252 -0.1139  0.0612
  674SOL    HW1 2021   1.992   1.834   1.879 -0.6443  3.9523  3.4328
  674SOL    HW2 2022   1.899   1.958   1.833 -1.3805  0.2552 -0.3478
  675SOL     OW 2023   0.298   0.691   0.858 -0.0208  0.4980 -0.2735
  675SOL    HW1 2024   0.304   0.769   0.791 -0.0372 -1.9276  0.3769
  675SOL    HW2 2025   0.337   0.608   0.815  2.2572  0.8996  1.4289
  676SOL     OW 2026   1.952   1.181   1.008 -0.1610 -0.0202 -0.2197
  676SOL    HW1 2027   2.025   1.217   1.069 -0.8549 -1.9645  1.1359
  676SOL    HW2 2028   1.920   1.097   1.049 -0.3507 -0.1797 -3.5139
  677SOL     OW 2029   2.255   1.511   2.167 -0.3182  0.1285  0.1680
  677SOL    HW1 2030   2.308   1.490   2.252 -2.0936  0.9177  1.0921
  677SOL    HW2 2031   2.251   1.611   2.150 -1.5346  0.6690 -0.5013
  678SOL     OW 2032   3.055   1.811   0.758  0.0442 -0.2287  0.2429
  678SOL    HW1 2033   0.024   1.878   0.820  0.0759 -0.6831 -0.5233
  678SOL    HW2 2034   2.990   1.740   0.797 -3.2023 -1.8966 -2.8418
  679SOL     OW 2035   2.903   2.699   0.218 -0.5824  0.2405 -0.1967
  679SOL    HW1 2036   2.955   2.787   0.229 -2.3124 -0.3306  0.2138
  679SOL    HW2 2037   2.811   2.717   0.177  0.0553 -1.5850 -0.2792
  680SOL     OW 2038   0.018   2.543   1.345  0.2878  0.4568  0.2535
  680SOL    HW1 2039   0.073   2.502   1.421 -0.4881 -2.6622  1.3616
  680SOL    HW2 2040   0.030   2.477   1.262 -1.4245 -2.4088 -1.5009
  681SOL     OW 2041   0.673   1.102   1.278  0.2961 -0.1125 -0.1201
  681SOL    HW1 2042   0.688   1.198   1.296  0.3591 -1.1251 -0.4961
  681SOL    HW2 2043   0.644   1.048   1.358 -2.8011 -1.9026  4.4660
  682SOL     OW 2044   1.669   2.569   1.051  0.5930 -0.7023 -0.7064
  682SOL    HW1 2045   1.758   2.548   1.002 -0.4160  0.7566 -0.7410
  682SOL    HW2 2046   1.676   2.645   1.125 -1.7125  1.9960 -1.8720
  683SOL     OW 2047   2.393   1.261   0.988 -0.0771 -0.3743  0.2463
  683SOL    HW1 2048   2.433   1.342   0.932 -0.1019  0.8457  3.8941
  683SOL    HW2 2049   2.457   1.185   0.998  2.7607  0.5096 -1.9071
  684SOL     OW 2050   0.772   2.018   1.989  0.0039 -0.1294 -0.0217
  684SOL    HW1 2051   0.804   2.081   1.919  0.7680  0.9300 -1.9549
  684SOL    HW2 2052   0.766   2.069   2.076  0.3341 -2.0353 -0.5760
  685SOL     OW 2053   2.391   1.566   0.279  0.0619  0.3004 -0.5463
  685SOL    HW1 2054   2.397   1.476   0.238 -1.7013  2.4146  0.4751
  685SOL    HW2 2055   2.291   1.596   0.275 -2.8036  0.7766 -0.9162
  686SOL     OW 2056   3.043   0.636   0.222  0.0225 -0.3263 -0.0008
  686SOL    HW1 2057   3.060   0.684   0.133  0.0758 -1.6821 -1.5730
  686SOL    HW2 2058   2.973   0.688   0.271  1.3997  2.2767 -1.1900
  687SOL     OW 2059   0.964   2.891   0.377  0.0687  0.4402 -0.2363
  687SOL    HW1 2060   1.028   2.834   0.428 -0.0206  2.0510 -0.6362
  687SOL    HW2 2061   0.999   2.897   0.281  1.8169 -1.3473 -2.5926
  688SOL     OW 2062   1.907   1.809   2.302 -0.4406  0.1603  0.3036
  688SOL    HW1 2063   1.818   1.841   2.338 -1.1360  0.0787  0.0763
  688SOL    HW2 2064   1.953   1.889   2.264 -1.1316 -1.3627  0.0189
  689SOL     OW 2065   2.677   1.007   2.106 -0.6233 -0.2364  0.2941
  689SOL    HW1 2066   2.582   1.043   2.080 -0.8966 -1.6941 -0.5074
  689SOL    HW2 2067   2.740   1.078   2.147 -0.4326  1.9369  1.2752
  690SOL     OW 2068   1.674   0.654   0.798 -0.0589 -0.8175  0.2273
  690SOL    HW1 2069   1.584   0.694   0.775  2.7440  0.9623  2.0046
  690SOL    HW2 2070   1.746   0.679   0.731  0.3817 -1.6558  1.1863
  691SOL     OW 2071   1.013   1.459   1.512  0.2249  0.2833 -0.0459
  691SOL    HW1 2072   1.029   1.421   1.607  0.2369  1.3532 -1.4920
  691SOL    HW2 2073   0.998   1.395   1.433 -0.2625  0.0753  0.3206
  692SOL     OW 2074   1.594   0.294   2.179  0.5439  0.0265  0.1363
  692SOL    HW1 2075   1.598   0.384   2.231  0.2292  1.2593  1.1898
  692SOL    HW2 2076   1.683   0.258   2.142  1.0653 -1.9280 -1.9216
  693SOL     OW 2077   0.448   1.181   2.931 -0.5183  0.2755 -0.3793
  693SOL    HW1 2078   0.452   1.162   3.031 -2.2396  0.0295 -2.2388
  693SOL    HW2 2079   0.468   1.102   2.873 -0.1121 -1.0540  0.7955
  694SOL     OW 2080   2.216   2.548   0.679  0.2477 -0.0728 -0.3000
  694SOL    HW1 2081   2.145   2.622   0.672 -0.7556  0.5068  1.9960
  694SOL    HW2 2082   2.166   2.459   0.664  1.5453 -0.3023  0.9347
  695SOL     OW 2083   1.660   1.088   2.689 -0.7060  0.0867  0.2381
  695SOL    HW1 2084   1.676   1.153   2.771 -1.5167  1.5870  1.6398
  695SOL    HW2 2085   1.747   1.067   2.639  3.5645 -1.4610  0.5975
  696SOL     OW 2086   1.368   0.269   1.470 -0.4343  0.2317  0.6808
  696SOL    HW1 2087   1.311   0.235   1.393  0.3558 -0.1148 -0.8140
  696SOL    HW2 2088   1.452   0.217   1.474  1.2472  1.0364  0.5695
  697SOL     OW 2089   1.362   0.270   2.039  0.2485 -0.0081 -0.0259
  697SOL    HW1 2090   1.361   0.364   2.006  1.2927  1.7180 -1.1082
  697SOL    HW2 2091   1.443   0.258   2.095  2.8196 -0.3563 -0.0002
  698SOL     OW 2092   1.937   1.195   2.402 -0.0713  0.2117 -0.1997
  698SOL    HW1 2093   1.838   1.209   2.387  2.5815 -4.4790  1.2237
  698SOL    HW2 2094   1.990   1.176   2.315  0.9006 -0.5925 -1.7577
  699SOL     OW 2095   1.574   1.213   1.138  0.3862  0.0662 -0.1538
  699SOL    HW1 2096   1.611   1.123   1.176 -0.1473 -1.1587  0.7006
  699SOL    HW2 2097   1.518   1.201   1.054 -1.5495  1.1284 -1.4022
  700SOL     OW 2098   1.538   0.073   0.249  0.3223 -0.0977  0.4739
  700SOL    HW1 2099   1.596   0.036   0.327  2.0105 -1.0540 -0.0764
  700SOL    HW2 2100   1.444   0.037   0.252 -3.4630  3.0913  2.8395
  701SOL     OW 2101   0.378   2.961   1.640  0.3740  0.8997 -0.0837
  701SOL    HW1 2102   0.453   2.930   1.575  1.7484  2.6955  0.3447
  701SOL    HW2 2103   0.303   2.891   1.653 -0.4254 -2.6689  2.1247
  702SOL     OW 2104   1.329   2.637   1.173  0.3561 -0.5134 -0.0527
  702SOL    HW1 2105   1.415   2.604   1.129  3.0173  1.0910 -1.6800
  702SOL    HW2 2106   1.302   2.726   1.127 -0.8673 -0.9266 -1.6944
  703SOL     OW 2107   2.327   0.086   1.925  0.5628  0.2999  0.0542
  703SOL    HW1 2108   2.299   0.166   1.873  0.7581 -2.3967  1.6859
  703SOL    HW2 2109   2.429   0.068   1.934 -0.5523 -0.5744  1.7964
  704SOL     OW 2110   1.273   1.859   1.024 -0.3505 -0.9516 -0.4016
  704SOL    HW1 2111   1.249   1.782   0.963 -2.8892 -3.1223  0.1399
  704SOL    HW2 2112   1.197   1.867   1.087  2.0295 -1.3418 -0.3069
  705SOL     OW 2113   2.776   1.509   2.074  0.3319 -0.2087 -0.2667
  705SOL    HW1 2114   2.727   1.596   2.107  1.1633 -0.8917 -1.3395
  705SOL    HW2 2115   2.776   1.447   2.152 -1.0934 -0.8986 -0.5520
  706SOL     OW 2116   1.398   2.829   0.740 -0.1627 -0.1335 -0.6638
  706SOL    HW1 2117   1.411   2.741   0.691 -0.8943 -0.4152  2.6476
  706SOL    HW2 2118   1.415   2.898   0.665  1.1509 -2.4055  0.4974
  707SOL     OW 2119   1.089   2.493   2.505  0.3961  0.2602  0.5624
  707SOL    HW1 2120   1.008   2.455   2.451 -1.8706 -1.0159 -1.6189
  707SOL    HW2 2121   1.137   2.414   2.548 -1.2856 -0.4860 -2.0178
  708SOL     OW 2122   0.247   2.399   1.486 -0.1186  0.0171 -0.0475
  708SOL    HW1 2123   0.248   2.350   1.576 -1.5611 -0.7216  2.2427
  708SOL    HW2 2124   0.291   2.337   1.420  2.6470 -1.4242  1.5439
  709SOL     OW 2125   2.105   0.851   1.897 -0.2395  0.7288  0.3934
  709SOL    HW1 2126   2.062   0.793   1.974 -1.2493 -0.0468 -0.3101
  709SOL    HW2 2127   2.059   0.816   1.814  1.1236  1.0371  1.8131
  710SOL     OW 2128   2.828   0.417   1.636  0.2825  0.1078 -0.0332
  710SOL    HW1 2129   2.813   0.487   1.565  0.2020 -2.3729 -0.4472
  710SOL    HW2 2130   2.929   0.399   1.630  0.4209 -1.3013 -1.7687
  711SOL     OW 2131   2.869   2.477   0.386  0.1371  0.5612 -0.4335
  711SOL    HW1 2132   2.881   2.502   0.484 -0.5284 -1.9122  3.0086
  711SOL    HW2 2133   2.865   2.562   0.332  1.7632 -1.0493  0.8915
  712SOL     OW 2134   0.207   2.441   2.676 -0.4253  0.2737 -0.3027
  712SOL    HW1 2135   0.280   2.468   2.614  2.4746 -0.3851  1.3304
  712SOL    HW2 2136   0.140   2.519   2.685  0.2614 -1.6387 -0.0970
  713SOL     OW 2137   1.919   0.837   0.095  0.3199 -0.8992  0.3338
  713SOL    HW1 2138   1.887   0.929   0.128  1.9316 -1.5991  2.5484
  713SOL    HW2 2139   1.892   0.818   3.069 -0.9289  2.6369 -0.7403
  714SOL     OW 2140   1.417   2.017   0.554  0.1166 -0.8200 -0.1383
  714SOL    HW1 2141   1.514   2.006   0.522  0.2098  2.2709 -0.0302
  714SOL    HW2 2142   1.419   2.103   0.611 -2.1340  1.1953 -0.4219
  715SOL     OW 2143   0.098   0.198   0.463 -0.6296 -0.3129 -0.1039
  715SOL    HW1 2144   0.156   0.200   0.379  1.1812 -1.5265 -0.1366
  715SOL    HW2 2145   0.130   0.139   0.538 -1.4489 -0.5256 -0.7468
  716SOL     OW 2146   0.572   0.143   2.301 -0.0535  0.0775  0.5575
  716SOL    HW1 2147   0.506   0.222   2.295  0.6224  0.2062 -0.8045
  716SOL    HW2 2148   0.527   0.056   2.330  1.7124 -1.0525  1.0671
  717SOL     OW 2149   0.165   0.499   3.024 -0.7222  0.0485 -0.4128
  717SOL    HW1 2150   0.179   0.455   2.934  0.6922 -0.9589  0.2258
  717SOL    HW2 2151   0.089   0.451   0.004 -1.3444 -0.1606  1.5767
  718SOL     OW 2152   1.072   0.472   0.372 -0.3818  0.1421  0.1038
  718SOL    HW1 2153   1.111   0.519   0.456 -1.0329  0.1896  0.2435
  718SOL    HW2 2154   1.120   0.382   0.355  1.5917  0.9415 -0.3859
  719SOL     OW 2155   2.566   2.294   2.743 -0.1035 -0.3695  0.1961
  719SOL    HW1 2156   2.556   2.355   2.664  0.2128  2.2182 -1.5264
  719SOL    HW2 2157   2.512   2.207   2.737  1.4099  0.6732 -2.2151
  720SOL     OW 2158   1.719   0.892   1.869 -0.1502  0.4182 -0.3269
  720SOL    HW1 2159   1.772   0.891   1.955  1.1052  1.7123 -2.0266
  720SOL    HW2 2160   1.633   0.843   1.895 -0.7849  2.1870 -0.0948
  721SOL     OW 2161   2.732   0.307   0.922 -0.8755  0.5220  0.1639
  721SOL    HW1 2162   2.633   0.321   0.941 -0.1000  3.7303 -1.9161
  721SOL    HW2 2163   2.744   0.278   0.828 -1.0122  0.2188 -2.0177
  722SOL     OW 2164   1.232   2.072   2.397  0.2405 -0.2594  0.8498
  722SOL    HW1 2165   1.334   2.066   2.403 -0.6534 -0.1196 -1.8090
  722SOL    HW2 2166   1.195   1.977   2.416  1.1149  3.3011  2.6867
  723SOL     OW 2167   0.821   0.269   0.786 -0.3587  0.0703  0.0958
  723SOL    HW1 2168   0.852   0.329   0.712  1.2760  1.6799 -1.0908
  723SOL    HW2 2169   0.885   0.275   0.867 -2.2128 -0.4979  1.5064
  724SOL     OW 2170   0.813   1.957   2.364 -0.1817  0.0992 -0.0997
  724SOL    HW1 2171   0.811   1.983   2.460  1.4345 -2.4750 -2.5147
  724SOL    HW2 2172   0.831   1.856   2.349  0.9599 -2.9316 -0.2324
  725SOL     OW 2173   0.256   0.786   1.111 -0.0423 -0.3681  0.1987
  725SOL    HW1 2174   0.299   0.877   1.103 -0.8238 -0.5151 -0.4919
  725SOL    HW2 2175   0.276   0.740   1.023  2.0498  1.3620 -1.5895
  726SOL     OW 2176   1.650   0.066   0.497  0.9875 -0.4067  0.3700
  726SOL    HW1 2177   1.620   0.163   0.474  1.8426 -1.5049 -0.3823
  726SOL    HW2 2178   1.679   0.060   0.594  4.3606  1.9194  0.2752
  727SOL     OW 2179   2.038   1.098   2.175  0.0309  0.0226  0.1532
  727SOL    HW1 2180   2.038   1.191   2.132 -1.5301  0.6733  1.0076
  727SOL    HW2 2181   2.136   1.072   2.202  2.5187  0.7383 -0.0612
  728SOL     OW 2182   1.690   2.682   1.645  0.9468  0.2955 -0.2698
  728SOL    HW1 2183   1.776   2.722   1.681 -2.7178  0.7449 -0.2013
  728SOL    HW2 2184   1.697   2.586   1.630  1.4967  3.4861  3.1150
  729SOL     OW 2185   1.589   0.406   1.708 -0.3664 -0.0301  0.6476
  729SOL    HW1 2186   1.661   0.346   1.675 -0.4907  1.1343 -1.1866
  729SOL    HW2 2187   1.616   0.454   1.795 -2.4298  0.0927 -1.4674
  730SOL     OW 2188   0.864   1.690   1.456  0.4605 -0.4633  0.2439
  730SOL    HW1 2189   0.897   1.787   1.466  2.1111  0.6067 -0.1584
  730SOL    HW2 2190   0.942   1.629   1.474 -0.2284  0.1142  0.5089
  731SOL     OW 2191   0.417   0.109   0.007  0.1120 -0.3936  0.0953
  731SOL    HW1 2192   0.348   0.139   0.072 -1.9648  0.7921 -2.9332
  731SOL    HW2 2193   0.410   0.008   3.052 -2.4609  0.0876  2.0545
  732SOL     OW 2194   0.390   0.794   0.374  0.2632 -0.5059 -0.5015
  732SOL    HW1 2195   0.321   0.718   0.373 -0.6590 -0.5274 -1.3690
  732SOL    HW2 2196   0.403   0.845   0.287 -0.2524  0.2163  0.5035
  733SOL     OW 2197   1.482   1.668   1.711 -0.3250 -0.0914 -0.5061
  733SOL    HW1 2198   1.511   1.634   1.805 -2.7631 -3.3935  0.5797
  733SOL    HW2 2199   1.447   1.587   1.656 -1.5312 -2.1589 -0.7774
  734SOL     OW 2200   2.940   2.474   2.175  0.3753  0.2065  0.3680
  734SOL    HW1 2201   2.957   2.486   2.075 -0.3421 -1.2228  0.1423
  734SOL    HW2 2202   2.877   2.550   2.213 -1.6095  1.9075  0.9733
  735SOL     OW 2203   1.037   2.765   0.872  0.2169 -0.1505 -0.6131
  735SOL    HW1 2204   0.995   2.675   0.888  3.4591  2.0137 -1.8765
  735SOL    HW2 2205   1.126   2.777   0.916  0.3419  2.1051 -0.1964
  736SOL     OW 2206   1.250   0.942   2.646  0.2675  0.2631 -0.3159
  736SOL    HW1 2207   1.292   0.852   2.671  0.7826 -0.3271  1.4347
  736SOL    HW2 2208   1.269   1.014   2.715  0.3646 -0.0668 -0.0646
  737SOL     OW 2209   0.078   1.121   0.441 -0.7012  0.1645 -0.1095
  737SOL    HW1 2210   0.110   1.026   0.464 -1.2698 -0.8582 -0.5796
  737SOL    HW2 2211   0.037   1.122   0.348  3.2696 -1.4461 -3.7930
  738SOL     OW 2212   0.120   2.765   1.592 -0.0245  0.1618 -0.3584
  738SOL    HW1 2213   0.213   2.721   1.589  1.0005 -1.8207  0.7239
  738SOL    HW2 2214   0.080   2.780   1.496 -2.3583 -1.0611 -2.6668
  739SOL     OW 2215   1.337   2.673   0.244  0.6592 -0.0137  0.2726
  739SOL    HW1 2216   1.380   2.601   0.300 -1.2891  2.4862 -0.1721
  739SOL    HW2 2217   1.236   2.654   0.240 -0.6366 -0.0950  1.1929
  740SOL     OW 2218   1.742   2.755   1.240 -0.2348  0.7882  0.2662
  740SOL    HW1 2219   1.660   2.809   1.265 -1.5602  1.0273  4.1366
  740SOL    HW2 2220   1.757   2.665   1.289  1.0876 -0.8470  1.7563
  741SOL     OW 2221   2.103   0.397   0.708 -0.4518  0.2821  0.3965
  741SOL    HW1 2222   2.155   0.451   0.779  0.9394  0.1191  2.7355
  741SOL    HW2 2223   2.160   0.316   0.677 -0.2450 -0.5978 -3.2901
  742SOL     OW 2224   0.994   2.577   2.114 -0.4236 -0.0685  0.8652
  742SOL    HW1 2225   0.896   2.614   2.104  0.3652  1.8063 -0.8660
  742SOL    HW2 2226   0.993   2.474   2.106 -0.1504  3.8296 -0.9292
  743SOL     OW 2227   2.357   0.915   1.804  0.2705 -0.3880  0.2046
  743SOL    HW1 2228   2.344   0.874   1.712 -1.0569 -0.8545  0.8007
  743SOL    HW2 2229   2.268   0.891   1.857 -4.6225 -0.2525 -2.8334
  744SOL     OW 2230   2.232   0.528   0.910  0.2171  0.1011  0.1559
  744SOL    HW1 2231   2.290   0.614   0.904 -1.1275  0.8017 -0.6855
  744SOL    HW2 2232   2.166   0.551   0.986 -0.1806 -0.9536 -0.8860
  745SOL     OW 2233   2.147   1.340   1.800  0.1196 -0.2547 -0.1971
  745SOL    HW1 2234   2.242   1.314   1.833 -0.0971 -0.7961  1.0721
  745SOL    HW2 2235   2.096   1.258   1.768 -0.3640  0.0067  0.9874
  746SOL     OW 2236   1.355   1.451   0.651 -0.1872  0.2538 -0.1898
  746SOL    HW1 2237   1.420   1.464   0.728 -0.7995 -0.7066 -1.5377
  746SOL    HW2 2238   1.280   1.383   0.676 -1.4354 -0.0401  1.4986
  747SOL     OW 2239   2.082   1.376   1.204  0.1330 -0.4298  0.6604
  747SOL    HW1 2240   2.038   1.344   1.291 -0.9858 -0.0246  0.4506
  747SOL    HW2 2241   2.170   1.339   1.187  1.6228 -0.1565 -2.6605
  748SOL     OW 2242   3.071   2.894   0.243 -0.7387  0.0918 -0.3864
  748SOL    HW1 2243   0.019   2.941   0.337  0.1493  0.2604  3.7255
  748SOL    HW2 2244   0.081   2.833   0.222  0.3796 -1.2874 -0.8472
  749SOL     OW 2245   0.254   0.615   2.085 -0.7876 -0.5621  0.1254
  749SOL    HW1 2246   0.296   0.674   2.016 -0.0681  0.9756 -0.3080
  749SOL    HW2 2247   0.155   0.599   2.065  0.6915 -0.3648 -1.2790
  750SOL     OW 2248   1.658   2.635   2.125  0.5950  0.0854  0.1015
  750SOL    HW1 2249   1.635   2.690   2.045 -0.0190  1.4675  2.8653
  750SOL    HW2 2250   1.718   2.688   2.191  2.0953  2.6416  0.8598
  751SOL     OW 2251   2.514   0.395   0.339  0.0517 -0.4255  0.2047
  751SOL    HW1 2252   2.423   0.436   0.305 -1.0486  0.3495 -3.6935
  751SOL    HW2 2253   2.517   0.406   0.436 -0.0794 -1.3047 -1.5757
  752SOL     OW 2254   0.212   2.136   0.897 -0.7879  0.0754  0.3459
  752SOL    HW1 2255   0.162   2.064   0.945  0.5500  0.1760  0.2276
  752SOL    HW2 2256   0.247   2.204   0.972 -1.6410  1.5914  3.1764
  753SOL     OW 2257   0.894   0.230   1.253 -0.4266  0.5088 -0.0190
  753SOL    HW1 2258   0.794   0.250   1.259  1.8310  2.8132 -0.6914
  753SOL    HW2 2259   0.943   0.238   1.342  1.5981 -0.9125  0.9675
  754SOL     OW 2260   0.726   2.827   2.278 -0.3431 -0.0174 -0.0953
  754SOL    HW1 2261   0.701   2.834   2.181 -0.0990  0.7696  3.6701
  754SOL    HW2 2262   0.827   2.834   2.293 -2.0549  0.4580  0.9865
  755SOL     OW 2263   2.191   1.109   0.335  0.3208 -0.7376 -0.3590
  755SOL    HW1 2264   2.253   1.080   0.408  0.8143  1.5115 -0.1259
  755SOL    HW2 2265   2.162   1.030   0.273  2.1712  1.2829 -1.3090
  756SOL     OW 2266   2.325   2.005   2.530  0.1787 -0.2460  0.1043
  756SOL    HW1 2267   2.375   1.983   2.615 -2.4319  0.1588 -1.2097
  756SOL    HW2 2268   2.369   2.083   2.478  1.0037  0.6743 -1.8397
  757SOL     OW 2269   1.441   0.214   0.764  0.5694 -0.4738  0.4559
  757SOL    HW1 2270   1.361   0.167   0.800  0.0437 -0.5537 -2.0144
  757SOL    HW2 2271   1.511   0.144   0.760 -1.4290 -0.8671  2.5836
  758SOL     OW 2272   1.491   2.513   0.834 -0.2636 -0.5904  0.2709
  758SOL    HW1 2273   1.551   2.555   0.902 -2.0872 -1.9333 -2.3437
  758SOL    HW2 2274   1.460   2.425   0.876  1.9947  0.4955  1.6785
  759SOL     OW 2275   2.516   0.681   1.182  0.7014  0.1749  0.6002
  759SOL    HW1 2276   2.534   0.579   1.181  1.9094  0.4554  1.2232
  759SOL    HW2 2277   2.497   0.709   1.277  0.7394 -1.2406 -2.7127
  760SOL     OW 2278   2.532   1.033   1.028 -0.3594  0.0553 -0.2250
  760SOL    HW1 2279   2.586   1.033   1.116  2.0801 -0.5056  2.2935
  760SOL    HW2 2280   2.453   0.967   1.031  1.1363 -1.7874 -0.2592
  761SOL     OW 2281   0.290   0.424   0.515  0.2762 -0.0262  0.4405
  761SOL    HW1 2282   0.353   0.358   0.466 -1.2314  1.5531 -0.6853
  761SOL    HW2 2283   0.250   0.487   0.449 -0.9682 -0.8576 -0.2337
  762SOL     OW 2284   1.779   1.984   1.435  0.1175  0.0419  0.0360
  762SOL    HW1 2285   1.878   1.962   1.422  2.8925 -0.7846 -0.8806
  762SOL    HW2 2286   1.734   1.905   1.479  1.7774  2.1595 -1.3388
  763SOL     OW 2287   1.305   1.254   1.791  0.0487 -0.3350  0.1931
  763SOL    HW1 2288   1.226   1.280   1.850  0.2532 -1.8717 -1.3948
  763SOL    HW2 2289   1.345   1.166   1.821 -1.7108 -1.9768  0.2740
  764SOL     OW 2290   3.024   1.751   2.337 -0.4038 -0.1917  0.2960
  764SOL    HW1 2291   3.029   1.796   2.247  1.5977 -1.1723  3.4548
  764SOL    HW2 2292   0.039   1.772   2.382 -2.6166  1.3573 -0.0748
  765SOL     OW 2293   1.532   2.494   1.372  0.1427  0.2055 -0.0133
  765SOL    HW1 2294   1.633   2.494   1.362 -1.3367 -0.1043  3.2140
  765SOL    HW2 2295   1.494   2.581   1.411  1.8353  1.5530  2.6661
  766SOL     OW 2296   0.021   2.631   2.718 -0.4481 -0.0383  0.1212
  766SOL    HW1 2297   0.004   2.734   2.703 -0.0069  1.4194  0.2175
  766SOL    HW2 2298   3.007   2.577   2.730  1.0105 -1.6403 -1.7454
  767SOL     OW 2299   1.363   0.800   2.274  0.3096 -0.2801  0.2600
  767SOL    HW1 2300   1.450   0.818   2.324  0.2123 -1.0450 -1.2551
  767SOL    HW2 2301   1.283   0.837   2.322  0.2242  0.4387 -0.5936
  768SOL     OW 2302   1.398   2.042   0.163 -0.1845 -0.2670 -0.2606
  768SOL    HW1 2303   1.501   2.064   0.162  1.2663 -1.4919  2.4129
  768SOL    HW2 2304   1.387   1.944   0.191 -0.1706  0.1018 -1.0723
  769SOL     OW 2305   0.302   2.570   1.112 -0.0947 -0.4921 -0.4925
  769SOL    HW1 2306   0.224   2.577   1.174  0.2368 -1.4478  0.7142
  769SOL    HW2 2307   0.282   2.618   1.022  2.1644  2.2640 -2.2512
  770SOL     OW 2308   1.607   0.915   3.050 -0.3738  0.5006 -0.1981
  770SOL    HW1 2309   1.617   0.892   2.949  1.4504  1.4168 -3.3122
  770SOL    HW2 2310   1.630   1.012   3.065 -1.3745  3.3361 -3.6690
  771SOL     OW 2311   0.068   2.974   2.105 -0.4041  0.3164 -0.6185
  771SOL    HW1 2312   0.116   3.023   2.182  2.4252  0.4042  1.9278
  771SOL    HW2 2313   0.134   2.967   2.032 -2.7192  0.7667  0.2483
  772SOL     OW 2314   2.076   2.922   2.310  0.2007  0.2922  0.5837
  772SOL    HW1 2315   2.116   2.926   2.212  1.9064 -1.8077 -1.9916
  772SOL    HW2 2316   2.136   2.973   2.371  1.1858 -3.7575 -2.5983
  773SOL     OW 2317   0.922   1.764   1.810  0.3005  0.7729  0.0058
  773SOL    HW1 2318   0.994   1.829   1.783 -0.9923 -0.4409  2.8922
  773SOL    HW2 2319   0.839   1.810   1.839  0.3427  1.7300  0.8735
  774SOL     OW 2320   1.171   0.087   2.064  0.3414  0.1133  0.0952
  774SOL    HW1 2321   1.237   0.158   2.043  0.7514 -0.8447  0.5113
  774SOL    HW2 2322   1.120   0.099   2.150 -0.2392 -0.4266 -0.9439
  775SOL     OW 2323   2.022   2.974   3.063  0.0951  0.6268  0.1084
  775SOL    HW1 2324   2.018   2.878   3.031 -0.5891  0.2196 -2.6331
  775SOL    HW2 2325   2.002   2.975   0.091  3.2236  1.9953  1.3877
  776SOL     OW 2326   2.672   0.810   2.316 -0.0528  0.8641  0.7536
  776SOL    HW1 2327   2.763   0.778   2.290 -2.6032 -0.1929 -0.0490
  776SOL    HW2 2328   2.646   0.887   2.256  2.9969 -0.6782  1.2992
  777SOL     OW 2329   2.536   2.111   2.155  0.2874 -1.1264  0.1568
  777SOL    HW1 2330   2.529   2.102   2.257 -1.5428  0.2729 -1.5105
  777SOL    HW2 2331   2.628   2.144   2.122 -0.5891 -2.0106 -2.3732
  778SOL     OW 2332   1.899   0.985   2.568 -0.2019 -0.7858 -0.6912
  778SOL    HW1 2333   1.917   1.073   2.516  1.1585  0.2051  0.6113
  778SOL    HW2 2334   1.963   0.914   2.545  0.9167  4.6084 -0.5171
  779SOL     OW 2335   0.013   0.271   0.114  0.4479 -0.0731  0.5857
  779SOL    HW1 2336   3.054   0.302   0.024  2.1433 -1.3170  2.5314
  779SOL    HW2 2337   3.017   0.300   0.187 -0.4445  1.4929 -2.6261
  780SOL     OW 2338   2.651   0.742   0.026 -0.1475  0.9078  0.0895
  780SOL    HW1 2339   2.656   0.650   0.068  3.1490 -1.3223 -0.3783
  780SOL    HW2 2340   2.555   0.773   0.029  1.1849  0.5771 -0.7820
  781SOL     OW 2341   0.222   3.024   1.262 -0.0306  0.6720  0.2896
  781SOL    HW1 2342   0.246   3.014   1.164 -1.9203 -0.7784 -0.9126
  781SOL    HW2 2343   0.155   2.955   1.296 -1.7274 -2.9446 -2.8243
  782SOL     OW 2344   1.884   2.523   0.521 -0.2810  0.3472  0.1057
  782SOL    HW1 2345   1.884   2.557   0.426 -0.4443  0.7709  1.3307
  782SOL    HW2 2346   1.818   2.577   0.573  0.7994  0.5520 -1.1999
  783SOL     OW 2347   0.724   1.348   1.429  0.5302 -0.9763  0.1607
  783SOL    HW1 2348   0.693   1.439   1.392  1.7049 -0.1906 -0.2389
  783SOL    HW2 2349   0.819   1.331   1.401 -1.7209  1.6701 -1.1207
  784SOL     OW 2350   1.387   0.693   2.645 -0.0046  0.3934 -0.0965
  784SOL    HW1 2351   1.367   0.619   2.580 -0.8874 -3.6013  1.4998
  784SOL    HW2 2352   1.472   0.741   2.632 -4.3929 -0.5872  1.3301
  785SOL     OW 2353   2.087   0.356   1.193 -0.3481 -0.2020  0.3643
  785SOL    HW1 2354   2.121   0.454   1.179  1.4291 -0.7558 -0.8015
  785SOL    HW2 2355   2.030   0.319   1.114 -1.1420 -2.4443 -0.5401
  786SOL     OW 2356   1.206   2.717   2.028  0.3072  0.4036  0.0488
  786SOL    HW1 2357   1.282   2.656   2.053  0.9953 -0.7985 -3.0292
  786SOL    HW2 2358   1.117   2.670   2.047 -0.3272  0.2684  0.0681
  787SOL     OW 2359   1.653   0.035   1.120  0.4761 -0.4997 -0.2218
  787SOL    HW1 2360   1.600   3.036   1.176 -2.3820  1.4478  0.9835
  787SOL    HW2 2361   1.694   0.108   1.180 -0.3590  2.7293 -0.4193
  788SOL     OW 2362   2.839   1.041   0.374  0.3199 -0.5231 -0.3330
  788SOL    HW1 2363   2.782   1.124   0.351 -0.8979  0.5921 -1.2285
  788SOL    HW2 2364   2.858   1.032   0.471 -1.2467  1.4376 -0.0094
  789SOL     OW 2365   0.477   2.050   1.533  0.0060  0.0121  0.5690
  789SOL    HW1 2366   0.496   1.952   1.521 -1.2083  0.1275  1.7802
  789SOL    HW2 2367   0.486   2.075   1.634  1.7946  2.0244  0.3764
  790SOL     OW 2368   0.557   0.565   2.208 -0.5986  0.5928  0.0045
  790SOL    HW1 2369   0.582   0.601   2.300  2.2345  2.1707 -2.0962
  790SOL    HW2 2370   0.566   0.635   2.133 -1.2973 -0.7215 -1.0105
  791SOL     OW 2371   1.855   0.408   0.598 -0.2240 -0.0412  0.1516
  791SOL    HW1 2372   1.792   0.395   0.674 -0.8842  1.6644 -1.4151
  791SOL    HW2 2373   1.953   0.408   0.631  2.9242  0.8329  3.4279
  792SOL     OW 2374   1.078   2.856   1.805  0.0361 -0.3025 -0.0464
  792SOL    HW1 2375   1.049   2.954   1.836  2.4770  3.0564  1.5395
  792SOL    HW2 2376   1.132   2.811   1.879 -0.6386  1.0049  0.9333
  793SOL     OW 2377   0.484   3.048   0.566 -0.0872  0.1953 -0.4108
  793SOL    HW1 2378   0.513   0.066   0.602 -1.5847 -1.2267 -1.8840
  793SOL    HW2 2379   0.557   2.980   0.596 -1.7910 -0.8658  2.5916
  794SOL     OW 2380   0.036   1.043   1.618 -0.0999  0.1514  0.0707
  794SOL    HW1 2381   3.025   1.074   1.662  2.4683 -1.0952 -1.9489
  794SOL    HW2 2382   0.038   1.073   1.525 -1.9052  0.4423  3.0828
  795SOL     OW 2383   0.410   2.235   2.207  0.0190 -0.7357  0.0622
  795SOL    HW1 2384   0.366   2.264   2.293  0.4101  0.8741 -3.3279
  795SOL    HW2 2385   0.437   2.137   2.213 -0.4910 -0.6282 -1.7133
  796SOL     OW 2386   2.287   0.718   2.123 -0.4642 -0.2467  0.6686
  796SOL    HW1 2387   2.286   0.616   2.115  1.6033  0.0133 -0.3034
  796SOL    HW2 2388   2.351   0.745   2.050  0.3115  1.2703 -0.0832
  797SOL     OW 2389   2.477   2.574   2.680  0.1392  0.2002 -0.5629
  797SOL    HW1 2390   2.402   2.614   2.622  2.8865 -2.0834 -1.0136
  797SOL    HW2 2391   2.569   2.571   2.634 -1.4707 -0.0478  0.1171
  798SOL     OW 2392   2.889   2.887   2.141  0.2665 -0.0343 -0.0579
  798SOL    HW1 2393   2.986   2.923   2.130 -2.8711 -1.4675  0.8778
  798SOL    HW2 2394   2.828   2.897   2.058  1.7689 -1.0360 -1.6781
  799SOL     OW 2395   0.162   2.491   2.254 -0.3028 -0.4735 -0.0398
  799SOL    HW1 2396   0.192   2.430   2.330 -0.4363  0.2693  4.0948
  799SOL    HW2 2397   0.067   2.468   2.226  1.5363 -2.2462 -1.1345
  800SOL     OW 2398   0.025   1.911   2.982  1.0037  0.0424 -0.8418
  800SOL    HW1 2399   3.066   2.007   2.981 -0.3899 -1.0330  0.1973
  800SOL    HW2 2400   0.080   1.892   3.069 -1.8005  1.1791 -1.5367
  801SOL     OW 2401   1.773   1.354   1.308  0.4595  0.0695  0.0687
  801SOL    HW1 2402   1.707   1.303   1.246 -0.6863 -3.2836  0.7450
  801SOL    HW2 2403   1.759   1.334   1.403  0.4862 -0.3998 -1.4653
  802SOL     OW 2404   0.253   1.293   0.570 -0.6390 -0.3585 -0.0555
  802SOL    HW1 2405   0.249   1.297   0.667 -0.0815 -2.0078 -0.3124
  802SOL    HW2 2406   0.188   1.224   0.533  0.8250 -0.9453  0.0586
  803SOL     OW 2407   1.049   1.400   1.785 -0.5743 -0.0162  0.0313
  803SOL    HW1 2408   0.971   1.397   1.850  1.3226 -0.7852 -1.9354
  803SOL    HW2 2409   1.109   1.482   1.784  0.7705  2.4131  2.2061
  804SOL     OW 2410   1.964   1.508   1.000  0.8193 -0.0302 -0.0643
  804SOL    HW1 2411   2.004   1.455   1.081  0.0636  1.2843 -0.1070
  804SOL    HW2 2412   2.042   1.533   0.936 -0.5351  0.5936  0.0843
  805SOL     OW 2413   2.969   1.305   2.833 -0.3151  0.5673 -0.1027
  805SOL    HW1 2414   2.996   1.380   2.771  0.1254  1.7389  1.0159
  805SOL    HW2 2415   3.049   1.236   2.843  3.6360 -1.9164  0.0431
  806SOL     OW 2416   0.195   2.436   0.208  0.5812  0.0333  0.4811
  806SOL    HW1 2417   0.277   2.442   0.146 -0.1709 -0.2262  1.9777
  806SOL    HW2 2418   0.216   2.425   0.306  2.0446  1.7250 -0.6873
  807SOL     OW 2419   2.477   1.517   2.922  0.5847  0.0518 -0.1404
  807SOL    HW1 2420   2.551   1.483   2.987  1.1646 -1.4697  0.4913
  807SOL    HW2 2421   2.414   1.580   2.970  2.0115 -3.7240 -1.5362
  808SOL     OW 2422   1.112   1.970   1.239 -0.0077  0.5765 -0.0063
  808SOL    HW1 2423   1.051   1.962   1.315  2.2618 -1.0558 -0.8242
  808SOL    HW2 2424   1.214   1.978   1.263 -0.1018  2.9184 -1.3393
  809SOL     OW 2425   2.813   0.754   0.338  0.1163  0.2038 -0.2370
  809SOL    HW1 2426   2.832   0.854   0.352 -1.7540  2.5418 -2.7830
  809SOL    HW2 2427   2.721   0.739   0.292  1.0814 -1.3002 -0.6250
  810SOL     OW 2428   0.954   1.415   0.546 -0.3915 -0.0814 -0.3362
  810SOL    HW1 2429   1.008   1.367   0.622  2.1282 -3.0318  0.7045
  810SOL    HW2 2430   1.004   1.500   0.519  0.1328  1.3897 -0.6824
  811SOL     OW 2431   1.799   2.522   1.357  0.3088 -0.7181 -0.7786
  811SOL    HW1 2432   1.888   2.527   1.312 -0.6200  1.1445  0.8177
  811SOL    HW2 2433   1.792   2.438   1.414 -0.4373 -1.6265  0.5222
  812SOL     OW 2434   1.452   2.777   1.723  0.0159  0.4244  0.0785
  812SOL    HW1 2435   1.538   2.740   1.679  0.7907 -4.8221  0.4883
  812SOL    HW2 2436   1.372   2.717   1.703 -1.9317  1.1427 -0.8372
  813SOL     OW 2437   0.662   2.833   1.689 -0.3458 -0.4887 -0.3750
  813SOL    HW1 2438   0.712   2.747   1.718  2.2351 -0.3770 -1.3742
  813SOL    HW2 2439   0.630   2.817   1.592 -0.6587  1.6758 -1.5696
  814SOL     OW 2440   1.001   2.799   2.294  0.0745 -0.2443  0.2425
  814SOL    HW1 2441   1.091   2.846   2.313  3.5233  1.6151 -1.2392
  814SOL    HW2 2442   1.015   2.706   2.253 -0.3848 -0.3687 -0.9395
  815SOL     OW 2443   0.750   0.006   2.652 -0.1061 -0.3952  0.3891
  815SOL    HW1 2444   0.690   2.998   2.618 -2.1953 -1.5964 -1.3174
  815SOL    HW2 2445   0.703   0.095   2.640  0.0785 -0.0721  0.0150
  816SOL     OW 2446   2.426   0.488   2.810 -0.2491 -0.3495  0.6484
  816SOL    HW1 2447   2.499   0.452   2.867 -2.1600  1.2539 -1.7793
  816SOL    HW2 2448   2.373   0.556   2.865  0.3768 -0.3348  0.1731
  817SOL     OW 2449   2.181   2.741   1.807  0.1989 -0.4133 -0.2154
  817SOL    HW1 2450   2.276   2.779   1.794 -1.1829  0.5594 -0.8175
  817SOL    HW2 2451   2.177   2.645   1.844  1.5481 -2.4033 -0.3868
  818SOL     OW 2452   1.030   0.685   0.206  0.3409 -0.7864 -0.0586
  818SOL    HW1 2453   0.951   0.743   0.225  3.2400 -0.7082 -0.2470
  818SOL    HW2 2454   1.028   0.614   0.277  1.1027 -0.0015  0.1557
  819SOL     OW 2455   2.092   1.617   2.779  0.6503 -0.2268 -0.1870
  819SOL    HW1 2456   2.179   1.602   2.733 -1.2099  2.0218  0.4566
  819SOL    HW2 2457   2.026   1.685   2.736 -1.3572  0.0896  0.1028
  820SOL     OW 2458   0.162   1.435   2.465 -0.3429  0.0735  0.4566
  820SOL    HW1 2459   0.161   1.350   2.520 -1.4727 -1.5437 -0.5124
  820SOL    HW2 2460   0.220   1.510   2.501  0.6191  0.2518  1.4817
  821SOL     OW 2461   0.103   2.640   0.674  0.2580 -0.0658 -0.5859
  821SOL    HW1 2462   0.163   2.674   0.596 -0.6130  0.8273 -0.5595
  821SOL    HW2 2463   0.145   2.677   0.757 -0.3564 -0.3572 -1.4967
  822SOL     OW 2464   2.246   2.574   2.949  0.1721 -0.1743 -0.1996
  822SOL    HW1 2465   2.231   2.502   2.884  0.4222  2.5259  0.8755
  822SOL    HW2 2466   2.302   2.653   2.916 -0.7845 -0.5705 -0.3314
  823SOL     OW 2467   1.502   0.043   2.249 -0.5841 -0.1341 -0.3369
  823SOL    HW1 2468   1.544   0.135   2.224 -1.3013  1.1871 -1.1160
  823SOL    HW2 2469   1.450   0.000   2.176 -0.8811 -4.5382  0.3144
  824SOL     OW 2470   2.568   2.408   2.045  0.3044  1.5168 -0.3928
  824SOL    HW1 2471   2.569   2.503   2.017 -1.2783  0.3265  1.5605
  824SOL    HW2 2472   2.553   2.403   2.148 -1.5807 -2.3772  1.5190
  825SOL     OW 2473   2.918   2.373   2.489  0.5050 -0.4406  0.1013
  825SOL    HW1 2474   2.928   2.273   2.497  2.1991 -0.9524 -0.5012
  825SOL    HW2 2475   2.952   2.407   2.399 -0.5840 -0.1243 -0.3926
  826SOL     OW 2476   1.922   0.646   2.655 -0.0474  0.2433  0.6429
  826SOL    HW1 2477   1.975   0.691   2.586 -1.5539 -0.5319  0.2488
  826SOL    HW2 2478   1.936   0.674   2.750 -1.6163 -0.7935  0.3250
  827SOL     OW 2479   2.856   1.863   1.670 -1.2468 -0.2460 -0.1017
  827SOL    HW1 2480   2.803   1.936   1.710 -1.2216  0.4591  1.4547
  827SOL    HW2 2481   2.803   1.780   1.659 -0.4090  2.6076  2.3642
  828SOL     OW 2482   2.812   0.098   1.265  0.1715  0.0593 -0.0958
  828SOL    HW1 2483   2.851   0.051   1.346  0.9383 -2.2772  1.5510
  828SOL    HW2 2484   2.796   0.197   1.279 -0.8836 -1.1506  2.3478
  829SOL     OW 2485   1.073   1.888   2.629  0.0287  0.5384  0.3418
  829SOL    HW1 2486   1.000   1.956   2.601 -2.5415 -2.9864  1.0188
  829SOL    HW2 2487   1.029   1.796   2.628  0.1869 -0.6364  1.0398
  830SOL     OW 2488   0.869   0.970   1.171 -0.4218  0.4013 -0.4696
  830SOL    HW1 2489   0.948   0.980   1.240  1.4478  0.1807  1.3820
  830SOL    HW2 2490   0.791   1.034   1.188  1.9873  2.3569 -0.1007
  831SOL     OW 2491   2.724   1.940   2.742 -0.4790  0.4456 -0.0714
  831SOL    HW1 2492   2.712   1.845   2.763 -0.6144 -1.0663  0.6611
  831SOL    HW2 2493   2.764   1.991   2.821 -1.3007  1.7101 -0.6095
  832SOL     OW 2494   1.940   2.416   2.427 -0.3154  0.2549  0.3599
  832SOL    HW1 2495   2.021   2.453   2.377 -1.2252 -1.7553  0.4880
  832SOL    HW2 2496   1.857   2.473   2.400 -1.0608  0.4900 -2.0221
  833SOL     OW 2497   0.576   0.403   1.979 -0.1842 -0.0633  0.5826
  833SOL    HW1 2498   0.649   0.445   1.917  0.5302 -0.9413 -1.4507
  833SOL    HW2 2499   0.558   0.465   2.060  1.0073  1.2841  1.8488
  834SOL     OW 2500   3.057   0.442   1.291  0.3133  0.3275 -0.3262
  834SOL    HW1 2501   2.960   0.424   1.323 -1.2036 -3.2743 -1.5900
  834SOL    HW2 2502   0.002   0.542   1.286 -1.7025 -0.7856 -1.1909
  835SOL     OW 2503   2.682   0.500   0.154 -0.3721 -0.2774  0.0206
  835SOL    HW1 2504   2.615   0.486   0.227  2.7437  0.6916 -0.8934
  835SOL    HW2 2505   2.764   0.440   0.174  2.9959 -0.0422  0.8088
  836SOL     OW 2506   1.693   1.868   0.233 -0.2802  0.1548 -0.5899
  836SOL    HW1 2507   1.688   1.953   0.177  0.9812 -1.1556  0.1400
  836SOL    HW2 2508   1.649   1.890   0.324  1.0824 -0.2476  0.9398
  837SOL     OW 2509   1.995   1.743   0.770 -0.4217 -0.0450 -0.2480
  837SOL    HW1 2510   2.045   1.666   0.815 -1.7531  1.3633 -0.1900
  837SOL    HW2 2511   2.069   1.796   0.717  4.7391  0.8109 -0.5267
  838SOL     OW 2512   1.599   0.867   2.351  0.5020  0.3456  0.0069
  838SOL    HW1 2513   1.621   0.832   2.447  1.9180 -0.4861  2.7739
  838SOL    HW2 2514   1.687   0.872   2.296  2.3814 -1.7340 -0.3660
  839SOL     OW 2515   0.725   1.477   2.316 -0.1849 -0.4060  0.5561
  839SOL    HW1 2516   0.640   1.413   2.320 -2.1586  0.3195  2.1139
  839SOL    HW2 2517   0.807   1.418   2.343  2.9762 -1.8623  1.2795
  840SOL     OW 2518   1.168   1.585   0.504  0.3862 -0.1003  0.3200
  840SOL    HW1 2519   1.188   1.682   0.472  1.1045 -0.5692 -0.0160
  840SOL    HW2 2520   1.247   1.544   0.555 -2.2217  0.6655  1.2210
  841SOL     OW 2521   1.438   2.272   0.654  0.3709 -0.0188  0.0795
  841SOL    HW1 2522   1.529   2.308   0.624 -1.3420 -1.4686  1.2583
  841SOL    HW2 2523   1.429   2.271   0.754 -0.1977 -0.8967 -2.7376
  842SOL     OW 2524   0.419   0.432   0.160 -0.0346  0.3106 -0.1687
  842SOL    HW1 2525   0.480   0.419   0.238  1.5097  0.1960 -1.2682
  842SOL    HW2 2526   0.457   0.506   0.091 -2.1406  1.8441  0.9408
  843SOL     OW 2527   0.556   0.200   0.687  0.5496  0.1744 -0.1075
  843SOL    HW1 2528   0.498   0.268   0.737 -0.7817 -0.4664  2.6376
  843SOL    HW2 2529   0.653   0.212   0.716  0.8513  1.8957  1.4504
  844SOL     OW 2530   2.639   0.341   2.647  0.7868 -0.2460 -0.4107
  844SOL    HW1 2531   2.597   0.361   2.555 -0.2885  0.0456  0.5270
  844SOL    HW2 2532   2.609   0.248   2.687  0.9809 -1.5988  0.3466
  845SOL     OW 2533   2.902   2.398   1.721  0.2103 -0.1622 -0.0299
  845SOL    HW1 2534   2.808   2.378   1.759  1.0016  1.3467  1.4949
  845SOL    HW2 2535   2.918   2.340   1.638 -1.1051 -0.8502  1.6939
  846SOL     OW 2536   2.399   1.405   2.407 -0.7184  0.2608  0.4920
  846SOL    HW1 2537   2.442   1.317   2.370 -0.2143 -2.9676 -2.1610
  846SOL    HW2 2538   2.302   1.386   2.440  0.6708 -0.8307 -1.3127
  847SOL     OW 2539   0.941   0.654   1.932 -0.0011 -0.1636 -0.1854
  847SOL    HW1 2540   0.876   0.607   1.870  0.3111 -0.2356  1.3835
  847SOL    HW2 2541   1.033   0.613   1.917  0.8987  0.8021  0.0026
  848SOL     OW 2542   2.531   0.099   2.722 -0.0885 -0.1403 -0.3988
  848SOL    HW1 2543   2.573   0.020   2.767 -2.9013 -1.2610  0.9249
  848SOL    HW2 2544   2.449   0.128   2.783 -0.3525 -0.5359 -0.5372
  849SOL     OW 2545   0.168   2.765   2.982  0.6887  0.2952  0.0192
  849SOL    HW1 2546   0.154   2.801   2.886 -0.2601  0.9898 -2.3214
  849SOL    HW2 2547   0.166   2.662   2.973  1.1754  3.0414 -0.1448
  850SOL     OW 2548   0.956   2.537   1.010 -0.2175 -0.6373 -0.6165
  850SOL    HW1 2549   1.037   2.495   1.053 -0.0561  1.0001 -0.8718
  850SOL    HW2 2550   0.930   2.474   0.930 -1.5439 -1.9786 -4.5489
  851SOL     OW 2551   2.052   0.572   2.311 -0.1610 -0.5770  0.4139
  851SOL    HW1 2552   2.046   0.513   2.227 -1.8048 -0.0381  2.0117
  851SOL    HW2 2553   2.097   0.519   2.386 -1.4011 -0.9306  0.6526
  852SOL     OW 2554   1.306   0.242   2.514  1.0480 -0.5026 -0.8973
  852SOL    HW1 2555   1.371   0.168   2.513 -2.1147  3.3956 -1.9226
  852SOL    HW2 2556   1.242   0.232   2.595  0.4013  0.4237  0.1779
  853SOL     OW 2557   2.955   2.769   2.983 -0.0980 -0.2543 -0.6432
  853SOL    HW1 2558   2.921   2.680   3.028 -2.1961  0.8148  0.5050
  853SOL    HW2 2559   3.055   2.784   2.985  0.8600 -1.2825 -0.2539
  854SOL     OW 2560   2.084   0.800   2.499  0.1913  0.2419  0.0900
  854SOL    HW1 2561   2.166   0.844   2.529 -5.3697 -2.7811 -1.2710
  854SOL    HW2 2562   2.105   0.739   2.420  0.5586  2.2504  0.1518
  855SOL     OW 2563   0.527   2.496   0.278  0.0417  0.6427  0.4711
  855SOL    HW1 2564   0.493   2.594   0.284  1.4958  1.4693  4.7403
  855SOL    HW2 2565   0.624   2.493   0.250 -1.2633 -2.8083 -2.1280
  856SOL     OW 2566   0.186   0.062   2.326  0.3058 -0.2051 -0.0484
  856SOL    HW1 2567   0.156   0.133   2.391  2.9242 -2.6203  1.4776
  856SOL    HW2 2568   0.268   0.017   2.359 -4.6938  0.0986 -0.3518
  857SOL     OW 2569   0.972   2.855   1.360  0.7252  0.1362 -0.0106
  857SOL    HW1 2570   0.903   2.934   1.349  0.2994  1.5573  2.7486
  857SOL    HW2 2571   0.926   2.770   1.328  2.0390 -0.5189 -0.9397
  858SOL     OW 2572   2.686   2.051   1.775  0.2434 -0.0991  0.2343
  858SOL    HW1 2573   2.598   2.011   1.750  2.6824 -1.7870 -1.2194
  858SOL    HW2 2574   2.681   2.155   1.773  1.6069  0.1752 -1.5675
  859SOL     OW 2575   1.774   2.263   1.919 -0.6876  1.0110  0.4168
  859SOL    HW1 2576   1.815   2.168   1.917 -1.5862 -1.5451 -0.0134
  859SOL    HW2 2577   1.748   2.296   2.014  0.0808 -0.5995 -0.6347
  860SOL     OW 2578   1.879   0.103   0.376 -0.2800  0.2765  0.0805
  860SOL    HW1 2579   1.863   0.191   0.332 -0.9067  0.6404  3.6025
  860SOL    HW2 2580   1.802   0.089   0.446 -1.9848 -0.7709 -0.4674
  861SOL     OW 2581   2.508   0.391   0.651  0.1620  0.2362  0.0619
  861SOL    HW1 2582   2.599   0.349   0.658  0.4628 -0.4653  0.2699
  861SOL    HW2 2583   2.439   0.319   0.659  2.3106  4.7286  1.1531
  862SOL     OW 2584   0.890   2.598   2.671  0.5964  0.2753  0.6066
  862SOL    HW1 2585   0.929   2.674   2.726 -1.9599  0.1391  1.4734
  862SOL    HW2 2586   0.950   2.567   2.596 -3.2714 -0.5969 -0.3772
  863SOL     OW 2587   0.600   0.563   1.317 -0.2153  0.4644 -0.0564
  863SOL    HW1 2588   0.559   0.546   1.408 -0.4727  0.4931 -1.3844
  863SOL    HW2 2589   0.536   0.528   1.241  1.8887  0.6647  0.6242
  864SOL     OW 2590   2.895   0.015   1.536 -0.1733 -0.2271 -0.6090
  864SOL    HW1 2591   2.990   0.055   1.537  1.1045 -2.3818 -0.1815
  864SOL    HW2 2592   2.893   2.987   1.547  0.2250  2.0033  2.0145
  865SOL     OW 2593   0.802   1.326   2.655 -0.0724 -0.0194  0.1313
  865SOL    HW1 2594   0.872   1.253   2.669 -0.1819 -2.2542  0.2225
  865SOL    HW2 2595   0.780   1.378   2.740 -1.1695 -0.8107 -2.1658
  866SOL     OW 2596   2.782   0.183   2.989 -0.7627  0.2188 -0.1792
  866SOL    HW1 2597   2.712   0.162   3.061 -0.1610 -3.0423  0.3169
  866SOL    HW2 2598   2.811   0.092   2.952  0.3184  1.1607  0.1792
  867SOL     OW 2599   2.613   2.933   2.875 -0.1878 -0.1251  0.2668
  867SOL    HW1 2600   2.676   2.965   2.948 -1.1290  0.9161 -0.3707
  867SOL    HW2 2601   2.645   2.847   2.834  0.0507  0.8249 -0.9149
  868SOL     OW 2602   1.271   0.806   0.249 -0.7933  0.1115  0.2845
  868SOL    HW1 2603   1.172   0.779   0.254  0.2780 -0.8345  0.0296
  868SOL    HW2 2604   1.312   0.771   0.333 -3.0323 -1.7594 -2.6306
  869SOL     OW 2605   2.640   1.469   0.596 -0.5392 -0.5535 -0.1914
  869SOL    HW1 2606   2.675   1.500   0.505  0.8218 -2.5550 -0.6524
  869SOL    HW2 2607   2.722   1.431   0.645 -1.8192 -0.1079 -2.2005
  870SOL     OW 2608   2.365   1.621   0.563 -0.1680  0.6473 -0.0561
  870SOL    HW1 2609   2.405   1.605   0.471  1.4067 -1.4586 -1.4119
  870SOL    HW2 2610   2.325   1.536   0.603 -0.4539  0.7537  1.1782
  871SOL     OW 2611   1.307   1.144   0.705  0.5479 -0.4876  0.1299
  871SOL    HW1 2612   1.272   1.047   0.695  0.6587 -1.3905 -0.2235
  871SOL    HW2 2613   1.220   1.203   0.690 -4.1076  0.0302 -1.2877
  872SOL     OW 2614   1.277   1.821   1.632  0.4058  0.3329  0.4695
  872SOL    HW1 2615   1.277   1.765   1.549  0.5721 -2.3998  1.4238
  872SOL    HW2 2616   1.352   1.785   1.693 -2.7400 -0.7687 -0.7289
  873SOL     OW 2617   0.882   1.701   2.232 -0.2773 -0.0571 -0.3181
  873SOL    HW1 2618   0.945   1.685   2.155 -0.0723  1.9018 -0.1918
  873SOL    HW2 2619   0.815   1.625   2.245  1.1282  3.7247  0.3600
  874SOL     OW 2620   0.939   2.064   1.046 -0.2069 -0.0294 -0.0296
  874SOL    HW1 2621   0.982   2.103   0.958 -2.0288  0.8551 -2.2235
  874SOL    HW2 2622   1.009   2.040   1.114 -2.2984  1.7478 -2.1152
  875SOL     OW 2623   1.873   0.252   0.996 -0.0594 -0.4937 -0.1209
  875SOL    HW1 2624   1.841   0.251   1.088  0.5468 -0.7107 -1.4416
  875SOL    HW2 2625   1.823   0.317   0.936  1.8382 -0.3111 -0.3783
  876SOL     OW 2626   0.686   0.563   0.291 -0.0609 -0.3660 -0.2485
  876SOL    HW1 2627   0.652   0.578   0.386 -0.7876 -0.4005 -0.0254
  876SOL    HW2 2628   0.755   0.489   0.288  1.5717  2.3010  0.9564
  877SOL     OW 2629   2.768   0.377   1.269 -0.3146  0.5820 -0.1958
  877SOL    HW1 2630   2.687   0.373   1.210  0.1617 -0.1227 -1.4738
  877SOL    HW2 2631   2.761   0.461   1.324  2.3976 -2.6766  1.2309
  878SOL     OW 2632   2.104   2.239   0.266 -0.3944  0.3082 -0.3142
  878SOL    HW1 2633   2.094   2.311   0.192  2.1212  0.8709  0.1458
  878SOL    HW2 2634   2.145   2.154   0.228  0.0318 -1.2278 -0.2569
  879SOL     OW 2635   2.707   1.636   1.561  0.3994  0.0983  0.2891
  879SOL    HW1 2636   2.605   1.626   1.535  2.1309 -0.6245 -1.4707
  879SOL    HW2 2637   2.738   1.561   1.624  2.4928  0.5740  0.9670
  880SOL     OW 2638   1.401   2.742   1.415 -0.0485 -0.0468  0.0470
  880SOL    HW1 2639   1.383   2.705   1.325  3.0592  2.5860  1.7095
  880SOL    HW2 2640   1.319   2.733   1.472  0.7525 -0.9634  1.0427
  881SOL     OW 2641   1.202   2.184   0.026 -0.3489  0.6206 -0.0265
  881SOL    HW1 2642   1.120   2.157   0.085 -0.4893 -1.3633  0.3643
  881SOL    HW2 2643   1.285   2.141   0.063  1.0316 -1.9158  0.5203
  882SOL     OW 2644   1.817   0.815   1.593 -0.0446 -0.1357 -0.0182
  882SOL    HW1 2645   1.778   0.863   1.668  2.0690 -4.2312 -2.7996
  882SOL    HW2 2646   1.745   0.772   1.534  0.6052  0.6701  0.6044
  883SOL     OW 2647   1.124   0.113   2.346  0.3059 -0.4318  0.0355
  883SOL    HW1 2648   1.187   0.173   2.402 -1.7794  2.0875 -0.2867
  883SOL    HW2 2649   1.034   0.159   2.339 -0.1268  1.0100  2.5530
  884SOL     OW 2650   2.919   0.411   0.291  0.2055  0.1795 -0.2656
  884SOL    HW1 2651   2.885   0.402   0.388 -1.2795 -3.5494 -0.0063
  884SOL    HW2 2652   2.986   0.486   0.280 -0.1605 -1.2005  0.5066
  885SOL     OW 2653   0.887   1.364   2.988  0.4206 -0.3131 -0.0164
  885SOL    HW1 2654   0.907   1.457   2.945 -0.3473 -0.4949 -0.0969
  885SOL    HW2 2655   0.972   1.311   2.980  0.3794  2.1475 -0.8564
  886SOL     OW 2656   1.870   1.461   2.792 -0.2435  0.2314 -0.8288
  886SOL    HW1 2657   1.804   1.482   2.719 -1.8224 -0.1410 -2.2910
  886SOL    HW2 2658   1.957   1.513   2.790 -3.0975  1.4623  0.5266
  887SOL     OW 2659   1.183   0.299   1.696 -0.0212 -0.0896 -0.2918
  887SOL    HW1 2660   1.113   0.290   1.625  1.9863  0.9488  0.5667
  887SOL    HW2 2661   1.275   0.265   1.658  4.2072 -2.5732 -0.7180
  888SOL     OW 2662   2.841   0.444   1.901 -0.2298  0.2398  0.0911
  888SOL    HW1 2663   2.791   0.531   1.914 -2.0325  1.3571 -1.9127
  888SOL    HW2 2664   2.810   0.409   1.810 -0.1718  2.7281  2.5249
  889SOL     OW 2665   2.907   2.528   0.662 -0.4230 -0.1587  0.1359
  889SOL    HW1 2666   2.835   2.597   0.652  1.4644  0.9577  0.5036
  889SOL    HW2 2667   2.995   2.574   0.675  1.4493  1.1665 -1.7164
  890SOL     OW 2668   2.665   2.746   0.122 -0.0005 -0.4366  0.3700
  890SOL    HW1 2669   2.605   2.721   0.202  0.4235  0.6671 -0.1271
  890SOL    HW2 2670   2.612   2.737   0.036 -0.3402  1.2348 -0.4132
  891SOL     OW 2671   1.003   1.575   2.859  0.1377  0.4121  0.1204
  891SOL    HW1 2672   1.097   1.553   2.879  0.7575  0.7316  0.2249
  891SOL    HW2 2673   0.986   1.604   2.763  0.9391  0.1498 -0.0594
  892SOL     OW 2674   2.884   2.848   0.878 -0.1590 -0.5482 -0.2592
  892SOL    HW1 2675   2.939   2.869   0.792  0.0515 -0.5857  1.1734
  892SOL    HW2 2676   2.862   2.938   0.916 -0.2971  1.1525 -2.2469
  893SOL     OW 2677   0.649   2.956   1.115 -0.1699 -0.2230 -0.2692
  893SOL    HW1 2678   0.681   2.961   1.211 -0.7874  0.8729 -2.5248
  893SOL    HW2 2679   0.732   2.951   1.052  2.7169 -1.5099 -0.2977
  894SOL     OW 2680   2.854   1.315   0.659  0.3739  0.2040  0.1667
  894SOL    HW1 2681   2.818   1.225   0.636  1.2857  2.4653  0.6479
  894SOL    HW2 2682   2.949   1.333   0.638  0.4867 -1.0401  0.1086
  895SOL     OW 2683   2.431   2.814   1.736 -0.0911  0.0101 -0.2974
  895SOL    HW1 2684   2.497   2.828   1.812  1.5281 -1.9553 -0.4926
  895SOL    HW2 2685   2.473   2.843   1.648 -0.0517  0.3581  2.9916
  896SOL     OW 2686   0.822   3.049   1.663  0.1777  1.0124  0.0837
  896SOL    HW1 2687   0.772   2.963   1.653  0.8899  2.9592 -0.1498
  896SOL    HW2 2688   0.879   3.055   1.750  2.5502 -0.4739  0.3283
  897SOL     OW 2689   0.791   1.511   1.875  0.2895  0.1543 -0.4193
  897SOL    HW1 2690   0.843   1.589   1.842  2.2751  1.4899  0.8770
  897SOL    HW2 2691   0.723   1.527   1.951 -0.2005 -0.9701  1.0728
  898SOL     OW 2692   1.401   2.550   2.090 -0.2754  0.2467  0.0170
  898SOL    HW1 2693   1.427   2.518   1.996  2.3257  2.2632 -0.3656
  898SOL    HW2 2694   1.488   2.583   2.139  1.3668  0.5973 -0.4901
  899SOL     OW 2695   0.839   0.439   0.548 -0.5041  0.0304  0.1613
  899SOL    HW1 2696   0.809   0.534   0.544  2.5023 -1.5828 -1.1927
  899SOL    HW2 2697   0.929   0.422   0.497  1.9703  1.2436  0.8195
  900SOL     OW 2698   1.718   2.373   2.160 -0.1401  0.3211  0.3323
  900SOL    HW1 2699   1.670   2.460   2.153  2.0150  0.6952 -1.0195
  900SOL    HW2 2700   1.694   2.327   2.249  0.6804  0.6914  2.9789
  901SOL     OW 2701   0.962   2.192   2.789  0.3594 -0.6183  0.1162
  901SOL    HW1 2702   1.042   2.218   2.732 -2.4626  0.4312  1.2465
  901SOL    HW2 2703   0.910   2.278   2.811 -0.9662 -0.4524  2.5216
  902SOL     OW 2704   1.893   1.201   0.438 -0.0382 -0.0032 -0.7532
  902SOL    HW1 2705   1.981   1.253   0.443  0.7386  2.3010  2.0235
  902SOL    HW2 2706   1.815   1.264   0.450  2.1572 -0.6309 -1.4384
  903SOL     OW 2707   1.841   0.753   0.596 -0.3087 -0.0281  0.5364
  903SOL    HW1 2708   1.865   0.669   0.541  1.3018 -1.5232  0.4186
  903SOL    HW2 2709   1.777   0.807   0.541  0.5958 -0.7712  0.9329
  904SOL     OW 2710   0.759   0.908   2.800 -0.2930  0.4302  0.5019
  904SOL    HW1 2711   0.779   0.969   2.721 -1.3252  1.0977  2.4371
  904SOL    HW2 2712   0.824   0.825   2.797  0.1507 -0.6166 -1.2437
  905SOL     OW 2713   2.042   0.094   0.718  0.4456 -0.3919 -0.4518
  905SOL    HW1 2714   2.030   0.056   0.817  1.3224 -1.9296  3.4798
  905SOL    HW2 2715   2.002   0.188   0.718 -1.7701 -0.1159 -1.1321
  906SOL     OW 2716   0.055   2.402   1.115 -0.2138 -0.6833  0.3971
  906SOL    HW1 2717   0.062   2.314   1.166  2.3111 -0.8277 -0.8726
  906SOL    HW2 2718   0.045   2.389   1.018  0.9529 -3.6559  0.2500
  907SOL     OW 2719   0.824   0.826   0.266  0.5610 -0.1301 -0.0498
  907SOL    HW1 2720   0.756   0.762   0.301  0.8361  2.3679  1.2853
  907SOL    HW2 2721   0.789   0.862   0.178  1.8023  2.0125  1.7671
  908SOL     OW 2722   2.049   2.741   0.784 -0.3757 -0.5619 -0.2511
  908SOL    HW1 2723   2.105   2.763   0.867  0.6134 -0.1751 -2.0812
  908SOL    HW2 2724   2.048   2.814   0.715 -1.2406  2.0553  0.3998
  909SOL     OW 2725   2.234   1.086   1.412 -0.4583  0.2367 -0.2069
  909SOL    HW1 2726   2.230   1.069   1.311 -2.3385 -0.1706  0.3907
  909SOL    HW2 2727   2.141   1.123   1.435 -0.0926 -0.2796 -0.6179
  910SOL     OW 2728   1.335   2.950   2.075 -0.2767 -0.5737  0.1391
  910SOL    HW1 2729   1.275   2.872   2.055  1.6964  1.3849  0.8319
  910SOL    HW2 2730   1.287   3.039   2.054  1.8660 -1.8960  0.3985
  911SOL     OW 2731   2.888   0.645   2.202  0.3747 -0.2037  0.0994
  911SOL    HW1 2732   2.856   0.664   2.103  0.7281 -0.6249  0.3627
  911SOL    HW2 2733   2.840   0.564   2.240 -2.0801  1.0122  0.8796
  912SOL     OW 2734   0.250   1.144   1.393 -0.7867 -0.0855 -0.2075
  912SOL    HW1 2735   0.297   1.114   1.310  4.4195  1.7487  0.6887
  912SOL    HW2 2736   0.311   1.192   1.458 -1.9829 -1.5365 -2.4015
  913SOL     OW 2737   2.725   2.207   1.290  0.2186 -0.1892  0.0406
  913SOL    HW1 2738   2.779   2.206   1.377  2.9039  1.0946  2.1805
  913SOL    HW2 2739   2.687   2.115   1.265 -1.0452  1.6897  1.5465
  914SOL     OW 2740   1.608   0.715   1.468 -0.1130 -0.5327  0.2738
  914SOL    HW1 2741   1.543   0.647   1.432  1.2679  1.5242  0.1020
  914SOL    HW2 2742   1.560   0.809   1.449 -0.5093  2.4707 -1.4436
  915SOL     OW 2743   1.756   0.271   1.221  0.2398 -0.4222 -0.0606
  915SOL    HW1 2744   1.803   0.299   1.308 -0.4220  2.6162  3.1377
  915SOL    HW2 2745   1.654   0.294   1.225  0.4269  1.6874 -0.5607
  916SOL     OW 2746   2.778   2.349   1.069  0.1604  0.2221  0.1728
  916SOL    HW1 2747   2.688   2.377   1.032 -0.5702 -0.7213  1.4154
  916SOL    HW2 2748   2.760   2.298   1.155  1.3147  0.6260 -2.1784
  917SOL     OW 2749   2.240   1.878   0.252  0.7976  0.0497 -0.9141
  917SOL    HW1 2750   2.179   1.889   0.333 -1.6288  0.3766 -0.8506
  917SOL    HW2 2751   2.186   1.887   0.165 -0.5489 -1.0355  0.7902
  918SOL     OW 2752   2.063   2.964   2.770  0.5680 -0.1102 -0.2367
  918SOL    HW1 2753   2.087   3.052   2.713 -0.9124 -2.1706  0.3659
  918SOL    HW2 2754   2.046   2.981   2.865  2.7582 -2.0215 -2.1077
  919SOL     OW 2755   1.332   2.335   1.435 -0.4333 -0.3818 -0.0507
  919SOL    HW1 2756   1.351   2.239   1.468 -0.1065 -0.7438  0.9244
  919SOL    HW2 2757   1.421   2.379   1.422 -0.3475 -0.2056  3.9780
  920SOL     OW 2758   2.851   0.223   2.348 -0.1088 -0.2417 -0.2251
  920SOL    HW1 2759   2.903   0.237   2.436 -1.1081  3.1647  0.4668
  920SOL    HW2 2760   2.907   0.196   2.268 -0.9885  0.0213  2.9647
  921SOL     OW 2761   2.919   0.817   1.788  0.2718  0.5066  0.0332
  921SOL    HW1 2762   2.893   0.913   1.778  1.5538 -1.8533  0.8767
  921SOL    HW2 2763   3.019   0.813   1.804 -1.0839  2.1523  0.9885
  922SOL     OW 2764   2.033   1.948   0.438 -0.0723 -0.6521  0.0532
  922SOL    HW1 2765   2.102   1.957   0.515  4.0145  0.7390  0.7073
  922SOL    HW2 2766   1.952   2.005   0.444 -0.6927 -0.0642 -0.1226
  923SOL     OW 2767   0.932   1.775   3.025  0.8693 -0.7558  0.2525
  923SOL    HW1 2768   0.934   1.684   2.971  2.9805 -3.7022 -1.5734
  923SOL    HW2 2769   0.901   1.860   2.971 -0.4669  4.8147  1.6389
  924SOL     OW 2770   0.766   0.309   0.237  0.1062 -0.1203 -0.0333
  924SOL    HW1 2771   0.797   0.229   0.295  0.4646  0.3360  0.2203
  924SOL    HW2 2772   0.830   0.332   0.155  0.9342  0.0823 -1.6319
  925SOL     OW 2773   2.443   0.339   0.941  0.3492  0.4329  0.2104
  925SOL    HW1 2774   2.369   0.407   0.920 -0.1189  0.8770  0.5691
  925SOL    HW2 2775   2.409   0.244   0.940  2.3783 -0.0644  1.7875
  926SOL     OW 2776   0.436   0.498   1.123 -0.6490  0.3825  0.4850
  926SOL    HW1 2777   0.404   0.501   1.025 -2.7344 -0.9849  1.3425
  926SOL    HW2 2778   0.368   0.453   1.187 -1.6902 -3.5122 -1.4503
  927SOL     OW 2779   0.128   1.198   2.604  0.4860  0.0964  0.3966
  927SOL    HW1 2780   0.199   1.241   2.670  0.8914  0.4357  0.2006
  927SOL    HW2 2781   0.087   1.123   2.660 -1.9054 -1.9996  1.4587
  928SOL     OW 2782   2.850   0.645   2.936  0.0729  0.4868 -0.4248
  928SOL    HW1 2783   2.760   0.672   2.984 -0.6478  0.0695  0.0989
  928SOL    HW2 2784   2.828   0.577   2.865 -2.3751  0.9978  1.0374
  929SOL     OW 2785   2.333   0.282   1.344  0.7873 -0.5867 -0.1993
  929SOL    HW1 2786   2.263   0.319   1.285 -0.0065 -1.2976  1.1003
  929SOL    HW2 2787   2.307   0.191   1.374  1.1033  0.9672 -0.6620
  930SOL     OW 2788   1.986   1.114   1.847 -0.0774  0.4880  0.8072
  930SOL    HW1 2789   2.024   1.022   1.884  0.3877 -1.2064  1.4347
  930SOL    HW2 2790   1.894   1.131   1.891 -1.8281  2.9988  0.2957
  931SOL     OW 2791   2.105   1.363   0.399  0.3715  0.2631  0.2360
  931SOL    HW1 2792   2.148   1.274   0.369 -4.0211 -0.0902  0.6770
  931SOL    HW2 2793   2.093   1.428   0.320  2.0362 -0.3989  1.8201
  932SOL     OW 2794   2.813   1.243   0.962  0.6276  0.6775 -0.6887
  932SOL    HW1 2795   2.769   1.202   0.881  0.3932  1.0964  0.8806
  932SOL    HW2 2796   2.838   1.163   1.026  0.3429 -2.2797 -1.0365
  933SOL     OW 2797   2.722   1.643   1.109 -0.5302 -0.8000 -0.2977
  933SOL    HW1 2798   2.770   1.672   1.193  0.1878 -0.7334 -0.9070
  933SOL    HW2 2799   2.651   1.573   1.125  1.7064  0.7992 -1.8158
  934SOL     OW 2800   1.792   0.675   2.218 -0.7946  0.0072  0.5023
  934SOL    HW1 2801   1.708   0.638   2.259  0.9531 -0.0266 -2.0579
  934SOL    HW2 2802   1.878   0.635   2.261  1.8492  0.9679  2.7727
  935SOL     OW 2803   0.204   1.794   0.579 -0.2537  0.0904 -0.3860
  935SOL    HW1 2804   0.098   1.801   0.592 -1.1544  1.2597 -1.5453
  935SOL    HW2 2805   0.255   1.870   0.632  0.6495 -0.3556  1.9188
  936SOL     OW 2806   0.251   0.888   0.628 -0.1249 -0.3429 -0.1070
  936SOL    HW1 2807   0.321   0.944   0.676 -2.8274 -0.8692  2.1407
  936SOL    HW2 2808   0.284   0.855   0.537  0.7924  1.7539 -0.1460
  937SOL     OW 2809   2.465   2.967   1.064 -0.3341 -0.4468  0.2166
  937SOL    HW1 2810   2.526   2.894   1.041 -1.9309  1.5827 -1.8467
  937SOL    HW2 2811   2.482   3.010   1.154 -1.5083  0.8103 -1.0847
  938SOL     OW 2812   2.757   2.255   0.448 -0.2259  0.1778  0.0472
  938SOL    HW1 2813   2.809   2.332   0.412 -1.8635  0.3233 -2.2838
  938SOL    HW2 2814   2.712   2.283   0.533 -0.9814 -0.3054  2.1836
  939SOL     OW 2815   0.918   1.918   0.353  0.0363 -0.2040 -1.0154
  939SOL    HW1 2816   0.930   1.834   0.298 -0.7841 -1.8584 -2.0949
  939SOL    HW2 2817   0.847   1.917   0.428 -0.0083  0.0045 -2.1958
  940SOL     OW 2818   2.985   0.369   2.971  0.2633  0.0432  0.3636
  940SOL    HW1 2819   2.902   0.312   2.982  1.5963  1.4479  3.1889
  940SOL    HW2 2820   2.993   0.403   2.875  0.3119 -0.6263 -1.3761
  941SOL     OW 2821   1.053   0.216   2.999  0.0859  0.0480 -1.1607
  941SOL    HW1 2822   0.991   0.297   3.006  0.1264 -0.5934 -0.8477
  941SOL    HW2 2823   1.057   0.166   0.017  0.5433 -3.1957  3.4849
  942SOL     OW 2824   1.028   1.007   1.375 -0.0489  0.0215  0.1662
  942SOL    HW1 2825   1.128   1.012   1.347  1.9090  1.1508 -1.7138
  942SOL    HW2 2826   1.011   0.932   1.443 -0.4354 -0.7539 -1.8633
  943SOL     OW 2827   1.455   1.044   1.823  0.0881 -0.1630  0.0743
  943SOL    HW1 2828   1.454   0.974   1.748 -0.2175  1.5282 -0.2693
  943SOL    HW2 2829   1.404   1.006   1.903 -0.7683 -0.7208 -2.0171
  944SOL     OW 2830   1.708   1.090   1.678 -0.3174 -0.0169  0.4327
  944SOL    HW1 2831   1.749   1.044   1.759  0.0517 -0.4191  1.0969
  944SOL    HW2 2832   1.606   1.094   1.698 -1.7393 -0.4218 -0.4969
  945SOL     OW 2833   0.020   3.069   0.037 -0.0603  1.0478  0.6295
  945SOL    HW1 2834   0.036   2.995   0.108  2.7936  0.1751 -1.7829
  945SOL    HW2 2835   0.045   0.088   0.070  0.4647 -3.3424  0.8380
  946SOL     OW 2836   2.769   0.686   1.960  0.1231 -0.9955 -0.3414
  946SOL    HW1 2837   2.824   0.735   1.893 -0.8843  0.6918 -0.5945
  946SOL    HW2 2838   2.666   0.697   1.949 -1.6982 -0.4916 -0.7072
  947SOL     OW 2839   0.493   2.763   0.336 -0.3823  0.1210 -1.0596
  947SOL    HW1 2840   0.584   2.745   0.385 -0.2947  0.8638 -2.7485
  947SOL    HW2 2841   0.491   2.851   0.287 -0.1948  1.5828 -0.3778
  948SOL     OW 2842   2.453   1.238   1.560 -0.4107 -0.0798 -0.1119
  948SOL    HW1 2843   2.450   1.247   1.660  1.3104  0.7582 -1.5788
  948SOL    HW2 2844   2.376   1.194   1.520  2.5257  0.0953  0.0520
  949SOL     OW 2845   0.455   0.985   2.347  0.3068  0.0954  0.6511
  949SOL    HW1 2846   0.423   0.954   2.256  2.9932 -1.2746  0.7200
  949SOL    HW2 2847   0.377   0.979   2.412  0.2748  0.4817  0.8660
  950SOL     OW 2848   0.463   2.891   0.908 -0.3892  0.2865  0.5926
  950SOL    HW1 2849   0.535   2.910   0.976 -1.0880 -0.0369 -1.9331
  950SOL    HW2 2850   0.492   2.932   0.817  0.1998 -0.2702  0.2641
  951SOL     OW 2851   0.913   1.309   2.413  0.4900  0.3371  0.1983
  951SOL    HW1 2852   0.953   1.215   2.402  0.2376  0.9124 -0.1425
  951SOL    HW2 2853   0.879   1.329   2.507 -0.9504 -2.9285  2.7668
  952SOL     OW 2854   0.774   1.339   0.155 -0.5201 -0.0411  0.3311
  952SOL    HW1 2855   0.826   1.317   0.069 -0.2778 -0.7873 -2.2576
  952SOL    HW2 2856   0.807   1.293   0.244  1.5060  0.2933  0.6486
  953SOL     OW 2857   2.437   0.299   2.353  0.0706 -0.1600  0.0658
  953SOL    HW1 2858   2.369   0.314   2.430  0.0754 -2.5283  1.6901
  953SOL    HW2 2859   2.470   0.205   2.352 -0.7051 -1.0783 -0.3328
  954SOL     OW 2860   1.446   1.216   0.909 -0.2551 -0.6614  0.1851
  954SOL    HW1 2861   1.401   1.183   0.822 -2.2861  4.4764 -1.9395
  954SOL    HW2 2862   1.467   1.312   0.897  0.0587 -2.0774  1.2436
  955SOL     OW 2863   0.609   1.896   2.762 -0.0400 -0.0054 -0.1483
  955SOL    HW1 2864   0.667   1.928   2.837 -0.9459 -4.3895 -1.3783
  955SOL    HW2 2865   0.526   1.952   2.751  1.7474  1.8039  0.3780
  956SOL     OW 2866   1.877   0.630   1.947  0.3363 -0.3076 -0.7860
  956SOL    HW1 2867   1.864   0.621   2.046  3.9010  1.0266 -1.9661
  956SOL    HW2 2868   1.782   0.632   1.903  0.6937 -2.9317  0.6997
  957SOL     OW 2869   2.069   2.028   2.629 -0.3402 -0.0050 -0.3000
  957SOL    HW1 2870   2.163   2.015   2.582 -0.1438 -1.7679 -0.5162
  957SOL    HW2 2871   2.087   2.066   2.721  0.6721 -0.8148 -1.9076
  958SOL     OW 2872   1.208   1.660   1.428  0.2795 -0.3321  0.2122
  958SOL    HW1 2873   1.151   1.583   1.455  0.4548  3.7342 -1.0185
  958SOL    HW2 2874   1.257   1.650   1.340 -0.2964 -1.4283  2.7654
  959SOL     OW 2875   2.256   2.381   2.776  0.1242  0.6781 -0.1637
  959SOL    HW1 2876   2.352   2.375   2.742 -0.2408  0.6937 -3.1717
  959SOL    HW2 2877   2.225   2.286   2.794  0.4925 -1.2183 -2.0658
  960SOL     OW 2878   0.088   0.736   2.533  0.4855 -0.0008 -0.2163
  960SOL    HW1 2879   0.019   0.777   2.470 -0.5487  2.7874 -1.1068
  960SOL    HW2 2880   0.047   0.719   2.623 -0.0939 -1.4971  0.0915
  961SOL     OW 2881   0.698   0.928   2.466 -0.1763  0.4344 -0.0341
  961SOL    HW1 2882   0.701   0.827   2.465 -0.1966  3.0447 -0.4343
  961SOL    HW2 2883   0.602   0.963   2.453 -3.2803  2.2224  1.6577
  962SOL     OW 2884   1.065   1.191   2.708  0.0612  0.2363 -0.5928
  962SOL    HW1 2885   1.098   1.180   2.809 -1.9442  0.5034  3.1465
  962SOL    HW2 2886   1.034   1.107   2.664  1.1147  3.3097  0.4441
  963SOL     OW 2887   2.547   2.362   0.282  0.5258 -0.2948  0.1273
  963SOL    HW1 2888   2.465   2.404   0.328 -1.9385  2.8084 -0.0727
  963SOL    HW2 2889   2.619   2.332   0.350  1.6535 -0.2562  2.4677
  964SOL     OW 2890   1.237   2.428   1.656  0.4069  0.9611  0.3121
  964SOL    HW1 2891   1.267   2.400   1.562 -0.9739  2.2300  0.5975
  964SOL    HW2 2892   1.187   2.513   1.655  1.1653 -2.2443  0.6876
  965SOL     OW 2893   1.477   1.560   0.370  0.5891  0.2988 -0.3526
  965SOL    HW1 2894   1.576   1.571   0.385  3.3758 -2.5473 -0.8248
  965SOL    HW2 2895   1.429   1.537   0.461  0.3476  0.6380  1.8676
  966SOL     OW 2896   0.173   1.698   0.324  0.0462 -0.2070 -0.2313
  966SOL    HW1 2897   0.187   1.729   0.420 -2.2148 -1.8888 -0.9353
  966SOL    HW2 2898   0.082   1.661   0.308  0.9760  0.8245 -2.6185
  967SOL     OW 2899   1.847   0.177   2.125  0.2142 -0.2028 -0.5530
  967SOL    HW1 2900   1.926   0.234   2.152  0.2494 -0.8508 -1.7024
  967SOL    HW2 2901   1.834   0.099   2.188  0.3582  2.7209  2.9143
  968SOL     OW 2902   1.610   0.328   0.455 -0.0479 -1.1277  0.2963
  968SOL    HW1 2903   1.579   0.341   0.358 -1.0647  1.6385 -3.6167
  968SOL    HW2 2904   1.696   0.383   0.478 -0.9347  0.0256  1.0057
  969SOL     OW 2905   0.035   1.157   2.341 -0.2864 -0.2911 -0.2993
  969SOL    HW1 2906   0.085   1.222   2.280 -1.6142 -0.1745 -2.2617
  969SOL    HW2 2907   0.073   1.149   2.439  1.4108 -0.7627 -0.5316
  970SOL     OW 2908   2.517   1.494   1.236  0.2516  0.0850  0.0400
  970SOL    HW1 2909   2.473   1.502   1.143  3.2662 -0.3643  0.2452
  970SOL    HW2 2910   2.460   1.515   1.317  1.0310 -0.5199 -0.5666
  971SOL     OW 2911   0.021   2.928   1.044 -0.1994  0.5646 -0.6268
  971SOL    HW1 2912   0.012   2.905   1.148 -2.2632  2.6723  0.8914
  971SOL    HW2 2913   3.033   2.867   0.988 -0.0256 -3.0592  1.2377
  972SOL     OW 2914   0.280   0.924   2.549 -0.3912  0.3957 -0.3359
  972SOL    HW1 2915   0.314   0.930   2.644  0.4029 -0.3423  0.5962
  972SOL    HW2 2916   0.204   0.855   2.544  2.0851  2.3871  1.6803
  973SOL     OW 2917   0.367   0.419   0.796  0.5804 -0.6067  0.2697
  973SOL    HW1 2918   0.307   0.357   0.852  0.2176  1.7436 -1.6564
  973SOL    HW2 2919   0.351   0.410   0.695 -0.1256  1.4804  0.3497
  974SOL     OW 2920   2.109   0.795   1.327 -0.3477  0.2418 -0.6179
  974SOL    HW1 2921   2.169   0.800   1.412  0.3442  1.7192  2.6229
  974SOL    HW2 2922   2.143   0.851   1.247 -0.3688  1.9871 -2.3495
  975SOL     OW 2923   2.739   2.996   0.090  0.2069 -0.0489 -0.5655
  975SOL    HW1 2924   2.825   3.030   0.127  0.9252  0.4922  1.3918
  975SOL    HW2 2925   2.713   2.900   0.121  0.1198 -2.7649  0.3416
  976SOL     OW 2926   0.508   1.382   1.214 -1.0292 -0.9815 -0.3199
  976SOL    HW1 2927   0.462   1.330   1.285  0.5952  0.8446 -1.3400
  976SOL    HW2 2928   0.562   1.459   1.257  1.0209  2.7119  1.0851
  977SOL     OW 2929   1.166   2.337   0.695  0.4005 -0.0653  0.3278
  977SOL    HW1 2930   1.133   2.328   0.601 -0.9928  1.0458  1.4287
  977SOL    HW2 2931   1.265   2.334   0.701 -1.9749 -1.2074  0.6751
  978SOL     OW 2932   0.402   0.958   0.130  0.2734 -0.3238 -0.9284
  978SOL    HW1 2933   0.317   0.989   0.084  1.7199 -1.0744  2.7303
  978SOL    HW2 2934   0.463   1.041   0.137 -2.0559  2.5329 -2.0448
  979SOL     OW 2935   2.178   1.561   0.858 -0.3612 -0.3839  1.1773
  979SOL    HW1 2936   2.207   1.511   0.774 -0.0135  0.5566 -0.4371
  979SOL    HW2 2937   2.258   1.610   0.897 -0.8061  0.5127 -3.5517
  980SOL     OW 2938   0.405   1.842   1.905 -0.1157 -0.1417  0.1166
  980SOL    HW1 2939   0.402   1.758   1.844 -1.5106  0.0944 -0.6845
  980SOL    HW2 2940   0.479   1.848   1.978  0.3608  1.1091  2.4530
  981SOL     OW 2941   2.931   1.379   0.264 -0.1303 -0.9200  0.0067
  981SOL    HW1 2942   2.845   1.406   0.304  1.7485 -0.7447 -0.1333
  981SOL    HW2 2943   2.924   1.401   0.164  0.3298 -0.0521 -0.3650
  982SOL     OW 2944   2.661   2.865   1.887  0.4473  0.0087 -0.0236
  982SOL    HW1 2945   2.641   2.961   1.903  1.0846  1.3963 -1.0571
  982SOL    HW2 2946   2.713   2.851   1.800 -0.9782  0.3846 -0.6013
  983SOL     OW 2947   1.350   0.035   1.097 -0.2748  0.1880 -0.1985
  983SOL    HW1 2948   1.306   3.070   1.185 -3.1584 -0.3104 -0.3769
  983SOL    HW2 2949   1.448   0.058   1.107  1.1342  4.0599 -1.3520
  984SOL     OW 2950   1.110   2.641   2.933  0.3261  0.6140  0.5891
  984SOL    HW1 2951   1.051   2.707   2.884  0.7315  0.3238  0.4778
  984SOL    HW2 2952   1.197   2.626   2.883  2.6295 -0.5945  0.6171
  985SOL     OW 2953   1.787   2.018   1.712  0.1515 -0.2492 -0.4518
  985SOL    HW1 2954   1.691   2.025   1.748 -2.5172 -0.5323  0.5930
  985SOL    HW2 2955   1.791   2.042   1.616 -1.9688  0.6406  1.4813
  986SOL     OW 2956   2.261   0.063   2.475 -0.0284  0.1128  0.1229
  986SOL    HW1 2957   2.356   0.027   2.469  0.0728 -3.2568 -1.1368
  986SOL    HW2 2958   2.231   0.090   2.572 -0.5588 -1.3712  2.3352
  987SOL     OW 2959   2.706   1.344   2.323 -0.0250  0.2690  0.4744
  987SOL    HW1 2960   2.620   1.285   2.337 -0.7144 -1.8907 -1.7528
  987SOL    HW2 2961   2.735   1.389   2.408 -1.6757 -0.3119  0.6947
  988SOL     OW 2962   2.458   0.661   2.405 -0.5910 -0.3796 -0.4964
  988SOL    HW1 2963   2.372   0.640   2.353 -1.2965  1.1681  0.0045
  988SOL    HW2 2964   2.527   0.706   2.344 -2.4862  0.8936 -0.1105
  989SOL     OW 2965   1.763   1.374   2.084  0.6074 -0.7772 -0.1741
  989SOL    HW1 2966   1.695   1.298   2.064  2.7411  2.2472  0.4813
  989SOL    HW2 2967   1.855   1.343   2.063 -0.7665  0.5290  1.0595
  990SOL     OW 2968   0.378   1.360   0.321  0.3416 -0.4042 -0.1079
  990SOL    HW1 2969   0.337   1.336   0.415 -0.0483 -2.8507  0.6344
  990SOL    HW2 2970   0.303   1.363   0.246 -0.3593 -0.6676 -3.0187
  991SOL     OW 2971   0.364   1.729   2.801  0.1388  0.7922 -0.3446
  991SOL    HW1 2972   0.410   1.801   2.851  0.9025 -1.3648 -2.5173
  991SOL    HW2 2973   0.323   1.669   2.868  1.3533  0.1860 -1.1223
  992SOL     OW 2974   2.773   1.970   2.023  0.6259  0.2139 -0.1156
  992SOL    HW1 2975   2.811   2.059   2.065  0.2672 -0.6634  1.2660
  992SOL    HW2 2976   2.739   1.995   1.930 -0.2078  1.8207 -1.5762
  993SOL     OW 2977   0.140   2.939   0.474 -0.1870 -0.0739 -0.1636
  993SOL    HW1 2978   0.183   3.002   0.541 -0.3578 -0.6528  0.2478
  993SOL    HW2 2979   0.176   2.843   0.487  0.5638 -2.6294 -0.4836
  994SOL     OW 2980   3.071   1.831   1.402  0.1943  0.4900 -0.0069
  994SOL    HW1 2981   3.047   1.803   1.496  0.3418 -2.4516 -2.1385
  994SOL    HW2 2982   0.088   1.876   1.388  2.1722  0.7995  0.8106
  995SOL     OW 2983   2.304   1.744   2.431 -0.4423 -0.6874 -0.0390
  995SOL    HW1 2984   2.350   1.837   2.449 -1.3536  0.5831 -1.3506
  995SOL    HW2 2985   2.326   1.683   2.512  1.0746 -0.6690 -0.2272
  996SOL     OW 2986   2.048   1.509   3.034  0.2041 -0.0604  0.3109
  996SOL    HW1 2987   1.945   1.510   3.042 -2.0054 -0.8134  0.3523
  996SOL    HW2 2988   2.090   1.570   2.961  0.9717  0.5504 -1.7784
  997SOL     OW 2989   1.428   1.425   1.592 -0.4547 -0.1652  0.0610
  997SOL    HW1 2990   1.390   1.368   1.668 -0.7979  0.5403  2.1168
  997SOL    HW2 2991   1.360   1.425   1.520 -0.5213 -2.9138 -0.6766
  998SOL     OW 2992   2.856   2.068   1.012 -0.6109  0.2304  0.0264
  998SOL    HW1 2993   2.863   2.162   1.040  0.0371 -3.6794  2.2517
  998SOL    HW2 2994   2.808   2.066   0.919  1.1336  0.2551 -0.2302
  999SOL     OW 2995   1.901   2.573   0.221 -0.0760  0.4132 -0.4509
  999SOL    HW1 2996   1.896   2.651   0.159  0.4994 -3.8595 -0.5024
  999SOL    HW2 2997   1.957   2.504   0.176  1.4212  3.5582  0.8290
 1000SOL     OW 2998   0.807   2.806   0.155  0.1398  0.1988 -1.1111
 1000SOL    HW1 2999   0.882   2.859   0.113 -1.3919  1.0709  0.3908
 1000SOL    HW2 3000   0.741   2.863   0.212 -1.1366 -2.6637  2.8941
   3.07145   3.07145   3.07145
