1000 SPC/Fw water molecules t= 107.00000 step= 107000
 3000
    1SOL     OW    1   1.899   2.446   0.764  0.2163  0.1006 -0.6041
    1SOL    HW1    2   1.812   2.423   0.807  2.0345 -0.2244  0.3229
    1SOL    HW2    3   1.965   2.480   0.832  0.2790 -2.4308 -1.4249
    2SOL     OW    4   1.255   1.355   2.126  0.1465 -0.9411  0.3143
    2SOL    HW1    5   1.205   1.328   2.212 -2.4405 -0.6622  4.2178
    2SOL    HW2    6   1.212   1.441   2.090  0.7905 -0.9748 -0.7944
    3SOL     OW    7   1.602   2.413   2.413 -0.0759  0.3815  0.3449
    3SOL    HW1    8   1.684   2.364   2.379 -0.5164  0.6564  0.7707
    3SOL    HW2    9   1.525   2.406   2.341 -2.7943  1.4682 -3.7723
    4SOL     OW   10   1.129   2.159   1.979  0.5730  0.0924  0.0287
    4SOL    HW1   11   1.226   2.172   1.995 -2.3406 -1.5384 -1.4578
    4SOL    HW2   12   1.090   2.254   1.986  0.8374 -2.9334  2.7464
    5SOL     OW   13   0.543   0.812   1.665  0.0910  0.5715 -0.1219
    5SOL    HW1   14   0.633   0.837   1.705 -0.1787 -1.1369  1.7718
    5SOL    HW2   15   0.521   0.709   1.673  0.5155 -3.5632  1.4511
    6SOL     OW   16   2.333   0.667   2.941  0.0562 -0.0655 -0.0402
    6SOL    HW1   17   2.260   0.605   2.909  0.5800 -0.2041  0.7030
    6SOL    HW2   18   2.426   0.639   2.905  1.7113 -0.5495 -1.2639
    7SOL     OW   19   0.561   0.163   1.643 -0.3066  0.2463 -0.1046
    7SOL    HW1   20   0.624   0.119   1.708 -0.9595 -0.3554  0.8763
    7SOL    HW2   21   0.579   0.263   1.645 -1.4132  0.0092 -1.0639
    8SOL     OW   22   1.755   0.126   1.745  0.1948 -0.5899  0.0433
    8SOL    HW1   23   1.783   0.204   1.682  2.1288 -2.1080 -1.9900
    8SOL    HW2   24   1.690   0.061   1.700  1.7993  1.4261 -1.2061
    9SOL     OW   25   0.238   0.546   0.538  0.2076 -0.1800  0.1678
    9SOL    HW1   26   0.225   0.477   0.610 -2.1298 -0.5910  1.4591
    9SOL    HW2   27   0.277   0.636   0.574 -0.2786 -1.0234  0.5661
   10SOL     OW   28   0.811   2.385   2.476  0.2848  0.0474  0.0312
   10SOL    HW1   29   0.842   2.382   2.573 -0.8289 -1.0251  0.8305
   10SOL    HW2   30   0.769   2.472   2.449  1.8728 -1.0804  0.9581
   11SOL     OW   31   0.846   1.649   0.013  0.1086  0.8425 -0.3193
   11SOL    HW1   32   0.746   1.638   0.036 -2.5681  1.5315  1.9694
   11SOL    HW2   33   0.903   1.653   0.102  2.2463  1.7309  4.2007
   12SOL     OW   34   0.220   2.929   1.390  0.4866  0.0196  0.1343
   12SOL    HW1   35   0.137   2.978   1.433 -0.4977 -0.6386  1.7702
   12SOL    HW2   36   0.181   2.858   1.331 -0.6158  0.8310 -0.5194
   13SOL     OW   37   0.780   2.864   0.186  0.3461 -0.7437  0.3211
   13SOL    HW1   38   0.873   2.834   0.203  0.0168  0.0098 -0.6544
   13SOL    HW2   39   0.767   2.965   0.190 -3.4772 -1.0318 -0.8928
   14SOL     OW   40   1.729   1.969   0.689 -0.0618 -1.0627 -0.4947
   14SOL    HW1   41   1.729   1.962   0.789 -0.5228 -1.4081 -1.5124
   14SOL    HW2   42   1.814   1.935   0.652  1.1842 -1.0265  1.5698
   15SOL     OW   43   2.897   1.603   2.414 -0.2813  0.0241 -0.0928
   15SOL    HW1   44   2.988   1.555   2.416 -0.1145 -1.0495  0.6489
   15SOL    HW2   45   2.842   1.555   2.482  1.0168 -0.5554 -0.6636
   16SOL     OW   46   1.593   0.125   2.824  0.8533 -0.2594  0.3669
   16SOL    HW1   47   1.549   0.214   2.814 -0.2416  3.2093  3.2237
   16SOL    HW2   48   1.547   0.049   2.773  1.7177  0.8996  0.6831
   17SOL     OW   49   0.513   2.326   2.161  0.4565  0.1339  0.6938
   17SOL    HW1   50   0.586   2.254   2.163  0.1516 -1.2853  0.2742
   17SOL    HW2   51   0.465   2.322   2.250  2.7776 -2.1407  0.0435
   18SOL     OW   52   1.486   1.263   0.597 -0.5899 -0.3283  0.3622
   18SOL    HW1   53   1.561   1.287   0.530 -1.8315 -1.3355 -1.6888
   18SOL    HW2   54   1.487   1.165   0.615  0.9848  2.5699 -1.5396
   19SOL     OW   55   2.441   1.772   2.446  0.3785  0.3089 -0.3371
   19SOL    HW1   56   2.377   1.691   2.467  1.7468 -0.5242  1.0905
   19SOL    HW2   57   2.444   1.842   2.521 -1.1389 -1.0057  2.7353
   20SOL     OW   58   2.546   2.234   2.279  0.5780  0.0900  0.2027
   20SOL    HW1   59   2.523   2.195   2.186  1.1317 -0.5161  0.2060
   20SOL    HW2   60   2.579   2.330   2.273  0.2001 -0.0750  1.5529
   21SOL     OW   61   0.602   2.222   0.142 -0.1921  0.7514  0.2909
   21SOL    HW1   62   0.678   2.235   0.077  1.9431  2.5816 -0.3818
   21SOL    HW2   63   0.530   2.161   0.101 -0.6294 -0.8119 -2.9488
   22SOL     OW   64   2.158   2.297   1.436  0.2296 -0.0204 -0.4909
   22SOL    HW1   65   2.213   2.310   1.349 -0.6808 -0.7722 -2.0595
   22SOL    HW2   66   2.147   2.387   1.478  0.2697 -0.2321 -1.8489
   23SOL     OW   67   0.320   0.971   1.647  0.2997 -0.4471 -0.7486
   23SOL    HW1   68   0.346   1.064   1.681  0.5641  1.1873  2.3907
   23SOL    HW2   69   0.398   0.908   1.637 -1.9984  2.1131  0.0977
   24SOL     OW   70   2.173   1.877   1.954 -0.2486  0.2157 -0.3883
   24SOL    HW1   71   2.102   1.836   2.013 -1.6172 -0.3389 -0.9400
   24SOL    HW2   72   2.264   1.848   1.985 -2.4362 -4.0703  2.4322
   25SOL     OW   73   1.767   0.290   2.477 -0.7928 -0.0621  0.1406
   25SOL    HW1   74   1.813   0.228   2.414 -2.1047 -1.0905 -0.6459
   25SOL    HW2   75   1.668   0.256   2.486  0.2089 -1.4175  3.3894
   26SOL     OW   76   1.276   0.130   0.624 -0.0324 -0.0464  0.6561
   26SOL    HW1   77   1.238   0.082   0.541 -0.8788 -0.7110 -0.6370
   26SOL    HW2   78   1.304   0.226   0.595 -0.9181 -1.5719 -0.3324
   27SOL     OW   79   0.979   1.646   0.250  0.2717 -0.3760  0.0419
   27SOL    HW1   80   0.916   1.721   0.289 -1.3053 -0.8181  1.6770
   27SOL    HW2   81   1.001   1.576   0.323  1.3634 -0.8894  0.1976
   28SOL     OW   82   2.573   1.681   1.235 -0.3523 -0.1540  0.0274
   28SOL    HW1   83   2.530   1.642   1.315  0.6503 -0.1247 -2.0236
   28SOL    HW2   84   2.503   1.711   1.167 -2.2225  1.7138  0.1709
   29SOL     OW   85   2.317   2.723   1.826 -0.0981 -0.9009 -0.1993
   29SOL    HW1   86   2.288   2.820   1.838 -3.0528  2.1884 -0.2049
   29SOL    HW2   87   2.389   2.707   1.892  0.4842  3.2749  0.3797
   30SOL     OW   88   0.787   2.980   1.172 -0.1746  0.0973  0.0516
   30SOL    HW1   89   0.803   3.015   1.083 -0.8756 -1.8418  0.8765
   30SOL    HW2   90   0.867   2.923   1.204  0.8384 -1.7976 -0.8467
   31SOL     OW   91   2.953   2.276   1.815 -0.2175  0.6069  0.0484
   31SOL    HW1   92   3.049   2.301   1.824 -2.6036 -1.5398  0.0556
   31SOL    HW2   93   2.907   2.295   1.906  1.5073 -2.4287  0.8189
   32SOL     OW   94   1.516   1.292   2.110 -0.2061  0.5172  0.0872
   32SOL    HW1   95   1.421   1.325   2.123 -1.4444 -2.9031  0.1430
   32SOL    HW2   96   1.517   1.207   2.054 -2.8674 -1.4627  3.3801
   33SOL     OW   97   0.225   0.173   2.868 -0.3257 -0.0785  0.8037
   33SOL    HW1   98   0.240   0.162   2.768 -0.6151  2.2756 -0.5353
   33SOL    HW2   99   0.138   0.129   2.895 -0.1605  1.4299 -2.3518
   34SOL     OW  100   2.239   0.113   1.079  0.6993 -0.1425 -0.7866
   34SOL    HW1  101   2.301   0.180   1.046 -1.4092 -1.0537 -1.0673
   34SOL    HW2  102   2.269   0.073   1.167 -0.7425  1.4093 -1.6392
   35SOL     OW  103   2.269   0.130   1.395 -0.0545  0.0650  0.3040
   35SOL    HW1  104   2.252   0.040   1.432  1.1419  0.6305  0.6715
   35SOL    HW2  105   2.208   0.199   1.443  0.4380 -1.8278  1.7466
   36SOL     OW  106   2.425   2.880   2.448  0.2491  0.0832  0.8003
   36SOL    HW1  107   2.332   2.845   2.479  0.5997  0.6588 -1.4823
   36SOL    HW2  108   2.501   2.815   2.443  0.0813  2.3004 -0.2261
   37SOL     OW  109   1.019   2.632   3.091 -0.3533  0.3022 -0.3911
   37SOL    HW1  110   1.036   2.630   0.090 -1.8858  2.1987 -0.3504
   37SOL    HW2  111   1.100   2.601   3.039 -1.2786  2.5066  5.4048
   38SOL     OW  112   2.769   1.204   2.783 -0.5258 -0.0103 -0.1747
   38SOL    HW1  113   2.863   1.187   2.822  1.3361 -1.0588 -0.0413
   38SOL    HW2  114   2.703   1.218   2.856 -1.3097  0.7108 -1.3345
   39SOL     OW  115   2.156   2.090   2.236 -0.2276  0.1370 -0.3712
   39SOL    HW1  116   2.210   2.002   2.249 -0.1050  1.0098  0.4823
   39SOL    HW2  117   2.132   2.123   2.330 -0.7423  1.9227  0.0987
   40SOL     OW  118   0.730   0.218   2.903  0.0134 -0.0195 -0.4704
   40SOL    HW1  119   0.787   0.150   2.952 -0.8524 -4.6516 -2.2022
   40SOL    HW2  120   0.753   0.212   2.806  1.4010 -3.0086 -1.5101
   41SOL     OW  121   1.471   1.328   1.457  0.7751 -0.3102 -0.2004
   41SOL    HW1  122   1.501   1.380   1.539 -1.3256  0.2658  1.8327
   41SOL    HW2  123   1.400   1.258   1.481 -0.9739  0.6322  1.6726
   42SOL     OW  124   0.160   0.206   1.996  0.4404  0.8780  0.3837
   42SOL    HW1  125   0.102   0.276   1.956  2.0912 -2.7875  2.4427
   42SOL    HW2  126   0.244   0.248   2.028 -2.1062 -1.7220 -1.3900
   43SOL     OW  127   1.803   1.271   2.157 -0.2146 -0.0817 -0.1984
   43SOL    HW1  128   1.801   1.267   2.262 -1.7829  0.1222  1.4119
   43SOL    HW2  129   1.710   1.278   2.118  1.9250 -1.1322 -1.3152
   44SOL     OW  130   0.022   0.000   2.957  0.4657 -0.0188 -0.3424
   44SOL    HW1  131   0.017   0.066   3.038 -1.2669  1.0234  0.4900
   44SOL    HW2  132   0.058   3.013   2.986  3.2927  1.1991 -0.0034
   45SOL     OW  133   0.702   1.962   1.108 -0.4700 -0.1718  0.0342
   45SOL    HW1  134   0.742   2.053   1.135 -0.6593  1.5295 -0.4399
   45SOL    HW2  135   0.614   1.945   1.159 -2.0716 -2.9080 -2.3226
   46SOL     OW  136   2.594   2.610   1.831  0.0252  0.0394 -0.5404
   46SOL    HW1  137   2.596   2.671   1.750  0.0157 -0.8379  1.7320
   46SOL    HW2  138   2.660   2.534   1.809  1.6862 -1.3572 -0.3277
   47SOL     OW  139   0.991   1.727   1.263  0.4972  0.0428 -0.3058
   47SOL    HW1  140   1.008   1.828   1.272  2.2408  1.8957 -0.7535
   47SOL    HW2  141   0.896   1.707   1.298 -2.3243 -2.6316 -0.5075
   48SOL     OW  142   0.069   2.644   0.153  0.8758  0.4929 -0.4793
   48SOL    HW1  143   3.084   2.630   0.203 -0.0676 -2.8239 -1.5490
   48SOL    HW2  144   0.145   2.664   0.215 -0.4541 -0.3171 -1.7126
   49SOL     OW  145   3.036   1.368   1.897  0.1924  0.1696 -0.3760
   49SOL    HW1  146   0.013   1.424   1.918  0.0177 -0.9316 -0.8048
   49SOL    HW2  147   2.959   1.381   1.964  0.4870 -0.6783 -1.3110
   50SOL     OW  148   2.191   0.940   0.661 -0.3397 -0.2047 -0.0786
   50SOL    HW1  149   2.219   0.911   0.570 -0.2683  1.5806  1.7150
   50SOL    HW2  150   2.094   0.968   0.653 -0.5973 -3.4727 -0.4683
   51SOL     OW  151   1.025   0.959   0.865 -0.0684  0.5769 -0.3011
   51SOL    HW1  152   0.999   1.030   0.801 -0.0008  0.3094  4.6676
   51SOL    HW2  153   0.980   0.975   0.952 -2.0130  0.2782 -0.3620
   52SOL     OW  154   1.505   1.350   0.212 -0.4816  0.0583 -0.4304
   52SOL    HW1  155   1.515   1.282   0.287 -1.2516 -0.2031  0.2256
   52SOL    HW2  156   1.460   1.434   0.259 -2.5477  2.7424  1.1256
   53SOL     OW  157   1.117   2.273   2.584  0.0047  0.1409  0.3863
   53SOL    HW1  158   1.039   2.250   2.645 -2.0817  0.9149  0.0259
   53SOL    HW2  159   1.201   2.298   2.637 -2.2877  1.6194 -0.1993
   54SOL     OW  160   1.639   0.790   1.649  0.3030 -0.0249  0.3270
   54SOL    HW1  161   1.572   0.800   1.720  1.6064  0.7519 -2.1945
   54SOL    HW2  162   1.607   0.720   1.580 -0.4078  0.1868  1.2243
   55SOL     OW  163   2.545   2.728   0.330 -0.3630  0.9105  0.0936
   55SOL    HW1  164   2.519   2.649   0.386  0.2277 -1.1676 -3.3380
   55SOL    HW2  165   2.489   2.810   0.356  0.5480  0.7692  1.6525
   56SOL     OW  166   0.825   2.644   1.864 -0.7048  0.0343  0.1703
   56SOL    HW1  167   0.762   2.588   1.925 -1.7156  1.3763  3.0701
   56SOL    HW2  168   0.800   2.625   1.765 -1.4221  0.0295 -3.6700
   57SOL     OW  169   1.948   0.706   2.662  0.1543  0.0067  0.3328
   57SOL    HW1  170   1.923   0.620   2.614  1.7878 -1.0195  0.8885
   57SOL    HW2  171   1.895   0.732   2.747  0.8419  1.7968 -2.6207
   58SOL     OW  172   2.951   1.241   1.663  0.1073 -0.2318 -0.4160
   58SOL    HW1  173   2.975   1.292   1.749  2.8794 -1.8191 -0.3415
   58SOL    HW2  174   2.859   1.265   1.621 -2.0364 -1.3441 -0.9536
   59SOL     OW  175   0.556   2.892   2.403 -0.5571 -0.2542 -0.0379
   59SOL    HW1  176   0.624   2.869   2.330  0.4116  0.3436  0.8957
   59SOL    HW2  177   0.500   2.808   2.423  0.4016  0.7430 -2.4241
   60SOL     OW  178   2.600   2.219   0.734 -0.2445 -0.0955  0.3341
   60SOL    HW1  179   2.641   2.131   0.705 -1.4367  0.6650 -0.5723
   60SOL    HW2  180   2.656   2.265   0.803  0.8333 -1.6579 -4.8014
   61SOL     OW  181   0.640   2.166   0.400  0.5524 -0.0779 -0.0380
   61SOL    HW1  182   0.627   2.180   0.299  0.0194  1.6031  1.2472
   61SOL    HW2  183   0.712   2.225   0.441  2.0762 -0.0289  0.9661
   62SOL     OW  184   2.153   2.722   2.877 -0.6365  0.0691 -0.4858
   62SOL    HW1  185   2.242   2.677   2.862 -0.4290  2.1515  1.6280
   62SOL    HW2  186   2.111   2.754   2.791  1.5615  1.8413 -0.4955
   63SOL     OW  187   2.019   0.274   0.230 -0.0115 -0.1394  0.5392
   63SOL    HW1  188   1.954   0.234   0.166  1.7495 -0.3816  0.7516
   63SOL    HW2  189   2.006   0.244   0.323  0.1374 -1.5143 -3.3270
   64SOL     OW  190   0.699   0.969   2.519  0.1211  0.3366 -0.4341
   64SOL    HW1  191   0.784   0.971   2.572 -2.4349 -0.4144 -1.2961
   64SOL    HW2  192   0.622   0.936   2.578  1.0778  0.4953  0.7472
   65SOL     OW  193   1.199   3.051   0.403  0.2629 -0.0633  0.4374
   65SOL    HW1  194   1.268   2.985   0.435 -1.6862  1.8388 -0.9055
   65SOL    HW2  195   1.206   3.049   0.301  1.4187 -1.7861  2.4666
   66SOL     OW  196   0.318   1.251   1.776 -0.2876  0.0123  0.1454
   66SOL    HW1  197   0.297   1.246   1.874 -1.4956 -0.6619  0.0559
   66SOL    HW2  198   0.416   1.248   1.751  0.2139  0.0754  0.0238
   67SOL     OW  199   2.094   2.924   2.228  0.4941 -0.5193  0.6043
   67SOL    HW1  200   2.134   2.879   2.149 -3.1051  2.1805  2.1411
   67SOL    HW2  201   2.146   2.909   2.309 -3.8302  0.4937 -5.9056
   68SOL     OW  202   0.820   0.616   1.807 -0.5135 -0.4184 -0.1013
   68SOL    HW1  203   0.851   0.584   1.717  0.8707 -1.9601 -0.7151
   68SOL    HW2  204   0.801   0.719   1.811  0.4498  4.9666  0.5363
   69SOL     OW  205   2.082   2.743   0.425  0.0389  0.4135 -1.0637
   69SOL    HW1  206   2.046   2.771   0.517  0.9510 -0.0418 -1.1260
   69SOL    HW2  207   2.105   2.825   0.369  0.2505 -0.7047  2.3650
   70SOL     OW  208   2.550   0.584   2.829 -0.4612 -0.2840 -0.0241
   70SOL    HW1  209   2.651   0.612   2.829 -0.0061  2.3457 -0.5021
   70SOL    HW2  210   2.535   0.485   2.847  1.1847  1.8700 -2.2201
   71SOL     OW  211   2.794   2.077   0.108  0.4056  0.5330 -0.6205
   71SOL    HW1  212   2.771   2.005   0.043 -0.1583  0.3954  0.6087
   71SOL    HW2  213   2.885   2.112   0.077  1.7469 -1.9331 -0.0303
   72SOL     OW  214   3.047   1.843   0.478  0.0266 -0.1001 -0.1540
   72SOL    HW1  215   2.971   1.906   0.459 -0.4638 -1.1195  0.1296
   72SOL    HW2  216   3.057   1.829   0.578 -0.4549  0.9322 -0.2775
   73SOL     OW  217   0.870   1.117   0.682 -0.2218 -0.0908  0.2846
   73SOL    HW1  218   0.807   1.176   0.739 -1.1437 -0.5021 -0.8681
   73SOL    HW2  219   0.814   1.032   0.657 -1.9639 -1.2598  1.0540
   74SOL     OW  220   0.128   1.957   2.051  0.1839 -0.1225  0.1663
   74SOL    HW1  221   0.109   1.864   2.085  2.0877 -1.7406 -2.6171
   74SOL    HW2  222   0.226   1.979   2.064 -1.8346 -0.5944  0.1388
   75SOL     OW  223   1.808   1.490   1.153  0.3096  0.3465 -0.2827
   75SOL    HW1  224   1.781   1.554   1.080  1.6883  1.9540  0.1286
   75SOL    HW2  225   1.728   1.430   1.188 -0.9788 -1.2715  3.3410
   76SOL     OW  226   1.872   2.166   1.018 -0.3346 -0.1890  0.4614
   76SOL    HW1  227   1.912   2.244   1.072  0.2348 -1.4919  0.9847
   76SOL    HW2  228   1.886   2.081   1.070  0.1055 -0.1602 -1.1609
   77SOL     OW  229   2.501   1.615   1.801  0.1982 -0.2471 -0.8427
   77SOL    HW1  230   2.467   1.615   1.892  0.1374 -0.0714 -0.2049
   77SOL    HW2  231   2.577   1.686   1.799  0.4420  1.0777  0.0167
   78SOL     OW  232   1.466   1.002   0.580  0.2194  0.1486 -0.4326
   78SOL    HW1  233   1.390   0.977   0.517 -2.1892 -0.8903  0.0419
   78SOL    HW2  234   1.509   0.912   0.616  1.4301 -1.9184  0.4892
   79SOL     OW  235   2.066   1.560   1.623 -0.3220 -0.1999  0.3703
   79SOL    HW1  236   2.068   1.645   1.682  1.4026 -2.6906  1.3879
   79SOL    HW2  237   2.006   1.487   1.664 -0.5449  1.0541 -0.6375
   80SOL     OW  238   0.900   0.530   1.559  0.0206  0.8322  0.5095
   80SOL    HW1  239   0.942   0.460   1.621  2.9813 -1.8169 -0.8766
   80SOL    HW2  240   0.932   0.515   1.464 -0.2265 -0.9642  3.0581
   81SOL     OW  241   0.436   2.154   0.577  0.1256  0.7177  0.0238
   81SOL    HW1  242   0.438   2.059   0.611  0.1154  3.3877 -1.3758
   81SOL    HW2  243   0.500   2.155   0.497  1.4335 -0.8776 -1.3661
   82SOL     OW  244   1.125   0.145   1.614  0.0134  0.1477 -0.4158
   82SOL    HW1  245   1.124   0.093   1.700  0.4752 -1.1002  0.8922
   82SOL    HW2  246   1.221   0.162   1.587  1.4086 -0.9291 -2.3847
   83SOL     OW  247   0.748   1.730   0.612 -0.4181  0.0061  0.8804
   83SOL    HW1  248   0.717   1.798   0.680  0.8745 -0.3243 -0.7272
   83SOL    HW2  249   0.673   1.698   0.551  1.0073 -0.1542  0.5866
   84SOL     OW  250   2.820   1.410   0.053  0.0785 -0.2472  0.1461
   84SOL    HW1  251   2.760   1.339   0.022  0.9674  0.8068  1.6544
   84SOL    HW2  252   2.910   1.413   0.003  4.4269  1.6372  0.7094
   85SOL     OW  253   0.137   2.509   0.837 -0.6783 -0.3613  0.6321
   85SOL    HW1  254   0.088   2.514   0.747  1.3923  3.2496  0.4795
   85SOL    HW2  255   0.147   2.411   0.855 -1.2377  2.2709  1.5235
   86SOL     OW  256   1.917   2.939   1.074 -0.2680 -0.4736  0.6571
   86SOL    HW1  257   1.862   2.986   1.142  1.5086  0.7036  1.7595
   86SOL    HW2  258   1.858   2.862   1.045  1.2350 -3.0602 -0.6852
   87SOL     OW  259   3.002   1.731   0.737  0.2859  0.5798  0.2704
   87SOL    HW1  260   2.983   1.762   0.827 -0.5997 -2.7084  0.0643
   87SOL    HW2  261   3.081   1.662   0.739 -0.0441 -1.4571 -1.1146
   88SOL     OW  262   0.673   0.414   1.544  0.2973  0.0871 -0.2968
   88SOL    HW1  263   0.669   0.393   1.443 -0.4100  1.0903 -0.6615
   88SOL    HW2  264   0.769   0.449   1.564  1.2181  2.6201 -1.4020
   89SOL     OW  265   0.977   2.800   1.717  0.0490 -0.1408 -0.2104
   89SOL    HW1  266   0.925   2.850   1.648 -0.6764 -1.1353  1.7468
   89SOL    HW2  267   0.920   2.760   1.786  1.5769  2.1940 -0.5088
   90SOL     OW  268   0.082   1.932   1.158  0.3692 -0.5755  0.2722
   90SOL    HW1  269   0.112   1.904   1.245 -1.4444 -1.4867 -2.6356
   90SOL    HW2  270   0.066   2.036   1.162  1.7575  0.3596 -0.1607
   91SOL     OW  271   1.140   2.145   1.196  0.3406 -0.2532  0.4091
   91SOL    HW1  272   1.106   2.232   1.147 -2.7587  2.1442 -1.5298
   91SOL    HW2  273   1.225   2.167   1.255  0.4745  1.0336  1.8613
   92SOL     OW  274   2.853   2.863   1.477 -0.2221  0.0321  0.0818
   92SOL    HW1  275   2.783   2.914   1.425  3.4438 -0.7100  1.2359
   92SOL    HW2  276   2.923   2.926   1.518  0.7682  1.5965  1.0353
   93SOL     OW  277   3.030   1.444   3.007  0.1802 -0.1772 -0.7223
   93SOL    HW1  278   3.037   1.342   2.985  0.1441 -0.4688 -1.0131
   93SOL    HW2  279   0.016   1.479   3.044  0.9903 -0.7653  0.9617
   94SOL     OW  280   2.844   2.721   2.190 -0.5939  0.1008 -0.0769
   94SOL    HW1  281   2.912   2.743   2.120  0.1605 -2.3793 -0.0345
   94SOL    HW2  282   2.845   2.786   2.273 -1.2709  1.4780  0.8756
   95SOL     OW  283   1.463   0.757   1.872 -0.5909  0.9242 -0.0330
   95SOL    HW1  284   1.526   0.719   1.942  2.4230  0.1319  2.6881
   95SOL    HW2  285   1.382   0.793   1.919  0.6121 -0.6105 -1.3067
   96SOL     OW  286   2.780   0.247   1.982  0.2092 -0.2773 -0.1714
   96SOL    HW1  287   2.760   0.203   1.892 -2.9666 -0.4040  3.4791
   96SOL    HW2  288   2.766   0.346   1.971  1.6260 -1.2413 -3.5911
   97SOL     OW  289   2.186   2.955   1.429  0.3807  0.1387 -0.0235
   97SOL    HW1  290   2.112   3.015   1.471 -0.8753  0.7317 -0.2405
   97SOL    HW2  291   2.261   2.944   1.500  2.2888 -0.3775  2.0276
   98SOL     OW  292   2.200   2.903   1.175 -0.0429  0.4859  0.2385
   98SOL    HW1  293   2.185   2.909   1.277 -0.9762 -2.3397  1.1927
   98SOL    HW2  294   2.104   2.912   1.132 -1.5342  2.8519 -2.4523
   99SOL     OW  295   2.881   0.018   2.118 -0.2423  0.5893 -0.3176
   99SOL    HW1  296   2.892   3.036   2.060 -0.8543  1.0341 -1.0363
   99SOL    HW2  297   2.860   0.095   2.056 -1.5252  0.9857  0.8100
  100SOL     OW  298   1.928   1.391   1.794  0.0540 -0.0779  0.1578
  100SOL    HW1  299   1.858   1.405   1.860 -0.1120  3.0382 -1.1581
  100SOL    HW2  300   2.008   1.358   1.841 -4.2739 -0.1654  1.6605
  101SOL     OW  301   1.515   0.032   0.679  0.0198  0.4672  0.5395
  101SOL    HW1  302   1.577   0.114   0.686 -1.8062 -2.7352 -1.0224
  101SOL    HW2  303   1.418   0.063   0.675  0.2146 -0.9941  2.4212
  102SOL     OW  304   0.599   0.781   1.378  0.1961 -0.1624 -0.0897
  102SOL    HW1  305   0.543   0.699   1.360 -1.3618  0.8377  1.7959
  102SOL    HW2  306   0.589   0.818   1.473 -1.2398 -0.6133  3.9268
  103SOL     OW  307   2.516   0.306   2.908 -0.2681 -0.4113  0.6116
  103SOL    HW1  308   2.569   0.292   2.825 -1.1483 -0.8057 -1.2022
  103SOL    HW2  309   2.563   0.275   2.993  1.1025  0.8529 -2.7542
  104SOL     OW  310   2.742   2.961   1.854  0.2855 -0.4077  0.0059
  104SOL    HW1  311   2.814   3.018   1.809  0.8651  1.2180 -2.5319
  104SOL    HW2  312   2.689   3.015   1.924  2.8276 -2.4459  2.3164
  105SOL     OW  313   1.747   0.959   2.237 -0.7310 -0.2210 -0.6518
  105SOL    HW1  314   1.699   0.892   2.180  1.1326  0.3687  0.8899
  105SOL    HW2  315   1.838   0.920   2.264  2.7427 -2.6740  1.8115
  106SOL     OW  316   1.709   0.208   0.771  0.1017  0.1552 -0.1138
  106SOL    HW1  317   1.806   0.209   0.734 -2.5742  3.5512 -3.8316
  106SOL    HW2  318   1.713   0.236   0.868 -1.8539  1.0822  0.0522
  107SOL     OW  319   0.748   1.267   0.873 -0.1024 -0.2637  0.1864
  107SOL    HW1  320   0.671   1.295   0.933  1.5911 -0.9863 -1.7151
  107SOL    HW2  321   0.834   1.289   0.920 -0.5393 -1.3864  1.4403
  108SOL     OW  322   3.094   0.695   2.490  0.0958  0.6104  0.3661
  108SOL    HW1  323   0.023   0.596   2.494  2.3487  0.0985 -0.6891
  108SOL    HW2  324   3.070   0.720   2.393 -0.0935  0.0637 -2.1665
  109SOL     OW  325   1.843   0.145   0.079  0.2919 -0.5361 -0.8718
  109SOL    HW1  326   1.869   0.044   0.066 -0.3987 -2.2348 -0.5249
  109SOL    HW2  327   1.850   0.201   3.095 -0.7788  1.3826  1.2036
  110SOL     OW  328   2.948   1.992   2.889 -0.5016 -0.0364  0.7552
  110SOL    HW1  329   2.982   2.050   2.965  0.7713 -2.4079 -1.3662
  110SOL    HW2  330   2.891   1.914   2.921 -2.5017 -1.5740  2.3365
  111SOL     OW  331   2.108   0.135   2.275 -0.0697  0.2414  0.8539
  111SOL    HW1  332   2.114   0.037   2.244  1.3398 -0.2793  0.2788
  111SOL    HW2  333   2.119   0.127   2.373  1.1718  1.5836 -3.3690
  112SOL     OW  334   2.464   2.940   1.139 -0.0617 -0.0015 -0.3075
  112SOL    HW1  335   2.486   2.879   1.056  3.6345 -3.2608 -2.0497
  112SOL    HW2  336   2.363   2.935   1.164 -1.5188  2.2030 -0.4035
  113SOL     OW  337   2.413   2.414   1.773  0.8535 -0.0501 -0.3585
  113SOL    HW1  338   2.479   2.483   1.798 -2.9889  2.9173 -1.1687
  113SOL    HW2  339   2.331   2.454   1.731 -2.1460 -0.7786 -1.5348
  114SOL     OW  340   2.891   0.093   0.787 -0.4805 -0.1846 -0.4615
  114SOL    HW1  341   2.915   0.178   0.733  1.6602  2.6766 -0.4912
  114SOL    HW2  342   2.880   0.015   0.723 -1.0571  1.0431 -0.8603
  115SOL     OW  343   2.806   1.802   3.050 -0.8470  0.1091  0.1523
  115SOL    HW1  344   2.889   1.803   0.005 -1.2409 -1.8786  1.5584
  115SOL    HW2  345   2.736   1.750   3.098  1.0056 -0.2346  2.1547
  116SOL     OW  346   0.130   1.559   1.954 -0.0885 -0.0777 -0.0017
  116SOL    HW1  347   0.067   1.611   2.016  0.1854 -2.1280  0.5713
  116SOL    HW2  348   0.152   1.610   1.868 -2.9998  1.3860 -1.2547
  117SOL     OW  349   2.676   2.878   0.852  0.1262  0.0052  0.2547
  117SOL    HW1  350   2.733   2.836   0.924  1.1553 -1.6646 -2.3906
  117SOL    HW2  351   2.626   2.803   0.802 -0.0671  0.9439 -3.3702
  118SOL     OW  352   0.378   2.297   1.768 -0.3997  0.2351 -0.3677
  118SOL    HW1  353   0.324   2.286   1.685  1.1477  0.1083  3.3416
  118SOL    HW2  354   0.474   2.268   1.742 -1.6380  0.4493 -0.7177
  119SOL     OW  355   1.570   2.377   1.089 -0.7159  0.2220 -0.3404
  119SOL    HW1  356   1.485   2.371   1.030 -4.5902  1.3547 -0.2349
  119SOL    HW2  357   1.576   2.292   1.148  4.1182  0.2526  0.2534
  120SOL     OW  358   0.545   1.895   1.917  0.1427  0.1561  0.1744
  120SOL    HW1  359   0.544   1.842   2.004  0.2355 -0.0764 -2.8191
  120SOL    HW2  360   0.492   1.980   1.931  0.5307 -0.7861 -0.2420
  121SOL     OW  361   2.383   1.454   0.890  0.1591 -0.3668 -0.0743
  121SOL    HW1  362   2.452   1.412   0.956  0.9098  1.4524  2.2710
  121SOL    HW2  363   2.302   1.497   0.932  0.6359  2.2848 -2.5728
  122SOL     OW  364   1.856   1.787   2.296 -0.1860 -0.4088 -0.4004
  122SOL    HW1  365   1.866   1.710   2.230  1.5878 -0.1029  0.2921
  122SOL    HW2  366   1.941   1.782   2.358  0.0294 -2.2559  1.8253
  123SOL     OW  367   2.848   2.947   0.669 -0.2101  0.0069  0.0291
  123SOL    HW1  368   2.879   2.854   0.644 -0.0342  1.0845  1.6487
  123SOL    HW2  369   2.780   2.941   0.747 -1.1130 -0.0718 -0.1965
  124SOL     OW  370   1.380   1.339   2.838 -0.4747 -0.0418  0.2633
  124SOL    HW1  371   1.335   1.309   2.927  0.9667 -2.0498 -0.9190
  124SOL    HW2  372   1.472   1.379   2.851  0.3083  1.7556  0.4794
  125SOL     OW  373   0.382   1.548   2.576  0.3792  0.0588  0.1932
  125SOL    HW1  374   0.301   1.609   2.564 -3.3680  0.5071 -0.8208
  125SOL    HW2  375   0.358   1.452   2.616  0.5784  0.7492  1.0993
  126SOL     OW  376   2.858   2.024   0.390  0.0765 -0.1050 -0.1968
  126SOL    HW1  377   2.882   2.118   0.373 -2.6622  2.9162  3.2470
  126SOL    HW2  378   2.802   1.994   0.310 -0.0127  0.1268 -1.2759
  127SOL     OW  379   0.290   1.693   0.997  0.3964  0.0933 -0.2803
  127SOL    HW1  380   0.222   1.614   1.015 -1.0031 -0.8861  1.7689
  127SOL    HW2  381   0.238   1.776   0.955 -4.9314  0.0455  0.6553
  128SOL     OW  382   1.691   0.904   0.098  0.1054 -0.6644 -0.7348
  128SOL    HW1  383   1.721   0.975   0.167 -1.4803  1.0792  1.7118
  128SOL    HW2  384   1.654   0.821   0.146 -0.5638 -1.5181  2.5827
  129SOL     OW  385   2.262   1.662   1.268  0.1146 -0.1010  0.7861
  129SOL    HW1  386   2.202   1.736   1.289  2.2091 -1.7911 -1.9717
  129SOL    HW2  387   2.321   1.637   1.349 -0.3844 -0.3426  3.1110
  130SOL     OW  388   2.115   1.386   0.506 -0.4385 -0.3908 -0.0198
  130SOL    HW1  389   2.140   1.339   0.419 -0.5075 -1.1955  0.1879
  130SOL    HW2  390   2.134   1.330   0.585  1.2705  0.6250 -0.9798
  131SOL     OW  391   2.822   1.411   2.601 -0.1461 -0.2425 -0.6236
  131SOL    HW1  392   2.792   1.331   2.655  0.4571 -1.7227  0.5788
  131SOL    HW2  393   2.833   1.486   2.669  4.1226  1.4439 -0.2356
  132SOL     OW  394   1.829   1.655   1.879 -0.7496  0.0629  0.4300
  132SOL    HW1  395   1.903   1.714   1.842 -2.0955 -0.5067  0.3488
  132SOL    HW2  396   1.740   1.686   1.849  0.6073 -0.5385  1.1298
  133SOL     OW  397   0.288   1.086   3.041 -0.4527 -0.5175 -0.2148
  133SOL    HW1  398   0.215   1.092   0.006  0.1706 -2.7915  2.5794
  133SOL    HW2  399   0.375   1.059   3.086 -0.6624  0.2356 -1.8516
  134SOL     OW  400   2.790   1.163   0.360 -0.1961 -0.1153  0.1261
  134SOL    HW1  401   2.698   1.189   0.322  0.1839  1.3718 -0.3425
  134SOL    HW2  402   2.857   1.237   0.342 -1.5294  0.3480  0.3110
  135SOL     OW  403   2.750   0.906   0.404  0.4660 -0.5953  0.2546
  135SOL    HW1  404   2.790   0.995   0.386 -1.9984  0.5728 -1.2657
  135SOL    HW2  405   2.648   0.906   0.393  0.6502 -1.1042 -3.2780
  136SOL     OW  406   1.895   1.677   1.322 -0.0874 -0.4393  0.1987
  136SOL    HW1  407   1.959   1.652   1.396  0.0235  0.4276 -1.1312
  136SOL    HW2  408   1.866   1.593   1.273 -1.5761  2.9828 -0.0303
  137SOL     OW  409   2.363   2.352   0.694 -0.1198  0.5094 -0.3753
  137SOL    HW1  410   2.453   2.308   0.707  0.0025 -1.9740  1.4997
  137SOL    HW2  411   2.373   2.439   0.647 -1.1036 -0.4566  2.7479
  138SOL     OW  412   2.003   0.044   1.842 -0.3072  0.7545 -0.8572
  138SOL    HW1  413   1.906   0.072   1.830  0.6387  1.0082 -2.0668
  138SOL    HW2  414   2.059   0.123   1.876  0.3619  0.9062 -0.4302
  139SOL     OW  415   2.620   0.207   0.048  0.1227 -0.1682  0.1489
  139SOL    HW1  416   2.558   0.127   0.034 -0.8256 -2.3189  0.5576
  139SOL    HW2  417   2.712   0.189   0.012  0.1299 -0.3611 -0.2873
  140SOL     OW  418   1.216   1.710   2.352  0.4353  0.3153  0.2764
  140SOL    HW1  419   1.285   1.660   2.405 -0.0047 -3.9607 -1.6093
  140SOL    HW2  420   1.131   1.655   2.333  2.6011  0.2511 -2.0559
  141SOL     OW  421   0.819   0.874   2.078 -0.0646  0.1737 -0.2726
  141SOL    HW1  422   0.750   0.858   2.156 -3.3813 -2.1063  0.0290
  141SOL    HW2  423   0.861   0.965   2.082 -1.4340  0.3480 -1.0614
  142SOL     OW  424   1.928   2.741   0.010  0.0932  0.0631 -0.4128
  142SOL    HW1  425   1.985   2.792   3.043  1.3331  2.7008 -4.3494
  142SOL    HW2  426   1.994   2.688   0.065 -0.2006  1.0188  1.0420
  143SOL     OW  427   1.030   2.042   0.162 -0.1220  0.6013 -0.3903
  143SOL    HW1  428   1.035   2.099   0.083  2.1462 -1.4274  0.3603
  143SOL    HW2  429   0.942   1.990   0.169  0.1272  0.1204 -3.2444
  144SOL     OW  430   1.165   2.512   0.203 -0.0476  0.3673 -0.0705
  144SOL    HW1  431   1.134   2.414   0.211 -1.8703  0.5306  2.8615
  144SOL    HW2  432   1.265   2.514   0.230  1.9779 -0.1515 -1.3054
  145SOL     OW  433   2.077   1.786   2.487  0.1949 -0.1208 -0.1792
  145SOL    HW1  434   2.131   1.832   2.415 -1.2460  0.9194 -0.0744
  145SOL    HW2  435   2.041   1.851   2.560  0.1750 -0.2461  0.3706
  146SOL     OW  436   2.401   2.611   2.833 -0.0790 -0.1922 -0.0757
  146SOL    HW1  437   2.464   2.683   2.796  1.3945 -0.2566 -1.1051
  146SOL    HW2  438   2.464   2.551   2.892  2.6081  1.9557 -1.0354
  147SOL     OW  439   2.934   1.555   1.316  0.0563 -0.1839  0.1551
  147SOL    HW1  440   2.975   1.529   1.226  1.5108 -0.8359  0.8152
  147SOL    HW2  441   2.845   1.508   1.324 -0.6112  1.1339 -1.4771
  148SOL     OW  442   1.683   2.888   3.086 -0.5050 -0.6609  0.1521
  148SOL    HW1  443   1.753   2.819   0.008  1.1107  0.6515  1.1592
  148SOL    HW2  444   1.658   2.875   2.987 -0.4796 -0.5117 -2.7047
  149SOL     OW  445   0.619   1.678   2.662  0.0245  0.3890 -0.4578
  149SOL    HW1  446   0.678   1.632   2.732 -0.7435  0.2815  1.9884
  149SOL    HW2  447   0.574   1.614   2.596  0.6810 -0.6844  1.5006
  150SOL     OW  448   0.239   2.354   0.480  0.4943 -0.5088 -0.4189
  150SOL    HW1  449   0.226   2.294   0.396 -2.9157 -1.6568  0.5388
  150SOL    HW2  450   0.310   2.314   0.538 -1.1774 -0.1780 -1.2182
  151SOL     OW  451   0.516   1.476   0.296 -0.4218 -0.5570  0.0677
  151SOL    HW1  452   0.443   1.412   0.273  2.7058  2.3148 -0.1654
  151SOL    HW2  453   0.527   1.549   0.219  0.6768  4.1404 -1.1850
  152SOL     OW  454   2.755   1.676   0.599 -0.3064 -0.3113 -0.5108
  152SOL    HW1  455   2.687   1.706   0.667 -0.9067  0.5633 -0.6001
  152SOL    HW2  456   2.849   1.679   0.639  2.8688  1.3118 -1.2977
  153SOL     OW  457   2.067   2.458   0.437  0.3712 -0.2027  0.0539
  153SOL    HW1  458   2.080   2.558   0.448  0.7284  3.2925 -1.3732
  153SOL    HW2  459   1.986   2.420   0.484  0.2080  1.3964  1.8066
  154SOL     OW  460   0.797   2.796   0.795 -0.1191 -0.0115 -0.2523
  154SOL    HW1  461   0.801   2.887   0.839  0.4887 -1.4884  0.5475
  154SOL    HW2  462   0.717   2.804   0.734 -1.3063  0.3425  2.7203
  155SOL     OW  463   0.214   1.942   0.912 -0.1803  0.2335  0.1034
  155SOL    HW1  464   0.159   1.933   0.993 -0.6869  0.6189 -2.6865
  155SOL    HW2  465   0.167   1.999   0.841  2.7570  0.0144 -1.2558
  156SOL     OW  466   2.352   2.501   0.108 -0.5013  0.2111  0.3401
  156SOL    HW1  467   2.400   2.436   0.047 -0.1843  1.4337  3.2441
  156SOL    HW2  468   2.360   2.455   0.196 -0.9501 -1.7480 -2.2509
  157SOL     OW  469   0.736   1.556   1.593  0.1573  0.2832 -0.0627
  157SOL    HW1  470   0.705   1.635   1.649 -1.7597 -1.1025 -1.5883
  157SOL    HW2  471   0.756   1.598   1.505  2.5824 -0.4758  0.8457
  158SOL     OW  472   1.601   0.662   0.206  0.5111 -0.2041  0.7454
  158SOL    HW1  473   1.650   0.572   0.193  0.2147  1.3452 -0.9200
  158SOL    HW2  474   1.561   0.669   0.299 -1.7386  0.0909 -0.1635
  159SOL     OW  475   1.294   1.023   2.997 -0.1384 -0.3493 -0.5496
  159SOL    HW1  476   1.384   0.984   2.984 -0.1358  0.3641  0.9152
  159SOL    HW2  477   1.307   1.117   3.037  0.0632  0.1869  2.3553
  160SOL     OW  478   1.246   1.370   0.555  0.0687 -0.2192  0.2637
  160SOL    HW1  479   1.270   1.470   0.540  0.8600  0.6014  1.4556
  160SOL    HW2  480   1.328   1.313   0.550  2.2827  2.1808 -0.2673
  161SOL     OW  481   0.107   2.370   2.761 -0.1137 -0.6297  0.0363
  161SOL    HW1  482   0.048   2.348   2.681  1.0747 -1.7543  3.0477
  161SOL    HW2  483   0.150   2.287   2.797  0.9059  2.0574 -2.0591
  162SOL     OW  484   0.262   2.269   0.900  0.3419  0.5932  0.4347
  162SOL    HW1  485   0.229   2.196   0.836  0.5730 -1.9441 -3.3655
  162SOL    HW2  486   0.324   2.227   0.962 -2.0365  0.2229 -1.9052
  163SOL     OW  487   0.082   0.909   2.937  0.0460  0.4993  0.2654
  163SOL    HW1  488   0.114   0.821   2.979 -0.2663 -0.5574 -0.5393
  163SOL    HW2  489   0.155   0.980   2.928  3.8227 -1.4823 -0.6479
  164SOL     OW  490   0.468   3.006   2.729  0.3703  0.2782 -0.4618
  164SOL    HW1  491   0.472   3.062   2.819 -1.3064  0.9159  3.8839
  164SOL    HW2  492   0.560   3.007   2.685 -1.5903 -0.1904  0.2668
  165SOL     OW  493   2.115   0.269   1.932  0.5502  0.4206  0.6360
  165SOL    HW1  494   2.103   0.302   2.026  0.7223 -1.7864 -1.7976
  165SOL    HW2  495   2.086   0.339   1.868  1.5910 -1.2001  0.7025
  166SOL     OW  496   2.032   2.679   1.501  0.2508  0.3249 -0.4392
  166SOL    HW1  497   2.068   2.611   1.570  0.7642  1.3831  0.4970
  166SOL    HW2  498   2.102   2.739   1.460 -4.2887  1.7618 -0.2297
  167SOL     OW  499   1.041   0.548   2.268 -0.7057  0.0431 -0.1678
  167SOL    HW1  500   1.010   0.450   2.289  2.4890  1.6552 -1.5775
  167SOL    HW2  501   1.126   0.568   2.323 -0.9005  2.2426  1.8938
  168SOL     OW  502   2.584   0.021   2.006  0.5184 -0.1295  0.3717
  168SOL    HW1  503   2.627   0.109   2.030  0.2330  0.2713 -0.1499
  168SOL    HW2  504   2.546   3.070   2.085  0.5063 -0.7796  0.1533
  169SOL     OW  505   0.069   1.219   0.298 -0.5305  0.1283  0.5473
  169SOL    HW1  506   3.098   1.277   0.341 -2.2631 -0.6391 -1.6953
  169SOL    HW2  507   0.041   1.186   0.204 -0.2009 -0.4854  0.7664
  170SOL     OW  508   0.188   1.686   1.723 -0.9419  0.3891 -0.0036
  170SOL    HW1  509   0.116   1.650   1.665  1.7349  0.5980  2.1074
  170SOL    HW2  510   0.268   1.620   1.730  3.4524 -1.7059  2.2501
  171SOL     OW  511   0.971   2.290   2.298 -0.2867 -0.2057 -0.2295
  171SOL    HW1  512   0.904   2.341   2.354 -0.9957  3.8664 -0.1636
  171SOL    HW2  513   1.046   2.249   2.353  0.0174 -1.4391  0.1544
  172SOL     OW  514   0.663   2.519   2.038 -0.0422  0.0583  0.1171
  172SOL    HW1  515   0.630   2.436   2.080  0.9329  1.5415  0.9916
  172SOL    HW2  516   0.596   2.589   2.059  2.9735 -0.3899  0.1358
  173SOL     OW  517   1.165   2.620   0.812  0.1939 -0.1813 -0.1273
  173SOL    HW1  518   1.122   2.702   0.772  0.3747 -1.5418  1.8458
  173SOL    HW2  519   1.222   2.645   0.891 -0.0057  0.8384 -1.3900
  174SOL     OW  520   1.679   0.389   0.569 -0.3495 -0.0431  0.3331
  174SOL    HW1  521   1.686   0.330   0.649  0.9171  0.9960  0.5310
  174SOL    HW2  522   1.765   0.415   0.527 -1.3762  1.4255  0.3811
  175SOL     OW  523   1.373   1.567   0.285  0.3530 -0.8049 -0.0697
  175SOL    HW1  524   1.405   1.647   0.227 -0.0889  2.5145 -2.1123
  175SOL    HW2  525   1.354   1.596   0.383  0.5430 -0.3675  0.6107
  176SOL     OW  526   1.610   1.457   0.740 -0.3967  0.1939  0.9096
  176SOL    HW1  527   1.582   1.536   0.688  0.2871  0.1175  0.8031
  176SOL    HW2  528   1.619   1.371   0.681  1.2433 -2.2249  0.9699
  177SOL     OW  529   1.313   0.729   1.391 -0.1291  0.6937  0.0377
  177SOL    HW1  530   1.247   0.740   1.465 -0.6947 -2.8787 -0.2963
  177SOL    HW2  531   1.353   0.816   1.357  2.0968 -0.1782 -0.3266
  178SOL     OW  532   2.645   1.633   0.062 -0.1790 -0.4280 -0.3256
  178SOL    HW1  533   2.577   1.609   0.128  4.3101  1.1778 -3.1745
  178SOL    HW2  534   2.706   1.551   0.061 -0.8588 -0.3391  1.8091
  179SOL     OW  535   0.458   2.450   0.056  0.2383  0.1672 -0.5417
  179SOL    HW1  536   0.495   2.379   0.117 -1.0178  0.5997 -1.0286
  179SOL    HW2  537   0.513   2.539   0.061 -0.0253  0.0392 -1.7277
  180SOL     OW  538   1.629   1.489   1.639  0.5109  0.6513 -0.6532
  180SOL    HW1  539   1.552   1.475   1.706 -0.0488  4.6005  0.6360
  180SOL    HW2  540   1.703   1.548   1.677 -1.6204  1.8080 -0.7182
  181SOL     OW  541   1.018   1.029   2.180 -0.1558  0.5461 -0.1488
  181SOL    HW1  542   1.040   1.104   2.113 -1.2584  1.3933 -1.0595
  181SOL    HW2  543   1.095   0.961   2.192 -1.0337  0.5659  1.8645
  182SOL     OW  544   2.937   1.043   2.234 -0.3684 -0.4166 -0.2106
  182SOL    HW1  545   2.919   1.139   2.273  0.0363  0.5637 -0.8354
  182SOL    HW2  546   2.924   1.034   2.136 -0.0857 -1.1364 -0.0962
  183SOL     OW  547   1.660   0.726   2.103  1.0004 -0.4439 -0.5132
  183SOL    HW1  548   1.755   0.713   2.071  1.4948  1.8764 -2.9617
  183SOL    HW2  549   1.638   0.652   2.168 -0.0019  0.1038 -1.1373
  184SOL     OW  550   0.219   0.572   1.686  0.1169  0.5412  0.0504
  184SOL    HW1  551   0.319   0.575   1.700  0.3591  0.7796 -1.6710
  184SOL    HW2  552   0.204   0.566   1.579 -0.9942  2.6464 -1.7391
  185SOL     OW  553   2.315   1.746   0.653 -0.2106  0.1528  0.1482
  185SOL    HW1  554   2.333   1.844   0.624  1.1923 -0.9433  1.4209
  185SOL    HW2  555   2.299   1.686   0.568  0.4173  1.9736 -0.0502
  186SOL     OW  556   0.488   1.844   3.007  0.4054 -0.4530  0.0913
  186SOL    HW1  557   0.444   1.817   2.924  2.6818  1.8621  0.7337
  186SOL    HW2  558   0.561   1.917   2.984  0.0656  3.4667  0.9362
  187SOL     OW  559   2.353   1.848   2.895  0.0563  0.4414  0.2522
  187SOL    HW1  560   2.283   1.785   2.940 -1.5523 -0.2964 -1.9119
  187SOL    HW2  561   2.443   1.837   2.940 -3.4683 -1.0979 -2.2348
  188SOL     OW  562   0.865   2.567   0.599 -0.0083  0.0584  0.1448
  188SOL    HW1  563   0.873   2.614   0.687 -1.7319  2.4605 -3.9486
  188SOL    HW2  564   0.798   2.622   0.543 -1.1162  2.6058 -1.6271
  189SOL     OW  565   2.196   0.840   2.699 -0.3140 -0.7290  0.3319
  189SOL    HW1  566   2.115   0.784   2.705  1.7057  1.4234 -2.3159
  189SOL    HW2  567   2.169   0.943   2.700  1.1612  1.4777 -0.3501
  190SOL     OW  568   0.881   1.855   2.357 -0.3837 -0.3659  0.0871
  190SOL    HW1  569   0.785   1.871   2.387  1.5738 -2.3721  0.1858
  190SOL    HW2  570   0.942   1.927   2.397  0.6550  1.8825 -0.6882
  191SOL     OW  571   2.390   0.818   1.582  0.4753 -0.1111  0.0793
  191SOL    HW1  572   2.485   0.794   1.618  0.1334  2.1128 -2.3467
  191SOL    HW2  573   2.387   0.910   1.543 -0.4508 -0.6903  0.9008
  192SOL     OW  574   2.161   0.375   2.154  0.3108 -0.2245  0.1387
  192SOL    HW1  575   2.266   0.383   2.157  1.5596  1.2661  1.5550
  192SOL    HW2  576   2.132   0.290   2.205 -0.8125  0.1978  1.8269
  193SOL     OW  577   0.459   0.439   0.725 -0.0989 -0.0240 -0.3440
  193SOL    HW1  578   0.376   0.394   0.686  1.2424 -5.0678  0.5352
  193SOL    HW2  579   0.456   0.449   0.828  0.0135  0.6152  0.6785
  194SOL     OW  580   1.070   2.390   1.543  0.1491 -0.3105 -0.6980
  194SOL    HW1  581   1.118   2.453   1.604 -2.8491 -0.8108  0.9359
  194SOL    HW2  582   1.113   2.384   1.452  2.5907  3.0789 -2.2016
  195SOL     OW  583   2.625   0.658   0.875  0.1155 -0.0350  0.1629
  195SOL    HW1  584   2.571   0.572   0.886 -2.6072  2.5014 -1.5127
  195SOL    HW2  585   2.570   0.734   0.911 -2.7174  0.0429  4.6982
  196SOL     OW  586   1.104   1.885   1.674 -0.1304 -0.2948 -0.2718
  196SOL    HW1  587   1.040   1.949   1.635 -2.6750 -2.8489 -0.3836
  196SOL    HW2  588   1.091   1.869   1.773 -1.3174  3.1919  0.8537
  197SOL     OW  589   0.437   0.611   2.494 -0.0460 -0.2827 -0.4782
  197SOL    HW1  590   0.383   0.674   2.554 -0.7024  1.9749  1.8412
  197SOL    HW2  591   0.402   0.607   2.398 -2.4532 -1.0881  0.8287
  198SOL     OW  592   1.498   1.160   0.921 -0.5224 -0.1171 -0.4691
  198SOL    HW1  593   1.526   1.216   0.845 -0.2831 -3.0856  1.7314
  198SOL    HW2  594   1.503   1.211   1.009 -1.1313  1.5227  1.1406
  199SOL     OW  595   2.452   0.448   2.207 -0.4220 -0.6244 -0.4728
  199SOL    HW1  596   2.449   0.534   2.258 -0.9682 -1.0970 -0.2780
  199SOL    HW2  597   2.521   0.386   2.248  0.4264  1.3492 -1.0240
  200SOL     OW  598   2.260   2.421   2.277 -0.3369  0.1526  0.5513
  200SOL    HW1  599   2.334   2.482   2.244 -2.8767 -1.1833 -0.1087
  200SOL    HW2  600   2.306   2.343   2.328  0.8183 -0.1187  1.9974
  201SOL     OW  601   2.135   0.288   1.567 -0.4711 -0.4035  0.2292
  201SOL    HW1  602   2.111   0.361   1.638  2.1895  1.7809 -0.4399
  201SOL    HW2  603   2.115   0.193   1.603  0.0848 -1.9938 -0.6530
  202SOL     OW  604   2.172   2.954   0.255  0.3768  0.0638 -0.2439
  202SOL    HW1  605   2.157   3.057   0.237 -0.4650 -0.2937  0.4053
  202SOL    HW2  606   2.185   2.913   0.161  1.3184 -0.9773 -0.6752
  203SOL     OW  607   0.642   1.947   2.416 -0.1538  0.0870  0.2828
  203SOL    HW1  608   0.606   2.028   2.368 -1.2609  1.2820  1.1236
  203SOL    HW2  609   0.649   1.958   2.518  2.4008  0.9547 -2.0793
  204SOL     OW  610   1.061   1.310   2.628  0.7767 -0.4164 -0.0457
  204SOL    HW1  611   0.964   1.302   2.597  0.3871 -0.6565 -1.5781
  204SOL    HW2  612   1.077   1.257   2.715  3.0584 -2.8699  0.1245
  205SOL     OW  613   1.057   0.983   1.542 -0.2815  0.1035 -0.1264
  205SOL    HW1  614   1.076   0.907   1.598 -0.2415  4.2427 -2.6536
  205SOL    HW2  615   1.090   0.967   1.447  0.6981 -2.2261 -0.7859
  206SOL     OW  616   0.644   0.478   2.886  0.4434  0.2124  0.1078
  206SOL    HW1  617   0.669   0.520   2.798 -2.6185 -4.1309  3.8123
  206SOL    HW2  618   0.670   0.379   2.880 -2.4161 -1.4059 -1.9711
  207SOL     OW  619   1.808   2.455   1.858 -0.0986  0.0082  0.3114
  207SOL    HW1  620   1.851   2.478   1.949  0.1188  0.4614 -0.8154
  207SOL    HW2  621   1.804   2.526   1.782  0.0557  0.4281 -0.4558
  208SOL     OW  622   0.833   2.542   0.993 -0.1696 -0.1974  0.4847
  208SOL    HW1  623   0.804   2.623   0.939 -1.2622 -2.0629  2.1933
  208SOL    HW2  624   0.809   2.460   0.946  0.9496  0.4583  2.7791
  209SOL     OW  625   1.279   1.575   2.755  0.1414 -0.2897 -0.1148
  209SOL    HW1  626   1.243   1.629   2.836 -1.5967  0.2949 -1.6184
  209SOL    HW2  627   1.316   1.487   2.784  0.1462  3.7782 -1.4558
  210SOL     OW  628   2.223   0.748   0.861  0.1464  0.7054 -0.1671
  210SOL    HW1  629   2.314   0.761   0.907 -1.8850  0.6546 -1.8208
  210SOL    HW2  630   2.200   0.826   0.797  0.1626  1.1502  1.0100
  211SOL     OW  631   1.121   2.625   0.455 -0.4299 -0.5068 -0.0316
  211SOL    HW1  632   1.128   2.571   0.372 -0.2357 -0.0320  1.5710
  211SOL    HW2  633   1.068   2.583   0.532  0.2978  0.1556  2.8544
  212SOL     OW  634   2.156   2.165   0.147 -0.0972  0.1561  0.3253
  212SOL    HW1  635   2.170   2.123   0.054 -0.4741 -0.0228  1.5663
  212SOL    HW2  636   2.228   2.132   0.206 -3.5202 -1.3611  0.1543
  213SOL     OW  637   1.696   0.406   2.922 -0.0209 -0.1987  0.0985
  213SOL    HW1  638   1.798   0.379   2.925  2.3323 -1.1898  0.4879
  213SOL    HW2  639   1.659   0.393   2.832  2.2306 -1.3231  1.6393
  214SOL     OW  640   1.103   1.841   1.936 -0.5702 -0.2417  0.6334
  214SOL    HW1  641   1.024   1.830   1.997 -1.5332  0.8934 -0.6854
  214SOL    HW2  642   1.159   1.913   1.978 -1.6264  1.7515 -1.1017
  215SOL     OW  643   0.536   1.675   0.486 -0.4872 -0.6412  0.0138
  215SOL    HW1  644   0.550   1.577   0.464  1.4159 -1.4644  1.3076
  215SOL    HW2  645   0.439   1.691   0.517 -0.2423  0.8343  0.3588
  216SOL     OW  646   0.014   0.077   2.488 -0.3697  0.1592 -0.0209
  216SOL    HW1  647   0.094   0.035   2.539  0.7252  0.0742 -2.0518
  216SOL    HW2  648   0.036   0.079   2.388 -3.1954  0.4738  0.1711
  217SOL     OW  649   2.429   0.706   1.198  0.2071  0.2534 -0.1188
  217SOL    HW1  650   2.345   0.649   1.181  0.2687  0.2177  0.9607
  217SOL    HW2  651   2.513   0.652   1.186 -2.6960  1.5119 -3.7876
  218SOL     OW  652   1.515   2.004   2.141 -0.2420  0.6556  0.1153
  218SOL    HW1  653   1.619   2.018   2.134  1.9177 -0.2571  0.1643
  218SOL    HW2  654   1.494   1.909   2.122  2.5400  1.4549  1.8415
  219SOL     OW  655   2.171   1.697   3.094 -0.5572  0.2357 -0.7068
  219SOL    HW1  656   2.170   1.605   3.058  2.1125  0.7839 -1.1432
  219SOL    HW2  657   2.076   1.735   3.088 -0.3222  0.8521  2.8470
  220SOL     OW  658   2.207   0.849   0.418  0.0112 -0.3479 -0.1946
  220SOL    HW1  659   2.136   0.890   0.358  3.1322 -0.6112  2.6076
  220SOL    HW2  660   2.236   0.755   0.389  2.2372 -3.3298 -3.2239
  221SOL     OW  661   0.199   0.625   3.040 -0.2581 -0.3401 -0.1529
  221SOL    HW1  662   0.151   0.659   0.017  1.7664 -0.7467 -2.5680
  221SOL    HW2  663   0.203   0.519   3.038  2.2005 -3.7620  0.2567
  222SOL     OW  664   1.555   1.756   0.599 -0.2915  0.0097 -0.6532
  222SOL    HW1  665   1.627   1.703   0.549  0.3681  1.1028 -0.8640
  222SOL    HW2  666   1.597   1.832   0.644 -1.4788  2.1783  1.3097
  223SOL     OW  667   1.065   0.239   0.170  0.5479  0.3041 -0.7545
  223SOL    HW1  668   1.134   0.286   0.229  3.7071  1.0181 -0.0668
  223SOL    HW2  669   0.998   0.299   0.121 -0.2023 -1.0205 -1.0089
  224SOL     OW  670   1.761   0.036   1.221  0.6412  0.0477 -0.1866
  224SOL    HW1  671   1.759   3.076   1.304  0.7772 -0.1780 -2.1667
  224SOL    HW2  672   1.840   0.087   1.214 -3.5892  0.1861 -1.2742
  225SOL     OW  673   0.743   2.209   1.192 -0.0835 -0.4015 -0.0725
  225SOL    HW1  674   0.758   2.264   1.278 -0.0844 -0.7825 -1.3361
  225SOL    HW2  675   0.759   2.265   1.114 -1.5296 -1.1826 -1.6339
  226SOL     OW  676   1.096   1.453   0.021  0.1425  0.6560  0.4134
  226SOL    HW1  677   1.143   1.518   3.061  0.4324 -0.4123 -1.4637
  226SOL    HW2  678   1.065   1.493   0.109  2.4310 -0.1722 -2.8081
  227SOL     OW  679   1.127   1.496   1.311  0.6029 -0.2274  0.0622
  227SOL    HW1  680   1.077   1.416   1.276  1.3800  1.2739 -1.1510
  227SOL    HW2  681   1.070   1.582   1.294  0.6208  1.8372 -2.0412
  228SOL     OW  682   0.277   1.747   0.553  0.0138  0.4937 -0.4782
  228SOL    HW1  683   0.207   1.710   0.618  2.3063 -1.2502 -0.0738
  228SOL    HW2  684   0.241   1.815   0.488  0.7924 -2.2090  2.2635
  229SOL     OW  685   1.848   0.181   2.737 -0.3970  0.1244  0.4027
  229SOL    HW1  686   1.829   0.257   2.664 -0.3166  2.3542 -1.0424
  229SOL    HW2  687   1.764   0.134   2.768  1.6014 -0.9394  1.5519
  230SOL     OW  688   1.620   1.110   2.758  0.0136 -0.1348  0.4150
  230SOL    HW1  689   1.698   1.080   2.697  3.7322 -0.2565 -2.3653
  230SOL    HW2  690   1.640   1.199   2.806 -1.7227 -1.3186  2.4320
  231SOL     OW  691   0.950   1.579   2.370  0.3117  0.4911  0.1639
  231SOL    HW1  692   0.906   1.517   2.305 -1.6561 -0.7136 -2.7244
  231SOL    HW2  693   0.907   1.670   2.368 -0.1266  2.7860  0.2679
  232SOL     OW  694   2.308   2.380   0.371  0.3321 -0.0407  0.0052
  232SOL    HW1  695   2.208   2.376   0.387 -0.2768 -1.8214 -1.2258
  232SOL    HW2  696   2.345   2.293   0.359 -0.3929  2.2634 -1.9364
  233SOL     OW  697   2.642   2.342   0.422  0.3493  0.1582 -0.5259
  233SOL    HW1  698   2.648   2.327   0.322  0.3015  0.8047 -2.9962
  233SOL    HW2  699   2.565   2.285   0.462 -3.1665 -4.9622  2.9347
  234SOL     OW  700   0.736   0.733   2.896  0.0896  0.2469  0.2827
  234SOL    HW1  701   0.691   0.637   2.913 -0.3548 -2.7593  0.0197
  234SOL    HW2  702   0.825   0.725   2.850 -0.9251  1.2472  2.4304
  235SOL     OW  703   2.701   0.283   2.706 -0.3024  0.9152 -0.6344
  235SOL    HW1  704   2.767   0.219   2.661 -0.0611 -0.6814 -1.3701
  235SOL    HW2  705   2.706   0.374   2.658  2.6051 -1.2000  0.5736
  236SOL     OW  706   1.973   2.393   1.204 -0.2924 -0.3210  0.6842
  236SOL    HW1  707   1.913   2.350   1.271  1.3840  1.0583 -3.6157
  236SOL    HW2  708   2.070   2.376   1.232 -1.0184  3.7454  1.0102
  237SOL     OW  709   0.860   1.837   2.092 -0.7292  0.1379  0.6062
  237SOL    HW1  710   0.851   1.921   2.035  0.1839  0.7046  2.3825
  237SOL    HW2  711   0.857   1.860   2.192  0.1073 -2.4996  3.1814
  238SOL     OW  712   1.502   0.250   2.403  0.4587  0.4902  0.3102
  238SOL    HW1  713   1.407   0.207   2.404 -2.5003 -0.2941 -0.2398
  238SOL    HW2  714   1.511   0.335   2.344  1.0148  2.2156 -0.9316
  239SOL     OW  715   0.389   2.125   1.977 -0.0925 -0.4260 -0.3972
  239SOL    HW1  716   0.402   2.203   2.048 -0.0800  1.4322  0.6917
  239SOL    HW2  717   0.355   2.159   1.887 -1.9300 -0.0493 -0.0755
  240SOL     OW  718   2.361   2.593   0.527 -0.5921  0.1212 -0.5670
  240SOL    HW1  719   2.318   2.679   0.489  1.5891  0.9194 -0.4350
  240SOL    HW2  720   2.333   2.513   0.474 -1.6875  1.9774  1.4421
  241SOL     OW  721   2.449   0.859   0.989 -0.4133  0.7602  0.0219
  241SOL    HW1  722   2.464   0.801   1.073  0.5336 -0.4189 -1.3699
  241SOL    HW2  723   2.440   0.957   1.017  1.6657  0.4011  1.5211
  242SOL     OW  724   2.184   2.397   2.026  0.3751  0.7808  0.2246
  242SOL    HW1  725   2.099   2.342   2.032  1.1901  3.4450  1.5694
  242SOL    HW2  726   2.216   2.415   2.121  1.1269  0.7371  1.7213
  243SOL     OW  727   0.841   2.346   1.411 -0.8461  0.6377 -0.3657
  243SOL    HW1  728   0.925   2.349   1.471 -1.4337  0.8009 -1.8954
  243SOL    HW2  729   0.845   2.426   1.346  1.5272 -1.5903 -1.8019
  244SOL     OW  730   1.961   0.277   2.966 -0.5036 -0.0937 -0.1417
  244SOL    HW1  731   1.952   0.251   2.869  2.8375 -0.7237  1.4419
  244SOL    HW2  732   2.062   0.288   2.985  0.6779 -1.2567 -2.0932
  245SOL     OW  733   1.370   0.108   1.360  0.0593  0.3549  0.4848
  245SOL    HW1  734   1.388   0.151   1.270 -0.9331 -1.0333  0.4330
  245SOL    HW2  735   1.313   0.025   1.344  1.9846 -0.3471  0.4420
  246SOL     OW  736   1.712   2.637   0.163  0.2061  0.2042  0.1577
  246SOL    HW1  737   1.800   2.670   0.117 -0.9040 -0.8060 -0.4104
  246SOL    HW2  738   1.638   2.679   0.112  0.7138  0.0980  1.1675
  247SOL     OW  739   1.304   0.598   2.373 -0.1077  0.4941 -0.1398
  247SOL    HW1  740   1.276   0.575   2.470 -0.8159  0.9087 -0.7434
  247SOL    HW2  741   1.373   0.533   2.337 -1.7865 -0.4693  0.4283
  248SOL     OW  742   0.715   1.804   1.699  0.3813 -0.3222 -0.5641
  248SOL    HW1  743   0.767   1.875   1.645 -0.4265 -0.4861  0.4361
  248SOL    HW2  744   0.653   1.843   1.769  2.1229  0.2010  0.3021
  249SOL     OW  745   2.219   0.164   0.491  0.1526 -0.1118  0.1501
  249SOL    HW1  746   2.216   0.263   0.499  0.3612  0.6401 -3.0147
  249SOL    HW2  747   2.122   0.130   0.503  1.3030 -3.2542 -1.5882
  250SOL     OW  748   2.916   0.442   2.978  0.4653 -0.0082  1.2671
  250SOL    HW1  749   2.891   0.346   2.998  3.5826  0.3793 -0.5084
  250SOL    HW2  750   2.925   0.498   3.066 -2.2763 -3.1249 -1.4156
  251SOL     OW  751   1.452   0.669   3.032  0.1449  0.3481  0.3579
  251SOL    HW1  752   1.499   0.678   0.022  0.1197  1.2160 -1.8150
  251SOL    HW2  753   1.447   0.764   2.998  0.1291 -1.1067  0.8545
  252SOL     OW  754   1.602   1.753   1.782  0.1641 -0.4309 -0.5129
  252SOL    HW1  755   1.621   1.855   1.783 -0.3245 -0.4827  2.0982
  252SOL    HW2  756   1.506   1.735   1.785  1.9918  2.4749  2.8106
  253SOL     OW  757   2.485   2.110   1.078  0.1316  0.2854 -0.5017
  253SOL    HW1  758   2.583   2.131   1.067 -0.2116  0.2607 -1.0155
  253SOL    HW2  759   2.431   2.155   1.006  0.3776 -1.1499 -0.3026
  254SOL     OW  760   2.788   1.138   1.120  0.1728 -0.1839  0.4176
  254SOL    HW1  761   2.859   1.106   1.186  0.8654 -2.5538  0.1089
  254SOL    HW2  762   2.820   1.146   1.021  2.9345  0.3045 -0.2984
  255SOL     OW  763   1.197   0.385   1.010  0.1418  0.1860  0.1864
  255SOL    HW1  764   1.101   0.354   0.987  2.4755  1.5919 -0.5672
  255SOL    HW2  765   1.194   0.462   1.070 -1.5552 -4.1024 -1.0953
  256SOL     OW  766   1.506   2.520   1.320 -0.0337 -0.2905 -0.0843
  256SOL    HW1  767   1.417   2.471   1.295 -3.5968  0.3340  1.4823
  256SOL    HW2  768   1.566   2.529   1.239 -0.3558 -0.5469  1.8200
  257SOL     OW  769   0.713   3.020   2.612  0.0797 -0.1586  0.5434
  257SOL    HW1  770   0.811   3.042   2.597 -0.9243  0.3855  2.2222
  257SOL    HW2  771   0.684   2.965   2.526  0.2954  1.1243  0.7371
  258SOL     OW  772   0.834   2.290   0.543  0.1404 -0.9621  0.3405
  258SOL    HW1  773   0.864   2.382   0.577 -3.4323 -0.2177 -1.8230
  258SOL    HW2  774   0.866   2.215   0.607 -2.3190 -0.3386 -1.2580
  259SOL     OW  775   1.451   3.044   2.654 -0.1608  0.2024  0.8467
  259SOL    HW1  776   1.363   3.026   2.697  0.5020  0.6142  1.7256
  259SOL    HW2  777   1.441   3.026   2.552 -0.4649 -2.0703  1.9739
  260SOL     OW  778   2.337   0.458   1.563  0.4761  0.8009 -0.1510
  260SOL    HW1  779   2.317   0.527   1.491  0.7422 -3.2424 -1.3721
  260SOL    HW2  780   2.274   0.378   1.555  1.0741 -0.0070  0.9173
  261SOL     OW  781   0.685   0.494   2.596  0.1698  0.2126  0.2191
  261SOL    HW1  782   0.589   0.525   2.588 -1.4969 -0.8535  2.1923
  261SOL    HW2  783   0.746   0.559   2.546  0.7875  1.0567 -6.3159
  262SOL     OW  784   0.378   2.268   2.381 -0.1007 -0.0318  0.1287
  262SOL    HW1  785   0.457   2.268   2.453  2.3804 -0.3279  3.6578
  262SOL    HW2  786   0.329   2.356   2.384  0.0911 -2.1494  1.3748
  263SOL     OW  787   0.153   1.711   2.528  0.2045  0.2343  0.7345
  263SOL    HW1  788   0.082   1.764   2.582 -1.8968  0.6746  0.2537
  263SOL    HW2  789   0.198   1.771   2.458  0.8792 -0.1510 -0.5387
  264SOL     OW  790   1.188   1.222   0.818  0.0453 -0.3546 -0.0014
  264SOL    HW1  791   1.223   1.285   0.744 -0.6493 -1.9171  0.6824
  264SOL    HW2  792   1.269   1.180   0.867  0.2426  1.5515  2.9021
  265SOL     OW  793   1.324   2.811   0.495  0.0943  0.6416 -0.2501
  265SOL    HW1  794   1.259   2.733   0.477  0.5485  1.7713 -0.8619
  265SOL    HW2  795   1.382   2.791   0.575  0.2645  0.8866 -2.1583
  266SOL     OW  796   1.624   1.033   1.381 -0.0236  0.2773 -0.1880
  266SOL    HW1  797   1.674   1.024   1.291  0.1764 -0.2162 -3.0029
  266SOL    HW2  798   1.670   1.091   1.451  1.0479  1.9811  0.7401
  267SOL     OW  799   2.451   1.139   2.643 -0.0314  0.3345 -0.3191
  267SOL    HW1  800   2.521   1.138   2.572 -1.7827 -0.1931  0.9160
  267SOL    HW2  801   2.358   1.156   2.603 -0.0671  0.6477 -0.5741
  268SOL     OW  802   1.298   0.394   0.259 -0.4460 -0.5722  0.0598
  268SOL    HW1  803   1.346   0.313   0.294  0.0231  1.5189  1.0317
  268SOL    HW2  804   1.331   0.415   0.164 -0.8054 -2.3099 -0.9961
  269SOL     OW  805   3.001   0.808   2.711 -0.2565  0.0112 -0.1907
  269SOL    HW1  806   3.027   0.777   2.618  0.7571  0.1177  1.2268
  269SOL    HW2  807   3.081   0.819   2.774 -2.0588  0.6798 -0.6955
  270SOL     OW  808   0.203   1.456   3.091  0.2594  0.5609  0.4341
  270SOL    HW1  809   0.232   1.440   0.088 -0.5431  1.2709  0.7518
  270SOL    HW2  810   0.284   1.450   3.032  1.1531  1.3348 -0.8787
  271SOL     OW  811   2.537   0.976   3.088 -0.1730 -0.0687 -0.8719
  271SOL    HW1  812   2.498   0.977   2.995  1.1016 -1.8071 -0.2786
  271SOL    HW2  813   2.591   0.887   3.094  0.4092 -0.0424 -0.7942
  272SOL     OW  814   2.971   2.487   2.257 -0.0210  0.0741  0.6577
  272SOL    HW1  815   2.917   2.569   2.227  0.9471  1.5569  0.2305
  272SOL    HW2  816   3.010   2.510   2.349  0.9538  0.8635  0.8174
  273SOL     OW  817   0.008   0.142   0.074  0.0394  0.2981 -0.3003
  273SOL    HW1  818   0.037   0.229   0.119  0.8254  4.8856 -0.7788
  273SOL    HW2  819   0.024   0.064   0.140 -0.3701 -0.2195 -1.3206
  274SOL     OW  820   0.906   2.103   0.770  0.1026 -0.0073  0.3467
  274SOL    HW1  821   0.838   2.023   0.775 -0.3828  0.0812 -0.9276
  274SOL    HW2  822   0.982   2.093   0.833 -3.7768 -0.6458 -1.3609
  275SOL     OW  823   2.382   0.640   0.586 -0.1374 -0.2669  0.6249
  275SOL    HW1  824   2.422   0.600   0.670 -0.6485 -1.5270 -2.1842
  275SOL    HW2  825   2.374   0.744   0.589 -1.4370  0.0177  1.6694
  276SOL     OW  826   2.442   1.399   1.167  0.5081  0.1672 -0.2493
  276SOL    HW1  827   2.405   1.315   1.203  4.7945  1.8448 -0.6333
  276SOL    HW2  828   2.374   1.473   1.171  2.4731 -0.5974 -1.8974
  277SOL     OW  829   2.532   0.005   0.848  0.3039  0.2874  0.1336
  277SOL    HW1  830   2.604   3.034   0.843 -2.2720 -0.4492 -2.0534
  277SOL    HW2  831   2.509   0.034   0.945 -1.0848 -1.3963 -0.2524
  278SOL     OW  832   1.662   2.627   2.245 -0.8968 -0.6951  0.0815
  278SOL    HW1  833   1.581   2.575   2.280  0.0524  2.8711  0.8015
  278SOL    HW2  834   1.689   2.696   2.314  0.6936 -3.1887 -0.7710
  279SOL     OW  835   1.302   2.309   0.977 -1.1637 -0.4818 -0.0883
  279SOL    HW1  836   1.238   2.343   1.050 -0.5372  0.8171  0.1656
  279SOL    HW2  837   1.264   2.328   0.885  0.5436 -0.7559 -0.8295
  280SOL     OW  838   0.371   0.961   0.991  0.4032 -0.1665 -0.0409
  280SOL    HW1  839   0.369   1.040   0.928 -0.6665 -0.8577  3.0497
  280SOL    HW2  840   0.443   0.978   1.060 -0.5838  0.2031  0.1495
  281SOL     OW  841   2.496   1.300   2.855 -0.3793  0.4213  0.5519
  281SOL    HW1  842   2.512   1.241   2.776 -0.1925  0.7649  0.8965
  281SOL    HW2  843   2.460   1.395   2.823  0.8172 -0.4296  0.2284
  282SOL     OW  844   0.326   1.293   0.210  0.0306 -0.1718  0.2141
  282SOL    HW1  845   0.238   1.255   0.241  0.4520  0.1594 -2.5096
  282SOL    HW2  846   0.385   1.219   0.169  0.6030 -4.5748 -3.9788
  283SOL     OW  847   1.746   2.617   2.816 -0.0248 -0.4393  0.4090
  283SOL    HW1  848   1.804   2.671   2.884 -0.2922  3.9317  0.4199
  283SOL    HW2  849   1.803   2.575   2.742 -3.1426 -0.9707 -2.0741
  284SOL     OW  850   0.951   0.055   0.712  0.1790  0.4538 -0.0988
  284SOL    HW1  851   0.886   3.096   0.662  2.1627 -0.9069 -2.3897
  284SOL    HW2  852   1.009   0.107   0.650  2.7576  1.8176  0.8747
  285SOL     OW  853   2.202   1.194   2.542 -0.2049 -0.3893 -0.3842
  285SOL    HW1  854   2.172   1.269   2.486  2.0337  0.5740  0.1153
  285SOL    HW2  855   2.138   1.182   2.618  0.9351  1.4271  0.7056
  286SOL     OW  856   1.534   2.647   0.981  0.2352 -0.0877 -0.0489
  286SOL    HW1  857   1.615   2.650   1.042 -1.9745 -1.4611  1.3145
  286SOL    HW2  858   1.539   2.572   0.911  1.0164  1.8641 -3.1365
  287SOL     OW  859   1.292   0.576   0.789 -0.0955 -0.6393  0.0411
  287SOL    HW1  860   1.256   0.503   0.849  0.6630 -0.1987 -0.9522
  287SOL    HW2  861   1.247   0.661   0.821  0.0442  0.0847  0.5501
  288SOL     OW  862   0.880   2.773   2.682 -0.0895 -0.1952 -0.0064
  288SOL    HW1  863   0.857   2.788   2.781 -0.1322  2.3855 -2.8383
  288SOL    HW2  864   0.799   2.734   2.630 -1.2342 -0.6202 -0.3113
  289SOL     OW  865   0.115   1.500   1.008 -0.4280 -0.5500  0.0801
  289SOL    HW1  866   0.148   1.421   1.063 -0.3100 -0.5320 -0.4120
  289SOL    HW2  867   0.018   1.498   1.022  1.2842  1.0323 -2.0965
  290SOL     OW  868   1.215   2.100   0.649 -0.5555  0.3765  0.3704
  290SOL    HW1  869   1.202   2.121   0.745  2.0736  0.6068  0.2654
  290SOL    HW2  870   1.199   2.183   0.587 -1.1038 -0.1813 -1.3149
  291SOL     OW  871   1.506   3.041   0.124 -0.4110  0.0176  0.3909
  291SOL    HW1  872   1.538   0.036   0.109 -0.1734  0.7259 -1.9535
  291SOL    HW2  873   1.567   2.982   0.069 -0.6843  3.2544  1.5102
  292SOL     OW  874   0.352   0.350   2.124  0.1648  0.1616 -0.1364
  292SOL    HW1  875   0.391   0.302   2.204 -0.2672 -2.0380  1.2178
  292SOL    HW2  876   0.325   0.447   2.147 -1.2546  0.4259 -2.2180
  293SOL     OW  877   2.739   1.642   0.995  0.0937  0.0811  0.6206
  293SOL    HW1  878   2.694   1.643   0.903 -1.2576 -0.0161  0.0172
  293SOL    HW2  879   2.665   1.655   1.063 -0.2840  0.9019  1.8581
  294SOL     OW  880   0.789   0.074   2.265  1.0651 -0.5340  0.3887
  294SOL    HW1  881   0.730   0.106   2.345 -1.2537  0.1111  1.3119
  294SOL    HW2  882   0.828   3.083   2.277  0.7354 -2.5543  1.5258
  295SOL     OW  883   1.325   1.794   0.925 -0.1199 -0.4983  0.5103
  295SOL    HW1  884   1.390   1.724   0.955 -0.2367  0.3796 -0.0684
  295SOL    HW2  885   1.266   1.760   0.854  0.2154 -1.8454  3.4928
  296SOL     OW  886   2.427   2.148   0.263 -0.0282 -0.2403  0.2581
  296SOL    HW1  887   2.473   2.054   0.255 -0.8100 -3.9357  2.0489
  296SOL    HW2  888   2.482   2.215   0.213  1.0708 -0.1902  0.4757
  297SOL     OW  889   2.486   3.044   0.061  0.4679  0.3730 -0.4121
  297SOL    HW1  890   2.465   3.073   0.159  1.4743  0.5336 -1.8565
  297SOL    HW2  891   2.486   2.939   0.052  0.0418 -2.8479  0.1803
  298SOL     OW  892   1.170   0.400   2.898  0.3634  0.2461 -0.3738
  298SOL    HW1  893   1.138   0.366   2.806  0.3252  0.4616 -0.5367
  298SOL    HW2  894   1.131   0.494   2.910  0.8693  0.4750 -0.5534
  299SOL     OW  895   0.668   2.618   2.544 -0.2545  0.4913 -0.1733
  299SOL    HW1  896   0.584   2.617   2.484 -0.6495  1.6382  2.9788
  299SOL    HW2  897   0.641   2.591   2.636  1.7935  0.5176 -0.9340
  300SOL     OW  898   2.746   3.092   2.351 -0.0464 -0.1524  0.1667
  300SOL    HW1  899   2.654   0.026   2.342 -0.7380 -0.1212  1.9104
  300SOL    HW2  900   2.807   0.007   2.272 -2.6185  2.7339 -1.9026
  301SOL     OW  901   1.407   0.182   1.701 -0.0429  0.4109 -0.7261
  301SOL    HW1  902   1.394   0.225   1.791  0.5795 -0.6652 -0.5486
  301SOL    HW2  903   1.437   0.245   1.626 -0.1332  0.0729 -2.4066
  302SOL     OW  904   3.078   2.421   2.994 -0.0140  0.1045  0.3656
  302SOL    HW1  905   0.052   2.432   3.066  2.8103 -0.6095  0.1830
  302SOL    HW2  906   0.024   2.407   2.903 -1.0613 -1.1574  1.5810
  303SOL     OW  907   2.034   2.112   1.580 -0.2055 -0.4744 -0.6213
  303SOL    HW1  908   1.947   2.066   1.547  0.4764  1.6371  0.2934
  303SOL    HW2  909   2.076   2.187   1.519  0.8676 -0.7331 -4.1370
  304SOL     OW  910   2.739   0.892   1.519 -0.3274  0.0183  0.2518
  304SOL    HW1  911   2.718   0.885   1.423 -0.2286  1.0288 -0.2045
  304SOL    HW2  912   2.841   0.909   1.535 -0.5995  1.6170  0.5216
  305SOL     OW  913   0.513   1.617   0.854  0.2417  0.2332  0.5015
  305SOL    HW1  914   0.586   1.651   0.916 -1.7152  0.6514  0.6813
  305SOL    HW2  915   0.427   1.648   0.894 -0.8901  0.8272  0.0459
  306SOL     OW  916   0.580   1.450   2.422  0.1211  0.1470 -0.4649
  306SOL    HW1  917   0.497   1.500   2.462 -1.4271  1.1780  3.3465
  306SOL    HW2  918   0.565   1.347   2.426 -1.7209 -2.7059  2.0203
  307SOL     OW  919   0.994   0.116   1.378  0.3290 -0.3506 -0.4693
  307SOL    HW1  920   1.022   0.126   1.477 -2.2671 -1.9618  3.3959
  307SOL    HW2  921   1.063   0.071   1.322 -0.3209  0.8142 -1.8717
  308SOL     OW  922   0.188   0.700   0.989  0.1852  0.0362 -0.4868
  308SOL    HW1  923   0.159   0.687   0.896  1.1955 -1.1792  0.9641
  308SOL    HW2  924   0.273   0.761   0.991  1.9547  3.1113 -1.9692
  309SOL     OW  925   2.512   1.121   0.983  0.4629 -0.0228  0.0608
  309SOL    HW1  926   2.524   1.131   0.880  1.1390  3.2368 -3.3690
  309SOL    HW2  927   2.594   1.139   1.038 -0.8279  0.5234  1.0639
  310SOL     OW  928   0.373   1.999   2.639  0.2111  0.7366 -0.5067
  310SOL    HW1  929   0.468   2.011   2.605  1.5978  1.3591 -2.1002
  310SOL    HW2  930   0.305   2.035   2.569 -1.2251  2.9760 -0.8636
  311SOL     OW  931   2.557   2.509   2.295  0.2120  0.4267  0.0563
  311SOL    HW1  932   2.573   2.564   2.208  1.3842  0.2880 -0.0416
  311SOL    HW2  933   2.584   2.564   2.376 -1.8843 -0.9381 -0.5670
  312SOL     OW  934   2.188   2.038   3.009  0.2068  0.0519  0.1351
  312SOL    HW1  935   2.196   2.119   2.949  0.3465  3.3073 -2.5877
  312SOL    HW2  936   2.243   1.959   2.967  0.0898 -0.9450 -1.6980
  313SOL     OW  937   0.292   0.004   0.571  0.1542 -0.5909  0.5291
  313SOL    HW1  938   0.205   0.036   0.603 -1.2529  0.4164  1.8028
  313SOL    HW2  939   0.309   0.036   0.479  0.8408  0.8438  5.7550
  314SOL     OW  940   2.045   1.077   2.774 -0.2491  0.3845 -0.2737
  314SOL    HW1  941   2.009   1.031   2.857  0.1011  2.1512 -2.8643
  314SOL    HW2  942   2.021   1.170   2.775  0.8942 -3.9799  1.1314
  315SOL     OW  943   1.369   3.082   2.380  0.2394  0.7492 -0.3480
  315SOL    HW1  944   1.428   0.015   2.308  1.0813  1.4200  0.5989
  315SOL    HW2  945   1.316   2.995   2.355 -1.4903  0.9733 -0.8128
  316SOL     OW  946   2.908   1.103   0.621 -0.1284 -0.1736 -0.1004
  316SOL    HW1  947   2.891   1.007   0.636 -1.6237 -0.3353  0.3425
  316SOL    HW2  948   2.856   1.135   0.543 -1.1137 -0.1526  0.4253
  317SOL     OW  949   0.612   2.755   2.954 -0.3922  0.2077  0.1683
  317SOL    HW1  950   0.537   2.807   3.004 -1.9733  0.4912  1.8303
  317SOL    HW2  951   0.706   2.796   2.975 -0.3439 -0.3389  3.1020
  318SOL     OW  952   2.557   2.580   1.036  0.2716 -0.0760  0.0090
  318SOL    HW1  953   2.553   2.634   0.947  2.4861 -0.2586  2.4789
  318SOL    HW2  954   2.480   2.599   1.098 -1.1473  0.7204 -1.4484
  319SOL     OW  955   1.022   1.913   2.643 -0.2652 -0.0649 -0.1398
  319SOL    HW1  956   1.061   1.950   2.556  1.6959 -2.6494  1.4364
  319SOL    HW2  957   0.999   1.814   2.643  1.7037 -3.2272 -2.3153
  320SOL     OW  958   0.478   1.956   1.254 -0.5204 -0.2400 -0.2979
  320SOL    HW1  959   0.461   1.857   1.265 -1.2897  2.2322 -0.9853
  320SOL    HW2  960   0.476   2.003   1.346  2.4714  2.4811  0.4489
  321SOL     OW  961   1.198   2.710   2.093 -0.6676 -0.2586  0.0220
  321SOL    HW1  962   1.178   2.794   2.038 -0.2873 -0.6947  0.4548
  321SOL    HW2  963   1.240   2.634   2.036 -3.3449 -2.3208 -4.7374
  322SOL     OW  964   2.428   1.794   2.036 -0.2102  0.1659 -0.4581
  322SOL    HW1  965   2.443   1.720   2.100 -0.8959  0.0091 -1.2190
  322SOL    HW2  966   2.472   1.883   2.067 -0.1553  0.4502  0.7743
  323SOL     OW  967   2.840   0.466   1.010  0.0172 -0.1308 -0.1409
  323SOL    HW1  968   2.814   0.531   0.936  1.1979 -0.8838 -0.6429
  323SOL    HW2  969   2.942   0.483   1.028  3.7171  0.2006 -0.3245
  324SOL     OW  970   2.630   2.710   2.472  0.1336 -0.6118 -0.1329
  324SOL    HW1  971   2.616   2.735   2.567  1.6924 -0.9769 -1.2714
  324SOL    HW2  972   2.713   2.768   2.445 -0.6717 -0.8180  0.4204
  325SOL     OW  973   1.047   0.315   2.643 -1.0804 -0.3037 -0.2295
  325SOL    HW1  974   1.101   0.253   2.584 -2.2290  0.6644  2.0656
  325SOL    HW2  975   0.947   0.290   2.628 -1.9558  0.7674 -0.2621
  326SOL     OW  976   2.154   2.524   1.704  0.2649  0.2868  0.2745
  326SOL    HW1  977   2.200   2.605   1.739 -1.1838  0.0715  0.8275
  326SOL    HW2  978   2.163   2.438   1.756 -0.9290 -0.2929 -0.1357
  327SOL     OW  979   2.315   3.019   2.947  0.5838  0.7734 -0.2853
  327SOL    HW1  980   2.376   3.064   3.016 -0.5572  0.8316  2.1680
  327SOL    HW2  981   2.266   2.941   2.997  0.9808 -2.0927  0.1175
  328SOL     OW  982   0.249   1.347   2.056  0.1700  0.1966 -0.2204
  328SOL    HW1  983   0.352   1.367   2.068  2.1019 -1.9007 -0.5970
  328SOL    HW2  984   0.200   1.430   2.018 -2.3780  2.6762  2.5269
  329SOL     OW  985   2.066   0.487   1.763 -0.3012  0.1645 -0.2670
  329SOL    HW1  986   1.967   0.495   1.766  0.5682 -0.8347 -0.6475
  329SOL    HW2  987   2.109   0.566   1.718 -1.2918  2.2377  1.8495
  330SOL     OW  988   0.072   1.158   0.916 -0.5764  0.2588  0.4658
  330SOL    HW1  989   0.019   1.069   0.928 -0.7101 -0.7838 -0.2261
  330SOL    HW2  990   0.114   1.193   1.003 -0.8871  2.1181  2.0725
  331SOL     OW  991   0.548   1.439   1.940 -0.2427  0.3468 -0.2943
  331SOL    HW1  992   0.559   1.497   2.025  1.6621  2.9988  1.8116
  331SOL    HW2  993   0.632   1.386   1.917 -1.8691  4.4996  3.2301
  332SOL     OW  994   0.166   2.578   1.628 -0.0938  0.5310  0.0585
  332SOL    HW1  995   0.260   2.601   1.614 -3.8348 -2.2038 -3.5201
  332SOL    HW2  996   0.135   2.526   1.550  1.4782  1.0463  2.4235
  333SOL     OW  997   2.575   0.215   1.136 -0.3315  0.2987  0.0990
  333SOL    HW1  998   2.662   0.217   1.087 -0.4601 -0.3612  2.2670
  333SOL    HW2  999   2.588   0.207   1.238 -0.1172  0.9111  0.3153
  334SOL     OW 1000   0.115   1.587   0.747  0.1564 -0.4193 -0.5417
  334SOL    HW1 1001   0.136   1.517   0.676 -0.1059 -2.9679 -0.4893
  334SOL    HW2 1002   0.141   1.553   0.840  2.7529  0.5798  3.2313
  335SOL     OW 1003   0.148   2.672   2.785  0.0710 -0.1312  0.2192
  335SOL    HW1 1004   0.138   2.575   2.753  1.1575 -1.2763 -2.4505
  335SOL    HW2 1005   0.232   2.721   2.752  1.9795  2.8582 -0.9505
  336SOL     OW 1006   2.851   2.853   2.415 -0.1234  0.8316 -0.0215
  336SOL    HW1 1007   2.899   2.852   2.506 -1.7700  0.5204  1.4764
  336SOL    HW2 1008   2.827   2.949   2.389  2.0042 -2.5080  1.0287
  337SOL     OW 1009   2.006   2.271   1.798  0.1099 -0.2852 -0.0593
  337SOL    HW1 1010   1.993   2.218   1.710  0.9325  2.9105  0.8877
  337SOL    HW2 1011   1.924   2.337   1.807 -0.3880 -0.4369  1.2435
  338SOL     OW 1012   0.895   0.038   3.052 -0.1211  0.4892 -0.3528
  338SOL    HW1 1013   0.861   0.042   0.047  3.0559 -0.1723  1.0089
  338SOL    HW2 1014   0.971   0.106   3.038  0.1679  3.1488  1.8359
  339SOL     OW 1015   0.501   1.173   2.190  0.2597 -0.1929  0.4566
  339SOL    HW1 1016   0.574   1.165   2.260 -1.2856 -1.4982  2.3723
  339SOL    HW2 1017   0.520   1.116   2.105  0.4411  1.3338 -1.5853
  340SOL     OW 1018   1.607   2.955   0.832 -0.3322 -0.3894 -0.5317
  340SOL    HW1 1019   1.705   2.946   0.804 -0.7377  0.5249 -1.6465
  340SOL    HW2 1020   1.563   3.026   0.773 -0.3204 -0.6634 -0.6262
  341SOL     OW 1021   1.955   1.127   0.939 -0.3691 -0.1655 -0.0877
  341SOL    HW1 1022   2.019   1.053   0.984  2.4134 -2.0321  0.8137
  341SOL    HW2 1023   1.972   1.221   0.976 -1.6114  2.2339 -0.6739
  342SOL     OW 1024   2.483   2.773   0.036 -0.4092 -0.3225  0.0245
  342SOL    HW1 1025   2.463   2.685   0.081  0.2660  0.8068 -0.2056
  342SOL    HW2 1026   2.572   2.760   3.081 -2.2624 -0.2787 -0.5892
  343SOL     OW 1027   0.904   2.275   1.712  0.2079  0.0499  0.0004
  343SOL    HW1 1028   0.899   2.333   1.794 -0.2854 -0.5804 -1.1706
  343SOL    HW2 1029   0.970   2.321   1.651 -1.0506 -0.7847  0.1720
  344SOL     OW 1030   2.516   2.633   1.385 -0.1058  0.6868 -0.1831
  344SOL    HW1 1031   2.534   2.697   1.463 -0.1125 -0.1419  4.2434
  344SOL    HW2 1032   2.576   2.551   1.393 -1.0605 -2.3537 -0.3981
  345SOL     OW 1033   2.613   1.977   2.920 -0.4522  0.1329 -0.1291
  345SOL    HW1 1034   2.648   2.032   2.844  0.5768  2.5069  0.7696
  345SOL    HW2 1035   2.670   1.898   2.947 -0.2632  1.5963  0.1857
  346SOL     OW 1036   2.226   2.138   0.588 -0.4670  0.0047 -0.7748
  346SOL    HW1 1037   2.297   2.209   0.613  1.4484  1.9517 -0.8044
  346SOL    HW2 1038   2.159   2.134   0.664 -0.8680 -0.9661 -0.7142
  347SOL     OW 1039   1.419   2.071   0.994  0.1392  0.1971 -0.2316
  347SOL    HW1 1040   1.368   2.162   0.976 -0.6065  0.7134 -0.9627
  347SOL    HW2 1041   1.369   1.988   0.967 -1.9693  0.1573 -0.1195
  348SOL     OW 1042   0.516   1.816   2.193 -0.1077 -0.2311  0.2797
  348SOL    HW1 1043   0.541   1.721   2.181 -2.5321 -0.5316  1.6341
  348SOL    HW2 1044   0.558   1.855   2.276  0.3516  0.8780 -0.8850
  349SOL     OW 1045   1.962   1.578   0.631  0.0395  0.6057  0.0444
  349SOL    HW1 1046   1.949   1.515   0.710 -0.4931  1.5208 -0.3258
  349SOL    HW2 1047   2.008   1.526   0.555 -0.0637 -0.8276 -1.6117
  350SOL     OW 1048   2.741   2.518   0.655 -0.1288 -0.4287  0.2499
  350SOL    HW1 1049   2.776   2.475   0.739 -1.2187  0.8084  0.2443
  350SOL    HW2 1050   2.712   2.456   0.585  2.0215  2.0664  2.1790
  351SOL     OW 1051   0.396   2.817   1.591 -0.4180  0.4522 -0.5193
  351SOL    HW1 1052   0.450   2.761   1.533  1.6016  1.1529  1.6629
  351SOL    HW2 1053   0.316   2.867   1.546  0.3897 -0.3878 -2.2186
  352SOL     OW 1054   0.532   1.425   1.272  0.2734 -0.1743 -0.1183
  352SOL    HW1 1055   0.458   1.381   1.331  1.9038 -0.8901  2.7247
  352SOL    HW2 1056   0.522   1.410   1.170  1.6559 -0.0467 -0.8558
  353SOL     OW 1057   1.333   1.207   2.588  0.2638 -0.1038  0.2004
  353SOL    HW1 1058   1.252   1.264   2.614  1.8187 -0.0013  0.8083
  353SOL    HW2 1059   1.382   1.180   2.674 -0.7466 -1.8366 -0.5261
  354SOL     OW 1060   1.537   3.029   1.656 -0.1115  0.1738 -0.4198
  354SOL    HW1 1061   1.510   0.029   1.666  4.1851  1.6058  2.6231
  354SOL    HW2 1062   1.506   2.973   1.739  1.4337 -2.4248  0.7033
  355SOL     OW 1063   2.509   1.227   0.352  0.3829 -0.7159  0.0371
  355SOL    HW1 1064   2.498   1.315   0.405 -1.5893  2.1516 -2.2511
  355SOL    HW2 1065   2.477   1.247   0.259  0.3009  1.8947 -0.6903
  356SOL     OW 1066   2.855   1.593   1.689 -0.3584 -0.9631 -0.0317
  356SOL    HW1 1067   2.796   1.676   1.680 -0.4829  3.1370  1.5310
  356SOL    HW2 1068   2.942   1.598   1.635  0.3395 -0.5881  0.8758
  357SOL     OW 1069   0.550   2.646   1.431  0.3196  0.1974 -0.4630
  357SOL    HW1 1070   0.471   2.596   1.382 -1.6202 -2.4952 -0.1119
  357SOL    HW2 1071   0.568   2.725   1.370  0.7927 -0.3019  1.9491
  358SOL     OW 1072   2.658   1.233   1.781 -0.1776 -0.6253  0.0814
  358SOL    HW1 1073   2.663   1.261   1.684  0.5858 -0.8811  1.3026
  358SOL    HW2 1074   2.555   1.227   1.800 -1.2042 -1.7488 -1.3291
  359SOL     OW 1075   2.180   2.787   2.478 -0.0356  0.6868  0.4339
  359SOL    HW1 1076   2.137   2.695   2.443 -3.5536 -4.2829 -0.8574
  359SOL    HW2 1077   2.127   2.826   2.550  1.6774 -0.9999 -3.2924
  360SOL     OW 1078   0.722   0.366   0.883 -0.1342 -0.0195  0.0897
  360SOL    HW1 1079   0.769   0.429   0.812 -0.2336 -1.3601  0.0198
  360SOL    HW2 1080   0.637   0.407   0.916 -2.5084 -1.0745  0.9827
  361SOL     OW 1081   1.976   0.128   0.737  1.0712  0.5226 -0.1098
  361SOL    HW1 1082   2.012   0.059   0.803  2.2233  0.0210  1.0140
  361SOL    HW2 1083   2.042   0.203   0.733 -0.2530 -2.3803 -0.1753
  362SOL     OW 1084   1.750   1.065   1.144  0.4133 -0.3469  0.4494
  362SOL    HW1 1085   1.761   0.963   1.121 -0.5535 -1.5602 -3.4432
  362SOL    HW2 1086   1.808   1.119   1.082 -1.7536 -2.0715  3.3426
  363SOL     OW 1087   2.266   1.391   2.129  0.5532 -0.2164 -0.3993
  363SOL    HW1 1088   2.367   1.389   2.132  2.3435 -0.1900  0.1801
  363SOL    HW2 1089   2.230   1.344   2.046 -0.9359 -0.0075  1.2258
  364SOL     OW 1090   0.354   2.986   1.156 -0.1869  0.2419 -0.1094
  364SOL    HW1 1091   0.296   2.959   1.233  1.6414  2.3092 -2.4303
  364SOL    HW2 1092   0.299   2.991   1.075 -0.9545  1.2147  1.7142
  365SOL     OW 1093   0.487   0.083   2.978 -0.1862 -0.3934  0.1749
  365SOL    HW1 1094   0.422   0.162   2.979 -0.6647 -0.4854 -0.6579
  365SOL    HW2 1095   0.581   0.115   2.973 -1.1627 -0.0094 -2.0683
  366SOL     OW 1096   1.999   2.375   0.087 -0.4703  0.4405  0.1584
  366SOL    HW1 1097   2.059   2.295   0.116 -1.3334 -0.9541 -1.2866
  366SOL    HW2 1098   2.041   2.466   0.118  0.6280 -0.9350 -4.0055
  367SOL     OW 1099   2.584   2.469   2.980 -0.0195 -0.5254  0.1612
  367SOL    HW1 1100   2.531   2.385   2.997 -3.8557  0.0744 -0.7065
  367SOL    HW2 1101   2.677   2.469   3.022  1.6597 -3.3737  0.0622
  368SOL     OW 1102   0.137   1.279   1.173  0.0588  0.1650 -0.1315
  368SOL    HW1 1103   0.045   1.267   1.216 -0.2291  0.7351  2.3624
  368SOL    HW2 1104   0.212   1.268   1.240 -2.0669 -0.1073 -0.7432
  369SOL     OW 1105   0.868   2.858   2.971 -0.2417  0.0155 -0.3754
  369SOL    HW1 1106   0.925   2.801   3.033 -2.0551 -2.3070 -2.4215
  369SOL    HW2 1107   0.880   2.956   2.979  0.4202 -4.0750 -1.0269
  370SOL     OW 1108   2.872   0.656   0.428  0.1184 -0.0003  0.3411
  370SOL    HW1 1109   2.968   0.655   0.395  1.6698  0.9876  2.3722
  370SOL    HW2 1110   2.831   0.748   0.421 -0.8498 -1.0493 -0.7471
  371SOL     OW 1111   1.532   2.459   0.782  0.1813  0.4923 -0.5651
  371SOL    HW1 1112   1.580   2.369   0.770  3.2618 -1.1967 -2.1428
  371SOL    HW2 1113   1.427   2.449   0.772 -2.4020 -0.0783  0.7169
  372SOL     OW 1114   3.051   1.154   2.873  0.0294 -0.2307  0.2312
  372SOL    HW1 1115   3.085   1.053   2.886  1.1798 -2.3688  1.1145
  372SOL    HW2 1116   3.078   1.189   2.778 -0.0369 -0.2558 -0.2044
  373SOL     OW 1117   2.825   1.796   1.275 -0.0766  0.2840  0.1147
  373SOL    HW1 1118   2.887   1.715   1.283  0.9803  0.1251 -0.8597
  373SOL    HW2 1119   2.727   1.770   1.263  0.8335  0.0990 -0.0113
  374SOL     OW 1120   0.451   2.807   0.186  0.1386 -0.1007  0.1588
  374SOL    HW1 1121   0.423   2.875   0.110 -0.8109  0.2483 -3.0265
  374SOL    HW2 1122   0.510   2.733   0.149 -2.8941 -1.8101 -0.2062
  375SOL     OW 1123   0.547   0.195   0.217  0.3765  0.1765  0.2479
  375SOL    HW1 1124   0.459   0.185   0.273 -3.6436  2.1666  5.0561
  375SOL    HW2 1125   0.529   0.268   0.150  2.5915 -3.2214 -1.2282
  376SOL     OW 1126   0.232   2.212   1.529  0.0090 -0.2093 -0.0090
  376SOL    HW1 1127   0.164   2.137   1.544 -2.9393 -3.6051  3.0319
  376SOL    HW2 1128   0.216   2.275   1.448 -0.7056  1.4914 -0.5794
  377SOL     OW 1129   1.914   2.286   2.768  0.0214  0.4074 -0.1157
  377SOL    HW1 1130   1.927   2.267   2.672 -1.6714 -1.5742  2.1612
  377SOL    HW2 1131   1.959   2.374   2.800  2.4169 -0.9817  0.4862
  378SOL     OW 1132   0.862   0.662   0.193  0.8029 -0.1794  0.7190
  378SOL    HW1 1133   0.902   0.727   0.130  0.4491 -1.5322  1.2009
  378SOL    HW2 1134   0.880   0.688   0.286 -1.6347 -2.8886 -1.9615
  379SOL     OW 1135   0.392   1.249   0.578  0.0334  0.5617  0.1724
  379SOL    HW1 1136   0.451   1.208   0.507 -0.5873  1.0431 -0.7070
  379SOL    HW2 1137   0.436   1.330   0.617 -1.8103  0.4306 -0.6836
  380SOL     OW 1138   0.049   1.897   1.785  0.3512  0.5962 -0.0159
  380SOL    HW1 1139   0.110   1.818   1.772 -0.9069  3.5975 -1.5598
  380SOL    HW2 1140   0.085   1.950   1.864  2.5355 -0.6896 -2.0420
  381SOL     OW 1141   0.538   0.994   1.957 -0.0790  0.7085  0.1302
  381SOL    HW1 1142   0.588   0.906   1.959 -0.4942 -0.7181 -0.7571
  381SOL    HW2 1143   0.554   1.042   1.868 -0.4124 -2.9184 -2.0756
  382SOL     OW 1144   2.429   1.960   0.524  0.1376 -0.1611  0.4483
  382SOL    HW1 1145   2.345   2.019   0.536 -0.5418 -0.1628 -0.3208
  382SOL    HW2 1146   2.429   1.911   0.433 -0.3684 -1.0940 -2.0168
  383SOL     OW 1147   2.693   2.121   2.700  0.5979  0.0653  0.2660
  383SOL    HW1 1148   2.780   2.069   2.680  2.9403 -1.1252 -2.3861
  383SOL    HW2 1149   2.701   2.218   2.672 -0.8361 -2.3341  0.9510
  384SOL     OW 1150   0.583   2.239   2.539 -0.2006 -0.0886 -0.0773
  384SOL    HW1 1151   0.655   2.297   2.498 -1.0340 -0.2132  0.6300
  384SOL    HW2 1152   0.616   2.168   2.603  1.4365  0.2921 -1.6863
  385SOL     OW 1153   2.935   1.446   1.041  0.2510  0.0098  0.1809
  385SOL    HW1 1154   2.876   1.531   1.036 -0.6461 -0.0492 -0.9660
  385SOL    HW2 1155   2.908   1.386   0.964  0.4884 -1.2090  0.4019
  386SOL     OW 1156   2.040   1.346   1.153  0.6894 -0.3780  0.1727
  386SOL    HW1 1157   1.951   1.394   1.155  1.4167 -1.0384 -2.5158
  386SOL    HW2 1158   2.115   1.409   1.124  3.1694  1.8613  0.2110
  387SOL     OW 1159   3.055   1.097   1.961 -0.5351 -0.9060  0.1311
  387SOL    HW1 1160   2.967   1.071   1.909  0.7554  1.8382  0.4616
  387SOL    HW2 1161   3.082   1.192   1.941  1.5365  1.2472  2.8054
  388SOL     OW 1162   2.596   1.348   2.191 -0.5057 -0.0639 -0.2886
  388SOL    HW1 1163   2.643   1.315   2.273 -2.4272 -1.2846 -2.0992
  388SOL    HW2 1164   2.664   1.384   2.127 -0.4967  0.7463  0.8317
  389SOL     OW 1165   2.163   1.268   1.902  0.1869  0.2745  0.2465
  389SOL    HW1 1166   2.104   1.208   1.958  0.5064  1.9327  0.4136
  389SOL    HW2 1167   2.230   1.210   1.853  0.9613  1.7966 -0.4679
  390SOL     OW 1168   1.969   2.748   0.695  0.2316 -0.1634  0.2601
  390SOL    HW1 1169   1.897   2.805   0.648  0.3291  1.2414  0.2737
  390SOL    HW2 1170   1.937   2.653   0.707  2.0410 -0.1449 -2.6750
  391SOL     OW 1171   2.459   1.805   1.010  0.0502  0.0261  0.1433
  391SOL    HW1 1172   2.359   1.805   0.986 -0.6331 -0.0854 -0.0434
  391SOL    HW2 1173   2.494   1.900   1.025  1.4927 -0.5548 -0.3608
  392SOL     OW 1174   0.128   2.703   1.247  0.1347 -0.6946 -0.3709
  392SOL    HW1 1175   0.118   2.615   1.201 -0.4986  2.1144  3.5402
  392SOL    HW2 1176   0.041   2.754   1.224 -0.9674 -0.3997  2.1418
  393SOL     OW 1177   2.037   1.986   2.742 -0.0237  0.2349  0.0550
  393SOL    HW1 1178   2.024   2.062   2.807  1.3760  0.7150  1.6841
  393SOL    HW2 1179   1.967   1.913   2.765  1.7310  1.1532 -0.1901
  394SOL     OW 1180   0.205   0.334   2.622  0.2055 -0.3122 -0.3996
  394SOL    HW1 1181   0.113   0.322   2.670 -0.9366 -1.8146  1.6945
  394SOL    HW2 1182   0.261   0.399   2.673 -2.0769  0.3391  0.3374
  395SOL     OW 1183   0.682   0.663   0.952 -0.2755 -0.1788 -0.3790
  395SOL    HW1 1184   0.739   0.634   0.871  1.2148 -1.4639  1.5849
  395SOL    HW2 1185   0.750   0.662   1.030 -0.8248  0.4794 -1.1641
  396SOL     OW 1186   1.250   0.981   0.397 -0.1964  0.1706 -0.1862
  396SOL    HW1 1187   1.179   1.037   0.434  4.3316 -2.4139 -1.8095
  396SOL    HW2 1188   1.226   0.918   0.320  0.2084 -1.7480  0.4602
  397SOL     OW 1189   0.309   0.854   2.119 -0.3981 -0.1398 -0.3583
  397SOL    HW1 1190   0.385   0.894   2.059  0.6077 -0.9282  0.9678
  397SOL    HW2 1191   0.219   0.859   2.074  0.7336 -0.1330 -1.1841
  398SOL     OW 1192   0.976   0.099   0.414 -0.0358 -0.3729  0.1823
  398SOL    HW1 1193   0.896   0.038   0.424  1.6380  0.3924  0.5216
  398SOL    HW2 1194   1.067   0.046   0.405  0.8987 -1.9912  2.6736
  399SOL     OW 1195   1.996   3.081   1.572 -0.0768  0.0618 -0.0068
  399SOL    HW1 1196   1.981   0.011   1.665 -1.6466  0.8539  1.7544
  399SOL    HW2 1197   1.907   3.043   1.538 -2.1571 -1.8518 -1.5016
  400SOL     OW 1198   0.843   1.655   1.891 -0.3416  0.6447  0.6188
  400SOL    HW1 1199   0.842   1.723   1.967 -0.1449  3.7749 -1.0352
  400SOL    HW2 1200   0.800   1.689   1.808 -1.2290  0.5777  1.0153
  401SOL     OW 1201   0.559   0.862   2.739  0.4613  0.4514  0.1763
  401SOL    HW1 1202   0.646   0.837   2.787 -2.6373 -1.8379 -0.8839
  401SOL    HW2 1203   0.505   0.775   2.733  0.1981 -2.1252 -0.5071
  402SOL     OW 1204   2.867   2.059   1.310 -0.1918 -0.2822  0.1213
  402SOL    HW1 1205   2.797   2.098   1.373  1.9750 -1.5289 -0.1391
  402SOL    HW2 1206   2.853   1.962   1.291  1.2936  0.9027 -0.8848
  403SOL     OW 1207   0.055   0.858   2.024 -0.0969 -0.0239 -0.5372
  403SOL    HW1 1208   0.037   0.960   2.026 -1.2614 -0.9842  4.3633
  403SOL    HW2 1209   0.066   0.839   1.924 -0.1445  1.7468 -0.9893
  404SOL     OW 1210   0.128   2.735   1.864  0.0190  0.1827 -0.0963
  404SOL    HW1 1211   0.222   2.742   1.897 -3.0323  0.3557  0.1777
  404SOL    HW2 1212   0.127   2.657   1.794  0.1246 -0.5605 -2.7589
  405SOL     OW 1213   0.491   0.359   1.888 -0.1621 -0.1915  0.3306
  405SOL    HW1 1214   0.417   0.339   1.822  2.0241 -0.5163 -0.7090
  405SOL    HW2 1215   0.457   0.340   1.985 -0.8492  1.5345 -0.6060
  406SOL     OW 1216   1.559   2.026   2.613  0.2568  0.5076  0.1191
  406SOL    HW1 1217   1.631   2.095   2.634 -0.6700 -0.7302 -0.0020
  406SOL    HW2 1218   1.607   1.938   2.584  3.6066  0.2018 -2.9648
  407SOL     OW 1219   1.506   1.371   2.462 -0.2245  0.2403 -0.0997
  407SOL    HW1 1220   1.469   1.363   2.365 -0.8276  0.0640 -0.0909
  407SOL    HW2 1221   1.455   1.314   2.523  3.3008  0.7894 -1.7323
  408SOL     OW 1222   0.987   0.292   2.328  0.7737 -0.2040 -0.3734
  408SOL    HW1 1223   0.893   0.269   2.304 -1.3222  3.1099 -0.6128
  408SOL    HW2 1224   1.033   0.216   2.378  0.4713 -1.0302  1.4581
  409SOL     OW 1225   0.392   1.984   0.110 -0.0638  0.0530  0.6670
  409SOL    HW1 1226   0.415   1.929   0.029 -2.1583  0.8052  2.2369
  409SOL    HW2 1227   0.437   1.951   0.195 -2.8330 -1.4073  2.0936
  410SOL     OW 1228   2.949   1.392   0.308  0.1656  0.1047  0.0939
  410SOL    HW1 1229   3.015   1.471   0.322  3.2391  1.4781 -0.1226
  410SOL    HW2 1230   2.903   1.402   0.213 -1.2836 -0.3653 -1.3067
  411SOL     OW 1231   2.810   0.214   1.005  0.2111 -0.1191  0.3092
  411SOL    HW1 1232   2.830   0.313   0.994  1.4818 -0.4779  0.6173
  411SOL    HW2 1233   2.842   0.163   0.921  0.6670  1.3194  1.6187
  412SOL     OW 1234   1.403   0.942   1.253  0.5473 -0.2726  0.3716
  412SOL    HW1 1235   1.427   0.916   1.156 -1.9963  0.6173 -1.4087
  412SOL    HW2 1236   1.487   0.975   1.294 -0.2033 -1.0164 -1.6350
  413SOL     OW 1237   0.814   2.582   1.293  0.0461  0.3526  0.4873
  413SOL    HW1 1238   0.825   2.579   1.189 -1.3027  1.0982  0.8207
  413SOL    HW2 1239   0.730   2.629   1.324 -0.8752  1.7958 -2.0059
  414SOL     OW 1240   2.576   1.679   2.722  0.1660  0.0033 -0.1343
  414SOL    HW1 1241   2.593   1.748   2.649  0.7646 -1.1818 -0.1875
  414SOL    HW2 1242   2.662   1.664   2.768 -3.9732 -0.0592 -5.2151
  415SOL     OW 1243   0.445   2.339   2.910  0.3802 -0.2550  0.3318
  415SOL    HW1 1244   0.357   2.318   2.862  3.3707 -0.1542  0.5348
  415SOL    HW2 1245   0.426   2.381   2.999 -0.6444 -1.7553  1.1459
  416SOL     OW 1246   1.754   3.095   0.336 -0.0673  0.9438 -0.0148
  416SOL    HW1 1247   1.668   3.045   0.332  0.2249  2.0747 -0.2100
  416SOL    HW2 1248   1.777   0.033   0.245  0.0923 -0.1587 -3.4565
  417SOL     OW 1249   0.469   0.723   1.094  0.1048 -0.3593 -0.0749
  417SOL    HW1 1250   0.412   0.801   1.058 -1.8979 -0.3616 -0.4357
  417SOL    HW2 1251   0.552   0.697   1.041 -0.3555 -3.2305 -0.5365
  418SOL     OW 1252   2.586   0.485   1.687 -0.2116  0.3032 -0.7255
  418SOL    HW1 1253   2.610   0.584   1.675 -0.9562 -1.3395 -1.1507
  418SOL    HW2 1254   2.489   0.467   1.668  1.9735  1.0921  1.3650
  419SOL     OW 1255   0.041   0.151   0.531  0.0749  0.7662  0.4784
  419SOL    HW1 1256   3.066   0.222   0.528 -1.9366  1.3744 -0.1101
  419SOL    HW2 1257   0.006   0.053   0.525 -2.8486  0.2511 -0.0515
  420SOL     OW 1258   0.317   1.293   1.410  0.0991  0.1551 -0.1671
  420SOL    HW1 1259   0.267   1.337   1.486  1.7750  0.5166  0.9405
  420SOL    HW2 1260   0.286   1.193   1.400 -1.1894 -0.8088  2.5946
  421SOL     OW 1261   1.044   2.854   0.685 -0.3246 -0.3947 -0.0375
  421SOL    HW1 1262   0.950   2.844   0.730 -1.9297  0.2720  0.8136
  421SOL    HW2 1263   1.040   2.899   0.598 -1.0677 -0.8906  2.3241
  422SOL     OW 1264   0.184   0.536   1.417 -0.0635 -0.4327  0.3171
  422SOL    HW1 1265   0.106   0.581   1.366 -2.7652 -0.1436 -1.9608
  422SOL    HW2 1266   0.277   0.551   1.380 -0.9161  2.5117 -0.5470
  423SOL     OW 1267   1.142   0.966   1.289  0.3359  0.4214 -0.4771
  423SOL    HW1 1268   1.240   0.969   1.264  1.2536 -1.5204 -0.9034
  423SOL    HW2 1269   1.080   0.941   1.210  0.4167  0.6336 -0.4297
  424SOL     OW 1270   2.023   1.352   2.782  0.0362 -0.3522  0.2449
  424SOL    HW1 1271   2.054   1.399   2.867 -0.8866  0.2093  0.0390
  424SOL    HW2 1272   1.986   1.424   2.713 -0.3801  3.9867 -0.1391
  425SOL     OW 1273   3.016   0.482   2.063  0.2289 -0.1901  0.2878
  425SOL    HW1 1274   3.032   0.580   2.094  1.1082  1.8567  1.1610
  425SOL    HW2 1275   3.008   0.426   2.144  0.4689  0.8500  2.3404
  426SOL     OW 1276   0.146   2.821   3.042  0.0440 -0.1423  0.2746
  426SOL    HW1 1277   0.149   2.791   2.944  0.5721 -2.0477 -4.1730
  426SOL    HW2 1278   0.130   2.740   0.002  0.4660  1.1339 -0.8697
  427SOL     OW 1279   0.943   1.012   2.640  0.1117 -0.8663  0.1399
  427SOL    HW1 1280   0.992   1.013   2.547  0.8409  0.2448 -1.6018
  427SOL    HW2 1281   0.986   1.079   2.708  0.6334 -0.0809  0.7545
  428SOL     OW 1282   2.391   1.183   1.740 -0.2476 -0.3415  0.1338
  428SOL    HW1 1283   2.418   1.126   1.660  1.3115  0.4645  2.6383
  428SOL    HW2 1284   2.362   1.274   1.705 -1.5771  0.4443 -0.4999
  429SOL     OW 1285   2.553   2.672   0.722 -0.6402  0.4471  0.1923
  429SOL    HW1 1286   2.637   2.612   0.694 -0.0542 -2.8385  0.7118
  429SOL    HW2 1287   2.470   2.650   0.667 -1.8348  0.2436  0.2932
  430SOL     OW 1288   1.090   1.310   2.355 -0.1330  0.7646  0.3248
  430SOL    HW1 1289   1.105   1.209   2.347 -2.5673 -1.1052  2.3159
  430SOL    HW2 1290   1.063   1.333   2.448  1.8565  0.6558 -0.3293
  431SOL     OW 1291   2.739   1.377   1.532 -0.0006  0.0695 -0.1691
  431SOL    HW1 1292   2.716   1.378   1.430  1.0753 -0.9619 -2.0107
  431SOL    HW2 1293   2.740   1.472   1.573  1.2979  0.6060  1.1159
  432SOL     OW 1294   1.238   2.851   2.335  0.2776  0.7801  0.2378
  432SOL    HW1 1295   1.225   2.801   2.246  0.8620  0.9412 -0.2492
  432SOL    HW2 1296   1.198   2.793   2.414  1.9495 -1.4033  0.1137
  433SOL     OW 1297   1.826   0.143   2.245 -0.3995 -0.4296 -0.4665
  433SOL    HW1 1298   1.925   0.140   2.233  0.3366  3.0419  1.4527
  433SOL    HW2 1299   1.784   0.228   2.204  1.4886  1.5868 -0.6389
  434SOL     OW 1300   0.486   2.615   2.328 -0.3359 -0.0818 -0.1918
  434SOL    HW1 1301   0.402   2.565   2.345  1.5417 -0.1824 -0.3281
  434SOL    HW2 1302   0.488   2.669   2.244 -0.5144 -1.6269  2.2902
  435SOL     OW 1303   2.955   2.598   0.319 -0.3223 -0.2162 -0.1001
  435SOL    HW1 1304   2.962   2.650   0.403  1.8126  0.2104  1.1579
  435SOL    HW2 1305   2.878   2.624   0.260  2.3292 -0.1305 -0.3611
  436SOL     OW 1306   0.738   0.429   1.967 -0.0853 -0.5125  0.7670
  436SOL    HW1 1307   0.647   0.399   1.928  2.0563  0.5151  0.0262
  436SOL    HW2 1308   0.775   0.507   1.911 -1.7243  0.4605 -0.0904
  437SOL     OW 1309   0.211   3.048   2.612 -0.6367 -0.0531 -0.0014
  437SOL    HW1 1310   0.147   2.970   2.627 -1.2471 -2.1023  0.6038
  437SOL    HW2 1311   0.301   3.020   2.649 -2.4679 -0.3815 -0.9477
  438SOL     OW 1312   0.625   1.172   1.732  0.6343  0.6050  0.5060
  438SOL    HW1 1313   0.682   1.152   1.653 -0.6012  0.1391  0.4071
  438SOL    HW2 1314   0.680   1.226   1.796 -0.9651 -2.7351  0.1379
  439SOL     OW 1315   2.190   1.063   2.274 -0.1645 -0.4954 -0.0728
  439SOL    HW1 1316   2.278   1.111   2.244  1.6239  5.1969 -0.1520
  439SOL    HW2 1317   2.157   1.095   2.365  0.4503 -2.0858  1.5118
  440SOL     OW 1318   0.251   0.914   0.232  0.8303  0.0573  0.0901
  440SOL    HW1 1319   0.351   0.887   0.233  2.3246 -1.6910 -0.2837
  440SOL    HW2 1320   0.247   0.993   0.302  1.0155  2.6883 -0.4248
  441SOL     OW 1321   1.067   2.408   1.112  0.2525 -0.3067 -0.1836
  441SOL    HW1 1322   1.113   2.466   1.183  0.7752 -3.3285 -1.1121
  441SOL    HW2 1323   1.003   2.465   1.060  0.6523  0.5912 -2.4314
  442SOL     OW 1324   2.527   1.378   0.606  0.3332  0.1350  0.0705
  442SOL    HW1 1325   2.500   1.443   0.678 -0.7809 -1.3217 -0.4479
  442SOL    HW2 1326   2.590   1.418   0.540 -4.0009  1.2606  1.0409
  443SOL     OW 1327   2.755   2.036   2.346 -0.3506 -0.2896  0.2550
  443SOL    HW1 1328   2.661   2.084   2.361 -1.3057 -0.7794  0.0833
  443SOL    HW2 1329   2.772   2.018   2.247  1.9126 -1.3063 -0.3072
  444SOL     OW 1330   1.695   1.412   0.022 -0.7165  0.0400  0.0641
  444SOL    HW1 1331   1.794   1.422   0.040 -0.0729 -0.7642  1.2962
  444SOL    HW2 1332   1.638   1.394   0.103 -0.2668  0.9636  0.5161
  445SOL     OW 1333   2.603   2.700   2.102 -0.1661  0.0261 -0.6240
  445SOL    HW1 1334   2.603   2.678   2.005 -1.1025  0.7448  0.5928
  445SOL    HW2 1335   2.695   2.720   2.134  1.4829 -2.9684  1.0648
  446SOL     OW 1336   0.290   1.035   1.361 -0.4809 -0.0719 -0.5933
  446SOL    HW1 1337   0.273   0.987   1.448 -0.5378  0.8830  0.2682
  446SOL    HW2 1338   0.260   0.982   1.278  1.7980  0.1906 -0.4833
  447SOL     OW 1339   1.001   1.719   0.764 -0.0687  0.0854 -0.0243
  447SOL    HW1 1340   0.985   1.659   0.846  1.1672  1.2830  0.6217
  447SOL    HW2 1341   0.923   1.729   0.704  2.6766 -3.1709  1.6072
  448SOL     OW 1342   1.272   1.175   1.568  0.7793 -0.8467 -0.1082
  448SOL    HW1 1343   1.306   1.139   1.656  0.8956 -0.2637 -1.6118
  448SOL    HW2 1344   1.204   1.107   1.532 -1.0370  1.0362 -1.3413
  449SOL     OW 1345   0.030   2.153   2.213  0.0249  0.1089 -0.3146
  449SOL    HW1 1346   0.072   2.242   2.188  1.3089  0.0997 -2.5286
  449SOL    HW2 1347   0.042   2.088   2.137  0.4890  0.1001 -0.6486
  450SOL     OW 1348   2.887   1.977   1.840  0.2056  0.3692 -0.3484
  450SOL    HW1 1349   2.891   2.084   1.841  1.3299  1.9071  1.1726
  450SOL    HW2 1350   2.981   1.937   1.825 -1.0272 -0.3325  3.3117
  451SOL     OW 1351   2.279   0.927   1.322 -0.9915 -0.0179  0.1860
  451SOL    HW1 1352   2.196   0.903   1.369  4.0492  0.6881 -1.0350
  451SOL    HW2 1353   2.345   0.849   1.298  0.1332 -0.1415 -0.2881
  452SOL     OW 1354   0.508   1.353   0.972 -0.5767 -0.0615 -0.2483
  452SOL    HW1 1355   0.455   1.277   0.925  2.2397 -1.7806  1.4322
  452SOL    HW2 1356   0.493   1.444   0.926  0.3090  2.5748  0.3702
  453SOL     OW 1357   0.709   1.702   1.033 -0.0877 -0.0413  0.1773
  453SOL    HW1 1358   0.712   1.799   1.065  2.9798 -2.0409 -1.3768
  453SOL    HW2 1359   0.806   1.675   1.010  1.5048  0.7101  2.0213
  454SOL     OW 1360   0.530   1.616   0.058  0.3025 -1.3458  0.4507
  454SOL    HW1 1361   0.521   1.703   0.005 -0.5485  1.6531 -1.2799
  454SOL    HW2 1362   0.505   1.540   3.098  1.5757 -1.3309  0.3039
  455SOL     OW 1363   1.897   0.917   0.761 -0.0133 -0.0573 -0.2779
  455SOL    HW1 1364   1.851   0.839   0.806 -0.2790  2.9178  0.5087
  455SOL    HW2 1365   1.926   0.980   0.835  1.9833 -0.1941  1.1481
  456SOL     OW 1366   2.071   2.495   0.946 -0.2953  0.1696 -0.0271
  456SOL    HW1 1367   2.131   2.576   0.933  0.3411 -2.1090  2.7259
  456SOL    HW2 1368   2.055   2.494   1.050 -1.6769 -0.6403  0.2563
  457SOL     OW 1369   1.978   2.769   2.680 -0.3428  0.1094  0.0341
  457SOL    HW1 1370   1.933   2.861   2.673 -1.7355  1.4001  0.0523
  457SOL    HW2 1371   1.928   2.697   2.640  5.3313  1.8294  4.2546
  458SOL     OW 1372   2.187   0.433   0.555  0.4396 -0.1599  0.1479
  458SOL    HW1 1373   2.229   0.524   0.560  1.4291 -0.7386  1.3944
  458SOL    HW2 1374   2.093   0.445   0.514 -0.2508  1.0371  1.9898
  459SOL     OW 1375   0.080   1.087   2.385 -0.1808  0.5480  0.1488
  459SOL    HW1 1376   3.093   1.058   2.341 -1.9276 -0.5602  1.0355
  459SOL    HW2 1377   0.118   1.177   2.346  0.5145  0.7983 -0.7125
  460SOL     OW 1378   0.514   0.827   0.221  0.5541 -0.0056 -0.4436
  460SOL    HW1 1379   0.601   0.868   0.190  3.9153  0.5951  0.9890
  460SOL    HW2 1380   0.529   0.727   0.225 -1.1055  4.8047 -0.6497
  461SOL     OW 1381   2.736   2.397   0.903  0.0520  0.3029 -0.4883
  461SOL    HW1 1382   2.670   2.449   0.957 -0.4288 -0.7919  0.6173
  461SOL    HW2 1383   2.779   2.327   0.963  0.8527 -1.3420  1.5710
  462SOL     OW 1384   0.287   0.297   1.728  0.7784  0.0802  0.4945
  462SOL    HW1 1385   0.200   0.337   1.762  0.2643 -0.4487  0.4911
  462SOL    HW2 1386   0.277   0.253   1.638  2.5525  1.3766 -1.9123
  463SOL     OW 1387   1.993   2.114   2.024 -0.1506 -0.0152 -0.4581
  463SOL    HW1 1388   2.066   2.127   2.094  1.1682  1.7422  0.1774
  463SOL    HW2 1389   2.006   2.140   1.924 -0.3675 -0.5350 -3.7135
  464SOL     OW 1390   0.335   0.153   1.469  0.0886 -0.0716  0.5196
  464SOL    HW1 1391   0.422   0.167   1.525  1.4930 -1.3788  2.3912
  464SOL    HW2 1392   0.338   0.060   1.433  3.0369  1.2917 -0.4866
  465SOL     OW 1393   0.698   0.068   1.444 -0.1217  0.1668  0.1329
  465SOL    HW1 1394   0.784   0.120   1.427 -1.1620 -1.1439  0.8749
  465SOL    HW2 1395   0.657   0.085   1.536  2.8598 -1.1508 -0.3688
  466SOL     OW 1396   1.397   2.010   1.583 -0.4893 -0.3732 -0.1183
  466SOL    HW1 1397   1.429   1.932   1.525 -0.9150 -0.2698  0.2103
  466SOL    HW2 1398   1.316   1.979   1.628  3.4805  2.3297 -0.2305
  467SOL     OW 1399   0.166   1.759   1.386  0.4425  0.3840 -0.6091
  467SOL    HW1 1400   0.122   1.688   1.443 -0.3990  3.2426  0.5395
  467SOL    HW2 1401   0.252   1.727   1.348 -3.3801  0.8223  2.8053
  468SOL     OW 1402   2.462   1.957   2.659  0.4100 -0.4182  0.3847
  468SOL    HW1 1403   2.533   2.024   2.691  1.5782  0.0099 -0.5437
  468SOL    HW2 1404   2.444   1.896   2.737  3.4783 -0.2175 -1.8164
  469SOL     OW 1405   1.225   2.307   0.468 -0.5208 -0.6631  0.1805
  469SOL    HW1 1406   1.326   2.292   0.453 -0.8765 -0.8704 -0.9499
  469SOL    HW2 1407   1.169   2.306   0.382 -0.6294 -1.6009 -1.5906
  470SOL     OW 1408   2.176   1.548   1.028 -0.4003  0.1746 -0.1984
  470SOL    HW1 1409   2.173   1.590   1.117  0.6617 -2.0986 -0.2720
  470SOL    HW2 1410   2.193   1.620   0.955  0.7939  0.5703 -2.5107
  471SOL     OW 1411   0.188   2.400   0.080 -0.3066  0.0069 -0.5217
  471SOL    HW1 1412   0.149   2.489   0.120 -2.4923 -0.0094  1.0307
  471SOL    HW2 1413   0.287   2.408   0.072 -1.0890 -0.2395 -0.5598
  472SOL     OW 1414   2.785   2.018   2.086  0.6221  0.1671 -0.1988
  472SOL    HW1 1415   2.814   1.968   2.006 -0.6638  3.7508  2.8973
  472SOL    HW2 1416   2.698   2.065   2.069  2.0041 -0.1250  0.1438
  473SOL     OW 1417   1.190   3.046   0.836  0.4035 -0.4374  0.4760
  473SOL    HW1 1418   1.224   0.022   0.775  0.8896  0.2766  0.1739
  473SOL    HW2 1419   1.115   2.999   0.782 -1.9850  0.2115 -0.0595
  474SOL     OW 1420   2.914   0.040   1.194 -0.4460 -0.0418  0.3263
  474SOL    HW1 1421   2.881   0.101   1.116 -4.4863  0.4290 -2.2990
  474SOL    HW2 1422   2.972   0.098   1.257 -0.4478 -0.2881  3.1264
  475SOL     OW 1423   1.798   2.655   1.677 -0.0933 -0.3479 -0.4220
  475SOL    HW1 1424   1.877   2.679   1.615 -1.7967  1.6440  0.7013
  475SOL    HW2 1425   1.704   2.664   1.636  1.0214 -2.6494 -1.2367
  476SOL     OW 1426   0.471   0.433   1.006  0.1849  0.2936 -0.1754
  476SOL    HW1 1427   0.475   0.519   1.060 -1.5226 -0.9620 -1.4312
  476SOL    HW2 1428   0.379   0.395   1.010 -1.6420  4.6688 -1.8300
  477SOL     OW 1429   0.745   2.279   0.901 -0.0967  0.5497  0.0875
  477SOL    HW1 1430   0.643   2.283   0.894 -1.3752  0.8977  0.9963
  477SOL    HW2 1431   0.785   2.207   0.848 -1.5724 -0.5147  0.8280
  478SOL     OW 1432   0.555   2.566   2.792  0.7136  0.5912  0.3618
  478SOL    HW1 1433   0.529   2.473   2.832  2.0337 -2.6203  0.8035
  478SOL    HW2 1434   0.593   2.630   2.865  0.5506  0.9461  0.0408
  479SOL     OW 1435   0.265   0.570   2.253  0.3339  0.2342  0.2485
  479SOL    HW1 1436   0.183   0.523   2.291  2.5474 -0.2176  1.5179
  479SOL    HW2 1437   0.239   0.637   2.185 -1.6590 -0.3801  0.9584
  480SOL     OW 1438   3.039   2.151   3.078 -0.0762 -0.0656 -0.5239
  480SOL    HW1 1439   3.047   2.256   3.055 -2.4987 -0.1968 -1.3124
  480SOL    HW2 1440   0.025   2.099   3.090  1.8501 -1.0755  1.0495
  481SOL     OW 1441   1.413   2.232   2.020 -0.3890  0.2513  0.3483
  481SOL    HW1 1442   1.438   2.153   2.076  0.4827 -0.3997  0.1903
  481SOL    HW2 1443   1.501   2.252   1.964  0.5193  0.4053 -0.4161
  482SOL     OW 1444   1.384   2.016   2.793 -0.1256 -0.4076 -0.1959
  482SOL    HW1 1445   1.326   1.933   2.820 -1.0603 -2.0908  2.5060
  482SOL    HW2 1446   1.445   1.998   2.716 -0.7993  0.7499  3.6296
  483SOL     OW 1447   0.849   2.511   2.902 -0.1539 -0.0465 -0.6549
  483SOL    HW1 1448   0.857   2.539   2.804 -0.5324 -0.8464  4.0867
  483SOL    HW2 1449   0.914   2.560   2.960 -0.7613 -0.6475  2.2407
  484SOL     OW 1450   0.102   0.130   0.859  0.2553  0.1626  0.0462
  484SOL    HW1 1451   0.004   0.101   0.872 -1.6259 -1.2557 -2.8798
  484SOL    HW2 1452   0.167   0.048   0.860  1.5229 -1.5566  1.4091
  485SOL     OW 1453   1.836   0.814   0.529  0.3799 -0.1517 -0.4672
  485SOL    HW1 1454   1.884   0.860   0.608 -1.4605 -0.2996  1.6179
  485SOL    HW2 1455   1.741   0.811   0.562 -1.4883  2.4379 -1.1867
  486SOL     OW 1456   1.882   2.501   2.130 -0.0829 -0.9297 -0.1972
  486SOL    HW1 1457   1.930   2.576   2.177 -0.6807 -1.1057 -0.5059
  486SOL    HW2 1458   1.783   2.519   2.129 -0.6216 -0.4921  0.1232
  487SOL     OW 1459   1.673   2.237   0.812 -0.1520  0.1461  0.1594
  487SOL    HW1 1460   1.694   2.162   0.748  0.9095 -0.9475  1.4038
  487SOL    HW2 1461   1.691   2.214   0.908 -0.2271 -0.9793  0.2618
  488SOL     OW 1462   2.138   0.989   0.101 -0.0017  0.4120 -0.5424
  488SOL    HW1 1463   2.085   0.953   0.179 -0.4919  3.0674  1.7552
  488SOL    HW2 1464   2.216   0.924   0.080  1.8545  1.2289  0.0009
  489SOL     OW 1465   2.484   0.179   0.642 -0.3952 -0.1679  0.4367
  489SOL    HW1 1466   2.507   0.118   0.717 -0.8908  1.5043 -3.4032
  489SOL    HW2 1467   2.410   0.146   0.575 -0.9606  1.3176 -1.9710
  490SOL     OW 1468   1.631   2.887   2.798 -0.5463  0.0524  0.5077
  490SOL    HW1 1469   1.565   2.931   2.735 -0.4224 -1.0178 -2.2711
  490SOL    HW2 1470   1.659   2.791   2.777 -0.1532 -3.6530  1.9458
  491SOL     OW 1471   0.972   0.515   1.301 -0.4088  0.0883 -0.3645
  491SOL    HW1 1472   1.055   0.538   1.254 -0.5267 -0.4237  1.9037
  491SOL    HW2 1473   0.932   0.431   1.268  1.7251  1.0259 -1.6063
  492SOL     OW 1474   1.664   0.404   0.118 -0.2559 -0.8857 -0.0286
  492SOL    HW1 1475   1.651   0.306   0.123 -1.1929  4.7693  1.5456
  492SOL    HW2 1476   1.695   0.422   0.027 -0.4876 -1.6580  0.0771
  493SOL     OW 1477   2.003   2.512   2.893  0.6768 -0.0196 -0.1593
  493SOL    HW1 1478   2.016   2.467   2.984  1.4328  1.1069 -1.5879
  493SOL    HW2 1479   2.067   2.593   2.885  1.3737  0.8459 -0.0257
  494SOL     OW 1480   0.338   1.177   0.840  0.1771  0.2786 -0.1448
  494SOL    HW1 1481   0.342   1.195   0.742 -1.3681 -0.3789  3.2001
  494SOL    HW2 1482   0.247   1.198   0.882  1.9824  2.1071 -0.9782
  495SOL     OW 1483   3.095   3.057   1.492  0.2011 -0.1390 -0.1706
  495SOL    HW1 1484   3.072   0.053   1.461 -1.9063  0.7231 -1.6110
  495SOL    HW2 1485   0.022   3.042   1.588  0.7527  0.8086 -1.2565
  496SOL     OW 1486   2.621   2.807   1.643 -0.1594 -0.1424 -0.4654
  496SOL    HW1 1487   2.691   2.788   1.570  0.0981  0.1148  2.1513
  496SOL    HW2 1488   2.657   2.859   1.724 -0.3791  0.9727  4.1534
  497SOL     OW 1489   1.435   1.624   2.524 -0.5036  0.4142 -0.4239
  497SOL    HW1 1490   1.380   1.616   2.610  1.0001 -0.8883 -0.7024
  497SOL    HW2 1491   1.483   1.539   2.499  0.2899  1.2002 -0.4264
  498SOL     OW 1492   0.442   1.903   0.758  0.9720  0.8821  0.2073
  498SOL    HW1 1493   0.432   1.836   0.680 -0.4734 -2.1469 -4.5347
  498SOL    HW2 1494   0.357   1.911   0.818 -1.8372  0.4773 -1.7357
  499SOL     OW 1495   3.099   1.588   1.540  0.7967  0.1442  0.6983
  499SOL    HW1 1496   0.033   1.504   1.584 -0.6952 -0.6185 -0.3598
  499SOL    HW2 1497   3.034   1.573   1.464 -1.7570  1.9267  0.4419
  500SOL     OW 1498   1.440   2.562   0.322 -0.2195 -0.0816  0.2316
  500SOL    HW1 1499   1.440   2.462   0.344  0.7079  0.7294  2.3565
  500SOL    HW2 1500   1.520   2.610   0.371  1.0312 -0.6909 -1.3426
  501SOL     OW 1501   2.235   2.356   1.178  0.4579 -0.2220 -0.5950
  501SOL    HW1 1502   2.281   2.449   1.185 -2.6337 -1.5746  1.5523
  501SOL    HW2 1503   2.260   2.313   1.090  0.5464  0.9004  2.9125
  502SOL     OW 1504   0.133   0.812   1.742  0.3877 -0.9217  0.2001
  502SOL    HW1 1505   0.182   0.894   1.707 -3.6184  2.9600 -2.7004
  502SOL    HW2 1506   0.185   0.725   1.737 -2.6274 -0.8236  0.1364
  503SOL     OW 1507   2.415   0.027   1.781 -0.1627 -0.5029 -0.0345
  503SOL    HW1 1508   2.478   3.091   1.856  1.6969 -3.2753  2.1196
  503SOL    HW2 1509   2.422   0.131   1.767 -1.7414  1.8512 -1.3966
  504SOL     OW 1510   1.908   0.667   2.083 -0.1151  0.4458  0.0068
  504SOL    HW1 1511   1.935   0.741   2.017  1.5202  0.7977  0.7989
  504SOL    HW2 1512   1.992   0.640   2.136 -1.0923  0.8763 -2.9378
  505SOL     OW 1513   1.106   0.103   2.468 -0.4125 -0.0782 -0.0068
  505SOL    HW1 1514   1.044   0.029   2.502 -1.8311 -2.6010 -2.0268
  505SOL    HW2 1515   1.200   0.072   2.457  2.6809  0.6033  0.2150
  506SOL     OW 1516   0.485   0.556   1.668 -0.2704 -0.0891 -0.5937
  506SOL    HW1 1517   0.536   0.504   1.595  0.7214  0.7223  0.6340
  506SOL    HW2 1518   0.489   0.499   1.753  0.2612 -0.5632 -0.0614
  507SOL     OW 1519   1.880   3.010   2.747  0.2489 -0.4171  0.1027
  507SOL    HW1 1520   1.893   0.009   2.757 -0.7661  1.9447 -2.5655
  507SOL    HW2 1521   1.785   2.982   2.771 -0.7760 -2.0256  0.2006
  508SOL     OW 1522   2.188   0.367   2.600 -0.1322 -0.1988 -0.0401
  508SOL    HW1 1523   2.268   0.408   2.549 -0.3921 -1.0969 -0.0970
  508SOL    HW2 1524   2.104   0.421   2.588  1.4754 -1.3533  1.7231
  509SOL     OW 1525   0.994   1.446   1.896 -0.0520 -0.2811 -0.5584
  509SOL    HW1 1526   0.929   1.524   1.913 -1.4156 -1.6707  2.7456
  509SOL    HW2 1527   1.014   1.433   1.797  2.7861 -1.3083  2.9207
  510SOL     OW 1528   3.058   0.919   0.927 -0.3235 -0.0292 -0.2771
  510SOL    HW1 1529   3.095   0.844   0.871 -1.1499  3.2167  1.1000
  510SOL    HW2 1530   2.968   0.894   0.974 -2.2249 -1.6634  0.3341
  511SOL     OW 1531   1.655   1.880   0.948  0.7752  0.1047 -0.3655
  511SOL    HW1 1532   1.595   1.948   0.987  3.1815 -3.0475 -0.6254
  511SOL    HW2 1533   1.628   1.787   0.983 -1.9272  1.0201  2.0831
  512SOL     OW 1534   0.753   1.367   0.371  0.3502 -0.0149 -0.2467
  512SOL    HW1 1535   0.663   1.408   0.345 -3.6134 -1.4660  3.0323
  512SOL    HW2 1536   0.815   1.435   0.419 -0.5591 -0.9109  0.0930
  513SOL     OW 1537   0.082   2.568   0.588  0.0874  0.1818 -0.1841
  513SOL    HW1 1538   0.113   2.666   0.604  1.3662  2.1775  0.5515
  513SOL    HW2 1539   0.157   2.519   0.542  4.2126 -0.5503  0.6121
  514SOL     OW 1540   0.181   2.005   3.065  0.3619 -0.1531  0.2908
  514SOL    HW1 1541   0.255   2.004   0.028 -2.6736 -0.3960 -0.8044
  514SOL    HW2 1542   0.165   1.905   3.045 -0.8373 -2.3439 -0.7046
  515SOL     OW 1543   2.301   0.618   0.266 -0.2618  0.6582 -0.0433
  515SOL    HW1 1544   2.299   0.675   0.182  0.1523  1.0245  0.5794
  515SOL    HW2 1545   2.386   0.615   0.319 -0.3315 -2.1349  0.9279
  516SOL     OW 1546   2.341   2.655   1.178 -0.1849 -0.4807 -0.8302
  516SOL    HW1 1547   2.407   2.658   1.259  3.7196  0.3326  0.2686
  516SOL    HW2 1548   2.279   2.738   1.173 -0.9547 -0.4754  2.1961
  517SOL     OW 1549   1.257   1.660   3.019 -0.6362  0.0251  0.5434
  517SOL    HW1 1550   1.356   1.644   3.038 -0.7719 -0.9649  0.4303
  517SOL    HW2 1551   1.226   1.732   3.088 -1.4115  3.4617  1.7495
  518SOL     OW 1552   1.136   0.552   1.844 -0.2047  0.0460  0.2798
  518SOL    HW1 1553   1.096   0.617   1.911  0.7681  0.1847 -4.5822
  518SOL    HW2 1554   1.068   0.476   1.828  2.0759  2.8579 -2.0716
  519SOL     OW 1555   2.763   2.003   0.865 -0.3227 -0.6822 -0.0182
  519SOL    HW1 1556   2.845   1.952   0.900  0.3638 -2.0440  1.5304
  519SOL    HW2 1557   2.748   1.990   0.763  0.0740  0.2036 -0.6838
  520SOL     OW 1558   2.268   2.044   1.701  0.0894  0.2599 -0.1960
  520SOL    HW1 1559   2.270   2.044   1.801  1.9638  0.0409  1.0069
  520SOL    HW2 1560   2.188   2.095   1.662  0.4656 -2.1862  0.6533
  521SOL     OW 1561   0.984   3.021   2.621  0.0365 -0.1070 -0.5402
  521SOL    HW1 1562   1.047   3.058   2.693  0.0708  0.3875  0.4802
  521SOL    HW2 1563   0.958   2.924   2.641 -2.5104  1.4428  1.5780
  522SOL     OW 1564   2.636   0.305   2.337 -0.1717 -0.2478 -0.3959
  522SOL    HW1 1565   2.684   0.352   2.414 -3.1460 -0.8418  1.0132
  522SOL    HW2 1566   2.636   0.207   2.358  0.6017 -1.3522 -0.6022
  523SOL     OW 1567   1.601   2.325   1.595  0.6675  0.1585 -0.1778
  523SOL    HW1 1568   1.540   2.406   1.589 -1.6501  2.0641  0.7427
  523SOL    HW2 1569   1.667   2.319   1.523 -2.9998 -0.6614  2.7484
  524SOL     OW 1570   1.615   2.054   0.021  0.2648 -0.2533 -0.5082
  524SOL    HW1 1571   1.597   2.050   0.120 -2.0721 -0.0887 -5.0435
  524SOL    HW2 1572   1.685   2.121   3.098 -0.1583 -2.2827  0.6086
  525SOL     OW 1573   0.020   0.652   0.378 -0.5762  0.7814 -0.4074
  525SOL    HW1 1574   0.056   0.707   0.297  2.8745  3.9238 -1.1237
  525SOL    HW2 1575   0.095   0.615   0.437  0.6852 -2.2046  1.7246
  526SOL     OW 1576   0.806   3.028   0.895  0.1166  0.1852 -0.6604
  526SOL    HW1 1577   0.873   3.083   0.842 -0.9813 -0.2018  0.7487
  526SOL    HW2 1578   0.727   3.092   0.916  0.0208  0.8951 -0.1736
  527SOL     OW 1579   2.711   1.493   0.430 -0.6628 -0.4370  0.0727
  527SOL    HW1 1580   2.751   1.570   0.485  0.9635 -1.1194  0.3532
  527SOL    HW2 1581   2.786   1.442   0.374  1.1627  0.2247 -0.6274
  528SOL     OW 1582   0.660   0.790   2.291 -0.5664  0.1869  0.2946
  528SOL    HW1 1583   0.629   0.857   2.359 -0.3589 -3.1174 -3.4861
  528SOL    HW2 1584   0.592   0.721   2.262  2.6573  0.3265  0.1919
  529SOL     OW 1585   1.000   1.615   2.666  0.7650 -0.2762 -0.2393
  529SOL    HW1 1586   1.092   1.587   2.689 -0.4306  0.5111  1.1680
  529SOL    HW2 1587   0.976   1.585   2.571 -2.4709  0.5967 -0.0518
  530SOL     OW 1588   1.746   1.244   2.427  0.3149  0.6371  0.4352
  530SOL    HW1 1589   1.670   1.288   2.474 -1.7666  2.5121  1.0752
  530SOL    HW2 1590   1.783   1.167   2.485  0.3622 -1.8548  0.1856
  531SOL     OW 1591   0.710   2.265   2.901  0.1541  0.3892 -0.1417
  531SOL    HW1 1592   0.610   2.283   2.914 -0.7773  0.5158  0.1075
  531SOL    HW2 1593   0.753   2.352   2.893 -1.5169 -0.5685  0.4699
  532SOL     OW 1594   2.479   0.970   0.439 -0.1049  0.3598 -0.1739
  532SOL    HW1 1595   2.492   1.067   0.412 -0.4097  0.4073  1.5302
  532SOL    HW2 1596   2.403   0.936   0.384  3.1315  0.1354  1.8230
  533SOL     OW 1597   0.066   0.427   1.855 -0.5553  0.1277 -0.9721
  533SOL    HW1 1598   0.092   0.503   1.793 -1.3128  0.8459  2.3491
  533SOL    HW2 1599   3.096   0.446   1.926 -1.9554  0.5431  2.0838
  534SOL     OW 1600   1.525   0.190   3.084  0.6466 -0.7621 -0.1648
  534SOL    HW1 1601   1.455   0.273   0.000 -1.6464  4.4200  1.1330
  534SOL    HW2 1602   1.553   0.181   2.985  0.9251 -1.1266 -2.5580
  535SOL     OW 1603   0.860   0.419   0.027 -0.2797  0.5261 -0.2305
  535SOL    HW1 1604   0.861   0.504   0.077 -1.4474 -0.4813 -1.5768
  535SOL    HW2 1605   0.820   0.440   3.035 -0.9766 -0.1148 -1.4015
  536SOL     OW 1606   0.412   1.550   1.736 -0.1198 -0.5113  0.4176
  536SOL    HW1 1607   0.443   1.509   1.828 -2.1375  1.4278  0.2976
  536SOL    HW2 1608   0.487   1.531   1.671 -0.2336  0.4226  1.8717
  537SOL     OW 1609   0.349   2.489   1.984 -0.3070  0.1563  0.2991
  537SOL    HW1 1610   0.393   2.428   1.909  1.2368 -1.5172 -2.3826
  537SOL    HW2 1611   0.347   2.443   2.074  0.4205 -2.9490  0.7811
  538SOL     OW 1612   3.025   1.767   0.100 -0.6604  0.0073 -0.4225
  538SOL    HW1 1613   0.001   1.740   0.041  1.0750 -1.6164  0.6500
  538SOL    HW2 1614   3.045   1.748   0.199  3.6562 -3.8730  0.6568
  539SOL     OW 1615   2.820   0.638   2.829 -0.3623  0.1447  0.4533
  539SOL    HW1 1616   2.861   0.555   2.870  2.0827 -0.9662  0.5740
  539SOL    HW2 1617   2.894   0.684   2.778 -1.0294 -1.3363 -2.2174
  540SOL     OW 1618   1.604   0.706   2.430  0.8879 -0.1766 -0.4843
  540SOL    HW1 1619   1.643   0.679   2.519  0.1223 -1.9754 -3.2052
  540SOL    HW2 1620   1.625   0.801   2.410 -0.9233 -2.9868  2.0300
  541SOL     OW 1621   0.722   0.037   1.857  0.1753 -0.9440  0.2805
  541SOL    HW1 1622   0.700   3.039   1.869 -0.5788  1.7649 -1.2346
  541SOL    HW2 1623   0.782   0.078   1.928  0.2534  1.7928 -1.8315
  542SOL     OW 1624   1.834   2.531   2.575  0.1377  0.0275 -0.2037
  542SOL    HW1 1625   1.801   2.445   2.531 -2.2491 -0.9235 -0.7525
  542SOL    HW2 1626   1.777   2.609   2.537 -1.6992  0.5847 -1.0244
  543SOL     OW 1627   0.519   2.953   0.860  0.1009 -0.1016  0.1984
  543SOL    HW1 1628   0.560   2.867   0.901  0.5932 -1.4182 -0.4781
  543SOL    HW2 1629   0.564   3.039   0.895 -1.6636 -0.8707 -0.4863
  544SOL     OW 1630   2.772   1.383   1.975  0.5890 -0.8379  0.1934
  544SOL    HW1 1631   2.722   1.311   1.916  1.7985  0.9431  1.9776
  544SOL    HW2 1632   2.796   1.463   1.918  1.0809 -2.4643  2.2227
  545SOL     OW 1633   1.939   1.889   1.169 -0.4156  0.1851 -0.3902
  545SOL    HW1 1634   1.929   1.798   1.212  1.4464  1.1102 -0.7891
  545SOL    HW2 1635   1.952   1.890   1.070 -0.1388  1.7892 -0.6058
  546SOL     OW 1636   0.312   0.193   2.398  0.2239  0.7968 -0.1101
  546SOL    HW1 1637   0.238   0.136   2.352 -0.3194  0.8677  0.4568
  546SOL    HW2 1638   0.269   0.238   2.477  2.0543 -0.6405 -2.0037
  547SOL     OW 1639   1.192   0.622   1.159  0.2174  0.1371 -0.4140
  547SOL    HW1 1640   1.240   0.667   1.235 -0.1151  0.8506  0.5751
  547SOL    HW2 1641   1.177   0.685   1.083  1.5288  0.7724 -0.1682
  548SOL     OW 1642   1.234   2.510   2.957 -0.4103 -0.4991  0.0846
  548SOL    HW1 1643   1.339   2.518   2.968  1.2095 -0.9262  0.9005
  548SOL    HW2 1644   1.203   2.414   2.934 -1.4782 -0.7249 -1.7147
  549SOL     OW 1645   2.231   0.290   2.985  0.4250  0.1589  0.0642
  549SOL    HW1 1646   2.254   0.307   3.078 -2.6324 -0.6414 -1.3659
  549SOL    HW2 1647   2.321   0.299   2.933 -0.3366 -1.1458 -0.9682
  550SOL     OW 1648   2.682   1.996   0.620 -0.1761 -0.6626 -0.1438
  550SOL    HW1 1649   2.583   1.975   0.608  2.3975  2.0545  2.0482
  550SOL    HW2 1650   2.741   1.992   0.536  1.8100  0.3325 -0.4374
  551SOL     OW 1651   1.173   2.898   1.895  0.3172 -0.5933  0.0838
  551SOL    HW1 1652   1.132   2.842   1.821  2.6030  1.4401 -1.9057
  551SOL    HW2 1653   1.116   2.979   1.910  2.9808 -2.1735  0.3722
  552SOL     OW 1654   2.988   2.336   2.613  0.2451 -0.2486 -0.3149
  552SOL    HW1 1655   2.969   2.253   2.556 -0.8840 -1.7456 -1.4253
  552SOL    HW2 1656   2.904   2.360   2.665  0.4601  0.9652 -1.4002
  553SOL     OW 1657   0.282   2.720   0.872  0.0379 -0.0321 -0.1838
  553SOL    HW1 1658   0.367   2.692   0.918 -2.9801 -0.7493 -0.8995
  553SOL    HW2 1659   0.220   2.638   0.851 -0.7185 -2.1531  0.0714
  554SOL     OW 1660   2.010   1.804   1.743  0.0099 -0.3444 -0.1044
  554SOL    HW1 1661   2.086   1.834   1.806 -0.6398 -2.1603  4.3771
  554SOL    HW2 1662   1.956   1.878   1.706  1.4993 -2.7025 -0.2549
  555SOL     OW 1663   1.634   2.039   1.737  0.7702 -0.3935 -0.4000
  555SOL    HW1 1664   1.546   2.051   1.689 -0.1472  1.3057  1.8095
  555SOL    HW2 1665   1.643   2.120   1.801 -1.2592 -2.1168 -0.1039
  556SOL     OW 1666   1.511   1.643   1.065 -0.4829  0.1131  0.7816
  556SOL    HW1 1667   1.472   1.616   1.155 -1.3468  1.4596  0.5745
  556SOL    HW2 1668   1.595   1.583   1.046  2.0203 -5.1694  0.8822
  557SOL     OW 1669   1.359   2.884   1.493  0.3235 -0.3799  0.9680
  557SOL    HW1 1670   1.435   2.940   1.531 -0.2600 -1.4433  0.2063
  557SOL    HW2 1671   1.288   2.939   1.442  3.0622 -1.3255 -2.9664
  558SOL     OW 1672   0.302   0.041   1.850  0.2119 -0.1108 -0.3875
  558SOL    HW1 1673   0.253   0.096   1.924 -1.6498  0.4863  1.5710
  558SOL    HW2 1674   0.340   0.103   1.778 -0.1554  2.0302 -2.3944
  559SOL     OW 1675   2.293   2.958   0.716 -0.4153 -0.1486 -0.2413
  559SOL    HW1 1676   2.387   2.991   0.727  1.7751 -0.2644 -2.3831
  559SOL    HW2 1677   2.225   3.007   0.774 -1.2006 -2.0436 -0.7322
  560SOL     OW 1678   1.276   2.393   0.730  0.5249  0.8392 -0.2754
  560SOL    HW1 1679   1.233   2.366   0.645  2.3661  1.4166  1.0431
  560SOL    HW2 1680   1.227   2.475   0.767  0.5242 -0.5570  2.7428
  561SOL     OW 1681   1.133   0.529   0.419  0.3172 -0.1669 -0.6333
  561SOL    HW1 1682   1.197   0.483   0.358 -0.4727  3.3566  4.6547
  561SOL    HW2 1683   1.069   0.466   0.472  0.2331  0.6379 -1.2813
  562SOL     OW 1684   0.421   1.212   2.527  0.2562  0.1453 -0.1691
  562SOL    HW1 1685   0.379   1.129   2.485 -1.9363 -0.7760  0.3977
  562SOL    HW2 1686   0.460   1.187   2.619 -1.8944  0.0618  1.0039
  563SOL     OW 1687   1.417   2.080   2.386  0.0541  0.0911  0.2968
  563SOL    HW1 1688   1.454   2.045   2.295  1.9703 -3.1908 -1.9854
  563SOL    HW2 1689   1.494   2.058   2.452 -0.2355 -0.8191 -0.5040
  564SOL     OW 1690   2.819   0.867   1.043 -0.2923 -0.5774  0.4442
  564SOL    HW1 1691   2.780   0.953   1.088 -1.7377  0.3351 -0.2322
  564SOL    HW2 1692   2.796   0.869   0.944  1.6192  0.8771 -1.6974
  565SOL     OW 1693   0.702   0.922   0.029  0.9323  0.1471 -0.2178
  565SOL    HW1 1694   0.707   0.873   3.042  0.2216 -0.9298  1.4805
  565SOL    HW2 1695   0.793   0.931   0.078  1.6079  0.0509  1.9235
  566SOL     OW 1696   2.496   3.072   2.731  0.5640 -0.0307  0.4978
  566SOL    HW1 1697   2.418   3.087   2.790  1.8193 -1.4173 -2.5750
  566SOL    HW2 1698   2.483   0.019   2.642 -0.1620  0.0687  1.8975
  567SOL     OW 1699   1.464   0.890   0.993 -0.0903  0.7927  0.2942
  567SOL    HW1 1700   1.539   0.828   0.966 -1.2882  0.2872  0.2091
  567SOL    HW2 1701   1.480   0.988   0.970 -1.5275 -1.5898 -1.4578
  568SOL     OW 1702   1.825   1.818   2.744  0.2234 -0.1619 -0.1782
  568SOL    HW1 1703   1.791   1.850   2.652  0.4639 -1.0904 -0.2995
  568SOL    HW2 1704   1.759   1.832   2.823  2.3804 -1.5050  1.2278
  569SOL     OW 1705   2.192   1.445   2.986  0.4516  0.0917  0.5723
  569SOL    HW1 1706   2.220   1.344   3.000  0.4874  0.0289  0.3649
  569SOL    HW2 1707   2.260   1.482   2.916  1.8030 -1.8824  1.2747
  570SOL     OW 1708   0.099   2.392   1.831 -0.1132  0.0691 -0.3782
  570SOL    HW1 1709   0.200   2.390   1.861 -0.8892  1.0999 -1.2006
  570SOL    HW2 1710   0.094   2.402   1.732  0.9582 -0.6732  1.1800
  571SOL     OW 1711   2.693   1.829   1.726 -0.1228  0.1456  0.0839
  571SOL    HW1 1712   2.634   1.887   1.671  1.2106  2.4477  0.0920
  571SOL    HW2 1713   2.764   1.882   1.777  1.0885  0.6922  1.8413
  572SOL     OW 1714   1.635   2.004   0.300 -0.4596  0.1173 -0.0095
  572SOL    HW1 1715   1.587   2.030   0.385 -0.8820 -0.4474  0.5189
  572SOL    HW2 1716   1.707   2.079   0.286 -0.8283  1.7444  0.7311
  573SOL     OW 1717   1.830   2.217   0.288 -0.0824  0.2862  0.0707
  573SOL    HW1 1718   1.805   2.280   0.214  2.5797 -2.0104 -0.0327
  573SOL    HW2 1719   1.835   2.266   0.378  2.8296  0.4988  1.2159
  574SOL     OW 1720   0.887   0.273   1.186  0.2233 -0.5038  0.0808
  574SOL    HW1 1721   0.927   0.207   1.253  1.5490 -0.9342  0.9817
  574SOL    HW2 1722   0.898   0.250   1.088 -1.0613  0.1548 -2.3866
  575SOL     OW 1723   0.779   0.902   1.788  0.2309  0.1298  0.1475
  575SOL    HW1 1724   0.820   0.989   1.752 -2.5011 -2.3852  0.7680
  575SOL    HW2 1725   0.776   0.895   1.888 -0.5902 -0.5177 -1.8937
  576SOL     OW 1726   2.675   0.230   1.735  0.2691  0.1779  0.4541
  576SOL    HW1 1727   2.669   0.220   1.636 -0.8404  1.7111 -0.4620
  576SOL    HW2 1728   2.659   0.325   1.763 -1.6727 -1.5208 -0.9269
  577SOL     OW 1729   1.160   0.995   2.443 -0.2083  0.4092 -0.2666
  577SOL    HW1 1730   1.241   1.037   2.484  1.1846 -0.4144 -0.7905
  577SOL    HW2 1731   1.188   0.939   2.368 -1.7843  3.8414 -0.5268
  578SOL     OW 1732   2.121   1.387   2.374 -0.2841  0.1244 -0.0622
  578SOL    HW1 1733   2.032   1.439   2.362 -0.3730 -0.1609 -2.7530
  578SOL    HW2 1734   2.151   1.368   2.279 -0.0974 -1.6818 -1.0268
  579SOL     OW 1735   1.350   2.183   1.360 -0.3481  0.2125 -0.3632
  579SOL    HW1 1736   1.338   2.135   1.448 -1.7968  0.2095  1.1904
  579SOL    HW2 1737   1.441   2.187   1.325  0.5154  1.1322  0.2729
  580SOL     OW 1738   1.415   2.292   0.238  0.1727  0.1227  0.5857
  580SOL    HW1 1739   1.495   2.324   0.177  4.1498  0.4381 -0.5333
  580SOL    HW2 1740   1.369   2.216   0.189 -0.4120  0.3754 -1.5178
  581SOL     OW 1741   1.272   0.853   2.012  0.3262  0.5604 -0.1995
  581SOL    HW1 1742   1.201   0.781   1.994  2.0138  1.7212  3.0775
  581SOL    HW2 1743   1.325   0.837   2.102  2.7747 -2.2312  0.8119
  582SOL     OW 1744   0.828   1.098   1.570  0.1273  0.1045 -0.0789
  582SOL    HW1 1745   0.834   1.199   1.596  0.5003  0.3147  0.4371
  582SOL    HW2 1746   0.922   1.057   1.555 -2.3691  1.1691 -2.7558
  583SOL     OW 1747   1.097   1.182   1.984  0.2822 -0.2870  0.4711
  583SOL    HW1 1748   1.183   1.133   1.957  1.6306 -1.1111 -0.5991
  583SOL    HW2 1749   1.097   1.278   1.947  2.0304  1.3574  1.1505
  584SOL     OW 1750   2.271   2.247   0.929  0.0527  0.2027 -0.1100
  584SOL    HW1 1751   2.304   2.299   0.847 -2.7409 -3.7685  2.1234
  584SOL    HW2 1752   2.167   2.232   0.919 -2.9930  0.0581 -1.9922
  585SOL     OW 1753   2.157   3.014   2.718  0.2887 -0.7341 -0.3455
  585SOL    HW1 1754   2.060   2.999   2.743  4.8635 -0.0355 -0.2335
  585SOL    HW2 1755   2.216   3.014   2.797 -2.1506  0.0820 -2.2292
  586SOL     OW 1756   3.052   2.321   0.622 -0.0119  0.0583 -0.8823
  586SOL    HW1 1757   2.980   2.306   0.555  1.4039  0.7655 -0.8826
  586SOL    HW2 1758   0.002   2.399   0.590 -1.5822  1.5839 -0.2690
  587SOL     OW 1759   1.670   1.847   2.979 -0.2133 -0.5626  0.0539
  587SOL    HW1 1760   1.663   1.934   3.033 -0.7014  0.8187  0.0553
  587SOL    HW2 1761   1.607   1.773   3.025 -2.5816 -2.3533  1.8489
  588SOL     OW 1762   0.189   0.313   1.046  0.2037  0.1033 -0.2456
  588SOL    HW1 1763   0.199   0.277   1.141 -0.7539  1.1053  1.1258
  588SOL    HW2 1764   0.173   0.235   0.982 -0.3910 -0.7675  0.8857
  589SOL     OW 1765   1.191   0.786   0.952  0.5087 -0.1384  0.3966
  589SOL    HW1 1766   1.279   0.830   0.969  1.1536  1.6247 -2.8920
  589SOL    HW2 1767   1.115   0.854   0.926 -3.5253 -0.2793  2.5019
  590SOL     OW 1768   1.301   1.285   0.005  0.1033  0.4548  0.0651
  590SOL    HW1 1769   1.383   1.317   0.063  1.7541 -0.0558  1.6158
  590SOL    HW2 1770   1.222   1.345   0.031 -2.8248  0.0261  0.6991
  591SOL     OW 1771   2.550   2.372   2.565  0.2760 -0.1722  0.3320
  591SOL    HW1 1772   2.457   2.336   2.581  0.6939 -1.2067  0.1281
  591SOL    HW2 1773   2.556   2.426   2.482 -0.0459  0.5367  2.0422
  592SOL     OW 1774   1.772   2.250   1.371  0.0834  0.5038  0.0345
  592SOL    HW1 1775   1.720   2.194   1.310 -0.0702  1.9253  2.3073
  592SOL    HW2 1776   1.794   2.184   1.445 -1.2522 -1.0884  0.5519
  593SOL     OW 1777   0.617   0.104   0.942 -0.8018  0.0863 -0.2443
  593SOL    HW1 1778   0.575   0.136   1.031  0.4319 -1.4440  0.3765
  593SOL    HW2 1779   0.608   0.180   0.873 -1.2757 -0.8569 -0.6210
  594SOL     OW 1780   2.594   0.856   2.553 -0.4483  0.3408  0.2138
  594SOL    HW1 1781   2.625   0.878   2.647 -0.6167 -1.4845  1.5456
  594SOL    HW2 1782   2.517   0.792   2.553  2.5201 -0.7627 -1.0094
  595SOL     OW 1783   0.545   2.718   0.991 -0.7585  0.5687  0.1405
  595SOL    HW1 1784   0.559   2.619   0.960  1.1987 -1.1506  1.5045
  595SOL    HW2 1785   0.594   2.745   1.077  1.2489  0.7246 -0.5181
  596SOL     OW 1786   0.103   0.907   1.212 -0.2245 -0.4369 -0.6704
  596SOL    HW1 1787   0.072   0.832   1.274  1.3826  0.5033 -0.8858
  596SOL    HW2 1788   0.125   0.864   1.120 -2.5611 -0.4508  2.5012
  597SOL     OW 1789   1.459   1.815   0.208  0.4028 -0.4552  0.0051
  597SOL    HW1 1790   1.511   1.899   0.228  1.8691  2.1798 -0.1249
  597SOL    HW2 1791   1.358   1.843   0.200  1.3427  1.1790  0.8577
  598SOL     OW 1792   0.404   2.888   1.861  0.3529 -0.0998 -0.3880
  598SOL    HW1 1793   0.382   2.860   1.769  1.5292  1.1755  0.9796
  598SOL    HW2 1794   0.384   2.988   1.868 -2.2604  0.2467 -1.3162
  599SOL     OW 1795   2.335   1.553   2.786  0.6485 -0.0902 -0.3835
  599SOL    HW1 1796   2.283   1.559   2.694  3.5706  0.6715  0.8439
  599SOL    HW2 1797   2.422   1.607   2.770 -0.1838 -1.2519  0.6497
  600SOL     OW 1798   0.971   1.205   0.243 -0.0283  0.0474 -0.0078
  600SOL    HW1 1799   0.890   1.262   0.249  3.4747  1.2970 -1.0369
  600SOL    HW2 1800   1.016   1.185   0.330 -0.2352 -2.8576  1.7157
  601SOL     OW 1801   0.530   0.876   0.790 -0.3705  0.1571 -0.1531
  601SOL    HW1 1802   0.525   0.968   0.825  0.3561  0.9277 -1.7121
  601SOL    HW2 1803   0.566   0.809   0.860 -1.1929 -0.5145 -0.7426
  602SOL     OW 1804   1.737   2.859   0.569  0.2833  0.0226 -0.5572
  602SOL    HW1 1805   1.647   2.838   0.612 -0.2295 -0.6123 -0.0099
  602SOL    HW2 1806   1.725   2.923   0.490  0.8044  0.4246  1.2663
  603SOL     OW 1807   0.817   2.715   2.316 -0.1977  0.8605  0.4247
  603SOL    HW1 1808   0.879   2.662   2.254  1.0922 -0.0808 -2.4344
  603SOL    HW2 1809   0.724   2.671   2.323 -0.3230 -1.7065  1.2242
  604SOL     OW 1810   2.864   0.125   2.562 -0.1832  0.4616  0.2938
  604SOL    HW1 1811   2.969   0.104   2.548  3.3872  0.6932 -0.2679
  604SOL    HW2 1812   2.806   0.078   2.492 -0.3788  0.6405  1.8348
  605SOL     OW 1813   2.700   1.387   1.268 -0.4413  0.0576 -0.2184
  605SOL    HW1 1814   2.720   1.294   1.226  2.1824 -2.7498 -1.6768
  605SOL    HW2 1815   2.618   1.420   1.219 -0.7463 -0.4868  1.7964
  606SOL     OW 1816   0.789   1.287   2.580 -0.0597 -0.0574 -0.5840
  606SOL    HW1 1817   0.769   1.375   2.533  0.0210 -0.0754 -2.5953
  606SOL    HW2 1818   0.708   1.236   2.604  1.7954  3.6596  3.4310
  607SOL     OW 1819   0.566   3.027   0.359 -0.2064 -0.3558  0.1300
  607SOL    HW1 1820   0.540   2.961   0.284  2.4963  0.2318 -1.9304
  607SOL    HW2 1821   0.575   0.021   0.319  0.2982  2.8878  0.1623
  608SOL     OW 1822   1.890   1.580   2.118  0.2281  0.6278 -0.0152
  608SOL    HW1 1823   1.821   1.509   2.138 -0.7967  1.4813 -0.2415
  608SOL    HW2 1824   1.881   1.612   2.019 -3.2597  1.0004 -1.6725
  609SOL     OW 1825   2.635   0.396   1.410 -0.0236 -0.2390 -0.8199
  609SOL    HW1 1826   2.624   0.296   1.404  2.2398  0.7148 -0.3653
  609SOL    HW2 1827   2.587   0.435   1.489  0.3035 -0.5338 -0.2780
  610SOL     OW 1828   0.383   2.616   0.579 -0.1249 -0.2817  0.1629
  610SOL    HW1 1829   0.447   2.538   0.586 -1.6818 -0.3767 -0.0637
  610SOL    HW2 1830   0.419   2.709   0.617 -0.6745  0.9828 -0.6207
  611SOL     OW 1831   1.573   0.923   2.955  0.0676  0.1452  0.4742
  611SOL    HW1 1832   1.593   0.992   2.877 -2.4463  2.3641  0.1097
  611SOL    HW2 1833   1.624   0.942   3.042 -2.3275 -1.2119 -1.1927
  612SOL     OW 1834   0.729   2.158   2.196 -0.4349 -0.5785  0.1850
  612SOL    HW1 1835   0.821   2.181   2.238  0.1070  2.6905  1.7480
  612SOL    HW2 1836   0.742   2.110   2.110  0.0438  2.6858 -0.2954
  613SOL     OW 1837   0.550   2.403   0.590 -1.0471 -0.6220  0.4221
  613SOL    HW1 1838   0.513   2.307   0.608 -1.1399 -1.2592  1.0555
  613SOL    HW2 1839   0.613   2.403   0.507  3.1435  1.6835 -1.1748
  614SOL     OW 1840   2.409   2.965   1.566  0.0797 -0.0823  0.6503
  614SOL    HW1 1841   2.450   2.879   1.598  4.0668 -1.9275  0.3269
  614SOL    HW2 1842   2.428   3.037   1.632  0.1445  0.2240 -2.8191
  615SOL     OW 1843   1.784   1.146   0.238 -0.5747 -0.0202  0.6357
  615SOL    HW1 1844   1.761   1.226   0.297 -1.0245 -0.0125 -0.8364
  615SOL    HW2 1845   1.837   1.177   0.155  0.6995 -0.7825  0.3417
  616SOL     OW 1846   1.974   0.945   0.330 -0.0925 -0.0377 -0.0625
  616SOL    HW1 1847   1.918   0.876   0.375  4.1486  0.6476 -1.7903
  616SOL    HW2 1848   1.913   1.024   0.307 -0.0962  0.4738 -0.5701
  617SOL     OW 1849   1.100   1.162   2.855 -0.2186  0.1296 -0.6204
  617SOL    HW1 1850   1.047   1.210   2.932  2.4850  0.1789  3.5977
  617SOL    HW2 1851   1.163   1.097   2.899 -1.2340 -1.7909  2.0961
  618SOL     OW 1852   0.671   2.870   1.761  0.0020 -0.2633 -0.0149
  618SOL    HW1 1853   0.718   2.819   1.836 -3.9973 -2.5015  1.5289
  618SOL    HW2 1854   0.575   2.871   1.783  0.5860  0.8067 -0.7141
  619SOL     OW 1855   2.988   1.071   1.294  0.1513  0.4715  0.2041
  619SOL    HW1 1856   3.041   0.995   1.252  0.6167  0.1150  1.4830
  619SOL    HW2 1857   3.006   1.075   1.394 -1.0935  0.4202  1.2676
  620SOL     OW 1858   2.404   0.984   2.857 -0.1652  0.1581 -0.6049
  620SOL    HW1 1859   2.433   1.046   2.778  2.4107  1.3778 -1.4239
  620SOL    HW2 1860   2.337   0.919   2.817  0.3527  0.0403 -3.2059
  621SOL     OW 1861   2.674   2.405   1.420  0.7407 -0.2407  0.2330
  621SOL    HW1 1862   2.644   2.315   1.399  0.0592  1.5323 -0.0360
  621SOL    HW2 1863   2.715   2.409   1.514  0.5060  1.3490  0.0219
  622SOL     OW 1864   0.962   0.735   2.665 -0.1147  0.2087  0.0842
  622SOL    HW1 1865   0.907   0.707   2.582 -1.1992 -1.7570  0.2123
  622SOL    HW2 1866   0.976   0.837   2.671 -0.1867 -0.5088 -0.2876
  623SOL     OW 1867   1.154   0.548   2.590 -0.1919 -0.0668 -0.9443
  623SOL    HW1 1868   1.125   0.454   2.613  2.5222  0.4186  0.6827
  623SOL    HW2 1869   1.084   0.617   2.620  1.3769 -1.7059 -1.9783
  624SOL     OW 1870   2.336   0.809   0.070  0.3070  0.4058 -0.2382
  624SOL    HW1 1871   2.316   0.765   3.081  2.2200  1.6323  0.2155
  624SOL    HW2 1872   2.427   0.856   0.062 -0.2329  2.2781  1.4137
  625SOL     OW 1873   0.983   1.314   0.989  0.6102 -0.1268 -0.0644
  625SOL    HW1 1874   1.052   1.268   0.929 -0.4457 -1.2092 -0.9070
  625SOL    HW2 1875   1.012   1.300   1.082 -1.3930 -0.6137 -1.6396
  626SOL     OW 1876   1.847   1.040   2.581  0.1548 -0.0292  0.1248
  626SOL    HW1 1877   1.883   0.977   2.513  2.2727 -0.4654  0.0735
  626SOL    HW2 1878   1.900   1.043   2.665 -1.4226 -0.6314  0.0128
  627SOL     OW 1879   1.175   3.062   2.807  0.0373  0.3879  0.0133
  627SOL    HW1 1880   1.204   2.975   2.849 -2.0664  1.0838 -1.5463
  627SOL    HW2 1881   1.135   0.025   2.874 -3.0066  0.7580 -1.3286
  628SOL     OW 1882   2.215   0.103   2.530  0.3474  0.2823 -0.2030
  628SOL    HW1 1883   2.179   0.033   2.599 -1.9242 -1.7666  0.9449
  628SOL    HW2 1884   2.199   0.201   2.563  1.6420  0.9785 -0.2342
  629SOL     OW 1885   1.055   0.642   2.910 -0.1342  0.9427  0.5822
  629SOL    HW1 1886   1.031   0.684   2.822 -2.1498  2.7159  0.6559
  629SOL    HW2 1887   1.056   0.711   2.981 -1.4562 -0.4624 -1.7987
  630SOL     OW 1888   1.258   0.244   2.177  0.1019 -0.0619 -0.6216
  630SOL    HW1 1889   1.173   0.264   2.224  0.4395 -1.7491 -2.6596
  630SOL    HW2 1890   1.256   0.154   2.138  1.2638 -0.6172 -0.2431
  631SOL     OW 1891   2.739   0.918   0.776 -0.1524  0.3072  0.4049
  631SOL    HW1 1892   2.671   0.984   0.741 -2.4968  0.7133 -1.3955
  631SOL    HW2 1893   2.701   0.826   0.774 -0.3621  1.3296  3.0964
  632SOL     OW 1894   1.995   0.805   1.328 -0.2266 -0.0268 -0.7638
  632SOL    HW1 1895   1.959   0.856   1.409 -1.2038  1.1595  0.0213
  632SOL    HW2 1896   2.026   0.714   1.355  1.1844 -2.5861 -2.2939
  633SOL     OW 1897   0.986   1.480   0.487 -0.2438 -0.0324 -0.2214
  633SOL    HW1 1898   0.990   1.522   0.581  0.3154  3.8482 -0.5744
  633SOL    HW2 1899   1.063   1.420   0.459  3.3857  2.4876 -1.6395
  634SOL     OW 1900   2.096   3.073   0.918  0.0699  0.3446 -0.4157
  634SOL    HW1 1901   2.163   0.014   0.982 -1.2017 -1.5130 -0.7317
  634SOL    HW2 1902   2.035   3.001   0.960 -3.7837 -3.9317  1.1213
  635SOL     OW 1903   1.715   0.553   1.277 -0.0099  0.4651  0.2040
  635SOL    HW1 1904   1.667   0.560   1.366  0.1461 -1.1382 -1.8636
  635SOL    HW2 1905   1.719   0.644   1.228 -1.2958  0.3644 -1.8780
  636SOL     OW 1906   1.059   1.165   0.482 -0.4300 -0.0758 -0.2285
  636SOL    HW1 1907   1.136   1.217   0.522 -0.4743 -1.4830  0.0835
  636SOL    HW2 1908   0.978   1.152   0.541  2.7181 -1.1463 -2.4376
  637SOL     OW 1909   2.465   2.236   3.024  0.2704  0.1707  0.0992
  637SOL    HW1 1910   2.528   2.155   2.996  1.3262 -4.0215  1.1678
  637SOL    HW2 1911   2.373   2.228   2.985 -1.1874  0.7638  0.4615
  638SOL     OW 1912   1.403   2.477   2.617 -0.0728  0.0170  0.6208
  638SOL    HW1 1913   1.365   2.401   2.677 -1.3502 -1.8882  1.2848
  638SOL    HW2 1914   1.478   2.445   2.554  0.1446  0.1020  0.4776
  639SOL     OW 1915   0.929   2.005   1.315 -0.7422 -0.4964  0.1009
  639SOL    HW1 1916   0.847   2.052   1.281  0.5478 -0.4822  0.5569
  639SOL    HW2 1917   1.014   2.037   1.272 -1.9885 -0.2902 -1.7283
  640SOL     OW 1918   2.377   2.902   0.442  0.4201  0.5394 -0.1442
  640SOL    HW1 1919   2.326   2.933   0.362  2.3508  0.9592  0.9997
  640SOL    HW2 1920   2.342   2.946   0.527  1.2843  1.1243 -0.8272
  641SOL     OW 1921   0.268   0.146   0.306 -0.0364  0.3897  0.3009
  641SOL    HW1 1922   0.196   0.076   0.294  2.3964  1.2432 -3.2649
  641SOL    HW2 1923   0.235   0.241   0.315  0.5353  0.4730  2.3184
  642SOL     OW 1924   2.818   0.752   1.287 -0.0595  0.0037  0.2228
  642SOL    HW1 1925   2.761   0.672   1.274 -3.0722 -0.8576  0.7199
  642SOL    HW2 1926   2.826   0.803   1.197 -0.5613  0.2112 -1.1935
  643SOL     OW 1927   0.877   2.045   1.955  0.7851  0.4297  0.2373
  643SOL    HW1 1928   0.855   2.061   1.857  0.8572 -0.1103 -1.2224
  643SOL    HW2 1929   0.968   2.087   1.971 -0.7572  1.1955  1.0198
  644SOL     OW 1930   1.700   2.592   0.423  0.3161  0.3738 -0.4122
  644SOL    HW1 1931   1.721   2.603   0.323 -3.1098  0.2822  2.7462
  644SOL    HW2 1932   1.709   2.684   0.471 -3.4049 -0.8544  0.1195
  645SOL     OW 1933   2.017   2.211   0.783  0.3373 -0.2682 -0.1191
  645SOL    HW1 1934   2.003   2.296   0.731 -1.2226  0.3829 -0.0910
  645SOL    HW2 1935   1.948   2.214   0.856 -0.4350  1.1476  2.3466
  646SOL     OW 1936   1.015   2.799   0.276  0.3144  0.0538 -0.1172
  646SOL    HW1 1937   1.049   2.729   0.343  0.3365 -0.7666  0.3298
  646SOL    HW2 1938   1.060   2.888   0.279  0.3018 -0.6449 -1.0632
  647SOL     OW 1939   0.483   2.708   2.076  0.3332 -0.2501  0.1770
  647SOL    HW1 1940   0.470   2.793   2.014  0.5801  1.5316 -1.9884
  647SOL    HW2 1941   0.423   2.634   2.033  0.2120 -0.4568  0.0618
  648SOL     OW 1942   1.753   0.786   1.142 -0.4659 -0.1278 -0.6964
  648SOL    HW1 1943   1.777   0.775   1.042 -2.3536 -0.4015  0.3826
  648SOL    HW2 1944   1.831   0.810   1.205  1.2634  2.3103  0.9353
  649SOL     OW 1945   1.343   2.268   2.778 -0.4910 -0.3222 -0.3874
  649SOL    HW1 1946   1.414   2.317   2.832  0.7743 -1.3101 -0.0190
  649SOL    HW2 1947   1.359   2.168   2.773  0.0420  4.8216 -1.0958
  650SOL     OW 1948   2.315   1.434   1.674  0.4505  0.1201  0.4598
  650SOL    HW1 1949   2.380   1.498   1.718  0.1686  0.3391  0.3083
  650SOL    HW2 1950   2.229   1.485   1.659  1.2820 -1.3555 -1.1285
  651SOL     OW 1951   1.510   2.479   2.944  0.0837 -0.5620  0.0995
  651SOL    HW1 1952   1.518   2.530   3.036 -2.5091  0.2949  3.1775
  651SOL    HW2 1953   1.573   2.518   2.871  1.2751  1.3959  1.3604
  652SOL     OW 1954   0.815   2.411   0.088  0.2593 -0.3582 -1.0731
  652SOL    HW1 1955   0.866   2.483   0.032 -0.1614  0.1129 -2.8319
  652SOL    HW2 1956   0.871   2.375   0.166 -1.1066  2.7927 -1.8974
  653SOL     OW 1957   2.417   2.023   1.332  0.1823  0.0230 -0.5280
  653SOL    HW1 1958   2.437   2.058   1.240 -1.2146 -1.8575  0.2211
  653SOL    HW2 1959   2.323   1.986   1.333  3.5918  2.0043  0.2311
  654SOL     OW 1960   2.887   2.603   1.528  0.1951 -0.5802 -0.4830
  654SOL    HW1 1961   2.889   2.702   1.501  0.3719 -0.5646 -2.3330
  654SOL    HW2 1962   2.971   2.558   1.500 -1.9357  0.9404  0.8112
  655SOL     OW 1963   3.079   2.180   1.199 -0.0943  0.5486 -0.1491
  655SOL    HW1 1964   3.002   2.131   1.242  3.5236  1.9405  1.0436
  655SOL    HW2 1965   3.045   2.268   1.159 -1.1291  1.5708 -2.2958
  656SOL     OW 1966   3.047   2.794   2.624 -0.4926  0.6786 -0.3693
  656SOL    HW1 1967   0.025   2.751   2.676  0.6090  2.0793 -0.2785
  656SOL    HW2 1968   3.021   2.888   2.661  1.4777  0.4525  1.2228
  657SOL     OW 1969   0.054   0.778   0.122 -0.0493 -0.6237 -0.9378
  657SOL    HW1 1970   3.071   0.834   0.133 -1.9440 -4.0521  0.7097
  657SOL    HW2 1971   0.140   0.832   0.148  0.3247  4.2759 -1.3828
  658SOL     OW 1972   2.202   1.773   0.896  0.1999 -0.7555  0.3175
  658SOL    HW1 1973   2.233   1.764   0.800 -3.1040  0.0556  0.5335
  658SOL    HW2 1974   2.120   1.829   0.912  0.9543  0.5350 -0.7369
  659SOL     OW 1975   1.526   0.580   1.499  0.4483 -0.5487  0.0859
  659SOL    HW1 1976   1.439   0.632   1.477 -1.4632 -0.8738  1.1282
  659SOL    HW2 1977   1.500   0.484   1.509  2.7085  0.5999 -1.0990
  660SOL     OW 1978   1.536   1.639   3.090 -0.4152  0.0403 -0.2282
  660SOL    HW1 1979   1.523   1.693   0.077  1.7249  2.5360  3.1537
  660SOL    HW2 1980   1.593   1.560   0.011 -1.3712 -1.3426  1.4346
  661SOL     OW 1981   0.188   1.979   0.444  0.7328 -0.0620 -0.1204
  661SOL    HW1 1982   0.193   2.064   0.387  2.2136  0.2997  1.2021
  661SOL    HW2 1983   0.097   1.939   0.436  0.0664  0.4838 -0.3563
  662SOL     OW 1984   3.019   0.725   2.247 -0.2400 -0.0840  0.4961
  662SOL    HW1 1985   2.921   0.747   2.244  0.9173 -1.0995  0.7222
  662SOL    HW2 1986   3.068   0.793   2.190 -0.4016 -4.6491  0.0665
  663SOL     OW 1987   2.030   1.397   0.861  0.4480 -0.2368  0.4250
  663SOL    HW1 1988   2.075   1.323   0.810 -4.2497 -0.3704  1.5753
  663SOL    HW2 1989   2.087   1.445   0.927 -1.0675 -1.0667 -3.6992
  664SOL     OW 1990   0.641   0.366   1.275  0.0822  0.3121  0.3842
  664SOL    HW1 1991   0.729   0.353   1.224  1.7348  1.6166 -0.7842
  664SOL    HW2 1992   0.593   0.278   1.291  0.2085  2.4390 -2.4552
  665SOL     OW 1993   1.161   3.020   0.147  0.3128  0.1493 -0.5132
  665SOL    HW1 1994   1.212   2.954   0.090 -1.1042  0.7226  1.3505
  665SOL    HW2 1995   1.113   3.096   0.100 -0.1881  1.3003  0.2521
  666SOL     OW 1996   0.042   0.426   2.407  0.5175  0.0106  0.0841
  666SOL    HW1 1997   0.095   0.370   2.474  3.1571 -2.4172  1.0158
  666SOL    HW2 1998   3.066   0.362   2.376 -0.7952 -1.4948 -0.1258
  667SOL     OW 1999   2.151   1.636   2.129  0.1633 -0.4439  0.1775
  667SOL    HW1 2000   2.209   1.553   2.137  2.0700 -0.4002 -2.0525
  667SOL    HW2 2001   2.052   1.618   2.130 -0.0517  1.6920  2.3992
  668SOL     OW 2002   0.347   1.763   2.775 -0.9032  0.2060 -0.5453
  668SOL    HW1 2003   0.333   1.845   2.718  0.7485 -3.1351  1.1259
  668SOL    HW2 2004   0.387   1.685   2.723 -1.8607 -0.5074 -0.4105
  669SOL     OW 2005   2.055   2.560   2.415  0.8502  0.2708  0.3959
  669SOL    HW1 2006   2.103   2.488   2.366 -0.6602 -0.7247 -0.2577
  669SOL    HW2 2007   1.993   2.528   2.491  0.9117 -0.4601 -0.6245
  670SOL     OW 2008   2.593   1.067   2.404 -0.2006  0.1273 -0.0975
  670SOL    HW1 2009   2.527   1.065   2.323 -2.5270  2.9714  0.7222
  670SOL    HW2 2010   2.584   0.977   2.457  0.5846 -1.8433  0.4318
  671SOL     OW 2011   2.403   1.366   0.138  0.2469 -0.0584  0.2005
  671SOL    HW1 2012   2.389   1.334   0.042 -3.1515 -2.0132 -1.4518
  671SOL    HW2 2013   2.428   1.469   0.143 -0.8340  0.5452 -0.2675
  672SOL     OW 2014   2.807   1.243   2.357 -0.0471 -0.0686  0.2556
  672SOL    HW1 2015   2.829   1.291   2.442  0.4386  3.7754  0.5331
  672SOL    HW2 2016   2.731   1.176   2.371 -1.4276 -0.7566 -0.1078
  673SOL     OW 2017   2.526   1.061   1.536 -0.5227 -0.1290 -0.0527
  673SOL    HW1 2018   2.521   1.109   1.449 -0.2517 -1.3712  0.9724
  673SOL    HW2 2019   2.613   1.007   1.547 -1.5155 -2.0079 -1.9559
  674SOL     OW 2020   1.673   1.861   1.344  0.3436  0.3174 -0.1583
  674SOL    HW1 2021   1.743   1.803   1.301 -0.4473  3.0345  0.7768
  674SOL    HW2 2022   1.597   1.802   1.386  0.5564 -1.2986 -1.9174
  675SOL     OW 2023   0.015   0.520   1.083 -0.3117  0.0669  0.1011
  675SOL    HW1 2024   0.081   0.595   1.049 -1.0630 -0.4774 -1.7013
  675SOL    HW2 2025   0.058   0.428   1.080 -2.0783  2.2518 -0.0071
  676SOL     OW 2026   2.075   0.905   1.045  0.1512 -0.1036 -0.2611
  676SOL    HW1 2027   2.077   0.875   1.142 -2.0356 -4.6830  1.1483
  676SOL    HW2 2028   2.117   0.836   0.984 -1.0404  1.6723 -1.6280
  677SOL     OW 2029   1.617   1.544   2.193  0.8929 -0.2279 -0.2918
  677SOL    HW1 2030   1.576   1.458   2.166  0.9696  1.2915  1.3975
  677SOL    HW2 2031   1.552   1.619   2.174  2.6880  0.5408  1.8107
  678SOL     OW 2032   2.965   1.819   1.003 -0.3936  0.9558  0.2860
  678SOL    HW1 2033   3.029   1.853   1.076 -0.3090  1.7128 -0.7655
  678SOL    HW2 2034   2.878   1.786   1.042 -0.4702 -2.5366 -2.3119
  679SOL     OW 2035   3.099   2.992   0.498  0.2498 -0.4205  0.7684
  679SOL    HW1 2036   3.007   2.992   0.543  0.0117 -1.3917  0.3431
  679SOL    HW2 2037   0.062   2.927   0.539 -0.0203 -1.0622 -1.7942
  680SOL     OW 2038   0.224   2.281   1.257  0.4275 -0.4376  0.1709
  680SOL    HW1 2039   0.290   2.228   1.206 -0.7214  1.9139  4.3471
  680SOL    HW2 2040   0.133   2.237   1.241 -0.5485  0.9541 -1.4273
  681SOL     OW 2041   0.818   0.740   1.209 -0.6085 -0.9769 -0.0222
  681SOL    HW1 2042   0.733   0.770   1.247  1.5778 -0.9063 -1.0992
  681SOL    HW2 2043   0.868   0.669   1.268  0.9574 -2.7438  0.1315
  682SOL     OW 2044   1.488   2.727   0.693 -0.4429  0.5156  0.6903
  682SOL    HW1 2045   1.512   2.791   0.765  0.7275  0.4458 -2.1886
  682SOL    HW2 2046   1.498   2.629   0.719  0.9835 -0.8120 -0.9650
  683SOL     OW 2047   2.156   1.237   1.380  0.2920  0.1080  0.2646
  683SOL    HW1 2048   2.111   1.293   1.309 -1.4024 -1.3586 -0.9298
  683SOL    HW2 2049   2.251   1.202   1.349  4.4887 -0.4439 -0.7217
  684SOL     OW 2050   0.365   1.921   1.700 -0.4462  0.0914 -0.8059
  684SOL    HW1 2051   0.429   1.908   1.776 -0.5144  1.4602 -1.5721
  684SOL    HW2 2052   0.309   1.844   1.674 -0.4363  3.2157  1.0739
  685SOL     OW 2053   2.519   1.900   0.268  0.0142 -0.3227  0.6059
  685SOL    HW1 2054   2.559   1.809   0.287 -2.3737 -0.2755 -0.3008
  685SOL    HW2 2055   2.427   1.890   0.221  1.1160 -2.5896 -2.1658
  686SOL     OW 2056   2.940   0.319   0.606 -0.5305 -0.1321  0.2255
  686SOL    HW1 2057   2.861   0.316   0.539 -0.1981  1.5202  0.9942
  686SOL    HW2 2058   2.939   0.413   0.650  1.7325  2.7440  2.5804
  687SOL     OW 2059   1.317   2.860   3.092 -0.6095  0.0012  0.1148
  687SOL    HW1 2060   1.365   2.950   3.096  2.4752 -1.3808 -3.1598
  687SOL    HW2 2061   1.286   2.844   2.998 -0.2499  1.8382  3.6786
  688SOL     OW 2062   1.780   2.008   2.154  0.3779 -0.0453 -0.0013
  688SOL    HW1 2063   1.819   1.941   2.222 -0.0375 -0.3967  2.0767
  688SOL    HW2 2064   1.853   2.052   2.100 -0.6148  1.8493  1.3582
  689SOL     OW 2065   2.805   1.007   1.842 -0.3102 -0.0132  0.6214
  689SOL    HW1 2066   2.755   1.079   1.797  1.2871  1.0439  3.2857
  689SOL    HW2 2067   2.745   0.953   1.901  4.0123  0.2484  1.4130
  690SOL     OW 2068   2.195   1.232   0.720  0.3867 -0.7937 -0.6069
  690SOL    HW1 2069   2.276   1.294   0.722 -0.5908 -0.9271  1.7045
  690SOL    HW2 2070   2.224   1.134   0.713 -0.3831 -4.1423  3.4886
  691SOL     OW 2071   1.051   1.227   1.233 -0.1101  0.0020 -0.4097
  691SOL    HW1 2072   1.115   1.155   1.276  2.8931 -1.4461  0.3155
  691SOL    HW2 2073   0.952   1.198   1.251  0.4739  0.4606  2.0413
  692SOL     OW 2074   1.557   0.012   2.154 -0.2266 -0.0883 -0.1222
  692SOL    HW1 2075   1.602   3.023   2.137 -1.1043  0.6008  1.5072
  692SOL    HW2 2076   1.624   0.068   2.203 -1.3482  0.7508  0.2000
  693SOL     OW 2077   0.272   1.273   2.838  0.2879  0.0296  0.8493
  693SOL    HW1 2078   0.281   1.201   2.902  2.8636  0.1553 -3.1762
  693SOL    HW2 2079   0.194   1.248   2.780  1.5514  0.4782  0.6266
  694SOL     OW 2080   2.192   2.732   0.844 -0.2793  0.0898 -0.2457
  694SOL    HW1 2081   2.269   2.783   0.804  1.1222  0.1155  0.0632
  694SOL    HW2 2082   2.107   2.739   0.788  0.3536 -0.5266 -0.5042
  695SOL     OW 2083   1.683   1.350   2.851 -0.1291 -0.0262 -0.1809
  695SOL    HW1 2084   1.702   1.383   2.948  0.0966  1.1936  2.4307
  695SOL    HW2 2085   1.734   1.399   2.777 -2.2638  1.1671 -1.4582
  696SOL     OW 2086   1.804   0.348   1.567 -0.0137 -0.1679  0.1960
  696SOL    HW1 2087   1.805   0.439   1.611  0.4002  0.6474 -0.3539
  696SOL    HW2 2088   1.859   0.343   1.481 -0.7961  2.4433  1.0559
  697SOL     OW 2089   1.649   0.335   1.885 -0.4832  0.1618  0.0704
  697SOL    HW1 2090   1.669   0.243   1.849  1.7553 -0.4771 -1.0742
  697SOL    HW2 2091   1.546   0.351   1.905 -0.3832 -0.8865  2.3790
  698SOL     OW 2092   1.821   1.505   2.393 -0.5945  0.1846  0.3590
  698SOL    HW1 2093   1.743   1.546   2.342  0.6290 -0.2966  1.6735
  698SOL    HW2 2094   1.801   1.409   2.419  2.5050 -1.1927  1.1063
  699SOL     OW 2095   1.810   1.215   0.629  0.2568  0.5502  0.2434
  699SOL    HW1 2096   1.889   1.259   0.673 -1.0351  2.3069 -1.5361
  699SOL    HW2 2097   1.809   1.115   0.647 -3.2071 -0.1793 -2.6367
  700SOL     OW 2098   1.533   2.946   0.375 -0.3162 -0.1284  0.0344
  700SOL    HW1 2099   1.453   2.904   0.421 -1.1197  2.9231  0.2872
  700SOL    HW2 2100   1.514   2.985   0.281 -1.4690  2.5222 -0.4730
  701SOL     OW 2101   0.181   0.294   1.313  0.0502  0.2317  0.0191
  701SOL    HW1 2102   0.180   0.387   1.345 -0.0337 -1.6405 -1.8420
  701SOL    HW2 2103   0.263   0.240   1.348  0.7815 -0.0699  0.4829
  702SOL     OW 2104   1.771   2.993   1.460 -0.1914 -0.1446 -0.2399
  702SOL    HW1 2105   1.777   2.905   1.416 -0.6269  4.1627 -0.9737
  702SOL    HW2 2106   1.685   2.991   1.522  0.8187  0.3815  1.7152
  703SOL     OW 2107   2.486   2.933   2.174  0.7841 -0.1311  0.3650
  703SOL    HW1 2108   2.439   2.932   2.265 -0.5388  2.0053  1.3165
  703SOL    HW2 2109   2.527   2.843   2.149 -0.6718 -1.1039  1.6673
  704SOL     OW 2110   1.137   1.842   0.564  0.0281  0.1362  0.5781
  704SOL    HW1 2111   1.112   1.786   0.648 -2.2134  0.3448  0.1228
  704SOL    HW2 2112   1.158   1.936   0.599  2.0237  0.8116 -0.6227
  705SOL     OW 2113   0.050   1.725   2.182  0.0265 -0.3596  0.0892
  705SOL    HW1 2114   0.138   1.740   2.235  0.3638 -0.6432 -1.6855
  705SOL    HW2 2115   3.072   1.717   2.243  2.8210  0.3364 -0.7641
  706SOL     OW 2116   1.468   0.198   0.353  0.4052 -0.1860 -0.0737
  706SOL    HW1 2117   1.481   0.108   0.397 -1.9612  0.7084  0.1274
  706SOL    HW2 2118   1.511   0.267   0.415  2.4981 -1.1264  1.3682
  707SOL     OW 2119   1.373   2.569   2.311  0.1431 -0.3518  0.2494
  707SOL    HW1 2120   1.348   2.489   2.374  1.2839  2.0878 -0.3520
  707SOL    HW2 2121   1.309   2.573   2.232 -0.8520  1.9443  0.0544
  708SOL     OW 2122   0.629   2.259   1.658  0.0439  0.7863  0.1173
  708SOL    HW1 2123   0.614   2.207   1.569 -0.8183 -0.9384 -3.7702
  708SOL    HW2 2124   0.721   2.247   1.696 -2.1841 -1.8461 -1.3719
  709SOL     OW 2125   2.523   0.579   1.987 -0.1357  0.8109 -0.3084
  709SOL    HW1 2126   2.492   0.525   2.065  1.2420  1.7627 -2.2245
  709SOL    HW2 2127   2.618   0.563   1.965 -1.5410 -2.9752  2.0264
  710SOL     OW 2128   3.031   0.247   1.685  0.3874 -0.2264  0.8178
  710SOL    HW1 2129   2.991   0.324   1.634 -2.6264  0.3772  2.5811
  710SOL    HW2 2130   3.084   0.280   1.760  1.4810 -0.5370 -2.6587
  711SOL     OW 2131   2.898   2.293   0.385  0.3896 -0.9371  0.2402
  711SOL    HW1 2132   2.943   2.363   0.324 -0.0334  0.4016 -1.5388
  711SOL    HW2 2133   2.806   2.319   0.417 -1.3164 -0.8513 -0.7147
  712SOL     OW 2134   0.377   2.770   2.690  0.1755 -0.2621  0.3297
  712SOL    HW1 2135   0.419   2.856   2.714 -1.2014 -3.7623  1.5205
  712SOL    HW2 2136   0.436   2.689   2.706  0.4631  1.0259 -3.3663
  713SOL     OW 2137   1.909   0.520   0.436 -0.5981  0.1439 -0.0173
  713SOL    HW1 2138   1.937   0.497   0.346 -0.2741  0.7944 -1.1656
  713SOL    HW2 2139   1.875   0.620   0.440  2.2005  4.3714  1.7020
  714SOL     OW 2140   1.508   2.065   0.541  0.3394  0.1478 -0.0198
  714SOL    HW1 2141   1.419   2.068   0.599 -4.4939 -0.4167 -0.3911
  714SOL    HW2 2142   1.585   2.028   0.592 -1.2324  2.8386 -0.0874
  715SOL     OW 2143   0.070   0.382   0.153 -0.1084  0.1606  0.5316
  715SOL    HW1 2144   3.073   0.414   0.143  0.3945 -2.7951 -0.9818
  715SOL    HW2 2145   0.129   0.453   0.194 -0.7831 -2.8981  0.3802
  716SOL     OW 2146   0.987   2.949   2.287 -0.5025  0.0743 -0.3843
  716SOL    HW1 2147   1.084   2.940   2.309  0.9226  1.3638 -0.5208
  716SOL    HW2 2148   0.927   2.874   2.316  0.8762 -0.4741  0.1445
  717SOL     OW 2149   0.519   0.392   0.009 -0.3052  0.2591 -0.3274
  717SOL    HW1 2150   0.566   0.435   3.033 -1.0919 -1.2581  2.1612
  717SOL    HW2 2151   0.423   0.379   3.085 -1.5238  2.7117  1.1051
  718SOL     OW 2152   1.044   0.731   0.618  0.0910 -0.3433 -0.1781
  718SOL    HW1 2153   1.094   0.800   0.675 -1.0888 -1.2879 -1.4453
  718SOL    HW2 2154   1.111   0.668   0.567 -0.6691 -2.3370 -0.2352
  719SOL     OW 2155   2.266   2.256   2.808 -0.1121  0.5043  0.5187
  719SOL    HW1 2156   2.309   2.174   2.757  4.9360 -0.2829 -2.8507
  719SOL    HW2 2157   2.241   2.332   2.744  0.4266 -0.1235 -2.1677
  720SOL     OW 2158   1.583   1.085   1.960  0.5332 -0.2885  0.2028
  720SOL    HW1 2159   1.635   1.071   1.872 -1.4074  1.8997 -0.4025
  720SOL    HW2 2160   1.638   1.048   2.038 -0.7541 -0.0448 -1.8303
  721SOL     OW 2161   2.995   2.871   1.199  0.2474 -0.0397 -0.5760
  721SOL    HW1 2162   2.950   2.836   1.287  1.1096  0.1998 -0.4131
  721SOL    HW2 2163   2.986   2.975   1.186 -1.2338  0.3383 -1.5966
  722SOL     OW 2164   1.141   1.986   2.365  0.1565 -0.1972 -0.3797
  722SOL    HW1 2165   1.214   2.048   2.399 -2.8324  2.6154  3.4610
  722SOL    HW2 2166   1.172   1.893   2.337  0.6862 -0.3631 -3.7721
  723SOL     OW 2167   1.377   0.386   0.632  0.3292  0.4487  0.2422
  723SOL    HW1 2168   1.341   0.462   0.682  2.9824 -1.8330 -1.7443
  723SOL    HW2 2169   1.477   0.407   0.607  2.7067  1.0450  0.7768
  724SOL     OW 2170   0.648   1.968   2.704  0.1664 -0.1848 -0.3358
  724SOL    HW1 2171   0.636   1.869   2.707 -1.8564 -2.1340  3.6072
  724SOL    HW2 2172   0.671   1.995   2.799  0.0875  1.3166 -1.3232
  725SOL     OW 2173   3.075   0.665   1.300 -0.2927  0.3611 -0.0326
  725SOL    HW1 2174   2.979   0.700   1.304 -0.9764  0.7570 -0.6163
  725SOL    HW2 2175   3.091   0.610   1.215 -0.6023 -2.8414  0.4841
  726SOL     OW 2176   1.941   0.135   0.467 -0.1157  0.0311 -0.0730
  726SOL    HW1 2177   1.882   0.072   0.416 -1.8709 -2.5375  3.2327
  726SOL    HW2 2178   1.932   0.113   0.569  0.7119 -1.0615  2.8324
  727SOL     OW 2179   2.028   1.116   2.065  0.0789 -0.1217  0.4628
  727SOL    HW1 2180   1.939   1.160   2.095 -1.6075  0.4264  1.2290
  727SOL    HW2 2181   2.074   1.080   2.146 -0.5060  0.5294  0.8170
  728SOL     OW 2182   1.533   2.650   1.558 -0.0529 -0.2482  0.4748
  728SOL    HW1 2183   1.478   2.735   1.559 -0.6454 -0.5554  1.9349
  728SOL    HW2 2184   1.522   2.597   1.471  1.1511 -1.0984 -1.2963
  729SOL     OW 2185   1.770   0.422   2.109  0.0573 -0.4133  0.1669
  729SOL    HW1 2186   1.793   0.521   2.097 -2.4074 -1.8805  0.4216
  729SOL    HW2 2187   1.731   0.376   2.029 -1.8573  0.2838 -0.3323
  730SOL     OW 2188   0.521   1.022   1.229  0.6707 -0.4876 -0.0307
  730SOL    HW1 2189   0.556   0.933   1.268 -1.0000 -2.4384 -0.2836
  730SOL    HW2 2190   0.447   1.061   1.287  5.4247  0.1477 -2.9025
  731SOL     OW 2191   0.792   0.062   0.202 -0.4197 -0.9475 -0.1688
  731SOL    HW1 2192   0.881   0.103   0.241  3.3453  1.8704 -3.1705
  731SOL    HW2 2193   0.715   0.127   0.206  1.1012 -0.2493  1.7538
  732SOL     OW 2194   0.673   0.954   0.552  0.0107 -0.0964  0.4165
  732SOL    HW1 2195   0.636   0.892   0.624 -0.2690  2.0259 -3.2911
  732SOL    HW2 2196   0.597   0.988   0.495 -2.3714  0.9749 -1.5034
  733SOL     OW 2197   1.427   1.424   1.805 -0.3220  0.0018 -0.6543
  733SOL    HW1 2198   1.404   1.398   1.902 -2.9864  0.6710 -0.8292
  733SOL    HW2 2199   1.361   1.488   1.772  0.4731  0.8103  1.2622
  734SOL     OW 2200   0.099   2.427   2.123 -0.6330 -0.3627  0.1324
  734SOL    HW1 2201   0.078   2.437   2.023 -0.5316  0.2006  0.7897
  734SOL    HW2 2202   0.012   2.449   2.179 -3.1209 -0.7101 -1.0880
  735SOL     OW 2203   1.444   0.258   1.043 -0.5525 -0.3227  0.5215
  735SOL    HW1 2204   1.451   0.160   1.023 -0.2715  0.6736 -1.8954
  735SOL    HW2 2205   1.349   0.293   1.026 -0.5866  2.0633 -3.6452
  736SOL     OW 2206   0.931   1.254   3.078 -0.3579  0.3364 -0.1335
  736SOL    HW1 2207   0.944   1.208   0.066 -0.3928 -0.4812  0.4278
  736SOL    HW2 2208   0.985   1.341   3.088  0.0383  0.6468  0.8628
  737SOL     OW 2209   0.055   0.703   0.754  0.5635 -0.4768 -0.6297
  737SOL    HW1 2210   0.099   0.699   0.665 -2.5063 -0.6273  2.3796
  737SOL    HW2 2211   3.063   0.668   0.756 -0.1606 -2.6168 -0.6582
  738SOL     OW 2212   0.702   2.538   1.637 -0.1278  0.4211  0.4315
  738SOL    HW1 2213   0.644   2.581   1.565 -0.6143 -1.3835  2.0030
  738SOL    HW2 2214   0.686   2.439   1.635 -2.3841  1.8287 -0.3174
  739SOL     OW 2215   1.470   2.658   0.053 -0.0149  0.0256  0.1689
  739SOL    HW1 2216   1.440   2.619   0.143 -1.3280 -0.9149  0.7484
  739SOL    HW2 2217   1.411   2.734   0.020  3.0013  0.2418 -1.0297
  740SOL     OW 2218   1.826   2.758   1.317  0.1687  0.3447  0.3824
  740SOL    HW1 2219   1.888   2.728   1.393 -0.2722  0.6141  0.1986
  740SOL    HW2 2220   1.799   2.692   1.249  2.6564 -1.1911  0.0964
  741SOL     OW 2221   2.156   0.324   0.804  0.4075  0.3190  0.4694
  741SOL    HW1 2222   2.163   0.361   0.706 -0.6929 -2.9054  2.4500
  741SOL    HW2 2223   2.252   0.308   0.841 -1.2454 -0.6533  0.6102
  742SOL     OW 2224   1.304   2.314   2.368  0.2092 -0.3240 -0.1676
  742SOL    HW1 2225   1.358   2.225   2.377  0.1312 -0.5671 -2.4122
  742SOL    HW2 2226   1.234   2.316   2.443 -1.5351 -0.7331  1.8958
  743SOL     OW 2227   2.336   0.766   1.916 -0.1689 -0.4925 -0.3755
  743SOL    HW1 2228   2.271   0.741   1.841 -0.4798 -1.7104  1.1832
  743SOL    HW2 2229   2.378   0.686   1.952 -2.3386 -0.8973 -0.9188
  744SOL     OW 2230   2.038   0.528   0.929 -0.5026 -0.1923 -0.0196
  744SOL    HW1 2231   2.096   0.611   0.909 -0.5458  1.6616  1.6270
  744SOL    HW2 2232   2.081   0.448   0.880  0.3791 -1.6983 -0.6686
  745SOL     OW 2233   2.389   1.031   1.954  0.1837 -0.3057 -0.6481
  745SOL    HW1 2234   2.413   1.080   1.873  0.9624 -0.4828  0.8742
  745SOL    HW2 2235   2.357   0.936   1.937 -1.0038 -0.7361 -0.2765
  746SOL     OW 2236   1.325   1.630   0.532 -0.1205  0.8293  0.2062
  746SOL    HW1 2237   1.415   1.673   0.550 -0.3641 -1.0722  0.2343
  746SOL    HW2 2238   1.254   1.704   0.524  0.7844 -1.0906 -1.6569
  747SOL     OW 2239   1.942   1.866   0.895 -0.6829 -0.2682 -0.3787
  747SOL    HW1 2240   1.848   1.843   0.916  0.3532  0.8006  0.4544
  747SOL    HW2 2241   1.952   1.880   0.797  1.3039 -1.5842  1.7598
  748SOL     OW 2242   0.258   2.690   0.358 -0.4526 -0.1601  0.1839
  748SOL    HW1 2243   0.306   2.652   0.440  0.0425 -1.6316 -1.5466
  748SOL    HW2 2244   0.324   2.736   0.293  0.8100 -0.4722  0.5468
  749SOL     OW 2245   0.338   0.985   2.353 -0.5288 -0.1746  0.6923
  749SOL    HW1 2246   0.338   0.941   2.258  1.6563  1.7916  1.0005
  749SOL    HW2 2247   0.246   1.020   2.368 -0.7089  2.8862 -0.7585
  750SOL     OW 2248   1.440   2.883   1.858 -0.3586 -0.3264 -0.2310
  750SOL    HW1 2249   1.348   2.899   1.897  0.4288 -1.6201 -0.5255
  750SOL    HW2 2250   1.510   2.876   1.934 -0.3846  0.7801  1.9426
  751SOL     OW 2251   2.723   0.630   0.198  0.2931 -0.0080 -0.1119
  751SOL    HW1 2252   2.758   0.638   0.294 -0.6561  0.1859  1.5914
  751SOL    HW2 2253   2.651   0.559   0.194  1.6868 -0.6534  0.9382
  752SOL     OW 2254   0.147   2.110   0.696  0.0659  0.4900 -0.0890
  752SOL    HW1 2255   0.155   2.061   0.610 -0.0053  0.2329  3.0250
  752SOL    HW2 2256   0.079   2.185   0.685 -1.7703 -1.6221  0.3920
  753SOL     OW 2257   0.972   0.270   0.923 -0.2071 -0.3354  0.2847
  753SOL    HW1 2258   0.999   0.220   0.842  0.0065  1.1956  1.7013
  753SOL    HW2 2259   0.871   0.290   0.918 -2.1410 -2.0856 -0.4235
  754SOL     OW 2260   0.549   0.076   2.422  0.4054  0.1840 -0.5019
  754SOL    HW1 2261   0.451   0.119   2.415 -2.3393  0.0866 -3.2698
  754SOL    HW2 2262   0.545   3.075   2.439  0.5158  0.3346  0.3034
  755SOL     OW 2263   1.922   0.932   2.964  0.0625  0.2581 -0.5398
  755SOL    HW1 2264   1.915   0.934   3.066  1.4066 -0.9628 -2.9708
  755SOL    HW2 2265   1.872   0.847   2.927  0.5833 -1.1476 -0.3194
  756SOL     OW 2266   2.377   2.176   2.486  0.1433  0.0037 -0.0221
  756SOL    HW1 2267   2.442   2.208   2.413 -1.1473 -0.4641 -1.1841
  756SOL    HW2 2268   2.409   2.091   2.527 -0.2187  2.5477 -0.7452
  757SOL     OW 2269   1.544   0.602   0.876 -0.3638  0.3932 -0.2055
  757SOL    HW1 2270   1.449   0.589   0.848  2.6712 -1.7459  1.9864
  757SOL    HW2 2271   1.573   0.526   0.937 -0.7687 -0.0093 -3.4296
  758SOL     OW 2272   1.684   0.383   1.043 -0.5122 -0.0658 -0.1544
  758SOL    HW1 2273   1.598   0.331   1.050  1.7697  2.9127  0.9173
  758SOL    HW2 2274   1.700   0.432   1.131 -1.0525 -0.7732 -0.3872
  759SOL     OW 2275   2.660   0.550   1.200 -0.0595  0.3853 -0.0769
  759SOL    HW1 2276   2.655   0.478   1.276 -1.5673 -0.2155  0.2240
  759SOL    HW2 2277   2.704   0.514   1.117 -0.1382 -0.1677  0.9072
  760SOL     OW 2278   2.399   1.135   1.239  0.0342  0.0287 -0.2639
  760SOL    HW1 2279   2.432   1.119   1.142  0.5101  2.2069 -0.3589
  760SOL    HW2 2280   2.338   1.060   1.272  1.5202 -0.6620 -0.5807
  761SOL     OW 2281   0.300   0.482   0.273  0.9167 -0.0546  0.3742
  761SOL    HW1 2282   0.392   0.506   0.243 -2.1853  0.0216  1.2942
  761SOL    HW2 2283   0.279   0.514   0.371  0.9458  1.2639 -0.0377
  762SOL     OW 2284   1.579   2.126   1.205 -0.2398 -0.2111  0.4209
  762SOL    HW1 2285   1.603   2.031   1.232 -2.4494  2.2240 -1.0123
  762SOL    HW2 2286   1.512   2.126   1.127  1.6058 -1.6327 -0.9726
  763SOL     OW 2287   1.204   1.577   1.987  0.3367  0.4319 -0.3488
  763SOL    HW1 2288   1.195   1.658   1.924 -1.7341 -2.2171  0.4374
  763SOL    HW2 2289   1.130   1.515   1.962  1.1886  0.3030 -1.2347
  764SOL     OW 2290   3.069   1.883   2.669  0.6355  0.7039 -0.2128
  764SOL    HW1 2291   2.982   1.848   2.627 -1.8039  1.4071  1.4717
  764SOL    HW2 2292   3.051   1.917   2.761 -0.3374  0.8000 -1.6435
  765SOL     OW 2293   1.281   2.711   1.067  0.0098 -0.9428 -0.3802
  765SOL    HW1 2294   1.375   2.691   1.027  3.9870  0.3443 -1.1065
  765SOL    HW2 2295   1.262   2.814   1.073 -2.3933 -0.7219 -0.6180
  766SOL     OW 2296   3.091   2.570   2.475 -0.1813 -0.2822 -0.2895
  766SOL    HW1 2297   3.075   2.655   2.528  2.2424  1.6911  2.3555
  766SOL    HW2 2298   3.050   2.491   2.519 -1.0404 -1.5417 -0.7746
  767SOL     OW 2299   1.339   0.842   2.276  0.3681 -0.0501  0.2743
  767SOL    HW1 2300   1.418   0.882   2.320  0.8909 -2.1772 -0.1005
  767SOL    HW2 2301   1.329   0.748   2.304  1.9641  3.1398  2.0713
  768SOL     OW 2302   1.118   2.096   2.951 -0.0821 -0.4568 -0.2492
  768SOL    HW1 2303   1.181   2.152   2.892  2.3569  0.8144  2.4506
  768SOL    HW2 2304   1.073   2.023   2.893 -2.5383  0.2032 -1.4553
  769SOL     OW 2305   0.439   2.187   1.101 -0.3677  0.2910 -0.5217
  769SOL    HW1 2306   0.457   2.093   1.139 -2.0274  0.3773 -0.8482
  769SOL    HW2 2307   0.525   2.236   1.102  2.0291  1.0792  3.0953
  770SOL     OW 2308   1.763   0.735   2.899 -0.1467  0.0747  0.0551
  770SOL    HW1 2309   1.744   0.649   2.940 -0.5917  1.2551  0.1674
  770SOL    HW2 2310   1.696   0.804   2.924  0.7333 -1.1657  1.5037
  771SOL     OW 2311   0.128   0.047   2.238 -0.1910 -0.5487  0.0723
  771SOL    HW1 2312   0.116   3.051   2.215  0.1472  1.7301 -0.8370
  771SOL    HW2 2313   0.133   0.104   2.157  0.7828 -0.6306  0.9446
  772SOL     OW 2314   2.093   2.677   2.023  0.7230 -0.1724  0.8571
  772SOL    HW1 2315   2.123   2.577   2.041  1.4176 -1.4166  1.4987
  772SOL    HW2 2316   2.157   2.721   1.955 -3.1560 -0.0151 -0.4528
  773SOL     OW 2317   0.864   1.997   1.583  0.2725 -0.1656 -0.2862
  773SOL    HW1 2318   0.891   1.987   1.488  0.7875 -0.0801  2.3236
  773SOL    HW2 2319   0.882   2.091   1.617  0.3201  0.1094 -0.5379
  774SOL     OW 2320   1.097   0.056   1.891 -0.3083 -1.3092 -0.1415
  774SOL    HW1 2321   1.191   0.081   1.918  1.4392 -0.6475  1.2204
  774SOL    HW2 2322   1.025   0.111   1.944 -6.1781  2.1227  0.3607
  775SOL     OW 2323   2.231   2.831   0.012  0.0136  0.1982 -0.3101
  775SOL    HW1 2324   2.191   2.774   3.043  0.9941  2.4852  3.2226
  775SOL    HW2 2325   2.331   2.819   0.025 -0.5178  0.6665  0.9844
  776SOL     OW 2326   2.766   0.836   2.282 -0.5073  0.0501 -0.1373
  776SOL    HW1 2327   2.704   0.834   2.363 -0.4857 -0.7619 -2.0190
  776SOL    HW2 2328   2.822   0.922   2.279 -0.8954 -1.9703 -2.1253
  777SOL     OW 2329   2.294   2.134   1.966  0.4369  0.2034  0.2603
  777SOL    HW1 2330   2.241   2.050   1.971  1.4006  0.2975 -1.7889
  777SOL    HW2 2331   2.247   2.217   1.989 -1.2971 -2.8371 -0.4284
  778SOL     OW 2332   1.962   0.840   2.408  0.4589 -0.1118 -0.4166
  778SOL    HW1 2333   1.983   0.803   2.501 -0.9177 -0.5599  1.2673
  778SOL    HW2 2334   2.003   0.781   2.337  0.6376 -1.1397 -0.5036
  779SOL     OW 2335   2.694   0.306   0.487  0.4880  0.1309 -0.4776
  779SOL    HW1 2336   2.669   0.210   0.490 -1.3161 -0.6653 -0.5959
  779SOL    HW2 2337   2.633   0.352   0.416  0.0239  2.8512 -1.6985
  780SOL     OW 2338   2.553   0.399   0.253  0.1198 -0.2189  1.1954
  780SOL    HW1 2339   2.606   0.341   0.186  0.6592  0.3630 -0.9774
  780SOL    HW2 2340   2.457   0.370   0.264  3.4604 -0.4757 -3.4144
  781SOL     OW 2341   0.314   2.537   1.337 -0.3331 -0.3842 -0.3021
  781SOL    HW1 2342   0.281   2.446   1.309 -0.1015  0.7490 -1.3185
  781SOL    HW2 2343   0.243   2.609   1.317 -0.8995 -1.1545  1.1022
  782SOL     OW 2344   2.099   2.609   0.176 -0.3428 -0.0204  0.4592
  782SOL    HW1 2345   2.078   2.644   0.269  0.6982  0.3033  0.1475
  782SOL    HW2 2346   2.198   2.602   0.164 -3.0320 -1.1655 -0.0086
  783SOL     OW 2347   0.780   1.131   1.289  0.3145  0.1114 -0.1584
  783SOL    HW1 2348   0.682   1.137   1.258  1.6040  5.0600  2.8260
  783SOL    HW2 2349   0.784   1.094   1.386  0.3649  0.9865  3.5439
  784SOL     OW 2350   1.410   0.609   2.745 -0.6063 -0.4338  0.1588
  784SOL    HW1 2351   1.316   0.617   2.707  2.1452  4.3778 -3.1890
  784SOL    HW2 2352   1.417   0.609   2.847  1.5765 -4.0755  2.0311
  785SOL     OW 2353   2.392   0.337   0.999  0.0425 -0.3730  0.2029
  785SOL    HW1 2354   2.474   0.291   1.046  1.5070 -1.0371  0.4395
  785SOL    HW2 2355   2.331   0.379   1.067 -0.9204 -1.2584 -2.0786
  786SOL     OW 2356   1.265   2.458   1.978 -0.3378 -0.0363  0.5853
  786SOL    HW1 2357   1.316   2.515   1.908  1.0330  0.1386  0.3363
  786SOL    HW2 2358   1.321   2.381   2.014 -0.3050  0.8323  0.8878
  787SOL     OW 2359   1.936   0.384   1.315 -0.3530 -0.4034 -0.0731
  787SOL    HW1 2360   1.851   0.429   1.293  2.1411 -1.7665  0.0401
  787SOL    HW2 2361   1.956   0.304   1.249 -0.6388  0.8925  0.9564
  788SOL     OW 2362   0.340   0.792   0.615 -0.2210  0.5948  0.7599
  788SOL    HW1 2363   0.417   0.807   0.680 -1.5013 -1.2342 -1.4816
  788SOL    HW2 2364   0.319   0.879   0.558 -2.1232  2.1073 -1.3083
  789SOL     OW 2365   0.455   2.069   1.494 -0.0307 -0.2501 -0.0313
  789SOL    HW1 2366   0.377   2.136   1.499  1.3458  0.8251 -0.9850
  789SOL    HW2 2367   0.439   2.005   1.568 -1.5071  4.4352 -0.8593
  790SOL     OW 2368   0.853   0.658   2.439 -0.1654  0.2528 -0.3783
  790SOL    HW1 2369   0.791   0.699   2.371 -1.8922  1.6076  0.5921
  790SOL    HW2 2370   0.940   0.615   2.395  2.0739 -0.1919 -2.1715
  791SOL     OW 2371   1.822   0.691   0.898  0.1774 -0.3705  0.1370
  791SOL    HW1 2372   1.737   0.650   0.849 -2.5269 -4.1521 -3.0379
  791SOL    HW2 2373   1.874   0.615   0.933 -2.2273 -0.4288  0.0834
  792SOL     OW 2374   1.020   2.549   2.218 -0.4671 -0.1254 -0.1504
  792SOL    HW1 2375   1.097   2.592   2.167  0.3980 -1.4037  1.5313
  792SOL    HW2 2376   1.016   2.446   2.216 -0.0534 -0.2656  2.1774
  793SOL     OW 2377   0.929   0.364   0.524  0.3436 -0.5505 -0.0824
  793SOL    HW1 2378   0.833   0.408   0.529  0.6698  2.5086 -1.2751
  793SOL    HW2 2379   0.930   0.296   0.452 -2.1886 -0.0280  1.2936
  794SOL     OW 2380   0.782   1.288   1.935  0.5435  0.2479  0.1348
  794SOL    HW1 2381   0.771   1.273   2.032  1.7220  0.6552  0.1744
  794SOL    HW2 2382   0.878   1.312   1.913 -1.2077  2.2523 -1.0286
  795SOL     OW 2383   0.156   2.052   2.467 -0.1628 -0.0361 -0.2672
  795SOL    HW1 2384   0.074   2.040   2.524 -0.0321  0.3743  3.0267
  795SOL    HW2 2385   0.159   2.142   2.429  0.1381 -0.9105  2.7552
  796SOL     OW 2386   2.445   0.663   2.367 -0.3322  0.2618 -0.4701
  796SOL    HW1 2387   2.418   0.640   2.464 -3.2044  1.6066  1.2882
  796SOL    HW2 2388   2.392   0.745   2.335  0.0400  0.9240 -2.3679
  797SOL     OW 2389   2.755   2.400   2.731  0.7381  0.2346  0.2273
  797SOL    HW1 2390   2.669   2.403   2.674 -2.3073 -3.1437 -2.0999
  797SOL    HW2 2391   2.736   2.419   2.830  0.4570 -0.0789  1.9303
  798SOL     OW 2392   0.064   2.884   2.171 -0.3979 -0.0455 -0.4459
  798SOL    HW1 2393   0.012   2.866   2.082  0.3636 -0.4173  0.2966
  798SOL    HW2 2394   0.107   2.803   2.211  0.3200  0.9782  0.0754
  799SOL     OW 2395   0.241   2.488   2.340  0.5089 -0.2342  0.3132
  799SOL    HW1 2396   0.179   2.508   2.414  1.0190  0.0243  2.5939
  799SOL    HW2 2397   0.196   2.473   2.247  0.3148  0.5402 -0.4916
  800SOL     OW 2398   0.262   2.181   0.240  0.0238  0.1646 -0.3469
  800SOL    HW1 2399   0.248   2.259   0.174 -1.2831  1.4579  1.9860
  800SOL    HW2 2400   0.301   2.098   0.201  0.0620  2.2495  1.1258
  801SOL     OW 2401   1.764   1.594   0.905 -0.2518  0.8352  0.0054
  801SOL    HW1 2402   1.702   1.534   0.852 -0.8270  0.6257  0.4462
  801SOL    HW2 2403   1.855   1.553   0.912  0.0790  2.0601  0.7768
  802SOL     OW 2404   0.058   1.160   0.641  0.0237  0.3592  0.2339
  802SOL    HW1 2405   3.060   1.164   0.616  0.6275 -0.7747  0.9616
  802SOL    HW2 2406   0.078   1.155   0.739 -2.2535 -0.4308 -3.1121
  803SOL     OW 2407   1.398   1.741   2.133 -0.3539 -0.2127  0.2648
  803SOL    HW1 2408   1.331   1.693   2.079  0.1137  1.7507  4.0873
  803SOL    HW2 2409   1.367   1.757   2.228  0.7465  0.8230 -2.1255
  804SOL     OW 2410   1.742   1.629   0.450  0.6061  0.3647  0.7851
  804SOL    HW1 2411   1.747   1.691   0.369  1.4878 -2.3059  0.8158
  804SOL    HW2 2412   1.818   1.639   0.514 -0.3792 -0.5212  1.3290
  805SOL     OW 2413   2.645   1.234   3.064 -0.3864 -0.1386 -0.2669
  805SOL    HW1 2414   2.575   1.251   2.987 -1.3301 -2.3401 -1.3909
  805SOL    HW2 2415   2.631   1.144   0.003 -1.9136  2.1948 -0.2996
  806SOL     OW 2416   0.668   2.671   0.431  0.1372 -0.1087 -0.2817
  806SOL    HW1 2417   0.614   2.638   0.348 -2.6905 -4.1095 -0.4504
  806SOL    HW2 2418   0.614   2.735   0.488 -1.2576  0.3973 -0.7557
  807SOL     OW 2419   2.253   1.581   2.524 -0.0813  0.7332 -0.3425
  807SOL    HW1 2420   2.174   1.644   2.537 -1.8622  2.0808  0.4541
  807SOL    HW2 2421   2.235   1.494   2.470  1.7090  0.0766 -1.1367
  808SOL     OW 2422   0.952   1.600   1.005 -0.4367 -0.4026 -0.0449
  808SOL    HW1 2423   0.957   1.501   1.010  0.7955  0.4030 -0.9462
  808SOL    HW2 2424   0.988   1.648   1.084 -0.3134  0.6991  0.8970
  809SOL     OW 2425   2.843   0.586   0.692 -0.5501  0.0975 -0.6489
  809SOL    HW1 2426   2.751   0.605   0.736  2.5990 -2.2836 -0.7713
  809SOL    HW2 2427   2.841   0.599   0.595  2.9431 -1.4962  1.8622
  810SOL     OW 2428   0.564   1.441   0.663 -0.2542 -0.2007  0.1165
  810SOL    HW1 2429   0.554   1.530   0.711  0.1953  3.1498 -0.0850
  810SOL    HW2 2430   0.644   1.393   0.697  0.6327  0.6154 -2.0097
  811SOL     OW 2431   1.754   2.554   1.155  0.8821  0.3159  0.4332
  811SOL    HW1 2432   1.835   2.495   1.171 -1.5152  0.4685  0.1099
  811SOL    HW2 2433   1.693   2.502   1.093  0.3127  0.2589  2.0138
  812SOL     OW 2434   1.150   2.667   1.549 -0.5128  0.0498  0.0400
  812SOL    HW1 2435   1.224   2.737   1.534  3.5809  1.1768 -2.5665
  812SOL    HW2 2436   1.098   2.690   1.630 -1.6297 -0.5140  0.2079
  813SOL     OW 2437   0.827   2.964   1.552 -0.2375 -0.1695  0.2183
  813SOL    HW1 2438   0.776   2.923   1.625  1.1761  0.1848 -1.0656
  813SOL    HW2 2439   0.765   3.031   1.502 -3.2980  0.1839  2.2670
  814SOL     OW 2440   1.106   2.694   2.518  0.3287  0.0442 -0.2807
  814SOL    HW1 2441   1.082   2.611   2.466  0.8072  0.7907  0.5693
  814SOL    HW2 2442   1.028   2.731   2.568  1.9413 -1.4587 -1.3271
  815SOL     OW 2443   0.785   0.216   2.634  0.2754  0.7432  0.1882
  815SOL    HW1 2444   0.725   0.137   2.609  0.1364 -0.6420  1.5138
  815SOL    HW2 2445   0.745   0.302   2.602  1.7682 -0.2389  0.4196
  816SOL     OW 2446   2.265   0.353   0.179  0.0766 -0.1572  0.3374
  816SOL    HW1 2447   2.170   0.325   0.210  1.2119  0.3424  1.4345
  816SOL    HW2 2448   2.276   0.454   0.186  0.7336  2.0671  0.2701
  817SOL     OW 2449   2.215   2.972   1.847  0.1720 -0.2482 -0.1319
  817SOL    HW1 2450   2.297   3.025   1.828 -1.3847 -0.1413 -0.9682
  817SOL    HW2 2451   2.129   3.029   1.843 -3.0431 -0.3065  2.1122
  818SOL     OW 2452   1.221   0.749   0.233 -0.0820 -0.6019 -0.1338
  818SOL    HW1 2453   1.181   0.758   0.136 -0.3628  2.2274  0.8939
  818SOL    HW2 2454   1.182   0.673   0.288  1.0292  0.2359 -0.2053
  819SOL     OW 2455   1.697   1.827   2.493  0.1327 -0.6626  0.7655
  819SOL    HW1 2456   1.614   1.779   2.460 -0.0086  0.8487  0.3420
  819SOL    HW2 2457   1.771   1.819   2.420  1.0419  0.3367 -1.9473
  820SOL     OW 2458   0.168   1.704   3.014  0.3348  0.0877  0.1086
  820SOL    HW1 2459   0.211   1.723   2.927  0.0055  0.8363 -0.3186
  820SOL    HW2 2460   0.182   1.606   3.040 -3.9579  2.2562  0.1745
  821SOL     OW 2461   0.177   2.850   0.647 -0.3103  0.1607  0.0214
  821SOL    HW1 2462   0.247   2.920   0.627 -0.1273  1.0539 -0.4315
  821SOL    HW2 2463   0.210   2.785   0.720 -2.2638 -2.9324  1.4595
  822SOL     OW 2464   2.250   2.458   2.638  0.0685  0.5008 -0.3496
  822SOL    HW1 2465   2.218   2.541   2.592  2.4702  1.7070 -2.0227
  822SOL    HW2 2466   2.318   2.485   2.711  1.8327 -3.3431  0.7537
  823SOL     OW 2467   1.353   0.061   1.964  0.1533 -0.6028  0.6279
  823SOL    HW1 2468   1.426   0.036   2.029 -0.6116 -0.4579 -1.0324
  823SOL    HW2 2469   1.352   0.003   1.879 -0.6415  1.4603  0.4033
  824SOL     OW 2470   2.849   2.286   2.065 -0.5867  0.1677 -0.2264
  824SOL    HW1 2471   2.872   2.343   2.144 -0.6602 -0.1952  0.0905
  824SOL    HW2 2472   2.837   2.188   2.092 -1.8514  0.7940 -1.3952
  825SOL     OW 2473   2.978   2.133   2.453  0.2498 -0.1100 -0.3623
  825SOL    HW1 2474   2.883   2.093   2.432 -2.7621 -1.3338  0.1477
  825SOL    HW2 2475   3.026   2.151   2.367 -0.0057 -0.3380  2.2174
  826SOL     OW 2476   2.399   0.655   2.642 -0.2808  0.2916  0.2720
  826SOL    HW1 2477   2.457   0.613   2.715 -3.7020  2.9650 -0.5433
  826SOL    HW2 2478   2.327   0.720   2.676 -1.1769  3.5691  0.6948
  827SOL     OW 2479   2.640   2.134   1.428 -0.2394  0.0483  0.1104
  827SOL    HW1 2480   2.611   2.130   1.524  0.8590 -0.3891  0.3863
  827SOL    HW2 2481   2.558   2.101   1.375  0.0373 -1.7771  1.6999
  828SOL     OW 2482   2.956   0.011   1.824 -0.3667  0.2169  0.1718
  828SOL    HW1 2483   3.052   3.084   1.831 -1.4831 -0.4907  0.1833
  828SOL    HW2 2484   2.947   0.085   1.754  0.5873 -0.6484 -0.1808
  829SOL     OW 2485   0.896   2.206   2.711 -0.2824 -0.0161 -0.2272
  829SOL    HW1 2486   0.893   2.111   2.679  1.3237  1.4419  3.6090
  829SOL    HW2 2487   0.831   2.222   2.786  1.3193  2.0952  0.6019
  830SOL     OW 2488   0.922   0.960   1.109  0.2041  0.1757  0.4107
  830SOL    HW1 2489   0.882   0.877   1.154 -1.2054  0.7194  1.8383
  830SOL    HW2 2490   0.860   1.035   1.129 -0.1666 -2.2379 -1.2179
  831SOL     OW 2491   2.810   1.586   2.883 -0.7253  0.5471 -0.4838
  831SOL    HW1 2492   2.809   1.682   2.922  2.3628 -1.4819  1.4097
  831SOL    HW2 2493   2.883   1.531   2.928 -0.3731  1.0943  0.1268
  832SOL     OW 2494   1.780   2.302   2.271  0.5284 -0.2559  0.2997
  832SOL    HW1 2495   1.764   2.223   2.212 -1.1993  1.2607  2.4418
  832SOL    HW2 2496   1.845   2.369   2.226  0.7038 -0.0209 -1.1552
  833SOL     OW 2497   0.878   0.194   2.025  0.2237 -0.3600 -0.3216
  833SOL    HW1 2498   0.856   0.290   2.008 -0.5641 -0.0866 -0.6297
  833SOL    HW2 2499   0.834   0.159   2.112 -1.9207 -0.5809  1.5933
  834SOL     OW 2500   3.044   0.204   1.378  0.1442 -0.3528 -1.2652
  834SOL    HW1 2501   3.008   0.271   1.447 -0.6525  1.0296  2.3004
  834SOL    HW2 2502   0.037   0.232   1.354 -0.7045 -2.0400  1.6903
  835SOL     OW 2503   2.762   0.790   3.098 -0.6448 -0.0004  0.3650
  835SOL    HW1 2504   2.750   0.723   0.074  2.5304  0.5742 -1.2268
  835SOL    HW2 2505   2.777   0.739   3.015 -0.2538 -0.4379  2.4373
  836SOL     OW 2506   1.328   2.133   0.024 -0.0973 -0.2088  0.5181
  836SOL    HW1 2507   1.419   2.127   3.076  0.0051 -1.4133 -0.2545
  836SOL    HW2 2508   1.246   2.094   3.082  0.9512 -0.2537 -0.2223
  837SOL     OW 2509   1.959   1.843   0.604  0.1076 -0.1648  0.2759
  837SOL    HW1 2510   1.982   1.741   0.608  0.6802 -0.4166  0.2853
  837SOL    HW2 2511   1.983   1.891   0.514  2.6452  1.0754  2.2993
  838SOL     OW 2512   1.525   0.995   2.429 -0.2363  0.1348 -0.1991
  838SOL    HW1 2513   1.597   1.031   2.367  1.1223  2.5326  0.8902
  838SOL    HW2 2514   1.489   1.069   2.490  3.3478 -1.7445  1.3151
  839SOL     OW 2515   0.849   1.362   2.257  0.2966 -0.1120 -0.0895
  839SOL    HW1 2516   0.804   1.270   2.271 -0.9231  0.6317 -2.1921
  839SOL    HW2 2517   0.946   1.362   2.290 -0.7716 -2.2986  1.2657
  840SOL     OW 2518   0.905   1.835   0.426  0.6911  0.0892 -0.3153
  840SOL    HW1 2519   0.838   1.823   0.502  2.4421 -1.1112  0.6442
  840SOL    HW2 2520   0.994   1.878   0.454 -0.3962  0.0806 -2.5444
  841SOL     OW 2521   1.838   2.352   0.524  0.2393 -0.2710  0.6789
  841SOL    HW1 2522   1.853   2.379   0.614 -0.5235 -2.6226 -4.7069
  841SOL    HW2 2523   1.768   2.417   0.481 -1.8458  2.2898 -0.0584
  842SOL     OW 2524   0.567   0.550   0.224 -0.0364 -0.3426  0.7526
  842SOL    HW1 2525   0.664   0.590   0.220  1.8930  1.8534 -0.6671
  842SOL    HW2 2526   0.561   0.485   0.147 -0.9927 -1.5836 -2.6634
  843SOL     OW 2527   0.821   0.574   0.727  0.0408 -0.0041 -0.3982
  843SOL    HW1 2528   0.769   0.531   0.647  0.8912 -0.5255 -1.2602
  843SOL    HW2 2529   0.916   0.608   0.706 -2.0477 -0.0681  2.4505
  844SOL     OW 2530   2.746   3.096   2.868  0.5355  0.2248 -0.6976
  844SOL    HW1 2531   2.674   0.020   2.798  0.0897  1.1869 -0.2442
  844SOL    HW2 2532   2.746   2.997   2.894  3.9167  1.5825 -2.8813
  845SOL     OW 2533   3.018   2.203   1.543 -0.5307 -0.2726  0.4447
  845SOL    HW1 2534   2.978   2.214   1.632 -1.3198 -0.9528 -2.8305
  845SOL    HW2 2535   2.994   2.116   1.501  2.2743  2.8804  2.0129
  846SOL     OW 2536   2.500   1.615   2.216  0.3702  0.2687  0.0496
  846SOL    HW1 2537   2.490   1.673   2.302 -0.3393  3.0316  0.7490
  846SOL    HW2 2538   2.539   1.524   2.230 -0.4886  1.7680  1.6813
  847SOL     OW 2539   1.054   0.707   2.045  0.1333 -0.8518 -0.0696
  847SOL    HW1 2540   1.037   0.650   2.129 -1.0889  0.0114  0.1611
  847SOL    HW2 2541   0.970   0.765   2.038  1.8874 -0.8607 -0.4914
  848SOL     OW 2542   2.564   2.801   2.743 -0.2767  0.1339 -0.1880
  848SOL    HW1 2543   2.617   2.804   2.828  2.2354 -0.0572  0.5392
  848SOL    HW2 2544   2.525   2.893   2.722  2.0251 -2.3935  0.5407
  849SOL     OW 2545   0.422   2.928   3.048 -0.2636  0.1649  0.5022
  849SOL    HW1 2546   0.422   3.030   3.033 -0.7713  2.4150 -0.9884
  849SOL    HW2 2547   0.327   2.899   3.041  0.5127 -0.1285  0.0894
  850SOL     OW 2548   1.277   2.982   1.079  1.2509  0.2577  0.1192
  850SOL    HW1 2549   1.368   3.024   1.093  0.3789 -1.8253  1.0444
  850SOL    HW2 2550   1.247   2.995   0.981  0.7913 -2.1588  0.9727
  851SOL     OW 2551   2.721   0.495   2.519 -0.6531 -0.2978 -0.3114
  851SOL    HW1 2552   2.644   0.553   2.486  0.1175 -0.6677  0.4854
  851SOL    HW2 2553   2.803   0.555   2.541 -0.5328  1.7494 -0.1575
  852SOL     OW 2554   1.543   0.493   2.286  0.0029 -0.0111  0.0046
  852SOL    HW1 2555   1.583   0.567   2.346  0.0801 -2.2657  1.4491
  852SOL    HW2 2556   1.606   0.464   2.213 -0.0927  1.3619 -1.2672
  853SOL     OW 2557   0.086   3.032   0.214  0.4224 -0.4059 -0.4813
  853SOL    HW1 2558   0.021   3.004   0.284 -0.1583 -0.5842 -1.9523
  853SOL    HW2 2559   0.159   2.964   0.207 -0.6306  0.7570 -1.2390
  854SOL     OW 2560   2.439   1.127   2.185 -0.0967  0.1120 -0.3404
  854SOL    HW1 2561   2.484   1.218   2.175  1.3048  0.7149  1.9596
  854SOL    HW2 2562   2.422   1.080   2.094 -0.7107  0.0414 -1.0882
  855SOL     OW 2563   0.643   2.624   0.134 -0.3742  0.1279  0.2736
  855SOL    HW1 2564   0.713   2.547   0.120 -0.0965  1.6096 -0.6313
  855SOL    HW2 2565   0.694   2.711   0.142  1.1688 -0.4463  1.6636
  856SOL     OW 2566   2.989   3.006   2.751 -0.1303 -0.0999 -0.1981
  856SOL    HW1 2567   2.900   3.056   2.754  0.5111 -1.8438  0.2566
  856SOL    HW2 2568   3.040   3.042   2.830 -0.9065 -0.5881 -2.7422
  857SOL     OW 2569   0.962   2.840   1.337 -0.4012  0.1923  0.3762
  857SOL    HW1 2570   0.922   2.886   1.420 -3.0556 -0.8662  0.8463
  857SOL    HW2 2571   0.949   2.737   1.341  2.8049 -0.3267  1.4327
  858SOL     OW 2572   2.541   2.184   1.684  0.3849 -0.0452 -0.1449
  858SOL    HW1 2573   2.537   2.284   1.703 -1.4712  0.9415  2.3882
  858SOL    HW2 2574   2.454   2.140   1.697  4.2824 -0.2777  0.4442
  859SOL     OW 2575   1.803   2.000   1.522  0.2269 -0.3084  0.1264
  859SOL    HW1 2576   1.755   1.945   1.450  0.0840  2.5640  1.9185
  859SOL    HW2 2577   1.739   2.011   1.602 -0.4848  0.7346 -1.2254
  860SOL     OW 2578   2.337   0.087   0.261 -0.5230 -0.0116  0.0442
  860SOL    HW1 2579   2.317   0.167   0.198 -1.6546  0.5038  2.3884
  860SOL    HW2 2580   2.299   0.100   0.352  1.3806 -0.0598 -0.6352
  861SOL     OW 2581   2.678   3.064   0.476  0.3885  0.0123  0.3227
  861SOL    HW1 2582   2.744   3.027   0.544 -1.2119  2.1556  0.5521
  861SOL    HW2 2583   2.598   3.003   0.470  2.0121  0.6596  3.1287
  862SOL     OW 2584   1.438   2.748   2.561 -0.6014  0.0940  0.4496
  862SOL    HW1 2585   1.433   2.656   2.600 -0.0244  1.6455 -1.7553
  862SOL    HW2 2586   1.378   2.752   2.482  1.3717  0.6032  2.2270
  863SOL     OW 2587   0.444   0.545   1.316  0.2335 -0.7093  0.1866
  863SOL    HW1 2588   0.430   0.624   1.249  1.1043  3.3281  0.9390
  863SOL    HW2 2589   0.529   0.490   1.296 -0.9322  1.7651 -2.4660
  864SOL     OW 2590   0.096   2.985   1.756 -0.2373 -0.7071  0.4593
  864SOL    HW1 2591   0.181   3.038   1.778  0.2431  0.2354 -3.0593
  864SOL    HW2 2592   0.110   2.889   1.777 -0.9522 -1.5782  1.1276
  865SOL     OW 2593   0.527   1.152   0.105  0.1522  0.3130 -0.0768
  865SOL    HW1 2594   0.564   1.219   0.041  2.4031 -1.1950  2.4383
  865SOL    HW2 2595   0.590   1.071   0.091 -0.4959  3.5802 -0.7965
  866SOL     OW 2596   2.969   0.553   0.104 -0.0179  0.2495 -0.1771
  866SOL    HW1 2597   3.039   0.630   0.112  1.1600  1.1653  0.4338
  866SOL    HW2 2598   2.886   0.574   0.161 -0.0473 -0.4272  2.2454
  867SOL     OW 2599   2.717   2.792   2.983 -0.2442 -0.3622  0.5628
  867SOL    HW1 2600   2.765   2.844   3.056  1.4901  2.7262  1.6610
  867SOL    HW2 2601   2.786   2.736   2.935  0.7077 -3.5309  1.3743
  868SOL     OW 2602   1.435   0.682   0.446 -0.1047 -0.6305 -0.2133
  868SOL    HW1 2603   1.381   0.603   0.484 -0.5558 -1.6126  1.7324
  868SOL    HW2 2604   1.381   0.736   0.378  0.9325 -4.2627 -0.4223
  869SOL     OW 2605   2.485   1.586   0.278 -0.3048 -0.0707 -0.2486
  869SOL    HW1 2606   2.418   1.623   0.339  2.7355  0.5264  1.8175
  869SOL    HW2 2607   2.557   1.549   0.342  1.0170 -1.0887  1.0162
  870SOL     OW 2608   2.258   1.641   0.419  0.1027 -0.3122 -0.4433
  870SOL    HW1 2609   2.213   1.548   0.413 -1.4841 -1.1372  1.2263
  870SOL    HW2 2610   2.213   1.709   0.357  0.0184 -1.6164 -0.3689
  871SOL     OW 2611   1.404   1.578   1.316  0.4393 -0.1448 -0.9391
  871SOL    HW1 2612   1.314   1.614   1.288 -0.2172 -0.0049 -0.0749
  871SOL    HW2 2613   1.394   1.480   1.347  2.0839  0.7910 -1.2266
  872SOL     OW 2614   1.245   1.634   1.709 -0.0368 -0.3039 -0.3247
  872SOL    HW1 2615   1.211   1.564   1.641  1.6258  0.3027 -0.7932
  872SOL    HW2 2616   1.200   1.725   1.696 -0.7751  2.5533 -2.1189
  873SOL     OW 2617   0.650   1.561   2.178 -0.2414  0.5681  0.3830
  873SOL    HW1 2618   0.664   1.499   2.260  2.1885 -3.2374  1.4726
  873SOL    HW2 2619   0.746   1.592   2.151  1.6882  0.4711  1.0845
  874SOL     OW 2620   0.745   1.593   1.304  0.2685  0.3609 -0.0589
  874SOL    HW1 2621   0.722   1.636   1.215 -1.9158 -0.8022 -1.6976
  874SOL    HW2 2622   0.690   1.511   1.308 -0.3854  2.4101  1.4340
  875SOL     OW 2623   2.221   0.530   1.146  0.1716 -0.6632 -0.3702
  875SOL    HW1 2624   2.142   0.533   1.081  1.7873  2.1796  2.0751
  875SOL    HW2 2625   2.179   0.532   1.236  3.6692 -1.1991 -4.5093
  876SOL     OW 2626   1.096   0.846   0.008  0.6122  0.3688  0.2146
  876SOL    HW1 2627   1.039   0.892   0.085 -1.6528  2.9475  4.5507
  876SOL    HW2 2628   1.177   0.896   3.069 -2.2968 -2.8122  1.3404
  877SOL     OW 2629   2.938   0.461   1.524  0.0963 -0.4536  0.6209
  877SOL    HW1 2630   2.835   0.461   1.522 -1.8640  0.7811 -0.6759
  877SOL    HW2 2631   2.971   0.543   1.477 -1.3738  1.8237  0.5663
  878SOL     OW 2632   1.645   2.386   0.115  0.5666  0.6756  0.1239
  878SOL    HW1 2633   1.673   2.480   0.149 -0.3749 -0.5335 -0.1034
  878SOL    HW2 2634   1.681   2.368   0.021 -0.4628  0.5950 -3.3698
  879SOL     OW 2635   2.472   1.891   1.569  0.2463 -0.7572  0.3333
  879SOL    HW1 2636   2.451   1.909   1.472 -1.4249 -1.1699  0.3092
  879SOL    HW2 2637   2.392   1.922   1.626 -2.1781  0.8213 -0.6125
  880SOL     OW 2638   1.175   3.005   1.319 -0.1740  0.3408  0.4504
  880SOL    HW1 2639   1.089   2.957   1.330 -0.0270  0.6728  0.6325
  880SOL    HW2 2640   1.205   2.984   1.222  0.4697  3.4992 -2.4291
  881SOL     OW 2641   1.206   1.841   0.151 -0.0213 -0.2054  0.1921
  881SOL    HW1 2642   1.176   1.779   0.228 -3.5221  2.4206  2.8875
  881SOL    HW2 2643   1.153   1.926   0.156  2.1289 -0.6226 -0.4485
  882SOL     OW 2644   2.289   0.813   2.201  0.8192  0.3883  0.0188
  882SOL    HW1 2645   2.248   0.908   2.221  0.7887  0.7402  4.1361
  882SOL    HW2 2646   2.333   0.814   2.109 -0.1040  2.4151  1.0784
  883SOL     OW 2647   1.387   0.368   1.929  0.2756 -0.2174  0.2751
  883SOL    HW1 2648   1.342   0.458   1.913  1.2724 -0.8233 -1.4649
  883SOL    HW2 2649   1.332   0.315   1.992  2.7774  2.8244  0.4799
  884SOL     OW 2650   2.847   0.177   3.044 -0.6040 -0.3420 -0.0881
  884SOL    HW1 2651   2.935   0.133   3.082  3.0558  0.7182  1.9237
  884SOL    HW2 2652   2.816   0.136   2.958  0.2461 -1.6536 -2.3444
  885SOL     OW 2653   0.574   1.902   0.302  0.1108 -0.0742 -0.3230
  885SOL    HW1 2654   0.540   1.822   0.354  0.7197 -1.0905  0.0623
  885SOL    HW2 2655   0.590   1.984   0.363 -1.9267 -2.3032 -3.2125
  886SOL     OW 2656   1.890   1.566   2.655 -0.0361  0.5396  0.2133
  886SOL    HW1 2657   1.886   1.557   2.554 -1.1708  4.4395 -0.8993
  886SOL    HW2 2658   1.861   1.658   2.681  0.5663  1.2536  1.6291
  887SOL     OW 2659   1.781   0.558   1.735  0.6126 -0.1148 -0.3828
  887SOL    HW1 2660   1.737   0.650   1.716 -1.0306 -1.3697 -1.7800
  887SOL    HW2 2661   1.718   0.516   1.803 -1.3481  0.2456 -2.5014
  888SOL     OW 2662   2.635   0.745   1.698 -0.2775  0.1418  0.5436
  888SOL    HW1 2663   2.652   0.781   1.794  1.4198 -0.1628  0.5259
  888SOL    HW2 2664   2.682   0.810   1.632 -1.0210 -0.8997  0.5589
  889SOL     OW 2665   2.917   2.696   0.569  0.1541 -0.2011 -0.2901
  889SOL    HW1 2666   2.842   2.627   0.583 -2.8555 -2.6960 -2.5969
  889SOL    HW2 2667   3.005   2.651   0.601  1.8006 -1.3468 -0.8288
  890SOL     OW 2668   2.927   2.659   2.884 -0.1600 -0.2299  0.3356
  890SOL    HW1 2669   2.971   2.576   2.919  0.2177  0.5775  0.7362
  890SOL    HW2 2670   2.963   2.701   2.804 -0.6470 -0.9910  2.7478
  891SOL     OW 2671   0.794   1.563   2.838 -0.3488  0.2339  0.0306
  891SOL    HW1 2672   0.820   1.617   2.926  0.9876 -0.1121  0.9328
  891SOL    HW2 2673   0.871   1.561   2.776 -0.8116 -0.1643 -2.2556
  892SOL     OW 2674   0.258   3.000   0.901 -0.1315  0.1214  0.1095
  892SOL    HW1 2675   0.353   3.015   0.872 -0.5023  0.6863 -3.7338
  892SOL    HW2 2676   0.241   2.899   0.896 -0.0336 -2.6570  0.6632
  893SOL     OW 2677   0.578   2.844   1.256 -0.2549  0.2601  0.0820
  893SOL    HW1 2678   0.498   2.894   1.224  0.1187  1.7781 -0.0208
  893SOL    HW2 2679   0.661   2.889   1.226 -0.4150 -1.0864  2.2550
  894SOL     OW 2680   2.905   1.230   0.873 -0.0722  0.3358  0.5724
  894SOL    HW1 2681   2.887   1.211   0.777 -0.6457  1.4777 -1.4106
  894SOL    HW2 2682   2.998   1.195   0.903 -1.3207 -0.9983 -0.8072
  895SOL     OW 2683   2.743   2.442   1.692 -0.5687 -0.6332 -0.3155
  895SOL    HW1 2684   2.806   2.369   1.706 -2.0363  3.3738  1.0013
  895SOL    HW2 2685   2.797   2.517   1.641  0.4296 -0.2624  2.2101
  896SOL     OW 2686   0.968   0.337   1.747 -0.1116  0.3027 -0.2175
  896SOL    HW1 2687   0.941   0.285   1.830 -1.4473 -0.4896  2.1061
  896SOL    HW2 2688   1.026   0.283   1.684 -0.9161  1.7758  0.1090
  897SOL     OW 2689   0.892   1.349   1.634  0.3485 -0.0499 -0.2684
  897SOL    HW1 2690   0.982   1.390   1.613 -0.5540  0.1074 -1.6189
  897SOL    HW2 2691   0.820   1.417   1.642  1.0648 -3.4365  3.8630
  898SOL     OW 2692   1.364   2.637   1.787 -0.2000 -0.1662  0.2235
  898SOL    HW1 2693   1.390   2.602   1.697 -0.2608  0.5893  1.2299
  898SOL    HW2 2694   1.389   2.735   1.807 -1.0883  1.1428 -2.3019
  899SOL     OW 2695   0.878   0.825   0.440  0.0987  0.3594  0.0671
  899SOL    HW1 2696   0.795   0.877   0.464  1.3849 -0.3175 -0.0806
  899SOL    HW2 2697   0.932   0.787   0.518  0.2716 -1.3980  0.9829
  900SOL     OW 2698   1.625   2.274   1.866  0.0383  0.0748 -0.1384
  900SOL    HW1 2699   1.599   2.287   1.767 -1.0650 -0.6245  1.5547
  900SOL    HW2 2700   1.685   2.356   1.886  2.2045  2.7220 -2.4026
  901SOL     OW 2701   0.986   2.286   0.315 -0.0512 -0.0702  0.2372
  901SOL    HW1 2702   0.921   2.295   0.394  0.2101 -0.2212 -0.3053
  901SOL    HW2 2703   0.989   2.196   0.267  1.0166  2.1250 -0.5372
  902SOL     OW 2704   1.971   1.297   0.050 -0.4413 -0.2228  0.2990
  902SOL    HW1 2705   2.032   1.354   0.105  0.5336 -2.0536 -1.9215
  902SOL    HW2 2706   2.034   1.249   3.087 -1.9350 -2.1297  0.7880
  903SOL     OW 2707   2.186   1.251   0.282 -0.1882 -0.0430 -0.3024
  903SOL    HW1 2708   2.272   1.300   0.249  2.2352 -0.4047 -0.1744
  903SOL    HW2 2709   2.166   1.170   0.231 -2.8721 -0.0506  2.1814
  904SOL     OW 2710   0.710   1.327   2.918  0.4677  0.3591  0.1813
  904SOL    HW1 2711   0.747   1.412   2.872  0.5286  0.0531  0.3166
  904SOL    HW2 2712   0.777   1.289   2.986  2.1321  1.0112 -1.1664
  905SOL     OW 2713   1.936   0.234   1.086 -0.1624  0.5641  0.6269
  905SOL    HW1 2714   2.006   0.231   1.013 -1.0957  0.5636  0.1856
  905SOL    HW2 2715   1.851   0.275   1.055  3.8109 -1.7022  0.7128
  906SOL     OW 2716   3.043   2.476   1.162  0.4929 -0.0420 -0.4521
  906SOL    HW1 2717   2.942   2.488   1.179  1.4164  1.3023  1.2053
  906SOL    HW2 2718   3.054   2.489   1.062 -0.9778 -0.2732 -2.5204
  907SOL     OW 2719   0.918   0.955   0.193  0.0893  0.0895  0.5662
  907SOL    HW1 2720   0.935   1.058   0.200  0.5970  2.4349 -0.5739
  907SOL    HW2 2721   0.913   0.908   0.286  1.9185  5.2721 -0.7337
  908SOL     OW 2722   1.508   0.010   1.044 -0.7891 -0.3363  0.3796
  908SOL    HW1 2723   1.541   3.059   0.962  1.3888  0.8754  2.2659
  908SOL    HW2 2724   1.576   0.014   1.121  3.3786  1.5565 -0.0629
  909SOL     OW 2725   2.024   1.191   1.609 -0.1680  0.0204  0.1317
  909SOL    HW1 2726   2.052   1.247   1.687 -0.5095  1.3533  2.1275
  909SOL    HW2 2727   2.073   1.207   1.523 -3.6253  1.0036  0.6683
  910SOL     OW 2728   1.638   2.860   2.093 -0.2459  0.1234 -0.1256
  910SOL    HW1 2729   1.633   2.784   2.160  1.8184 -1.8463 -5.4173
  910SOL    HW2 2730   1.731   2.857   2.050 -1.4180 -0.3588 -0.1277
  911SOL     OW 2731   2.729   0.916   2.768 -0.4635  0.1744 -0.1724
  911SOL    HW1 2732   2.755   1.016   2.769 -0.7165  0.5830  0.2615
  911SOL    HW2 2733   2.809   0.855   2.750 -0.1651 -4.0864  1.4403
  912SOL     OW 2734   0.124   1.354   1.617 -0.8510  0.1327 -0.2022
  912SOL    HW1 2735   0.036   1.300   1.619 -2.9842  1.9800  1.5669
  912SOL    HW2 2736   0.199   1.316   1.676  2.4514 -2.3708 -0.5316
  913SOL     OW 2737   0.005   2.449   1.433 -0.5599  0.5369 -0.2725
  913SOL    HW1 2738   3.061   2.361   1.462  0.4132 -2.5343 -3.0687
  913SOL    HW2 2739   0.005   2.464   1.331 -3.1790  2.1305 -2.7398
  914SOL     OW 2740   1.743   1.014   1.748 -0.3053 -0.2387 -0.2056
  914SOL    HW1 2741   1.711   0.932   1.697 -1.6849 -1.3766 -1.3153
  914SOL    HW2 2742   1.729   1.099   1.694  0.0025 -0.1485  1.7685
  915SOL     OW 2743   2.124   0.557   1.390  0.3549 -0.5280 -0.2124
  915SOL    HW1 2744   2.126   0.576   1.490  1.4536 -0.1095  0.9301
  915SOL    HW2 2745   2.057   0.481   1.376  3.3405 -0.0274 -1.3820
  916SOL     OW 2746   2.775   2.536   1.189  0.4177 -0.1285 -0.0294
  916SOL    HW1 2747   2.761   2.498   1.282 -0.7400  1.1077  1.1828
  916SOL    HW2 2748   2.685   2.556   1.142  1.6674  0.5080  1.6788
  917SOL     OW 2749   1.825   2.198   3.037  0.5962 -0.5117 -0.2774
  917SOL    HW1 2750   1.898   2.241   3.094  1.7457 -3.6259  0.0133
  917SOL    HW2 2751   1.842   2.203   2.933 -0.3940 -0.2073 -0.8461
  918SOL     OW 2752   1.726   2.769   2.462 -0.1895 -0.3346 -0.6808
  918SOL    HW1 2753   1.778   2.853   2.422  1.8585  0.6616 -0.1965
  918SOL    HW2 2754   1.628   2.792   2.480  0.6342  1.0790 -0.5738
  919SOL     OW 2755   1.200   2.553   1.293  0.2664  0.3068 -0.1132
  919SOL    HW1 2756   1.218   2.626   1.228 -1.2132 -0.4657  0.8256
  919SOL    HW2 2757   1.186   2.590   1.390 -0.0164  1.7312  1.2267
  920SOL     OW 2758   2.958   0.278   2.251  0.2978 -0.0751  0.6909
  920SOL    HW1 2759   2.960   0.184   2.213 -0.1397  0.3238  1.1155
  920SOL    HW2 2760   2.871   0.299   2.297 -1.1689  1.8721 -0.9318
  921SOL     OW 2761   3.014   0.965   1.575  0.2756 -0.2098 -0.3290
  921SOL    HW1 2762   3.018   1.038   1.640 -1.2924  1.2538 -0.9024
  921SOL    HW2 2763   3.081   0.895   1.599  0.5008  0.5654 -2.0585
  922SOL     OW 2764   2.013   2.009   0.389 -0.0793  0.2906 -0.4708
  922SOL    HW1 2765   2.049   2.070   0.461  1.9485 -0.0485  0.8542
  922SOL    HW2 2766   1.960   2.067   0.330  3.7357  0.9475 -1.9823
  923SOL     OW 2767   0.795   1.919   0.114  0.0572  0.5804 -0.0435
  923SOL    HW1 2768   0.842   1.833   0.090 -0.1972  2.1112  1.6968
  923SOL    HW2 2769   0.719   1.911   0.184  2.2213 -0.3184 -1.0186
  924SOL     OW 2770   1.363   0.414   3.081 -0.0117 -0.2478 -0.0796
  924SOL    HW1 2771   1.289   0.407   3.010  0.6067 -1.7656 -1.1461
  924SOL    HW2 2772   1.414   0.498   3.058  2.5016  0.9323  0.6522
  925SOL     OW 2773   2.470   0.452   0.780  0.1144  0.2150 -0.0736
  925SOL    HW1 2774   2.479   0.390   0.703 -2.1600  0.8547  1.9226
  925SOL    HW2 2775   2.447   0.404   0.869  0.0195 -2.0348 -0.2391
  926SOL     OW 2776   0.529   0.113   1.226  0.0329 -0.3561 -0.2028
  926SOL    HW1 2777   0.452   0.072   1.178  2.9395 -0.0535 -0.0437
  926SOL    HW2 2778   0.562   0.059   1.305 -0.1966  0.8294 -0.4718
  927SOL     OW 2779   0.049   1.481   2.480  0.5282  0.6785  0.2459
  927SOL    HW1 2780   0.092   1.573   2.494  1.2844  0.1740 -1.1196
  927SOL    HW2 2781   0.111   1.429   2.416  0.5518  1.0107  0.9809
  928SOL     OW 2782   3.058   0.346   2.735  0.6109  0.4175  0.2172
  928SOL    HW1 2783   3.032   0.392   2.821 -2.7699 -0.1363 -1.3863
  928SOL    HW2 2784   2.978   0.327   2.680 -1.7465  1.2897  1.5018
  929SOL     OW 2785   2.572   0.148   1.429  0.1154  0.8091  0.2566
  929SOL    HW1 2786   2.603   0.053   1.409 -0.0141 -1.1791 -0.4685
  929SOL    HW2 2787   2.466   0.150   1.421 -0.9668 -0.4321 -1.1564
  930SOL     OW 2788   1.919   0.888   1.926 -0.2324  0.3117  0.1437
  930SOL    HW1 2789   1.859   0.923   1.849 -0.4578 -1.3143 -0.8733
  930SOL    HW2 2790   1.968   0.963   1.973  1.1506  0.1512 -2.2438
  931SOL     OW 2791   2.248   1.188   3.052 -0.2133  0.0214 -0.1474
  931SOL    HW1 2792   2.305   1.143   2.978  0.9584 -3.3254 -1.3062
  931SOL    HW2 2793   2.208   1.117   0.016 -0.9126 -0.0053  2.5003
  932SOL     OW 2794   2.560   1.106   0.679 -0.0255  0.4911  0.2081
  932SOL    HW1 2795   2.565   1.198   0.640 -0.9437 -0.6045 -2.5565
  932SOL    HW2 2796   2.503   1.043   0.624 -0.2024 -1.2843  0.7586
  933SOL     OW 2797   2.561   1.691   0.778 -0.3362  0.1267  0.3928
  933SOL    HW1 2798   2.479   1.689   0.722  3.2817  1.3892 -1.5647
  933SOL    HW2 2799   2.534   1.724   0.871  0.7294 -1.6251  1.3407
  934SOL     OW 2800   1.953   0.497   2.484 -0.2325 -0.5932  0.0234
  934SOL    HW1 2801   1.962   0.538   2.393 -1.2246  0.0398 -1.3476
  934SOL    HW2 2802   1.880   0.428   2.485 -2.7322  1.1849  1.6068
  935SOL     OW 2803   0.142   1.407   0.536  0.1221 -0.1562 -0.5692
  935SOL    HW1 2804   0.110   1.320   0.575 -1.6628  1.1015  0.9338
  935SOL    HW2 2805   0.233   1.388   0.495 -2.6771 -1.7557  1.1086
  936SOL     OW 2806   0.204   0.316   0.693  0.1870  0.3124  0.1292
  936SOL    HW1 2807   0.162   0.269   0.776  0.1208 -1.0487  0.4030
  936SOL    HW2 2808   0.181   0.264   0.610 -1.1141  1.1282  0.3458
  937SOL     OW 2809   2.671   3.028   1.299  0.2308  0.2896  0.2086
  937SOL    HW1 2810   2.595   2.990   1.248 -0.6696  1.6027  1.1239
  937SOL    HW2 2811   2.725   3.088   1.239 -2.4827 -0.4943  1.3084
  938SOL     OW 2812   2.833   2.469   0.040  0.5341 -0.1546 -0.1924
  938SOL    HW1 2813   2.822   2.562   0.081 -3.0470  1.0535  3.9194
  938SOL    HW2 2814   2.924   2.452   0.003  0.5230 -0.8847  3.0753
  939SOL     OW 2815   0.698   1.944   0.830 -0.2095  0.1504  0.2724
  939SOL    HW1 2816   0.712   1.953   0.928  1.7239 -1.5954 -0.9058
  939SOL    HW2 2817   0.596   1.944   0.806  0.0718 -0.1801 -0.8300
  940SOL     OW 2818   0.256   0.363   3.061 -0.6677  0.3949  0.1439
  940SOL    HW1 2819   0.190   0.354   0.040  1.1068 -0.5810  1.9078
  940SOL    HW2 2820   0.238   0.291   2.990 -1.8067 -1.2846 -0.3217
  941SOL     OW 2821   1.516   0.357   2.716 -0.3868  0.1417  0.3319
  941SOL    HW1 2822   1.473   0.312   2.638 -1.1964  1.0264 -0.2642
  941SOL    HW2 2823   1.485   0.454   2.731 -1.4962  2.2381 -0.6337
  942SOL     OW 2824   1.108   0.727   1.609 -0.2267  0.0427 -0.3880
  942SOL    HW1 2825   1.016   0.691   1.595 -0.1030  0.5034  0.2692
  942SOL    HW2 2826   1.157   0.671   1.679  0.8235 -0.0238 -0.4483
  943SOL     OW 2827   1.325   1.058   1.852 -0.5714 -0.3209  0.6874
  943SOL    HW1 2828   1.422   1.083   1.877  0.9449  0.4305 -2.2422
  943SOL    HW2 2829   1.297   0.989   1.919  0.9310 -1.2892 -1.9353
  944SOL     OW 2830   1.978   0.912   1.587  0.0971 -0.0855 -0.0615
  944SOL    HW1 2831   1.893   0.890   1.642 -2.2845  0.8512  0.9527
  944SOL    HW2 2832   1.994   1.015   1.584 -0.1098  2.9142  1.4837
  945SOL     OW 2833   2.785   0.040   0.246 -0.3513  0.2289  0.0863
  945SOL    HW1 2834   2.736   0.019   0.329 -0.7441 -1.6842 -2.6533
  945SOL    HW2 2835   2.735   0.112   0.191  1.6975  2.6773 -2.3826
  946SOL     OW 2836   2.670   0.817   1.999 -0.0120  0.1529 -0.3344
  946SOL    HW1 2837   2.704   0.852   2.088 -1.7732 -2.0814  1.3678
  946SOL    HW2 2838   2.593   0.751   2.013 -1.2964 -4.4699 -1.5243
  947SOL     OW 2839   0.811   2.977   0.463 -0.2558 -0.1534  0.2723
  947SOL    HW1 2840   0.839   2.897   0.410 -0.2634 -0.2907  0.4005
  947SOL    HW2 2841   0.711   3.007   0.455 -2.5794  0.7919  1.7010
  948SOL     OW 2842   2.425   1.620   1.460 -0.2208  0.0854  0.2080
  948SOL    HW1 2843   2.435   1.710   1.514  1.1364  2.8949  3.1083
  948SOL    HW2 2844   2.412   1.537   1.521  0.6746 -0.2508  3.6834
  949SOL     OW 2845   0.455   1.415   2.967  0.1169 -0.1657  0.4448
  949SOL    HW1 2846   0.394   1.370   2.898 -0.7385  0.3895 -0.2391
  949SOL    HW2 2847   0.553   1.386   2.947  0.6364 -1.3437 -1.8917
  950SOL     OW 2848   0.470   2.462   0.860 -0.2564  0.4271  0.5916
  950SOL    HW1 2849   0.471   2.517   0.774  0.7263 -2.4771  1.6763
  950SOL    HW2 2850   0.387   2.400   0.872  0.3587 -2.5854 -0.4968
  951SOL     OW 2851   0.768   1.113   2.302  0.1850  0.0652 -0.0855
  951SOL    HW1 2852   0.858   1.082   2.258  2.3454 -1.1595 -3.0544
  951SOL    HW2 2853   0.752   1.054   2.386  0.9362 -1.4180  1.7590
  952SOL     OW 2854   0.246   1.021   0.504  0.2094  0.0341 -0.2105
  952SOL    HW1 2855   0.304   1.105   0.491  1.6459 -0.1746 -3.8207
  952SOL    HW2 2856   0.163   1.052   0.557 -0.4955 -0.5077 -0.7784
  953SOL     OW 2857   2.471   0.048   2.456 -0.3675  0.0957  0.8853
  953SOL    HW1 2858   2.379   0.093   2.449  2.0912  0.2629  2.1332
  953SOL    HW2 2859   2.464   3.049   2.457  0.7398 -1.3446  0.9826
  954SOL     OW 2860   1.702   1.352   0.427 -0.1962 -0.1324 -0.2860
  954SOL    HW1 2861   1.712   1.457   0.427  0.7274  3.3935 -2.5946
  954SOL    HW2 2862   1.744   1.306   0.509 -3.5755  1.8411 -0.7411
  955SOL     OW 2863   0.701   2.019   2.987  0.4574 -0.3916  0.3007
  955SOL    HW1 2864   0.743   1.990   3.077 -0.2021 -1.3720 -0.7323
  955SOL    HW2 2865   0.716   2.122   2.972 -0.2364 -0.5664 -3.0191
  956SOL     OW 2866   2.101   0.625   2.261  0.2546  0.1619 -0.1423
  956SOL    HW1 2867   2.133   0.531   2.238 -2.7468  0.9399 -3.0328
  956SOL    HW2 2868   2.172   0.696   2.234 -0.9583 -0.5776  0.4446
  957SOL     OW 2869   2.123   2.085   2.507 -0.4742 -0.3658 -0.3648
  957SOL    HW1 2870   2.097   2.019   2.583  1.0797 -4.1041  1.0993
  957SOL    HW2 2871   2.208   2.136   2.522 -2.8546  0.9685  0.3702
  958SOL     OW 2872   1.607   1.328   1.208 -0.4861 -0.0556 -0.2169
  958SOL    HW1 2873   1.669   1.250   1.191  1.0349  0.5149  1.2416
  958SOL    HW2 2874   1.564   1.315   1.301 -2.9308 -1.3139  1.1608
  959SOL     OW 2875   1.893   2.201   2.492 -0.1492  0.4940 -0.0069
  959SOL    HW1 2876   1.861   2.240   2.406  0.3867 -0.6807 -1.3897
  959SOL    HW2 2877   1.985   2.156   2.480 -2.8839  1.8093 -0.4347
  960SOL     OW 2878   0.252   0.803   2.599  0.1339  0.0438  0.1749
  960SOL    HW1 2879   0.310   0.870   2.546  0.1369 -1.2022  1.1989
  960SOL    HW2 2880   0.158   0.793   2.556 -1.2815 -0.0488 -4.4194
  961SOL     OW 2881   0.373   0.656   2.803  0.1904  0.1280 -0.0595
  961SOL    HW1 2882   0.309   0.717   2.751 -0.4597  2.3011 -1.2184
  961SOL    HW2 2883   0.339   0.640   2.898 -1.2348 -1.7574  0.8486
  962SOL     OW 2884   0.595   1.136   2.735  0.1771 -0.4491  0.6600
  962SOL    HW1 2885   0.659   1.183   2.797  3.5751 -1.2429  0.6675
  962SOL    HW2 2886   0.577   1.037   2.756  1.2374 -1.9300 -2.5508
  963SOL     OW 2887   2.656   2.290   0.154  0.3645 -0.0513 -0.3935
  963SOL    HW1 2888   2.700   2.358   0.087 -2.3336  0.3961 -0.0299
  963SOL    HW2 2889   2.701   2.199   0.157 -1.1804 -0.6019  2.9624
  964SOL     OW 2890   0.982   2.423   1.922 -0.0734 -0.0071  0.4348
  964SOL    HW1 2891   1.075   2.438   1.964 -0.5548  0.9781  1.8146
  964SOL    HW2 2892   0.927   2.509   1.902 -4.0057 -0.1293 -0.1238
  965SOL     OW 2893   1.816   1.776   0.223 -0.4501 -0.0528  0.1805
  965SOL    HW1 2894   1.862   1.789   0.135  0.5549 -0.4834 -0.2344
  965SOL    HW2 2895   1.752   1.859   0.242 -1.1390  1.0533  1.4744
  966SOL     OW 2896   0.023   1.602   0.368  0.4428  0.5706  0.2856
  966SOL    HW1 2897   0.066   1.555   0.445 -2.2120  2.8073 -0.7872
  966SOL    HW2 2898   3.091   1.695   0.399 -0.2587  1.5663  0.2801
  967SOL     OW 2899   1.853   2.758   1.971  0.3866 -0.3999 -0.5171
  967SOL    HW1 2900   1.817   2.754   1.876 -0.2204 -0.4287 -1.2672
  967SOL    HW2 2901   1.947   2.715   1.983 -1.6430  1.8433  0.4817
  968SOL     OW 2902   1.587   0.762   0.646 -0.1415 -0.5719  0.5144
  968SOL    HW1 2903   1.545   0.705   0.575  3.6887 -0.7239  0.7882
  968SOL    HW2 2904   1.588   0.714   0.737 -0.6044  0.2855 -1.9707
  969SOL     OW 2905   0.218   1.337   2.327  0.4819 -0.2371 -0.2674
  969SOL    HW1 2906   0.310   1.306   2.359 -0.3543 -1.2742 -0.1871
  969SOL    HW2 2907   0.217   1.327   2.230  1.2648  0.1928  1.9086
  970SOL     OW 2908   2.152   1.942   1.330  0.2846  0.3022 -0.0453
  970SOL    HW1 2909   2.057   1.924   1.285 -1.7068  1.6638 -1.9410
  970SOL    HW2 2910   2.134   1.994   1.416  0.3490  2.0453 -0.8460
  971SOL     OW 2911   2.831   2.739   1.009 -0.0066 -0.4311 -0.3215
  971SOL    HW1 2912   2.803   2.647   1.042 -1.8048  1.9884 -0.6566
  971SOL    HW2 2913   2.883   2.794   1.079 -0.0737 -2.1175  2.4288
  972SOL     OW 2914   0.047   1.236   2.642 -0.1730 -0.1397 -0.2099
  972SOL    HW1 2915   0.064   1.170   2.568  1.0884 -1.1981  0.1358
  972SOL    HW2 2916   0.037   1.333   2.613 -0.6675 -3.4070  0.4127
  973SOL     OW 2917   0.669   0.454   0.524  0.1625  0.2181  0.2492
  973SOL    HW1 2918   0.590   0.469   0.583  1.0559 -0.8141  1.4066
  973SOL    HW2 2919   0.641   0.449   0.427  1.7779 -2.5479  0.0660
  974SOL     OW 2920   2.165   0.718   1.642  0.0143 -0.2425  0.1748
  974SOL    HW1 2921   2.087   0.785   1.627 -3.5906  1.9666 -1.4738
  974SOL    HW2 2922   2.254   0.765   1.624  0.4068  0.2202  1.8580
  975SOL     OW 2923   2.877   2.949   0.068  0.5130  0.0945  0.9583
  975SOL    HW1 2924   2.838   3.008   0.141  2.5944 -2.3980 -0.8112
  975SOL    HW2 2925   2.977   2.964   0.053  2.1290  1.6494 -1.8614
  976SOL     OW 2926   0.409   1.672   1.258  0.3197  0.0938  0.6752
  976SOL    HW1 2927   0.475   1.602   1.291 -1.7279  0.2536  0.6714
  976SOL    HW2 2928   0.390   1.657   1.155 -2.0075 -0.5600 -0.3067
  977SOL     OW 2929   1.108   2.047   0.931  0.3321  0.1915  0.1336
  977SOL    HW1 2930   1.091   2.055   1.031 -0.0976  2.3278 -1.3016
  977SOL    HW2 2931   1.133   1.957   0.904 -2.6190  3.0615  1.3970
  978SOL     OW 2932   0.549   1.152   0.381  0.0278 -0.1735 -0.2763
  978SOL    HW1 2933   0.618   1.219   0.390 -2.5768 -2.8517 -0.3687
  978SOL    HW2 2934   0.517   1.142   0.285 -0.6604 -2.9763 -2.1142
  979SOL     OW 2935   2.250   1.865   0.226 -0.0179 -0.1658  0.0396
  979SOL    HW1 2936   2.174   1.909   0.277  1.4192 -0.3147 -0.4435
  979SOL    HW2 2937   2.215   1.821   0.141 -0.4432  0.5376 -0.4486
  980SOL     OW 2938   0.256   1.854   2.316  0.3154 -0.1626  0.2434
  980SOL    HW1 2939   0.345   1.862   2.263 -2.2036 -2.7122  0.9102
  980SOL    HW2 2940   0.223   1.939   2.358  2.4801 -1.0741 -2.6119
  981SOL     OW 2941   2.928   0.913   0.154  1.2175  0.0343  0.0616
  981SOL    HW1 2942   2.875   0.939   0.238 -2.2176  1.4721  0.3374
  981SOL    HW2 2943   2.867   0.895   0.076 -0.0856  0.1406 -3.5400
  982SOL     OW 2944   3.000   2.815   1.970  0.0706  0.3445  0.1060
  982SOL    HW1 2945   2.926   2.848   1.906  1.4590  2.4670 -0.0560
  982SOL    HW2 2946   3.079   2.767   1.922 -0.5298 -0.4354 -0.0280
  983SOL     OW 2947   1.508   0.295   1.488  0.0543  0.2328  0.0182
  983SOL    HW1 2948   1.474   0.217   1.430  1.9293 -3.3890  0.6234
  983SOL    HW2 2949   1.605   0.315   1.480  2.8364 -2.2777 -0.9712
  984SOL     OW 2950   1.248   2.770   2.838  0.0499  0.3660  0.2989
  984SOL    HW1 2951   1.239   2.677   2.878  1.6311  1.6714 -1.3243
  984SOL    HW2 2952   1.295   2.763   2.749  1.2214 -1.7061  1.0112
  985SOL     OW 2953   1.469   1.759   1.519  0.8015 -0.2231 -0.1242
  985SOL    HW1 2954   1.414   1.692   1.457  0.0983 -4.0231 -0.6392
  985SOL    HW2 2955   1.502   1.710   1.601 -1.2453  0.8099  2.5213
  986SOL     OW 2956   1.847   2.967   2.320 -0.0362 -0.2110 -0.2004
  986SOL    HW1 2957   1.923   2.924   2.269  0.5251  2.0256 -0.7036
  986SOL    HW2 2958   1.846   3.069   2.314  0.1063 -3.7983  0.0926
  987SOL     OW 2959   2.831   1.831   2.535 -0.2132  0.4224 -0.7629
  987SOL    HW1 2960   2.870   1.750   2.490  0.4721 -3.5702  0.8023
  987SOL    HW2 2961   2.814   1.907   2.467  1.0087  3.6652  1.9005
  988SOL     OW 2962   2.785   0.529   1.947  0.1160  0.0398  0.8476
  988SOL    HW1 2963   2.871   0.528   1.997 -2.4311  0.4438 -0.6160
  988SOL    HW2 2964   2.798   0.532   1.846 -2.3160  2.4516 -0.1386
  989SOL     OW 2965   1.742   1.215   1.576  0.0026  0.1202 -0.7193
  989SOL    HW1 2966   1.694   1.305   1.565  0.3216 -1.4593 -2.3773
  989SOL    HW2 2967   1.840   1.236   1.600 -1.7462 -1.4982 -0.8928
  990SOL     OW 2968   3.085   1.126   0.043 -0.4797 -0.0695  0.0740
  990SOL    HW1 2969   3.025   1.054   0.078  0.1973 -0.6718 -0.3349
  990SOL    HW2 2970   3.079   1.138   3.044 -2.8372 -0.6295 -0.0214
  991SOL     OW 2971   0.247   2.153   2.854 -0.2221 -0.4802  0.6636
  991SOL    HW1 2972   0.222   2.096   2.935 -1.8558  0.2453 -0.5485
  991SOL    HW2 2973   0.269   2.093   2.774 -0.0617  0.2824  0.0374
  992SOL     OW 2974   2.559   2.120   2.001 -0.0172  0.5356  0.3638
  992SOL    HW1 2975   2.457   2.136   1.976  0.5238  0.3756  1.2779
  992SOL    HW2 2976   2.612   2.124   1.912  1.0779 -0.9420 -3.0265
  993SOL     OW 2977   0.511   2.867   0.562  0.4351  0.1918  0.0401
  993SOL    HW1 2978   0.502   2.928   0.481 -2.1981 -0.6611  0.4649
  993SOL    HW2 2979   0.460   2.913   0.643 -3.3456 -0.2263 -1.0499
  994SOL     OW 2980   0.102   1.991   1.541 -0.0883 -0.1632 -0.1484
  994SOL    HW1 2981   0.084   1.970   1.640  1.1518  0.0499 -1.7378
  994SOL    HW2 2982   0.123   1.906   1.493 -0.8936 -1.6249  1.2863
  995SOL     OW 2983   2.265   1.851   2.265 -0.0479  0.0349  0.4209
  995SOL    HW1 2984   2.341   1.826   2.326  0.8370 -0.3089  0.0905
  995SOL    HW2 2985   2.223   1.768   2.219  0.5629 -0.4269 -0.5854
  996SOL     OW 2986   1.935   1.850   3.082  0.0116 -0.3560  0.9268
  996SOL    HW1 2987   1.856   1.838   3.017 -2.1674 -1.3651  0.0681
  996SOL    HW2 2988   1.971   1.944   3.081 -0.2494  1.1463  0.3652
  997SOL     OW 2989   1.166   1.418   1.572 -0.0467  0.7353  0.0726
  997SOL    HW1 2990   1.212   1.326   1.586  1.0915 -0.1309 -1.1519
  997SOL    HW2 2991   1.164   1.449   1.472  0.7565  1.5903  2.7403
  998SOL     OW 2992   2.750   2.158   1.069 -0.2120 -0.2642  0.1085
  998SOL    HW1 2993   2.748   2.088   0.994  2.2016  2.7563 -2.5888
  998SOL    HW2 2994   2.785   2.120   1.158 -0.8969 -0.1919 -0.7890
  999SOL     OW 2995   2.758   2.709   0.164 -0.2045 -0.3290  0.2683
  999SOL    HW1 2996   2.669   2.732   0.209  1.3569  1.0915 -0.9962
  999SOL    HW2 2997   2.803   2.796   0.135  2.5851  0.9609 -0.9104
 1000SOL     OW 2998   1.121   0.158   3.026  0.0763  0.4286  0.1272
 1000SOL    HW1 2999   1.103   0.188   0.019 -0.7664 -0.5221 -0.7451
 1000SOL    HW2 3000   1.153   0.236   2.971  0.2515 -0.1175  0.7341
   3.10124   3.10124   3.10124
