1000 SPC/Fw water molecules t= 354.00000 step= 354000
 3000
    1SOL     OW    1   2.498   0.038   1.359 -0.6365 -0.2739 -0.0709
    1SOL    HW1    2   2.456   3.061   1.403  0.7301 -0.6927 -0.9530
    1SOL    HW2    3   2.595   0.019   1.330  3.0174  0.5425 -0.9899
    2SOL     OW    4   2.689   2.504   1.001 -0.3583  0.3491 -0.2101
    2SOL    HW1    5   2.599   2.546   0.994  2.9947 -2.7632  2.0156
    2SOL    HW2    6   2.674   2.404   1.009 -0.8784  1.7635  1.9753
    3SOL     OW    7   1.278   2.934   2.949  0.2003  0.4840 -0.4549
    3SOL    HW1    8   1.277   2.998   2.871 -2.8591 -0.3210 -2.6570
    3SOL    HW2    9   1.251   2.984   3.034  0.8974 -1.4387 -0.8890
    4SOL     OW   10   1.600   2.645   2.431  0.4497  0.3278  0.2202
    4SOL    HW1   11   1.527   2.609   2.372  1.1896 -1.0647  0.0673
    4SOL    HW2   12   1.693   2.637   2.392 -0.6875  0.1278  1.2057
    5SOL     OW   13   1.784   0.502   1.759  0.0761  0.2404 -0.3446
    5SOL    HW1   14   1.867   0.517   1.697  0.7077  1.3665 -1.4693
    5SOL    HW2   15   1.729   0.590   1.774 -0.0355 -0.1099 -0.2135
    6SOL     OW   16   2.349   2.605   0.579 -0.2835  0.1095  0.5899
    6SOL    HW1   17   2.319   2.657   0.493 -1.4206 -0.4306 -0.7840
    6SOL    HW2   18   2.368   2.662   0.661 -1.2084 -0.2355 -0.6677
    7SOL     OW   19   1.522   1.163   1.106  0.1132 -0.2198 -0.2113
    7SOL    HW1   20   1.511   1.214   1.198 -1.4862 -0.0306  2.1562
    7SOL    HW2   21   1.452   1.193   1.035 -2.8168 -2.4882 -0.6439
    8SOL     OW   22   0.706   1.922   1.280 -0.2515  0.5163  0.7596
    8SOL    HW1   23   0.681   1.829   1.247  0.4703  2.9946  0.8527
    8SOL    HW2   24   0.789   1.918   1.341  0.1101  2.3671 -1.6678
    9SOL     OW   25   1.304   2.281   1.818 -0.2678 -0.2020 -0.2682
    9SOL    HW1   26   1.263   2.375   1.805 -0.0170  2.1673 -0.7015
    9SOL    HW2   27   1.259   2.205   1.765 -1.7222 -3.4035 -0.0783
   10SOL     OW   28   0.688   2.111   0.635 -0.4813 -0.5113 -0.0525
   10SOL    HW1   29   0.785   2.095   0.659 -0.5745  1.4823 -0.1865
   10SOL    HW2   30   0.661   2.213   0.634 -0.0021  2.8991 -1.2837
   11SOL     OW   31   1.512   1.988   1.521  0.6851 -0.0215  0.2306
   11SOL    HW1   32   1.533   2.077   1.479 -2.4416 -2.6410  0.4959
   11SOL    HW2   33   1.414   1.974   1.496 -0.0509 -0.8884 -0.1410
   12SOL     OW   34   2.657   0.469   2.391 -0.3292  0.4348  0.2433
   12SOL    HW1   35   2.662   0.418   2.301 -1.3346 -2.6785  0.3842
   12SOL    HW2   36   2.741   0.529   2.397 -1.4272  2.0374 -1.3688
   13SOL     OW   37   2.825   2.899   0.694 -0.2281 -0.2178  0.2028
   13SOL    HW1   38   2.832   2.814   0.749  0.9116  0.6525  1.6446
   13SOL    HW2   39   2.907   2.914   0.634  0.5380 -1.1571 -0.2139
   14SOL     OW   40   1.509   1.481   2.991  0.4537 -0.2002 -0.2874
   14SOL    HW1   41   1.578   1.546   2.954 -0.7214 -0.4403 -0.1750
   14SOL    HW2   42   1.439   1.526   3.052 -3.5228  3.5490  1.8938
   15SOL     OW   43   2.491   2.656   1.419 -0.3848 -1.1692 -0.7436
   15SOL    HW1   44   2.488   2.573   1.480  0.2050  1.3225 -0.7743
   15SOL    HW2   45   2.447   2.627   1.332 -0.4957  0.2378 -2.1294
   16SOL     OW   46   2.726   2.829   0.406 -0.1460 -0.2412  0.2484
   16SOL    HW1   47   2.720   2.818   0.506 -1.1550  3.8616  1.4661
   16SOL    HW2   48   2.783   2.906   0.377  3.1396 -3.2470 -0.4367
   17SOL     OW   49   0.255   0.562   1.233  0.4155  0.2586 -0.0410
   17SOL    HW1   50   0.353   0.555   1.262  0.2220 -0.5863 -1.4298
   17SOL    HW2   51   0.225   0.475   1.188 -1.1804 -0.9324  0.8829
   18SOL     OW   52   2.154   0.481   0.419  0.1290 -0.4425  0.1346
   18SOL    HW1   53   2.179   0.535   0.503  1.2264  0.1765  1.0006
   18SOL    HW2   54   2.099   0.401   0.430  2.2411  0.0252  0.8790
   19SOL     OW   55   1.744   1.626   2.947 -1.0929 -0.0768 -0.4407
   19SOL    HW1   56   1.753   1.727   2.940  0.4397  0.2466  0.4777
   19SOL    HW2   57   1.798   1.585   3.024  1.2544 -2.0178  1.9795
   20SOL     OW   58   2.396   1.606   2.330  0.2035 -0.5078 -0.4165
   20SOL    HW1   59   2.460   1.523   2.336  0.3274 -1.7071  2.1879
   20SOL    HW2   60   2.384   1.647   2.239  0.0826 -2.2306  0.4132
   21SOL     OW   61   1.736   0.176   0.645  0.2454 -0.0792 -0.1316
   21SOL    HW1   62   1.699   0.155   0.739 -1.9696  2.2662 -2.5855
   21SOL    HW2   63   1.787   0.096   0.605 -0.0060 -2.6331  0.6468
   22SOL     OW   64   2.744   0.429   1.535 -0.5299  0.1064  0.2964
   22SOL    HW1   65   2.672   0.358   1.529 -1.3324 -0.7737  0.1421
   22SOL    HW2   66   2.722   0.503   1.466  1.9262 -1.3944 -1.1113
   23SOL     OW   67   0.227   0.448   1.929 -0.3929 -0.1573  0.2902
   23SOL    HW1   68   0.228   0.474   2.024 -1.4801 -0.7511 -1.1739
   23SOL    HW2   69   0.295   0.371   1.909  0.2643  0.0408  1.7832
   24SOL     OW   70   2.929   2.629   0.543  0.0726 -0.2793  0.2417
   24SOL    HW1   71   2.959   2.727   0.552  0.6578 -1.7744 -2.3983
   24SOL    HW2   72   2.910   2.606   0.448  1.9417 -1.8077  1.7439
   25SOL     OW   73   0.892   2.726   2.794 -0.3173  0.5024  0.1468
   25SOL    HW1   74   0.844   2.799   2.840  3.3456 -2.6121 -0.0055
   25SOL    HW2   75   0.989   2.751   2.787  0.9822  0.8661 -0.6987
   26SOL     OW   76   1.271   2.706   0.418  0.3330 -0.5897  0.4660
   26SOL    HW1   77   1.334   2.628   0.432 -0.1089  0.1451 -0.6656
   26SOL    HW2   78   1.303   2.788   0.465 -2.2097 -0.3226 -0.3864
   27SOL     OW   79   2.382   0.809   0.394  0.4373 -0.4581 -0.0224
   27SOL    HW1   80   2.387   0.814   0.290  2.4748 -1.7560 -2.1943
   27SOL    HW2   81   2.289   0.835   0.434 -0.6698  0.6939 -0.4659
   28SOL     OW   82   0.921   1.684   0.890 -0.3592  0.1124 -0.3870
   28SOL    HW1   83   0.869   1.602   0.860 -0.1262  0.1357  0.5427
   28SOL    HW2   84   1.024   1.666   0.885 -0.1822  1.2718 -0.3343
   29SOL     OW   85   2.983   2.995   1.615 -0.4563 -0.2118 -0.0560
   29SOL    HW1   86   3.046   2.968   1.543  1.2286 -1.9895  2.4949
   29SOL    HW2   87   2.889   2.997   1.583  0.7482 -0.9519  1.4190
   30SOL     OW   88   1.452   0.070   1.357  0.4150  0.6481 -0.1351
   30SOL    HW1   89   1.399   0.008   1.298  0.6713  0.2109 -1.0079
   30SOL    HW2   90   1.509   0.015   1.425  1.1468 -2.4032 -1.2168
   31SOL     OW   91   2.184   3.052   2.234 -0.1935 -0.1831 -0.1687
   31SOL    HW1   92   2.091   3.056   2.269  0.6762 -0.0155 -0.1605
   31SOL    HW2   93   2.189   3.015   2.140  0.5062  0.3073 -1.4426
   32SOL     OW   94   0.882   1.361   0.221 -0.0559 -0.0424 -0.1171
   32SOL    HW1   95   0.901   1.407   0.130  0.5857 -0.2511 -3.3088
   32SOL    HW2   96   0.786   1.380   0.254 -1.2255 -2.4321  0.6399
   33SOL     OW   97   3.057   0.838   2.552  0.2625  0.2049 -0.2408
   33SOL    HW1   98   3.017   0.801   2.467  3.1425 -1.1056  1.6241
   33SOL    HW2   99   3.093   0.762   2.610  2.0540 -1.0245 -0.7872
   34SOL     OW  100   2.588   0.281   0.565  0.5668 -0.1220  0.8406
   34SOL    HW1  101   2.590   0.329   0.474  2.2744  0.2775  1.5051
   34SOL    HW2  102   2.505   0.225   0.573 -1.6613  2.4071 -1.0802
   35SOL     OW  103   2.371   2.538   1.838 -0.2944  0.1903 -0.3312
   35SOL    HW1  104   2.403   2.464   1.900 -2.3638 -3.0115  0.5723
   35SOL    HW2  105   2.271   2.534   1.825  2.6587 -1.2379  1.7993
   36SOL     OW  106   2.239   2.011   0.031 -0.3974  0.4512 -0.1114
   36SOL    HW1  107   2.306   1.963   3.078 -2.2526 -3.6005 -0.4828
   36SOL    HW2  108   2.151   2.031   3.096  1.7503 -0.2311  2.6881
   37SOL     OW  109   1.911   0.143   2.057  0.5071  0.6571 -0.8457
   37SOL    HW1  110   1.880   0.240   2.040  0.0117  0.4132 -1.2303
   37SOL    HW2  111   1.881   0.085   1.978  2.2017 -1.3122 -2.6661
   38SOL     OW  112   0.165   0.461   2.937  0.3407  0.5797 -0.0477
   38SOL    HW1  113   0.093   0.405   2.886 -2.1994 -0.6627 -0.3428
   38SOL    HW2  114   0.143   0.462   3.038 -0.8693 -1.7838  3.9458
   39SOL     OW  115   1.827   1.262   1.497  0.0355 -0.6367 -0.1349
   39SOL    HW1  116   1.866   1.327   1.429  1.4424 -0.1950 -2.6903
   39SOL    HW2  117   1.827   1.304   1.590 -0.9560 -0.3917 -2.2427
   40SOL     OW  118   1.408   2.463   0.505  0.5471 -0.1187  0.4015
   40SOL    HW1  119   1.414   2.378   0.562 -0.0600  1.2484 -0.6431
   40SOL    HW2  120   1.381   2.440   0.411  0.7039 -0.0737  3.5885
   41SOL     OW  121   2.142   1.425   0.931  0.1126 -0.5644 -0.0573
   41SOL    HW1  122   2.155   1.368   0.845  1.8003  2.5309 -1.3508
   41SOL    HW2  123   2.116   1.521   0.915  0.2764  0.4667  0.0839
   42SOL     OW  124   0.678   0.222   1.190  0.3176  0.0632  0.1164
   42SOL    HW1  125   0.766   0.200   1.142  0.4025 -2.1671  1.0271
   42SOL    HW2  126   0.694   0.282   1.272  2.1032 -0.5254  0.7144
   43SOL     OW  127   0.149   1.602   2.528 -0.4038 -0.5261 -0.7054
   43SOL    HW1  128   0.121   1.540   2.605 -1.6672  3.2029  1.2285
   43SOL    HW2  129   0.252   1.614   2.538 -0.7596 -0.4042  0.8905
   44SOL     OW  130   1.994   3.032   1.338  0.3606 -0.1352 -0.0567
   44SOL    HW1  131   2.000   2.986   1.432 -0.0380 -1.3466  1.2518
   44SOL    HW2  132   2.067   3.002   1.275 -2.2455  1.8054 -0.1371
   45SOL     OW  133   1.135   3.081   2.425 -0.6129  0.3580 -0.2304
   45SOL    HW1  134   1.236   3.073   2.442  1.9757 -0.1382  0.4747
   45SOL    HW2  135   1.093   2.997   2.380 -0.2321  0.1408  2.3306
   46SOL     OW  136   1.143   2.415   2.237 -0.0356  0.5520 -0.3516
   46SOL    HW1  137   1.160   2.323   2.277  0.8435 -0.0737 -1.2047
   46SOL    HW2  138   1.107   2.477   2.306  1.8232  0.9456 -1.9294
   47SOL     OW  139   1.176   1.799   0.638 -0.1436 -0.4095 -0.4452
   47SOL    HW1  140   1.249   1.752   0.588  1.8459  0.0756  2.3175
   47SOL    HW2  141   1.168   1.773   0.734  2.6602  0.6454 -0.6906
   48SOL     OW  142   1.271   2.702   1.164 -0.0205  0.2702  0.1850
   48SOL    HW1  143   1.243   2.693   1.063 -0.0200 -1.0739  1.6255
   48SOL    HW2  144   1.343   2.630   1.172  0.4084  2.1578 -0.1712
   49SOL     OW  145   2.413   0.223   2.915  0.1993 -0.1900 -0.1398
   49SOL    HW1  146   2.334   0.246   2.854 -0.5731  0.0140  1.1803
   49SOL    HW2  147   2.434   0.294   2.986  5.2316  0.6022  0.5401
   50SOL     OW  148   1.650   0.064   0.162 -0.0413  0.2785 -0.6244
   50SOL    HW1  149   1.638   3.088   0.106 -2.6540 -2.0377  0.0795
   50SOL    HW2  150   1.620   0.146   0.114  1.0219 -1.0640  0.2440
   51SOL     OW  151   2.094   0.640   1.302 -0.2247  0.0502 -0.1850
   51SOL    HW1  152   2.152   0.708   1.353 -0.7109 -0.6069  1.8702
   51SOL    HW2  153   2.158   0.567   1.269  1.3384 -0.4971 -1.1624
   52SOL     OW  154   0.851   1.735   0.039 -0.1872  0.0943 -0.0468
   52SOL    HW1  155   0.871   1.637   0.016  2.1729 -0.8442 -0.2978
   52SOL    HW2  156   0.872   1.768   0.132  0.5551  1.6783  0.0191
   53SOL     OW  157   0.108   1.428   2.770  0.2438 -0.1751 -0.3371
   53SOL    HW1  158   0.080   1.334   2.741 -0.2344  0.0321  1.0535
   53SOL    HW2  159   0.180   1.433   2.842 -3.1518  0.5912 -0.3893
   54SOL     OW  160   2.714   1.226   1.719  0.3671 -0.1041  0.6735
   54SOL    HW1  161   2.771   1.149   1.755 -0.8478 -0.0946 -2.7165
   54SOL    HW2  162   2.657   1.266   1.793 -4.0239  3.5947 -2.0715
   55SOL     OW  163   2.243   2.038   0.506  0.1233 -0.9215  0.0484
   55SOL    HW1  164   2.342   2.046   0.516 -2.3575 -0.3431 -2.3214
   55SOL    HW2  165   2.194   2.073   0.589 -1.9504  0.3469 -0.0692
   56SOL     OW  166   1.771   0.230   1.636 -0.1153  0.0627  0.2428
   56SOL    HW1  167   1.772   0.329   1.667 -1.5123 -1.2971  0.7673
   56SOL    HW2  168   1.817   0.214   1.546 -0.9801  0.5811  0.7789
   57SOL     OW  169   1.366   1.202   2.566 -0.6657 -0.6876  0.2399
   57SOL    HW1  170   1.315   1.114   2.566  0.0856  4.2893  0.0996
   57SOL    HW2  171   1.417   1.227   2.648 -1.1408  0.5595  0.0015
   58SOL     OW  172   0.214   0.753   1.421  0.5395 -0.5034 -0.0763
   58SOL    HW1  173   0.232   0.699   1.506 -0.1366  2.0681 -0.3916
   58SOL    HW2  174   0.211   0.690   1.338  0.8897 -4.2420 -1.1726
   59SOL     OW  175   1.252   2.725   0.159  0.0519  0.6651 -0.5148
   59SOL    HW1  176   1.250   2.724   0.264 -1.1145 -1.7508  2.8617
   59SOL    HW2  177   1.236   2.821   0.132  0.3714  0.5476  2.4522
   60SOL     OW  178   3.083   1.847   2.865 -0.4254  0.2318  0.2508
   60SOL    HW1  179   0.076   1.861   2.890  0.4791 -1.5576  2.5649
   60SOL    HW2  180   3.041   1.932   2.830  1.5901 -2.5847  0.5560
   61SOL     OW  181   0.641   2.532   1.154  0.0794 -0.6826  0.4967
   61SOL    HW1  182   0.715   2.518   1.087  0.6470 -1.2905 -0.8700
   61SOL    HW2  183   0.656   2.615   1.211 -1.8485 -0.9508 -0.1625
   62SOL     OW  184   1.526   1.740   2.729 -0.0540  0.0361 -0.2137
   62SOL    HW1  185   1.615   1.738   2.682 -1.2373  0.0244  0.3420
   62SOL    HW2  186   1.497   1.647   2.762 -1.4163 -2.0359  1.1264
   63SOL     OW  187   2.302   1.870   0.265 -0.2597 -0.5952 -0.1019
   63SOL    HW1  188   2.292   1.933   0.187  0.0251  0.4688  0.2148
   63SOL    HW2  189   2.275   1.913   0.355 -1.3124 -0.4441  0.7554
   64SOL     OW  190   1.776   0.990   0.191  0.1024  0.6734 -0.0311
   64SOL    HW1  191   1.752   1.048   0.110 -1.3723 -0.2547  1.5789
   64SOL    HW2  192   1.767   0.894   0.157 -0.4993 -0.6361 -1.1109
   65SOL     OW  193   2.075   1.780   2.449 -0.4131 -0.6432  0.0975
   65SOL    HW1  194   2.175   1.794   2.465 -0.5208  3.1906 -2.1417
   65SOL    HW2  195   2.044   1.751   2.354 -2.8336 -2.3093 -1.6376
   66SOL     OW  196   0.453   1.222   1.473 -0.1787 -0.2413  0.1656
   66SOL    HW1  197   0.372   1.284   1.455  1.1470 -1.4694 -0.0267
   66SOL    HW2  198   0.422   1.127   1.470 -1.3053  1.0688  2.6912
   67SOL     OW  199   2.282   0.035   2.563 -0.2431 -0.0679  0.2174
   67SOL    HW1  200   2.193   0.091   2.557 -2.0034  0.9933 -1.6358
   67SOL    HW2  201   2.268   3.075   2.634 -1.7423  2.0474 -1.3796
   68SOL     OW  202   1.072   2.415   1.260 -0.2009 -0.1520 -0.2961
   68SOL    HW1  203   1.095   2.463   1.342  2.2779 -1.0374 -2.2889
   68SOL    HW2  204   1.112   2.318   1.259  1.9984 -0.6789 -0.8889
   69SOL     OW  205   0.753   2.561   0.090 -0.3629 -0.3235 -0.5510
   69SOL    HW1  206   0.719   2.489   0.161  2.4048 -0.9732 -0.4660
   69SOL    HW2  207   0.857   2.549   0.089  0.0436 -3.1691  0.5853
   70SOL     OW  208   0.186   0.614   2.193  0.5205  0.4039  0.2039
   70SOL    HW1  209   0.090   0.627   2.163 -2.3601  0.6592  2.6378
   70SOL    HW2  210   0.225   0.697   2.234 -1.6060 -0.9575 -0.0507
   71SOL     OW  211   0.648   1.277   2.649  0.2075 -0.0196  0.1113
   71SOL    HW1  212   0.721   1.333   2.612  0.0840  1.5011  0.6098
   71SOL    HW2  213   0.560   1.304   2.603  0.5422 -1.8953 -0.5352
   72SOL     OW  214   3.071   1.400   2.266  0.1154 -0.6902  0.0830
   72SOL    HW1  215   0.048   1.450   2.280  1.1036 -0.5666 -1.2273
   72SOL    HW2  216   3.010   1.464   2.216 -0.6038  0.8543 -3.6655
   73SOL     OW  217   1.610   1.554   0.408 -0.1703  0.4646 -0.1675
   73SOL    HW1  218   1.648   1.591   0.320 -0.5524  1.0179 -3.5809
   73SOL    HW2  219   1.663   1.476   0.434 -0.8850  0.4734 -4.7283
   74SOL     OW  220   2.532   3.026   2.547  0.1454  0.0512  0.6379
   74SOL    HW1  221   2.584   0.005   2.572  2.4130  2.3093  2.9114
   74SOL    HW2  222   2.429   3.028   2.548 -0.1634  0.3645 -3.2026
   75SOL     OW  223   1.846   2.294   0.937 -0.4198  0.0836 -0.9728
   75SOL    HW1  224   1.884   2.331   1.026  1.2583  0.6537 -2.4284
   75SOL    HW2  225   1.839   2.191   0.941 -2.1852 -3.0833 -2.1253
   76SOL     OW  226   2.927   2.167   1.992 -0.2255  0.0717 -0.2545
   76SOL    HW1  227   2.980   2.084   2.029 -1.2028  0.1731  1.8390
   76SOL    HW2  228   2.986   2.231   1.937  1.8008 -0.2781  0.0500
   77SOL     OW  229   0.027   0.105   1.932  0.3759 -0.0506 -0.0183
   77SOL    HW1  230   0.051   0.102   1.832  0.6206 -1.8647  1.0742
   77SOL    HW2  231   3.075   0.186   1.940  0.2026  0.9341 -2.1992
   78SOL     OW  232   2.330   1.101   2.885  0.4430  0.0971 -0.8082
   78SOL    HW1  233   2.250   1.167   2.888  0.1683 -2.0689 -1.9369
   78SOL    HW2  234   2.393   1.115   2.806 -1.2606  0.5436  0.6767
   79SOL     OW  235   2.932   1.249   2.452 -0.1088  0.4921  0.4320
   79SOL    HW1  236   2.925   1.286   2.550  1.3856  1.1094  0.5898
   79SOL    HW2  237   2.983   1.315   2.394 -0.1993 -0.9554  0.8410
   80SOL     OW  238   1.334   1.377   1.460 -0.2711  0.0100 -0.3884
   80SOL    HW1  239   1.361   1.454   1.528 -0.0622  3.6359  0.4570
   80SOL    HW2  240   1.301   1.290   1.507 -0.9180 -1.2153  2.7781
   81SOL     OW  241   2.052   0.855   1.886  0.0446 -0.1718 -0.4000
   81SOL    HW1  242   2.050   0.768   1.940 -1.5448  0.0399 -1.4020
   81SOL    HW2  243   2.147   0.887   1.872  1.6307 -0.9940  0.8982
   82SOL     OW  244   1.613   1.483   1.575  0.2227 -0.6239  0.3029
   82SOL    HW1  245   1.659   1.402   1.615  0.8580  3.7987  1.3224
   82SOL    HW2  246   1.658   1.530   1.498 -1.8797 -0.7346  1.1353
   83SOL     OW  247   0.331   0.182   0.391 -0.0959  0.4905 -0.1694
   83SOL    HW1  248   0.282   0.126   0.321 -0.1650 -1.9476 -0.5155
   83SOL    HW2  249   0.378   0.258   0.345  0.4152 -0.6320 -0.3394
   84SOL     OW  250   0.361   0.877   3.064 -0.4786  0.3236 -0.3109
   84SOL    HW1  251   0.373   0.784   3.022  0.7427 -0.9582  1.4641
   84SOL    HW2  252   0.294   0.876   0.029  0.8115 -0.8848 -1.4656
   85SOL     OW  253   2.385   2.017   1.117 -0.2896 -0.0206 -0.4993
   85SOL    HW1  254   2.412   1.951   1.039 -0.1692 -0.1945 -2.5415
   85SOL    HW2  255   2.463   2.079   1.152  1.0214  2.1123  1.3615
   86SOL     OW  256   0.357   2.495   1.379 -0.0480 -0.2504  0.2148
   86SOL    HW1  257   0.426   2.430   1.410 -3.2043  2.6647 -0.3636
   86SOL    HW2  258   0.363   2.494   1.277 -0.8649  0.0022 -3.3747
   87SOL     OW  259   0.695   2.311   2.120 -0.4367  0.5185 -0.3418
   87SOL    HW1  260   0.789   2.297   2.083 -0.0364  0.5970 -0.9118
   87SOL    HW2  261   0.668   2.231   2.174  0.2511  2.2606  0.2593
   88SOL     OW  262   3.051   1.935   0.222  0.0916  0.2144  0.4429
   88SOL    HW1  263   2.964   1.907   0.269 -0.2660 -2.9326 -0.1252
   88SOL    HW2  264   3.038   2.003   0.148  0.9310 -0.2697  0.6587
   89SOL     OW  265   0.934   0.966   0.968 -0.2477  0.3294  0.2618
   89SOL    HW1  266   0.973   0.982   1.055  0.0564  2.1010  0.2193
   89SOL    HW2  267   0.850   0.900   0.981 -2.9712 -0.5057 -1.5249
   90SOL     OW  268   0.222   1.413   1.883 -0.1311  0.6677 -0.5613
   90SOL    HW1  269   0.304   1.386   1.941  0.2396  2.4263 -0.8202
   90SOL    HW2  270   0.148   1.341   1.894  0.3150 -3.5994 -0.3326
   91SOL     OW  271   1.226   0.944   1.073 -0.0229  0.2221  0.0661
   91SOL    HW1  272   1.225   0.853   1.026  0.1633  0.4174 -1.3761
   91SOL    HW2  273   1.252   1.012   1.002 -1.7009  0.2016 -0.6509
   92SOL     OW  274   1.761   1.107   0.929  0.0579  0.5927  0.3503
   92SOL    HW1  275   1.680   1.128   0.988 -0.5754  0.7218  3.5701
   92SOL    HW2  276   1.849   1.136   0.965 -1.2261  0.2977  1.7263
   93SOL     OW  277   2.683   0.780   2.422  0.0513 -0.1168 -0.2921
   93SOL    HW1  278   2.637   0.764   2.337  2.8906  0.3825  0.9715
   93SOL    HW2  279   2.785   0.770   2.411 -0.2921  0.6316 -1.0066
   94SOL     OW  280   2.345   1.761   2.751  0.1189 -0.0740 -0.0037
   94SOL    HW1  281   2.374   1.780   2.655  0.5298 -0.7807 -0.4549
   94SOL    HW2  282   2.246   1.769   2.768 -0.9635  0.0037 -0.3469
   95SOL     OW  283   2.890   0.609   1.132 -0.6858  0.2248 -0.1015
   95SOL    HW1  284   2.907   0.703   1.167 -0.1836 -0.4165 -0.9408
   95SOL    HW2  285   2.894   0.610   1.034  3.2739 -1.6052  3.3638
   96SOL     OW  286   2.369   2.898   1.464  0.2708 -0.0260  0.3591
   96SOL    HW1  287   2.356   2.921   1.562 -0.6271  2.6360  1.0626
   96SOL    HW2  288   2.419   2.806   1.446  0.4487 -0.9809 -3.1832
   97SOL     OW  289   2.542   1.020   1.606  0.3160  0.1577 -0.3453
   97SOL    HW1  290   2.540   0.983   1.510  1.5388  0.8499  0.5695
   97SOL    HW2  291   2.589   1.106   1.611 -2.4793 -2.2681  0.0228
   98SOL     OW  292   1.746   2.522   1.924  0.0765  0.0475 -0.3936
   98SOL    HW1  293   1.824   2.476   1.970 -1.9401  0.1666 -0.1319
   98SOL    HW2  294   1.678   2.456   1.890 -0.8120  2.3951 -0.1530
   99SOL     OW  295   0.157   2.545   1.543  0.0549 -0.2724 -0.2095
   99SOL    HW1  296   0.240   2.521   1.486  3.2468  2.6026  2.1790
   99SOL    HW2  297   0.179   2.633   1.597 -0.9152  1.8955  0.9146
  100SOL     OW  298   1.472   0.390   2.658 -0.1285 -0.2778  0.0287
  100SOL    HW1  299   1.512   0.309   2.614  0.1021 -2.4079 -0.8622
  100SOL    HW2  300   1.540   0.465   2.672  1.8517 -0.7353 -1.0673
  101SOL     OW  301   2.559   0.205   2.582 -0.5334 -0.2189  0.3803
  101SOL    HW1  302   2.462   0.224   2.589 -0.7699 -0.6975 -0.0626
  101SOL    HW2  303   2.607   0.288   2.543  0.5225 -0.5128 -2.7493
  102SOL     OW  304   0.398   0.949   1.489 -0.0706  0.3543  0.1029
  102SOL    HW1  305   0.394   0.956   1.591 -0.5612 -1.2168  0.6798
  102SOL    HW2  306   0.326   0.886   1.464  2.8698  1.1476  0.2425
  103SOL     OW  307   0.656   0.995   2.625 -0.1078  0.4882  0.1015
  103SOL    HW1  308   0.576   0.947   2.581 -2.5035 -2.4141  0.9544
  103SOL    HW2  309   0.641   1.094   2.641  1.2799 -1.4436  0.3728
  104SOL     OW  310   0.259   0.786   2.690  0.1142  0.7389  0.1442
  104SOL    HW1  311   0.183   0.729   2.731 -3.1123 -1.4283  0.8978
  104SOL    HW2  312   0.255   0.886   2.688  1.2197 -2.3162  1.1567
  105SOL     OW  313   1.985   2.076   1.676 -0.4614 -0.0579  0.5857
  105SOL    HW1  314   2.031   2.024   1.750 -1.0919  1.4837 -1.1164
  105SOL    HW2  315   2.006   2.033   1.586  1.7888  1.2113  1.1146
  106SOL     OW  316   1.821   3.065   0.494  0.0378 -0.3063 -0.2414
  106SOL    HW1  317   1.796   2.963   0.518  0.2554 -0.8554 -0.1818
  106SOL    HW2  318   1.884   3.069   0.418 -2.4435 -1.2782  2.0564
  107SOL     OW  319   2.152   2.031   0.967 -0.0925  0.5182 -0.0630
  107SOL    HW1  320   2.128   1.935   0.983 -0.2140  2.2285 -0.6225
  107SOL    HW2  321   2.228   2.066   1.027 -3.1526  1.2869 -1.7039
  108SOL     OW  322   2.744   2.663   1.566  0.1901  0.2984  0.2278
  108SOL    HW1  323   2.782   2.576   1.605  1.7659 -1.0598  0.6212
  108SOL    HW2  324   2.685   2.710   1.636  1.2599  1.8413 -3.4435
  109SOL     OW  325   1.953   2.471   0.736  0.0508  0.0171 -0.1111
  109SOL    HW1  326   1.931   2.391   0.791  0.9266 -2.6860  0.8146
  109SOL    HW2  327   2.041   2.449   0.693 -1.5856  0.6257  3.7382
  110SOL     OW  328   0.996   1.739   2.093  0.1650  0.0797  0.0230
  110SOL    HW1  329   1.015   1.639   2.076 -0.5178 -0.4963 -2.2440
  110SOL    HW2  330   1.057   1.793   2.035  1.3347 -2.0904  1.5112
  111SOL     OW  331   1.814   2.145   2.118  0.3910  0.5128 -0.6083
  111SOL    HW1  332   1.787   2.141   2.020  0.6319 -0.1480  1.4560
  111SOL    HW2  333   1.731   2.163   2.175  0.0297  2.0243 -0.4429
  112SOL     OW  334   1.748   1.752   2.569  0.1052 -0.5471  0.8032
  112SOL    HW1  335   1.761   1.812   2.494 -0.7400 -2.6075  1.6591
  112SOL    HW2  336   1.820   1.682   2.576 -0.6398  2.0584  0.9878
  113SOL     OW  337   1.712   1.789   1.875  0.1086  0.3022  0.0476
  113SOL    HW1  338   1.681   1.884   1.881  0.0314  0.8219 -1.7816
  113SOL    HW2  339   1.668   1.729   1.943  1.0388 -0.4216  1.3063
  114SOL     OW  340   3.059   1.207   1.280 -0.4409 -0.4014  0.2199
  114SOL    HW1  341   2.963   1.206   1.257  1.3883 -0.6876  0.7927
  114SOL    HW2  342   3.091   1.115   1.302  1.2975 -1.1747  0.8372
  115SOL     OW  343   0.818   0.680   0.152 -0.0649 -0.0192  1.0805
  115SOL    HW1  344   0.720   0.681   0.139  2.6771  0.7726  1.1663
  115SOL    HW2  345   0.838   0.695   0.250  1.6909  0.2884 -0.1827
  116SOL     OW  346   2.785   1.814   2.226 -0.6727  0.4608  0.2041
  116SOL    HW1  347   2.711   1.868   2.189 -0.5334 -1.5791 -1.1990
  116SOL    HW2  348   2.763   1.803   2.325 -0.9966 -2.1711 -0.5297
  117SOL     OW  349   0.035   2.725   0.821 -0.0794 -0.1803 -0.2157
  117SOL    HW1  350   0.051   2.678   0.734  0.4576 -0.5763  0.5646
  117SOL    HW2  351   0.066   2.667   0.899  0.7683 -3.0204  1.0019
  118SOL     OW  352   0.499   1.620   2.800  0.6263  0.0652  0.1757
  118SOL    HW1  353   0.484   1.722   2.818 -1.4815 -0.1225 -0.2617
  118SOL    HW2  354   0.594   1.595   2.790  0.2238 -2.2051  2.7020
  119SOL     OW  355   0.616   1.958   0.424  0.4052 -0.4527 -0.0242
  119SOL    HW1  356   0.627   2.002   0.518  1.8094 -0.4547  0.6446
  119SOL    HW2  357   0.586   2.028   0.354 -0.8397 -0.2152  1.2053
  120SOL     OW  358   1.460   0.455   0.239  0.1967 -0.2641 -0.8798
  120SOL    HW1  359   1.479   0.375   0.308 -1.6912 -3.6907  4.5381
  120SOL    HW2  360   1.483   0.545   0.277 -0.2850  1.8423 -0.7900
  121SOL     OW  361   1.446   2.490   0.777 -0.0422 -0.1603 -0.0279
  121SOL    HW1  362   1.476   2.394   0.801  3.2724 -3.1564  1.9386
  121SOL    HW2  363   1.427   2.496   0.678  3.9685  1.1906 -0.9960
  122SOL     OW  364   2.538   2.427   1.601 -0.0719 -0.1811  0.5938
  122SOL    HW1  365   2.546   2.486   1.681 -0.7179 -0.5546  0.0535
  122SOL    HW2  366   2.543   2.331   1.634 -3.2494  1.6221 -2.2187
  123SOL     OW  367   0.543   1.679   0.745  0.2168 -0.4156  0.0557
  123SOL    HW1  368   0.610   1.650   0.678 -2.9180  0.3667  1.1623
  123SOL    HW2  369   0.540   1.781   0.751 -1.2437 -0.9559 -1.1653
  124SOL     OW  370   2.943   0.929   0.383  0.0457 -0.2675  0.3436
  124SOL    HW1  371   2.965   0.830   0.359  1.6627 -1.8956  2.3868
  124SOL    HW2  372   2.894   0.964   0.302  0.0959 -0.1122 -0.5415
  125SOL     OW  373   0.547   0.712   0.089 -0.3521 -0.0240  0.8608
  125SOL    HW1  374   0.470   0.642   0.073 -2.2773 -0.5699  0.5104
  125SOL    HW2  375   0.522   0.786   0.149 -0.8919  0.8582 -3.3825
  126SOL     OW  376   2.965   1.838   0.568 -0.4405 -0.2604  0.0995
  126SOL    HW1  377   2.924   1.755   0.608  1.5293 -0.5906  0.6458
  126SOL    HW2  378   2.902   1.879   0.497 -0.7515 -1.6230 -1.2018
  127SOL     OW  379   1.570   2.349   1.780 -0.3916  0.5299  0.3543
  127SOL    HW1  380   1.478   2.323   1.816 -1.1841 -1.1091  1.3595
  127SOL    HW2  381   1.637   2.278   1.807  0.9216 -0.4622 -1.2990
  128SOL     OW  382   0.959   1.102   0.169 -0.9953 -0.6280  0.1810
  128SOL    HW1  383   0.891   1.054   0.118 -1.0404  1.5472  0.2129
  128SOL    HW2  384   0.932   1.203   0.176 -1.2020 -1.0147 -0.9584
  129SOL     OW  385   1.739   1.867   1.567 -0.2078  0.5045  0.3925
  129SOL    HW1  386   1.654   1.915   1.541  1.8320 -3.4463  1.3742
  129SOL    HW2  387   1.739   1.856   1.666  0.6169 -1.4545 -3.0561
  130SOL     OW  388   2.024   1.550   1.592  0.3472 -0.0989  0.0275
  130SOL    HW1  389   1.986   1.606   1.668 -0.1383 -0.2193  1.7936
  130SOL    HW2  390   2.125   1.568   1.585  0.6257 -0.0689  1.9531
  131SOL     OW  391   2.935   2.914   3.070  0.3203  0.3027  0.3167
  131SOL    HW1  392   2.894   2.967   2.995  1.2816 -2.8260  2.0637
  131SOL    HW2  393   2.903   2.814   3.063 -2.3202 -0.9154  0.7839
  132SOL     OW  394   2.443   1.829   0.628  0.3082 -0.1640 -0.0461
  132SOL    HW1  395   2.485   1.921   0.592  2.2479  0.2549  1.0162
  132SOL    HW2  396   2.512   1.753   0.619  2.0163  2.6868 -1.9367
  133SOL     OW  397   0.483   0.036   2.090  0.0436  0.1599  0.1539
  133SOL    HW1  398   0.388   0.023   2.117  1.2357  2.4110 -0.8039
  133SOL    HW2  399   0.541   0.065   2.168 -2.2591 -1.2191 -0.7289
  134SOL     OW  400   2.780   2.112   3.047 -0.2294  0.4047 -0.3726
  134SOL    HW1  401   2.793   2.011   3.075  1.3038 -4.1213  0.7716
  134SOL    HW2  402   2.689   2.125   3.010  2.9640 -0.3653  3.5631
  135SOL     OW  403   1.402   0.656   2.039 -0.0769  0.6013  0.4430
  135SOL    HW1  404   1.333   0.717   1.997 -0.9830  1.1724  2.0087
  135SOL    HW2  405   1.413   0.683   2.138  0.9435  0.9779  1.2515
  136SOL     OW  406   2.462   1.448   0.698  0.3434  0.5070  0.1829
  136SOL    HW1  407   2.451   1.370   0.635  0.4636 -0.1662  0.5568
  136SOL    HW2  408   2.502   1.417   0.785 -1.7101  0.7120 -1.4112
  137SOL     OW  409   2.860   1.643   0.724 -0.2434  0.2658  0.3488
  137SOL    HW1  410   2.882   1.544   0.735  0.8184  0.3233  0.5723
  137SOL    HW2  411   2.896   1.701   0.803 -1.7908  0.3066 -1.5764
  138SOL     OW  412   2.448   0.735   1.197  0.6406  0.1211 -0.5185
  138SOL    HW1  413   2.359   0.749   1.148 -1.9480  0.3566  0.3188
  138SOL    HW2  414   2.527   0.745   1.133 -1.0294 -0.3820  2.2448
  139SOL     OW  415   0.585   2.466   3.022  0.6763  0.2120  0.1817
  139SOL    HW1  416   0.646   2.511   3.089 -2.6902  0.8466  1.6013
  139SOL    HW2  417   0.541   2.532   2.955 -2.6432 -1.4579 -2.1873
  140SOL     OW  418   1.089   1.982   1.054 -0.0506 -0.4401  0.0226
  140SOL    HW1  419   1.171   2.001   0.994  0.1326  1.6125  3.9108
  140SOL    HW2  420   1.010   1.946   1.000  0.2162  2.2386  1.9107
  141SOL     OW  421   1.380   2.249   0.663 -0.2394 -0.0218 -0.1908
  141SOL    HW1  422   1.457   2.189   0.696  1.8736  0.5479 -1.4605
  141SOL    HW2  423   1.296   2.197   0.639 -2.2760  2.0859  2.1560
  142SOL     OW  424   0.953   0.520   1.092 -0.0955  0.7956 -0.2186
  142SOL    HW1  425   0.973   0.576   1.007  1.6165  0.7720 -1.1204
  142SOL    HW2  426   0.856   0.483   1.091 -2.7425 -0.9450  0.2670
  143SOL     OW  427   0.810   1.285   2.883 -0.5141  0.0808 -0.0876
  143SOL    HW1  428   0.737   1.293   2.812  4.1453 -3.2942 -2.8520
  143SOL    HW2  429   0.897   1.269   2.831  0.2832 -0.8292  1.0631
  144SOL     OW  430   1.839   2.704   0.777  0.6370 -0.0693 -0.0332
  144SOL    HW1  431   1.749   2.706   0.826 -4.6006  2.3906 -2.8234
  144SOL    HW2  432   1.867   2.606   0.759  3.3229 -2.7189 -0.9569
  145SOL     OW  433   1.866   0.740   2.689  0.1741  0.3515 -0.1800
  145SOL    HW1  434   1.851   0.791   2.604 -4.4075 -0.4954  4.2639
  145SOL    HW2  435   1.937   0.782   2.752  1.1961 -3.8599 -0.7355
  146SOL     OW  436   0.202   2.866   0.602 -0.4457 -0.1433 -0.0638
  146SOL    HW1  437   0.234   2.888   0.694 -0.3969 -1.7005 -1.1721
  146SOL    HW2  438   0.199   2.770   0.576 -1.9076  2.8331  1.7930
  147SOL     OW  439   1.632   0.699   1.877  0.8268 -0.1932  0.4506
  147SOL    HW1  440   1.547   0.670   1.928 -1.0968  0.2626 -1.5371
  147SOL    HW2  441   1.705   0.722   1.944 -0.7232  0.0016 -0.8089
  148SOL     OW  442   1.456   0.370   2.026 -0.0024  0.2683 -0.0256
  148SOL    HW1  443   1.455   0.472   2.022 -0.2888 -0.3855 -0.1238
  148SOL    HW2  444   1.357   0.338   2.043 -2.1923  0.2209 -0.3225
  149SOL     OW  445   1.533   0.139   2.424 -0.1548  0.5945  0.4537
  149SOL    HW1  446   1.540   0.144   2.320  1.2632 -0.3331 -2.6866
  149SOL    HW2  447   1.467   0.068   2.460 -0.5346  1.0040  0.3498
  150SOL     OW  448   2.863   3.054   0.301 -0.4643 -0.3855  0.5413
  150SOL    HW1  449   2.930   2.980   0.280  1.4976  0.8713 -0.1753
  150SOL    HW2  450   2.806   3.085   0.224  0.5767 -0.1713  1.6932
  151SOL     OW  451   0.535   1.039   0.094 -0.0573 -0.2740  0.4527
  151SOL    HW1  452   0.460   0.973   0.065 -1.8358 -1.9651  0.2694
  151SOL    HW2  453   0.615   1.031   0.032  1.4198  1.9007  0.8639
  152SOL     OW  454   0.012   0.456   0.623  0.1400  0.1477  0.6025
  152SOL    HW1  455   3.099   0.415   0.710 -1.6344  1.4782  1.1141
  152SOL    HW2  456   0.109   0.436   0.594  1.8607 -1.8473  1.8014
  153SOL     OW  457   2.552   0.209   1.554 -0.1413  0.5821 -0.5757
  153SOL    HW1  458   2.519   0.151   1.472 -0.9285 -3.3903 -1.5215
  153SOL    HW2  459   2.621   0.162   1.609  1.2777  2.1283 -0.8225
  154SOL     OW  460   1.581   0.137   2.064  0.4089 -0.0255 -0.4651
  154SOL    HW1  461   1.642   0.124   1.983 -0.5105  2.6718  0.8767
  154SOL    HW2  462   1.529   0.224   2.051  0.0053 -1.9816  0.5854
  155SOL     OW  463   3.092   1.635   0.382 -0.6811  0.3563  0.7471
  155SOL    HW1  464   3.102   1.692   0.301 -0.8193 -3.5963  0.3468
  155SOL    HW2  465   3.065   1.686   0.465  0.7538 -0.1323 -2.8102
  156SOL     OW  466   2.639   1.721   2.997 -0.0223 -0.2643  0.2563
  156SOL    HW1  467   2.723   1.777   3.010  2.9225  0.2012  4.0137
  156SOL    HW2  468   2.640   1.639   3.054  2.6382  2.9276  0.6052
  157SOL     OW  469   0.800   0.239   0.740  0.3490 -0.0784  0.0846
  157SOL    HW1  470   0.760   0.291   0.661 -0.4170 -0.0870 -1.5117
  157SOL    HW2  471   0.853   0.162   0.703  2.0023  1.7732  1.3092
  158SOL     OW  472   2.365   0.693   1.986  0.0281 -0.0563  0.0848
  158SOL    HW1  473   2.266   0.695   2.006  0.5512 -1.4149 -0.4321
  158SOL    HW2  474   2.400   0.596   1.978 -1.2174  3.0554 -1.8555
  159SOL     OW  475   0.276   0.387   0.626 -0.8842  0.6009 -0.5951
  159SOL    HW1  476   0.280   0.307   0.567 -0.9481 -0.9011 -1.3055
  159SOL    HW2  477   0.359   0.445   0.603  1.4447 -2.8879  1.0305
  160SOL     OW  478   2.018   1.953   2.082  0.7089 -0.6302 -0.2499
  160SOL    HW1  479   1.940   2.024   2.089 -0.7819  0.3229 -1.3522
  160SOL    HW2  480   1.989   1.867   2.130 -0.5752  1.4876  2.7986
  161SOL     OW  481   2.947   0.441   2.446 -0.2732  0.3952 -0.3884
  161SOL    HW1  482   2.917   0.429   2.541  1.5241 -0.0808 -0.5988
  161SOL    HW2  483   2.975   0.351   2.402  4.8496 -0.2634 -2.1447
  162SOL     OW  484   1.109   2.907   1.759 -0.4642  0.1762  0.4441
  162SOL    HW1  485   1.205   2.875   1.749  0.0001 -2.4291  1.2695
  162SOL    HW2  486   1.105   2.992   1.818 -2.0502  0.7449  2.2134
  163SOL     OW  487   2.706   0.326   2.163  0.0775  0.1373 -0.1804
  163SOL    HW1  488   2.664   0.232   2.157  1.4957  0.0870 -0.8307
  163SOL    HW2  489   2.797   0.329   2.114 -2.0244 -1.3551  0.4588
  164SOL     OW  490   2.133   1.672   0.139 -0.2480  0.2326  0.0783
  164SOL    HW1  491   2.201   1.729   0.190  1.4368 -1.0814 -1.2628
  164SOL    HW2  492   2.192   1.606   0.093  1.7295  1.5188 -2.2116
  165SOL     OW  493   3.069   0.482   1.302 -0.0471  0.5947  0.0727
  165SOL    HW1  494   0.056   0.518   1.299 -2.2698 -2.0475  4.1664
  165SOL    HW2  495   2.996   0.526   1.244  0.3775 -0.4183  0.0326
  166SOL     OW  496   2.414   0.778   0.116 -0.1552  0.0749  0.0880
  166SOL    HW1  497   2.479   0.744   0.042  0.1323 -1.3718 -0.9580
  166SOL    HW2  498   2.360   0.860   0.081  1.7470 -0.5353 -0.4291
  167SOL     OW  499   2.778   0.843   3.070 -0.5085  0.2832 -0.8551
  167SOL    HW1  500   2.769   0.917   3.002 -0.7255 -0.0688 -1.2933
  167SOL    HW2  501   2.783   0.887   0.053 -2.3124 -1.4186 -0.8426
  168SOL     OW  502   1.635   3.014   2.822 -0.1619  0.5295 -0.1129
  168SOL    HW1  503   1.620   2.947   2.749 -2.3787 -1.9884  3.0244
  168SOL    HW2  504   1.675   3.101   2.785 -2.0215 -2.7419 -0.3414
  169SOL     OW  505   0.130   1.558   0.806 -0.1555 -0.0970  0.4386
  169SOL    HW1  506   0.038   1.564   0.844  2.4497  2.2424 -1.8830
  169SOL    HW2  507   0.183   1.480   0.841  0.1709 -0.1273 -2.7558
  170SOL     OW  508   0.100   0.976   1.340 -0.3803  0.0299  0.0058
  170SOL    HW1  509   0.095   1.036   1.419 -1.7830  1.0469 -2.0612
  170SOL    HW2  510   0.140   0.885   1.367  0.1111 -0.8367 -1.6278
  171SOL     OW  511   2.504   2.099   1.930  0.3046 -0.2970  0.2817
  171SOL    HW1  512   2.523   2.137   1.835 -1.9546  2.0471 -3.6439
  171SOL    HW2  513   2.451   2.015   1.936  0.6978 -1.8134 -0.0813
  172SOL     OW  514   0.219   2.277   1.625 -0.1149 -0.1544  0.0741
  172SOL    HW1  515   0.206   2.231   1.535 -0.3656  2.2603 -1.4659
  172SOL    HW2  516   0.194   2.376   1.618 -0.0430  0.6471  0.8176
  173SOL     OW  517   1.201   1.297   2.854  0.1148  0.1768 -0.2395
  173SOL    HW1  518   1.301   1.296   2.843 -0.4174  1.2570 -0.7826
  173SOL    HW2  519   1.162   1.360   2.779  0.2052  4.0150  0.3800
  174SOL     OW  520   1.220   0.647   2.866 -0.0182  0.0125  0.0819
  174SOL    HW1  521   1.303   0.660   2.809 -4.2639  0.9553 -0.0206
  174SOL    HW2  522   1.222   0.722   2.938 -0.4444 -0.8763  2.2452
  175SOL     OW  523   1.509   1.966   1.191 -0.4038  0.1785 -0.3483
  175SOL    HW1  524   1.595   1.920   1.219  0.1451 -0.6614  1.0050
  175SOL    HW2  525   1.447   1.897   1.147  0.3775  0.5636  0.4529
  176SOL     OW  526   1.563   3.082   0.395 -0.1567 -0.5869  0.0271
  176SOL    HW1  527   1.643   3.104   0.454 -1.6237 -0.9974 -1.1195
  176SOL    HW2  528   1.584   0.005   0.298 -0.3022 -1.0690 -2.0575
  177SOL     OW  529   0.466   1.053   2.879 -0.5161  0.0833  0.1092
  177SOL    HW1  530   0.553   1.008   2.844  1.8614  0.0380  0.0565
  177SOL    HW2  531   0.405   0.999   2.938  1.0568  0.2351 -1.9238
  178SOL     OW  532   2.148   2.264   2.409 -0.1386  0.2245  0.0772
  178SOL    HW1  533   2.237   2.264   2.452 -0.9684 -0.7509  0.0778
  178SOL    HW2  534   2.096   2.174   2.425  0.4150 -0.5961  0.7464
  179SOL     OW  535   3.089   0.043   2.788 -0.2141 -0.5524  0.0925
  179SOL    HW1  536   2.997   0.048   2.830 -0.7744  0.6660 -0.5120
  179SOL    HW2  537   3.078   3.106   2.697  0.7770 -0.1673 -0.1273
  180SOL     OW  538   2.016   0.763   0.666 -0.8294 -0.0647  0.1290
  180SOL    HW1  539   2.057   0.673   0.700  0.3286  0.2279  1.0134
  180SOL    HW2  540   1.944   0.800   0.733  0.4873 -1.1712  1.0258
  181SOL     OW  541   2.132   1.220   2.425 -0.3000 -0.1778 -0.2316
  181SOL    HW1  542   2.169   1.295   2.484 -1.8655 -2.0931 -1.2394
  181SOL    HW2  543   2.052   1.175   2.472  1.4203 -3.0131  0.5222
  182SOL     OW  544   2.727   2.480   2.084  0.1845  0.0005 -0.6215
  182SOL    HW1  545   2.781   2.499   1.998 -0.4595  0.8047 -1.0467
  182SOL    HW2  546   2.757   2.391   2.121 -0.2518  3.1835 -3.8694
  183SOL     OW  547   2.086   0.642   2.032  0.2034 -1.0170  0.0586
  183SOL    HW1  548   2.058   0.598   2.119 -1.0787  1.7335 -0.1875
  183SOL    HW2  549   2.106   0.567   1.962  2.0489  0.7443 -2.0417
  184SOL     OW  550   0.077   1.758   1.425 -0.2473 -0.5358 -0.6090
  184SOL    HW1  551   0.116   1.755   1.328 -0.3247 -0.4702 -1.2854
  184SOL    HW2  552   0.147   1.806   1.487  1.7558 -0.2887  0.6195
  185SOL     OW  553   2.319   0.064   0.628 -0.4329  0.2237 -0.3260
  185SOL    HW1  554   2.409   0.024   0.646 -1.2491 -1.5168 -0.7469
  185SOL    HW2  555   2.241   0.021   0.680 -1.7214 -1.9001  0.1061
  186SOL     OW  556   3.065   2.483   2.712 -0.2488  0.0052  0.3837
  186SOL    HW1  557   2.982   2.423   2.695 -1.4245 -0.0141 -1.2324
  186SOL    HW2  558   3.103   2.469   2.805  1.5003  1.3460  0.2458
  187SOL     OW  559   2.918   1.352   0.681  0.6975 -0.0200  0.5013
  187SOL    HW1  560   2.973   1.339   0.597 -0.5853  0.3348  0.3762
  187SOL    HW2  561   2.819   1.325   0.670  0.9808 -0.1985 -0.8125
  188SOL     OW  562   2.372   1.265   1.042 -0.2840 -0.3034  0.8817
  188SOL    HW1  563   2.375   1.308   1.136  1.8790 -0.3623  1.6414
  188SOL    HW2  564   2.290   1.301   0.994  0.8809 -0.5276  1.0121
  189SOL     OW  565   3.085   0.223   2.297 -0.2562 -0.4625  0.2443
  189SOL    HW1  566   3.040   0.139   2.262  0.5175  0.1993  0.4870
  189SOL    HW2  567   0.072   0.209   2.325  1.3222 -1.0900 -1.6011
  190SOL     OW  568   1.495   1.190   1.869 -0.2447 -0.0480 -0.3259
  190SOL    HW1  569   1.395   1.185   1.882  1.4742 -1.7867 -1.2739
  190SOL    HW2  570   1.525   1.124   1.797 -0.0793 -0.2033 -0.0953
  191SOL     OW  571   0.981   0.308   2.087  0.0182  0.3781 -0.1985
  191SOL    HW1  572   1.077   0.281   2.107 -1.8219  0.7343  3.2699
  191SOL    HW2  573   0.970   0.409   2.090 -0.0117  0.6783  1.0589
  192SOL     OW  574   1.542   2.003   1.797 -0.7026  0.2205  0.4413
  192SOL    HW1  575   1.470   1.971   1.862  1.9601 -1.0908 -0.9314
  192SOL    HW2  576   1.507   2.013   1.699  1.3332  0.0147 -1.0442
  193SOL     OW  577   1.637   0.544   0.891 -0.1752 -0.2285 -0.3150
  193SOL    HW1  578   1.574   0.599   0.832  0.5399  1.1447  0.1610
  193SOL    HW2  579   1.636   0.591   0.982 -1.4467  1.9766  0.4421
  194SOL     OW  580   0.531   2.065   1.441  0.6154 -0.2533 -0.6502
  194SOL    HW1  581   0.458   1.995   1.458 -1.3526 -1.9707 -0.2973
  194SOL    HW2  582   0.605   2.037   1.377  0.7485 -0.3632  0.5090
  195SOL     OW  583   1.597   0.264   0.418 -0.1163  0.0586  0.1800
  195SOL    HW1  584   1.664   0.257   0.341  0.5370 -0.1016  1.4205
  195SOL    HW2  585   1.628   0.231   0.510 -1.9976 -0.2988  1.6933
  196SOL     OW  586   0.266   1.398   1.456 -0.2041 -0.4069  0.4484
  196SOL    HW1  587   0.318   1.488   1.461  2.1614  2.1771  2.7858
  196SOL    HW2  588   0.191   1.400   1.522  1.8409  0.1075  0.1178
  197SOL     OW  589   0.969   0.392   1.650  0.0134 -0.3843 -0.2394
  197SOL    HW1  590   1.019   0.345   1.573  0.6698 -2.1200 -1.9523
  197SOL    HW2  591   1.011   0.476   1.681 -0.1060 -2.0754 -0.9817
  198SOL     OW  592   0.725   1.385   1.074  0.3027 -0.0122  0.1030
  198SOL    HW1  593   0.652   1.446   1.033  2.0683  1.0756 -0.4737
  198SOL    HW2  594   0.682   1.319   1.136  1.3648 -3.0556 -0.2503
  199SOL     OW  595   3.081   2.319   1.802  0.2471  0.6203  0.0890
  199SOL    HW1  596   3.096   2.418   1.776 -0.7758 -0.4803 -4.3336
  199SOL    HW2  597   0.057   2.267   1.783 -1.1838  0.0452 -2.6290
  200SOL     OW  598   1.800   1.343   1.766  0.1801 -0.0875 -0.1088
  200SOL    HW1  599   1.803   1.244   1.801 -0.2383 -1.8851  2.4553
  200SOL    HW2  600   1.736   1.399   1.823 -0.8779 -0.0351  0.3406
  201SOL     OW  601   0.742   1.781   2.134 -0.1257 -0.0487 -0.0594
  201SOL    HW1  602   0.840   1.757   2.104 -0.4368 -1.0564  0.8012
  201SOL    HW2  603   0.673   1.730   2.075 -0.9511  0.5603 -0.9338
  202SOL     OW  604   1.565   0.329   0.032  0.1624  0.4914 -0.2489
  202SOL    HW1  605   1.629   0.390   3.090  2.3081  0.5776  1.0345
  202SOL    HW2  606   1.525   0.377   0.115  1.0413 -0.7939 -0.2000
  203SOL     OW  607   1.280   2.834   2.261  0.0884 -0.7031 -0.7202
  203SOL    HW1  608   1.257   2.772   2.184 -0.5404 -2.1609  1.5655
  203SOL    HW2  609   1.361   2.887   2.237 -1.1221  1.1143 -0.3904
  204SOL     OW  610   0.703   1.830   1.664 -0.6978 -0.0942  0.9334
  204SOL    HW1  611   0.795   1.877   1.636  1.1234 -0.0908  4.1138
  204SOL    HW2  612   0.727   1.741   1.706 -2.1406  0.9086 -1.1529
  205SOL     OW  613   1.767   1.426   2.181  0.7604  0.2686 -0.8281
  205SOL    HW1  614   1.707   1.393   2.105  0.8400  0.2622  1.6722
  205SOL    HW2  615   1.712   1.443   2.268 -0.9846 -0.9487  1.0096
  206SOL     OW  616   0.194   1.531   2.267 -0.0599 -0.2151 -0.4767
  206SOL    HW1  617   0.290   1.509   2.257  1.1383 -2.1654 -0.3919
  206SOL    HW2  618   0.176   1.577   2.356  2.0537  0.1294 -1.9323
  207SOL     OW  619   1.055   0.030   1.883 -0.1660 -0.6760  0.1419
  207SOL    HW1  620   0.984   0.101   1.865 -0.3843 -0.3358 -1.1176
  207SOL    HW2  621   1.041   3.089   1.973 -1.3300  0.9033  2.5598
  208SOL     OW  622   0.390   2.519   1.745  0.2142  0.0182 -0.1234
  208SOL    HW1  623   0.412   2.461   1.827  2.5186  1.0376 -0.4512
  208SOL    HW2  624   0.480   2.540   1.701 -0.5420 -3.3961  0.6715
  209SOL     OW  625   1.381   2.913   0.554 -0.6772  0.3171 -0.6388
  209SOL    HW1  626   1.447   2.909   0.631  0.0462  0.9443 -0.9865
  209SOL    HW2  627   1.424   2.969   0.482 -3.2311  2.8373  0.8617
  210SOL     OW  628   2.633   0.692   1.006  0.3710 -0.1347  0.4555
  210SOL    HW1  629   2.713   0.700   0.945  0.1774  0.5839 -0.7463
  210SOL    HW2  630   2.563   0.627   0.972 -2.2795 -0.7730 -0.4944
  211SOL     OW  631   0.613   0.440   1.761 -0.0873 -0.7141 -0.5248
  211SOL    HW1  632   0.659   0.354   1.781 -0.8975  3.0860  4.0583
  211SOL    HW2  633   0.527   0.425   1.707 -0.7559 -0.8135  0.7993
  212SOL     OW  634   1.402   2.551   1.632  0.4259 -0.5065  0.0455
  212SOL    HW1  635   1.464   2.567   1.552  2.1664 -0.8366 -0.8530
  212SOL    HW2  636   1.455   2.499   1.704 -2.3128  0.3618  0.9890
  213SOL     OW  637   2.962   0.638   1.520 -0.9190 -0.4372 -0.0927
  213SOL    HW1  638   3.003   0.572   1.451  0.9078 -1.7984 -1.6612
  213SOL    HW2  639   2.907   0.707   1.472  4.8636 -0.4169 -1.1261
  214SOL     OW  640   0.650   2.623   1.735 -0.1611  0.8938  0.4080
  214SOL    HW1  641   0.735   2.601   1.681 -1.0746 -4.0890  0.8490
  214SOL    HW2  642   0.657   2.705   1.796  1.8852  0.1434 -0.7067
  215SOL     OW  643   2.530   1.538   1.779  0.1933 -0.5238  0.2150
  215SOL    HW1  644   2.446   1.483   1.777 -0.1430  1.6622  1.3196
  215SOL    HW2  645   2.514   1.636   1.769  1.7576 -2.2570  0.0554
  216SOL     OW  646   0.470   1.122   2.190  0.0591  0.1413  0.6198
  216SOL    HW1  647   0.463   1.181   2.105  1.7655  0.4790  1.6332
  216SOL    HW2  648   0.547   1.056   2.175  0.8918  0.0922  1.4672
  217SOL     OW  649   2.725   2.989   1.575  0.5047  0.6862  0.4311
  217SOL    HW1  650   2.703   2.931   1.652  0.3491  1.6522 -2.7457
  217SOL    HW2  651   2.710   2.937   1.489  1.6679 -2.8878  0.9670
  218SOL     OW  652   1.500   2.235   1.159  0.4406 -0.1060 -0.4678
  218SOL    HW1  653   1.510   2.134   1.175 -1.2766  0.4806  0.9972
  218SOL    HW2  654   1.535   2.257   1.063 -1.3965 -0.9294  0.4987
  219SOL     OW  655   1.790   2.794   0.522  0.0032  0.0754 -0.7390
  219SOL    HW1  656   1.815   2.763   0.619  1.0226 -0.0070  4.0231
  219SOL    HW2  657   1.715   2.732   0.479 -0.0655 -1.9207 -3.3281
  220SOL     OW  658   1.626   2.487   0.167  0.4403  0.4288  0.0729
  220SOL    HW1  659   1.561   2.538   0.103  1.6451 -0.3036  0.1308
  220SOL    HW2  660   1.723   2.510   0.144  0.6658 -0.2813  0.5555
  221SOL     OW  661   2.623   1.630   0.598  0.0728 -0.1262  0.0087
  221SOL    HW1  662   2.716   1.635   0.645 -0.0753 -0.9122 -0.7005
  221SOL    HW2  663   2.558   1.548   0.622 -4.3820 -0.2961  0.4011
  222SOL     OW  664   0.906   2.382   0.834 -0.2379  0.1652 -0.2441
  222SOL    HW1  665   0.811   2.385   0.802 -0.7004 -0.9170  1.2451
  222SOL    HW2  666   0.916   2.439   0.921 -0.3271  1.1439  0.8805
  223SOL     OW  667   0.923   3.036   0.062 -0.3508  0.0410  0.7594
  223SOL    HW1  668   0.904   3.078   3.080 -2.0730 -1.0550 -1.7917
  223SOL    HW2  669   0.857   2.962   0.089  2.1445 -1.9076 -2.6200
  224SOL     OW  670   2.912   0.890   1.175 -0.1396 -0.0331  0.4545
  224SOL    HW1  671   2.839   0.961   1.146 -4.5213  2.7952  2.0987
  224SOL    HW2  672   2.923   0.895   1.278 -4.5535  2.7551 -0.1821
  225SOL     OW  673   3.013   1.832   0.918 -0.3920 -0.0882  0.3722
  225SOL    HW1  674   2.961   1.916   0.903 -0.3521 -2.7515  1.3662
  225SOL    HW2  675   3.108   1.848   0.886  1.7235  0.0835  1.0701
  226SOL     OW  676   0.728   2.913   1.154 -0.5163 -0.6056 -0.1941
  226SOL    HW1  677   0.693   2.836   1.209 -1.9644  1.0203 -0.9255
  226SOL    HW2  678   0.651   2.979   1.136  0.5673  2.4227 -1.0763
  227SOL     OW  679   0.994   1.608   1.338 -0.5430 -0.0293 -0.0567
  227SOL    HW1  680   0.998   1.554   1.251 -0.0905  0.6938 -0.5736
  227SOL    HW2  681   0.919   1.571   1.398 -0.3280 -0.1610  1.5391
  228SOL     OW  682   1.237   0.256   2.142 -0.1498  0.3422 -0.1670
  228SOL    HW1  683   1.247   0.160   2.115 -0.5836  1.6136  2.9700
  228SOL    HW2  684   1.221   0.263   2.242 -2.0994 -1.0593 -0.2400
  229SOL     OW  685   2.936   0.693   2.372  0.3435  0.4058  0.2916
  229SOL    HW1  686   2.978   0.600   2.405 -1.5992 -2.4120  2.5397
  229SOL    HW2  687   2.948   0.706   2.271  1.3755  1.1471 -1.8551
  230SOL     OW  688   0.041   0.876   1.036  0.4682  0.3547  0.2574
  230SOL    HW1  689   0.074   0.926   1.115 -0.9243  0.1753  1.1435
  230SOL    HW2  690   3.050   0.857   1.056  0.3689 -1.9745  1.9844
  231SOL     OW  691   1.378   3.058   2.530  0.2691 -0.1389 -0.1443
  231SOL    HW1  692   1.427   2.970   2.551 -2.1349  0.1891 -2.4670
  231SOL    HW2  693   1.356   3.103   2.623  1.7480  2.0352  0.3552
  232SOL     OW  694   0.110   1.625   0.078 -0.0153  0.1872 -0.2922
  232SOL    HW1  695   0.103   1.605   3.090  2.9221 -0.1282  0.8661
  232SOL    HW2  696   0.175   1.564   0.125 -1.1234 -1.2175 -1.4159
  233SOL     OW  697   1.258   2.500   2.932  0.2554 -0.3475 -0.0069
  233SOL    HW1  698   1.301   2.483   2.839  0.4620 -1.3028 -0.7772
  233SOL    HW2  699   1.155   2.506   2.934 -1.3929 -3.0310 -1.1109
  234SOL     OW  700   0.745   1.399   1.948 -0.6149  0.0463 -0.0968
  234SOL    HW1  701   0.819   1.335   1.938 -3.0964  0.0577  2.1372
  234SOL    HW2  702   0.741   1.449   2.041 -1.0805  1.2108  4.2421
  235SOL     OW  703   0.449   2.362   1.976 -0.0447  0.0310  0.1670
  235SOL    HW1  704   0.432   2.264   1.993  1.1826  0.5970 -1.0991
  235SOL    HW2  705   0.544   2.391   1.986 -0.7409  1.8185 -1.9239
  236SOL     OW  706   1.687   2.077   2.764  0.4053  0.1558  0.2795
  236SOL    HW1  707   1.705   2.003   2.834 -0.8603  2.1734  0.0488
  236SOL    HW2  708   1.705   2.173   2.806 -1.0144  1.4516  1.4647
  237SOL     OW  709   1.549   0.671   0.407 -0.2228  0.3256 -0.4595
  237SOL    HW1  710   1.635   0.678   0.465  0.5364  2.7760 -3.6342
  237SOL    HW2  711   1.468   0.714   0.448  1.0801 -2.8843  1.8249
  238SOL     OW  712   1.069   2.958   2.076  0.2937  0.6765 -0.0099
  238SOL    HW1  713   1.023   2.879   2.031 -0.3017  0.2617  0.6313
  238SOL    HW2  714   1.065   2.950   2.182  2.3308  0.5765  2.0914
  239SOL     OW  715   1.038   2.679   1.893 -0.1524  0.3264  0.8831
  239SOL    HW1  716   1.039   2.584   1.854  2.0004  1.0559  0.4686
  239SOL    HW2  717   1.061   2.749   1.821 -1.2810  0.5428  0.2109
  240SOL     OW  718   2.078   2.735   0.918 -0.3712 -0.1238 -0.3768
  240SOL    HW1  719   1.986   2.709   0.884 -1.0953 -0.9353  0.4228
  240SOL    HW2  720   2.079   2.724   1.020 -1.0005 -0.7896 -1.9713
  241SOL     OW  721   1.376   1.580   1.970 -0.4089  0.0643  0.0416
  241SOL    HW1  722   1.314   1.498   1.961  0.4639 -2.1492 -2.0867
  241SOL    HW2  723   1.367   1.627   2.062  2.0947  1.0493 -0.7376
  242SOL     OW  724   2.576   0.684   2.979  0.1235  0.1772  0.2271
  242SOL    HW1  725   2.652   0.751   3.010  2.1161  0.7993 -1.9323
  242SOL    HW2  726   2.494   0.736   2.945  0.3219 -0.0521  0.3013
  243SOL     OW  727   1.037   0.986   1.288 -0.6140  0.9125 -0.8976
  243SOL    HW1  728   1.115   0.980   1.217  1.2744  1.1978 -1.6976
  243SOL    HW2  729   1.057   0.928   1.370 -1.3668  0.4078  2.2495
  244SOL     OW  730   1.396   0.027   2.785 -0.0317  0.1155  0.3606
  244SOL    HW1  731   1.398   0.115   2.836  2.9251 -1.0161  1.8701
  244SOL    HW2  732   1.477   3.082   2.820 -1.7872  1.0016  0.5584
  245SOL     OW  733   2.122   0.128   3.048 -0.1322 -0.1531 -0.2524
  245SOL    HW1  734   2.053   0.064   3.085  1.4076  0.3361 -1.4742
  245SOL    HW2  735   2.219   0.090   3.052  2.7804  2.8552  1.0282
  246SOL     OW  736   1.041   0.864   1.553 -0.1178  0.1752  0.1645
  246SOL    HW1  737   1.117   0.804   1.523 -1.6018 -0.0640 -0.0401
  246SOL    HW2  738   0.959   0.808   1.535  1.6846  0.9487  0.5819
  247SOL     OW  739   0.359   0.204   1.912 -0.5168  0.0793 -0.2608
  247SOL    HW1  740   0.420   0.142   1.965 -0.8469 -0.7192 -1.1216
  247SOL    HW2  741   0.334   0.173   1.818  1.5665  2.8154  0.1795
  248SOL     OW  742   2.987   1.908   2.067 -0.1556  0.3868  0.0768
  248SOL    HW1  743   3.065   1.845   2.069 -1.0916 -0.6425 -1.1026
  248SOL    HW2  744   2.919   1.886   2.133  1.1518 -0.2630 -1.8759
  249SOL     OW  745   2.970   0.151   0.020 -0.0027 -0.0213  0.4681
  249SOL    HW1  746   3.072   0.159   0.034  2.2172  2.8490 -2.1546
  249SOL    HW2  747   2.938   0.061   0.054  1.0794  0.6228 -1.7591
  250SOL     OW  748   3.021   0.156   0.401  0.3034 -0.0190  0.3754
  250SOL    HW1  749   2.951   0.081   0.389  0.8787 -2.4627 -0.5568
  250SOL    HW2  750   0.009   0.124   0.403  1.9184 -1.7622 -0.7342
  251SOL     OW  751   0.688   1.538   1.427 -0.0145 -0.2499  0.0303
  251SOL    HW1  752   0.599   1.550   1.474 -1.2990  0.5351  0.3943
  251SOL    HW2  753   0.681   1.486   1.338  1.3267 -0.3156 -1.0365
  252SOL     OW  754   1.834   2.666   1.466  0.3504 -0.0782  0.0148
  252SOL    HW1  755   1.928   2.674   1.485 -4.5863 -1.8496 -1.8170
  252SOL    HW2  756   1.812   2.740   1.402  4.3712 -0.7199  1.5111
  253SOL     OW  757   2.365   1.842   2.488 -0.5546 -0.2642  0.3103
  253SOL    HW1  758   2.417   1.914   2.440  0.7739 -0.1102 -1.7025
  253SOL    HW2  759   2.396   1.757   2.443 -0.3266 -0.6356 -1.7495
  254SOL     OW  760   0.864   2.067   2.119  0.2357  0.4560  0.5836
  254SOL    HW1  761   0.854   1.981   2.064 -0.3540  0.5728  0.2952
  254SOL    HW2  762   0.796   2.068   2.190  1.2699  1.0177  0.3029
  255SOL     OW  763   1.131   0.331   1.436  0.2480  0.2848 -0.1661
  255SOL    HW1  764   1.233   0.324   1.421  1.0987  4.3379 -0.3055
  255SOL    HW2  765   1.088   0.237   1.457 -0.8157 -2.1978 -0.7981
  256SOL     OW  766   2.204   2.002   1.341 -0.4822  0.0438 -0.5160
  256SOL    HW1  767   2.105   1.995   1.369 -0.2713  0.7961 -0.8529
  256SOL    HW2  768   2.217   1.982   1.242 -0.9217 -0.5771  0.6685
  257SOL     OW  769   0.686   2.246   2.921  0.6427 -0.2206  0.1338
  257SOL    HW1  770   0.773   2.276   2.865  1.9677  0.5222 -1.8760
  257SOL    HW2  771   0.656   2.331   2.972  0.5527  1.7127  0.4419
  258SOL     OW  772   0.303   1.499   2.949  0.2719 -0.1889  0.0654
  258SOL    HW1  773   0.388   1.530   2.903 -2.7465 -0.9600  1.4254
  258SOL    HW2  774   0.315   1.434   3.028 -1.9383 -0.4482  1.0703
  259SOL     OW  775   0.853   1.396   2.551  0.1300  0.3633  0.2445
  259SOL    HW1  776   0.879   1.301   2.538 -0.9048  3.3490  0.8048
  259SOL    HW2  777   0.912   1.457   2.493 -1.8293  0.2491  1.6127
  260SOL     OW  778   1.942   1.026   1.178  0.4427  1.1047  0.2281
  260SOL    HW1  779   1.906   1.014   1.276 -0.9348 -1.0333  2.4768
  260SOL    HW2  780   1.936   1.122   1.150 -2.5368 -0.4675 -0.1624
  261SOL     OW  781   1.123   0.315   1.002  0.2831  0.6464  0.3507
  261SOL    HW1  782   1.069   0.402   1.029 -0.4796  0.0738  1.3094
  261SOL    HW2  783   1.204   0.300   1.057 -2.7275  0.3682 -5.1756
  262SOL     OW  784   1.985   2.023   2.707 -0.4981  0.1547  0.0063
  262SOL    HW1  785   2.068   2.070   2.681  1.4750 -1.3361  0.7070
  262SOL    HW2  786   1.907   2.044   2.646  1.4020 -1.6314 -1.2746
  263SOL     OW  787   2.919   1.614   0.076 -0.2585  0.3399  0.4402
  263SOL    HW1  788   2.924   1.511   0.063 -3.9486 -1.8263 -1.1536
  263SOL    HW2  789   3.009   1.661   0.095  0.6095 -2.1003 -1.5304
  264SOL     OW  790   0.351   1.848   1.031 -0.0122  0.1555  0.0347
  264SOL    HW1  791   0.452   1.832   1.044  2.7128  0.4117 -0.1766
  264SOL    HW2  792   0.316   1.836   0.933 -1.1990 -2.7976 -1.9598
  265SOL     OW  793   0.508   0.887   0.855 -0.1737  0.2729  0.6020
  265SOL    HW1  794   0.406   0.909   0.854 -3.3365  1.2681  1.1992
  265SOL    HW2  795   0.557   0.953   0.799 -0.3554  1.6132 -0.8007
  266SOL     OW  796   1.250   1.505   3.094 -0.9305  0.3700  0.5949
  266SOL    HW1  797   1.268   1.460   0.073  3.9404  1.7709 -0.6192
  266SOL    HW2  798   1.161   1.485   3.057  1.1086 -2.4957 -0.2362
  267SOL     OW  799   0.641   0.924   2.188 -0.2455 -1.0009  0.2910
  267SOL    HW1  800   0.667   0.879   2.103 -0.7611 -0.2310  0.9489
  267SOL    HW2  801   0.715   0.916   2.256 -1.2789 -0.1477  0.4758
  268SOL     OW  802   0.664   0.704   2.969  0.2022  0.2435  0.1709
  268SOL    HW1  803   0.747   0.765   2.970 -2.3649 -0.3602 -0.9314
  268SOL    HW2  804   0.617   0.714   3.058  2.2764  0.3344 -1.6887
  269SOL     OW  805   1.729   2.945   2.380  0.2145 -0.0090 -0.4724
  269SOL    HW1  806   1.806   3.009   2.407  2.5849 -1.3519  0.0139
  269SOL    HW2  807   1.696   2.888   2.463  0.7584 -1.2263  2.9106
  270SOL     OW  808   1.125   1.294   2.466  0.1763  0.5196  0.4296
  270SOL    HW1  809   1.226   1.275   2.481 -0.6895 -0.8486  0.2129
  270SOL    HW2  810   1.071   1.211   2.495  0.7574 -2.9937  0.2732
  271SOL     OW  811   0.131   0.205   0.021 -0.2200  0.4695 -0.1970
  271SOL    HW1  812   0.126   0.303   0.035  0.5025 -0.9058  0.5661
  271SOL    HW2  813   0.226   0.187   3.090  2.0002 -0.6449 -3.0822
  272SOL     OW  814   2.348   0.820   2.856  0.1483 -0.7514 -0.7020
  272SOL    HW1  815   2.331   0.922   2.853  0.1281  1.9722 -0.2645
  272SOL    HW2  816   2.384   0.780   2.768  1.8957 -1.6551 -0.0075
  273SOL     OW  817   0.211   0.071   2.158 -0.1985 -0.0240 -0.4039
  273SOL    HW1  818   0.152   0.092   2.078  2.4352 -0.3592 -2.6429
  273SOL    HW2  819   0.219   0.158   2.211 -0.0053 -3.7844 -0.9324
  274SOL     OW  820   3.078   0.493   1.899 -0.5767  0.1858  0.4452
  274SOL    HW1  821   0.072   0.469   1.907  2.4700  2.3015  1.8293
  274SOL    HW2  822   3.059   0.534   1.806 -3.2449 -1.0618 -2.7684
  275SOL     OW  823   1.419   1.710   0.549 -0.3063 -0.1345  0.0796
  275SOL    HW1  824   1.499   1.654   0.509  2.7089  0.7827 -0.5755
  275SOL    HW2  825   1.448   1.807   0.564  1.5717 -1.4653  0.0403
  276SOL     OW  826   0.625   1.323   2.305 -0.8278 -0.4219  0.3376
  276SOL    HW1  827   0.613   1.233   2.254  0.9385 -0.9400  1.3810
  276SOL    HW2  828   0.552   1.348   2.370 -0.5840  1.3156  0.5438
  277SOL     OW  829   2.031   2.793   2.451  0.8886  0.1944 -0.3087
  277SOL    HW1  830   2.012   2.767   2.353 -0.6062 -0.0114 -0.0942
  277SOL    HW2  831   1.971   2.874   2.472 -0.5467  2.3053  0.5338
  278SOL     OW  832   2.192   3.066   1.946  0.2442 -0.0140 -0.2211
  278SOL    HW1  833   2.093   3.061   1.927  2.7117 -1.4897 -0.3575
  278SOL    HW2  834   2.216   0.054   1.957  2.9311 -2.5044 -2.9128
  279SOL     OW  835   1.791   1.285   0.021  0.3376 -0.4259 -0.2146
  279SOL    HW1  836   1.706   1.316   0.082 -2.5406 -1.8944  3.9360
  279SOL    HW2  837   1.872   1.345   0.039 -1.6812  1.1105 -0.6039
  280SOL     OW  838   0.759   1.060   3.051  0.2063 -0.6263 -0.3947
  280SOL    HW1  839   0.774   1.144   2.999  0.2693  1.1705  0.1101
  280SOL    HW2  840   0.800   0.981   3.010 -0.3523  1.6428  1.9326
  281SOL     OW  841   3.032   0.080   1.343  0.9193 -0.4800 -0.2248
  281SOL    HW1  842   3.056   3.089   1.360 -0.5407  0.4729 -1.0331
  281SOL    HW2  843   0.006   0.137   1.354 -2.1543  0.1478  0.7973
  282SOL     OW  844   2.909   2.089   0.865 -0.1092 -0.1600 -0.0194
  282SOL    HW1  845   2.974   2.106   0.947 -0.3578 -1.2088  1.5893
  282SOL    HW2  846   2.946   2.125   0.778 -1.3922  1.3652  0.5642
  283SOL     OW  847   1.416   1.905   2.013 -0.5454 -0.3451 -0.1840
  283SOL    HW1  848   1.498   1.867   2.064  0.9809  1.5022  0.1466
  283SOL    HW2  849   1.404   2.006   2.039  1.2455  0.9468  2.4149
  284SOL     OW  850   1.977   3.053   0.262  0.3478 -0.2296 -0.6733
  284SOL    HW1  851   2.071   3.017   0.276 -2.0404 -0.4549 -1.0291
  284SOL    HW2  852   1.946   3.060   0.169  0.4313  1.8527  2.8004
  285SOL     OW  853   3.012   2.727   2.620  0.1658 -0.4013  0.0978
  285SOL    HW1  854   3.048   2.807   2.670  0.4647 -0.5031  0.4725
  285SOL    HW2  855   3.038   2.639   2.661 -0.3887  1.8877  0.9010
  286SOL     OW  856   2.181   2.542   1.358 -0.4109 -0.3007  0.2494
  286SOL    HW1  857   2.152   2.583   1.448  2.5561 -1.9370  3.0970
  286SOL    HW2  858   2.205   2.443   1.375 -0.3889 -0.0515  2.8026
  287SOL     OW  859   0.370   1.450   0.642 -0.0275 -0.0484  0.2382
  287SOL    HW1  860   0.356   1.386   0.720 -2.9283 -1.9030 -2.5947
  287SOL    HW2  861   0.441   1.526   0.653  1.1769  1.2853  1.8559
  288SOL     OW  862   2.071   1.786   2.772  0.3534  0.1784  0.2704
  288SOL    HW1  863   2.029   1.715   2.713 -3.5329  0.5214  0.4994
  288SOL    HW2  864   2.029   1.880   2.750 -0.7708  4.0842 -2.1576
  289SOL     OW  865   0.413   1.644   2.541  0.4451  0.0779 -0.0757
  289SOL    HW1  866   0.478   1.701   2.487 -1.4586 -0.8740 -2.0540
  289SOL    HW2  867   0.450   1.631   2.636 -0.4826 -0.0709  0.9150
  290SOL     OW  868   1.221   2.183   1.198  0.3365 -0.3519  0.1565
  290SOL    HW1  869   1.319   2.200   1.174  0.7145  0.1130  1.0967
  290SOL    HW2  870   1.179   2.109   1.141  1.0610 -1.0904  0.7918
  291SOL     OW  871   1.739   1.271   2.855 -0.4804  0.3391  0.6719
  291SOL    HW1  872   1.809   1.195   2.854 -0.0680  0.4902  2.8745
  291SOL    HW2  873   1.736   1.310   2.951 -1.4773 -1.3702  1.5856
  292SOL     OW  874   0.731   1.521   0.620 -0.1745  0.1013 -0.1499
  292SOL    HW1  875   0.713   1.465   0.539  1.2567  1.2388  0.6271
  292SOL    HW2  876   0.778   1.465   0.695  1.4880  0.4491 -0.6348
  293SOL     OW  877   1.568   2.897   1.125 -0.0677 -0.6668  0.2191
  293SOL    HW1  878   1.475   2.884   1.159  0.5477 -0.9492  0.2688
  293SOL    HW2  879   1.573   2.940   1.031  1.9426 -1.8739  1.3395
  294SOL     OW  880   2.692   1.038   2.893 -0.2852 -0.3879  0.5891
  294SOL    HW1  881   2.627   1.034   2.811  1.0801  0.1113 -0.5074
  294SOL    HW2  882   2.790   1.037   2.854  0.9847  1.4754  1.2329
  295SOL     OW  883   1.586   2.144   2.525  0.9945 -0.0219  1.0401
  295SOL    HW1  884   1.607   2.119   2.622  0.0845 -1.3578 -0.4290
  295SOL    HW2  885   1.641   2.224   2.492 -0.2046  0.2477 -1.6810
  296SOL     OW  886   1.795   0.780   2.053  0.0944  0.1225 -0.0261
  296SOL    HW1  887   1.753   0.871   2.068  0.9326 -2.4445 -1.3449
  296SOL    HW2  888   1.865   0.756   2.123  0.8283 -3.4588 -0.9480
  297SOL     OW  889   3.069   0.719   2.112  0.1309 -0.3843  0.4182
  297SOL    HW1  890   2.982   0.698   2.057 -1.5992  1.5135  0.6939
  297SOL    HW2  891   0.005   0.801   2.071 -0.5389  0.3911 -0.1019
  298SOL     OW  892   1.339   2.159   2.077  0.6967 -0.1033  0.5707
  298SOL    HW1  893   1.315   2.227   2.002  0.2285  1.2340  2.6948
  298SOL    HW2  894   1.291   2.165   2.169  1.7923 -0.9105 -0.9590
  299SOL     OW  895   0.827   2.739   2.540  0.3229  0.5148 -0.1922
  299SOL    HW1  896   0.847   2.723   2.641 -2.5226  0.5290  1.4335
  299SOL    HW2  897   0.888   2.807   2.503 -0.8824 -1.5468  1.1685
  300SOL     OW  898   2.964   0.955   2.850 -0.0903 -0.2183  0.2316
  300SOL    HW1  899   3.002   0.900   2.925  2.7307 -1.0173 -0.9930
  300SOL    HW2  900   2.968   0.905   2.760 -0.5622 -1.1226  0.4792
  301SOL     OW  901   1.877   0.976   1.432 -0.0399  0.2096  0.2503
  301SOL    HW1  902   1.909   0.905   1.498  3.1084 -1.0029 -0.6593
  301SOL    HW2  903   1.863   1.064   1.479  0.0357 -1.7669 -0.3001
  302SOL     OW  904   2.741   1.843   2.486  0.4562 -0.0726  0.2853
  302SOL    HW1  905   2.725   1.771   2.555  1.1155  0.8810  0.5286
  302SOL    HW2  906   2.677   1.920   2.489 -0.2730 -0.8700  0.0115
  303SOL     OW  907   0.304   2.844   2.339  0.1416 -0.3624  0.2105
  303SOL    HW1  908   0.386   2.853   2.404 -1.7657  2.9417 -0.7816
  303SOL    HW2  909   0.224   2.907   2.366  1.2732  0.2119 -0.2135
  304SOL     OW  910   0.106   1.104   1.567  0.1268 -0.6702  0.4575
  304SOL    HW1  911   0.072   1.203   1.574 -0.0548 -0.3412 -0.7214
  304SOL    HW2  912   0.104   1.057   1.658 -0.3779 -0.4779  2.7739
  305SOL     OW  913   2.963   0.313   1.635 -0.5856  0.1223  0.1436
  305SOL    HW1  914   2.894   0.379   1.607  0.0155  1.0505  1.5044
  305SOL    HW2  915   2.915   0.233   1.675 -2.5600 -0.4194  0.4793
  306SOL     OW  916   2.397   1.369   1.273  0.4455 -0.3615 -0.0136
  306SOL    HW1  917   2.391   1.322   1.366  2.6780 -0.6070  2.7560
  306SOL    HW2  918   2.385   1.466   1.292 -0.4977 -0.0118 -0.9307
  307SOL     OW  919   2.374   2.969   0.965  0.4180  0.5693  0.5160
  307SOL    HW1  920   2.317   2.977   1.047 -0.7058  3.2315 -0.7700
  307SOL    HW2  921   2.434   3.054   0.966 -0.6061  1.7225 -0.0431
  308SOL     OW  922   2.636   2.084   1.232  0.0689  0.3755  0.7487
  308SOL    HW1  923   2.659   2.103   1.133  2.2427  0.8296  0.5152
  308SOL    HW2  924   2.721   2.045   1.275  0.5124 -1.2793 -0.2197
  309SOL     OW  925   2.115   1.890   1.838 -0.3140 -0.2291 -0.2031
  309SOL    HW1  926   2.074   1.801   1.804  0.8269 -1.1106  1.6992
  309SOL    HW2  927   2.077   1.908   1.934  0.5846 -1.7487  1.8366
  310SOL     OW  928   2.475   1.494   2.775  0.4338 -0.3407  0.0866
  310SOL    HW1  929   2.494   1.450   2.863 -1.2040  0.6254 -0.9846
  310SOL    HW2  930   2.451   1.592   2.793  3.4554  1.3728 -1.7150
  311SOL     OW  931   1.944   1.083   2.834  0.3366 -0.4424 -0.3049
  311SOL    HW1  932   1.939   1.076   2.734  0.4318 -3.2771 -0.2396
  311SOL    HW2  933   1.991   0.995   2.869  0.1046 -1.4232  0.5478
  312SOL     OW  934   1.570   2.272   2.163 -0.2967  0.3072 -0.0698
  312SOL    HW1  935   1.534   2.355   2.206  1.7135  0.6662 -0.8438
  312SOL    HW2  936   1.490   2.218   2.135  1.3015  2.8710  1.6626
  313SOL     OW  937   0.291   3.013   1.143 -0.3310 -0.1400  0.4052
  313SOL    HW1  938   0.233   3.009   1.058  2.4171 -1.6867 -0.1856
  313SOL    HW2  939   0.302   2.921   1.188 -1.4481 -1.6289  1.9897
  314SOL     OW  940   0.593   1.710   1.181  0.1283 -0.0641 -0.3153
  314SOL    HW1  941   0.541   1.687   1.263  0.6914  0.0952 -2.7929
  314SOL    HW2  942   0.573   1.647   1.106 -0.0813  0.7292 -0.7393
  315SOL     OW  943   0.867   2.701   2.133  0.1249 -0.5593 -0.0401
  315SOL    HW1  944   0.874   2.668   2.037  0.3453  1.5981 -2.0739
  315SOL    HW2  945   0.772   2.726   2.156  0.9660 -0.0854 -1.4360
  316SOL     OW  946   3.085   2.120   1.081 -0.0564 -0.1357 -0.4060
  316SOL    HW1  947   3.038   2.108   1.173 -3.5528 -1.4817  3.0605
  316SOL    HW2  948   0.074   2.113   1.085 -1.0344  1.9229  1.0319
  317SOL     OW  949   1.983   0.673   0.288 -0.1916  0.4155  0.1976
  317SOL    HW1  950   1.910   0.694   0.349  1.1436 -1.2886  0.8282
  317SOL    HW2  951   2.061   0.629   0.336  0.6190  0.4100  1.3127
  318SOL     OW  952   2.880   2.642   3.066 -0.0279 -0.2959 -0.6318
  318SOL    HW1  953   2.850   2.624   0.054 -1.8280 -0.5485  1.1552
  318SOL    HW2  954   2.933   2.560   3.047 -2.3039 -1.5525  1.2863
  319SOL     OW  955   1.483   1.732   0.119 -1.3411 -0.2045  0.6874
  319SOL    HW1  956   1.402   1.759   0.177 -2.6196  2.0500  0.3256
  319SOL    HW2  957   1.465   1.753   0.022  1.6608 -1.1465 -0.1593
  320SOL     OW  958   0.818   2.297   2.519  0.6957  0.1262  0.4126
  320SOL    HW1  959   0.729   2.325   2.492  1.8004 -1.3782  1.0810
  320SOL    HW2  960   0.839   2.325   2.614 -1.6818 -2.6736 -2.0937
  321SOL     OW  961   1.019   2.480   0.128 -0.0817  0.2783 -0.2860
  321SOL    HW1  962   1.070   2.397   0.149  0.8524  0.5382  1.1443
  321SOL    HW2  963   1.061   2.560   0.176 -0.9031  1.5529 -0.3218
  322SOL     OW  964   2.286   0.402   2.222  0.0795 -0.7419  0.3153
  322SOL    HW1  965   2.331   0.318   2.245 -0.0062  4.1036 -3.1341
  322SOL    HW2  966   2.326   0.480   2.273 -0.4705  0.9619 -2.1948
  323SOL     OW  967   2.773   0.994   0.762 -0.0303  0.4003 -0.6804
  323SOL    HW1  968   2.870   0.976   0.774 -1.6148 -2.5003  1.1513
  323SOL    HW2  969   2.759   1.060   0.684  0.7655  0.6054 -1.3151
  324SOL     OW  970   0.401   0.457   2.189  0.3758 -0.0850 -0.1751
  324SOL    HW1  971   0.326   0.526   2.201 -2.0766  2.2765  3.1303
  324SOL    HW2  972   0.471   0.490   2.124 -2.1484  0.5803 -2.0025
  325SOL     OW  973   0.718   3.014   2.341 -0.2884 -0.9546  0.0907
  325SOL    HW1  974   0.762   3.099   2.311 -1.8635 -1.0763 -1.1935
  325SOL    HW2  975   0.703   3.024   2.445 -0.5773  2.8034  1.1885
  326SOL     OW  976   2.636   2.293   0.695 -0.2716 -0.3262  0.3965
  326SOL    HW1  977   2.585   2.270   0.780  0.5838 -2.6212 -1.2054
  326SOL    HW2  978   2.730   2.326   0.712 -1.1655  1.5714  2.7144
  327SOL     OW  979   1.966   1.071   0.369  0.3616  0.2729 -0.3699
  327SOL    HW1  980   1.943   1.085   0.468 -0.6514 -0.4671  1.3843
  327SOL    HW2  981   1.892   1.048   0.299 -1.4983  0.3555 -1.2652
  328SOL     OW  982   0.397   1.946   2.250  0.5429 -0.3097 -0.5833
  328SOL    HW1  983   0.427   1.854   2.270  0.1156  1.8969  0.4638
  328SOL    HW2  984   0.301   1.958   2.294 -0.9106 -0.6402  0.5438
  329SOL     OW  985   2.826   2.440   1.700  0.6079  0.6171  0.2340
  329SOL    HW1  986   2.797   2.345   1.715 -1.7883  0.6337  0.4289
  329SOL    HW2  987   2.878   2.472   1.781 -0.9046  0.0821 -0.2499
  330SOL     OW  988   2.321   1.348   1.798  0.5029 -0.6861  0.2230
  330SOL    HW1  989   2.223   1.343   1.819  2.9467 -1.8628  0.2302
  330SOL    HW2  990   2.371   1.287   1.858 -2.0974 -0.1642 -1.8510
  331SOL     OW  991   2.667   2.155   0.970  0.3434 -0.2237 -0.4093
  331SOL    HW1  992   2.762   2.131   0.927  0.4556  2.6806 -0.5917
  331SOL    HW2  993   2.596   2.083   0.951 -0.0928 -0.2414  1.0680
  332SOL     OW  994   0.535   2.580   0.532 -0.1353  0.7218  0.2141
  332SOL    HW1  995   0.573   2.657   0.583  0.6812  0.6191 -2.5262
  332SOL    HW2  996   0.474   2.602   0.452 -1.3830 -1.9084 -1.8285
  333SOL     OW  997   2.324   0.146   2.323 -0.4407 -0.8204 -0.0004
  333SOL    HW1  998   2.343   0.113   2.419  0.7280  2.7451  0.3867
  333SOL    HW2  999   2.271   0.072   2.269  1.1182 -0.9538  1.3741
  334SOL     OW 1000   0.836   0.768   0.415  0.2292  0.3740 -0.3932
  334SOL    HW1 1001   0.878   0.856   0.438 -0.5984 -0.2440 -2.2161
  334SOL    HW2 1002   0.731   0.768   0.420 -0.9579  1.5256 -2.2360
  335SOL     OW 1003   0.538   2.444   2.305  0.4793 -0.4836  0.1784
  335SOL    HW1 1004   0.592   2.394   2.230 -0.6520  0.5736  1.6040
  335SOL    HW2 1005   0.459   2.493   2.263 -1.2289 -0.6295  0.0937
  336SOL     OW 1006   2.804   0.051   2.468 -0.4748 -0.5236  0.0195
  336SOL    HW1 1007   2.804   0.143   2.424 -0.6507 -0.1354  0.8678
  336SOL    HW2 1008   2.745   3.100   2.413 -0.0112 -0.7030  0.2260
  337SOL     OW 1009   1.190   1.672   0.863 -0.0249 -0.5875 -0.3799
  337SOL    HW1 1010   1.239   1.707   0.948  0.4523 -2.2441  1.5169
  337SOL    HW2 1011   1.235   1.589   0.830 -2.0796  0.9171  0.4086
  338SOL     OW 1012   0.872   1.951   0.907  0.5783  0.4086 -0.6885
  338SOL    HW1 1013   0.881   1.847   0.898  2.0514 -2.0645  0.0513
  338SOL    HW2 1014   0.797   1.982   0.972 -2.3012 -0.8094  1.1392
  339SOL     OW 1015   0.054   1.382   1.631  0.1419 -0.1108 -0.4204
  339SOL    HW1 1016   3.099   1.451   1.584 -2.6516  0.8634  0.3769
  339SOL    HW2 1017   0.009   1.357   1.718 -1.3306  0.1993 -0.1025
  340SOL     OW 1018   1.550   2.964   2.148  0.4307  0.2983 -0.1925
  340SOL    HW1 1019   1.607   2.961   2.233 -1.3502  0.1509 -2.8621
  340SOL    HW2 1020   1.586   3.044   2.093  0.2754  0.5136  1.2907
  341SOL     OW 1021   1.667   1.483   0.919  0.0179  0.0153 -0.2490
  341SOL    HW1 1022   1.595   1.410   0.934  0.6542 -1.7533 -1.3158
  341SOL    HW2 1023   1.693   1.511   1.016  0.2360 -0.2549  3.8217
  342SOL     OW 1024   2.986   1.378   0.941 -0.1751  0.1674 -0.0442
  342SOL    HW1 1025   2.958   1.364   0.844  2.6100  0.2624 -0.7037
  342SOL    HW2 1026   2.906   1.345   0.997 -1.3307 -2.2328 -1.1941
  343SOL     OW 1027   2.828   0.858   1.443 -0.3005  0.4070  0.1821
  343SOL    HW1 1028   2.866   0.919   1.518  1.2969 -0.6174 -0.1225
  343SOL    HW2 1029   2.742   0.893   1.403  0.1181 -1.5139  1.8917
  344SOL     OW 1030   1.916   0.506   0.917  0.3949  0.4661  0.3451
  344SOL    HW1 1031   1.825   0.532   0.878 -0.5272 -1.3817 -1.3769
  344SOL    HW2 1032   1.944   0.571   0.989  0.5434 -0.4325 -1.4541
  345SOL     OW 1033   0.496   2.831   2.525 -0.3121 -0.0311 -0.0042
  345SOL    HW1 1034   0.507   2.732   2.548  0.3560 -0.5476  1.0317
  345SOL    HW2 1035   0.583   2.886   2.528  2.7306  2.2857 -0.0693
  346SOL     OW 1036   2.219   1.396   0.072  0.3920  0.5090  0.5867
  346SOL    HW1 1037   2.178   1.344   3.101 -0.0350 -0.2094 -1.9733
  346SOL    HW2 1038   2.175   1.371   0.163  1.0395 -0.1276  1.4503
  347SOL     OW 1039   1.913   2.923   1.899 -0.1402 -0.2974 -0.5491
  347SOL    HW1 1040   1.919   3.005   1.836  0.7262 -1.0284  0.5071
  347SOL    HW2 1041   1.896   2.839   1.836  3.0999  0.5412 -1.0678
  348SOL     OW 1042   0.943   1.210   1.377 -0.4683 -0.2278  0.7627
  348SOL    HW1 1043   0.851   1.194   1.416  1.6573 -0.2925 -1.1222
  348SOL    HW2 1044   0.983   1.120   1.349  2.5120 -3.7225  1.4910
  349SOL     OW 1045   2.683   0.811   1.711  0.4325 -0.2119  0.0319
  349SOL    HW1 1046   2.739   0.865   1.781 -1.3838 -1.2211 -0.8604
  349SOL    HW2 1047   2.618   0.869   1.659  1.0872 -1.7761 -1.1353
  350SOL     OW 1048   2.409   2.214   0.122  0.1128 -0.6898  0.1927
  350SOL    HW1 1049   2.343   2.139   0.094 -1.4996 -0.5152  0.5754
  350SOL    HW2 1050   2.365   2.275   0.194 -1.1944 -2.2074  1.5787
  351SOL     OW 1051   0.462   3.010   1.690  0.1517  0.0845  0.3014
  351SOL    HW1 1052   0.546   3.034   1.741  0.4263 -2.0677 -2.2079
  351SOL    HW2 1053   0.399   3.089   1.671  0.2473  2.1563 -1.9147
  352SOL     OW 1054   1.939   2.388   2.086  0.2114 -0.2574  0.6689
  352SOL    HW1 1055   2.042   2.384   2.089 -1.3375 -1.8843 -0.4023
  352SOL    HW2 1056   1.888   2.297   2.096 -0.0997 -3.5673  0.9798
  353SOL     OW 1057   0.837   1.467   2.216  0.1823  0.2083 -0.2680
  353SOL    HW1 1058   0.761   1.424   2.266 -0.6635  0.6856  0.2737
  353SOL    HW2 1059   0.862   1.556   2.259 -0.6336  1.2242 -1.2122
  354SOL     OW 1060   1.215   1.838   0.145 -0.2622 -0.2299 -0.2110
  354SOL    HW1 1061   1.186   1.737   0.148  1.3642 -2.0322 -1.4900
  354SOL    HW2 1062   1.141   1.900   0.179 -0.5250 -1.1179 -0.2379
  355SOL     OW 1063   1.974   0.047   0.939  0.1610 -0.3738 -0.8148
  355SOL    HW1 1064   2.023   3.107   0.861  0.3562  0.7525  0.5124
  355SOL    HW2 1065   2.028   0.048   1.029  0.0557  1.8100  1.8785
  356SOL     OW 1066   2.699   1.222   3.089 -0.1963 -0.5840  0.8672
  356SOL    HW1 1067   2.695   1.141   3.032  1.7976  0.2233  0.4686
  356SOL    HW2 1068   2.616   1.278   3.075  3.7409 -0.5548 -1.2541
  357SOL     OW 1069   2.941   3.108   2.138  0.2310  0.0377 -0.5778
  357SOL    HW1 1070   2.934   0.088   2.089 -2.6898 -0.3246 -0.6049
  357SOL    HW2 1071   2.869   3.045   2.109  0.1684  0.4237 -0.7918
  358SOL     OW 1072   0.285   1.318   0.413  0.1199 -0.3322 -0.3238
  358SOL    HW1 1073   0.193   1.270   0.402  0.8450 -1.6213 -0.2294
  358SOL    HW2 1074   0.310   1.347   0.507 -0.9960 -0.6372 -1.6208
  359SOL     OW 1075   2.672   0.186   2.849 -0.1896 -0.1436  0.4620
  359SOL    HW1 1076   2.663   0.185   2.747  1.5307 -2.4913  1.2156
  359SOL    HW2 1077   2.579   0.162   2.890 -1.3464 -1.7744 -0.1698
  360SOL     OW 1078   1.349   0.919   1.332  0.7003  0.2775  0.2018
  360SOL    HW1 1079   1.449   0.897   1.319  1.5955  0.2906 -0.5578
  360SOL    HW2 1080   1.301   0.935   1.241  0.1610  1.1826 -1.7693
  361SOL     OW 1081   2.432   2.390   1.066 -0.0193  0.0239  0.4715
  361SOL    HW1 1082   2.429   2.391   1.168 -0.6621  2.2960  1.3925
  361SOL    HW2 1083   2.436   2.485   1.027  0.8294  1.0614 -0.2534
  362SOL     OW 1084   1.344   0.290   1.151  0.2166  0.3686  0.5118
  362SOL    HW1 1085   1.384   0.215   1.210  0.3166  0.4498  1.1393
  362SOL    HW2 1086   1.424   0.328   1.101  2.7302  1.5626 -0.0574
  363SOL     OW 1087   2.065   2.126   0.329  0.5307 -0.0595  0.1972
  363SOL    HW1 1088   2.139   2.106   0.398 -1.1526 -1.7895  0.7767
  363SOL    HW2 1089   2.027   2.219   0.347  1.4794  2.0857  1.8882
  364SOL     OW 1090   0.194   0.697   0.873 -0.0293  0.0563  0.2831
  364SOL    HW1 1091   0.231   0.617   0.923 -1.4455  0.3760 -3.0554
  364SOL    HW2 1092   0.147   0.757   0.937  0.3652 -1.7132 -0.6578
  365SOL     OW 1093   0.354   2.917   0.816  0.4239 -0.0235 -0.4384
  365SOL    HW1 1094   0.276   2.945   0.877 -0.3802 -2.4244 -2.3536
  365SOL    HW2 1095   0.423   2.989   0.809  0.5062 -0.8265 -0.3396
  366SOL     OW 1096   2.933   1.342   0.058 -0.4213  0.0893  0.6810
  366SOL    HW1 1097   3.016   1.331   3.103  2.0950  3.0234 -0.6712
  366SOL    HW2 1098   2.850   1.298   0.024  4.3267 -0.1783  4.1364
  367SOL     OW 1099   2.499   2.549   2.449 -0.2631  0.2284  0.0493
  367SOL    HW1 1100   2.422   2.605   2.491 -3.4919  0.3826  2.0327
  367SOL    HW2 1101   2.552   2.607   2.385  0.1374 -0.3276  2.6561
  368SOL     OW 1102   2.254   1.654   0.726  0.2001  0.7404 -0.5914
  368SOL    HW1 1103   2.293   1.727   0.665 -0.3820  2.2935  2.3061
  368SOL    HW2 1104   2.312   1.571   0.725  0.7089  0.0615 -0.5868
  369SOL     OW 1105   1.527   0.899   0.027 -0.3226  0.3719 -0.1840
  369SOL    HW1 1106   1.424   0.880   0.031 -1.5210  0.2766  0.7467
  369SOL    HW2 1107   1.575   0.828   0.083  1.7508 -2.3302  2.1338
  370SOL     OW 1108   0.551   3.084   1.097 -0.0478 -0.0111  0.2457
  370SOL    HW1 1109   0.582   0.051   1.154 -2.1717  1.5718 -0.9256
  370SOL    HW2 1110   0.450   3.074   1.094  1.4708 -2.2855 -1.1967
  371SOL     OW 1111   2.895   1.331   2.732  0.1294 -0.1690  0.3460
  371SOL    HW1 1112   2.915   1.426   2.770 -3.3836  1.2445  0.3662
  371SOL    HW2 1113   2.946   1.269   2.788 -4.0641  1.6502  0.3663
  372SOL     OW 1114   0.580   0.657   2.356 -0.4940 -0.7026  0.9742
  372SOL    HW1 1115   0.494   0.603   2.365 -1.1090 -0.2847 -0.0254
  372SOL    HW2 1116   0.598   0.682   2.259 -0.4591  0.3025 -1.1236
  373SOL     OW 1117   0.631   0.373   0.122  0.3245  0.3279  0.6852
  373SOL    HW1 1118   0.634   0.391   0.018  1.6256  0.3649  0.8683
  373SOL    HW2 1119   0.675   0.284   0.154  2.0879  0.7711 -1.1748
  374SOL     OW 1120   1.124   1.848   2.965 -0.2232 -0.1391 -0.2819
  374SOL    HW1 1121   1.101   1.868   2.869  1.6237 -3.2764 -0.2637
  374SOL    HW2 1122   1.136   1.931   3.021  0.4290 -1.1329 -2.6343
  375SOL     OW 1123   0.867   0.245   1.856 -0.0417  0.0706 -0.0297
  375SOL    HW1 1124   0.910   0.302   1.786 -1.0138  2.3928 -1.5800
  375SOL    HW2 1125   0.891   0.280   1.953  1.5577 -1.0398  0.0056
  376SOL     OW 1126   0.158   2.854   1.975  0.7886  0.4083 -0.3513
  376SOL    HW1 1127   0.154   2.813   2.069  2.0258  2.0800  0.6159
  376SOL    HW2 1128   0.185   2.957   1.973 -0.8205  2.3690  0.7569
  377SOL     OW 1129   2.612   2.317   2.789  0.6290  0.4444 -0.0878
  377SOL    HW1 1130   2.594   2.408   2.836  1.1627 -1.8557  2.2601
  377SOL    HW2 1131   2.577   2.243   2.852  1.3187 -0.9460  0.8766
  378SOL     OW 1132   2.068   0.221   0.362 -0.2888 -0.2070 -0.3666
  378SOL    HW1 1133   2.050   0.122   0.343  0.2467  0.1501 -4.1569
  378SOL    HW2 1134   2.169   0.236   0.356  0.2054 -1.1018 -1.8448
  379SOL     OW 1135   1.349   0.814   0.522  0.3551  0.3798  0.2478
  379SOL    HW1 1136   1.252   0.811   0.485 -1.1359 -0.9997  2.8195
  379SOL    HW2 1137   1.396   0.902   0.514 -0.4713 -1.8250 -0.4294
  380SOL     OW 1138   2.577   2.172   1.661  0.4380 -0.4403 -0.0900
  380SOL    HW1 1139   2.679   2.174   1.659 -0.4373 -0.7976 -1.0983
  380SOL    HW2 1140   2.541   2.095   1.600 -1.9633 -2.1743 -2.0604
  381SOL     OW 1141   2.544   1.256   1.947  0.6246  0.5880 -0.2342
  381SOL    HW1 1142   2.553   1.350   1.976  1.7190 -3.4410 -2.1230
  381SOL    HW2 1143   2.605   1.202   2.005 -1.2662 -1.3890 -1.3367
  382SOL     OW 1144   2.851   2.295   2.655 -0.0611  0.1982 -0.4903
  382SOL    HW1 1145   2.758   2.294   2.692  1.2476  1.5061 -0.9510
  382SOL    HW2 1146   2.861   2.240   2.574 -0.9338 -0.1366  0.5154
  383SOL     OW 1147   1.242   0.970   2.637  0.7294  0.5843 -0.4367
  383SOL    HW1 1148   1.324   0.938   2.687  1.0350 -0.9576  0.3776
  383SOL    HW2 1149   1.232   0.918   2.547 -0.5113  0.8859 -3.3657
  384SOL     OW 1150   1.748   1.981   2.397  0.5754 -0.3160 -0.1863
  384SOL    HW1 1151   1.686   2.048   2.443  0.5025  0.0504  1.3346
  384SOL    HW2 1152   1.842   2.018   2.377 -3.9552 -1.5375 -1.7767
  385SOL     OW 1153   2.807   2.614   0.243  0.5427 -0.2823 -0.1171
  385SOL    HW1 1154   2.720   2.563   0.234  1.5946 -0.2005  0.1958
  385SOL    HW2 1155   2.783   2.693   0.307  0.0444  0.6163 -0.1444
  386SOL     OW 1156   1.900   1.110   0.661  0.3463  0.1539 -0.2074
  386SOL    HW1 1157   1.878   1.035   0.730 -3.4899  1.7476  0.4320
  386SOL    HW2 1158   1.861   1.198   0.701  1.2377  3.4182 -0.9689
  387SOL     OW 1159   2.717   1.660   1.239  0.1355  0.1753 -0.6835
  387SOL    HW1 1160   2.698   1.643   1.338 -1.6309 -0.4209  0.4703
  387SOL    HW2 1161   2.819   1.645   1.220  1.5357 -0.5052 -0.1681
  388SOL     OW 1162   0.655   1.091   1.786 -0.5296 -0.2949 -0.4723
  388SOL    HW1 1163   0.587   1.169   1.770  1.2563  0.9041 -3.0267
  388SOL    HW2 1164   0.738   1.132   1.739  2.1026  1.0859 -0.8868
  389SOL     OW 1165   2.234   0.893   2.571 -0.7007  0.0348 -0.4122
  389SOL    HW1 1166   2.194   0.909   2.478  2.1915 -0.8283  2.8235
  389SOL    HW2 1167   2.185   0.956   2.642 -1.1934  2.4266  0.5692
  390SOL     OW 1168   0.920   1.447   3.066 -0.1842  0.0257  0.1470
  390SOL    HW1 1169   0.963   1.501   2.990  2.6459 -0.3347 -1.5054
  390SOL    HW2 1170   0.850   1.388   3.023  2.6276  0.0145 -0.1588
  391SOL     OW 1171   0.971   2.029   0.186 -0.1052  0.1318  0.1615
  391SOL    HW1 1172   0.913   2.055   0.105 -3.1096  2.5645 -2.0323
  391SOL    HW2 1173   0.939   1.946   0.232 -0.8032 -1.8336 -1.5883
  392SOL     OW 1174   2.777   2.713   2.239  0.1142 -0.2009 -0.2226
  392SOL    HW1 1175   2.869   2.714   2.290  1.5590 -1.8138  1.0776
  392SOL    HW2 1176   2.765   2.618   2.195 -0.1218 -0.0951 -1.1179
  393SOL     OW 1177   1.646   2.222   0.232  0.1846 -0.1445  0.2782
  393SOL    HW1 1178   1.631   2.322   0.218 -0.7145  0.6191 -2.9054
  393SOL    HW2 1179   1.559   2.165   0.211 -2.4810 -0.5624 -2.4659
  394SOL     OW 1180   0.814   0.147   2.280  0.0432  0.0967 -0.6483
  394SOL    HW1 1181   0.861   0.204   2.359  2.4080  0.5126  2.0356
  394SOL    HW2 1182   0.865   0.157   2.198 -0.9492 -0.3617  0.9955
  395SOL     OW 1183   0.287   1.924   1.530 -0.2477 -0.1217 -0.0576
  395SOL    HW1 1184   0.320   1.930   1.624  3.9395  0.1732 -3.2786
  395SOL    HW2 1185   0.238   2.007   1.495 -2.8959 -0.0568 -1.4579
  396SOL     OW 1186   2.128   1.273   2.939  0.1725  0.3802 -0.1156
  396SOL    HW1 1187   2.052   1.215   2.897 -0.6183 -0.1625  0.8262
  396SOL    HW2 1188   2.106   1.368   2.904 -0.1860  0.2066  1.2556
  397SOL     OW 1189   0.171   0.501   0.357  0.9145  0.0483  0.1632
  397SOL    HW1 1190   0.258   0.452   0.325 -0.4875 -2.7387  0.1381
  397SOL    HW2 1191   0.161   0.603   0.352 -3.0248  3.5165  0.3410
  398SOL     OW 1192   1.012   2.636   0.466  0.2473 -0.0130 -0.2731
  398SOL    HW1 1193   1.111   2.656   0.455  1.3755 -0.1450 -0.1282
  398SOL    HW2 1194   0.958   2.711   0.421  1.3007 -2.4358 -0.7698
  399SOL     OW 1195   1.970   2.456   2.808 -0.4344 -0.2591 -0.2405
  399SOL    HW1 1196   1.918   2.525   2.861  1.7437 -1.5202  0.5857
  399SOL    HW2 1197   1.978   2.486   2.711 -1.3256  0.2203 -0.3822
  400SOL     OW 1198   2.992   1.590   1.553 -0.4489 -0.4017  0.2068
  400SOL    HW1 1199   2.964   1.628   1.643  2.4029 -1.3423  1.6341
  400SOL    HW2 1200   3.063   1.646   1.506 -1.7373 -4.0425 -1.5881
  401SOL     OW 1201   0.986   0.689   0.873  0.2111 -0.1085 -0.2492
  401SOL    HW1 1202   1.000   0.668   0.773  0.1792 -1.2196 -1.5197
  401SOL    HW2 1203   0.902   0.751   0.882 -0.5070  3.2131 -0.2779
  402SOL     OW 1204   0.722   3.027   2.600 -0.4603 -0.0381  0.2429
  402SOL    HW1 1205   0.748   2.960   2.669 -0.7126  1.1764 -0.8953
  402SOL    HW2 1206   0.739   0.012   2.632 -0.0305  0.3122  3.9575
  403SOL     OW 1207   2.831   1.536   1.819 -0.1483  0.0864  0.3790
  403SOL    HW1 1208   2.730   1.524   1.824 -1.1584 -0.7380 -1.2922
  403SOL    HW2 1209   2.862   1.629   1.850 -0.7055  0.1611 -1.6696
  404SOL     OW 1210   2.522   1.995   1.462 -0.5143 -0.1858  0.8340
  404SOL    HW1 1211   2.424   1.983   1.447 -0.6592  0.3634 -0.0989
  404SOL    HW2 1212   2.564   2.038   1.373 -2.8274  2.0013 -3.6370
  405SOL     OW 1213   2.254   0.324   2.708  0.5820  0.0327  0.1658
  405SOL    HW1 1214   2.186   0.258   2.670 -0.2378  2.3048  0.9057
  405SOL    HW2 1215   2.207   0.413   2.725  1.6276  2.2901  1.9000
  406SOL     OW 1216   1.032   1.610   2.879  0.1394 -0.1625 -0.3913
  406SOL    HW1 1217   1.070   1.687   2.929 -2.7949 -1.9518  0.8297
  406SOL    HW2 1218   1.094   1.592   2.800  2.3693  1.4564 -1.2386
  407SOL     OW 1219   1.904   1.780   0.779  0.3321  0.4312 -0.2105
  407SOL    HW1 1220   1.889   1.713   0.702 -0.8412  1.5187 -1.9146
  407SOL    HW2 1221   1.866   1.869   0.750 -3.8552 -0.7714  0.0262
  408SOL     OW 1222   3.061   0.299   0.853 -0.0746  0.2627 -0.2263
  408SOL    HW1 1223   2.998   0.323   0.926  0.1164  3.3501  3.2188
  408SOL    HW2 1224   3.068   0.199   0.859 -3.0649  0.4707 -1.5826
  409SOL     OW 1225   1.850   1.387   0.736  0.1557 -0.2212  0.5310
  409SOL    HW1 1226   1.801   1.429   0.813  1.8832  0.1859 -0.2507
  409SOL    HW2 1227   1.916   1.455   0.695 -1.2434  0.2929  1.9591
  410SOL     OW 1228   2.274   2.359   0.304 -0.1915  0.0354 -0.7452
  410SOL    HW1 1229   2.180   2.387   0.334 -0.0407  2.7707  0.3914
  410SOL    HW2 1230   2.332   2.374   0.382 -0.1994 -0.1886 -1.8035
  411SOL     OW 1231   0.336   2.965   0.334 -0.0656 -0.2392 -0.0432
  411SOL    HW1 1232   0.258   3.025   0.303 -1.5312 -1.3399  2.2928
  411SOL    HW2 1233   0.351   2.965   0.435 -1.7299  0.3664  0.2092
  412SOL     OW 1234   1.488   2.956   0.859  0.4110 -0.1099  0.8011
  412SOL    HW1 1235   1.396   2.950   0.907 -2.5558  1.4249  2.3372
  412SOL    HW2 1236   1.517   3.053   0.845  2.6699  1.3425 -0.4284
  413SOL     OW 1237   1.782   0.203   2.462 -0.1572  0.3514  0.2439
  413SOL    HW1 1238   1.811   0.299   2.442  0.4259 -0.6696  0.9830
  413SOL    HW2 1239   1.685   0.184   2.436 -0.4516  1.6406 -1.0138
  414SOL     OW 1240   0.204   0.783   0.376 -0.1844 -0.0759 -0.2305
  414SOL    HW1 1241   0.149   0.764   0.457  0.3980  0.4176 -0.6612
  414SOL    HW2 1242   0.259   0.868   0.385  0.8987 -0.7058  0.5594
  415SOL     OW 1243   0.053   1.462   1.163 -0.1035  0.0903 -0.2760
  415SOL    HW1 1244   0.044   1.381   1.223  4.5889  0.5419 -3.2486
  415SOL    HW2 1245   0.012   1.434   1.075  0.7786 -0.6736 -1.2407
  416SOL     OW 1246   0.375   0.602   3.005  0.3654 -0.0426  0.4198
  416SOL    HW1 1247   0.282   0.564   2.993 -1.3787  1.8636  0.6956
  416SOL    HW2 1248   0.444   0.554   2.947  1.2893  0.1938  0.3408
  417SOL     OW 1249   2.525   0.434   0.833  0.2295  0.6370 -0.4116
  417SOL    HW1 1250   2.601   0.455   0.770 -0.9269 -0.0891  2.7516
  417SOL    HW2 1251   2.568   0.413   0.925  0.4112  0.6065  1.8259
  418SOL     OW 1252   0.564   0.222   2.297 -0.3601 -0.4086  0.0866
  418SOL    HW1 1253   0.662   0.197   2.283  0.0851 -0.3777  2.7852
  418SOL    HW2 1254   0.524   0.299   2.246 -1.0103 -0.1179  1.3502
  419SOL     OW 1255   0.283   1.093   0.631 -0.2051 -0.5763 -0.3519
  419SOL    HW1 1256   0.194   1.062   0.602 -0.1966  0.7432  2.2619
  419SOL    HW2 1257   0.302   1.079   0.730  1.3132 -1.4813  0.4098
  420SOL     OW 1258   2.316   1.622   1.239  0.1394 -0.3481 -0.3216
  420SOL    HW1 1259   2.225   1.662   1.215  0.0053  0.6978 -1.4365
  420SOL    HW2 1260   2.377   1.599   1.157 -0.6761 -1.3665  0.8379
  421SOL     OW 1261   1.154   2.178   2.712 -0.1002 -0.6781  0.0357
  421SOL    HW1 1262   1.105   2.091   2.714  2.3266  0.3249 -1.7325
  421SOL    HW2 1263   1.231   2.178   2.644 -2.5110 -0.9335 -1.5139
  422SOL     OW 1264   2.445   0.441   3.086 -0.2089 -0.7667  0.4274
  422SOL    HW1 1265   2.380   0.482   0.044  1.4397  1.0544 -1.0853
  422SOL    HW2 1266   2.498   0.506   3.031 -2.9336 -1.6424 -1.7230
  423SOL     OW 1267   1.894   1.535   0.053 -0.3320  0.2302  0.3253
  423SOL    HW1 1268   1.986   1.572   0.077 -1.4902  0.0070  2.4956
  423SOL    HW2 1269   1.827   1.544   0.128 -1.8177  1.0073 -2.0490
  424SOL     OW 1270   0.965   0.926   2.012 -0.7925 -0.0187 -0.5839
  424SOL    HW1 1271   0.865   0.910   2.008  0.9486  1.8107 -2.9399
  424SOL    HW2 1272   0.995   0.963   2.106  3.6822 -0.4748  1.6465
  425SOL     OW 1273   3.054   2.742   2.341 -0.0038 -0.4504 -0.0358
  425SOL    HW1 1274   3.096   2.836   2.328  1.3059  2.5611  1.1754
  425SOL    HW2 1275   3.042   2.723   2.444  0.6540 -1.8652  1.1471
  426SOL     OW 1276   1.982   2.671   0.328 -0.5481  0.6629 -0.1954
  426SOL    HW1 1277   2.080   2.698   0.340  1.1956  0.2876 -1.5457
  426SOL    HW2 1278   1.922   2.717   0.390  2.2305 -3.9579 -3.1661
  427SOL     OW 1279   0.661   0.409   2.961 -0.4317  0.4735 -0.1180
  427SOL    HW1 1280   0.708   0.498   2.969  2.2460 -2.2234  2.1309
  427SOL    HW2 1281   0.628   0.389   2.867  2.2895 -0.4293  0.3478
  428SOL     OW 1282   2.496   1.111   2.652  0.1418 -0.2508  0.0873
  428SOL    HW1 1283   2.438   1.083   2.575  0.2548 -1.3767 -0.6113
  428SOL    HW2 1284   2.558   1.189   2.621  0.9354 -0.7944 -0.5299
  429SOL     OW 1285   2.702   0.381   0.292  0.7968 -0.4843  0.4536
  429SOL    HW1 1286   2.639   0.462   0.293  0.5101  1.0855 -0.7683
  429SOL    HW2 1287   2.800   0.412   0.301  0.4905  0.4966  2.6625
  430SOL     OW 1288   1.232   2.630   2.086  0.0305  1.0014 -0.1262
  430SOL    HW1 1289   1.182   2.541   2.105  0.2962  2.6152 -1.6636
  430SOL    HW2 1290   1.194   2.673   2.000 -0.5815  0.6270 -1.8627
  431SOL     OW 1291   2.846   1.905   1.330  0.2349  0.1463  0.0142
  431SOL    HW1 1292   2.781   1.849   1.392 -0.6286  1.6651  0.8583
  431SOL    HW2 1293   2.908   1.837   1.286 -2.2973 -0.6029  0.3895
  432SOL     OW 1294   2.469   2.355   2.052 -0.4735  0.0455  0.1469
  432SOL    HW1 1295   2.547   2.406   2.090 -1.0710  0.5008  0.3571
  432SOL    HW2 1296   2.507   2.271   2.004 -0.2871 -1.4086  2.7669
  433SOL     OW 1297   1.409   2.076   0.196 -0.3411  0.2742 -0.7154
  433SOL    HW1 1298   1.368   1.985   0.191  0.5582  1.3366  1.3417
  433SOL    HW2 1299   1.362   2.135   0.128  3.4334  0.0522  1.8068
  434SOL     OW 1300   0.122   2.170   2.803 -0.2145 -0.4046 -0.4524
  434SOL    HW1 1301   0.157   2.129   2.891 -1.9191 -1.3683  2.0200
  434SOL    HW2 1302   0.022   2.174   2.797 -0.1954  0.3875 -0.2508
  435SOL     OW 1303   0.054   1.089   0.468 -0.7098  0.1732 -0.0061
  435SOL    HW1 1304   0.023   1.179   0.431 -0.0605 -2.8592 -1.7485
  435SOL    HW2 1305   3.096   1.012   0.452  0.8488 -1.9725  1.3495
  436SOL     OW 1306   0.534   2.809   1.543  0.5986 -0.5609 -0.1197
  436SOL    HW1 1307   0.563   2.736   1.607  2.6714  0.6052  0.2868
  436SOL    HW2 1308   0.502   2.893   1.597 -2.5139  0.7703 -1.4159
  437SOL     OW 1309   0.976   2.806   1.090  0.7043  0.4719  0.3782
  437SOL    HW1 1310   0.897   2.865   1.109  1.2599 -5.1495  0.1218
  437SOL    HW2 1311   1.050   2.838   1.151 -0.2538 -0.6478 -1.1135
  438SOL     OW 1312   0.151   2.302   0.700  0.0683 -0.8427 -0.1114
  438SOL    HW1 1313   0.152   2.209   0.661  0.9944  1.3626  0.7025
  438SOL    HW2 1314   0.091   2.301   0.785  0.5775 -1.7676  1.0338
  439SOL     OW 1315   1.052   2.427   1.805 -0.3497 -0.6418  0.1550
  439SOL    HW1 1316   0.983   2.400   1.738 -1.1258 -0.1504  0.2555
  439SOL    HW2 1317   1.030   2.372   1.887 -0.6691  0.5237  1.0570
  440SOL     OW 1318   2.253   2.669   2.058 -0.8510 -0.4243 -0.3180
  440SOL    HW1 1319   2.234   2.578   2.103  0.4846 -2.6761  2.0544
  440SOL    HW2 1320   2.274   2.652   1.959  0.6424 -0.4631 -1.5432
  441SOL     OW 1321   0.188   0.602   1.661 -0.3234 -0.4415 -0.2209
  441SOL    HW1 1322   0.226   0.604   1.757 -0.5795 -0.1403 -0.9715
  441SOL    HW2 1323   0.145   0.514   1.638  3.7590  1.7053  0.3567
  442SOL     OW 1324   2.050   2.404   0.425  0.6253 -0.1377 -0.3922
  442SOL    HW1 1325   2.017   2.494   0.389  1.3237  0.8662 -2.2310
  442SOL    HW2 1326   2.063   2.409   0.525 -2.4648  0.4233 -2.2912
  443SOL     OW 1327   0.007   0.672   2.776  0.1793  0.1587  0.0512
  443SOL    HW1 1328   0.023   0.572   2.772 -0.9648 -1.2471  1.3465
  443SOL    HW2 1329   3.093   0.695   2.871  1.5981 -1.2975  0.5945
  444SOL     OW 1330   1.674   1.054   2.048 -0.6878  0.7625  0.4016
  444SOL    HW1 1331   1.766   1.099   2.053 -1.7538 -0.7090  0.3305
  444SOL    HW2 1332   1.638   1.081   1.962  1.5232 -1.2992  2.7175
  445SOL     OW 1333   0.013   2.634   1.320  0.3837 -0.2024  0.3914
  445SOL    HW1 1334   0.060   2.589   1.393  0.9712  1.5653 -1.2334
  445SOL    HW2 1335   3.029   2.589   1.297 -0.3268  0.2486 -1.1343
  446SOL     OW 1336   3.000   1.695   1.157 -0.1983  0.4626 -0.1438
  446SOL    HW1 1337   3.063   1.617   1.173 -0.7728 -0.2806  0.8814
  446SOL    HW2 1338   3.015   1.737   1.066  0.6340 -2.3073 -0.2167
  447SOL     OW 1339   0.378   0.975   0.392 -0.2706 -0.2893 -0.3415
  447SOL    HW1 1340   0.335   1.028   0.469 -0.9819  1.1165  3.7586
  447SOL    HW2 1341   0.472   1.011   0.367  1.2310  2.0864  1.1744
  448SOL     OW 1342   1.169   1.884   1.832 -0.2349  0.2206  0.5144
  448SOL    HW1 1343   1.160   1.981   1.795 -1.3443 -0.0354  0.0907
  448SOL    HW2 1344   1.249   1.876   1.889 -0.8890  2.8717 -3.4897
  449SOL     OW 1345   1.350   1.472   0.274  0.1839 -0.1554 -0.2511
  449SOL    HW1 1346   1.403   1.527   0.344  1.4436 -0.4138 -1.3455
  449SOL    HW2 1347   1.253   1.498   0.285  2.2758 -1.8720 -2.1733
  450SOL     OW 1348   2.756   2.820   1.997  0.1473 -0.4227  0.0324
  450SOL    HW1 1349   2.856   2.811   1.966  2.7013 -1.8319 -1.0709
  450SOL    HW2 1350   2.745   2.776   2.089  0.3438  2.5116 -1.1326
  451SOL     OW 1351   2.175   0.608   2.569  0.2658 -0.0165 -0.0633
  451SOL    HW1 1352   2.209   0.700   2.586 -0.7755  1.5480 -0.9324
  451SOL    HW2 1353   2.136   0.572   2.659 -0.4491 -0.4027 -0.2431
  452SOL     OW 1354   1.404   0.670   0.761 -0.5005 -0.1499  0.3023
  452SOL    HW1 1355   1.422   0.580   0.712 -2.9263  1.8385 -0.6055
  452SOL    HW2 1356   1.425   0.743   0.694  0.9098  0.1643 -0.1916
  453SOL     OW 1357   1.925   0.776   1.637  0.0498  0.0971  0.0679
  453SOL    HW1 1358   1.969   0.798   1.729 -0.0692 -0.3055  1.1786
  453SOL    HW2 1359   1.970   0.695   1.595  0.3960 -0.5685 -0.7117
  454SOL     OW 1360   3.094   1.338   0.338  0.0487 -0.2164  0.0521
  454SOL    HW1 1361   0.004   1.315   0.242  1.4082  0.1680  0.4415
  454SOL    HW2 1362   3.066   1.436   0.353 -1.1728 -0.5403 -0.9285
  455SOL     OW 1363   2.762   2.909   1.019 -0.5182 -0.4192  0.1372
  455SOL    HW1 1364   2.790   2.832   0.965  1.6340  0.5885  0.4787
  455SOL    HW2 1365   2.718   2.975   0.958  0.2581  0.4899 -1.4432
  456SOL     OW 1366   3.080   2.902   1.352 -0.1627  0.0239  0.0075
  456SOL    HW1 1367   3.083   2.806   1.326 -0.5692  2.3903 -0.9350
  456SOL    HW2 1368   0.061   2.918   1.405  0.2131 -0.8405  0.5983
  457SOL     OW 1369   1.300   0.055   0.332  0.0101 -0.1624 -0.0062
  457SOL    HW1 1370   1.275   0.149   0.363  1.3969  2.6885  1.1591
  457SOL    HW2 1371   1.395   0.046   0.366 -2.0024  0.2228  0.0681
  458SOL     OW 1372   2.304   2.798   0.797  0.2391 -0.6213  0.2632
  458SOL    HW1 1373   2.230   2.759   0.851 -1.0036  1.8312  0.3576
  458SOL    HW2 1374   2.345   2.883   0.845  2.4745  1.5843  0.3203
  459SOL     OW 1375   2.057   0.530   2.786 -0.3182  0.7964 -0.3246
  459SOL    HW1 1376   2.058   0.496   2.882 -1.0833 -1.1979 -0.8537
  459SOL    HW2 1377   1.973   0.589   2.764 -2.0415 -1.1031  0.2707
  460SOL     OW 1378   2.584   2.876   3.047  0.1600 -0.0008 -0.4184
  460SOL    HW1 1379   2.493   2.907   3.021 -0.4602 -0.5492  0.3262
  460SOL    HW2 1380   2.615   2.812   2.975 -0.8653 -1.9318 -3.5496
  461SOL     OW 1381   0.847   1.824   0.317  0.1910  0.0130 -0.6967
  461SOL    HW1 1382   0.883   1.762   0.388  1.2867 -3.1009 -2.0407
  461SOL    HW2 1383   0.766   1.867   0.354 -1.5616 -3.8351 -0.1264
  462SOL     OW 1384   2.104   2.137   0.723 -0.2557 -0.0808  0.3961
  462SOL    HW1 1385   2.126   2.077   0.806  2.3953  0.1129  1.5364
  462SOL    HW2 1386   2.129   2.233   0.735 -3.8182  0.7976  2.4921
  463SOL     OW 1387   2.291   1.012   0.700 -0.4452 -0.1220 -0.4653
  463SOL    HW1 1388   2.359   0.937   0.728 -0.4545  0.4893  0.8760
  463SOL    HW2 1389   2.215   0.969   0.649  0.4616  1.3475  0.2051
  464SOL     OW 1390   0.317   0.028   1.381  0.2173  0.2890  0.1113
  464SOL    HW1 1391   0.309   3.090   1.292 -0.3365 -0.5206  0.3479
  464SOL    HW2 1392   0.415   0.048   1.402 -0.9888  1.8469  1.5839
  465SOL     OW 1393   2.502   1.433   3.076  0.0446 -0.3207  0.5178
  465SOL    HW1 1394   2.414   1.419   0.003  1.9388  0.8117 -1.5555
  465SOL    HW2 1395   2.556   1.479   0.038 -0.9823 -1.6959 -0.6854
  466SOL     OW 1396   1.925   0.232   2.869  0.1803  0.2283 -0.0405
  466SOL    HW1 1397   2.004   0.198   2.930  1.3827  2.6702  2.4213
  466SOL    HW2 1398   1.907   0.329   2.900 -2.0662 -0.2946  0.4118
  467SOL     OW 1399   0.928   0.490   1.361  0.1884  0.2220  0.1461
  467SOL    HW1 1400   1.021   0.462   1.394 -1.0499 -2.3408 -0.4991
  467SOL    HW2 1401   0.936   0.491   1.260 -2.0399  0.3186  1.2283
  468SOL     OW 1402   0.273   1.050   2.688 -0.3704 -0.4418 -0.3319
  468SOL    HW1 1403   0.357   1.060   2.745 -3.0531 -1.1911 -0.3789
  468SOL    HW2 1404   0.292   1.058   2.589  1.4014 -0.3980  1.5986
  469SOL     OW 1405   0.521   2.150   0.225  0.6439 -0.2523 -0.0557
  469SOL    HW1 1406   0.427   2.192   0.223 -1.4607  2.5324  0.0018
  469SOL    HW2 1407   0.592   2.225   0.201  1.4886  2.3727  1.5510
  470SOL     OW 1408   2.574   1.390   2.333 -0.0590  0.7582  0.8194
  470SOL    HW1 1409   2.590   1.368   2.428  3.3784  3.7723 -2.0902
  470SOL    HW2 1410   2.525   1.307   2.294  0.4968 -0.9484  2.4968
  471SOL     OW 1411   2.714   1.107   2.111  0.1129  0.2895  0.1157
  471SOL    HW1 1412   2.719   1.007   2.096  1.8559  0.3356  2.1591
  471SOL    HW2 1413   2.695   1.118   2.211 -0.4097  1.0080  0.2604
  472SOL     OW 1414   0.592   2.755   0.735 -0.2962 -0.0357 -0.5866
  472SOL    HW1 1415   0.520   2.802   0.792  1.0198  0.4647  0.9303
  472SOL    HW2 1416   0.685   2.755   0.781  0.0902  0.5315  1.3482
  473SOL     OW 1417   0.767   0.156   0.221 -0.3909  0.5322 -0.3907
  473SOL    HW1 1418   0.713   0.110   0.290 -0.5901 -1.7899 -2.7462
  473SOL    HW2 1419   0.832   0.095   0.171 -2.2119  1.7986  0.1487
  474SOL     OW 1420   1.937   0.019   2.321  0.1090 -0.2789 -0.1104
  474SOL    HW1 1421   1.899   0.094   2.380 -1.9401  1.5584  0.6697
  474SOL    HW2 1422   1.915   0.045   2.226  1.6462  0.2200  0.1649
  475SOL     OW 1423   1.644   2.599   0.427 -0.1667 -0.8649  0.0155
  475SOL    HW1 1424   1.557   2.571   0.471  1.5515  1.9498 -1.3878
  475SOL    HW2 1425   1.643   2.565   0.331 -2.1707 -0.0671  1.0498
  476SOL     OW 1426   0.270   1.012   0.902  0.1851  0.6425 -0.5208
  476SOL    HW1 1427   0.181   0.968   0.925  0.2239  0.2752  1.8738
  476SOL    HW2 1428   0.322   1.029   0.989  0.4096 -0.9029 -0.6982
  477SOL     OW 1429   1.463   2.538   1.186  0.1965 -0.4984 -0.2457
  477SOL    HW1 1430   1.429   2.438   1.191 -1.5306 -1.5826  1.8414
  477SOL    HW2 1431   1.558   2.541   1.156 -1.4514  1.2645  3.6361
  478SOL     OW 1432   0.595   1.761   2.361  0.1609 -0.4724 -0.5232
  478SOL    HW1 1433   0.649   1.782   2.276 -3.5024  2.5707 -1.8700
  478SOL    HW2 1434   0.638   1.816   2.439  0.0568  0.9816 -0.9926
  479SOL     OW 1435   2.919   0.325   1.086  0.5810 -0.4110 -0.3588
  479SOL    HW1 1436   2.816   0.335   1.077  0.0413  0.1271 -0.1277
  479SOL    HW2 1437   2.940   0.352   1.184  1.0646  3.7551 -0.5415
  480SOL     OW 1438   3.038   2.887   0.518 -0.5883 -0.5653 -0.0344
  480SOL    HW1 1439   0.025   2.882   0.552 -0.9258  0.7947 -0.5422
  480SOL    HW2 1440   3.040   2.887   0.418 -0.3126  1.8104  1.9167
  481SOL     OW 1441   2.459   2.657   1.002  0.3761 -0.1159 -0.1064
  481SOL    HW1 1442   2.415   2.704   0.922 -0.6068  3.1643 -1.9754
  481SOL    HW2 1443   2.494   2.726   1.073  0.6550 -0.0137  0.5237
  482SOL     OW 1444   1.341   2.228   2.533 -0.5733 -0.3740 -0.7173
  482SOL    HW1 1445   1.439   2.207   2.516 -2.3630  1.4468  0.2432
  482SOL    HW2 1446   1.339   2.322   2.576 -2.3284  0.8826  0.4975
  483SOL     OW 1447   0.618   2.083   2.714 -0.5379  0.1111 -0.5040
  483SOL    HW1 1448   0.660   2.136   2.793  0.9296  0.1395  4.0681
  483SOL    HW2 1449   0.582   2.149   2.643 -1.4778 -3.1177 -0.1079
  484SOL     OW 1450   0.970   1.219   1.998 -0.0563  0.3391  0.2335
  484SOL    HW1 1451   0.939   1.189   2.089  1.2837  0.0180 -3.6810
  484SOL    HW2 1452   0.948   1.142   1.937 -0.9084  1.6500 -2.4621
  485SOL     OW 1453   2.516   0.549   0.363  0.0431  0.4225  0.1304
  485SOL    HW1 1454   2.448   0.472   0.358 -1.9227 -0.9317 -0.2221
  485SOL    HW2 1455   2.467   0.632   0.395  1.7877 -1.3477  0.5804
  486SOL     OW 1456   1.685   0.086   0.892 -0.2924 -0.1766 -0.0645
  486SOL    HW1 1457   1.638   0.145   0.953  0.5162  0.0171 -2.0899
  486SOL    HW2 1458   1.785   0.078   0.912  0.5190 -1.3112  2.3079
  487SOL     OW 1459   0.559   2.241   1.130 -0.4154 -0.1334 -0.1518
  487SOL    HW1 1460   0.566   2.334   1.090 -2.1075 -0.8627 -1.3140
  487SOL    HW2 1461   0.564   2.242   1.230  2.1808 -0.7992 -1.4612
  488SOL     OW 1462   2.405   1.240   0.550 -0.2546 -0.1507 -0.1086
  488SOL    HW1 1463   2.394   1.243   0.448  1.6363 -0.6090 -1.6616
  488SOL    HW2 1464   2.357   1.163   0.592  2.4975  2.7041  3.6470
  489SOL     OW 1465   1.578   0.302   1.018  0.0222  0.0976  0.4433
  489SOL    HW1 1466   1.645   0.283   1.093  2.4353 -0.3841  1.3155
  489SOL    HW2 1467   1.614   0.363   0.945 -0.1509 -3.5444 -1.0639
  490SOL     OW 1468   1.139   0.555   0.347 -0.1924 -0.1744  0.2988
  490SOL    HW1 1469   1.121   0.645   0.372  0.1002 -5.4855 -2.4762
  490SOL    HW2 1470   1.185   0.548   0.256  1.9860 -0.6502  1.1257
  491SOL     OW 1471   0.691   2.391   0.648 -0.1961  0.3851  0.0957
  491SOL    HW1 1472   0.776   2.386   0.591 -1.4840  0.5180  1.9652
  491SOL    HW2 1473   0.640   2.474   0.622 -2.7245 -1.9155 -0.1073
  492SOL     OW 1474   1.205   1.516   2.297 -0.5472  0.2550 -0.1463
  492SOL    HW1 1475   1.186   1.434   2.345 -0.1913 -2.0912  1.0542
  492SOL    HW2 1476   1.154   1.517   2.206 -1.0499  0.5490  0.0732
  493SOL     OW 1477   3.080   2.362   0.930  0.4115  0.1845 -0.2760
  493SOL    HW1 1478   3.049   2.285   0.990 -0.4146 -2.1913  0.7123
  493SOL    HW2 1479   0.027   2.440   0.971  0.5035 -0.3292  0.7391
  494SOL     OW 1480   2.527   2.142   2.985  0.4526  0.4417  0.0684
  494SOL    HW1 1481   2.467   2.060   2.968 -2.9494 -4.5334 -0.9435
  494SOL    HW2 1482   2.491   2.178   3.073 -2.8681  3.0782  0.5726
  495SOL     OW 1483   2.732   1.671   2.713 -0.3971 -0.2693 -0.3247
  495SOL    HW1 1484   2.663   1.669   2.783 -0.3615  2.1184 -0.4604
  495SOL    HW2 1485   2.818   1.619   2.738 -0.7686  1.3811  1.8430
  496SOL     OW 1486   2.758   0.107   1.732 -0.0099 -0.6443  0.7313
  496SOL    HW1 1487   2.755   0.033   1.661  0.4981  1.1594  0.0967
  496SOL    HW2 1488   2.728   0.058   1.817  2.4149 -0.3052 -0.0765
  497SOL     OW 1489   2.610   0.943   0.416  0.2342 -0.0120  0.0762
  497SOL    HW1 1490   2.517   0.898   0.424  0.5086  0.6041 -1.3895
  497SOL    HW2 1491   2.682   0.879   0.443 -0.4834  1.0693  0.5112
  498SOL     OW 1492   0.482   2.232   2.498  0.2932  0.4979  0.0589
  498SOL    HW1 1493   0.449   2.292   2.423  1.3469  0.4575  2.3155
  498SOL    HW2 1494   0.406   2.213   2.564 -1.8022  0.0013  0.0626
  499SOL     OW 1495   1.303   2.395   0.267  0.5273  0.3634 -0.1967
  499SOL    HW1 1496   1.248   2.311   0.291  0.9676  0.8540  1.0547
  499SOL    HW2 1497   1.350   2.391   0.176  1.2263 -0.8733 -0.8750
  500SOL     OW 1498   1.191   3.000   0.101 -0.3851  0.6641 -0.4346
  500SOL    HW1 1499   1.217   3.074   0.170  0.2415  0.3505 -1.0649
  500SOL    HW2 1500   1.091   3.016   0.079 -0.5729  0.4980  0.7786
  501SOL     OW 1501   1.727   0.085   1.852 -0.1072  0.0206  0.4016
  501SOL    HW1 1502   1.644   0.028   1.835  0.1396  0.2339 -0.1660
  501SOL    HW2 1503   1.744   0.146   1.773  0.5361 -0.7833  2.9569
  502SOL     OW 1504   2.952   0.298   2.059  0.7409  0.2551  0.1312
  502SOL    HW1 1505   3.025   0.275   2.129  0.8293  1.6350  0.5316
  502SOL    HW2 1506   2.985   0.376   2.005 -0.6529  2.2317 -1.4960
  503SOL     OW 1507   2.552   2.048   2.471  0.1249  0.8122  0.0823
  503SOL    HW1 1508   2.560   2.039   2.371  1.5686 -0.9503  1.3725
  503SOL    HW2 1509   2.523   2.143   2.498  2.6770  2.8050 -1.1088
  504SOL     OW 1510   1.416   0.404   1.453  0.4216  0.1305  0.3133
  504SOL    HW1 1511   1.452   0.489   1.409 -1.2051 -1.8055 -0.9178
  504SOL    HW2 1512   1.420   0.410   1.552  0.2011  0.6983  2.5795
  505SOL     OW 1513   0.811   0.646   1.754  0.1803 -0.0568  0.2443
  505SOL    HW1 1514   0.884   0.624   1.816 -1.9388  2.2376 -1.4400
  505SOL    HW2 1515   0.734   0.578   1.757 -0.6718 -1.0169 -0.7395
  506SOL     OW 1516   0.473   0.845   2.526  0.1697  0.0645  0.1986
  506SOL    HW1 1517   0.404   0.796   2.581  1.4153  2.9896 -2.0764
  506SOL    HW2 1518   0.512   0.785   2.454  1.0615  0.6558  0.6254
  507SOL     OW 1519   0.268   2.807   3.026  0.1593  0.1194 -0.2835
  507SOL    HW1 1520   0.196   2.884   3.025  1.3829 -0.6981 -0.8572
  507SOL    HW2 1521   0.332   2.808   2.942  3.0447 -1.1474 -3.2097
  508SOL     OW 1522   1.641   0.770   1.585  0.0564  0.0188 -0.3586
  508SOL    HW1 1523   1.619   0.692   1.520  1.7762  1.4916  1.7469
  508SOL    HW2 1524   1.740   0.773   1.618 -0.3400 -0.8554 -0.3854
  509SOL     OW 1525   0.902   1.971   1.558 -0.0190 -0.2937 -0.2819
  509SOL    HW1 1526   0.898   2.061   1.601  1.4242 -0.1863  1.5791
  509SOL    HW2 1527   0.934   1.979   1.462  0.3542 -1.5372  0.6098
  510SOL     OW 1528   2.166   1.242   2.153 -0.3900  0.1593  0.5326
  510SOL    HW1 1529   2.156   1.270   2.250  0.0869 -1.0422 -1.2893
  510SOL    HW2 1530   2.246   1.182   2.143 -1.8686 -1.7687 -1.0903
  511SOL     OW 1531   0.609   1.989   1.040  0.4343 -0.2097 -0.1536
  511SOL    HW1 1532   0.592   2.086   1.039 -1.8615 -2.6144  0.7080
  511SOL    HW2 1533   0.650   1.964   1.130  1.3310  3.9062  1.9246
  512SOL     OW 1534   2.583   2.456   0.214  0.2593  0.9219 -0.5349
  512SOL    HW1 1535   2.558   2.376   0.155  0.2243 -0.5425  1.7881
  512SOL    HW2 1536   2.539   2.442   0.305 -1.4283  0.8269 -0.1790
  513SOL     OW 1537   3.099   1.832   2.484  0.0742  0.3246  0.3856
  513SOL    HW1 1538   0.052   1.756   2.515 -0.9331  0.5158  0.8236
  513SOL    HW2 1539   3.002   1.805   2.489 -0.7106 -1.1753  1.5920
  514SOL     OW 1540   0.410   2.540   2.721 -0.0149  0.0868 -0.0485
  514SOL    HW1 1541   0.338   2.492   2.663  1.4437 -0.6116 -0.6696
  514SOL    HW2 1542   0.503   2.531   2.679  2.2283 -0.2899 -2.1696
  515SOL     OW 1543   1.962   1.419   1.329 -0.1294  0.1760 -0.0461
  515SOL    HW1 1544   2.005   1.452   1.418  2.8518 -1.5721  1.2695
  515SOL    HW2 1545   1.991   1.481   1.252 -1.9418  1.8254 -0.1733
  516SOL     OW 1546   2.489   2.306   2.540 -0.2592 -0.0963  0.1173
  516SOL    HW1 1547   2.501   2.398   2.489 -1.5528  1.1444 -0.1091
  516SOL    HW2 1548   2.536   2.316   2.629  2.3264 -2.0257 -0.5742
  517SOL     OW 1549   1.512   1.003   2.889 -0.3718  0.1601  0.0343
  517SOL    HW1 1550   1.480   1.103   2.880  0.0407 -2.1343  2.4810
  517SOL    HW2 1551   1.542   0.983   2.983 -0.2705 -0.5477 -2.0809
  518SOL     OW 1552   3.057   3.060   2.548 -0.3292  0.2589  0.8850
  518SOL    HW1 1553   0.001   3.047   2.462  1.2260 -1.6171 -0.8544
  518SOL    HW2 1554   2.959   3.069   2.534  0.3378  0.9375 -0.7454
  519SOL     OW 1555   1.646   1.782   2.164 -0.0427 -0.3812 -0.5888
  519SOL    HW1 1556   1.586   1.714   2.202  1.8307  1.6915  2.3986
  519SOL    HW2 1557   1.684   1.841   2.237  0.3099  0.3303  2.9897
  520SOL     OW 1558   2.827   3.064   2.860 -0.0780 -0.8380  0.1111
  520SOL    HW1 1559   2.764   0.039   2.865 -2.6819  1.3373 -0.0086
  520SOL    HW2 1560   2.803   2.993   2.792 -1.3032 -0.6412  2.4339
  521SOL     OW 1561   0.445   1.674   1.731 -0.4567  0.4984  0.1996
  521SOL    HW1 1562   0.465   1.771   1.733  2.6835 -2.8189  1.4753
  521SOL    HW2 1563   0.528   1.618   1.720  0.2394  2.6432 -0.6038
  522SOL     OW 1564   1.276   0.078   1.700 -0.2589 -0.0999 -0.1552
  522SOL    HW1 1565   1.225   0.091   1.614 -0.4930 -0.2449  1.1784
  522SOL    HW2 1566   1.215   0.089   1.780 -0.5620  0.0715  0.4283
  523SOL     OW 1567   0.113   2.569   1.041  0.0679  0.2000 -0.2743
  523SOL    HW1 1568   0.069   2.600   1.130  0.2312  2.6499  1.1542
  523SOL    HW2 1569   0.213   2.569   1.061  0.6385 -2.9362 -2.5990
  524SOL     OW 1570   1.583   2.702   0.874  0.3133  0.1199 -0.5112
  524SOL    HW1 1571   1.522   2.637   0.829  2.4746  0.2975 -2.5528
  524SOL    HW2 1572   1.544   2.794   0.881 -0.2392  1.2193  0.1907
  525SOL     OW 1573   2.429   1.003   1.045 -0.0114 -0.9115 -0.0553
  525SOL    HW1 1574   2.398   1.103   1.040 -3.1638 -1.0902 -1.3159
  525SOL    HW2 1575   2.354   0.939   1.026  1.4315  2.5136  0.0052
  526SOL     OW 1576   1.037   2.622   0.738  0.1499  0.0246  0.2711
  526SOL    HW1 1577   0.987   2.538   0.764  1.9412 -0.0027  0.3232
  526SOL    HW2 1578   1.067   2.624   0.643  1.7397 -0.8752 -2.5328
  527SOL     OW 1579   2.478   1.894   0.911 -0.9856 -0.5239  0.2321
  527SOL    HW1 1580   2.443   1.851   0.823  1.7444 -2.1376 -4.1479
  527SOL    HW2 1581   2.508   1.815   0.975 -1.3050  0.6510  2.8384
  528SOL     OW 1582   2.267   0.525   0.151  0.1478 -0.4789  0.2983
  528SOL    HW1 1583   2.305   0.621   0.142  2.0522  3.6417 -0.4095
  528SOL    HW2 1584   2.236   0.497   0.243 -1.5258 -1.9121  1.7460
  529SOL     OW 1585   1.229   1.174   1.908 -1.3446  0.2577 -0.3084
  529SOL    HW1 1586   1.135   1.200   1.898 -0.1644  1.9638  2.1563
  529SOL    HW2 1587   1.247   1.149   2.008 -0.9810  0.6775  2.8781
  530SOL     OW 1588   2.475   0.757   2.611  0.0461  0.6383  0.0347
  530SOL    HW1 1589   2.403   0.813   2.570 -0.6151 -1.9272 -1.5850
  530SOL    HW2 1590   2.569   0.768   2.562  1.3577 -2.2230  1.4446
  531SOL     OW 1591   1.158   1.133   3.082  0.2347  0.0731 -0.1771
  531SOL    HW1 1592   1.158   1.214   3.019  0.8466  0.2521 -0.6899
  531SOL    HW2 1593   1.084   1.130   0.044 -0.9426 -0.7995 -0.5583
  532SOL     OW 1594   2.307   0.275   0.822 -0.0572  0.4566 -0.3680
  532SOL    HW1 1595   2.399   0.326   0.832  3.8172 -0.2550 -1.4868
  532SOL    HW2 1596   2.315   0.190   0.768  2.8222 -0.1980  2.6062
  533SOL     OW 1597   0.720   0.862   1.928 -0.0253  0.5414  0.6208
  533SOL    HW1 1598   0.689   0.940   1.868 -0.7348 -0.4188 -1.2042
  533SOL    HW2 1599   0.741   0.778   1.875 -2.2667  0.8503 -0.0187
  534SOL     OW 1600   1.736   0.126   2.728 -0.2249  0.0504 -0.1540
  534SOL    HW1 1601   1.740   0.167   2.635 -1.5432 -0.6219  2.6464
  534SOL    HW2 1602   1.814   0.160   2.785  3.6734 -1.0930  1.8990
  535SOL     OW 1603   0.593   0.072   0.418 -0.3123  0.4703 -0.1054
  535SOL    HW1 1604   0.494   0.103   0.431  0.0455 -0.3792 -0.5665
  535SOL    HW2 1605   0.607   3.080   0.448 -1.0242  1.2423 -2.4015
  536SOL     OW 1606   0.918   2.800   1.411 -0.2992  0.7373  0.3767
  536SOL    HW1 1607   0.906   2.864   1.489  0.0740 -0.3732 -0.3148
  536SOL    HW2 1608   1.020   2.802   1.390  3.4335  0.7618 -1.9894
  537SOL     OW 1609   1.985   2.771   2.166 -0.2339  0.3554 -0.1516
  537SOL    HW1 1610   1.949   2.822   2.086  1.0383 -0.2450  1.9800
  537SOL    HW2 1611   2.080   2.745   2.150 -0.9753 -0.8744 -0.9999
  538SOL     OW 1612   0.141   2.718   0.157  0.1797 -0.4229  0.0695
  538SOL    HW1 1613   0.202   2.746   0.079  1.6411 -1.1409 -1.3986
  538SOL    HW2 1614   0.146   2.621   0.180  1.2623 -0.0493  0.0934
  539SOL     OW 1615   2.865   1.819   1.824  0.2123  0.5934  0.5450
  539SOL    HW1 1616   2.873   1.878   1.742 -0.4712 -2.3830  0.1891
  539SOL    HW2 1617   2.923   1.857   1.894 -1.3072  2.4187 -0.2944
  540SOL     OW 1618   2.932   2.545   1.909  0.3613  0.0874 -0.1410
  540SOL    HW1 1619   2.994   2.523   1.991 -0.7693 -1.8002 -0.1423
  540SOL    HW2 1620   2.940   2.638   1.872 -2.1040 -0.3919 -1.2684
  541SOL     OW 1621   0.028   0.101   1.655 -0.2042  0.4952  0.1697
  541SOL    HW1 1622   3.094   0.192   1.629  1.9819 -1.7297  1.8521
  541SOL    HW2 1623   3.068   0.023   1.648 -2.7505  0.3914 -3.0869
  542SOL     OW 1624   2.829   0.655   1.965 -0.5073  0.6974 -0.5609
  542SOL    HW1 1625   2.735   0.612   1.957  0.7328  0.0083  0.9944
  542SOL    HW2 1626   2.889   0.637   1.882  1.0159 -0.8921  2.0337
  543SOL     OW 1627   0.612   0.973   1.174  0.5755 -0.4123  0.6595
  543SOL    HW1 1628   0.664   0.964   1.093  0.2438 -0.6264 -0.7265
  543SOL    HW2 1629   0.618   0.894   1.239 -0.5345  0.3302 -1.5780
  544SOL     OW 1630   2.053   1.678   1.217 -0.3512 -0.2386  0.4595
  544SOL    HW1 1631   1.991   1.706   1.289 -0.0745  1.2479 -0.7279
  544SOL    HW2 1632   2.031   1.726   1.127 -3.0663  1.4291 -1.9413
  545SOL     OW 1633   0.965   1.670   0.507 -0.0402 -0.1043  0.3910
  545SOL    HW1 1634   1.031   1.717   0.572  1.1167 -0.5372 -1.5177
  545SOL    HW2 1635   0.888   1.622   0.551 -0.0445  0.1563 -0.2497
  546SOL     OW 1636   2.487   0.453   1.956  0.0629 -0.3888  0.4549
  546SOL    HW1 1637   2.556   0.501   1.897  1.1686  0.9320 -2.1980
  546SOL    HW2 1638   2.534   0.390   2.026  0.5431  0.5375 -1.6345
  547SOL     OW 1639   0.257   0.259   2.332  0.1079  0.0560  0.2589
  547SOL    HW1 1640   0.276   0.271   2.430  0.2295 -0.5821 -2.5031
  547SOL    HW2 1641   0.321   0.318   2.281 -0.1842 -0.6863 -0.6391
  548SOL     OW 1642   2.290   2.140   2.647  0.3905  0.3054 -0.1033
  548SOL    HW1 1643   2.358   2.210   2.627 -2.2722  0.4947  1.0645
  548SOL    HW2 1644   2.327   2.052   2.603 -0.9972  1.6225  0.4873
  549SOL     OW 1645   2.629   0.357   1.092 -0.0320  0.6899  0.8016
  549SOL    HW1 1646   2.552   0.306   1.134  1.1221  0.9408  2.0798
  549SOL    HW2 1647   2.634   0.440   1.144 -1.5511 -2.2145 -2.1569
  550SOL     OW 1648   2.014   1.570   0.647  0.0362  0.5943 -0.4438
  550SOL    HW1 1649   2.096   1.610   0.691  0.8791 -1.3262  1.7481
  550SOL    HW2 1650   2.016   1.583   0.546  2.6603 -0.0521 -1.4525
  551SOL     OW 1651   1.031   0.078   1.485  0.1004 -0.0031  0.0893
  551SOL    HW1 1652   1.011   3.099   1.532 -3.4378 -0.8448  0.6537
  551SOL    HW2 1653   1.001   0.070   1.386 -0.9006 -1.3937 -0.9266
  552SOL     OW 1654   1.986   2.494   2.554  0.0158 -0.0249  0.3940
  552SOL    HW1 1655   1.982   2.590   2.526 -3.5222 -0.1730  1.8383
  552SOL    HW2 1656   2.013   2.434   2.480  0.7128  2.8084  0.9509
  553SOL     OW 1657   0.632   2.942   0.528 -0.0699  0.4833 -0.4015
  553SOL    HW1 1658   0.711   2.996   0.561  2.1642  1.4575  3.9268
  553SOL    HW2 1659   0.588   2.891   0.606  3.2823  2.7279  0.0174
  554SOL     OW 1660   1.823   2.576   2.288 -0.6437  0.1617 -0.5396
  554SOL    HW1 1661   1.857   2.514   2.215 -2.4159  2.1359  0.9920
  554SOL    HW2 1662   1.842   2.672   2.257 -0.2038  0.4922  0.0729
  555SOL     OW 1663   2.213   2.373   2.141 -0.6437 -0.0540  0.1391
  555SOL    HW1 1664   2.306   2.346   2.108  1.3563 -0.2128 -0.0496
  555SOL    HW2 1665   2.177   2.340   2.228  0.5706  3.1178 -1.8551
  556SOL     OW 1666   0.903   0.008   0.644  0.1709  0.2154  0.0795
  556SOL    HW1 1667   0.973   3.086   0.708 -1.1833  0.3269 -2.5038
  556SOL    HW2 1668   0.928   0.008   0.544 -0.2408  0.4304  0.1308
  557SOL     OW 1669   0.750   2.287   1.768 -0.2515  0.2973  0.7055
  557SOL    HW1 1670   0.759   2.380   1.812 -0.2076 -3.0550  1.2103
  557SOL    HW2 1671   0.654   2.266   1.751  0.7206  0.5732  2.9355
  558SOL     OW 1672   2.724   1.058   2.380  0.0830 -0.3780 -1.0110
  558SOL    HW1 1673   2.757   0.963   2.398  3.2817 -0.4376 -3.4375
  558SOL    HW2 1674   2.792   1.132   2.409 -2.6327 -1.1038  1.7224
  559SOL     OW 1675   2.591   2.059   2.197 -0.3122  0.0390  0.7474
  559SOL    HW1 1676   2.547   2.072   2.103 -1.4700 -0.2347 -0.1804
  559SOL    HW2 1677   2.666   2.129   2.208  2.2411  1.5854  1.6964
  560SOL     OW 1678   0.599   0.533   2.022 -0.0472  0.2231  0.3065
  560SOL    HW1 1679   0.588   0.507   1.917 -1.1095 -1.5393 -0.7098
  560SOL    HW2 1680   0.699   0.542   2.053  2.5452 -1.3016 -0.9767
  561SOL     OW 1681   1.229   0.529   0.095 -0.6511  0.3320 -0.2238
  561SOL    HW1 1682   1.306   0.517   0.157 -2.8518  0.3452 -0.1320
  561SOL    HW2 1683   1.193   0.447   0.037  0.7392 -1.6766  1.0070
  562SOL     OW 1684   1.021   1.468   1.589 -0.6938 -0.1373 -0.9207
  562SOL    HW1 1685   1.009   1.571   1.601  0.1370 -1.0768  1.8595
  562SOL    HW2 1686   1.078   1.452   1.507 -0.0353 -1.3636 -1.9032
  563SOL     OW 1687   1.884   2.557   0.086  0.4759 -0.5137 -1.1569
  563SOL    HW1 1688   1.944   2.478   0.073 -1.0738  0.9721 -0.3686
  563SOL    HW2 1689   1.901   2.609   0.173 -4.6686 -1.5501 -2.1428
  564SOL     OW 1690   2.827   1.993   0.392  0.4683 -0.2781 -0.7748
  564SOL    HW1 1691   2.830   2.087   0.435 -2.1544  2.8557  1.2011
  564SOL    HW2 1692   2.759   1.992   0.318  0.0873 -1.5728 -1.4307
  565SOL     OW 1693   0.626   2.815   2.194 -0.1198 -0.3298  0.9470
  565SOL    HW1 1694   0.654   2.888   2.260  0.4059 -0.8540 -1.6109
  565SOL    HW2 1695   0.528   2.790   2.214 -3.4000 -2.2846 -0.4549
  566SOL     OW 1696   1.641   2.478   2.731 -0.9943  0.3133  0.1280
  566SOL    HW1 1697   1.686   2.418   2.801 -1.1027  0.2644  0.1739
  566SOL    HW2 1698   1.685   2.459   2.639  2.1424 -0.8294 -2.7238
  567SOL     OW 1699   1.950   1.969   1.426  0.1112  0.1950  0.3310
  567SOL    HW1 1700   1.928   2.055   1.378  0.4304  0.4928  1.0980
  567SOL    HW2 1701   1.874   1.945   1.490  2.7289  0.1946 -1.6607
  568SOL     OW 1702   2.053   0.811   2.873  0.1555 -0.5823 -0.3530
  568SOL    HW1 1703   2.029   0.794   2.973 -1.2154 -1.1976  1.1732
  568SOL    HW2 1704   2.136   0.761   2.856 -1.2928  0.2574  0.7902
  569SOL     OW 1705   2.688   1.459   2.105  0.0366 -0.2321 -0.2745
  569SOL    HW1 1706   2.773   1.514   2.094  2.3838 -0.8483  1.6569
  569SOL    HW2 1707   2.659   1.438   2.201 -1.7482  2.8964  2.9300
  570SOL     OW 1708   2.600   2.798   1.757  0.3040 -0.1350  0.3280
  570SOL    HW1 1709   2.505   2.763   1.755  0.9749  0.3866 -1.1776
  570SOL    HW2 1710   2.637   2.783   1.849 -1.0677  1.7207 -1.6489
  571SOL     OW 1711   0.097   0.380   1.569  0.0787 -0.7961 -0.3787
  571SOL    HW1 1712   3.105   0.369   1.598 -1.6026  1.1927  1.6386
  571SOL    HW2 1713   0.112   0.345   1.474 -2.1210 -1.6892 -1.4608
  572SOL     OW 1714   0.047   1.999   0.653 -0.6012 -0.1986 -0.4140
  572SOL    HW1 1715   3.082   1.932   0.638  2.8276  0.3836  0.2126
  572SOL    HW2 1716   0.117   1.947   0.707  2.6815  0.8536  1.4685
  573SOL     OW 1717   1.052   0.725   0.049  0.1981  0.0496  0.3293
  573SOL    HW1 1718   0.959   0.716   0.093  2.3675  0.5841 -1.8892
  573SOL    HW2 1719   1.100   0.633   0.047 -0.6038  1.5702 -1.7575
  574SOL     OW 1720   0.144   0.008   0.222  0.3015 -0.1939 -0.0276
  574SOL    HW1 1721   0.142   0.077   0.145 -1.3772  1.8919 -1.2329
  574SOL    HW2 1722   0.074   3.044   0.228  0.4614  1.4560 -1.4430
  575SOL     OW 1723   0.920   2.535   1.069  0.1933 -0.7881  0.5781
  575SOL    HW1 1724   0.990   2.492   1.127 -1.9032  0.7490  1.2591
  575SOL    HW2 1725   0.941   2.635   1.073 -1.3545 -1.4017  3.0648
  576SOL     OW 1726   2.808   2.803   1.353  0.2433  0.2238  0.1257
  576SOL    HW1 1727   2.778   2.756   1.436  0.2707  3.0718 -3.0656
  576SOL    HW2 1728   2.894   2.857   1.370 -1.5116 -1.1918  0.2576
  577SOL     OW 1729   2.710   1.611   1.499  0.5538 -0.3702  0.0120
  577SOL    HW1 1730   2.803   1.569   1.512  1.7437  0.6147  2.7693
  577SOL    HW2 1731   2.653   1.591   1.582  0.5454  0.5862  0.7343
  578SOL     OW 1732   1.153   2.804   2.750 -0.0170  0.0095 -0.6188
  578SOL    HW1 1733   1.205   2.747   2.683  0.5182 -1.6062 -0.5533
  578SOL    HW2 1734   1.201   2.828   2.836  0.9295  0.6601 -0.8039
  579SOL     OW 1735   1.941   1.717   2.212 -0.9812  0.3207  0.0762
  579SOL    HW1 1736   1.842   1.701   2.201 -0.2567  0.7107 -1.8221
  579SOL    HW2 1737   1.991   1.650   2.149  1.5412  0.2768 -0.1565
  580SOL     OW 1738   1.805   0.406   2.027 -0.4025 -0.8395  0.0149
  580SOL    HW1 1739   1.811   0.458   1.939 -1.6205 -0.9653 -1.1805
  580SOL    HW2 1740   1.711   0.369   2.042 -2.2301 -0.5822  2.4712
  581SOL     OW 1741   1.085   1.480   2.046  0.6529 -0.7963  0.0635
  581SOL    HW1 1742   1.030   1.398   2.065  0.0549 -1.4572 -2.7196
  581SOL    HW2 1743   1.121   1.470   1.950  2.2884  0.0786 -0.2404
  582SOL     OW 1744   2.998   2.819   1.866  0.8108  0.5546 -0.3458
  582SOL    HW1 1745   3.088   2.835   1.895 -2.1974 -1.8293 -2.5731
  582SOL    HW2 1746   2.977   2.860   1.775  1.3367  1.3306 -1.4108
  583SOL     OW 1747   1.258   1.419   1.173  0.8596 -0.1961  0.5174
  583SOL    HW1 1748   1.280   1.419   1.274  0.0912 -0.4628 -1.0213
  583SOL    HW2 1749   1.159   1.396   1.167  1.7565 -0.1828  2.5439
  584SOL     OW 1750   1.423   1.817   2.979  0.0643 -0.1007 -0.4683
  584SOL    HW1 1751   1.322   1.816   2.964  0.2687  2.0722 -0.4454
  584SOL    HW2 1752   1.477   1.794   2.895  1.7961  1.2985  1.5746
  585SOL     OW 1753   0.248   2.435   0.219  0.2256  0.2790 -0.5149
  585SOL    HW1 1754   0.260   2.360   0.290  1.2634 -1.4142 -0.9683
  585SOL    HW2 1755   0.293   2.397   0.130  1.1630  0.6963  0.3119
  586SOL     OW 1756   2.076   2.369   0.077  0.6534  0.0271 -0.3999
  586SOL    HW1 1757   2.131   2.364   0.157 -3.3534  0.5644 -1.3999
  586SOL    HW2 1758   2.126   2.350   3.098 -0.5656 -1.0485  0.2574
  587SOL     OW 1759   2.554   2.054   0.507 -0.2375 -0.0326 -0.0186
  587SOL    HW1 1760   2.590   2.127   0.567 -1.0167 -1.7437 -0.8136
  587SOL    HW2 1761   2.582   2.052   0.408 -0.4745 -3.7687  1.0475
  588SOL     OW 1762   2.120   0.340   1.017 -0.2576  0.5124 -0.0929
  588SOL    HW1 1763   2.033   0.386   0.985  1.7691  0.3118  1.1984
  588SOL    HW2 1764   2.189   0.335   0.943 -2.2040 -0.4789  1.7049
  589SOL     OW 1765   0.745   0.772   0.955 -0.1532 -0.3828  0.2407
  589SOL    HW1 1766   0.732   0.672   0.969  0.7991 -0.6226 -2.9601
  589SOL    HW2 1767   0.659   0.817   0.918 -0.7251  0.0918 -1.0954
  590SOL     OW 1768   2.834   2.245   0.488 -0.0660 -0.4380 -0.4781
  590SOL    HW1 1769   2.823   2.319   0.562  1.6563  2.0937  0.2285
  590SOL    HW2 1770   2.898   2.280   0.413  0.1414  0.0171 -0.9814
  591SOL     OW 1771   0.251   2.759   1.718 -0.1592  0.3244 -0.0808
  591SOL    HW1 1772   0.311   2.677   1.722  0.8850 -0.8455  1.6079
  591SOL    HW2 1773   0.221   2.797   1.804  1.2997 -0.2309 -3.8102
  592SOL     OW 1774   0.613   1.233   1.266 -0.4816 -0.5967 -0.5692
  592SOL    HW1 1775   0.548   1.248   1.346 -0.2489 -0.8600  2.2876
  592SOL    HW2 1776   0.630   1.139   1.241  2.0605  2.9791  0.6353
  593SOL     OW 1777   1.002   1.906   1.302 -0.2402  0.1787 -0.6943
  593SOL    HW1 1778   0.997   1.802   1.303  1.4210 -2.1301  0.0436
  593SOL    HW2 1779   1.022   1.930   1.200 -1.5574 -0.0887 -1.6036
  594SOL     OW 1780   0.254   1.772   2.929 -0.2503  0.1097 -0.5338
  594SOL    HW1 1781   0.345   1.820   2.920  1.5183  0.1730 -1.7208
  594SOL    HW2 1782   0.257   1.671   2.922  0.7619  0.8246 -0.3409
  595SOL     OW 1783   1.237   0.694   0.979 -0.2789  0.5252 -0.6359
  595SOL    HW1 1784   1.291   0.674   0.894  1.4899  2.5328 -0.0194
  595SOL    HW2 1785   1.136   0.689   0.958  1.4603  0.4207  0.5492
  596SOL     OW 1786   0.251   1.658   0.507  0.2255  0.2460 -0.0809
  596SOL    HW1 1787   0.165   1.635   0.465  3.3820 -1.9347  2.5296
  596SOL    HW2 1788   0.284   1.580   0.563  1.6650 -1.2437 -0.3164
  597SOL     OW 1789   2.938   2.085   2.822  0.4079 -0.2043 -0.7378
  597SOL    HW1 1790   2.916   2.165   2.763  0.7300  2.7654 -1.4968
  597SOL    HW2 1791   2.889   2.090   2.913  4.2765  1.6204  0.1455
  598SOL     OW 1792   2.014   2.039   2.347  0.2542  0.8444  0.0376
  598SOL    HW1 1793   2.030   2.044   2.245  1.9948 -0.5574 -1.5958
  598SOL    HW2 1794   2.024   1.940   2.383 -0.5563 -1.5640  1.8643
  599SOL     OW 1795   1.522   0.410   0.658  0.0826 -0.4677  0.7971
  599SOL    HW1 1796   1.609   0.400   0.709  0.0543 -1.1047  0.7219
  599SOL    HW2 1797   1.543   0.382   0.562  0.7189  0.5757  0.9852
  600SOL     OW 1798   0.815   2.813   0.351 -0.2459 -0.1520  0.4776
  600SOL    HW1 1799   0.747   2.854   0.415  0.3200 -0.9278  0.9611
  600SOL    HW2 1800   0.781   2.795   0.262  1.5886  2.0283  2.4899
  601SOL     OW 1801   0.608   0.765   1.371  0.1466  0.9441 -0.1991
  601SOL    HW1 1802   0.554   0.832   1.425  2.2321  0.7419 -1.4634
  601SOL    HW2 1803   0.707   0.763   1.401  1.8851  0.8227 -1.3335
  602SOL     OW 1804   0.105   2.963   0.918 -0.3429  0.2147 -0.1077
  602SOL    HW1 1805   0.059   2.879   0.888  0.6723  0.1204  0.9815
  602SOL    HW2 1806   0.038   3.036   0.942 -1.9505  0.2735 -1.7696
  603SOL     OW 1807   1.223   2.667   2.523  0.2004  0.0426 -0.2510
  603SOL    HW1 1808   1.156   2.607   2.481  1.3435 -0.5264  0.9957
  603SOL    HW2 1809   1.240   2.742   2.451 -1.7965  0.9974 -3.2495
  604SOL     OW 1810   0.715   2.891   2.904 -0.5146 -0.4632 -0.1005
  604SOL    HW1 1811   0.699   2.881   3.006  0.0446  0.1168 -0.2751
  604SOL    HW2 1812   0.632   2.882   2.848  3.7442  0.4857  1.2519
  605SOL     OW 1813   1.028   0.653   1.943 -0.1298 -0.1479  0.6147
  605SOL    HW1 1814   1.078   0.591   1.881 -0.2751 -2.1574 -0.4120
  605SOL    HW2 1815   1.084   0.738   1.948 -2.6342 -3.1120 -1.2667
  606SOL     OW 1816   2.054   0.158   2.645  0.4811  0.5137 -0.3572
  606SOL    HW1 1817   2.013   0.160   2.736  2.9237  1.2344 -1.1448
  606SOL    HW2 1818   1.975   0.142   2.578  0.2370  1.9503  0.8492
  607SOL     OW 1819   0.336   1.333   1.161  0.1356  0.1608  0.2459
  607SOL    HW1 1820   0.302   1.383   1.240  1.6840 -0.0626 -1.1528
  607SOL    HW2 1821   0.334   1.228   1.175 -1.7725 -3.3757 -0.0456
  608SOL     OW 1822   0.291   2.557   2.331  0.1381 -0.3324  0.3615
  608SOL    HW1 1823   0.260   2.654   2.347 -1.2653  1.2358 -0.0364
  608SOL    HW2 1824   0.258   2.489   2.401  0.7387 -1.1916  3.8132
  609SOL     OW 1825   1.704   0.724   0.176 -0.2113 -0.2613  0.6876
  609SOL    HW1 1826   1.727   0.628   0.159 -0.5022 -0.4454 -0.3818
  609SOL    HW2 1827   1.655   0.748   0.266 -2.9065  3.9402  0.7561
  610SOL     OW 1828   0.670   2.727   1.333  0.7260 -0.6222  0.1917
  610SOL    HW1 1829   0.768   2.742   1.356 -2.6094  0.4790  1.0342
  610SOL    HW2 1830   0.598   2.757   1.397 -2.4590  0.4580 -1.8402
  611SOL     OW 1831   1.143   0.838   0.358  0.1414 -0.1935  0.3688
  611SOL    HW1 1832   1.182   0.935   0.352  0.9289 -0.1795 -1.8170
  611SOL    HW2 1833   1.094   0.821   0.268 -2.7177  1.1485 -3.1472
  612SOL     OW 1834   1.467   0.837   2.697 -0.1615  0.2925 -0.4931
  612SOL    HW1 1835   1.476   0.883   2.605  0.0840 -3.4581  0.6759
  612SOL    HW2 1836   1.497   0.893   2.779  1.7921 -0.6665 -0.9124
  613SOL     OW 1837   2.140   0.915   0.475 -0.3313 -0.1041  0.2425
  613SOL    HW1 1838   2.079   0.970   0.413  0.7042 -0.4088  1.6880
  613SOL    HW2 1839   2.085   0.857   0.537  1.4388  0.3147  1.3875
  614SOL     OW 1840   2.200   0.214   1.641  0.3266 -0.2786  0.1633
  614SOL    HW1 1841   2.278   0.210   1.708 -0.7476  1.1278 -0.3893
  614SOL    HW2 1842   2.233   0.277   1.569 -0.9095  1.4167 -0.9354
  615SOL     OW 1843   0.938   2.136   0.732 -0.5990  0.0828 -0.1712
  615SOL    HW1 1844   0.932   2.060   0.801 -0.3498 -2.1383 -0.7760
  615SOL    HW2 1845   0.933   2.225   0.776 -0.6339 -2.1542  1.4261
  616SOL     OW 1846   1.532   1.113   2.269 -0.2675 -0.3234  0.6866
  616SOL    HW1 1847   1.567   1.203   2.311 -2.5258  0.3788  0.4532
  616SOL    HW2 1848   1.599   1.091   2.194  3.6505  1.3038  3.7519
  617SOL     OW 1849   1.608   2.969   3.100  0.2389 -0.1338  0.0531
  617SOL    HW1 1850   1.522   2.917   0.006 -0.3106  1.1655  0.4937
  617SOL    HW2 1851   1.623   2.991   3.000  1.1482  0.7574  0.7309
  618SOL     OW 1852   0.963   1.127   2.571  0.5705 -0.0232  0.6733
  618SOL    HW1 1853   0.995   1.107   2.669 -1.6481  0.4457 -2.6949
  618SOL    HW2 1854   0.905   1.046   2.541 -0.9258 -3.2287  0.6049
  619SOL     OW 1855   2.572   1.396   0.937  0.0342 -0.1382 -0.1192
  619SOL    HW1 1856   2.495   1.342   0.979  1.2026  1.6073 -3.1847
  619SOL    HW2 1857   2.657   1.365   0.985 -0.8728  1.1077 -0.1161
  620SOL     OW 1858   2.537   2.531   2.935 -0.0797 -0.3297 -0.3952
  620SOL    HW1 1859   2.600   2.604   2.902  0.0034  2.0282 -1.4970
  620SOL    HW2 1860   2.455   2.561   2.991 -0.7905 -4.0085  0.4590
  621SOL     OW 1861   2.328   1.130   0.297  0.2902 -0.0210  0.7054
  621SOL    HW1 1862   2.265   1.208   0.284 -0.8201  0.2007  0.7271
  621SOL    HW2 1863   2.284   1.062   0.356 -0.9033 -0.3282 -0.3612
  622SOL     OW 1864   1.368   2.482   2.673 -0.0370 -0.4152 -0.3209
  622SOL    HW1 1865   1.337   2.552   2.608  1.6357 -3.4680  0.7324
  622SOL    HW2 1866   1.462   2.502   2.712 -0.3686 -0.7902  1.3596
  623SOL     OW 1867   0.155   2.101   3.094 -0.1828 -0.3228  0.1253
  623SOL    HW1 1868   0.205   2.027   0.027  0.4469  1.6542 -3.5203
  623SOL    HW2 1869   0.067   2.115   0.034  1.3094 -0.5748 -0.9770
  624SOL     OW 1870   0.404   0.127   0.042  0.3418  0.1768  0.2617
  624SOL    HW1 1871   0.475   0.190   0.077  0.1940 -0.0635 -0.3162
  624SOL    HW2 1872   0.422   0.031   0.078  2.0744  0.8357  1.1161
  625SOL     OW 1873   0.805   2.024   3.082 -0.5032 -0.6575 -0.3338
  625SOL    HW1 1874   0.733   2.073   3.032 -0.5583 -2.5225  0.0328
  625SOL    HW2 1875   0.792   1.921   3.083 -0.0934  1.1323  0.6050
  626SOL     OW 1876   2.926   0.653   0.282  0.3484 -0.1862  0.3572
  626SOL    HW1 1877   2.900   0.638   0.184 -2.1674  2.4846 -0.0989
  626SOL    HW2 1878   2.976   0.574   0.319 -3.2898  0.7695 -1.5185
  627SOL     OW 1879   1.477   1.279   2.825 -0.0652  0.0087  0.1884
  627SOL    HW1 1880   1.574   1.264   2.801 -0.9531  0.3608 -3.4309
  627SOL    HW2 1881   1.482   1.343   2.902  1.7268 -0.1691 -1.2176
  628SOL     OW 1882   1.071   1.065   2.810  0.3652  0.9481 -0.0258
  628SOL    HW1 1883   1.122   1.150   2.835  4.1770 -1.0624 -0.3479
  628SOL    HW2 1884   1.128   1.017   2.743 -1.1439  1.5936 -1.8477
  629SOL     OW 1885   0.303   0.118   1.669  0.3234  0.5600 -0.2952
  629SOL    HW1 1886   0.200   0.108   1.651 -2.6815 -1.3708 -1.9361
  629SOL    HW2 1887   0.342   0.203   1.634  0.6766 -1.1459  3.8961
  630SOL     OW 1888   2.502   0.735   2.210  0.5760  0.4948  0.7976
  630SOL    HW1 1889   2.458   0.722   2.115 -0.8044  0.4764 -0.3455
  630SOL    HW2 1890   2.478   0.658   2.274 -1.9722  0.4706  1.2164
  631SOL     OW 1891   2.151   0.515   0.691 -0.1994  0.2321 -0.9443
  631SOL    HW1 1892   2.160   0.411   0.682  1.3782 -1.5035 -1.3172
  631SOL    HW2 1893   2.239   0.557   0.724  0.6730  0.3718 -1.3959
  632SOL     OW 1894   3.040   0.812   1.731  0.6738  0.2338  0.0104
  632SOL    HW1 1895   3.017   0.742   1.660 -2.6954 -2.8371 -2.1405
  632SOL    HW2 1896   0.028   0.839   1.734  1.6654 -1.0229  0.7229
  633SOL     OW 1897   0.901   0.276   2.916  0.1470  0.5894  0.1562
  633SOL    HW1 1898   0.801   0.287   2.947 -0.6581  0.0677  0.2018
  633SOL    HW2 1899   0.934   0.175   2.922  0.7711 -2.4927 -1.7377
  634SOL     OW 1900   0.958   2.498   2.961 -0.1077 -0.2497 -0.4297
  634SOL    HW1 1901   0.973   2.485   3.060 -1.3908  1.2636 -2.3369
  634SOL    HW2 1902   0.930   2.595   2.942 -0.6718  0.2505 -0.2186
  635SOL     OW 1903   2.988   0.422   0.383 -0.0860 -0.2321  0.2806
  635SOL    HW1 1904   3.051   0.449   0.459 -0.1480  0.3262 -1.0015
  635SOL    HW2 1905   2.975   0.322   0.387  0.6678 -1.5104 -1.6831
  636SOL     OW 1906   0.635   1.065   0.331 -0.1181  0.3915  0.1278
  636SOL    HW1 1907   0.602   1.061   0.235  0.5441  1.0214  0.8382
  636SOL    HW2 1908   0.725   1.035   0.367 -1.7819  0.8109  2.1551
  637SOL     OW 1909   0.342   2.659   0.359  0.3261 -0.2557  0.6374
  637SOL    HW1 1910   0.317   2.583   0.295 -0.5700  1.7857  0.2406
  637SOL    HW2 1911   0.318   2.746   0.313  0.6003 -3.3218 -1.3656
  638SOL     OW 1912   0.185   2.588   0.585 -0.1200 -0.4498 -0.5154
  638SOL    HW1 1913   0.247   2.598   0.503  0.7952  1.2050 -0.6326
  638SOL    HW2 1914   0.160   2.494   0.607  0.4110  3.8578 -1.6981
  639SOL     OW 1915   1.470   1.097   0.213  0.0403 -0.2849 -0.1154
  639SOL    HW1 1916   1.512   1.034   0.153 -1.7224  1.6155  2.5298
  639SOL    HW2 1917   1.498   1.189   0.183 -1.0833  0.5376  2.1208
  640SOL     OW 1918   1.589   2.267   1.459 -0.0811 -0.5059 -0.2910
  640SOL    HW1 1919   1.606   2.354   1.516 -0.1849  3.2200 -1.6813
  640SOL    HW2 1920   1.573   2.290   1.362 -1.1141  2.0298  1.5195
  641SOL     OW 1921   2.853   2.572   1.221  0.5430 -0.2255 -0.0964
  641SOL    HW1 1922   2.841   2.672   1.238 -0.1093  0.6708 -1.2136
  641SOL    HW2 1923   2.801   2.528   1.144 -2.6012 -0.3525 -0.4391
  642SOL     OW 1924   0.904   2.994   1.618 -0.2978  0.2765  0.3882
  642SOL    HW1 1925   0.968   2.933   1.670  1.4483  1.3563  2.0269
  642SOL    HW2 1926   0.866   3.066   1.684  2.7390  2.2597  0.2488
  643SOL     OW 1927   0.930   2.328   2.766  0.0221 -0.2540 -0.2243
  643SOL    HW1 1928   0.935   2.404   2.839 -1.1744  2.8257  2.1263
  643SOL    HW2 1929   1.023   2.281   2.755  2.1133 -2.8042 -0.2840
  644SOL     OW 1930   1.263   2.665   0.895  0.0423  0.3972  0.2156
  644SOL    HW1 1931   1.330   2.605   0.850 -2.3986  0.7659 -0.2569
  644SOL    HW2 1932   1.177   2.656   0.836  1.3119  1.9380 -1.7355
  645SOL     OW 1933   1.176   1.420   1.800  0.2543 -0.1156  0.4880
  645SOL    HW1 1934   1.098   1.413   1.729 -2.6449 -1.6832 -0.1658
  645SOL    HW2 1935   1.234   1.335   1.805 -0.8243 -0.4294  1.8722
  646SOL     OW 1936   0.153   0.895   0.108 -0.8789  0.0248  0.2527
  646SOL    HW1 1937   0.184   0.854   0.199  0.4943 -1.9847 -1.9722
  646SOL    HW2 1938   0.079   0.960   0.123 -2.1823 -0.2869 -0.5688
  647SOL     OW 1939   1.195   0.269   0.451 -0.2497 -0.4820  0.5230
  647SOL    HW1 1940   1.208   0.281   0.550  0.3960  0.3892 -2.9199
  647SOL    HW2 1941   1.155   0.355   0.409  0.4284  0.0295 -0.1575
  648SOL     OW 1942   2.067   2.738   1.193 -0.3814  0.1400 -0.4491
  648SOL    HW1 1943   2.102   2.676   1.264 -1.6751 -1.0068  0.9822
  648SOL    HW2 1944   1.967   2.746   1.199 -0.1618 -0.7003 -1.2089
  649SOL     OW 1945   0.491   1.880   2.880  0.2206  0.3879 -0.2180
  649SOL    HW1 1946   0.534   1.948   2.817 -0.0256  1.4447 -0.0979
  649SOL    HW2 1947   0.494   1.917   2.973  1.5998  0.3032 -1.5236
  650SOL     OW 1948   2.374   1.868   1.898 -0.9026  0.0083 -0.0307
  650SOL    HW1 1949   2.276   1.881   1.879  0.1705 -0.4628  1.4617
  650SOL    HW2 1950   2.430   1.846   1.817  0.2655 -1.1955  1.0862
  651SOL     OW 1951   0.075   3.014   3.041 -0.0935  0.6333 -0.4491
  651SOL    HW1 1952   3.092   2.976   3.057  1.9995  1.4877  0.3547
  651SOL    HW2 1953   0.071   3.105   2.998 -0.6566  0.1630 -0.4063
  652SOL     OW 1954   2.550   1.747   0.330 -0.2619  0.0018  0.3313
  652SOL    HW1 1955   2.564   1.723   0.430 -0.9055 -2.4542  2.5614
  652SOL    HW2 1956   2.459   1.791   0.318  0.5750  0.9983 -0.8814
  653SOL     OW 1957   0.142   0.329   1.080  0.4707 -0.1724  0.0956
  653SOL    HW1 1958   0.195   0.316   0.990  4.3357  0.6797 -0.7746
  653SOL    HW2 1959   0.041   0.343   1.060 -1.4521  1.7994  0.7177
  654SOL     OW 1960   0.981   0.030   0.388  0.1162 -0.1715  0.2995
  654SOL    HW1 1961   1.075   0.053   0.396  1.1308 -0.7285  1.1813
  654SOL    HW2 1962   0.937   0.054   0.298 -2.2720  0.6276 -0.2020
  655SOL     OW 1963   0.335   2.782   1.288 -0.3472 -0.1984  0.5496
  655SOL    HW1 1964   0.280   2.806   1.371 -1.6922  1.9475  1.3072
  655SOL    HW2 1965   0.375   2.688   1.292  0.2684 -2.3422 -2.8271
  656SOL     OW 1966   0.068   3.004   2.271  0.2706  0.0568  0.4689
  656SOL    HW1 1967   0.131   3.077   2.231 -0.8325  2.2370  1.0329
  656SOL    HW2 1968   3.080   3.019   2.242  1.2427  0.9975 -0.1929
  657SOL     OW 1969   1.845   0.464   2.440  0.3677 -0.1724 -0.0712
  657SOL    HW1 1970   1.884   0.458   2.530 -1.2894 -1.9574 -1.9192
  657SOL    HW2 1971   1.912   0.506   2.377 -1.2549  0.9100 -0.1711
  658SOL     OW 1972   1.713   1.509   1.191  0.0429 -0.6498  0.5794
  658SOL    HW1 1973   1.674   1.427   1.233  0.9802 -2.0430 -0.6582
  658SOL    HW2 1974   1.733   1.576   1.265 -0.2527  0.3031 -1.0635
  659SOL     OW 1975   2.688   2.723   2.841 -0.1953  0.7031  0.1123
  659SOL    HW1 1976   2.728   2.785   2.774  3.0303  0.6431 -0.3738
  659SOL    HW2 1977   2.758   2.694   2.915  1.1773 -1.0906  1.7078
  660SOL     OW 1978   1.258   0.893   0.012  0.3857 -0.1040  0.0631
  660SOL    HW1 1979   1.180   0.830   0.032  0.4212  2.2842 -1.2819
  660SOL    HW2 1980   1.227   0.993   0.006 -1.8659  1.9271 -2.3022
  661SOL     OW 1981   2.551   3.049   0.714 -0.7741 -0.0375 -0.3761
  661SOL    HW1 1982   2.637   2.996   0.691 -1.4265  3.0138 -1.7432
  661SOL    HW2 1983   2.550   3.085   0.808 -1.3326 -1.8323  1.0188
  662SOL     OW 1984   0.669   0.496   1.060 -0.4843 -0.3187 -0.1340
  662SOL    HW1 1985   0.607   0.525   1.131 -0.1087 -4.3755 -1.1968
  662SOL    HW2 1986   0.631   0.414   1.008  0.1267 -1.4571 -3.1149
  663SOL     OW 1987   1.441   2.521   2.258  0.4182  0.1986 -0.4216
  663SOL    HW1 1988   1.348   2.481   2.263  1.3057 -1.4450 -0.6468
  663SOL    HW2 1989   1.448   2.579   2.171 -0.0537  1.2466 -1.1593
  664SOL     OW 1990   0.558   2.322   1.398  0.5558 -0.2957 -0.2103
  664SOL    HW1 1991   0.651   2.351   1.392 -3.9177 -0.7084  0.3245
  664SOL    HW2 1992   0.553   2.219   1.421 -1.1795  1.1746  0.2138
  665SOL     OW 1993   1.160   2.102   1.670  0.2550  0.4930  0.1002
  665SOL    HW1 1994   1.082   2.163   1.632  0.4276  0.0022 -1.7050
  665SOL    HW2 1995   1.214   2.064   1.591  2.5159  0.7755  0.8415
  666SOL     OW 1996   0.463   2.799   2.807 -0.2307  0.2390  0.4005
  666SOL    HW1 1997   0.468   2.845   2.717 -0.9854  1.1073 -0.1170
  666SOL    HW2 1998   0.435   2.703   2.794 -0.8808  0.1106 -0.3517
  667SOL     OW 1999   1.311   1.726   1.122  0.0849 -0.5656  0.0537
  667SOL    HW1 2000   1.335   1.631   1.095 -0.8086  1.1837  1.4323
  667SOL    HW2 2001   1.276   1.725   1.214  0.0526 -1.0945 -2.3255
  668SOL     OW 2002   1.151   0.249   2.401  0.2147  0.3207 -0.3592
  668SOL    HW1 2003   1.068   0.286   2.442 -2.2838 -2.1211 -2.3969
  668SOL    HW2 2004   1.155   0.147   2.413 -1.1297 -0.3609  2.8507
  669SOL     OW 2005   2.128   2.323   1.619  0.5487  0.0390  0.1333
  669SOL    HW1 2006   2.078   2.239   1.644 -1.1926 -1.9979 -1.1804
  669SOL    HW2 2007   2.189   2.312   1.536  1.8949  0.1635 -1.1203
  670SOL     OW 2008   1.906   1.943   0.221 -0.1442 -0.0426 -0.4514
  670SOL    HW1 2009   1.970   2.002   0.274 -1.0645 -0.7023  0.4268
  670SOL    HW2 2010   1.930   1.935   0.124  0.9967 -0.8049 -0.3760
  671SOL     OW 2011   1.349   1.104   0.833  0.0771 -0.7014 -0.2122
  671SOL    HW1 2012   1.428   1.057   0.787 -0.1998 -1.3352 -2.3933
  671SOL    HW2 2013   1.358   1.205   0.816  0.2504  0.0282 -1.0760
  672SOL     OW 2014   2.454   1.137   2.330  0.7666  0.0693 -0.0233
  672SOL    HW1 2015   2.417   1.103   2.243 -2.2354  1.0917 -0.0702
  672SOL    HW2 2016   2.533   1.086   2.364 -2.8493  0.0677 -2.1429
  673SOL     OW 2017   2.932   1.586   2.157 -0.2679  0.1246 -0.1916
  673SOL    HW1 2018   3.010   1.645   2.125 -0.7660  1.0559 -0.9659
  673SOL    HW2 2019   2.874   1.651   2.209  0.2799  1.9614 -0.6754
  674SOL     OW 2020   1.001   2.513   2.462  0.0197  0.2037  0.1941
  674SOL    HW1 2021   0.932   2.590   2.472  1.6801 -0.6350  0.7206
  674SOL    HW2 2022   0.962   2.420   2.485  0.3569 -1.2228 -1.6696
  675SOL     OW 2023   0.861   1.227   1.674 -0.0255  0.4522  0.0248
  675SOL    HW1 2024   0.919   1.149   1.697 -0.6824 -0.2524 -1.8699
  675SOL    HW2 2025   0.920   1.298   1.627  0.0259  2.0529  0.6230
  676SOL     OW 2026   2.376   0.643   0.796  0.1835 -0.5383  0.0460
  676SOL    HW1 2027   2.432   0.710   0.739 -0.5335  0.7586 -3.6766
  676SOL    HW2 2028   2.430   0.560   0.818 -0.6701 -0.5805  0.5023
  677SOL     OW 2029   2.635   1.327   2.609 -0.2656  0.0100 -0.0533
  677SOL    HW1 2030   2.726   1.313   2.651  0.4904 -0.4099 -2.3961
  677SOL    HW2 2031   2.570   1.394   2.664  0.9431 -1.2565  1.3573
  678SOL     OW 2032   3.016   0.020   1.065 -0.1790 -0.1620 -0.4881
  678SOL    HW1 2033   2.962   3.040   1.064 -0.2394  1.7026  0.5829
  678SOL    HW2 2034   3.019   0.060   1.161  4.4139 -0.6464  1.4089
  679SOL     OW 2035   2.364   0.208   0.339 -0.4013 -0.1226 -0.7154
  679SOL    HW1 2036   2.434   0.227   0.264  2.3662 -2.8761 -1.2064
  679SOL    HW2 2037   2.396   0.121   0.380  3.6004  2.0418  0.6236
  680SOL     OW 2038   0.192   2.416   2.120  0.5995 -0.1909  0.1377
  680SOL    HW1 2039   0.244   2.430   2.033  2.0552  1.1184  1.5717
  680SOL    HW2 2040   0.238   2.463   2.195 -0.2470 -1.5427 -3.6552
  681SOL     OW 2041   2.274   1.704   1.499 -0.3616 -0.2480 -0.2617
  681SOL    HW1 2042   2.195   1.767   1.503  0.2579 -2.0255 -1.9606
  681SOL    HW2 2043   2.300   1.683   1.401 -0.6764  1.5882  3.2166
  682SOL     OW 2044   0.108   2.156   2.118  0.2123 -0.0891 -0.2999
  682SOL    HW1 2045   0.120   2.112   2.022  2.2461  1.9173 -1.6751
  682SOL    HW2 2046   0.147   2.248   2.110  1.8471  0.3281 -1.5395
  683SOL     OW 2047   2.988   2.158   1.337 -0.0877  0.9007  0.0255
  683SOL    HW1 2048   2.922   2.082   1.350 -0.5387  0.0752 -0.1374
  683SOL    HW2 2049   2.948   2.250   1.355  1.4803  0.5917 -0.2908
  684SOL     OW 2050   2.183   0.954   2.300 -0.1130  0.1370 -0.1130
  684SOL    HW1 2051   2.165   1.046   2.338  1.9684  0.5651 -2.4230
  684SOL    HW2 2052   2.226   0.967   2.206 -1.2230  0.0173 -0.4653
  685SOL     OW 2053   1.644   1.330   0.557 -0.4857  0.6326 -0.3107
  685SOL    HW1 2054   1.553   1.313   0.602 -1.8444 -0.7098 -1.7183
  685SOL    HW2 2055   1.717   1.338   0.629  2.4808 -0.1996 -1.1833
  686SOL     OW 2056   0.547   0.013   0.791 -0.0616 -0.0962 -0.0331
  686SOL    HW1 2057   0.579   3.097   0.885 -2.0416 -0.5282 -0.7448
  686SOL    HW2 2058   0.583   0.101   0.761  2.3679  0.6305  2.9291
  687SOL     OW 2059   1.594   1.318   2.415 -0.2704  0.2568  0.1586
  687SOL    HW1 2060   1.667   1.319   2.486  1.4893  0.6665  0.0085
  687SOL    HW2 2061   1.507   1.283   2.447 -0.7886 -2.0898 -0.3530
  688SOL     OW 2062   1.257   1.714   1.383 -0.2250 -0.3857 -0.0379
  688SOL    HW1 2063   1.166   1.673   1.367  1.2763 -1.7322  0.3517
  688SOL    HW2 2064   1.306   1.663   1.458 -0.4987  0.6707  1.7770
  689SOL     OW 2065   2.088   0.334   1.289  0.5961  0.5793 -0.3370
  689SOL    HW1 2066   2.114   0.346   1.190  1.4546  0.4627  0.4614
  689SOL    HW2 2067   2.163   0.352   1.353  2.9494  1.1843 -2.9069
  690SOL     OW 2068   0.244   1.666   1.195 -0.2492  0.0890  0.2457
  690SOL    HW1 2069   0.285   1.722   1.118 -0.4352  0.7673  0.0497
  690SOL    HW2 2070   0.159   1.610   1.164 -0.2963 -2.5110  0.6321
  691SOL     OW 2071   0.394   2.536   1.098  0.1624 -0.0422 -0.1975
  691SOL    HW1 2072   0.492   2.555   1.130  0.7623  0.1161  0.4500
  691SOL    HW2 2073   0.387   2.564   0.999  2.0323 -0.8303  0.3697
  692SOL     OW 2074   2.171   0.445   1.854 -0.1320  0.2520 -0.2899
  692SOL    HW1 2075   2.195   0.367   1.913  0.1335  1.4835  0.6301
  692SOL    HW2 2076   2.210   0.425   1.766 -0.4131  0.7401  0.8903
  693SOL     OW 2077   0.444   2.082   2.012 -0.0066 -0.6479  0.2671
  693SOL    HW1 2078   0.472   2.019   1.938  1.9779  0.2000 -1.0124
  693SOL    HW2 2079   0.435   2.029   2.096 -0.6479  2.6961 -1.7736
  694SOL     OW 2080   1.583   1.020   1.659  0.2445 -0.0413  0.5595
  694SOL    HW1 2081   1.612   0.932   1.619 -0.0011  0.3688  2.9209
  694SOL    HW2 2082   1.516   1.069   1.598 -2.0762  0.4659  0.3934
  695SOL     OW 2083   0.671   1.086   0.717  0.3253 -0.2176  0.7281
  695SOL    HW1 2084   0.714   1.147   0.785 -0.9698  0.2804 -0.2372
  695SOL    HW2 2085   0.624   1.148   0.648  4.1208  1.9599  1.7493
  696SOL     OW 2086   1.176   3.106   0.731 -0.1066 -0.2661  0.4213
  696SOL    HW1 2087   1.221   3.054   0.660  0.8007  5.0170  2.5996
  696SOL    HW2 2088   1.222   0.088   0.731  0.2265 -0.7083 -3.1868
  697SOL     OW 2089   1.398   0.353   1.723  0.3744 -0.4858  0.1929
  697SOL    HW1 2090   1.434   0.346   1.818 -0.5896 -2.2690 -0.7772
  697SOL    HW2 2091   1.371   0.258   1.693 -0.3388  1.7929  0.3672
  698SOL     OW 2092   1.895   1.170   2.165 -0.1171 -0.3655  0.3489
  698SOL    HW1 2093   1.996   1.173   2.148 -0.1151  1.1652 -1.5506
  698SOL    HW2 2094   1.871   1.261   2.214 -2.9970  2.9819  0.6232
  699SOL     OW 2095   2.293   0.379   1.453 -0.1330  0.3797  0.0764
  699SOL    HW1 2096   2.316   0.446   1.526 -1.0573 -3.1745  0.0882
  699SOL    HW2 2097   2.378   0.347   1.407  0.0725  1.2310 -0.0729
  700SOL     OW 2098   1.127   2.186   0.347 -0.1200 -0.0122  0.0829
  700SOL    HW1 2099   1.069   2.130   0.283  0.0068  1.2597 -2.1784
  700SOL    HW2 2100   1.138   2.146   0.439 -0.9608  0.7355  0.7870
  701SOL     OW 2101   2.240   2.937   2.749 -0.1713 -0.0107  0.5343
  701SOL    HW1 2102   2.287   2.880   2.676  1.6242 -0.5034 -2.7218
  701SOL    HW2 2103   2.165   2.890   2.798  2.6718  1.3075  0.0782
  702SOL     OW 2104   0.965   0.004   1.238  0.2259  0.4465 -0.0741
  702SOL    HW1 2105   0.896   3.046   1.263  1.8778  1.1800 -0.9786
  702SOL    HW2 2106   0.938   0.053   1.152 -0.2875 -0.4595  0.2897
  703SOL     OW 2107   2.574   0.084   2.195  0.3553  0.7393 -0.0497
  703SOL    HW1 2108   2.484   0.109   2.241 -2.7512  1.2870  1.5573
  703SOL    HW2 2109   2.600   3.095   2.207  0.6619  0.3990 -0.1164
  704SOL     OW 2110   3.049   2.315   0.346 -0.0214 -0.6855  0.3666
  704SOL    HW1 2111   3.098   2.225   0.374  2.2542 -3.9719  2.6031
  704SOL    HW2 2112   0.008   2.382   0.304  1.0367  1.2912 -2.8566
  705SOL     OW 2113   2.657   2.946   2.260 -0.5998  0.0055  0.0601
  705SOL    HW1 2114   2.559   2.926   2.270  0.7781  0.3510  1.3898
  705SOL    HW2 2115   2.714   2.858   2.254  2.4621 -2.0720 -0.7221
  706SOL     OW 2116   2.220   2.963   1.203 -0.3606  0.1745 -0.1298
  706SOL    HW1 2117   2.167   2.880   1.173  1.3051  0.4336 -0.0584
  706SOL    HW2 2118   2.276   2.942   1.286 -0.3044  0.1678  2.3768
  707SOL     OW 2119   0.956   2.892   2.316 -0.5472  0.0048 -0.2115
  707SOL    HW1 2120   0.936   2.806   2.268 -1.0048 -0.6658 -0.4049
  707SOL    HW2 2121   0.872   2.954   2.314  0.7039  1.8829 -1.5759
  708SOL     OW 2122   2.835   2.160   1.727 -0.4123 -0.4464  0.0320
  708SOL    HW1 2123   2.877   2.159   1.822  2.8886  1.4090 -1.0020
  708SOL    HW2 2124   2.892   2.109   1.658 -0.4798  0.9484  0.5989
  709SOL     OW 2125   1.574   0.594   1.345 -0.3076 -0.3760  0.0967
  709SOL    HW1 2126   1.553   0.643   1.257  0.8150  1.6699 -2.3075
  709SOL    HW2 2127   1.669   0.550   1.340  2.2545  0.4223 -0.4330
  710SOL     OW 2128   1.037   3.029   2.680 -0.5749 -0.5010  0.1010
  710SOL    HW1 2129   1.092   2.944   2.693  0.3298 -1.4715  1.2812
  710SOL    HW2 2130   1.039   3.066   2.583 -0.6498  1.7621 -3.1076
  711SOL     OW 2131   0.715   1.864   2.564  0.8742 -0.3527 -0.4503
  711SOL    HW1 2132   0.683   1.948   2.610  0.9251 -0.7185  0.7600
  711SOL    HW2 2133   0.731   1.797   2.644  0.2277 -1.6370  0.9758
  712SOL     OW 2134   1.097   2.137   2.975 -0.0140 -0.0624  0.0207
  712SOL    HW1 2135   0.996   2.154   2.969 -2.0835  0.6701 -0.5060
  712SOL    HW2 2136   1.142   2.143   2.884  0.8905 -1.3147  0.5261
  713SOL     OW 2137   1.944   0.790   2.274  0.1827  0.4049 -0.0198
  713SOL    HW1 2138   2.018   0.863   2.267  0.3096  2.8167  1.1632
  713SOL    HW2 2139   1.978   0.699   2.299  1.4279 -1.1661 -0.1691
  714SOL     OW 2140   1.024   1.722   1.635 -0.1315  0.8773  0.1774
  714SOL    HW1 2141   1.096   1.749   1.703 -1.8334  2.6413  2.1505
  714SOL    HW2 2142   0.982   1.807   1.603  0.2862 -1.6200 -0.0647
  715SOL     OW 2143   2.107   0.421   3.025  0.5635  0.2752  0.2079
  715SOL    HW1 2144   2.158   0.471   3.095 -1.2421 -3.0549 -1.7722
  715SOL    HW2 2145   2.122   0.323   3.040 -1.2069  1.4685 -0.3785
  716SOL     OW 2146   2.814   2.371   1.406  0.0574  0.0715 -0.5944
  716SOL    HW1 2147   2.793   2.385   1.510  1.3324 -1.0543  1.7014
  716SOL    HW2 2148   2.812   2.457   1.353  2.4748 -2.5042  2.0201
  717SOL     OW 2149   2.705   1.035   1.019 -0.1956  0.2788 -0.6026
  717SOL    HW1 2150   2.607   1.029   1.028  2.6053 -2.5002 -0.1410
  717SOL    HW2 2151   2.723   1.014   0.924 -1.4644 -0.2335  1.1727
  718SOL     OW 2152   1.380   1.589   1.620  0.7256  0.1695 -0.0965
  718SOL    HW1 2153   1.472   1.549   1.616  0.0801 -0.7640 -0.1163
  718SOL    HW2 2154   1.349   1.578   1.717  1.0615 -1.4544  1.6808
  719SOL     OW 2155   2.876   0.584   0.014  0.2244  0.5846  0.2468
  719SOL    HW1 2156   2.820   0.667   3.097 -1.3826 -1.5907 -1.7866
  719SOL    HW2 2157   2.841   0.493   3.090  2.6762  1.3496 -1.3707
  720SOL     OW 2158   0.899   0.167   1.034  0.5881 -0.1278 -0.2012
  720SOL    HW1 2159   0.989   0.216   1.051  0.5630 -0.8838  1.4894
  720SOL    HW2 2160   0.888   0.155   0.934 -2.0857  0.0414  2.8973
  721SOL     OW 2161   2.574   0.789   0.700 -0.7199 -0.5008  0.0283
  721SOL    HW1 2162   2.638   0.736   0.639 -0.2169 -0.6701  1.0252
  721SOL    HW2 2163   2.637   0.855   0.745  1.2075  2.8970  0.7741
  722SOL     OW 2164   0.613   2.575   2.544 -0.4088  0.5709  0.1549
  722SOL    HW1 2165   0.698   2.635   2.534  1.8648 -1.5439 -2.0805
  722SOL    HW2 2166   0.590   2.531   2.454 -0.8205 -2.8141 -2.3235
  723SOL     OW 2167   1.840   0.407   0.629  0.1508 -0.1660  0.5090
  723SOL    HW1 2168   1.918   0.396   0.690 -1.1755 -2.1566  0.4431
  723SOL    HW2 2169   1.804   0.311   0.607 -0.3843 -1.2366 -1.7561
  724SOL     OW 2170   1.062   1.899   2.331 -0.0494 -0.2545 -0.0625
  724SOL    HW1 2171   0.977   1.953   2.362 -0.1365  0.7341 -1.7508
  724SOL    HW2 2172   1.052   1.867   2.237  1.0608 -0.0615  1.1359
  725SOL     OW 2173   1.569   3.008   1.526 -0.0977 -0.0331 -0.1117
  725SOL    HW1 2174   1.549   3.014   1.624 -1.4422  1.6350 -0.7748
  725SOL    HW2 2175   1.640   2.942   1.510 -1.6232  0.8451 -2.6215
  726SOL     OW 2176   2.474   2.703   0.184 -0.1152 -0.0158  0.3140
  726SOL    HW1 2177   2.547   2.770   0.154  2.9067  1.4448  1.3143
  726SOL    HW2 2178   2.510   2.610   0.209  2.3922  0.2212  0.8491
  727SOL     OW 2179   1.306   2.103   0.940  0.3869 -0.1854 -0.0739
  727SOL    HW1 2180   1.371   2.065   0.875  3.2191  2.2639  1.3825
  727SOL    HW2 2181   1.306   2.204   0.936  1.6533 -1.8288 -0.2781
  728SOL     OW 2182   2.316   2.750   2.511  0.0497  0.1634  0.1028
  728SOL    HW1 2183   2.347   2.789   2.420  0.4911 -1.5586 -2.9054
  728SOL    HW2 2184   2.216   2.757   2.516  3.2541 -0.7810 -0.9041
  729SOL     OW 2185   1.830   2.175   1.283  0.4868  0.8771 -0.0248
  729SOL    HW1 2186   1.886   2.254   1.248 -2.1201 -1.2384  0.8984
  729SOL    HW2 2187   1.764   2.208   1.355  1.0798  1.4664  0.2941
  730SOL     OW 2188   1.643   0.616   2.757 -0.2659 -0.0700  0.0939
  730SOL    HW1 2189   1.574   0.690   2.763 -0.5519  1.0298 -1.2845
  730SOL    HW2 2190   1.730   0.667   2.744  0.8620  0.2568  0.7502
  731SOL     OW 2191   0.692   0.355   1.441 -0.2709  0.2030 -0.1569
  731SOL    HW1 2192   0.787   0.394   1.445 -0.3625  1.7349  0.2283
  731SOL    HW2 2193   0.689   0.258   1.480  0.7943 -2.8133  1.2176
  732SOL     OW 2194   1.296   0.242   0.779 -0.4270 -0.1151  0.0181
  732SOL    HW1 2195   1.218   0.262   0.841  0.6513  1.3927  0.7080
  732SOL    HW2 2196   1.368   0.315   0.777  1.4063  2.4820 -0.1230
  733SOL     OW 2197   0.854   1.378   0.831  0.4578  0.3293 -0.1806
  733SOL    HW1 2198   0.930   1.312   0.800  1.4186 -0.3425  1.2589
  733SOL    HW2 2199   0.838   1.370   0.928 -2.0935  0.1771 -1.8256
  734SOL     OW 2200   2.772   2.894   2.656 -0.2649 -0.8512 -0.1350
  734SOL    HW1 2201   2.690   2.912   2.602  0.9959 -2.1568 -2.7937
  734SOL    HW2 2202   2.848   2.850   2.605 -1.6682 -0.3871 -0.9674
  735SOL     OW 2203   0.581   0.034   1.459  0.0249  0.3639  0.2233
  735SOL    HW1 2204   0.671   0.010   1.498 -1.5311 -0.9061 -1.2823
  735SOL    HW2 2205   0.521   3.056   1.454 -0.4177 -2.1949  1.3531
  736SOL     OW 2206   1.746   1.889   2.978  0.2657  0.3667  0.2355
  736SOL    HW1 2207   1.672   1.941   3.024  1.1419  2.8822 -1.7513
  736SOL    HW2 2208   1.837   1.911   3.013 -0.3570 -2.3267  1.3732
  737SOL     OW 2209   0.161   2.136   1.391 -0.4925 -0.1209  0.0296
  737SOL    HW1 2210   0.212   2.107   1.307  1.6635  0.8679  2.7485
  737SOL    HW2 2211   0.059   2.138   1.378  0.1898  0.0867 -0.4661
  738SOL     OW 2212   1.850   2.691   2.947 -0.1596 -0.8938 -0.1580
  738SOL    HW1 2213   1.751   2.715   2.934 -0.5274  0.1829 -1.0398
  738SOL    HW2 2214   1.863   2.663   3.042  2.1736 -1.2250 -3.8980
  739SOL     OW 2215   1.203   2.165   2.325  0.0126  0.4798 -0.5718
  739SOL    HW1 2216   1.268   2.166   2.404 -1.7362  1.3442  0.0074
  739SOL    HW2 2217   1.147   2.079   2.331 -0.0072 -2.3653 -2.0876
  740SOL     OW 2218   1.196   2.794   1.390 -0.4553  0.5324  0.4222
  740SOL    HW1 2219   1.240   2.739   1.314  0.9046  0.2281 -0.6214
  740SOL    HW2 2220   1.230   2.889   1.371 -0.1437 -1.6098 -1.7186
  741SOL     OW 2221   2.743   1.002   0.178  0.2784 -0.3153  0.3265
  741SOL    HW1 2222   2.691   0.975   0.258  1.4433 -0.4189 -1.8887
  741SOL    HW2 2223   2.704   1.086   0.129  0.6744  1.8225  0.0136
  742SOL     OW 2224   0.977   1.625   2.409  0.2700 -0.1362  0.8289
  742SOL    HW1 2225   1.072   1.599   2.379 -2.0934  0.2478  1.9829
  742SOL    HW2 2226   0.964   1.722   2.389  0.0487 -1.3180 -0.4545
  743SOL     OW 2227   0.847   0.928   2.414 -0.2389  0.4100  0.1652
  743SOL    HW1 2228   0.771   0.926   2.488 -2.4363  0.1864 -0.1471
  743SOL    HW2 2229   0.881   0.834   2.390  1.0115  0.3174  0.4612
  744SOL     OW 2230   2.110   2.663   1.586  0.1001 -0.3363  0.1075
  744SOL    HW1 2231   2.107   2.634   1.686 -0.2344  1.9032  2.2246
  744SOL    HW2 2232   2.131   2.767   1.584 -0.2966  1.6558 -0.5343
  745SOL     OW 2233   1.572   1.283   1.350 -0.4375  0.2287  0.0330
  745SOL    HW1 2234   1.501   1.328   1.412  0.8430 -1.1210 -0.8992
  745SOL    HW2 2235   1.651   1.244   1.408 -2.8694 -2.6530  0.4751
  746SOL     OW 2236   1.829   0.860   0.836 -0.8101  0.0399 -0.0247
  746SOL    HW1 2237   1.799   0.947   0.881  0.9105 -1.9078 -2.4793
  746SOL    HW2 2238   1.868   0.796   0.911  0.2296 -0.4905 -0.1989
  747SOL     OW 2239   2.111   1.741   0.948 -1.0619  0.3565  0.4159
  747SOL    HW1 2240   2.186   1.709   0.882  0.6377  1.3845  2.8411
  747SOL    HW2 2241   2.033   1.763   0.883 -2.9335  1.8734 -2.7002
  748SOL     OW 2242   0.535   1.653   0.306  0.1976  0.7774 -0.1403
  748SOL    HW1 2243   0.463   1.719   0.337 -4.0266 -0.6540 -0.3083
  748SOL    HW2 2244   0.618   1.703   0.270  0.6198  1.3490  2.3024
  749SOL     OW 2245   0.186   2.440   2.559 -0.1319  0.9688 -0.0540
  749SOL    HW1 2246   0.201   2.341   2.548  0.3389  2.0978 -0.8773
  749SOL    HW2 2247   0.097   2.465   2.601  0.5493 -1.3632  1.1125
  750SOL     OW 2248   1.957   0.784   1.096  0.1476  0.5121  0.0797
  750SOL    HW1 2249   1.981   0.725   1.174 -2.9858  0.9302 -0.5698
  750SOL    HW2 2250   1.952   0.881   1.129 -0.2445 -0.5060 -0.2181
  751SOL     OW 2251   2.505   3.033   0.359  0.3476  0.1911  0.0499
  751SOL    HW1 2252   2.531   3.040   0.258  2.1111  3.0392 -0.1412
  751SOL    HW2 2253   2.579   2.995   0.417 -1.8952  1.6281 -2.7348
  752SOL     OW 2254   2.500   2.399   0.468 -0.3799 -0.3559  0.3266
  752SOL    HW1 2255   2.462   2.489   0.508  1.2731  1.8814 -0.0198
  752SOL    HW2 2256   2.554   2.349   0.539 -1.8583 -0.2403 -0.1381
  753SOL     OW 2257   1.957   1.576   2.594  0.1863 -0.2243  0.1914
  753SOL    HW1 2258   2.002   1.511   2.661  2.9485 -2.0677  1.2042
  753SOL    HW2 2259   2.020   1.632   2.537  0.9612 -0.3190  0.4130
  754SOL     OW 2260   2.263   2.281   1.377  0.8083 -0.5223  0.0331
  754SOL    HW1 2261   2.240   2.185   1.359 -4.3485 -0.3431 -1.9055
  754SOL    HW2 2262   2.363   2.295   1.372  3.2771  2.5464  0.3629
  755SOL     OW 2263   2.259   0.788   1.018 -0.0466  0.5858 -0.5377
  755SOL    HW1 2264   2.158   0.791   1.019  0.5519 -1.7375  3.0818
  755SOL    HW2 2265   2.293   0.766   0.923 -0.9351 -2.1141 -0.6565
  756SOL     OW 2266   1.177   1.530   2.657 -0.4152 -0.3279  0.1751
  756SOL    HW1 2267   1.132   1.456   2.601  1.3371 -1.8206 -1.1090
  756SOL    HW2 2268   1.188   1.616   2.597  0.5162  1.8217 -1.5171
  757SOL     OW 2269   1.729   2.605   1.104  0.0566  0.3504  0.2125
  757SOL    HW1 2270   1.788   2.688   1.117 -1.9042  1.9796  0.2110
  757SOL    HW2 2271   1.670   2.612   1.025  0.1536 -0.4268  0.6811
  758SOL     OW 2272   0.823   2.383   1.331 -0.0939 -0.5201 -0.1083
  758SOL    HW1 2273   0.913   2.387   1.286 -0.3341  1.1430  0.3261
  758SOL    HW2 2274   0.756   2.436   1.277 -1.7485 -1.0734  0.2591
  759SOL     OW 2275   1.951   1.271   1.090  0.3148 -0.4390 -0.1242
  759SOL    HW1 2276   1.935   1.331   1.173  2.1500  1.1590  0.8668
  759SOL    HW2 2277   2.031   1.312   1.039 -1.0806  0.8236 -1.2225
  760SOL     OW 2278   2.198   1.032   1.421  0.1363  0.4972  0.5145
  760SOL    HW1 2279   2.175   1.096   1.344 -0.1129  0.9824 -2.4255
  760SOL    HW2 2280   2.152   1.056   1.503 -0.6571 -1.8765 -1.5137
  761SOL     OW 2281   2.256   2.730   0.332 -0.5443 -0.3095 -0.2789
  761SOL    HW1 2282   2.250   2.827   0.367  0.1954 -0.3470 -0.6952
  761SOL    HW2 2283   2.339   2.708   0.274 -0.2755 -0.9760  0.5050
  762SOL     OW 2284   2.032   1.525   2.888 -0.3409 -0.3425 -0.0108
  762SOL    HW1 2285   2.077   1.619   2.891  0.1224  0.2465  0.6405
  762SOL    HW2 2286   1.933   1.530   2.879  0.4717  0.1476  2.0160
  763SOL     OW 2287   0.414   1.630   1.397 -0.5885 -0.4554  0.1752
  763SOL    HW1 2288   0.354   1.644   1.318  0.1892  2.6976 -0.1732
  763SOL    HW2 2289   0.414   1.709   1.461 -0.0142 -0.7059 -0.2977
  764SOL     OW 2290   3.056   2.413   3.030 -0.2490 -0.5361 -0.0451
  764SOL    HW1 2291   3.056   2.327   3.085 -2.4500  3.2293 -0.1513
  764SOL    HW2 2292   0.040   2.448   3.010 -0.8157  1.5995 -0.8890
  765SOL     OW 2293   0.655   0.031   1.854  0.2775  0.3444 -0.1357
  765SOL    HW1 2294   0.720   0.110   1.847  0.7236  1.4846 -2.6831
  765SOL    HW2 2295   0.584   0.045   1.923  1.1144  1.3970 -0.7606
  766SOL     OW 2296   0.133   2.018   2.369 -0.0517  0.5342 -0.5927
  766SOL    HW1 2297   0.086   2.063   2.288 -1.6541 -2.2575 -0.9405
  766SOL    HW2 2298   0.080   1.933   2.397 -0.8347  0.6121  0.0539
  767SOL     OW 2299   3.039   1.353   1.852  0.2636  0.2954 -0.1888
  767SOL    HW1 2300   3.001   1.288   1.917 -0.1608 -1.3545 -1.6892
  767SOL    HW2 2301   2.970   1.431   1.847  1.5531  0.7289  1.1781
  768SOL     OW 2302   0.994   0.472   2.774 -0.4046 -0.3941  0.5927
  768SOL    HW1 2303   0.965   0.386   2.823 -0.0633 -1.4570 -0.0530
  768SOL    HW2 2304   1.063   0.522   2.834  1.4796  1.8825  0.7086
  769SOL     OW 2305   2.215   2.387   0.682 -0.0046 -0.6420 -0.0653
  769SOL    HW1 2306   2.276   2.320   0.729 -4.4039  0.0361 -0.1503
  769SOL    HW2 2307   2.259   2.475   0.670 -1.0898  1.8858 -2.5513
  770SOL     OW 2308   2.805   0.348   3.030 -0.3660  0.2440  0.1731
  770SOL    HW1 2309   2.855   0.278   3.086  1.2983 -1.0855  0.3970
  770SOL    HW2 2310   2.754   0.308   2.951 -1.7994 -1.1056  0.6821
  771SOL     OW 2311   1.771   2.127   1.834 -0.1906  0.1768 -0.4958
  771SOL    HW1 2312   1.855   2.124   1.775  1.2694 -1.1916  2.3714
  771SOL    HW2 2313   1.697   2.059   1.799 -1.1501 -1.9025  0.2124
  772SOL     OW 2314   0.906   0.297   2.526  0.1856 -0.7294  0.1127
  772SOL    HW1 2315   0.802   0.277   2.545 -2.9072  0.8126  1.1032
  772SOL    HW2 2316   0.943   0.357   2.600 -0.8301 -1.0795  1.2521
  773SOL     OW 2317   2.891   1.019   1.823  0.5194 -0.1252  0.2925
  773SOL    HW1 2318   2.956   0.948   1.790  0.5100 -0.4859  0.5659
  773SOL    HW2 2319   2.926   1.041   1.917  1.7863  0.2642  3.5060
  774SOL     OW 2320   1.223   1.086   0.353 -0.0404 -0.0634 -0.4324
  774SOL    HW1 2321   1.140   1.109   0.297  1.0414 -0.9042 -0.6478
  774SOL    HW2 2322   1.302   1.066   0.296 -2.3009  2.5895  0.4851
  775SOL     OW 2323   2.650   3.083   0.112 -0.0185  0.3080 -0.0713
  775SOL    HW1 2324   2.610   0.064   0.097  2.1347  1.8552 -1.1989
  775SOL    HW2 2325   2.629   3.017   0.039 -2.7441  1.9089  0.1760
  776SOL     OW 2326   2.359   0.988   2.111 -0.1903  0.3167  0.0962
  776SOL    HW1 2327   2.360   1.000   2.007  0.2781 -0.0750 -2.6491
  776SOL    HW2 2328   2.425   0.918   2.146  0.1800 -1.3046  0.6727
  777SOL     OW 2329   0.033   1.062   2.430  0.0977 -0.0845  0.0272
  777SOL    HW1 2330   0.011   0.973   2.478 -1.7008 -1.5148  2.5591
  777SOL    HW2 2331   3.061   1.125   2.423 -3.1682  2.4610 -1.0008
  778SOL     OW 2332   0.707   0.315   0.508  0.0043 -0.1001  0.4068
  778SOL    HW1 2333   0.782   0.349   0.446  0.7110  0.5802 -1.8232
  778SOL    HW2 2334   0.672   0.229   0.469  1.5222  2.7616  2.4314
  779SOL     OW 2335   0.510   0.473   2.720 -0.4624  0.3629 -0.5209
  779SOL    HW1 2336   0.588   0.533   2.712 -2.0943 -0.7182 -0.4683
  779SOL    HW2 2337   0.430   0.535   2.722 -0.2229 -2.1409  3.0929
  780SOL     OW 2338   1.810   0.903   2.470 -0.5113 -0.5536  0.3470
  780SOL    HW1 2339   1.832   0.852   2.383 -2.4912 -1.2115  0.0654
  780SOL    HW2 2340   1.706   0.918   2.478 -1.1404  2.1997  1.7243
  781SOL     OW 2341   0.146   0.982   1.818 -0.3700  0.0757 -0.7600
  781SOL    HW1 2342   0.241   0.954   1.808 -2.9773  1.9201  1.1561
  781SOL    HW2 2343   0.107   0.953   1.907  0.4421 -0.7645 -0.0461
  782SOL     OW 2344   0.781   1.637   2.746  0.2530  0.1644 -0.4919
  782SOL    HW1 2345   0.787   1.564   2.677 -0.1795  2.8019 -0.2908
  782SOL    HW2 2346   0.863   1.638   2.810 -2.2850  3.6587  0.3897
  783SOL     OW 2347   0.865   2.529   1.578  0.4451  0.7393  0.5697
  783SOL    HW1 2348   0.829   2.526   1.480  0.0397  1.1284 -2.9138
  783SOL    HW2 2349   0.964   2.530   1.575 -1.6140  0.2553  0.2400
  784SOL     OW 2350   1.434   0.260   2.904 -0.1526 -0.2235  0.3331
  784SOL    HW1 2351   1.492   0.290   2.823 -1.5837 -2.3734 -2.2935
  784SOL    HW2 2352   1.481   0.281   2.991 -0.0838 -2.4471  2.5411
  785SOL     OW 2353   1.088   0.652   2.540  0.0433  0.4472 -0.6032
  785SOL    HW1 2354   1.073   0.642   2.638  0.6494  1.8624 -3.9657
  785SOL    HW2 2355   1.161   0.590   2.511  0.1689  2.3906 -2.2815
  786SOL     OW 2356   0.366   1.866   0.361 -0.1601 -0.4633  0.2230
  786SOL    HW1 2357   0.314   1.803   0.413 -0.3654 -0.2775 -1.3441
  786SOL    HW2 2358   0.423   1.925   0.423  0.0558  0.1976 -0.7211
  787SOL     OW 2359   1.592   1.063   0.458  0.8470  0.2044 -0.1429
  787SOL    HW1 2360   1.572   1.073   0.360  3.2194 -0.7022 -0.9520
  787SOL    HW2 2361   1.630   1.150   0.488 -0.8669 -0.2991  0.1605
  788SOL     OW 2362   1.799   1.649   1.432  0.2221  0.4588 -0.0674
  788SOL    HW1 2363   1.764   1.730   1.481 -0.4956 -1.4448 -0.3461
  788SOL    HW2 2364   1.879   1.610   1.485  0.4170  1.6706 -1.5516
  789SOL     OW 2365   0.068   1.681   2.072 -0.1972  0.9856 -0.0589
  789SOL    HW1 2366   0.108   1.687   1.979 -0.2926 -0.2294 -0.1593
  789SOL    HW2 2367   0.120   1.616   2.137 -1.7137 -2.7719  1.1310
  790SOL     OW 2368   0.711   2.831   0.081 -0.1984 -0.5543  0.2521
  790SOL    HW1 2369   0.619   2.865   0.086  0.8864  0.1476 -0.4641
  790SOL    HW2 2370   0.719   2.730   0.073  1.5604 -1.5816  1.2922
  791SOL     OW 2371   0.444   0.407   0.293  0.1712  0.2701 -0.9525
  791SOL    HW1 2372   0.481   0.460   0.378  0.5599  1.2994  0.6893
  791SOL    HW2 2373   0.515   0.394   0.220 -1.3609 -0.8418  1.6004
  792SOL     OW 2374   1.691   0.610   2.264  0.0034  0.1243  0.0962
  792SOL    HW1 2375   1.728   0.545   2.335  4.1571  0.1431  0.4486
  792SOL    HW2 2376   1.749   0.613   2.177 -1.3873 -0.6879 -1.2689
  793SOL     OW 2377   0.089   0.729   0.617  0.2097  0.3846 -0.3624
  793SOL    HW1 2378   0.083   0.631   0.601 -0.9940 -1.1508 -2.0372
  793SOL    HW2 2379   0.150   0.732   0.699 -0.6663 -0.6179  1.2070
  794SOL     OW 2380   0.396   0.361   1.591  0.0958  0.3466 -0.6051
  794SOL    HW1 2381   0.431   0.395   1.502  0.2737  0.0609  0.6742
  794SOL    HW2 2382   0.292   0.370   1.585 -0.6617 -1.6651 -1.0268
  795SOL     OW 2383   0.092   1.255   3.063  0.2407  0.4824 -0.1377
  795SOL    HW1 2384   0.184   1.281   3.093 -1.0527 -1.9614 -1.1165
  795SOL    HW2 2385   0.096   1.227   2.966 -0.0511  2.6309  1.4482
  796SOL     OW 2386   0.075   0.469   0.097  0.4667  0.0823  0.5338
  796SOL    HW1 2387   0.085   0.476   0.198  1.3430 -1.2225 -0.1232
  796SOL    HW2 2388   3.088   0.465   0.069  2.7717 -0.8725  2.2078
  797SOL     OW 2389   1.428   2.598   0.004 -0.5929  0.2389  0.0907
  797SOL    HW1 2390   1.367   2.643   0.077 -2.3869  0.9091  4.1051
  797SOL    HW2 2391   1.362   2.560   3.043 -2.4987  0.1841 -2.1297
  798SOL     OW 2392   2.852   0.698   0.858 -0.1579  0.3217  0.1528
  798SOL    HW1 2393   2.834   0.610   0.800  0.3806 -1.6823 -0.1857
  798SOL    HW2 2394   2.892   0.776   0.807  0.3881 -0.3421 -2.2509
  799SOL     OW 2395   2.712   0.844   2.096  0.2440  0.0559  0.1670
  799SOL    HW1 2396   2.626   0.802   2.133 -0.0574  0.2670 -0.6800
  799SOL    HW2 2397   2.776   0.776   2.061 -0.7817  0.1393  0.8628
  800SOL     OW 2398   0.079   2.092   0.396 -0.0441 -0.0284  0.4472
  800SOL    HW1 2399   0.067   2.062   0.494  0.7400  1.3194 -0.1328
  800SOL    HW2 2400   0.051   2.016   0.336 -1.3017  1.1343  1.7407
  801SOL     OW 2401   1.514   1.994   0.804 -0.4661  0.0900  0.5780
  801SOL    HW1 2402   1.511   1.972   0.706  0.1738  1.5115  0.3511
  801SOL    HW2 2403   1.583   1.926   0.843 -0.5564  2.4632  1.0022
  802SOL     OW 2404   1.050   1.902   2.704 -0.5455 -0.2301  0.2616
  802SOL    HW1 2405   0.953   1.890   2.669 -2.7431  0.3313 -1.7032
  802SOL    HW2 2406   1.113   1.851   2.639 -0.9828 -2.6809 -2.0115
  803SOL     OW 2407   2.970   1.960   1.586 -0.0042 -0.0323 -0.5690
  803SOL    HW1 2408   2.960   1.941   1.486 -3.0133 -0.7179 -2.1193
  803SOL    HW2 2409   3.068   1.950   1.622  0.2810 -0.1671  2.4988
  804SOL     OW 2410   1.144   2.561   1.512 -0.3173 -0.0979 -0.1560
  804SOL    HW1 2411   1.219   2.545   1.584 -1.6156  1.5566  1.3188
  804SOL    HW2 2412   1.170   2.649   1.466  2.5714  0.3815  0.5831
  805SOL     OW 2413   2.425   1.889   2.983  0.1968  0.0518 -0.3164
  805SOL    HW1 2414   2.383   1.871   2.890 -0.6032 -0.2737  0.5683
  805SOL    HW2 2415   2.499   1.822   3.007  0.5552  0.3424 -0.7321
  806SOL     OW 2416   2.070   3.024   0.718 -0.3064 -0.6090 -0.0894
  806SOL    HW1 2417   2.099   2.952   0.783  1.9406  2.0070  0.1975
  806SOL    HW2 2418   1.990   3.002   0.663  1.0892  2.1752  1.5963
  807SOL     OW 2419   2.838   0.366   2.692 -0.3612 -0.0141  0.4898
  807SOL    HW1 2420   2.818   0.280   2.738 -3.8570  0.7606 -0.7437
  807SOL    HW2 2421   2.760   0.432   2.710  1.7646  2.1406 -1.2308
  808SOL     OW 2422   0.535   1.218   0.540 -0.0866 -0.2632 -0.1901
  808SOL    HW1 2423   0.572   1.168   0.462 -0.1888  4.2986  0.6282
  808SOL    HW2 2424   0.435   1.199   0.547  0.1745 -0.7457  0.4442
  809SOL     OW 2425   2.641   0.552   1.753 -0.3433  0.1055  0.2123
  809SOL    HW1 2426   2.641   0.647   1.718  1.0846 -0.5696  0.6205
  809SOL    HW2 2427   2.673   0.489   1.678  0.0460  1.1034 -0.6577
  810SOL     OW 2428   1.257   0.558   1.216 -0.7302  0.6875 -0.1981
  810SOL    HW1 2429   1.270   0.604   1.121  2.4146  1.4060 -2.3116
  810SOL    HW2 2430   1.278   0.458   1.212 -2.6397  0.2304 -0.7100
  811SOL     OW 2431   2.317   2.889   1.742  0.1009  0.1445  0.3588
  811SOL    HW1 2432   2.409   2.916   1.777  0.3654 -0.1022 -2.6170
  811SOL    HW2 2433   2.247   2.942   1.799  3.2876  0.4271  1.0034
  812SOL     OW 2434   1.852   2.216   0.029 -0.2431 -0.1176  0.3586
  812SOL    HW1 2435   1.789   2.204   0.112 -2.3080 -0.4946  2.1477
  812SOL    HW2 2436   1.945   2.262   0.055  0.7066  3.8875  1.5316
  813SOL     OW 2437   1.388   0.755   1.714 -0.6819  0.0305  0.1712
  813SOL    HW1 2438   1.349   0.728   1.630 -0.6334  3.0709  2.3568
  813SOL    HW2 2439   1.490   0.744   1.707  2.3814  0.0741  2.7880
  814SOL     OW 2440   0.526   0.528   1.304 -0.1739 -0.1589  0.2404
  814SOL    HW1 2441   0.549   0.626   1.323 -1.5634 -1.6447  1.5739
  814SOL    HW2 2442   0.591   0.465   1.342 -0.8232 -1.5440 -1.2903
  815SOL     OW 2443   0.511   0.503   0.535  0.1815  0.2133 -0.3665
  815SOL    HW1 2444   0.582   0.433   0.528 -0.3313  1.1814 -3.8652
  815SOL    HW2 2445   0.525   0.551   0.626  2.1983 -0.5664  0.8974
  816SOL     OW 2446   2.255   1.432   2.556  0.2678 -0.2261 -0.2798
  816SOL    HW1 2447   2.323   1.451   2.627  0.2598 -1.6666 -0.8802
  816SOL    HW2 2448   2.289   1.470   2.468  1.4435  1.0817  2.6184
  817SOL     OW 2449   1.243   2.953   0.956  0.3061 -0.0483  0.8149
  817SOL    HW1 2450   1.228   2.854   0.928  1.1560  1.4549 -0.0043
  817SOL    HW2 2451   1.218   3.016   0.884  1.0722 -0.4413 -0.4064
  818SOL     OW 2452   1.775   0.453   2.935 -0.5933 -0.0450 -0.5314
  818SOL    HW1 2453   1.795   0.477   3.031  0.6181 -1.2698  1.7275
  818SOL    HW2 2454   1.711   0.517   2.880  0.9407  3.1226 -0.0195
  819SOL     OW 2455   1.826   0.270   0.227 -0.6124  0.0445 -0.1483
  819SOL    HW1 2456   1.929   0.267   0.238 -1.1928 -2.4656 -0.1337
  819SOL    HW2 2457   1.785   0.182   0.198  0.6270  1.3564 -1.2470
  820SOL     OW 2458   1.826   0.501   0.098 -0.6632 -0.4238 -0.5966
  820SOL    HW1 2459   1.882   0.581   0.133  1.2955  4.0925 -0.5593
  820SOL    HW2 2460   1.832   0.423   0.161  0.7574  1.4908 -0.3478
  821SOL     OW 2461   2.802   0.484   0.715  0.1426 -0.4032  0.6488
  821SOL    HW1 2462   2.819   0.526   0.626 -1.9159 -1.9913  0.2936
  821SOL    HW2 2463   2.827   0.382   0.711  0.9188 -0.6600 -0.0887
  822SOL     OW 2464   0.992   2.304   2.043  0.1770  0.2308 -0.2302
  822SOL    HW1 2465   1.027   2.358   2.124  0.6913 -0.4693  1.8844
  822SOL    HW2 2466   0.985   2.203   2.058 -0.0981 -1.8971 -0.5423
  823SOL     OW 2467   0.193   1.662   1.822 -0.2645  0.2523  0.5241
  823SOL    HW1 2468   0.279   1.673   1.773 -1.6881  1.2815 -2.3953
  823SOL    HW2 2469   0.185   1.562   1.841  0.1383  1.0412 -0.9624
  824SOL     OW 2470   1.599   2.821   2.629 -0.5228 -0.1712 -0.1459
  824SOL    HW1 2471   1.569   2.754   2.556  0.7056 -0.3067  0.6984
  824SOL    HW2 2472   1.610   2.774   2.719 -1.8551  1.3343 -1.8542
  825SOL     OW 2473   1.787   0.636   0.527 -0.2834  0.1010 -0.2109
  825SOL    HW1 2474   1.793   0.540   0.559 -2.1188  0.3152 -2.5575
  825SOL    HW2 2475   1.862   0.686   0.569 -0.7775 -0.8326 -1.7941
  826SOL     OW 2476   2.043   0.844   0.036  0.0809  0.3052  0.1659
  826SOL    HW1 2477   2.123   0.905   0.041  0.0494  1.6525  0.0905
  826SOL    HW2 2478   2.004   0.820   0.126  1.4299 -3.0206 -1.2751
  827SOL     OW 2479   0.552   1.658   1.995  0.4035 -0.2353 -0.5159
  827SOL    HW1 2480   0.494   1.674   1.916  1.6327 -0.0565  1.6314
  827SOL    HW2 2481   0.512   1.617   2.077  1.3519  0.3105 -3.6243
  828SOL     OW 2482   2.369   1.285   1.538  0.5733  0.6861 -0.0480
  828SOL    HW1 2483   2.347   1.336   1.626 -2.0910  1.8898  2.8573
  828SOL    HW2 2484   2.405   1.190   1.551  0.1569 -2.2532  1.7835
  829SOL     OW 2485   0.244   1.869   0.114  0.4245 -0.1804  0.2863
  829SOL    HW1 2486   0.253   1.858   0.214 -2.1119 -0.1014 -0.8652
  829SOL    HW2 2487   0.196   1.788   0.075 -1.1264 -0.9416 -0.1023
  830SOL     OW 2488   1.548   0.952   0.719  0.6592  0.1080  0.1378
  830SOL    HW1 2489   1.617   0.878   0.745 -0.9624 -3.0655 -3.4801
  830SOL    HW2 2490   1.584   0.999   0.636 -0.4717 -2.3869  0.5308
  831SOL     OW 2491   2.864   1.853   3.049  0.5166 -0.2575 -0.3210
  831SOL    HW1 2492   2.939   1.868   2.986 -1.8666  0.4951 -0.5982
  831SOL    HW2 2493   2.863   1.767   3.106 -0.8312  1.3323  0.1392
  832SOL     OW 2494   0.885   0.417   0.343 -0.4844 -0.1114  0.2610
  832SOL    HW1 2495   0.981   0.457   0.342 -3.3439 -0.0784  1.0536
  832SOL    HW2 2496   0.851   0.397   0.249  1.3868 -0.3393 -0.3780
  833SOL     OW 2497   0.375   0.699   1.917 -0.3834 -0.5906  0.5166
  833SOL    HW1 2498   0.308   0.633   1.956 -1.6306  1.7078 -0.8764
  833SOL    HW2 2499   0.472   0.689   1.951  0.7666 -0.4262 -2.3823
  834SOL     OW 2500   0.331   0.363   0.895  0.1251  0.5733  0.1903
  834SOL    HW1 2501   0.421   0.318   0.915  1.2947 -1.2251  0.4328
  834SOL    HW2 2502   0.306   0.363   0.794 -3.3995 -0.0230 -2.7103
  835SOL     OW 2503   2.564   2.807   1.185 -0.4332 -0.0247  0.2600
  835SOL    HW1 2504   2.606   2.757   1.266 -1.4362  0.7237 -0.4093
  835SOL    HW2 2505   2.630   2.848   1.122 -1.9081 -2.2402  0.3090
  836SOL     OW 2506   0.482   1.970   0.017  0.4783 -0.0722 -0.1922
  836SOL    HW1 2507   0.516   2.045   0.082  0.3517  3.0685  2.5762
  836SOL    HW2 2508   0.412   1.916   0.068  0.7358  3.1484 -0.5805
  837SOL     OW 2509   1.786   1.356   2.600  0.2060 -0.2117 -0.0040
  837SOL    HW1 2510   1.756   1.334   2.696  1.2301 -0.6341  3.1580
  837SOL    HW2 2511   1.834   1.447   2.602  0.2863 -2.3618  0.2300
  838SOL     OW 2512   0.477   1.293   1.982 -0.3050 -0.1943 -0.1197
  838SOL    HW1 2513   0.561   1.348   1.984 -1.4441 -0.1736 -1.2247
  838SOL    HW2 2514   0.458   1.266   1.888  2.6737 -0.4127  1.0477
  839SOL     OW 2515   0.259   1.342   0.906  0.1910 -0.1377 -0.5716
  839SOL    HW1 2516   0.302   1.335   1.001  1.4066  0.4300 -0.9009
  839SOL    HW2 2517   0.201   1.262   0.886 -1.7081  0.7542 -0.1205
  840SOL     OW 2518   2.406   0.254   1.776 -0.0176 -0.0830 -0.4851
  840SOL    HW1 2519   2.452   0.303   1.855  0.4061  1.6678  1.7780
  840SOL    HW2 2520   2.478   0.245   1.706 -0.1617  1.0773  2.3742
  841SOL     OW 2521   0.896   2.394   0.453  0.2544  0.0827  0.0824
  841SOL    HW1 2522   0.934   2.484   0.471  1.6014 -2.0930 -1.3101
  841SOL    HW2 2523   0.960   2.320   0.430 -1.2585 -0.3509  0.0570
  842SOL     OW 2524   0.598   0.269   0.929 -0.3143 -0.3534 -0.3202
  842SOL    HW1 2525   0.633   0.226   1.016  1.4838 -1.8036  1.6363
  842SOL    HW2 2526   0.668   0.264   0.854 -2.0091 -0.2680 -1.4662
  843SOL     OW 2527   0.355   1.277   0.010  0.0863 -0.0964 -0.3375
  843SOL    HW1 2528   0.404   1.192   0.029  1.4789 -1.2368  0.6609
  843SOL    HW2 2529   0.351   1.336   0.095  1.5192  0.7946 -0.0967
  844SOL     OW 2530   1.315   2.257   3.104  0.4424 -0.1195  0.0902
  844SOL    HW1 2531   1.236   2.202   3.072  2.9880  1.8781 -1.3484
  844SOL    HW2 2532   1.304   2.346   3.059  1.0041 -2.9200  1.3512
  845SOL     OW 2533   2.368   2.841   2.240  0.0734  0.4519 -0.0029
  845SOL    HW1 2534   2.353   2.792   2.155  1.7803 -0.1891  3.3970
  845SOL    HW2 2535   2.288   2.904   2.265 -0.5082  1.0923 -0.6216
  846SOL     OW 2536   1.993   2.035   3.011  0.3183 -0.5922 -0.0025
  846SOL    HW1 2537   1.946   2.115   3.054  2.4057 -0.2320  1.6670
  846SOL    HW2 2538   1.978   2.032   2.910 -3.9894 -0.7993 -2.1124
  847SOL     OW 2539   2.555   0.231   0.119  0.2770 -0.5489  0.4047
  847SOL    HW1 2540   2.525   0.294   0.042  0.0076  0.3743 -0.2793
  847SOL    HW2 2541   2.628   0.273   0.178  0.4253 -2.0744 -1.4383
  848SOL     OW 2542   0.472   0.627   0.780  0.7914  0.1433  0.0088
  848SOL    HW1 2543   0.498   0.714   0.831 -1.7454 -1.6648  0.6849
  848SOL    HW2 2544   0.371   0.630   0.765  1.1877 -0.1650  0.4670
  849SOL     OW 2545   1.546   2.724   1.974 -0.0562 -0.2949  0.0663
  849SOL    HW1 2546   1.557   2.809   2.030 -1.6447  0.3380  4.0917
  849SOL    HW2 2547   1.629   2.671   1.966 -0.8614  0.5086 -1.4126
  850SOL     OW 2548   0.640   1.412   0.395  0.2790 -0.1838 -0.7675
  850SOL    HW1 2549   0.591   1.345   0.454  1.7689 -0.3278 -1.4931
  850SOL    HW2 2550   0.574   1.476   0.351  1.8836  0.2703  1.8243
  851SOL     OW 2551   0.342   1.479   0.209  0.7958 -0.0978  0.2383
  851SOL    HW1 2552   0.413   1.553   0.216 -0.4994 -0.5197  1.3086
  851SOL    HW2 2553   0.336   1.424   0.292  1.2912  0.2906 -1.6855
  852SOL     OW 2554   1.359   2.780   1.799  0.2904 -0.1759  0.1745
  852SOL    HW1 2555   1.372   2.708   1.730  0.1423 -0.7583 -1.1925
  852SOL    HW2 2556   1.417   2.758   1.877  0.9944  0.8201  0.3032
  853SOL     OW 2557   2.633   1.585   0.141 -0.1710 -0.1932  0.2740
  853SOL    HW1 2558   2.736   1.595   0.159  4.0973  0.6611  0.6537
  853SOL    HW2 2559   2.579   1.643   0.209  0.0462  0.6709  2.3121
  854SOL     OW 2560   1.598   1.409   1.978 -0.5613  0.6340 -0.2050
  854SOL    HW1 2561   1.533   1.490   1.973 -1.4242 -0.0475 -0.5744
  854SOL    HW2 2562   1.545   1.330   1.944 -0.9621  0.1643 -0.4491
  855SOL     OW 2563   0.356   2.316   0.010 -0.8235  0.1578  0.6071
  855SOL    HW1 2564   0.280   2.274   3.063 -0.4639  0.1396 -1.4693
  855SOL    HW2 2565   0.447   2.303   3.076  0.1218  2.2299 -4.1746
  856SOL     OW 2566   0.433   0.924   1.768 -0.6974 -0.7161 -0.0003
  856SOL    HW1 2567   0.439   0.831   1.817  0.0530 -0.6778  0.3019
  856SOL    HW2 2568   0.507   0.992   1.790  2.3340 -0.1334 -1.3707
  857SOL     OW 2569   1.283   1.069   2.152 -0.1592 -0.1728 -0.1064
  857SOL    HW1 2570   1.246   0.999   2.215 -0.5031  0.4880 -0.1865
  857SOL    HW2 2571   1.378   1.093   2.186  0.9680 -0.2125  0.3432
  858SOL     OW 2572   0.302   1.156   2.434  0.2664  0.4628 -0.5893
  858SOL    HW1 2573   0.207   1.121   2.423 -0.4139  0.4504 -1.6889
  858SOL    HW2 2574   0.362   1.157   2.351 -0.2218 -1.3652 -2.2953
  859SOL     OW 2575   2.507   0.082   0.958  0.0713  0.3097 -1.5569
  859SOL    HW1 2576   2.457   0.135   1.028 -2.6283  2.1110 -2.5408
  859SOL    HW2 2577   2.608   0.095   0.968 -1.0631 -1.0651  0.8694
  860SOL     OW 2578   1.939   3.020   3.094  0.5051  0.2693  0.2103
  860SOL    HW1 2579   2.011   2.965   3.043  1.1269 -2.7677 -4.6075
  860SOL    HW2 2580   1.849   2.973   3.107 -0.5251  0.1862 -1.6922
  861SOL     OW 2581   0.990   0.637   0.603  0.5135 -0.3760  0.0274
  861SOL    HW1 2582   1.059   0.579   0.567 -3.4575 -0.8440  1.4839
  861SOL    HW2 2583   0.929   0.673   0.535  3.0871 -0.6191  1.5409
  862SOL     OW 2584   1.298   0.488   2.456  0.0056  0.1343 -0.0896
  862SOL    HW1 2585   1.347   0.450   2.540  1.9005  1.0054 -2.5009
  862SOL    HW2 2586   1.266   0.411   2.400  0.8035 -1.5768  1.5488
  863SOL     OW 2587   2.386   2.222   0.829  0.1783 -0.2403 -0.1632
  863SOL    HW1 2588   2.389   2.287   0.908  0.1754 -0.2946  1.1559
  863SOL    HW2 2589   2.347   2.136   0.867 -3.1410  1.2701 -1.0884
  864SOL     OW 2590   2.682   3.083   1.968 -0.6788 -0.5034  0.3218
  864SOL    HW1 2591   2.697   2.982   1.992  1.2396  1.4596 -1.2896
  864SOL    HW2 2592   2.620   0.018   2.033 -1.7837 -0.6662  1.0598
  865SOL     OW 2593   1.191   0.568   1.755  0.0456  0.2494  0.1510
  865SOL    HW1 2594   1.245   0.482   1.739 -0.0413 -1.2423 -1.4885
  865SOL    HW2 2595   1.252   0.648   1.760 -0.7561 -1.5371  1.1541
  866SOL     OW 2596   1.817   2.838   1.224  0.4519  0.0583 -0.1677
  866SOL    HW1 2597   1.871   2.917   1.259 -0.4170 -1.0194  1.3997
  866SOL    HW2 2598   1.724   2.865   1.191  1.0218 -1.0388  0.5965
  867SOL     OW 2599   2.892   2.403   0.703  0.3493 -0.0697  0.2363
  867SOL    HW1 2600   2.912   2.494   0.652  2.1403  1.8643  0.0559
  867SOL    HW2 2601   2.947   2.406   0.791  0.9773 -1.0046 -1.9275
  868SOL     OW 2602   0.486   2.215   1.676 -0.0615  0.0223  0.2168
  868SOL    HW1 2603   0.400   2.262   1.656  1.5230  3.7887  0.1463
  868SOL    HW2 2604   0.525   2.181   1.585 -0.5728  0.2165  0.8838
  869SOL     OW 2605   2.176   2.295   2.911 -0.1037 -0.1670 -0.0352
  869SOL    HW1 2606   2.243   2.262   2.840  1.4136  2.5095 -0.8687
  869SOL    HW2 2607   2.108   2.358   2.873 -1.2829  0.5982  0.3683
  870SOL     OW 2608   1.647   1.775   0.865  0.4068  0.0475 -0.3422
  870SOL    HW1 2609   1.748   1.759   0.845  0.0412  3.0535  2.5870
  870SOL    HW2 2610   1.583   1.691   0.861 -1.0504  1.0807  0.9861
  871SOL     OW 2611   0.086   1.884   1.746  0.1599 -0.1090  0.0928
  871SOL    HW1 2612   0.131   1.800   1.780 -1.1259  0.1979  0.8984
  871SOL    HW2 2613   0.117   1.975   1.785 -3.0669  3.0644 -1.0957
  872SOL     OW 2614   0.434   1.379   2.518  0.1070  0.2591 -0.0677
  872SOL    HW1 2615   0.415   1.479   2.519  0.4620  1.2966  1.1142
  872SOL    HW2 2616   0.351   1.320   2.511  0.9774 -0.1207  0.3675
  873SOL     OW 2617   0.926   2.234   1.587  0.1215  0.5778  0.6858
  873SOL    HW1 2618   0.865   2.242   1.668  2.8756  2.4760 -1.0485
  873SOL    HW2 2619   0.894   2.304   1.521  0.9032 -0.8715 -1.2907
  874SOL     OW 2620   1.232   0.843   1.921 -0.3506 -0.0562 -0.0692
  874SOL    HW1 2621   1.223   0.947   1.935 -0.8422  0.5987  1.3203
  874SOL    HW2 2622   1.274   0.827   1.836  1.0313  0.5899  0.3356
  875SOL     OW 2623   2.847   2.693   0.879 -0.2953  0.4979 -0.1777
  875SOL    HW1 2624   2.805   2.605   0.909  0.8056 -0.7448 -1.1949
  875SOL    HW2 2625   2.949   2.680   0.874  2.6613 -1.3798  0.8278
  876SOL     OW 2626   1.086   1.528   0.316 -0.0956  0.0152 -0.0232
  876SOL    HW1 2627   1.019   1.458   0.286  1.2837  0.5923  2.3593
  876SOL    HW2 2628   1.054   1.559   0.408  1.9638 -4.0458 -0.1692
  877SOL     OW 2629   2.768   0.110   0.952 -0.2180 -0.6830 -0.4545
  877SOL    HW1 2630   2.776   0.153   0.860 -0.6735  0.8022  0.6266
  877SOL    HW2 2631   2.845   0.137   1.011 -0.6800  0.6193 -1.0620
  878SOL     OW 2632   1.963   1.581   0.358  0.2113 -0.5021 -0.0354
  878SOL    HW1 2633   1.869   1.612   0.347  0.2473  1.3227  1.8492
  878SOL    HW2 2634   2.022   1.608   0.277 -1.6862 -0.2993 -1.5886
  879SOL     OW 2635   2.526   1.655   1.044  0.1372  0.1910  0.0566
  879SOL    HW1 2636   2.595   1.672   1.120  0.2692 -0.5375 -0.5709
  879SOL    HW2 2637   2.554   1.576   0.989 -1.7095 -0.2970  2.0477
  880SOL     OW 2638   0.392   2.544   0.799  0.2120  0.9969  0.1983
  880SOL    HW1 2639   0.345   2.499   0.718  1.1086 -1.9850 -1.7664
  880SOL    HW2 2640   0.463   2.607   0.761  1.9365  1.0206 -4.1837
  881SOL     OW 2641   1.057   1.168   0.792  0.0264 -0.8598 -0.0229
  881SOL    HW1 2642   1.019   1.099   0.856 -1.1584  0.5638  0.0169
  881SOL    HW2 2643   1.158   1.149   0.779 -1.5925  0.6870  1.6000
  882SOL     OW 2644   2.279   1.007   0.045 -0.1839  0.3818  0.3186
  882SOL    HW1 2645   2.304   1.047   3.068 -1.9439  0.3389  0.4907
  882SOL    HW2 2646   2.308   1.069   0.118 -0.2862 -2.0072 -1.4687
  883SOL     OW 2647   1.515   3.029   1.784  0.0322 -0.3703 -0.3555
  883SOL    HW1 2648   1.440   3.097   1.766 -0.5360 -1.7929  1.7517
  883SOL    HW2 2649   1.473   2.938   1.797 -0.4048  1.6259  0.7890
  884SOL     OW 2650   2.758   3.093   1.279 -0.0916  0.1613  0.7586
  884SOL    HW1 2651   2.850   0.031   1.277  2.5410 -1.6818  2.5305
  884SOL    HW2 2652   2.761   3.011   1.218  1.3920 -0.6431  1.0058
  885SOL     OW 2653   1.004   1.011   1.770 -0.0407  0.0971 -0.1528
  885SOL    HW1 2654   1.006   0.958   1.854 -0.1687  0.3484 -1.9937
  885SOL    HW2 2655   1.018   0.955   1.682 -0.5603 -2.0579  0.2444
  886SOL     OW 2656   1.547   0.926   2.449 -0.7275 -0.2215 -0.1689
  886SOL    HW1 2657   1.550   1.001   2.384  0.5869 -1.2384  1.1313
  886SOL    HW2 2658   1.494   0.845   2.407 -1.0426 -1.5774  0.0347
  887SOL     OW 2659   1.537   0.722   1.073 -0.1536  0.3731 -0.0401
  887SOL    HW1 2660   1.450   0.738   1.026  0.0649  0.4117  1.1908
  887SOL    HW2 2661   1.574   0.800   1.131 -0.2730 -1.8713 -2.8594
  888SOL     OW 2662   2.089   1.560   2.028  0.3822  0.1083  0.1655
  888SOL    HW1 2663   2.070   1.482   1.967 -0.9546  0.3353 -2.8639
  888SOL    HW2 2664   2.188   1.575   2.040 -0.4721 -2.9854  0.1016
  889SOL     OW 2665   1.867   2.039   0.678  0.2718  0.4685  0.2233
  889SOL    HW1 2666   1.958   2.067   0.692 -2.3435 -1.6265  0.6884
  889SOL    HW2 2667   1.842   2.057   0.583  1.2464  2.5707 -0.3705
  890SOL     OW 2668   1.156   2.073   0.587 -0.5808  0.1487 -0.1537
  890SOL    HW1 2669   1.178   1.977   0.603  0.3865  0.8357  0.5508
  890SOL    HW2 2670   1.060   2.089   0.629  1.8693  0.3385  1.3689
  891SOL     OW 2671   2.626   0.521   2.730  0.1432  0.0077  0.4972
  891SOL    HW1 2672   2.623   0.592   2.805  1.2610  4.9735  2.5382
  891SOL    HW2 2673   2.573   0.551   2.644 -0.0284  0.3592 -1.7566
  892SOL     OW 2674   0.876   0.651   2.376 -0.0883 -0.1985  0.0879
  892SOL    HW1 2675   0.780   0.642   2.409  3.0070  2.3037  1.2700
  892SOL    HW2 2676   0.944   0.645   2.454 -0.8926 -0.1886 -0.1442
  893SOL     OW 2677   1.706   0.216   1.244 -0.4967  0.0009 -0.0391
  893SOL    HW1 2678   1.790   0.173   1.286  1.7453 -0.0588 -0.2985
  893SOL    HW2 2679   1.623   0.182   1.296 -1.6014 -1.3759  0.6562
  894SOL     OW 2680   2.808   0.213   0.710 -0.1337 -0.0169 -0.1178
  894SOL    HW1 2681   2.725   0.240   0.659  0.9504  0.9419 -0.4022
  894SOL    HW2 2682   2.881   0.187   0.643 -1.3715 -1.0133 -0.8270
  895SOL     OW 2683   2.080   2.811   2.951 -0.3959 -0.1659 -0.2968
  895SOL    HW1 2684   2.001   2.751   2.945  1.0215  2.3273  1.7720
  895SOL    HW2 2685   2.153   2.770   3.013  1.7939 -0.5006 -1.6326
  896SOL     OW 2686   1.986   0.064   1.708  0.3861  0.8746  0.0965
  896SOL    HW1 2687   1.903   0.103   1.665 -1.4934  2.6718 -0.6090
  896SOL    HW2 2688   2.062   0.128   1.683  1.0153  1.3340  1.7434
  897SOL     OW 2689   0.197   2.115   1.858  0.1756 -0.0529 -0.1091
  897SOL    HW1 2690   0.200   2.182   1.780  0.6071 -0.4746 -0.6554
  897SOL    HW2 2691   0.286   2.098   1.907 -1.0899  2.7178 -0.1798
  898SOL     OW 2692   2.390   1.639   2.057  0.6046  0.3428 -0.1645
  898SOL    HW1 2693   2.450   1.567   2.020  0.8599  0.4172 -0.4620
  898SOL    HW2 2694   2.405   1.726   2.006  1.2227  1.5620 -2.4529
  899SOL     OW 2695   1.562   2.259   0.890  0.0547  0.2787 -0.2502
  899SOL    HW1 2696   1.661   2.289   0.905  2.2600  0.3522  0.3132
  899SOL    HW2 2697   1.555   2.171   0.844  3.1047  2.4664 -1.3489
  900SOL     OW 2698   0.910   3.092   2.894  0.4443  0.1625 -0.1512
  900SOL    HW1 2699   0.821   3.050   2.883 -1.6307  1.0172 -1.6739
  900SOL    HW2 2700   0.970   3.076   2.814 -0.5478  1.1981  0.7502
  901SOL     OW 2701   1.214   1.784   2.515 -0.0698 -0.2856 -0.0304
  901SOL    HW1 2702   1.311   1.817   2.521  0.7069 -1.0092  0.9636
  901SOL    HW2 2703   1.170   1.824   2.433 -0.5097 -0.3532 -1.9783
  902SOL     OW 2704   0.016   0.331   2.749  0.3167  0.0283  0.1138
  902SOL    HW1 2705   3.028   0.355   2.716 -3.1089 -0.4992 -1.9205
  902SOL    HW2 2706   0.036   0.232   2.759  0.4764  1.3308 -3.2312
  903SOL     OW 2707   2.078   0.555   2.313 -0.6001  0.9403 -0.1067
  903SOL    HW1 2708   2.125   0.585   2.400  0.4115  0.4932 -0.9482
  903SOL    HW2 2709   2.125   0.473   2.281 -1.5634  1.2937  0.8694
  904SOL     OW 2710   1.443   0.681   2.314  0.1129  0.3085  0.1091
  904SOL    HW1 2711   1.535   0.661   2.279 -1.0145  0.9302  0.2737
  904SOL    HW2 2712   1.401   0.604   2.362 -0.4455  3.4436 -2.8663
  905SOL     OW 2713   2.102   2.496   1.832 -0.1202 -0.1471 -0.1234
  905SOL    HW1 2714   2.042   2.478   1.908  0.5637  2.0010 -1.3508
  905SOL    HW2 2715   2.103   2.418   1.764 -0.6546  1.3619 -0.4456
  906SOL     OW 2716   1.732   2.047   0.430 -0.2446  0.3473  0.0458
  906SOL    HW1 2717   1.785   1.981   0.371 -2.4339 -1.2083 -2.1689
  906SOL    HW2 2718   1.694   2.123   0.373  2.0678  0.4655 -1.3277
  907SOL     OW 2719   1.249   3.013   1.229  0.0495  0.2129 -0.0046
  907SOL    HW1 2720   1.164   3.071   1.247  1.7136  1.0343 -0.4675
  907SOL    HW2 2721   1.258   2.989   1.130 -2.5103 -1.0835  0.9359
  908SOL     OW 2722   1.715   2.354   2.429 -0.0769  0.1953  0.3526
  908SOL    HW1 2723   1.801   2.406   2.431  0.2666 -0.1398  0.3622
  908SOL    HW2 2724   1.636   2.409   2.391  0.2267 -1.7433  2.5097
  909SOL     OW 2725   2.176   0.234   2.043 -0.1249 -0.0999  0.2474
  909SOL    HW1 2726   2.214   0.298   2.108 -0.0549 -2.2050 -2.4012
  909SOL    HW2 2727   2.084   0.205   2.049  4.8376 -0.1063 -2.6449
  910SOL     OW 2728   0.924   0.862   2.937  0.4617  0.3512 -0.6567
  910SOL    HW1 2729   0.968   0.780   2.981 -0.0284 -0.6731  2.7971
  910SOL    HW2 2730   0.994   0.932   2.917 -1.4798 -0.1116  2.6426
  911SOL     OW 2731   3.063   1.074   0.114  0.0188  0.1606  0.4023
  911SOL    HW1 2732   0.008   1.135   0.052 -1.2849 -1.0425  0.0994
  911SOL    HW2 2733   2.982   1.120   0.157 -1.2766  0.5867  0.8293
  912SOL     OW 2734   0.300   2.235   0.365 -0.1910 -0.0426  0.6807
  912SOL    HW1 2735   0.217   2.171   0.362 -1.1175 -2.2316 -0.9861
  912SOL    HW2 2736   0.367   2.214   0.437  1.4052  0.9403 -0.5190
  913SOL     OW 2737   2.794   2.251   2.213  0.0849  0.3468 -0.0568
  913SOL    HW1 2738   2.828   2.257   2.312  0.6571 -0.3674  0.9705
  913SOL    HW2 2739   2.870   2.238   2.151 -1.1415 -0.0050 -0.2876
  914SOL     OW 2740   1.254   2.020   1.433  0.0532 -0.6766 -0.3251
  914SOL    HW1 2741   1.261   2.084   1.360  0.7231 -2.7058  4.0732
  914SOL    HW2 2742   1.202   1.939   1.398 -0.0392  1.2073  0.1673
  915SOL     OW 2743   0.695   2.851   1.921 -0.2705 -0.4028  0.3359
  915SOL    HW1 2744   0.689   2.950   1.887 -0.3217  0.2266 -0.4447
  915SOL    HW2 2745   0.654   2.847   2.018 -1.1523  1.0096 -0.8572
  916SOL     OW 2746   0.834   0.696   1.496  0.0603  0.0041 -0.3602
  916SOL    HW1 2747   0.870   0.620   1.443 -4.4516  4.6409 -0.1936
  916SOL    HW2 2748   0.819   0.671   1.591  1.8084 -0.5433 -1.0006
  917SOL     OW 2749   2.740   0.689   0.475  0.2130  0.2624 -1.0165
  917SOL    HW1 2750   2.820   0.695   0.413 -0.4668  0.2045 -0.3457
  917SOL    HW2 2751   2.657   0.646   0.431 -0.4755  0.1511 -1.3314
  918SOL     OW 2752   1.769   2.296   2.886 -0.2689  0.3739  0.2106
  918SOL    HW1 2753   1.855   2.336   2.844  2.4203  0.3648 -1.8047
  918SOL    HW2 2754   1.775   2.272   2.987  1.5400 -0.7935 -1.1310
  919SOL     OW 2755   1.566   2.580   1.433  0.6125 -0.4238 -0.4592
  919SOL    HW1 2756   1.520   2.573   1.341 -0.1092  1.9373  1.6590
  919SOL    HW2 2757   1.661   2.623   1.419  3.2852  0.6623  1.1804
  920SOL     OW 2758   0.752   0.616   2.715 -0.0705 -0.1485 -0.4240
  920SOL    HW1 2759   0.849   0.601   2.739 -0.4674  0.7329 -0.1776
  920SOL    HW2 2760   0.710   0.690   2.770  0.2394  2.2480 -0.0320
  921SOL     OW 2761   3.079   0.755   3.025  0.2716 -0.3287 -0.1363
  921SOL    HW1 2762   3.018   0.714   3.095  2.1974 -1.3120  0.6080
  921SOL    HW2 2763   0.057   0.798   3.065  0.2303 -2.2850 -2.4494
  922SOL     OW 2764   0.313   2.067   1.189  0.9696 -0.3465 -0.3698
  922SOL    HW1 2765   0.330   1.975   1.147 -1.2091 -0.2511  3.0643
  922SOL    HW2 2766   0.379   2.140   1.162  0.2334  0.4785  1.0624
  923SOL     OW 2767   0.679   1.554   1.731  0.1598  0.1870  0.4682
  923SOL    HW1 2768   0.717   1.494   1.659 -1.3187 -1.6600  1.6924
  923SOL    HW2 2769   0.716   1.523   1.820 -0.7533  0.4763  0.5701
  924SOL     OW 2770   1.587   2.693   2.894 -0.1489  0.4018  0.5475
  924SOL    HW1 2771   1.608   2.609   2.840  2.3978 -0.2640 -2.0112
  924SOL    HW2 2772   1.542   2.668   2.982 -1.5918 -0.7726 -0.1467
  925SOL     OW 2773   2.783   1.293   1.074  0.3551  0.2079 -0.4069
  925SOL    HW1 2774   2.789   1.200   1.039  0.0649  5.5644  1.0713
  925SOL    HW2 2775   2.760   1.294   1.174  0.8957 -0.0416  1.1623
  926SOL     OW 2776   1.961   0.488   1.544 -0.1249  0.4649  0.4482
  926SOL    HW1 2777   2.061   0.467   1.528  1.9063 -3.0709 -0.1786
  926SOL    HW2 2778   1.919   0.489   1.450  2.2537 -1.1990  1.8361
  927SOL     OW 2779   1.908   0.177   1.394  0.3399 -0.3889 -0.0700
  927SOL    HW1 2780   1.969   0.240   1.343 -1.9126 -2.5848 -1.0215
  927SOL    HW2 2781   1.950   0.085   1.386 -0.0035 -0.0942  0.0873
  928SOL     OW 2782   0.324   0.870   2.275  0.0545  0.2187  0.0476
  928SOL    HW1 2783   0.381   0.922   2.206  1.9599  1.8709 -3.0371
  928SOL    HW2 2784   0.353   0.896   2.375  1.0031 -2.0805  2.7199
  929SOL     OW 2785   2.298   0.778   1.422  0.1138  0.0042 -0.1961
  929SOL    HW1 2786   2.256   0.869   1.428  2.2137 -0.9271 -1.8974
  929SOL    HW2 2787   2.363   0.773   1.341 -0.7978 -0.1937 -1.1947
  930SOL     OW 2788   3.077   2.554   2.139  0.6800  0.3561 -0.3247
  930SOL    HW1 2789   3.076   2.615   2.221 -2.3839  0.6541  1.2803
  930SOL    HW2 2790   0.056   2.512   2.112 -1.3301 -0.3078 -1.0497
  931SOL     OW 2791   1.618   0.927   1.238  0.1761  0.0996 -0.0576
  931SOL    HW1 2792   1.693   0.926   1.307  2.1113 -0.0437 -1.0237
  931SOL    HW2 2793   1.615   1.017   1.190  0.4863 -0.0202  0.9850
  932SOL     OW 2794   0.456   1.283   1.718  0.0056 -0.4349 -0.2029
  932SOL    HW1 2795   0.388   1.357   1.740 -1.3438 -0.0851  0.4048
  932SOL    HW2 2796   0.448   1.244   1.629  1.5905  0.3323  0.9794
  933SOL     OW 2797   2.482   1.799   1.655  0.2118 -0.2991 -0.4122
  933SOL    HW1 2798   2.516   1.871   1.595 -1.2683 -1.8519  2.1967
  933SOL    HW2 2799   2.403   1.745   1.613  0.3270  0.2685 -1.3234
  934SOL     OW 2800   0.477   1.942   1.737  0.3983  0.0645 -0.6724
  934SOL    HW1 2801   0.561   1.900   1.698  0.2206 -0.2703  0.2860
  934SOL    HW2 2802   0.473   2.041   1.723 -1.4434 -1.2416 -0.0301
  935SOL     OW 2803   2.686   1.266   1.322  0.2400  0.2533 -0.2578
  935SOL    HW1 2804   2.594   1.312   1.314  1.1080  1.7094  0.9493
  935SOL    HW2 2805   2.748   1.314   1.392  0.6860  0.3244  0.8733
  936SOL     OW 2806   2.859   1.346   1.509  0.4008 -0.1843 -0.0740
  936SOL    HW1 2807   2.823   1.305   1.598  2.2405 -0.3226 -0.6910
  936SOL    HW2 2808   2.915   1.425   1.524  1.6850  1.5890 -1.1722
  937SOL     OW 2809   1.816   0.474   1.299  0.7195  0.1627  0.4986
  937SOL    HW1 2810   1.906   0.481   1.256 -1.8079  0.5871  0.7402
  937SOL    HW2 2811   1.768   0.383   1.299  0.2736  0.9021  0.7739
  938SOL     OW 2812   0.474   2.976   0.107 -0.1514  0.2121  1.0906
  938SOL    HW1 2813   0.422   2.977   0.195 -0.2991  2.1708  0.5373
  938SOL    HW2 2814   0.422   2.942   0.029  1.7468 -1.0452 -0.7719
  939SOL     OW 2815   2.904   2.092   2.440  0.2341 -0.4561  0.4923
  939SOL    HW1 2816   2.985   2.051   2.477 -2.1671 -0.4330  1.4179
  939SOL    HW2 2817   2.835   2.019   2.422  0.9184  1.4912  0.8216
  940SOL     OW 2818   1.494   1.969   0.547  0.5144 -0.7620 -0.3431
  940SOL    HW1 2819   1.437   2.024   0.485 -0.9975 -0.2674 -0.7659
  940SOL    HW2 2820   1.589   1.995   0.536 -2.0808 -1.9669  1.2081
  941SOL     OW 2821   2.291   2.648   3.087  0.5719 -0.0001 -0.1478
  941SOL    HW1 2822   2.249   2.566   0.013  2.4299  3.4329 -1.3801
  941SOL    HW2 2823   2.370   2.676   0.040  2.3060  1.1780  0.4631
  942SOL     OW 2824   1.927   2.401   1.172 -0.6276 -0.1549  0.0434
  942SOL    HW1 2825   1.866   2.474   1.142 -1.2054  1.6233  1.6179
  942SOL    HW2 2826   2.013   2.439   1.206 -1.8291 -2.5073 -3.3712
  943SOL     OW 2827   2.355   0.919   1.826 -0.2009 -0.3406  0.4453
  943SOL    HW1 2828   2.428   0.933   1.757  0.2464  0.0311  0.7383
  943SOL    HW2 2829   2.361   0.828   1.872 -0.2884 -2.7611  0.1537
  944SOL     OW 2830   1.211   0.840   2.373 -0.0963 -0.0974  0.4153
  944SOL    HW1 2831   1.278   0.777   2.330 -0.7985  1.8091  1.0553
  944SOL    HW2 2832   1.150   0.794   2.436  1.2417  0.6218 -0.5083
  945SOL     OW 2833   2.541   2.343   1.356  0.0698 -0.0881 -0.2432
  945SOL    HW1 2834   2.627   2.292   1.338 -1.2573  1.7191 -0.2187
  945SOL    HW2 2835   2.538   2.372   1.454  0.6826 -3.2705 -0.3468
  946SOL     OW 2836   0.561   0.773   0.402  0.0007  0.0941 -0.5346
  946SOL    HW1 2837   0.491   0.844   0.423  1.2562  1.7544  0.3130
  946SOL    HW2 2838   0.537   0.679   0.431 -1.2197  0.7105  0.2693
  947SOL     OW 2839   2.014   2.924   1.581  0.1652  0.1529 -0.3638
  947SOL    HW1 2840   1.942   2.868   1.633  2.6354 -0.9901  4.1759
  947SOL    HW2 2841   2.040   3.008   1.634 -2.1241  0.8954  0.3110
  948SOL     OW 2842   0.232   1.808   0.789 -0.5554  0.1857  0.3282
  948SOL    HW1 2843   0.313   1.791   0.732  1.8095  1.3096  1.1943
  948SOL    HW2 2844   0.193   1.716   0.802  0.1756  1.8224 -1.5916
  949SOL     OW 2845   1.314   1.099   1.543 -0.1648  0.2554  0.4249
  949SOL    HW1 2846   1.334   1.063   1.450  0.0094  3.0597  0.3266
  949SOL    HW2 2847   1.244   1.045   1.588  2.5659  0.4519  1.8568
  950SOL     OW 2848   0.338   1.054   1.181  0.0368 -0.1777 -0.2324
  950SOL    HW1 2849   0.431   1.013   1.184 -0.7219 -0.4976 -0.1781
  950SOL    HW2 2850   0.281   1.036   1.263  0.5168  2.1567 -0.2663
  951SOL     OW 2851   0.603   2.100   2.302 -0.0492 -0.3417  0.2671
  951SOL    HW1 2852   0.524   2.049   2.261  0.3314  2.2003  0.6215
  951SOL    HW2 2853   0.568   2.155   2.381  0.4742  0.0308 -1.5535
  952SOL     OW 2854   1.563   1.341   0.132 -0.4064 -0.0867  0.0343
  952SOL    HW1 2855   1.498   1.388   0.192  2.6958 -0.3603 -2.8717
  952SOL    HW2 2856   1.565   1.391   0.044  0.2699 -1.0988 -0.9913
  953SOL     OW 2857   1.125   0.345   3.038  0.2337 -0.4149  0.0535
  953SOL    HW1 2858   1.195   0.302   2.978 -1.1441  0.9535  0.6761
  953SOL    HW2 2859   1.031   0.339   3.000 -1.1771 -2.1559  0.6435
  954SOL     OW 2860   2.090   1.314   0.303  0.0651  0.2481 -0.7063
  954SOL    HW1 2861   2.040   1.226   0.322 -1.0651  0.8163  0.8985
  954SOL    HW2 2862   2.029   1.390   0.337 -0.1811  1.8653  1.8749
  955SOL     OW 2863   3.063   2.906   0.212  0.4716 -0.5933  0.3696
  955SOL    HW1 2864   3.008   2.914   0.124 -0.0071 -0.1746  0.7310
  955SOL    HW2 2865   0.028   2.843   0.194 -3.1147 -0.6695 -0.5384
  956SOL     OW 2866   1.272   0.696   1.474 -0.1280  0.4508  0.1946
  956SOL    HW1 2867   1.303   0.781   1.428  3.1815  1.6584  1.0728
  956SOL    HW2 2868   1.258   0.617   1.409 -0.2423  0.5678 -0.0319
  957SOL     OW 2869   0.994   1.374   1.170  0.2235 -0.7892 -0.4419
  957SOL    HW1 2870   1.007   1.314   1.246 -1.6384  0.5426 -1.6909
  957SOL    HW2 2871   0.894   1.379   1.148 -0.4086  0.7914  0.9498
  958SOL     OW 2872   0.528   1.949   0.768 -0.0777 -0.1661  0.1659
  958SOL    HW1 2873   0.554   1.959   0.862 -4.4421  0.9086 -1.0144
  958SOL    HW2 2874   0.587   2.013   0.712 -0.4637 -1.1929 -2.3883
  959SOL     OW 2875   1.414   1.353   0.930  0.4277 -0.3290 -0.0812
  959SOL    HW1 2876   1.386   1.418   0.854 -0.3733 -0.2123 -2.4569
  959SOL    HW2 2877   1.360   1.376   1.013  0.0949  1.3614 -1.3381
  960SOL     OW 2878   0.037   1.153   2.797 -0.6033 -0.0020  0.4549
  960SOL    HW1 2879   0.124   1.120   2.757 -0.2558  0.9052 -0.7298
  960SOL    HW2 2880   3.078   1.073   2.818  1.4194 -1.4677  2.1672
  961SOL     OW 2881   0.513   1.523   0.990  0.3294 -0.4998  0.1689
  961SOL    HW1 2882   0.467   1.438   1.020 -3.3999 -0.6774  0.7135
  961SOL    HW2 2883   0.489   1.545   0.894  1.2477 -0.4489 -2.1092
  962SOL     OW 2884   0.884   1.042   0.485 -0.4697  0.3641  0.0320
  962SOL    HW1 2885   0.985   1.055   0.493  1.1586 -0.2654  3.3728
  962SOL    HW2 2886   0.837   1.057   0.572  1.3080 -0.2644 -0.6447
  963SOL     OW 2887   1.465   1.862   2.453 -0.1637  0.1531  0.4631
  963SOL    HW1 2888   1.487   1.962   2.449 -0.7582 -0.3903 -1.3924
  963SOL    HW2 2889   1.501   1.824   2.541 -0.4678 -0.3207  0.0066
  964SOL     OW 2890   0.176   2.549   2.933  0.6641 -0.0471  0.3916
  964SOL    HW1 2891   0.262   2.519   2.883  1.4601 -0.8152  0.0384
  964SOL    HW2 2892   0.197   2.641   2.968  1.5725 -1.8707  1.0712
  965SOL     OW 2893   0.675   2.384   0.288  0.0750 -1.0351 -0.1189
  965SOL    HW1 2894   0.614   2.446   0.348 -1.6132  3.1556  2.9788
  965SOL    HW2 2895   0.761   2.360   0.341  1.7514  1.3725  0.4928
  966SOL     OW 2896   3.000   1.582   2.828  0.7502  0.5818  0.2451
  966SOL    HW1 2897   3.087   1.539   2.798  0.9751  0.2540  1.3659
  966SOL    HW2 2898   3.007   1.682   2.837  0.0446 -0.3097 -0.0340
  967SOL     OW 2899   2.362   3.065   2.972 -1.0963 -0.0876  0.2030
  967SOL    HW1 2900   2.303   3.030   2.895 -1.1530 -0.2200  1.1032
  967SOL    HW2 2901   2.404   0.050   2.955  3.1300 -0.0149  1.9134
  968SOL     OW 2902   2.240   3.005   0.405  0.0318  0.0994  0.4469
  968SOL    HW1 2903   2.222   3.049   0.495  0.2958  1.8596  0.3817
  968SOL    HW2 2904   2.331   3.036   0.364 -1.2034  0.4341  0.9624
  969SOL     OW 2905   0.472   1.553   2.239  0.5248  0.6785  0.0882
  969SOL    HW1 2906   0.507   1.625   2.294 -2.4036  0.8906  0.5846
  969SOL    HW2 2907   0.543   1.483   2.225  2.6387 -0.5137 -0.9127
  970SOL     OW 2908   1.332   1.506   0.707 -0.1561  0.0482  0.3079
  970SOL    HW1 2909   1.357   1.584   0.644  1.1340  1.1591  0.5342
  970SOL    HW2 2910   1.312   1.421   0.660  1.0006  3.0797  1.6999
  971SOL     OW 2911   2.383   0.192   1.165 -0.3794 -0.5445  0.1436
  971SOL    HW1 2912   2.425   0.134   1.238 -1.0905  0.5888 -1.7515
  971SOL    HW2 2913   2.282   0.180   1.161  0.1081  2.7438 -1.3478
  972SOL     OW 2914   0.192   2.928   1.500 -0.2161  0.2303 -0.6408
  972SOL    HW1 2915   0.243   2.884   1.578  0.8363  2.1019 -0.0652
  972SOL    HW2 2916   0.248   3.004   1.462  0.1494 -0.2834 -0.5794
  973SOL     OW 2917   0.656   0.240   2.587  0.1590  0.3998  0.0160
  973SOL    HW1 2918   0.610   0.242   2.496  1.2311  0.5647  0.6713
  973SOL    HW2 2919   0.617   0.312   2.647 -0.1429  0.7454 -0.2450
  974SOL     OW 2920   2.063   1.327   1.871 -0.4072 -0.1324 -0.6987
  974SOL    HW1 2921   1.982   1.339   1.812  1.4454  0.7505 -2.1843
  974SOL    HW2 2922   2.055   1.258   1.947 -2.1067  2.1447 -2.4142
  975SOL     OW 2923   0.172   0.249   1.352  0.2559 -0.0350 -0.2253
  975SOL    HW1 2924   0.227   0.161   1.366  1.3792  2.0917 -1.4877
  975SOL    HW2 2925   0.169   0.282   1.255 -1.4148 -0.4009  1.1714
  976SOL     OW 2926   0.866   2.061   2.421  0.5690 -0.2059 -0.0461
  976SOL    HW1 2927   0.875   2.160   2.448  0.8857  3.3787  0.4306
  976SOL    HW2 2928   0.776   2.038   2.381  3.4533  1.8091 -1.0203
  977SOL     OW 2929   0.836   2.737   0.855 -0.2774 -0.3258  0.2968
  977SOL    HW1 2930   0.864   2.809   0.924 -2.1621  1.0005 -2.9736
  977SOL    HW2 2931   0.919   2.698   0.811 -0.5342 -1.5969 -3.0614
  978SOL     OW 2932   2.975   1.185   2.073  1.0266 -0.2229  0.2653
  978SOL    HW1 2933   2.878   1.162   2.094  1.4735 -1.0003 -1.2204
  978SOL    HW2 2934   3.012   1.231   2.155 -1.7199  1.3273 -0.6137
  979SOL     OW 2935   1.851   2.686   1.744 -0.2803  0.8517  0.1191
  979SOL    HW1 2936   1.828   2.651   1.651  1.3991 -1.1885 -1.9636
  979SOL    HW2 2937   1.805   2.637   1.822  0.7101  0.1335 -0.4117
  980SOL     OW 2938   1.423   1.658   2.268  0.0958  0.2247  0.3957
  980SOL    HW1 2939   1.334   1.611   2.288  0.8889 -0.3858  0.4820
  980SOL    HW2 2940   1.443   1.735   2.331 -1.8257 -1.1299 -0.0465
  981SOL     OW 2941   2.293   0.596   1.621 -0.3494 -0.2709  0.7590
  981SOL    HW1 2942   2.339   0.587   1.711 -2.2389 -2.5105  2.9322
  981SOL    HW2 2943   2.307   0.687   1.576  0.3906  0.6132  3.2541
  982SOL     OW 2944   0.317   0.329   2.588 -0.0443  0.2068 -0.4798
  982SOL    HW1 2945   0.397   0.374   2.635 -0.0863  2.6079 -1.2497
  982SOL    HW2 2946   0.248   0.303   2.659  0.0119  0.0522  1.3897
  983SOL     OW 2947   2.409   0.550   2.403 -0.1003 -0.0753 -0.1980
  983SOL    HW1 2948   2.367   0.585   2.492  0.5815 -1.3151  2.8069
  983SOL    HW2 2949   2.508   0.521   2.408  2.1354 -0.8727  0.1142
  984SOL     OW 2950   1.314   3.102   2.061  0.3584 -1.3018 -0.2175
  984SOL    HW1 2951   1.415   3.085   2.062  0.4509 -0.5534 -1.6300
  984SOL    HW2 2952   1.260   3.021   2.078  0.5030  1.7181 -2.9714
  985SOL     OW 2953   1.928   1.669   1.820  0.5545 -0.0774 -0.1972
  985SOL    HW1 2954   1.833   1.710   1.834  0.3508 -0.0868  2.7086
  985SOL    HW2 2955   1.952   1.613   1.903 -1.0729 -0.0197  1.2670
  986SOL     OW 2956   2.651   0.574   1.293  0.0445 -0.0824 -0.0171
  986SOL    HW1 2957   2.744   0.581   1.247  0.5823 -0.3323 -0.9383
  986SOL    HW2 2958   2.591   0.641   1.243  1.2452 -1.4857  0.8667
  987SOL     OW 2959   2.606   0.997   1.329 -0.6414  0.0511  0.3481
  987SOL    HW1 2960   2.640   1.090   1.312  1.3788 -2.4813 -1.2089
  987SOL    HW2 2961   2.530   0.980   1.264  0.0625  0.7624 -0.1585
  988SOL     OW 2962   0.051   0.973   2.070  0.0790 -0.5711  0.1420
  988SOL    HW1 2963   3.104   1.056   2.090  2.2698 -0.6661  1.4556
  988SOL    HW2 2964   0.113   0.958   2.153  0.5918  0.6886  1.3292
  989SOL     OW 2965   1.747   1.705   0.239  0.4567  0.4878  0.5811
  989SOL    HW1 2966   1.807   1.782   0.257  0.8699 -1.5452  1.1372
  989SOL    HW2 2967   1.657   1.740   0.199  0.4065 -1.4604  1.4339
  990SOL     OW 2968   0.854   0.567   2.105 -0.3639 -0.8362 -0.1126
  990SOL    HW1 2969   0.868   0.591   2.204 -0.4212 -0.2165 -0.5052
  990SOL    HW2 2970   0.930   0.606   2.047  0.3314 -0.7036 -1.7259
  991SOL     OW 2971   1.355   1.301   0.547  0.3822 -0.1201  0.0914
  991SOL    HW1 2972   1.389   1.340   0.460  0.7345  2.1721  2.1888
  991SOL    HW2 2973   1.285   1.231   0.527  0.4691 -0.3223 -0.7386
  992SOL     OW 2974   2.157   1.245   0.755 -0.2586  0.0771  0.1743
  992SOL    HW1 2975   2.214   1.162   0.752 -0.1390  0.5024  0.3638
  992SOL    HW2 2976   2.066   1.220   0.719 -0.3109 -1.4192 -1.2350
  993SOL     OW 2977   3.035   0.915   0.754  0.2770  0.0406  0.5830
  993SOL    HW1 2978   3.081   0.901   0.841  1.1043 -1.0875 -2.7261
  993SOL    HW2 2979   3.083   0.861   0.682  0.9062  1.3054  0.1170
  994SOL     OW 2980   0.242   2.163   2.557  0.1822 -0.3371 -0.5537
  994SOL    HW1 2981   0.191   2.116   2.484 -2.2294  1.6413  1.5103
  994SOL    HW2 2982   0.199   2.149   2.651  1.3734  1.6668  0.2100
  995SOL     OW 2983   1.929   1.117   2.559  0.3143  0.2805 -0.1308
  995SOL    HW1 2984   1.879   1.044   2.512  0.8165  3.1361 -0.6815
  995SOL    HW2 2985   1.874   1.202   2.565  1.6337 -1.1461  1.5480
  996SOL     OW 2986   2.759   1.160   0.545  0.3715  0.3549 -0.4345
  996SOL    HW1 2987   2.673   1.175   0.495  0.5452 -0.2276 -2.5566
  996SOL    HW2 2988   2.821   1.124   0.475  0.0821 -1.8579  0.1766
  997SOL     OW 2989   1.843   1.043   1.819 -0.0434 -0.4179  1.0239
  997SOL    HW1 2990   1.914   0.992   1.872 -0.4861  1.4126 -1.2789
  997SOL    HW2 2991   1.769   0.977   1.794  1.1712  0.2146  1.1478
  998SOL     OW 2992   2.605   2.040   0.237 -0.3442 -0.5135 -0.7547
  998SOL    HW1 2993   2.552   2.112   0.194 -1.5290 -1.0037 -1.6171
  998SOL    HW2 2994   2.570   1.948   0.208  2.6787  0.2551 -1.9510
  999SOL     OW 2995   3.015   2.170   0.080  0.0257  0.1617  0.1085
  999SOL    HW1 2996   2.928   2.153   0.024 -2.6049  1.4329  1.1894
  999SOL    HW2 2997   2.994   2.217   0.172 -2.7425 -1.2600  0.2820
 1000SOL     OW 2998   0.983   1.077   2.239  0.2907 -0.2483  0.8510
 1000SOL    HW1 2999   0.936   1.022   2.311  0.1575 -0.6604  0.6618
 1000SOL    HW2 3000   1.059   1.136   2.282  0.9074  0.2923  0.4635
   3.10875   3.10875   3.10875
