1000 SPC/Fw water molecules t= 172.00000 step= 172000
 3000
    1SOL     OW    1   2.718   2.811   0.706 -0.0934  0.2819  0.1642
    1SOL    HW1    2   2.644   2.875   0.713  2.3114 -0.0059  0.6800
    1SOL    HW2    3   2.765   2.821   0.612  0.9126  2.5390 -1.3529
    2SOL     OW    4   1.561   1.835   2.126  0.4094 -0.3481  0.0892
    2SOL    HW1    5   1.552   1.871   2.030  2.5613 -0.8210  1.8584
    2SOL    HW2    6   1.568   1.735   2.135 -2.0679  5.7543  0.0204
    3SOL     OW    7   1.720   2.484   2.267  0.3576 -0.2673 -0.0469
    3SOL    HW1    8   1.781   2.552   2.222 -0.9688 -0.0507 -1.6195
    3SOL    HW2    9   1.625   2.523   2.286 -4.3176  2.8258  0.8030
    4SOL     OW   10   1.991   1.952   1.922  0.8073  0.7131  0.3137
    4SOL    HW1   11   1.986   1.933   2.022 -0.0125  4.1566  1.0413
    4SOL    HW2   12   1.925   2.023   1.904  3.2843 -0.3352 -1.2664
    5SOL     OW   13   0.957   0.504   1.774 -0.0427  0.5566 -0.0258
    5SOL    HW1   14   1.000   0.538   1.687 -1.5524 -1.3042 -1.1714
    5SOL    HW2   15   0.907   0.583   1.814  1.7815 -1.0164  0.8219
    6SOL     OW   16   2.493   0.951   2.973  0.3682  0.0338  0.6355
    6SOL    HW1   17   2.496   0.885   2.897 -0.7847 -0.6689 -2.0325
    6SOL    HW2   18   2.437   1.031   2.942  0.7011  1.7069 -2.7960
    7SOL     OW   19   1.106   0.824   1.310  0.0012  0.4492  0.4290
    7SOL    HW1   20   1.094   0.742   1.371 -0.4532 -1.2749 -1.2290
    7SOL    HW2   21   1.024   0.836   1.253  1.1797  1.7919  0.8231
    8SOL     OW   22   1.075   2.964   1.244  0.1208 -0.5151  0.2311
    8SOL    HW1   23   1.019   3.014   1.313 -0.0079  1.3690  1.2386
    8SOL    HW2   24   1.113   2.876   1.279  0.0655 -0.0135 -1.4754
    9SOL     OW   25   0.933   1.004   0.042 -0.1549  0.0378  0.1004
    9SOL    HW1   26   0.891   1.095   0.030  0.2295 -3.1315  0.4594
    9SOL    HW2   27   0.993   1.003   0.123  1.2525  0.9063 -0.9876
   10SOL     OW   28   0.419   2.882   0.207 -0.5127 -0.2450 -0.3716
   10SOL    HW1   29   0.440   2.871   0.310 -1.3291  1.1389  1.3943
   10SOL    HW2   30   0.381   2.794   0.171  1.6324 -2.1685  1.2826
   11SOL     OW   31   0.198   1.343   2.912 -0.4116 -0.2832 -0.2189
   11SOL    HW1   32   0.291   1.375   2.878  0.3641  2.1824 -0.9314
   11SOL    HW2   33   0.130   1.423   2.913 -2.5022  3.0596  0.1020
   12SOL     OW   34   0.657   3.014   1.309 -0.0634  0.1424  0.0128
   12SOL    HW1   35   0.555   3.026   1.302 -0.3595 -1.9108 -2.2868
   12SOL    HW2   36   0.685   2.922   1.343  4.2630 -0.1595 -0.7893
   13SOL     OW   37   0.728   2.850   0.562 -0.3758  0.2413  0.3374
   13SOL    HW1   38   0.635   2.847   0.521 -1.1290 -0.8362  1.3313
   13SOL    HW2   39   0.767   2.754   0.552  1.8741 -1.0324  0.4539
   14SOL     OW   40   1.094   2.089   1.261 -0.4059 -0.1301 -0.3942
   14SOL    HW1   41   0.996   2.106   1.273  1.1801 -1.2576  4.1753
   14SOL    HW2   42   1.131   2.004   1.306 -1.6994 -1.0157  0.4448
   15SOL     OW   43   2.633   0.936   2.355  0.2109  0.4445 -0.3405
   15SOL    HW1   44   2.595   0.978   2.442 -0.8570  0.4231 -0.0548
   15SOL    HW2   45   2.576   0.855   2.322 -0.1658 -3.6129 -2.3970
   16SOL     OW   46   1.162   2.794   2.891 -0.2003  0.4210 -0.0867
   16SOL    HW1   47   1.201   2.799   2.801  2.1847  2.6134  1.1811
   16SOL    HW2   48   1.215   2.734   2.951  1.2536 -1.9100  1.2613
   17SOL     OW   49   0.763   2.942   1.730  0.8013  0.0605  0.3727
   17SOL    HW1   50   0.748   2.946   1.828  0.5380 -1.1019 -0.9883
   17SOL    HW2   51   0.849   2.996   1.705  1.1042 -2.0203  1.4231
   18SOL     OW   52   1.644   0.752   0.267  0.3502  0.0402 -0.0141
   18SOL    HW1   53   1.677   0.806   0.187 -0.1998  0.2277 -0.2958
   18SOL    HW2   54   1.622   0.653   0.243  2.3065 -0.4773 -2.2129
   19SOL     OW   55   2.055   1.643   2.847 -0.2546 -0.0545  0.5684
   19SOL    HW1   56   2.090   1.657   2.944  1.9605  0.2857  5.1314
   19SOL    HW2   57   2.093   1.717   2.781 -0.9221  2.0006 -0.5495
   20SOL     OW   58   2.212   1.881   1.806 -0.0045 -0.4137  0.2878
   20SOL    HW1   59   2.276   1.866   1.885  2.8697  3.5338 -0.6705
   20SOL    HW2   60   2.121   1.920   1.845 -1.6721  1.1026  0.1195
   21SOL     OW   61   0.448   1.454   2.816  0.8627 -0.2500 -0.4698
   21SOL    HW1   62   0.542   1.425   2.831 -2.3439 -2.8711 -1.3079
   21SOL    HW2   63   0.438   1.479   2.718  1.7932 -0.0131  2.2866
   22SOL     OW   64   2.698   3.006   1.397 -0.4118  0.3498 -0.0149
   22SOL    HW1   65   2.703   3.078   1.325 -1.2681  0.0952 -2.9655
   22SOL    HW2   66   2.614   2.950   1.389  0.2544 -0.3093  4.0456
   23SOL     OW   67   2.867   0.905   1.779  0.4197  0.0615 -0.0738
   23SOL    HW1   68   2.806   0.986   1.771  2.6935 -2.1818  1.5794
   23SOL    HW2   69   2.909   0.876   1.688 -0.9648 -2.5617  0.3064
   24SOL     OW   70   2.656   2.080   1.371 -0.2160 -0.0965  0.3715
   24SOL    HW1   71   2.648   2.179   1.355 -0.3638 -1.8316 -0.8425
   24SOL    HW2   72   2.638   2.060   1.468  2.6606 -0.9612 -2.1977
   25SOL     OW   73   1.898   2.876   2.454 -0.9428  0.6802 -0.1321
   25SOL    HW1   74   1.961   2.925   2.388  0.8539  1.9180 -1.5283
   25SOL    HW2   75   1.908   2.777   2.454 -0.7660 -0.1390 -2.5453
   26SOL     OW   76   1.245   0.045   0.047 -0.2805  0.4242 -1.0653
   26SOL    HW1   77   1.318   3.105   0.102  1.2895 -3.0372 -0.4272
   26SOL    HW2   78   1.256   0.005   3.064 -1.1744 -0.9198 -0.6520
   27SOL     OW   79   0.472   2.112   3.063  0.0656 -0.2499 -0.6692
   27SOL    HW1   80   0.569   2.101   3.063 -3.6668 -2.5875 -0.4733
   27SOL    HW2   81   0.443   2.161   2.978  0.1676  1.3907  3.3249
   28SOL     OW   82   3.090   1.604   1.253  0.2747  0.3197  0.1073
   28SOL    HW1   83   2.993   1.610   1.216 -0.3982 -1.4541  1.7606
   28SOL    HW2   84   0.041   1.599   1.171  2.2528 -1.4465 -1.8901
   29SOL     OW   85   2.624   1.949   2.065  0.9189 -0.3735 -0.2038
   29SOL    HW1   86   2.637   1.900   2.160  0.8434  1.0108  2.6383
   29SOL    HW2   87   2.701   2.014   2.054  0.6353 -1.3695 -1.7063
   30SOL     OW   88   1.200   2.908   1.011 -0.3610 -0.0925 -0.0355
   30SOL    HW1   89   1.127   2.870   0.953  0.8853  1.3598  0.0811
   30SOL    HW2   90   1.160   2.949   1.095 -0.6389 -0.3737  1.7321
   31SOL     OW   91   3.083   2.414   1.893  0.2274 -0.1072 -0.0547
   31SOL    HW1   92   3.086   2.453   1.797 -0.0944 -2.2061  1.3000
   31SOL    HW2   93   0.030   2.329   1.910 -1.7132  0.8476 -0.2803
   32SOL     OW   94   1.430   1.006   1.699  0.1517 -0.0706 -0.2684
   32SOL    HW1   95   1.389   0.978   1.607 -0.2735  0.0900  2.0068
   32SOL    HW2   96   1.405   1.098   1.732  1.3583 -0.5127 -1.6643
   33SOL     OW   97   0.378   2.849   2.458  0.2644  0.0241 -0.7114
   33SOL    HW1   98   0.408   2.871   2.364 -1.4443 -0.1995  0.8282
   33SOL    HW2   99   0.464   2.856   2.521  3.4730  1.4457  2.2084
   34SOL     OW  100   1.777   0.070   1.150  0.3440 -0.1349  0.4844
   34SOL    HW1  101   1.804   0.013   1.069 -0.5171  0.7206  1.0401
   34SOL    HW2  102   1.687   0.121   1.130 -3.0122 -0.2039 -1.2667
   35SOL     OW  103   2.338   0.757   1.456  0.0484 -0.1017  0.6584
   35SOL    HW1  104   2.267   0.831   1.446  1.1071  2.6527 -0.0646
   35SOL    HW2  105   2.434   0.800   1.456  2.1716  2.5676  1.0393
   36SOL     OW  106   2.467   2.340   2.065 -0.1060  0.3048  0.7007
   36SOL    HW1  107   2.524   2.310   2.143  3.0095 -2.4553 -2.9515
   36SOL    HW2  108   2.441   2.260   2.004  0.7707  1.2845 -0.3614
   37SOL     OW  109   0.977   2.315   2.340  0.3410  0.0136 -0.1028
   37SOL    HW1  110   1.059   2.349   2.396  1.2016  0.1803 -0.5737
   37SOL    HW2  111   0.895   2.338   2.393 -1.1459 -0.8938  2.1534
   38SOL     OW  112   2.481   0.409   3.035  0.0139 -0.0462 -0.1071
   38SOL    HW1  113   2.494   0.305   3.033 -1.0170  1.9941 -0.1741
   38SOL    HW2  114   2.428   0.444   2.955  1.0250  1.9391 -0.8586
   39SOL     OW  115   2.269   1.500   2.171  0.0161 -0.6086 -0.3505
   39SOL    HW1  116   2.341   1.472   2.102 -1.2333  1.9104 -0.1521
   39SOL    HW2  117   2.230   1.422   2.228 -0.8445  0.0194  0.8851
   40SOL     OW  118   0.115   3.093   2.544  0.3534  0.2250  0.4036
   40SOL    HW1  119   0.022   0.025   2.565  1.9578  0.4139 -0.6924
   40SOL    HW2  120   0.125   3.001   2.589  2.4411  0.1689  1.4879
   41SOL     OW  121   1.853   0.463   1.335  0.0330 -0.1093  0.6430
   41SOL    HW1  122   1.850   0.476   1.235 -0.9228 -1.3120 -0.9034
   41SOL    HW2  123   1.896   0.372   1.347  0.7888  0.3544  0.8668
   42SOL     OW  124   0.884   0.222   1.796  0.1621  0.2542 -0.5592
   42SOL    HW1  125   0.894   0.327   1.793  0.3335  2.7345 -0.8347
   42SOL    HW2  126   0.820   0.191   1.873 -1.1954 -0.8538 -1.6416
   43SOL     OW  127   1.847   0.573   1.916  0.0065 -0.0276  0.2243
   43SOL    HW1  128   1.838   0.476   1.887  0.0756 -0.3515 -1.1038
   43SOL    HW2  129   1.834   0.641   1.841  0.3084 -0.7233 -0.8659
   44SOL     OW  130   0.085   2.889   3.042  1.0532 -0.2985 -0.0587
   44SOL    HW1  131   0.003   2.836   3.028  2.1763  0.9694  1.9658
   44SOL    HW2  132   0.098   2.971   2.979  0.1604  0.7511  0.8362
   45SOL     OW  133   0.198   2.434   1.603 -0.2556 -0.3668  0.3227
   45SOL    HW1  134   0.096   2.469   1.606 -3.3994  0.6936 -0.5531
   45SOL    HW2  135   0.264   2.494   1.659 -1.3620  1.8213  1.1345
   46SOL     OW  136   2.121   2.178   2.260 -0.0614 -0.0759  0.0187
   46SOL    HW1  137   2.203   2.181   2.322  1.5694 -0.2428  0.3694
   46SOL    HW2  138   2.134   2.232   2.172  0.5979 -0.5888 -3.2255
   47SOL     OW  139   1.588   2.082   1.648 -0.4313  0.1816  0.4586
   47SOL    HW1  140   1.613   2.179   1.664 -0.8681 -0.7207  0.4892
   47SOL    HW2  141   1.536   2.074   1.562  0.6405  0.8286 -0.7782
   48SOL     OW  142   0.520   1.490   0.434 -0.0270 -0.2466  0.4852
   48SOL    HW1  143   0.587   1.562   0.409 -1.6676  0.0577 -0.6138
   48SOL    HW2  144   0.424   1.525   0.424 -0.8342 -1.5081 -0.2470
   49SOL     OW  145   2.667   0.459   2.594 -0.5120 -0.0349  0.2383
   49SOL    HW1  146   2.688   0.511   2.681  2.2452 -0.5562 -1.9316
   49SOL    HW2  147   2.685   0.517   2.512 -0.8171 -0.0851 -1.8725
   50SOL     OW  148   1.945   0.688   0.919  0.0642  0.1628 -0.0247
   50SOL    HW1  149   1.947   0.779   0.961  0.2933 -1.7728 -0.2506
   50SOL    HW2  150   1.915   0.696   0.821  0.5493  0.9632 -0.4357
   51SOL     OW  151   1.389   0.481   0.940  0.6426 -0.1154  0.4205
   51SOL    HW1  152   1.284   0.474   0.951 -3.1038  0.0959 -0.3723
   51SOL    HW2  153   1.412   0.559   0.879  0.1161  1.0362  0.4031
   52SOL     OW  154   1.355   1.259   3.088  0.0750  0.3338  0.4170
   52SOL    HW1  155   1.340   1.215   0.070  0.3312  0.4872 -1.3907
   52SOL    HW2  156   1.390   1.353   3.082 -1.9721 -1.4856 -0.0343
   53SOL     OW  157   1.120   2.088   2.668  0.3076 -0.1359 -0.1057
   53SOL    HW1  158   1.083   2.147   2.737  1.2929 -1.3286 -1.6520
   53SOL    HW2  159   1.221   2.103   2.652  1.6989  0.9564 -1.1632
   54SOL     OW  160   2.045   0.277   1.392 -0.5147  0.0301 -0.3406
   54SOL    HW1  161   2.089   0.316   1.475  1.7014  0.7022 -0.8511
   54SOL    HW2  162   2.100   0.195   1.362 -0.2040 -0.4904 -1.0343
   55SOL     OW  163   2.105   2.758   0.556 -0.1325 -0.0039  0.0513
   55SOL    HW1  164   2.171   2.767   0.482 -2.0838 -2.0516  1.5470
   55SOL    HW2  165   2.013   2.739   0.515  0.0092 -0.8840  2.2278
   56SOL     OW  166   0.705   2.777   1.432  0.1072  0.3779  0.8201
   56SOL    HW1  167   0.786   2.733   1.474  0.1563 -0.4104  0.8020
   56SOL    HW2  168   0.630   2.772   1.495  3.4394 -2.6936 -1.1298
   57SOL     OW  169   1.732   1.247   0.479 -0.1151 -0.1991 -0.2422
   57SOL    HW1  170   1.700   1.237   0.386 -1.3705  1.1064  2.3772
   57SOL    HW2  171   1.826   1.292   0.473 -1.1037 -0.6093 -0.4656
   58SOL     OW  172   0.229   1.058   2.240  0.7270 -0.0554  0.2069
   58SOL    HW1  173   0.225   1.163   2.241  2.8364  1.4030 -0.3598
   58SOL    HW2  174   0.137   1.012   2.244 -0.3408 -1.6867  0.1164
   59SOL     OW  175   1.057   2.778   2.525  0.6456  0.1854  0.0454
   59SOL    HW1  176   1.149   2.794   2.568 -0.8807  1.8084 -0.9518
   59SOL    HW2  177   0.982   2.813   2.589  1.0859 -0.2784 -0.3758
   60SOL     OW  178   2.457   2.499   0.901 -0.6089  0.1493  0.2735
   60SOL    HW1  179   2.376   2.527   0.848  0.9017  0.2611  0.4770
   60SOL    HW2  180   2.446   2.534   0.994  0.8021  0.8848  0.6040
   61SOL     OW  181   1.179   1.947   0.829  0.2294 -0.2977  0.0832
   61SOL    HW1  182   1.109   2.015   0.867 -2.3493  1.1946  0.7687
   61SOL    HW2  183   1.261   2.004   0.802  0.3437  0.6243 -1.5295
   62SOL     OW  184   2.085   2.644   2.757 -0.2029 -0.2824 -0.5561
   62SOL    HW1  185   2.090   2.617   2.852 -2.2955 -0.2514  1.3836
   62SOL    HW2  186   2.094   2.745   2.746 -1.0806 -0.0139  3.0095
   63SOL     OW  187   2.278   0.648   0.049  0.2896 -0.0289  0.0281
   63SOL    HW1  188   2.190   0.598   0.066  3.1258 -0.6031  3.4585
   63SOL    HW2  189   2.355   0.596   0.102  1.0031  0.6233  3.1616
   64SOL     OW  190   0.989   0.984   2.897 -0.4483  0.2103  0.1953
   64SOL    HW1  191   1.059   1.060   2.892  2.5515  0.8178  1.0111
   64SOL    HW2  192   0.961   0.977   2.997  0.7581  1.8950  2.2363
   65SOL     OW  193   1.073   2.503   0.507 -0.0759  0.2741 -0.1998
   65SOL    HW1  194   1.156   2.526   0.453 -0.0655  0.7958  1.5585
   65SOL    HW2  195   1.095   2.420   0.562  1.2672 -0.1524 -2.1037
   66SOL     OW  196   0.899   1.171   1.745 -0.5541 -0.1586 -0.7631
   66SOL    HW1  197   0.918   1.072   1.743  2.4033  2.7301 -0.2271
   66SOL    HW2  198   0.831   1.195   1.815  0.8617 -1.7082 -2.6564
   67SOL     OW  199   2.352   0.013   2.338 -0.0603  0.3377  0.3456
   67SOL    HW1  200   2.252   0.015   2.308 -1.2249  1.4731  0.4326
   67SOL    HW2  201   2.405   0.082   2.279 -0.3842 -0.2290 -0.8536
   68SOL     OW  202   0.732   1.474   1.043 -0.1584  0.7146 -0.7031
   68SOL    HW1  203   0.820   1.452   1.099  0.2141  0.8996 -0.4369
   68SOL    HW2  204   0.747   1.491   0.944  1.2970  0.7794  0.8813
   69SOL     OW  205   1.445   2.358   0.217 -0.2025 -0.6681 -0.2291
   69SOL    HW1  206   1.421   2.456   0.214  1.8992  1.7464  0.0219
   69SOL    HW2  207   1.531   2.351   0.276  0.9985 -0.7867  2.7371
   70SOL     OW  208   2.959   1.134   2.477  0.5148  0.0723 -0.0380
   70SOL    HW1  209   2.893   1.204   2.520 -1.7197 -0.8703  1.3666
   70SOL    HW2  210   2.911   1.049   2.445 -0.6009  0.4856  0.5817
   71SOL     OW  211   2.934   1.847   2.793  0.5267  0.1616 -0.4735
   71SOL    HW1  212   2.918   1.748   2.763 -0.7707 -1.7904  0.6997
   71SOL    HW2  213   3.004   1.844   2.872  1.4778  2.7230  1.7055
   72SOL     OW  214   2.911   2.364   0.427  0.2424 -0.3521 -0.2823
   72SOL    HW1  215   2.961   2.306   0.490  1.9029  1.1840  1.5535
   72SOL    HW2  216   2.882   2.313   0.345 -0.4453  0.8492  0.4441
   73SOL     OW  217   0.759   1.640   0.462  0.3783 -0.0791 -0.0268
   73SOL    HW1  218   0.688   1.703   0.504 -2.8715  3.2296  0.5343
   73SOL    HW2  219   0.845   1.694   0.458  1.2382 -2.2323  0.0506
   74SOL     OW  220   0.046   1.603   2.469 -0.8594 -0.9707  0.4670
   74SOL    HW1  221   0.126   1.661   2.497 -0.4721 -0.0851  1.4361
   74SOL    HW2  222   0.044   1.508   2.508 -0.2440 -0.3259  0.5358
   75SOL     OW  223   1.704   1.446   1.760 -0.4979 -0.0826 -0.0773
   75SOL    HW1  224   1.753   1.536   1.778  3.6903 -0.6911  1.3582
   75SOL    HW2  225   1.606   1.455   1.729 -1.2800  1.9959 -0.8363
   76SOL     OW  226   1.913   2.653   1.497 -0.1386  0.1224 -0.2677
   76SOL    HW1  227   1.907   2.725   1.423 -0.3185  1.6339  0.1056
   76SOL    HW2  228   1.896   2.693   1.588 -1.0284 -2.8180  0.9099
   77SOL     OW  229   2.712   0.983   1.183  0.1053  0.5750 -0.1566
   77SOL    HW1  230   2.767   0.945   1.263  1.8889  1.5681  0.7868
   77SOL    HW2  231   2.654   0.908   1.142  1.1203  2.2605 -2.3862
   78SOL     OW  232   1.348   0.893   0.594 -0.2527 -0.1004  0.1465
   78SOL    HW1  233   1.425   0.897   0.525  2.9832 -1.6032 -1.5192
   78SOL    HW2  234   1.370   0.819   0.661  1.1076 -1.2152 -1.9738
   79SOL     OW  235   0.050   1.645   1.711 -0.3409  0.2843  0.6320
   79SOL    HW1  236   0.116   1.620   1.637 -1.0697  0.0125  0.2353
   79SOL    HW2  237   3.065   1.616   1.686 -0.1466  1.0292  0.6212
   80SOL     OW  238   1.548   0.759   1.398  0.4886 -0.4925  0.4147
   80SOL    HW1  239   1.513   0.666   1.387  0.3016 -0.5457 -0.6182
   80SOL    HW2  240   1.475   0.828   1.370  0.6437 -0.3311  0.5598
   81SOL     OW  241   0.741   0.323   0.896 -0.4523  0.4096 -0.1331
   81SOL    HW1  242   0.740   0.339   0.797 -1.9490 -1.1018  0.7901
   81SOL    HW2  243   0.654   0.278   0.924  3.9844  1.5286  1.5561
   82SOL     OW  244   1.405   2.836   1.554 -0.2711 -0.0296  0.4121
   82SOL    HW1  245   1.397   2.775   1.474  0.4261  1.2054  0.1887
   82SOL    HW2  246   1.492   2.886   1.549  4.0553 -1.2190 -3.0722
   83SOL     OW  247   0.990   2.098   0.991 -0.0634  0.0279 -0.1468
   83SOL    HW1  248   0.889   2.095   0.988 -0.4530  1.5136  0.1932
   83SOL    HW2  249   1.025   2.071   1.082 -0.4559  1.0868  1.7660
   84SOL     OW  250   0.407   1.550   2.554 -0.5007  0.1599 -0.2493
   84SOL    HW1  251   0.336   1.624   2.556  2.5905 -1.4316  0.8187
   84SOL    HW2  252   0.491   1.578   2.499  3.0749 -0.2747 -2.8197
   85SOL     OW  253   0.124   2.206   1.471 -0.5147  0.4607  0.5542
   85SOL    HW1  254   0.027   2.225   1.439 -0.6271 -1.0117 -1.5319
   85SOL    HW2  255   0.153   2.286   1.532 -0.3796  3.5578  2.8938
   86SOL     OW  256   2.271   2.245   1.257  0.3166  0.0879 -0.2102
   86SOL    HW1  257   2.241   2.185   1.336 -1.8314 -1.4524  0.4144
   86SOL    HW2  258   2.353   2.299   1.285  1.7700  0.8927 -0.3819
   87SOL     OW  259   2.796   2.214   0.237  0.3934 -0.7129 -0.0600
   87SOL    HW1  260   2.710   2.166   0.232  3.1642 -0.8476 -1.0594
   87SOL    HW2  261   2.845   2.213   0.144  4.2887  0.5238  0.6539
   88SOL     OW  262   0.460   1.476   1.001 -0.1974  0.4241 -0.2042
   88SOL    HW1  263   0.418   1.531   1.077  0.3245 -1.1910  3.3959
   88SOL    HW2  264   0.561   1.467   1.012  0.4648  1.0735 -1.2400
   89SOL     OW  265   1.050   2.957   2.052 -0.0008  0.0984  0.1054
   89SOL    HW1  266   1.101   2.906   1.984  0.0287  0.3235  1.2917
   89SOL    HW2  267   1.053   3.059   2.034  0.7529 -0.4267 -0.9627
   90SOL     OW  268   0.033   1.851   1.378  0.0822 -0.3024  0.3731
   90SOL    HW1  269   3.061   1.860   1.442 -1.4121  1.1960  1.0876
   90SOL    HW2  270   0.036   1.760   1.339 -1.2166 -1.3376 -0.3528
   91SOL     OW  271   1.439   1.935   1.170  0.1352 -0.3452 -0.1931
   91SOL    HW1  272   1.358   1.895   1.120 -2.5047 -1.2005 -0.0776
   91SOL    HW2  273   1.480   1.868   1.227 -3.4295  0.5854 -1.5258
   92SOL     OW  274   2.470   2.394   1.361  0.2699  0.5268  0.4540
   92SOL    HW1  275   2.491   2.452   1.439 -2.0085 -2.1279 -0.2003
   92SOL    HW2  276   2.554   2.397   1.299 -0.0276  1.9036  1.4686
   93SOL     OW  277   2.599   1.594   2.527  0.2693 -0.2907 -0.4265
   93SOL    HW1  278   2.586   1.515   2.463  0.8939  1.6448 -1.2555
   93SOL    HW2  279   2.697   1.605   2.556  0.5265 -2.6493 -1.9592
   94SOL     OW  280   2.860   2.728   2.053 -0.1123 -0.0023  0.0487
   94SOL    HW1  281   2.876   2.702   2.151 -0.3613 -2.5388  1.3485
   94SOL    HW2  282   2.938   2.765   2.005 -0.4181  1.5411  1.4751
   95SOL     OW  283   1.638   0.217   1.756 -0.5482 -0.6180 -0.0024
   95SOL    HW1  284   1.693   0.268   1.826 -0.4828  0.5690  1.9302
   95SOL    HW2  285   1.573   0.148   1.795 -0.6979  0.2748  1.0161
   96SOL     OW  286   0.017   2.929   1.482  0.2732 -0.2698 -0.3313
   96SOL    HW1  287   3.030   2.966   1.492  1.2267 -1.2715 -0.5206
   96SOL    HW2  288   0.020   2.874   1.398  3.9381  0.7087  1.0723
   97SOL     OW  289   2.328   0.201   1.564 -0.1379  0.0777 -0.2262
   97SOL    HW1  290   2.261   0.278   1.584 -1.9710 -1.7786 -0.9133
   97SOL    HW2  291   2.420   0.230   1.594 -1.1102 -1.7469 -0.4588
   98SOL     OW  292   1.410   2.564   1.644  0.3940  0.4065 -0.2498
   98SOL    HW1  293   1.399   2.668   1.637  1.9134 -1.8974  0.3191
   98SOL    HW2  294   1.380   2.523   1.733  0.2751  1.1076  1.2801
   99SOL     OW  295   0.258   3.049   1.908 -0.1918 -0.1558 -0.0532
   99SOL    HW1  296   0.254   3.001   1.818 -0.6944 -1.3918  0.9109
   99SOL    HW2  297   0.168   3.100   1.914 -0.6105 -1.8211  1.2574
  100SOL     OW  298   3.014   1.118   2.194  0.4302  0.1792 -0.4602
  100SOL    HW1  299   3.027   1.207   2.146 -0.1911 -1.3428  1.3413
  100SOL    HW2  300   3.006   1.134   2.295  1.7044 -0.0266  1.7306
  101SOL     OW  301   1.707   0.460   0.495  0.0002 -0.6599 -0.5560
  101SOL    HW1  302   1.618   0.506   0.492  1.9593 -0.4832 -1.8967
  101SOL    HW2  303   1.772   0.501   0.563 -0.0016  1.0749 -0.0322
  102SOL     OW  304   0.120   0.706   1.677 -0.2216  0.1266 -0.1394
  102SOL    HW1  305   0.174   0.620   1.697 -1.0654 -0.3670  0.9104
  102SOL    HW2  306   0.155   0.785   1.724 -1.1560 -0.5592 -1.5814
  103SOL     OW  307   2.242   0.702   2.865 -0.3480 -0.2467 -0.1527
  103SOL    HW1  308   2.259   0.687   2.965 -2.8580  1.3433 -0.4487
  103SOL    HW2  309   2.166   0.767   2.844 -1.7090  1.1646  1.1873
  104SOL     OW  310   0.001   0.279   2.128 -0.3981  0.0936  0.1641
  104SOL    HW1  311   0.023   0.377   2.092 -0.8331  3.6654 -0.1096
  104SOL    HW2  312   0.007   0.264   2.228 -3.0881  0.4135 -1.0008
  105SOL     OW  313   2.114   0.955   1.745 -0.3798  0.4743 -0.2864
  105SOL    HW1  314   2.033   0.888   1.738 -1.8068 -1.4731 -0.7080
  105SOL    HW2  315   2.140   0.990   1.654 -0.8313 -2.6637  2.4217
  106SOL     OW  316   1.331   3.071   0.765 -0.1745 -0.3483 -0.2447
  106SOL    HW1  317   1.268   0.029   0.721  0.4652  1.4592 -0.4866
  106SOL    HW2  318   1.293   3.044   0.856 -0.5984 -0.1740  0.3263
  107SOL     OW  319   0.119   1.353   0.896  0.0586  0.1010  0.1238
  107SOL    HW1  320   0.097   1.392   0.805  0.4853 -0.3497  0.1964
  107SOL    HW2  321   0.034   1.308   0.929  3.5702 -1.5392  1.0103
  108SOL     OW  322   0.052   0.254   2.425  0.7890 -0.5615 -0.0473
  108SOL    HW1  323   3.098   0.196   2.483 -1.6134  1.4585  0.2953
  108SOL    HW2  324   0.132   0.209   2.385 -1.0705 -0.2545 -2.5129
  109SOL     OW  325   2.586   0.190   0.311 -0.6078 -0.1096 -0.5824
  109SOL    HW1  326   2.521   0.246   0.258  0.5206 -0.8590 -0.1946
  109SOL    HW2  327   2.680   0.232   0.294  2.0230  1.1322  0.9604
  110SOL     OW  328   0.266   2.433   2.777  0.1721 -0.2151 -0.5630
  110SOL    HW1  329   0.200   2.390   2.712 -0.4138  2.4119 -0.0969
  110SOL    HW2  330   0.319   2.507   2.726  0.9642 -1.0361  0.7756
  111SOL     OW  331   1.726   2.974   2.064 -0.3455  0.1838  0.1855
  111SOL    HW1  332   1.696   2.977   1.966  1.8218  0.6170 -0.8216
  111SOL    HW2  333   1.773   3.059   2.092  0.2170  2.9019  2.8820
  112SOL     OW  334   2.090   2.622   3.036  0.1618 -0.3831 -0.1280
  112SOL    HW1  335   2.027   2.545   3.065  0.3496 -2.1515  1.0016
  112SOL    HW2  336   2.049   2.714   3.053  1.7307  1.4028  2.9251
  113SOL     OW  337   2.712   1.905   1.786 -0.5077 -0.2761 -0.5858
  113SOL    HW1  338   2.679   1.908   1.882 -2.7703 -1.5031  0.2518
  113SOL    HW2  339   2.647   1.960   1.735  2.0652 -1.0250 -1.7189
  114SOL     OW  340   2.509   0.812   1.029 -0.1718 -0.4364 -0.2122
  114SOL    HW1  341   2.411   0.822   1.022  0.1568 -0.6544  2.7710
  114SOL    HW2  342   2.558   0.842   0.941 -0.6882  0.3033  3.8148
  115SOL     OW  343   0.002   1.778   2.987 -0.1591 -0.1872 -0.0960
  115SOL    HW1  344   0.100   1.788   2.967  0.1631  0.5609  0.7764
  115SOL    HW2  345   3.084   1.810   3.081 -0.7327  1.1854 -0.5943
  116SOL     OW  346   0.127   1.441   1.886 -0.5446 -0.0234  0.0302
  116SOL    HW1  347   0.228   1.436   1.881  0.8105 -0.0567 -1.5398
  116SOL    HW2  348   0.086   1.525   1.842 -1.3628  1.1338  0.0119
  117SOL     OW  349   2.499   2.986   0.730 -0.2928 -0.0493  0.0123
  117SOL    HW1  350   2.396   2.985   0.728 -0.4782  2.3386 -0.8888
  117SOL    HW2  351   2.536   3.028   0.643 -0.6512  0.7484 -0.7093
  118SOL     OW  352   0.555   2.182   1.582  0.2794  0.4525 -0.4229
  118SOL    HW1  353   0.529   2.157   1.486 -1.7301  0.1191 -2.6298
  118SOL    HW2  354   0.604   2.101   1.623  3.5664  1.6831  0.2965
  119SOL     OW  355   1.609   2.108   0.522  0.8239 -0.0406 -0.0864
  119SOL    HW1  356   1.626   2.176   0.449 -0.2444  1.1310  2.1323
  119SOL    HW2  357   1.677   2.032   0.521 -0.4607 -0.5737 -1.4264
  120SOL     OW  358   0.247   1.771   2.546 -0.1024 -0.3460 -0.2348
  120SOL    HW1  359   0.227   1.847   2.612 -1.4800 -0.0354 -0.8149
  120SOL    HW2  360   0.299   1.801   2.464 -1.6332  0.7978 -1.6640
  121SOL     OW  361   2.128   2.069   1.425 -0.1638  0.0785 -0.3467
  121SOL    HW1  362   2.120   1.971   1.405  0.2250 -0.1021  1.1777
  121SOL    HW2  363   2.073   2.129   1.361 -1.0288  0.4586 -2.9183
  122SOL     OW  364   2.141   1.764   2.258  0.2878  0.2468 -0.2488
  122SOL    HW1  365   2.213   1.806   2.313 -1.9005 -0.2085 -2.2552
  122SOL    HW2  366   2.171   1.666   2.245 -3.8125 -0.1202  0.2093
  123SOL     OW  367   0.067   2.875   0.773 -0.5834  0.3480 -0.0378
  123SOL    HW1  368   0.015   2.917   0.855  0.3108 -1.9568 -1.2535
  123SOL    HW2  369   0.033   2.781   0.743 -1.1030 -1.0737 -1.1530
  124SOL     OW  370   1.644   0.853   2.335 -0.1309 -0.6324 -0.2917
  124SOL    HW1  371   1.614   0.869   2.242  4.0605  0.3799  1.8575
  124SOL    HW2  372   1.575   0.890   2.398 -0.3567 -2.8382  1.7108
  125SOL     OW  373   0.561   1.431   0.027  0.5779  0.0935  0.0919
  125SOL    HW1  374   0.550   1.401   3.043 -0.5765 -0.5796 -0.1775
  125SOL    HW2  375   0.557   1.356   0.095  0.9965  1.3461 -1.4686
  126SOL     OW  376   2.577   1.983   0.370  0.0734 -0.3009  0.1036
  126SOL    HW1  377   2.545   2.045   0.293  1.7187 -0.1962 -0.1370
  126SOL    HW2  378   2.594   2.036   0.454 -1.0372  0.3610  0.9514
  127SOL     OW  379   0.350   1.611   1.227  0.3348 -0.1645  0.1165
  127SOL    HW1  380   0.278   1.646   1.160  0.9892  0.8022 -0.8225
  127SOL    HW2  381   0.366   1.679   1.301 -2.7573 -1.2945  0.1089
  128SOL     OW  382   0.632   0.915   0.022  0.1171 -0.3922  0.1401
  128SOL    HW1  383   0.632   0.837   3.067 -0.9703  1.6050  2.1905
  128SOL    HW2  384   0.727   0.952   0.021 -1.1077  0.6539 -1.3546
  129SOL     OW  385   2.319   1.437   0.772 -0.4571  0.0942 -0.3574
  129SOL    HW1  386   2.221   1.471   0.784 -1.7778  1.6621  0.4495
  129SOL    HW2  387   2.333   1.335   0.799  0.2455 -4.7398  1.5134
  130SOL     OW  388   2.221   1.671   1.145  0.1480  0.2025  0.6749
  130SOL    HW1  389   2.274   1.720   1.073 -0.2369  0.7713  1.2648
  130SOL    HW2  390   2.128   1.657   1.104 -1.6534  2.3885  0.9568
  131SOL     OW  391   2.746   1.245   2.854  0.0707  0.5173  0.0262
  131SOL    HW1  392   2.725   1.181   2.932 -0.2385 -0.8482 -0.4891
  131SOL    HW2  393   2.849   1.257   2.852 -1.2442 -0.3957  0.1807
  132SOL     OW  394   2.878   1.617   1.713 -0.1026 -0.1303 -0.1275
  132SOL    HW1  395   2.918   1.671   1.790 -2.0941  0.8015 -2.0823
  132SOL    HW2  396   2.817   1.548   1.752 -0.9707 -0.8758 -1.1127
  133SOL     OW  397   2.964   0.732   0.486 -0.4812  0.5610 -0.4537
  133SOL    HW1  398   3.050   0.675   0.504  2.3638 -1.2819  2.0283
  133SOL    HW2  399   2.882   0.682   0.520  2.2638 -1.1105 -0.1679
  134SOL     OW  400   0.247   1.098   0.187 -0.1582  0.1700  0.0755
  134SOL    HW1  401   0.177   1.031   0.220  4.2036 -2.5742 -1.7608
  134SOL    HW2  402   0.226   1.122   0.090 -1.9306 -0.2503 -0.8621
  135SOL     OW  403   2.054   1.534   0.742  0.0595  0.1759 -0.6110
  135SOL    HW1  404   2.034   1.436   0.734 -2.2473  1.2200 -0.8961
  135SOL    HW2  405   2.029   1.596   0.665  0.6343 -0.7169 -0.6367
  136SOL     OW  406   1.951   1.383   1.130  0.0369  0.7858  0.4494
  136SOL    HW1  407   1.983   1.384   1.225 -2.6711  0.3036 -0.7955
  136SOL    HW2  408   1.949   1.479   1.095  2.1546  2.3719 -2.7990
  137SOL     OW  409   2.540   1.619   0.665 -0.1793  0.5394 -0.5089
  137SOL    HW1  410   2.452   1.586   0.705 -1.4479  0.0026 -0.5505
  137SOL    HW2  411   2.564   1.708   0.706 -0.4848 -1.6945  0.3412
  138SOL     OW  412   1.400   0.504   1.953 -0.1523 -0.0610  0.0186
  138SOL    HW1  413   1.469   0.534   2.021  2.1712  0.8544 -0.0408
  138SOL    HW2  414   1.403   0.556   1.863  1.9883  0.0680 -2.1416
  139SOL     OW  415   1.878   0.096   3.097  0.3050  0.1909 -0.2879
  139SOL    HW1  416   1.914   0.190   3.075 -2.1444  1.4698  0.2988
  139SOL    HW2  417   1.907   0.071   0.086 -0.5714  1.5121  0.4713
  140SOL     OW  418   1.338   2.180   2.356  0.0309  0.2552  0.0473
  140SOL    HW1  419   1.340   2.081   2.331  0.4053 -0.6805 -0.5419
  140SOL    HW2  420   1.422   2.228   2.314  2.2940  2.4963  1.1394
  141SOL     OW  421   1.296   1.269   1.636 -0.5685 -0.0170  0.1106
  141SOL    HW1  422   1.298   1.186   1.576 -0.8847 -3.3372 -2.3409
  141SOL    HW2  423   1.205   1.302   1.660  1.6833  0.2522  0.2808
  142SOL     OW  424   2.566   0.137   3.027 -0.2499 -0.0961 -0.0749
  142SOL    HW1  425   2.551   0.038   3.038  0.3592  0.7357 -0.9055
  142SOL    HW2  426   2.666   0.152   3.001  0.4681  0.6541  0.4201
  143SOL     OW  427   0.670   2.461   2.943 -0.5660  0.1060 -0.4002
  143SOL    HW1  428   0.648   2.433   3.037 -0.4807 -1.1545  0.3867
  143SOL    HW2  429   0.766   2.494   2.939 -0.6448 -0.7814 -2.8391
  144SOL     OW  430   1.003   2.764   2.251 -0.2249 -0.1626 -0.3008
  144SOL    HW1  431   1.039   2.778   2.345 -1.7813  2.7270 -0.7847
  144SOL    HW2  432   1.001   2.856   2.201 -1.0118 -0.7123 -0.8846
  145SOL     OW  433   2.640   1.503   0.325 -0.3368  0.4414 -0.1902
  145SOL    HW1  434   2.665   1.410   0.298  1.0967  0.7621  1.7254
  145SOL    HW2  435   2.704   1.544   0.393  2.6431 -2.1079 -1.7259
  146SOL     OW  436   2.584   2.959   2.670 -0.2336  0.0370  0.5772
  146SOL    HW1  437   2.564   3.053   2.706  0.7520  2.6806  3.2600
  146SOL    HW2  438   2.564   2.888   2.745  0.1114  0.3492  0.7339
  147SOL     OW  439   2.473   2.256   1.063 -0.0324  0.3155 -0.6120
  147SOL    HW1  440   2.459   2.324   0.990 -1.7618 -0.7202 -1.3210
  147SOL    HW2  441   2.403   2.244   1.142  1.0078 -0.8857  3.0920
  148SOL     OW  442   1.616   0.073   3.026 -0.0572  0.1770 -0.6125
  148SOL    HW1  443   1.557   0.120   3.096 -2.8873 -0.5736 -0.1287
  148SOL    HW2  444   1.713   0.072   3.060  0.7605  0.7264 -0.8219
  149SOL     OW  445   0.945   1.433   2.826 -0.4568 -0.1621 -0.3968
  149SOL    HW1  446   1.021   1.381   2.874  1.7743 -0.6377  3.4853
  149SOL    HW2  447   0.957   1.434   2.725 -1.4403  0.6728  0.5157
  150SOL     OW  448   1.005   2.860   0.570 -0.1786  0.4396  0.2010
  150SOL    HW1  449   0.905   2.883   0.562  1.5287 -3.3319 -1.8080
  150SOL    HW2  450   1.055   2.868   0.482  0.1283 -0.5051 -0.6327
  151SOL     OW  451   0.462   1.879   0.196 -0.2590 -0.2908  0.0268
  151SOL    HW1  452   0.424   1.795   0.162  2.9408  0.6405  1.5719
  151SOL    HW2  453   0.537   1.913   0.142 -0.9441 -1.0401 -0.1765
  152SOL     OW  454   2.994   0.999   0.511 -0.3485 -0.1523  0.2222
  152SOL    HW1  455   2.992   1.047   0.602  0.3501  1.2290  3.0670
  152SOL    HW2  456   2.963   0.904   0.525  1.2077 -0.0974  1.2708
  153SOL     OW  457   2.516   2.547   3.084  0.0910 -0.0070  0.5459
  153SOL    HW1  458   2.577   2.560   0.058  1.2878  0.3563 -0.9399
  153SOL    HW2  459   2.523   2.621   3.012  0.1382 -2.0581  1.1985
  154SOL     OW  460   0.599   0.114   0.999  0.4426 -0.3928  0.0690
  154SOL    HW1  461   0.571   0.042   0.926  0.5989 -2.6080 -0.3759
  154SOL    HW2  462   0.682   0.080   1.048  1.4212  0.0748  2.2316
  155SOL     OW  463   0.323   1.922   1.156 -0.0070 -0.2602  0.0490
  155SOL    HW1  464   0.341   1.924   1.055 -0.0102  1.7903 -3.3542
  155SOL    HW2  465   0.227   1.964   1.165 -4.8452  1.1304  1.7128
  156SOL     OW  466   2.488   2.311   2.981  0.3821 -0.2829  0.2582
  156SOL    HW1  467   2.550   2.240   3.023 -4.3289 -0.2614 -2.3911
  156SOL    HW2  468   2.503   2.399   3.031  2.0436  0.7742  0.0963
  157SOL     OW  469   0.876   2.552   1.022  0.0196 -0.3174  0.6416
  157SOL    HW1  470   0.798   2.504   1.067 -1.8292  2.2162  0.7417
  157SOL    HW2  471   0.952   2.569   1.091 -0.1925 -1.0129  0.0552
  158SOL     OW  472   1.802   0.879   2.856  0.1127 -0.9807 -0.0704
  158SOL    HW1  473   1.759   0.835   2.935  1.0617  0.9120  0.3579
  158SOL    HW2  474   1.730   0.936   2.804 -4.4103  0.4180 -2.2854
  159SOL     OW  475   0.852   0.413   2.460  0.6422 -0.5699 -0.5009
  159SOL    HW1  476   0.906   0.411   2.547  0.2139  1.6676 -2.7519
  159SOL    HW2  477   0.833   0.511   2.434  2.4101  0.8170  1.5213
  160SOL     OW  478   1.124   1.849   0.599 -0.4865 -0.2105 -0.7029
  160SOL    HW1  479   1.140   1.890   0.692  0.2108  1.7609  1.4972
  160SOL    HW2  480   1.137   1.747   0.603 -1.4298 -2.2504 -0.7414
  161SOL     OW  481   3.066   2.098   0.023  0.2431  0.4178 -0.2853
  161SOL    HW1  482   3.073   2.009   0.079  0.4840  0.4625  0.8493
  161SOL    HW2  483   0.005   2.169   0.071  0.4857 -2.5150  0.5321
  162SOL     OW  484   0.602   2.653   0.900  0.0772  0.4140  0.2867
  162SOL    HW1  485   0.648   2.731   0.851 -0.0137 -1.7962 -0.1553
  162SOL    HW2  486   0.641   2.656   0.991  0.0509 -0.7028 -2.7195
  163SOL     OW  487   2.375   0.897   0.109 -0.3706 -0.1939  0.3968
  163SOL    HW1  488   2.402   0.926   0.014  0.2351  0.3864 -1.5204
  163SOL    HW2  489   2.310   0.821   0.110  1.2155  3.7617 -0.1248
  164SOL     OW  490   0.057   2.825   0.183  0.4970 -0.3492  0.2281
  164SOL    HW1  491   0.107   2.737   0.195 -1.0730 -1.2603 -1.4189
  164SOL    HW2  492   0.082   2.854   0.087  0.8221  0.3178  0.5507
  165SOL     OW  493   2.368   0.500   1.305 -0.6207  0.1700 -0.2225
  165SOL    HW1  494   2.455   0.464   1.341  0.2091 -1.6138  0.3829
  165SOL    HW2  495   2.331   0.572   1.364  1.5851 -0.7843 -2.9408
  166SOL     OW  496   1.990   0.257   1.029  0.1536 -0.3566 -0.0099
  166SOL    HW1  497   2.075   0.290   1.076 -1.0188  1.2797  0.8002
  166SOL    HW2  498   1.972   0.163   1.063  0.9993 -0.4785 -1.2611
  167SOL     OW  499   0.490   0.782   1.591 -0.0476 -0.2712 -0.0342
  167SOL    HW1  500   0.438   0.794   1.680 -0.8986  0.8719  0.0135
  167SOL    HW2  501   0.449   0.844   1.521 -4.1273 -1.3457  0.7942
  168SOL     OW  502   2.891   3.064   1.965  0.3310  0.0854  0.3530
  168SOL    HW1  503   2.852   3.085   2.060  1.2747 -0.0225  0.7747
  168SOL    HW2  504   2.837   2.992   1.919  0.4530 -1.3729 -2.8673
  169SOL     OW  505   3.036   1.413   0.514  0.4691  0.1769 -0.3242
  169SOL    HW1  506   3.079   1.332   0.466  1.1915 -0.3486 -2.3223
  169SOL    HW2  507   3.101   1.471   0.575  2.4681  0.0982  1.4257
  170SOL     OW  508   2.980   0.728   1.561  0.3660 -0.1232  0.2199
  170SOL    HW1  509   3.076   0.740   1.582 -0.3225  1.6689 -1.1049
  170SOL    HW2  510   2.955   0.631   1.583  0.1166 -0.2376 -0.0911
  171SOL     OW  511   1.160   2.107   1.766 -0.7605 -0.4402  0.0502
  171SOL    HW1  512   1.163   2.141   1.860 -2.4546 -0.8450 -2.5221
  171SOL    HW2  513   1.072   2.131   1.724 -2.3015 -1.3960  2.0252
  172SOL     OW  514   0.690   2.384   1.107  0.0902 -0.7662  0.6307
  172SOL    HW1  515   0.724   2.326   1.179 -0.9434  2.9575 -2.9642
  172SOL    HW2  516   0.608   2.339   1.073  2.2503 -0.8931  0.2247
  173SOL     OW  517   1.209   0.210   0.266 -0.1981  0.0072 -0.3989
  173SOL    HW1  518   1.149   0.169   0.339  0.7485  0.3248 -0.4808
  173SOL    HW2  519   1.216   0.141   0.186  0.5677 -1.9285 -4.5737
  174SOL     OW  520   0.642   2.905   2.924 -0.2297 -0.3431 -0.2163
  174SOL    HW1  521   0.604   2.962   2.996  0.0197 -0.4740 -0.7217
  174SOL    HW2  522   0.737   2.925   2.902 -0.7628 -0.1572  0.3958
  175SOL     OW  523   1.129   0.627   0.040  0.0004  0.3580  0.2535
  175SOL    HW1  524   1.192   0.547   0.052  0.0834  0.2745  0.8733
  175SOL    HW2  525   1.165   0.699   3.087  0.3080  1.8454 -2.1584
  176SOL     OW  526   1.410   0.528   0.592 -0.1228 -0.6918 -0.2239
  176SOL    HW1  527   1.344   0.556   0.518 -0.6720  0.8733  1.3768
  176SOL    HW2  528   1.400   0.431   0.599  2.3586  3.7022  1.9131
  177SOL     OW  529   1.325   0.840   0.955 -0.3150  0.4089 -0.4423
  177SOL    HW1  530   1.376   0.801   0.874 -0.3205 -0.5263  1.1353
  177SOL    HW2  531   1.269   0.922   0.932 -0.8503 -0.9037  0.0660
  178SOL     OW  532   2.601   1.856   2.571 -0.8509  0.5158  0.4545
  178SOL    HW1  533   2.599   1.752   2.565 -0.2917 -1.3074  1.7399
  178SOL    HW2  534   2.517   1.897   2.608  4.0187  0.9106 -0.9740
  179SOL     OW  535   0.564   2.894   2.668 -0.1418  0.0916  0.1271
  179SOL    HW1  536   0.589   2.890   2.765  0.1796 -0.9644  0.6707
  179SOL    HW2  537   0.623   2.961   2.616 -1.2894  2.0092  1.0226
  180SOL     OW  538   1.880   1.626   1.598 -0.0256 -1.0710 -0.3975
  180SOL    HW1  539   1.843   1.548   1.548 -3.1057  2.5997 -2.3565
  180SOL    HW2  540   1.822   1.705   1.576  3.0346 -0.1855 -1.3538
  181SOL     OW  541   1.383   1.423   2.322  0.2389  0.6147  0.1344
  181SOL    HW1  542   1.468   1.469   2.280  1.3741 -1.0926 -0.3460
  181SOL    HW2  543   1.393   1.432   2.425  0.8517  0.2507 -1.9256
  182SOL     OW  544   2.936   0.657   2.582  0.5119  0.6736  0.0074
  182SOL    HW1  545   2.874   0.654   2.660  1.0563 -0.7707 -2.3345
  182SOL    HW2  546   2.950   0.569   2.540  0.3879  1.0584  1.8329
  183SOL     OW  547   1.513   0.189   2.802  0.1333 -0.9286 -0.4110
  183SOL    HW1  548   1.587   0.177   2.732 -0.0460 -0.3412  0.2159
  183SOL    HW2  549   1.549   0.146   2.890  0.2732 -1.3938 -1.0100
  184SOL     OW  550   0.668   0.342   1.644  0.0484 -0.0050 -0.1542
  184SOL    HW1  551   0.645   0.389   1.733 -1.2012  2.4097  0.6434
  184SOL    HW2  552   0.726   0.258   1.666 -0.2570  1.6792  0.0094
  185SOL     OW  553   2.655   1.169   0.858 -0.3337 -0.3716 -0.1720
  185SOL    HW1  554   2.680   1.251   0.809 -0.8431 -1.2008  3.0622
  185SOL    HW2  555   2.703   1.180   0.951 -0.7217 -0.2010 -1.5694
  186SOL     OW  556   0.435   1.865   2.861  0.2612  0.1468 -0.4294
  186SOL    HW1  557   0.440   1.934   2.940 -2.3133  2.4999 -0.4182
  186SOL    HW2  558   0.398   1.901   2.776  3.0474 -3.3446 -1.8710
  187SOL     OW  559   2.659   1.224   0.233 -0.3070  0.6581  0.2452
  187SOL    HW1  560   2.757   1.252   0.237  1.6778  0.4359 -0.4076
  187SOL    HW2  561   2.624   1.209   0.140  2.0785 -1.5614  0.4436
  188SOL     OW  562   0.277   2.047   0.654 -0.8868 -0.4443  0.1214
  188SOL    HW1  563   0.311   2.047   0.555  0.0363 -1.6520 -0.1093
  188SOL    HW2  564   0.306   2.142   0.689  1.9491  0.6653  1.2145
  189SOL     OW  565   2.563   0.915   0.302 -0.4815 -0.5626 -0.5800
  189SOL    HW1  566   2.493   0.917   0.229  1.4487 -1.6095  3.0258
  189SOL    HW2  567   2.534   0.976   0.376 -1.0447 -1.9449 -0.4087
  190SOL     OW  568   1.198   1.535   2.150  0.1690  0.3779  0.1021
  190SOL    HW1  569   1.264   1.480   2.196 -3.8551 -0.4200  0.3710
  190SOL    HW2  570   1.157   1.606   2.207 -0.3458 -1.6274  0.2170
  191SOL     OW  571   2.625   0.461   1.459  0.3245 -0.1445 -0.0794
  191SOL    HW1  572   2.652   0.361   1.449  1.1772 -2.6997 -2.0554
  191SOL    HW2  573   2.690   0.513   1.519 -3.0233 -1.0380  1.0000
  192SOL     OW  574   2.118   0.246   1.864  0.5358 -0.1798  0.3499
  192SOL    HW1  575   2.175   0.161   1.873 -0.7411 -0.7694  0.8130
  192SOL    HW2  576   2.127   0.308   1.948 -1.5450  0.5500  1.2007
  193SOL     OW  577   0.852   0.750   0.402 -0.3028 -0.2843 -0.8562
  193SOL    HW1  578   0.889   0.753   0.499 -1.2051  0.6555 -0.4948
  193SOL    HW2  579   0.766   0.805   0.401  1.3956  1.5588 -1.1823
  194SOL     OW  580   1.139   2.736   1.380 -0.0563  0.2090 -0.0566
  194SOL    HW1  581   1.234   2.703   1.357  0.2827 -1.5971  1.3915
  194SOL    HW2  582   1.129   2.752   1.476 -1.4114  0.8361 -2.4080
  195SOL     OW  583   2.192   0.588   0.916  0.1929 -0.0543 -0.2031
  195SOL    HW1  584   2.235   0.676   0.902 -2.3276 -2.1485  1.2306
  195SOL    HW2  585   2.091   0.609   0.924 -2.2335 -0.1914 -0.0892
  196SOL     OW  586   1.818   2.164   1.907  0.4550  0.1010 -0.1251
  196SOL    HW1  587   1.809   2.114   1.995 -0.0129 -1.2077  1.0193
  196SOL    HW2  588   1.744   2.236   1.905  1.6052  3.7343  1.9191
  197SOL     OW  589   0.219   0.213   0.035 -0.6372 -0.2360 -0.0285
  197SOL    HW1  590   0.287   0.148   0.081  1.8345  0.2118 -0.8439
  197SOL    HW2  591   0.185   0.159   3.063  0.8932 -0.1592  3.3918
  198SOL     OW  592   1.332   1.209   0.732  0.2533  0.8330 -0.2724
  198SOL    HW1  593   1.275   1.269   0.787  0.6129  0.2572 -2.7511
  198SOL    HW2  594   1.294   1.117   0.754 -2.2409 -1.1859 -0.2894
  199SOL     OW  595   2.744   1.102   2.167  0.0392  0.0919  0.9553
  199SOL    HW1  596   2.699   1.033   2.227  0.5834 -1.4285  2.5748
  199SOL    HW2  597   2.846   1.082   2.165  0.8638 -1.8986  2.6724
  200SOL     OW  598   2.819   2.259   2.501  0.3212 -0.1025 -0.7428
  200SOL    HW1  599   2.794   2.339   2.448 -1.4933  0.3308  1.7842
  200SOL    HW2  600   2.779   2.273   2.598 -0.5241  1.4183  0.2578
  201SOL     OW  601   2.712   0.043   1.166 -0.0801 -0.4150 -0.7217
  201SOL    HW1  602   2.790   0.106   1.186 -0.0123 -2.0417  1.3212
  201SOL    HW2  603   2.671   0.063   1.079 -0.9566  0.9823  1.7106
  202SOL     OW  604   1.993   0.344   0.754 -0.1040  0.0700 -0.8487
  202SOL    HW1  605   2.007   0.447   0.752  0.8524 -0.1965  1.4716
  202SOL    HW2  606   2.014   0.306   0.850 -0.2787 -0.4561  4.0014
  203SOL     OW  607   1.738   2.035   2.156 -0.2180  0.8601  0.0141
  203SOL    HW1  608   1.658   1.968   2.162 -0.1297  0.3069  0.4082
  203SOL    HW2  609   1.820   1.989   2.190 -1.6000  0.6508 -0.0172
  204SOL     OW  610   0.795   1.583   2.135  0.4378 -0.7199  0.5085
  204SOL    HW1  611   0.796   1.561   2.037 -2.4783 -0.0663 -1.0676
  204SOL    HW2  612   0.809   1.685   2.144  0.0864  1.7615  1.4611
  205SOL     OW  613   0.934   1.623   1.592  0.2729 -0.4331 -0.1069
  205SOL    HW1  614   0.941   1.706   1.530 -0.3389  2.3127 -1.3972
  205SOL    HW2  615   0.937   1.661   1.689 -1.0062  0.9280 -0.1687
  206SOL     OW  616   3.005   0.548   3.088 -0.5189  0.1674  0.2044
  206SOL    HW1  617   3.029   0.455   0.019  1.3156 -0.8389 -0.4952
  206SOL    HW2  618   2.915   0.559   3.050  2.2837  1.7365  0.5485
  207SOL     OW  619   1.821   2.713   2.114  0.1718  0.1746  0.4289
  207SOL    HW1  620   1.817   2.817   2.113 -3.3529  0.3976  0.7582
  207SOL    HW2  621   1.914   2.683   2.150 -0.6911  1.9008  2.1557
  208SOL     OW  622   0.550   2.175   1.325  0.3876  0.3947 -0.1651
  208SOL    HW1  623   0.552   2.077   1.289  1.9729  0.8203  2.8498
  208SOL    HW2  624   0.466   2.230   1.292 -2.4053  2.6629 -0.5729
  209SOL     OW  625   1.457   1.133   2.320  0.1256 -0.3767 -0.6015
  209SOL    HW1  626   1.371   1.078   2.313 -1.0287  1.4024  0.2406
  209SOL    HW2  627   1.429   1.230   2.313  0.3569 -1.3713  0.4842
  210SOL     OW  628   1.960   0.922   1.279 -0.1529 -0.1130  0.3161
  210SOL    HW1  629   1.987   0.932   1.180  2.6881  0.8000  0.2851
  210SOL    HW2  630   1.908   0.833   1.286  0.5758  1.3066 -0.9179
  211SOL     OW  631   0.465   0.275   0.550  0.2096 -0.4706  0.0065
  211SOL    HW1  632   0.390   0.313   0.491  0.3567 -0.5036 -0.7953
  211SOL    HW2  633   0.491   0.335   0.624  1.3852 -0.8019  0.6747
  212SOL     OW  634   2.026   1.488   0.155  0.0740 -0.0530 -0.0198
  212SOL    HW1  635   2.011   1.427   0.073  0.4229  1.7592  0.8951
  212SOL    HW2  636   1.972   1.455   0.240 -0.1533  2.6961  1.1735
  213SOL     OW  637   1.727   0.447   2.455 -0.3979  0.0004 -0.7427
  213SOL    HW1  638   1.761   0.448   2.554  2.0215  2.0062  0.6598
  213SOL    HW2  639   1.644   0.500   2.436  1.2251 -1.1978  1.7128
  214SOL     OW  640   1.603   1.543   2.206 -0.3969 -0.0896 -0.1565
  214SOL    HW1  641   1.675   1.590   2.261  0.4889 -1.0386  0.9753
  214SOL    HW2  642   1.660   1.497   2.135  1.8940  0.1056 -0.9504
  215SOL     OW  643   0.526   1.809   0.481 -0.0650 -0.5987  0.3005
  215SOL    HW1  644   0.454   1.782   0.418 -0.5346  0.0580 -0.3680
  215SOL    HW2  645   0.579   1.886   0.445 -1.5428  0.7436  2.5174
  216SOL     OW  646   0.443   2.958   2.223 -0.0822 -0.5092  0.0610
  216SOL    HW1  647   0.527   2.986   2.168  1.0515 -0.4544  0.8931
  216SOL    HW2  648   0.383   3.035   2.242  0.8755  0.4602 -1.5202
  217SOL     OW  649   2.299   0.996   0.584  0.5796 -0.5319  0.2656
  217SOL    HW1  650   2.358   1.030   0.502  0.2872  1.7718 -3.5348
  217SOL    HW2  651   2.198   1.000   0.555 -2.1245  1.8925  0.5310
  218SOL     OW  652   1.802   1.679   1.922 -0.2409  0.6120  0.5237
  218SOL    HW1  653   1.888   1.728   1.923 -0.5619  1.9013  1.2153
  218SOL    HW2  654   1.807   1.620   2.006 -1.1855 -0.7211 -0.1344
  219SOL     OW  655   1.986   1.305   3.087  0.6831  0.0096  0.6665
  219SOL    HW1  656   2.032   1.276   2.998  2.1149  1.8643 -0.2563
  219SOL    HW2  657   1.891   1.336   3.072  0.4642  0.2827  1.7751
  220SOL     OW  658   1.312   1.533   1.032  0.5094  0.0857 -0.0782
  220SOL    HW1  659   1.333   1.477   1.119  0.4873 -2.2066  1.4913
  220SOL    HW2  660   1.400   1.561   0.991 -0.4948 -0.5455 -0.9527
  221SOL     OW  661   0.587   0.706   2.953 -0.1074  0.1768 -0.0528
  221SOL    HW1  662   0.530   0.745   2.879  1.9998 -0.2801 -0.4333
  221SOL    HW2  663   0.559   0.611   2.981 -0.7725 -0.6383 -0.8221
  222SOL     OW  664   0.949   1.643   1.179 -0.3914 -0.4320 -0.0942
  222SOL    HW1  665   0.998   1.583   1.249 -0.9385 -0.4311 -4.0301
  222SOL    HW2  666   0.867   1.681   1.219  3.0383 -1.4027 -0.5887
  223SOL     OW  667   1.278   3.046   2.912 -0.1972  0.0824  0.3139
  223SOL    HW1  668   1.221   2.963   2.920 -2.5755 -0.8378 -1.5266
  223SOL    HW2  669   1.336   3.043   2.829  2.7914 -3.0459  0.6840
  224SOL     OW  670   2.619   0.645   1.219 -0.3669 -0.4087 -0.1381
  224SOL    HW1  671   2.551   0.601   1.277  0.3595  1.7777  1.0010
  224SOL    HW2  672   2.581   0.690   1.136  0.8660  1.7162  1.2525
  225SOL     OW  673   0.883   0.440   1.350 -0.4850 -0.2388  0.0278
  225SOL    HW1  674   0.867   0.541   1.364  0.4367 -0.7821  0.3566
  225SOL    HW2  675   0.790   0.397   1.351  0.3025 -0.5865  0.4160
  226SOL     OW  676   1.648   1.901   2.841 -0.2379  0.4469  0.2636
  226SOL    HW1  677   1.551   1.868   2.820 -0.7196 -2.1753 -0.6736
  226SOL    HW2  678   1.646   1.983   2.902 -0.7169  0.0786  1.7869
  227SOL     OW  679   1.195   1.837   1.352 -0.1286 -0.5785 -0.4727
  227SOL    HW1  680   1.213   1.806   1.258  1.0107  0.1796 -1.6973
  227SOL    HW2  681   1.238   1.775   1.422 -1.5483  0.7309  2.2875
  228SOL     OW  682   0.366   1.567   0.736  0.6812 -0.2298  0.3591
  228SOL    HW1  683   0.455   1.612   0.713 -1.7560 -1.0251  0.0718
  228SOL    HW2  684   0.361   1.539   0.835 -0.5322  0.3458  1.8313
  229SOL     OW  685   1.371   0.455   0.030  0.0974 -0.7043  0.5336
  229SOL    HW1  686   1.424   0.483   0.115 -0.4173 -1.0520  0.8757
  229SOL    HW2  687   1.433   0.441   3.057 -1.0417 -0.5805 -0.8810
  230SOL     OW  688   1.257   0.578   2.476  0.4747  0.1846 -0.2779
  230SOL    HW1  689   1.204   0.525   2.404  0.8677  2.9303 -0.6543
  230SOL    HW2  690   1.243   0.543   2.571  0.7120  1.1747 -1.8076
  231SOL     OW  691   1.113   1.823   2.343 -0.5028 -1.1608 -0.7357
  231SOL    HW1  692   1.123   1.759   2.422 -0.3308  1.1795 -2.8785
  231SOL    HW2  693   1.060   1.910   2.367 -1.9748 -1.0793 -2.1809
  232SOL     OW  694   2.319   1.842   0.966  0.7300  0.0196 -0.6157
  232SOL    HW1  695   2.305   1.872   0.875  1.0407 -0.2340  0.6004
  232SOL    HW2  696   2.410   1.869   1.002  1.3277  1.4658 -0.3185
  233SOL     OW  697   2.107   2.885   3.095 -0.4230 -0.3691 -0.2725
  233SOL    HW1  698   2.105   2.881   0.088  1.7634  3.3649 -0.2115
  233SOL    HW2  699   2.202   2.879   3.064 -0.3166 -1.0330  1.3510
  234SOL     OW  700   0.845   0.206   2.781  0.3342 -0.9370 -0.4631
  234SOL    HW1  701   0.840   0.198   2.882  0.3515  1.2698  0.1035
  234SOL    HW2  702   0.903   0.132   2.747 -2.2656  3.4477  4.9744
  235SOL     OW  703   2.285   3.081   2.619  0.1386 -0.2448  0.1700
  235SOL    HW1  704   2.362   0.018   2.672 -0.3358  0.3093 -0.2775
  235SOL    HW2  705   2.300   3.077   2.520  0.7467  0.6820 -0.7636
  236SOL     OW  706   2.629   2.243   2.252 -0.3445 -0.6498  0.0082
  236SOL    HW1  707   2.679   2.320   2.298 -1.6540 -2.2179 -1.0047
  236SOL    HW2  708   2.689   2.177   2.203 -0.6108  0.9709 -1.2826
  237SOL     OW  709   1.036   1.382   1.974  0.5371 -0.1718  0.1655
  237SOL    HW1  710   1.065   1.406   1.879  0.0749  2.1977  0.5464
  237SOL    HW2  711   1.074   1.456   2.032  0.2072 -0.5922  0.0576
  238SOL     OW  712   1.837   0.142   2.598  0.0414  0.0328 -0.3093
  238SOL    HW1  713   1.813   0.045   2.617  2.3251 -1.4109 -0.5856
  238SOL    HW2  714   1.919   0.184   2.648  1.2552  2.7368  1.3367
  239SOL     OW  715   0.362   1.896   1.989  0.1346 -0.5568 -0.2329
  239SOL    HW1  716   0.431   1.822   1.969  0.8910  0.7839  0.5555
  239SOL    HW2  717   0.273   1.878   1.936 -0.2833  2.5933 -1.3441
  240SOL     OW  718   2.832   2.841   0.459 -0.1818  0.0453  0.0412
  240SOL    HW1  719   2.901   2.763   0.470  0.7426 -0.7610 -0.1538
  240SOL    HW2  720   2.867   2.927   0.504  2.0775 -0.3736 -1.4086
  241SOL     OW  721   1.994   1.716   0.542  0.3466  0.8646 -0.3536
  241SOL    HW1  722   2.057   1.751   0.466 -0.8945 -0.5479  0.0011
  241SOL    HW2  723   1.902   1.758   0.538  2.7582 -1.7647  2.0241
  242SOL     OW  724   1.401   1.844   2.741 -0.3918  0.2456 -0.3968
  242SOL    HW1  725   1.438   1.804   2.656  0.3609 -2.1590  1.7229
  242SOL    HW2  726   1.299   1.840   2.739 -1.6664 -3.8408  2.9143
  243SOL     OW  727   0.776   2.603   2.292  0.0860  0.5329 -0.8192
  243SOL    HW1  728   0.788   2.535   2.370 -0.8880  0.4258 -0.4298
  243SOL    HW2  729   0.859   2.660   2.287  0.7474  0.1842 -1.1782
  244SOL     OW  730   2.061   0.233   2.718  0.0071  0.0517 -0.0391
  244SOL    HW1  731   2.057   0.272   2.811 -0.2332 -1.3695  1.1874
  244SOL    HW2  732   2.121   0.150   2.719  0.3115  2.1241 -1.5664
  245SOL     OW  733   1.370   2.881   0.557  0.4010  0.0931  0.5827
  245SOL    HW1  734   1.370   2.939   0.642  0.0293  0.5118 -2.2558
  245SOL    HW2  735   1.295   2.913   0.492 -1.7384  0.3437  1.7859
  246SOL     OW  736   1.306   2.538   0.400  0.2670  0.5655 -0.0337
  246SOL    HW1  737   1.364   2.601   0.340  0.2364  0.8516 -2.8482
  246SOL    HW2  738   1.370   2.483   0.457 -1.0301 -1.0538 -1.5043
  247SOL     OW  739   0.807   0.655   2.370 -0.2726 -0.2475 -0.1736
  247SOL    HW1  740   0.876   0.636   2.291  0.3770 -2.7791 -3.1768
  247SOL    HW2  741   0.713   0.672   2.330  3.1021 -1.2500 -0.5978
  248SOL     OW  742   0.773   1.413   2.362 -0.9249 -0.2759 -0.3589
  248SOL    HW1  743   0.758   1.319   2.332  1.6220  3.0658 -0.8152
  248SOL    HW2  744   0.779   1.469   2.276  2.6740 -1.2729 -1.6871
  249SOL     OW  745   2.073   0.415   0.315  0.4340  0.5096 -0.1691
  249SOL    HW1  746   2.161   0.418   0.263 -0.2576 -0.2960 -1.4802
  249SOL    HW2  747   2.093   0.377   0.406 -5.0063 -1.0066 -0.8158
  250SOL     OW  748   0.771   0.306   0.625 -0.3912  0.3500  0.5683
  250SOL    HW1  749   0.754   0.206   0.598  1.6212 -0.3312  0.8006
  250SOL    HW2  750   0.731   0.374   0.556 -0.8322 -0.6102 -0.6106
  251SOL     OW  751   1.812   0.420   2.856  0.0846  0.6741 -0.0680
  251SOL    HW1  752   1.826   0.517   2.823  1.7154 -0.5726  0.9057
  251SOL    HW2  753   1.905   0.378   2.871  1.6702  2.6739 -0.3512
  252SOL     OW  754   2.103   1.300   1.832 -0.1331  0.3877 -0.1350
  252SOL    HW1  755   2.020   1.349   1.865 -1.2137  1.9176  1.3934
  252SOL    HW2  756   2.153   1.272   1.917 -3.7111 -1.0246  1.2548
  253SOL     OW  757   2.758   2.267   1.698  0.1040 -0.0570 -0.5256
  253SOL    HW1  758   2.741   2.323   1.778 -2.3558 -0.5808 -0.7104
  253SOL    HW2  759   2.792   2.321   1.614 -0.0873  1.1990 -1.0525
  254SOL     OW  760   0.312   1.313   1.250 -0.4113 -0.4395  0.2090
  254SOL    HW1  761   0.407   1.274   1.259  0.5242 -2.1044  1.5607
  254SOL    HW2  762   0.313   1.419   1.255 -0.7538  3.1333 -0.8487
  255SOL     OW  763   0.783   0.679   1.289  0.2884 -0.2996  0.2119
  255SOL    HW1  764   0.705   0.667   1.221  0.7999  1.9379 -1.7499
  255SOL    HW2  765   0.850   0.748   1.250  1.0391 -0.6841 -0.2092
  256SOL     OW  766   2.084   2.654   1.818  0.2019 -0.7636  0.1464
  256SOL    HW1  767   2.086   2.557   1.854  0.4876  3.1527 -0.0754
  256SOL    HW2  768   2.169   2.676   1.764 -2.0394  0.5823 -2.0005
  257SOL     OW  769   0.270   2.681   3.108  0.5139  0.1549  0.1598
  257SOL    HW1  770   0.361   2.676   3.070  0.3363 -1.8349 -2.3577
  257SOL    HW2  771   0.213   2.758   3.074  1.0000  0.2253 -0.3650
  258SOL     OW  772   0.491   2.673   2.949  0.5548 -0.4923 -0.5489
  258SOL    HW1  773   0.565   2.611   2.969  1.6744 -0.4696  2.9698
  258SOL    HW2  774   0.526   2.767   2.956 -2.2766 -1.7231  1.2544
  259SOL     OW  775   1.170   0.010   2.411  0.2895 -0.0771 -0.2038
  259SOL    HW1  776   1.262   0.030   2.372  2.8564  2.9576 -0.5178
  259SOL    HW2  777   1.156   3.017   2.410 -0.5358  0.1648 -2.3399
  260SOL     OW  778   1.832   0.470   1.064 -0.0093 -0.0634  0.3903
  260SOL    HW1  779   1.874   0.379   1.041  1.5488 -0.6787 -1.3143
  260SOL    HW2  780   1.877   0.546   1.007 -0.0029 -2.2596 -1.8022
  261SOL     OW  781   0.400   0.389   2.570  0.2860 -0.0665  0.5149
  261SOL    HW1  782   0.329   0.459   2.568  1.8417 -0.4780  2.0966
  261SOL    HW2  783   0.493   0.423   2.604  1.4578 -0.4939  2.4724
  262SOL     OW  784   2.964   2.453   2.129 -0.4392  0.0379 -0.3495
  262SOL    HW1  785   2.999   2.528   2.187  0.7631  1.7575 -3.1650
  262SOL    HW2  786   3.018   2.440   2.040  4.6524 -0.3472  0.4132
  263SOL     OW  787   3.059   1.582   2.238 -0.1364  0.8385 -0.4079
  263SOL    HW1  788   3.092   1.663   2.193 -3.5517 -0.6167 -1.7491
  263SOL    HW2  789   3.106   1.584   2.330  0.4732  0.1589  0.3602
  264SOL     OW  790   0.383   0.855   0.820  0.1832 -0.4495  0.1714
  264SOL    HW1  791   0.314   0.904   0.757 -1.6537 -1.5533  0.0727
  264SOL    HW2  792   0.379   0.898   0.915  0.7068 -1.1819  1.6847
  265SOL     OW  793   1.113   2.264   0.652 -0.0803  0.1901 -0.1962
  265SOL    HW1  794   1.198   2.215   0.676  0.4122  0.6120  0.6566
  265SOL    HW2  795   1.053   2.278   0.737 -0.2050 -0.6235  0.9924
  266SOL     OW  796   1.585   0.424   1.158  0.0432  0.0152  0.1273
  266SOL    HW1  797   1.680   0.451   1.136 -3.0212  2.3698  0.8998
  266SOL    HW2  798   1.520   0.456   1.087 -2.0959 -3.1162  0.3368
  267SOL     OW  799   2.687   1.108   3.090 -0.7111 -0.0307  0.0501
  267SOL    HW1  800   2.783   1.072   3.099  0.7500  0.1593 -3.6940
  267SOL    HW2  801   2.623   1.039   3.048 -1.2321 -1.1129  0.2730
  268SOL     OW  802   1.831   0.451   0.255  0.3509 -0.2153  0.2496
  268SOL    HW1  803   1.931   0.438   0.274 -1.7158  1.0986  0.3208
  268SOL    HW2  804   1.785   0.484   0.338  2.2629  2.9575 -1.9163
  269SOL     OW  805   2.080   0.910   2.843  0.2423  0.3756 -0.6817
  269SOL    HW1  806   1.984   0.880   2.846  1.4435  2.9938  1.4061
  269SOL    HW2  807   2.084   1.013   2.855 -1.1096  4.2348  2.2899
  270SOL     OW  808   0.013   0.948   2.972  0.3646 -0.5125  0.4489
  270SOL    HW1  809   3.106   0.892   2.897 -0.3305  3.2307 -0.1857
  270SOL    HW2  810   0.024   0.887   3.053  0.8045 -0.2489  2.2165
  271SOL     OW  811   2.852   0.843   0.247  0.4573  0.0295 -0.2009
  271SOL    HW1  812   2.756   0.870   0.274 -2.1116 -1.0777  0.9658
  271SOL    HW2  813   2.898   0.818   0.334  1.0519 -0.8249  1.4832
  272SOL     OW  814   0.070   2.123   2.883 -0.1020  0.1537 -0.4336
  272SOL    HW1  815   0.010   2.137   2.798 -0.7707  0.3197 -3.3127
  272SOL    HW2  816   0.020   2.098   2.964  3.0993 -1.7752 -4.8092
  273SOL     OW  817   2.439   3.061   0.282  0.0590  0.3811 -0.3388
  273SOL    HW1  818   2.495   0.038   0.301 -1.4935  0.1629  2.7399
  273SOL    HW2  819   2.357   3.063   0.345  1.8289  0.9556 -0.4223
  274SOL     OW  820   0.494   2.221   0.969  0.1103 -0.3617 -0.0068
  274SOL    HW1  821   0.393   2.240   0.970 -2.7303  0.5834  0.2140
  274SOL    HW2  822   0.530   2.207   0.875 -1.1660 -0.4578  1.0805
  275SOL     OW  823   2.824   1.604   0.480 -1.0560  0.5785  0.0744
  275SOL    HW1  824   2.825   1.689   0.535 -0.0066  2.3757 -2.2833
  275SOL    HW2  825   2.900   1.540   0.507  3.7528  0.1395  0.3123
  276SOL     OW  826   3.095   0.998   1.969  0.1519  0.1216  0.3256
  276SOL    HW1  827   3.065   1.045   2.050 -2.1233 -1.3847 -0.5693
  276SOL    HW2  828   3.013   0.967   1.914 -1.1447 -1.7180 -0.1754
  277SOL     OW  829   1.903   2.848   1.330 -0.3143 -0.4023 -0.7320
  277SOL    HW1  830   1.916   2.840   1.231 -1.3685  2.2615  2.5930
  277SOL    HW2  831   1.877   2.941   1.362  0.4642 -2.3493  0.7590
  278SOL     OW  832   1.315   2.533   2.089  0.2551 -0.1720 -0.1982
  278SOL    HW1  833   1.342   2.438   2.089 -3.4023  1.8754  1.8363
  278SOL    HW2  834   1.212   2.538   2.083  1.2307  3.2418 -0.9025
  279SOL     OW  835   1.464   1.854   0.608 -0.6680  0.1263 -0.3098
  279SOL    HW1  836   1.557   1.816   0.568  4.5461  1.1244 -1.5930
  279SOL    HW2  837   1.408   1.898   0.534 -2.3112  1.4618 -0.4244
  280SOL     OW  838   0.118   1.593   1.015  0.2209  0.4077 -0.2560
  280SOL    HW1  839   0.104   1.664   0.938 -2.0366 -0.9633 -0.5155
  280SOL    HW2  840   0.129   1.501   0.972  0.8189  0.3280  1.1860
  281SOL     OW  841   2.892   0.879   2.427 -0.1629  0.3774 -0.0214
  281SOL    HW1  842   2.795   0.871   2.396  1.2230  0.1125  1.1844
  281SOL    HW2  843   2.918   0.794   2.479 -0.1941  0.9641 -0.1586
  282SOL     OW  844   0.704   1.438   0.753 -0.1699  0.1510  0.5519
  282SOL    HW1  845   0.664   1.345   0.753 -2.6807  3.8063 -1.7236
  282SOL    HW2  846   0.636   1.495   0.702  1.2012 -1.7692 -0.2811
  283SOL     OW  847   1.936   2.251   0.228 -0.6922 -0.1026 -0.2125
  283SOL    HW1  848   1.863   2.309   0.255  0.7617  0.8299  1.1815
  283SOL    HW2  849   2.017   2.255   0.287  0.6101 -2.8469  0.1204
  284SOL     OW  850   0.908   0.561   0.208  0.4686 -0.0941  0.0942
  284SOL    HW1  851   0.900   0.645   0.271  1.2324  0.2449  0.9157
  284SOL    HW2  852   0.974   0.592   0.134  2.9970  0.1651 -0.3387
  285SOL     OW  853   2.344   1.167   2.894 -0.2536  0.0726  0.4649
  285SOL    HW1  854   2.242   1.161   2.866 -2.3281 -1.2116 -0.0921
  285SOL    HW2  855   2.356   1.227   2.976 -0.5592 -0.5905 -0.1633
  286SOL     OW  856   1.665   2.316   1.353 -0.4987  0.2909  0.3803
  286SOL    HW1  857   1.587   2.250   1.343 -3.6542 -0.0573 -0.2443
  286SOL    HW2  858   1.651   2.409   1.310  0.3678  2.0262 -2.6410
  287SOL     OW  859   0.917   0.981   0.694  0.2002 -0.0370 -0.8014
  287SOL    HW1  860   0.838   0.963   0.758 -0.4692 -2.4169  1.9785
  287SOL    HW2  861   0.922   1.083   0.683  0.1745  0.0092 -0.1534
  288SOL     OW  862   1.040   2.399   0.241  0.1831 -0.1082 -0.5011
  288SOL    HW1  863   1.035   2.467   0.167  0.3918  1.4127 -1.0157
  288SOL    HW2  864   1.054   2.443   0.331 -1.6770 -0.7002 -1.4567
  289SOL     OW  865   0.251   1.570   1.566 -0.3571 -0.4433  0.0906
  289SOL    HW1  866   0.308   1.646   1.530  2.8070  0.2274 -1.3223
  289SOL    HW2  867   0.307   1.486   1.566 -1.1942 -0.3120 -0.5439
  290SOL     OW  868   1.530   2.283   0.819  0.2755 -0.0701 -0.3577
  290SOL    HW1  869   1.492   2.252   0.909 -0.6670  1.3697 -1.1312
  290SOL    HW2  870   1.600   2.218   0.785 -1.1271 -1.2549 -2.1603
  291SOL     OW  871   1.944   3.036   2.914  0.3545 -0.4157  0.2245
  291SOL    HW1  872   1.908   0.015   2.961 -1.9486  2.6348  3.6256
  291SOL    HW2  873   2.000   2.990   2.989  1.9692 -1.0601  2.5949
  292SOL     OW  874   0.916   0.597   2.101 -0.3288  0.4673  0.1567
  292SOL    HW1  875   0.887   0.665   2.035  1.2420 -1.2958  3.2934
  292SOL    HW2  876   0.994   0.543   2.063  2.3491  0.1026 -0.8824
  293SOL     OW  877   2.119   2.328   0.820  0.0822  0.2699  0.7530
  293SOL    HW1  878   2.161   2.279   0.742 -1.3572  5.2654 -0.5249
  293SOL    HW2  879   2.138   2.271   0.904  2.8072 -1.5237  1.9203
  294SOL     OW  880   0.563   0.716   2.292  0.3403  0.4840 -0.7437
  294SOL    HW1  881   0.502   0.636   2.293  3.3611 -2.0068  1.2373
  294SOL    HW2  882   0.512   0.805   2.312 -0.4948  1.0518 -1.2937
  295SOL     OW  883   1.603   1.516   0.922  0.4292 -0.0537 -0.0062
  295SOL    HW1  884   1.621   1.429   0.977  0.6572  0.9882 -2.2091
  295SOL    HW2  885   1.655   1.597   0.963  1.7617  2.6470  0.9224
  296SOL     OW  886   2.836   1.863   0.285  0.2111 -0.1246 -0.1489
  296SOL    HW1  887   2.790   1.944   0.335 -1.5897  0.1604  1.3703
  296SOL    HW2  888   2.828   1.782   0.346  0.7696  1.1539  0.5631
  297SOL     OW  889   2.114   2.897   0.255 -0.2517  0.2667 -0.4959
  297SOL    HW1  890   2.127   2.981   0.309  2.1025  0.9711 -1.1062
  297SOL    HW2  891   2.186   2.827   0.280  1.3522 -1.5587  1.9796
  298SOL     OW  892   0.919   2.587   2.938  0.4210 -0.3107  0.6954
  298SOL    HW1  893   0.972   2.590   2.850  0.4945  2.3110  0.5435
  298SOL    HW2  894   0.974   2.574   3.023 -1.1116 -0.8315  0.7858
  299SOL     OW  895   1.158   2.168   2.033 -0.1448  0.4046  0.6998
  299SOL    HW1  896   1.253   2.208   2.037  1.9437  1.6609 -0.7950
  299SOL    HW2  897   1.089   2.237   2.051  0.9882  2.0382 -0.8883
  300SOL     OW  898   2.512   0.085   2.762  0.1298  0.0480  0.1963
  300SOL    HW1  899   2.523   0.108   2.861 -2.1810 -0.8719  1.4955
  300SOL    HW2  900   2.485   0.171   2.709 -1.5481 -1.1647 -1.7998
  301SOL     OW  901   1.297   0.877   2.072 -0.1211 -0.6806 -0.1942
  301SOL    HW1  902   1.293   0.974   2.045 -1.4034 -3.0732 -0.1969
  301SOL    HW2  903   1.393   0.841   2.050  1.9407 -2.7786 -0.5359
  302SOL     OW  904   2.733   2.862   3.077 -0.2244  0.8889 -0.4212
  302SOL    HW1  905   2.658   2.931   3.085  0.7337 -2.2212  0.9559
  302SOL    HW2  906   2.758   2.847   0.068 -0.5931 -0.7844  0.4371
  303SOL     OW  907   2.732   2.389   1.952  0.6285 -0.1210 -0.0452
  303SOL    HW1  908   2.641   2.401   1.989  2.5605 -2.5024 -3.2666
  303SOL    HW2  909   2.809   2.422   2.013  0.2647 -2.2488  0.1721
  304SOL     OW  910   2.870   0.617   1.933 -0.1910  0.3647 -0.1189
  304SOL    HW1  911   2.861   0.719   1.926 -0.7955 -0.8740 -2.2347
  304SOL    HW2  912   2.891   0.582   2.029  0.2425 -1.6315 -1.3784
  305SOL     OW  913   0.648   1.673   1.234 -0.1887 -0.0326  0.6489
  305SOL    HW1  914   0.656   1.593   1.164  0.3485 -0.4976 -1.7309
  305SOL    HW2  915   0.581   1.644   1.308 -1.2343  1.1544  1.5564
  306SOL     OW  916   0.140   1.164   1.800  0.2453 -0.0908  0.0165
  306SOL    HW1  917   0.106   1.258   1.817  2.8143  2.4753 -0.9108
  306SOL    HW2  918   0.089   1.100   1.862 -0.5050  0.8873  2.9103
  307SOL     OW  919   1.129   0.651   1.614 -0.0506 -0.2769  0.3648
  307SOL    HW1  920   1.133   0.620   1.518  0.7188  3.8602  0.6946
  307SOL    HW2  921   1.223   0.665   1.653 -0.2120  1.3323  0.6807
  308SOL     OW  922   3.045   0.831   1.229 -0.1528 -0.0765  0.1049
  308SOL    HW1  923   0.020   0.856   1.281 -0.3547  0.1589  2.1547
  308SOL    HW2  924   2.961   0.831   1.290 -1.1307 -2.8323  0.3519
  309SOL     OW  925   2.191   1.069   0.983 -0.3962  0.2271 -0.0316
  309SOL    HW1  926   2.247   1.121   0.918 -0.9151 -0.1887  2.7381
  309SOL    HW2  927   2.205   1.106   1.077 -1.5593  1.0848  0.7070
  310SOL     OW  928   3.023   2.088   2.646  0.2777  0.0171  0.4725
  310SOL    HW1  929   3.032   1.984   2.670  1.6988 -3.4557 -0.6025
  310SOL    HW2  930   2.943   2.110   2.586  0.0282 -1.2807  1.2310
  311SOL     OW  931   2.839   2.942   2.545 -0.1058  0.8915 -0.2531
  311SOL    HW1  932   2.735   2.946   2.540 -0.0504  0.6296  0.3029
  311SOL    HW2  933   2.868   2.856   2.591 -0.9272 -1.1807  0.9756
  312SOL     OW  934   2.182   2.003   0.161 -0.8526  0.2728  0.0843
  312SOL    HW1  935   2.274   1.963   0.131  0.9070 -0.1821  3.6838
  312SOL    HW2  936   2.110   1.995   0.090 -3.2973  2.3663 -0.0520
  313SOL     OW  937   2.556   2.818   0.356 -0.2099 -0.2067  0.5797
  313SOL    HW1  938   2.655   2.825   0.388  1.0786  2.7444 -0.1563
  313SOL    HW2  939   2.529   2.904   0.303  0.8943  1.3535  1.4797
  314SOL     OW  940   1.667   1.150   0.248  0.0839  0.0175 -0.0457
  314SOL    HW1  941   1.583   1.117   0.202 -0.6432  2.5301  1.8366
  314SOL    HW2  942   1.748   1.153   0.187 -0.6152 -3.1175 -0.9563
  315SOL     OW  943   1.416   2.735   1.948  0.6042 -0.3308  0.2932
  315SOL    HW1  944   1.381   2.643   1.977  2.6055  1.3436 -0.4060
  315SOL    HW2  945   1.440   2.797   2.027 -1.9380  1.0863  1.2327
  316SOL     OW  946   2.940   1.056   0.067 -0.2351  0.1172  0.1023
  316SOL    HW1  947   2.990   1.044   3.088  0.3392  0.1407  0.8824
  316SOL    HW2  948   2.946   0.975   0.129 -0.4633 -0.6343  0.1381
  317SOL     OW  949   0.327   0.024   0.205 -0.1640 -0.5668  0.1533
  317SOL    HW1  950   0.234   3.102   0.231  0.8725  3.9765 -0.4580
  317SOL    HW2  951   0.382   3.045   0.212  1.8440 -0.6192  0.3792
  318SOL     OW  952   2.255   2.556   0.722 -0.7629 -0.5579  0.2320
  318SOL    HW1  953   2.193   2.475   0.721  1.2012  0.1621  0.3092
  318SOL    HW2  954   2.221   2.630   0.658 -1.8306 -1.3289 -0.1120
  319SOL     OW  955   1.145   1.707   0.001 -0.1010  0.3819 -0.4080
  319SOL    HW1  956   1.123   1.798   0.042  2.2622 -0.3434  0.2796
  319SOL    HW2  957   1.067   1.678   3.047  1.4550 -0.9353 -1.5297
  320SOL     OW  958   0.396   2.357   2.016  0.1510 -0.2410  0.3306
  320SOL    HW1  959   0.366   2.455   2.012  1.3973  0.7132 -2.7702
  320SOL    HW2  960   0.387   2.313   1.922  0.2414  1.0905 -1.3350
  321SOL     OW  961   1.520   2.965   2.780  0.5638 -0.0682  0.7599
  321SOL    HW1  962   1.531   2.931   2.877  1.1237  0.8724  0.5873
  321SOL    HW2  963   1.604   3.006   2.749 -1.3782  0.9372  1.3672
  322SOL     OW  964   3.070   1.360   2.072 -0.2217 -0.3315  0.1172
  322SOL    HW1  965   0.021   1.408   2.003  0.3402  0.8180  1.0423
  322SOL    HW2  966   3.024   1.427   2.132  0.2922 -0.2838 -1.5885
  323SOL     OW  967   2.008   1.272   0.867  0.2606  0.2107 -0.6522
  323SOL    HW1  968   2.050   1.184   0.894 -1.8438 -0.4875  0.1603
  323SOL    HW2  969   1.978   1.329   0.950 -0.4119 -0.3033 -0.6604
  324SOL     OW  970   2.976   0.069   2.561 -0.1522  0.3984 -0.6426
  324SOL    HW1  971   2.939   0.150   2.610  1.2648 -2.6644  0.5522
  324SOL    HW2  972   2.931   3.094   2.594  0.1344 -1.5459 -0.1039
  325SOL     OW  973   1.349   0.742   2.758 -0.0735 -0.8397 -0.2579
  325SOL    HW1  974   1.374   0.643   2.740  1.0444 -0.1342  1.4746
  325SOL    HW2  975   1.253   0.746   2.772  3.2370 -2.4731  1.2429
  326SOL     OW  976   2.092   2.593   2.112  0.5966 -0.1193 -0.0074
  326SOL    HW1  977   2.127   2.658   2.043 -0.6769 -0.0986 -0.4257
  326SOL    HW2  978   2.117   2.498   2.086  0.7839  0.7999 -0.3886
  327SOL     OW  979   2.009   0.137   0.259  0.3359  0.5215 -0.5644
  327SOL    HW1  980   1.966   0.103   0.347  0.0814 -2.0546 -0.9537
  327SOL    HW2  981   1.988   0.234   0.236 -1.7650 -2.1237 -0.4746
  328SOL     OW  982   0.067   1.305   2.510 -0.2366 -0.4008 -0.0223
  328SOL    HW1  983   0.118   1.310   2.419  1.9130  0.1899 -1.8991
  328SOL    HW2  984   3.088   1.255   2.509  4.0240  1.0699  2.4479
  329SOL     OW  985   2.231   0.009   1.952  0.0949 -0.2344  0.1396
  329SOL    HW1  986   2.183   3.077   1.868 -3.6876  0.2860 -0.8430
  329SOL    HW2  987   2.324   3.090   1.960 -0.7562 -0.5514  2.1836
  330SOL     OW  988   3.016   1.197   0.995 -0.5062 -0.1697  0.1848
  330SOL    HW1  989   2.924   1.212   1.035  0.9081 -1.7255  1.2726
  330SOL    HW2  990   3.083   1.171   1.067  1.5302  0.7870  1.8927
  331SOL     OW  991   0.417   1.789   2.345  0.3172  0.1740  0.1871
  331SOL    HW1  992   0.390   1.856   2.272  0.0123 -0.3848  1.7435
  331SOL    HW2  993   0.515   1.803   2.366  0.3804  1.1799 -2.5398
  332SOL     OW  994   0.228   2.871   1.674  0.7823 -0.0269 -0.2538
  332SOL    HW1  995   0.309   2.831   1.628 -2.4656 -0.8528 -1.3361
  332SOL    HW2  996   0.152   2.893   1.603 -1.7943  2.4249 -4.4324
  333SOL     OW  997   2.204   2.972   0.990 -0.3486 -0.1145 -0.1332
  333SOL    HW1  998   2.118   2.932   1.027  0.0560 -0.1041 -0.5559
  333SOL    HW2  999   2.216   3.070   1.017  0.2092  0.6077  1.7681
  334SOL     OW 1000   0.603   1.686   0.704 -0.1354 -0.6116  0.3690
  334SOL    HW1 1001   0.552   1.758   0.650 -0.5788  1.5054  1.5970
  334SOL    HW2 1002   0.677   1.739   0.751 -0.5256  0.3538  0.5121
  335SOL     OW 1003   0.200   2.434   3.036 -0.4104  0.1624 -0.1419
  335SOL    HW1 1004   0.229   2.427   2.934 -1.3626 -1.6119  2.1733
  335SOL    HW2 1005   0.229   2.522   3.078 -0.3887 -2.3316 -1.3911
  336SOL     OW 1006   0.243   0.037   2.316 -0.3138  0.4770 -0.7988
  336SOL    HW1 1007   0.207   0.004   2.404  0.4582 -3.2196  0.6302
  336SOL    HW2 1008   0.197   3.093   2.241  1.3262 -1.2948 -0.0272
  337SOL     OW 1009   2.445   2.234   2.689  0.2364 -0.0108  0.9080
  337SOL    HW1 1010   2.544   2.258   2.707 -0.3137  1.0588  0.5356
  337SOL    HW2 1011   2.385   2.312   2.707  1.4831 -1.5437  1.1863
  338SOL     OW 1012   1.004   1.139   1.073 -0.0498 -0.0007 -0.4246
  338SOL    HW1 1013   0.969   1.179   0.985  0.8565  0.5094 -1.1593
  338SOL    HW2 1014   0.975   1.193   1.157 -1.6453  2.1546 -0.4949
  339SOL     OW 1015   0.062   0.750   2.028  0.8855  0.0610 -0.0124
  339SOL    HW1 1016   0.042   0.758   2.128  1.9171  0.1966 -0.8006
  339SOL    HW2 1017   0.049   0.842   1.989 -1.4301 -1.6959  0.5361
  340SOL     OW 1018   1.495   2.645   0.227  0.1328  0.0092  0.1477
  340SOL    HW1 1019   1.541   2.703   0.300  0.5847  1.7882  1.1455
  340SOL    HW2 1020   1.538   2.659   0.131  0.2090  1.9161 -1.1255
  341SOL     OW 1021   1.952   0.937   0.997 -0.4714  0.5598 -0.1765
  341SOL    HW1 1022   1.870   0.995   0.974 -1.3859 -0.8127 -1.4216
  341SOL    HW2 1023   2.036   0.994   0.990 -1.9587  1.4227 -1.0720
  342SOL     OW 1024   2.351   2.869   2.950  0.0872 -0.1687  0.6124
  342SOL    HW1 1025   2.278   2.867   2.882  0.2587 -0.4940  1.7856
  342SOL    HW2 1026   2.440   2.831   2.912  1.2227  0.6491 -2.2061
  343SOL     OW 1027   1.289   2.059   1.541  0.6194  0.1564 -0.3356
  343SOL    HW1 1028   1.245   2.073   1.631  0.5580 -1.4654  2.4008
  343SOL    HW2 1029   1.246   1.982   1.490  1.0237 -0.4133  2.4866
  344SOL     OW 1030   2.006   2.488   1.192  0.0655  0.5926 -0.5068
  344SOL    HW1 1031   1.943   2.468   1.119  0.0187  0.1925  1.8077
  344SOL    HW2 1032   2.100   2.504   1.161 -0.8142 -0.8475 -2.9407
  345SOL     OW 1033   2.652   2.586   0.214 -0.1572  0.6466 -0.5647
  345SOL    HW1 1034   2.664   2.506   0.277  1.1396  0.9715  1.4086
  345SOL    HW2 1035   2.607   2.665   0.262  1.3339  0.4154  0.1809
  346SOL     OW 1036   2.738   1.425   0.729 -0.8174 -0.4890 -0.9094
  346SOL    HW1 1037   2.760   1.354   0.663 -1.4047  2.1377  2.4987
  346SOL    HW2 1038   2.690   1.507   0.693 -2.1651 -3.1734 -0.2596
  347SOL     OW 1039   2.066   2.418   1.537  0.1150  0.4944 -0.2084
  347SOL    HW1 1040   2.015   2.504   1.521 -1.2666  0.8941  0.8964
  347SOL    HW2 1041   2.020   2.338   1.497 -1.0219  1.4986 -0.8653
  348SOL     OW 1042   0.717   2.050   3.091  0.1546 -0.4735  0.5460
  348SOL    HW1 1043   0.797   2.097   3.053 -1.5885 -1.4651  3.0665
  348SOL    HW2 1044   0.732   2.013   0.076  1.1044  0.8975  1.4660
  349SOL     OW 1045   2.537   1.401   1.573 -0.5594  0.3503  0.1852
  349SOL    HW1 1046   2.473   1.476   1.554 -0.7612 -1.3420 -0.7573
  349SOL    HW2 1047   2.636   1.417   1.547 -2.1333  0.8604  2.1105
  350SOL     OW 1048   2.823   2.577   1.052 -0.0759 -0.1799  0.4956
  350SOL    HW1 1049   2.815   2.674   1.088  1.6735  2.6250  0.5253
  350SOL    HW2 1050   2.794   2.575   0.951 -0.1095 -0.5023 -3.8428
  351SOL     OW 1051   0.395   0.505   2.235  0.2483  0.2671  0.0371
  351SOL    HW1 1052   0.400   0.480   2.134 -0.7603 -1.1506 -3.4610
  351SOL    HW2 1053   0.455   0.447   2.287 -2.5361  0.9951  1.1011
  352SOL     OW 1054   0.586   1.916   1.217 -0.3989  0.0852  0.1872
  352SOL    HW1 1055   0.630   1.822   1.230 -0.5608 -0.4890 -0.8263
  352SOL    HW2 1056   0.482   1.912   1.202 -4.5628 -1.0846 -1.3122
  353SOL     OW 1057   1.489   1.771   2.486 -0.2792  0.3544  0.1608
  353SOL    HW1 1058   1.432   1.822   2.423  2.3568 -2.9262  1.7996
  353SOL    HW2 1059   1.469   1.671   2.472  0.5255 -0.0876  2.6282
  354SOL     OW 1060   1.116   0.399   0.908 -0.8744  0.3571 -0.1245
  354SOL    HW1 1061   1.036   0.409   0.967 -0.7625  0.8766 -2.4942
  354SOL    HW2 1062   1.101   0.424   0.810 -1.5428  1.1967  0.7848
  355SOL     OW 1063   2.525   0.681   0.680  0.3415 -0.2196 -0.3780
  355SOL    HW1 1064   2.586   0.763   0.697  1.1473  3.0895  0.5655
  355SOL    HW2 1065   2.457   0.709   0.604 -0.3703 -1.2118 -0.6214
  356SOL     OW 1066   2.646   1.842   2.311 -0.5167  0.4229 -0.1363
  356SOL    HW1 1067   2.637   1.863   2.413  1.5405  2.1399 -2.3383
  356SOL    HW2 1068   2.692   1.750   2.299 -0.3293 -1.3669 -0.2812
  357SOL     OW 1069   0.617   2.650   1.184 -0.1172 -0.0694  0.3224
  357SOL    HW1 1070   0.675   2.708   1.240 -0.6889  1.2873  0.4673
  357SOL    HW2 1071   0.635   2.551   1.190 -1.6078  3.0613  0.4425
  358SOL     OW 1072   2.533   0.870   1.791  0.2041  0.2536 -0.9248
  358SOL    HW1 1073   2.541   0.868   1.691 -1.2707 -0.5315  0.3714
  358SOL    HW2 1074   2.588   0.940   1.830 -4.0072 -2.8515  1.8988
  359SOL     OW 1075   2.683   2.584   2.692  0.1716  0.3439 -0.7051
  359SOL    HW1 1076   2.630   2.587   2.605  0.7431 -1.0247 -1.0422
  359SOL    HW2 1077   2.692   2.489   2.727 -0.9182  0.6200 -0.3987
  360SOL     OW 1078   1.650   0.186   0.610 -0.5035 -0.4590 -0.0741
  360SOL    HW1 1079   1.669   0.262   0.545  2.1946  0.8415 -0.0804
  360SOL    HW2 1080   1.604   0.227   0.690  1.2495 -0.1849 -0.1289
  361SOL     OW 1081   2.230   0.040   1.360 -0.2213  0.3542 -0.0288
  361SOL    HW1 1082   2.272   0.097   1.437 -0.5665  2.6098 -1.4833
  361SOL    HW2 1083   2.220   3.048   1.376  1.5118 -2.3931 -0.8314
  362SOL     OW 1084   1.306   1.230   0.445  0.0376 -0.0598 -0.4437
  362SOL    HW1 1085   1.302   1.234   0.549  0.4029 -2.5692  1.9780
  362SOL    HW2 1086   1.311   1.323   0.412 -0.7779  0.2287  1.8850
  363SOL     OW 1087   2.459   1.520   2.743  0.1919 -0.2494 -0.2816
  363SOL    HW1 1088   2.523   1.516   2.823  0.0155  2.3048 -2.2603
  363SOL    HW2 1089   2.501   1.570   2.663 -1.3524 -0.0685 -0.0338
  364SOL     OW 1090   0.622   0.329   1.366  0.2227 -0.3420  0.4414
  364SOL    HW1 1091   0.621   0.321   1.466 -0.9212 -0.5180 -1.7372
  364SOL    HW2 1092   0.525   0.311   1.334 -2.0721  1.1904  0.7589
  365SOL     OW 1093   0.098   3.035   0.326 -0.2768  0.1484  0.1711
  365SOL    HW1 1094   0.066   2.962   0.265  2.0238  0.0869  0.8416
  365SOL    HW2 1095   0.141   2.991   0.403  0.6369 -0.4683  0.1828
  366SOL     OW 1096   2.727   1.497   0.071  0.3016  0.1034 -0.1457
  366SOL    HW1 1097   2.801   1.433   0.098 -2.9726  0.7541  0.0468
  366SOL    HW2 1098   2.671   1.513   0.157 -3.3354 -3.2834  2.4731
  367SOL     OW 1099   2.931   2.722   2.733 -0.1777  0.1648  0.2510
  367SOL    HW1 1100   2.842   2.676   2.716  0.3193 -2.4139  2.2780
  367SOL    HW2 1101   2.951   2.720   2.836  1.0175 -0.5132  2.9717
  368SOL     OW 1102   0.121   1.797   0.773  0.0660 -0.3549  0.4317
  368SOL    HW1 1103   0.075   1.881   0.736 -1.5570 -0.4611 -1.3969
  368SOL    HW2 1104   0.216   1.816   0.802 -0.4403 -0.7301 -3.1171
  369SOL     OW 1105   0.775   0.016   0.239 -0.4578 -0.4774 -0.3292
  369SOL    HW1 1106   0.836   0.030   0.159 -1.9966 -1.7019  1.4297
  369SOL    HW2 1107   0.701   0.087   0.243  1.5796  2.2917  3.0282
  370SOL     OW 1108   0.084   0.917   0.763 -0.0827 -0.2221 -0.0786
  370SOL    HW1 1109   0.105   0.863   0.848  0.9442  0.6036 -0.5562
  370SOL    HW2 1110   3.108   0.974   0.771  1.7041  1.1645  0.1133
  371SOL     OW 1111   1.769   2.899   0.644  0.4146  0.2094 -0.5696
  371SOL    HW1 1112   1.686   2.953   0.665  2.8346 -0.7266 -5.0051
  371SOL    HW2 1113   1.843   2.966   0.619  0.0125  2.2029  0.0147
  372SOL     OW 1114   0.012   1.050   2.687  0.0697  0.1453  0.2504
  372SOL    HW1 1115   3.054   1.093   2.624  0.6001  0.1783  2.6632
  372SOL    HW2 1116   0.107   1.081   2.676 -1.2023 -0.5166  1.0357
  373SOL     OW 1117   2.893   1.802   0.726  0.2146  0.4589  0.0642
  373SOL    HW1 1118   2.977   1.857   0.711 -0.2774 -2.7564  0.6339
  373SOL    HW2 1119   2.924   1.718   0.774 -0.1407 -0.2103 -0.0448
  374SOL     OW 1120   0.380   2.472   0.347  0.1662 -0.0711 -0.2580
  374SOL    HW1 1121   0.367   2.412   0.268 -0.6616 -0.5816  4.3670
  374SOL    HW2 1122   0.444   2.434   0.417 -0.1553  1.2048  2.1221
  375SOL     OW 1123   0.274   0.671   0.120 -0.4173  0.2553  0.0097
  375SOL    HW1 1124   0.354   0.721   0.158  0.5247 -2.2045 -0.4265
  375SOL    HW2 1125   0.301   0.608   0.043  1.9322 -2.3848 -1.4718
  376SOL     OW 1126   0.369   2.618   2.034  0.1319 -0.1880 -0.1109
  376SOL    HW1 1127   0.407   2.698   1.980 -0.5890 -1.4918 -2.0085
  376SOL    HW2 1128   0.326   2.650   2.122  0.9441  2.1975 -0.6384
  377SOL     OW 1129   1.215   2.398   2.486  0.7317  0.4030  0.1385
  377SOL    HW1 1130   1.294   2.460   2.504 -0.4756  0.4532 -0.7870
  377SOL    HW2 1131   1.248   2.315   2.433 -0.3840 -0.1485  0.3400
  378SOL     OW 1132   1.089   0.897   0.529 -0.2368  0.3591  0.4495
  378SOL    HW1 1133   1.038   0.910   0.618 -1.5040 -1.6410  3.1344
  378SOL    HW2 1134   1.189   0.899   0.564  0.4466  3.8514  2.4282
  379SOL     OW 1135   1.001   1.787   0.376  0.2073 -0.1537  0.1820
  379SOL    HW1 1136   1.058   1.802   0.458 -1.8884  0.8126  1.0830
  379SOL    HW2 1137   1.025   1.695   0.337 -1.8492 -1.2899  1.4003
  380SOL     OW 1138   0.249   1.967   1.507  0.4737  0.3989  0.0790
  380SOL    HW1 1139   0.176   1.891   1.497 -0.5609  0.3968  1.3897
  380SOL    HW2 1140   0.208   2.057   1.481  1.1542  0.5927  0.9475
  381SOL     OW 1141   0.414   1.107   1.718  0.1652  0.1373 -0.1278
  381SOL    HW1 1142   0.317   1.113   1.738  2.4092  0.7502 -0.6763
  381SOL    HW2 1143   0.474   1.146   1.785 -2.0856 -0.5364 -1.2322
  382SOL     OW 1144   2.644   2.104   0.609 -0.1424 -0.2049 -0.4552
  382SOL    HW1 1145   2.586   2.184   0.618 -0.8825  1.2907  0.3071
  382SOL    HW2 1146   2.620   2.029   0.674  0.8590 -1.1250 -1.9008
  383SOL     OW 1147   2.357   1.895   2.344  0.0359  0.0432  0.2696
  383SOL    HW1 1148   2.439   1.857   2.389  1.6144  1.0918 -0.8223
  383SOL    HW2 1149   2.365   1.998   2.334 -2.6532 -0.2041  1.2264
  384SOL     OW 1150   0.332   2.057   2.208  0.1573 -0.0404  0.1272
  384SOL    HW1 1151   0.414   2.117   2.206 -4.5653 -3.1143  2.5762
  384SOL    HW2 1152   0.327   2.000   2.125  1.5369 -1.8018  2.0102
  385SOL     OW 1153   2.882   2.300   0.874 -0.0085  0.0665 -0.0271
  385SOL    HW1 1154   2.818   2.380   0.866  0.3485  1.3538  0.8206
  385SOL    HW2 1155   2.976   2.334   0.851  0.2232  0.5183 -2.7268
  386SOL     OW 1156   1.901   0.632   0.641  0.2870 -0.5151  0.2228
  386SOL    HW1 1157   1.815   0.664   0.678 -1.0583 -1.7031 -0.3185
  386SOL    HW2 1158   1.959   0.706   0.600  1.6561  3.0479 -1.1645
  387SOL     OW 1159   0.299   0.827   1.864 -0.6697  0.2274  0.3380
  387SOL    HW1 1160   0.257   0.770   1.938  0.5813 -1.4732  0.2854
  387SOL    HW2 1161   0.336   0.916   1.887 -0.3251 -0.7337 -1.9288
  388SOL     OW 1162   2.296   1.012   2.400  0.4425  0.0474 -0.1041
  388SOL    HW1 1163   2.308   1.113   2.395 -1.3881  0.3847  1.6135
  388SOL    HW2 1164   2.226   0.981   2.468 -2.0755 -1.6666 -1.3050
  389SOL     OW 1165   1.679   1.255   1.954  0.8061 -0.2565  0.4686
  389SOL    HW1 1166   1.705   1.331   1.888 -0.3747  3.9968 -0.4444
  389SOL    HW2 1167   1.578   1.259   1.964  0.3752  0.9621  0.6349
  390SOL     OW 1168   1.848   2.654   0.180  0.1484 -0.1301 -0.0877
  390SOL    HW1 1169   1.911   2.591   0.135 -3.4277 -0.0179 -2.1575
  390SOL    HW2 1170   1.775   2.697   0.119 -1.9317  0.3865 -0.9953
  391SOL     OW 1171   1.917   2.266   1.326  0.8515  0.1059  0.0444
  391SOL    HW1 1172   1.958   2.351   1.289  1.1569 -1.0187 -0.2356
  391SOL    HW2 1173   1.814   2.279   1.343  0.3078 -0.8647 -0.8318
  392SOL     OW 1174   3.062   2.393   1.139 -0.4293  0.4410 -0.1136
  392SOL    HW1 1175   2.995   2.468   1.117  2.5352  0.2236 -2.5274
  392SOL    HW2 1176   3.012   2.306   1.154 -0.1852 -0.8064 -0.4216
  393SOL     OW 1177   2.026   1.926   3.078 -0.1093 -0.8245  0.3984
  393SOL    HW1 1178   2.092   1.843   3.073  3.1275 -0.1544  0.0239
  393SOL    HW2 1179   2.041   1.975   2.986  0.8980  1.3216 -1.3793
  394SOL     OW 1180   0.097   0.080   2.947  0.6191 -0.7558  0.3985
  394SOL    HW1 1181   0.013   0.031   2.914 -0.1188  0.9042  1.7596
  394SOL    HW2 1182   0.155   0.111   2.875  0.5396  0.0620  0.2181
  395SOL     OW 1183   1.433   1.122   1.253 -0.5084 -0.2036  0.0709
  395SOL    HW1 1184   1.531   1.146   1.246  0.8985  1.8077  1.1232
  395SOL    HW2 1185   1.420   1.031   1.205  2.6395 -2.4892  0.7876
  396SOL     OW 1186   1.687   0.870   0.025 -0.1325 -0.9074 -0.0075
  396SOL    HW1 1187   1.678   0.966   3.103  1.4263 -0.0119 -0.8375
  396SOL    HW2 1188   1.625   0.813   3.073 -0.2122  1.0800 -0.9168
  397SOL     OW 1189   0.010   0.778   2.734 -0.2528  0.3806  0.1963
  397SOL    HW1 1190   3.041   0.720   2.702  0.7667  0.2478  1.4449
  397SOL    HW2 1191   3.108   0.876   2.698  2.2487  4.1528  0.6189
  398SOL     OW 1192   0.872   0.237   3.052 -0.0359 -0.0198 -0.0175
  398SOL    HW1 1193   0.826   0.298   0.004  0.9837  1.1671 -1.3713
  398SOL    HW2 1194   0.958   0.283   3.027  0.0041  1.3333  3.4292
  399SOL     OW 1195   2.663   2.899   1.826  0.3835 -0.1929 -0.0245
  399SOL    HW1 1196   2.694   2.904   1.731 -1.8352  2.6323  0.4593
  399SOL    HW2 1197   2.671   2.802   1.860 -1.3187 -2.1151 -0.6410
  400SOL     OW 1198   0.300   1.564   2.209 -0.1530  0.0906  0.1110
  400SOL    HW1 1199   0.318   1.603   2.304  3.1890  1.9160 -1.2267
  400SOL    HW2 1200   0.238   1.630   2.161 -0.4307  0.0954 -1.4923
  401SOL     OW 1201   0.641   0.415   2.729  0.0435  0.0282  0.2793
  401SOL    HW1 1202   0.627   0.414   2.829 -1.1541 -0.7557  0.3598
  401SOL    HW2 1203   0.684   0.327   2.700 -1.4986 -1.3328 -0.2029
  402SOL     OW 1204   0.346   2.255   1.780 -0.6545 -0.6420 -0.2310
  402SOL    HW1 1205   0.430   2.237   1.731 -1.6073  1.5357  2.2735
  402SOL    HW2 1206   0.295   2.337   1.739 -1.5076 -1.9275 -2.4261
  403SOL     OW 1207   0.790   1.103   1.492  0.2593 -0.3685  0.2070
  403SOL    HW1 1208   0.774   1.006   1.475 -3.0297  0.7776 -0.7521
  403SOL    HW2 1209   0.834   1.121   1.583 -1.5270  1.2308  1.6257
  404SOL     OW 1210   2.854   2.411   1.479 -0.6921 -0.4892  0.2355
  404SOL    HW1 1211   2.867   2.497   1.427  1.7929  0.8132  1.2263
  404SOL    HW2 1212   2.883   2.337   1.419  2.2431  2.0480  0.5923
  405SOL     OW 1213   0.041   0.204   1.675  0.1111 -0.3052 -0.1603
  405SOL    HW1 1214   0.052   0.141   1.755  0.8366 -0.8478 -1.2412
  405SOL    HW2 1215   0.091   0.291   1.688  0.8035  0.6285  1.4527
  406SOL     OW 1216   1.604   2.583   2.882 -0.3513  0.1288  0.6844
  406SOL    HW1 1217   1.667   2.500   2.885  0.9391  1.2470  0.9649
  406SOL    HW2 1218   1.619   2.622   2.790 -0.0599 -1.2108 -0.7259
  407SOL     OW 1219   1.824   1.368   1.513  0.0575 -0.2570 -0.0843
  407SOL    HW1 1220   1.824   1.267   1.498  2.0976  1.2259 -1.5606
  407SOL    HW2 1221   1.789   1.395   1.605 -2.9943  1.8252 -4.8175
  408SOL     OW 1222   0.689   3.065   2.498  0.4595  0.0350  0.1915
  408SOL    HW1 1223   0.594   3.097   2.475 -1.4601  1.3981  0.5295
  408SOL    HW2 1224   0.761   0.016   2.457 -0.8161 -0.9019  1.3974
  409SOL     OW 1225   2.974   2.616   0.488  0.1889 -0.5026 -0.1274
  409SOL    HW1 1226   2.939   2.521   0.478 -0.3021  1.2101  0.9146
  409SOL    HW2 1227   3.041   2.639   0.417 -1.2724 -1.4593 -0.8419
  410SOL     OW 1228   2.417   1.752   0.406  0.1769  0.7636  0.1592
  410SOL    HW1 1229   2.462   1.703   0.481  1.8595  3.9217  0.7849
  410SOL    HW2 1230   2.481   1.821   0.372 -0.6927 -1.9459  2.4395
  411SOL     OW 1231   3.063   0.561   1.072 -0.1278  0.0886  0.4152
  411SOL    HW1 1232   0.010   0.479   1.034  1.1396  0.1281 -0.9361
  411SOL    HW2 1233   0.005   0.649   1.058  0.0530  3.0160  0.3830
  412SOL     OW 1234   1.497   0.260   0.834  0.0553  0.2950  0.1712
  412SOL    HW1 1235   1.541   0.196   0.903 -0.0249 -0.7734  0.3294
  412SOL    HW2 1236   1.448   0.334   0.887  1.5167  0.3240 -0.5889
  413SOL     OW 1237   0.885   0.448   1.071  0.5822  0.0438  0.0698
  413SOL    HW1 1238   0.818   0.399   1.009  0.7284  1.5526  1.0147
  413SOL    HW2 1239   0.859   0.445   1.171 -2.0100 -0.5068 -1.8461
  414SOL     OW 1240   0.409   1.633   0.078  0.2072  0.4798  0.0025
  414SOL    HW1 1241   0.355   1.639   3.099 -0.1207  0.6753 -1.2638
  414SOL    HW2 1242   0.471   1.552   0.059 -1.2946 -1.0587  0.2682
  415SOL     OW 1243   0.382   2.314   0.108  0.2218 -0.4627  0.3693
  415SOL    HW1 1244   0.384   2.216   0.083 -0.1786  0.1115 -0.3658
  415SOL    HW2 1245   0.322   2.365   0.039 -1.6843  2.0852 -0.1134
  416SOL     OW 1246   1.465   0.704   0.778  0.5072 -0.0169 -0.0207
  416SOL    HW1 1247   1.447   0.638   0.698  2.3136 -0.8440  1.0871
  416SOL    HW2 1248   1.556   0.746   0.769 -0.0117 -0.1859  2.5604
  417SOL     OW 1249   0.213   0.918   0.522  0.1230 -0.8013  0.4139
  417SOL    HW1 1250   0.154   0.891   0.440 -0.7445  0.8717 -1.0546
  417SOL    HW2 1251   0.161   0.914   0.613 -1.0720  0.0012 -0.8339
  418SOL     OW 1252   2.595   1.377   2.359 -0.0020 -0.0129  0.4785
  418SOL    HW1 1253   2.628   1.358   2.264  2.2360 -0.8193 -0.5453
  418SOL    HW2 1254   2.500   1.346   2.373 -0.2312  1.8001 -1.7761
  419SOL     OW 1255   0.300   0.465   3.039 -0.5034 -0.3094  0.0830
  419SOL    HW1 1256   0.262   0.374   3.063  0.5795  1.8883  0.0586
  419SOL    HW2 1257   0.234   0.523   2.990  3.0595 -1.2536 -1.5176
  420SOL     OW 1258   0.392   1.219   0.938 -0.2517  0.0913 -0.1045
  420SOL    HW1 1259   0.420   1.310   0.976  3.1534  0.7366 -1.2070
  420SOL    HW2 1260   0.291   1.213   0.927  0.3059 -2.4365 -0.1813
  421SOL     OW 1261   0.568   2.038   0.731 -0.6915  0.5114  0.4324
  421SOL    HW1 1262   0.539   2.058   0.634 -0.9426  1.2094 -1.9032
  421SOL    HW2 1263   0.650   1.976   0.736  0.4707  0.0337 -1.5930
  422SOL     OW 1264   2.803   0.803   1.390 -0.3508 -0.4056  0.0158
  422SOL    HW1 1265   2.871   0.771   1.455 -0.1482 -0.4376 -4.1921
  422SOL    HW2 1266   2.749   0.725   1.356  0.8548  0.1346  2.3724
  423SOL     OW 1267   1.602   1.432   1.334  0.0686  0.7897  0.3671
  423SOL    HW1 1268   1.635   1.397   1.241 -1.2242 -1.4858  0.1682
  423SOL    HW2 1269   1.677   1.438   1.402 -2.2317 -1.1888 -0.0184
  424SOL     OW 1270   1.587   0.908   0.467  0.2797  0.3568  0.1645
  424SOL    HW1 1271   1.618   1.002   0.444 -2.8250  2.4918  2.2665
  424SOL    HW2 1272   1.613   0.839   0.391  1.7055 -2.6200 -1.3835
  425SOL     OW 1273   0.022   0.086   1.927  0.5590 -0.2678  0.0583
  425SOL    HW1 1274   0.037   0.147   2.009  0.5361 -0.3148  1.7792
  425SOL    HW2 1275   3.034   0.047   1.938  1.7376 -3.3941  1.7739
  426SOL     OW 1276   2.488   2.876   2.423 -0.3032  0.0835 -0.1737
  426SOL    HW1 1277   2.539   2.899   2.509  0.5264  1.1976  0.5935
  426SOL    HW2 1278   2.451   2.964   2.382 -0.6914  1.3730 -0.6939
  427SOL     OW 1279   1.014   0.855   2.483  0.3597  0.2295  0.5144
  427SOL    HW1 1280   0.950   0.796   2.436  0.9793 -1.0927 -1.7050
  427SOL    HW2 1281   1.049   0.810   2.570 -1.2717 -2.7322 -0.7497
  428SOL     OW 1282   2.283   1.082   2.134  0.4046 -0.6861 -0.3501
  428SOL    HW1 1283   2.284   1.028   2.220  0.2685 -2.5428 -1.3590
  428SOL    HW2 1284   2.266   1.017   2.060  1.0822 -3.5136  2.0897
  429SOL     OW 1285   2.587   0.051   0.553 -0.4724 -0.5646 -0.1449
  429SOL    HW1 1286   2.579   0.098   0.464 -1.1028  1.1591  3.6695
  429SOL    HW2 1287   2.665   0.089   0.604 -0.4761  1.2711  1.5211
  430SOL     OW 1288   1.968   1.271   2.112  0.0990 -0.0976  0.5904
  430SOL    HW1 1289   2.027   1.194   2.138 -0.0555  1.4949  2.6407
  430SOL    HW2 1290   1.871   1.259   2.143  0.6943  0.6285 -0.5917
  431SOL     OW 1291   0.045   2.034   1.149  0.2888 -0.0829  0.4578
  431SOL    HW1 1292   3.060   2.056   1.108  0.4641  0.6108 -0.4384
  431SOL    HW2 1293   0.037   1.998   1.242  1.4021 -0.9500 -1.3154
  432SOL     OW 1294   1.480   2.889   2.160 -0.1723 -0.1555 -0.7700
  432SOL    HW1 1295   1.439   2.968   2.209 -1.8515  0.1739  0.3711
  432SOL    HW2 1296   1.579   2.911   2.130  0.9041 -0.1723 -0.1632
  433SOL     OW 1297   1.473   0.015   1.858 -0.5060 -0.1617  0.6053
  433SOL    HW1 1298   1.392   3.091   1.802  0.7178  0.8647  1.5983
  433SOL    HW2 1299   1.559   3.074   1.834 -2.3753 -0.8681 -0.4308
  434SOL     OW 1300   0.204   2.694   2.243  0.0725 -0.5641  0.0328
  434SOL    HW1 1301   0.242   2.783   2.256 -1.0090 -0.2693 -2.2585
  434SOL    HW2 1302   0.107   2.693   2.270 -0.0525 -2.9717 -0.1982
  435SOL     OW 1303   0.120   2.140   0.417  0.0480 -0.4517 -0.3938
  435SOL    HW1 1304   0.218   2.128   0.388  0.5836  0.6872  0.3504
  435SOL    HW2 1305   0.057   2.078   0.375  1.9461  3.3975  0.8030
  436SOL     OW 1306   0.965   0.893   1.690  0.1037 -0.0667 -0.4523
  436SOL    HW1 1307   1.049   0.836   1.668  1.0470 -0.3008 -0.4027
  436SOL    HW2 1308   0.882   0.858   1.635 -3.7774  0.0529  2.5806
  437SOL     OW 1309   0.601   0.320   2.324  0.1163  0.6641  0.6813
  437SOL    HW1 1310   0.695   0.346   2.362  3.2777  2.5933  0.8730
  437SOL    HW2 1311   0.554   0.248   2.379  1.9832 -3.2549 -3.5741
  438SOL     OW 1312   0.679   1.824   1.524  0.2662  0.1732 -0.5909
  438SOL    HW1 1313   0.703   1.887   1.606  0.3688  2.8780  3.0900
  438SOL    HW2 1314   0.762   1.804   1.473 -0.4911  0.5942  2.8133
  439SOL     OW 1315   1.940   0.822   0.106 -0.0143  0.6551  0.0037
  439SOL    HW1 1316   1.844   0.828   0.086  3.2046 -1.5265  3.8916
  439SOL    HW2 1317   1.982   0.912   0.124 -2.8112  0.4715  1.1417
  440SOL     OW 1318   1.072   0.974   0.277 -0.1061 -0.4464  0.1473
  440SOL    HW1 1319   1.132   0.918   0.217 -1.0634  0.2240 -1.6577
  440SOL    HW2 1320   1.061   0.934   0.369 -0.1395  0.3029  0.2797
  441SOL     OW 1321   0.653   2.437   1.651  0.1432 -0.1644  0.0890
  441SOL    HW1 1322   0.700   2.414   1.736 -2.8180  0.3155 -3.6118
  441SOL    HW2 1323   0.621   2.351   1.604 -3.1444  0.0355 -3.1382
  442SOL     OW 1324   2.927   2.163   0.633  0.0024  0.0557  0.2059
  442SOL    HW1 1325   2.920   2.192   0.730  0.8585  0.0339 -1.0607
  442SOL    HW2 1326   2.836   2.156   0.586  2.3060 -0.9141 -0.0939
  443SOL     OW 1327   2.744   2.035   2.749 -0.3993  0.1278 -0.1568
  443SOL    HW1 1328   2.681   1.985   2.681 -0.7270 -1.3408 -0.9004
  443SOL    HW2 1329   2.832   1.986   2.764  2.1207 -0.5325 -0.3171
  444SOL     OW 1330   1.404   1.082   0.188  0.4697 -0.1125  0.3030
  444SOL    HW1 1331   1.388   0.982   0.211 -0.3349 -1.8214 -2.1130
  444SOL    HW2 1332   1.379   1.144   0.268 -1.8947  0.9044 -0.4160
  445SOL     OW 1333   2.749   2.587   1.727  0.2244  0.4724  0.6073
  445SOL    HW1 1334   2.814   2.666   1.737  0.6763 -0.9196 -0.2821
  445SOL    HW2 1335   2.751   2.526   1.809 -0.1204 -0.8707  0.3481
  446SOL     OW 1336   2.816   1.245   0.535  0.8288  0.3081  0.0129
  446SOL    HW1 1337   2.810   1.161   0.477  2.1496 -3.8822 -1.8075
  446SOL    HW2 1338   2.900   1.303   0.516  1.3019  0.3129 -1.7753
  447SOL     OW 1339   0.969   2.323   1.498  0.3651 -0.2221  0.1276
  447SOL    HW1 1340   0.951   2.423   1.517  1.5616  0.7744 -1.3189
  447SOL    HW2 1341   1.056   2.317   1.446  0.2644 -2.4618 -2.9370
  448SOL     OW 1342   1.458   1.476   1.673  0.0009  0.0167  0.5594
  448SOL    HW1 1343   1.449   1.519   1.764 -0.1137 -0.8448  2.3431
  448SOL    HW2 1344   1.410   1.386   1.666  1.1224 -2.1262 -0.5985
  449SOL     OW 1345   2.994   2.232   2.287  0.3337 -0.7197  0.5792
  449SOL    HW1 1346   2.937   2.261   2.361  0.3687 -0.0985 -3.0887
  449SOL    HW2 1347   3.008   2.306   2.219  3.0233 -1.0989 -0.4631
  450SOL     OW 1348   0.071   1.792   2.116  0.2268 -0.0372  0.1776
  450SOL    HW1 1349   0.050   1.889   2.135  1.1896 -3.9139  0.3273
  450SOL    HW2 1350   0.110   1.789   2.023  1.4124 -2.6945  0.0750
  451SOL     OW 1351   2.298   0.624   1.703 -0.7276 -0.3013  0.3613
  451SOL    HW1 1352   2.332   0.670   1.619  0.4712  0.3956 -0.3339
  451SOL    HW2 1353   2.297   0.691   1.779  1.3711  2.5588  0.7509
  452SOL     OW 1354   0.937   1.255   0.784  0.0648  0.0076  0.1949
  452SOL    HW1 1355   1.026   1.299   0.799 -2.9148 -1.0534  1.5602
  452SOL    HW2 1356   0.873   1.326   0.749 -1.1011  3.3726  1.4054
  453SOL     OW 1357   1.357   2.125   0.703 -0.1992 -0.3273 -0.5160
  453SOL    HW1 1358   1.424   2.194   0.751  1.9740 -1.1893  1.7068
  453SOL    HW2 1359   1.401   2.091   0.619  2.1008 -0.0486  3.2972
  454SOL     OW 1360   0.254   1.419   0.210 -0.1844 -0.1843 -0.1452
  454SOL    HW1 1361   0.292   1.329   0.186  0.4490  4.0313 -0.4289
  454SOL    HW2 1362   0.320   1.496   0.182  3.8374  2.1724 -0.7331
  455SOL     OW 1363   1.020   1.234   0.372 -0.2469 -0.3524  0.1508
  455SOL    HW1 1364   0.981   1.142   0.349 -0.3249 -0.1856  0.2701
  455SOL    HW2 1365   1.120   1.214   0.395 -0.5315  1.2305 -1.8602
  456SOL     OW 1366   1.908   2.731   0.802  0.0083  0.0132 -0.5355
  456SOL    HW1 1367   1.887   2.809   0.739  0.2002 -1.0343 -1.1560
  456SOL    HW2 1368   1.927   2.651   0.744  0.8329  0.5259  0.0807
  457SOL     OW 1369   1.548   2.931   3.062  0.5224  0.3031 -0.4538
  457SOL    HW1 1370   1.568   3.025   3.019  0.2076  2.1176 -0.4959
  457SOL    HW2 1371   1.486   2.943   0.033  0.1996 -0.2524  0.4056
  458SOL     OW 1372   2.492   0.643   0.326  0.1633  0.9896 -0.2570
  458SOL    HW1 1373   2.411   0.620   0.382 -0.5182 -1.1431 -1.5676
  458SOL    HW2 1374   2.503   0.744   0.318  0.8784  1.9065  2.2136
  459SOL     OW 1375   2.386   0.447   2.295 -0.4328  0.5364  0.2945
  459SOL    HW1 1376   2.465   0.498   2.340  2.3214  1.5705 -0.3389
  459SOL    HW2 1377   2.332   0.502   2.229 -0.2574 -0.6055  1.0856
  460SOL     OW 1378   2.740   0.660   2.780  0.3108  0.3857 -0.6914
  460SOL    HW1 1379   2.760   0.633   2.879  0.9211 -1.2139 -1.0665
  460SOL    HW2 1380   2.641   0.697   2.768 -2.6697  0.9034  1.2616
  461SOL     OW 1381   0.024   2.381   0.826 -0.2420  0.5761  0.3431
  461SOL    HW1 1382   0.056   2.294   0.873  0.5383  0.3660 -0.5568
  461SOL    HW2 1383   0.054   2.378   0.725  1.0604  1.8353 -2.3054
  462SOL     OW 1384   2.909   2.640   1.368 -0.2706  0.4980  0.0430
  462SOL    HW1 1385   2.861   2.720   1.326 -0.0490 -1.8954 -3.1101
  462SOL    HW2 1386   3.004   2.657   1.353 -0.8241 -0.7589  0.2406
  463SOL     OW 1387   2.396   1.775   2.895 -0.1549 -0.1699 -0.0464
  463SOL    HW1 1388   2.405   1.835   2.812 -0.4663 -0.9534 -0.7335
  463SOL    HW2 1389   2.408   1.681   2.872  2.0523 -1.1798 -0.3930
  464SOL     OW 1390   0.883   2.574   1.553  0.1531 -0.2536 -0.0647
  464SOL    HW1 1391   0.799   2.520   1.570  1.2375  0.2459  0.5729
  464SOL    HW2 1392   0.906   2.642   1.628  0.9390  0.7157  1.1904
  465SOL     OW 1393   0.969   0.004   1.670 -0.1100  0.1058 -0.2365
  465SOL    HW1 1394   1.070   3.101   1.671 -2.7760  0.1725 -1.3845
  465SOL    HW2 1395   0.942   0.089   1.722  0.2197  0.6725 -1.2782
  466SOL     OW 1396   1.665   2.597   1.934 -0.0499  0.0475  1.1472
  466SOL    HW1 1397   1.735   2.644   1.991 -0.7413  1.1273 -1.5468
  466SOL    HW2 1398   1.574   2.643   1.938  2.9586 -1.4820  0.6945
  467SOL     OW 1399   0.825   2.132   1.350  0.4262  0.2377  0.2932
  467SOL    HW1 1400   0.721   2.139   1.330 -3.0769  2.5846 -0.7793
  467SOL    HW2 1401   0.850   2.201   1.416 -2.1998 -0.4399 -2.0384
  468SOL     OW 1402   2.798   1.611   2.293 -0.4016 -0.2455 -0.0075
  468SOL    HW1 1403   2.902   1.595   2.284  1.2536 -2.1392 -0.5240
  468SOL    HW2 1404   2.746   1.524   2.293  1.1368 -2.7289 -0.6829
  469SOL     OW 1405   0.769   1.868   0.833  0.2093 -0.2975  0.3252
  469SOL    HW1 1406   0.742   1.916   0.922  0.2673  0.3426 -1.2128
  469SOL    HW2 1407   0.850   1.814   0.849 -3.1493  2.1853  1.0610
  470SOL     OW 1408   1.857   1.516   2.127  0.0608  0.2162  0.1237
  470SOL    HW1 1409   1.837   1.547   2.222 -1.0600  2.9197  2.4995
  470SOL    HW2 1410   1.909   1.427   2.113 -1.7228 -0.7201  2.0049
  471SOL     OW 1411   0.631   2.444   0.111 -0.2827  0.1822  0.3502
  471SOL    HW1 1412   0.538   2.398   0.109  0.3758 -0.2890 -2.2157
  471SOL    HW2 1413   0.679   2.423   0.198 -1.8310 -0.8828  0.4060
  472SOL     OW 1414   0.076   2.781   1.901  0.2961 -0.2658  0.1019
  472SOL    HW1 1415   0.138   2.714   1.945  1.0900  1.0425 -0.6803
  472SOL    HW2 1416   0.134   2.836   1.834  1.2436 -0.6431 -0.3565
  473SOL     OW 1417   0.739   2.689   0.124 -0.0230  0.0792  0.9306
  473SOL    HW1 1418   0.666   2.755   0.149 -0.3084  2.7107 -1.5786
  473SOL    HW2 1419   0.693   2.596   0.109 -2.3806 -3.2561  1.8888
  474SOL     OW 1420   2.712   2.517   0.810  0.7144 -0.0445 -0.7590
  474SOL    HW1 1421   2.616   2.517   0.839 -1.7419  0.9456 -0.4526
  474SOL    HW2 1422   2.724   2.598   0.754 -1.2409 -0.4531  1.0714
  475SOL     OW 1423   2.182   2.957   1.729  0.5535  0.4449 -0.1452
  475SOL    HW1 1424   2.223   2.980   1.639 -1.8869  1.1474 -0.1196
  475SOL    HW2 1425   2.119   2.877   1.726 -2.4176 -1.1834  0.4260
  476SOL     OW 1426   0.581   1.176   0.734 -0.2561  0.0606 -0.0231
  476SOL    HW1 1427   0.508   1.209   0.795  0.3841 -1.4639 -0.5475
  476SOL    HW2 1428   0.607   1.085   0.762  1.1486  3.5654 -2.4411
  477SOL     OW 1429   0.368   1.896   0.884  0.5067  0.4703  0.4134
  477SOL    HW1 1430   0.405   1.967   0.822  2.3600 -0.0554  2.4674
  477SOL    HW2 1431   0.431   1.813   0.879  1.7212 -1.5180  1.3492
  478SOL     OW 1432   3.045   2.660   2.297 -0.6144 -0.2075 -0.1072
  478SOL    HW1 1433   2.999   2.754   2.302  0.3502  0.9130  1.2917
  478SOL    HW2 1434   3.091   2.634   2.381  0.2233  0.1321 -1.5112
  479SOL     OW 1435   0.030   0.219   1.407 -0.4651 -0.3959  0.1119
  479SOL    HW1 1436   0.034   0.197   1.508 -2.9793  0.7619  0.0407
  479SOL    HW2 1437   0.026   0.322   1.394 -0.2513  1.4916 -1.5524
  480SOL     OW 1438   2.861   2.501   0.032  0.3014  0.1177 -0.1803
  480SOL    HW1 1439   2.852   2.415   3.082  0.2993 -2.8132 -1.4390
  480SOL    HW2 1440   2.782   2.522   0.094 -0.4583  1.0490  2.0065
  481SOL     OW 1441   2.281   2.085   1.646  0.1218 -0.0462  0.1975
  481SOL    HW1 1442   2.257   1.994   1.685 -0.7432 -0.2304 -0.7439
  481SOL    HW2 1443   2.227   2.096   1.563 -1.4008 -1.9340  1.4751
  482SOL     OW 1444   1.852   2.219   2.672  0.0765  0.5151  0.2568
  482SOL    HW1 1445   1.801   2.135   2.645 -1.1983  0.0986  0.9042
  482SOL    HW2 1446   1.892   2.276   2.594  0.4787  1.7805  1.1398
  483SOL     OW 1447   0.671   1.866   2.421 -0.1264 -0.0992  0.3211
  483SOL    HW1 1448   0.702   1.787   2.475  1.7011  1.1596 -0.2251
  483SOL    HW2 1449   0.738   1.887   2.347 -4.0112  0.5980 -0.4000
  484SOL     OW 1450   3.085   0.503   1.357 -0.6794  0.5771  0.3378
  484SOL    HW1 1451   3.056   0.540   1.270  0.2131  0.6143 -0.4590
  484SOL    HW2 1452   3.023   0.524   1.438  0.9646  0.4595  5.2650
  485SOL     OW 1453   2.064   1.067   0.504  0.4100 -0.1236 -0.3603
  485SOL    HW1 1454   2.094   1.159   0.465  0.4006 -1.0642  2.7541
  485SOL    HW2 1455   1.986   1.077   0.565  0.2825 -0.5454 -0.9038
  486SOL     OW 1456   1.410   0.060   2.242 -0.1334 -0.1340 -0.4324
  486SOL    HW1 1457   1.379   0.111   2.159 -1.7481 -0.5178  1.3091
  486SOL    HW2 1458   1.488   0.114   2.282  3.6631  1.0166  0.7597
  487SOL     OW 1459   0.931   1.829   1.406  0.0669 -0.5959 -0.5401
  487SOL    HW1 1460   1.033   1.832   1.389 -2.2860 -3.6153  1.1614
  487SOL    HW2 1461   0.886   1.915   1.371  0.3065 -1.4827 -1.9843
  488SOL     OW 1462   2.395   1.342   3.108  0.5480 -0.1606 -0.1937
  488SOL    HW1 1463   2.463   1.374   3.037  1.6251 -0.8086  1.5082
  488SOL    HW2 1464   2.380   1.425   0.061 -0.8331  3.3328 -1.5944
  489SOL     OW 1465   2.193   3.095   0.446 -0.4098  0.0643  0.1318
  489SOL    HW1 1466   2.203   3.078   0.545 -1.0571  1.7307  1.2913
  489SOL    HW2 1467   2.134   0.067   0.427  2.8936 -2.0942 -0.3605
  490SOL     OW 1468   1.085   2.584   0.037 -0.8612 -0.1216  0.0253
  490SOL    HW1 1469   1.182   2.593   0.005 -2.6680 -2.9998 -1.0767
  490SOL    HW2 1470   1.050   2.677   0.063 -0.7924 -4.3699 -0.3423
  491SOL     OW 1471   1.184   1.044   0.883 -0.0769 -0.1508 -0.2741
  491SOL    HW1 1472   1.151   1.088   0.972  0.7368 -0.6189  4.6667
  491SOL    HW2 1473   1.096   1.019   0.833  0.4700  1.1188 -1.0597
  492SOL     OW 1474   1.223   0.223   2.795  1.1209  0.3665  0.6950
  492SOL    HW1 1475   1.322   0.197   2.785 -0.3573 -0.5703  2.1561
  492SOL    HW2 1476   1.195   0.251   2.891 -0.2993  1.6168  0.1215
  493SOL     OW 1477   1.794   2.020   0.116  0.2884 -0.0530 -0.3465
  493SOL    HW1 1478   1.846   2.094   0.159 -2.3028  1.0944 -2.9935
  493SOL    HW2 1479   1.862   1.965   0.060  0.4026  2.4794 -1.1671
  494SOL     OW 1480   0.564   1.219   0.468  0.3998 -0.0019 -0.2231
  494SOL    HW1 1481   0.543   1.319   0.455 -4.2088  1.1669 -1.5666
  494SOL    HW2 1482   0.587   1.193   0.569 -0.7019 -0.3219  2.1184
  495SOL     OW 1483   3.061   2.639   0.761  0.3403 -0.3401  0.0323
  495SOL    HW1 1484   3.072   2.543   0.798  2.8867 -1.1917  0.2409
  495SOL    HW2 1485   3.018   2.645   0.667  2.9131 -1.0839 -2.4389
  496SOL     OW 1486   2.797   0.236   1.489  0.4143  0.5142  0.5615
  496SOL    HW1 1487   2.850   0.197   1.409  0.2885 -1.7711 -0.1925
  496SOL    HW2 1488   2.808   0.179   1.574  0.0636  0.3940 -0.2474
  497SOL     OW 1489   2.344   1.291   2.429 -0.0618  0.8078 -0.1264
  497SOL    HW1 1490   2.385   1.289   2.525  4.1379 -0.6564 -0.1400
  497SOL    HW2 1491   2.243   1.306   2.422 -1.5020 -0.5367 -0.0918
  498SOL     OW 1492   0.708   2.060   1.024 -0.2493  0.1151 -0.1534
  498SOL    HW1 1493   0.629   2.116   0.997  2.5871  0.1182 -1.0637
  498SOL    HW2 1494   0.687   2.000   1.104 -2.1800  2.0124 -2.4754
  499SOL     OW 1495   0.889   2.223   1.725 -0.2862  0.3710  0.2770
  499SOL    HW1 1496   0.853   2.292   1.793  1.8281  1.5062  0.7499
  499SOL    HW2 1497   0.922   2.263   1.634  1.9642 -0.2188 -0.9729
  500SOL     OW 1498   1.116   1.957   0.155  0.2242 -0.0130 -0.3276
  500SOL    HW1 1499   1.097   1.932   0.246 -1.8670  0.0249 -2.9965
  500SOL    HW2 1500   1.211   1.992   0.148 -1.1122 -0.6465  1.8917
  501SOL     OW 1501   2.554   2.788   1.355  0.7444 -0.2128  0.0265
  501SOL    HW1 1502   2.482   2.802   1.288  1.1902 -0.5911  1.2693
  501SOL    HW2 1503   2.644   2.763   1.310  0.2493  1.8858 -3.0519
  502SOL     OW 1504   2.916   0.465   1.577  0.0936  0.0151  0.3262
  502SOL    HW1 1505   2.975   0.438   1.658 -1.3327 -1.9845 -0.8361
  502SOL    HW2 1506   2.884   0.376   1.536 -0.0122 -1.5737  0.9501
  503SOL     OW 1507   2.671   1.100   1.869  0.0869  0.1729  0.2825
  503SOL    HW1 1508   2.681   1.080   1.969 -2.0439  2.4062 -3.8711
  503SOL    HW2 1509   2.606   1.173   1.850 -1.0850  3.3157  0.5808
  504SOL     OW 1510   1.416   0.704   1.736  0.0773  0.5430  0.1974
  504SOL    HW1 1511   1.504   0.662   1.705 -1.3982  2.1166 -1.4307
  504SOL    HW2 1512   1.416   0.807   1.755 -1.7147  0.4610 -1.7153
  505SOL     OW 1513   0.712   2.870   2.250  0.1480  0.3683  0.0309
  505SOL    HW1 1514   0.715   2.772   2.281  2.2465  0.1194  0.3553
  505SOL    HW2 1515   0.737   2.934   2.324  0.9186 -0.2920 -1.7454
  506SOL     OW 1516   0.043   0.338   0.925 -0.1934 -0.5310 -0.7939
  506SOL    HW1 1517   0.043   0.347   0.826 -0.6076 -0.7079  1.1199
  506SOL    HW2 1518   0.081   0.245   0.941  1.3929  1.0774  0.2977
  507SOL     OW 1519   1.559   0.427   2.926  0.1090  0.5996  0.0063
  507SOL    HW1 1520   1.657   0.428   2.913 -2.7718 -1.3723  1.4373
  507SOL    HW2 1521   1.523   0.350   2.869  0.6297  0.2134  0.5940
  508SOL     OW 1522   1.632   0.164   2.390 -0.4648 -0.2755 -0.5734
  508SOL    HW1 1523   1.640   0.267   2.377  1.1996  4.0319  1.8882
  508SOL    HW2 1524   1.681   0.127   2.473 -1.5872 -2.1679  0.7009
  509SOL     OW 1525   0.785   1.249   2.018 -0.5485 -0.4800  0.4305
  509SOL    HW1 1526   0.869   1.311   2.012 -0.5723  1.8780 -1.5114
  509SOL    HW2 1527   0.785   1.205   2.104  0.1480  1.5451 -1.3881
  510SOL     OW 1528   2.962   1.026   0.821  0.2345  0.2208 -0.2752
  510SOL    HW1 1529   2.922   0.945   0.863  1.0103  2.2443 -2.8714
  510SOL    HW2 1530   2.964   1.102   0.887  0.3725 -2.1357 -0.4910
  511SOL     OW 1531   1.912   2.103   1.108  0.6048 -0.4277  0.2255
  511SOL    HW1 1532   1.910   2.156   1.195  2.0753 -0.3593 -1.5322
  511SOL    HW2 1533   2.005   2.108   1.069  1.2861  1.3328  1.2503
  512SOL     OW 1534   0.257   1.599   0.449  0.1069  0.5028 -0.2032
  512SOL    HW1 1535   0.210   1.525   0.395 -0.4404 -0.8802 -1.7614
  512SOL    HW2 1536   0.244   1.583   0.551  1.7129 -3.7040  2.6704
  513SOL     OW 1537   0.089   2.370   0.557 -0.2293  0.0223 -0.0291
  513SOL    HW1 1538   0.101   2.282   0.505  0.8681 -0.4337 -0.5942
  513SOL    HW2 1539   0.073   2.452   0.500 -1.6527 -1.8647 -0.6366
  514SOL     OW 1540   2.379   1.952   2.691  0.4468 -0.5610 -0.0615
  514SOL    HW1 1541   2.358   2.048   2.695  1.1230 -0.5667  3.3606
  514SOL    HW2 1542   2.296   1.901   2.660  1.3029  2.7925  0.4721
  515SOL     OW 1543   2.185   1.269   0.396 -0.9771 -0.1508 -0.1399
  515SOL    HW1 1544   2.223   1.237   0.311 -0.0913  2.6766  1.6218
  515SOL    HW2 1545   2.256   1.317   0.452 -1.6040  1.5826  0.5765
  516SOL     OW 1546   1.873   0.038   0.494  0.2746  0.1133  0.3553
  516SOL    HW1 1547   1.774   0.068   0.523 -0.7805  0.0093  2.3643
  516SOL    HW2 1548   1.934   0.059   0.574 -1.7792  1.1627  2.6152
  517SOL     OW 1549   0.984   2.235   2.851 -0.0577  0.7017  0.6369
  517SOL    HW1 1550   0.999   2.229   2.955  2.3255  1.4001  0.6782
  517SOL    HW2 1551   0.889   2.227   2.828  2.5262  0.6479  2.6690
  518SOL     OW 1552   0.636   0.516   1.858  0.0308  0.4977 -0.1818
  518SOL    HW1 1553   0.684   0.482   1.942 -3.1174 -1.3111  0.8005
  518SOL    HW2 1554   0.653   0.616   1.837 -1.5851  2.6778 -0.8581
  519SOL     OW 1555   2.909   1.308   0.163  0.3752 -0.1248 -0.0163
  519SOL    HW1 1556   2.981   1.379   0.162 -0.7075 -0.9432 -0.7519
  519SOL    HW2 1557   2.939   1.217   0.133 -0.3221  1.7531  1.2697
  520SOL     OW 1558   2.558   2.066   1.639  0.4039 -0.2707 -0.1497
  520SOL    HW1 1559   2.457   2.076   1.632  1.7468  4.5357  0.9264
  520SOL    HW2 1560   2.597   2.162   1.645 -0.6826 -0.6068 -2.2308
  521SOL     OW 1561   0.645   2.602   2.051 -0.2850  0.5935 -0.7689
  521SOL    HW1 1562   0.691   2.597   2.145  0.9392  0.1463  0.5022
  521SOL    HW2 1563   0.547   2.585   2.066  2.8397 -1.4487 -0.4700
  522SOL     OW 1564   1.810   0.110   2.186 -0.9012 -0.3726  0.0849
  522SOL    HW1 1565   1.912   0.110   2.198  1.7532 -1.0308  1.9185
  522SOL    HW2 1566   1.765   0.123   2.279 -1.3572 -1.1566  3.0572
  523SOL     OW 1567   1.806   1.882   1.273  0.3521 -0.6227  0.1480
  523SOL    HW1 1568   1.896   1.839   1.289 -1.1026  1.2744 -0.6995
  523SOL    HW2 1569   1.819   1.967   1.212 -1.1473 -2.5662 -1.5282
  524SOL     OW 1570   0.815   2.588   0.521 -0.4055 -0.0440 -0.0126
  524SOL    HW1 1571   0.915   2.560   0.508  4.2971  0.7472 -3.7992
  524SOL    HW2 1572   0.767   2.534   0.592 -0.8607  1.5890 -3.5768
  525SOL     OW 1573   2.843   0.341   0.251 -0.2755  0.2617 -0.1772
  525SOL    HW1 1574   2.816   0.434   0.216 -0.6852 -2.0307  0.6233
  525SOL    HW2 1575   2.922   0.313   0.189 -0.0487  0.7884 -1.3927
  526SOL     OW 1576   0.778   0.021   0.535 -0.1099 -0.2360  0.1232
  526SOL    HW1 1577   0.757   3.058   0.603  2.1405  0.5701  0.8571
  526SOL    HW2 1578   0.750   3.095   0.443  0.1094 -1.4843 -0.9448
  527SOL     OW 1579   2.635   1.880   0.783 -0.3905  0.1003  0.2442
  527SOL    HW1 1580   2.735   1.848   0.769  0.4941 -1.4258 -1.6993
  527SOL    HW2 1581   2.615   1.898   0.880  0.5195  1.2656  0.3990
  528SOL     OW 1582   2.874   0.538   2.207 -0.2813 -0.0936  0.4089
  528SOL    HW1 1583   2.957   0.532   2.265 -0.4494 -1.1804 -3.3067
  528SOL    HW2 1584   2.853   0.442   2.169 -1.3954 -2.9251 -0.6732
  529SOL     OW 1585   1.174   1.652   2.547  0.1540  0.4901  0.4195
  529SOL    HW1 1586   1.259   1.606   2.581  1.1662 -0.6730  0.1191
  529SOL    HW2 1587   1.133   1.712   2.617  2.2078 -1.7081  2.5733
  530SOL     OW 1588   1.925   1.145   2.376  0.0793 -0.2816  0.1840
  530SOL    HW1 1589   1.839   1.153   2.323  1.0436  1.1831  0.9525
  530SOL    HW2 1590   1.951   1.057   2.414  1.3359 -0.1848 -2.1862
  531SOL     OW 1591   0.670   1.985   2.656  0.2693  0.0692  0.2084
  531SOL    HW1 1592   0.652   1.966   2.556  1.6658  0.3678  0.1988
  531SOL    HW2 1593   0.704   1.908   2.716 -0.3364 -0.8512 -0.4550
  532SOL     OW 1594   1.956   1.402   0.429  0.5331  0.0625  0.8426
  532SOL    HW1 1595   2.044   1.349   0.425 -0.1884  1.5982  2.7728
  532SOL    HW2 1596   1.976   1.497   0.464  0.1356  2.6644  2.6268
  533SOL     OW 1597   0.422   0.157   1.877  0.7071 -0.1844  0.3073
  533SOL    HW1 1598   0.442   0.154   1.773  0.3201 -1.4832  0.0397
  533SOL    HW2 1599   0.367   0.074   1.903 -0.6752  3.5251 -1.3565
  534SOL     OW 1600   0.432   3.106   3.053 -0.0561 -0.1616  0.2506
  534SOL    HW1 1601   0.383   3.034   2.996  1.4163  0.8737  1.3010
  534SOL    HW2 1602   0.431   3.085   0.044  0.9821 -0.5670 -1.0652
  535SOL     OW 1603   0.120   0.163   0.460 -0.0178 -0.7340  0.1973
  535SOL    HW1 1604   0.202   0.216   0.421  0.0844  0.6299 -1.1422
  535SOL    HW2 1605   0.118   0.073   0.411 -0.1819 -1.4180  0.9285
  536SOL     OW 1606   0.485   1.422   1.626  0.1034  0.6789  0.1475
  536SOL    HW1 1607   0.459   1.326   1.613  1.0990 -0.7693 -1.6725
  536SOL    HW2 1608   0.561   1.444   1.561 -1.4210  0.7161 -1.1143
  537SOL     OW 1609   0.959   2.699   1.787  0.1203  0.5341  0.0578
  537SOL    HW1 1610   0.867   2.737   1.819 -1.6513  1.8396  1.3981
  537SOL    HW2 1611   1.035   2.749   1.831 -0.0970 -2.8811  0.1156
  538SOL     OW 1612   0.113   1.824   0.385 -0.1955 -0.0534 -0.0290
  538SOL    HW1 1613   0.187   1.753   0.382 -1.1107 -1.1856  1.2564
  538SOL    HW2 1614   0.101   1.856   0.485 -2.5107  2.1092  1.1506
  539SOL     OW 1615   2.789   1.318   2.547 -0.1032 -0.3273 -0.5134
  539SOL    HW1 1616   2.770   1.274   2.637  1.8867 -2.6745  1.6804
  539SOL    HW2 1617   2.700   1.312   2.497  0.4374  2.0161  0.1793
  540SOL     OW 1618   1.727   0.990   1.899  0.2680 -0.4496  0.5467
  540SOL    HW1 1619   1.763   0.982   1.802  0.5281 -0.5400 -0.5608
  540SOL    HW2 1620   1.718   1.088   1.928 -1.0359  1.1063 -0.5876
  541SOL     OW 1621   0.844   0.767   1.903 -0.4385  0.4999 -0.1399
  541SOL    HW1 1622   0.770   0.803   1.961  1.6545 -1.3563  1.2782
  541SOL    HW2 1623   0.869   0.834   1.829 -1.0051 -2.5700 -0.0096
  542SOL     OW 1624   2.085   0.348   2.969  0.0497 -0.0384  0.3466
  542SOL    HW1 1625   2.067   0.417   3.043  1.0662  1.3773  0.9330
  542SOL    HW2 1626   2.158   0.388   2.906 -0.0433  0.4753 -0.0381
  543SOL     OW 1627   0.935   3.070   3.094  0.2729 -0.0440  0.1307
  543SOL    HW1 1628   0.917   0.061   3.071 -0.9842 -0.5028 -0.9510
  543SOL    HW2 1629   0.925   3.008   3.012  0.7159 -1.9193 -2.5394
  544SOL     OW 1630   2.967   1.290   1.806  0.6945 -0.0382  0.1382
  544SOL    HW1 1631   3.012   1.293   1.899  2.4716 -0.5021  1.4475
  544SOL    HW2 1632   2.876   1.335   1.817 -0.1798 -0.0010  2.2986
  545SOL     OW 1633   2.070   2.326   1.819 -0.7792 -0.8144  0.0677
  545SOL    HW1 1634   2.002   2.251   1.826  1.9217  1.8580 -1.2416
  545SOL    HW2 1635   2.096   2.352   1.721  1.7287  1.1687 -0.1722
  546SOL     OW 1636   0.212   0.163   2.727 -0.1780  0.3609 -0.4029
  546SOL    HW1 1637   0.208   0.089   2.653 -1.0497 -0.4747 -0.7140
  546SOL    HW2 1638   0.307   0.189   2.765  2.7992  2.1179 -3.5853
  547SOL     OW 1639   1.682   1.088   0.980  0.1375 -0.2258  0.4202
  547SOL    HW1 1640   1.667   1.092   0.878  0.4666  1.2057 -1.5808
  547SOL    HW2 1641   1.660   0.996   1.014  0.8641  2.1157  1.8702
  548SOL     OW 1642   1.934   1.872   2.474  0.3140  0.6068 -0.0579
  548SOL    HW1 1643   1.852   1.919   2.512  0.7979  1.5512  0.0990
  548SOL    HW2 1644   1.974   1.921   2.394  3.7129  0.7825 -1.1643
  549SOL     OW 1645   2.179   0.340   0.544  0.0388 -0.2157 -0.1138
  549SOL    HW1 1646   2.115   0.352   0.626 -1.2659 -0.9507  2.9573
  549SOL    HW2 1647   2.261   0.292   0.575  2.9358 -0.6875  1.2936
  550SOL     OW 1648   2.264   1.893   0.667 -0.4959  0.2338 -0.3817
  550SOL    HW1 1649   2.312   1.886   0.574 -2.1195 -1.2488  0.4215
  550SOL    HW2 1650   2.182   1.831   0.660 -2.2492  0.4123 -1.4799
  551SOL     OW 1651   1.031   2.581   2.042 -0.0140 -0.1619  0.3807
  551SOL    HW1 1652   0.960   2.619   1.975 -1.3538  0.0018 -1.9947
  551SOL    HW2 1653   1.037   2.641   2.125 -1.2095  1.1820 -0.3421
  552SOL     OW 1654   0.099   2.317   2.598  0.0110 -0.3978 -0.2282
  552SOL    HW1 1655   0.025   2.250   2.611  1.8358  0.2539 -0.6609
  552SOL    HW2 1656   0.177   2.268   2.551 -2.4560  1.2268 -0.9709
  553SOL     OW 1657   0.146   0.093   0.859 -0.0206  0.1912 -0.2511
  553SOL    HW1 1658   0.215   0.078   0.787 -1.5908  1.4178  3.2935
  553SOL    HW2 1659   0.143   0.002   0.917  0.0307 -1.9396 -1.3246
  554SOL     OW 1660   2.337   2.123   1.959 -0.1423  0.4251 -0.2460
  554SOL    HW1 1661   2.363   2.035   2.005  1.0543 -3.2813  1.3656
  554SOL    HW2 1662   2.283   2.101   1.877 -1.5895  0.0421  0.7212
  555SOL     OW 1663   1.605   2.354   1.844 -0.0303 -0.5693  0.4098
  555SOL    HW1 1664   1.617   2.373   1.742  1.8710 -0.1750  0.4120
  555SOL    HW2 1665   1.633   2.443   1.890 -1.2246 -1.4589  0.8443
  556SOL     OW 1666   1.305   1.718   1.563 -0.5773 -0.6933 -1.2783
  556SOL    HW1 1667   1.278   1.774   1.645  1.1234 -0.0951  1.1146
  556SOL    HW2 1668   1.351   1.629   1.586  1.1059 -2.4424 -0.5182
  557SOL     OW 1669   1.927   2.337   2.436 -0.2326  0.2189 -0.1751
  557SOL    HW1 1670   2.009   2.319   2.379 -1.1390  0.2235 -0.3248
  557SOL    HW2 1671   1.844   2.353   2.384  1.1640  0.8832 -0.4417
  558SOL     OW 1672   0.472   2.823   1.865  0.1680  0.3144 -0.0802
  558SOL    HW1 1673   0.562   2.853   1.899 -1.7087  0.9297  1.6920
  558SOL    HW2 1674   0.428   2.898   1.812  0.6294  0.5045  0.5154
  559SOL     OW 1675   2.237   2.963   0.708 -0.4683 -0.0160 -0.2512
  559SOL    HW1 1676   2.178   2.898   0.656  0.3743  0.3363 -0.3453
  559SOL    HW2 1677   2.234   2.945   0.808  2.1241 -1.3486 -2.3639
  560SOL     OW 1678   1.733   2.466   0.567 -0.2437  0.0663 -0.1800
  560SOL    HW1 1679   1.640   2.465   0.605 -1.4333  1.4483 -0.5601
  560SOL    HW2 1680   1.788   2.395   0.613 -0.4675  0.9357 -0.2682
  561SOL     OW 1681   1.044   0.400   0.629  0.4830  0.1096 -0.2201
  561SOL    HW1 1682   1.076   0.416   0.533  0.6091 -0.9687  0.0559
  561SOL    HW2 1683   0.946   0.366   0.631  1.1147 -0.5877 -0.3742
  562SOL     OW 1684   0.699   0.671   2.633 -0.2165 -0.3060 -0.2058
  562SOL    HW1 1685   0.679   0.575   2.656  1.2316  0.6466  1.9945
  562SOL    HW2 1686   0.750   0.680   2.546  1.1470  1.1496 -0.6266
  563SOL     OW 1687   1.780   1.636   2.854  0.2603  0.2031  0.1039
  563SOL    HW1 1688   1.739   1.727   2.854  2.2170 -0.0337 -0.9995
  563SOL    HW2 1689   1.882   1.636   2.857 -1.5926 -1.8279  0.9643
  564SOL     OW 1690   2.463   1.105   1.294 -0.3822  0.1879 -0.0448
  564SOL    HW1 1691   2.521   1.161   1.355  3.2623  0.9706  1.5073
  564SOL    HW2 1692   2.520   1.029   1.267 -1.1176  3.8682 -0.4908
  565SOL     OW 1693   0.884   0.628   2.880  0.2091 -0.2072 -0.8441
  565SOL    HW1 1694   0.885   0.630   2.985 -0.0307  0.7089  2.3843
  565SOL    HW2 1695   0.799   0.664   2.844  2.1359 -1.6791 -1.7281
  566SOL     OW 1696   2.172   0.412   2.530 -0.2248  0.8309  0.2419
  566SOL    HW1 1697   2.146   0.399   2.436 -2.1697  0.1543  1.8817
  566SOL    HW2 1698   2.135   0.342   2.596 -0.3953  0.2634 -2.0139
  567SOL     OW 1699   2.158   1.794   0.362  0.0363 -0.2419  0.0038
  567SOL    HW1 1700   2.254   1.756   0.379  3.9627 -1.3498 -1.1263
  567SOL    HW2 1701   2.169   1.868   0.296  1.1654  0.3112  2.8345
  568SOL     OW 1702   1.585   1.887   0.240 -0.3701 -0.3843  0.2366
  568SOL    HW1 1703   1.658   1.936   0.190 -2.5289  0.3817 -2.1491
  568SOL    HW2 1704   1.495   1.924   0.199 -4.8707  0.1562 -3.0340
  569SOL     OW 1705   2.056   1.054   0.073  0.5793 -0.5496 -0.6355
  569SOL    HW1 1706   2.017   1.141   0.036  0.7223  2.5688 -2.3445
  569SOL    HW2 1707   2.154   1.067   0.103  0.6601 -1.2255 -0.5812
  570SOL     OW 1708   0.391   2.558   1.741  0.1655 -0.5675  0.0492
  570SOL    HW1 1709   0.419   2.631   1.807 -0.4858  1.8476  1.8065
  570SOL    HW2 1710   0.470   2.505   1.717 -1.0526  2.6226  0.8800
  571SOL     OW 1711   0.427   1.022   2.038 -0.6279  1.1052 -0.1342
  571SOL    HW1 1712   0.447   1.112   1.997 -1.1706  0.3136  0.0713
  571SOL    HW2 1713   0.367   1.024   2.122 -3.0075 -0.0335 -0.0617
  572SOL     OW 1714   1.157   1.567   0.622 -0.6750  0.3612 -0.2617
  572SOL    HW1 1715   1.073   1.530   0.597  0.7057  1.1600 -1.0711
  572SOL    HW2 1716   1.232   1.541   0.553  0.3176 -0.3168 -0.2513
  573SOL     OW 1717   1.633   2.122   3.021  0.0299  0.1786  0.1130
  573SOL    HW1 1718   1.558   2.184   3.042  0.9247 -0.6133  0.1103
  573SOL    HW2 1719   1.671   2.077   3.106  1.0754 -2.4116 -0.2611
  574SOL     OW 1720   0.943   0.140   0.918  0.2151 -0.1771  0.6408
  574SOL    HW1 1721   0.923   0.060   0.976 -0.5538 -0.1552 -1.1638
  574SOL    HW2 1722   0.867   0.210   0.927 -1.1538 -2.6820  1.8532
  575SOL     OW 1723   0.380   1.007   1.462 -1.0185 -0.0469 -0.0427
  575SOL    HW1 1724   0.379   1.055   1.554 -0.7758 -1.6463  1.3254
  575SOL    HW2 1725   0.451   1.059   1.406  0.1827 -3.1394  0.9719
  576SOL     OW 1726   2.323   2.838   1.192 -0.0369  0.3586  0.3788
  576SOL    HW1 1727   2.262   2.879   1.262  0.5319 -2.2211  1.4722
  576SOL    HW2 1728   2.316   2.895   1.109 -1.1746 -0.7553 -0.1858
  577SOL     OW 1729   1.085   0.988   2.244  0.0855 -0.2506 -0.6651
  577SOL    HW1 1730   1.103   0.929   2.160  0.9675  0.3795  0.6990
  577SOL    HW2 1731   1.074   0.929   2.328 -1.5714  1.4329  2.4523
  578SOL     OW 1732   1.888   0.794   2.442  0.0185 -0.1476  0.7782
  578SOL    HW1 1733   1.945   0.784   2.359 -0.0360  0.6732 -0.4759
  578SOL    HW2 1734   1.793   0.809   2.416  2.1841  0.9912  2.1843
  579SOL     OW 1735   2.248   2.637   1.571 -0.2667 -0.2287 -0.2817
  579SOL    HW1 1736   2.199   2.547   1.565 -0.7988  1.2873 -2.5486
  579SOL    HW2 1737   2.351   2.631   1.562  3.0509  0.8533 -2.6088
  580SOL     OW 1738   1.827   1.594   2.401 -0.3803 -0.5788 -0.5439
  580SOL    HW1 1739   1.858   1.692   2.408 -0.7399  1.2892 -0.8301
  580SOL    HW2 1740   1.807   1.558   2.496 -0.7256  0.0188 -0.5032
  581SOL     OW 1741   1.412   1.476   2.594 -0.2683 -0.4145 -0.3365
  581SOL    HW1 1742   1.499   1.483   2.643 -1.3701  0.1793 -1.7987
  581SOL    HW2 1743   1.355   1.397   2.621 -1.4753  2.2245 -2.8063
  582SOL     OW 1744   0.734   1.588   1.859 -0.0241  0.7269  0.0134
  582SOL    HW1 1745   0.677   1.545   1.790 -2.5283 -1.0918  2.3893
  582SOL    HW2 1746   0.798   1.653   1.823 -0.0686 -0.0545  2.2686
  583SOL     OW 1747   1.683   0.922   1.598 -0.1065  0.2850 -0.3533
  583SOL    HW1 1748   1.668   0.851   1.528 -1.0737  1.4010  1.1475
  583SOL    HW2 1749   1.597   0.963   1.637 -2.4047  0.3797  3.0659
  584SOL     OW 1750   1.874   2.697   0.435 -0.0239  0.4447 -0.1449
  584SOL    HW1 1751   1.814   2.626   0.475 -1.4733  0.0250  1.4651
  584SOL    HW2 1752   1.888   2.686   0.334  0.0586 -0.2373 -2.1961
  585SOL     OW 1753   1.778   3.007   2.686 -0.6436  0.5999  0.2764
  585SOL    HW1 1754   1.829   2.966   2.605  3.1261 -1.6337 -1.6882
  585SOL    HW2 1755   1.842   3.006   2.768 -0.5697 -0.2677 -1.6860
  586SOL     OW 1756   2.974   2.183   1.361 -0.1377  0.1653  0.3464
  586SOL    HW1 1757   2.970   2.129   1.446 -1.9476  1.8375  0.3787
  586SOL    HW2 1758   2.926   2.133   1.285 -3.5227 -0.1838 -1.0503
  587SOL     OW 1759   1.382   1.981   0.096 -0.1240 -0.5930 -0.5095
  587SOL    HW1 1760   1.394   2.067   0.049  0.2258  1.5864  1.0213
  587SOL    HW2 1761   1.387   1.897   0.037  0.4310  0.4689  0.7866
  588SOL     OW 1762   0.359   0.261   0.981 -0.1177  0.2174  0.0683
  588SOL    HW1 1763   0.445   0.212   0.992  1.3008  2.6707 -0.7659
  588SOL    HW2 1764   0.293   0.214   0.918 -0.7170 -0.0021  2.5702
  589SOL     OW 1765   1.087   0.413   0.364  0.1098 -0.3955 -0.6661
  589SOL    HW1 1766   1.016   0.447   0.300 -0.5000  0.2977  1.2387
  589SOL    HW2 1767   1.137   0.340   0.316 -2.6497 -0.0416  2.2934
  590SOL     OW 1768   1.539   0.756   2.954 -0.1601  0.0372  0.2860
  590SOL    HW1 1769   1.466   0.776   2.880 -0.9138  1.1251  0.0776
  590SOL    HW2 1770   1.542   0.655   2.962  0.6496  1.8972 -2.1778
  591SOL     OW 1771   2.841   2.122   2.043  0.5566 -0.2651 -0.8252
  591SOL    HW1 1772   2.918   2.132   2.110 -0.5349 -2.0854  0.3195
  591SOL    HW2 1773   2.808   2.213   2.010 -2.0350  0.8155  0.2848
  592SOL     OW 1774   2.701   1.389   1.817  0.2692  0.1124  0.0773
  592SOL    HW1 1775   2.618   1.407   1.759 -3.0862  0.0305 -3.9838
  592SOL    HW2 1776   2.674   1.396   1.912  2.0054 -0.5505 -1.4824
  593SOL     OW 1777   1.289   1.015   1.457 -0.3389  0.1933 -0.5535
  593SOL    HW1 1778   1.328   1.044   1.369 -1.6022 -1.8395 -2.5245
  593SOL    HW2 1779   1.217   0.952   1.443  0.8327  0.9764  0.2249
  594SOL     OW 1780   2.587   1.432   2.957  0.1825 -0.1622 -0.4804
  594SOL    HW1 1781   2.644   1.474   3.030  0.7874 -1.9245 -1.4995
  594SOL    HW2 1782   2.642   1.354   2.917  0.4431  1.3794  1.3584
  595SOL     OW 1783   0.340   0.641   0.660 -0.0104 -0.2962 -0.7110
  595SOL    HW1 1784   0.351   0.700   0.744  5.4904 -1.6512  2.6886
  595SOL    HW2 1785   0.345   0.543   0.693  2.1074  1.2078 -0.8122
  596SOL     OW 1786   0.100   1.139   1.188 -0.0255 -0.0853  0.1527
  596SOL    HW1 1787   0.101   1.079   1.271 -2.1088  0.8749  0.8875
  596SOL    HW2 1788   0.168   1.217   1.197  1.6405  2.4125  0.9144
  597SOL     OW 1789   1.247   1.803   1.033 -0.4933  0.3063  0.5040
  597SOL    HW1 1790   1.222   1.703   1.036 -1.7048 -0.8912  1.1996
  597SOL    HW2 1791   1.213   1.847   0.947  0.6607  1.3618  0.6150
  598SOL     OW 1792   0.537   2.995   1.625 -0.0013  0.6587  0.3975
  598SOL    HW1 1793   0.622   2.967   1.674  1.2311 -1.0461  0.3983
  598SOL    HW2 1794   0.479   2.919   1.588  1.8010 -0.8338  0.1763
  599SOL     OW 1795   0.303   1.646   2.945  0.6617 -0.4174 -0.1056
  599SOL    HW1 1796   0.353   1.569   2.895 -0.9730 -2.0720  1.4711
  599SOL    HW2 1797   0.342   1.735   2.907  2.3226  0.0503  0.2944
  600SOL     OW 1798   0.211   1.101   3.034  0.3413 -0.0198 -0.4810
  600SOL    HW1 1799   0.198   1.199   3.013 -4.3459  0.1955  0.6755
  600SOL    HW2 1800   0.138   1.043   2.998  1.4466 -1.3220 -1.7038
  601SOL     OW 1801   0.545   0.681   1.118 -0.4902  0.3020  0.1724
  601SOL    HW1 1802   0.510   0.754   1.175  1.6551 -1.6771 -2.2535
  601SOL    HW2 1803   0.481   0.604   1.098 -0.0661 -0.6438 -3.3576
  602SOL     OW 1804   1.056   0.049   0.422 -0.4450  0.2630 -0.2246
  602SOL    HW1 1805   1.087   0.039   0.518 -4.3124 -1.2329  0.3782
  602SOL    HW2 1806   0.956   0.036   0.423 -1.1079 -0.7177 -0.9745
  603SOL     OW 1807   1.584   2.238   2.238  0.0396 -0.5427  0.0713
  603SOL    HW1 1808   1.633   2.158   2.195  1.7567  0.4142 -1.7174
  603SOL    HW2 1809   1.648   2.319   2.242  0.1581  0.3223 -0.1862
  604SOL     OW 1810   0.312   2.940   2.839 -0.4419  0.0119 -0.2680
  604SOL    HW1 1811   0.227   2.914   2.794  1.7600  0.1375  1.4002
  604SOL    HW2 1812   0.389   2.955   2.776 -0.1899 -2.6077  0.3956
  605SOL     OW 1813   2.624   1.153   1.513 -0.0704  0.1164  0.1182
  605SOL    HW1 1814   2.729   1.171   1.514 -0.0476 -0.6232  3.0933
  605SOL    HW2 1815   2.575   1.239   1.539  0.9372  0.0857  0.5303
  606SOL     OW 1816   0.941   1.677   2.920 -0.1739  0.0182  0.3218
  606SOL    HW1 1817   0.934   1.582   2.875 -4.1865 -3.4549 -2.9013
  606SOL    HW2 1818   0.851   1.686   2.967 -0.2212  1.7473  1.2184
  607SOL     OW 1819   0.707   0.470   0.430 -0.5166  0.0455 -0.5829
  607SOL    HW1 1820   0.607   0.477   0.411  1.7278 -3.0303 -0.3921
  607SOL    HW2 1821   0.754   0.558   0.402  0.1461 -1.2598  1.2047
  608SOL     OW 1822   2.899   1.842   1.526 -0.2044 -0.2383  0.4359
  608SOL    HW1 1823   2.926   1.926   1.572  0.3496 -0.2258  1.5983
  608SOL    HW2 1824   2.875   1.775   1.598 -1.3935 -2.2463 -1.2190
  609SOL     OW 1825   2.637   0.315   0.895  0.0424  0.0154 -0.5665
  609SOL    HW1 1826   2.604   0.235   0.947 -0.0368 -2.2445  1.7806
  609SOL    HW2 1827   2.559   0.383   0.888  0.5843 -0.1714  0.9514
  610SOL     OW 1828   0.259   2.610   1.358  0.0200 -0.1549 -0.5687
  610SOL    HW1 1829   0.233   2.545   1.432 -2.1741  0.4876 -1.6936
  610SOL    HW2 1830   0.264   2.564   1.270  1.9430 -1.8202  0.3589
  611SOL     OW 1831   1.527   1.597   0.222  0.2413 -0.8316 -0.2689
  611SOL    HW1 1832   1.595   1.560   0.289  0.8430  0.5974  1.2892
  611SOL    HW2 1833   1.540   1.696   0.210 -0.2757 -2.6137 -0.4582
  612SOL     OW 1834   0.696   2.962   2.000  0.5475  0.2643 -0.4724
  612SOL    HW1 1835   0.698   2.906   2.089 -1.5597  2.2497 -0.0148
  612SOL    HW2 1836   0.719   3.064   2.014 -1.1387 -0.6853 -3.2352
  613SOL     OW 1837   0.343   2.491   0.905  0.3201 -0.3776  0.4690
  613SOL    HW1 1838   0.339   2.437   0.818 -1.5695 -2.7187  1.6822
  613SOL    HW2 1839   0.430   2.544   0.925 -1.1996 -3.5524 -0.3724
  614SOL     OW 1840   2.088   0.114   2.158 -0.1454  0.0872  0.2803
  614SOL    HW1 1841   2.100   0.217   2.153 -0.2981 -1.2442  1.9709
  614SOL    HW2 1842   2.142   0.069   2.087 -2.1981  2.0977 -0.1139
  615SOL     OW 1843   1.298   1.524   0.380 -0.2101  0.4828  0.0195
  615SOL    HW1 1844   1.209   1.515   0.336  1.0524 -1.1838  2.6184
  615SOL    HW2 1845   1.365   1.564   0.321 -1.2588  0.3502 -1.6027
  616SOL     OW 1846   1.674   1.541   0.439  0.0170  0.2378  0.6320
  616SOL    HW1 1847   1.749   1.471   0.444 -1.6883 -1.1137 -0.7530
  616SOL    HW2 1848   1.614   1.545   0.521  1.0618  0.7981 -0.2905
  617SOL     OW 1849   1.322   1.219   2.627  1.3001  0.1266 -0.8010
  617SOL    HW1 1850   1.235   1.180   2.591 -2.8457  0.3454 -0.2944
  617SOL    HW2 1851   1.393   1.149   2.618 -1.6705  2.4271  0.8552
  618SOL     OW 1852   0.713   0.412   2.083 -0.5535  0.9639 -0.0075
  618SOL    HW1 1853   0.799   0.461   2.114  2.3432  3.4251 -0.9254
  618SOL    HW2 1854   0.658   0.372   2.162 -1.6776 -0.9549 -1.7169
  619SOL     OW 1855   0.065   1.415   1.440  0.1557 -0.0280  0.0615
  619SOL    HW1 1856   0.027   1.460   1.354 -0.7073  1.0014 -0.4058
  619SOL    HW2 1857   0.129   1.479   1.486 -1.7537  0.2705  2.5147
  620SOL     OW 1858   2.448   0.311   2.622 -0.9526 -0.0323  0.2071
  620SOL    HW1 1859   2.538   0.363   2.618  1.8943 -0.1870 -1.8348
  620SOL    HW2 1860   2.409   0.286   2.529  1.7755  1.8641  0.5835
  621SOL     OW 1861   2.090   2.046   2.840  0.7347  0.0905 -0.6488
  621SOL    HW1 1862   2.143   2.112   2.897  0.7086  0.8911  1.4969
  621SOL    HW2 1863   2.018   2.100   2.792  1.3420  3.0329 -0.4697
  622SOL     OW 1864   1.085   0.780   2.728  0.1039 -0.7372 -0.1149
  622SOL    HW1 1865   1.010   0.728   2.772 -1.2993  0.6399  0.2899
  622SOL    HW2 1866   1.092   0.870   2.777  1.8437  3.1272  0.8622
  623SOL     OW 1867   0.841   1.155   2.244  0.0311 -0.1559 -0.0546
  623SOL    HW1 1868   0.930   1.108   2.233 -1.4034 -0.3881 -0.7057
  623SOL    HW2 1869   0.789   1.116   2.327 -0.2843 -2.3012 -0.8861
  624SOL     OW 1870   2.858   0.352   0.534  0.2280 -0.2019 -0.3709
  624SOL    HW1 1871   2.879   0.329   0.438  2.2513 -0.6574  0.5261
  624SOL    HW2 1872   2.814   0.446   0.539 -0.0870 -0.5078 -1.1209
  625SOL     OW 1873   0.685   2.447   0.744 -0.6566 -0.1121 -0.4373
  625SOL    HW1 1874   0.651   2.517   0.812  0.1008  0.3341  0.8662
  625SOL    HW2 1875   0.763   2.392   0.782  1.3355 -3.2619 -0.3978
  626SOL     OW 1876   2.116   0.875   2.573 -0.2289  0.8681  0.3007
  626SOL    HW1 1877   2.107   0.877   2.671 -0.2774  1.2542  0.5576
  626SOL    HW2 1878   2.027   0.850   2.531 -1.8646  2.0812 -0.6276
  627SOL     OW 1879   1.397   2.111   2.673  0.0661  0.1662 -0.0919
  627SOL    HW1 1880   1.462   2.111   2.599  0.6936 -1.6212  0.7713
  627SOL    HW2 1881   1.393   2.019   2.716 -0.6740 -1.2306 -0.7324
  628SOL     OW 1882   2.943   2.914   2.275 -0.1267  0.0258  0.4438
  628SOL    HW1 1883   2.856   2.931   2.221 -0.4886  1.0195  0.5811
  628SOL    HW2 1884   2.928   2.939   2.372 -0.4591  0.0506  0.9192
  629SOL     OW 1885   1.323   2.814   2.642 -0.1444  0.0215  0.3011
  629SOL    HW1 1886   1.361   2.738   2.589  0.0431  0.7281  0.9071
  629SOL    HW2 1887   1.392   2.876   2.682  0.1907 -0.2401 -1.7562
  630SOL     OW 1888   0.915   0.103   2.386  0.0739 -0.0888  0.3115
  630SOL    HW1 1889   0.909   0.200   2.415 -1.5309 -1.2298 -0.3504
  630SOL    HW2 1890   1.012   0.078   2.368 -1.4904  0.3835 -2.7202
  631SOL     OW 1891   1.872   1.080   0.703 -0.0525  0.2148 -0.2815
  631SOL    HW1 1892   1.894   1.162   0.762 -2.0458  1.5145  1.7398
  631SOL    HW2 1893   1.777   1.094   0.672 -1.9364  0.4205  1.6409
  632SOL     OW 1894   2.571   0.193   1.950 -0.0912 -0.0938  0.6117
  632SOL    HW1 1895   2.553   0.225   1.853  2.4533  0.4412 -1.8591
  632SOL    HW2 1896   2.653   0.232   1.991 -0.7541 -0.2706  1.7265
  633SOL     OW 1897   1.084   1.545   0.221 -0.5948 -0.1039  0.2772
  633SOL    HW1 1898   1.132   1.576   0.136 -2.0620 -0.4357 -0.9838
  633SOL    HW2 1899   1.008   1.479   0.200  0.9620  0.0745  0.7114
  634SOL     OW 1900   2.858   2.999   1.624 -0.2258  0.3818 -0.1215
  634SOL    HW1 1901   2.868   3.101   1.641  2.2517  1.4339  0.2332
  634SOL    HW2 1902   2.801   2.980   1.544  0.2729 -0.4375  1.4296
  635SOL     OW 1903   1.516   0.167   1.118 -0.4367  0.1855 -0.3425
  635SOL    HW1 1904   1.538   0.256   1.158  0.6038  0.2823  1.1045
  635SOL    HW2 1905   1.415   0.164   1.131 -0.3822  3.6498  0.7392
  636SOL     OW 1906   0.761   1.207   0.029 -0.0704  0.1563 -0.2965
  636SOL    HW1 1907   0.690   1.186   0.101  0.6159 -1.6989  0.5625
  636SOL    HW2 1908   0.719   1.240   3.049  1.6750  1.1236  0.4661
  637SOL     OW 1909   2.842   2.206   3.055  0.5164  0.7873 -0.0140
  637SOL    HW1 1910   2.774   2.137   3.022 -1.1669  0.3473 -1.4437
  637SOL    HW2 1911   2.935   2.163   3.067 -0.7907 -1.0383  0.4784
  638SOL     OW 1912   1.427   2.577   2.531  0.4744 -0.9409  0.5550
  638SOL    HW1 1913   1.449   2.574   2.428 -0.2169  0.6460  0.3502
  638SOL    HW2 1914   1.509   2.621   2.579  2.4386 -1.5718 -0.0107
  639SOL     OW 1915   1.546   1.866   0.869 -0.0364 -0.1920 -0.0723
  639SOL    HW1 1916   1.487   1.941   0.905  1.2899 -0.5455 -1.1281
  639SOL    HW2 1917   1.530   1.857   0.769 -0.0602  0.7165  1.4538
  640SOL     OW 1918   2.295   2.716   0.312 -0.2441 -0.0567 -0.4043
  640SOL    HW1 1919   2.297   2.644   0.241  2.0808  1.9169  3.7275
  640SOL    HW2 1920   2.386   2.757   0.334  2.1601  3.3571 -1.0168
  641SOL     OW 1921   2.712   0.552   3.031  0.1733  0.1543 -0.1880
  641SOL    HW1 1922   2.726   0.562   0.024 -2.2791  0.4731  0.4608
  641SOL    HW2 1923   2.627   0.499   3.010  1.0898  1.1695 -1.5178
  642SOL     OW 1924   0.340   0.528   1.072  0.2534  0.1599  0.9071
  642SOL    HW1 1925   0.301   0.533   1.165  0.0038  1.3735  1.4528
  642SOL    HW2 1926   0.327   0.432   1.034 -1.2193  0.4730 -1.8603
  643SOL     OW 1927   0.733   1.633   2.541  0.4913 -0.1000 -0.0650
  643SOL    HW1 1928   0.783   1.615   2.627  1.5772 -0.9387 -0.7245
  643SOL    HW2 1929   0.721   1.549   2.481 -1.2210  0.2939 -3.0374
  644SOL     OW 1930   1.888   2.264   0.705 -0.1988  0.4317  0.5137
  644SOL    HW1 1931   1.980   2.280   0.744  0.4740 -3.2563  0.9044
  644SOL    HW2 1932   1.848   2.189   0.755  2.6140  2.3462  0.0782
  645SOL     OW 1933   1.472   2.480   0.668  0.1443 -0.0230  0.4820
  645SOL    HW1 1934   1.470   2.393   0.728  1.0947 -2.5664  0.0947
  645SOL    HW2 1935   1.386   2.535   0.682 -1.2819  1.8748  1.8363
  646SOL     OW 1936   0.480   2.286   2.844 -0.1359  0.3878 -0.0805
  646SOL    HW1 1937   0.397   2.342   2.812  0.9186 -2.9444  0.2018
  646SOL    HW2 1938   0.551   2.335   2.900  3.0062 -0.9263  1.6446
  647SOL     OW 1939   1.392   2.688   1.319 -0.0993  0.1189  0.2153
  647SOL    HW1 1940   1.392   2.585   1.303 -1.3720 -1.5854  1.4999
  647SOL    HW2 1941   1.430   2.744   1.238 -2.9138  0.7694 -2.1783
  648SOL     OW 1942   1.230   0.207   1.107  0.1436 -0.1822 -0.3020
  648SOL    HW1 1943   1.164   0.188   1.185 -1.5496  1.8286 -1.1502
  648SOL    HW2 1944   1.201   0.278   1.036  1.1293 -0.8157 -0.0864
  649SOL     OW 1945   1.251   2.199   0.316  0.5535  0.1419  0.1791
  649SOL    HW1 1946   1.170   2.258   0.293 -1.0854  0.0561 -0.8408
  649SOL    HW2 1947   1.333   2.240   0.270 -2.4326 -0.5617  0.5165
  650SOL     OW 1948   2.409   1.666   1.517 -0.1874 -0.1630  0.4562
  650SOL    HW1 1949   2.469   1.706   1.583  1.7305 -1.4235 -2.2908
  650SOL    HW2 1950   2.316   1.679   1.546 -2.2557  1.9336 -0.2986
  651SOL     OW 1951   1.638   2.682   0.014  0.5318  0.4830  0.4971
  651SOL    HW1 1952   1.619   2.783   0.001  1.7216 -1.4077 -0.7183
  651SOL    HW2 1953   1.596   2.630   3.041 -0.5529 -1.5214 -1.4762
  652SOL     OW 1954   3.080   1.874   0.161  0.5403  0.1337  0.2137
  652SOL    HW1 1955   2.981   1.865   0.186 -2.9366 -1.4342  1.7354
  652SOL    HW2 1956   0.033   1.852   0.234 -0.1954  2.2696 -0.6527
  653SOL     OW 1957   2.839   2.902   0.924 -0.0819 -0.5383 -0.5098
  653SOL    HW1 1958   2.891   2.988   0.893  1.2931  2.3055 -1.6335
  653SOL    HW2 1959   2.794   2.861   0.844  0.0322 -2.4800  0.8910
  654SOL     OW 1960   2.948   2.794   1.761 -0.0262  0.2236 -0.2254
  654SOL    HW1 1961   3.039   2.779   1.805  1.7352 -0.2515  1.4561
  654SOL    HW2 1962   2.941   2.879   1.705 -0.4793 -2.4759 -2.3886
  655SOL     OW 1963   0.179   2.135   0.908 -0.0222 -0.1095 -0.0197
  655SOL    HW1 1964   0.126   2.096   0.987 -0.4173 -0.7731 -0.9884
  655SOL    HW2 1965   0.213   2.064   0.845 -1.3260 -0.1686  0.0294
  656SOL     OW 1966   2.832   0.073   2.234  0.0170  0.1163  0.4546
  656SOL    HW1 1967   2.868   0.048   2.325  0.2647  0.7178 -0.4128
  656SOL    HW2 1968   2.733   0.069   2.220  3.2075  0.0793 -1.2941
  657SOL     OW 1969   2.866   1.576   2.590  0.9119  0.2756 -1.1128
  657SOL    HW1 1970   2.950   1.616   2.547 -2.6172 -0.4046  0.8585
  657SOL    HW2 1971   2.858   1.475   2.583 -0.8472  2.9790  0.1529
  658SOL     OW 1972   2.833   1.632   1.104 -0.3171 -0.3264 -0.0374
  658SOL    HW1 1973   2.788   1.725   1.124  3.3967 -2.3563  0.1084
  658SOL    HW2 1974   2.781   1.547   1.135 -1.0044 -1.0218  0.6716
  659SOL     OW 1975   1.402   2.999   0.192 -0.4873  0.2404  0.6188
  659SOL    HW1 1976   1.324   2.971   0.252  2.6750 -2.1564 -0.7610
  659SOL    HW2 1977   1.483   3.019   0.251 -0.7949 -1.2170 -1.7579
  660SOL     OW 1978   1.747   1.394   3.003 -0.2388 -0.1466 -0.7094
  660SOL    HW1 1979   1.661   1.409   3.052 -0.0228  1.2805 -1.4066
  660SOL    HW2 1980   1.762   1.481   2.947 -0.1198  1.1642  1.0731
  661SOL     OW 1981   0.304   2.308   1.276  0.0439 -0.0859  0.5945
  661SOL    HW1 1982   0.251   2.363   1.208 -1.9410 -0.0264  1.2206
  661SOL    HW2 1983   0.250   2.271   1.358 -0.6273 -0.4685  0.7603
  662SOL     OW 1984   0.028   0.776   0.080  0.1828  0.1444 -0.1790
  662SOL    HW1 1985   3.070   0.698   0.088  0.7014  0.0579 -0.2998
  662SOL    HW2 1986   0.125   0.749   0.105  2.6290  2.3051  2.0213
  663SOL     OW 1987   1.964   1.614   1.005  0.3918  0.6536 -0.7633
  663SOL    HW1 1988   1.986   1.606   0.907  0.1610  1.4584 -1.6619
  663SOL    HW2 1989   1.865   1.642   1.019 -0.5890  0.4667  2.6933
  664SOL     OW 1990   1.106   1.495   1.349 -0.3162 -0.8410 -0.3006
  664SOL    HW1 1991   1.202   1.460   1.329  3.7795 -0.4364 -0.6574
  664SOL    HW2 1992   1.108   1.530   1.446  2.8797 -1.5959  1.3477
  665SOL     OW 1993   2.219   2.471   2.326 -0.4568  0.3359 -0.3387
  665SOL    HW1 1994   2.269   2.401   2.276  0.8688  1.2951 -1.4766
  665SOL    HW2 1995   2.161   2.531   2.266 -1.2118  1.8116 -0.3018
  666SOL     OW 1996   2.995   3.027   2.854 -0.0130  0.2938 -0.4979
  666SOL    HW1 1997   2.958   2.936   2.828 -2.6274 -2.6873 -0.6886
  666SOL    HW2 1998   2.937   3.083   2.908  2.3185  0.3358 -0.8522
  667SOL     OW 1999   2.403   1.299   2.027  0.1251  0.1917 -0.0565
  667SOL    HW1 2000   2.357   1.229   2.091 -0.7264 -0.7799  1.4060
  667SOL    HW2 2001   2.397   1.266   1.927 -1.8970 -1.0364 -1.0230
  668SOL     OW 2002   0.414   0.949   2.413  0.5580  0.0579  0.1462
  668SOL    HW1 2003   0.369   0.947   2.504 -1.3691 -0.6383 -1.1497
  668SOL    HW2 2004   0.350   0.990   2.346  2.4241 -2.2881  1.5122
  669SOL     OW 2005   2.391   2.156   2.382  0.5696 -0.5987  0.2954
  669SOL    HW1 2006   2.485   2.188   2.357  1.8646 -0.7651 -1.3205
  669SOL    HW2 2007   2.375   2.176   2.479 -2.9622 -1.2039  0.5983
  670SOL     OW 2008   2.411   1.234   1.767 -0.3058  0.7565 -0.4744
  670SOL    HW1 2009   2.457   1.296   1.700 -1.1520 -1.4656  0.7504
  670SOL    HW2 2010   2.311   1.234   1.739 -1.4345 -0.2441 -1.0292
  671SOL     OW 2011   2.499   1.133   0.442 -0.3049  0.2749 -0.7424
  671SOL    HW1 2012   2.582   1.141   0.383 -0.5919 -0.3800 -0.0800
  671SOL    HW2 2013   2.463   1.224   0.471 -1.8219 -1.5464  2.9671
  672SOL     OW 2014   2.475   0.716   2.293  0.1089  0.0524  0.0071
  672SOL    HW1 2015   2.449   0.705   2.192  1.2484  3.8929 -3.5110
  672SOL    HW2 2016   2.395   0.693   2.358 -2.1763 -1.2505 -0.5003
  673SOL     OW 2017   2.865   0.133   1.726 -0.0304 -0.2726 -0.5423
  673SOL    HW1 2018   2.957   0.173   1.722  0.8724 -1.1993  0.3542
  673SOL    HW2 2019   2.843   0.109   1.827 -0.0763  0.1158  3.7017
  674SOL     OW 2020   1.728   1.839   1.526  0.2809 -0.4465 -0.3453
  674SOL    HW1 2021   1.759   1.874   1.435 -1.3133 -1.0452  3.3225
  674SOL    HW2 2022   1.687   1.920   1.570 -0.2213 -0.2443  0.9983
  675SOL     OW 2023   0.924   0.665   0.666  0.9740 -0.5500 -0.2780
  675SOL    HW1 2024   0.844   0.624   0.719  1.8325 -2.0115 -1.5883
  675SOL    HW2 2025   0.996   0.601   0.652 -4.1060  1.7004 -0.6716
  676SOL     OW 2026   1.658   0.843   1.067  0.7910  0.5127  0.3190
  676SOL    HW1 2027   1.564   0.843   1.105 -1.2706  0.3363 -0.8605
  676SOL    HW2 2028   1.711   0.789   1.137  0.9378  1.0795  2.6048
  677SOL     OW 2029   2.658   1.337   2.099 -0.0405  0.2308  0.1156
  677SOL    HW1 2030   2.712   1.249   2.121  1.9220 -3.0318  3.3598
  677SOL    HW2 2031   2.562   1.306   2.076  0.1123  0.1312 -2.7666
  678SOL     OW 2032   2.949   1.570   0.851  1.0834 -0.2365 -0.4825
  678SOL    HW1 2033   2.874   1.513   0.809 -3.3127 -0.1240  0.3911
  678SOL    HW2 2034   2.917   1.591   0.949  0.5184  2.7219  1.1078
  679SOL     OW 2035   2.274   2.549   0.102 -0.1424 -0.3041  0.5755
  679SOL    HW1 2036   2.204   2.584   0.034 -0.7729 -2.2017  1.3693
  679SOL    HW2 2037   2.361   2.535   0.047  1.5616  2.2915 -1.0579
  680SOL     OW 2038   0.143   2.200   2.002  0.0106  0.1996  0.0724
  680SOL    HW1 2039   0.110   2.143   2.078  2.5507  1.1323 -2.7093
  680SOL    HW2 2040   0.240   2.238   2.010  1.0408 -0.9532 -0.2550
  681SOL     OW 2041   0.554   1.176   1.341 -0.6560 -0.1847  0.0588
  681SOL    HW1 2042   0.565   1.151   1.243 -1.4863  1.4246  1.5961
  681SOL    HW2 2043   0.640   1.165   1.393  1.8225 -2.9348 -2.8126
  682SOL     OW 2044   1.244   2.624   0.683 -0.4152 -0.2052  0.5567
  682SOL    HW1 2045   1.289   2.715   0.662  2.3887 -1.3301  0.8325
  682SOL    HW2 2046   1.158   2.617   0.627 -1.7754  2.2820 -0.6809
  683SOL     OW 2047   2.408   1.408   0.500  0.6896 -0.1295 -0.2776
  683SOL    HW1 2048   2.409   1.418   0.601 -1.8542 -0.5538  0.8160
  683SOL    HW2 2049   2.476   1.464   0.449 -0.2230  2.4974 -0.2106
  684SOL     OW 2050   0.609   2.010   2.000 -0.2761 -0.0929  0.3943
  684SOL    HW1 2051   0.612   2.104   2.038  1.1267  0.8154 -0.2773
  684SOL    HW2 2052   0.513   1.983   1.978  2.6418 -0.6583  1.4347
  685SOL     OW 2053   2.164   1.693   3.075 -0.0070 -0.5582  0.6447
  685SOL    HW1 2054   2.254   1.725   0.008  2.8813  3.1722 -0.7366
  685SOL    HW2 2055   2.110   1.628   0.031  0.1534 -4.0794 -0.5668
  686SOL     OW 2056   0.143   0.761   0.992  0.1376  0.2359 -0.1961
  686SOL    HW1 2057   0.188   0.851   1.020  3.2257  0.3555 -0.3699
  686SOL    HW2 2058   0.219   0.695   0.997 -0.4679  1.7747  1.4661
  687SOL     OW 2059   1.088   2.460   2.719  0.4859 -0.2160  0.4846
  687SOL    HW1 2060   1.049   2.371   2.765 -1.1695 -0.6501 -0.5174
  687SOL    HW2 2061   1.108   2.437   2.619  1.1094 -0.9075 -0.0591
  688SOL     OW 2062   2.533   1.708   1.777  0.0040  0.3554  0.0107
  688SOL    HW1 2063   2.623   1.749   1.792 -1.7464  0.6882  0.5770
  688SOL    HW2 2064   2.467   1.731   1.859  0.5262  2.4208  2.4446
  689SOL     OW 2065   2.371   0.613   2.049  0.4025 -0.0580  0.2733
  689SOL    HW1 2066   2.443   0.591   1.978  0.6474  0.2586 -1.5802
  689SOL    HW2 2067   2.308   0.682   2.017  2.0349 -2.1176  2.0043
  690SOL     OW 2068   2.172   0.967   1.437 -0.3078 -0.4551 -0.2325
  690SOL    HW1 2069   2.075   0.949   1.417  0.6268  3.1554  1.3178
  690SOL    HW2 2070   2.208   1.039   1.373 -1.7192  1.7400 -1.0011
  691SOL     OW 2071   0.732   2.001   1.750 -0.2425 -0.2995 -0.0280
  691SOL    HW1 2072   0.694   2.009   1.843 -1.2665 -3.4332 -1.6929
  691SOL    HW2 2073   0.785   2.085   1.726  1.4806  1.0242  1.3813
  692SOL     OW 2074   1.858   3.105   1.386 -1.0033 -0.0830 -0.0308
  692SOL    HW1 2075   1.875   0.071   1.452  0.3750  0.6455 -0.9917
  692SOL    HW2 2076   1.826   0.027   1.292 -0.9456 -1.2488  4.8518
  693SOL     OW 2077   0.649   1.099   2.426  0.0439  0.2021  0.0183
  693SOL    HW1 2078   0.645   1.119   2.526  0.7824 -5.7970  2.4688
  693SOL    HW2 2079   0.571   1.048   2.398  1.9678  3.7771 -0.4025
  694SOL     OW 2080   1.953   2.838   1.049  0.1017 -0.9192 -0.3755
  694SOL    HW1 2081   1.946   2.757   0.988 -1.4678  0.4467 -0.1813
  694SOL    HW2 2082   1.897   2.915   1.008 -0.2122 -0.7701 -0.2309
  695SOL     OW 2083   1.411   1.313   1.962 -0.0392  0.2784 -0.1696
  695SOL    HW1 2084   1.339   1.251   2.002  2.5480 -1.5895  0.3625
  695SOL    HW2 2085   1.370   1.398   1.927 -1.3096 -2.6606  1.1754
  696SOL     OW 2086   1.614   3.082   0.762  0.1270 -0.2222 -0.2049
  696SOL    HW1 2087   1.513   3.084   0.766  4.9353  1.1156 -0.9229
  696SOL    HW2 2088   1.646   0.051   0.700  0.2815 -1.5298 -0.3205
  697SOL     OW 2089   1.084   0.120   0.689 -0.0286  0.3826  0.3766
  697SOL    HW1 2090   1.046   0.129   0.782 -0.8495 -0.9909  1.5587
  697SOL    HW2 2091   1.036   0.189   0.636 -0.8203 -1.8252  0.2323
  698SOL     OW 2092   1.715   1.171   2.201 -0.1915 -0.0588  0.1054
  698SOL    HW1 2093   1.699   1.196   2.102  2.1219  2.7429  1.3266
  698SOL    HW2 2094   1.628   1.140   2.244 -0.9350 -2.3353 -1.9473
  699SOL     OW 2095   1.343   1.389   1.266 -0.3392 -0.0750 -0.1455
  699SOL    HW1 2096   1.338   1.287   1.272  0.1854  2.4110 -1.7943
  699SOL    HW2 2097   1.440   1.415   1.288  1.6828 -0.8042 -0.2950
  700SOL     OW 2098   1.434   0.318   0.384  0.7517  0.3030  0.7392
  700SOL    HW1 2099   1.359   0.289   0.318 -2.5960  0.7996 -1.5190
  700SOL    HW2 2100   1.409   0.299   0.481 -2.0646 -2.1982 -0.3942
  701SOL     OW 2101   0.440   0.137   1.611 -0.0685 -0.1006 -0.4552
  701SOL    HW1 2102   0.414   0.178   1.522 -2.1136  1.0797 -1.8114
  701SOL    HW2 2103   0.469   0.039   1.603 -3.2317 -0.7129 -1.8581
  702SOL     OW 2104   1.176   2.905   0.321  0.1109  0.4847 -0.5420
  702SOL    HW1 2105   1.109   2.981   0.324  0.0931  2.1018 -0.3486
  702SOL    HW2 2106   1.149   2.831   0.254  0.6280  1.9386  0.3402
  703SOL     OW 2107   2.669   2.923   2.196  0.3372  0.0447 -0.6337
  703SOL    HW1 2108   2.612   2.912   2.279 -3.2720 -0.8402 -1.2243
  703SOL    HW2 2109   2.619   2.922   2.107 -0.8331 -0.4316 -1.4266
  704SOL     OW 2110   0.926   2.327   0.855  0.0068 -0.7246 -0.2642
  704SOL    HW1 2111   0.969   2.253   0.911 -0.7598 -0.2197 -0.6651
  704SOL    HW2 2112   0.902   2.404   0.916 -1.0900  1.3194  0.6470
  705SOL     OW 2113   0.036   0.855   2.309 -0.4702  0.2703 -0.1171
  705SOL    HW1 2114   0.089   0.782   2.356 -2.1393 -1.2573 -0.4053
  705SOL    HW2 2115   3.052   0.868   2.348 -0.5622 -0.8909 -0.3836
  706SOL     OW 2116   1.544   0.155   0.185 -0.7011  0.3475  0.0676
  706SOL    HW1 2117   1.589   0.065   0.201  1.3178  0.1151  0.9947
  706SOL    HW2 2118   1.539   0.204   0.276 -0.1548 -0.9980 -0.9602
  707SOL     OW 2119   1.364   1.915   2.291 -0.0879 -0.1037  0.3050
  707SOL    HW1 2120   1.272   1.870   2.290 -0.0784 -2.4512 -0.8845
  707SOL    HW2 2121   1.420   1.877   2.213  0.1824  1.3294 -0.0492
  708SOL     OW 2122   2.973   2.078   1.616 -0.4803 -0.0432  0.3298
  708SOL    HW1 2123   2.914   2.142   1.668  2.0160 -1.8512 -2.7477
  708SOL    HW2 2124   3.065   2.081   1.661  1.7919 -1.8760  2.6127
  709SOL     OW 2125   2.151   0.403   1.655 -0.4673  0.5827 -0.1533
  709SOL    HW1 2126   2.117   0.342   1.732  0.5961 -0.6869  1.3548
  709SOL    HW2 2127   2.189   0.493   1.685  0.6077 -1.3497 -0.7097
  710SOL     OW 2128   2.768   2.822   1.173  0.1802 -0.5126  0.3985
  710SOL    HW1 2129   2.766   2.906   1.229 -1.3261 -2.9685 -2.0599
  710SOL    HW2 2130   2.789   2.848   1.076  1.1790  1.3867 -1.2755
  711SOL     OW 2131   0.319   2.319   0.684 -0.0640  0.1569 -0.2541
  711SOL    HW1 2132   0.393   2.340   0.616  2.5015  0.8219 -2.5737
  711SOL    HW2 2133   0.227   2.323   0.634  1.0569 -1.5556 -0.9258
  712SOL     OW 2134   0.510   2.334   2.454 -0.0812  0.0326  0.0632
  712SOL    HW1 2135   0.450   2.420   2.462  0.2952 -1.5961  1.3580
  712SOL    HW2 2136   0.609   2.357   2.469 -0.2364 -0.4682 -1.7368
  713SOL     OW 2137   2.015   0.562   0.031  0.3515  0.0701 -0.3326
  713SOL    HW1 2138   1.956   0.500   0.087 -0.8521 -0.4663  1.1538
  713SOL    HW2 2139   1.989   0.664   0.040 -1.1975  3.0627  1.0800
  714SOL     OW 2140   1.306   1.953   0.427  0.0788 -0.1476 -0.2683
  714SOL    HW1 2141   1.219   1.909   0.464 -1.6488  0.3273  0.3032
  714SOL    HW2 2142   1.293   2.047   0.390 -0.3555 -2.3503 -0.5037
  715SOL     OW 2143   1.989   0.049   0.755  0.4791 -0.6398  0.1925
  715SOL    HW1 2144   1.961   0.145   0.743  1.9426 -0.8308 -0.7423
  715SOL    HW2 2145   2.088   0.044   0.767 -2.9328  1.0138  2.1711
  716SOL     OW 2146   0.644   0.859   2.062  0.4361  0.0515  0.0175
  716SOL    HW1 2147   0.609   0.792   2.132  0.0285 -0.2716  1.5329
  716SOL    HW2 2148   0.574   0.928   2.042 -0.1598 -0.6457 -0.1127
  717SOL     OW 2149   0.096   0.588   2.915 -0.1024  0.1653 -0.5743
  717SOL    HW1 2150   0.079   0.666   2.848  0.5963  0.8021  1.8968
  717SOL    HW2 2151   0.019   0.579   2.981  0.6148  1.0286  1.0281
  718SOL     OW 2152   1.351   0.814   0.287  0.2565 -0.1872 -0.2545
  718SOL    HW1 2153   1.441   0.774   0.260  0.5224  0.8391  1.0821
  718SOL    HW2 2154   1.300   0.748   0.348  1.7564  0.3012  0.2488
  719SOL     OW 2155   2.636   2.054   2.982  0.0300 -0.0161  0.5313
  719SOL    HW1 2156   2.556   1.990   2.999  0.2843  1.2480  0.7461
  719SOL    HW2 2157   2.679   2.033   2.890 -0.5942 -0.3177  0.0810
  720SOL     OW 2158   1.358   0.849   1.217 -0.2115  0.1156 -0.0688
  720SOL    HW1 2159   1.349   0.857   1.116 -2.1717 -2.9599  3.1259
  720SOL    HW2 2160   1.263   0.829   1.251  0.3054  1.0553 -0.7162
  721SOL     OW 2161   2.777   0.596   0.605  0.0490  0.2545  0.1478
  721SOL    HW1 2162   2.681   0.618   0.625  1.0622 -1.0279 -0.0629
  721SOL    HW2 2163   2.820   0.571   0.697  1.0456  2.5202  1.7977
  722SOL     OW 2164   1.092   1.819   2.746 -0.2330 -0.0745 -0.4836
  722SOL    HW1 2165   1.068   1.917   2.726  0.0182  1.2793 -1.3655
  722SOL    HW2 2166   1.027   1.776   2.810  0.1178 -0.6446  1.3818
  723SOL     OW 2167   0.454   0.985   0.430 -0.0491 -0.2303  0.2212
  723SOL    HW1 2168   0.496   1.075   0.455 -0.9498 -2.9451  0.7298
  723SOL    HW2 2169   0.364   0.968   0.472  0.1487 -1.7715 -0.0444
  724SOL     OW 2170   0.938   1.776   1.818 -0.0406 -0.3457 -0.0558
  724SOL    HW1 2171   1.000   1.782   1.902 -2.7360  0.0425  2.8301
  724SOL    HW2 2172   0.876   1.860   1.815 -0.2365 -0.4479 -1.0921
  725SOL     OW 2173   0.129   0.954   1.385  0.3506  0.5775  0.3683
  725SOL    HW1 2174   0.225   0.955   1.410 -1.0891  2.4680 -3.5648
  725SOL    HW2 2175   0.075   1.015   1.448  0.2539  1.7403 -2.8270
  726SOL     OW 2176   1.689   3.019   0.282 -0.3261  0.1724 -0.8646
  726SOL    HW1 2177   1.666   2.927   0.318 -1.3953 -2.3888 -0.4750
  726SOL    HW2 2178   1.780   3.054   0.316 -2.2311 -0.8383  3.0470
  727SOL     OW 2179   1.309   0.844   2.358  0.0118  0.3617 -0.2438
  727SOL    HW1 2180   1.293   0.749   2.389 -0.4432 -0.7294 -2.0950
  727SOL    HW2 2181   1.276   0.868   2.262 -1.5466  1.3670 -1.0162
  728SOL     OW 2182   1.427   2.443   1.176  0.3458 -0.0998 -0.1839
  728SOL    HW1 2183   1.381   2.457   1.086  0.9255 -0.3250 -0.5739
  728SOL    HW2 2184   1.512   2.499   1.194  0.7326  0.5735 -0.4274
  729SOL     OW 2185   1.425   0.511   1.363 -0.3759  0.2021 -0.3078
  729SOL    HW1 2186   1.437   0.467   1.451  0.1469  0.3927 -1.4034
  729SOL    HW2 2187   1.479   0.461   1.300 -0.3110  1.6529 -0.0119
  730SOL     OW 2188   0.785   1.857   2.124 -0.0968 -0.0623  0.3535
  730SOL    HW1 2189   0.875   1.904   2.137  1.4901  1.1645 -0.5913
  730SOL    HW2 2190   0.720   1.911   2.068 -0.0466  1.1833  1.4736
  731SOL     OW 2191   0.308   0.355   0.326 -0.0935 -0.3559  0.3071
  731SOL    HW1 2192   0.350   0.447   0.355  2.3167  2.9753 -1.0828
  731SOL    HW2 2193   0.273   0.357   0.229 -0.2025 -1.5491 -0.8661
  732SOL     OW 2194   0.571   0.416   2.996  0.1131 -0.2380 -0.6938
  732SOL    HW1 2195   0.645   0.433   3.064  1.7805  0.6614 -2.4606
  732SOL    HW2 2196   0.476   0.419   3.032  0.0887  1.6394 -1.3551
  733SOL     OW 2197   1.483   2.120   1.368 -0.0530  0.2205 -0.2974
  733SOL    HW1 2198   1.493   2.049   1.294 -0.4524  0.5552  1.8646
  733SOL    HW2 2199   1.403   2.107   1.429  1.5250  3.1994  1.7229
  734SOL     OW 2200   3.107   2.602   2.565 -0.1572  0.1723 -0.2033
  734SOL    HW1 2201   0.033   2.511   2.602  3.5405 -1.1488 -0.3462
  734SOL    HW2 2202   3.052   2.646   2.634  1.3312  1.7070 -2.3775
  735SOL     OW 2203   0.779   2.888   0.906 -0.1659  0.2948 -0.0339
  735SOL    HW1 2204   0.808   2.973   0.954  0.1282 -0.0765 -0.3336
  735SOL    HW2 2205   0.864   2.832   0.874  0.0501 -1.5955  0.9655
  736SOL     OW 2206   1.628   1.056   2.756 -0.1285  0.2865  0.4214
  736SOL    HW1 2207   1.538   1.059   2.703 -0.6802  0.7065  2.1074
  736SOL    HW2 2208   1.620   1.079   2.852  2.2536 -0.7642 -2.2255
  737SOL     OW 2209   3.099   0.341   0.645  0.0062  0.0396 -0.2406
  737SOL    HW1 2210   0.039   0.278   0.578 -2.1158  1.5464  1.6175
  737SOL    HW2 2211   2.997   0.340   0.628  0.2419  1.6098 -2.8936
  738SOL     OW 2212   2.693   2.382   1.197  0.0319  0.0662  0.2906
  738SOL    HW1 2213   2.656   2.310   1.129 -3.0380  0.8548 -1.4016
  738SOL    HW2 2214   2.743   2.455   1.147  1.6087 -2.1492  1.1682
  739SOL     OW 2215   1.605   2.806   0.422  0.1587  0.0389  0.1824
  739SOL    HW1 2216   1.530   2.836   0.488 -2.6125  0.1850  1.4698
  739SOL    HW2 2217   1.696   2.795   0.466 -2.9106  0.4137  0.6794
  740SOL     OW 2218   1.479   3.016   1.255 -0.5371  0.4767 -0.2648
  740SOL    HW1 2219   1.480   2.941   1.184  0.3145 -1.6612  3.0487
  740SOL    HW2 2220   1.504   3.103   1.210  1.0813  0.0071  0.1004
  741SOL     OW 2221   2.392   0.181   0.676  0.0529  0.0244  0.4391
  741SOL    HW1 2222   2.471   0.137   0.638 -0.5966  0.2708  1.1349
  741SOL    HW2 2223   2.414   0.235   0.761  1.8722  2.2697 -3.8230
  742SOL     OW 2224   1.402   2.273   2.026 -0.2467 -0.2304  0.5439
  742SOL    HW1 2225   1.454   2.219   2.101 -1.2657 -0.3170  0.2793
  742SOL    HW2 2226   1.459   2.287   1.943 -0.4782  0.5525 -0.9141
  743SOL     OW 2227   2.513   0.352   1.693 -0.5486 -0.0245  0.0239
  743SOL    HW1 2228   2.480   0.413   1.767 -2.4670  0.7181 -0.2173
  743SOL    HW2 2229   2.545   0.410   1.617 -3.4195 -2.0417  1.5906
  744SOL     OW 2230   2.224   0.393   1.102 -0.0189 -0.3222  0.4011
  744SOL    HW1 2231   2.208   0.471   1.035  1.7769  1.4247 -0.9208
  744SOL    HW2 2232   2.271   0.424   1.184  0.3847  0.3147 -0.1723
  745SOL     OW 2233   2.221   1.403   1.593  0.5608  0.3794  0.1513
  745SOL    HW1 2234   2.162   1.368   1.663  2.0353  1.4179  3.4935
  745SOL    HW2 2235   2.205   1.506   1.591  1.3826  1.7716  0.0216
  746SOL     OW 2236   1.147   1.404   0.848 -0.1319  0.5458 -0.5005
  746SOL    HW1 2237   1.206   1.442   0.924 -0.3435 -1.5020  0.3006
  746SOL    HW2 2238   1.137   1.464   0.767 -0.1345 -2.2259  0.2659
  747SOL     OW 2239   1.696   1.302   1.107  0.1811  0.8295 -0.6801
  747SOL    HW1 2240   1.695   1.206   1.070 -1.0873 -1.4714  2.1762
  747SOL    HW2 2241   1.794   1.338   1.107 -1.7357  0.0395  0.4958
  748SOL     OW 2242   2.965   3.046   0.574 -0.1082  0.3198  0.7280
  748SOL    HW1 2243   2.989   3.055   0.669  0.4012 -1.0222 -0.5834
  748SOL    HW2 2244   3.016   0.007   0.528 -2.4068 -3.3066  1.5079
  749SOL     OW 2245   0.113   0.477   1.998  0.5282 -0.2720 -0.6608
  749SOL    HW1 2246   0.213   0.477   2.032 -0.1926 -1.0914  0.1934
  749SOL    HW2 2247   0.071   0.573   1.992  3.0914  1.2254 -0.5338
  750SOL     OW 2248   1.700   3.013   1.772 -0.5792 -0.0144 -0.4852
  750SOL    HW1 2249   1.671   3.046   1.681  1.2348 -1.6305  2.4948
  750SOL    HW2 2250   1.763   2.934   1.766 -2.2549  2.3284  1.0679
  751SOL     OW 2251   2.798   0.168   0.733  0.2329  0.7312  0.2586
  751SOL    HW1 2252   2.820   0.238   0.663  0.1689 -0.4070  1.6163
  751SOL    HW2 2253   2.740   0.215   0.800  1.7750  1.4353 -2.5661
  752SOL     OW 2254   0.383   2.802   1.024  1.0800  0.0001  0.0394
  752SOL    HW1 2255   0.472   2.759   1.050  0.0825  1.0832  0.9899
  752SOL    HW2 2256   0.323   2.746   0.967 -1.1695 -0.3920  1.6416
  753SOL     OW 2257   1.117   0.458   1.973 -0.5697 -0.3556  0.1080
  753SOL    HW1 2258   1.071   0.464   1.879 -0.8228  3.1226 -3.6510
  753SOL    HW2 2259   1.220   0.478   1.964  2.9284 -0.5617  0.1006
  754SOL     OW 2260   1.178   2.832   1.861  0.4048 -0.0341 -0.7674
  754SOL    HW1 2261   1.190   2.909   1.801 -1.8304 -1.6092  2.0097
  754SOL    HW2 2262   1.267   2.785   1.878 -0.2744  2.8748 -3.1794
  755SOL     OW 2263   2.656   0.894   0.789 -0.0924  0.0028 -0.4673
  755SOL    HW1 2264   2.656   0.998   0.794  2.5644 -0.9529  0.1500
  755SOL    HW2 2265   2.735   0.851   0.834  1.6494 -0.7073 -0.6076
  756SOL     OW 2266   2.128   1.829   2.671  0.1114 -0.0652  0.8146
  756SOL    HW1 2267   2.070   1.841   2.590  3.6937 -2.7176  3.9510
  756SOL    HW2 2268   2.106   1.904   2.734 -0.5130 -0.7573  1.8677
  757SOL     OW 2269   1.813   3.031   0.941  0.4352 -0.0050 -0.3670
  757SOL    HW1 2270   1.893   3.064   0.892 -1.9438 -1.2541  1.4642
  757SOL    HW2 2271   1.730   3.025   0.881  0.0684 -0.4379 -1.3561
  758SOL     OW 2272   1.011   2.755   0.862 -0.8932 -0.2434 -0.0434
  758SOL    HW1 2273   1.005   2.658   0.901 -1.3206 -5.0950  0.6644
  758SOL    HW2 2274   1.058   2.749   0.772 -0.9605  0.7216 -0.7258
  759SOL     OW 2275   2.820   0.465   1.173 -0.0930  0.2161  0.6430
  759SOL    HW1 2276   2.907   0.511   1.139  0.3823  0.0113  1.0643
  759SOL    HW2 2277   2.744   0.539   1.190 -3.1132  0.8320 -2.1071
  760SOL     OW 2278   2.205   1.176   1.244  0.4404  0.5819  0.0913
  760SOL    HW1 2279   2.305   1.181   1.258 -2.1742 -0.3209 -0.8999
  760SOL    HW2 2280   2.155   1.258   1.288 -0.3409 -0.9571 -0.4857
  761SOL     OW 2281   0.654   0.918   0.850  0.4752  0.0495  0.5531
  761SOL    HW1 2282   0.559   0.888   0.828 -1.7136 -0.6933 -0.5337
  761SOL    HW2 2283   0.705   0.826   0.851 -1.8410 -1.4094  0.1897
  762SOL     OW 2284   2.046   1.795   1.334 -0.1633  0.3361 -0.2514
  762SOL    HW1 2285   2.104   1.748   1.261 -0.2208 -0.2423  0.0534
  762SOL    HW2 2286   2.084   1.770   1.424  0.9160  0.5637 -1.9974
  763SOL     OW 2287   1.287   1.578   1.884  0.4499 -0.5051 -0.1250
  763SOL    HW1 2288   1.256   1.569   1.984  0.5337  4.2737  1.3803
  763SOL    HW2 2289   1.289   1.676   1.865  2.7028  1.7424  3.9276
  764SOL     OW 2290   0.055   2.046   2.194 -0.2275  0.3804 -0.1693
  764SOL    HW1 2291   3.100   2.078   2.266  0.1882 -1.5274 -0.8012
  764SOL    HW2 2292   0.148   2.025   2.236 -0.7502  1.1055  1.4202
  765SOL     OW 2293   1.093   2.573   1.181  0.0498  0.3848 -0.1766
  765SOL    HW1 2294   1.084   2.654   1.245 -0.6540  4.9407  1.2080
  765SOL    HW2 2295   1.109   2.481   1.228 -0.9991 -1.1038 -1.6561
  766SOL     OW 2296   0.792   2.426   2.529 -0.2751 -0.1887 -0.3430
  766SOL    HW1 2297   0.758   2.364   2.602 -1.9192 -0.9498 -2.2542
  766SOL    HW2 2298   0.839   2.502   2.569 -1.7897 -2.2000  0.4757
  767SOL     OW 2299   1.431   0.935   2.578 -0.5235 -0.5889 -0.0474
  767SOL    HW1 2300   1.403   0.862   2.642  0.9488  0.3666 -0.0298
  767SOL    HW2 2301   1.383   0.925   2.490  0.0220 -1.6304  1.3198
  768SOL     OW 2302   1.339   2.604   2.984 -0.7373  0.0446  0.1671
  768SOL    HW1 2303   1.433   2.627   2.947  2.2895 -0.6791 -1.3583
  768SOL    HW2 2304   1.323   2.510   2.951 -1.2913 -1.5970 -1.4816
  769SOL     OW 2305   0.033   2.747   1.289 -0.1513 -0.3995 -0.7539
  769SOL    HW1 2306   0.033   2.761   1.190 -0.3029 -0.0180  0.4843
  769SOL    HW2 2307   0.116   2.696   1.314 -2.6564  2.3984  2.5724
  770SOL     OW 2308   0.962   0.433   2.735 -0.4970 -0.1651  0.2380
  770SOL    HW1 2309   0.914   0.345   2.751  1.5793  0.9599  1.5596
  770SOL    HW2 2310   0.921   0.501   2.792 -0.0270 -0.2519 -2.4600
  771SOL     OW 2311   0.446   0.121   2.458 -0.3746  0.2170  0.5653
  771SOL    HW1 2312   0.373   0.087   2.394 -2.3958  0.3546 -0.3722
  771SOL    HW2 2313   0.400   0.192   2.517 -1.2335 -1.1872 -0.0650
  772SOL     OW 2314   2.498   3.035   1.995  0.1455 -0.5722 -0.0546
  772SOL    HW1 2315   2.535   0.021   2.006 -0.1386  0.4040 -1.0221
  772SOL    HW2 2316   2.550   2.979   1.926  0.6366  3.2168  1.4223
  773SOL     OW 2317   0.778   2.420   1.889 -0.5778  0.2073 -0.1763
  773SOL    HW1 2318   0.734   2.505   1.929  1.5741 -0.6500 -1.0003
  773SOL    HW2 2319   0.826   2.362   1.960 -1.0886 -1.1561  0.6857
  774SOL     OW 2320   1.163   0.387   2.266 -0.8556  0.1436  0.1158
  774SOL    HW1 2321   1.234   0.332   2.317  0.8125  0.0829  0.4289
  774SOL    HW2 2322   1.195   0.411   2.168  2.6410 -2.2053 -1.3478
  775SOL     OW 2323   2.117   2.910   2.763 -0.3275 -0.4298 -0.1424
  775SOL    HW1 2324   2.048   2.977   2.803  1.4258  0.6291  0.8252
  775SOL    HW2 2325   2.178   2.961   2.696 -0.1912  2.3424 -3.4126
  776SOL     OW 2326   1.958   0.515   2.310  0.1520 -0.6238  0.3569
  776SOL    HW1 2327   1.931   0.599   2.255 -2.5313  1.2806 -0.6688
  776SOL    HW2 2328   1.883   0.486   2.373  1.2097  2.0716  0.2194
  777SOL     OW 2329   2.516   1.001   2.581  0.1220  0.5947 -0.4183
  777SOL    HW1 2330   2.539   1.082   2.636  0.7234 -1.7591 -0.8427
  777SOL    HW2 2331   2.435   1.026   2.523  1.7789 -0.0541  0.8573
  778SOL     OW 2332   1.906   0.718   2.141  0.0980  0.5196 -0.2014
  778SOL    HW1 2333   1.963   0.802   2.112  1.6839  0.8856  2.1281
  778SOL    HW2 2334   1.880   0.659   2.061 -0.7950 -1.1154  1.4624
  779SOL     OW 2335   3.081   0.307   0.106  0.1594 -0.6352  0.5451
  779SOL    HW1 2336   3.107   0.375   0.181 -0.8822  1.1076  0.1407
  779SOL    HW2 2337   0.056   0.267   0.072 -1.9015  1.4275 -1.9565
  780SOL     OW 2338   2.313   0.438   2.827  0.1045  0.0107 -0.1935
  780SOL    HW1 2339   2.352   0.409   2.740 -1.0115  2.4804  0.2709
  780SOL    HW2 2340   2.253   0.520   2.815 -2.9835 -2.1755 -0.9338
  781SOL     OW 2341   0.416   2.791   1.485  0.0817  0.2597 -0.3725
  781SOL    HW1 2342   0.425   2.855   1.405  0.5620  1.8504 -1.1446
  781SOL    HW2 2343   0.381   2.696   1.458 -1.1235 -3.2694  1.2993
  782SOL     OW 2344   1.704   2.413   0.312  0.0068 -0.2575  0.3464
  782SOL    HW1 2345   1.719   2.426   0.409 -0.7308 -0.5480 -3.8810
  782SOL    HW2 2346   1.744   2.489   0.255 -0.5740  0.5422 -0.3948
  783SOL     OW 2347   0.701   1.491   1.468 -0.2006 -0.0206 -0.4368
  783SOL    HW1 2348   0.777   1.555   1.494 -1.8716  1.6606  0.0737
  783SOL    HW2 2349   0.723   1.436   1.384 -0.3380  0.5729 -0.9126
  784SOL     OW 2350   1.574   0.829   2.042  0.3563 -0.7515  0.2942
  784SOL    HW1 2351   1.620   0.890   1.973 -1.2052 -1.2606 -0.3170
  784SOL    HW2 2352   1.604   0.734   2.024  0.2572 -2.1821 -0.0991
  785SOL     OW 2353   2.512   0.066   0.939 -0.0933  0.2014 -0.4211
  785SOL    HW1 2354   2.427   0.055   0.995  0.2497  0.9861  3.1123
  785SOL    HW2 2355   2.525   0.003   0.859 -0.7475  1.3570 -0.1224
  786SOL     OW 2356   1.615   3.022   1.491 -0.4020 -0.1306  0.4681
  786SOL    HW1 2357   1.702   3.070   1.478  1.3093  2.1681  0.3181
  786SOL    HW2 2358   1.563   3.008   1.402 -2.4185  1.3007 -3.2081
  787SOL     OW 2359   1.329   0.121   1.421  0.2474  0.0300  0.2529
  787SOL    HW1 2360   1.246   0.168   1.378  1.5766  0.8372 -2.9840
  787SOL    HW2 2361   1.350   0.042   1.359 -1.5575  0.9988 -2.6994
  788SOL     OW 2362   0.048   0.930   0.299 -0.1149  0.2259  0.0330
  788SOL    HW1 2363   0.009   0.881   0.219  0.3481  1.5990  1.1174
  788SOL    HW2 2364   3.084   0.951   0.368 -1.4059  0.9056 -0.7859
  789SOL     OW 2365   0.529   1.245   1.915  0.6437  0.4026 -0.1638
  789SOL    HW1 2366   0.616   1.261   1.960 -2.7027  0.3268 -0.0488
  789SOL    HW2 2367   0.467   1.325   1.903  2.9224 -2.1394 -0.8738
  790SOL     OW 2368   0.235   0.640   2.628  0.4864  0.4135 -0.0588
  790SOL    HW1 2369   0.309   0.695   2.665 -1.4973 -2.0216 -0.3174
  790SOL    HW2 2370   0.144   0.672   2.658 -0.0985  1.2471  0.4527
  791SOL     OW 2371   2.270   0.598   0.508 -0.1626  0.1962  0.0671
  791SOL    HW1 2372   2.199   0.667   0.516  0.9861  1.5213  2.2682
  791SOL    HW2 2373   2.241   0.506   0.529  4.6900  3.7552 -0.0180
  792SOL     OW 2374   0.910   0.021   1.398 -0.7167 -0.1929 -0.0011
  792SOL    HW1 2375   0.814   0.020   1.363 -0.7786  1.1519  0.9869
  792SOL    HW2 2376   0.911   0.016   1.502 -0.9503  0.0126  3.5397
  793SOL     OW 2377   0.376   2.953   1.255 -0.5635 -0.8088  0.0406
  793SOL    HW1 2378   0.373   2.890   1.178  2.7726  3.0614  1.3263
  793SOL    HW2 2379   0.299   3.020   1.259  0.5893 -3.3671  0.8069
  794SOL     OW 2380   0.175   0.636   2.370 -0.0798  0.1142  0.0740
  794SOL    HW1 2381   0.204   0.629   2.470  2.2025 -0.7518  1.0151
  794SOL    HW2 2382   0.247   0.593   2.314 -1.3951  1.5681  1.6830
  795SOL     OW 2383   0.421   2.632   2.700 -0.0506 -0.2424 -0.1627
  795SOL    HW1 2384   0.478   2.705   2.656 -0.3393  0.9387 -1.8923
  795SOL    HW2 2385   0.448   2.637   2.797 -1.6373  0.8608  0.0342
  796SOL     OW 2386   2.257   0.676   2.447 -0.0562  0.2805  0.1201
  796SOL    HW1 2387   2.226   0.748   2.506  1.3414  0.3270 -0.9527
  796SOL    HW2 2388   2.229   0.582   2.485 -1.5928 -1.3778 -0.9688
  797SOL     OW 2389   2.703   2.323   2.772 -0.1699  0.0251  0.5939
  797SOL    HW1 2390   2.778   2.271   2.815 -0.2645  0.4331  4.4238
  797SOL    HW2 2391   2.629   2.328   2.845  2.2007  1.9822  0.2459
  798SOL     OW 2392   0.199   0.425   1.700 -0.1833  0.4613  0.4498
  798SOL    HW1 2393   0.221   0.414   1.799 -2.1250  2.8252 -3.0848
  798SOL    HW2 2394   0.288   0.456   1.654  1.2602 -1.5183 -1.0890
  799SOL     OW 2395   0.698   0.156   1.961 -0.6857 -0.1001  0.0408
  799SOL    HW1 2396   0.717   0.233   2.026  2.9720 -0.0201  0.3594
  799SOL    HW2 2397   0.607   0.159   1.917 -0.6923  1.1489  0.1994
  800SOL     OW 2398   0.098   2.552   0.345 -0.6506  0.0080 -1.1329
  800SOL    HW1 2399   0.056   2.507   0.266 -0.8413  2.3600 -3.1669
  800SOL    HW2 2400   0.191   2.510   0.362  0.8171 -1.1734 -0.0163
  801SOL     OW 2401   1.724   1.732   1.030 -0.3705 -0.2438 -0.0577
  801SOL    HW1 2402   1.674   1.792   0.964 -1.6960 -0.9218 -1.0214
  801SOL    HW2 2403   1.741   1.794   1.111 -0.1751  0.3391 -1.0481
  802SOL     OW 2404   0.429   0.583   0.396 -0.1788 -0.4463  0.1529
  802SOL    HW1 2405   0.378   0.648   0.459 -2.2481  0.1771  2.3606
  802SOL    HW2 2406   0.487   0.628   0.324  2.9702 -1.1242 -2.0876
  803SOL     OW 2407   1.200   1.148   2.045 -0.1321  0.1134  0.6287
  803SOL    HW1 2408   1.123   1.197   1.991 -0.2993  2.1531 -1.3848
  803SOL    HW2 2409   1.168   1.114   2.137 -0.7639  1.0220  0.1589
  804SOL     OW 2410   1.745   2.094   0.897  0.2807 -0.4214  0.2661
  804SOL    HW1 2411   1.817   2.094   0.973 -0.6768  1.4589  2.4123
  804SOL    HW2 2412   1.684   2.016   0.897  3.2571  2.3644 -0.9952
  805SOL     OW 2413   0.234   1.989   2.699 -0.6045  0.1385  0.6277
  805SOL    HW1 2414   0.190   2.028   2.781 -1.7542  1.4856  1.3317
  805SOL    HW2 2415   0.274   2.064   2.640 -0.5392  0.2809 -0.1982
  806SOL     OW 2416   0.568   2.320   0.522  0.5300 -0.0215 -0.9596
  806SOL    HW1 2417   0.603   2.357   0.614  0.8145  0.7938  0.3342
  806SOL    HW2 2418   0.641   2.296   0.457 -0.2174  0.8757  0.0597
  807SOL     OW 2419   2.449   1.258   2.668  0.3620 -0.0288  0.5227
  807SOL    HW1 2420   2.460   1.357   2.694  1.9584  1.0437 -0.1551
  807SOL    HW2 2421   2.410   1.206   2.749  0.3689  1.1827 -0.4311
  808SOL     OW 2422   1.445   2.199   1.052 -0.0331  0.0104 -0.0634
  808SOL    HW1 2423   1.460   2.114   1.108  0.1150 -1.4847 -0.1719
  808SOL    HW2 2424   1.425   2.278   1.111  1.2228 -1.9854 -2.8186
  809SOL     OW 2425   0.081   0.582   0.549 -0.1537  0.1274  0.8708
  809SOL    HW1 2426   0.154   0.624   0.603 -2.4672 -1.2551 -0.6158
  809SOL    HW2 2427   0.042   0.502   0.601 -1.3743  1.9052  0.6533
  810SOL     OW 2428   1.493   1.526   3.086  0.3051 -0.3109 -0.4715
  810SOL    HW1 2429   1.474   1.616   3.046 -0.1552 -1.8228 -3.0371
  810SOL    HW2 2430   1.499   1.529   0.078  1.4573 -0.2681 -1.9821
  811SOL     OW 2431   1.668   2.550   1.227  0.1911 -0.4359 -0.2964
  811SOL    HW1 2432   1.709   2.541   1.134 -1.1763  0.5286  0.2316
  811SOL    HW2 2433   1.740   2.579   1.290 -0.1955  3.7101 -1.7144
  812SOL     OW 2434   1.461   2.815   1.069 -0.0949  0.3225  0.0958
  812SOL    HW1 2435   1.511   2.766   0.991 -0.4927  0.2869 -1.2613
  812SOL    HW2 2436   1.364   2.829   1.047  3.5956  0.1613  0.5072
  813SOL     OW 2437   1.087   0.105   1.975  0.3952  0.3065 -0.1613
  813SOL    HW1 2438   1.017   0.160   1.926 -0.3088  1.4557 -0.8601
  813SOL    HW2 2439   1.175   0.151   1.988  0.6597 -1.0262 -0.1368
  814SOL     OW 2440   0.953   2.343   2.075  0.4988 -0.0419  0.3879
  814SOL    HW1 2441   0.978   2.440   2.049 -0.0127 -1.5429 -0.6100
  814SOL    HW2 2442   0.945   2.321   2.173 -0.4494 -0.1586 -0.3538
  815SOL     OW 2443   0.441   0.203   2.884 -0.0209  0.0122 -0.1849
  815SOL    HW1 2444   0.430   0.129   2.955  1.4841 -0.5106  2.9611
  815SOL    HW2 2445   0.507   0.278   2.909 -0.9780 -0.2977 -0.5547
  816SOL     OW 2446   2.288   1.170   0.167 -0.5571  0.2364  0.8999
  816SOL    HW1 2447   2.325   1.247   0.108 -0.9816 -1.1131  0.9229
  816SOL    HW2 2448   2.348   1.087   0.173  1.1889  2.7305  2.8419
  817SOL     OW 2449   2.741   2.490   2.356  0.3375  0.1333 -0.1649
  817SOL    HW1 2450   2.671   2.559   2.383  0.3599  1.9192  0.9108
  817SOL    HW2 2451   2.808   2.524   2.286 -0.8005  1.0788  3.5199
  818SOL     OW 2452   0.925   1.432   0.541 -0.2156  0.6262 -0.4086
  818SOL    HW1 2453   0.841   1.481   0.517  1.7001  0.0720  0.3395
  818SOL    HW2 2454   0.929   1.346   0.485  0.8401  1.0332 -1.0857
  819SOL     OW 2455   1.852   1.217   2.645 -0.2806  0.5058 -0.2535
  819SOL    HW1 2456   1.888   1.188   2.553 -1.2445 -3.4469 -1.4253
  819SOL    HW2 2457   1.794   1.140   2.687 -0.2863 -2.3114  2.3611
  820SOL     OW 2458   0.557   1.205   0.192 -0.2708  0.1590  0.0643
  820SOL    HW1 2459   0.594   1.208   0.286  1.0779  0.7722  0.2975
  820SOL    HW2 2460   0.488   1.134   0.183  2.6092  0.3628 -3.1467
  821SOL     OW 2461   0.506   2.991   0.845 -0.2237  0.0723 -0.3295
  821SOL    HW1 2462   0.598   2.950   0.843  0.4602 -1.4958 -0.8561
  821SOL    HW2 2463   0.450   2.934   0.912 -0.2860 -0.6830  1.9042
  822SOL     OW 2464   2.210   2.285   2.947 -0.8614 -0.3000  0.4613
  822SOL    HW1 2465   2.310   2.299   2.955 -0.8269  0.7436  0.5209
  822SOL    HW2 2466   2.163   2.363   2.896 -1.0935 -0.1767 -1.9767
  823SOL     OW 2467   1.236   0.478   2.726 -0.2969  0.6684 -0.5952
  823SOL    HW1 2468   1.263   0.383   2.752 -1.5173 -0.0485 -0.5835
  823SOL    HW2 2469   1.131   0.476   2.719 -4.2102  0.2209  0.1365
  824SOL     OW 2470   2.533   2.585   1.551 -0.0272  0.4972 -0.3871
  824SOL    HW1 2471   2.603   2.580   1.627 -1.1505 -0.6795  2.0715
  824SOL    HW2 2472   2.561   2.666   1.495 -2.0409 -0.5934  1.8643
  825SOL     OW 2473   0.302   2.161   2.466  0.3298 -0.0349  0.1037
  825SOL    HW1 2474   0.286   2.144   2.369  0.4149  1.7724  0.6848
  825SOL    HW2 2475   0.389   2.210   2.481  1.1686 -0.5095  0.9641
  826SOL     OW 2476   1.556   0.513   0.197 -0.0366 -0.4429 -0.2590
  826SOL    HW1 2477   1.532   0.459   0.276  1.4005  0.1396 -2.8099
  826SOL    HW2 2478   1.631   0.475   0.139 -2.0980  2.7229 -0.7431
  827SOL     OW 2479   0.135   1.842   1.859  0.8134  0.6984  0.0275
  827SOL    HW1 2480   0.109   1.757   1.810 -1.2377 -0.3444 -1.2852
  827SOL    HW2 2481   0.124   1.925   1.804 -0.2894 -1.1997  2.4573
  828SOL     OW 2482   0.163   3.094   1.337  0.2214  0.3205 -0.1177
  828SOL    HW1 2483   0.115   0.075   1.339 -0.4259 -1.4462 -0.6474
  828SOL    HW2 2484   0.110   3.031   1.400 -0.1161 -0.8154 -0.3913
  829SOL     OW 2485   0.996   2.046   2.435  0.0323 -0.6225 -0.0567
  829SOL    HW1 2486   1.051   2.042   2.519  1.1646  2.5884 -2.3554
  829SOL    HW2 2487   0.963   2.142   2.411 -0.7500  0.5300 -0.5054
  830SOL     OW 2488   0.755   0.805   1.540 -0.5770  0.0783 -0.1814
  830SOL    HW1 2489   0.787   0.764   1.457 -1.9015 -0.3081  2.2459
  830SOL    HW2 2490   0.657   0.794   1.556  2.4865 -3.1276 -1.8213
  831SOL     OW 2491   2.664   1.796   0.069 -0.0475 -0.2958  0.3324
  831SOL    HW1 2492   2.695   1.712   0.028  1.2450 -1.1241 -0.5136
  831SOL    HW2 2493   2.744   1.828   0.131  0.8435  0.1724  1.3314
  832SOL     OW 2494   1.306   2.379   2.857  0.1397 -0.1305  0.2780
  832SOL    HW1 2495   1.236   2.419   2.796 -3.8751  0.0052 -1.3293
  832SOL    HW2 2496   1.365   2.322   2.804 -1.1418  2.7972  1.8848
  833SOL     OW 2497   0.390   0.421   1.970 -0.3891 -0.2616  0.5248
  833SOL    HW1 2498   0.473   0.464   1.925  1.4428  2.6460  0.3040
  833SOL    HW2 2499   0.391   0.322   1.951 -1.8597  1.5660  0.9103
  834SOL     OW 2500   0.316   0.780   1.277  0.0916 -0.3834  0.5382
  834SOL    HW1 2501   0.313   0.678   1.272  0.2427 -0.6439 -0.0321
  834SOL    HW2 2502   0.226   0.825   1.291  1.0659  1.0899 -1.6038
  835SOL     OW 2503   2.425   0.426   0.178  0.4959 -0.1241  0.4711
  835SOL    HW1 2504   2.457   0.436   0.079 -0.8311  1.5972 -1.5791
  835SOL    HW2 2505   2.464   0.498   0.237  1.5079  0.5634  1.9971
  836SOL     OW 2506   0.885   2.037   0.548  0.5721 -0.4221 -0.5035
  836SOL    HW1 2507   0.947   1.959   0.558  0.5993  0.4396  1.1641
  836SOL    HW2 2508   0.923   2.126   0.583  0.0130 -0.9662  1.9981
  837SOL     OW 2509   1.721   1.795   0.464 -0.0208  0.7423 -0.3074
  837SOL    HW1 2510   1.664   1.828   0.387  1.0356  1.9515 -0.6376
  837SOL    HW2 2511   1.726   1.691   0.464 -1.1382 -1.8603 -0.1610
  838SOL     OW 2512   1.984   0.950   2.011 -0.0155 -0.4428 -0.1661
  838SOL    HW1 2513   2.026   0.963   1.921  0.3668  3.6882  0.5905
  838SOL    HW2 2514   1.884   0.929   2.001 -0.4343  3.1994  0.0104
  839SOL     OW 2515   0.978   1.438   2.570 -0.4994  0.2121 -0.0362
  839SOL    HW1 2516   0.912   1.440   2.491 -0.7653 -1.4280  0.7499
  839SOL    HW2 2517   1.072   1.469   2.538  0.7028  1.9589  1.0648
  840SOL     OW 2518   0.863   1.396   0.189 -0.9853  0.0810  0.2051
  840SOL    HW1 2519   0.912   1.328   0.252  2.3133 -1.8236  1.5808
  840SOL    HW2 2520   0.818   1.348   0.112 -1.4857  1.0355 -0.7978
  841SOL     OW 2521   1.402   2.239   3.084 -0.4829 -0.2764 -0.4323
  841SOL    HW1 2522   1.403   2.287   0.069  3.2284  0.6115  2.6627
  841SOL    HW2 2523   1.348   2.287   3.014 -2.0707 -2.7236  1.1527
  842SOL     OW 2524   0.067   0.502   0.267  0.2660 -0.2377 -0.1357
  842SOL    HW1 2525   0.144   0.548   0.221 -0.7307 -0.7083 -0.5007
  842SOL    HW2 2526   0.068   0.523   0.368  1.6796 -0.0173  0.8288
  843SOL     OW 2527   0.472   0.429   0.780  0.5731  0.0343  0.1697
  843SOL    HW1 2528   0.530   0.506   0.808 -0.9438 -1.7039 -0.1406
  843SOL    HW2 2529   0.408   0.397   0.853  0.9401  0.2363 -0.8898
  844SOL     OW 2530   2.273   2.489   2.589  0.2016 -0.2674  0.3005
  844SOL    HW1 2531   2.251   2.492   2.490 -1.3999  0.5572 -0.9805
  844SOL    HW2 2532   2.205   2.543   2.645 -1.3541  2.5225 -2.8167
  845SOL     OW 2533   3.066   2.540   1.629  0.0445  0.2330 -0.2052
  845SOL    HW1 2534   3.061   2.645   1.637  0.7269  1.7004  2.6549
  845SOL    HW2 2535   2.973   2.501   1.604 -0.6160 -0.4713  0.8407
  846SOL     OW 2536   2.091   1.346   2.375 -0.3099  0.0681  0.0615
  846SOL    HW1 2537   2.079   1.410   2.452 -0.4406  1.6626 -0.7671
  846SOL    HW2 2538   2.027   1.266   2.375  0.1001  0.1612  0.1390
  847SOL     OW 2539   3.014   0.421   1.833  0.0264  0.1461  1.0180
  847SOL    HW1 2540   2.959   0.494   1.871  3.1403  1.2101  0.4591
  847SOL    HW2 2541   3.108   0.419   1.870  1.5365  0.2884  0.9458
  848SOL     OW 2542   2.587   2.779   2.873  0.0667 -0.5293  0.4297
  848SOL    HW1 2543   2.657   2.800   2.948  0.0808 -1.5984  1.4966
  848SOL    HW2 2544   2.627   2.708   2.813  2.1678 -0.7775  0.4320
  849SOL     OW 2545   0.198   2.958   0.557  0.0285 -0.4999  0.0632
  849SOL    HW1 2546   0.259   3.017   0.613 -0.8157 -0.4670 -4.5952
  849SOL    HW2 2547   0.133   2.914   0.627 -1.0152 -1.8802  2.5335
  850SOL     OW 2548   0.780   2.391   0.327 -0.1164 -0.1733 -0.2870
  850SOL    HW1 2549   0.876   2.398   0.286 -0.0476 -1.1186 -1.2446
  850SOL    HW2 2550   0.774   2.456   0.407  0.0798 -1.5296  0.5530
  851SOL     OW 2551   1.931   0.571   2.631 -0.3531 -0.2544  0.0758
  851SOL    HW1 2552   1.899   0.638   2.559  0.3191  1.1977  1.0281
  851SOL    HW2 2553   2.032   0.548   2.621  1.0162 -1.1229  1.0096
  852SOL     OW 2554   1.643   2.709   2.632 -0.0338 -0.2849  0.1505
  852SOL    HW1 2555   1.729   2.674   2.593  0.2412 -0.6275 -0.7529
  852SOL    HW2 2556   1.650   2.794   2.686  0.3991 -0.5677  0.9982
  853SOL     OW 2557   0.008   2.441   0.116 -0.3936 -0.5714  0.7095
  853SOL    HW1 2558   0.080   2.437   0.041 -0.0279  1.9831 -0.2276
  853SOL    HW2 2559   3.022   2.472   0.075 -1.0887  0.0530 -0.3358
  854SOL     OW 2560   1.522   0.615   2.421 -0.4301  0.1010  0.0666
  854SOL    HW1 2561   1.426   0.630   2.454  0.7625 -0.9273 -2.3696
  854SOL    HW2 2562   1.559   0.705   2.387  0.3652 -0.6095 -0.6763
  855SOL     OW 2563   0.428   2.828   0.481  0.3004  0.9750 -0.0332
  855SOL    HW1 2564   0.418   2.728   0.487  0.1411  1.2095  0.8496
  855SOL    HW2 2565   0.347   2.881   0.516  0.2739 -0.3068  0.1571
  856SOL     OW 2566   0.152   2.835   2.606 -0.2826 -0.4045 -0.3509
  856SOL    HW1 2567   0.242   2.833   2.561 -2.5328  1.5206  2.5979
  856SOL    HW2 2568   0.107   2.741   2.607  2.1551 -0.2193  1.3105
  857SOL     OW 2569   1.282   3.061   1.663 -0.4338  0.7277  0.4585
  857SOL    HW1 2570   1.315   0.025   1.602  0.1557  0.3559  3.0050
  857SOL    HW2 2571   1.330   2.970   1.648  0.1684 -1.1859  1.5755
  858SOL     OW 2572   0.091   2.096   1.761  0.0144  0.3185 -0.3082
  858SOL    HW1 2573   0.105   2.131   1.856 -0.4918  1.0570 -0.0528
  858SOL    HW2 2574   0.163   2.118   1.691  0.1214 -0.2901 -1.2296
  859SOL     OW 2575   2.185   2.341   2.056  0.0180 -0.3008 -0.0210
  859SOL    HW1 2576   2.127   2.324   1.968 -1.6909 -1.1381 -2.0970
  859SOL    HW2 2577   2.282   2.324   2.038 -1.9518 -1.2270  1.5759
  860SOL     OW 2578   1.326   0.248   0.632  0.2826 -0.3037  0.5391
  860SOL    HW1 2579   1.373   0.213   0.715 -1.2467  3.1081 -1.4237
  860SOL    HW2 2580   1.229   0.264   0.657 -0.1947 -0.1843  1.0949
  861SOL     OW 2581   2.845   0.511   0.859 -0.0256 -0.3011 -0.2851
  861SOL    HW1 2582   2.763   0.453   0.885  1.9100 -1.2987 -0.5002
  861SOL    HW2 2583   2.933   0.482   0.902 -0.3933 -0.4899 -0.1543
  862SOL     OW 2584   1.625   0.560   2.095  0.1926  0.4905 -0.0244
  862SOL    HW1 2585   1.653   0.593   2.186 -1.6729 -1.8610  0.7372
  862SOL    HW2 2586   1.705   0.528   2.037  0.9420 -1.8333 -0.1812
  863SOL     OW 2587   0.734   0.665   0.919 -1.1379  0.6755 -0.2160
  863SOL    HW1 2588   0.653   0.693   0.972  3.8254 -0.0192 -0.1065
  863SOL    HW2 2589   0.811   0.644   0.978 -0.0300  2.8329  0.0515
  864SOL     OW 2590   0.121   2.962   2.162 -0.6066  0.2655 -0.8118
  864SOL    HW1 2591   0.023   2.943   2.201 -2.6272  1.0434  0.4576
  864SOL    HW2 2592   0.127   2.961   2.060 -0.5093 -0.9255  0.4169
  865SOL     OW 2593   1.082   1.105   2.565 -0.2439 -0.2528 -0.3950
  865SOL    HW1 2594   1.066   1.013   2.528  0.2187  1.7389 -2.3961
  865SOL    HW2 2595   0.997   1.157   2.542  1.1874 -3.7590  3.2232
  866SOL     OW 2596   2.882   2.869   0.203 -0.5882  0.1903 -0.1412
  866SOL    HW1 2597   2.858   2.858   0.302  2.5001  0.1377 -3.2955
  866SOL    HW2 2598   2.984   2.860   0.195  1.5158  1.3381  1.2860
  867SOL     OW 2599   2.957   2.725   2.996 -0.1265  0.2245  0.1958
  867SOL    HW1 2600   2.937   2.638   3.046  1.2986  1.9014 -1.4131
  867SOL    HW2 2601   2.893   2.796   3.028 -0.2022  0.3326  0.9494
  868SOL     OW 2602   1.633   1.148   3.025  0.2316 -0.5746 -0.1685
  868SOL    HW1 2603   1.683   1.238   3.000  1.0452 -0.5440 -0.4802
  868SOL    HW2 2604   1.538   1.173   3.051  0.6512  0.3474  0.2203
  869SOL     OW 2605   3.103   1.973   0.640  0.2161 -0.5927 -0.2597
  869SOL    HW1 2606   3.016   2.028   0.629 -2.8049 -2.0989 -0.1769
  869SOL    HW2 2607   0.084   2.028   0.630  1.0978  0.7357  0.5354
  870SOL     OW 2608   2.237   2.177   0.646 -0.0975 -0.1323 -0.1648
  870SOL    HW1 2609   2.229   2.077   0.670  4.3880  0.4931 -0.4909
  870SOL    HW2 2610   2.205   2.180   0.553  1.2795  0.4063  0.8846
  871SOL     OW 2611   0.575   1.095   1.082  0.0207  0.1262  0.1000
  871SOL    HW1 2612   0.511   1.141   1.021  2.2920 -3.4404  0.4640
  871SOL    HW2 2613   0.632   1.039   1.021  2.6981 -0.1069 -1.5238
  872SOL     OW 2614   1.273   1.864   1.805  0.0779  0.2874  0.0387
  872SOL    HW1 2615   1.221   1.949   1.796 -0.9305  1.2990  2.6312
  872SOL    HW2 2616   1.362   1.883   1.850  1.1927 -2.9358 -0.2101
  873SOL     OW 2617   0.538   2.223   2.212  0.8205 -0.0392  0.3918
  873SOL    HW1 2618   0.550   2.258   2.308  0.7768  0.8245 -1.5621
  873SOL    HW2 2619   0.502   2.304   2.149 -0.2392  3.0273  0.8540
  874SOL     OW 2620   0.847   3.075   1.112  0.5228  0.1141 -1.0515
  874SOL    HW1 2621   0.780   3.035   1.181  3.5268 -2.3674 -0.4552
  874SOL    HW2 2622   0.939   3.049   1.153  0.8425 -2.8969  0.2350
  875SOL     OW 2623   2.902   0.219   1.244 -0.3972  0.2587  0.1790
  875SOL    HW1 2624   2.871   0.315   1.216  0.2239  4.0855  0.7737
  875SOL    HW2 2625   2.983   0.183   1.194  3.2896 -0.5987  0.3103
  876SOL     OW 2626   0.494   0.810   0.225 -0.5254 -0.2570  0.5247
  876SOL    HW1 2627   0.484   0.884   0.292 -0.2382  0.4464 -0.5034
  876SOL    HW2 2628   0.537   0.857   0.143  0.6670  1.1133  0.2801
  877SOL     OW 2629   0.249   0.499   1.320  0.0354 -0.4599 -0.3993
  877SOL    HW1 2630   0.147   0.500   1.320 -0.2606 -1.2803 -0.8348
  877SOL    HW2 2631   0.280   0.483   1.414  0.6368  1.5391  0.9556
  878SOL     OW 2632   2.588   2.391   0.429 -0.2728 -0.5505 -0.5750
  878SOL    HW1 2633   2.539   2.368   0.519 -0.3471 -0.7536  4.3984
  878SOL    HW2 2634   2.679   2.344   0.429  1.2692 -0.4199 -1.6755
  879SOL     OW 2635   2.718   1.425   1.246 -0.0880  0.3518  0.2400
  879SOL    HW1 2636   2.766   1.451   1.338  1.9950  1.3674  0.6557
  879SOL    HW2 2637   2.619   1.451   1.244  1.0783 -0.6710  1.1969
  880SOL     OW 2638   1.589   2.715   0.841  0.3380  0.2483  0.1630
  880SOL    HW1 2639   1.690   2.729   0.834 -1.4740 -0.6216 -3.2779
  880SOL    HW2 2640   1.567   2.627   0.798 -0.2259  1.2361 -1.6329
  881SOL     OW 2641   1.015   2.166   0.010  0.3034 -0.0740  0.1188
  881SOL    HW1 2642   1.060   2.240   0.062  1.2194  0.3689  0.2103
  881SOL    HW2 2643   1.021   2.080   0.068 -1.3123  0.0745  1.6178
  882SOL     OW 2644   1.779   0.717   1.300  0.6091 -0.1215  0.5691
  882SOL    HW1 2645   1.809   0.621   1.321 -0.8276 -0.0466 -1.6811
  882SOL    HW2 2646   1.685   0.743   1.336  1.4639  0.6336  0.2041
  883SOL     OW 2647   1.622   0.552   1.652  0.2842 -0.0494 -0.0479
  883SOL    HW1 2648   1.720   0.549   1.623  0.4297  1.4029  2.0264
  883SOL    HW2 2649   1.569   0.466   1.628 -2.3352 -2.5228 -2.5295
  884SOL     OW 2650   2.753   0.587   0.205 -0.4851  0.6948 -0.0308
  884SOL    HW1 2651   2.678   0.578   0.275  1.0713 -0.2670 -1.6897
  884SOL    HW2 2652   2.811   0.671   0.217  1.5711 -1.8085  0.0198
  885SOL     OW 2653   1.386   1.785   3.021  0.1182  0.6664  0.2955
  885SOL    HW1 2654   1.299   1.762   3.071  0.9469 -0.2687 -0.5531
  885SOL    HW2 2655   1.376   1.776   2.918  0.2268  0.6351 -2.0993
  886SOL     OW 2656   1.711   1.461   2.621 -0.5578 -0.7466 -0.4654
  886SOL    HW1 2657   1.713   1.516   2.712 -1.1620  3.4137  2.9796
  886SOL    HW2 2658   1.762   1.373   2.639 -3.5836  0.6326 -0.0178
  887SOL     OW 2659   1.471   0.329   1.568 -0.4242 -0.0662 -0.6892
  887SOL    HW1 2660   1.412   0.271   1.513  0.8181 -2.0992 -1.0941
  887SOL    HW2 2661   1.543   0.273   1.614  2.3313 -1.6091 -0.8776
  888SOL     OW 2662   2.587   0.594   1.885 -0.1206 -0.0142 -0.0014
  888SOL    HW1 2663   2.685   0.576   1.887  1.1890  0.0882 -0.8521
  888SOL    HW2 2664   2.574   0.687   1.843  0.6080  3.7319 -0.2860
  889SOL     OW 2665   0.190   2.507   1.113 -0.5721 -0.1640  0.4975
  889SOL    HW1 2666   0.098   2.464   1.097 -0.0195  1.7177  0.9253
  889SOL    HW2 2667   0.251   2.493   1.028 -1.7908  0.9575 -0.3053
  890SOL     OW 2668   2.366   2.373   0.273  0.6779  0.2937  0.0433
  890SOL    HW1 2669   2.313   2.447   0.225  0.6632  0.2344  0.0073
  890SOL    HW2 2670   2.442   2.405   0.336  0.1089  1.8938 -1.2571
  891SOL     OW 2671   0.694   1.327   2.894 -0.0144 -0.2956  0.1050
  891SOL    HW1 2672   0.790   1.352   2.863  1.4576 -0.4552 -0.2399
  891SOL    HW2 2673   0.639   1.285   2.819  1.4331 -0.6230 -3.2801
  892SOL     OW 2674   0.124   3.004   1.071  0.0545  0.2577  0.3071
  892SOL    HW1 2675   0.137   3.035   1.163  2.8528 -3.0159  0.2270
  892SOL    HW2 2676   0.136   2.906   1.058 -0.0723  3.4422 -0.8992
  893SOL     OW 2677   1.077   0.235   1.348  0.0659 -0.3150 -0.0547
  893SOL    HW1 2678   1.024   0.323   1.353 -0.9036 -1.1617  1.7051
  893SOL    HW2 2679   1.016   0.153   1.371 -1.2198 -0.0297  0.2144
  894SOL     OW 2680   2.429   0.492   0.845  0.2968  0.2508  0.2915
  894SOL    HW1 2681   2.336   0.515   0.871  1.6206 -0.0515 -2.0090
  894SOL    HW2 2682   2.462   0.545   0.763 -3.7029 -2.6820  0.2335
  895SOL     OW 2683   1.981   1.954   2.208  1.0007 -0.3449  0.2470
  895SOL    HW1 2684   2.039   2.040   2.230  1.1759  1.4833  0.7996
  895SOL    HW2 2685   2.040   1.869   2.204  0.4968  1.6173  2.1019
  896SOL     OW 2686   1.394   0.224   2.035  0.0732 -0.1342  0.5553
  896SOL    HW1 2687   1.385   0.319   1.994 -0.3757  1.9012  1.4033
  896SOL    HW2 2688   1.436   0.150   1.973  0.5984 -0.4113 -1.5116
  897SOL     OW 2689   0.500   1.644   2.036  0.6318 -0.0916 -0.1563
  897SOL    HW1 2690   0.453   1.606   2.119  0.1376 -2.6106  1.5101
  897SOL    HW2 2691   0.602   1.637   2.045  0.9369  0.0204  0.4779
  898SOL     OW 2692   2.292   2.845   2.148  0.1209 -0.2490  0.2109
  898SOL    HW1 2693   2.366   2.907   2.118  1.2306  1.1874  0.7363
  898SOL    HW2 2694   2.334   2.771   2.203 -1.9094  1.0786  0.7640
  899SOL     OW 2695   0.897   0.856   1.113  0.2619  0.4212  0.0052
  899SOL    HW1 2696   0.892   0.955   1.097  1.0625 -1.9596 -1.4354
  899SOL    HW2 2697   0.955   0.805   1.042 -0.0421 -1.2618 -1.8142
  900SOL     OW 2698   1.742   2.348   2.882  0.1172  0.4229 -0.2596
  900SOL    HW1 2699   1.691   2.272   2.925  0.9464  1.5102  0.0611
  900SOL    HW2 2700   1.780   2.314   2.789 -0.7200 -0.8977 -1.2302
  901SOL     OW 2701   0.721   2.244   2.705 -0.1901 -0.2682  0.3551
  901SOL    HW1 2702   0.634   2.277   2.739  1.2297 -0.6168 -2.2054
  901SOL    HW2 2703   0.712   2.147   2.675 -1.8777  0.8024  1.2256
  902SOL     OW 2704   2.327   1.544   0.172 -0.1997 -0.9733  0.5389
  902SOL    HW1 2705   2.377   1.593   0.247  1.8231  0.9324 -1.3972
  902SOL    HW2 2706   2.229   1.537   0.186  1.5475  2.4862  1.5546
  903SOL     OW 2707   2.048   0.783   0.467 -0.1095 -0.7527 -0.3456
  903SOL    HW1 2708   2.037   0.889   0.472  1.2580  3.5060  1.6907
  903SOL    HW2 2709   2.036   0.749   0.375  1.8583 -2.5714  1.5138
  904SOL     OW 2710   0.428   1.002   2.896 -0.3904 -0.1491  0.4557
  904SOL    HW1 2711   0.503   0.984   2.963 -0.8178  0.8321  0.3939
  904SOL    HW2 2712   0.341   1.036   2.944 -4.1608 -1.4889  1.2075
  905SOL     OW 2713   2.260   0.113   1.106 -0.0432 -0.8134  0.2132
  905SOL    HW1 2714   2.231   0.084   1.197  0.7466  1.3153  0.1426
  905SOL    HW2 2715   2.265   0.216   1.104  0.8064 -0.2022 -0.5848
  906SOL     OW 2716   2.888   2.105   1.087 -0.2532  0.2659  0.5044
  906SOL    HW1 2717   2.824   2.028   1.098 -0.9065 -0.5577  0.3721
  906SOL    HW2 2718   2.866   2.152   0.998  1.0213  2.2861 -0.4276
  907SOL     OW 2719   1.192   0.645   0.452  0.0862  0.1782 -0.0856
  907SOL    HW1 2720   1.121   0.575   0.423 -0.3904 -0.5339 -0.4285
  907SOL    HW2 2721   1.150   0.734   0.479 -0.4517  0.1513 -0.2052
  908SOL     OW 2722   2.185   2.863   1.420  0.2974 -0.1508  0.0816
  908SOL    HW1 2723   2.223   2.788   1.481  2.2799  0.1619 -0.7720
  908SOL    HW2 2724   2.078   2.864   1.410 -2.7965 -0.2156 -0.3080
  909SOL     OW 2725   2.587   0.869   1.525 -0.5680 -0.1680 -0.3929
  909SOL    HW1 2726   2.673   0.859   1.467 -1.2421 -1.2962  2.4359
  909SOL    HW2 2727   2.570   0.969   1.552 -2.0290  0.3925  2.1270
  910SOL     OW 2728   1.491   2.623   2.277  0.4598 -0.3600 -0.3731
  910SOL    HW1 2729   1.430   2.585   2.206 -0.4397 -0.2134  0.8090
  910SOL    HW2 2730   1.470   2.725   2.273 -0.5409 -0.6766  0.7909
  911SOL     OW 2731   2.123   0.427   2.093 -0.0019 -0.7019  0.1408
  911SOL    HW1 2732   2.077   0.458   2.180 -0.5498  0.0709  0.7933
  911SOL    HW2 2733   2.188   0.495   2.059  1.0503  0.1823  1.6939
  912SOL     OW 2734   2.801   1.447   1.497  0.0255  0.2906  0.3540
  912SOL    HW1 2735   2.861   1.372   1.531 -0.2774  3.3719  0.4083
  912SOL    HW2 2736   2.822   1.524   1.560  0.8749 -1.4049 -0.5707
  913SOL     OW 2737   2.739   1.873   1.249  0.2587  0.0903 -0.0894
  913SOL    HW1 2738   2.697   1.956   1.297 -2.4982 -1.2588  0.5993
  913SOL    HW2 2739   2.784   1.818   1.323  1.2810 -0.3514 -1.9199
  914SOL     OW 2740   2.059   1.379   1.387 -0.2323  0.1934 -0.0255
  914SOL    HW1 2741   2.135   1.391   1.448  0.2168 -0.4635 -0.9242
  914SOL    HW2 2742   1.972   1.388   1.441  0.7617  0.5422  0.4931
  915SOL     OW 2743   0.907   1.275   1.296 -0.0111  0.1701  0.6267
  915SOL    HW1 2744   0.878   1.190   1.346  1.7253 -3.4059  2.0691
  915SOL    HW2 2745   0.970   1.324   1.357 -1.2859 -0.8410 -2.5948
  916SOL     OW 2746   2.296   2.551   1.172  0.0921  0.1429 -0.2226
  916SOL    HW1 2747   2.335   2.506   1.256  1.0669  1.0251  2.6478
  916SOL    HW2 2748   2.273   2.648   1.187 -4.0971 -2.0126 -0.3714
  917SOL     OW 2749   2.488   2.145   0.175 -0.0054  0.8602  0.5166
  917SOL    HW1 2750   2.472   2.119   0.080  0.7556  2.4744  3.0495
  917SOL    HW2 2751   2.439   2.235   0.192 -0.7013 -4.9588  0.8745
  918SOL     OW 2752   1.898   2.608   2.542  0.0466  0.5972  0.1758
  918SOL    HW1 2753   1.912   2.518   2.493  0.6976 -2.0897 -2.5296
  918SOL    HW2 2754   1.958   2.618   2.627  2.3629 -0.3887  0.3953
  919SOL     OW 2755   1.595   1.907   1.861 -0.3090 -0.0745 -0.0584
  919SOL    HW1 2756   1.672   1.841   1.840  3.0497 -2.3956  2.7659
  919SOL    HW2 2757   1.592   1.988   1.795 -0.9497  2.4249 -0.3209
  920SOL     OW 2758   2.869   0.289   2.677 -0.3545  0.0570 -0.7409
  920SOL    HW1 2759   2.963   0.333   2.676  1.2768  3.6997 -2.4792
  920SOL    HW2 2760   2.801   0.359   2.649  2.8495 -1.0591  1.0550
  921SOL     OW 2761   2.815   0.301   2.046 -0.0298 -0.2285  0.0846
  921SOL    HW1 2762   2.846   0.242   2.123  0.3750  1.2928 -0.1411
  921SOL    HW2 2763   2.874   0.287   1.970 -4.1072  1.1522  2.8485
  922SOL     OW 2764   2.190   2.184   0.372  0.1092  0.1123 -0.0036
  922SOL    HW1 2765   2.264   2.249   0.345  0.0219 -0.4663  1.7624
  922SOL    HW2 2766   2.175   2.114   0.296  0.0513 -1.7840 -0.9765
  923SOL     OW 2767   0.394   2.069   0.386 -0.3221 -0.0174  0.2592
  923SOL    HW1 2768   0.378   1.997   0.315  1.2245 -0.9874 -0.3352
  923SOL    HW2 2769   0.493   2.079   0.394 -4.6405  1.6142  1.0627
  924SOL     OW 2770   0.712   0.406   0.123  0.7228  0.4526  0.3872
  924SOL    HW1 2771   0.663   0.347   0.189 -1.7435 -2.3009 -2.1003
  924SOL    HW2 2772   0.776   0.465   0.175 -0.3623 -1.0972  3.4416
  925SOL     OW 2773   2.269   0.822   0.856  0.0294  0.6270 -0.0789
  925SOL    HW1 2774   2.313   0.849   0.770  2.2585 -2.9747  1.7239
  925SOL    HW2 2775   2.231   0.903   0.905 -0.5042 -1.0870 -0.6335
  926SOL     OW 2776   2.895   0.801   0.929  0.7176  0.2445  0.7057
  926SOL    HW1 2777   2.935   0.821   1.019  0.4856 -1.4663 -1.6961
  926SOL    HW2 2778   2.901   0.699   0.912 -2.2810 -1.8381 -1.5053
  927SOL     OW 2779   3.001   1.285   2.861  0.4670  0.7303  0.2088
  927SOL    HW1 2780   3.080   1.227   2.838  1.6271 -2.7747 -0.2082
  927SOL    HW2 2781   3.024   1.360   2.926  1.7139  1.1445  1.7841
  928SOL     OW 2782   3.064   0.487   2.387 -0.7014 -0.1891 -0.1944
  928SOL    HW1 2783   0.041   0.543   2.369  2.9547  0.4033 -0.5681
  928SOL    HW2 2784   3.092   0.390   2.413 -2.2510 -1.0931  0.4266
  929SOL     OW 2785   0.082   2.738   1.030  0.2728  0.1523  0.4917
  929SOL    HW1 2786   3.093   2.723   0.992 -1.2772  1.5408  0.8787
  929SOL    HW2 2787   0.128   2.647   1.059  0.1384 -1.8836 -0.4374
  930SOL     OW 2788   2.155   1.670   1.604  0.6886  0.4182 -0.1074
  930SOL    HW1 2789   2.178   1.739   1.678 -0.1182  0.8994  0.2324
  930SOL    HW2 2790   2.055   1.659   1.603 -2.6061  1.4666  1.4812
  931SOL     OW 2791   1.484   1.564   0.655  0.1490  0.1073  0.2138
  931SOL    HW1 2792   1.518   1.520   0.742  0.3277  0.9716  2.9327
  931SOL    HW2 2793   1.443   1.659   0.673  0.0374  1.0740  0.3978
  932SOL     OW 2794   2.782   1.220   1.102  0.4240  0.9440  0.0165
  932SOL    HW1 2795   2.745   1.126   1.125 -0.2210  1.2089  1.0284
  932SOL    HW2 2796   2.733   1.290   1.152 -0.8911 -1.3176  1.4007
  933SOL     OW 2797   2.480   1.516   1.299 -0.7553  0.2032 -0.2149
  933SOL    HW1 2798   2.400   1.507   1.234 -1.0515 -0.1764 -2.4388
  933SOL    HW2 2799   2.460   1.590   1.369  3.5592  2.3729 -0.2878
  934SOL     OW 2800   1.847   2.756   1.761  0.3193  0.4914 -0.8278
  934SOL    HW1 2801   1.940   2.720   1.786 -0.0712 -0.1273 -0.3751
  934SOL    HW2 2802   1.773   2.693   1.783  1.2722 -2.0039 -0.9089
  935SOL     OW 2803   0.050   1.544   0.702  0.6535  0.2579 -0.2212
  935SOL    HW1 2804   3.080   1.543   0.766 -1.3579  0.1881  0.1212
  935SOL    HW2 2805   0.108   1.628   0.718  0.7540 -0.8724 -0.3887
  936SOL     OW 2806   0.071   1.193   0.417 -0.2353  0.5254 -0.4761
  936SOL    HW1 2807   0.026   1.104   0.437 -1.1947 -0.5940  3.0829
  936SOL    HW2 2808   0.139   1.192   0.340  2.6376 -0.5719  2.3640
  937SOL     OW 2809   1.803   2.393   1.035  0.3594 -0.0986 -0.4547
  937SOL    HW1 2810   1.845   2.406   0.945  0.9547 -1.6936 -0.5678
  937SOL    HW2 2811   1.748   2.311   1.046 -1.4545  2.3099 -0.1003
  938SOL     OW 2812   2.580   1.967   1.039 -0.4358 -0.3146 -0.0727
  938SOL    HW1 2813   2.636   1.942   1.120 -1.2618  1.2949  3.0623
  938SOL    HW2 2814   2.559   2.067   1.039 -0.2888  0.3807 -1.8876
  939SOL     OW 2815   0.667   2.038   0.394  0.2216 -0.7295 -0.3857
  939SOL    HW1 2816   0.743   2.045   0.467  0.3084  1.9899 -0.2144
  939SOL    HW2 2817   0.714   1.992   0.316  1.7913  1.6501  2.3171
  940SOL     OW 2818   2.823   0.196   2.946  0.0543 -0.2391  0.1174
  940SOL    HW1 2819   2.913   0.190   2.986 -0.7347 -0.9897 -1.0274
  940SOL    HW2 2820   2.822   0.232   2.853  1.9451 -1.6859  2.4118
  941SOL     OW 2821   1.141   0.286   3.047  0.8424  0.1047  0.0307
  941SOL    HW1 2822   1.143   0.189   3.079 -2.5408 -2.3837 -0.7037
  941SOL    HW2 2823   1.205   0.346   3.098 -2.5705  1.0137  1.1616
  942SOL     OW 2824   1.058   1.413   1.681  0.6535  0.0726  0.0214
  942SOL    HW1 2825   0.979   1.341   1.682 -4.2922 -0.7383  1.6128
  942SOL    HW2 2826   1.026   1.504   1.646  1.3689 -0.3195 -1.2957
  943SOL     OW 2827   1.854   1.099   1.479  0.4357 -0.0709 -0.2591
  943SOL    HW1 2828   1.778   1.038   1.516 -1.7512 -4.0328 -0.1677
  943SOL    HW2 2829   1.901   1.065   1.397  2.4378  1.3129  1.6540
  944SOL     OW 2830   1.900   0.552   1.585  0.2305 -0.2474 -0.3875
  944SOL    HW1 2831   1.881   0.510   1.488 -0.1251 -1.7073 -3.3409
  944SOL    HW2 2832   1.979   0.503   1.628  3.4308 -0.3704  1.9097
  945SOL     OW 2833   2.983   0.017   0.837 -0.2457  0.4258 -0.1568
  945SOL    HW1 2834   2.915   0.078   0.790 -0.6418  0.6914 -1.3627
  945SOL    HW2 2835   3.072   0.068   0.847 -0.1353  1.1223  2.3392
  946SOL     OW 2836   0.427   0.511   1.592 -0.4137  0.0795 -0.0873
  946SOL    HW1 2837   0.508   0.458   1.621  0.3118  2.3743 -4.2365
  946SOL    HW2 2838   0.444   0.612   1.583 -2.9635 -1.2539 -0.6437
  947SOL     OW 2839   0.551   0.181   0.280 -0.0661 -0.4962  0.3069
  947SOL    HW1 2840   0.467   0.138   0.243  2.3010  2.1183  1.2716
  947SOL    HW2 2841   0.548   0.204   0.376  1.9401 -0.0983  0.6959
  948SOL     OW 2842   2.895   1.194   1.556 -0.2531  0.0036 -0.1452
  948SOL    HW1 2843   2.922   1.204   1.657  2.0469  0.5138 -2.1673
  948SOL    HW2 2844   2.981   1.183   1.503 -0.0419 -0.6344  0.6753
  949SOL     OW 2845   0.588   1.140   2.708  0.2267 -0.8252 -0.2562
  949SOL    HW1 2846   0.518   1.100   2.767  0.9682 -0.9215 -1.6689
  949SOL    HW2 2847   0.664   1.065   2.700  0.9858 -1.9346  0.8317
  950SOL     OW 2848   1.057   0.753   0.915  0.3156  0.3431  0.6688
  950SOL    HW1 2849   1.156   0.765   0.912  0.8008 -0.8351 -0.8008
  950SOL    HW2 2850   1.020   0.717   0.827 -0.7293  2.3424  0.5827
  951SOL     OW 2851   1.064   1.912   2.085 -0.0930 -0.3664 -0.0270
  951SOL    HW1 2852   1.093   2.007   2.060 -0.0746  1.6336  1.9330
  951SOL    HW2 2853   1.086   1.891   2.177 -1.5294 -0.9641 -1.0212
  952SOL     OW 2854   0.803   1.913   0.204  0.5173  0.2008 -0.6702
  952SOL    HW1 2855   0.893   1.893   0.248 -0.1632  0.3249  1.8665
  952SOL    HW2 2856   0.776   1.819   0.167  1.0924 -0.3911  1.9306
  953SOL     OW 2857   2.088   2.975   2.273  0.3086  0.0700  0.3774
  953SOL    HW1 2858   2.165   2.928   2.223 -0.8527  1.0845  1.9745
  953SOL    HW2 2859   2.067   3.069   2.244  0.2661 -2.5209  0.1751
  954SOL     OW 2860   1.620   1.158   0.692  0.0092 -0.1680 -0.0641
  954SOL    HW1 2861   1.651   1.194   0.603 -0.5042  0.3579  1.7179
  954SOL    HW2 2862   1.520   1.183   0.706  2.3479  1.1796  1.1128
  955SOL     OW 2863   0.353   2.542   2.431  0.2489  0.0174  0.1313
  955SOL    HW1 2864   0.307   2.563   2.340  0.4374 -2.0864 -0.1256
  955SOL    HW2 2865   0.336   2.614   2.497  0.9525 -2.6999 -1.2404
  956SOL     OW 2866   1.830   0.166   1.596 -0.2657 -0.0506  0.5080
  956SOL    HW1 2867   1.908   0.172   1.662 -0.2046  1.3331  0.2911
  956SOL    HW2 2868   1.743   0.188   1.646 -0.9598 -1.0088  2.0364
  957SOL     OW 2869   1.693   1.980   2.589  0.8300 -0.1972 -0.5235
  957SOL    HW1 2870   1.646   1.902   2.543 -0.0186  2.6150 -0.7216
  957SOL    HW2 2871   1.667   1.976   2.688 -1.2002 -4.1656  0.4151
  958SOL     OW 2872   1.196   2.335   1.293  0.6596  0.1800 -0.4145
  958SOL    HW1 2873   1.178   2.232   1.277  1.5366 -1.3002  0.5332
  958SOL    HW2 2874   1.293   2.364   1.277  1.9503 -0.8537 -2.1485
  959SOL     OW 2875   1.916   2.414   0.002  0.1808 -0.0293  0.1951
  959SOL    HW1 2876   1.925   2.333   0.060  0.8591 -0.4202 -1.0651
  959SOL    HW2 2877   1.856   2.397   3.028 -0.7381 -0.1320 -1.2386
  960SOL     OW 2878   0.030   0.387   2.733 -0.5381 -0.2715  0.0769
  960SOL    HW1 2879   0.102   0.316   2.713  0.7791 -1.6201 -1.6997
  960SOL    HW2 2880   0.069   0.457   2.795 -1.8106  1.8388 -0.9114
  961SOL     OW 2881   0.775   0.948   2.737  0.2175 -0.1552  0.4300
  961SOL    HW1 2882   0.856   0.964   2.801 -3.4991 -0.9801  1.2522
  961SOL    HW2 2883   0.781   0.855   2.693 -1.0999 -1.7477 -0.2407
  962SOL     OW 2884   1.138   1.262   2.887 -0.1606 -0.7317  0.0019
  962SOL    HW1 2885   1.168   1.236   2.792  1.8923 -1.3476 -0.2639
  962SOL    HW2 2886   1.218   1.264   2.953  1.1543 -1.9164  4.2037
  963SOL     OW 2887   2.424   1.895   0.030 -0.2801 -0.4504 -0.2461
  963SOL    HW1 2888   2.511   1.852   0.062  0.9465 -3.7394  1.5719
  963SOL    HW2 2889   2.401   1.851   3.051  4.4615 -1.9620  2.1122
  964SOL     OW 2890   1.260   2.494   0.972  0.3327  0.9911  0.4693
  964SOL    HW1 2891   1.265   2.556   0.895  0.5021 -0.7957  1.9781
  964SOL    HW2 2892   1.212   2.534   1.053  0.6898  0.1947 -1.0870
  965SOL     OW 2893   0.964   1.703   0.908 -0.2980  0.1345  0.4444
  965SOL    HW1 2894   0.959   1.702   1.010 -1.6021  2.5422 -0.2469
  965SOL    HW2 2895   1.037   1.643   0.875  0.9731 -0.3966 -0.4326
  966SOL     OW 2896   3.087   1.516   3.005  0.0566  0.3002  0.3558
  966SOL    HW1 2897   3.093   1.615   2.979 -0.8430 -2.5956  2.0449
  966SOL    HW2 2898   3.073   1.508   3.106 -3.1345 -2.3487 -0.0262
  967SOL     OW 2899   1.833   0.267   1.949  0.2048 -0.0078 -0.4780
  967SOL    HW1 2900   1.804   0.209   2.030  2.2179  1.3045  0.9829
  967SOL    HW2 2901   1.928   0.242   1.926  0.7885  1.9188 -2.8314
  968SOL     OW 2902   1.725   0.826   0.697 -0.4776  0.0059  0.0681
  968SOL    HW1 2903   1.778   0.905   0.730 -0.7424 -1.9369  3.4069
  968SOL    HW2 2904   1.672   0.846   0.612  3.3215 -0.3363  3.0278
  969SOL     OW 2905   0.201   1.317   2.273  0.5010  0.0478 -0.3586
  969SOL    HW1 2906   0.130   1.329   2.202  1.8435 -1.5183  1.2179
  969SOL    HW2 2907   0.264   1.395   2.287  0.8916  2.1252  0.0320
  970SOL     OW 2908   2.383   1.157   0.816  0.1841 -0.4252  0.6920
  970SOL    HW1 2909   2.483   1.157   0.832 -0.6489 -0.6005  0.2862
  970SOL    HW2 2910   2.357   1.097   0.738 -1.4948 -1.1974  1.9573
  971SOL     OW 2911   0.353   0.231   1.355 -0.3568  0.0252 -0.0719
  971SOL    HW1 2912   0.306   0.309   1.305 -1.0633 -1.2656  1.3815
  971SOL    HW2 2913   0.306   0.140   1.340 -2.8844 -3.9953  0.8936
  972SOL     OW 2914   0.429   0.801   2.717 -0.2433 -0.4617 -0.2659
  972SOL    HW1 2915   0.415   0.887   2.772 -0.7636  2.3707  3.7280
  972SOL    HW2 2916   0.478   0.817   2.630 -0.5499  0.8681  1.0177
  973SOL     OW 2917   0.292   0.986   1.069  0.1617 -0.0992  0.2268
  973SOL    HW1 2918   0.217   1.058   1.099 -2.4751  0.1231  0.2831
  973SOL    HW2 2919   0.387   0.999   1.110  0.8197 -0.8853 -1.6907
  974SOL     OW 2920   2.300   0.879   1.923 -0.6069 -0.0702  0.5449
  974SOL    HW1 2921   2.227   0.900   1.858 -0.6181 -1.1093  2.2133
  974SOL    HW2 2922   2.390   0.902   1.878 -0.0832  2.9727 -2.3450
  975SOL     OW 2923   2.507   2.988   0.012 -0.7810 -0.0052  0.3191
  975SOL    HW1 2924   2.442   2.932   3.074  0.0757 -0.5586  0.4773
  975SOL    HW2 2925   2.469   3.036   0.096  0.7581 -0.9979 -0.2114
  976SOL     OW 2926   0.040   1.158   1.529  0.0475 -0.4993 -0.4235
  976SOL    HW1 2927   0.042   1.259   1.499 -0.7251  0.2678 -2.7099
  976SOL    HW2 2928   0.078   1.147   1.627  3.0948 -0.6464  1.0949
  977SOL     OW 2929   0.982   2.821   0.109  0.3752  0.1995 -0.7827
  977SOL    HW1 2930   0.966   2.917   0.082 -0.3562  0.5405  1.7697
  977SOL    HW2 2931   0.896   2.766   0.097 -2.1831  0.5014 -0.3979
  978SOL     OW 2932   0.772   1.669   0.107  0.0622 -0.7266  0.2148
  978SOL    HW1 2933   0.701   1.601   0.089  0.3051 -0.4327 -0.9032
  978SOL    HW2 2934   0.859   1.626   0.134 -1.4910 -0.4513  1.0551
  979SOL     OW 2935   1.509   1.729   1.336  0.0750  0.1067 -0.5449
  979SOL    HW1 2936   1.516   1.742   1.434  0.2004 -0.8919  1.6491
  979SOL    HW2 2937   1.555   1.643   1.307 -1.2034 -0.8131  1.1647
  980SOL     OW 2938   0.385   1.473   1.885  0.4835  0.2379  0.1880
  980SOL    HW1 2939   0.440   1.540   1.944  0.5081 -1.3883  2.5249
  980SOL    HW2 2940   0.435   1.460   1.792  2.0957 -1.0837  0.3552
  981SOL     OW 2941   0.008   1.503   0.174  0.0193  0.1370 -0.0111
  981SOL    HW1 2942   3.091   1.559   0.259 -1.9032  2.2745  0.3362
  981SOL    HW2 2943   0.102   1.459   0.184  0.6082 -1.0681  0.4425
  982SOL     OW 2944   2.514   2.620   2.486 -0.2676 -0.2224  0.0345
  982SOL    HW1 2945   2.438   2.557   2.499  3.2778  2.5267 -0.1276
  982SOL    HW2 2946   2.485   2.707   2.445  0.6631 -1.6264  1.5878
  983SOL     OW 2947   1.150   0.561   1.371 -0.1331  0.1921  0.9910
  983SOL    HW1 2948   1.251   0.548   1.352  0.9213 -1.4042 -0.5130
  983SOL    HW2 2949   1.093   0.484   1.337 -1.0545 -1.0497  1.7957
  984SOL     OW 2950   1.018   0.034   2.670 -0.0144  0.3494 -0.0515
  984SOL    HW1 2951   1.083   0.107   2.694 -2.5196 -0.0927  3.1695
  984SOL    HW2 2952   0.985   0.035   2.573 -0.1137 -1.4075  1.1396
  985SOL     OW 2953   1.624   2.408   1.591 -0.3758  0.5473 -0.3019
  985SOL    HW1 2954   1.547   2.473   1.595  0.2470  0.0959  0.5226
  985SOL    HW2 2955   1.639   2.363   1.499 -2.1935 -0.9076 -0.3873
  986SOL     OW 2956   2.457   0.208   2.199 -0.5531  0.0051  0.4425
  986SOL    HW1 2957   2.434   0.292   2.248  1.6881 -3.8223 -0.1376
  986SOL    HW2 2958   2.495   0.218   2.107  1.1156 -2.2724  0.2911
  987SOL     OW 2959   2.698   0.616   2.392  0.0332 -0.2492  0.5252
  987SOL    HW1 2960   2.768   0.592   2.323 -1.6331  1.8080  0.2443
  987SOL    HW2 2961   2.612   0.647   2.345  1.2548 -1.3269  1.5581
  988SOL     OW 2962   2.485   0.783   2.753  0.1722 -0.2638 -0.2162
  988SOL    HW1 2963   2.389   0.750   2.767 -1.5937 -1.1605  3.2298
  988SOL    HW2 2964   2.492   0.858   2.686  0.8609 -0.6456  3.1502
  989SOL     OW 2965   2.394   1.814   2.011 -0.5297 -0.1334 -0.2557
  989SOL    HW1 2966   2.324   1.796   2.082 -3.7485  1.2695  1.6895
  989SOL    HW2 2967   2.483   1.838   2.056 -0.7468 -0.6645  2.7033
  990SOL     OW 2968   0.260   1.175   2.650  0.1079 -0.1307  0.0207
  990SOL    HW1 2969   0.219   1.258   2.607  0.3065 -1.8081  0.1713
  990SOL    HW2 2970   0.359   1.191   2.654 -1.0819  0.1238 -0.1178
  991SOL     OW 2971   0.704   1.820   2.897 -0.1622 -0.0185 -0.7199
  991SOL    HW1 2972   0.612   1.821   2.858  0.5610 -0.8472 -0.0108
  991SOL    HW2 2973   0.726   1.890   2.969 -0.2732 -0.7012  2.4424
  992SOL     OW 2974   2.943   1.794   1.906  0.5872 -0.1240  0.4647
  992SOL    HW1 2975   2.871   1.856   1.864  1.0961  2.7901 -0.4184
  992SOL    HW2 2976   3.009   1.856   1.954 -0.3919  2.1170 -0.1700
  993SOL     OW 2977   0.358   0.044   0.697  0.0691  0.2643  0.1800
  993SOL    HW1 2978   0.418   3.099   0.760 -1.6554  4.4210  2.4152
  993SOL    HW2 2979   0.412   0.118   0.651 -1.0488 -0.4084  0.5430
  994SOL     OW 2980   0.427   1.774   1.444  0.1316  0.3851  0.1008
  994SOL    HW1 2981   0.526   1.774   1.458 -1.8708 -0.3483 -1.8627
  994SOL    HW2 2982   0.382   1.857   1.488  0.6154  1.1842  0.2101
  995SOL     OW 2983   2.191   1.463   2.685 -0.8914 -0.1426 -0.0292
  995SOL    HW1 2984   2.127   1.536   2.697  3.3467 -1.7007 -0.4193
  995SOL    HW2 2985   2.282   1.491   2.714 -0.9806 -0.5269 -1.5557
  996SOL     OW 2986   2.074   1.266   2.839  0.2190 -0.1732 -0.1424
  996SOL    HW1 2987   2.116   1.346   2.793 -1.0038 -1.4396 -0.2597
  996SOL    HW2 2988   1.988   1.243   2.790 -3.2016  1.8331  0.0474
  997SOL     OW 2989   1.881   0.782   1.710 -0.5086  1.0480 -0.8494
  997SOL    HW1 2990   1.914   0.701   1.655 -1.6082  1.4651  1.0922
  997SOL    HW2 2991   1.795   0.814   1.671  1.3648 -1.5259  3.5167
  998SOL     OW 2992   2.164   2.132   1.005  0.2260  0.2458  0.5545
  998SOL    HW1 2993   2.220   2.045   0.990  1.1629 -0.9605  1.3893
  998SOL    HW2 2994   2.199   2.184   1.083 -0.1986 -2.8269  0.8869
  999SOL     OW 2995   2.484   2.310   0.685  0.3269 -0.6200  0.0430
  999SOL    HW1 2996   2.491   2.397   0.737 -1.1078 -2.2275 -2.3978
  999SOL    HW2 2997   2.401   2.258   0.712  0.3767  0.3957 -0.0478
 1000SOL     OW 2998   0.928   2.919   2.834 -0.3826 -0.1860 -0.4376
 1000SOL    HW1 2999   0.955   2.981   2.757 -2.2904  0.8897 -1.9825
 1000SOL    HW2 3000   1.013   2.866   2.868  1.8744 -2.3904 -0.2466
   3.10865   3.10865   3.10865
