1000 SPC/Fw water molecules t= 363.00000 step= 363000
 3000
    1SOL     OW    1   2.448   2.835   1.593 -0.3162  0.0860  0.4904
    1SOL    HW1    2   2.376   2.863   1.662 -1.0881  1.7067 -3.1404
    1SOL    HW2    3   2.464   2.905   1.520 -1.0839  2.3049 -1.8203
    2SOL     OW    4   2.514   2.335   0.679  0.2965 -0.4398  0.8234
    2SOL    HW1    5   2.579   2.356   0.748 -1.4508 -1.6715 -1.2388
    2SOL    HW2    6   2.525   2.387   0.589  1.0006 -1.2252  0.4538
    3SOL     OW    7   1.354   0.101   0.115 -0.0596  0.1311 -0.2630
    3SOL    HW1    8   1.405   0.155   0.050  0.5284 -1.1559 -0.7966
    3SOL    HW2    9   1.275   0.055   0.068  0.1275 -0.3212  1.7302
    4SOL     OW   10   1.504   2.751   2.225  0.3032 -0.2519 -0.6797
    4SOL    HW1   11   1.478   2.839   2.270  0.0137 -2.9349 -1.9400
    4SOL    HW2   12   1.473   2.748   2.129 -1.0547 -2.1026  1.9329
    5SOL     OW   13   2.195   0.358   1.808 -0.3670 -0.0440  0.3951
    5SOL    HW1   14   2.253   0.444   1.799  1.9198 -0.2468  0.1378
    5SOL    HW2   15   2.103   0.374   1.846  1.4752  0.7693  1.1638
    6SOL     OW   16   2.247   2.507   0.445 -0.5704  0.8072 -0.0829
    6SOL    HW1   17   2.181   2.562   0.496 -0.2509 -3.2192 -4.2888
    6SOL    HW2   18   2.349   2.529   0.466 -1.9210  0.2738  1.1494
    7SOL     OW   19   1.882   1.028   1.123 -0.2715  0.0830 -0.2011
    7SOL    HW1   20   1.845   1.048   1.032  1.0947  2.6501 -1.7825
    7SOL    HW2   21   1.824   1.086   1.182  1.1402 -0.3879 -0.3192
    8SOL     OW   22   0.855   1.560   1.265  0.3484 -0.0671 -0.4527
    8SOL    HW1   23   0.755   1.556   1.253 -0.6237  0.3646 -3.0783
    8SOL    HW2   24   0.906   1.571   1.172  0.9605  2.0678 -2.4279
    9SOL     OW   25   1.099   2.360   1.847 -0.2897  0.2706 -0.7072
    9SOL    HW1   26   1.031   2.437   1.850  0.1308  0.9423  0.6607
    9SOL    HW2   27   1.087   2.303   1.763  1.2041 -0.2542 -0.1182
   10SOL     OW   28   0.886   2.348   0.825 -0.1701  0.0980  0.3823
   10SOL    HW1   29   0.807   2.398   0.865 -2.2640 -0.6641 -0.4061
   10SOL    HW2   30   0.860   2.321   0.727 -0.6701  1.5801 -1.7103
   11SOL     OW   31   1.545   1.852   1.302 -0.7003  0.2071 -0.3084
   11SOL    HW1   32   1.512   1.935   1.348  0.9091 -0.5593 -2.2874
   11SOL    HW2   33   1.623   1.869   1.241 -0.9980 -1.7324  4.1881
   12SOL     OW   34   2.584   0.350   2.373  0.0280 -0.5346  0.8957
   12SOL    HW1   35   2.583   0.372   2.272  0.4301  2.2167  1.5592
   12SOL    HW2   36   2.655   0.411   2.417  1.4240 -0.2175  0.2678
   13SOL     OW   37   2.627   3.052   0.558  0.3982 -0.4324  0.7510
   13SOL    HW1   38   2.597   3.036   0.655  2.1983  0.1344 -0.7333
   13SOL    HW2   39   2.717   3.007   0.533 -0.7351 -1.6259 -1.3737
   14SOL     OW   40   1.662   1.628   2.739  0.0286 -0.2461 -0.3328
   14SOL    HW1   41   1.738   1.570   2.774 -2.0190 -0.7839 -0.5925
   14SOL    HW2   42   1.597   1.659   2.813  2.5153  0.9302  2.5544
   15SOL     OW   43   2.522   2.486   1.494  0.1045 -0.2963 -0.2255
   15SOL    HW1   44   2.492   2.415   1.559 -0.7851  2.3478 -1.6175
   15SOL    HW2   45   2.570   2.566   1.540  1.6567 -0.9179 -0.1290
   16SOL     OW   46   2.283   2.800   0.302 -0.1280  0.4021 -0.1404
   16SOL    HW1   47   2.271   2.796   0.403  1.2797 -0.3574 -2.3387
   16SOL    HW2   48   2.379   2.782   0.275  0.2149  0.1506  0.2893
   17SOL     OW   49   0.870   0.493   1.013  0.5321 -0.0515 -0.1319
   17SOL    HW1   50   0.789   0.467   0.956  2.6199 -2.5147  1.2411
   17SOL    HW2   51   0.850   0.576   1.068  0.3864 -0.4755 -1.4507
   18SOL     OW   52   1.997   0.484   0.490  0.7687 -0.3292  0.7985
   18SOL    HW1   53   1.957   0.449   0.581 -0.6481 -0.9118 -1.1824
   18SOL    HW2   54   1.976   0.411   0.421  0.4631 -0.2904 -1.0236
   19SOL     OW   55   2.022   1.376   0.075  0.9532  0.6259  0.3482
   19SOL    HW1   56   2.052   1.408   3.083 -0.8188 -1.3338 -2.1472
   19SOL    HW2   57   1.988   1.445   0.143 -2.6954  1.1918 -0.0528
   20SOL     OW   58   2.527   1.542   2.365  0.5285  0.4721 -0.2317
   20SOL    HW1   59   2.555   1.610   2.290  0.8270  0.9087  0.2021
   20SOL    HW2   60   2.510   1.452   2.316 -2.2502  0.0682  0.2389
   21SOL     OW   61   1.470   0.344   0.589  0.4906 -0.2310  0.1047
   21SOL    HW1   62   1.433   0.287   0.668  0.7727 -0.1764 -0.7475
   21SOL    HW2   63   1.408   0.337   0.509  0.2654 -0.8591  1.2710
   22SOL     OW   64   2.818   0.410   1.451 -0.1674  0.5625 -0.1796
   22SOL    HW1   65   2.771   0.500   1.435  0.2973 -0.8869 -0.8859
   22SOL    HW2   66   2.821   0.356   1.364 -2.8299  2.2546  0.9289
   23SOL     OW   67   0.317   0.298   1.811 -0.6671 -0.2418 -0.1985
   23SOL    HW1   68   0.356   0.396   1.797  0.3344  0.3099  3.0260
   23SOL    HW2   69   0.215   0.308   1.822 -0.9816  3.5402  1.3721
   24SOL     OW   70   2.537   2.773   0.226  0.0828  0.0883 -0.2369
   24SOL    HW1   71   2.631   2.743   0.229 -3.3271 -2.7296 -3.0377
   24SOL    HW2   72   2.520   2.876   0.236  1.3223  2.9472 -2.2106
   25SOL     OW   73   0.987   2.892   2.898  0.2055  0.3417 -0.8152
   25SOL    HW1   74   0.924   2.848   2.829 -1.4710 -1.7696  0.2539
   25SOL    HW2   75   0.999   2.989   2.865  0.9442  1.2466 -3.7025
   26SOL     OW   76   1.344   2.538   0.410 -0.3765  0.2283 -0.1397
   26SOL    HW1   77   1.374   2.442   0.394 -0.4773 -4.3046 -1.2003
   26SOL    HW2   78   1.423   2.590   0.444 -1.0638  0.9450  2.9792
   27SOL     OW   79   2.171   0.833   0.972  0.2276 -0.1900 -0.8289
   27SOL    HW1   80   2.155   0.907   1.039  0.3947 -3.0406 -2.7671
   27SOL    HW2   81   2.245   0.774   1.005 -1.6459 -0.9412  0.2948
   28SOL     OW   82   0.967   1.582   1.031 -0.1559  0.0592  0.2143
   28SOL    HW1   83   0.969   1.658   0.967 -0.5959 -1.2528 -1.0669
   28SOL    HW2   84   0.998   1.491   0.999  2.5302  0.8011  1.4538
   29SOL     OW   85   3.043   2.891   1.864  0.4867 -0.4130 -0.2876
   29SOL    HW1   86   0.010   2.949   1.915  0.7659  0.6186  0.9862
   29SOL    HW2   87   2.975   2.942   1.814 -0.4756 -3.2856  1.5439
   30SOL     OW   88   1.251   0.101   1.285  0.2125  0.0297  0.8248
   30SOL    HW1   89   1.161   0.074   1.244 -0.5486 -1.0311  2.7376
   30SOL    HW2   90   1.248   0.103   1.386 -0.8133  0.5908  1.9300
   31SOL     OW   91   1.759   2.660   2.324 -0.2707  0.6502 -0.0034
   31SOL    HW1   92   1.659   2.662   2.304  0.3673 -2.3667 -1.3435
   31SOL    HW2   93   1.795   2.752   2.315 -1.9430 -2.1381  0.5658
   32SOL     OW   94   0.960   1.431   3.031 -0.9473 -0.0751 -1.2375
   32SOL    HW1   95   1.028   1.470   2.964 -1.2548  1.9852  0.0258
   32SOL    HW2   96   0.979   1.480   0.024  1.3420  1.1595  0.4189
   33SOL     OW   97   2.948   0.958   2.430 -0.4983 -0.3974 -0.4558
   33SOL    HW1   98   2.965   0.899   2.350 -1.1676  0.2050  1.5009
   33SOL    HW2   99   3.004   0.919   2.511 -2.0634 -3.0441  1.1756
   34SOL     OW  100   1.971   3.037   0.527  0.2377 -0.4490 -0.3215
   34SOL    HW1  101   1.968   0.020   0.589  0.3517  0.4300  1.6578
   34SOL    HW2  102   2.057   2.982   0.544 -1.6781  1.4296  0.0017
   35SOL     OW  103   2.557   2.395   1.878 -0.2816  0.0990 -0.1313
   35SOL    HW1  104   2.608   2.339   1.947  1.4278 -0.9662 -2.4604
   35SOL    HW2  105   2.595   2.492   1.885 -0.8828 -0.1159 -1.1179
   36SOL     OW  106   2.397   2.131   2.814  0.8100 -0.1211 -0.2723
   36SOL    HW1  107   2.433   2.221   2.782 -0.0987 -0.0705 -2.0472
   36SOL    HW2  108   2.459   2.084   2.885  0.0239 -1.2363 -0.0886
   37SOL     OW  109   1.942   0.373   1.916  0.3020 -0.2525  0.1945
   37SOL    HW1  110   1.933   0.275   1.898 -0.6330  0.2415  2.6124
   37SOL    HW2  111   1.862   0.428   1.885  1.3009 -1.8955 -1.8557
   38SOL     OW  112   0.022   0.530   2.905 -0.4411 -0.3422  0.4899
   38SOL    HW1  113   3.056   0.483   2.848 -0.4098 -2.3157 -0.9098
   38SOL    HW2  114   0.041   0.484   2.994  2.4403 -4.6395  0.6884
   39SOL     OW  115   1.977   1.221   1.762 -0.5604  0.3928 -0.6457
   39SOL    HW1  116   2.036   1.207   1.844  0.9821  0.2302 -1.3656
   39SOL    HW2  117   1.957   1.321   1.752 -2.5219  1.5464  0.8769
   40SOL     OW  118   1.177   2.168   0.509 -0.1007 -0.2156  0.0205
   40SOL    HW1  119   1.199   2.124   0.599  1.2752 -1.4367 -0.3029
   40SOL    HW2  120   1.093   2.124   0.469 -2.0207  1.5589 -0.8261
   41SOL     OW  121   1.825   1.705   0.974  0.1013 -0.1164  0.6747
   41SOL    HW1  122   1.896   1.771   1.002  0.6647 -1.6336  0.2975
   41SOL    HW2  123   1.798   1.722   0.877 -2.4676 -0.9790  0.0887
   42SOL     OW  124   0.467   0.191   1.134 -0.2857 -0.0418 -0.2332
   42SOL    HW1  125   0.446   0.134   1.214  0.5397 -1.8765 -1.2337
   42SOL    HW2  126   0.494   0.284   1.166 -1.6916  0.1557  0.2131
   43SOL     OW  127   0.045   1.636   2.364 -0.6153  0.2190 -1.9362
   43SOL    HW1  128   0.091   1.637   2.456  2.3808  0.9250  1.5302
   43SOL    HW2  129   3.070   1.570   2.370 -0.1230  0.3569  1.9398
   44SOL     OW  130   2.203   2.701   1.457 -0.0327 -0.2382 -0.8065
   44SOL    HW1  131   2.139   2.676   1.532  2.0707  0.5940 -2.0742
   44SOL    HW2  132   2.296   2.718   1.494 -0.6699 -1.9942  1.1912
   45SOL     OW  133   1.037   0.059   2.587  0.1438 -0.2058 -0.1705
   45SOL    HW1  134   1.101   3.093   2.629  1.9606  2.0063  1.7132
   45SOL    HW2  135   1.033   0.050   2.488 -1.2027 -1.1629 -0.1914
   46SOL     OW  136   0.822   2.783   2.688  0.3304 -0.1415  0.0499
   46SOL    HW1  137   0.803   2.864   2.631 -1.3275 -0.4112  1.5723
   46SOL    HW2  138   0.783   2.695   2.650  0.5858  2.7399  1.0243
   47SOL     OW  139   0.695   2.019   0.795  0.5323 -0.0382  0.2725
   47SOL    HW1  140   0.745   2.025   0.885 -1.9964 -0.3588  0.3752
   47SOL    HW2  141   0.721   2.099   0.739  0.2454  1.4585 -1.5975
   48SOL     OW  142   1.401   2.720   1.003  0.1150  0.4949  0.1702
   48SOL    HW1  143   1.358   2.636   0.959  1.3649 -2.2894 -1.1698
   48SOL    HW2  144   1.397   2.709   1.105  0.3530  3.8601 -2.3644
   49SOL     OW  145   2.255   0.210   3.031  0.4915  0.0447 -0.1490
   49SOL    HW1  146   2.323   0.156   2.976 -1.3300 -0.4101  3.5215
   49SOL    HW2  147   2.206   0.282   2.980  1.7926 -0.1119  0.1889
   50SOL     OW  148   1.690   0.197   0.269  0.0217 -0.0620  0.1378
   50SOL    HW1  149   1.730   0.152   0.187 -2.9545  1.1098  1.4961
   50SOL    HW2  150   1.640   0.281   0.248  0.6607  0.0637  0.2686
   51SOL     OW  151   2.228   0.553   1.273  0.1091 -0.4473 -0.3626
   51SOL    HW1  152   2.178   0.631   1.314  0.9730 -2.9786 -0.8273
   51SOL    HW2  153   2.288   0.512   1.343  0.0590  2.8925 -1.0877
   52SOL     OW  154   0.650   1.637   0.162 -0.0028 -0.1518 -0.0070
   52SOL    HW1  155   0.655   1.580   0.076  2.2247  1.5818 -2.0658
   52SOL    HW2  156   0.746   1.656   0.193 -2.5196  0.7944 -1.2276
   53SOL     OW  157   0.277   1.424   2.734 -0.4946 -0.1406  0.4401
   53SOL    HW1  158   0.226   1.360   2.677  0.5541  1.8853 -0.3551
   53SOL    HW2  159   0.358   1.380   2.783  3.0452  0.2867  0.0945
   54SOL     OW  160   2.721   1.091   1.756 -0.1034  0.1857 -0.6251
   54SOL    HW1  161   2.723   1.055   1.847  0.0452 -0.5295  0.3406
   54SOL    HW2  162   2.810   1.137   1.732 -0.0091 -1.3615 -0.0295
   55SOL     OW  163   2.301   1.943   0.316 -0.2229  0.2737 -0.3628
   55SOL    HW1  164   2.397   1.976   0.302 -3.3720  0.1724  0.0666
   55SOL    HW2  165   2.295   1.875   0.393  1.7098 -0.6623  1.1659
   56SOL     OW  166   1.893   0.011   1.554  0.3259 -0.4346 -0.8985
   56SOL    HW1  167   1.864   3.062   1.639 -2.1697 -2.4478  1.1785
   56SOL    HW2  168   1.919   3.048   1.481  3.0028 -0.5430  0.2154
   57SOL     OW  169   1.485   1.259   2.741 -0.2133  0.1669  0.2128
   57SOL    HW1  170   1.557   1.200   2.772  0.3073  3.7031 -1.7949
   57SOL    HW2  171   1.519   1.308   2.662  0.0274  0.1428 -2.8566
   58SOL     OW  172   0.251   0.526   1.350  0.5278  0.2031  0.0310
   58SOL    HW1  173   0.185   0.528   1.430  4.2519  0.1664 -0.1533
   58SOL    HW2  174   0.207   0.502   1.257 -0.1474 -2.6688 -3.4842
   59SOL     OW  175   1.305   2.647   0.150 -0.4350  0.0235 -0.0705
   59SOL    HW1  176   1.291   2.600   0.239 -0.6796  1.4993  1.1250
   59SOL    HW2  177   1.213   2.662   0.105  1.6296 -2.7107 -1.8081
   60SOL     OW  178   0.139   2.100   2.916 -0.0186  0.0637 -0.6612
   60SOL    HW1  179   0.228   2.057   2.913 -2.9088 -1.8333  1.0060
   60SOL    HW2  180   0.139   2.197   2.881  2.1321 -0.1109 -2.0146
   61SOL     OW  181   0.972   2.441   1.184 -0.3015  0.5434  0.2741
   61SOL    HW1  182   0.955   2.362   1.250 -3.0219 -1.3104  0.9600
   61SOL    HW2  183   0.957   2.527   1.236  1.1758  1.4152  0.2829
   62SOL     OW  184   1.823   1.794   2.592  0.0864  0.2260 -0.6026
   62SOL    HW1  185   1.778   1.728   2.658  0.6458  0.2817  1.9459
   62SOL    HW2  186   1.860   1.877   2.640  0.2941  1.8528 -2.2604
   63SOL     OW  187   2.063   1.862   0.214 -0.1699 -0.8299  0.0003
   63SOL    HW1  188   2.021   1.912   0.135  0.4021 -1.4114  0.9441
   63SOL    HW2  189   2.151   1.909   0.244  0.8060 -0.4603  0.1746
   64SOL     OW  190   2.020   1.121   0.136  0.0839 -0.2971 -0.3107
   64SOL    HW1  191   2.043   1.217   0.096  3.8780  2.3047  1.0295
   64SOL    HW2  192   2.104   1.065   0.135 -0.5491  0.5814 -0.0413
   65SOL     OW  193   2.294   1.723   2.164  0.0459 -0.9466  0.2695
   65SOL    HW1  194   2.238   1.672   2.231  0.2660  1.4996  0.3060
   65SOL    HW2  195   2.391   1.705   2.170 -1.2952  0.1297  2.6923
   66SOL     OW  196   0.639   1.018   1.229  0.2008 -0.2185  0.8354
   66SOL    HW1  197   0.643   0.950   1.303 -0.7496  1.6952 -2.4319
   66SOL    HW2  198   0.584   0.993   1.149 -0.1214 -1.2446 -2.1165
   67SOL     OW  199   1.923   0.115   2.659  0.3814  0.0525 -0.1116
   67SOL    HW1  200   1.891   0.207   2.685 -0.4359  1.1709 -0.7243
   67SOL    HW2  201   1.942   0.113   2.559 -1.1218 -0.5475 -0.8913
   68SOL     OW  202   1.439   2.058   1.424 -0.4144 -0.2653 -0.0695
   68SOL    HW1  203   1.351   2.062   1.382  1.5556 -1.5637  1.8464
   68SOL    HW2  204   1.474   2.150   1.452  2.9770  2.8310 -1.4180
   69SOL     OW  205   0.499   2.533   0.075  0.1893 -0.3624 -0.4440
   69SOL    HW1  206   0.466   2.442   0.105 -0.2920  3.8036 -1.8425
   69SOL    HW2  207   0.586   2.531   0.022 -0.6010 -0.1912 -0.1981
   70SOL     OW  208   0.242   0.740   2.140  0.0220 -0.2644  0.0378
   70SOL    HW1  209   0.176   0.696   2.077 -0.1774 -0.0954 -1.1367
   70SOL    HW2  210   0.302   0.805   2.095 -3.1489  2.8713 -1.6202
   71SOL     OW  211   0.724   1.315   2.635 -0.6552 -0.1972 -0.3060
   71SOL    HW1  212   0.634   1.322   2.591  0.4506 -0.3646  0.8011
   71SOL    HW2  213   0.750   1.218   2.632  0.9588  0.6242 -1.1555
   72SOL     OW  214   2.989   1.718   2.136 -0.2146  0.3103 -0.3583
   72SOL    HW1  215   3.028   1.706   2.227 -0.6345 -1.0778 -0.7760
   72SOL    HW2  216   2.966   1.814   2.116  1.1708  0.2457  0.8319
   73SOL     OW  217   1.579   1.621   0.249  0.4544  0.4686 -0.2969
   73SOL    HW1  218   1.637   1.706   0.234  1.7840 -0.9299 -1.6672
   73SOL    HW2  219   1.482   1.642   0.278 -0.4077 -1.0520  2.1268
   74SOL     OW  220   2.458   3.047   2.677 -0.3563 -0.2156  0.1398
   74SOL    HW1  221   2.452   3.040   2.777  0.1693 -1.7129 -1.3165
   74SOL    HW2  222   2.382   0.004   2.636 -0.6863 -0.7090 -1.7435
   75SOL     OW  223   1.724   1.976   1.121  0.4528 -0.6480 -0.2865
   75SOL    HW1  224   1.752   2.072   1.095 -1.7106 -0.1359  1.1624
   75SOL    HW2  225   1.703   1.922   1.042  0.1636  0.6111 -0.6375
   76SOL     OW  226   0.104   1.982   1.832  0.3905 -0.6369 -0.5128
   76SOL    HW1  227   0.061   1.892   1.838 -0.5663 -0.8903  2.0027
   76SOL    HW2  228   0.072   2.038   1.746 -0.7274  1.0694 -1.5599
   77SOL     OW  229   0.131   3.046   1.989  0.6299  0.3320  0.0034
   77SOL    HW1  230   0.207   3.072   1.926 -0.8021  0.0477  0.1858
   77SOL    HW2  231   0.127   0.008   2.074 -0.7173  2.6431 -0.0976
   78SOL     OW  232   2.324   1.009   0.116  0.6382 -0.5379 -0.5785
   78SOL    HW1  233   2.347   1.073   0.043  1.4190 -0.6158  0.9738
   78SOL    HW2  234   2.413   0.991   0.168  0.5285  2.2896  0.5871
   79SOL     OW  235   2.991   1.418   2.415  0.5795  0.1404  0.1394
   79SOL    HW1  236   2.968   1.415   2.514 -0.7744  1.2303 -1.7053
   79SOL    HW2  237   3.065   1.354   2.394 -1.3984 -0.8129 -1.5774
   80SOL     OW  238   1.737   1.289   1.479  0.5747  0.5432  0.7561
   80SOL    HW1  239   1.768   1.199   1.511 -0.9822  2.2233 -2.4250
   80SOL    HW2  240   1.735   1.356   1.558 -0.1992 -0.8702  1.4602
   81SOL     OW  241   2.194   1.081   1.967  0.1361  0.5936 -0.1184
   81SOL    HW1  242   2.104   1.033   1.962  2.7940  0.8782 -1.4211
   81SOL    HW2  243   2.249   1.048   1.889  2.5988  1.0801  2.6596
   82SOL     OW  244   1.732   1.476   1.680 -0.1203  0.0076  0.1664
   82SOL    HW1  245   1.826   1.523   1.687 -1.4762 -0.2169 -0.0288
   82SOL    HW2  246   1.696   1.456   1.774 -0.4205 -0.0670  1.0557
   83SOL     OW  247   0.298   0.346   0.321  0.4447 -0.1202  0.0747
   83SOL    HW1  248   0.361   0.282   0.279 -1.3497  1.4191  1.7061
   83SOL    HW2  249   0.286   0.320   0.419  1.1491 -0.5426 -2.8475
   84SOL     OW  250   0.022   0.954   3.083  0.0496 -0.5532  0.9898
   84SOL    HW1  251   3.063   0.992   0.051 -0.0610 -0.8201  1.4537
   84SOL    HW2  252   0.113   0.996   3.085 -2.0844 -0.5838 -0.1130
   85SOL     OW  253   2.443   2.233   1.071 -0.1870 -0.3279  0.1827
   85SOL    HW1  254   2.395   2.233   0.978  0.7869  0.6936 -0.3458
   85SOL    HW2  255   2.543   2.245   1.061  2.2425 -2.1369  2.7348
   86SOL     OW  256   0.416   2.818   1.410 -0.2724  0.4113  0.0461
   86SOL    HW1  257   0.514   2.788   1.387 -0.9453  0.9067 -0.0504
   86SOL    HW2  258   0.363   2.790   1.326 -1.8098  0.5710 -3.3047
   87SOL     OW  259   0.587   2.541   2.108  0.4806  0.0766  0.0080
   87SOL    HW1  260   0.653   2.594   2.163  0.3250  1.2172  0.3311
   87SOL    HW2  261   0.526   2.489   2.170  1.0211  0.3679  1.8286
   88SOL     OW  262   0.301   2.083   0.085  0.0414  0.4303  0.4140
   88SOL    HW1  263   0.243   2.029   0.150  1.3527 -2.5379  1.4022
   88SOL    HW2  264   0.317   2.035   3.097  2.4983  0.2436 -0.4351
   89SOL     OW  265   0.874   0.914   0.700  0.1639  0.2590  0.3675
   89SOL    HW1  266   0.798   0.976   0.664 -0.3363  0.6466 -0.2037
   89SOL    HW2  267   0.935   0.888   0.621  0.2473 -0.4385 -0.9722
   90SOL     OW  268   0.165   1.361   2.072 -0.1954 -0.1561 -0.2672
   90SOL    HW1  269   0.175   1.457   2.042  1.7633 -1.4561  1.3874
   90SOL    HW2  270   0.065   1.336   2.059  0.3993 -0.4669  0.0186
   91SOL     OW  271   1.815   1.131   0.794  0.1268 -0.1752 -0.1269
   91SOL    HW1  272   1.838   1.227   0.809  0.8434  0.4916 -1.2881
   91SOL    HW2  273   1.718   1.119   0.806  1.3737  1.3564 -0.6065
   92SOL     OW  274   2.152   1.252   0.884 -0.0568 -0.1404 -0.3619
   92SOL    HW1  275   2.060   1.288   0.878  3.7076 -0.6305  0.3854
   92SOL    HW2  276   2.160   1.167   0.831  1.7852  0.9996  1.2030
   93SOL     OW  277   2.661   0.725   2.269 -0.0842  0.2179  0.1404
   93SOL    HW1  278   2.587   0.701   2.208 -0.1456  0.1529  0.3306
   93SOL    HW2  279   2.706   0.640   2.300  0.8668  3.7963  0.8896
   94SOL     OW  280   2.128   2.132   2.798  0.1102  0.2567  0.2465
   94SOL    HW1  281   2.094   2.228   2.762  0.5480  2.0994 -0.6680
   94SOL    HW2  282   2.231   2.136   2.800  1.2508 -1.1899  0.5542
   95SOL     OW  283   2.996   0.071   1.129 -0.3060 -0.4089  0.0965
   95SOL    HW1  284   3.008   0.108   1.034  0.4865 -2.2366 -0.1842
   95SOL    HW2  285   2.950   3.078   1.122 -1.6831 -1.9058  1.8283
   96SOL     OW  286   2.666   2.698   1.626 -0.0609 -0.5087 -0.1215
   96SOL    HW1  287   2.669   2.664   1.722 -0.6159 -1.0478  4.1399
   96SOL    HW2  288   2.581   2.753   1.607  0.5667 -2.0835  1.6796
   97SOL     OW  289   2.711   0.948   1.541 -0.5501 -0.3290  0.0519
   97SOL    HW1  290   2.801   0.901   1.531 -1.8243  0.8361 -0.7236
   97SOL    HW2  291   2.701   1.005   1.621 -1.1389 -1.2490  0.7307
   98SOL     OW  292   1.763   2.477   1.924 -0.2053 -0.0752  0.1063
   98SOL    HW1  293   1.860   2.448   1.929  2.4575 -1.3389  1.0694
   98SOL    HW2  294   1.705   2.397   1.892 -0.8359 -3.4776 -0.2131
   99SOL     OW  295   0.388   2.835   1.711 -0.3638  0.0567  0.2920
   99SOL    HW1  296   0.474   2.812   1.754 -1.7256 -0.4050 -0.0785
   99SOL    HW2  297   0.403   2.841   1.605 -1.2217 -3.9113 -1.9237
  100SOL     OW  298   1.537   0.613   2.634 -0.0345 -0.8436 -0.7002
  100SOL    HW1  299   1.590   0.699   2.632  1.6370 -0.3227  0.4963
  100SOL    HW2  300   1.563   0.558   2.715 -0.7815 -2.3048 -3.0752
  101SOL     OW  301   2.384   0.467   2.851 -0.7426 -0.2569  0.0086
  101SOL    HW1  302   2.314   0.397   2.821  1.1721  1.7169  0.9486
  101SOL    HW2  303   2.407   0.526   2.772  1.8260 -2.4594  1.2489
  102SOL     OW  304   0.405   0.725   1.255 -0.3447 -0.0025 -0.6510
  102SOL    HW1  305   0.337   0.671   1.309 -1.0111 -0.5774 -0.0817
  102SOL    HW2  306   0.482   0.752   1.315 -1.0445 -2.3229  0.2520
  103SOL     OW  307   0.871   0.850   2.511  0.0775 -0.8711  0.1353
  103SOL    HW1  308   0.914   0.781   2.456 -1.4501  2.4422 -1.2046
  103SOL    HW2  309   0.833   0.819   2.596  2.8296  0.7788 -1.7402
  104SOL     OW  310   0.175   0.808   2.551  0.4234 -0.1505  0.1876
  104SOL    HW1  311   0.077   0.791   2.575 -0.7627 -1.5242  1.3261
  104SOL    HW2  312   0.238   0.734   2.589  0.4555 -1.4903  1.0808
  105SOL     OW  313   2.197   1.936   1.542  0.0063  0.1731  0.1833
  105SOL    HW1  314   2.227   2.006   1.613 -1.2579  1.6934  1.9916
  105SOL    HW2  315   2.206   1.986   1.454 -0.3591 -0.5783 -0.1356
  106SOL     OW  316   1.729   2.946   0.584  0.5869  0.1842 -0.3213
  106SOL    HW1  317   1.825   2.983   0.577 -1.1365  0.0905  2.6777
  106SOL    HW2  318   1.706   2.878   0.515 -2.2625 -1.6154 -0.4727
  107SOL     OW  319   2.069   2.239   1.152  0.0513 -0.6510  0.2714
  107SOL    HW1  320   2.112   2.153   1.181  0.7639  2.1111  1.3288
  107SOL    HW2  321   2.068   2.307   1.230  0.4082  1.9412  0.3993
  108SOL     OW  322   2.879   2.512   1.420  0.2362  0.0351  0.5325
  108SOL    HW1  323   2.847   2.428   1.461 -1.1815  1.0237 -3.3374
  108SOL    HW2  324   2.840   2.595   1.462 -0.4347 -3.0290  1.9271
  109SOL     OW  325   2.125   2.370   0.925  0.7588 -0.1058 -0.2605
  109SOL    HW1  326   2.209   2.327   0.889  2.1234  1.1494 -1.2051
  109SOL    HW2  327   2.095   2.310   1.003 -4.2544 -2.1283 -1.8640
  110SOL     OW  328   1.137   1.817   2.082 -0.0430  0.6939  0.2192
  110SOL    HW1  329   1.049   1.776   2.116 -2.3100  1.0509 -0.7559
  110SOL    HW2  330   1.126   1.825   1.980  0.3907  1.7019  0.3340
  111SOL     OW  331   1.641   2.324   2.151  0.2140  0.0021  0.1802
  111SOL    HW1  332   1.649   2.290   2.057  0.9465 -0.6113  0.0977
  111SOL    HW2  333   1.567   2.396   2.152 -0.3642 -1.5320 -0.8726
  112SOL     OW  334   1.561   1.881   2.519 -0.1303 -0.1973  0.3570
  112SOL    HW1  335   1.573   1.953   2.448 -1.7668  1.0563  1.4483
  112SOL    HW2  336   1.654   1.843   2.555  2.9692 -5.4554  2.1979
  113SOL     OW  337   1.844   1.974   1.836  0.0983 -0.2175 -0.5167
  113SOL    HW1  338   1.779   2.050   1.848 -0.4723 -2.2625 -0.7794
  113SOL    HW2  339   1.825   1.906   1.909  1.8336  1.1497  1.5638
  114SOL     OW  340   3.002   1.018   1.418  0.3566 -0.2877 -0.2254
  114SOL    HW1  341   3.056   1.037   1.332 -3.2799  1.4258  0.5230
  114SOL    HW2  342   2.981   0.925   1.429 -1.9114  2.3779 -0.8531
  115SOL     OW  343   0.843   0.723   3.058  0.3661  0.4457 -0.1074
  115SOL    HW1  344   0.795   0.676   0.032 -0.2352 -1.1856 -0.5852
  115SOL    HW2  345   0.905   0.799   3.090 -0.7698  0.2219 -1.9557
  116SOL     OW  346   2.832   2.086   2.294  0.0923  0.6877 -0.4118
  116SOL    HW1  347   2.862   2.048   2.204  1.9535 -0.8020 -1.2509
  116SOL    HW2  348   2.792   2.012   2.350  0.9479 -1.0207  0.2477
  117SOL     OW  349   0.094   2.582   0.674 -0.4670 -0.2081  0.0551
  117SOL    HW1  350   0.131   2.532   0.594 -1.6247 -0.9903  1.7112
  117SOL    HW2  351   0.105   2.532   0.763  3.0805 -3.1644 -0.2140
  118SOL     OW  352   0.843   1.851   2.767  0.2230  0.0125  0.5202
  118SOL    HW1  353   0.804   1.934   2.808  0.4068  0.0773  0.0216
  118SOL    HW2  354   0.826   1.842   2.669 -1.3643 -1.5379  1.5153
  119SOL     OW  355   0.609   1.944   0.457  0.4484  0.2677 -0.1059
  119SOL    HW1  356   0.554   1.910   0.535  1.5466  0.5394 -0.7123
  119SOL    HW2  357   0.580   2.033   0.417  1.4052  1.4024 -3.6146
  120SOL     OW  358   1.151   0.729   0.200 -0.3244 -0.1571 -0.5035
  120SOL    HW1  359   1.161   0.772   0.291 -1.9043 -3.1491 -1.6732
  120SOL    HW2  360   1.080   0.654   0.212  0.6714 -1.7398  0.5363
  121SOL     OW  361   1.447   2.342   0.704 -0.0002 -0.1682  0.3683
  121SOL    HW1  362   1.442   2.259   0.763 -1.4273  0.0011 -0.2638
  121SOL    HW2  363   1.428   2.318   0.606  0.2697 -1.1491 -0.5470
  122SOL     OW  364   2.997   2.233   1.822  0.9555  0.6726 -0.1638
  122SOL    HW1  365   3.045   2.214   1.735  0.6282 -1.2240  0.1581
  122SOL    HW2  366   3.011   2.329   1.858 -2.0086 -0.9907  0.5239
  123SOL     OW  367   0.667   1.767   0.712  0.1001 -0.1819  0.1755
  123SOL    HW1  368   0.676   1.865   0.743 -2.5124 -1.7675  1.2575
  123SOL    HW2  369   0.571   1.738   0.713 -1.2532 -0.1593 -0.6501
  124SOL     OW  370   0.040   0.963   0.405 -0.7111 -0.3196 -0.5710
  124SOL    HW1  371   0.002   0.868   0.425 -2.0680 -2.8239  1.5610
  124SOL    HW2  372   3.098   1.010   0.324  2.7156 -0.4364 -0.6611
  125SOL     OW  373   0.082   0.792   2.879 -0.1631 -0.3907  0.1630
  125SOL    HW1  374   0.036   0.851   2.947  3.4307  0.1999 -1.7703
  125SOL    HW2  375   0.070   0.695   2.899  1.8726  3.6824  0.0721
  126SOL     OW  376   3.036   1.691   0.487  0.1335 -0.0627  0.0301
  126SOL    HW1  377   3.026   1.592   0.519 -0.8510 -0.3999 -3.6213
  126SOL    HW2  378   3.056   1.752   0.567 -1.4041 -3.0727 -0.1089
  127SOL     OW  379   1.360   2.495   1.884  0.2945 -0.2174 -0.1716
  127SOL    HW1  380   1.280   2.430   1.882 -1.5469 -2.7438 -0.4864
  127SOL    HW2  381   1.411   2.486   1.972  0.6448 -1.6879  1.7811
  128SOL     OW  382   1.245   1.282   0.052 -0.0830 -0.1470  1.1390
  128SOL    HW1  383   1.184   1.261   3.074 -1.3182 -0.7606 -0.3799
  128SOL    HW2  384   1.323   1.337   0.027 -1.0705 -0.0225  0.7709
  129SOL     OW  385   1.829   1.810   1.609  0.1150  0.2481  0.4183
  129SOL    HW1  386   1.807   1.876   1.537  1.2478  2.0840 -0.3317
  129SOL    HW2  387   1.844   1.857   1.700 -2.6620 -1.6810  0.5825
  130SOL     OW  388   2.092   1.689   1.578 -0.2720 -0.3967  0.3404
  130SOL    HW1  389   2.132   1.780   1.557 -2.0757 -1.1845 -0.3725
  130SOL    HW2  390   1.995   1.716   1.585  1.3782 -0.0659  1.3923
  131SOL     OW  391   2.853   3.018   2.831  0.4660 -0.4302  0.4686
  131SOL    HW1  392   2.798   0.004   2.814 -2.4437 -1.2268 -0.4007
  131SOL    HW2  393   2.844   2.944   2.763 -0.7511  2.0502 -0.2841
  132SOL     OW  394   2.587   2.084   0.605  0.1999 -0.1113  0.0646
  132SOL    HW1  395   2.576   2.054   0.509  0.2789 -1.5365  0.3439
  132SOL    HW2  396   2.556   2.179   0.613  1.0608 -1.8432 -2.1592
  133SOL     OW  397   0.656   0.134   2.472 -0.2809  0.3403  0.0501
  133SOL    HW1  398   0.555   0.128   2.480  1.0508  1.1200  1.1761
  133SOL    HW2  399   0.671   0.138   2.371 -0.6001 -0.5214  0.0275
  134SOL     OW  400   3.000   2.114   0.093  0.2619 -0.2192 -0.2273
  134SOL    HW1  401   2.975   2.021   0.064  2.7631 -0.6561  0.5665
  134SOL    HW2  402   3.043   2.111   0.187  0.3988  2.0283  0.5091
  135SOL     OW  403   1.334   1.063   2.261 -0.2188 -0.1419 -0.2701
  135SOL    HW1  404   1.240   1.100   2.282  0.9898  1.4496  0.2345
  135SOL    HW2  405   1.364   1.095   2.170  0.8416  0.1526  2.9716
  136SOL     OW  406   2.394   1.705   0.729  0.7292  0.0529  0.5089
  136SOL    HW1  407   2.493   1.698   0.750 -1.4926 -1.3194  2.3461
  136SOL    HW2  408   2.350   1.635   0.787 -0.3161 -1.7851 -1.6495
  137SOL     OW  409   2.663   1.657   0.766 -0.0415  0.3238  0.3964
  137SOL    HW1  410   2.670   1.557   0.744  0.9903  1.9372 -0.4697
  137SOL    HW2  411   2.744   1.671   0.828 -0.9662  0.0407  1.5175
  138SOL     OW  412   2.901   0.492   1.084 -0.0798 -0.0588  0.1644
  138SOL    HW1  413   2.839   0.573   1.088 -4.2169  1.2235 -2.6322
  138SOL    HW2  414   2.943   0.485   0.987  1.8127 -3.3773 -2.5203
  139SOL     OW  415   0.276   2.636   3.063  0.2405 -0.3303 -0.6489
  139SOL    HW1  416   0.374   2.623   3.098  2.9526  2.0556  2.3808
  139SOL    HW2  417   0.278   2.624   2.960  2.0531  0.8021 -2.7823
  140SOL     OW  418   0.757   1.897   1.501 -0.1272  0.3025 -0.3685
  140SOL    HW1  419   0.779   1.876   1.597  3.9592 -0.2028  0.4041
  140SOL    HW2  420   0.846   1.909   1.443  0.9760  2.0588 -0.2489
  141SOL     OW  421   1.144   2.074   0.788  0.1778  0.1282 -0.4156
  141SOL    HW1  422   1.101   1.982   0.773 -1.2702  0.2463 -2.0214
  141SOL    HW2  423   1.112   2.125   0.869  1.8458  1.3021 -1.9808
  142SOL     OW  424   1.102   0.608   0.880  0.1461 -0.1896 -0.2606
  142SOL    HW1  425   1.010   0.566   0.884 -1.1664  1.6370  0.9717
  142SOL    HW2  426   1.107   0.699   0.915  1.6135 -1.7250  3.2800
  143SOL     OW  427   0.795   1.063   2.678  0.1484 -0.4545  0.3980
  143SOL    HW1  428   0.845   1.106   2.763  0.2347  0.3787  1.5408
  143SOL    HW2  429   0.865   1.020   2.615  0.9512 -2.0344 -2.6293
  144SOL     OW  430   1.954   2.450   0.721 -0.5147  0.2260 -0.1608
  144SOL    HW1  431   1.860   2.445   0.756  1.5895  0.4526  0.7379
  144SOL    HW2  432   2.014   2.404   0.789  1.7152 -3.4538 -1.9431
  145SOL     OW  433   1.840   0.890   2.877 -0.4653  0.4290 -0.1891
  145SOL    HW1  434   1.818   0.899   2.779  2.2508  2.8243 -2.2124
  145SOL    HW2  435   1.815   0.801   2.913 -0.1699 -3.6251  0.9523
  146SOL     OW  436   3.040   2.802   0.710  0.5137 -0.5985  0.2877
  146SOL    HW1  437   2.983   2.768   0.790  1.3016  0.2951  1.3216
  146SOL    HW2  438   0.011   2.732   0.690 -1.5271  0.5768  1.2982
  147SOL     OW  439   1.087   0.852   1.893  0.0219  0.7255  0.1010
  147SOL    HW1  440   1.107   0.940   1.849 -1.1206  0.5399  2.9050
  147SOL    HW2  441   1.132   0.778   1.837  1.9679  0.8005 -2.1757
  148SOL     OW  442   1.367   0.623   2.135  0.1705  0.1530 -0.3141
  148SOL    HW1  443   1.410   0.713   2.172  0.5580  3.2537  0.7200
  148SOL    HW2  444   1.265   0.634   2.137 -2.0141  2.0689 -0.5611
  149SOL     OW  445   1.724   0.223   2.228  0.1621 -0.2058  0.2242
  149SOL    HW1  446   1.728   0.312   2.179  1.2594  1.2223  0.5153
  149SOL    HW2  447   1.660   0.157   2.188  0.4308  2.4582  3.0370
  150SOL     OW  448   2.613   0.046   0.067  0.2102  0.3340 -0.3929
  150SOL    HW1  449   2.681   3.071   0.058  0.2374 -1.0080 -1.1658
  150SOL    HW2  450   2.650   0.129   0.113  0.7987  1.4787 -3.0278
  151SOL     OW  451   0.461   1.296   2.863 -0.7157 -0.1405  0.4393
  151SOL    HW1  452   0.445   1.207   2.906 -1.0883  0.1291  1.5451
  151SOL    HW2  453   0.550   1.339   2.893  1.1637  4.3331  1.6369
  152SOL     OW  454   3.023   0.173   0.862  0.4213 -0.1540  0.0961
  152SOL    HW1  455   3.050   0.080   0.831 -1.3341  1.1377 -0.1802
  152SOL    HW2  456   0.005   0.225   0.896  0.1196 -0.9498  1.4299
  153SOL     OW  457   2.436   0.228   1.494  0.1285  0.0974  0.1270
  153SOL    HW1  458   2.345   0.197   1.452 -0.9079 -1.0039  1.5536
  153SOL    HW2  459   2.501   0.157   1.473 -0.0102  0.8334 -1.9680
  154SOL     OW  460   1.675   0.468   2.104  0.3370  0.0512  0.0272
  154SOL    HW1  461   1.703   0.537   2.175 -0.3792  2.1580  0.6706
  154SOL    HW2  462   1.573   0.464   2.100 -3.2807  1.1852 -1.3443
  155SOL     OW  463   3.030   1.798   0.239 -0.4984  0.5598  0.7235
  155SOL    HW1  464   0.027   1.823   0.233 -0.9274 -0.7226  1.5032
  155SOL    HW2  465   3.007   1.761   0.331  2.3256 -1.4176 -0.4095
  156SOL     OW  466   2.819   1.853   2.937  0.2622  0.0393 -0.0297
  156SOL    HW1  467   2.907   1.907   2.957 -0.6033  2.2117  1.8107
  156SOL    HW2  468   2.809   1.795   3.022  0.7400 -0.9539  2.2636
  157SOL     OW  469   0.830   0.182   0.728 -0.3411 -0.1127  0.0321
  157SOL    HW1  470   0.794   0.091   0.759 -0.3268 -1.8893  0.3753
  157SOL    HW2  471   0.798   0.205   0.633  1.8743 -0.4667 -1.7038
  158SOL     OW  472   2.302   0.651   1.683  0.2690 -0.9889  0.1650
  158SOL    HW1  473   2.359   0.621   1.766  0.9698  1.1745  0.4219
  158SOL    HW2  474   2.333   0.595   1.610  2.1810  0.5928  2.4442
  159SOL     OW  475   3.086   0.459   0.521  0.2336  0.2228 -0.7110
  159SOL    HW1  476   3.034   0.390   0.574 -0.4396  0.4321  3.2999
  159SOL    HW2  477   3.092   0.434   0.426  0.8926 -0.0390  0.5441
  160SOL     OW  478   2.083   2.064   1.915 -0.0874 -0.2270  0.0723
  160SOL    HW1  479   2.045   2.122   1.989 -1.6399 -0.9809 -2.0586
  160SOL    HW2  480   2.008   2.031   1.859 -1.0833 -0.7982 -2.0496
  161SOL     OW  481   2.803   0.525   2.403  0.2484 -0.8115 -0.2073
  161SOL    HW1  482   2.812   0.566   2.497 -1.2004  0.3245 -1.7604
  161SOL    HW2  483   2.882   0.465   2.386 -1.9660 -0.8517  1.8966
  162SOL     OW  484   1.112   2.592   1.441 -0.4252 -0.8772  0.5138
  162SOL    HW1  485   1.112   2.492   1.426  3.6795  3.3308 -0.2515
  162SOL    HW2  486   1.135   2.616   1.537 -0.3355  1.1708  2.2633
  163SOL     OW  487   2.505   0.092   2.364 -0.1959  0.2949  0.7392
  163SOL    HW1  488   2.593   0.043   2.359 -0.4114 -1.7569  0.8624
  163SOL    HW2  489   2.525   0.193   2.349  0.5709 -2.3402  1.0439
  164SOL     OW  490   2.166   1.733   3.078 -0.5070  0.5127  0.3963
  164SOL    HW1  491   2.135   1.732   0.073  1.1701  0.7841  0.3049
  164SOL    HW2  492   2.235   1.664   3.064 -0.2207 -0.0983 -1.3651
  165SOL     OW  493   0.093   0.458   1.117 -0.3266  0.2000 -0.4208
  165SOL    HW1  494   0.133   0.374   1.071  1.3200 -0.5761 -0.7316
  165SOL    HW2  495   3.092   0.455   1.111  2.3718  0.9534  1.1403
  166SOL     OW  496   2.351   0.791   0.528  0.2081 -0.5574  0.0396
  166SOL    HW1  497   2.446   0.787   0.560  1.3720 -0.3735  0.0478
  166SOL    HW2  498   2.333   0.890   0.515  3.8078  0.8408 -0.6385
  167SOL     OW  499   2.782   0.949   2.999  0.2825  0.0626  0.5264
  167SOL    HW1  500   2.687   0.910   2.975 -1.4681 -2.6216  1.3196
  167SOL    HW2  501   2.775   1.029   3.069 -0.2133  1.8345  2.9268
  168SOL     OW  502   1.748   0.220   2.909 -0.0108  0.4429 -0.1377
  168SOL    HW1  503   1.824   0.188   2.974  2.6664  2.1124  1.6727
  168SOL    HW2  504   1.728   0.149   2.836 -0.6773 -2.1003 -1.7852
  169SOL     OW  505   0.157   1.606   1.073  0.6343 -0.1519 -0.3023
  169SOL    HW1  506   0.095   1.531   1.089  1.9580 -1.0502 -0.0935
  169SOL    HW2  507   0.225   1.587   1.002 -1.2772 -0.6488 -0.4195
  170SOL     OW  508   0.054   0.772   1.168  0.1420 -0.0866 -0.2119
  170SOL    HW1  509   0.128   0.831   1.210  0.5951  2.3883  1.4258
  170SOL    HW2  510   0.090   0.683   1.129 -1.1894  1.3585 -0.6294
  171SOL     OW  511   2.513   1.959   2.051 -0.3205 -0.5810  0.3039
  171SOL    HW1  512   2.590   1.975   1.982 -1.4616  1.5971 -1.4580
  171SOL    HW2  513   2.423   1.943   2.004 -2.7183  3.2006  1.0534
  172SOL     OW  514   0.345   2.304   1.441  0.9584 -0.3233  0.3666
  172SOL    HW1  515   0.261   2.257   1.408 -2.5217 -0.0646  2.6042
  172SOL    HW2  516   0.385   2.364   1.372 -0.8740 -1.3536  1.2055
  173SOL     OW  517   1.449   1.403   2.974 -0.2206  0.0914  0.2979
  173SOL    HW1  518   1.459   1.336   2.895 -1.6086 -0.4301  2.6506
  173SOL    HW2  519   1.411   1.493   2.940  2.3354 -1.6886  0.6804
  174SOL     OW  520   1.388   0.605   2.878  0.3406  0.3190 -0.1389
  174SOL    HW1  521   1.401   0.703   2.855 -1.0947 -0.0211  0.7089
  174SOL    HW2  522   1.381   0.589   2.979  1.2904  0.7030  0.9075
  175SOL     OW  523   1.292   1.579   1.157  0.0658 -0.1805 -0.0502
  175SOL    HW1  524   1.336   1.627   1.234 -1.7897 -2.6961 -0.8429
  175SOL    HW2  525   1.192   1.574   1.170  1.3742  1.3689 -0.4651
  176SOL     OW  526   1.520   3.056   0.265  0.5020  0.0415  0.1331
  176SOL    HW1  527   1.450   3.096   0.203 -1.5590  0.5350  0.2752
  176SOL    HW2  528   1.597   0.019   0.288  1.1499 -1.0281  2.0006
  177SOL     OW  529   0.441   0.992   2.908  0.7732 -0.4370  0.0575
  177SOL    HW1  530   0.380   1.041   2.978 -0.7962  0.9494  0.0627
  177SOL    HW2  531   0.537   1.011   2.937 -1.7862  1.0079  0.3417
  178SOL     OW  532   2.358   2.425   2.151 -0.1746  0.1860  0.1795
  178SOL    HW1  533   2.328   2.465   2.237 -2.7229  0.1837  0.8581
  178SOL    HW2  534   2.342   2.484   2.076 -1.5892 -2.0590  1.9934
  179SOL     OW  535   2.899   0.077   2.538  0.2326  0.3655  0.5572
  179SOL    HW1  536   2.851   0.111   2.621  3.2779  3.1461 -2.3876
  179SOL    HW2  537   2.833   0.037   2.474 -0.4706  1.3499  0.1550
  180SOL     OW  538   2.022   0.655   0.857 -0.2732 -0.2188  0.4287
  180SOL    HW1  539   2.085   0.578   0.824 -0.1868 -1.4808  0.4297
  180SOL    HW2  540   2.083   0.720   0.913 -0.3426 -2.1086 -2.5915
  181SOL     OW  541   2.168   1.070   2.466  0.1301  0.1683  0.3178
  181SOL    HW1  542   2.254   1.028   2.438  0.7739  2.0968  2.2084
  181SOL    HW2  543   2.091   1.009   2.428  0.0769 -0.8735 -0.7618
  182SOL     OW  544   2.714   2.307   2.097 -0.2409 -0.4001 -0.3498
  182SOL    HW1  545   2.817   2.329   2.090 -0.2465 -2.0051 -2.0008
  182SOL    HW2  546   2.702   2.218   2.140  0.1127 -0.2098 -1.1792
  183SOL     OW  547   1.977   0.677   1.731 -0.7470  0.5826 -0.2091
  183SOL    HW1  548   1.923   0.678   1.815 -2.3548 -0.2051 -0.1015
  183SOL    HW2  549   2.079   0.683   1.740  1.6465  1.1544  1.7183
  184SOL     OW  550   0.025   1.580   1.393  0.2510 -0.6584 -0.3831
  184SOL    HW1  551   0.032   1.504   1.328 -0.4914  1.8895 -0.0996
  184SOL    HW2  552   0.115   1.608   1.422 -2.7759 -0.7603  0.3092
  185SOL     OW  553   2.382   3.083   0.922  0.2292  0.0802  0.4279
  185SOL    HW1  554   2.324   0.049   0.872 -0.8873 -1.1930 -1.1363
  185SOL    HW2  555   2.412   3.017   0.850 -0.0642 -0.2649 -0.9516
  186SOL     OW  556   2.873   2.536   2.806 -0.0665 -0.0654  0.0046
  186SOL    HW1  557   2.847   2.438   2.788  1.1277 -1.1264  2.0390
  186SOL    HW2  558   2.852   2.568   2.902 -1.0238  0.7613  0.8956
  187SOL     OW  559   2.930   1.438   0.577 -0.2107  0.2892  0.3555
  187SOL    HW1  560   2.953   1.401   0.671 -0.3571  0.3827  1.8526
  187SOL    HW2  561   2.853   1.387   0.533  1.6822 -0.0902  0.0183
  188SOL     OW  562   2.492   1.125   1.117 -0.0091 -0.8818 -0.6569
  188SOL    HW1  563   2.418   1.196   1.116 -0.6032 -0.4355 -0.1554
  188SOL    HW2  564   2.504   1.087   1.208 -0.9734  0.4440 -0.7932
  189SOL     OW  565   2.980   0.316   2.369 -0.1835 -0.2974 -0.3786
  189SOL    HW1  566   2.955   0.240   2.425 -0.6441 -1.0683  1.2099
  189SOL    HW2  567   3.080   0.336   2.380  1.9374 -0.5816  1.6704
  190SOL     OW  568   1.626   0.843   1.743  0.3280  0.2636 -0.3658
  190SOL    HW1  569   1.539   0.827   1.688 -2.7734 -3.0360 -1.2558
  190SOL    HW2  570   1.683   0.924   1.707 -0.3949  2.0049 -1.2713
  191SOL     OW  571   0.900   0.417   2.064 -0.2111 -0.3810 -0.0379
  191SOL    HW1  572   0.960   0.340   2.090  4.1235 -1.4315 -1.0976
  191SOL    HW2  573   0.951   0.504   2.080  1.2415  0.4986 -2.0963
  192SOL     OW  574   1.431   2.055   1.914  0.0813  0.0925  0.0629
  192SOL    HW1  575   1.448   1.993   1.992  1.3532 -1.1480 -1.6785
  192SOL    HW2  576   1.425   2.005   1.829  0.3649  0.9711  3.7742
  193SOL     OW  577   1.435   0.160   0.815 -0.3053  0.3466 -0.6769
  193SOL    HW1  578   1.406   0.242   0.863  0.5430 -2.1193  0.0100
  193SOL    HW2  579   1.488   0.101   0.880  3.1061 -1.2548  0.9229
  194SOL     OW  580   0.914   2.212   1.337 -0.0337  0.0705 -0.3143
  194SOL    HW1  581   0.955   2.140   1.277 -0.3447  3.2316 -0.4774
  194SOL    HW2  582   0.947   2.208   1.435  2.1183 -0.8552 -1.6148
  195SOL     OW  583   1.471   0.619   0.340  0.1819  0.2345 -0.0689
  195SOL    HW1  584   1.548   0.660   0.396 -1.8607  1.4437 -1.2173
  195SOL    HW2  585   1.509   0.579   0.255 -0.9278  0.1761  1.1957
  196SOL     OW  586   0.639   1.533   1.758  0.2001  0.0922 -0.1988
  196SOL    HW1  587   0.706   1.552   1.688 -1.5972  1.9847  1.3172
  196SOL    HW2  588   0.568   1.606   1.753  0.0943 -1.1964  1.1177
  197SOL     OW  589   1.010   0.442   1.674 -0.3048 -0.7293  0.2725
  197SOL    HW1  590   1.010   0.392   1.585 -0.3866 -0.1362  2.1504
  197SOL    HW2  591   1.091   0.506   1.683  2.1814 -0.1936  2.7842
  198SOL     OW  592   0.851   1.167   0.980 -0.0895  0.2770  0.0670
  198SOL    HW1  593   0.868   1.070   0.979  0.5617  1.5603  2.6553
  198SOL    HW2  594   0.938   1.218   0.993  1.1985 -0.9245  0.1512
  199SOL     OW  595   0.121   2.385   1.593 -0.3111  0.2668 -0.3777
  199SOL    HW1  596   0.086   2.410   1.685  1.0387  0.0476  1.0439
  199SOL    HW2  597   0.224   2.376   1.579 -1.3755  0.8425  0.8135
  200SOL     OW  598   1.405   1.130   2.015 -0.3014 -0.1949 -0.0110
  200SOL    HW1  599   1.406   1.232   2.034  1.9754 -1.1935  2.6807
  200SOL    HW2  600   1.321   1.110   1.962 -0.4418 -1.4666  1.7551
  201SOL     OW  601   0.785   1.928   2.243 -0.3333 -0.2119  0.5677
  201SOL    HW1  602   0.834   2.004   2.191 -0.2376  0.6900 -0.6932
  201SOL    HW2  603   0.809   1.839   2.201 -0.9439  0.5329 -1.3820
  202SOL     OW  604   1.111   0.023   0.266  0.1346  0.2876 -0.7103
  202SOL    HW1  605   1.122   3.021   0.279  0.5973  0.4306 -2.0929
  202SOL    HW2  606   1.200   0.059   0.234 -0.3966 -1.4297  1.3873
  203SOL     OW  607   1.515   0.066   2.554  0.4031 -0.6476  0.0504
  203SOL    HW1  608   1.561   0.031   2.638  2.2372 -0.1678 -1.3197
  203SOL    HW2  609   1.552   0.161   2.533  0.9836 -3.1637  2.2326
  204SOL     OW  610   0.899   1.782   1.729 -0.2205 -0.0021 -0.0375
  204SOL    HW1  611   0.999   1.786   1.733 -3.9991  0.1544  0.7801
  204SOL    HW2  612   0.855   1.859   1.779  1.8896 -1.0158 -0.3265
  205SOL     OW  613   1.664   1.457   2.299 -0.0449  0.3111 -0.3566
  205SOL    HW1  614   1.717   1.420   2.216 -2.2474 -1.4061 -3.9216
  205SOL    HW2  615   1.728   1.510   2.359  1.9619 -1.1861 -1.3754
  206SOL     OW  616   0.269   1.748   2.298  0.0986 -0.7705 -0.0772
  206SOL    HW1  617   0.327   1.743   2.380 -1.4572  0.1201 -1.6985
  206SOL    HW2  618   0.183   1.693   2.311 -0.9383  2.0080  0.5988
  207SOL     OW  619   1.132   3.022   1.584 -0.1450  0.0673 -0.2297
  207SOL    HW1  620   1.093   2.993   1.669  0.8462  1.0128 -0.2775
  207SOL    HW2  621   1.186   0.007   1.591  0.3061  1.4595  2.3830
  208SOL     OW  622   0.518   2.569   1.832  0.0722  0.2193  0.2926
  208SOL    HW1  623   0.561   2.567   1.924 -0.0069  0.8616  1.2919
  208SOL    HW2  624   0.588   2.570   1.755 -0.9206 -1.2726  1.2192
  209SOL     OW  625   1.515   2.697   0.541  0.4225 -0.4210  0.4628
  209SOL    HW1  626   1.525   2.685   0.642  0.7067  0.1477  2.4561
  209SOL    HW2  627   1.464   2.781   0.516  0.5294  1.8213 -1.0200
  210SOL     OW  628   2.725   0.975   0.820  0.2371  0.4969  0.4348
  210SOL    HW1  629   2.768   0.894   0.774  0.9439 -3.5952  0.6172
  210SOL    HW2  630   2.646   0.952   0.873  1.1140 -0.7129 -2.5631
  211SOL     OW  631   0.533   0.298   1.977 -0.2722 -0.2305  0.1710
  211SOL    HW1  632   0.608   0.265   1.921 -2.3889  0.7509  0.8914
  211SOL    HW2  633   0.441   0.285   1.937  2.2522 -1.2765  2.7800
  212SOL     OW  634   1.305   2.206   1.675 -0.2175  0.5379 -0.1834
  212SOL    HW1  635   1.405   2.235   1.674  1.8883  1.6344  0.4832
  212SOL    HW2  636   1.288   2.154   1.763 -0.7145  0.3883  2.6654
  213SOL     OW  637   3.027   0.311   1.600 -0.1543  0.1975 -0.1201
  213SOL    HW1  638   3.033   0.227   1.538  0.0033 -2.7187 -0.0544
  213SOL    HW2  639   2.934   0.354   1.589 -0.9645  0.7452  1.2463
  214SOL     OW  640   0.785   2.774   1.792 -0.2077 -0.5360 -0.2093
  214SOL    HW1  641   0.742   2.720   1.715  0.5238  1.0851  0.0804
  214SOL    HW2  642   0.714   2.819   1.854 -1.6851  0.8125  0.3199
  215SOL     OW  643   2.501   1.612   1.526  0.0930 -0.1475  0.7072
  215SOL    HW1  644   2.431   1.575   1.460 -0.6642 -3.3280 -0.3509
  215SOL    HW2  645   2.457   1.668   1.601 -1.2274  2.0565  1.9725
  216SOL     OW  646   0.370   0.965   2.032 -0.2084  0.1098  0.3413
  216SOL    HW1  647   0.343   1.059   2.010 -1.0058  1.2806  1.4117
  216SOL    HW2  648   0.451   0.941   1.968  0.6786  0.8630 -1.1985
  217SOL     OW  649   2.658   0.104   1.409 -0.0337 -0.1051  0.4246
  217SOL    HW1  650   2.736   0.057   1.446 -2.2147 -0.4294 -1.0421
  217SOL    HW2  651   2.681   0.199   1.376  1.2027  1.1103  1.3506
  218SOL     OW  652   1.448   2.111   1.075  0.5498 -0.2662 -0.2559
  218SOL    HW1  653   1.424   2.101   0.979  0.8608 -0.5629  1.2047
  218SOL    HW2  654   1.529   2.055   1.098  0.8938  1.8341  0.9418
  219SOL     OW  655   1.745   2.719   0.434 -0.5352 -0.0841  0.0290
  219SOL    HW1  656   1.661   2.694   0.487  1.8673 -0.2163  0.2065
  219SOL    HW2  657   1.755   2.661   0.354  2.9842  2.2014 -1.5495
  220SOL     OW  658   1.715   2.387   0.223 -0.0262  0.7665 -0.1995
  220SOL    HW1  659   1.619   2.357   0.224 -0.7622  1.0374  1.0122
  220SOL    HW2  660   1.726   2.489   0.208  0.8218  2.2921 -1.1431
  221SOL     OW  661   2.641   2.019   0.852 -0.1091 -0.4427  0.0308
  221SOL    HW1  662   2.618   2.051   0.756 -0.5172  0.6600  0.1328
  221SOL    HW2  663   2.581   1.940   0.877 -2.5051 -0.9572  0.9278
  222SOL     OW  664   1.057   2.231   0.993  0.3841  0.8603  0.1118
  222SOL    HW1  665   0.989   2.276   0.927 -0.6355  1.1451 -1.5356
  222SOL    HW2  666   1.057   2.279   1.083  1.4731 -2.1918  0.2341
  223SOL     OW  667   1.088   2.785   0.007 -0.0751  0.1551  0.6482
  223SOL    HW1  668   1.048   2.818   3.019  1.3385 -2.9599 -0.5442
  223SOL    HW2  669   1.025   2.725   0.056 -2.3448 -1.0192  2.0094
  224SOL     OW  670   3.014   0.953   1.002 -0.0296  0.0995 -0.2245
  224SOL    HW1  671   2.941   0.914   0.944 -0.5294 -0.0558  2.2462
  224SOL    HW2  672   3.048   0.886   1.070 -0.0871 -0.8800 -0.3456
  225SOL     OW  673   2.844   1.794   0.932  0.4197  0.8170  0.1663
  225SOL    HW1  674   2.782   1.863   0.887 -2.1316  1.8463  0.5205
  225SOL    HW2  675   2.942   1.812   0.933 -0.4346 -1.3952  0.3413
  226SOL     OW  676   1.006   2.754   0.971 -0.0931  0.6457 -0.1517
  226SOL    HW1  677   1.030   2.668   0.917 -1.1978  1.9043  2.3988
  226SOL    HW2  678   1.084   2.820   0.966  2.6340  1.1602 -0.3112
  227SOL     OW  679   1.045   1.327   1.287  0.1628  0.2627  0.0220
  227SOL    HW1  680   1.004   1.234   1.271 -0.3032  0.1537  0.1732
  227SOL    HW2  681   0.983   1.406   1.265  2.7076 -0.2738 -2.5509
  228SOL     OW  682   1.422   0.225   2.049  0.6038  0.2928  0.7287
  228SOL    HW1  683   1.487   0.152   2.074 -0.7388  1.3791 -1.0576
  228SOL    HW2  684   1.367   0.264   2.127  1.3948  1.7592 -0.7267
  229SOL     OW  685   2.978   0.776   2.210 -0.3409 -0.3943 -0.0166
  229SOL    HW1  686   2.903   0.712   2.198  1.3714 -2.2242 -1.8547
  229SOL    HW2  687   3.044   0.754   2.140 -3.4151 -0.5759 -1.4647
  230SOL     OW  688   0.177   1.006   0.888 -0.3716  0.2298  0.2604
  230SOL    HW1  689   0.147   1.021   0.790  1.6570  1.1635 -0.1147
  230SOL    HW2  690   0.096   0.979   0.944 -1.4902  0.1547  1.3655
  231SOL     OW  691   1.586   0.313   2.451  0.0100  0.0447 -0.2291
  231SOL    HW1  692   1.651   0.372   2.504  1.8795  1.1552 -0.4769
  231SOL    HW2  693   1.626   0.290   2.357 -0.4769  1.4353  0.2780
  232SOL     OW  694   0.415   1.663   2.962  0.1217  0.0123 -0.3624
  232SOL    HW1  695   0.513   1.688   2.940 -0.1317 -0.2048 -1.6004
  232SOL    HW2  696   0.404   1.568   2.929 -1.4833  0.0025 -0.7975
  233SOL     OW  697   1.299   2.301   3.021  0.0779  0.1320 -0.4803
  233SOL    HW1  698   1.366   2.224   3.011  2.2039  0.0618  1.8121
  233SOL    HW2  699   1.284   2.359   2.941 -0.2443 -2.0208  0.6472
  234SOL     OW  700   0.884   1.694   2.145 -0.1468 -0.6776 -0.3176
  234SOL    HW1  701   0.816   1.649   2.080 -0.2553  1.5741 -1.7061
  234SOL    HW2  702   0.931   1.624   2.197  0.4689  2.7603 -0.3516
  235SOL     OW  703   0.548   2.256   1.973 -0.2432 -0.8060 -0.3008
  235SOL    HW1  704   0.586   2.176   2.027  0.1199 -0.1456  1.8467
  235SOL    HW2  705   0.620   2.326   1.947  1.3633 -5.0411 -1.9741
  236SOL     OW  706   1.740   2.159   2.786 -0.0813  0.2621  0.0102
  236SOL    HW1  707   1.641   2.164   2.813 -0.1109  1.6529  0.2334
  236SOL    HW2  708   1.797   2.215   2.852 -0.3896  1.0238 -0.8380
  237SOL     OW  709   1.548   0.490   0.808  0.1068  0.1534  0.1367
  237SOL    HW1  710   1.641   0.456   0.836  0.3205 -0.7380  3.1858
  237SOL    HW2  711   1.522   0.446   0.722 -0.3611  3.4082  1.2198
  238SOL     OW  712   0.854   0.244   2.669  0.7309  0.0132 -0.0213
  238SOL    HW1  713   0.761   0.219   2.636  2.9763  0.9732  0.1075
  238SOL    HW2  714   0.918   0.182   2.621 -0.1460 -1.0453  1.0068
  239SOL     OW  715   1.205   3.069   1.924 -0.1460 -0.7424  0.2657
  239SOL    HW1  716   1.126   3.015   1.901  2.0994  1.0944  1.0988
  239SOL    HW2  717   1.183   0.069   1.917 -1.1920  3.3796  1.5903
  240SOL     OW  718   2.190   2.630   0.939  0.4905 -0.3893 -0.4443
  240SOL    HW1  719   2.146   2.544   0.912  1.9008  1.6147  0.2282
  240SOL    HW2  720   2.192   2.638   1.040  1.3432 -2.6762  0.0439
  241SOL     OW  721   1.576   1.408   1.932  0.4121  0.3904  0.2057
  241SOL    HW1  722   1.570   1.359   1.842 -0.1023 -2.2297 -1.6093
  241SOL    HW2  723   1.489   1.406   1.987 -1.2931  1.5606 -1.5450
  242SOL     OW  724   2.643   0.683   0.317  0.3821 -0.3084  0.5811
  242SOL    HW1  725   2.742   0.681   0.292 -1.1548 -0.8419 -0.0106
  242SOL    HW2  726   2.586   0.621   0.263 -0.1619 -0.9974  0.8669
  243SOL     OW  727   0.851   0.735   1.153 -0.4571 -0.2484  0.8133
  243SOL    HW1  728   0.915   0.767   1.227  0.2404  0.6507 -2.1016
  243SOL    HW2  729   0.868   0.784   1.065  1.3222 -2.2470  1.2911
  244SOL     OW  730   1.480   0.265   3.006 -0.4200  0.3257 -0.2607
  244SOL    HW1  731   1.408   0.293   2.942  0.2859 -1.2219  0.4890
  244SOL    HW2  732   1.566   0.238   2.958 -2.9428  0.7935  1.2083
  245SOL     OW  733   1.999   0.089   3.013 -0.0270  0.4014  0.2160
  245SOL    HW1  734   2.089   0.121   3.045 -1.8927  1.9000  0.2468
  245SOL    HW2  735   2.015   0.006   2.958 -0.6953  0.7882  2.1410
  246SOL     OW  736   1.008   0.853   1.329  0.2939 -0.4288  0.2113
  246SOL    HW1  737   1.001   0.863   1.431 -1.1868  1.2508  0.1788
  246SOL    HW2  738   1.107   0.832   1.306  2.0147 -0.6551  0.4755
  247SOL     OW  739   0.648   0.129   2.197 -0.1850 -0.2526 -0.3012
  247SOL    HW1  740   0.552   0.125   2.234  1.3101 -2.3105 -0.3719
  247SOL    HW2  741   0.642   0.163   2.101 -0.0459 -1.8463  0.4543
  248SOL     OW  742   0.192   1.562   1.687 -0.4629  0.2754 -0.0044
  248SOL    HW1  743   0.105   1.612   1.696  2.3741 -0.5187 -1.7158
  248SOL    HW2  744   0.232   1.532   1.778 -0.7954  0.6206  0.9990
  249SOL     OW  745   2.991   0.164   2.875  0.5587  0.2739  0.2827
  249SOL    HW1  746   2.956   0.069   2.861  0.3191  0.1801 -0.2641
  249SOL    HW2  747   3.020   0.175   2.968 -0.5864 -2.1788 -4.8563
  250SOL     OW  748   2.970   0.103   0.461  0.1200 -0.4846 -0.5945
  250SOL    HW1  749   2.925   0.014   0.454  0.4776  1.7413  1.5071
  250SOL    HW2  750   3.067   0.096   0.501  0.9585  0.8570  0.2791
  251SOL     OW  751   0.555   1.512   1.132  0.0102 -0.6019 -0.7244
  251SOL    HW1  752   0.569   1.426   1.076  3.0327 -2.1655  1.7256
  251SOL    HW2  753   0.486   1.491   1.205 -0.7111 -1.8286  1.3914
  252SOL     OW  754   1.611   2.845   1.576 -0.1915 -0.1055 -0.1196
  252SOL    HW1  755   1.666   2.853   1.489 -0.3450  1.1766  0.6437
  252SOL    HW2  756   1.521   2.895   1.564  1.6512  0.1906 -1.3958
  253SOL     OW  757   2.393   1.815   2.788  0.0842 -0.2105 -0.6041
  253SOL    HW1  758   2.393   1.914   2.803  2.5043 -1.0657  0.3975
  253SOL    HW2  759   2.491   1.788   2.785 -1.2644 -0.1995 -1.1874
  254SOL     OW  760   0.575   1.994   2.087 -0.1141 -0.0240  0.2131
  254SOL    HW1  761   0.635   1.959   2.161 -2.3476 -0.7844 -3.7808
  254SOL    HW2  762   0.534   1.924   2.029  1.6503  2.5683  0.8133
  255SOL     OW  763   0.977   0.294   1.447  0.7123  0.1060 -0.4310
  255SOL    HW1  764   0.988   0.297   1.349 -0.3651 -1.5116  2.7692
  255SOL    HW2  765   0.946   0.201   1.476 -0.3826 -1.1788  0.2563
  256SOL     OW  766   2.377   1.978   1.211  0.2716  0.1536  0.1391
  256SOL    HW1  767   2.288   1.932   1.226 -3.8177 -2.0502  1.7878
  256SOL    HW2  768   2.373   2.061   1.146 -0.6297  2.5247  0.5394
  257SOL     OW  769   0.608   2.322   2.727  0.2666 -0.3258  0.1602
  257SOL    HW1  770   0.518   2.302   2.688  1.0109  0.7002 -0.4341
  257SOL    HW2  771   0.647   2.241   2.776  0.8228  1.2835 -1.4274
  258SOL     OW  772   0.650   1.643   2.810 -0.1624 -0.0426  0.0879
  258SOL    HW1  773   0.720   1.714   2.793 -2.2059 -1.1225  1.7080
  258SOL    HW2  774   0.587   1.630   2.731  1.1368 -1.3553  0.7837
  259SOL     OW  775   0.471   1.593   2.614  0.6825 -0.1874 -0.5849
  259SOL    HW1  776   0.542   1.589   2.541 -0.3549 -0.2976 -0.0538
  259SOL    HW2  777   0.439   1.506   2.653 -1.0770 -1.5714  0.7277
  260SOL     OW  778   2.319   1.122   1.510  0.1134 -0.3656  0.4441
  260SOL    HW1  779   2.362   1.201   1.566 -0.4092  4.5947  1.7585
  260SOL    HW2  780   2.253   1.164   1.438 -0.1563  0.9130 -0.8882
  261SOL     OW  781   1.326   0.706   0.756  0.3693  0.1130 -0.8122
  261SOL    HW1  782   1.416   0.661   0.775  2.2543  0.7236 -1.6461
  261SOL    HW2  783   1.250   0.655   0.797 -1.4600 -0.6811  3.0681
  262SOL     OW  784   1.815   2.147   2.512  0.0906  0.0457 -0.3088
  262SOL    HW1  785   1.895   2.207   2.488  1.8062 -0.7463 -0.2971
  262SOL    HW2  786   1.781   2.153   2.609 -0.8997  0.6362 -2.2102
  263SOL     OW  787   0.158   1.696   3.068 -0.1345 -0.7349  0.9447
  263SOL    HW1  788   0.122   1.599   3.056 -0.6084  0.0664  0.1303
  263SOL    HW2  789   0.258   1.686   3.048  0.0004  1.5558  0.1607
  264SOL     OW  790   0.390   1.892   1.184 -0.6868 -0.1180 -0.0709
  264SOL    HW1  791   0.419   1.879   1.279 -0.0594  0.0287 -2.3729
  264SOL    HW2  792   0.430   1.821   1.125  0.4259  0.6308  3.6352
  265SOL     OW  793   0.678   0.981   0.173 -0.0935  0.3731 -0.4309
  265SOL    HW1  794   0.750   1.025   0.231  0.1944  0.8793 -1.2644
  265SOL    HW2  795   0.586   1.009   0.205 -1.4975 -1.2270  0.7425
  266SOL     OW  796   1.251   1.723   0.044  0.6837 -0.1462 -0.0077
  266SOL    HW1  797   1.266   1.628   0.078 -0.6878 -2.0340 -0.1439
  266SOL    HW2  798   1.181   1.720   3.069 -1.4303  1.8019  1.3442
  267SOL     OW  799   0.657   0.756   2.048  0.5816  0.2611  0.3192
  267SOL    HW1  800   0.603   0.808   2.114  1.5477  1.6763 -2.2144
  267SOL    HW2  801   0.651   0.654   2.065 -2.2039  1.1733 -0.5444
  268SOL     OW  802   0.351   0.735   2.904 -0.0486  0.2540  0.0498
  268SOL    HW1  803   0.390   0.828   2.897 -1.8307  1.6405 -3.5144
  268SOL    HW2  804   0.245   0.746   2.902 -2.6240  1.8639 -0.9239
  269SOL     OW  805   1.703   2.879   2.580 -0.7821 -0.6538  0.0044
  269SOL    HW1  806   1.757   2.887   2.495 -1.1623 -1.3408 -0.1140
  269SOL    HW2  807   1.621   2.825   2.556 -0.6326  1.8976 -1.3661
  270SOL     OW  808   1.051   1.523   2.293  0.4673  0.3404  0.1812
  270SOL    HW1  809   0.989   1.511   2.370  2.9437 -1.7189 -1.7121
  270SOL    HW2  810   1.149   1.497   2.312 -0.1536  1.8694  0.4885
  271SOL     OW  811   0.053   0.174   0.018  0.0284 -0.0833  0.4021
  271SOL    HW1  812   0.091   0.270   0.020  2.5899  1.7650 -2.3099
  271SOL    HW2  813   0.133   0.111   0.000 -0.1257 -0.7971 -1.7874
  272SOL     OW  814   2.173   0.813   0.274 -0.1408 -0.3470  0.0852
  272SOL    HW1  815   2.241   0.774   0.345  1.4041 -1.4069  0.5877
  272SOL    HW2  816   2.215   0.880   0.212 -2.1192 -0.5849  0.1405
  273SOL     OW  817   0.152   0.165   2.153 -0.7263 -1.2826 -0.3127
  273SOL    HW1  818   0.144   0.209   2.058 -2.7108 -0.4537 -1.5466
  273SOL    HW2  819   0.153   0.235   2.228  0.1558 -0.3488  0.5301
  274SOL     OW  820   0.054   0.319   1.862  0.3417 -0.1791 -0.1368
  274SOL    HW1  821   0.019   0.403   1.901  0.1271 -0.7068 -2.7565
  274SOL    HW2  822   0.004   0.300   1.776 -0.3229  0.0722  2.7652
  275SOL     OW  823   1.341   1.731   0.522  0.1873 -0.7283  0.4953
  275SOL    HW1  824   1.281   1.647   0.532  1.5304  0.3862 -0.2284
  275SOL    HW2  825   1.410   1.719   0.594 -1.3663  1.1560 -1.5647
  276SOL     OW  826   0.544   0.906   2.249 -0.1184 -0.1343 -0.7013
  276SOL    HW1  827   0.542   0.945   2.344 -0.8801  2.4937 -0.2470
  276SOL    HW2  828   0.492   0.970   2.195 -2.0765 -2.0034  0.8269
  277SOL     OW  829   1.850   2.409   2.286 -0.8139 -0.1747 -0.2020
  277SOL    HW1  830   1.776   2.359   2.245  4.0498 -1.1829  0.0888
  277SOL    HW2  831   1.837   2.511   2.287 -1.3142  0.3891 -1.9322
  278SOL     OW  832   1.842   2.924   2.324  0.0008  0.2223  0.1100
  278SOL    HW1  833   1.940   2.919   2.291  1.6446 -2.3200 -1.2306
  278SOL    HW2  834   1.791   2.988   2.270  0.3422 -2.2522 -0.1028
  279SOL     OW  835   1.758   1.194   0.021 -0.1024  0.0195 -0.6334
  279SOL    HW1  836   1.711   1.282   0.054  0.2791  3.1792  2.3699
  279SOL    HW2  837   1.861   1.193   0.048  3.5512  0.7665 -1.5362
  280SOL     OW  838   0.896   1.185   2.916 -0.8238 -0.1658 -0.2292
  280SOL    HW1  839   0.905   1.281   2.948  1.9363 -0.3441 -0.4862
  280SOL    HW2  840   0.984   1.133   2.937  0.3107 -1.4548  3.2059
  281SOL     OW  841   3.066   0.109   1.409 -0.5878  0.0390 -0.0354
  281SOL    HW1  842   0.050   0.061   1.442 -1.0010 -1.5247  2.0577
  281SOL    HW2  843   3.056   0.109   1.307 -3.1846  0.4135 -2.0337
  282SOL     OW  844   2.941   2.168   0.819  0.4988 -0.0061 -0.0393
  282SOL    HW1  845   3.013   2.207   0.882  1.1070  0.4068 -0.6894
  282SOL    HW2  846   2.850   2.202   0.854  2.2128  1.7716  1.9077
  283SOL     OW  847   1.413   1.851   2.085 -0.8427  0.0846 -0.1207
  283SOL    HW1  848   1.481   1.779   2.105  1.7016  0.6645 -1.3994
  283SOL    HW2  849   1.320   1.814   2.086  1.3569 -0.5084  0.7982
  284SOL     OW  850   1.705   0.185   0.542 -0.3442 -0.0188  0.3919
  284SOL    HW1  851   1.700   0.162   0.442 -3.4002 -0.0019  2.5524
  284SOL    HW2  852   1.614   0.213   0.576  1.6999  0.7784  2.2881
  285SOL     OW  853   2.864   2.782   2.682  0.0703 -0.4770 -0.7334
  285SOL    HW1  854   2.760   2.785   2.667 -2.9891  0.5069  0.9776
  285SOL    HW2  855   2.898   2.710   2.744 -0.4494  0.8692 -1.6756
  286SOL     OW  856   2.370   2.430   1.270 -0.3747  0.2238  0.2392
  286SOL    HW1  857   2.430   2.424   1.353  2.0822  1.3830  1.5649
  286SOL    HW2  858   2.405   2.381   1.189 -1.7666 -0.5467  0.7558
  287SOL     OW  859   0.459   1.247   0.518  0.5781  0.5918  0.0641
  287SOL    HW1  860   0.378   1.265   0.579 -0.9390  0.9669  2.8272
  287SOL    HW2  861   0.498   1.335   0.484  1.7524 -0.6931 -3.1270
  288SOL     OW  862   2.183   1.726   2.647 -0.3201  0.0974  0.0854
  288SOL    HW1  863   2.099   1.700   2.702 -1.1690  3.2778 -1.2134
  288SOL    HW2  864   2.256   1.761   2.710  1.0240 -0.6449  0.3409
  289SOL     OW  865   0.157   1.627   2.606  0.3483 -0.2712  0.4710
  289SOL    HW1  866   0.094   1.689   2.662 -0.5093  0.7423 -0.3599
  289SOL    HW2  867   0.195   1.561   2.670 -0.0680 -0.3111  0.3778
  290SOL     OW  868   1.013   1.942   1.111 -0.3874  0.3070  0.3024
  290SOL    HW1  869   1.056   1.902   1.027 -0.1888  0.5172 -0.5830
  290SOL    HW2  870   0.917   1.971   1.088  0.8285 -0.1824  2.0482
  291SOL     OW  871   1.644   1.086   2.887  0.2388  0.2906  0.2120
  291SOL    HW1  872   1.720   1.023   2.871 -0.6866  1.2778 -0.4789
  291SOL    HW2  873   1.666   1.134   2.976  0.5069  2.7070  0.9006
  292SOL     OW  874   1.145   1.554   0.608 -0.0601 -0.3572  0.3183
  292SOL    HW1  875   1.044   1.555   0.642 -0.1080  1.7238  1.8916
  292SOL    HW2  876   1.202   1.489   0.658  2.1445  0.7606 -0.7478
  293SOL     OW  877   1.880   2.769   0.998  0.6536 -0.1491 -0.6415
  293SOL    HW1  878   1.923   2.821   1.075  0.9109 -2.3531  0.2107
  293SOL    HW2  879   1.826   2.821   0.928 -2.3554 -1.0089  1.2690
  294SOL     OW  880   2.744   1.312   2.756  0.1828  0.0705 -0.0112
  294SOL    HW1  881   2.688   1.285   2.675  1.9364  0.7773 -2.9944
  294SOL    HW2  882   2.790   1.227   2.786 -1.5794 -2.3037 -0.4178
  295SOL     OW  883   1.610   2.095   2.358  0.4294 -0.1074  0.8350
  295SOL    HW1  884   1.686   2.122   2.422  1.0968  1.8276 -1.4396
  295SOL    HW2  885   1.647   2.071   2.266 -0.9202  1.2666 -1.8969
  296SOL     OW  886   1.765   0.668   1.904  0.2625 -0.3484 -0.0901
  296SOL    HW1  887   1.708   0.733   1.849  0.4554 -1.8151 -1.6220
  296SOL    HW2  888   1.709   0.618   1.975  1.5972 -2.6475  0.1539
  297SOL     OW  889   0.014   0.636   1.985 -0.1949  0.1643  0.1991
  297SOL    HW1  890   3.040   0.568   1.969 -1.4218  0.0184  1.6517
  297SOL    HW2  891   0.004   0.726   1.938 -1.0293 -1.4721 -1.4974
  298SOL     OW  892   1.191   2.708   2.019 -0.0889  0.2534  0.1601
  298SOL    HW1  893   1.154   2.630   2.072 -1.6288  0.2764 -2.7889
  298SOL    HW2  894   1.186   2.700   1.918  0.2631 -0.3365  0.9727
  299SOL     OW  895   1.239   2.535   2.857 -0.0395  0.1245 -0.2506
  299SOL    HW1  896   1.305   2.587   2.914  2.5729  1.5471 -0.5086
  299SOL    HW2  897   1.260   2.566   2.759  0.2534 -1.6674 -2.0895
  300SOL     OW  898   2.853   1.040   2.775  0.2145  0.2130  0.3109
  300SOL    HW1  899   2.819   1.013   2.866 -2.9622  2.9871 -1.2353
  300SOL    HW2  900   2.821   0.974   2.703  1.0935 -1.4078 -1.0222
  301SOL     OW  901   1.813   1.069   1.602 -0.6000 -0.0390 -0.0816
  301SOL    HW1  902   1.840   0.980   1.562 -1.2346  0.7800  0.8581
  301SOL    HW2  903   1.893   1.108   1.660  1.0819 -0.7581 -1.4166
  302SOL     OW  904   2.696   1.946   2.498 -0.3126 -0.1583 -0.5469
  302SOL    HW1  905   2.699   1.844   2.502  0.5938  0.8816  0.8013
  302SOL    HW2  906   2.611   1.978   2.454  0.2595  0.1968 -0.1370
  303SOL     OW  907   0.177   2.896   2.410 -0.0187  0.1428 -0.0717
  303SOL    HW1  908   0.082   2.916   2.438  1.8890 -0.3139  1.0118
  303SOL    HW2  909   0.240   2.951   2.471  0.1374 -2.9643 -0.7385
  304SOL     OW  910   0.235   0.927   1.274  0.2282  0.0881  0.0569
  304SOL    HW1  911   0.265   1.025   1.275 -0.3333 -2.7262 -0.8450
  304SOL    HW2  912   0.309   0.863   1.247  0.2175  0.2346 -4.8989
  305SOL     OW  913   2.689   0.416   1.702 -0.5940  0.0650 -0.4947
  305SOL    HW1  914   2.708   0.387   1.606  0.0129  0.0086  2.8182
  305SOL    HW2  915   2.627   0.356   1.757 -0.9586 -1.7146 -1.3127
  306SOL     OW  916   2.547   1.049   1.371  0.2449 -0.2075  0.0694
  306SOL    HW1  917   2.619   1.010   1.428 -0.3986 -0.6609  0.6968
  306SOL    HW2  918   2.471   1.079   1.431  0.9151  0.6719  0.7340
  307SOL     OW  919   2.513   2.896   0.751 -0.3525 -0.2041  0.1463
  307SOL    HW1  920   2.602   2.907   0.796  0.8265  2.3845  0.3363
  307SOL    HW2  921   2.505   2.806   0.704  1.7990 -1.0531 -1.1175
  308SOL     OW  922   2.711   1.772   1.402 -0.0781 -0.2561 -0.2510
  308SOL    HW1  923   2.649   1.706   1.453 -2.4018  0.6340 -1.9578
  308SOL    HW2  924   2.724   1.735   1.306 -3.0511 -0.5588 -2.0366
  309SOL     OW  925   2.223   2.169   1.708  0.4341 -0.0636  0.7123
  309SOL    HW1  926   2.151   2.238   1.680 -1.9663  2.8263 -2.3080
  309SOL    HW2  927   2.201   2.137   1.799 -0.3194 -1.2211 -0.7968
  310SOL     OW  928   2.192   1.299   2.653  0.8652  0.3368  0.7142
  310SOL    HW1  929   2.230   1.379   2.601 -2.2067 -1.4167  0.9730
  310SOL    HW2  930   2.165   1.228   2.586 -0.5649 -0.8004  0.2378
  311SOL     OW  931   2.070   1.065   2.968  0.3784 -0.2600  0.1570
  311SOL    HW1  932   1.996   1.055   2.895 -5.1895  0.2988  0.6741
  311SOL    HW2  933   2.034   1.012   3.046 -0.0203 -2.4172 -0.1433
  312SOL     OW  934   1.137   2.485   2.140 -0.0193  0.0937  0.1925
  312SOL    HW1  935   1.153   2.394   2.098  0.8955  1.8889 -1.0163
  312SOL    HW2  936   1.073   2.475   2.219 -0.1108  0.4508  1.2554
  313SOL     OW  937   0.735   3.032   0.741 -0.0847 -0.2625  0.1922
  313SOL    HW1  938   0.687   3.028   0.652  1.2356 -1.2352  1.4425
  313SOL    HW2  939   0.764   2.942   0.772 -0.1034  2.6434 -0.7799
  314SOL     OW  940   0.543   1.761   0.993 -0.2972  0.6343  0.3059
  314SOL    HW1  941   0.565   1.668   1.032  0.4069  0.1072 -0.6488
  314SOL    HW2  942   0.607   1.784   0.920 -0.5337  2.5254 -1.3773
  315SOL     OW  943   0.767   2.702   2.208  0.4667  0.5969  0.0100
  315SOL    HW1  944   0.775   2.788   2.155  1.5855 -4.2524  0.6471
  315SOL    HW2  945   0.837   2.694   2.280  0.8903  0.2292 -1.2180
  316SOL     OW  946   0.013   2.230   1.012 -0.0239  0.2159  0.1255
  316SOL    HW1  947   3.078   2.267   1.103  0.6419  1.5116 -2.5916
  316SOL    HW2  948   0.080   2.153   1.035  1.2297 -1.5681  0.1850
  317SOL     OW  949   1.909   0.718   0.595 -0.4082 -0.1223  0.0102
  317SOL    HW1  950   1.955   0.720   0.689 -0.3775  2.1485  0.5883
  317SOL    HW2  951   1.946   0.642   0.538 -1.1808  0.5000 -0.0544
  318SOL     OW  952   2.538   2.617   3.031 -0.9791  0.2634 -0.1603
  318SOL    HW1  953   2.544   2.689   0.000  0.2695 -2.1840 -0.8716
  318SOL    HW2  954   2.624   2.560   3.034 -2.1122 -0.2051  1.0663
  319SOL     OW  955   1.496   1.702   2.968 -0.4380 -0.1148  0.1353
  319SOL    HW1  956   1.492   1.785   2.913  1.8475 -2.3654  1.6509
  319SOL    HW2  957   1.419   1.691   3.035  0.6489  0.1631 -3.2674
  320SOL     OW  958   0.741   2.529   2.635  0.2809  0.0339  0.3984
  320SOL    HW1  959   0.692   2.460   2.691  1.5282 -1.3131 -2.5007
  320SOL    HW2  960   0.818   2.479   2.598 -1.1760  2.2315  2.3378
  321SOL     OW  961   0.953   2.600   0.139  0.3270 -0.8348  0.0510
  321SOL    HW1  962   0.988   2.503   0.144 -2.0508  0.4801 -0.2041
  321SOL    HW2  963   0.890   2.620   0.218 -1.2512  0.7027  0.6032
  322SOL     OW  964   2.006   0.435   2.405 -0.7749  0.1620 -0.6772
  322SOL    HW1  965   2.052   0.518   2.442  2.1014  0.2932  0.9364
  322SOL    HW2  966   2.024   0.438   2.306  2.5081  0.8626  0.9338
  323SOL     OW  967   2.952   0.800   0.772 -0.3821  0.1361  0.1309
  323SOL    HW1  968   3.050   0.778   0.800  0.8132 -2.2136  0.3021
  323SOL    HW2  969   2.942   0.777   0.673 -1.1628 -2.5410  0.3511
  324SOL     OW  970   0.315   0.550   2.312  0.3040 -0.2573 -0.2442
  324SOL    HW1  971   0.285   0.628   2.252  0.0724  1.9439  0.2038
  324SOL    HW2  972   0.414   0.529   2.286 -0.3476  2.9487 -1.5995
  325SOL     OW  973   0.396   0.072   2.280 -0.1087  0.3853  0.4753
  325SOL    HW1  974   0.310   0.081   2.227  2.4379  0.4982 -0.0697
  325SOL    HW2  975   0.383   0.017   2.365  1.8387 -0.4721  0.6523
  326SOL     OW  976   2.505   2.320   0.322  0.4000  0.1135  0.1402
  326SOL    HW1  977   2.454   2.352   0.240  2.0671  0.4394 -0.5262
  326SOL    HW2  978   2.590   2.375   0.335 -1.6076 -1.1466  0.7449
  327SOL     OW  979   2.425   1.301   0.632  0.1641 -0.4065 -0.7141
  327SOL    HW1  980   2.417   1.218   0.690 -1.2860  0.5455 -0.9910
  327SOL    HW2  981   2.371   1.294   0.550  1.1079  0.8486  2.3315
  328SOL     OW  982   0.188   2.037   2.259 -0.3255 -0.0633  0.0376
  328SOL    HW1  983   0.201   1.932   2.255 -0.4156 -0.4285  1.0807
  328SOL    HW2  984   0.177   2.078   2.168  1.7157 -0.8788 -1.1070
  329SOL     OW  985   2.870   2.252   1.561 -0.0662 -0.2557  0.5755
  329SOL    HW1  986   2.805   2.183   1.530  1.2129 -0.7667  1.0410
  329SOL    HW2  987   2.876   2.268   1.661 -0.3611 -0.9777 -1.7711
  330SOL     OW  988   2.478   1.301   2.274  0.0686 -0.1655 -0.7117
  330SOL    HW1  989   2.380   1.275   2.261 -0.5676  1.0706  1.3641
  330SOL    HW2  990   2.536   1.277   2.192  1.8110 -0.6530  1.1332
  331SOL     OW  991   2.735   2.194   1.051 -0.3852 -0.3456 -0.1163
  331SOL    HW1  992   2.740   2.173   1.150 -0.8745 -0.5049 -0.7912
  331SOL    HW2  993   2.726   2.111   0.991  0.0214 -1.7253 -0.3525
  332SOL     OW  994   0.530   2.835   0.964 -0.3280 -0.2866 -0.3386
  332SOL    HW1  995   0.488   2.838   0.871 -2.0169  0.9023  0.1712
  332SOL    HW2  996   0.457   2.830   1.037 -1.4018  1.0158  0.2957
  333SOL     OW  997   2.046   0.168   2.408 -0.0298  0.0579 -0.0408
  333SOL    HW1  998   2.026   0.137   2.311  0.3536  1.6141 -0.2990
  333SOL    HW2  999   2.035   0.271   2.418 -0.5010 -1.1875  0.6835
  334SOL     OW 1000   0.905   1.054   0.302  0.4196  0.8963  0.5332
  334SOL    HW1 1001   0.988   1.118   0.300 -2.0519 -0.2145 -1.1934
  334SOL    HW2 1002   0.919   0.982   0.370  1.6405  0.4539 -0.2241
  335SOL     OW 1003   0.410   2.406   2.299  0.1242 -0.3063  0.3741
  335SOL    HW1 1004   0.428   2.310   2.326 -2.1034 -0.2091  2.0595
  335SOL    HW2 1005   0.311   2.433   2.301 -0.5367 -0.9744  2.5318
  336SOL     OW 1006   2.573   2.813   2.613 -0.4798 -0.3439  0.2577
  336SOL    HW1 1007   2.526   2.905   2.631 -0.7322  2.6522 -0.6604
  336SOL    HW2 1008   2.614   2.815   2.519 -0.8860  1.6652  1.4433
  337SOL     OW 1009   1.092   1.325   0.992 -0.2709 -0.3577 -0.0569
  337SOL    HW1 1010   1.153   1.311   1.066  1.3080  1.1546 -1.0910
  337SOL    HW2 1011   1.140   1.325   0.901 -0.7863 -0.7839 -0.1310
  338SOL     OW 1012   0.754   2.007   1.076  0.0806 -0.0081 -0.0843
  338SOL    HW1 1013   0.724   2.105   1.060 -0.2108 -0.7067 -1.7586
  338SOL    HW2 1014   0.671   1.955   1.112  0.3225  1.1266  1.5573
  339SOL     OW 1015   0.053   1.199   1.560  0.0956  0.1798  0.3859
  339SOL    HW1 1016   0.004   1.135   1.496 -1.6894  0.4460 -0.5614
  339SOL    HW2 1017   3.086   1.242   1.622  0.6147 -1.1295  0.0389
  340SOL     OW 1018   1.583   0.020   2.125 -0.1375 -0.4954 -0.4522
  340SOL    HW1 1019   1.554   3.060   2.204  1.7062  1.7262 -1.8336
  340SOL    HW2 1020   1.561   3.070   2.034 -0.3579 -3.6959 -2.9701
  341SOL     OW 1021   1.479   1.540   0.964 -0.1193 -0.5239 -0.5758
  341SOL    HW1 1022   1.410   1.554   1.039  1.0322 -0.4796 -0.9020
  341SOL    HW2 1023   1.520   1.451   0.973 -4.5765  1.7172 -0.2721
  342SOL     OW 1024   2.980   1.360   0.822 -1.0425  0.3673  0.2454
  342SOL    HW1 1025   2.948   1.263   0.836 -0.4673 -0.4299  0.1164
  342SOL    HW2 1026   3.015   1.404   0.908  1.0298 -1.4909 -0.5811
  343SOL     OW 1027   3.021   0.709   1.445 -0.0071 -0.4101 -0.0256
  343SOL    HW1 1028   3.071   0.632   1.482 -2.5121  1.6707  1.4419
  343SOL    HW2 1029   3.028   0.719   1.347 -0.3010 -0.5843  0.9657
  344SOL     OW 1030   1.725   0.276   1.057 -0.2505 -0.2429  0.1311
  344SOL    HW1 1031   1.780   0.338   0.997 -1.1457 -1.6589 -0.2770
  344SOL    HW2 1032   1.714   0.320   1.146  0.9319 -0.2512 -2.9921
  345SOL     OW 1033   0.427   2.801   2.683  0.1335 -0.3766  0.5485
  345SOL    HW1 1034   0.481   2.749   2.614 -0.7603  0.4294 -1.7102
  345SOL    HW2 1035   0.477   2.883   2.719 -0.7154  0.2147  1.7849
  346SOL     OW 1036   2.495   1.672   0.337 -0.3370  0.4325  0.4028
  346SOL    HW1 1037   2.424   1.679   0.414  0.1534  1.2248  1.7721
  346SOL    HW2 1038   2.590   1.704   0.360  1.5489  2.1954 -0.9767
  347SOL     OW 1039   2.281   0.121   1.838  0.3970  0.2016 -0.3725
  347SOL    HW1 1040   2.247   0.216   1.827 -0.2192 -1.7499 -0.5101
  347SOL    HW2 1041   2.253   0.066   1.757  0.6533 -0.0349 -0.4395
  348SOL     OW 1042   1.220   1.334   1.471 -0.4574 -0.0500 -0.2059
  348SOL    HW1 1043   1.154   1.341   1.397 -0.0536 -0.6439 -0.0146
  348SOL    HW2 1044   1.314   1.364   1.441  0.6938  4.5604  1.8978
  349SOL     OW 1045   2.679   0.689   1.745 -0.2080  0.5296  0.2690
  349SOL    HW1 1046   2.664   0.590   1.716 -1.1599 -0.3937  1.2442
  349SOL    HW2 1047   2.778   0.724   1.728  0.5846  1.6157  1.6480
  350SOL     OW 1048   2.200   2.006   3.027 -0.1396 -0.0037  0.2819
  350SOL    HW1 1049   2.179   2.049   2.942  1.7277  0.0375 -0.5316
  350SOL    HW2 1050   2.183   1.909   3.036 -1.2387  2.0017  1.5460
  351SOL     OW 1051   0.702   0.108   1.876  0.7076 -0.1651  0.3209
  351SOL    HW1 1052   0.792   0.137   1.912  1.5029 -3.3381  2.2306
  351SOL    HW2 1053   0.698   0.102   1.771 -0.5927 -0.5401 -1.8002
  352SOL     OW 1054   2.061   2.448   1.893  0.3312  0.5240 -0.1934
  352SOL    HW1 1055   2.157   2.480   1.873  2.2971  0.3008  0.1341
  352SOL    HW2 1056   2.054   2.382   1.967 -1.7412 -1.0267  0.3716
  353SOL     OW 1057   0.752   1.262   2.341  0.2427 -0.3812  0.3978
  353SOL    HW1 1058   0.791   1.167   2.322  0.5292 -0.4317  0.0843
  353SOL    HW2 1059   0.672   1.258   2.402  1.8254 -0.1673 -1.2125
  354SOL     OW 1060   1.059   1.793   2.956  0.3590  0.2206 -0.0426
  354SOL    HW1 1061   1.083   1.883   3.000 -2.2648  1.1144  0.4483
  354SOL    HW2 1062   0.978   1.805   2.890 -0.8118 -2.8180 -0.3786
  355SOL     OW 1063   2.029   2.951   1.119 -0.3438  0.4176  0.0915
  355SOL    HW1 1064   2.092   2.912   1.047 -0.6635 -1.3184 -1.2885
  355SOL    HW2 1065   2.002   3.048   1.106 -2.2471 -0.1481  3.6807
  356SOL     OW 1066   2.449   1.207   3.059  0.2755  0.0656 -0.1889
  356SOL    HW1 1067   2.466   1.235   2.960  0.9799  0.5088  0.6542
  356SOL    HW2 1068   2.448   1.291   0.018  0.0579 -0.0619 -2.8031
  357SOL     OW 1069   2.889   0.022   2.057  0.1005  0.3694  0.1948
  357SOL    HW1 1070   2.968   0.009   2.000 -4.3242  2.8672 -0.9329
  357SOL    HW2 1071   2.805   0.026   1.996 -0.9878 -1.4512 -0.8509
  358SOL     OW 1072   0.204   1.288   0.609  0.7594 -0.3660 -0.2732
  358SOL    HW1 1073   0.166   1.198   0.637  1.9290 -0.5969 -1.2977
  358SOL    HW2 1074   0.145   1.359   0.647  0.5276 -0.0543 -2.5147
  359SOL     OW 1075   2.633   0.371   2.884  0.3033  0.0141 -0.0053
  359SOL    HW1 1076   2.538   0.403   2.856 -0.9865  1.1977  0.2181
  359SOL    HW2 1077   2.659   0.393   2.982  1.2745  0.0683  3.7792
  360SOL     OW 1078   1.438   0.809   1.055  0.2775 -0.3264 -0.3560
  360SOL    HW1 1079   1.449   0.707   1.073  0.7211 -0.1623  2.8403
  360SOL    HW2 1080   1.523   0.859   1.082  0.0518  1.3306  2.3637
  361SOL     OW 1081   2.684   2.402   0.870 -0.3019 -0.1235 -0.1791
  361SOL    HW1 1082   2.726   2.346   0.946  0.5026 -1.6148  0.0363
  361SOL    HW2 1083   2.658   2.496   0.900  1.2930 -0.0286  2.0291
  362SOL     OW 1084   1.253   0.369   0.920  0.0873  0.3269  0.4001
  362SOL    HW1 1085   1.209   0.300   0.863  0.3500  2.2062 -0.0239
  362SOL    HW2 1086   1.203   0.455   0.930  1.1799  1.6925  0.9343
  363SOL     OW 1087   1.916   1.853   0.504 -0.5583  0.4799  0.0740
  363SOL    HW1 1088   2.004   1.836   0.460 -3.0074  4.5248  0.1071
  363SOL    HW2 1089   1.912   1.954   0.513  1.6178 -1.4738  1.3216
  364SOL     OW 1090   0.485   0.431   1.270  0.8392 -0.0060 -0.2716
  364SOL    HW1 1091   0.394   0.466   1.303 -0.3610  1.3073  0.5695
  364SOL    HW2 1092   0.529   0.503   1.213 -1.3489 -1.7461 -1.6898
  365SOL     OW 1093   0.234   3.069   0.989 -0.7463 -0.0915 -0.5075
  365SOL    HW1 1094   0.320   0.019   0.984 -0.4569 -2.1754  0.2089
  365SOL    HW2 1095   0.213   3.025   1.078 -1.1626  1.7825 -0.8525
  366SOL     OW 1096   2.951   1.562   0.111 -0.0632 -0.4928  0.0604
  366SOL    HW1 1097   3.015   1.515   0.049 -0.1778 -3.2687 -1.5239
  366SOL    HW2 1098   2.995   1.641   0.160 -0.5135 -0.1561  2.2164
  367SOL     OW 1099   2.301   2.495   2.421 -0.1513  0.0867  0.2431
  367SOL    HW1 1100   2.255   2.511   2.513  0.3432  2.4071  0.9749
  367SOL    HW2 1101   2.396   2.469   2.447  2.0103 -0.7105 -1.0748
  368SOL     OW 1102   2.269   1.738   0.503  0.2277 -0.2405  0.4248
  368SOL    HW1 1103   2.309   1.727   0.597  2.0944 -1.5486 -2.9695
  368SOL    HW2 1104   2.189   1.675   0.487 -0.2770 -1.0131 -1.4067
  369SOL     OW 1105   1.502   0.792   0.039 -0.4301  0.7453 -0.1428
  369SOL    HW1 1106   1.457   0.880   0.062 -0.1902  0.7240 -1.3001
  369SOL    HW2 1107   1.439   0.711   0.052 -0.8143  0.7697 -0.4206
  370SOL     OW 1108   0.471   0.111   0.870 -0.0337 -0.1458 -0.1757
  370SOL    HW1 1109   0.486   0.136   0.970  1.5597 -1.3631 -0.9501
  370SOL    HW2 1110   0.543   0.045   0.845 -0.3956 -1.3105  1.2543
  371SOL     OW 1111   2.907   1.488   2.659 -0.0492  0.0798  0.1929
  371SOL    HW1 1112   2.935   1.551   2.729 -0.7994 -0.4382  0.5448
  371SOL    HW2 1113   2.843   1.417   2.697  1.4501 -2.3740 -1.3485
  372SOL     OW 1114   0.626   0.659   2.343 -0.5435 -0.2764  0.4310
  372SOL    HW1 1115   0.642   0.601   2.262  0.9196  3.3131  2.0570
  372SOL    HW2 1116   0.597   0.753   2.314  3.7924  0.0121 -1.7673
  373SOL     OW 1117   0.499   0.090   2.950  0.3808 -0.6425  0.5001
  373SOL    HW1 1118   0.507   0.168   2.880 -0.6086  3.3519 -1.2396
  373SOL    HW2 1119   0.588   0.053   2.977 -0.4936  2.0046 -0.8606
  374SOL     OW 1120   1.185   1.557   2.871 -0.2683  0.1374 -0.8788
  374SOL    HW1 1121   1.176   1.555   2.771 -0.6138 -0.1963 -0.2297
  374SOL    HW2 1122   1.148   1.641   2.917  0.1632  1.3000  1.7309
  375SOL     OW 1123   0.790   0.473   1.812  0.1505  0.4253 -0.5977
  375SOL    HW1 1124   0.870   0.445   1.752 -0.9948  0.3205  3.2923
  375SOL    HW2 1125   0.811   0.463   1.914 -1.7945  2.8375  2.1053
  376SOL     OW 1126   0.431   2.802   2.097 -0.1271  0.1637  0.1073
  376SOL    HW1 1127   0.356   2.810   2.168 -3.4811 -1.2516  1.1989
  376SOL    HW2 1128   0.480   2.710   2.092  0.2867 -0.2543 -0.5933
  377SOL     OW 1129   2.607   2.265   3.076  0.4651 -0.3065 -0.4658
  377SOL    HW1 1130   2.533   2.324   0.018 -0.2338  1.4305 -1.5442
  377SOL    HW2 1131   2.569   2.173   3.063  0.9030 -0.3537 -1.4817
  378SOL     OW 1132   1.987   0.288   0.269 -0.5103 -0.2965 -0.1302
  378SOL    HW1 1133   1.951   0.192   0.279 -0.5168  0.2890 -0.4313
  378SOL    HW2 1134   2.090   0.283   0.245  2.3996 -0.3273 -0.2549
  379SOL     OW 1135   1.660   0.771   0.453  0.1071  0.0154 -0.4521
  379SOL    HW1 1136   1.714   0.708   0.501 -1.2338 -0.7708  0.9337
  379SOL    HW2 1137   1.706   0.802   0.369 -1.2596  0.5668  1.0307
  380SOL     OW 1138   2.713   2.057   1.876 -0.5583  0.0367  0.3066
  380SOL    HW1 1139   2.796   2.119   1.856  0.6784  2.0832  0.0625
  380SOL    HW2 1140   2.684   2.004   1.796  1.3371  0.1217 -1.4517
  381SOL     OW 1141   2.654   1.260   2.085 -0.3973  0.0389 -0.5404
  381SOL    HW1 1142   2.729   1.329   2.073  0.5835  3.6554  0.3297
  381SOL    HW2 1143   2.685   1.169   2.110 -1.4722  2.2583 -1.7141
  382SOL     OW 1144   2.745   2.280   2.816  0.2444  0.1030  0.2582
  382SOL    HW1 1145   2.692   2.264   2.902 -0.0520 -0.7892  5.1059
  382SOL    HW2 1146   2.775   2.195   2.762  1.6422  1.4900 -0.2963
  383SOL     OW 1147   1.102   1.085   2.683 -0.1251 -0.2684  0.1720
  383SOL    HW1 1148   1.135   1.010   2.620 -0.6609  0.5403  1.1413
  383SOL    HW2 1149   1.102   1.056   2.780  2.1776 -0.7805 -2.4517
  384SOL     OW 1150   1.919   1.977   2.286  0.2340  0.7387 -0.0594
  384SOL    HW1 1151   1.902   1.952   2.382 -1.6103  0.0411 -1.3659
  384SOL    HW2 1152   2.009   2.026   2.276  4.2484 -0.9657 -0.2644
  385SOL     OW 1153   2.099   2.614   0.197 -0.0050 -0.0667  0.7226
  385SOL    HW1 1154   2.112   2.558   0.279  0.0745  1.2664 -2.0600
  385SOL    HW2 1155   2.152   2.697   0.219 -0.5906  0.6697 -1.0851
  386SOL     OW 1156   1.887   1.386   0.546 -0.5569  0.7090  0.1188
  386SOL    HW1 1157   1.883   1.300   0.494 -1.2878 -2.9066 -0.6286
  386SOL    HW2 1158   1.808   1.447   0.533  2.2946  0.9779  2.1254
  387SOL     OW 1159   2.499   1.815   1.034 -0.1168 -0.0919  0.6936
  387SOL    HW1 1160   2.462   1.876   1.108  1.0684  2.4701 -1.6672
  387SOL    HW2 1161   2.585   1.763   1.068  1.7609  0.1600 -1.6232
  388SOL     OW 1162   0.451   1.139   1.542  0.2346 -0.3461 -0.3342
  388SOL    HW1 1163   0.374   1.073   1.547 -4.5679 -0.5936  2.1430
  388SOL    HW2 1164   0.417   1.235   1.564  0.0944  1.6131  0.0131
  389SOL     OW 1165   2.314   0.986   2.864 -0.8432 -0.0254 -0.2406
  389SOL    HW1 1166   2.233   1.001   2.918  2.2748  1.5737  0.3219
  389SOL    HW2 1167   2.349   1.074   2.827 -0.8914  2.3051  1.2659
  390SOL     OW 1168   0.700   1.455   2.993 -0.2166  0.0661  0.7453
  390SOL    HW1 1169   0.803   1.444   3.015 -0.7826 -0.0967  1.0344
  390SOL    HW2 1170   0.688   1.518   2.911 -0.5239 -1.8536 -0.5125
  391SOL     OW 1171   0.914   1.987   0.121 -0.7780  0.3966  0.1307
  391SOL    HW1 1172   0.972   1.982   0.036 -3.2489 -0.5399 -0.5411
  391SOL    HW2 1173   0.815   1.984   0.098 -0.5842  1.4459 -0.9760
  392SOL     OW 1174   2.741   2.553   2.245  0.5412 -0.6075  0.3262
  392SOL    HW1 1175   2.819   2.512   2.296  0.4034  1.6322  2.3597
  392SOL    HW2 1176   2.706   2.480   2.184  0.4694  1.7578 -1.0656
  393SOL     OW 1177   1.514   2.167   0.175 -0.5980 -0.1065  0.8046
  393SOL    HW1 1178   1.573   2.196   0.097  0.9739 -0.7179  0.7164
  393SOL    HW2 1179   1.435   2.103   0.151  1.4953  0.5488  1.1195
  394SOL     OW 1180   0.532   0.288   2.790  0.4794  0.0833 -0.0775
  394SOL    HW1 1181   0.543   0.384   2.816 -1.7409 -0.1535  0.2244
  394SOL    HW2 1182   0.493   0.281   2.691 -0.5431 -2.5209  1.4368
  395SOL     OW 1183   0.343   1.433   1.292  0.0606  0.2616 -0.4841
  395SOL    HW1 1184   0.319   1.531   1.292  3.0957  0.2737 -0.0908
  395SOL    HW2 1185   0.338   1.391   1.384  1.4375  1.8796  1.8336
  396SOL     OW 1186   2.179   1.307   2.954 -0.0885  0.3784 -0.2229
  396SOL    HW1 1187   2.136   1.214   2.969  1.2873  1.7035  4.2141
  396SOL    HW2 1188   2.168   1.327   2.856 -3.3989 -1.8884  0.5586
  397SOL     OW 1189   0.421   0.572   0.221  0.2127 -0.1711 -0.1720
  397SOL    HW1 1190   0.360   0.612   0.153 -0.4162  0.5458 -2.0369
  397SOL    HW2 1191   0.376   0.492   0.266  2.9332 -0.3572 -2.4493
  398SOL     OW 1192   1.103   2.612   0.497  0.1695 -0.7265  0.5871
  398SOL    HW1 1193   1.192   2.569   0.463  0.1696  0.1061  1.0267
  398SOL    HW2 1194   1.030   2.575   0.436  0.5102  2.1733 -0.9478
  399SOL     OW 1195   2.054   2.310   2.450  0.3882 -0.7151 -0.4091
  399SOL    HW1 1196   1.968   2.348   2.404  1.0092 -0.8100 -2.2470
  399SOL    HW2 1197   2.112   2.268   2.379 -0.9381 -0.7677  1.6074
  400SOL     OW 1198   2.820   1.480   1.562 -0.5343 -0.4034 -0.2046
  400SOL    HW1 1199   2.728   1.442   1.563 -1.6552  3.7220  0.8604
  400SOL    HW2 1200   2.847   1.503   1.466  2.7757 -0.9425 -0.8569
  401SOL     OW 1201   1.559   1.084   0.830 -0.0166  0.6632  0.8659
  401SOL    HW1 1202   1.565   1.027   0.744  1.3002  3.0580  2.0230
  401SOL    HW2 1203   1.469   1.079   0.884 -1.1463  0.8484  1.8319
  402SOL     OW 1204   0.324   0.012   2.549 -0.2927 -0.0480 -0.2385
  402SOL    HW1 1205   0.414   3.078   2.587  1.7028  0.8013 -1.6975
  402SOL    HW2 1206   0.260   0.030   2.625 -0.7555  1.7169 -1.5155
  403SOL     OW 1207   2.768   1.688   1.756  0.8358  0.3648 -0.3706
  403SOL    HW1 1208   2.785   1.616   1.687 -1.5938  1.0534 -1.4840
  403SOL    HW2 1209   2.715   1.771   1.729 -2.3064 -0.4451 -1.3304
  404SOL     OW 1210   2.369   1.798   1.710  0.0733 -1.0427 -0.2013
  404SOL    HW1 1211   2.336   1.824   1.805  0.4542  1.1030  2.4084
  404SOL    HW2 1212   2.314   1.850   1.638  0.5704  0.6551  0.7990
  405SOL     OW 1213   2.142   0.331   2.790  0.3692 -0.6156  0.2305
  405SOL    HW1 1214   2.134   0.284   2.702  0.7689  1.5246 -0.9741
  405SOL    HW2 1215   2.100   0.419   2.774  0.0541 -0.0700 -0.6866
  406SOL     OW 1216   0.914   1.506   2.529  0.0828 -0.5688 -0.1347
  406SOL    HW1 1217   0.854   1.446   2.585 -0.4357  3.0634 -0.4680
  406SOL    HW2 1218   0.996   1.538   2.584  3.2742  0.7202  0.7493
  407SOL     OW 1219   1.706   1.988   0.835  0.5275 -0.2482  0.3373
  407SOL    HW1 1220   1.670   2.020   0.743  2.3444 -0.4757 -0.1151
  407SOL    HW2 1221   1.756   2.064   0.881  1.9188  2.4466  0.0985
  408SOL     OW 1222   0.006   3.034   0.827  0.4162  0.5619  0.5213
  408SOL    HW1 1223   0.085   3.015   0.883  0.6118 -0.3639  0.4514
  408SOL    HW2 1224   3.071   2.944   0.797 -2.2539  3.3511 -0.5827
  409SOL     OW 1225   1.898   1.372   0.866  0.1672 -0.2528 -0.1208
  409SOL    HW1 1226   1.890   1.429   0.949  1.6944 -2.7661 -2.3727
  409SOL    HW2 1227   1.877   1.426   0.782 -2.2870 -1.6435  1.0636
  410SOL     OW 1228   2.001   2.409   0.046  0.0469  0.5246  0.3394
  410SOL    HW1 1229   2.008   2.478   0.118 -1.3936  0.6568  0.5112
  410SOL    HW2 1230   2.060   2.329   0.074  0.8887  1.3548  1.5156
  411SOL     OW 1231   0.121   2.948   0.386 -0.0669  0.1485  0.2051
  411SOL    HW1 1232   0.061   2.993   0.316 -4.1612 -0.5161  1.4303
  411SOL    HW2 1233   0.121   3.009   0.469 -1.7780  1.5275  3.4718
  412SOL     OW 1234   1.584   2.702   0.810  0.2264  0.2606 -0.7308
  412SOL    HW1 1235   1.525   2.740   0.886  0.2859 -0.5805  0.7323
  412SOL    HW2 1236   1.657   2.768   0.780  2.7611  0.5117  1.5112
  413SOL     OW 1237   1.810   0.393   2.596  0.0737  0.1608  0.9133
  413SOL    HW1 1238   1.796   0.471   2.661 -1.3467  3.0442  1.1375
  413SOL    HW2 1239   1.897   0.406   2.542  3.1326  2.4883 -0.9171
  414SOL     OW 1240   0.374   0.717   0.475 -0.2928  0.3701 -0.1820
  414SOL    HW1 1241   0.311   0.785   0.431 -1.3759 -1.5356 -0.7351
  414SOL    HW2 1242   0.409   0.655   0.407 -0.0039  0.4771 -1.5477
  415SOL     OW 1243   0.004   1.136   1.167 -0.1833 -0.8062 -0.3433
  415SOL    HW1 1244   0.105   1.146   1.150  1.9694 -1.4587  0.4695
  415SOL    HW2 1245   3.060   1.079   1.092 -2.6117  1.4258 -1.7327
  416SOL     OW 1246   0.165   0.417   0.054  0.5120 -0.0050  0.8564
  416SOL    HW1 1247   0.161   0.515   0.083  1.2887 -0.2654  2.0823
  416SOL    HW2 1248   0.260   0.392   0.032 -4.5061  2.3739  2.6029
  417SOL     OW 1249   2.261   0.164   0.794 -0.3678 -0.4268 -0.7364
  417SOL    HW1 1250   2.293   0.148   0.701  1.2956  1.5078  0.7219
  417SOL    HW2 1251   2.246   0.266   0.804 -1.8973  2.2750 -1.6334
  418SOL     OW 1252   0.332   0.574   2.580  0.0453  0.2984 -0.0921
  418SOL    HW1 1253   0.431   0.590   2.609 -0.1785 -1.0745  3.3647
  418SOL    HW2 1254   0.322   0.569   2.479  0.9398  3.4827  0.2134
  419SOL     OW 1255   0.497   0.858   0.705  0.3932  0.1315 -0.1377
  419SOL    HW1 1256   0.436   0.827   0.631  0.5455  2.5858 -0.5624
  419SOL    HW2 1257   0.540   0.776   0.748 -0.6528  1.2316  0.0573
  420SOL     OW 1258   2.136   1.522   1.176  0.4009 -0.1718  0.1395
  420SOL    HW1 1259   2.036   1.501   1.185 -2.3912 -1.7105 -1.7888
  420SOL    HW2 1260   2.152   1.577   1.089 -0.1455 -0.0748 -3.7895
  421SOL     OW 1261   1.223   2.088   2.761 -0.4524 -0.0429  0.1295
  421SOL    HW1 1262   1.164   2.057   2.688 -0.6063 -1.6020  2.8705
  421SOL    HW2 1263   1.222   2.188   2.767 -1.8875 -1.3874  0.4438
  422SOL     OW 1264   2.696   0.500   0.042 -0.2738 -0.1560 -0.5309
  422SOL    HW1 1265   2.629   0.575   0.034  0.5303  0.6670  0.7697
  422SOL    HW2 1266   2.790   0.538   0.056  0.6997 -1.6213  0.6197
  423SOL     OW 1267   1.929   1.613   0.216  0.2521  0.5887 -0.3142
  423SOL    HW1 1268   1.967   1.708   0.242  0.7401  1.3363  0.4608
  423SOL    HW2 1269   1.853   1.626   0.145 -0.2821 -0.9337 -0.4864
  424SOL     OW 1270   0.737   1.080   1.508  0.1382  0.4176  0.4789
  424SOL    HW1 1271   0.645   1.125   1.487 -2.1733  3.2368 -2.0466
  424SOL    HW2 1272   0.797   1.111   1.434  0.1996 -1.9112 -0.3542
  425SOL     OW 1273   2.662   2.813   2.322 -0.3617 -0.0857  0.3664
  425SOL    HW1 1274   2.568   2.815   2.281 -1.4816 -0.3178 -1.0540
  425SOL    HW2 1275   2.712   2.721   2.300  2.8644  0.4339  0.8753
  426SOL     OW 1276   1.990   2.639   0.520  0.5051 -0.3507  0.4343
  426SOL    HW1 1277   1.893   2.666   0.513 -2.1454  0.4170  1.5923
  426SOL    HW2 1278   1.995   2.571   0.595 -2.7718 -1.3113  1.9640
  427SOL     OW 1279   0.548   0.539   2.866 -0.1251  0.0727 -0.2735
  427SOL    HW1 1280   0.618   0.611   2.838  1.0746 -0.4402  0.3330
  427SOL    HW2 1281   0.455   0.582   2.877 -0.9852 -0.1951 -0.1592
  428SOL     OW 1282   2.431   1.228   2.756  0.1042 -0.7772  0.6627
  428SOL    HW1 1283   2.476   1.204   2.667  0.0433  0.7996 -3.2162
  428SOL    HW2 1284   2.344   1.276   2.743 -1.9823 -0.0392  0.7431
  429SOL     OW 1285   2.906   0.297   0.651  0.0217 -0.7651 -0.4659
  429SOL    HW1 1286   2.901   0.220   0.585  1.6951 -1.4495 -0.1086
  429SOL    HW2 1287   2.928   0.259   0.742  0.1214  1.1776  1.4994
  430SOL     OW 1288   1.190   2.936   2.178 -0.0477  0.4426  0.3205
  430SOL    HW1 1289   1.207   2.844   2.141 -1.8381  3.4091 -0.8322
  430SOL    HW2 1290   1.200   2.990   2.093  2.9611 -0.6852 -0.1641
  431SOL     OW 1291   2.971   1.799   1.463 -0.2637  0.4109  0.5088
  431SOL    HW1 1292   3.024   1.717   1.441 -0.0528  2.2954 -0.3543
  431SOL    HW2 1293   2.876   1.785   1.440  0.6398  3.9238  0.6743
  432SOL     OW 1294   2.302   2.545   1.906 -0.3128  0.0486  0.4372
  432SOL    HW1 1295   2.380   2.492   1.865  2.3077  1.1467 -0.0958
  432SOL    HW2 1296   2.332   2.644   1.914  1.6982  1.3792  0.5692
  433SOL     OW 1297   1.300   1.964   0.155  0.0430 -0.1974  0.3218
  433SOL    HW1 1298   1.294   1.872   0.108 -2.4468 -3.9926  0.5764
  433SOL    HW2 1299   1.228   1.967   0.231 -3.6253  1.1107  2.1368
  434SOL     OW 1300   0.129   2.387   2.829  0.0920 -0.6213  0.0339
  434SOL    HW1 1301   0.187   2.471   2.823 -0.0897  2.6080  1.7400
  434SOL    HW2 1302   0.086   2.362   2.740 -3.2184 -0.3472 -2.6346
  435SOL     OW 1303   0.067   1.056   0.645 -0.2224  0.0049 -0.4717
  435SOL    HW1 1304   0.066   1.032   0.545 -1.4985  0.5384 -0.3665
  435SOL    HW2 1305   3.070   1.067   0.684 -1.4126 -0.1840  1.0149
  436SOL     OW 1306   0.585   2.929   1.900 -0.3097 -0.0093  0.5977
  436SOL    HW1 1307   0.502   2.916   1.954  0.8217  2.2774 -0.7822
  436SOL    HW2 1308   0.590   3.029   1.870 -0.8996 -0.2128  0.1039
  437SOL     OW 1309   1.416   2.375   1.168  0.0478 -0.7800 -0.5378
  437SOL    HW1 1310   1.437   2.292   1.126 -2.2309  1.9814  0.5153
  437SOL    HW2 1311   1.358   2.426   1.103  1.9095 -3.2319 -3.0371
  438SOL     OW 1312   0.347   2.339   0.743  1.0930  0.7455  0.3000
  438SOL    HW1 1313   0.329   2.313   0.644 -0.4236 -2.3488  0.5989
  438SOL    HW2 1314   0.260   2.357   0.794 -2.0031 -0.3649 -0.7068
  439SOL     OW 1315   1.041   2.884   1.799  0.4343 -0.1515 -0.6429
  439SOL    HW1 1316   1.104   2.807   1.786 -2.3113  0.5862  2.0925
  439SOL    HW2 1317   0.943   2.853   1.789  1.1286 -1.5210  0.3942
  440SOL     OW 1318   2.085   2.902   2.231 -0.0204 -0.2725 -0.0315
  440SOL    HW1 1319   2.111   2.807   2.210 -0.1833  0.6283 -0.7325
  440SOL    HW2 1320   2.157   2.946   2.287 -0.9142  0.7038  1.9539
  441SOL     OW 1321   0.231   0.585   1.824  0.7349  0.7318 -0.0888
  441SOL    HW1 1322   0.299   0.663   1.816 -0.7372  2.1001  2.7088
  441SOL    HW2 1323   0.160   0.611   1.891 -2.7206 -1.6820  1.1403
  442SOL     OW 1324   1.731   2.280   0.511 -0.1932 -0.0981 -0.0071
  442SOL    HW1 1325   1.736   2.366   0.566  1.9001  0.6863  1.2508
  442SOL    HW2 1326   1.696   2.305   0.418 -0.6486  0.2459 -0.4401
  443SOL     OW 1327   3.017   0.799   2.637  0.4692 -0.1666  0.0711
  443SOL    HW1 1328   2.951   0.721   2.631 -0.1185  0.1660 -0.8050
  443SOL    HW2 1329   3.065   0.809   2.726  1.3177 -1.7753 -0.9217
  444SOL     OW 1330   1.746   1.093   2.207  0.4013 -0.0718 -0.4013
  444SOL    HW1 1331   1.712   1.024   2.139  0.0698  0.4477  0.5793
  444SOL    HW2 1332   1.769   1.184   2.166 -1.3602  0.8249 -0.6157
  445SOL     OW 1333   0.034   2.516   1.375 -0.3116 -0.0304 -0.0665
  445SOL    HW1 1334   0.075   2.465   1.452  0.6425  0.3618  1.0548
  445SOL    HW2 1335   3.033   2.500   1.371  0.4605 -1.7213  1.6311
  446SOL     OW 1336   2.771   1.680   1.163 -0.6325 -0.4620  0.6781
  446SOL    HW1 1337   2.786   1.580   1.167 -3.1742  1.4337 -0.5708
  446SOL    HW2 1338   2.816   1.716   1.077  2.5228 -3.2021 -2.2166
  447SOL     OW 1339   0.279   0.905   0.273 -0.0825  0.0882 -0.5516
  447SOL    HW1 1340   0.361   0.966   0.277 -0.8547 -0.8745  2.6884
  447SOL    HW2 1341   0.200   0.945   0.330  0.4278 -0.0396  1.5112
  448SOL     OW 1342   1.189   2.228   2.051 -0.2200  0.1608  0.2888
  448SOL    HW1 1343   1.147   2.267   1.963 -1.0249  1.0658  0.5879
  448SOL    HW2 1344   1.255   2.156   2.023 -1.8574  2.2480 -0.3048
  449SOL     OW 1345   1.278   1.552   0.260 -0.6593 -0.0050 -0.3800
  449SOL    HW1 1346   1.312   1.463   0.292 -1.7098  0.2589 -0.3505
  449SOL    HW2 1347   1.182   1.542   0.221  2.4805 -0.8554 -3.0783
  450SOL     OW 1348   2.939   2.647   1.976 -0.0729  0.2495 -0.2676
  450SOL    HW1 1349   2.987   2.627   2.067  3.1683  2.2456  0.7357
  450SOL    HW2 1350   2.970   2.742   1.948  0.8818  0.5564  0.7770
  451SOL     OW 1351   2.097   0.634   2.569 -0.0258 -0.4803  0.0587
  451SOL    HW1 1352   2.163   0.713   2.572  1.2194 -2.3910 -0.5317
  451SOL    HW2 1353   2.057   0.603   2.657  0.8811 -0.5611 -1.2334
  452SOL     OW 1354   1.826   0.482   0.893 -0.1597 -0.1641  0.1486
  452SOL    HW1 1355   1.860   0.428   0.815  1.3763  0.0750 -2.0855
  452SOL    HW2 1356   1.882   0.567   0.897  0.9820  0.4009 -0.4336
  453SOL     OW 1357   1.856   0.800   1.507  0.5710 -0.1074 -0.1915
  453SOL    HW1 1358   1.894   0.724   1.568 -0.4468 -0.4442  1.6921
  453SOL    HW2 1359   1.880   0.788   1.407  0.3647 -1.1901 -1.6520
  454SOL     OW 1360   3.038   1.384   0.327  0.1651 -0.0103  0.4265
  454SOL    HW1 1361   2.998   1.383   0.420 -0.1624  0.5795 -0.2347
  454SOL    HW2 1362   2.994   1.452   0.260 -0.4417  0.6436 -0.5962
  455SOL     OW 1363   2.507   2.986   1.375  0.4126  0.2344 -0.0940
  455SOL    HW1 1364   2.565   3.067   1.384  1.0227 -1.4883  0.0486
  455SOL    HW2 1365   2.453   2.994   1.292 -0.3801 -1.1607  1.2946
  456SOL     OW 1366   0.142   2.874   1.647 -0.6065  0.0201 -0.3027
  456SOL    HW1 1367   0.227   2.838   1.687 -1.0852  0.5498  0.2346
  456SOL    HW2 1368   0.078   2.882   1.725  0.7022  0.1831  0.0538
  457SOL     OW 1369   1.370   2.896   0.449  0.5767 -0.3027  0.0469
  457SOL    HW1 1370   1.413   2.965   0.390 -1.9955 -1.4551  1.3288
  457SOL    HW2 1371   1.367   2.944   0.545  2.2240  0.6419  1.8459
  458SOL     OW 1372   2.393   2.608   0.782  0.1009 -0.1254  0.4026
  458SOL    HW1 1373   2.318   2.610   0.849  1.9664  0.8600  0.5531
  458SOL    HW2 1374   2.396   2.529   0.721  1.4494 -1.1471  2.4326
  459SOL     OW 1375   2.439   0.638   3.086  0.2335  0.0270 -0.0596
  459SOL    HW1 1376   2.405   0.603   0.075 -0.7886  1.3573  0.0353
  459SOL    HW2 1377   2.400   0.580   3.010  0.2418  0.0634 -1.5663
  460SOL     OW 1378   2.230   2.909   2.959 -0.7167 -0.2720  0.2137
  460SOL    HW1 1379   2.145   2.944   2.909 -2.4217 -0.9874 -1.6061
  460SOL    HW2 1380   2.295   2.863   2.892  0.7847  2.1738 -0.2232
  461SOL     OW 1381   0.893   1.740   0.234  0.1994  0.4033 -0.2006
  461SOL    HW1 1382   0.881   1.758   0.334  1.2942  0.0319 -0.3781
  461SOL    HW2 1383   0.917   1.830   0.191  2.1367  2.0440  0.9503
  462SOL     OW 1384   2.073   2.067   0.785  0.1053 -0.1900  0.4715
  462SOL    HW1 1385   2.165   2.038   0.764 -2.7625 -1.6790  0.0730
  462SOL    HW2 1386   2.021   2.093   0.702  0.1111  0.2236 -0.0020
  463SOL     OW 1387   2.569   1.044   0.480 -0.7574 -0.1202 -0.0885
  463SOL    HW1 1388   2.615   0.979   0.546  0.7970 -0.5665  1.1858
  463SOL    HW2 1389   2.469   1.040   0.498 -0.5867 -0.1599  1.3377
  464SOL     OW 1390   0.764   2.757   0.834 -0.4153 -0.2813 -0.3585
  464SOL    HW1 1391   0.674   2.738   0.872  1.6343  1.6784 -0.1153
  464SOL    HW2 1392   0.843   2.769   0.897  2.4126 -1.5364 -0.1910
  465SOL     OW 1393   2.436   1.458   0.177  0.3320  0.7689  1.2146
  465SOL    HW1 1394   2.446   1.545   0.230 -1.1413 -1.2111 -1.0911
  465SOL    HW2 1395   2.413   1.484   0.078 -0.2599  2.1641 -0.3266
  466SOL     OW 1396   1.691   0.474   2.825 -0.1953  0.4833  0.3220
  466SOL    HW1 1397   1.686   0.535   2.904  0.1114 -4.0383  0.9716
  466SOL    HW2 1398   1.701   0.377   2.861  0.7620 -2.5879  1.8642
  467SOL     OW 1399   0.772   0.600   1.442  0.2753  0.6876  0.3215
  467SOL    HW1 1400   0.861   0.574   1.414 -4.4196  0.8942  0.4862
  467SOL    HW2 1401   0.722   0.513   1.454  0.3153  0.3950 -0.5617
  468SOL     OW 1402   0.314   1.012   2.657 -1.0098 -0.0475  0.3987
  468SOL    HW1 1403   0.359   0.992   2.746  0.6535  0.3182 -3.0812
  468SOL    HW2 1404   0.238   0.954   2.634  1.9640  2.3162  0.5732
  469SOL     OW 1405   0.514   2.193   0.367 -0.8061 -0.0837  0.7351
  469SOL    HW1 1406   0.473   2.225   0.276 -2.0576 -0.5624 -1.4156
  469SOL    HW2 1407   0.553   2.274   0.417  0.2555  4.0819 -0.8779
  470SOL     OW 1408   2.729   1.652   2.501 -0.5924 -0.4283 -0.0340
  470SOL    HW1 1409   2.797   1.584   2.530 -0.2019  0.9128  1.8368
  470SOL    HW2 1410   2.647   1.609   2.463 -1.1527  1.2164 -0.1265
  471SOL     OW 1411   2.717   0.960   2.107 -0.4281  0.4603 -0.0499
  471SOL    HW1 1412   2.691   0.925   2.197 -3.7604  0.1694  0.6605
  471SOL    HW2 1413   2.646   0.940   2.037 -0.0333  3.5454 -3.3424
  472SOL     OW 1414   0.438   2.821   0.694  0.1337  0.1363  0.3397
  472SOL    HW1 1415   0.373   2.779   0.626  0.9700  1.1341 -2.8177
  472SOL    HW2 1416   0.502   2.877   0.643 -1.1155 -0.8346  2.0236
  473SOL     OW 1417   0.703   3.016   0.163  0.2688 -0.5785  0.5427
  473SOL    HW1 1418   0.618   2.978   0.208 -1.3453 -5.2960 -3.8194
  473SOL    HW2 1419   0.709   2.997   0.062  2.6770 -0.6893 -1.0000
  474SOL     OW 1420   1.965   0.117   2.152 -0.4027  0.2433 -0.0012
  474SOL    HW1 1421   1.879   0.158   2.192 -1.8980  2.2405 -3.7755
  474SOL    HW2 1422   1.944   0.095   2.057  0.9922  0.7276  2.9424
  475SOL     OW 1423   1.414   2.274   0.427  0.0713  0.3228 -0.0229
  475SOL    HW1 1424   1.326   2.224   0.449  0.7623  1.0799  0.0970
  475SOL    HW2 1425   1.474   2.220   0.366 -0.4158  0.2640 -3.1336
  476SOL     OW 1426   0.655   1.084   0.623  0.3629 -0.3055  0.0326
  476SOL    HW1 1427   0.605   1.003   0.664 -1.5335  0.2538  2.6210
  476SOL    HW2 1428   0.584   1.132   0.568  0.1602 -0.1683  1.3531
  477SOL     OW 1429   1.666   2.379   1.279 -0.3951 -0.5798 -0.5323
  477SOL    HW1 1430   1.577   2.387   1.241  4.0859  0.1782  0.8805
  477SOL    HW2 1431   1.737   2.413   1.216  0.5685 -1.5799  1.9882
  478SOL     OW 1432   0.353   1.827   2.564 -0.5772  0.1000  0.3746
  478SOL    HW1 1433   0.374   1.722   2.576  0.4811 -1.1398  0.9851
  478SOL    HW2 1434   0.258   1.840   2.601  0.4703 -0.3143  1.0000
  479SOL     OW 1435   2.949   2.901   1.223 -0.1693  0.5616  0.5797
  479SOL    HW1 1436   2.849   2.910   1.229 -0.2105 -0.2817  4.0817
  479SOL    HW2 1437   2.984   2.835   1.293  1.9615  0.9373 -0.5152
  480SOL     OW 1438   2.879   2.935   0.530 -0.0878  0.1964 -0.0139
  480SOL    HW1 1439   2.923   2.888   0.610 -0.5277 -1.4120  1.8907
  480SOL    HW2 1440   2.907   2.890   0.450 -1.8745  0.2084  1.3564
  481SOL     OW 1441   2.610   2.655   0.916  0.0064  0.6361  0.1214
  481SOL    HW1 1442   2.518   2.640   0.872 -1.5332 -0.6050 -0.2037
  481SOL    HW2 1443   2.601   2.669   1.020  0.0292  0.6695  0.6947
  482SOL     OW 1444   1.220   2.295   2.541 -0.3014  0.0071 -0.7096
  482SOL    HW1 1445   1.268   2.257   2.457  1.9170 -0.3504 -0.6657
  482SOL    HW2 1446   1.266   2.383   2.570  0.4987  0.9599 -1.0411
  483SOL     OW 1447   0.517   1.986   2.715 -0.0027 -0.2246 -0.1737
  483SOL    HW1 1448   0.499   1.905   2.660 -1.3948  1.6089 -0.3657
  483SOL    HW2 1449   0.472   2.064   2.665 -1.9585  0.8620 -1.0473
  484SOL     OW 1450   0.844   1.222   1.966 -0.0776  0.0356  0.1435
  484SOL    HW1 1451   0.845   1.123   1.994  0.6631  0.3084 -0.7996
  484SOL    HW2 1452   0.927   1.262   2.000 -1.5368  0.2210 -1.8173
  485SOL     OW 1453   2.498   0.373   0.505  0.0768 -0.4064 -0.5828
  485SOL    HW1 1454   2.479   0.274   0.534 -1.8291  0.9524  1.0608
  485SOL    HW2 1455   2.419   0.428   0.533  3.0776 -1.4269  0.4755
  486SOL     OW 1456   1.754   2.952   0.857 -0.1426 -0.1942  0.6572
  486SOL    HW1 1457   1.702   3.032   0.897 -1.4514 -0.8598 -1.6383
  486SOL    HW2 1458   1.743   2.965   0.757 -3.8441  1.8314 -0.8895
  487SOL     OW 1459   0.397   2.075   0.812 -0.5496 -0.3159 -0.2623
  487SOL    HW1 1460   0.391   2.177   0.792  1.0606  3.3210 -0.1513
  487SOL    HW2 1461   0.483   2.041   0.856  0.4817 -1.4260 -0.3928
  488SOL     OW 1462   2.700   1.370   0.225 -0.2235 -0.2241 -0.9060
  488SOL    HW1 1463   2.768   1.437   0.202 -1.7996 -3.9353  1.8466
  488SOL    HW2 1464   2.608   1.404   0.206 -1.8054  0.8405  1.0968
  489SOL     OW 1465   1.502   0.002   1.262  0.1361 -0.2943  0.1633
  489SOL    HW1 1466   1.555   0.046   1.339 -0.2592 -2.9626  0.3578
  489SOL    HW2 1467   1.403   0.022   1.266 -0.4048  0.6594 -1.7199
  490SOL     OW 1468   1.001   0.928   0.079 -0.3832 -0.5665 -0.5212
  490SOL    HW1 1469   1.049   0.848   0.119  0.3999 -2.2431  2.8256
  490SOL    HW2 1470   0.956   0.980   0.156  1.7490  2.8850  1.6347
  491SOL     OW 1471   0.591   2.429   0.465 -0.4958 -0.4750 -0.0205
  491SOL    HW1 1472   0.626   2.492   0.537 -1.9357 -0.6634 -0.6326
  491SOL    HW2 1473   0.538   2.482   0.395 -0.0997 -2.4068 -1.6115
  492SOL     OW 1474   1.321   1.413   2.054 -1.0689  0.1609 -0.0610
  492SOL    HW1 1475   1.339   1.476   2.131 -2.1963  0.2148  0.1259
  492SOL    HW2 1476   1.221   1.391   2.044  3.8716  3.6870  0.7573
  493SOL     OW 1477   0.137   2.461   0.913 -0.0195 -0.0959  0.2275
  493SOL    HW1 1478   0.099   2.369   0.921 -0.4701  0.4505  0.0702
  493SOL    HW2 1479   0.178   2.491   1.002  1.0524 -2.6096 -0.1335
  494SOL     OW 1480   2.541   2.003   2.984  0.1634 -0.2124 -0.5084
  494SOL    HW1 1481   2.628   1.958   2.967 -3.4888  2.5949  1.6372
  494SOL    HW2 1482   2.504   1.970   3.073  0.3964 -0.1983 -0.0744
  495SOL     OW 1483   2.643   1.741   2.764  0.2347  0.2295 -0.2350
  495SOL    HW1 1484   2.729   1.792   2.797  1.4308  1.7648  2.0515
  495SOL    HW2 1485   2.661   1.694   2.675  0.8893  3.3660  0.4037
  496SOL     OW 1486   2.534   0.249   1.852 -0.2890  0.5650  0.8811
  496SOL    HW1 1487   2.432   0.247   1.834 -2.3132  0.6898 -2.0995
  496SOL    HW2 1488   2.577   0.154   1.865 -0.8569 -0.9296  3.5193
  497SOL     OW 1489   2.578   0.931   0.236 -0.2148  1.0724 -0.1002
  497SOL    HW1 1490   2.573   0.977   0.327 -0.4804  1.8222 -1.4361
  497SOL    HW2 1491   2.623   0.836   0.248 -1.9790 -0.2626 -0.4151
  498SOL     OW 1492   0.157   2.349   2.568 -0.3366 -0.0503 -0.2141
  498SOL    HW1 1493   0.153   2.447   2.543  0.8407  1.4236 -2.2780
  498SOL    HW2 1494   0.092   2.294   2.508  0.2414  1.0639  0.0030
  499SOL     OW 1495   0.935   2.068   0.397 -0.2505 -0.0146 -0.3543
  499SOL    HW1 1496   0.895   1.983   0.434  0.7399 -0.5133  1.5837
  499SOL    HW2 1497   0.948   2.068   0.294 -1.1948 -0.2466 -0.1903
  500SOL     OW 1498   1.172   3.049   3.088 -0.4065 -0.1428  0.6994
  500SOL    HW1 1499   1.114   0.028   3.054  0.0412  1.7652  2.0239
  500SOL    HW2 1500   1.135   2.954   3.088 -0.2235  0.7040 -1.9613
  501SOL     OW 1501   1.647   0.125   1.453  0.2445  0.0859 -0.0925
  501SOL    HW1 1502   1.610   0.097   1.545  2.5603  2.5156  0.3590
  501SOL    HW2 1503   1.748   0.105   1.465  4.1540 -0.1523 -0.9271
  502SOL     OW 1504   2.846   0.284   2.119 -0.0494  0.0366  0.2890
  502SOL    HW1 1505   2.901   0.299   2.201 -0.4240  2.5364 -4.1168
  502SOL    HW2 1506   2.857   0.190   2.085 -0.6722 -0.0898 -0.1401
  503SOL     OW 1507   2.481   2.095   2.452 -0.0552  0.1567  0.1604
  503SOL    HW1 1508   2.444   2.111   2.356 -2.9503 -0.1586  0.9996
  503SOL    HW2 1509   2.424   2.151   2.519 -0.7320 -1.9004 -0.4182
  504SOL     OW 1510   1.346   0.399   1.636  0.3756  0.2163  0.4688
  504SOL    HW1 1511   1.432   0.422   1.591 -2.6334 -2.2829  0.5750
  504SOL    HW2 1512   1.350   0.432   1.733 -1.0016 -0.5670  0.4220
  505SOL     OW 1513   0.295   0.893   1.555  0.7381  0.4734  0.1599
  505SOL    HW1 1514   0.225   0.927   1.625  0.6655  1.0000 -0.7897
  505SOL    HW2 1515   0.260   0.897   1.457 -1.9683 -1.5586 -0.9151
  506SOL     OW 1516   0.229   0.996   2.358 -0.3163 -0.3938 -0.5346
  506SOL    HW1 1517   0.204   0.926   2.424  1.2503  0.2057 -0.3740
  506SOL    HW2 1518   0.290   0.956   2.286 -1.1984 -0.3607  2.7828
  507SOL     OW 1519   0.090   2.956   2.822 -0.8062  0.3913 -0.3850
  507SOL    HW1 1520   0.140   3.042   2.846  0.7335  0.3884 -1.2824
  507SOL    HW2 1521   0.076   2.951   2.725  3.8333  1.1316 -0.5785
  508SOL     OW 1522   1.569   0.833   1.389  0.3312 -0.1690  0.0671
  508SOL    HW1 1523   1.581   0.738   1.352  0.0158  1.4763 -1.0387
  508SOL    HW2 1524   1.654   0.855   1.439 -2.6519 -0.6009  0.0739
  509SOL     OW 1525   1.116   1.977   1.533  0.2845  0.1830 -0.7455
  509SOL    HW1 1526   1.216   1.970   1.538 -1.2609  1.7693 -2.4325
  509SOL    HW2 1527   1.077   1.911   1.470  0.6577  0.5137  1.8070
  510SOL     OW 1528   2.209   1.242   2.209  0.2604 -0.4312 -0.2642
  510SOL    HW1 1529   2.169   1.187   2.285  2.0712 -1.7214 -0.4792
  510SOL    HW2 1530   2.209   1.196   2.114 -3.5307  0.7510  1.7123
  511SOL     OW 1531   0.395   1.859   0.626  0.1225 -0.5878  0.1031
  511SOL    HW1 1532   0.311   1.877   0.578  0.4716 -0.0989  2.0026
  511SOL    HW2 1533   0.414   1.938   0.690  1.1352  0.2859  0.7805
  512SOL     OW 1534   2.143   2.196   0.088  0.3148  0.1497 -0.3993
  512SOL    HW1 1535   2.162   2.119   0.029  0.2108  0.5096  4.9321
  512SOL    HW2 1536   2.117   2.164   0.183  0.3632 -0.0907  2.6391
  513SOL     OW 1537   0.056   2.026   2.666 -0.8996  0.0796 -0.3780
  513SOL    HW1 1538   0.119   2.045   2.739  0.7013  0.6510 -0.3800
  513SOL    HW2 1539   0.074   2.092   2.593  0.3237 -1.3554  1.0458
  514SOL     OW 1540   0.272   2.612   2.790  0.1916  0.3796  0.0978
  514SOL    HW1 1541   0.203   2.622   2.716 -0.7829  1.1997  0.6669
  514SOL    HW2 1542   0.351   2.681   2.780  0.1936  1.3569  1.2545
  515SOL     OW 1543   1.975   1.486   1.801  0.7361  0.2863  0.2745
  515SOL    HW1 1544   1.979   1.533   1.894  0.6420 -0.0670  2.7073
  515SOL    HW2 1545   2.045   1.525   1.738 -1.5787  3.0733  0.7447
  516SOL     OW 1546   2.448   2.388   2.729 -0.4261  0.5491 -0.2092
  516SOL    HW1 1547   2.474   2.439   2.809 -0.2365  0.9497  0.4706
  516SOL    HW2 1548   2.512   2.410   2.651  1.9769 -0.8982  0.7886
  517SOL     OW 1549   1.371   1.071   2.906 -0.0857 -0.4404  0.5004
  517SOL    HW1 1550   1.368   1.156   2.844  2.4768  0.7515 -1.9389
  517SOL    HW2 1551   1.470   1.053   2.923 -3.8020  1.4954 -0.3224
  518SOL     OW 1552   2.751   3.063   2.327  0.3368 -0.2123 -0.1547
  518SOL    HW1 1553   2.802   3.096   2.244 -1.8401 -0.6385  0.6179
  518SOL    HW2 1554   2.717   2.967   2.320 -0.4000 -2.3538 -1.9479
  519SOL     OW 1555   1.829   1.824   2.055 -0.0302  0.8868  0.6464
  519SOL    HW1 1556   1.740   1.774   2.073  1.3050 -3.4579 -0.4230
  519SOL    HW2 1557   1.853   1.887   2.131 -2.2185  1.6938 -1.3095
  520SOL     OW 1558   2.699   0.131   2.749  0.0226 -0.9287 -0.8011
  520SOL    HW1 1559   2.670   0.213   2.804  0.7422  1.2776 -0.4381
  520SOL    HW2 1560   2.611   0.097   2.705  1.0172 -1.0161 -0.2192
  521SOL     OW 1561   0.678   1.572   2.023 -0.5661 -0.0898 -0.0188
  521SOL    HW1 1562   0.678   1.547   1.925  1.3845  1.0386  1.3338
  521SOL    HW2 1563   0.625   1.509   2.084 -0.3125 -0.1462 -0.3880
  522SOL     OW 1564   1.290   0.136   1.546 -0.4110  0.0786  0.4157
  522SOL    HW1 1565   1.352   0.080   1.605 -0.6066  2.0138 -1.1778
  522SOL    HW2 1566   1.305   0.231   1.573 -0.0294  0.7630  2.1650
  523SOL     OW 1567   0.227   2.506   1.165  0.2787  0.0871 -0.0242
  523SOL    HW1 1568   0.177   2.473   1.247 -0.6348 -1.5528 -0.7179
  523SOL    HW2 1569   0.327   2.504   1.186  0.1305  1.7427  0.8064
  524SOL     OW 1570   1.686   2.437   0.785  0.6977 -0.2538 -0.5613
  524SOL    HW1 1571   1.596   2.393   0.759  0.7646  1.9233  1.0902
  524SOL    HW2 1572   1.666   2.536   0.803 -3.2678  1.5221  0.1494
  525SOL     OW 1573   2.498   0.898   0.954  0.1277 -0.2270  0.3756
  525SOL    HW1 1574   2.486   0.981   1.014  0.5649  2.5656 -2.1358
  525SOL    HW2 1575   2.454   0.813   0.990 -2.0599 -0.0531  0.3157
  526SOL     OW 1576   1.060   2.547   0.779 -0.0369  0.4805 -0.0204
  526SOL    HW1 1577   1.015   2.454   0.790 -0.0695  1.5602 -1.9547
  526SOL    HW2 1578   1.053   2.586   0.684 -0.5353  2.1693  0.0086
  527SOL     OW 1579   2.343   1.982   0.722 -0.1660  0.0897 -0.1141
  527SOL    HW1 1580   2.407   2.021   0.649  2.8356  1.1324  1.0049
  527SOL    HW2 1581   2.352   1.878   0.728  3.1868 -3.9860  2.5686
  528SOL     OW 1582   2.260   0.545   0.526 -0.5420  0.1741  0.4603
  528SOL    HW1 1583   2.292   0.642   0.533  1.8915  0.7466 -0.8709
  528SOL    HW2 1584   2.165   0.545   0.499  1.7384 -0.2702 -0.5361
  529SOL     OW 1585   1.070   1.351   2.068 -0.3118 -0.1482 -0.3613
  529SOL    HW1 1586   1.028   1.421   2.127 -1.1624 -0.9576 -1.8501
  529SOL    HW2 1587   1.067   1.263   2.115 -2.5492  2.0863  0.6140
  530SOL     OW 1588   2.530   0.858   2.962 -0.4386 -0.0707  0.0855
  530SOL    HW1 1589   2.489   0.772   3.005 -1.2238 -0.1261 -1.0970
  530SOL    HW2 1590   2.456   0.924   2.940 -1.2472  4.4626  0.1046
  531SOL     OW 1591   1.440   1.070   0.115  0.1331  0.5401 -0.5960
  531SOL    HW1 1592   1.388   1.146   0.079 -0.1180 -2.7289  0.3530
  531SOL    HW2 1593   1.502   1.094   0.192  0.5966 -0.9655  0.2755
  532SOL     OW 1594   1.992   0.081   0.776 -0.4263  0.1105 -0.3128
  532SOL    HW1 1595   1.950   0.004   0.825 -0.6544  0.2155 -1.2491
  532SOL    HW2 1596   2.076   0.116   0.817 -1.6898  0.3000 -0.5765
  533SOL     OW 1597   0.655   0.956   1.786 -0.6692  0.1576  0.4505
  533SOL    HW1 1598   0.660   1.019   1.705 -2.0177 -1.7901  1.1539
  533SOL    HW2 1599   0.729   0.888   1.776  0.0345  0.9415 -0.8499
  534SOL     OW 1600   1.668   3.082   2.773  0.3445  0.1056  0.2194
  534SOL    HW1 1601   1.698   3.016   2.700  1.2547  3.3617 -1.7970
  534SOL    HW2 1602   1.674   3.040   2.865 -1.1244 -4.2483  3.3230
  535SOL     OW 1603   0.454   0.195   0.175 -0.5900  0.1662 -0.1616
  535SOL    HW1 1604   0.468   0.265   0.102  2.1297  2.6610 -0.9581
  535SOL    HW2 1605   0.472   0.101   0.139  1.0336 -1.0641  0.5048
  536SOL     OW 1606   0.929   2.697   1.272  0.2804  0.2782 -0.0294
  536SOL    HW1 1607   1.004   2.687   1.343 -0.0060 -1.4190  1.6334
  536SOL    HW2 1608   0.960   2.713   1.174 -0.9610  1.8304  1.1524
  537SOL     OW 1609   1.835   0.108   1.901  0.3278  0.1620 -0.7320
  537SOL    HW1 1610   1.767   0.169   1.855 -0.7016  0.7966  2.0221
  537SOL    HW2 1611   1.820   0.008   1.871  0.4782  0.1300  0.3831
  538SOL     OW 1612   2.815   2.692   0.312 -0.4989 -0.2748 -0.2655
  538SOL    HW1 1613   2.867   2.709   0.226 -0.1800  0.2939 -1.1187
  538SOL    HW2 1614   2.862   2.617   0.363 -0.8976  1.7888 -0.4069
  539SOL     OW 1615   2.907   1.990   2.054 -0.5732 -0.6717  0.3862
  539SOL    HW1 1616   2.972   2.065   2.039 -0.9148  0.2679 -0.6494
  539SOL    HW2 1617   2.830   1.985   1.986  0.2267  0.0788  0.6014
  540SOL     OW 1618   3.095   2.475   1.843 -0.0454  0.6874  0.0813
  540SOL    HW1 1619   0.088   2.509   1.865  1.5964  1.8374  0.1162
  540SOL    HW2 1620   3.031   2.544   1.883  0.8220 -0.2299  1.7060
  541SOL     OW 1621   2.778   2.940   1.739  0.4082  0.2325 -0.4019
  541SOL    HW1 1622   2.787   2.843   1.716  0.2542  2.3046  2.4737
  541SOL    HW2 1623   2.796   3.002   1.659  2.6391 -1.1065  0.5065
  542SOL     OW 1624   2.903   0.488   1.910 -0.6422  0.4684  0.5203
  542SOL    HW1 1625   2.852   0.467   1.825 -1.7775  0.8624 -2.4432
  542SOL    HW2 1626   2.879   0.415   1.976 -0.4587 -0.0427  0.4528
  543SOL     OW 1627   0.758   0.659   0.636  0.3800 -0.0002  0.1411
  543SOL    HW1 1628   0.796   0.746   0.667 -0.3767  0.2867 -1.7995
  543SOL    HW2 1629   0.699   0.615   0.707  2.0948  0.2473  0.6838
  544SOL     OW 1630   2.035   1.875   1.000  0.1106  0.1633  0.1035
  544SOL    HW1 1631   2.052   1.957   0.937  1.7324  0.6520 -0.0190
  544SOL    HW2 1632   2.103   1.802   0.975  0.3436  1.3547  1.4661
  545SOL     OW 1633   1.153   1.884   0.374  0.0586  0.2397  0.1279
  545SOL    HW1 1634   1.066   1.897   0.423  0.8435 -0.4387 -0.6430
  545SOL    HW2 1635   1.203   1.798   0.408  0.3155  0.7769  1.7505
  546SOL     OW 1636   2.355   0.556   2.320 -0.1594  0.1014 -0.2787
  546SOL    HW1 1637   2.384   0.623   2.250 -2.5714  1.1569  1.6557
  546SOL    HW2 1638   2.354   0.460   2.285  0.5442  1.0071  0.9005
  547SOL     OW 1639   0.144   0.359   2.391  0.1482 -0.1342  0.0644
  547SOL    HW1 1640   0.174   0.341   2.487 -0.9737 -0.6924  1.6402
  547SOL    HW2 1641   0.203   0.430   2.345  1.3337 -1.6442  0.3800
  548SOL     OW 1642   2.158   2.080   2.305  0.2102 -0.3251  0.3870
  548SOL    HW1 1643   2.243   2.064   2.249 -2.2670 -0.1829  1.0920
  548SOL    HW2 1644   2.168   2.031   2.392 -1.4217  0.2824 -3.2675
  549SOL     OW 1645   2.501   0.451   0.893  0.1007 -0.7667  0.3105
  549SOL    HW1 1646   2.581   0.458   0.827  2.9636  1.1920 -1.5575
  549SOL    HW2 1647   2.512   0.379   0.966 -2.5453  0.9463  0.5204
  550SOL     OW 1648   1.703   1.564   0.487  0.6631  0.2321  0.2222
  550SOL    HW1 1649   1.651   1.580   0.402  0.5846 -2.4241  0.4227
  550SOL    HW2 1650   1.710   1.652   0.543  1.8180  1.9717  0.6938
  551SOL     OW 1651   1.296   0.373   1.192 -0.2579 -1.3041 -0.3178
  551SOL    HW1 1652   1.267   0.372   1.093  0.3969  1.9748  1.2572
  551SOL    HW2 1653   1.299   0.271   1.220  2.0581 -3.1174  0.4280
  552SOL     OW 1654   2.050   2.290   2.111  0.2367  0.7913  0.2210
  552SOL    HW1 1655   1.987   2.333   2.176  0.2149 -1.5348  0.4519
  552SOL    HW2 1656   2.120   2.237   2.159 -2.3721  0.6380  0.1557
  553SOL     OW 1657   0.461   2.964   0.274 -0.5500 -0.0063 -0.2990
  553SOL    HW1 1658   0.450   2.941   0.372 -0.1942  0.8505  0.8394
  553SOL    HW2 1659   0.385   2.926   0.216 -1.9910 -2.9903 -2.6380
  554SOL     OW 1660   1.869   2.754   1.972 -0.0263  0.2472 -0.0086
  554SOL    HW1 1661   1.869   2.655   1.977 -0.6811 -0.7594 -2.2280
  554SOL    HW2 1662   1.915   2.796   2.053 -1.8890 -0.1365 -0.9557
  555SOL     OW 1663   2.444   2.799   1.963  0.0089 -0.6354 -0.1318
  555SOL    HW1 1664   2.381   2.841   1.891 -2.5719 -1.5464 -1.6423
  555SOL    HW2 1665   2.449   2.859   2.041 -1.7774 -1.1169 -0.5364
  556SOL     OW 1666   0.842   2.926   0.379 -0.2490 -0.6904  0.2635
  556SOL    HW1 1667   0.943   2.903   0.384 -0.4699  1.1082 -2.2756
  556SOL    HW2 1668   0.821   2.944   0.277 -1.3581  2.4630  0.3051
  557SOL     OW 1669   0.847   2.357   2.267  0.2981  0.7648 -0.0828
  557SOL    HW1 1670   0.780   2.428   2.238 -0.5676  1.3259  2.0455
  557SOL    HW2 1671   0.809   2.308   2.348 -3.3818  1.1194  0.7129
  558SOL     OW 1672   2.669   0.967   2.452  0.0856 -0.1967 -0.0818
  558SOL    HW1 1673   2.647   0.872   2.439  1.8368  1.9882 -1.0505
  558SOL    HW2 1674   2.764   0.987   2.430  0.8538  0.6333 -0.2432
  559SOL     OW 1675   2.387   2.161   2.206 -0.0487  0.0880 -0.4257
  559SOL    HW1 1676   2.415   2.252   2.187 -2.1409 -3.4208 -0.9305
  559SOL    HW2 1677   2.432   2.096   2.142  1.7763 -1.0794 -1.0330
  560SOL     OW 1678   0.649   0.505   2.128  0.6018  0.4240  0.7747
  560SOL    HW1 1679   0.747   0.468   2.135  1.5378 -2.1427 -0.4261
  560SOL    HW2 1680   0.598   0.443   2.066 -0.3263  1.3491 -3.3275
  561SOL     OW 1681   1.033   0.481   0.270 -0.2644  0.0292 -0.5757
  561SOL    HW1 1682   0.956   0.509   0.332 -0.1505  2.0481 -0.2424
  561SOL    HW2 1683   1.001   0.419   0.198 -2.2910  0.1817  2.1972
  562SOL     OW 1684   0.841   1.591   1.549 -0.1879  0.2464  0.6227
  562SOL    HW1 1685   0.809   1.610   1.451 -3.2209 -1.9234 -0.8640
  562SOL    HW2 1686   0.855   1.675   1.607 -0.1023 -1.3002 -1.9700
  563SOL     OW 1687   1.722   2.642   0.149 -0.0553  0.2518 -0.5859
  563SOL    HW1 1688   1.778   2.693   0.084  1.3788  2.1650 -1.5116
  563SOL    HW2 1689   1.646   2.702   0.171  4.0946 -0.4445  2.6792
  564SOL     OW 1690   2.876   1.959   0.468  0.5522 -0.2984  0.2070
  564SOL    HW1 1691   2.810   1.886   0.452  0.9222 -0.5878 -0.9572
  564SOL    HW2 1692   2.927   1.952   0.559 -0.1493  1.3880 -0.8709
  565SOL     OW 1693   0.541   2.893   2.363 -0.5650 -0.1709 -0.4564
  565SOL    HW1 1694   0.519   2.920   2.270  0.3369 -2.0486  0.3561
  565SOL    HW2 1695   0.546   2.790   2.367  0.8216 -2.3215 -3.6034
  566SOL     OW 1696   1.571   2.610   2.593 -0.1276  0.3533 -0.0586
  566SOL    HW1 1697   1.631   2.636   2.676  0.7982  2.6378  0.4478
  566SOL    HW2 1698   1.621   2.540   2.536  2.6862 -1.0578 -1.5714
  567SOL     OW 1699   1.857   1.969   1.353 -0.4208 -0.3692  0.7297
  567SOL    HW1 1700   1.837   2.055   1.405 -2.6504  0.9680  0.2481
  567SOL    HW2 1701   1.794   1.974   1.272 -0.0106 -0.6787  0.4957
  568SOL     OW 1702   2.117   0.709   3.003  0.4690  0.3206 -0.3644
  568SOL    HW1 1703   2.086   0.730   3.099  0.0279  1.7934 -3.3778
  568SOL    HW2 1704   2.161   0.788   2.951  0.7454  1.2566 -0.0646
  569SOL     OW 1705   2.823   1.493   2.110  0.1188  0.0578  0.5723
  569SOL    HW1 1706   2.895   1.566   2.110 -1.4152 -1.7432 -1.5844
  569SOL    HW2 1707   2.778   1.483   2.199 -0.5972 -0.7329 -0.4078
  570SOL     OW 1708   2.668   2.660   1.893 -0.3640  0.2112  0.1465
  570SOL    HW1 1709   2.598   2.724   1.926  1.2324 -0.4580 -1.4325
  570SOL    HW2 1710   2.757   2.683   1.931  1.9889 -0.8778  2.2952
  571SOL     OW 1711   0.364   0.148   1.570  0.3288  0.1157  0.3724
  571SOL    HW1 1712   0.440   0.183   1.511 -1.5687  1.1933 -0.3009
  571SOL    HW2 1713   0.342   0.219   1.639  1.3312 -0.7043  0.9945
  572SOL     OW 1714   3.049   1.944   0.719  0.4885  0.4182  0.1304
  572SOL    HW1 1715   2.999   2.029   0.748  0.4828 -0.4803  1.6035
  572SOL    HW2 1716   3.097   1.901   0.797  0.3798 -0.3249 -1.9468
  573SOL     OW 1717   1.005   0.593   2.870  0.5135  0.3906  0.2138
  573SOL    HW1 1718   0.974   0.650   2.943 -0.0220  1.6611 -1.0664
  573SOL    HW2 1719   0.954   0.505   2.880  0.3270  0.1175  0.6219
  574SOL     OW 1720   3.081   3.053   0.147 -0.1074  0.2224  0.1141
  574SOL    HW1 1721   0.010   0.045   0.112  1.9549  0.6199  0.9509
  574SOL    HW2 1722   3.028   3.006   0.075 -0.7100  1.5329  3.9889
  575SOL     OW 1723   1.227   2.132   1.222 -0.0234 -0.0143  0.3187
  575SOL    HW1 1724   1.145   2.093   1.179 -0.6280  0.7746  1.7274
  575SOL    HW2 1725   1.314   2.111   1.165  4.5759  1.2034  1.3215
  576SOL     OW 1726   3.044   2.772   1.458 -0.4789 -0.5128  0.0516
  576SOL    HW1 1727   3.083   2.683   1.432  1.1018  2.3704  1.4225
  576SOL    HW2 1728   0.002   2.820   1.527 -0.2438  1.9197 -3.2000
  577SOL     OW 1729   2.263   1.541   1.434  0.8562 -0.0254 -0.0665
  577SOL    HW1 1730   2.207   1.599   1.492 -0.7648  0.9418 -1.3619
  577SOL    HW2 1731   2.216   1.525   1.341  2.8407 -0.5080  0.3364
  578SOL     OW 1732   0.952   0.057   2.854  0.3368 -0.4340 -0.6894
  578SOL    HW1 1733   0.914   0.106   2.774  0.4123  0.9034 -0.9858
  578SOL    HW2 1734   1.029   0.114   2.897  2.6637  2.0092 -0.6445
  579SOL     OW 1735   2.568   1.689   2.135  0.7747  0.2351  0.2478
  579SOL    HW1 1736   2.589   1.629   2.053 -2.0525  0.7666  1.3994
  579SOL    HW2 1737   2.583   1.789   2.127  1.0130  2.3492 -0.0576
  580SOL     OW 1738   1.671   0.291   1.794  0.1404  0.1155  0.3590
  580SOL    HW1 1739   1.684   0.340   1.705  1.7487  1.6586  1.0074
  580SOL    HW2 1740   1.637   0.350   1.868  0.7192 -1.0139  2.1198
  581SOL     OW 1741   1.278   1.556   1.818 -0.5355  0.4983 -0.1389
  581SOL    HW1 1742   1.291   1.503   1.901 -0.6355  0.6357 -2.9436
  581SOL    HW2 1743   1.219   1.503   1.751 -0.9922 -2.6503  0.2373
  582SOL     OW 1744   3.083   2.623   2.203  0.0586 -0.0454  0.0138
  582SOL    HW1 1745   0.039   2.706   2.181 -3.4946  0.5600  0.0159
  582SOL    HW2 1746   3.063   2.610   2.302  1.5585  4.5847 -0.4959
  583SOL     OW 1747   1.693   1.193   1.241 -0.0755  0.5826 -0.5091
  583SOL    HW1 1748   1.722   1.239   1.330 -0.9043  1.9888 -0.8843
  583SOL    HW2 1749   1.609   1.131   1.252  1.8482 -1.1466  0.3634
  584SOL     OW 1750   1.436   1.947   2.781 -0.4204  0.1727 -0.4953
  584SOL    HW1 1751   1.464   1.919   2.686  0.5601  0.4062 -0.5439
  584SOL    HW2 1752   1.338   1.989   2.776 -0.2439 -1.3450 -0.9889
  585SOL     OW 1753   0.170   2.472   0.437 -0.1958 -0.1872  0.1127
  585SOL    HW1 1754   0.217   2.381   0.433 -0.4942  1.1522  0.9118
  585SOL    HW2 1755   0.128   2.500   0.346 -0.7964 -0.3275 -0.7255
  586SOL     OW 1756   1.881   2.354   2.931 -0.5468 -0.1335 -0.3402
  586SOL    HW1 1757   1.926   2.385   3.019  1.4203 -0.0994  0.1492
  586SOL    HW2 1758   1.946   2.367   2.852  3.3021  0.5528 -2.4101
  587SOL     OW 1759   2.543   2.037   0.338  0.0565  0.0263 -0.3635
  587SOL    HW1 1760   2.543   2.132   0.307  0.9349  1.2174  0.1909
  587SOL    HW2 1761   2.625   1.987   0.298  0.3984 -0.6262 -0.5910
  588SOL     OW 1762   2.237   0.270   1.190  0.0852  0.4073  0.0751
  588SOL    HW1 1763   2.326   0.249   1.141  1.0493  0.1808 -1.6235
  588SOL    HW2 1764   2.222   0.371   1.190  0.7908  1.9991 -0.8641
  589SOL     OW 1765   0.993   0.846   0.452  0.3053  0.3013 -0.0362
  589SOL    HW1 1766   0.967   0.749   0.435 -1.8138 -2.0555  1.5690
  589SOL    HW2 1767   1.097   0.854   0.456  4.8363  0.5968  1.2655
  590SOL     OW 1768   2.381   2.383   0.097 -0.0435 -0.4150 -0.4133
  590SOL    HW1 1769   2.303   2.320   0.093  1.1878 -3.1527 -0.8491
  590SOL    HW2 1770   2.378   2.449   0.019 -1.0431  1.7782  2.2594
  591SOL     OW 1771   0.249   2.608   1.906 -0.0276  0.6804  0.1998
  591SOL    HW1 1772   0.331   2.625   1.845  0.7868 -0.6482 -0.4296
  591SOL    HW2 1773   0.237   2.684   1.971  0.6696 -0.6260 -0.6784
  592SOL     OW 1774   0.919   1.095   1.262 -0.2428 -0.3651  0.3894
  592SOL    HW1 1775   0.828   1.095   1.215 -0.8162 -2.0723 -0.6233
  592SOL    HW2 1776   0.961   0.999   1.261  0.9243 -1.7413  0.5034
  593SOL     OW 1777   0.981   1.823   1.352 -0.2044  0.4869 -0.6013
  593SOL    HW1 1778   0.992   1.862   1.257  0.8845  4.4840  0.9449
  593SOL    HW2 1779   0.958   1.724   1.344  0.0150 -1.5112  0.8732
  594SOL     OW 1780   0.393   1.999   2.949  0.0278  0.0807  0.2524
  594SOL    HW1 1781   0.397   1.908   2.996  0.0282 -2.3621 -2.6963
  594SOL    HW2 1782   0.454   2.005   2.866  4.2378 -0.3061 -1.6836
  595SOL     OW 1783   1.492   0.537   1.078  0.2152  0.5139  0.2315
  595SOL    HW1 1784   1.513   0.532   0.976 -1.8557 -3.5080  0.1555
  595SOL    HW2 1785   1.448   0.448   1.102  0.5904 -0.7772  0.9612
  596SOL     OW 1786   0.198   1.334   0.338 -0.1121 -0.1265 -0.4160
  596SOL    HW1 1787   0.099   1.337   0.313  1.0165  0.2226  0.1391
  596SOL    HW2 1788   0.204   1.327   0.441 -0.7568 -1.7228 -0.7416
  597SOL     OW 1789   3.028   2.370   3.058  0.0208  0.4514 -0.5152
  597SOL    HW1 1790   3.093   2.382   2.978  0.8753  0.5902  0.5659
  597SOL    HW2 1791   3.039   2.275   3.093 -0.7551  3.5363  3.1758
  598SOL     OW 1792   2.157   1.980   2.563  0.3019  0.5380 -0.4504
  598SOL    HW1 1793   2.164   1.879   2.583  0.2791 -0.8189 -1.1961
  598SOL    HW2 1794   2.140   2.041   2.648 -0.0701 -1.0333  0.7506
  599SOL     OW 1795   1.271   0.428   0.398  0.4140  0.5909  0.1868
  599SOL    HW1 1796   1.180   0.456   0.362  1.6885  1.7802 -0.4279
  599SOL    HW2 1797   1.337   0.506   0.391 -1.2610  0.1550 -1.1047
  600SOL     OW 1798   0.784   2.647   0.359  0.0189  0.0132  0.2689
  600SOL    HW1 1799   0.818   2.743   0.361 -1.1805  1.3046  1.0364
  600SOL    HW2 1800   0.683   2.639   0.353  0.6745  2.9612 -0.2425
  601SOL     OW 1801   0.585   0.697   1.064  0.8814 -0.3596 -0.6677
  601SOL    HW1 1802   0.502   0.695   1.124  0.7688 -2.4070  2.9377
  601SOL    HW2 1803   0.668   0.727   1.111 -1.0458 -0.3888 -1.1793
  602SOL     OW 1804   0.328   2.761   1.183  0.4303  0.6431 -0.3163
  602SOL    HW1 1805   0.259   2.830   1.210 -0.2942 -0.9616 -1.9061
  602SOL    HW2 1806   0.278   2.676   1.158 -0.8866 -0.7599  0.0837
  603SOL     OW 1807   1.137   2.791   2.554 -0.4444 -0.0370 -0.0907
  603SOL    HW1 1808   1.196   2.859   2.595 -0.9064  3.0645 -1.0110
  603SOL    HW2 1809   1.043   2.798   2.589  1.9180  2.4486 -0.0411
  604SOL     OW 1810   0.682   2.790   2.918 -0.1298 -0.4238  0.0354
  604SOL    HW1 1811   0.675   2.702   2.955  2.4100  2.3263 -2.6385
  604SOL    HW2 1812   0.719   2.783   2.824 -1.1150  0.5159  0.0624
  605SOL     OW 1813   0.777   0.734   1.682  0.4046  0.4826  0.2142
  605SOL    HW1 1814   0.742   0.687   1.599 -2.6849 -1.5655  2.4467
  605SOL    HW2 1815   0.781   0.658   1.747  2.9930 -0.9572  0.3755
  606SOL     OW 1816   1.999   0.569   2.807 -0.3800  0.1641  0.3920
  606SOL    HW1 1817   2.048   0.618   2.881  0.6374 -1.1153 -0.4261
  606SOL    HW2 1818   1.911   0.534   2.840 -1.4630 -1.0446 -1.3209
  607SOL     OW 1819   0.598   1.290   0.975  0.1332 -0.2344 -0.5372
  607SOL    HW1 1820   0.686   1.239   0.992 -0.4155 -0.6227  1.1127
  607SOL    HW2 1821   0.533   1.220   0.936  0.7208  0.2160 -1.2110
  608SOL     OW 1822   0.114   2.614   2.533 -0.4913  0.0883 -0.0590
  608SOL    HW1 1823   0.140   2.698   2.482 -1.5808 -0.5704  0.6191
  608SOL    HW2 1824   0.019   2.582   2.525 -0.5507 -2.2611 -0.6299
  609SOL     OW 1825   1.331   0.596   0.055  0.3938  0.7290 -0.5246
  609SOL    HW1 1826   1.364   0.520   0.116  1.0904  0.3747  3.2501
  609SOL    HW2 1827   1.262   0.653   0.097  1.3320 -0.6794 -0.0994
  610SOL     OW 1828   0.674   2.709   1.357 -0.3760 -0.2140  0.7268
  610SOL    HW1 1829   0.765   2.677   1.337 -4.0115  0.5431  3.8287
  610SOL    HW2 1830   0.662   2.793   1.302 -2.7124  0.3419 -0.2855
  611SOL     OW 1831   1.513   0.990   0.522 -0.0017 -0.4751 -0.0892
  611SOL    HW1 1832   1.533   1.051   0.445 -1.0631 -1.2110  0.3308
  611SOL    HW2 1833   1.558   0.901   0.505  1.0762 -0.4749 -1.5759
  612SOL     OW 1834   1.409   0.873   2.732  0.3281  0.0204  0.5493
  612SOL    HW1 1835   1.335   0.883   2.664  0.2047  0.1963 -1.1830
  612SOL    HW2 1836   1.392   0.939   2.805 -1.0050  1.4925 -3.4041
  613SOL     OW 1837   2.412   1.012   0.739  0.6962  0.1899 -0.6273
  613SOL    HW1 1838   2.323   0.961   0.741  2.8619 -0.0633  2.4746
  613SOL    HW2 1839   2.469   0.962   0.809 -0.4177 -1.4031 -0.4658
  614SOL     OW 1840   2.308   0.303   2.175 -0.4518 -0.8592  0.0231
  614SOL    HW1 1841   2.276   0.206   2.180  2.4050  3.0305  1.5841
  614SOL    HW2 1842   2.396   0.310   2.126 -0.1127  1.1559  2.6660
  615SOL     OW 1843   0.661   2.262   1.047 -0.2873  0.1951 -0.3313
  615SOL    HW1 1844   0.642   2.295   1.143 -0.0899  0.1366  1.6972
  615SOL    HW2 1845   0.649   2.331   0.972 -0.9183  3.1629 -0.2078
  616SOL     OW 1846   1.634   1.131   2.475  0.4834 -0.0934  0.3348
  616SOL    HW1 1847   1.672   1.101   2.383  0.4463 -0.0287 -1.7569
  616SOL    HW2 1848   1.693   1.207   2.511 -1.6389 -2.2997  1.7427
  617SOL     OW 1849   1.532   2.806   0.194  0.3734 -0.6201 -0.0923
  617SOL    HW1 1850   1.524   2.904   0.226  0.9703 -1.7046 -0.6334
  617SOL    HW2 1851   1.445   2.750   0.200 -2.3533  3.1087 -1.5730
  618SOL     OW 1852   1.334   1.562   2.289  0.6737  0.1794 -0.1991
  618SOL    HW1 1853   1.330   1.646   2.345  1.1768  0.4384  1.9811
  618SOL    HW2 1854   1.400   1.499   2.336  3.6487  0.4587  0.4806
  619SOL     OW 1855   2.681   1.396   0.739  0.2779 -0.3988 -0.3628
  619SOL    HW1 1856   2.588   1.373   0.703 -0.7341  1.4662  2.3673
  619SOL    HW2 1857   2.701   1.339   0.816 -1.3429  0.0898 -1.5550
  620SOL     OW 1858   2.207   2.588   2.681 -0.1892 -0.1368 -0.2367
  620SOL    HW1 1859   2.268   2.627   2.754  1.9700  0.3820  0.8796
  620SOL    HW2 1860   2.144   2.658   2.642 -0.7619  1.8546 -0.3147
  621SOL     OW 1861   2.752   1.268   0.456  0.3766  0.7049  0.4125
  621SOL    HW1 1862   2.730   1.306   0.361  2.3041 -0.4770 -2.0040
  621SOL    HW2 1863   2.684   1.193   0.481  1.3768 -0.5919  0.9576
  622SOL     OW 1864   1.295   2.562   2.606 -0.1603 -0.4827  0.2829
  622SOL    HW1 1865   1.397   2.582   2.595 -2.1361  1.9693 -0.6146
  622SOL    HW2 1866   1.256   2.643   2.562  2.6278 -2.5688 -1.1677
  623SOL     OW 1867   0.361   2.316   0.189 -0.0776 -0.0601 -0.0161
  623SOL    HW1 1868   0.330   2.237   0.134  2.8047 -0.7308 -1.9959
  623SOL    HW2 1869   0.276   2.364   0.227 -2.6684 -0.5324  1.4896
  624SOL     OW 1870   0.262   0.009   3.071  0.1195 -0.5865 -0.3097
  624SOL    HW1 1871   0.352   0.012   3.017  2.5428 -2.9047 -0.7941
  624SOL    HW2 1872   0.252   3.021   0.015 -0.7561  1.6834  2.5892
  625SOL     OW 1873   0.860   2.273   3.013  0.1588  0.1751  0.0880
  625SOL    HW1 1874   0.931   2.328   2.963  0.5878  0.1476  1.2201
  625SOL    HW2 1875   0.810   2.201   2.959 -0.7275  1.2634  1.1484
  626SOL     OW 1876   2.993   0.718   0.517  0.0147 -0.1397 -0.3625
  626SOL    HW1 1877   2.923   0.713   0.439 -2.0229 -1.0613 -1.3153
  626SOL    HW2 1878   3.026   0.623   0.543  0.0341 -0.7824  4.4541
  627SOL     OW 1879   1.854   1.473   2.823  0.1386  0.0479  0.2205
  627SOL    HW1 1880   1.853   1.426   2.908  1.5512  1.2246 -1.2689
  627SOL    HW2 1881   1.913   1.556   2.822 -1.4786  0.9965 -1.6952
  628SOL     OW 1882   1.194   1.287   2.556  0.2148  0.2651  0.6154
  628SOL    HW1 1883   1.154   1.207   2.604  1.9505 -0.2387 -1.0505
  628SOL    HW2 1884   1.296   1.287   2.570  0.0469  0.3255 -1.4052
  629SOL     OW 1885   0.345   3.097   1.823 -0.2939 -0.3657  0.2883
  629SOL    HW1 1886   0.365   3.023   1.753  0.1887  1.9977 -0.9460
  629SOL    HW2 1887   0.357   0.090   1.780 -0.9930  1.6015 -0.1801
  630SOL     OW 1888   2.221   0.901   2.186 -0.0909  0.6364  0.6610
  630SOL    HW1 1889   2.203   0.957   2.103 -1.3454 -1.2050 -1.6555
  630SOL    HW2 1890   2.134   0.869   2.229 -0.2976 -1.4861  0.8918
  631SOL     OW 1891   1.912   0.308   0.671 -0.5657 -0.2635  0.3396
  631SOL    HW1 1892   1.958   0.225   0.708 -0.4489 -1.7673  2.3544
  631SOL    HW2 1893   1.830   0.276   0.618 -0.7213 -0.9303 -0.2697
  632SOL     OW 1894   0.090   0.523   1.592  0.2955  0.1299 -0.2254
  632SOL    HW1 1895   0.023   0.443   1.594 -1.1440  1.2696 -0.5611
  632SOL    HW2 1896   0.148   0.532   1.673 -1.5412 -0.0249  4.0223
  633SOL     OW 1897   0.950   0.341   0.045  0.6076  0.4610  0.7420
  633SOL    HW1 1898   0.900   0.363   3.055 -2.1674 -0.4168 -1.7700
  633SOL    HW2 1899   0.908   0.259   0.083  0.1919  0.5926  1.3258
  634SOL     OW 1900   0.735   2.533   3.033  0.0468 -0.2031  0.2005
  634SOL    HW1 1901   0.791   2.564   0.012 -1.5725 -1.6208 -1.3115
  634SOL    HW2 1902   0.799   2.474   2.982 -0.0306 -1.2681 -1.8226
  635SOL     OW 1903   0.217   0.558   0.643 -0.1678 -0.0938 -0.0849
  635SOL    HW1 1904   0.135   0.529   0.595 -0.2807 -1.7136  2.1653
  635SOL    HW2 1905   0.285   0.606   0.581  2.6175 -0.5353 -0.2036
  636SOL     OW 1906   0.607   1.292   0.107  0.0656  0.0301 -0.4266
  636SOL    HW1 1907   0.633   1.343   0.020 -1.4379 -0.3430 -0.4243
  636SOL    HW2 1908   0.686   1.289   0.170  2.5867 -2.1675 -2.2913
  637SOL     OW 1909   0.302   2.749   0.460 -0.1859 -0.1162 -0.3327
  637SOL    HW1 1910   0.278   2.658   0.496  0.1831  1.4590  0.5186
  637SOL    HW2 1911   0.215   2.808   0.449 -0.2963  0.5721  0.5296
  638SOL     OW 1912   2.949   2.504   0.481  0.6760 -0.3786  0.4229
  638SOL    HW1 1913   2.945   2.400   0.480 -1.3860 -0.7276 -0.3871
  638SOL    HW2 1914   3.027   2.535   0.540  0.2139 -0.2659  1.1394
  639SOL     OW 1915   1.730   0.917   0.152  0.0922  0.0816 -0.3117
  639SOL    HW1 1916   1.648   0.867   0.115  1.4547  1.1220 -0.2381
  639SOL    HW2 1917   1.741   1.010   0.111  1.6822  1.1809  0.2841
  640SOL     OW 1918   1.568   2.303   1.644 -0.5215  0.0513  0.7262
  640SOL    HW1 1919   1.574   2.405   1.629 -0.0271 -0.1087 -0.8793
  640SOL    HW2 1920   1.619   2.253   1.571 -1.7438 -0.3189  0.6446
  641SOL     OW 1921   2.994   2.613   1.107  0.1644 -0.5976  0.2797
  641SOL    HW1 1922   2.951   2.590   1.196  0.0636 -1.3848  1.5724
  641SOL    HW2 1923   3.085   2.565   1.100 -0.4064  1.8990 -3.8003
  642SOL     OW 1924   1.096   0.228   1.890 -0.0467  0.6811 -0.4117
  642SOL    HW1 1925   1.061   0.301   1.823  0.5095  2.4332 -2.2548
  642SOL    HW2 1926   1.081   0.260   1.988 -1.4086  1.4769  1.1697
  643SOL     OW 1927   1.004   2.419   2.851  0.0840  0.0488  0.0639
  643SOL    HW1 1928   0.970   2.397   2.757  3.0314  0.0545  1.5437
  643SOL    HW2 1929   1.091   2.469   2.849 -0.4671 -0.6688  0.2131
  644SOL     OW 1930   1.305   2.503   0.886 -0.8489 -0.1652  0.0354
  644SOL    HW1 1931   1.356   2.434   0.825  0.4361  1.0264 -0.2966
  644SOL    HW2 1932   1.218   2.525   0.843  3.8955 -0.6795 -3.3087
  645SOL     OW 1933   1.491   1.238   1.713 -0.1279  0.3535  0.1607
  645SOL    HW1 1934   1.429   1.161   1.721  0.8676  1.3612 -1.1757
  645SOL    HW2 1935   1.499   1.267   1.614 -1.0150  2.8458  1.2022
  646SOL     OW 1936   0.192   0.699   0.099  0.1823  0.2042 -0.0031
  646SOL    HW1 1937   0.247   0.773   0.147  0.2904  0.6988  0.5364
  646SOL    HW2 1938   0.128   0.747   0.041  0.4551 -1.9820 -0.7757
  647SOL     OW 1939   1.153   0.181   0.495 -0.1728 -0.2507  0.4412
  647SOL    HW1 1940   1.107   0.129   0.421 -3.0374 -1.7253 -0.1328
  647SOL    HW2 1941   1.195   0.267   0.456 -2.9887 -0.7448  1.7516
  648SOL     OW 1942   2.243   2.713   1.209  0.0280 -0.0315  0.1323
  648SOL    HW1 1943   2.327   2.660   1.224  0.1672  1.0444 -3.1951
  648SOL    HW2 1944   2.183   2.715   1.294 -1.5838 -0.4447 -1.4094
  649SOL     OW 1945   0.706   2.066   2.903 -0.3125  0.1785 -0.2059
  649SOL    HW1 1946   0.632   2.049   2.836 -0.4920 -0.4040  2.0051
  649SOL    HW2 1947   0.691   2.010   2.990 -0.3440 -0.4740 -1.6506
  650SOL     OW 1948   2.293   1.891   1.944 -0.1439  0.1111 -0.0317
  650SOL    HW1 1949   2.214   1.956   1.930  1.6140  0.6883 -1.6036
  650SOL    HW2 1950   2.284   1.827   2.025 -0.4357 -2.7452 -0.4826
  651SOL     OW 1951   3.040   2.936   2.519  0.0128  0.2357  0.2651
  651SOL    HW1 1952   2.971   2.881   2.574 -0.5041  0.3073 -1.5724
  651SOL    HW2 1953   2.997   3.031   2.510 -0.1586  3.7249 -0.7146
  652SOL     OW 1954   2.734   1.704   0.487 -0.0364 -0.0648  0.2764
  652SOL    HW1 1955   2.700   1.707   0.582 -1.6049  1.1500 -1.2157
  652SOL    HW2 1956   2.823   1.662   0.464 -0.6364  1.7363 -0.6538
  653SOL     OW 1957   0.168   0.250   0.941  1.2105 -0.2871 -0.2242
  653SOL    HW1 1958   0.253   0.286   0.893  0.3566  1.8918  0.6487
  653SOL    HW2 1959   0.189   0.163   0.986  4.3404 -1.5117 -1.3918
  654SOL     OW 1960   0.867   0.119   0.196  0.2740  0.4274  0.1917
  654SOL    HW1 1961   0.951   0.079   0.239 -2.8674 -2.2474  0.5628
  654SOL    HW2 1962   0.802   0.045   0.165  2.1129 -1.3410 -2.2922
  655SOL     OW 1963   0.671   2.923   1.188  0.7227  0.3700 -0.0177
  655SOL    HW1 1964   0.760   2.971   1.165 -0.0588  1.9891  1.3892
  655SOL    HW2 1965   0.614   2.901   1.106  1.9423 -1.7413 -1.3645
  656SOL     OW 1966   0.161   2.839   2.162 -0.3163 -0.6084  0.2440
  656SOL    HW1 1967   0.184   2.865   2.259  0.5447  1.7628  1.9646
  656SOL    HW2 1968   0.144   2.924   2.109  0.8202 -1.5498 -0.6344
  657SOL     OW 1969   1.840   0.770   2.470 -0.2778 -0.0675 -0.4689
  657SOL    HW1 1970   1.771   0.802   2.539  0.0711  0.5712 -0.0051
  657SOL    HW2 1971   1.912   0.719   2.520  0.4197  0.9514 -1.4313
  658SOL     OW 1972   1.852   1.511   1.163 -0.0372 -0.0355  0.5074
  658SOL    HW1 1973   1.832   1.574   1.083 -0.6039  1.2713 -2.0358
  658SOL    HW2 1974   1.811   1.548   1.249 -1.2114 -1.4847 -1.9870
  659SOL     OW 1975   2.412   2.745   2.817  0.6172  0.2108 -0.2916
  659SOL    HW1 1976   2.479   2.751   2.737 -0.7824  0.6573 -2.2983
  659SOL    HW2 1977   2.459   2.711   2.901 -0.8113  0.4782 -1.4021
  660SOL     OW 1978   1.263   0.794   0.471  0.6546  0.4691 -0.3314
  660SOL    HW1 1979   1.284   0.786   0.570 -1.7759  1.3430  1.3525
  660SOL    HW2 1980   1.336   0.741   0.417  1.0319 -3.1090  0.9261
  661SOL     OW 1981   2.509   3.024   0.283  0.0364 -0.0799  0.3403
  661SOL    HW1 1982   2.542   3.051   0.376  1.3993  0.4468  1.5054
  661SOL    HW2 1983   2.551   3.079   0.204 -0.2478 -2.0824 -3.7192
  662SOL     OW 1984   0.967   0.236   1.160 -0.9992  0.0223 -0.2927
  662SOL    HW1 1985   0.901   0.306   1.118 -1.6387  0.0223  0.2658
  662SOL    HW2 1986   1.027   0.205   1.085 -1.6761 -1.4776 -0.4633
  663SOL     OW 1987   1.431   2.994   2.334 -0.1460  0.4820  0.4080
  663SOL    HW1 1988   1.335   3.019   2.306  0.0985  1.6268 -1.0373
  663SOL    HW2 1989   1.470   3.056   2.406 -1.1929  1.5255  0.3629
  664SOL     OW 1990   0.708   2.317   1.654  0.2511  0.5987 -0.5144
  664SOL    HW1 1991   0.799   2.278   1.671 -1.5855  2.0978  1.2294
  664SOL    HW2 1992   0.635   2.247   1.658  0.8451  0.1267 -2.8395
  665SOL     OW 1993   0.979   2.140   1.712 -0.0173  0.5601 -0.0963
  665SOL    HW1 1994   0.919   2.073   1.754 -0.8717 -2.9103 -0.1470
  665SOL    HW2 1995   1.033   2.095   1.638 -2.1893 -0.2618 -1.9977
  666SOL     OW 1996   0.057   2.786   3.039  0.2655 -0.6017  0.1704
  666SOL    HW1 1997   0.048   2.851   2.960  1.3113  0.5905  0.3311
  666SOL    HW2 1998   0.157   2.760   3.041  0.1575  0.5924  1.3951
  667SOL     OW 1999   1.401   1.657   1.401  0.0902  0.3052  0.2783
  667SOL    HW1 2000   1.383   1.675   1.501 -0.2993 -1.0984 -0.2568
  667SOL    HW2 2001   1.456   1.733   1.364 -3.4489 -1.2098 -1.0656
  668SOL     OW 2002   1.271   0.371   2.241 -0.1801  0.3144 -0.1860
  668SOL    HW1 2003   1.220   0.392   2.330 -2.0978  1.2653 -0.4873
  668SOL    HW2 2004   1.319   0.457   2.212  1.7135  5.1626  2.4912
  669SOL     OW 2005   2.460   2.268   1.657 -0.3867  0.4868  0.3892
  669SOL    HW1 2006   2.373   2.232   1.685  2.8273 -0.2108 -1.4575
  669SOL    HW2 2007   2.510   2.295   1.738 -0.6640 -0.4139 -1.4825
  670SOL     OW 2008   1.854   1.966   0.076  0.1418 -0.2452 -0.1623
  670SOL    HW1 2009   1.816   1.907   0.150 -0.6495 -1.6127 -0.9920
  670SOL    HW2 2010   1.803   2.047   0.061  0.8582  0.1105  2.1407
  671SOL     OW 2011   1.204   0.885   0.964 -0.0419 -1.0608  0.1756
  671SOL    HW1 2012   1.291   0.853   1.004  0.0624 -1.3197 -1.5105
  671SOL    HW2 2013   1.227   0.922   0.871 -0.3756  0.8482 -0.7362
  672SOL     OW 2014   2.580   1.208   2.532  0.2167  0.0188  0.5331
  672SOL    HW1 2015   2.576   1.261   2.445 -0.9645 -1.4213 -1.3264
  672SOL    HW2 2016   2.623   1.117   2.510 -0.1873  0.0531 -0.7753
  673SOL     OW 2017   3.044   1.735   1.738 -0.4423 -0.3277  0.2468
  673SOL    HW1 2018   2.950   1.718   1.774 -0.4732  0.9552 -3.6057
  673SOL    HW2 2019   3.031   1.792   1.656  0.4235  0.4404  4.1802
  674SOL     OW 2020   0.984   2.611   2.383 -0.0341  0.7489  0.1790
  674SOL    HW1 2021   1.056   2.667   2.432  0.2200 -0.3127 -2.0761
  674SOL    HW2 2022   0.968   2.520   2.425  1.0211  1.2260  0.7357
  675SOL     OW 2023   1.078   1.442   1.684  0.6155 -0.6831 -0.6833
  675SOL    HW1 2024   1.106   1.406   1.594 -2.4658  2.8725 -2.3080
  675SOL    HW2 2025   0.980   1.463   1.684  1.3785 -0.8485 -1.4007
  676SOL     OW 2026   2.252   0.435   0.778  0.0133 -0.5072  0.2392
  676SOL    HW1 2027   2.235   0.493   0.697  0.5463 -1.9822  1.9511
  676SOL    HW2 2028   2.345   0.451   0.825 -0.5204  0.3557  2.9334
  677SOL     OW 2029   2.607   1.521   2.907  0.4365 -0.0240 -0.8275
  677SOL    HW1 2030   2.667   1.459   2.858 -2.3025  0.3868 -1.1260
  677SOL    HW2 2031   2.605   1.615   2.861  0.9342  0.7529  1.9454
  678SOL     OW 2032   0.127   2.954   1.218 -0.3173 -0.1038 -0.3430
  678SOL    HW1 2033   0.029   2.963   1.213  0.9524  0.8829  0.2768
  678SOL    HW2 2034   0.159   3.001   1.306  2.6988  1.0786  1.2474
  679SOL     OW 2035   2.255   0.295   0.191 -0.0700  0.8216 -0.7076
  679SOL    HW1 2036   2.274   0.268   0.094 -0.1411  0.3959 -0.9777
  679SOL    HW2 2037   2.331   0.265   0.257  0.7050 -0.4528  0.8898
  680SOL     OW 2038   0.297   2.339   1.960  0.2321 -0.1022  0.6433
  680SOL    HW1 2039   0.389   2.315   1.987 -5.3084 -1.5502 -4.2955
  680SOL    HW2 2040   0.295   2.439   1.944  2.1106  2.0404 -1.9394
  681SOL     OW 2041   2.097   1.976   1.240 -0.5129 -0.0724 -0.3186
  681SOL    HW1 2042   2.027   1.974   1.316 -0.3065  0.5136  0.3142
  681SOL    HW2 2043   2.064   1.930   1.152  0.0914  0.7289  0.5427
  682SOL     OW 2044   0.106   2.162   2.024 -0.0075 -0.0716 -0.5727
  682SOL    HW1 2045   0.099   2.098   1.946 -0.0837 -2.3339  0.6025
  682SOL    HW2 2046   0.183   2.225   2.005 -0.6267 -1.0784 -1.7275
  683SOL     OW 2047   0.133   2.207   1.337 -0.1621 -0.3741  0.0781
  683SOL    HW1 2048   0.128   2.107   1.315  0.3348  2.0550 -1.1224
  683SOL    HW2 2049   0.044   2.249   1.314  0.8719  0.9589  1.7365
  684SOL     OW 2050   2.299   0.821   2.633  0.2855  0.3100 -0.8513
  684SOL    HW1 2051   2.347   0.878   2.564  2.1149  3.6886  0.3146
  684SOL    HW2 2052   2.270   0.873   2.713  0.4261 -0.6749 -0.5064
  685SOL     OW 2053   1.379   1.328   0.392  0.6509 -0.3729 -0.7745
  685SOL    HW1 2054   1.452   1.261   0.369  0.5126 -0.3062 -2.2200
  685SOL    HW2 2055   1.393   1.364   0.484  0.7048  0.0549 -3.6690
  686SOL     OW 2056   0.115   0.020   0.595 -0.4776 -0.0623  0.3890
  686SOL    HW1 2057   0.208   0.065   0.599  2.6461  1.7154 -0.0750
  686SOL    HW2 2058   0.088   3.092   0.687 -0.7445  0.6521  0.4942
  687SOL     OW 2059   1.463   1.356   2.456  0.5921  0.1547  0.6866
  687SOL    HW1 2060   1.542   1.401   2.409 -0.9409  1.7747  0.1858
  687SOL    HW2 2061   1.481   1.255   2.444  0.9389  1.1216 -0.8445
  688SOL     OW 2062   1.471   1.394   1.434 -0.0380  0.4492 -0.1275
  688SOL    HW1 2063   1.575   1.376   1.405  2.7235  1.5217 -2.0840
  688SOL    HW2 2064   1.446   1.491   1.406  1.7934  1.3927 -0.2146
  689SOL     OW 2065   2.256   0.074   1.363  0.3773 -0.7213  0.8639
  689SOL    HW1 2066   2.237   0.149   1.290 -0.9858  0.5605 -1.0266
  689SOL    HW2 2067   2.259   3.082   1.316  0.8218  1.7548  0.0354
  690SOL     OW 2068   3.048   1.393   1.095  0.4477 -0.0876  0.5852
  690SOL    HW1 2069   2.949   1.417   1.111 -0.9333 -3.0071  1.6805
  690SOL    HW2 2070   3.066   1.294   1.118  0.3273 -2.6371 -3.0395
  691SOL     OW 2071   0.492   2.478   1.288  0.6262 -0.2670 -0.1603
  691SOL    HW1 2072   0.551   2.403   1.329  0.5668 -0.5371  2.5967
  691SOL    HW2 2073   0.532   2.570   1.276 -1.7021 -2.2809 -1.1102
  692SOL     OW 2074   2.421   0.543   1.891  0.8340  0.4114 -0.4297
  692SOL    HW1 2075   2.519   0.564   1.894  1.8103 -1.0032 -0.7215
  692SOL    HW2 2076   2.378   0.590   1.976 -0.1172  0.5877  0.5817
  693SOL     OW 2077   0.452   1.756   2.064  0.1291  0.2788  0.3542
  693SOL    HW1 2078   0.528   1.685   2.070 -1.1640 -0.0858 -1.1876
  693SOL    HW2 2079   0.408   1.771   2.154  0.0979 -0.3742  0.9082
  694SOL     OW 2080   1.452   1.036   1.272  0.5512  0.0193 -0.2398
  694SOL    HW1 2081   1.358   1.044   1.309  0.4265 -0.6288  0.8781
  694SOL    HW2 2082   1.501   0.961   1.328  1.0233  0.9959  0.0554
  695SOL     OW 2083   0.783   1.319   0.704 -0.1603 -0.5201 -0.0242
  695SOL    HW1 2084   0.769   1.327   0.807  0.0125 -1.8758  1.5217
  695SOL    HW2 2085   0.741   1.231   0.664 -2.8455 -2.1021 -0.9858
  696SOL     OW 2086   1.101   2.849   0.358 -0.4434  0.0475  0.5230
  696SOL    HW1 2087   1.087   2.766   0.420 -0.2920  2.0813  2.1522
  696SOL    HW2 2088   1.203   2.866   0.350  1.0139 -1.5102  1.8354
  697SOL     OW 2089   1.365   0.475   1.909  0.2344  0.0240  0.4416
  697SOL    HW1 2090   1.359   0.376   1.935 -0.4378 -2.2490 -0.1486
  697SOL    HW2 2091   1.372   0.533   1.991 -2.0489 -3.7977 -1.5395
  698SOL     OW 2092   1.806   1.353   2.094  0.7837 -0.1356  0.1032
  698SOL    HW1 2093   1.891   1.402   2.077 -1.7039 -1.3579 -0.3177
  698SOL    HW2 2094   1.738   1.366   2.018  0.3680 -2.1928 -0.4703
  699SOL     OW 2095   2.596   0.355   2.094  0.1333 -0.9774  0.8738
  699SOL    HW1 2096   2.692   0.324   2.112  1.2063 -0.1097 -0.1428
  699SOL    HW2 2097   2.575   0.327   2.001  3.4150  2.4846 -3.1696
  700SOL     OW 2098   0.792   2.243   0.586  0.2822 -0.5889 -0.1164
  700SOL    HW1 2099   0.750   2.314   0.530  3.0803 -1.7086  0.0172
  700SOL    HW2 2100   0.857   2.191   0.529 -3.4646 -1.1578 -1.5062
  701SOL     OW 2101   1.998   2.744   2.587  0.1681  0.1487 -0.2476
  701SOL    HW1 2102   1.920   2.765   2.527 -1.1280  0.9675  1.6997
  701SOL    HW2 2103   1.953   2.721   2.680 -0.7581  0.6882  0.6690
  702SOL     OW 2104   1.116   0.059   0.993  0.2517 -0.3951 -0.0519
  702SOL    HW1 2105   1.164   3.070   0.969 -0.5744 -1.3146  1.4148
  702SOL    HW2 2106   1.100   0.109   0.905  0.8795  2.0200 -1.1493
  703SOL     OW 2107   2.478   3.017   2.109 -0.0019 -0.1325  0.6078
  703SOL    HW1 2108   2.387   3.061   2.122 -1.0181 -0.6065 -0.3254
  703SOL    HW2 2109   2.527   3.018   2.196  0.9231  0.7937 -2.8890
  704SOL     OW 2110   2.933   2.238   0.545 -0.0553 -0.2056  0.1354
  704SOL    HW1 2111   2.949   2.207   0.642  1.9890 -1.1175  1.4246
  704SOL    HW2 2112   2.870   2.175   0.493 -1.0110 -1.3090 -0.7007
  705SOL     OW 2113   2.373   2.733   2.308  0.0156  0.3494 -0.1794
  705SOL    HW1 2114   2.335   2.808   2.365  1.7840  0.3969 -0.6021
  705SOL    HW2 2115   2.353   2.641   2.346  0.2343  2.8143 -0.1164
  706SOL     OW 2116   2.340   2.951   1.163  0.1463  0.1343 -0.0967
  706SOL    HW1 2117   2.363   2.986   1.066  0.5507  0.2614 -1.8131
  706SOL    HW2 2118   2.303   2.854   1.160  0.3921 -0.4175 -1.8720
  707SOL     OW 2119   0.995   0.012   2.306  0.5256  0.0340  0.1143
  707SOL    HW1 2120   1.055   3.032   2.282  0.6123 -1.1966  1.2231
  707SOL    HW2 2121   0.899   3.098   2.276 -0.3705  0.9217  1.8823
  708SOL     OW 2122   0.050   2.099   1.578 -0.0124 -0.2474 -0.2724
  708SOL    HW1 2123   0.076   2.193   1.544 -0.1232  0.8580  1.1468
  708SOL    HW2 2124   0.065   2.034   1.504 -1.3707  2.2184 -1.0357
  709SOL     OW 2125   1.631   0.406   1.498 -0.5383  0.1494  0.1234
  709SOL    HW1 2126   1.648   0.476   1.423 -1.8337  2.8345 -0.8580
  709SOL    HW2 2127   1.623   0.306   1.471 -1.3220 -0.5737 -2.5497
  710SOL     OW 2128   0.581   3.051   2.696  0.6446  0.0764 -0.1597
  710SOL    HW1 2129   0.617   3.075   2.787  1.1338 -0.1709 -1.2924
  710SOL    HW2 2130   0.654   3.056   2.626  1.2630  1.5376 -0.4570
  711SOL     OW 2131   0.797   2.161   2.448  0.2608 -0.2840  0.2891
  711SOL    HW1 2132   0.716   2.103   2.472 -1.7627 -1.7838 -0.2683
  711SOL    HW2 2133   0.892   2.118   2.456 -1.0271  0.3441  0.4726
  712SOL     OW 2134   1.114   2.041   3.050 -0.2572  0.4734 -0.2297
  712SOL    HW1 2135   1.175   2.055   0.024  0.5760 -2.1462 -2.0880
  712SOL    HW2 2136   1.134   2.084   2.963 -1.4465  1.0351  0.4344
  713SOL     OW 2137   1.960   0.924   1.995 -0.4586 -0.0766 -0.4281
  713SOL    HW1 2138   1.865   0.927   1.959  0.0780 -0.8054 -0.5267
  713SOL    HW2 2139   1.962   0.835   2.041 -1.0287 -1.9241  0.9865
  714SOL     OW 2140   1.167   1.813   1.775  0.3517 -0.5534 -0.0568
  714SOL    HW1 2141   1.232   1.873   1.721  1.0737  0.3514  0.6120
  714SOL    HW2 2142   1.211   1.726   1.797  0.7700  1.0347  0.5191
  715SOL     OW 2143   2.400   0.537   0.242  0.0899 -0.7697 -0.0305
  715SOL    HW1 2144   2.343   0.455   0.218 -0.0562  3.7197  1.2092
  715SOL    HW2 2145   2.372   0.567   0.333  1.1291 -0.0265 -0.4454
  716SOL     OW 2146   2.947   2.262   1.302  0.0492  0.2005  0.3506
  716SOL    HW1 2147   2.879   2.185   1.279 -0.5599  0.3610 -0.3026
  716SOL    HW2 2148   2.934   2.285   1.401  3.0113 -0.7844  3.0139
  717SOL     OW 2149   2.693   1.224   0.968  0.1579 -0.0533  0.3519
  717SOL    HW1 2150   2.616   1.179   1.020  1.7774  0.4377 -0.3542
  717SOL    HW2 2151   2.735   1.159   0.902 -0.9739  2.8457 -2.4061
  718SOL     OW 2152   1.463   1.661   1.665  0.9692 -0.4730 -0.0973
  718SOL    HW1 2153   1.555   1.630   1.676 -4.1469  0.3879  0.4358
  718SOL    HW2 2154   1.395   1.600   1.717  2.7790 -1.0628  0.4047
  719SOL     OW 2155   2.891   0.658   0.251  0.1510  0.2770 -0.6320
  719SOL    HW1 2156   2.901   0.717   0.171  1.5998 -0.8940  0.8270
  719SOL    HW2 2157   2.965   0.589   0.261 -2.3311  0.3962  1.4444
  720SOL     OW 2158   1.105   0.186   0.749 -0.5039 -0.2666 -0.0441
  720SOL    HW1 2159   1.148   0.194   0.660 -1.0490 -0.2733 -0.8383
  720SOL    HW2 2160   1.007   0.175   0.740  0.0388 -1.1244 -0.9741
  721SOL     OW 2161   2.622   0.741   0.559 -0.0396  0.3073 -0.0998
  721SOL    HW1 2162   2.631   0.726   0.456  2.3948  0.9196 -1.0885
  721SOL    HW2 2163   2.656   0.658   0.607  0.6754  1.1588 -1.5876
  722SOL     OW 2164   0.559   2.630   2.446  0.0550 -0.6056 -0.7249
  722SOL    HW1 2165   0.608   2.585   2.526  1.6043 -1.3409 -0.1241
  722SOL    HW2 2166   0.524   2.562   2.380  0.8318  1.5587  1.4406
  723SOL     OW 2167   1.968   0.147   1.094  0.2913  0.8868  0.3214
  723SOL    HW1 2168   2.038   0.215   1.107 -4.0060 -1.3122 -0.5690
  723SOL    HW2 2169   1.875   0.188   1.085 -1.6136 -1.9339  0.5040
  724SOL     OW 2170   1.215   1.973   2.304 -0.1276  0.5839 -0.3607
  724SOL    HW1 2171   1.260   2.065   2.296  2.0956  2.3240  0.3649
  724SOL    HW2 2172   1.215   1.925   2.211 -1.1109 -1.7147 -3.3322
  725SOL     OW 2173   1.309   2.826   1.506 -0.2160  0.2141 -0.0720
  725SOL    HW1 2174   1.239   2.899   1.516 -0.0775  0.7220 -1.6294
  725SOL    HW2 2175   1.291   2.773   1.425 -4.0572  0.9481  0.8457
  726SOL     OW 2176   2.161   2.961   0.125 -0.3049  0.0795  0.2107
  726SOL    HW1 2177   2.191   2.914   0.040  3.8356 -0.2403  3.5062
  726SOL    HW2 2178   2.204   2.909   0.207  0.5929 -0.7878  1.0638
  727SOL     OW 2179   1.259   1.725   0.887 -0.1119 -0.1634 -0.2346
  727SOL    HW1 2180   1.298   1.674   0.968  0.6551 -2.0164 -0.1113
  727SOL    HW2 2181   1.335   1.736   0.823  0.1054  2.0544 -0.4399
  728SOL     OW 2182   2.102   2.649   2.140 -0.7392 -0.1692  0.0359
  728SOL    HW1 2183   2.180   2.635   2.084  1.4993  1.3991  1.8152
  728SOL    HW2 2184   2.071   2.561   2.189  0.7669  0.1645  1.8761
  729SOL     OW 2185   1.770   2.230   1.472 -0.4881  0.6216  0.1035
  729SOL    HW1 2186   1.719   2.259   1.387 -0.6590 -0.5828 -0.6312
  729SOL    HW2 2187   1.820   2.308   1.514 -3.6584  3.7908 -0.4852
  730SOL     OW 2188   1.672   0.874   2.645 -0.3231  0.2663 -0.1511
  730SOL    HW1 2189   1.586   0.873   2.694 -0.5273  0.7574  0.1850
  730SOL    HW2 2190   1.673   0.966   2.608  0.7560 -2.3580  0.3611
  731SOL     OW 2191   0.916   0.015   1.432 -0.7083  1.1340  0.8176
  731SOL    HW1 2192   1.000   3.068   1.471  0.3800 -1.5931 -1.3673
  731SOL    HW2 2193   0.896   3.070   1.343 -1.0540 -0.5511  0.0467
  732SOL     OW 2194   1.341   3.069   0.649  0.1400  0.6385  0.2778
  732SOL    HW1 2195   1.252   0.008   0.615 -1.1649  1.9019  0.0398
  732SOL    HW2 2196   1.393   0.042   0.696  0.4256 -0.3981 -1.2248
  733SOL     OW 2197   1.261   1.324   0.732 -0.3715 -0.1848 -0.5057
  733SOL    HW1 2198   1.363   1.337   0.713  2.4915  0.6193 -0.4584
  733SOL    HW2 2199   1.237   1.228   0.737 -0.5531  1.8797  0.1552
  734SOL     OW 2200   2.572   2.423   2.449 -0.1217 -0.0258 -0.4326
  734SOL    HW1 2201   2.605   2.489   2.379  0.7884 -1.7295  1.3347
  734SOL    HW2 2202   2.640   2.354   2.472 -0.7214 -2.4217  1.9788
  735SOL     OW 2203   0.930   3.084   1.164  0.0480  0.3054  0.1084
  735SOL    HW1 2204   1.013   3.070   1.100 -1.3430  0.6939 -1.8240
  735SOL    HW2 2205   0.921   0.084   1.180  0.1824  0.5091 -1.5604
  736SOL     OW 2206   1.487   2.125   2.978 -0.6600 -0.1288  0.2674
  736SOL    HW1 2207   1.563   2.096   3.034 -1.7222  2.3271 -0.7285
  736SOL    HW2 2208   1.462   2.051   2.913 -1.8961  0.6228  0.8495
  737SOL     OW 2209   0.650   2.247   1.323 -0.5018  0.5312 -0.0495
  737SOL    HW1 2210   0.605   2.209   1.401  3.4163 -0.9608 -5.9864
  737SOL    HW2 2211   0.751   2.227   1.320  0.3132  1.9655  2.1322
  738SOL     OW 2212   1.356   2.991   2.890 -0.3019 -0.4126  0.0615
  738SOL    HW1 2213   1.296   3.011   2.971 -3.0127 -0.5302 -1.1652
  738SOL    HW2 2214   1.448   2.977   2.917 -0.7942 -1.6234 -2.5122
  739SOL     OW 2215   0.915   2.145   2.106  0.4808  0.0824 -0.0545
  739SOL    HW1 2216   1.017   2.141   2.100  0.1751  0.4180 -0.6861
  739SOL    HW2 2217   0.895   2.236   2.155  0.8497  2.1651  2.1876
  740SOL     OW 2218   1.334   2.616   1.294  0.3882 -0.3139 -0.0540
  740SOL    HW1 2219   1.383   2.531   1.267 -0.9317 -1.8949  0.5567
  740SOL    HW2 2220   1.238   2.603   1.326  0.9542  0.8622 -0.9439
  741SOL     OW 2221   2.735   1.119   0.118  0.0168  0.0273  0.7112
  741SOL    HW1 2222   2.659   1.060   0.144 -4.2050  3.0397  2.3086
  741SOL    HW2 2223   2.721   1.219   0.143  0.0771  1.6465 -0.6439
  742SOL     OW 2224   0.654   1.564   2.413 -0.0397  0.5146  0.6677
  742SOL    HW1 2225   0.737   1.513   2.436 -1.5030  0.7203 -0.1336
  742SOL    HW2 2226   0.623   1.528   2.324  0.2584 -0.4407  1.0773
  743SOL     OW 2227   0.544   1.021   2.500 -0.2636 -0.2578 -0.3052
  743SOL    HW1 2228   0.627   1.016   2.559 -1.4668  1.0828 -0.9032
  743SOL    HW2 2229   0.454   1.000   2.549  1.3213 -1.8134  0.9448
  744SOL     OW 2230   2.125   2.406   1.352  0.4631 -0.5770 -0.1538
  744SOL    HW1 2231   2.225   2.411   1.331 -2.8738  0.9925  0.6697
  744SOL    HW2 2232   2.086   2.496   1.339  2.9321 -1.9225  1.2608
  745SOL     OW 2233   2.119   1.232   1.378 -0.0569  0.2344  0.2497
  745SOL    HW1 2234   2.072   1.224   1.468  3.4592 -0.6887 -3.0851
  745SOL    HW2 2235   2.081   1.298   1.316 -0.5190 -0.9714  2.4915
  746SOL     OW 2236   2.139   0.971   1.208 -0.1676 -0.2644  0.5847
  746SOL    HW1 2237   2.195   1.041   1.258  1.2166 -2.8500 -0.7722
  746SOL    HW2 2238   2.040   1.003   1.190 -0.1450  2.2471  0.3171
  747SOL     OW 2239   1.747   1.774   0.688 -0.4574  0.0140 -0.2316
  747SOL    HW1 2240   1.738   1.856   0.754 -0.2405  0.5266  1.0489
  747SOL    HW2 2241   1.818   1.802   0.620 -0.2539  0.1813  3.2021
  748SOL     OW 2242   0.540   1.512   0.409  0.2762 -0.0839 -0.1229
  748SOL    HW1 2243   0.496   1.588   0.463  1.2688  0.4786 -0.8217
  748SOL    HW2 2244   0.568   1.551   0.322  2.4183 -1.3021 -0.6602
  749SOL     OW 2245   2.955   2.538   2.478  0.5375 -0.2059 -0.5081
  749SOL    HW1 2246   2.940   2.440   2.458  1.4564  1.0063 -2.0948
  749SOL    HW2 2247   2.880   2.563   2.543 -2.5614  1.3096  0.9725
  750SOL     OW 2248   1.968   0.461   1.305 -0.2359  0.0664 -0.9279
  750SOL    HW1 2249   2.064   0.454   1.280 -2.7408  0.5043 -1.6154
  750SOL    HW2 2250   1.959   0.492   1.403  2.4563  1.8326  1.3403
  751SOL     OW 2251   2.264   0.046   0.364 -0.6422  0.2740  0.1361
  751SOL    HW1 2252   2.328   0.022   0.288  0.1906 -0.9557  3.0451
  751SOL    HW2 2253   2.174   0.001   0.360 -3.0442  1.5405  2.2432
  752SOL     OW 2254   2.192   2.243   0.376 -0.3485 -0.0725  0.0162
  752SOL    HW1 2255   2.194   2.346   0.397  0.9493  1.2786  1.6412
  752SOL    HW2 2256   2.284   2.205   0.394 -2.8880  2.3094 -0.5117
  753SOL     OW 2257   1.861   1.594   2.406 -0.2739 -0.3550  0.0182
  753SOL    HW1 2258   1.962   1.567   2.408 -0.8055  0.0365  0.6176
  753SOL    HW2 2259   1.852   1.681   2.457  1.6233  1.1945  0.6064
  754SOL     OW 2260   2.516   2.066   1.449 -0.3815 -0.0427  0.1645
  754SOL    HW1 2261   2.482   2.138   1.508 -0.2676 -1.0755  1.1934
  754SOL    HW2 2262   2.450   2.028   1.383 -0.6504  0.7678  0.7351
  755SOL     OW 2263   2.387   0.663   1.051 -0.4141 -0.2549 -0.6168
  755SOL    HW1 2264   2.349   0.622   1.136 -0.3026 -1.4746  0.5542
  755SOL    HW2 2265   2.400   0.601   0.971  1.8379 -1.2010 -1.5609
  756SOL     OW 2266   1.176   1.581   2.595  0.3396 -0.1305  0.4131
  756SOL    HW1 2267   1.222   1.664   2.546  2.3021  2.6408 -2.7866
  756SOL    HW2 2268   1.218   1.491   2.570  1.5617 -1.6015 -0.1096
  757SOL     OW 2269   1.871   2.518   1.073  0.1584  0.0969  0.3776
  757SOL    HW1 2270   1.847   2.608   1.032  2.0702  2.7706  1.4339
  757SOL    HW2 2271   1.962   2.521   1.113 -1.2652 -0.0773  1.4535
  758SOL     OW 2272   1.184   2.327   1.432 -0.2822  0.2191 -0.3385
  758SOL    HW1 2273   1.204   2.271   1.350  0.8215 -0.3312  2.4734
  758SOL    HW2 2274   1.196   2.283   1.523  0.5928  4.1033 -2.1399
  759SOL     OW 2275   2.299   1.315   1.100  0.5566  0.5423  0.0426
  759SOL    HW1 2276   2.260   1.401   1.140 -0.6017 -1.3715 -0.9346
  759SOL    HW2 2277   2.238   1.267   1.032 -0.6144  0.6586 -0.1117
  760SOL     OW 2278   2.127   0.760   1.398  0.2994  0.2826 -0.6552
  760SOL    HW1 2279   2.140   0.831   1.323 -3.4724  0.4862  1.1941
  760SOL    HW2 2280   2.177   0.791   1.481  1.1103  0.4222  2.6444
  761SOL     OW 2281   1.946   0.010   0.266 -0.0357 -0.0131 -0.2240
  761SOL    HW1 2282   1.949   3.072   0.362 -1.7192 -0.9742 -2.5495
  761SOL    HW2 2283   2.034   3.096   0.216  2.2551  1.8409 -1.4269
  762SOL     OW 2284   1.998   1.689   2.852  0.3277 -0.4086 -0.7663
  762SOL    HW1 2285   1.973   1.790   2.848  1.2633 -1.0929 -0.4529
  762SOL    HW2 2286   2.036   1.671   2.944 -1.3597  0.0100 -1.2332
  763SOL     OW 2287   0.306   1.185   1.139 -0.3686  0.6248 -0.1877
  763SOL    HW1 2288   0.356   1.269   1.179  0.5841 -2.3734  0.8555
  763SOL    HW2 2289   0.349   1.156   1.052  0.6065  0.9490 -0.0942
  764SOL     OW 2290   2.789   2.472   0.019  0.0447  0.7196  0.0639
  764SOL    HW1 2291   2.711   2.404   0.027  0.2011 -0.3496 -0.9338
  764SOL    HW2 2292   2.877   2.434   3.086  1.2264  1.6516  0.6003
  765SOL     OW 2293   0.738   2.979   2.105 -0.0795 -0.0348  0.3250
  765SOL    HW1 2294   0.688   2.954   2.022  0.9952  2.1101  1.6685
  765SOL    HW2 2295   0.725   3.078   2.129 -1.8968 -1.2584  0.3063
  766SOL     OW 2296   0.021   2.154   2.424  0.2727 -0.0095  0.0238
  766SOL    HW1 2297   3.025   2.169   2.397 -0.4662  1.3641  0.2247
  766SOL    HW2 2298   0.074   2.102   2.351  0.4498  1.0520  0.4696
  767SOL     OW 2299   2.938   1.286   1.722 -0.1655  0.4398  0.2884
  767SOL    HW1 2300   2.958   1.330   1.813 -0.2532  0.0814 -0.5052
  767SOL    HW2 2301   2.902   1.358   1.657  0.6282  1.6048 -0.5083
  768SOL     OW 2302   1.140   0.657   2.651  0.1947  0.4843  0.3737
  768SOL    HW1 2303   1.079   0.654   2.728  0.7775  1.8893  0.1435
  768SOL    HW2 2304   1.233   0.642   2.681 -1.9128 -1.3364  0.4433
  769SOL     OW 2305   1.963   2.141   0.532  0.6063 -0.5316  0.1897
  769SOL    HW1 2306   2.038   2.183   0.470  1.2749 -1.3755 -1.0045
  769SOL    HW2 2307   1.871   2.186   0.520  0.0121 -2.1272  3.2554
  770SOL     OW 2308   2.916   0.236   0.228  0.4499 -0.4100  0.1825
  770SOL    HW1 2309   2.815   0.255   0.219 -1.5878  0.2865 -1.7492
  770SOL    HW2 2310   2.942   0.157   0.290  0.3962  1.3152  0.3601
  771SOL     OW 2311   1.650   2.230   1.878  0.0627 -0.0674  0.2774
  771SOL    HW1 2312   1.609   2.268   1.792  0.1702 -2.3310  1.4774
  771SOL    HW2 2313   1.575   2.165   1.908 -1.8523  1.2293 -0.5984
  772SOL     OW 2314   0.834   0.379   2.915 -0.8877  0.0895 -0.1556
  772SOL    HW1 2315   0.734   0.401   2.912 -2.2046  0.9387  1.9994
  772SOL    HW2 2316   0.867   0.327   2.830 -1.9060  2.2050 -1.9224
  773SOL     OW 2317   2.911   0.816   1.694  0.7620  0.2103 -0.2593
  773SOL    HW1 2318   2.952   0.751   1.623  0.9400 -1.1223 -1.4449
  773SOL    HW2 2319   2.976   0.844   1.768  1.1229 -0.9682  0.6586
  774SOL     OW 2320   1.591   1.187   0.314  0.1231 -0.3002 -0.2564
  774SOL    HW1 2321   1.592   1.266   0.249  0.2619 -2.6350 -2.0848
  774SOL    HW2 2322   1.684   1.161   0.341 -0.9615 -0.3630  1.3319
  775SOL     OW 2323   2.432   0.004   2.951 -0.2112  0.7486  0.7842
  775SOL    HW1 2324   2.499   0.017   3.028  0.8732  0.3503  0.7143
  775SOL    HW2 2325   2.358   3.043   2.982  3.0259  0.0423  0.5125
  776SOL     OW 2326   2.394   0.951   2.411 -0.2498  0.4821 -0.5281
  776SOL    HW1 2327   2.487   0.990   2.405 -2.8490 -0.1809 -0.5858
  776SOL    HW2 2328   2.374   0.908   2.320 -1.2175  1.4077 -1.8474
  777SOL     OW 2329   0.138   1.221   2.621  0.0249 -0.2314 -0.2500
  777SOL    HW1 2330   0.215   1.150   2.620  0.0588 -1.0091  3.0091
  777SOL    HW2 2331   0.078   1.204   2.540  1.5810 -0.2312 -0.5994
  778SOL     OW 2332   0.556   0.156   0.424  0.3489  0.1459 -0.1382
  778SOL    HW1 2333   0.653   0.191   0.420  2.0911  0.9454  1.6755
  778SOL    HW2 2334   0.520   0.160   0.329  1.2390 -0.1180 -0.9960
  779SOL     OW 2335   0.573   0.707   2.591 -0.5063  0.7160 -0.0924
  779SOL    HW1 2336   0.628   0.728   2.676  0.6071 -1.1163  0.8570
  779SOL    HW2 2337   0.623   0.685   2.505 -1.4952 -0.4714  0.8056
  780SOL     OW 2338   1.956   0.981   2.338 -0.4255  0.0494 -0.2361
  780SOL    HW1 2339   1.889   1.040   2.286 -1.0278  1.2118  2.8648
  780SOL    HW2 2340   1.905   0.911   2.395 -0.6886 -0.9457  1.3278
  781SOL     OW 2341   3.080   0.898   1.892  0.6070  0.0606 -0.1239
  781SOL    HW1 2342   0.052   0.947   1.837  0.3270  1.0324 -0.5376
  781SOL    HW2 2343   3.022   0.959   1.946 -0.5729  0.6581 -1.1506
  782SOL     OW 2344   0.816   1.809   2.493 -0.1076 -0.3675 -0.1425
  782SOL    HW1 2345   0.778   1.850   2.408 -0.4209 -3.0359 -1.2056
  782SOL    HW2 2346   0.818   1.708   2.490  0.5314  2.5371 -1.4556
  783SOL     OW 2347   0.685   2.580   1.625 -0.3953 -0.4086 -0.0657
  783SOL    HW1 2348   0.695   2.477   1.619  1.4281  1.7174  1.4490
  783SOL    HW2 2349   0.691   2.616   1.532 -1.6749 -0.0863 -1.1628
  784SOL     OW 2350   1.284   0.360   2.840  0.4270  0.0261  0.2133
  784SOL    HW1 2351   1.279   0.326   2.744 -0.8073  0.1086  1.0863
  784SOL    HW2 2352   1.314   0.456   2.847 -1.5544  1.4099 -0.1784
  785SOL     OW 2353   1.132   0.465   2.465  0.3027 -0.5641  0.0259
  785SOL    HW1 2354   1.172   0.387   2.516 -2.5433 -1.2404 -0.6545
  785SOL    HW2 2355   1.107   0.534   2.535 -0.0837 -0.4560 -1.7277
  786SOL     OW 2356   0.482   1.853   0.242  0.0385  0.2403  0.3941
  786SOL    HW1 2357   0.536   1.785   0.182  2.3669 -0.4101 -2.0484
  786SOL    HW2 2358   0.538   1.885   0.325  1.0077  1.3756  1.9310
  787SOL     OW 2359   1.855   1.152   0.371 -0.5512 -0.1965 -0.2424
  787SOL    HW1 2360   1.888   1.124   0.277  0.0773 -0.6509 -0.1338
  787SOL    HW2 2361   1.871   1.075   0.438  1.5758  0.3269 -2.2756
  788SOL     OW 2362   1.745   1.648   1.386  0.6180  0.5315  0.0190
  788SOL    HW1 2363   1.651   1.671   1.366  3.5799 -1.5004  0.0973
  788SOL    HW2 2364   1.792   1.720   1.441  0.7749 -0.0747 -1.4341
  789SOL     OW 2365   0.345   1.541   1.926 -0.5072  0.6902  0.6835
  789SOL    HW1 2366   0.427   1.486   1.937 -1.4181  1.2116  0.5874
  789SOL    HW2 2367   0.358   1.626   1.979  0.7988 -0.5462  0.9349
  790SOL     OW 2368   0.502   2.639   0.316  0.3838  1.0881 -0.2295
  790SOL    HW1 2369   0.476   2.627   0.220  1.2399 -1.1836  0.5501
  790SOL    HW2 2370   0.425   2.672   0.371  1.3229 -0.9313  1.0122
  791SOL     OW 2371   0.402   0.360   3.054  0.6153 -0.2351 -0.4953
  791SOL    HW1 2372   0.460   0.419   2.992  0.4769  1.9733  1.5388
  791SOL    HW2 2373   0.376   0.272   3.014 -0.3594 -0.6753  1.4155
  792SOL     OW 2374   1.728   0.692   2.236 -0.3062 -0.1748 -0.1200
  792SOL    HW1 2375   1.764   0.687   2.330  0.2809 -1.6347  1.6072
  792SOL    HW2 2376   1.649   0.758   2.223  2.8755 -0.8869  2.1425
  793SOL     OW 2377   0.553   0.625   0.818 -0.0719  0.1210 -0.3382
  793SOL    HW1 2378   0.499   0.539   0.810 -1.0970  0.7268 -0.8047
  793SOL    HW2 2379   0.570   0.643   0.919  1.2803 -2.0917 -1.3967
  794SOL     OW 2380   0.703   0.114   1.618 -0.3080  0.5677  0.8552
  794SOL    HW1 2381   0.761   0.065   1.549  2.2931 -0.9618  1.5387
  794SOL    HW2 2382   0.684   0.208   1.581 -0.7688 -2.0271 -1.1482
  795SOL     OW 2383   0.033   1.428   3.045  0.0011  0.1071 -0.1364
  795SOL    HW1 2384   0.125   1.383   3.056  1.2710  1.1443 -0.5925
  795SOL    HW2 2385   3.082   1.381   2.969  0.5084  2.1626 -1.1331
  796SOL     OW 2386   3.087   0.433   0.253 -0.5495  0.0276  0.4202
  796SOL    HW1 2387   0.064   0.404   0.195 -1.9340  2.4500 -0.7676
  796SOL    HW2 2388   3.018   0.359   0.269  3.3031  3.1324  1.7146
  797SOL     OW 2389   1.469   2.550   3.050  0.3577  0.2615  0.6699
  797SOL    HW1 2390   1.409   2.593   0.020 -3.1138 -0.2474 -0.5962
  797SOL    HW2 2391   1.444   2.454   3.037  0.4388 -0.3444 -2.7818
  798SOL     OW 2392   3.030   0.497   0.856 -0.0373 -0.1552 -0.9352
  798SOL    HW1 2393   3.007   0.476   0.756  0.3867 -0.7860 -1.2875
  798SOL    HW2 2394   3.083   0.585   0.855  1.3919 -0.1923 -0.6901
  799SOL     OW 2395   2.419   0.724   2.087  0.3321  0.1772 -0.5030
  799SOL    HW1 2396   2.329   0.760   2.110  1.5648 -0.5150 -1.7163
  799SOL    HW2 2397   2.467   0.783   2.022 -1.2755  2.3714  2.0409
  800SOL     OW 2398   0.146   1.971   0.525  0.4946  0.7822 -0.3919
  800SOL    HW1 2399   0.084   1.966   0.603  0.7424 -3.5269  0.3581
  800SOL    HW2 2400   0.102   2.004   0.441  0.9545 -0.3447  3.7631
  801SOL     OW 2401   1.005   1.813   0.838 -0.1433 -0.0462  0.6546
  801SOL    HW1 2402   1.102   1.774   0.844  0.7185 -2.2253 -0.4964
  801SOL    HW2 2403   0.955   1.764   0.771  0.2532  1.0328  0.6216
  802SOL     OW 2404   1.056   1.978   2.540 -0.1157  0.2320  0.2210
  802SOL    HW1 2405   0.991   1.903   2.542  0.5172 -0.2542  0.4686
  802SOL    HW2 2406   1.120   1.960   2.466 -1.8036  2.0371  1.8321
  803SOL     OW 2407   0.092   1.940   1.331  0.3728  0.3640 -0.1854
  803SOL    HW1 2408   0.011   1.893   1.371  2.6236 -0.0060 -1.4260
  803SOL    HW2 2409   0.155   1.874   1.291 -2.2991  0.6411 -0.7987
  804SOL     OW 2410   1.237   2.689   1.739 -0.3421 -0.0789  0.3590
  804SOL    HW1 2411   1.275   2.750   1.665  1.6710  0.5212  0.3914
  804SOL    HW2 2412   1.298   2.610   1.763  3.2117 -2.4621  0.4793
  805SOL     OW 2413   2.347   1.512   3.028 -0.2070 -0.2442  0.1612
  805SOL    HW1 2414   2.441   1.512   2.985  1.2824 -1.1847 -1.4575
  805SOL    HW2 2415   2.284   1.445   2.977  0.7521  0.2534 -1.3439
  806SOL     OW 2416   2.114   2.864   0.858  0.0693 -1.1567 -0.4395
  806SOL    HW1 2417   2.155   2.777   0.897 -2.5214  1.9374 -0.5031
  806SOL    HW2 2418   2.011   2.849   0.865 -2.8979 -1.5207  2.7112
  807SOL     OW 2419   2.831   0.598   2.649 -0.0013  0.2491 -0.2708
  807SOL    HW1 2420   2.867   0.524   2.709  0.1388 -1.7010  4.2962
  807SOL    HW2 2421   2.748   0.642   2.683  3.6564 -0.9581  1.8566
  808SOL     OW 2422   0.455   1.122   0.260  0.0655 -0.3636 -0.2840
  808SOL    HW1 2423   0.517   1.190   0.214  0.4459 -0.7012  2.4939
  808SOL    HW2 2424   0.431   1.159   0.350 -2.2597 -1.2336 -0.1860
  809SOL     OW 2425   2.540   0.875   1.907 -0.1226 -0.0477 -0.0588
  809SOL    HW1 2426   2.449   0.885   1.862 -2.1098 -0.2194 -1.9229
  809SOL    HW2 2427   2.602   0.824   1.842 -0.1530  1.4445 -2.2616
  810SOL     OW 2428   1.320   0.554   1.408  0.6639 -0.4748  0.4543
  810SOL    HW1 2429   1.291   0.488   1.336 -0.5697 -0.8494 -0.1289
  810SOL    HW2 2430   1.301   0.517   1.503  0.4119  0.8102  1.0175
  811SOL     OW 2431   2.254   2.883   1.768 -0.7192  0.3183 -0.2738
  811SOL    HW1 2432   2.222   2.970   1.722  1.1323 -0.8232  2.6514
  811SOL    HW2 2433   2.178   2.834   1.811  0.0243 -1.5185 -1.2066
  812SOL     OW 2434   1.744   2.222   0.020 -0.3134 -0.6693  0.3899
  812SOL    HW1 2435   1.749   2.261   0.115  1.1504 -0.4708  1.0832
  812SOL    HW2 2436   1.769   2.290   3.048  1.3648  3.1444 -0.9203
  813SOL     OW 2437   1.403   0.855   1.598  0.7947 -0.0200  0.1059
  813SOL    HW1 2438   1.337   0.933   1.598 -0.2639 -2.5322  2.9139
  813SOL    HW2 2439   1.444   0.839   1.504  1.5917 -0.5832 -0.0780
  814SOL     OW 2440   0.601   0.360   1.494 -0.5154 -0.2354  0.0380
  814SOL    HW1 2441   0.561   0.392   1.405  0.1764 -1.2866 -0.7737
  814SOL    HW2 2442   0.566   0.401   1.576  0.7461 -1.7027 -1.2767
  815SOL     OW 2443   0.712   0.676   0.200  0.3274  0.5525 -0.0388
  815SOL    HW1 2444   0.615   0.650   0.212 -0.2432 -0.1687  0.2296
  815SOL    HW2 2445   0.712   0.780   0.190 -2.5587  0.0044  0.0499
  816SOL     OW 2446   2.304   1.515   2.522 -0.2418  0.1629  0.8483
  816SOL    HW1 2447   2.277   1.591   2.586 -2.0209 -1.0439  0.3097
  816SOL    HW2 2448   2.389   1.538   2.468  0.0457 -0.9166 -0.1168
  817SOL     OW 2449   0.730   2.574   0.637 -0.1350 -0.9772  0.6089
  817SOL    HW1 2450   0.755   2.645   0.712  0.0501  2.0112  3.1334
  817SOL    HW2 2451   0.799   2.582   0.563 -0.1265  1.3794  2.0427
  818SOL     OW 2452   1.728   0.673   3.013 -0.7624  0.1050 -0.8331
  818SOL    HW1 2453   1.780   0.641   3.099  2.4583 -0.2945  0.8035
  818SOL    HW2 2454   1.638   0.721   3.032  0.1816 -0.4954 -0.0022
  819SOL     OW 2455   1.578   0.424   0.128  0.6645  0.1245 -0.3183
  819SOL    HW1 2456   1.671   0.458   0.107 -1.2820 -1.5871 -2.6042
  819SOL    HW2 2457   1.547   0.369   0.053  1.0426 -1.1536  5.0852
  820SOL     OW 2458   1.846   0.520   0.137 -0.1369 -0.2634 -0.2950
  820SOL    HW1 2459   1.893   0.438   0.175  1.2631  2.6067 -1.0897
  820SOL    HW2 2460   1.907   0.601   0.135 -2.8632 -2.4861  1.5708
  821SOL     OW 2461   2.420   0.112   0.568  0.3101 -0.3163 -0.2003
  821SOL    HW1 2462   2.350   0.078   0.504  2.4945  2.5210 -0.7513
  821SOL    HW2 2463   2.507   0.058   0.557  2.8484 -0.0705  1.7358
  822SOL     OW 2464   0.907   2.566   1.896  0.4168 -0.0196  0.1520
  822SOL    HW1 2465   0.866   2.650   1.854  0.5304  1.3033  0.2216
  822SOL    HW2 2466   0.922   2.587   1.996  1.6902 -0.0053  1.1634
  823SOL     OW 2467   0.288   1.356   1.559 -0.5940 -0.7011 -0.4709
  823SOL    HW1 2468   0.262   1.440   1.614  1.4059 -0.7227 -0.8019
  823SOL    HW2 2469   0.204   1.298   1.548 -0.8943 -3.2024  0.4819
  824SOL     OW 2470   1.273   2.999   2.636 -0.4702 -0.0423 -0.1375
  824SOL    HW1 2471   1.358   3.011   2.575  1.3483  0.6992 -0.6613
  824SOL    HW2 2472   1.305   3.010   2.733 -0.3189 -0.2229 -1.3677
  825SOL     OW 2473   2.142   0.987   0.747 -0.2118 -0.0540 -0.5358
  825SOL    HW1 2474   2.130   0.919   0.825  0.8155 -1.3043  1.4362
  825SOL    HW2 2475   2.059   0.999   0.688 -1.1969  1.5659 -0.9862
  826SOL     OW 2476   1.964   0.790   0.120 -0.0564 -0.1121 -0.6268
  826SOL    HW1 2477   2.025   0.780   0.198 -1.6494 -1.8360 -1.4281
  826SOL    HW2 2478   1.884   0.846   0.153 -0.9146  0.4336  2.1127
  827SOL     OW 2479   0.483   1.764   1.755 -0.0119 -0.3587  0.3939
  827SOL    HW1 2480   0.447   1.862   1.759 -0.0281  1.1687 -0.3289
  827SOL    HW2 2481   0.463   1.718   1.841  0.6804 -2.3888 -1.8351
  828SOL     OW 2482   2.349   1.370   1.643 -0.7441 -0.3059  0.1705
  828SOL    HW1 2483   2.328   1.421   1.728 -0.3267 -0.0240 -1.4614
  828SOL    HW2 2484   2.319   1.418   1.557 -1.3621  0.1668  0.9945
  829SOL     OW 2485   0.218   1.857   0.189 -0.0585 -0.2483 -0.5932
  829SOL    HW1 2486   0.313   1.849   0.229  0.1294 -1.1034  0.3516
  829SOL    HW2 2487   0.193   1.802   0.109  0.4467  1.7172  0.1794
  830SOL     OW 2488   1.926   1.007   0.576 -0.2512  0.0875  0.4691
  830SOL    HW1 2489   1.881   1.065   0.650 -1.0998  0.2789 -0.7991
  830SOL    HW2 2490   1.905   0.906   0.595  0.3889 -0.8346  0.5127
  831SOL     OW 2491   3.081   1.914   3.011 -0.3138  0.3952  0.9938
  831SOL    HW1 2492   0.031   1.991   2.972 -1.2962 -0.3298  0.7060
  831SOL    HW2 2493   0.050   1.843   3.027 -0.4725  2.0615  0.2945
  832SOL     OW 2494   0.795   0.285   0.447  0.3581  0.2472 -0.4460
  832SOL    HW1 2495   0.767   0.384   0.454  0.5707  3.0297 -0.2156
  832SOL    HW2 2496   0.857   0.260   0.372  2.8200 -1.6692  4.1026
  833SOL     OW 2497   0.539   0.511   1.700 -0.3981 -0.3648 -0.5312
  833SOL    HW1 2498   0.501   0.603   1.700  0.2878  1.2956  1.2797
  833SOL    HW2 2499   0.608   0.499   1.774  0.9748 -1.6007  0.0161
  834SOL     OW 2500   0.384   0.404   0.813 -0.3178  0.4806  0.1023
  834SOL    HW1 2501   0.378   0.327   0.747  1.5112 -0.8499  1.9415
  834SOL    HW2 2502   0.325   0.480   0.769 -0.4471  1.2948 -0.2244
  835SOL     OW 2503   2.607   2.665   1.199  0.9047  0.1594 -0.0085
  835SOL    HW1 2504   2.585   2.764   1.199 -2.8289  0.2734 -4.1056
  835SOL    HW2 2505   2.651   2.636   1.286  1.3606  2.4483 -0.5060
  836SOL     OW 2506   0.607   1.992   0.055  0.0708  0.4663 -0.2201
  836SOL    HW1 2507   0.633   2.088   0.078 -2.0391  0.2127 -2.0971
  836SOL    HW2 2508   0.544   1.960   0.129  1.7865 -1.1105  2.6120
  837SOL     OW 2509   1.782   1.321   2.594  0.2708  0.2215 -0.7557
  837SOL    HW1 2510   1.812   1.352   2.686  0.5569  1.6722 -3.3234
  837SOL    HW2 2511   1.779   1.405   2.536 -0.5164  0.5236 -0.6384
  838SOL     OW 2512   0.335   1.204   1.916  0.2182  0.4563  0.1369
  838SOL    HW1 2513   0.426   1.249   1.903 -0.9979  1.9229 -1.4108
  838SOL    HW2 2514   0.264   1.271   1.956 -2.1250  2.7226  4.1436
  839SOL     OW 2515   0.324   1.546   0.849 -0.3875  0.8755  0.0817
  839SOL    HW1 2516   0.335   1.544   0.752 -0.4382  1.3720  1.5184
  839SOL    HW2 2517   0.412   1.559   0.898  0.0442 -0.0377  2.8403
  840SOL     OW 2518   2.266   0.059   2.527 -0.0110 -0.2734  0.0470
  840SOL    HW1 2519   2.184   0.108   2.498  3.9009  0.8016  0.5411
  840SOL    HW2 2520   2.341   0.081   2.464  0.0942 -0.3209 -0.0197
  841SOL     OW 2521   1.007   2.386   0.365 -0.3251 -0.1410 -0.1691
  841SOL    HW1 2522   1.072   2.358   0.441  1.5156 -1.3856  0.5824
  841SOL    HW2 2523   1.033   2.346   0.278  0.0072  1.0650 -0.3381
  842SOL     OW 2524   0.367   0.183   0.629  0.1484  0.3199  0.1806
  842SOL    HW1 2525   0.395   0.164   0.726 -0.7037 -4.6996  0.9823
  842SOL    HW2 2526   0.439   0.170   0.562 -0.4060 -0.6674  0.9389
  843SOL     OW 2527   0.286   1.071   0.001 -0.5241 -0.7057 -0.2613
  843SOL    HW1 2528   0.287   1.050   0.102  1.6695  0.4016  1.3782
  843SOL    HW2 2529   0.257   1.165   3.082 -1.0095 -1.4169 -1.8991
  844SOL     OW 2530   1.078   2.313   0.113 -0.2869  0.1573  0.1403
  844SOL    HW1 2531   1.015   2.250   0.064 -0.8071 -3.7752 -1.5682
  844SOL    HW2 2532   1.163   2.316   0.054 -0.9964 -0.0694 -1.9192
  845SOL     OW 2533   2.242   2.891   2.482  0.3973 -0.6085 -0.2199
  845SOL    HW1 2534   2.242   2.987   2.516  0.1728 -2.3252 -1.8856
  845SOL    HW2 2535   2.151   2.846   2.494 -4.7572 -0.5759  1.7457
  846SOL     OW 2536   1.926   1.955   2.802 -0.1834 -0.0396  0.1078
  846SOL    HW1 2537   1.844   2.013   2.819  0.4433 -0.1325  0.1240
  846SOL    HW2 2538   2.010   2.012   2.792 -0.1949  2.4230 -2.1416
  847SOL     OW 2539   2.655   0.297   0.236 -0.3263 -0.6113  0.6601
  847SOL    HW1 2540   2.658   0.364   0.157 -1.0056  1.2323 -2.9029
  847SOL    HW2 2541   2.626   0.345   0.325  1.0509  1.4158  1.2891
  848SOL     OW 2542   0.820   0.554   0.406 -0.4034 -0.1944 -0.6554
  848SOL    HW1 2543   0.798   0.600   0.499 -1.1524 -0.8121  0.4023
  848SOL    HW2 2544   0.791   0.608   0.322  0.2086  0.0781  1.4509
  849SOL     OW 2545   1.587   2.746   1.900 -0.3230 -0.6827  1.1633
  849SOL    HW1 2546   1.672   2.740   1.954 -0.5899 -0.8082 -0.5839
  849SOL    HW2 2547   1.577   2.666   1.843 -0.6422  3.2945 -0.3237
  850SOL     OW 2548   0.826   1.423   0.386  0.2841  0.4143  0.2481
  850SOL    HW1 2549   0.880   1.392   0.463 -2.1167  0.5760 -1.1577
  850SOL    HW2 2550   0.731   1.448   0.419  2.3579  1.5124 -0.7656
  851SOL     OW 2551   0.302   1.359   0.046 -0.4524 -0.0274  0.4778
  851SOL    HW1 2552   0.400   1.332   0.032 -0.1814  0.7023 -0.3769
  851SOL    HW2 2553   0.273   1.372   0.144 -1.4532 -1.6623 -2.4507
  852SOL     OW 2554   1.477   2.997   1.916 -0.1972 -0.6010  0.2334
  852SOL    HW1 2555   1.375   3.004   1.925  0.5670  0.7670 -0.4750
  852SOL    HW2 2556   1.510   2.903   1.891  1.2236 -0.7199 -1.5130
  853SOL     OW 2557   2.739   1.685   0.034 -0.3658 -0.7425 -0.1142
  853SOL    HW1 2558   2.688   1.620   3.078 -1.2350  0.1419  0.6240
  853SOL    HW2 2559   2.813   1.633   0.077 -1.8355  2.9821  0.6754
  854SOL     OW 2560   1.151   1.165   1.856  0.2023 -0.1576 -0.0811
  854SOL    HW1 2561   1.095   1.243   1.830  2.0235 -1.8607 -0.3161
  854SOL    HW2 2562   1.183   1.121   1.768  1.7394 -0.6409 -2.7944
  855SOL     OW 2563   0.108   2.495   0.152  0.1449 -0.0782 -0.2585
  855SOL    HW1 2564   0.044   2.452   0.083 -0.1547 -1.9279 -4.5870
  855SOL    HW2 2565   0.162   2.566   0.105 -0.8435  0.8886  0.6806
  856SOL     OW 2566   0.446   0.777   1.754 -0.0440 -0.1259 -0.5942
  856SOL    HW1 2567   0.525   0.836   1.774 -1.3197  1.4712  0.2178
  856SOL    HW2 2568   0.393   0.818   1.675  0.6251  1.6877 -1.1003
  857SOL     OW 2569   1.064   1.160   2.284  0.2525  0.2494  0.0868
  857SOL    HW1 2570   0.976   1.102   2.286 -0.6488 -0.9472  0.6574
  857SOL    HW2 2571   1.060   1.239   2.352 -2.2565  1.0286 -1.2627
  858SOL     OW 2572   0.325   1.265   2.268  0.7279 -0.5068 -0.4165
  858SOL    HW1 2573   0.260   1.318   2.210 -0.0202  2.0828  1.6412
  858SOL    HW2 2574   0.281   1.176   2.309 -3.1861 -2.5633  1.2762
  859SOL     OW 2575   2.511   0.236   1.081 -0.3441  0.3296  0.0781
  859SOL    HW1 2576   2.508   0.141   1.048  2.4348 -1.5629 -0.9849
  859SOL    HW2 2577   2.593   0.250   1.137  2.8605 -1.1739  0.1006
  860SOL     OW 2578   1.779   0.016   0.052 -0.5190 -0.5072  0.6693
  860SOL    HW1 2579   1.809   0.007   0.146  0.7610 -0.2461  1.8915
  860SOL    HW2 2580   1.866   0.033   3.097  1.7768  0.5209 -0.7554
  861SOL     OW 2581   0.675   0.345   0.896  0.1696  0.2361  0.2337
  861SOL    HW1 2582   0.746   0.304   0.835  0.3326  1.5329 -1.2789
  861SOL    HW2 2583   0.580   0.306   0.879 -0.9828  3.2330 -1.2031
  862SOL     OW 2584   1.317   0.304   2.560 -0.1858 -0.3716  0.1674
  862SOL    HW1 2585   1.316   0.201   2.565 -1.1561 -0.8058  0.1601
  862SOL    HW2 2586   1.407   0.341   2.523 -1.2692 -0.6866  1.4993
  863SOL     OW 2587   2.324   2.241   0.816 -0.0225  0.2520 -0.0331
  863SOL    HW1 2588   2.382   2.294   0.751 -0.7794 -1.4127  2.2540
  863SOL    HW2 2589   2.319   2.146   0.782  1.6645  0.5295  0.9474
  864SOL     OW 2590   2.613   3.091   1.890  0.1729  0.4983 -0.2623
  864SOL    HW1 2591   2.658   3.026   1.822 -0.8988 -0.7479 -1.7433
  864SOL    HW2 2592   2.574   3.050   1.976 -2.5508 -0.0435 -1.1562
  865SOL     OW 2593   1.229   0.672   1.734  0.3608  0.0238  0.0520
  865SOL    HW1 2594   1.277   0.717   1.658  1.0001  0.1964  0.0532
  865SOL    HW2 2595   1.293   0.621   1.789  1.8129  3.3868  0.1208
  866SOL     OW 2596   1.726   2.854   1.325 -0.3293  0.6931 -0.3961
  866SOL    HW1 2597   1.825   2.879   1.334  2.4176 -0.9763 -1.3842
  866SOL    HW2 2598   1.672   2.927   1.282  2.0212 -0.5377  1.6566
  867SOL     OW 2599   2.496   2.608   0.465 -0.1408  0.1123  0.2268
  867SOL    HW1 2600   2.510   2.671   0.387 -0.7425 -2.7375 -0.5155
  867SOL    HW2 2601   2.584   2.587   0.511 -3.3275 -0.7063  0.0840
  868SOL     OW 2602   0.502   2.132   1.585 -0.2451  0.1280 -0.2285
  868SOL    HW1 2603   0.426   2.193   1.554 -0.1671  1.0485 -3.1227
  868SOL    HW2 2604   0.475   2.083   1.671 -1.1204  1.3803 -4.8963
  869SOL     OW 2605   2.055   2.371   2.718  0.0680 -0.0910 -0.4651
  869SOL    HW1 2606   2.043   2.354   2.618 -1.8555 -0.2069  4.1364
  869SOL    HW2 2607   2.105   2.456   2.736 -1.2947 -0.6413  0.1303
  870SOL     OW 2608   1.501   1.666   0.732 -0.2844  0.5575  0.0935
  870SOL    HW1 2609   1.580   1.713   0.693 -1.2908  0.5508  2.7136
  870SOL    HW2 2610   1.514   1.631   0.823 -0.5254  1.8457 -0.6701
  871SOL     OW 2611   0.264   1.722   1.473  0.1341  0.3217 -0.2365
  871SOL    HW1 2612   0.347   1.781   1.470  0.1961 -2.0978  0.4601
  871SOL    HW2 2613   0.256   1.690   1.568  1.7252  1.6157  1.3574
  872SOL     OW 2614   0.489   1.308   2.496  0.5554  0.1328  0.4025
  872SOL    HW1 2615   0.433   1.354   2.427  1.0166 -0.1465  0.3419
  872SOL    HW2 2616   0.455   1.213   2.508  1.4798  0.6374 -0.1807
  873SOL     OW 2617   0.810   2.029   1.877 -0.0021 -0.0402  0.2145
  873SOL    HW1 2618   0.855   2.086   1.953  2.9471 -0.2644  3.9911
  873SOL    HW2 2619   0.714   1.997   1.900 -0.9247 -1.1357 -0.4675
  874SOL     OW 2620   0.938   0.922   1.572 -0.3632  0.6578 -0.4285
  874SOL    HW1 2621   0.908   0.832   1.613  1.6715  2.3069 -3.4640
  874SOL    HW2 2622   0.859   0.982   1.560  0.6986 -0.9333  0.9714
  875SOL     OW 2623   2.712   2.532   0.597  0.4934 -0.1247  0.0944
  875SOL    HW1 2624   2.801   2.544   0.549  1.0220 -1.1047  3.1114
  875SOL    HW2 2625   2.728   2.489   0.686  0.0205  2.4455 -1.2548
  876SOL     OW 2626   1.012   1.523   0.175 -0.0565 -0.1913 -0.0211
  876SOL    HW1 2627   0.964   1.451   0.231  2.0573 -0.3978  1.6319
  876SOL    HW2 2628   0.987   1.618   0.196 -0.0840 -0.2846 -1.1297
  877SOL     OW 2629   2.777   2.984   0.825  0.6479  0.5747 -0.1625
  877SOL    HW1 2630   2.818   2.890   0.840  2.3642 -2.0682 -1.1834
  877SOL    HW2 2631   2.845   3.056   0.835 -0.0866  0.4142 -0.5366
  878SOL     OW 2632   2.087   1.536   0.446 -0.1820  0.5274  0.4840
  878SOL    HW1 2633   2.036   1.557   0.362  2.3412 -2.2496  1.5568
  878SOL    HW2 2634   2.030   1.479   0.508  0.5636 -0.7485  0.5874
  879SOL     OW 2635   2.265   1.700   0.985  0.3788 -0.1190  0.0256
  879SOL    HW1 2636   2.354   1.744   1.018 -1.5368  0.2616 -0.2524
  879SOL    HW2 2637   2.271   1.623   0.924  0.2832  0.1329  1.8959
  880SOL     OW 2638   0.604   2.417   0.826  0.0889 -0.8271 -0.3082
  880SOL    HW1 2639   0.510   2.386   0.803 -1.6597  1.2725  0.0678
  880SOL    HW2 2640   0.633   2.486   0.758  0.8638  1.3958  1.2101
  881SOL     OW 2641   0.938   0.895   0.947 -0.2469  0.3444  0.4871
  881SOL    HW1 2642   0.909   0.895   0.849  0.1708 -2.5081  0.9306
  881SOL    HW2 2643   1.040   0.892   0.958 -0.7182  0.0366 -0.0182
  882SOL     OW 2644   2.280   1.063   0.465 -0.2338  0.1542  0.4662
  882SOL    HW1 2645   2.277   1.151   0.420 -0.9669 -1.4835 -0.5323
  882SOL    HW2 2646   2.184   1.037   0.488  0.0972  0.3498 -2.0016
  883SOL     OW 2647   1.540   0.066   1.703  0.5485 -0.5708  0.2442
  883SOL    HW1 2648   1.585   0.143   1.752  0.9170 -1.3734  1.5060
  883SOL    HW2 2649   1.507   0.002   1.769  2.2870  2.2117 -0.1121
  884SOL     OW 2650   2.876   3.030   1.486  0.1003 -0.0052  0.0887
  884SOL    HW1 2651   2.952   3.094   1.461 -2.8445 -0.1617 -0.7152
  884SOL    HW2 2652   2.900   2.931   1.477 -0.2006 -1.7793 -0.1891
  885SOL     OW 2653   0.856   0.953   2.017 -0.3948  0.3402  0.1909
  885SOL    HW1 2654   0.936   0.909   1.971 -2.4758 -2.6790 -0.3056
  885SOL    HW2 2655   0.780   0.888   2.017  0.4785 -2.4089  0.8183
  886SOL     OW 2656   1.479   0.811   2.277  0.3692  0.3055 -0.6752
  886SOL    HW1 2657   1.467   0.915   2.288  0.5420  0.7137 -1.0508
  886SOL    HW2 2658   1.412   0.760   2.334 -0.7150  1.0947 -0.0282
  887SOL     OW 2659   1.642   0.588   1.308 -0.1030 -0.6942  0.5825
  887SOL    HW1 2660   1.576   0.566   1.231  1.6238  0.0245 -1.9764
  887SOL    HW2 2661   1.723   0.628   1.265  1.0140 -0.0229 -1.1931
  888SOL     OW 2662   2.295   1.509   1.885 -0.0896  0.3204  0.1383
  888SOL    HW1 2663   2.396   1.518   1.892  1.3541  0.7010  0.9506
  888SOL    HW2 2664   2.245   1.567   1.946  4.0659 -4.6875 -2.5477
  889SOL     OW 2665   1.591   2.059   0.601 -0.2161 -0.4858 -0.0654
  889SOL    HW1 2666   1.656   2.134   0.579  0.7360  2.2781 -0.5701
  889SOL    HW2 2667   1.539   2.032   0.518 -0.4602 -1.0118 -2.1357
  890SOL     OW 2668   0.886   1.828   0.498  0.8151 -0.6527 -0.6017
  890SOL    HW1 2669   0.922   1.745   0.547  1.4600 -0.7802  0.8923
  890SOL    HW2 2670   0.785   1.850   0.518 -1.1688 -1.8246 -1.0323
  891SOL     OW 2671   2.617   0.700   2.757  0.1235  0.2648 -0.0365
  891SOL    HW1 2672   2.545   0.651   2.697 -0.6182 -1.6187 -3.5820
  891SOL    HW2 2673   2.580   0.746   2.843  0.9560  1.0598  0.2792
  892SOL     OW 2674   0.920   0.630   2.346 -0.1296 -0.2950 -0.3500
  892SOL    HW1 2675   0.828   0.590   2.355  1.3790  0.3817 -1.3770
  892SOL    HW2 2676   0.991   0.566   2.385  1.1633 -1.3067  1.4086
  893SOL     OW 2677   1.609   0.044   0.984  0.2022  0.3696 -0.4876
  893SOL    HW1 2678   1.669   0.125   1.000  0.5035 -0.2969 -0.5035
  893SOL    HW2 2679   1.572   0.009   1.074 -0.9805 -1.1469 -0.6859
  894SOL     OW 2680   2.866   2.737   0.896  0.0252 -0.7663 -0.2753
  894SOL    HW1 2681   2.921   2.702   0.974 -1.6959  0.5440  1.2238
  894SOL    HW2 2682   2.771   2.704   0.890  1.2014  1.2029 -2.6767
  895SOL     OW 2683   1.885   2.731   2.835 -0.2659  0.3172 -0.3508
  895SOL    HW1 2684   1.804   2.673   2.859 -3.0316 -0.7056  0.8080
  895SOL    HW2 2685   1.949   2.742   2.916  0.0747  0.2829 -3.3202
  896SOL     OW 2686   2.230   0.046   2.103  0.0352  0.3631 -0.1446
  896SOL    HW1 2687   2.255   0.080   2.012 -1.0635  0.0823  2.6756
  896SOL    HW2 2688   2.131   0.038   2.115  0.5101  1.6946  0.7791
  897SOL     OW 2689   0.373   2.033   1.829 -0.3561 -0.4688 -0.1849
  897SOL    HW1 2690   0.404   2.116   1.885  0.7119 -0.5763  3.7217
  897SOL    HW2 2691   0.275   2.014   1.833 -1.5847 -4.2125  3.0279
  898SOL     OW 2692   2.573   1.530   1.922  0.4762  0.1487  0.6212
  898SOL    HW1 2693   2.615   1.440   1.946  1.7700 -1.0466  1.6232
  898SOL    HW2 2694   2.638   1.585   1.869  0.3508  0.6120  1.5137
  899SOL     OW 2695   1.402   2.083   0.821  0.3748  0.3293  0.1720
  899SOL    HW1 2696   1.303   2.060   0.805 -2.1420 -0.9744 -2.4808
  899SOL    HW2 2697   1.467   2.046   0.747  3.5609 -1.4238 -2.0385
  900SOL     OW 2698   0.713   3.046   2.987  0.1148  0.4646 -0.3373
  900SOL    HW1 2699   0.693   2.948   2.960 -0.6952  0.6734 -2.4806
  900SOL    HW2 2700   0.808   3.069   2.962  1.3304  1.4329 -0.1914
  901SOL     OW 2701   1.324   1.779   2.440 -0.3428  0.0497 -0.0341
  901SOL    HW1 2702   1.281   1.854   2.386 -0.8147  1.0977 -1.4139
  901SOL    HW2 2703   1.415   1.811   2.477  0.7440  1.2306  4.5982
  902SOL     OW 2704   2.899   0.396   2.798 -0.2778  0.1726 -0.2352
  902SOL    HW1 2705   2.803   0.397   2.818  0.6351 -0.8489 -0.7453
  902SOL    HW2 2706   2.942   0.303   2.821  3.6153  0.8393 -0.4399
  903SOL     OW 2707   1.995   0.694   2.136 -0.2459  0.0103 -0.2169
  903SOL    HW1 2708   1.897   0.710   2.169 -1.0303  0.0855  2.6672
  903SOL    HW2 2709   2.028   0.596   2.139 -0.4537 -0.0946 -0.5491
  904SOL     OW 2710   1.351   0.640   2.451  0.4940  0.6916 -0.0226
  904SOL    HW1 2711   1.423   0.625   2.521 -0.6168 -0.6205 -1.6205
  904SOL    HW2 2712   1.274   0.570   2.455  1.4350 -0.2241  1.4711
  905SOL     OW 2713   2.003   2.320   1.598 -0.0296  0.2995 -0.6049
  905SOL    HW1 2714   2.046   2.318   1.508 -1.4612 -0.3752 -0.3498
  905SOL    HW2 2715   2.005   2.413   1.641  1.0372 -1.4503 -0.8127
  906SOL     OW 2716   1.725   1.853   0.306 -0.7823 -0.1642 -0.5458
  906SOL    HW1 2717   1.787   1.838   0.391  0.2324  1.2073  0.0917
  906SOL    HW2 2718   1.633   1.903   0.331 -1.3434 -0.3877  1.1719
  907SOL     OW 2719   1.231   2.935   0.901  0.2100  0.2552  0.0773
  907SOL    HW1 2720   1.248   2.954   0.800 -0.8312  0.6067 -0.9429
  907SOL    HW2 2721   1.308   2.878   0.935  1.2043  0.7365 -2.9035
  908SOL     OW 2722   1.433   2.490   2.149 -0.0274 -0.4367 -0.3128
  908SOL    HW1 2723   1.480   2.582   2.169  0.4913  2.3771  2.1272
  908SOL    HW2 2724   1.331   2.494   2.159  1.2752 -0.6888  1.4301
  909SOL     OW 2725   2.073   0.442   2.124 -0.4190 -0.4215 -0.2017
  909SOL    HW1 2726   2.160   0.387   2.132  0.0705 -0.9420  2.5126
  909SOL    HW2 2727   2.009   0.398   2.057  1.4825  1.1681  0.2419
  910SOL     OW 2728   1.119   1.049   2.972  0.0566 -0.6895 -0.0531
  910SOL    HW1 2729   1.085   1.006   3.058 -0.2658  1.7658 -2.9025
  910SOL    HW2 2730   1.220   1.034   2.959 -4.1302  0.0584  0.4529
  911SOL     OW 2731   3.002   1.098   0.216 -0.1358 -0.1432 -0.3188
  911SOL    HW1 2732   3.014   1.185   0.262  2.8783 -0.5227 -0.3792
  911SOL    HW2 2733   2.914   1.099   0.162  0.4125  0.0642 -1.3403
  912SOL     OW 2734   0.278   2.210   0.489  0.3157 -0.5627 -0.3865
  912SOL    HW1 2735   0.237   2.118   0.508 -0.9070 -2.2124 -1.1237
  912SOL    HW2 2736   0.358   2.198   0.425  1.1149  2.4447 -1.9196
  913SOL     OW 2737   2.841   2.288   2.478  0.6546 -0.1673  0.0663
  913SOL    HW1 2738   2.821   2.219   2.405 -2.2229 -1.1936  1.0874
  913SOL    HW2 2739   2.843   2.239   2.568  2.3873  1.8166  1.9045
  914SOL     OW 2740   1.409   1.935   1.643 -0.8321  0.5752 -0.0395
  914SOL    HW1 2741   1.434   1.987   1.555  0.3702  2.2159 -2.5675
  914SOL    HW2 2742   1.451   1.842   1.643  0.8080  1.4095  0.9147
  915SOL     OW 2743   0.781   2.977   2.517 -0.5025 -0.2661  0.1660
  915SOL    HW1 2744   0.816   3.072   2.508 -2.8760 -0.4991 -0.3636
  915SOL    HW2 2745   0.696   2.966   2.463  0.3691  1.1680  0.3988
  916SOL     OW 2746   0.600   0.821   1.421  0.0772 -0.0543 -0.2051
  916SOL    HW1 2747   0.675   0.754   1.418  0.5815  2.8489  0.6505
  916SOL    HW2 2748   0.618   0.893   1.487 -1.3553 -1.1446 -1.3922
  917SOL     OW 2749   2.683   0.484   0.676 -0.6306  0.2962 -0.2465
  917SOL    HW1 2750   2.774   0.442   0.689  1.0457 -1.0229 -2.4939
  917SOL    HW2 2751   2.626   0.417   0.626  1.3895  1.6351  1.8648
  918SOL     OW 2752   1.675   2.547   2.856 -0.2428  0.0989 -0.0060
  918SOL    HW1 2753   1.746   2.480   2.897  1.5506 -2.7692  1.6977
  918SOL    HW2 2754   1.606   2.567   2.927 -2.4066 -2.9805  0.0819
  919SOL     OW 2755   1.550   2.566   1.578  0.8631 -0.2711 -0.1341
  919SOL    HW1 2756   1.534   2.536   1.481  0.2645 -0.2216 -1.7092
  919SOL    HW2 2757   1.572   2.661   1.587 -0.6548 -0.7865 -0.0400
  920SOL     OW 2758   0.725   0.752   2.822 -0.1764 -0.4286 -0.1002
  920SOL    HW1 2759   0.793   0.726   2.897  1.5433 -0.6151  0.4565
  920SOL    HW2 2760   0.669   0.830   2.858  1.7020  2.7516  0.6123
  921SOL     OW 2761   2.920   0.715   3.065  0.1932 -0.6319 -0.0711
  921SOL    HW1 2762   2.883   0.806   3.033 -1.4948 -1.3896 -3.6682
  921SOL    HW2 2763   2.959   0.665   2.987 -1.3618  0.7214  0.3166
  922SOL     OW 2764   0.213   2.023   1.006 -0.3744 -0.5558  0.3831
  922SOL    HW1 2765   0.276   1.991   1.084 -0.4861 -0.7283 -1.0998
  922SOL    HW2 2766   0.264   2.023   0.921 -3.1139 -1.3745  2.4195
  923SOL     OW 2767   0.585   1.326   1.926  0.0197 -0.1161 -0.0933
  923SOL    HW1 2768   0.674   1.289   1.959 -0.4750  1.2216 -0.0414
  923SOL    HW2 2769   0.598   1.370   1.836  0.6445  1.0294  0.4928
  924SOL     OW 2770   1.619   2.946   3.027 -0.5917 -0.2778 -0.5978
  924SOL    HW1 2771   1.574   2.874   3.087 -1.0145  0.7849  2.0943
  924SOL    HW2 2772   1.676   3.008   3.084 -4.2482 -1.2482 -0.5295
  925SOL     OW 2773   2.790   1.410   1.170 -0.2747 -0.2457  0.3310
  925SOL    HW1 2774   2.746   1.363   1.095 -0.8067 -3.7523 -0.4330
  925SOL    HW2 2775   2.804   1.341   1.248  0.8961 -0.4512  2.7435
  926SOL     OW 2776   2.396   0.494   1.475 -0.0040  0.1704 -0.1630
  926SOL    HW1 2777   2.480   0.547   1.464 -1.5334 -0.8072 -0.5343
  926SOL    HW2 2778   2.416   0.406   1.523  0.7588  1.0299  2.6369
  927SOL     OW 2779   2.008   2.918   1.387 -0.1484  0.3868  0.6298
  927SOL    HW1 2780   2.091   2.892   1.441  1.8499  2.0025 -0.8230
  927SOL    HW2 2781   2.033   2.941   1.289  0.1285  2.0295  0.5625
  928SOL     OW 2782   0.003   1.170   2.372 -0.6637  0.0306  0.2478
  928SOL    HW1 2783   0.088   1.117   2.346 -0.2671 -0.7947  3.8425
  928SOL    HW2 2784   3.037   1.097   2.401 -0.5084  1.6096  2.6773
  929SOL     OW 2785   2.691   0.719   1.166 -0.5272  0.0536  0.1384
  929SOL    HW1 2786   2.619   0.711   1.095 -0.8302  0.8104 -2.2936
  929SOL    HW2 2787   2.733   0.815   1.159  0.3613  0.6644 -2.7630
  930SOL     OW 2788   3.010   2.344   2.140 -0.3181  1.0667  0.2702
  930SOL    HW1 2789   3.042   2.440   2.142 -3.3914 -0.8036 -1.5974
  930SOL    HW2 2790   3.071   2.283   2.088 -2.5535 -3.2462  3.4088
  931SOL     OW 2791   1.862   0.742   1.213  0.0449  0.2359 -0.3986
  931SOL    HW1 2792   1.938   0.673   1.215 -0.2023  0.0737  0.8259
  931SOL    HW2 2793   1.875   0.812   1.138 -0.6914 -3.3823 -0.6020
  932SOL     OW 2794   0.178   1.044   1.746  0.0427 -0.0928 -0.3393
  932SOL    HW1 2795   0.237   1.090   1.816  0.8719  0.9046  1.2620
  932SOL    HW2 2796   0.145   1.117   1.682 -0.0663  0.7629 -1.7127
  933SOL     OW 2797   2.623   1.897   1.676  0.1876 -0.5111  0.5613
  933SOL    HW1 2798   2.621   1.930   1.578 -2.2474  0.4153  0.0486
  933SOL    HW2 2799   2.548   1.836   1.705  0.3833  0.4138  0.5059
  934SOL     OW 2800   0.502   1.881   1.432  0.1138  0.4824  0.1015
  934SOL    HW1 2801   0.595   1.842   1.419  1.1219  0.3383  0.3772
  934SOL    HW2 2802   0.506   1.958   1.500 -0.6210 -1.0549  2.8784
  935SOL     OW 2803   2.798   1.248   1.383  0.0906 -0.6107  0.3141
  935SOL    HW1 2804   2.737   1.290   1.450  0.2340 -1.0646  2.8474
  935SOL    HW2 2805   2.881   1.205   1.426 -0.4555  0.8870  1.7249
  936SOL     OW 2806   2.605   1.292   1.603  0.0713 -0.1906 -0.0694
  936SOL    HW1 2807   2.621   1.218   1.675  1.9046 -0.0448  2.8787
  936SOL    HW2 2808   2.510   1.339   1.606 -1.2547 -1.8583 -1.1437
  937SOL     OW 2809   1.922   0.504   1.565 -0.7197 -0.1357 -0.1044
  937SOL    HW1 2810   1.824   0.489   1.572 -0.4486  1.4274 -0.6989
  937SOL    HW2 2811   1.962   0.564   1.642  0.2807  2.2966  3.3088
  938SOL     OW 2812   0.227   2.883   0.138 -0.5198 -0.4060 -0.3647
  938SOL    HW1 2813   0.212   2.926   0.228 -2.9046  0.1761 -0.8896
  938SOL    HW2 2814   0.132   2.857   0.100 -0.3871 -4.2274 -2.4877
  939SOL     OW 2815   2.849   2.075   2.678  0.7160 -0.1167  0.3030
  939SOL    HW1 2816   2.949   2.057   2.693 -0.0654  0.1546 -2.6167
  939SOL    HW2 2817   2.803   2.006   2.612 -0.5019 -0.2294 -0.1265
  940SOL     OW 2818   1.465   1.958   0.388  0.0487  0.2887 -0.2491
  940SOL    HW1 2819   1.408   1.962   0.302 -2.5649  0.2311 -2.1965
  940SOL    HW2 2820   1.430   1.888   0.457  2.0696 -0.8702  3.5971
  941SOL     OW 2821   1.977   2.775   3.091  0.2421 -0.1426  0.0959
  941SOL    HW1 2822   1.990   2.866   0.037  3.0539 -0.4424 -0.4001
  941SOL    HW2 2823   1.987   2.695   0.051 -0.8028 -0.2860 -1.3987
  942SOL     OW 2824   1.813   2.215   1.002 -0.2347 -0.1393  1.1465
  942SOL    HW1 2825   1.790   2.315   1.001  0.6198  3.0568 -1.2391
  942SOL    HW2 2826   1.904   2.210   1.045 -1.7388 -1.1906  0.1506
  943SOL     OW 2827   2.310   0.921   1.739  0.2822  0.0682  0.0824
  943SOL    HW1 2828   2.298   0.973   1.654  0.5760 -1.2624  2.5662
  943SOL    HW2 2829   2.292   0.822   1.726  2.3164 -1.4123 -0.2876
  944SOL     OW 2830   1.225   0.898   2.542  0.1501  0.2062  0.5161
  944SOL    HW1 2831   1.230   0.945   2.452  0.6274  0.0421  0.8562
  944SOL    HW2 2832   1.229   0.796   2.527 -2.3471 -2.2485 -0.8120
  945SOL     OW 2833   2.738   2.067   1.304  0.6991  0.1330  0.3073
  945SOL    HW1 2834   2.769   1.971   1.311 -3.6052  2.4603  0.3679
  945SOL    HW2 2835   2.649   2.074   1.353 -3.1903  0.8912  0.0285
  946SOL     OW 2836   0.688   1.042   2.996 -0.0847 -0.0630  0.1213
  946SOL    HW1 2837   0.708   1.021   3.093 -0.6565 -3.0393 -1.0612
  946SOL    HW2 2838   0.770   1.079   2.950  1.4960  1.2313 -0.1127
  947SOL     OW 2839   2.004   2.634   1.654  0.2628 -0.0615 -0.4164
  947SOL    HW1 2840   1.909   2.653   1.621  0.2052  0.5464 -0.0388
  947SOL    HW2 2841   1.995   2.607   1.752 -0.3424 -0.3333  0.1187
  948SOL     OW 2842   0.036   1.806   0.929 -0.0850 -0.1013  0.3689
  948SOL    HW1 2843   0.088   1.884   0.966 -3.8261 -0.0172 -1.5358
  948SOL    HW2 2844   0.055   1.726   0.986 -0.4015  0.9857  0.5812
  949SOL     OW 2845   1.217   1.059   1.613  0.1259 -0.4028 -0.0373
  949SOL    HW1 2846   1.241   1.138   1.553  2.3062  0.7679 -0.0404
  949SOL    HW2 2847   1.137   1.005   1.578 -2.3388  2.2156 -0.8875
  950SOL     OW 2848   0.433   1.047   0.922 -0.7925  0.3358  0.4182
  950SOL    HW1 2849   0.333   1.042   0.922 -0.7164  1.0298  3.0589
  950SOL    HW2 2850   0.472   0.982   0.847  0.7264 -4.3756 -2.2269
  951SOL     OW 2851   0.473   2.131   2.326 -0.1041 -0.9477 -0.0739
  951SOL    HW1 2852   0.394   2.070   2.300  0.5538 -3.1780 -0.9415
  951SOL    HW2 2853   0.551   2.118   2.260 -0.0118 -1.2794 -0.5439
  952SOL     OW 2854   1.593   1.387   0.119 -0.3455  0.8330 -0.3795
  952SOL    HW1 2855   1.588   1.473   0.174  2.6561 -0.7732 -1.8123
  952SOL    HW2 2856   1.540   1.397   0.033  0.5629 -0.4330 -0.1010
  953SOL     OW 2857   1.119   0.213   2.998  0.2267 -0.3882 -0.1916
  953SOL    HW1 2858   1.065   0.275   3.062  1.6222 -0.0858  3.2271
  953SOL    HW2 2859   1.185   0.265   2.940  0.8276  0.5073  0.7189
  954SOL     OW 2860   2.268   1.336   0.404  0.0710  0.7172  0.0242
  954SOL    HW1 2861   2.212   1.413   0.419 -0.3924 -3.3183 -2.9739
  954SOL    HW2 2862   2.337   1.360   0.335  1.7390 -2.8237 -0.1645
  955SOL     OW 2863   2.817   2.980   0.025  0.1828 -0.3265  0.2424
  955SOL    HW1 2864   2.841   2.998   3.030  2.2012 -1.9974 -0.7098
  955SOL    HW2 2865   2.844   2.882   0.048 -0.5739  2.3588 -0.1130
  956SOL     OW 2866   1.267   0.802   1.272  0.0147 -0.0558  0.1958
  956SOL    HW1 2867   1.313   0.814   1.181 -0.7505  1.1940 -1.2147
  956SOL    HW2 2868   1.308   0.722   1.321 -1.1273  0.8025  0.6699
  957SOL     OW 2869   1.297   1.117   1.060 -0.2931 -0.7353  0.2470
  957SOL    HW1 2870   1.373   1.104   1.130  0.7058  0.6216 -0.4744
  957SOL    HW2 2871   1.237   1.035   1.042 -2.6346  0.2256 -1.3583
  958SOL     OW 2872   0.341   1.609   0.572  0.1031  0.6134  0.0630
  958SOL    HW1 2873   0.365   1.704   0.599 -0.6714 -2.0149 -0.2301
  958SOL    HW2 2874   0.250   1.612   0.520  0.0949  1.3249  1.2158
  959SOL     OW 2875   1.602   1.318   1.019 -0.0527  0.1148  0.1856
  959SOL    HW1 2876   1.662   1.283   1.096  3.9695 -0.2025  0.3538
  959SOL    HW2 2877   1.565   1.241   0.968  2.4580  2.8288  0.2483
  960SOL     OW 2878   3.071   1.262   2.842  0.3117  0.1528 -0.3643
  960SOL    HW1 2879   0.039   1.253   2.770 -0.4983 -1.7855  0.9142
  960SOL    HW2 2880   2.990   1.217   2.809  1.6442  1.7618  0.6816
  961SOL     OW 2881   0.879   1.589   0.701  0.2619 -0.0091  0.4290
  961SOL    HW1 2882   0.863   1.489   0.686 -0.4251 -0.3214 -0.3340
  961SOL    HW2 2883   0.791   1.634   0.710  0.3692  2.3017  2.7122
  962SOL     OW 2884   1.150   1.177   0.311  0.1637 -0.0018 -0.0761
  962SOL    HW1 2885   1.205   1.241   0.373 -2.0323  2.5584 -2.2325
  962SOL    HW2 2886   1.178   1.198   0.216  0.1806  0.8683 -0.3934
  963SOL     OW 2887   1.380   2.221   2.309 -0.1410  0.0778  0.0690
  963SOL    HW1 2888   1.465   2.176   2.342  0.1767  3.2383  0.9215
  963SOL    HW2 2889   1.392   2.269   2.218 -0.7936  1.8125  2.0018
  964SOL     OW 2890   2.902   2.726   0.050  0.1952 -0.1655 -0.1533
  964SOL    HW1 2891   2.881   2.631   0.042 -0.9812  1.6755  0.6009
  964SOL    HW2 2892   2.996   2.742   0.018 -1.8709 -0.0657  2.1004
  965SOL     OW 2893   0.715   2.240   0.134  0.3708 -0.0358  0.1613
  965SOL    HW1 2894   0.732   2.309   0.209  0.3228 -0.9122  0.5685
  965SOL    HW2 2895   0.769   2.259   0.053 -4.4130  2.1666  0.0773
  966SOL     OW 2896   3.032   1.780   2.738 -0.1415  0.3246  0.5360
  966SOL    HW1 2897   2.989   1.788   2.829  2.3540  1.2099 -2.3734
  966SOL    HW2 2898   3.075   1.870   2.710  1.8859  1.3900 -1.5385
  967SOL     OW 2899   2.021   3.002   2.811 -0.1037 -0.2437  0.2983
  967SOL    HW1 2900   1.995   2.922   2.756  0.4104  0.2286 -0.0104
  967SOL    HW2 2901   1.992   3.091   2.766 -0.9802  3.7314 -1.5474
  968SOL     OW 2902   2.166   2.864   0.578 -0.2956 -1.0622 -0.6282
  968SOL    HW1 2903   2.097   2.790   0.558 -0.6042  0.7462 -1.1786
  968SOL    HW2 2904   2.190   2.871   0.678 -1.6385 -1.0449 -1.1264
  969SOL     OW 2905   0.567   1.411   2.205  0.4793  0.1623  0.3825
  969SOL    HW1 2906   0.637   1.364   2.263 -2.3329 -1.7239  1.1167
  969SOL    HW2 2907   0.476   1.363   2.205 -1.6890  3.2305  1.6455
  970SOL     OW 2908   1.516   1.375   0.670 -0.1255 -0.1875 -0.6990
  970SOL    HW1 2909   1.531   1.469   0.704  1.7504 -0.4177  1.2532
  970SOL    HW2 2910   1.606   1.326   0.688  1.5495 -1.2220 -1.1136
  971SOL     OW 2911   2.156   3.098   1.624  0.8030  0.1478  0.1099
  971SOL    HW1 2912   2.063   0.046   1.617 -5.8446  1.3920  1.4828
  971SOL    HW2 2913   2.209   0.025   1.541 -0.8838 -1.9044  0.0962
  972SOL     OW 2914   0.191   3.055   1.453  0.1145 -0.6416 -0.0036
  972SOL    HW1 2915   0.262   0.029   1.478 -0.2952  0.0348 -0.4058
  972SOL    HW2 2916   0.177   2.992   1.534  0.3995  0.5635  0.9702
  973SOL     OW 2917   0.203   0.411   2.734  0.3109  0.1265 -1.1207
  973SOL    HW1 2918   0.162   0.469   2.809 -2.8084  1.5573 -1.5522
  973SOL    HW2 2919   0.251   0.470   2.667 -3.8258 -1.3130  1.2707
  974SOL     OW 2920   2.143   1.516   2.283 -0.5126  0.4674 -0.0282
  974SOL    HW1 2921   2.179   1.536   2.375  1.1010 -0.0806 -2.0248
  974SOL    HW2 2922   2.173   1.420   2.251  1.0196 -1.7837 -0.6705
  975SOL     OW 2923   0.477   3.089   1.309  0.1387 -0.7612 -0.0056
  975SOL    HW1 2924   0.545   3.041   1.253  0.1864  1.7419  0.4564
  975SOL    HW2 2925   0.430   3.022   1.368  0.7716  0.8466 -2.9290
  976SOL     OW 2926   0.962   2.364   2.566  0.3067 -0.1314 -0.0159
  976SOL    HW1 2927   1.064   2.341   2.562 -2.8370 -2.3429  0.1907
  976SOL    HW2 2928   0.914   2.277   2.541  0.9589  3.5785 -0.9310
  977SOL     OW 2929   0.599   3.027   0.527 -0.1547 -0.2269 -0.1571
  977SOL    HW1 2930   0.565   0.011   0.487  1.4199 -3.8621 -0.4167
  977SOL    HW2 2931   0.670   2.994   0.461 -0.8724  3.1476  0.1967
  978SOL     OW 2932   2.993   1.334   2.010  0.2241  0.4658  0.2273
  978SOL    HW1 2933   2.981   1.227   2.011 -1.6758 -1.0758 -1.2818
  978SOL    HW2 2934   2.927   1.392   2.062 -0.9912 -0.1169  3.5224
  979SOL     OW 2935   1.818   2.940   1.776  0.4339  0.5753 -0.6423
  979SOL    HW1 2936   1.736   2.914   1.723 -1.6683  2.7518  0.4232
  979SOL    HW2 2937   1.846   2.865   1.843  1.1770  0.2529 -1.0824
  980SOL     OW 2938   1.609   1.653   2.118 -0.2994  0.5389  0.0268
  980SOL    HW1 2939   1.625   1.584   2.046 -0.4092 -0.6325 -0.8778
  980SOL    HW2 2940   1.628   1.609   2.209  0.8431 -0.3995 -0.5124
  981SOL     OW 2941   2.686   0.645   1.429 -0.0342  0.2137  0.1401
  981SOL    HW1 2942   2.654   0.713   1.497 -1.5377 -0.9796 -0.9181
  981SOL    HW2 2943   2.679   0.682   1.335  1.1102 -1.2202 -2.6771
  982SOL     OW 2944   0.150   0.141   2.780 -0.3346 -0.3739 -0.0799
  982SOL    HW1 2945   0.050   0.145   2.811 -3.0833 -0.6802  1.6798
  982SOL    HW2 2946   0.188   0.232   2.765 -0.5074 -1.9346 -1.1961
  983SOL     OW 2947   2.418   0.599   2.590 -0.1267 -0.0432 -0.3769
  983SOL    HW1 2948   2.372   0.689   2.608 -0.8823  0.1519  1.8081
  983SOL    HW2 2949   2.417   0.571   2.491  0.7554 -2.7095  3.0191
  984SOL     OW 2950   1.097   0.194   2.152 -0.5189 -0.2920 -0.3007
  984SOL    HW1 2951   1.169   0.256   2.187 -2.4249 -0.2082  2.0531
  984SOL    HW2 2952   1.069   0.124   2.224 -2.5191  1.2565  0.8446
  985SOL     OW 2953   1.984   1.564   2.062 -0.3151  0.3773 -0.3303
  985SOL    HW1 2954   1.927   1.647   2.081  1.7626 -1.4382 -0.5438
  985SOL    HW2 2955   2.053   1.546   2.138  1.4726  0.4376  1.0914
  986SOL     OW 2956   2.791   0.278   1.211 -0.0041  0.6376  0.1573
  986SOL    HW1 2957   2.862   0.209   1.203 -1.7886  2.0692  0.5708
  986SOL    HW2 2958   2.827   0.367   1.172  3.2009  2.8581  3.2097
  987SOL     OW 2959   2.787   0.972   1.189 -0.0878 -0.2990  0.5855
  987SOL    HW1 2960   2.751   1.029   1.261  1.8013 -1.9735 -5.1687
  987SOL    HW2 2961   2.799   1.018   1.100  0.8734  1.7529  1.5333
  988SOL     OW 2962   2.947   1.080   2.066 -0.3033 -0.1315  0.0580
  988SOL    HW1 2963   2.859   1.027   2.068 -0.6767  0.4787 -5.0395
  988SOL    HW2 2964   2.988   1.082   2.158  0.1752 -2.2987 -1.4104
  989SOL     OW 2965   1.747   1.699   0.022 -0.4914  0.8306  0.3043
  989SOL    HW1 2966   1.793   1.782   3.079  1.6598  0.9450 -2.9351
  989SOL    HW2 2967   1.661   1.682   3.072  0.0701 -0.9166 -1.0869
  990SOL     OW 2968   1.073   0.664   2.112 -0.1621  0.1889 -0.4087
  990SOL    HW1 2969   1.082   0.737   2.040  0.1514 -0.1331  1.1560
  990SOL    HW2 2970   0.997   0.687   2.176 -0.3791 -0.3144 -1.7190
  991SOL     OW 2971   1.272   1.049   0.678  0.2554  0.3100  0.2778
  991SOL    HW1 2972   1.194   1.026   0.616  1.4285 -2.6342 -0.5457
  991SOL    HW2 2973   1.358   1.037   0.622 -0.6598  0.8052 -0.0623
  992SOL     OW 2974   2.301   1.487   0.846 -0.0058  0.1022 -0.2752
  992SOL    HW1 2975   2.299   1.406   0.909 -0.5718 -1.3158 -0.8724
  992SOL    HW2 2976   2.298   1.450   0.752  0.3888  1.6504  0.6862
  993SOL     OW 2977   0.115   0.729   0.822 -0.0831  0.0644 -0.5023
  993SOL    HW1 2978   0.169   0.815   0.834 -0.0741  0.0085  1.8483
  993SOL    HW2 2979   0.158   0.675   0.750 -1.2918  0.9758  2.3149
  994SOL     OW 2980   0.400   2.193   2.590  0.5121  0.6941  0.6309
  994SOL    HW1 2981   0.414   2.170   2.487  1.5235  1.8103 -1.4738
  994SOL    HW2 2982   0.313   2.237   2.611 -1.0192 -1.6909 -0.4756
  995SOL     OW 2983   1.960   1.100   2.686 -0.1329 -0.7166  0.1559
  995SOL    HW1 2984   2.038   1.087   2.620  1.1139 -0.9311 -2.6563
  995SOL    HW2 2985   1.889   1.168   2.648 -0.1136  4.5371 -1.5282
  996SOL     OW 2986   2.899   1.121   0.676 -0.0847  0.5463 -0.2348
  996SOL    HW1 2987   2.863   1.170   0.593 -0.1952  0.3841 -0.6782
  996SOL    HW2 2988   2.825   1.062   0.717  1.7420 -0.3199  2.4530
  997SOL     OW 2989   1.638   0.961   1.997 -0.1892  0.0517  0.9125
  997SOL    HW1 2990   1.554   1.021   1.989 -3.9558 -2.7760 -1.1624
  997SOL    HW2 2991   1.639   0.895   1.915  0.0004  1.0792 -0.0073
  998SOL     OW 2992   2.747   1.889   0.218  0.1664  0.5403 -0.2621
  998SOL    HW1 2993   2.847   1.904   0.242  3.5245 -1.9074  1.4388
  998SOL    HW2 2994   2.742   1.816   0.149 -0.3239  2.5702 -0.9404
  999SOL     OW 2995   0.005   2.102   0.336  0.1419  0.3028  0.4830
  999SOL    HW1 2996   3.016   2.102   0.381  0.0766  0.1450  0.8767
  999SOL    HW2 2997   0.047   2.190   0.323 -2.9557 -0.8190 -0.1049
 1000SOL     OW 2998   0.837   1.010   2.286 -0.2716 -0.5276 -0.4900
 1000SOL    HW1 2999   0.852   0.934   2.357  1.6366 -0.6417  0.5591
 1000SOL    HW2 3000   0.840   0.981   2.191  2.9291 -0.2427  0.1147
   3.10026   3.10026   3.10026
