1000 SPC/Fw water molecules t= 495.00000 step= 495000
 3000
    1SOL     OW    1   2.774   2.846   0.963  0.3713 -0.8344  0.6055
    1SOL    HW1    2   2.798   2.947   0.977  0.6167  1.7835  0.7236
    1SOL    HW2    3   2.846   2.800   0.909  0.1199  0.6161 -0.6939
    2SOL     OW    4   2.947   2.466   2.820  0.5318  0.8704 -0.3465
    2SOL    HW1    5   2.976   2.504   2.909  1.0048  2.1337  1.1389
    2SOL    HW2    6   2.952   2.364   2.822 -3.1322  0.6281  1.0799
    3SOL     OW    7   1.117   1.805   0.213 -0.0957  0.2231  0.3983
    3SOL    HW1    8   1.090   1.772   0.306  0.9675  0.7156  0.1498
    3SOL    HW2    9   1.187   1.881   0.221  2.6274  2.1471  1.7871
    4SOL     OW   10   1.460   2.680   2.652 -0.1515  0.0583  0.1923
    4SOL    HW1   11   1.534   2.707   2.715 -0.1112 -1.0774 -1.2409
    4SOL    HW2   12   1.454   2.750   2.579 -2.1124 -1.0493  1.1235
    5SOL     OW   13   1.940   0.124   2.934  0.0868 -0.1968  0.0699
    5SOL    HW1   14   1.978   0.033   2.937 -0.6463  4.1109 -0.4752
    5SOL    HW2   15   1.955   0.170   3.023 -0.4802  2.6397 -0.7898
    6SOL     OW   16   0.021   1.458   0.869 -0.0642  0.4606  0.6143
    6SOL    HW1   17   0.020   1.387   0.942 -0.2176 -0.5647 -0.4426
    6SOL    HW2   18   0.114   1.448   0.824 -1.3597  0.9124  1.4253
    7SOL     OW   19   1.036   1.678   0.469  0.4585  0.2350  0.3128
    7SOL    HW1   20   1.046   1.582   0.428 -1.0365 -2.5527 -0.7168
    7SOL    HW2   21   1.067   1.686   0.563 -0.9787 -1.1977  0.8705
    8SOL     OW   22   0.351   0.590   0.275  0.4395  0.3818 -0.2243
    8SOL    HW1   23   0.333   0.492   0.294  0.0745  0.4775 -2.6713
    8SOL    HW2   24   0.264   0.638   0.298 -0.8741  0.8417 -2.0367
    9SOL     OW   25   0.063   2.593   1.625 -0.0093 -0.0809 -0.3740
    9SOL    HW1   26   0.101   2.617   1.716 -0.5556  1.4456  2.2642
    9SOL    HW2   27   0.132   2.579   1.552 -2.4436 -0.4568 -1.2344
   10SOL     OW   28   1.431   1.727   0.336  0.0933  0.5163 -0.0414
   10SOL    HW1   29   1.448   1.751   0.237 -2.5065 -1.1438  2.1026
   10SOL    HW2   30   1.425   1.806   0.402 -0.4259 -1.1311 -1.2797
   11SOL     OW   31   1.864   0.195   1.683 -0.1190  0.1979  0.2692
   11SOL    HW1   32   1.896   0.282   1.725 -1.1597  1.0160 -1.5433
   11SOL    HW2   33   1.770   0.195   1.655  4.2502  0.5208 -0.2833
   12SOL     OW   34   0.059   0.719   2.215  0.8451  0.2604  0.2678
   12SOL    HW1   35   0.045   0.678   2.307 -0.5482  0.0143 -0.4587
   12SOL    HW2   36   3.043   0.698   2.152  1.4229  1.2557  0.7207
   13SOL     OW   37   2.098   0.393   0.399 -0.2257 -0.4171 -0.5668
   13SOL    HW1   38   2.003   0.431   0.407  0.9846  1.8172 -2.1031
   13SOL    HW2   39   2.136   0.407   0.303  1.6696 -0.1731 -1.0381
   14SOL     OW   40   2.268   2.415   3.039  0.1071  0.5025 -0.0867
   14SOL    HW1   41   2.179   2.390   0.022 -1.5837  1.1996  3.0825
   14SOL    HW2   42   2.261   2.499   2.981  0.1052 -3.0250 -0.3906
   15SOL     OW   43   2.626   2.905   3.027 -0.2861  0.5108  0.2394
   15SOL    HW1   44   2.662   2.854   0.049 -0.2683 -1.8152  1.1252
   15SOL    HW2   45   2.566   2.980   3.061 -0.2222  1.6626  0.4965
   16SOL     OW   46   0.137   0.746   1.157  0.2628  0.7782 -0.4601
   16SOL    HW1   47   0.195   0.784   1.080 -3.2084  0.6880 -1.8115
   16SOL    HW2   48   0.174   0.755   1.250 -1.3713 -0.0183 -0.1303
   17SOL     OW   49   0.675   0.326   1.126  0.2310  0.4687 -0.0236
   17SOL    HW1   50   0.671   0.412   1.075  1.3054  0.5057 -0.6111
   17SOL    HW2   51   0.753   0.266   1.090  1.8798 -0.3860 -0.7590
   18SOL     OW   52   2.834   0.226   0.652  0.0487  0.6167  0.7248
   18SOL    HW1   53   2.843   0.129   0.669  0.6342  0.7850  0.6584
   18SOL    HW2   54   2.921   0.275   0.629  0.0853  0.9771 -1.6160
   19SOL     OW   55   1.998   1.923   0.939 -0.5746 -0.0377 -0.1037
   19SOL    HW1   56   2.096   1.907   0.973  0.6548 -1.3956 -0.5490
   19SOL    HW2   57   1.980   1.853   0.867 -1.6913  0.2020  0.0830
   20SOL     OW   58   2.014   1.662   2.255 -0.0095  0.0425 -0.3200
   20SOL    HW1   59   2.087   1.688   2.330  1.1016 -3.3118  0.1203
   20SOL    HW2   60   1.941   1.731   2.240 -0.2433 -1.6119  2.1601
   21SOL     OW   61   1.118   0.195   0.303 -0.3702 -0.0044 -0.5245
   21SOL    HW1   62   1.067   0.243   0.230 -0.4005 -1.3216  0.7045
   21SOL    HW2   63   1.220   0.222   0.304 -2.8831 -3.3381 -1.7099
   22SOL     OW   64   2.187   0.997   2.948 -0.2865 -0.1799 -0.0652
   22SOL    HW1   65   2.288   0.980   2.959 -0.4080  1.0640 -0.9849
   22SOL    HW2   66   2.160   1.002   2.848 -2.1583 -1.9658 -1.6084
   23SOL     OW   67   0.119   0.241   2.138  0.2511 -0.4104  0.3053
   23SOL    HW1   68   0.163   0.154   2.165 -4.1868  1.7444  1.1359
   23SOL    HW2   69   0.137   0.305   2.215 -1.5065 -0.7670  1.1516
   24SOL     OW   70   2.114   2.364   1.004 -0.4648  0.3709  0.9286
   24SOL    HW1   71   2.079   2.459   1.011  0.1420  1.2595 -0.2148
   24SOL    HW2   72   2.058   2.306   1.060  2.6399 -0.7644 -0.1480
   25SOL     OW   73   1.648   0.373   3.060  0.1812  0.1642 -0.4014
   25SOL    HW1   74   1.660   0.293   0.065 -0.3285  0.6744 -0.4528
   25SOL    HW2   75   1.716   0.447   0.015 -0.3373 -0.1861 -0.3949
   26SOL     OW   76   1.363   2.784   3.053  0.0787 -0.1645  0.7416
   26SOL    HW1   77   1.324   2.817   2.961  2.1721 -1.2697 -1.8262
   26SOL    HW2   78   1.362   2.683   3.055  1.5649 -0.8699 -0.6483
   27SOL     OW   79   0.865   0.572   1.280  0.8145  0.2256 -0.6196
   27SOL    HW1   80   0.770   0.539   1.309  0.6075 -1.2183  2.1137
   27SOL    HW2   81   0.853   0.663   1.232 -1.0998 -1.3663 -2.1212
   28SOL     OW   82   0.785   1.863   1.367 -0.0757 -0.5477 -0.9129
   28SOL    HW1   83   0.782   1.831   1.272 -1.5969 -4.1010  0.9980
   28SOL    HW2   84   0.819   1.794   1.434  1.1071  2.9729  1.2695
   29SOL     OW   85   2.301   0.555   0.695  0.4667  0.0152 -0.0294
   29SOL    HW1   86   2.345   0.596   0.613  2.2654 -0.8041 -1.1351
   29SOL    HW2   87   2.367   0.558   0.773  2.1933 -1.6644  0.4063
   30SOL     OW   88   1.346   0.080   1.669  0.5257 -0.3132  0.9527
   30SOL    HW1   89   1.257   0.122   1.651 -0.0833  0.3145 -1.2432
   30SOL    HW2   90   1.384   0.028   1.589 -0.1378 -0.6266 -0.8412
   31SOL     OW   91   1.138   0.207   1.189  0.2289  0.3024  0.1815
   31SOL    HW1   92   1.151   0.297   1.234  1.0438  2.7816 -1.0162
   31SOL    HW2   93   1.067   0.156   1.242 -0.3539  0.5437 -0.7805
   32SOL     OW   94   2.221   0.947   2.184  0.2427  0.1280 -0.2670
   32SOL    HW1   95   2.287   1.020   2.198 -0.2866 -1.0936  0.1593
   32SOL    HW2   96   2.260   0.875   2.124 -0.4557 -1.2667 -1.0687
   33SOL     OW   97   2.495   2.694   2.717 -0.0135  0.4982  0.1316
   33SOL    HW1   98   2.539   2.640   2.788 -1.9096 -0.5699 -0.3998
   33SOL    HW2   99   2.450   2.633   2.644 -2.2025 -0.6241 -1.0162
   34SOL     OW  100   1.966   0.934   0.023  0.0158  0.3678 -0.2191
   34SOL    HW1  101   2.065   0.930   0.037  0.3485 -0.6100 -0.7471
   34SOL    HW2  102   1.939   0.943   2.987  1.5337  1.8211  0.1216
   35SOL     OW  103   2.900   0.883   1.243  0.5557  0.4184  0.4542
   35SOL    HW1  104   2.899   0.800   1.184  0.3069  2.5601  1.2701
   35SOL    HW2  105   2.862   0.966   1.198 -1.3186 -1.5451 -2.8228
   36SOL     OW  106   2.314   2.426   2.677  0.0508  0.2452 -0.4509
   36SOL    HW1  107   2.244   2.485   2.633 -2.4502  0.5327 -0.0235
   36SOL    HW2  108   2.410   2.427   2.636  1.9613 -1.1404  0.1251
   37SOL     OW  109   1.736   0.072   2.146 -0.6779  0.2050  0.3245
   37SOL    HW1  110   1.750   0.044   2.047  0.0428 -1.8759 -1.8069
   37SOL    HW2  111   1.823   0.105   2.183 -1.1046 -0.0203 -0.4866
   38SOL     OW  112   1.280   1.597   2.368 -0.4866  0.2021  0.2426
   38SOL    HW1  113   1.368   1.545   2.351  3.8725 -3.0943  0.0822
   38SOL    HW2  114   1.278   1.625   2.468  1.1492 -0.7978 -0.0257
   39SOL     OW  115   1.606   0.206   1.628  0.4932 -0.4811 -0.1741
   39SOL    HW1  116   1.579   0.267   1.547 -0.4089  0.6200 -0.8971
   39SOL    HW2  117   1.533   0.135   1.647 -1.6774 -0.5499 -1.1428
   40SOL     OW  118   0.774   2.021   0.317  0.1892  0.0820  0.1584
   40SOL    HW1  119   0.719   1.972   0.251  1.4209  5.5056  1.1174
   40SOL    HW2  120   0.726   2.103   0.366  0.1302  2.4686  0.9560
   41SOL     OW  121   2.302   2.310   1.282  0.2592 -0.2169 -0.2313
   41SOL    HW1  122   2.294   2.412   1.269 -0.7434  1.7703  1.3455
   41SOL    HW2  123   2.398   2.290   1.312 -2.1427  1.1000  1.7787
   42SOL     OW  124   2.627   2.573   0.456 -0.2448 -0.0506  0.1997
   42SOL    HW1  125   2.536   2.621   0.437  0.5607  0.6642 -0.7466
   42SOL    HW2  126   2.679   2.562   0.369  1.2204  0.0698 -2.4588
   43SOL     OW  127   0.971   1.870   1.990  0.3675  0.7403 -0.4954
   43SOL    HW1  128   1.059   1.884   2.034 -1.2890 -0.1430 -1.5617
   43SOL    HW2  129   0.984   1.808   1.909 -0.4325  1.3249  0.0513
   44SOL     OW  130   1.714   2.949   1.184 -0.3095  0.0125 -0.0682
   44SOL    HW1  131   1.742   3.041   1.214  1.8106  1.8825  2.1868
   44SOL    HW2  132   1.615   2.940   1.198  1.3857  2.5932  2.5063
   45SOL     OW  133   0.126   2.423   2.402 -0.4533 -0.2920 -0.5080
   45SOL    HW1  134   0.120   2.341   2.458  1.9178  1.4799 -0.8827
   45SOL    HW2  135   0.126   2.507   2.466 -0.4533  2.7758  4.8808
   46SOL     OW  136   0.881   2.576   1.859 -0.1083  0.0125  0.1433
   46SOL    HW1  137   0.811   2.607   1.927 -1.6551  0.2449  0.3419
   46SOL    HW2  138   0.890   2.474   1.869 -0.8673 -0.2653 -2.5576
   47SOL     OW  139   0.440   1.934   0.674 -0.8030  0.5984 -0.0937
   47SOL    HW1  140   0.474   1.951   0.578  1.7516 -0.1576  0.5291
   47SOL    HW2  141   0.384   1.849   0.680  3.6015 -0.2978  0.6373
   48SOL     OW  142   0.827   2.919   1.673 -0.4551  0.1747  0.3540
   48SOL    HW1  143   0.748   2.854   1.686 -0.3999 -2.0908  2.7563
   48SOL    HW2  144   0.813   3.018   1.690 -0.2734 -0.5788  1.2190
   49SOL     OW  145   0.568   2.765   2.994  0.1509  0.0594 -0.9557
   49SOL    HW1  146   0.500   2.840   2.973 -2.3276 -1.2614 -1.5359
   49SOL    HW2  147   0.612   2.741   2.906  0.1627  0.8828 -0.6475
   50SOL     OW  148   1.523   1.077   0.759 -0.2734 -0.4174  0.4917
   50SOL    HW1  149   1.441   1.015   0.771 -0.1408  0.0423  1.9472
   50SOL    HW2  150   1.607   1.025   0.789 -0.1871 -2.2190  1.8391
   51SOL     OW  151   1.859   2.979   0.950 -0.2765 -0.3524 -0.4534
   51SOL    HW1  152   1.786   2.955   0.885 -1.5139  0.3340  2.6898
   51SOL    HW2  153   1.813   2.979   1.039  0.1310 -0.5305 -3.5001
   52SOL     OW  154   0.649   1.535   1.132  0.8370  0.2106 -0.2216
   52SOL    HW1  155   0.569   1.503   1.083  1.9585  1.2963 -0.7853
   52SOL    HW2  156   0.664   1.485   1.218 -0.7383 -0.4577  0.3745
   53SOL     OW  157   0.034   0.586   2.789 -0.3428  0.6274  0.0330
   53SOL    HW1  158   0.057   0.680   2.761 -1.9109 -1.9049  1.3320
   53SOL    HW2  159   2.998   0.583   2.809  0.8131  0.8130  0.3488
   54SOL     OW  160   2.120   2.004   2.799  0.4600  0.0533 -0.3925
   54SOL    HW1  161   2.073   2.018   2.889 -0.6503  0.0086  1.4549
   54SOL    HW2  162   2.218   2.030   2.805 -0.0010  0.7207  0.8176
   55SOL     OW  163   2.567   2.202   1.345 -0.1751 -0.3078  0.7332
   55SOL    HW1  164   2.624   2.288   1.327  1.4028  0.1131  1.0737
   55SOL    HW2  165   2.559   2.183   1.449 -2.3392 -3.8114 -0.8762
   56SOL     OW  166   1.774   1.072   1.507  0.1785 -0.5322 -0.4245
   56SOL    HW1  167   1.872   1.093   1.500  2.5647  1.8330 -1.7301
   56SOL    HW2  168   1.714   1.152   1.475 -1.6603 -1.3402  0.4081
   57SOL     OW  169   2.361   1.893   0.818  0.2820  0.7684  0.2135
   57SOL    HW1  170   2.324   1.908   0.912  3.4708 -3.1873  1.4839
   57SOL    HW2  171   2.445   1.944   0.795 -2.8254  0.0789 -0.8218
   58SOL     OW  172   2.004   0.133   2.215  0.6817 -0.3993  0.0388
   58SOL    HW1  173   2.068   0.183   2.280  1.5762  0.2132  2.0605
   58SOL    HW2  174   2.027   0.170   2.120  1.3546  0.0321  2.0927
   59SOL     OW  175   1.471   0.368   2.420  0.1446  0.4411  0.4551
   59SOL    HW1  176   1.525   0.279   2.417  2.2188 -1.6866  0.5280
   59SOL    HW2  177   1.496   0.431   2.341 -0.9191 -1.4050 -0.6656
   60SOL     OW  178   1.699   1.914   0.087  0.5970  0.0383  0.2601
   60SOL    HW1  179   1.605   1.875   0.071  0.7886  0.0575  0.5344
   60SOL    HW2  180   1.722   1.973   0.006 -0.5484 -0.0728 -0.9129
   61SOL     OW  181   0.527   1.939   3.005 -0.0078  0.5294  0.2548
   61SOL    HW1  182   0.522   1.864   2.932 -1.3260 -1.2182 -1.4280
   61SOL    HW2  183   0.431   1.978   3.023 -1.3902  1.6086  1.4422
   62SOL     OW  184   1.448   2.404   1.251  0.0592  0.3939 -0.4151
   62SOL    HW1  185   1.489   2.331   1.192  1.0228 -1.7490  2.0763
   62SOL    HW2  186   1.376   2.365   1.308  1.0599  1.8667 -1.2080
   63SOL     OW  187   0.468   1.643   0.511  0.0507 -0.1974 -0.1180
   63SOL    HW1  188   0.527   1.673   0.593  1.7887  1.0606  4.1363
   63SOL    HW2  189   0.495   1.695   0.425  0.4754  1.4204 -1.7513
   64SOL     OW  190   1.874   1.733   2.559  0.2830  0.0118 -0.0617
   64SOL    HW1  191   1.958   1.735   2.616 -1.8672  2.2141 -1.3217
   64SOL    HW2  192   1.871   1.824   2.510 -0.6146  1.5844  0.4441
   65SOL     OW  193   2.013   1.995   1.513  0.2750  0.4351 -0.1080
   65SOL    HW1  194   1.920   2.033   1.493 -2.2070  0.4765 -2.5548
   65SOL    HW2  195   2.018   1.895   1.489  1.2896  0.0854  2.3764
   66SOL     OW  196   2.601   0.135   0.568  0.1146  0.0760  0.2374
   66SOL    HW1  197   2.692   0.173   0.584  2.1152  0.1809  0.5887
   66SOL    HW2  198   2.535   0.151   0.645  1.2593 -1.5025 -0.5475
   67SOL     OW  199   2.061   2.644   1.042 -0.2683 -0.5035 -0.3844
   67SOL    HW1  200   1.987   2.685   1.103 -2.5390  1.7958  1.2158
   67SOL    HW2  201   2.124   2.721   1.016  1.2192 -2.0063 -0.9134
   68SOL     OW  202   2.717   2.635   1.429  0.1074  0.1149  0.9418
   68SOL    HW1  203   2.631   2.673   1.479  3.6509  1.4424 -0.8048
   68SOL    HW2  204   2.733   2.687   1.343  1.5843  0.1392 -1.9616
   69SOL     OW  205   2.654   2.535   2.889  0.3610 -0.1147 -0.5798
   69SOL    HW1  206   2.741   2.491   2.861 -1.1799 -0.1548  0.7536
   69SOL    HW2  207   2.674   2.591   2.968  0.2124 -2.6110 -1.3194
   70SOL     OW  208   1.329   1.942   2.143 -0.4798  0.6126 -0.2636
   70SOL    HW1  209   1.258   2.010   2.166 -0.4565  2.1121 -1.0509
   70SOL    HW2  210   1.396   1.929   2.218 -0.7394 -0.5270  1.5924
   71SOL     OW  211   1.176   2.188   1.804  0.3237  0.2263  0.5581
   71SOL    HW1  212   1.098   2.248   1.815  4.2099  0.8398 -1.1558
   71SOL    HW2  213   1.229   2.202   1.888 -0.5827 -0.2780 -0.7221
   72SOL     OW  214   2.595   1.098   1.522 -0.1229 -0.0539  0.4141
   72SOL    HW1  215   2.687   1.140   1.532 -2.3188  2.1272  2.1126
   72SOL    HW2  216   2.598   1.000   1.548  2.6633  0.0363  0.7067
   73SOL     OW  217   0.605   2.007   2.330 -0.5383  0.2475 -0.0978
   73SOL    HW1  218   0.636   1.926   2.278  0.0911 -1.3820  0.5070
   73SOL    HW2  219   0.628   2.091   2.282  1.8676 -0.9317 -1.8373
   74SOL     OW  220   0.761   0.168   2.497  0.2765 -0.2143 -0.4278
   74SOL    HW1  221   0.807   0.079   2.525 -1.0852 -0.6641  1.2509
   74SOL    HW2  222   0.815   0.215   2.426  0.1435  0.9247 -1.0130
   75SOL     OW  223   1.037   2.665   0.661 -0.1027 -0.2101  0.1989
   75SOL    HW1  224   1.130   2.665   0.706  0.6104 -0.6965  0.3238
   75SOL    HW2  225   1.037   2.719   0.576  0.0609  1.1936  1.2480
   76SOL     OW  226   0.432   1.245   2.424 -0.2012  0.2456  0.2574
   76SOL    HW1  227   0.516   1.237   2.482  3.0956 -1.6764  0.1051
   76SOL    HW2  228   0.366   1.304   2.469  1.1405  0.2685  0.7651
   77SOL     OW  229   0.664   2.509   0.789 -0.3806  0.5645 -0.0337
   77SOL    HW1  230   0.603   2.454   0.843 -1.3381  2.1937 -0.8901
   77SOL    HW2  231   0.695   2.590   0.845  2.4187 -2.9478 -1.4879
   78SOL     OW  232   2.568   0.953   2.613  0.3747 -0.0917 -0.2086
   78SOL    HW1  233   2.523   0.869   2.574  0.3599 -3.1745  2.9291
   78SOL    HW2  234   2.502   1.025   2.646  2.7583  0.9847 -1.3049
   79SOL     OW  235   1.014   1.507   2.346 -0.5247  0.0801 -0.2981
   79SOL    HW1  236   1.099   1.548   2.322 -0.5988 -3.1369  0.1513
   79SOL    HW2  237   0.940   1.576   2.365 -1.5700 -1.5653  0.6089
   80SOL     OW  238   2.185   0.972   1.461 -0.5492 -0.0243 -0.2625
   80SOL    HW1  239   2.233   0.932   1.382  1.4241 -1.3644  1.8268
   80SOL    HW2  240   2.261   0.980   1.531  4.2932  1.6675  1.4325
   81SOL     OW  241   2.152   1.079   2.643 -0.0208  0.5088 -0.2691
   81SOL    HW1  242   2.062   1.101   2.682 -0.2440  0.3866  0.2951
   81SOL    HW2  243   2.153   0.996   2.582  0.0429 -2.9660 -0.9756
   82SOL     OW  244   2.307   1.877   1.549  0.2040 -0.2588  0.4727
   82SOL    HW1  245   2.281   1.919   1.458 -2.8673 -1.0613 -2.4627
   82SOL    HW2  246   2.274   1.781   1.553 -2.3955 -2.2246 -0.8657
   83SOL     OW  247   1.683   2.965   0.481  0.5551  0.6712  0.5522
   83SOL    HW1  248   1.652   2.972   0.581  0.0070  0.2731  3.9540
   83SOL    HW2  249   1.643   2.880   0.436 -0.7826 -1.7334 -1.7188
   84SOL     OW  250   1.005   0.456   0.630 -0.2478 -0.4451 -0.1334
   84SOL    HW1  251   1.063   0.371   0.623  1.6236 -1.0963  1.0470
   84SOL    HW2  252   0.965   0.472   0.721 -0.2668  1.5559  1.1210
   85SOL     OW  253   2.353   1.640   1.184  0.3787 -0.1091  0.1840
   85SOL    HW1  254   2.453   1.657   1.173  0.6785  4.0402  1.0403
   85SOL    HW2  255   2.339   1.593   1.274  1.7395  0.7688  1.9744
   86SOL     OW  256   0.521   0.733   1.087 -0.1404 -0.2383 -0.6752
   86SOL    HW1  257   0.509   0.743   1.184  0.2493 -0.3262 -0.4512
   86SOL    HW2  258   0.436   0.764   1.037  1.2919  0.0519  1.1704
   87SOL     OW  259   0.230   2.055   2.476 -0.0563 -0.3741 -0.0626
   87SOL    HW1  260   0.170   1.996   2.415 -2.0665 -1.4175 -2.5024
   87SOL    HW2  261   0.307   2.096   2.420  0.3771 -0.4637 -0.2519
   88SOL     OW  262   0.417   2.974   2.883 -0.1134 -0.1285 -0.5374
   88SOL    HW1  263   0.486   3.032   2.838 -1.1873  0.7814  2.1711
   88SOL    HW2  264   0.353   2.941   2.813 -0.5636  3.0172  1.2551
   89SOL     OW  265   1.521   0.526   1.177 -0.7348  0.1696  0.0347
   89SOL    HW1  266   1.495   0.624   1.153  0.7039  2.0819 -0.6735
   89SOL    HW2  267   1.468   0.504   1.259 -0.5649 -1.6824 -0.4909
   90SOL     OW  268   3.033   1.030   1.679  0.3324  0.1477 -0.2963
   90SOL    HW1  269   3.047   0.981   1.593  1.0597 -1.0115 -0.0897
   90SOL    HW2  270   3.030   0.959   1.755  0.7774 -0.4791 -1.2915
   91SOL     OW  271   1.857   2.627   0.828  0.1669  0.1191 -0.0622
   91SOL    HW1  272   1.866   2.539   0.782 -1.6341 -0.9323 -0.7181
   91SOL    HW2  273   1.920   2.638   0.909  3.3314  0.3011  2.0767
   92SOL     OW  274   1.825   2.226   0.615  0.3380 -0.2675 -0.2223
   92SOL    HW1  275   1.900   2.288   0.604 -1.6038 -1.7872  0.5716
   92SOL    HW2  276   1.744   2.277   0.642  1.0874  0.1332 -0.2065
   93SOL     OW  277   0.238   1.282   0.197  0.1292  0.1979 -0.4258
   93SOL    HW1  278   0.325   1.234   0.187 -1.6592 -2.9490  2.4246
   93SOL    HW2  279   0.243   1.369   0.253  1.0481  0.9343  1.2401
   94SOL     OW  280   0.707   2.027   1.068  0.3788  0.1735  0.0783
   94SOL    HW1  281   0.803   2.050   1.094 -3.0087  0.4708 -0.5335
   94SOL    HW2  282   0.641   2.103   1.090  2.2133  0.0450 -0.4943
   95SOL     OW  283   0.449   0.991   0.308 -0.3238  0.4061 -0.7550
   95SOL    HW1  284   0.495   1.032   0.385 -2.9558 -0.6765 -3.0218
   95SOL    HW2  285   0.505   0.912   0.279  0.1654  0.1514  0.8051
   96SOL     OW  286   1.295   2.639   2.249 -0.1253  0.0049  0.5759
   96SOL    HW1  287   1.337   2.720   2.197 -2.5054  0.7496 -1.0259
   96SOL    HW2  288   1.240   2.585   2.180  1.1331 -3.9822 -0.0524
   97SOL     OW  289   2.468   0.970   0.526 -0.8371  0.2809 -0.0502
   97SOL    HW1  290   2.412   1.044   0.566  0.3145 -1.6076 -0.4951
   97SOL    HW2  291   2.498   0.999   0.431 -1.7761 -1.3911 -0.3807
   98SOL     OW  292   0.261   1.942   1.894  0.1563 -0.1446 -0.0810
   98SOL    HW1  293   0.275   2.036   1.850 -0.9244  1.5482 -0.1811
   98SOL    HW2  294   0.340   1.919   1.945 -3.9691  0.3886 -1.4420
   99SOL     OW  295   0.123   0.704   1.864 -0.0155  0.0475  0.1462
   99SOL    HW1  296   0.176   0.638   1.927 -1.7218  0.1063  2.3745
   99SOL    HW2  297   0.180   0.771   1.815 -1.9100 -0.1771  1.3978
  100SOL     OW  298   1.913   0.752   2.418 -0.0232 -0.0647  0.2445
  100SOL    HW1  299   1.882   0.758   2.321  0.1420 -3.2895  0.8908
  100SOL    HW2  300   1.840   0.779   2.483  1.4304 -0.9131 -0.5180
  101SOL     OW  301   0.675   0.511   2.018  0.2443 -0.3956  0.1320
  101SOL    HW1  302   0.756   0.504   2.082  3.3660  1.0278 -2.3752
  101SOL    HW2  303   0.589   0.495   2.067  0.4967  3.0045 -0.3141
  102SOL     OW  304   0.147   0.377   1.493  0.2186  0.0439  0.8030
  102SOL    HW1  305   0.239   0.352   1.521 -0.0451  0.5187 -0.2631
  102SOL    HW2  306   0.108   0.303   1.437  2.3130 -0.0693 -1.7026
  103SOL     OW  307   0.422   0.647   0.001  0.1971 -0.7974 -0.1207
  103SOL    HW1  308   0.384   0.632   0.096  0.9219 -0.3208  3.0135
  103SOL    HW2  309   0.455   0.743   3.051 -2.2124  1.1680 -2.3831
  104SOL     OW  310   0.643   2.719   1.711 -0.2872 -0.1232  0.4491
  104SOL    HW1  311   0.571   2.652   1.723  2.1391  2.7832 -1.0575
  104SOL    HW2  312   0.734   2.684   1.728  1.5728  0.0003  0.1036
  105SOL     OW  313   2.521   2.804   1.931  0.4076 -0.8253 -0.0794
  105SOL    HW1  314   2.604   2.749   1.959  0.0067  0.8320  2.0936
  105SOL    HW2  315   2.543   2.868   1.852 -0.0719  1.6972 -2.2987
  106SOL     OW  316   0.539   2.918   0.847  0.1444  0.5306 -0.1001
  106SOL    HW1  317   0.595   3.006   0.870  1.6640 -1.9368  0.9735
  106SOL    HW2  318   0.589   2.850   0.788 -0.9617 -1.1953  0.1973
  107SOL     OW  319   0.034   1.266   1.060 -0.1098 -0.2762 -0.6984
  107SOL    HW1  320   3.017   1.238   1.114  2.1104  1.2698 -0.9864
  107SOL    HW2  321   0.113   1.285   1.123 -0.4704 -1.5173  0.9386
  108SOL     OW  322   0.253   2.384   0.970  0.5032 -0.1529  0.9034
  108SOL    HW1  323   0.228   2.398   0.872 -2.2306 -0.3505 -0.1450
  108SOL    HW2  324   0.262   2.286   0.992  1.3899 -2.5019  1.4528
  109SOL     OW  325   1.150   2.768   0.229  0.2603  0.5144  0.1412
  109SOL    HW1  326   1.166   2.848   0.284 -1.1265 -0.3846  0.7584
  109SOL    HW2  327   1.222   2.696   0.240  0.6228 -1.4779  1.0283
  110SOL     OW  328   1.421   1.949   0.500  0.1221 -0.2841  0.5519
  110SOL    HW1  329   1.465   2.043   0.509 -0.1263  2.1312  0.1127
  110SOL    HW2  330   1.330   1.951   0.544  0.5126  1.3340 -0.0152
  111SOL     OW  331   1.863   2.810   2.040  0.1775  0.1044 -0.0659
  111SOL    HW1  332   1.873   2.798   1.936  2.2651 -1.2381  0.5493
  111SOL    HW2  333   1.931   2.872   2.080 -0.8699  1.7689 -1.7662
  112SOL     OW  334   2.165   2.667   2.631 -0.1862 -0.1452 -0.0457
  112SOL    HW1  335   2.120   2.622   2.550 -0.7582  1.7561 -2.0097
  112SOL    HW2  336   2.179   2.766   2.610 -0.6772 -0.2238  1.9317
  113SOL     OW  337   2.411   1.953   2.192 -0.8064  0.2730 -0.4022
  113SOL    HW1  338   2.445   2.041   2.237 -0.1769 -2.5981  0.1724
  113SOL    HW2  339   2.346   1.981   2.123 -0.6925  0.6973  1.8405
  114SOL     OW  340   0.136   1.269   1.689  0.0178 -0.1232  0.3699
  114SOL    HW1  341   0.091   1.178   1.698 -0.6216  1.8063  0.1806
  114SOL    HW2  342   0.067   1.342   1.707 -1.9323  0.4782  0.0695
  115SOL     OW  343   3.057   0.766   0.030  0.0108 -0.4129 -0.1451
  115SOL    HW1  344   2.997   0.740   0.113 -1.4801 -3.1862  4.6609
  115SOL    HW2  345   0.089   0.793   0.060  2.7319 -1.2545  0.0383
  116SOL     OW  346   2.637   0.435   3.052  0.2149 -0.5019 -0.0053
  116SOL    HW1  347   2.613   0.427   2.953  1.0809  0.4808 -0.0178
  116SOL    HW2  348   2.733   0.404   0.013 -1.2157  0.1159 -1.4345
  117SOL     OW  349   2.987   2.652   0.522  0.0869  0.2884 -0.3620
  117SOL    HW1  350   2.998   2.635   0.425  1.1278  1.4978  2.4409
  117SOL    HW2  351   2.942   2.576   0.571  2.7471  0.9617 -0.9549
  118SOL     OW  352   1.158   2.526   2.022  0.1384 -0.8072  0.1094
  118SOL    HW1  353   1.214   2.443   2.003 -2.3333  0.2287 -0.4202
  118SOL    HW2  354   1.111   2.563   1.940 -0.6063  2.5110  0.5534
  119SOL     OW  355   0.679   2.396   2.932  0.2354  0.2292 -0.0098
  119SOL    HW1  356   0.678   2.305   2.972 -0.5939  1.1384 -1.2196
  119SOL    HW2  357   0.589   2.441   2.940 -0.8978 -2.2147  2.8116
  120SOL     OW  358   1.326   0.961   0.079  0.6244  0.1164  0.7170
  120SOL    HW1  359   1.364   0.874   0.106 -2.0124  1.4623  1.4039
  120SOL    HW2  360   1.229   0.968   0.113  2.0256  0.1646  1.3697
  121SOL     OW  361   1.445   1.119   1.175 -0.1496  0.1864 -0.0163
  121SOL    HW1  362   1.429   1.196   1.239 -3.7228  2.0812 -2.6887
  121SOL    HW2  363   1.542   1.127   1.142 -2.2949  3.3831 -0.2376
  122SOL     OW  364   1.922   1.295   2.111 -0.4792  0.5434  0.7161
  122SOL    HW1  365   1.871   1.282   2.023 -0.7392  1.0711  1.0818
  122SOL    HW2  366   1.917   1.206   2.165 -1.0808 -0.5113  0.9703
  123SOL     OW  367   2.956   0.724   0.496  0.1570  0.5896  0.1525
  123SOL    HW1  368   2.930   0.806   0.555  1.4867  2.8195  0.9225
  123SOL    HW2  369   3.017   0.653   0.544 -2.1451 -2.4682 -1.0984
  124SOL     OW  370   0.781   0.538   2.802 -0.1116  0.2217  0.6021
  124SOL    HW1  371   0.726   0.462   2.845  0.6506  0.6755 -1.1470
  124SOL    HW2  372   0.727   0.582   2.732  0.2722 -1.1954  0.1668
  125SOL     OW  373   0.594   2.910   2.522  0.1225 -0.1727 -0.5350
  125SOL    HW1  374   0.564   2.985   2.583 -0.6354  0.1160  0.4926
  125SOL    HW2  375   0.643   2.832   2.571  1.8692 -0.5013 -3.5487
  126SOL     OW  376   0.844   1.407   2.657 -0.7833  0.1831 -0.2057
  126SOL    HW1  377   0.945   1.394   2.677  4.3930 -1.0758  0.5448
  126SOL    HW2  378   0.831   1.479   2.588  0.1296 -3.2401  1.5590
  127SOL     OW  379   1.148   2.879   1.229  0.4312 -0.3448 -0.3139
  127SOL    HW1  380   1.061   2.884   1.281 -0.9701 -0.7342  0.1055
  127SOL    HW2  381   1.132   2.890   1.129  1.2324 -0.5178  2.3991
  128SOL     OW  382   1.568   2.312   0.200  0.6864  0.0470 -0.4403
  128SOL    HW1  383   1.518   2.303   0.111  0.9761 -0.9212  1.6989
  128SOL    HW2  384   1.600   2.407   0.208 -1.8076 -0.9565  1.9675
  129SOL     OW  385   1.825   1.713   1.183  0.7676 -0.4903  0.3691
  129SOL    HW1  386   1.894   1.714   1.110 -1.2484  0.8911  0.8458
  129SOL    HW2  387   1.764   1.801   1.171 -0.8093  5.2983  1.1541
  130SOL     OW  388   2.030   1.728   1.426 -0.5039 -0.3598 -0.2309
  130SOL    HW1  389   2.071   1.637   1.431 -0.6415  0.0474  0.2665
  130SOL    HW2  390   1.983   1.743   1.341  1.3550 -4.0161  0.3634
  131SOL     OW  391   1.171   2.986   2.107 -0.8131 -0.3414 -0.3013
  131SOL    HW1  392   1.263   2.944   2.129 -1.5952 -2.5459  1.2100
  131SOL    HW2  393   1.093   2.938   2.149  2.3404  2.1952 -0.2601
  132SOL     OW  394   2.613   1.559   0.777 -0.6075 -0.3084 -0.4038
  132SOL    HW1  395   2.607   1.586   0.678  2.1163 -0.1537 -1.9348
  132SOL    HW2  396   2.530   1.585   0.828  2.8974  0.2242  0.8897
  133SOL     OW  397   0.541   1.507   1.660 -0.1247  0.2605 -0.7678
  133SOL    HW1  398   0.590   1.473   1.746  0.4743 -0.9607  0.6361
  133SOL    HW2  399   0.533   1.611   1.670  0.0539  3.9053  0.3236
  134SOL     OW  400   2.863   0.967   0.606 -0.8696 -0.7196 -0.8381
  134SOL    HW1  401   2.827   1.056   0.563  0.6522  2.9713 -1.8140
  134SOL    HW2  402   2.874   0.976   0.709  2.1704 -3.0115  2.4244
  135SOL     OW  403   1.994   1.999   3.029 -0.2984  0.3583  0.7647
  135SOL    HW1  404   2.015   1.924   0.036 -0.7344 -1.1547  4.2011
  135SOL    HW2  405   1.920   2.062   0.001 -0.2202 -0.6481  0.9907
  136SOL     OW  406   2.846   1.386   1.427  0.0489 -0.4774 -0.0224
  136SOL    HW1  407   2.893   1.345   1.512  1.3578 -1.5450 -0.3010
  136SOL    HW2  408   2.757   1.433   1.447  0.1044 -0.2803 -0.0563
  137SOL     OW  409   2.395   1.139   2.746  0.0825 -0.0871 -0.3153
  137SOL    HW1  410   2.292   1.145   2.725 -0.9879 -0.7334 -1.8500
  137SOL    HW2  411   2.406   1.161   2.846  1.0411 -0.4319  1.0434
  138SOL     OW  412   0.188   0.467   0.941  0.4763  0.0108  0.0283
  138SOL    HW1  413   0.116   0.514   0.887 -0.5563  2.3605  0.4768
  138SOL    HW2  414   0.166   0.472   1.039 -0.2120 -0.8155 -0.0763
  139SOL     OW  415   1.808   2.188   0.040  0.3223  0.3523 -0.3649
  139SOL    HW1  416   1.734   2.217   0.102 -2.0758 -0.4747 -2.6957
  139SOL    HW2  417   1.768   2.182   3.009  2.8231  1.7576 -0.2369
  140SOL     OW  418   0.822   1.346   1.014 -0.7766 -0.1167  0.5852
  140SOL    HW1  419   0.820   1.275   1.088  0.4749 -1.0819 -1.5214
  140SOL    HW2  420   0.793   1.435   1.041 -0.2055 -1.2617  1.6104
  141SOL     OW  421   1.385   1.610   0.774  0.0221 -0.0893 -0.3225
  141SOL    HW1  422   1.351   1.521   0.748 -1.2649  4.1750  3.0491
  141SOL    HW2  423   1.483   1.612   0.747  0.5534  0.2673 -0.1232
  142SOL     OW  424   0.859   0.838   1.141  0.1312 -0.0952  0.0359
  142SOL    HW1  425   0.809   0.838   1.052 -1.1887  1.1645 -0.3114
  142SOL    HW2  426   0.903   0.928   1.158  0.4795 -3.0331 -0.0432
  143SOL     OW  427   0.357   0.298   2.584  0.0974 -0.1242 -0.6467
  143SOL    HW1  428   0.455   0.311   2.605  1.2082  0.1695 -2.3085
  143SOL    HW2  429   0.297   0.317   2.663 -2.7294 -1.4120 -2.2162
  144SOL     OW  430   2.190   0.124   0.417  0.5615 -0.6546 -0.3910
  144SOL    HW1  431   2.283   0.119   0.380 -1.2401  1.0894  1.4757
  144SOL    HW2  432   2.163   0.222   0.409 -0.9246  0.4007 -0.1186
  145SOL     OW  433   2.045   2.930   2.875 -0.5208  0.0704 -0.0036
  145SOL    HW1  434   1.994   2.939   2.786 -2.2185 -0.4225  2.1565
  145SOL    HW2  435   2.141   2.897   2.861 -0.1300 -1.0606 -2.3208
  146SOL     OW  436   0.079   2.965   0.324  0.6630 -0.0049  0.4168
  146SOL    HW1  437   0.179   2.957   0.337 -0.2880  1.1346 -0.2247
  146SOL    HW2  438   0.031   2.897   0.259  0.3531  1.4369  0.4151
  147SOL     OW  439   2.019   1.229   0.418  1.0533  0.2247 -0.6503
  147SOL    HW1  440   1.998   1.128   0.411  1.9009 -1.4423  1.8453
  147SOL    HW2  441   1.945   1.286   0.382  0.5663 -2.7783  2.5329
  148SOL     OW  442   0.953   2.785   0.444  0.3535 -0.3167 -0.7710
  148SOL    HW1  443   0.985   2.858   0.385 -2.4780 -2.4623 -2.1263
  148SOL    HW2  444   0.932   2.704   0.394  0.9825  3.7766  0.9932
  149SOL     OW  445   1.386   0.713   2.433 -0.0959  0.4064  0.2643
  149SOL    HW1  446   1.302   0.660   2.463 -2.2211 -2.5939 -0.1004
  149SOL    HW2  447   1.440   0.738   2.521  5.0540  0.5917  1.9784
  150SOL     OW  448   1.189   0.030   2.713  0.0173  0.4181 -0.1823
  150SOL    HW1  449   1.184   2.999   2.753  0.7806  0.0355 -2.1269
  150SOL    HW2  450   1.276   0.079   2.739 -0.0517  0.4315 -2.7378
  151SOL     OW  451   0.160   1.027   2.909  0.3041 -0.0331  0.1698
  151SOL    HW1  452   0.231   1.095   2.879  0.7039 -0.8479  2.9458
  151SOL    HW2  453   0.175   1.002   3.008 -2.7351  1.1020  1.1224
  152SOL     OW  454   0.446   0.077   1.507  0.5652 -0.0427  0.5625
  152SOL    HW1  455   0.411   0.152   1.566  3.0943 -0.7320 -0.4934
  152SOL    HW2  456   0.371   0.059   1.438  1.7582 -1.5603 -1.0429
  153SOL     OW  457   2.818   2.972   1.396  0.3286 -0.0102  0.0510
  153SOL    HW1  458   2.848   3.046   1.458 -0.3314  1.9671 -0.7387
  153SOL    HW2  459   2.894   2.907   1.379 -0.0036  1.4249 -0.2981
  154SOL     OW  460   2.351   0.328   2.076 -0.5680 -0.1590 -0.2493
  154SOL    HW1  461   2.337   0.319   1.975 -0.0231 -0.9640 -0.7422
  154SOL    HW2  462   2.306   0.411   2.107  0.5211  0.1305 -0.5536
  155SOL     OW  463   0.723   1.116   0.215  0.4926  0.0278  0.1705
  155SOL    HW1  464   0.768   1.035   0.170  1.3319  0.9492  3.3024
  155SOL    HW2  465   0.638   1.151   0.170 -1.0666  1.5080 -0.3577
  156SOL     OW  466   1.986   1.644   0.339 -0.0483 -0.2649 -0.3777
  156SOL    HW1  467   2.023   1.605   0.426 -0.9505 -1.3878  0.7424
  156SOL    HW2  468   1.885   1.653   0.349  0.2024  0.2933 -0.0553
  157SOL     OW  469   0.894   1.708   0.072 -0.3881 -0.0923  0.3923
  157SOL    HW1  470   0.883   1.622   0.124  1.0745  0.8330  1.6190
  157SOL    HW2  471   0.976   1.755   0.110 -1.2261  0.0517  1.8294
  158SOL     OW  472   1.855   0.962   1.917 -0.3244 -0.5512  0.2113
  158SOL    HW1  473   1.878   0.900   1.996 -2.6815 -1.0493  1.7694
  158SOL    HW2  474   1.924   0.945   1.843  1.4325 -0.6584 -1.7739
  159SOL     OW  475   0.456   0.115   0.496 -0.2931  0.2353  0.0746
  159SOL    HW1  476   0.406   0.040   0.537 -1.9169  0.8372  1.9018
  159SOL    HW2  477   0.448   0.112   0.397 -1.8089  1.9668  1.2139
  160SOL     OW  478   2.398   1.278   1.604  0.4019 -0.5941 -0.4785
  160SOL    HW1  479   2.466   1.202   1.588 -1.7938  1.7622 -2.2828
  160SOL    HW2  480   2.340   1.257   1.686 -0.3404 -0.2323 -0.2350
  161SOL     OW  481   0.227   3.045   0.006  0.0244 -0.1968 -0.3623
  161SOL    HW1  482   0.134   0.005   3.043 -1.4604  0.3464  0.8056
  161SOL    HW2  483   0.285   3.008   2.991  1.7116 -0.1998 -2.2591
  162SOL     OW  484   2.906   0.647   2.579 -0.4165  0.0175  0.6851
  162SOL    HW1  485   2.850   0.730   2.561  0.2036 -1.1159 -1.2416
  162SOL    HW2  486   2.870   0.586   2.650 -1.2083  0.4228 -1.1209
  163SOL     OW  487   2.940   2.605   2.567 -0.4827 -0.2398 -0.0939
  163SOL    HW1  488   2.986   2.585   2.654  1.0676  3.5043  2.4794
  163SOL    HW2  489   2.848   2.654   2.583 -1.5400 -2.7458 -0.0438
  164SOL     OW  490   2.600   2.125   0.398  0.2664  0.1975  0.2729
  164SOL    HW1  491   2.501   2.142   0.422 -0.5214 -1.8695 -0.3313
  164SOL    HW2  492   2.656   2.191   0.445  0.9758 -1.0500 -1.2047
  165SOL     OW  493   1.096   0.692   1.504  0.2110 -0.1132 -0.4583
  165SOL    HW1  494   1.180   0.714   1.456  1.0223 -0.2327 -0.2835
  165SOL    HW2  495   1.024   0.687   1.436  0.5630 -1.1993  0.1246
  166SOL     OW  496   2.955   0.307   0.382  0.1995 -0.1072 -0.0146
  166SOL    HW1  497   3.023   0.334   0.454  0.6199 -0.1542  1.4024
  166SOL    HW2  498   3.003   0.270   0.302  1.0808  1.1152  1.0047
  167SOL     OW  499   1.992   0.573   1.143 -0.4935  0.0159  0.2531
  167SOL    HW1  500   2.052   0.571   1.058  0.4541 -1.5279  1.0431
  167SOL    HW2  501   2.046   0.589   1.227  2.0945 -2.3870 -1.9935
  168SOL     OW  502   0.934   0.476   2.168 -0.0094  0.1369  0.1447
  168SOL    HW1  503   1.020   0.443   2.125  0.0837  0.6570 -0.0166
  168SOL    HW2  504   0.950   0.563   2.212 -1.6209 -1.9925  1.0002
  169SOL     OW  505   1.232   1.925   1.387  0.8003  0.1594 -0.2724
  169SOL    HW1  506   1.189   1.865   1.319 -0.5364 -2.1073 -3.7821
  169SOL    HW2  507   1.169   1.939   1.467 -0.9209 -0.9894 -1.2941
  170SOL     OW  508   3.062   2.834   1.291  0.2816  0.2409  0.3419
  170SOL    HW1  509   0.079   2.863   1.351  2.1748  0.6799  1.2431
  170SOL    HW2  510   3.055   2.888   1.206 -1.5097  0.1958  1.3350
  171SOL     OW  511   2.507   0.505   2.449  0.5772 -0.2419 -0.3375
  171SOL    HW1  512   2.595   0.496   2.498 -0.9922  3.3148  0.5637
  171SOL    HW2  513   2.484   0.424   2.391  0.8271  1.7324  1.0670
  172SOL     OW  514   1.140   2.916   1.705  0.0767 -0.0131 -0.3164
  172SOL    HW1  515   1.232   2.957   1.703  1.2696  0.8447  2.7045
  172SOL    HW2  516   1.084   2.973   1.771 -0.5158  1.1647  0.2174
  173SOL     OW  517   2.381   2.076   2.866 -0.5800 -0.3657  0.2855
  173SOL    HW1  518   2.385   1.998   2.935  2.6793 -0.4735  2.2787
  173SOL    HW2  519   2.405   2.166   2.899 -1.5958 -2.1838 -0.7860
  174SOL     OW  520   1.576   0.857   0.324  0.1661  0.2062 -0.2754
  174SOL    HW1  521   1.544   0.941   0.367  0.0854 -2.9856  0.3043
  174SOL    HW2  522   1.492   0.809   0.287 -1.6146 -1.6401 -0.8465
  175SOL     OW  523   1.016   1.372   1.360 -0.1310 -0.1844 -0.0911
  175SOL    HW1  524   1.077   1.357   1.280  1.1268  0.1245  1.2503
  175SOL    HW2  525   1.022   1.469   1.380 -2.8067 -2.4697  1.4825
  176SOL     OW  526   0.087   0.057   0.645 -0.1447  0.1396 -0.1954
  176SOL    HW1  527   0.178   0.020   0.624 -0.8523 -1.3799 -0.1943
  176SOL    HW2  528   0.009   0.006   0.599 -0.5015 -0.1870  2.3878
  177SOL     OW  529   2.664   1.008   2.880 -0.0032 -0.3587  0.2345
  177SOL    HW1  530   2.714   0.931   2.915  0.7280  0.6353 -2.2493
  177SOL    HW2  531   2.662   0.998   2.779 -1.2430 -0.8150  1.4510
  178SOL     OW  532   2.772   2.697   1.932 -0.0981  0.0514  0.0842
  178SOL    HW1  533   2.813   2.644   2.006 -0.7196  1.2010 -3.3816
  178SOL    HW2  534   2.810   2.671   1.838  2.8896  0.8401 -0.4194
  179SOL     OW  535   2.190   2.921   0.349 -0.2877 -0.1646  0.8119
  179SOL    HW1  536   2.200   3.022   0.376  1.6894  5.8466  0.7340
  179SOL    HW2  537   2.110   2.884   0.393  3.4151 -1.6338 -0.9632
  180SOL     OW  538   1.985   0.685   0.767 -0.1546 -0.2122  0.0463
  180SOL    HW1  539   1.943   0.590   0.755  1.5824 -2.7828  0.4145
  180SOL    HW2  540   1.995   0.739   0.681  0.4970  1.2139 -1.1616
  181SOL     OW  541   3.018   0.368   2.656 -0.5172  0.5756  0.2846
  181SOL    HW1  542   0.014   0.294   2.618 -0.5254 -0.6938 -1.5516
  181SOL    HW2  543   0.010   0.446   2.693 -1.7027 -0.0100 -1.6906
  182SOL     OW  544   2.765   2.052   2.245  0.9059  0.1045  0.1768
  182SOL    HW1  545   2.767   1.951   2.240  2.1625 -0.7796 -0.7107
  182SOL    HW2  546   2.664   2.076   2.244  1.8376 -0.2242  0.6199
  183SOL     OW  547   2.996   0.898   1.907  0.0361 -0.2937 -0.2486
  183SOL    HW1  548   3.028   0.966   1.976  0.9398  0.3876 -1.8595
  183SOL    HW2  549   0.003   0.820   1.909  0.7997 -0.0396 -0.8214
  184SOL     OW  550   0.252   1.295   1.204  0.2394 -0.3203  0.4462
  184SOL    HW1  551   0.245   1.355   1.288  0.1451  2.1055  1.8527
  184SOL    HW2  552   0.282   1.200   1.221 -2.7137  0.2122  1.1544
  185SOL     OW  553   3.017   2.399   1.052 -0.0185 -0.0394  0.1784
  185SOL    HW1  554   0.052   2.386   1.025 -1.1447 -3.1186 -0.3866
  185SOL    HW2  555   3.016   2.429   1.149 -0.6755 -0.8528 -4.2739
  186SOL     OW  556   1.630   2.777   0.029 -0.0374  0.1911  0.2024
  186SOL    HW1  557   1.665   2.760   2.999 -0.5285  1.5139 -0.6491
  186SOL    HW2  558   1.529   2.773   0.033  0.5622 -1.4501 -0.1079
  187SOL     OW  559   0.160   1.206   0.518 -0.1094 -0.6049  0.3901
  187SOL    HW1  560   0.143   1.210   0.619  0.4946 -1.1260 -1.0015
  187SOL    HW2  561   0.247   1.261   0.505 -0.2695  0.7812  3.0907
  188SOL     OW  562   1.728   1.961   0.336 -0.5439  0.3546  0.1345
  188SOL    HW1  563   1.715   1.943   0.236 -2.5325  2.0520  1.7928
  188SOL    HW2  564   1.654   2.016   0.379 -0.8842  0.3494  0.4232
  189SOL     OW  565   0.070   1.582   2.932 -0.0983 -0.4568  0.0096
  189SOL    HW1  566   3.054   1.566   2.994 -1.7614 -1.2348  0.3060
  189SOL    HW2  567   0.133   1.503   2.939 -0.5890  0.8499  0.5848
  190SOL     OW  568   2.499   0.182   2.556  0.0750 -0.0085  0.1354
  190SOL    HW1  569   2.563   0.105   2.538 -0.4172 -0.5551  1.7138
  190SOL    HW2  570   2.475   0.230   2.473 -0.5354 -1.3404  1.9880
  191SOL     OW  571   0.642   1.128   1.861 -0.1853  0.3824 -0.0110
  191SOL    HW1  572   0.639   1.108   1.960 -0.2965  0.1549 -1.9168
  191SOL    HW2  573   0.696   1.053   1.819  1.2391  2.2884  0.1497
  192SOL     OW  574   1.984   1.236   1.736  0.3354 -0.0983 -0.1469
  192SOL    HW1  575   1.895   1.242   1.784  0.4912  0.8225 -2.5053
  192SOL    HW2  576   1.986   1.171   1.661 -1.0176  0.6884  0.4399
  193SOL     OW  577   1.075   2.888   0.973 -0.2882  0.1900 -0.3892
  193SOL    HW1  578   1.123   2.923   0.894 -1.6264  0.6523  3.6433
  193SOL    HW2  579   0.973   2.898   0.965 -1.1580  2.8990 -1.2649
  194SOL     OW  580   1.409   1.715   1.422 -0.0821 -0.2159 -0.3590
  194SOL    HW1  581   1.393   1.670   1.332  0.7170  2.2981 -0.1646
  194SOL    HW2  582   1.361   1.803   1.421  2.9284  0.1819 -1.7033
  195SOL     OW  583   1.769   0.493   1.044 -0.1269 -0.2318  0.2311
  195SOL    HW1  584   1.686   0.526   1.095 -1.7194 -0.3484  3.1582
  195SOL    HW2  585   1.855   0.521   1.091 -2.9409 -1.9032  1.4089
  196SOL     OW  586   1.266   1.770   1.951 -0.0378  0.0295 -0.4852
  196SOL    HW1  587   1.300   1.810   1.867 -0.0999 -0.6556  1.2807
  196SOL    HW2  588   1.300   1.828   2.031 -1.6467 -2.0074  2.5745
  197SOL     OW  589   2.751   2.959   2.792  0.4560 -0.5066 -0.5353
  197SOL    HW1  590   2.754   2.893   2.714  3.3330  1.3324  0.5134
  197SOL    HW2  591   2.682   2.945   2.870  0.3120 -0.0848  2.5241
  198SOL     OW  592   3.034   0.598   0.820 -0.2941  0.0192  0.0040
  198SOL    HW1  593   0.026   0.601   0.731  0.3915 -0.6340 -0.7241
  198SOL    HW2  594   2.936   0.615   0.801  0.0577  0.6713  1.3148
  199SOL     OW  595   0.448   1.942   0.955 -0.0116 -0.2756 -0.3954
  199SOL    HW1  596   0.472   1.942   0.853  0.9088 -0.7949  2.2264
  199SOL    HW2  597   0.530   1.949   1.014 -0.2338 -1.2249 -3.0237
  200SOL     OW  598   2.817   1.745   2.989  0.1736 -0.1220 -0.2271
  200SOL    HW1  599   2.720   1.731   2.984  3.5839  2.1773  0.4759
  200SOL    HW2  600   2.863   1.684   3.055 -3.0287  1.4639  0.8772
  201SOL     OW  601   1.353   2.514   1.753 -0.4047 -0.3335 -0.3974
  201SOL    HW1  602   1.386   2.530   1.658 -0.0561 -1.3282 -0.0007
  201SOL    HW2  603   1.266   2.567   1.764 -2.7517  0.4643  1.3361
  202SOL     OW  604   1.194   2.838   2.853 -0.3695 -0.6763 -0.4236
  202SOL    HW1  605   1.132   2.830   2.932  1.7911  1.5503 -1.7837
  202SOL    HW2  606   1.161   2.785   2.774  0.6458 -0.1688  2.8687
  203SOL     OW  607   1.391   3.044   0.020 -0.5834 -0.0791  0.2549
  203SOL    HW1  608   1.402   0.022   2.994 -0.4149 -2.8242 -0.7108
  203SOL    HW2  609   1.386   2.942   0.016 -0.3605  0.2332  0.7913
  204SOL     OW  610   0.406   1.679   1.323  0.1690  0.3703  0.2060
  204SOL    HW1  611   0.383   1.692   1.224 -0.0004  2.0828  1.4439
  204SOL    HW2  612   0.437   1.583   1.335  0.1364  0.3090 -0.1094
  205SOL     OW  613   1.745   1.209   1.906 -0.2083  0.3837  0.0507
  205SOL    HW1  614   1.769   1.109   1.911 -1.7199  1.1099  0.6160
  205SOL    HW2  615   1.647   1.221   1.934 -0.8767 -0.4498  0.3949
  206SOL     OW  616   0.074   1.874   2.962  0.4486 -0.4559 -0.1067
  206SOL    HW1  617   0.073   1.773   2.956 -2.2281 -0.2515  1.9322
  206SOL    HW2  618   3.045   1.913   2.951  0.9609  4.0047  1.3167
  207SOL     OW  619   0.513   2.128   2.013 -0.0633 -0.8585  0.5034
  207SOL    HW1  620   0.598   2.071   1.992 -1.4159 -2.1551 -1.5093
  207SOL    HW2  621   0.459   2.147   1.928  2.9102  2.2070 -1.2796
  208SOL     OW  622   0.551   2.252   0.860 -0.1293 -0.0687  0.4181
  208SOL    HW1  623   0.475   2.235   0.792 -0.9635 -2.7466 -0.6886
  208SOL    HW2  624   0.527   2.227   0.956 -1.3325 -0.1024  3.3725
  209SOL     OW  625   1.041   2.701   2.399  0.2875 -0.1076  0.3573
  209SOL    HW1  626   0.994   2.770   2.338 -1.8923  2.6843 -0.5542
  209SOL    HW2  627   1.134   2.671   2.361  0.0633  0.4728 -0.0257
  210SOL     OW  628   2.726   1.429   1.764  0.2782  0.2252 -0.1786
  210SOL    HW1  629   2.689   1.521   1.795 -0.4673  1.6217  1.7982
  210SOL    HW2  630   2.686   1.353   1.819 -1.8691  1.4124 -0.7813
  211SOL     OW  631   1.129   0.254   1.709 -0.1790  0.3792  0.2923
  211SOL    HW1  632   1.062   0.274   1.632  0.5604 -2.8346  0.0799
  211SOL    HW2  633   1.093   0.188   1.778  2.0398  1.6826  1.6357
  212SOL     OW  634   1.847   2.770   1.789  0.3332 -0.1145  0.2390
  212SOL    HW1  635   1.834   2.676   1.765 -0.5672  2.2249  1.5198
  212SOL    HW2  636   1.839   2.831   1.708 -0.3340 -1.7624 -2.4086
  213SOL     OW  637   2.894   0.112   1.559  0.4222 -0.4252  0.1363
  213SOL    HW1  638   2.798   0.138   1.582  1.1230  0.4084  0.8604
  213SOL    HW2  639   2.950   0.178   1.613  0.4894  2.5709 -0.1948
  214SOL     OW  640   0.988   2.073   1.099 -0.0975  0.2289 -0.1851
  214SOL    HW1  641   1.066   2.127   1.140  1.6269 -1.0751  0.1359
  214SOL    HW2  642   0.994   2.066   0.999  0.6408  0.6431  0.4414
  215SOL     OW  643   2.553   2.260   0.789 -0.3494  0.0808 -0.1419
  215SOL    HW1  644   2.509   2.350   0.775  1.4361 -1.0864  2.1856
  215SOL    HW2  645   2.644   2.274   0.840  0.1917 -3.3477  0.0902
  216SOL     OW  646   0.292   0.886   1.753  1.0236  1.0195  0.8409
  216SOL    HW1  647   0.313   0.985   1.773  1.9706  1.9950 -0.4147
  216SOL    HW2  648   0.367   0.840   1.703  1.4734  1.0434  0.8851
  217SOL     OW  649   2.364   0.153   1.631  0.2729  0.2112  0.5943
  217SOL    HW1  650   2.306   0.170   1.551  0.0286  1.2505 -1.1260
  217SOL    HW2  651   2.348   0.055   1.666 -4.2915 -1.4294  2.1040
  218SOL     OW  652   1.860   2.494   1.765 -0.1384 -0.4068  0.6215
  218SOL    HW1  653   1.826   2.434   1.686  1.8577 -1.1356  0.3111
  218SOL    HW2  654   1.811   2.467   1.855 -0.3519 -0.8192  3.0926
  219SOL     OW  655   1.963   2.490   2.865  0.3148  0.4395  0.3392
  219SOL    HW1  656   2.043   2.555   2.870 -3.1353 -0.6277  0.9903
  219SOL    HW2  657   1.988   2.393   2.874  1.2596  2.1243  1.9157
  220SOL     OW  658   1.379   2.951   0.313  0.1956 -0.7195  0.0002
  220SOL    HW1  659   1.392   2.988   0.218  0.5689 -1.5248 -0.4074
  220SOL    HW2  660   1.448   2.881   0.332 -2.7175 -1.9906 -2.4767
  221SOL     OW  661   0.116   2.170   1.416 -0.6059  0.0865  0.3526
  221SOL    HW1  662   0.037   2.237   1.429 -2.4032 -1.7439  0.8261
  221SOL    HW2  663   0.186   2.221   1.361 -0.9048  1.2988  1.1712
  222SOL     OW  664   1.874   2.733   1.216  0.6106 -0.7000 -0.0604
  222SOL    HW1  665   1.822   2.819   1.206 -1.5770 -1.9334 -1.6083
  222SOL    HW2  666   1.902   2.712   1.310  1.4462  2.7185 -0.0012
  223SOL     OW  667   1.363   0.447   1.392 -0.3660  0.0919 -0.7693
  223SOL    HW1  668   1.389   0.478   1.487 -0.1459 -1.4131  0.3261
  223SOL    HW2  669   1.263   0.459   1.380  4.1201  0.0377 -0.1574
  224SOL     OW  670   2.975   2.345   1.419 -0.9010 -0.5599  0.1340
  224SOL    HW1  671   3.012   2.427   1.364 -0.6624  1.5236 -1.5666
  224SOL    HW2  672   2.906   2.367   1.487  0.4966 -3.6028 -0.8155
  225SOL     OW  673   2.555   2.051   1.130  0.0359 -0.5763 -0.2007
  225SOL    HW1  674   2.558   2.102   1.216  1.4861  0.1183 -2.0031
  225SOL    HW2  675   2.467   2.068   1.079 -1.7386  0.9270 -2.3129
  226SOL     OW  676   1.486   2.268   3.003  0.2638  0.1866  0.0238
  226SOL    HW1  677   1.424   2.193   3.025 -0.4867 -0.0759 -0.1354
  226SOL    HW2  678   1.552   2.230   2.935  1.8465  2.4869 -0.4997
  227SOL     OW  679   1.628   1.431   0.689  0.1831 -0.4683 -0.2392
  227SOL    HW1  680   1.666   1.477   0.768 -0.3161  2.1182 -0.8139
  227SOL    HW2  681   1.562   1.359   0.716 -0.5869 -1.4772  0.0327
  228SOL     OW  682   1.965   0.964   0.452 -0.5170  0.4304 -0.1296
  228SOL    HW1  683   2.041   0.897   0.456  0.5012 -1.0942 -0.5140
  228SOL    HW2  684   1.880   0.909   0.447 -1.5579  3.5799  0.0287
  229SOL     OW  685   2.630   1.207   1.859  0.2226  0.4298 -0.6431
  229SOL    HW1  686   2.536   1.191   1.892 -0.2038 -0.7454  0.3426
  229SOL    HW2  687   2.682   1.120   1.874 -2.9128 -2.4191  0.5177
  230SOL     OW  688   0.365   1.044   1.241 -0.3833  0.1171  0.7552
  230SOL    HW1  689   0.433   1.059   1.165  2.0390 -0.4096  1.9905
  230SOL    HW2  690   0.377   0.953   1.280 -0.5784 -0.9101  1.4152
  231SOL     OW  691   1.806   0.351   2.492 -0.1242  0.1389 -0.1614
  231SOL    HW1  692   1.760   0.355   2.583 -0.3146 -0.4973  0.4627
  231SOL    HW2  693   1.888   0.416   2.497 -1.2946 -0.6278 -1.9153
  232SOL     OW  694   3.058   1.659   1.098  0.1343  0.3639 -0.3916
  232SOL    HW1  695   3.041   1.619   1.192 -2.3249 -1.5304  0.3585
  232SOL    HW2  696   3.023   1.596   1.026  1.3776 -2.1056  0.4231
  233SOL     OW  697   1.644   2.846   2.778  0.1435 -0.1890 -0.0223
  233SOL    HW1  698   1.643   2.938   2.819 -0.6477 -1.6997 -0.3016
  233SOL    HW2  699   1.709   2.846   2.707 -2.0381  1.2950  0.8636
  234SOL     OW  700   1.430   2.574   1.483 -0.8063  0.1417 -0.4663
  234SOL    HW1  701   1.373   2.657   1.465 -2.2874 -0.3640 -3.1201
  234SOL    HW2  702   1.462   2.529   1.393 -0.4217 -0.3216 -1.6942
  235SOL     OW  703   0.809   1.210   1.677  0.4413 -0.3526  0.7987
  235SOL    HW1  704   0.899   1.257   1.689  0.7451  1.6688 -0.5653
  235SOL    HW2  705   0.766   1.199   1.767  0.3211  1.7424 -0.3879
  236SOL     OW  706   0.655   2.636   2.678  0.1734 -0.3526 -0.7166
  236SOL    HW1  707   0.605   2.552   2.661  1.5540  2.1752  0.7152
  236SOL    HW2  708   0.753   2.620   2.703  2.7881 -0.5976  1.8791
  237SOL     OW  709   0.403   0.130   1.840 -0.0158  0.4235  0.2759
  237SOL    HW1  710   0.448   0.119   1.931 -0.5152 -1.9365 -1.1845
  237SOL    HW2  711   0.428   0.053   1.779 -0.1469  0.1935 -1.8881
  238SOL     OW  712   0.752   0.533   0.516 -0.1453  0.0134  0.4063
  238SOL    HW1  713   0.738   0.464   0.445 -1.4865  0.7970  0.6093
  238SOL    HW2  714   0.839   0.511   0.567  0.7917  1.6842  1.3067
  239SOL     OW  715   2.230   0.565   2.620  0.3156  0.2302 -0.0020
  239SOL    HW1  716   2.308   0.624   2.586  2.3394  0.6890  0.1517
  239SOL    HW2  717   2.197   0.608   2.709 -2.4310  0.0371 -0.4091
  240SOL     OW  718   2.803   2.098   0.970 -0.1138  0.4603  0.5251
  240SOL    HW1  719   2.716   2.052   0.992  0.9572  0.1763 -1.5825
  240SOL    HW2  720   2.874   2.083   1.042 -2.4429 -1.3907 -2.6241
  241SOL     OW  721   1.163   1.730   0.710 -0.2224  0.0690  0.0296
  241SOL    HW1  722   1.260   1.694   0.725 -0.4877  0.3874 -1.4028
  241SOL    HW2  723   1.161   1.829   0.696  1.2509 -0.1797  2.5156
  242SOL     OW  724   0.871   0.178   0.526 -0.3485 -0.1944  0.3249
  242SOL    HW1  725   0.971   0.183   0.541 -0.3533 -0.3591  0.6327
  242SOL    HW2  726   0.824   0.221   0.603 -0.6633  1.8648  0.4967
  243SOL     OW  727   0.351   0.305   1.228  0.5833  0.0955  0.0255
  243SOL    HW1  728   0.268   0.332   1.168 -0.7585 -1.8350 -1.8499
  243SOL    HW2  729   0.414   0.238   1.177  0.2735  1.6151 -0.8107
  244SOL     OW  730   0.696   2.814   0.536 -0.0946 -0.3503  0.2079
  244SOL    HW1  731   0.783   2.812   0.479 -0.3265  1.4908 -2.2287
  244SOL    HW2  732   0.710   2.764   0.623 -1.4229  0.4451 -2.1208
  245SOL     OW  733   2.543   1.040   0.294 -0.0545 -0.4718 -0.1492
  245SOL    HW1  734   2.607   0.988   0.239  0.4714  1.4011 -1.2410
  245SOL    HW2  735   2.559   1.142   0.273  1.4823 -0.9567 -0.9161
  246SOL     OW  736   0.284   2.598   1.441  0.5379 -0.0229 -0.0760
  246SOL    HW1  737   0.270   2.694   1.468 -0.0418 -0.2097  1.4458
  246SOL    HW2  738   0.306   2.596   1.339  0.9295 -0.6283 -2.9828
  247SOL     OW  739   0.795   0.147   2.019  0.1323 -0.4601 -0.5514
  247SOL    HW1  740   0.707   0.126   2.066  2.8340  1.1237 -1.9038
  247SOL    HW2  741   0.779   0.222   1.955 -0.2786 -1.5547 -2.2682
  248SOL     OW  742   0.449   1.836   2.058  0.4858  0.8474 -0.3366
  248SOL    HW1  743   0.545   1.868   2.070  1.1425 -1.3612 -0.0285
  248SOL    HW2  744   0.454   1.732   2.047 -0.2155 -0.6613  0.1435
  249SOL     OW  745   1.007   2.130   0.427 -0.0884 -0.0026  0.5011
  249SOL    HW1  746   0.906   2.107   0.419  0.3552 -2.2395  0.4958
  249SOL    HW2  747   1.011   2.224   0.467 -0.5480 -2.2654  2.5290
  250SOL     OW  748   0.542   0.077   2.095 -0.4217 -0.4943 -0.1192
  250SOL    HW1  749   0.487   3.054   2.088  0.1725 -0.8456  3.2176
  250SOL    HW2  750   0.515   0.130   2.183 -0.7594 -0.6089  2.4160
  251SOL     OW  751   2.661   1.996   1.771 -0.7528 -0.4298  0.4576
  251SOL    HW1  752   2.577   1.942   1.791 -2.9552  1.3523 -1.5449
  251SOL    HW2  753   2.749   1.941   1.779 -0.1197 -1.7956 -0.4287
  252SOL     OW  754   1.223   0.471   1.831  0.1753 -0.3617  0.3753
  252SOL    HW1  755   1.159   0.551   1.805 -1.0378  0.7281  3.4329
  252SOL    HW2  756   1.179   0.388   1.786  0.7573  1.1411 -0.3619
  253SOL     OW  757   2.542   1.646   2.492  0.2674 -0.2174 -0.1704
  253SOL    HW1  758   2.530   1.590   2.409  0.0330  3.2022  1.0106
  253SOL    HW2  759   2.506   1.740   2.479 -0.8461  3.3774 -2.8453
  254SOL     OW  760   0.501   1.117   0.827 -0.4137 -0.2441 -0.0023
  254SOL    HW1  761   0.514   1.214   0.802  0.8388 -1.8036  0.3174
  254SOL    HW2  762   0.537   1.099   0.922  0.4059  1.5713 -0.8684
  255SOL     OW  763   0.191   2.312   1.642 -0.0958 -0.0178 -0.2922
  255SOL    HW1  764   0.142   2.248   1.573  0.6247  1.7357 -0.3212
  255SOL    HW2  765   0.128   2.386   1.666 -1.1775 -0.3670  0.2181
  256SOL     OW  766   0.361   2.954   0.268  0.2517  0.1064 -0.2978
  256SOL    HW1  767   0.350   2.968   0.166  0.6257 -0.5573  0.2113
  256SOL    HW2  768   0.412   2.869   0.284 -4.6587  2.4475 -2.0617
  257SOL     OW  769   1.257   2.401   2.375  0.1033 -0.1503  0.3958
  257SOL    HW1  770   1.315   2.319   2.373 -2.4860 -0.7288  1.0180
  257SOL    HW2  771   1.290   2.475   2.318 -1.0277 -1.7067 -0.8315
  258SOL     OW  772   1.876   1.860   2.133 -0.1150  0.5655 -0.6087
  258SOL    HW1  773   1.785   1.840   2.092 -0.0915  0.8529 -2.0359
  258SOL    HW2  774   1.939   1.877   2.053 -0.1973 -1.6130 -0.0812
  259SOL     OW  775   0.603   0.755   2.185  0.3273 -1.0264  0.5686
  259SOL    HW1  776   0.588   0.852   2.159 -1.8080  3.4776 -1.1913
  259SOL    HW2  777   0.674   0.715   2.128  1.1638  1.0442  0.0665
  260SOL     OW  778   2.412   0.903   3.034 -0.1621  0.1005 -0.6662
  260SOL    HW1  779   2.450   0.808   3.039  0.3457  1.0060  0.1544
  260SOL    HW2  780   2.478   0.970   2.991  0.0218 -0.2785 -1.0112
  261SOL     OW  781   0.962   0.955   0.722  0.2290  0.3352 -0.1884
  261SOL    HW1  782   1.006   0.952   0.630  3.4833 -0.7558 -1.2574
  261SOL    HW2  783   0.994   1.037   0.774 -2.6034  0.9051 -3.0111
  262SOL     OW  784   2.087   2.469   2.423  0.1422 -0.5717  0.2217
  262SOL    HW1  785   2.072   2.503   2.326  1.6025  0.0181 -4.0858
  262SOL    HW2  786   2.042   2.380   2.439 -1.4782  0.7108 -0.9443
  263SOL     OW  787   0.863   2.458   1.092  0.0130  0.1956  0.6158
  263SOL    HW1  788   0.942   2.453   1.154  0.2281 -1.5331 -3.4533
  263SOL    HW2  789   0.869   2.386   1.015 -1.9761  1.1360 -0.9299
  264SOL     OW  790   2.849   1.869   0.676  0.1343 -0.2430  0.0544
  264SOL    HW1  791   2.933   1.926   0.693 -1.8652  2.5077 -3.7386
  264SOL    HW2  792   2.844   1.791   0.742 -0.9393  0.8674  1.4420
  265SOL     OW  793   1.789   1.514   2.730 -0.6194 -0.4781 -0.0210
  265SOL    HW1  794   1.817   1.541   2.827  0.8361  0.7548 -0.4722
  265SOL    HW2  795   1.849   1.566   2.669  1.1401  2.5776  1.3583
  266SOL     OW  796   1.640   1.852   2.026 -0.5665 -0.4932 -0.0848
  266SOL    HW1  797   1.591   1.773   1.988  1.0995  2.8618  0.7112
  266SOL    HW2  798   1.604   1.889   2.111  0.8157 -1.2351  0.0252
  267SOL     OW  799   1.745   0.426   2.214 -0.5580  0.1314  0.1033
  267SOL    HW1  800   1.786   0.388   2.304  0.2305  1.5176 -0.6198
  267SOL    HW2  801   1.671   0.497   2.225  1.0402 -0.6688  0.7598
  268SOL     OW  802   0.849   1.002   2.843 -0.4025 -0.4213  0.1826
  268SOL    HW1  803   0.926   1.051   2.894  0.4261  2.6861  2.2203
  268SOL    HW2  804   0.896   0.957   2.764  2.6062 -2.6681 -0.8582
  269SOL     OW  805   2.971   2.178   2.092  0.0088 -0.2586  0.3855
  269SOL    HW1  806   3.018   2.106   2.034  2.0969  0.3689  0.4103
  269SOL    HW2  807   2.909   2.143   2.164  0.1090 -0.0566 -2.9079
  270SOL     OW  808   2.947   1.534   0.069 -0.2170 -0.1749 -0.2919
  270SOL    HW1  809   2.969   1.434   0.068 -2.1875  0.2797  3.4079
  270SOL    HW2  810   2.898   1.555   0.156  1.0593  1.5119 -0.0824
  271SOL     OW  811   0.741   0.323   0.306  0.4217 -0.6169  0.2849
  271SOL    HW1  812   0.800   0.267   0.371 -1.2346  2.3888  0.3998
  271SOL    HW2  813   0.781   0.322   0.207  0.6954 -1.6712 -2.6867
  272SOL     OW  814   0.048   0.169   0.217  0.4803  0.2859  0.1133
  272SOL    HW1  815   0.020   0.130   0.131  1.5199  4.2616  1.3866
  272SOL    HW2  816   0.058   0.090   0.278  1.3903  1.5920 -0.9416
  273SOL     OW  817   0.405   2.914   2.060  0.0004 -0.8756  0.1450
  273SOL    HW1  818   0.433   2.821   2.087  0.7239  1.1455 -0.9771
  273SOL    HW2  819   0.358   2.912   1.969  1.5472  0.9803 -0.2845
  274SOL     OW  820   0.017   0.157   1.354  0.1311  0.5361 -0.2726
  274SOL    HW1  821   3.003   0.139   1.420  0.6167  3.3620  2.1424
  274SOL    HW2  822   0.008   0.110   1.265  1.6951 -0.8749  3.7609
  275SOL     OW  823   1.093   1.775   1.191  0.2449  0.3391  0.0166
  275SOL    HW1  824   1.038   1.861   1.193  0.7340 -1.2767 -0.4423
  275SOL    HW2  825   1.074   1.718   1.276  0.3613 -0.9282  1.8641
  276SOL     OW  826   0.237   1.359   2.097 -0.2574 -0.9835 -0.0482
  276SOL    HW1  827   0.228   1.388   2.002 -0.7213 -0.3298  2.5569
  276SOL    HW2  828   0.178   1.422   2.153  1.2756  0.5793  0.4687
  277SOL     OW  829   1.340   2.309   1.978  0.3173  0.0308 -0.1373
  277SOL    HW1  830   1.386   2.357   1.900 -1.9411  0.4666  1.5480
  277SOL    HW2  831   1.405   2.291   2.056 -0.9876 -0.3359 -1.7553
  278SOL     OW  832   1.990   2.815   2.404 -0.2039  0.3584  0.4673
  278SOL    HW1  833   1.918   2.747   2.389 -3.0258  0.4241 -0.7829
  278SOL    HW2  834   2.008   2.857   2.314  1.4220 -1.3123 -1.0511
  279SOL     OW  835   1.411   1.461   0.015 -0.1812  0.0560  0.7663
  279SOL    HW1  836   1.438   1.362   0.018 -0.3896  1.0170  1.7204
  279SOL    HW2  837   1.489   1.510   3.033  2.4736  0.4146  0.0059
  280SOL     OW  838   1.201   0.565   1.023 -0.2591 -0.1117 -0.3496
  280SOL    HW1  839   1.144   0.619   0.954 -1.8328  2.9704  1.0823
  280SOL    HW2  840   1.286   0.527   0.984 -1.2809 -0.7777  2.0361
  281SOL     OW  841   2.884   0.636   2.081 -0.6144 -0.5613 -0.1771
  281SOL    HW1  842   2.888   0.593   2.172 -0.4808  1.6657 -0.9683
  281SOL    HW2  843   2.793   0.674   2.063  2.5060 -0.4271 -2.5559
  282SOL     OW  844   0.330   2.991   0.659 -0.0650  0.5259  0.1222
  282SOL    HW1  845   0.302   2.905   0.608 -0.8041 -1.5085  1.9418
  282SOL    HW2  846   0.402   2.971   0.733  1.2401 -1.5463  3.3820
  283SOL     OW  847   1.260   2.222   1.499  0.0113  0.2294 -0.2398
  283SOL    HW1  848   1.190   2.159   1.544 -0.5285  0.9731 -0.0563
  283SOL    HW2  849   1.291   2.295   1.561  1.2096  1.5386  0.1425
  284SOL     OW  850   2.108   2.649   1.398  0.1905 -0.3420 -0.2127
  284SOL    HW1  851   2.083   2.563   1.445 -0.4064 -2.3995  0.4093
  284SOL    HW2  852   2.170   2.622   1.321  0.1894 -2.0759  1.4052
  285SOL     OW  853   0.787   1.760   1.107  0.3936  0.2428  0.0175
  285SOL    HW1  854   0.741   1.673   1.086  1.6450  0.9604 -0.2095
  285SOL    HW2  855   0.732   1.844   1.084 -0.8537 -4.0628 -0.0811
  286SOL     OW  856   0.187   2.686   1.860 -0.0665 -0.0924 -0.4407
  286SOL    HW1  857   0.111   2.730   1.910 -1.3703  1.4204 -0.1934
  286SOL    HW2  858   0.240   2.618   1.924 -0.7429 -3.1236  3.8528
  287SOL     OW  859   0.691   0.984   0.661 -0.0772 -0.0675  0.1135
  287SOL    HW1  860   0.789   0.983   0.690 -0.4993 -2.0381 -1.9590
  287SOL    HW2  861   0.626   1.027   0.728  1.4233  0.7245 -2.9232
  288SOL     OW  862   1.441   2.177   2.479 -0.0806  0.0368  0.2912
  288SOL    HW1  863   1.445   2.262   2.539  0.5154 -1.4101  0.7795
  288SOL    HW2  864   1.526   2.157   2.425  0.1345  1.9048 -1.7534
  289SOL     OW  865   1.876   1.210   2.448 -0.5038 -0.4321 -1.0548
  289SOL    HW1  866   1.909   1.305   2.436 -0.1824  0.2983  0.2185
  289SOL    HW2  867   1.915   1.149   2.381  1.3714 -0.4405  2.7032
  290SOL     OW  868   1.909   1.988   0.535 -0.3208 -0.4390 -0.0036
  290SOL    HW1  869   1.864   1.969   0.445  0.1540 -0.8626 -1.0606
  290SOL    HW2  870   1.882   2.083   0.567 -1.0875  1.7402  0.8516
  291SOL     OW  871   1.396   0.861   2.908  0.2920 -0.1059 -0.3295
  291SOL    HW1  872   1.369   0.932   2.973  0.9701 -0.1258 -1.2129
  291SOL    HW2  873   1.496   0.849   2.910  1.5833  0.5224  1.1073
  292SOL     OW  874   1.956   1.751   0.697  0.1172 -0.2139 -0.6530
  292SOL    HW1  875   2.015   1.682   0.651 -0.7265 -0.6946  0.1047
  292SOL    HW2  876   1.933   1.816   0.621  1.6948  1.0782 -1.1985
  293SOL     OW  877   1.777   0.132   1.283 -0.5231  0.0728 -0.3243
  293SOL    HW1  878   1.841   0.208   1.250 -2.0638  0.9438 -0.4458
  293SOL    HW2  879   1.681   0.167   1.298  1.6389 -1.1798  0.2536
  294SOL     OW  880   2.725   0.926   0.138  0.0146 -0.6752  0.5810
  294SOL    HW1  881   2.645   0.878   0.097  0.5273 -1.4478 -1.8250
  294SOL    HW2  882   2.787   0.852   0.169  0.2100  0.2876 -0.1680
  295SOL     OW  883   2.178   1.683   2.461  0.6166 -0.0466 -0.4653
  295SOL    HW1  884   2.238   1.753   2.504 -0.4208 -1.9073 -1.2298
  295SOL    HW2  885   2.201   1.595   2.495  0.9241  0.9366 -1.4504
  296SOL     OW  886   1.316   1.783   1.019 -0.3352 -0.1585  0.1837
  296SOL    HW1  887   1.349   1.703   0.966  0.8309 -0.5269 -0.9095
  296SOL    HW2  888   1.235   1.765   1.085 -0.1750  0.2635  0.5433
  297SOL     OW  889   0.377   0.658   2.800 -0.3191  0.6176  0.0648
  297SOL    HW1  890   0.303   0.729   2.791  1.7111 -1.7780  0.6287
  297SOL    HW2  891   0.398   0.650   2.898 -1.5649 -0.8129  0.1909
  298SOL     OW  892   1.514   2.822   1.702 -0.1983 -0.2371 -0.9207
  298SOL    HW1  893   1.478   2.837   1.610 -0.5102  1.7530 -0.7794
  298SOL    HW2  894   1.615   2.809   1.689 -0.1322  1.4900 -0.6096
  299SOL     OW  895   1.147   0.591   2.509  0.0369  0.1920  0.0363
  299SOL    HW1  896   1.111   0.595   2.605  1.5753  0.0019  2.1775
  299SOL    HW2  897   1.144   0.497   2.478  0.5250  0.3772  1.1622
  300SOL     OW  898   1.994   1.499   0.115 -0.6433 -0.6037 -0.0322
  300SOL    HW1  899   1.993   1.522   0.215 -0.6798 -2.4422  0.8717
  300SOL    HW2  900   2.009   1.396   0.100  1.9233 -0.7316  0.8405
  301SOL     OW  901   2.139   0.275   2.398 -0.0344 -0.4826  0.7984
  301SOL    HW1  902   2.186   0.212   2.463  0.6367  2.9042  1.0851
  301SOL    HW2  903   2.096   0.354   2.444  0.8867 -1.0052  0.2671
  302SOL     OW  904   2.494   1.533   2.713 -0.2718 -0.4771 -0.0412
  302SOL    HW1  905   2.526   1.433   2.714  3.0086 -3.4676  0.2644
  302SOL    HW2  906   2.520   1.572   2.623  0.3301 -1.0096  1.4760
  303SOL     OW  907   0.363   2.368   2.266  0.1349  0.2074 -0.3921
  303SOL    HW1  908   0.280   2.378   2.324 -0.0585  0.6678 -0.8911
  303SOL    HW2  909   0.381   2.266   2.240  1.3405 -2.0842  0.5380
  304SOL     OW  910   2.887   1.010   0.861 -0.1733  0.1406 -0.0840
  304SOL    HW1  911   2.795   1.044   0.888  2.2065 -1.1783 -1.2098
  304SOL    HW2  912   2.919   0.954   0.937 -1.0576 -0.2156 -0.7696
  305SOL     OW  913   2.991   0.303   1.727  0.3520  0.0479 -1.0678
  305SOL    HW1  914   2.971   0.398   1.754  2.2784 -0.8778  0.1844
  305SOL    HW2  915   0.015   0.265   1.765 -0.5983  1.8233  0.6224
  306SOL     OW  916   1.615   2.035   0.798 -0.3477 -0.2899  0.0246
  306SOL    HW1  917   1.647   1.956   0.742  0.4225  0.6669  0.6076
  306SOL    HW2  918   1.626   2.124   0.743  0.4100 -0.4254  1.0444
  307SOL     OW  919   3.026   0.003   1.114  0.0673  0.1511 -0.2259
  307SOL    HW1  920   2.928   0.021   1.115  0.3111  2.9949 -2.6136
  307SOL    HW2  921   3.056   3.047   1.016 -0.6720 -0.5228 -1.7547
  308SOL     OW  922   3.062   1.844   2.493 -0.1372 -0.3018  0.5710
  308SOL    HW1  923   3.062   1.773   2.565  0.2270 -0.1262  2.0369
  308SOL    HW2  924   2.999   1.805   2.424  0.3171  2.3552  2.0895
  309SOL     OW  925   0.472   1.770   2.696 -0.3416 -0.3115  0.7135
  309SOL    HW1  926   0.482   1.673   2.726  0.2634  2.0712  0.6022
  309SOL    HW2  927   0.386   1.814   2.732 -0.6181  0.8359  2.3153
  310SOL     OW  928   2.137   0.667   2.853  0.1305  0.2994  0.0728
  310SOL    HW1  929   2.077   0.749   2.852 -0.4982 -0.8518  2.2528
  310SOL    HW2  930   2.173   0.660   2.945 -0.3638  3.0336 -1.2979
  311SOL     OW  931   1.772   1.127   0.074 -0.0051 -0.2856 -0.4229
  311SOL    HW1  932   1.736   1.116   3.044  1.7305  0.0414  0.7561
  311SOL    HW2  933   1.872   1.104   0.074 -2.1828 -3.9991 -1.7341
  312SOL     OW  934   1.091   1.253   2.104 -0.3626  0.0560  0.8274
  312SOL    HW1  935   1.006   1.281   2.150  2.7109 -0.6521 -1.5375
  312SOL    HW2  936   1.074   1.179   2.035  1.7791 -2.1545 -0.7752
  313SOL     OW  937   0.818   3.038   0.299 -0.0046  0.0266  0.2617
  313SOL    HW1  938   0.744   0.002   0.365 -0.4522 -1.2540  0.3819
  313SOL    HW2  939   0.912   3.057   0.340  1.0800  0.3909 -1.4700
  314SOL     OW  940   0.522   1.942   1.353  0.2170 -0.4745  0.6326
  314SOL    HW1  941   0.463   1.856   1.353  0.1910 -0.3881 -1.7691
  314SOL    HW2  942   0.622   1.928   1.329 -1.2666  0.1161 -4.5076
  315SOL     OW  943   1.545   2.152   1.476  0.1048  0.3614  0.1610
  315SOL    HW1  944   1.581   2.071   1.530 -0.0275  2.0492 -0.7418
  315SOL    HW2  945   1.444   2.125   1.466 -2.7196 -0.6679  0.4661
  316SOL     OW  946   0.542   2.428   0.272  0.5140 -0.6489  0.2359
  316SOL    HW1  947   0.625   2.412   0.332  0.5238  0.2317 -2.1351
  316SOL    HW2  948   0.475   2.351   0.286  1.5641 -0.5826  0.2945
  317SOL     OW  949   2.607   0.445   0.931 -0.8360  0.2430 -0.1154
  317SOL    HW1  950   2.518   0.414   0.973 -0.9584 -0.7783 -1.9773
  317SOL    HW2  951   2.678   0.424   0.998  0.3555  1.4844 -1.2856
  318SOL     OW  952   0.976   2.391   0.561 -0.5061  0.1475 -0.2262
  318SOL    HW1  953   0.991   2.479   0.610  0.0076  0.9779  1.1896
  318SOL    HW2  954   0.881   2.379   0.543  0.0974  0.8671  1.0704
  319SOL     OW  955   1.312   0.340   2.780  0.2021  0.1278 -0.4243
  319SOL    HW1  956   1.222   0.360   2.734 -2.5435  1.1047  1.0806
  319SOL    HW2  957   1.319   0.388   2.871  0.5000 -1.2914  0.6419
  320SOL     OW  958   2.292   1.638   1.769  0.1202 -0.8545 -0.6585
  320SOL    HW1  959   2.195   1.661   1.791  2.6056 -2.2885  0.2774
  320SOL    HW2  960   2.295   1.555   1.713  1.9918 -0.8017 -1.3183
  321SOL     OW  961   3.030   2.874   2.856 -0.2797  0.0980  0.3347
  321SOL    HW1  962   3.040   2.943   2.931  1.4287 -1.0942  1.4248
  321SOL    HW2  963   2.942   2.887   2.809  1.6393 -2.1319  0.4534
  322SOL     OW  964   2.286   0.834   1.253  0.0349  0.2652  0.2533
  322SOL    HW1  965   2.220   0.796   1.189  1.5489  0.2897 -0.9989
  322SOL    HW2  966   2.361   0.873   1.197  0.1643 -2.0702  0.7416
  323SOL     OW  967   1.985   1.875   0.188 -0.2890  0.9521 -0.1493
  323SOL    HW1  968   1.895   1.912   0.216  0.9467  2.0009 -0.9400
  323SOL    HW2  969   2.008   1.784   0.233  1.5244 -0.6008  0.4601
  324SOL     OW  970   2.820   0.386   1.144 -0.6435 -0.4885 -0.1974
  324SOL    HW1  971   2.838   0.310   1.073  1.6188 -2.2205 -2.7626
  324SOL    HW2  972   2.859   0.479   1.115  2.7243  4.1577  0.8414
  325SOL     OW  973   2.780   2.514   0.663 -0.0025 -0.1696  0.0387
  325SOL    HW1  974   2.745   2.468   0.747  1.0214  0.4357  1.2328
  325SOL    HW2  975   2.707   2.527   0.589 -2.4483 -1.6002  1.6418
  326SOL     OW  976   1.535   2.589   0.601 -0.0611  0.9517  0.4604
  326SOL    HW1  977   1.516   2.659   0.529  1.9394  0.9935 -2.6670
  326SOL    HW2  978   1.614   2.531   0.567  0.8915  2.5148  0.1666
  327SOL     OW  979   2.101   2.487   0.326  0.0144 -0.4956 -0.4719
  327SOL    HW1  980   2.085   2.408   0.270  1.2307  1.9255  1.8440
  327SOL    HW2  981   2.028   2.551   0.292 -0.5500 -0.9312 -1.0142
  328SOL     OW  982   2.523   2.378   1.916 -0.3618  0.1389  0.2151
  328SOL    HW1  983   2.613   2.340   1.903 -0.6627  1.4479  0.3986
  328SOL    HW2  984   2.501   2.449   1.846 -1.5241  2.2518 -0.8175
  329SOL     OW  985   0.361   2.221   0.660 -0.3624 -0.0855 -0.0936
  329SOL    HW1  986   0.280   2.254   0.709  2.5236 -1.0754 -1.8735
  329SOL    HW2  987   0.382   2.123   0.690  1.3723 -0.4163  1.3643
  330SOL     OW  988   2.064   0.913   1.753 -0.4721  0.2270  0.5811
  330SOL    HW1  989   2.152   0.958   1.729  3.2279 -0.5784 -1.2955
  330SOL    HW2  990   2.078   0.814   1.774 -1.3266 -0.7444  1.6408
  331SOL     OW  991   2.351   1.618   0.896  0.1362  0.3532 -0.1292
  331SOL    HW1  992   2.353   1.621   1.002  2.5070 -1.6107  2.9670
  331SOL    HW2  993   2.347   1.708   0.850 -0.4319 -1.4092  0.6942
  332SOL     OW  994   3.062   2.556   1.270 -0.1171  0.1798  0.0133
  332SOL    HW1  995   0.084   2.577   1.220  0.2046 -0.3660 -0.8891
  332SOL    HW2  996   3.037   2.647   1.311 -1.5217  3.0289  1.1541
  333SOL     OW  997   2.989   1.688   1.556  0.0200 -0.2318  0.2342
  333SOL    HW1  998   3.015   1.787   1.543 -0.1644  1.2890 -2.1292
  333SOL    HW2  999   2.990   1.636   1.469  1.3776 -3.0424  1.3254
  334SOL     OW 1000   0.356   0.553   1.357  0.8871 -0.3947 -0.3245
  334SOL    HW1 1001   0.286   0.597   1.422 -2.6256  1.0522 -1.4847
  334SOL    HW2 1002   0.328   0.461   1.325 -1.5572  2.5454 -1.2030
  335SOL     OW 1003   2.661   1.688   1.874  0.4294 -0.4689  0.6732
  335SOL    HW1 1004   2.745   1.724   1.826 -2.0496 -0.7103 -2.0833
  335SOL    HW2 1005   2.578   1.730   1.838  1.5230 -2.0225 -0.9885
  336SOL     OW 1006   1.758   2.958   0.179 -0.0667  0.5066  0.4585
  336SOL    HW1 1007   1.712   2.897   0.111  0.4718  1.5403  0.2523
  336SOL    HW2 1008   1.857   2.946   0.173  0.5907  0.8621  1.7822
  337SOL     OW 1009   0.615   0.447   1.362  0.1683 -0.1085  0.0107
  337SOL    HW1 1010   0.621   0.394   1.279  1.0617 -0.3057  4.0000
  337SOL    HW2 1011   0.519   0.459   1.388  1.3077 -2.1163 -1.8232
  338SOL     OW 1012   1.736   2.375   0.897  0.4000  0.1178  0.4409
  338SOL    HW1 1013   1.830   2.332   0.892  0.6902 -0.5387  1.5443
  338SOL    HW2 1014   1.722   2.437   0.979 -0.5878  1.2178 -0.4419
  339SOL     OW 1015   0.294   1.706   1.082 -0.1486  0.6318  0.0923
  339SOL    HW1 1016   0.203   1.662   1.090 -2.7979  0.3809 -0.4691
  339SOL    HW2 1017   0.291   1.789   1.026  1.9066  2.3021  0.8970
  340SOL     OW 1018   0.224   0.005   2.213 -0.2253 -0.1195  0.4389
  340SOL    HW1 1019   0.278   2.988   2.180 -1.1278 -1.7522  1.1473
  340SOL    HW2 1020   0.198   3.045   2.312  0.5825  0.6068 -1.2125
  341SOL     OW 1021   2.388   1.248   0.569 -0.2075  0.0290 -0.2053
  341SOL    HW1 1022   2.354   1.335   0.542  1.3319 -2.9350  1.4864
  341SOL    HW2 1023   2.481   1.252   0.615  0.0661  1.0328 -1.4050
  342SOL     OW 1024   1.525   2.192   0.446  0.0413 -0.3886  0.6361
  342SOL    HW1 1025   1.520   2.234   0.353  1.4410  0.6392  1.3363
  342SOL    HW2 1026   1.557   2.259   0.521 -1.4842  1.7290  1.5832
  343SOL     OW 1027   1.891   0.450   0.814 -0.0494 -0.1646  0.3723
  343SOL    HW1 1028   1.853   0.480   0.900  1.3573  0.0354 -2.0150
  343SOL    HW2 1029   1.936   0.358   0.823  3.3075 -0.9726  1.2285
  344SOL     OW 1030   2.343   0.372   2.980 -0.0703 -0.0288  0.3445
  344SOL    HW1 1031   2.316   0.370   2.881  1.8181  0.3151  1.5271
  344SOL    HW2 1032   2.391   0.287   3.009 -1.6128 -2.0633  1.2060
  345SOL     OW 1033   1.363   0.050   1.174 -0.3817  0.7071  0.0989
  345SOL    HW1 1034   1.306   3.033   1.203 -2.8457  0.3834  0.7454
  345SOL    HW2 1035   1.302   0.128   1.155 -1.2608  0.1512  0.0599
  346SOL     OW 1036   2.104   2.393   1.491 -0.8179  0.0547 -0.5237
  346SOL    HW1 1037   2.099   2.325   1.572  0.6696 -1.3095  3.7784
  346SOL    HW2 1038   2.170   2.359   1.419  1.6230 -1.0748  1.2886
  347SOL     OW 1039   2.824   3.025   0.712  0.0789  0.0865 -0.6237
  347SOL    HW1 1040   2.880   2.994   0.635  2.2378  0.5371  0.5485
  347SOL    HW2 1041   2.746   2.961   0.714  3.1860  1.8087  0.1032
  348SOL     OW 1042   0.612   1.062   1.082 -0.1858 -0.3834  0.0475
  348SOL    HW1 1043   0.663   0.976   1.055 -2.9281 -2.4247 -0.2278
  348SOL    HW2 1044   0.670   1.117   1.142 -2.3050  0.8573 -0.3706
  349SOL     OW 1045   2.237   0.085   0.012  0.5822 -0.1626  0.0938
  349SOL    HW1 1046   2.240   0.060   2.977  0.7625 -1.4183  0.6165
  349SOL    HW2 1047   2.148   0.121   0.041  1.3831  1.8466  0.6453
  350SOL     OW 1048   2.558   1.952   0.174  0.2468  0.0932 -0.3523
  350SOL    HW1 1049   2.548   2.014   0.252 -2.2909 -1.7865  0.4696
  350SOL    HW2 1050   2.645   1.961   0.124 -3.8269  1.1838 -0.5185
  351SOL     OW 1051   1.023   0.236   0.926 -0.1747 -0.5669 -0.3749
  351SOL    HW1 1052   1.001   0.146   0.879 -1.5004  0.7543 -0.6219
  351SOL    HW2 1053   1.083   0.214   1.007  0.3139  1.0942 -1.8050
  352SOL     OW 1054   2.094   2.240   2.664 -0.1509 -0.2063 -0.1630
  352SOL    HW1 1055   2.113   2.154   2.710 -2.4415 -0.0986 -0.6825
  352SOL    HW2 1056   2.173   2.308   2.675  1.5561 -1.2817  1.5205
  353SOL     OW 1057   0.777   0.663   0.078 -0.9098  0.2166  0.3532
  353SOL    HW1 1058   0.736   0.605   0.011 -0.9394  1.4756 -1.1809
  353SOL    HW2 1059   0.697   0.698   0.136 -1.6743 -0.1601 -0.8118
  354SOL     OW 1060   0.773   1.781   2.850 -0.4147 -0.2550  0.0904
  354SOL    HW1 1061   0.739   1.692   2.892  0.2304 -0.2315  0.4829
  354SOL    HW2 1062   0.872   1.788   2.877  2.5686 -1.2839  1.4054
  355SOL     OW 1063   2.896   2.578   2.143 -0.1626 -0.0713 -0.2531
  355SOL    HW1 1064   2.949   2.512   2.085 -0.7776 -0.2698 -2.5075
  355SOL    HW2 1065   2.954   2.614   2.222  2.3558 -0.4960  3.6296
  356SOL     OW 1066   2.771   0.681   0.847 -0.4772  0.0198 -0.3269
  356SOL    HW1 1067   2.744   0.768   0.802  1.5893 -0.3521  0.1813
  356SOL    HW2 1068   2.703   0.610   0.823 -0.9852  1.0556 -0.9071
  357SOL     OW 1069   2.392   0.319   1.042  0.1586  0.0855  0.3635
  357SOL    HW1 1070   2.428   0.276   1.127 -1.0391 -0.1144 -0.3435
  357SOL    HW2 1071   2.289   0.302   1.045 -2.1617 -1.9207 -0.5229
  358SOL     OW 1072   1.266   2.792   1.495 -0.4427 -0.0373  0.0794
  358SOL    HW1 1073   1.230   2.803   1.403  1.0483  0.1216 -0.3871
  358SOL    HW2 1074   1.212   2.847   1.563  2.4107  0.3817 -0.4609
  359SOL     OW 1075   0.082   2.264   2.635  0.3096 -0.6561 -0.0812
  359SOL    HW1 1076   0.103   2.186   2.572 -0.7960 -1.1534  0.3023
  359SOL    HW2 1077   0.040   2.227   2.721 -3.9165 -2.9997 -0.3856
  360SOL     OW 1078   0.549   1.170   1.394  0.6602 -0.2795  0.5671
  360SOL    HW1 1079   0.551   1.115   1.479 -0.7244 -0.0526  3.2810
  360SOL    HW2 1080   0.502   1.118   1.318  1.2735  2.8307  0.8437
  361SOL     OW 1081   2.415   2.802   0.447 -0.4491 -0.2390 -0.2247
  361SOL    HW1 1082   2.335   2.843   0.398  2.2952  2.0603 -1.3154
  361SOL    HW2 1083   2.497   2.857   0.453 -2.6396 -0.3618 -2.5294
  362SOL     OW 1084   2.978   2.732   0.826  0.1105  0.5316 -0.4638
  362SOL    HW1 1085   0.010   2.698   0.839 -2.1540  2.0044 -1.5746
  362SOL    HW2 1086   2.956   2.715   0.729  0.8846  1.3410  0.3038
  363SOL     OW 1087   0.804   1.524   0.765  0.1865  0.2495  0.5525
  363SOL    HW1 1088   0.829   1.449   0.699 -1.0284  1.1458  1.4404
  363SOL    HW2 1089   0.874   1.527   0.839  0.7806  2.8584  1.6287
  364SOL     OW 1090   0.786   1.195   1.243 -0.5750  0.0151  0.2158
  364SOL    HW1 1091   0.724   1.213   1.323 -0.5783  2.1553 -1.4792
  364SOL    HW2 1092   0.886   1.200   1.272 -1.8312  1.4041 -0.1030
  365SOL     OW 1093   2.467   1.778   0.553  0.2098  0.0430  0.1646
  365SOL    HW1 1094   2.495   1.857   0.614 -0.0518 -4.9776  1.4100
  365SOL    HW2 1095   2.519   1.775   0.466 -1.0743  0.6082  0.6058
  366SOL     OW 1096   2.731   1.518   1.162  0.3937  0.4106 -0.5886
  366SOL    HW1 1097   2.819   1.503   1.207  1.7893 -2.5803 -0.0426
  366SOL    HW2 1098   2.696   1.612   1.162 -1.7506  1.0042  0.5381
  367SOL     OW 1099   2.231   2.023   2.014  0.0841  0.0910 -0.2554
  367SOL    HW1 1100   2.149   1.982   1.965 -1.2332 -2.1552 -2.7298
  367SOL    HW2 1101   2.276   2.090   1.950 -0.1389 -2.5133 -1.3356
  368SOL     OW 1102   2.494   0.959   1.140  0.1572  0.0759  0.4482
  368SOL    HW1 1103   2.564   1.030   1.155  0.2636  1.7930 -2.7621
  368SOL    HW2 1104   2.530   0.866   1.125  1.9446 -1.6248 -1.8699
  369SOL     OW 1105   1.939   2.681   0.245 -0.0755 -0.0270  0.0549
  369SOL    HW1 1106   1.936   2.738   0.333  1.9039 -1.5343  0.4152
  369SOL    HW2 1107   1.958   2.747   0.168  1.4068 -0.5562 -3.1493
  370SOL     OW 1108   2.722   2.414   1.246 -0.1817  0.0371 -0.6674
  370SOL    HW1 1109   2.765   2.480   1.308 -2.6361  0.5653  3.4363
  370SOL    HW2 1110   2.773   2.399   1.157  2.6625 -1.5405 -0.3608
  371SOL     OW 1111   0.783   1.592   2.435  0.0370 -0.0916  1.1153
  371SOL    HW1 1112   0.765   1.687   2.479 -0.6646  1.0294  0.2151
  371SOL    HW2 1113   0.705   1.573   2.372  3.1611 -1.7747  0.6551
  372SOL     OW 1114   0.928   1.208   0.357  0.4372 -0.0307  0.0714
  372SOL    HW1 1115   0.832   1.181   0.322 -0.6083  0.7114  0.0097
  372SOL    HW2 1116   0.987   1.129   0.363 -1.2043  2.6123  2.4824
  373SOL     OW 1117   1.357   2.560   0.258 -0.1849 -0.2587 -0.7017
  373SOL    HW1 1118   1.316   2.480   0.307  2.5001 -0.2096 -0.6645
  373SOL    HW2 1119   1.376   2.537   0.159 -1.1923  0.0561 -1.0367
  374SOL     OW 1120   0.310   1.628   0.118 -0.4416 -0.2367  0.0512
  374SOL    HW1 1121   0.293   1.574   0.037  2.4734 -0.9889  1.1663
  374SOL    HW2 1122   0.230   1.638   0.183  1.2112  0.3908  1.7647
  375SOL     OW 1123   0.976   1.663   1.790  0.1603 -0.4592 -0.3869
  375SOL    HW1 1124   1.068   1.672   1.747  1.2819  0.2165 -0.5952
  375SOL    HW2 1125   0.964   1.576   1.843 -1.5084  2.0592 -0.2663
  376SOL     OW 1126   0.679   2.429   1.589  0.2063  0.1089 -0.1935
  376SOL    HW1 1127   0.613   2.463   1.650  0.2402 -1.5289  0.0870
  376SOL    HW2 1128   0.762   2.483   1.569  0.6944 -1.8925 -3.6202
  377SOL     OW 1129   2.264   1.376   2.284 -0.2113 -0.2842  0.9756
  377SOL    HW1 1130   2.221   1.393   2.374  1.0039 -3.8615  0.1034
  377SOL    HW2 1131   2.206   1.405   2.204  0.3905 -0.5149 -1.3341
  378SOL     OW 1132   1.187   0.322   2.463  0.6816  0.1053  0.5150
  378SOL    HW1 1133   1.163   0.238   2.408  1.8363 -4.4821 -1.5140
  378SOL    HW2 1134   1.282   0.337   2.449 -0.9068  1.3394  0.8914
  379SOL     OW 1135   1.583   0.667   0.679  0.6741  0.1440 -0.8654
  379SOL    HW1 1136   1.623   0.739   0.737 -0.9393 -1.5001 -1.3211
  379SOL    HW2 1137   1.480   0.666   0.691  0.5509  0.8086 -0.3151
  380SOL     OW 1138   3.050   1.943   1.507  0.0910  0.2916 -0.3176
  380SOL    HW1 1139   0.042   2.026   1.472 -0.4301  0.7399 -0.9402
  380SOL    HW2 1140   2.951   1.965   1.503 -0.9519  1.7497 -1.0178
  381SOL     OW 1141   1.637   1.703   1.558 -0.3203  0.4179  0.0740
  381SOL    HW1 1142   1.626   1.645   1.644 -0.3492  0.1062  0.9417
  381SOL    HW2 1143   1.551   1.703   1.500  2.1742 -0.2024 -3.7249
  382SOL     OW 1144   2.900   0.316   2.964 -0.5305 -0.1476  0.1356
  382SOL    HW1 1145   2.939   0.259   2.890  1.6204 -4.0825  1.9284
  382SOL    HW2 1146   2.970   0.348   3.023 -1.3302 -2.3216 -0.1632
  383SOL     OW 1147   1.572   1.405   2.587  0.0164 -0.4730  0.2203
  383SOL    HW1 1148   1.520   1.374   2.671  0.6369 -1.0788  2.0880
  383SOL    HW2 1149   1.651   1.459   2.622 -0.7801 -0.8652  0.8467
  384SOL     OW 1150   1.102   2.426   1.240  0.3129  0.9153 -0.3278
  384SOL    HW1 1151   1.115   2.492   1.167 -0.3773 -0.7340  0.6146
  384SOL    HW2 1152   1.164   2.340   1.228 -1.1196 -0.1393 -0.6425
  385SOL     OW 1153   1.865   2.256   1.171 -0.2488 -0.2082  0.4362
  385SOL    HW1 1154   1.819   2.223   1.085 -0.2886 -2.6324 -0.1521
  385SOL    HW2 1155   1.874   2.175   1.232 -1.4392 -1.5650  1.8536
  386SOL     OW 1156   2.215   2.032   1.311  0.3501  0.0439  0.2477
  386SOL    HW1 1157   2.135   2.034   1.376 -0.7924  2.1383  0.4465
  386SOL    HW2 1158   2.245   2.133   1.293  1.4141  2.4948 -2.1466
  387SOL     OW 1159   0.525   2.205   1.166 -0.4905  0.3784  0.5388
  387SOL    HW1 1160   0.563   2.295   1.192  1.7143 -1.1131 -2.1014
  387SOL    HW2 1161   0.469   2.158   1.235 -1.5313  0.5969 -0.7726
  388SOL     OW 1162   2.716   0.933   1.862 -0.3927  0.0084  0.4062
  388SOL    HW1 1163   2.679   0.864   1.931 -0.8698  1.2351  1.3549
  388SOL    HW2 1164   2.815   0.943   1.883 -1.9279  0.8520  1.4206
  389SOL     OW 1165   1.690   1.279   1.136  0.0081  0.0018  0.2907
  389SOL    HW1 1166   1.622   1.348   1.106  0.1190 -1.0500  0.0665
  389SOL    HW2 1167   1.672   1.267   1.238 -2.0228 -0.5331  1.3648
  390SOL     OW 1168   0.949   2.309   1.883  0.3174 -0.6793  0.9054
  390SOL    HW1 1169   0.950   2.306   1.983  1.3534 -0.7615  0.6438
  390SOL    HW2 1170   0.867   2.265   1.847 -0.4966 -0.7827  1.9521
  391SOL     OW 1171   1.045   1.876   2.574  0.0361 -0.5732  0.5679
  391SOL    HW1 1172   0.943   1.877   2.579  0.8193  0.7520 -0.8633
  391SOL    HW2 1173   1.086   1.965   2.556  0.6891 -2.4824 -2.4112
  392SOL     OW 1174   3.058   2.694   2.330 -0.2961 -0.2363 -0.0071
  392SOL    HW1 1175   3.016   2.670   2.418  1.4241 -0.2283  0.1067
  392SOL    HW2 1176   0.097   2.708   2.349  3.1767 -1.4804  1.6438
  393SOL     OW 1177   1.935   2.857   0.471 -0.2960  0.0508  0.7388
  393SOL    HW1 1178   1.846   2.897   0.472  0.6554  0.1188  0.5727
  393SOL    HW2 1179   1.968   2.843   0.565  2.2307 -2.3163 -1.7015
  394SOL     OW 1180   0.441   0.721   2.431 -0.2823  0.8759  0.1505
  394SOL    HW1 1181   0.362   0.782   2.422  0.9026 -1.8750  0.4695
  394SOL    HW2 1182   0.481   0.701   2.339  0.9721  1.4107  0.6488
  395SOL     OW 1183   0.451   1.423   1.414 -0.4967  0.2289 -0.0566
  395SOL    HW1 1184   0.500   1.336   1.394 -0.0557 -1.2730  1.8327
  395SOL    HW2 1185   0.485   1.467   1.504  0.8033 -0.1474  1.7297
  396SOL     OW 1186   1.541   1.609   1.945 -0.0032  0.3075  0.3919
  396SOL    HW1 1187   1.444   1.575   1.957 -1.8971 -4.3347  1.1582
  396SOL    HW2 1188   1.590   1.594   2.035 -1.3487 -0.7766 -0.0654
  397SOL     OW 1189   0.578   0.621   2.637 -0.2534 -0.4803  0.2455
  397SOL    HW1 1190   0.545   0.653   2.543  0.6503  1.7225  0.3490
  397SOL    HW2 1191   0.495   0.618   2.700 -1.4001  1.8962  1.9596
  398SOL     OW 1192   0.418   2.100   2.766 -0.1225 -0.0466 -0.1959
  398SOL    HW1 1193   0.493   2.100   2.700  0.8769  0.3958  1.9799
  398SOL    HW2 1194   0.350   2.026   2.744 -1.5970 -2.1101  0.5799
  399SOL     OW 1195   0.219   1.878   2.198  0.2611  0.7813 -0.3393
  399SOL    HW1 1196   0.297   1.849   2.140 -2.3975  1.2480  1.3010
  399SOL    HW2 1197   0.131   1.838   2.170  4.2663 -1.1129 -1.3074
  400SOL     OW 1198   2.639   0.223   1.614  0.0969 -1.1489 -0.3671
  400SOL    HW1 1199   2.533   0.218   1.621 -1.0481  1.4541  2.9580
  400SOL    HW2 1200   2.661   0.310   1.562  0.2357 -0.2898 -2.7259
  401SOL     OW 1201   0.754   1.549   0.304  0.1745  0.6640  0.3431
  401SOL    HW1 1202   0.851   1.514   0.312  0.5296 -2.7479  1.5016
  401SOL    HW2 1203   0.741   1.622   0.375  0.1377  0.0730 -0.5301
  402SOL     OW 1204   0.290   2.469   2.004  0.2068  0.0427 -0.0207
  402SOL    HW1 1205   0.190   2.444   2.017 -1.2812 -1.5943 -1.0659
  402SOL    HW2 1206   0.340   2.429   2.083 -2.4236  0.6251 -1.1486
  403SOL     OW 1207   0.536   1.051   2.097  0.3264  0.6637  0.2969
  403SOL    HW1 1208   0.570   1.104   2.177 -0.5911 -2.3119 -1.0883
  403SOL    HW2 1209   0.437   1.034   2.098 -0.1757  0.1509  0.0937
  404SOL     OW 1210   1.690   2.348   1.595 -0.4799  0.0169  0.0028
  404SOL    HW1 1211   1.746   2.380   1.517 -0.4092  1.9682 -0.5738
  404SOL    HW2 1212   1.624   2.279   1.570  0.8775  2.5502  0.1345
  405SOL     OW 1213   2.480   2.327   2.904  0.6281  0.0141  1.0601
  405SOL    HW1 1214   2.543   2.402   2.875  0.4604 -0.4524 -2.4406
  405SOL    HW2 1215   2.394   2.364   2.939  0.1367 -0.0292 -1.2560
  406SOL     OW 1216   0.676   1.223   2.578  0.6263 -0.1443  0.4382
  406SOL    HW1 1217   0.639   1.174   2.661  0.5940 -0.6043  1.5658
  406SOL    HW2 1218   0.751   1.287   2.595 -1.2727 -2.6892 -0.3918
  407SOL     OW 1219   2.343   2.850   2.911 -0.8029 -0.2387  0.2999
  407SOL    HW1 1220   2.395   2.816   2.830 -0.4689 -0.4554  1.8211
  407SOL    HW2 1221   2.403   2.835   2.992 -1.1125 -0.4342  0.9084
  408SOL     OW 1222   2.700   2.545   0.189  0.0380 -0.8503 -0.1507
  408SOL    HW1 1223   2.749   2.473   0.138 -0.9990 -2.1410  0.1897
  408SOL    HW2 1224   2.599   2.525   0.196 -2.3020  3.5518  1.2275
  409SOL     OW 1225   2.243   1.143   0.298 -0.1348 -0.3481 -0.0168
  409SOL    HW1 1226   2.318   1.135   0.368  2.2162  0.6715 -1.6931
  409SOL    HW2 1227   2.160   1.191   0.335 -0.0607 -1.8577  1.9252
  410SOL     OW 1228   2.880   1.637   0.816 -0.1212  0.0706  0.3311
  410SOL    HW1 1229   2.789   1.610   0.849  1.3002 -1.1239  0.0712
  410SOL    HW2 1230   2.951   1.564   0.826 -0.0321 -0.0759  0.6702
  411SOL     OW 1231   0.269   1.458   0.741  0.7828  0.1793 -0.0403
  411SOL    HW1 1232   0.360   1.458   0.783  0.0153 -1.7171 -1.5523
  411SOL    HW2 1233   0.275   1.421   0.645  2.4964 -0.5675  0.0881
  412SOL     OW 1234   2.183   2.318   0.734 -0.0592 -0.2730  0.0498
  412SOL    HW1 1235   2.162   2.324   0.833  0.4552  0.7322 -1.4233
  412SOL    HW2 1236   2.174   2.223   0.700  1.8681  3.4859  3.1409
  413SOL     OW 1237   1.488   1.182   1.966  0.1119  0.3361 -0.2127
  413SOL    HW1 1238   1.420   1.152   1.899 -0.2766  1.1160 -0.1212
  413SOL    HW2 1239   1.438   1.201   2.055 -2.5498  0.9109  1.5312
  414SOL     OW 1240   2.980   2.778   0.198 -0.2535 -0.1814 -0.3694
  414SOL    HW1 1241   2.994   2.742   0.100 -0.8829  0.2722 -1.0484
  414SOL    HW2 1242   2.881   2.791   0.212 -0.9499 -0.5532 -2.2179
  415SOL     OW 1243   1.074   2.038   1.580 -0.7272 -0.1977  0.1848
  415SOL    HW1 1244   0.979   2.048   1.541 -0.4777 -0.5490 -1.5689
  415SOL    HW2 1245   1.089   2.095   1.664  1.9993  1.6026 -1.0133
  416SOL     OW 1246   2.828   2.340   2.455 -0.0374 -0.8594 -0.4281
  416SOL    HW1 1247   2.884   2.412   2.502  1.2175  0.8073 -1.6190
  416SOL    HW2 1248   2.884   2.255   2.445  0.3598 -0.1044 -1.1958
  417SOL     OW 1249   2.573   0.508   1.316  0.4705 -0.3460  0.1288
  417SOL    HW1 1250   2.522   0.421   1.288 -0.6170 -0.6097  1.8626
  417SOL    HW2 1251   2.652   0.490   1.378  1.6669 -0.7647  0.2907
  418SOL     OW 1252   2.851   3.062   0.192 -0.2629 -0.2726 -0.2906
  418SOL    HW1 1253   2.797   2.979   0.180  2.1200  2.9717 -0.6944
  418SOL    HW2 1254   2.801   0.066   0.251 -2.8352  1.8000 -1.7524
  419SOL     OW 1255   3.040   1.540   1.339 -0.4824  0.7979  0.2974
  419SOL    HW1 1256   2.960   1.477   1.358 -0.6543 -0.4419  1.2538
  419SOL    HW2 1257   0.064   1.504   1.377 -2.5837 -0.1535 -0.2030
  420SOL     OW 1258   0.228   1.394   3.002 -0.4191 -0.1660  0.1243
  420SOL    HW1 1259   0.195   1.341   0.018  0.1212  2.1536 -0.4239
  420SOL    HW2 1260   0.318   1.362   2.973  2.3361  0.4687 -1.5612
  421SOL     OW 1261   2.478   2.614   2.433  0.2365 -0.3402  0.0114
  421SOL    HW1 1262   2.414   2.694   2.445  0.5423 -0.3806  1.8730
  421SOL    HW2 1263   2.437   2.556   2.357 -3.8338 -0.8023 -1.8447
  422SOL     OW 1264   0.245   0.912   2.431  0.4185 -0.1012  0.6566
  422SOL    HW1 1265   0.240   0.970   2.347 -0.0766 -2.1160  2.4613
  422SOL    HW2 1266   0.153   0.919   2.474  1.3734 -0.4229 -1.1323
  423SOL     OW 1267   1.164   2.009   0.614 -0.1944 -0.7047  0.3297
  423SOL    HW1 1268   1.149   2.052   0.708  1.4440  1.2130  0.4220
  423SOL    HW2 1269   1.110   2.060   0.546  0.2646  0.2263  2.4392
  424SOL     OW 1270   0.838   1.727   1.581 -0.1383  0.0713 -0.5813
  424SOL    HW1 1271   0.879   1.693   1.671 -0.4467  0.9924  3.8287
  424SOL    HW2 1272   0.744   1.742   1.610  2.9608 -2.3100 -1.1345
  425SOL     OW 1273   2.578   2.394   2.577  0.1187 -0.4054 -0.4002
  425SOL    HW1 1274   2.662   2.341   2.548 -0.3754 -1.6240  0.8577
  425SOL    HW2 1275   2.576   2.483   2.528  1.0847  0.9902 -0.3384
  426SOL     OW 1276   1.500   0.789   1.114  0.6392 -0.2022 -0.5573
  426SOL    HW1 1277   1.591   0.830   1.122  0.8652  0.7889  0.0658
  426SOL    HW2 1278   1.447   0.827   1.039 -0.0160 -1.8120  0.2958
  427SOL     OW 1279   0.028   1.609   2.641  0.2075 -0.1907 -0.9971
  427SOL    HW1 1280   0.037   1.612   2.743  1.7813 -2.2064  0.1587
  427SOL    HW2 1281   3.001   1.562   2.628  0.1702  1.9329  1.6525
  428SOL     OW 1282   1.010   1.461   0.300  0.2620 -0.3444 -0.4751
  428SOL    HW1 1283   1.073   1.475   0.224  1.9539 -0.4454  1.3471
  428SOL    HW2 1284   0.987   1.366   0.313 -0.3999  3.7575 -1.1093
  429SOL     OW 1285   0.178   2.498   0.441 -0.3289  0.2120  0.2862
  429SOL    HW1 1286   0.241   2.420   0.423  1.0835  1.9061 -0.2489
  429SOL    HW2 1287   0.102   2.501   0.373 -1.7306 -0.2311 -0.0931
  430SOL     OW 1288   0.671   2.258   2.225  0.1256  0.1980 -0.6864
  430SOL    HW1 1289   0.658   2.352   2.268  2.6485  3.4006 -0.0437
  430SOL    HW2 1290   0.608   2.242   2.147  2.2057 -0.1846 -0.5772
  431SOL     OW 1291   2.841   1.133   0.032  0.4021 -0.3270  0.0078
  431SOL    HW1 1292   2.859   1.104   2.999  0.1489 -3.4993  0.1045
  431SOL    HW2 1293   2.810   1.049   0.081 -1.1563  1.0127 -1.0113
  432SOL     OW 1294   1.808   2.553   2.632 -0.2268 -0.7836  0.5753
  432SOL    HW1 1295   1.869   2.535   2.714  1.6323 -3.5933 -1.5783
  432SOL    HW2 1296   1.762   2.642   2.653 -0.5259 -3.2543  1.2894
  433SOL     OW 1297   1.112   2.390   0.853 -0.5809 -0.3926  0.0294
  433SOL    HW1 1298   1.015   2.374   0.851  1.2705  0.4120 -2.9006
  433SOL    HW2 1299   1.126   2.470   0.917  1.1317  0.6451  1.8877
  434SOL     OW 1300   1.573   1.914   2.285 -0.3212  0.2571 -0.1517
  434SOL    HW1 1301   1.634   1.994   2.303  2.2460  2.0087  2.2555
  434SOL    HW2 1302   1.583   1.845   2.361  3.2155 -0.5445  0.8689
  435SOL     OW 1303   2.118   0.692   0.213  0.2317  0.4602  0.1826
  435SOL    HW1 1304   2.138   0.783   0.167 -1.1661  1.5521  1.3734
  435SOL    HW2 1305   2.065   0.707   0.302 -1.2279 -0.9093  2.7515
  436SOL     OW 1306   0.504   2.666   2.191  0.0988 -0.5501  0.2793
  436SOL    HW1 1307   0.439   2.595   2.170 -0.4111 -1.0466  0.4890
  436SOL    HW2 1308   0.581   2.637   2.254  4.2642 -0.2225 -0.9149
  437SOL     OW 1309   2.138   2.886   1.549 -0.4024  0.5995  0.2700
  437SOL    HW1 1310   2.099   2.796   1.520  0.3757 -0.2586 -2.0186
  437SOL    HW2 1311   2.064   2.955   1.541  1.2598 -1.8491 -1.1978
  438SOL     OW 1312   0.140   1.768   0.407 -0.0245  0.2235  0.1411
  438SOL    HW1 1313   0.185   1.774   0.499  0.1315 -1.5118 -1.1376
  438SOL    HW2 1314   0.172   1.844   0.346  0.3576  1.3832  2.6586
  439SOL     OW 1315   0.063   2.964   0.871 -0.3778 -0.9339 -0.2734
  439SOL    HW1 1316   0.070   3.018   0.789 -2.7000 -0.1674  3.1705
  439SOL    HW2 1317   0.021   2.876   0.847 -0.2054 -0.0319  0.8277
  440SOL     OW 1318   2.687   2.766   2.312  0.4298 -0.2264 -0.0195
  440SOL    HW1 1319   2.599   2.711   2.309 -1.0000  0.6336 -0.0590
  440SOL    HW2 1320   2.765   2.701   2.299  3.2798  0.4399  0.3162
  441SOL     OW 1321   0.116   0.742   0.315  0.1995  0.6526 -0.8439
  441SOL    HW1 1322   0.147   0.838   0.326 -1.6211  0.0110 -3.8459
  441SOL    HW2 1323   0.018   0.734   0.332 -0.1495  1.0271 -0.1996
  442SOL     OW 1324   1.552   2.307   2.202 -0.3244 -0.0132  0.4131
  442SOL    HW1 1325   1.633   2.258   2.233 -0.6836 -1.7618 -1.6370
  442SOL    HW2 1326   1.562   2.408   2.218 -1.4097  1.1750 -0.8658
  443SOL     OW 1327   0.807   2.890   2.819  0.1992  0.4921 -0.8254
  443SOL    HW1 1328   0.841   2.851   2.732 -0.4257 -0.0894  2.7616
  443SOL    HW2 1329   0.866   2.844   2.884 -1.2153 -1.4651  1.2632
  444SOL     OW 1330   1.490   1.726   2.666 -0.4921  0.7319  0.0594
  444SOL    HW1 1331   1.398   1.686   2.646 -0.5364 -0.2633  1.2630
  444SOL    HW2 1332   1.555   1.721   2.589 -0.8617  0.0433  3.5555
  445SOL     OW 1333   0.413   0.144   1.009  0.1332  0.2426 -0.5837
  445SOL    HW1 1334   0.370   0.211   0.942 -0.5329  0.6959 -2.6565
  445SOL    HW2 1335   0.356   0.061   1.019  1.2230  2.7291  0.3082
  446SOL     OW 1336   1.716   0.884   0.864  0.0010 -0.1968  0.3366
  446SOL    HW1 1337   1.749   0.807   0.922 -3.6198  3.6965 -0.3925
  446SOL    HW2 1338   1.796   0.933   0.833 -3.5125 -0.1754  2.2502
  447SOL     OW 1339   2.857   0.715   0.230 -0.0556  0.3372 -0.6761
  447SOL    HW1 1340   2.817   0.618   0.234 -0.6057  0.8185 -0.5828
  447SOL    HW2 1341   2.885   0.739   0.328 -1.3081 -0.5602  0.9689
  448SOL     OW 1342   2.239   1.882   1.088 -0.1782 -0.1631 -0.8333
  448SOL    HW1 1343   2.273   1.794   1.131 -2.6491 -3.2733 -0.1683
  448SOL    HW2 1344   2.243   1.954   1.159  1.8968 -0.7831  0.6964
  449SOL     OW 1345   1.034   1.174   2.939 -0.0349 -0.2047  0.1537
  449SOL    HW1 1346   1.079   1.194   2.849  1.6284  1.3999  0.6099
  449SOL    HW2 1347   0.956   1.237   2.955  0.0665 -0.0644 -0.5948
  450SOL     OW 1348   2.285   2.793   2.393  0.2985 -0.1656 -0.3169
  450SOL    HW1 1349   2.183   2.784   2.382 -1.7130  0.4161  2.2908
  450SOL    HW2 1350   2.315   2.893   2.393 -2.4790  2.6844 -0.0373
  451SOL     OW 1351   2.405   0.758   2.523 -0.2299 -0.2518 -0.0164
  451SOL    HW1 1352   2.412   0.684   2.451  0.7142  0.2430  1.7139
  451SOL    HW2 1353   2.317   0.809   2.529  0.3024 -2.2180 -1.6027
  452SOL     OW 1354   1.628   1.296   1.441 -0.6037 -0.0939  0.9044
  452SOL    HW1 1355   1.678   1.386   1.428  0.6653  0.7752 -1.5641
  452SOL    HW2 1356   1.528   1.316   1.452 -0.9678 -1.3359  1.6217
  453SOL     OW 1357   1.619   0.368   1.868  0.1403  0.2200  0.1338
  453SOL    HW1 1358   1.568   0.310   1.933 -0.2099  0.7663  1.8555
  453SOL    HW2 1359   1.598   0.337   1.773  0.2756  1.0111  0.1967
  454SOL     OW 1360   2.838   0.804   2.949  0.3988 -0.1558  0.5149
  454SOL    HW1 1361   2.794   0.713   2.932 -0.2959 -0.6032 -0.6715
  454SOL    HW2 1362   2.918   0.793   3.006 -3.8933 -0.2196  2.0890
  455SOL     OW 1363   2.246   1.504   1.532 -0.5897 -0.2322  0.0059
  455SOL    HW1 1364   2.302   1.420   1.550 -0.4562  2.3110 -0.4671
  455SOL    HW2 1365   2.151   1.486   1.519  2.8962  1.5493  0.0877
  456SOL     OW 1366   1.763   2.876   1.554 -0.4668  0.1880 -0.1085
  456SOL    HW1 1367   1.762   2.794   1.486 -0.4883  0.9406 -0.2907
  456SOL    HW2 1368   1.833   2.941   1.516 -2.1409 -1.6625 -1.3612
  457SOL     OW 1369   1.318   2.978   0.573  0.2884 -0.0451 -0.0844
  457SOL    HW1 1370   1.359   3.062   0.612 -0.2018 -1.1051  0.0024
  457SOL    HW2 1371   1.350   2.976   0.476  1.6561 -0.9242 -1.7071
  458SOL     OW 1372   2.945   2.938   0.500  0.0207 -0.2528  0.0149
  458SOL    HW1 1373   2.967   2.840   0.531  1.1463  0.9953  2.7403
  458SOL    HW2 1374   3.002   2.962   0.420  0.4619 -0.2354  2.2409
  459SOL     OW 1375   1.894   1.399   0.667 -0.9386  0.4275 -0.3030
  459SOL    HW1 1376   1.919   1.307   0.704 -0.2813  1.0591  2.1210
  459SOL    HW2 1377   1.794   1.417   0.648 -1.3336  0.0107 -0.5037
  460SOL     OW 1378   0.918   2.464   2.405 -0.1949 -0.6632  0.2321
  460SOL    HW1 1379   0.955   2.560   2.409 -0.6427  0.5067  0.9122
  460SOL    HW2 1380   0.960   2.397   2.465 -2.5600  3.2467 -1.2919
  461SOL     OW 1381   0.626   1.575   2.935  0.1306 -0.0058  0.3442
  461SOL    HW1 1382   0.556   1.548   2.865 -0.2824  0.9666  0.1230
  461SOL    HW2 1383   0.616   1.532   3.028 -1.3861  1.5711  0.2092
  462SOL     OW 1384   2.320   2.155   0.442 -0.3287  0.4079  0.3238
  462SOL    HW1 1385   2.272   2.127   0.526  0.3695  1.1082 -2.4395
  462SOL    HW2 1386   2.275   2.107   0.363 -0.7942  1.5638  0.8143
  463SOL     OW 1387   2.757   0.472   0.286  0.1305  0.2923 -0.4834
  463SOL    HW1 1388   2.816   0.420   0.353  0.0630  0.2367 -2.6458
  463SOL    HW2 1389   2.663   0.428   0.288 -0.1758  1.2600  0.4953
  464SOL     OW 1390   0.403   1.350   0.517  0.3627  0.3107 -0.1113
  464SOL    HW1 1391   0.452   1.435   0.500 -1.0764  0.6339  0.2644
  464SOL    HW2 1392   0.452   1.262   0.499 -0.2082 -2.4308  0.0837
  465SOL     OW 1393   2.187   0.199   1.407 -0.7845 -0.3704 -0.5514
  465SOL    HW1 1394   2.171   0.107   1.369 -0.0146  1.3622  2.3910
  465SOL    HW2 1395   2.107   0.264   1.384 -1.2828  2.3998  0.1032
  466SOL     OW 1396   2.310   2.998   0.829 -0.4341  0.1088  0.8519
  466SOL    HW1 1397   2.321   2.926   0.758  1.3215 -0.0139 -1.3368
  466SOL    HW2 1398   2.397   3.051   0.832  0.1128  0.8422 -1.9082
  467SOL     OW 1399   2.933   0.500   2.319 -0.5498  0.2204 -0.5982
  467SOL    HW1 1400   2.909   0.546   2.406  0.0758 -3.0579 -1.7341
  467SOL    HW2 1401   3.016   0.438   2.337  2.5892 -2.5238 -0.7834
  468SOL     OW 1402   2.900   0.089   2.164  0.0032 -0.4255  0.0514
  468SOL    HW1 1403   2.997   0.115   2.154  1.9817  1.8859 -0.8607
  468SOL    HW2 1404   2.866   0.031   2.091  1.8784  1.6212  0.2774
  469SOL     OW 1405   0.756   0.110   1.664  0.3882 -0.6606 -0.4093
  469SOL    HW1 1406   0.750   0.173   1.745  1.1449  0.0851  0.6715
  469SOL    HW2 1407   0.739   0.154   1.576 -0.2475 -4.2359 -1.3649
  470SOL     OW 1408   2.567   0.848   1.642  0.1494 -0.6550 -0.0219
  470SOL    HW1 1409   2.613   0.791   1.572 -1.7826  0.3461 -1.1658
  470SOL    HW2 1410   2.622   0.848   1.728 -0.6656 -1.8669 -1.3625
  471SOL     OW 1411   2.799   1.722   2.573  0.0478  0.4291  0.2928
  471SOL    HW1 1412   2.775   1.810   2.614  0.7685  0.0069 -1.5127
  471SOL    HW2 1413   2.716   1.660   2.573 -3.3412 -2.1040  0.2908
  472SOL     OW 1414   0.783   1.783   0.458  0.2787 -0.1062 -0.2266
  472SOL    HW1 1415   0.878   1.752   0.461 -0.0813 -0.1674 -1.5908
  472SOL    HW2 1416   0.769   1.863   0.395 -0.1454  2.7607  0.7718
  473SOL     OW 1417   1.616   2.145   1.962  0.6574 -0.1299  0.1725
  473SOL    HW1 1418   1.639   2.045   1.967 -0.6305  0.8735  1.9737
  473SOL    HW2 1419   1.530   2.154   2.013  0.0207  1.9164 -1.0350
  474SOL     OW 1420   0.993   2.769   2.648 -0.0815  0.3947  0.3765
  474SOL    HW1 1421   1.015   2.754   2.547 -0.9287  1.7333  0.6134
  474SOL    HW2 1422   0.988   2.677   2.689 -0.6874 -1.3005 -3.1082
  475SOL     OW 1423   0.744   1.845   2.547 -0.1571 -0.5742 -0.3102
  475SOL    HW1 1424   0.712   1.917   2.486  1.5828 -1.7333  0.2182
  475SOL    HW2 1425   0.673   1.813   2.617  0.2053 -0.2675  0.8155
  476SOL     OW 1426   0.646   0.533   0.935 -0.8242  0.5645  0.1187
  476SOL    HW1 1427   0.599   0.598   0.997 -2.2641  0.2040 -1.9062
  476SOL    HW2 1428   0.587   0.514   0.854 -0.9132 -0.3582  2.8510
  477SOL     OW 1429   1.853   2.406   1.392 -0.0358  0.2225 -0.0680
  477SOL    HW1 1430   1.855   2.349   1.304  0.9102 -0.2724 -0.7302
  477SOL    HW2 1431   1.945   2.422   1.435  0.6636  0.3085  0.0040
  478SOL     OW 1432   0.253   0.401   2.810 -0.3316  0.1161 -0.0341
  478SOL    HW1 1433   0.158   0.433   2.794 -0.7215  1.2534 -1.0437
  478SOL    HW2 1434   0.314   0.480   2.801 -2.0884  0.5540  3.2463
  479SOL     OW 1435   1.111   0.456   1.264 -0.2117 -0.0932  0.4926
  479SOL    HW1 1436   1.014   0.491   1.258  0.1454 -1.4782 -0.6096
  479SOL    HW2 1437   1.167   0.488   1.187  0.7024  1.3137 -1.6608
  480SOL     OW 1438   2.848   2.327   0.100  0.9902 -0.4543 -0.4650
  480SOL    HW1 1439   2.799   2.260   0.038  0.2204 -3.7505 -2.3547
  480SOL    HW2 1440   2.915   2.270   0.153 -1.1177  0.7632 -2.3994
  481SOL     OW 1441   0.146   0.702   1.468 -0.7662  0.0911  0.7164
  481SOL    HW1 1442   0.127   0.804   1.474  0.6128  0.9212 -1.1649
  481SOL    HW2 1443   0.081   0.643   1.517  2.4447 -1.3467  0.6631
  482SOL     OW 1444   0.911   0.076   1.311  0.2564 -0.1451  0.3130
  482SOL    HW1 1445   0.813   0.083   1.281  1.0141 -0.2140  1.5016
  482SOL    HW2 1446   0.932   0.002   1.376 -1.0047  0.3116  1.9354
  483SOL     OW 1447   2.949   1.397   2.457  0.5003 -0.1396 -0.2409
  483SOL    HW1 1448   3.003   1.329   2.512  2.2939 -1.6814  2.0770
  483SOL    HW2 1449   2.862   1.364   2.421 -0.7932 -2.3403  0.0895
  484SOL     OW 1450   1.648   1.467   1.734 -0.0488 -0.0157 -0.0493
  484SOL    HW1 1451   1.608   1.504   1.820 -1.4634 -0.6273 -1.1658
  484SOL    HW2 1452   1.749   1.459   1.739 -0.6959  0.1688  0.8664
  485SOL     OW 1453   0.264   2.727   2.384 -0.3918 -0.2160 -0.1801
  485SOL    HW1 1454   0.316   2.729   2.476  1.3829 -0.6625  2.9028
  485SOL    HW2 1455   0.339   2.721   2.315  2.8667 -0.4484  1.6918
  486SOL     OW 1456   1.030   3.061   0.748  0.3737 -0.1527  0.4307
  486SOL    HW1 1457   1.106   0.029   0.687 -1.1919  0.6540  0.2933
  486SOL    HW2 1458   0.946   3.058   0.689  1.4720  1.7740  1.1329
  487SOL     OW 1459   1.487   0.030   0.930  0.2034  0.2883  0.3130
  487SOL    HW1 1460   1.549   0.109   0.950  0.8225  0.3168  1.0918
  487SOL    HW2 1461   1.429   0.020   1.016 -2.0451  2.2633  0.7580
  488SOL     OW 1462   2.184   1.204   0.742  0.2354 -0.0356 -0.2854
  488SOL    HW1 1463   2.247   1.223   0.664 -2.6167  0.5816  1.7767
  488SOL    HW2 1464   2.237   1.161   0.817 -2.9736  0.2858 -2.3944
  489SOL     OW 1465   1.207   0.788   1.235 -0.7063 -0.1907  0.4843
  489SOL    HW1 1466   1.305   0.792   1.259 -1.5237 -1.5209 -0.2141
  489SOL    HW2 1467   1.182   0.705   1.184 -0.1030 -1.6500  1.3204
  490SOL     OW 1468   1.017   0.608   2.732  0.4289 -0.0631  0.3325
  490SOL    HW1 1469   1.076   0.656   2.803 -0.4820 -0.0510 -3.0458
  490SOL    HW2 1470   0.921   0.584   2.762  0.1857 -1.5625 -3.5706
  491SOL     OW 1471   0.858   2.327   0.860  0.7301  0.4821 -0.5864
  491SOL    HW1 1472   0.802   2.407   0.836  0.8771  0.9529 -4.2436
  491SOL    HW2 1473   0.823   2.245   0.805 -0.2083 -1.1200 -0.0651
  492SOL     OW 1474   1.206   1.703   1.648  0.2468 -0.0551 -0.5272
  492SOL    HW1 1475   1.252   1.796   1.646  0.0251  2.6997  3.6947
  492SOL    HW2 1476   1.278   1.631   1.655  1.0377  2.1571  2.0841
  493SOL     OW 1477   0.573   1.494   0.127  0.2748 -0.2345  0.1978
  493SOL    HW1 1478   0.492   1.551   0.157  0.4461  1.3934  2.1750
  493SOL    HW2 1479   0.655   1.516   0.184  1.7652 -1.7260  0.2724
  494SOL     OW 1480   2.018   2.834   0.713  0.1593 -0.4112  0.3360
  494SOL    HW1 1481   1.954   2.776   0.767 -0.7579  0.1466 -4.2342
  494SOL    HW2 1482   2.115   2.798   0.705  1.9748  0.5987  0.5047
  495SOL     OW 1483   0.049   1.538   2.301 -0.9021 -0.2027  0.6272
  495SOL    HW1 1484   3.039   1.500   2.355 -0.1129  0.0369  0.6536
  495SOL    HW2 1485   0.142   1.539   2.348 -0.7598  0.2924 -0.9510
  496SOL     OW 1486   0.505   2.390   2.618  0.6934 -0.6487  0.0591
  496SOL    HW1 1487   0.539   2.293   2.619 -1.9164  0.8790 -0.3570
  496SOL    HW2 1488   0.408   2.395   2.655 -1.5711 -1.0254 -2.1843
  497SOL     OW 1489   1.559   1.342   0.437 -0.6655 -0.3723 -0.0925
  497SOL    HW1 1490   1.468   1.387   0.413 -1.9577 -1.1758 -0.5393
  497SOL    HW2 1491   1.605   1.392   0.514 -1.4085  0.2655  0.8659
  498SOL     OW 1492   3.037   2.506   0.258 -0.6505 -0.5647  0.3935
  498SOL    HW1 1493   3.034   2.595   0.210  0.4928  0.7427  0.5710
  498SOL    HW2 1494   2.972   2.440   0.212  1.1327  0.4209 -1.2137
  499SOL     OW 1495   2.270   2.776   0.675 -0.6185  0.1091  0.8528
  499SOL    HW1 1496   2.329   2.793   0.593  0.7916 -0.6386  0.3037
  499SOL    HW2 1497   2.326   2.722   0.741  1.8749  0.4666  0.3512
  500SOL     OW 1498   0.193   0.404   2.362  0.0722  0.2027  0.3107
  500SOL    HW1 1499   0.157   0.499   2.385 -1.4833 -0.8322 -0.2041
  500SOL    HW2 1500   0.256   0.371   2.435 -0.0969 -1.2446 -3.0738
  501SOL     OW 1501   1.734   2.639   1.470  0.4635 -0.1334 -0.0914
  501SOL    HW1 1502   1.766   2.560   1.415 -0.3838 -0.7129  0.0650
  501SOL    HW2 1503   1.654   2.611   1.523  0.7881 -2.9329  0.9428
  502SOL     OW 1504   0.010   0.035   2.569  0.0367  0.2702 -0.3209
  502SOL    HW1 1505   0.113   0.028   2.569  2.5472 -1.2432 -0.1845
  502SOL    HW2 1506   3.032   3.036   2.498  1.7528 -2.1020  1.3834
  503SOL     OW 1507   1.965   2.536   2.162 -0.1596  0.2257 -0.1445
  503SOL    HW1 1508   1.914   2.476   2.096 -0.6198 -2.0221 -1.0223
  503SOL    HW2 1509   1.900   2.556   2.241  0.9157  1.7989  0.6952
  504SOL     OW 1510   2.052   0.247   1.964 -0.3094  0.2846 -0.1628
  504SOL    HW1 1511   1.976   0.310   1.951  4.0657 -0.8510  0.4520
  504SOL    HW2 1512   2.142   0.275   1.924 -0.7375  0.7569 -0.3993
  505SOL     OW 1513   2.617   1.281   1.139  0.3819  0.3174  0.5221
  505SOL    HW1 1514   2.664   1.374   1.134  1.5915  3.7352  1.2137
  505SOL    HW2 1515   2.533   1.289   1.200 -0.9700  1.6783  0.1618
  506SOL     OW 1516   0.243   1.693   1.784 -0.3236 -0.4446 -0.0537
  506SOL    HW1 1517   0.284   1.722   1.698 -1.0725 -0.3570  0.0043
  506SOL    HW2 1518   0.236   1.775   1.844  1.8712 -3.0331  0.4288
  507SOL     OW 1519   0.558   2.469   1.275  0.1984  0.3171  0.1971
  507SOL    HW1 1520   0.587   2.476   1.371 -2.1709  1.0181 -1.3653
  507SOL    HW2 1521   0.624   2.516   1.210  3.1308  0.5773  0.4337
  508SOL     OW 1522   0.253   0.450   1.933 -0.6569  0.1650 -0.1862
  508SOL    HW1 1523   0.283   0.430   2.026  1.4549  2.0254 -3.7199
  508SOL    HW2 1524   0.193   0.378   1.897 -0.3043  0.7114  0.5209
  509SOL     OW 1525   1.633   2.681   2.002 -0.0831  0.0630  0.0699
  509SOL    HW1 1526   1.611   2.620   1.925  2.4428  0.1976  0.5722
  509SOL    HW2 1527   1.714   2.738   1.987 -2.0567 -0.6522 -2.5964
  510SOL     OW 1528   2.152   1.393   2.526  0.4668 -0.7553 -0.2578
  510SOL    HW1 1529   2.055   1.415   2.490 -3.9394  0.1855  0.5783
  510SOL    HW2 1530   2.158   1.335   2.611  0.6844 -0.9683  1.6496
  511SOL     OW 1531   1.181   1.095   1.031 -0.3244 -0.4381  0.3082
  511SOL    HW1 1532   1.277   1.083   1.066  0.8982 -2.7664 -2.0552
  511SOL    HW2 1533   1.114   1.077   1.103  0.8925 -2.6121 -1.7901
  512SOL     OW 1534   2.995   1.615   0.542 -0.0589  0.5425 -0.4900
  512SOL    HW1 1535   2.947   1.642   0.629 -2.7679  0.1917 -0.8935
  512SOL    HW2 1536   3.044   1.691   0.502 -1.8672 -0.6576 -0.0060
  513SOL     OW 1537   1.117   2.095   2.218 -0.1751  1.0179  0.0100
  513SOL    HW1 1538   1.138   2.111   2.314  1.0349 -0.9165  0.0291
  513SOL    HW2 1539   1.036   2.149   2.186  2.0991 -1.0484 -0.5948
  514SOL     OW 1540   0.258   2.120   1.010  0.0200  0.7614  0.2888
  514SOL    HW1 1541   0.183   2.054   0.987  1.8215 -0.8710 -0.8425
  514SOL    HW2 1542   0.351   2.066   1.007  4.3236 -3.1144 -0.8273
  515SOL     OW 1543   1.805   0.711   1.751  0.8917 -0.2192 -1.0283
  515SOL    HW1 1544   1.783   0.798   1.809  0.2295 -0.2835  1.4321
  515SOL    HW2 1545   1.746   0.694   1.668 -1.7651 -0.2430 -1.8644
  516SOL     OW 1546   2.149   0.425   0.134 -0.0520  0.1418 -0.3181
  516SOL    HW1 1547   2.231   0.398   0.083  1.2024  1.6116  0.0886
  516SOL    HW2 1548   2.144   0.527   0.137 -0.3159  1.3815 -0.6866
  517SOL     OW 1549   1.129   1.558   2.898  0.0248  0.0273  0.3187
  517SOL    HW1 1550   1.152   1.545   2.996 -0.3346 -1.9174  1.4234
  517SOL    HW2 1551   1.127   1.463   2.854  1.8825 -3.7970  1.2075
  518SOL     OW 1552   1.352   2.793   1.906 -0.1447  0.4318  0.4075
  518SOL    HW1 1553   1.424   2.795   1.833 -0.8449 -2.3199 -1.0161
  518SOL    HW2 1554   1.284   2.719   1.880 -0.9678 -0.2771 -1.1563
  519SOL     OW 1555   2.119   2.913   0.991 -0.1686  0.0855  0.1730
  519SOL    HW1 1556   2.183   2.935   0.916  0.5110 -0.2661 -0.1490
  519SOL    HW2 1557   2.021   2.939   0.971 -0.3417 -0.2928 -0.8147
  520SOL     OW 1558   2.578   1.704   2.120  0.2162 -0.4324 -0.4137
  520SOL    HW1 1559   2.591   1.684   2.025  1.2188 -1.9974  2.4920
  520SOL    HW2 1560   2.511   1.777   2.129  1.7289  0.9266  0.2438
  521SOL     OW 1561   2.546   0.680   0.054 -0.1381 -0.4760 -0.5342
  521SOL    HW1 1562   2.592   0.591   0.033 -0.6242  3.2005  0.3665
  521SOL    HW2 1563   2.475   0.664   0.130 -0.6732 -0.0468 -0.4329
  522SOL     OW 1564   0.658   0.896   2.478  0.6039 -0.0273  0.0298
  522SOL    HW1 1565   0.587   0.828   2.465  0.2975  0.3977 -1.7461
  522SOL    HW2 1566   0.654   0.962   2.400  1.1478  2.8560 -0.8378
  523SOL     OW 1567   0.310   2.244   0.384  0.3208 -0.7451  0.0835
  523SOL    HW1 1568   0.341   2.249   0.482  3.0966  0.6979  0.9703
  523SOL    HW2 1569   0.240   2.174   0.368  2.0215  2.2202 -1.0201
  524SOL     OW 1570   2.215   2.627   2.887 -0.8955 -0.3053 -0.2406
  524SOL    HW1 1571   2.200   2.629   2.785 -2.9846 -0.8800 -2.0487
  524SOL    HW2 1572   2.244   2.713   2.927  0.0264 -2.8464 -0.8443
  525SOL     OW 1573   2.569   0.493   1.815 -0.3111  0.1070  0.3355
  525SOL    HW1 1574   2.651   0.532   1.860  1.7579 -0.0977 -1.9097
  525SOL    HW2 1575   2.548   0.397   1.852 -0.9747 -0.0427  2.2180
  526SOL     OW 1576   1.097   3.004   0.386  0.0336 -0.3844  0.1368
  526SOL    HW1 1577   1.102   0.031   0.338  0.4995  1.4252  2.7056
  526SOL    HW2 1578   1.186   2.992   0.435  0.0476 -2.7234 -0.4996
  527SOL     OW 1579   2.010   0.050   0.623 -0.1010  0.5055 -0.1807
  527SOL    HW1 1580   2.029   3.031   0.681 -0.8311  1.1224  0.2559
  527SOL    HW2 1581   2.069   0.053   0.540  1.0764  0.3193 -2.4550
  528SOL     OW 1582   1.685   1.057   2.877 -0.3288 -0.2037  0.2196
  528SOL    HW1 1583   1.675   0.958   2.904  2.5655 -1.8942 -1.2923
  528SOL    HW2 1584   1.607   1.082   2.810  0.2902 -1.9342 -4.3748
  529SOL     OW 1585   1.702   1.527   2.146 -0.2873 -0.2747  0.3089
  529SOL    HW1 1586   1.637   1.491   2.217  0.7593  1.2630  0.3830
  529SOL    HW2 1587   1.770   1.454   2.123  1.6726 -1.2071 -2.1870
  530SOL     OW 1588   2.369   2.763   0.100  0.3037  0.2098 -0.3207
  530SOL    HW1 1589   2.289   2.791   0.154  0.2764 -1.2963 -0.3067
  530SOL    HW2 1590   2.399   2.669   0.135  2.1913 -1.5549  1.1651
  531SOL     OW 1591   1.805   1.606   3.005  0.0282  0.7851 -0.3424
  531SOL    HW1 1592   1.868   1.552   0.002 -3.7136 -1.3637 -0.1049
  531SOL    HW2 1593   1.837   1.700   2.986 -1.7770  0.9987  1.5354
  532SOL     OW 1594   1.524   0.221   1.302 -0.2133 -0.0911  0.8214
  532SOL    HW1 1595   1.463   0.160   1.249 -0.4609  2.4661  0.9321
  532SOL    HW2 1596   1.475   0.305   1.330  3.0225 -0.8812  1.4596
  533SOL     OW 1597   0.519   0.896   2.991  0.1025 -0.0812 -0.3815
  533SOL    HW1 1598   0.553   0.969   3.052 -2.6001  1.6881 -0.9247
  533SOL    HW2 1599   0.536   0.921   2.897  0.2994 -0.1965  2.5807
  534SOL     OW 1600   1.669   0.794   2.912  0.2344 -0.0547 -0.1128
  534SOL    HW1 1601   1.686   0.714   2.847 -0.1911 -1.7789 -1.7879
  534SOL    HW2 1602   1.728   0.782   2.997  0.4078  0.6134  0.2960
  535SOL     OW 1603   0.843   2.100   2.751  0.2746 -0.0225 -0.4103
  535SOL    HW1 1604   0.800   2.143   2.836  0.5956 -1.1985  0.9928
  535SOL    HW2 1605   0.823   1.999   2.748 -1.1549 -1.8213 -1.9033
  536SOL     OW 1606   0.772   2.787   0.128  0.1138  0.2070  0.2819
  536SOL    HW1 1607   0.769   2.877   0.173  3.9185  0.0511  2.0727
  536SOL    HW2 1608   0.701   2.777   0.055  1.2417 -0.1011  0.4098
  537SOL     OW 1609   1.985   0.209   0.119 -0.0916  0.1398 -0.0318
  537SOL    HW1 1610   1.943   0.186   0.205 -1.5141  2.0923 -1.5525
  537SOL    HW2 1611   2.040   0.297   0.133  0.3079 -0.7846 -1.2701
  538SOL     OW 1612   2.429   2.504   0.175 -0.1504  0.0419  0.1378
  538SOL    HW1 1613   2.367   2.472   0.100 -0.0947  0.4392 -1.5928
  538SOL    HW2 1614   2.411   2.468   0.275 -0.7537 -1.1975  2.0082
  539SOL     OW 1615   2.517   1.176   3.006 -0.1327  0.4000  0.4785
  539SOL    HW1 1616   2.587   1.119   2.955  2.6704 -0.3144  0.3490
  539SOL    HW2 1617   2.557   1.190   0.035 -1.8238  0.7062 -2.0900
  540SOL     OW 1618   0.931   2.844   2.179 -0.3863  0.4878  0.3752
  540SOL    HW1 1619   0.860   2.911   2.206 -0.8429  0.6917 -2.2055
  540SOL    HW2 1620   0.897   2.798   2.091 -2.7250 -4.3328 -1.0515
  541SOL     OW 1621   2.408   0.021   2.271 -0.0793 -0.2582  0.0775
  541SOL    HW1 1622   2.319   0.067   2.276  1.3286 -2.2433  0.3913
  541SOL    HW2 1623   2.469   0.039   2.349  0.3582 -2.8502 -0.2324
  542SOL     OW 1624   0.581   0.423   2.973  1.0920  0.4272 -0.1262
  542SOL    HW1 1625   0.522   0.337   2.978  0.8886  0.7304 -0.3192
  542SOL    HW2 1626   0.538   0.495   3.031 -0.9165  0.8251 -0.6316
  543SOL     OW 1627   0.280   0.986   0.755 -0.4159  0.2769 -0.0515
  543SOL    HW1 1628   0.202   1.052   0.739 -1.0310 -0.3893 -1.1018
  543SOL    HW2 1629   0.365   1.030   0.794  3.1424  0.6354  1.4098
  544SOL     OW 1630   2.396   0.669   1.433  0.3211 -0.4831 -0.0686
  544SOL    HW1 1631   2.478   0.626   1.389 -3.0596  0.9683  0.3255
  544SOL    HW2 1632   2.352   0.742   1.372 -0.2616  1.8557 -0.0239
  545SOL     OW 1633   1.179   1.553   0.105 -0.2015 -0.2721 -0.1122
  545SOL    HW1 1634   1.178   1.655   0.129 -0.6502  1.5163  1.5556
  545SOL    HW2 1635   1.274   1.526   0.082 -1.2284 -4.2694 -0.0089
  546SOL     OW 1636   2.379   2.914   1.431  0.2337  0.5722 -0.1046
  546SOL    HW1 1637   2.289   2.910   1.469  0.3722 -0.3233  2.0018
  546SOL    HW2 1638   2.444   2.843   1.468  1.3030  0.6094  0.5860
  547SOL     OW 1639   1.568   2.589   2.240  0.1496  0.0654 -0.1084
  547SOL    HW1 1640   1.577   2.629   2.148 -0.3128 -3.1957 -1.8153
  547SOL    HW2 1641   1.481   2.610   2.287  2.2899 -0.5374  0.3043
  548SOL     OW 1642   1.485   0.748   2.675 -0.5011 -0.7183  0.4388
  548SOL    HW1 1643   1.438   0.782   2.760  1.3231  0.2499 -0.5080
  548SOL    HW2 1644   1.495   0.649   2.667  0.1391  1.0408 -0.2980
  549SOL     OW 1645   2.099   0.730   0.475 -0.2639  0.0670  0.1269
  549SOL    HW1 1646   2.100   0.632   0.494 -0.3841 -0.4365 -1.5312
  549SOL    HW2 1647   2.191   0.769   0.489  0.4699 -1.7299 -0.6189
  550SOL     OW 1648   2.359   1.522   0.482  0.4083  0.7919  0.4382
  550SOL    HW1 1649   2.382   1.610   0.523 -2.0195  0.7428  1.0096
  550SOL    HW2 1650   2.367   1.536   0.381 -3.7232  0.2181 -0.6918
  551SOL     OW 1651   1.937   0.017   1.492  0.0767  0.1055 -0.2609
  551SOL    HW1 1652   1.929   0.089   1.569  0.4848 -0.8507  2.4468
  551SOL    HW2 1653   1.896   0.046   1.408  1.1077  0.8641 -0.0532
  552SOL     OW 1654   1.444   0.101   2.841  0.5191 -0.0008 -0.2316
  552SOL    HW1 1655   1.424   0.199   2.809 -2.3593  0.3115 -0.2391
  552SOL    HW2 1656   1.540   0.073   2.823 -2.1534  2.5983 -2.3254
  553SOL     OW 1657   0.715   2.724   1.999  0.6393 -0.2947 -0.2196
  553SOL    HW1 1658   0.687   2.771   1.914 -0.5915  2.3564 -1.4669
  553SOL    HW2 1659   0.635   2.716   2.068 -2.0491 -2.8298  2.8606
  554SOL     OW 1660   0.263   3.001   1.048 -0.1896  0.2553 -0.0508
  554SOL    HW1 1661   0.177   2.997   0.991 -0.6871  1.2284  0.6840
  554SOL    HW2 1662   0.303   2.909   1.069  4.2916  1.7855 -0.8790
  555SOL     OW 1663   2.523   1.487   2.279 -0.3761  0.2127 -0.3926
  555SOL    HW1 1664   2.545   1.551   2.201 -0.6436  1.9308 -2.2616
  555SOL    HW2 1665   2.427   1.464   2.286 -1.9294  0.1555 -0.4265
  556SOL     OW 1666   1.218   0.655   2.941 -0.8817  0.3791 -0.1953
  556SOL    HW1 1667   1.291   0.730   2.931  2.3676  1.5490  0.4208
  556SOL    HW2 1668   1.255   0.570   2.980 -1.9815 -0.3558  0.0009
  557SOL     OW 1669   0.335   2.106   2.204 -0.0888  0.0514 -0.2180
  557SOL    HW1 1670   0.415   2.091   2.143 -0.1608 -1.3014 -2.6845
  557SOL    HW2 1671   0.278   2.019   2.209 -0.5447 -0.9474 -0.4998
  558SOL     OW 1672   1.928   0.850   2.776 -0.3056  0.3961 -0.1515
  558SOL    HW1 1673   1.891   0.767   2.731 -2.6721  2.6826  1.6409
  558SOL    HW2 1674   1.893   0.931   2.723  1.3786  0.6229  0.0483
  559SOL     OW 1675   2.018   1.716   1.702 -0.1539  0.3492  0.2307
  559SOL    HW1 1676   2.013   1.711   1.597  0.5678  0.2178 -0.1681
  559SOL    HW2 1677   1.948   1.648   1.733  1.6672 -1.0387 -0.1683
  560SOL     OW 1678   1.646   0.712   2.010  0.5656  0.4804 -0.0102
  560SOL    HW1 1679   1.562   0.764   1.996  1.0204 -0.0953 -0.0169
  560SOL    HW2 1680   1.659   0.634   1.945 -2.0259 -0.4090  0.3160
  561SOL     OW 1681   2.942   0.088   2.784  0.6110  0.4170 -0.0306
  561SOL    HW1 1682   2.855   0.035   2.772  0.6456 -1.6988 -2.7643
  561SOL    HW2 1683   3.012   0.072   2.711  0.6503  0.3384  0.2317
  562SOL     OW 1684   1.043   1.666   1.432  0.0254  0.0126  0.6875
  562SOL    HW1 1685   1.119   1.675   1.498 -1.8788  0.6156  1.2979
  562SOL    HW2 1686   0.952   1.675   1.482 -0.1230  1.9625 -1.1853
  563SOL     OW 1687   1.237   0.203   0.048  0.1239  0.0661 -0.3602
  563SOL    HW1 1688   1.142   0.186   0.006 -2.6602 -3.0569 -2.1564
  563SOL    HW2 1689   1.283   0.113   0.068  0.1427  2.0856 -2.9503
  564SOL     OW 1690   0.304   2.708   0.546 -0.0382  0.2321  0.0036
  564SOL    HW1 1691   0.380   2.721   0.479  0.3487 -1.7701  1.6310
  564SOL    HW2 1692   0.236   2.641   0.504  1.0287 -1.1631  0.7117
  565SOL     OW 1693   0.656   2.626   1.064 -0.0899 -0.4456  0.1538
  565SOL    HW1 1694   0.690   2.708   1.113  0.0958 -1.6470 -0.4702
  565SOL    HW2 1695   0.730   2.562   1.044 -2.6739 -2.0422  0.1233
  566SOL     OW 1696   1.139   0.103   2.300 -0.4391 -0.2481 -0.2529
  566SOL    HW1 1697   1.044   0.137   2.296  0.3316 -2.0432  1.1524
  566SOL    HW2 1698   1.161   0.051   2.215 -2.1011 -1.3265 -0.9092
  567SOL     OW 1699   2.116   0.254   1.029  0.0781  0.1772  0.4242
  567SOL    HW1 1700   2.147   0.255   0.933  0.9146 -0.6284  2.2150
  567SOL    HW2 1701   2.065   0.168   1.054 -2.5218  1.6067  0.5571
  568SOL     OW 1702   1.644   1.806   0.636 -0.2890 -0.1013 -0.3492
  568SOL    HW1 1703   1.698   1.742   0.582 -0.5855  1.0676  0.0859
  568SOL    HW2 1704   1.565   1.832   0.581  2.7050 -1.4197  0.4918
  569SOL     OW 1705   1.949   0.564   2.097 -1.0399 -0.0664  0.6255
  569SOL    HW1 1706   1.946   0.550   1.997 -0.6692 -0.8935  0.6772
  569SOL    HW2 1707   1.885   0.504   2.149  0.1730  3.0231 -1.3243
  570SOL     OW 1708   3.050   2.779   2.032  0.0586 -0.1788 -0.1316
  570SOL    HW1 1709   2.971   2.836   2.007  0.5842 -1.6511 -1.0777
  570SOL    HW2 1710   3.056   2.766   2.136  2.2979  1.1205  0.8455
  571SOL     OW 1711   0.572   2.871   1.462  0.7466 -0.9323  0.0647
  571SOL    HW1 1712   0.537   2.964   1.476 -2.1246  1.6084 -0.1245
  571SOL    HW2 1713   0.602   2.823   1.551 -0.2894  0.1811 -0.0079
  572SOL     OW 1714   0.318   2.320   1.357 -0.0185 -0.3402 -0.1800
  572SOL    HW1 1715   0.306   2.390   1.430  1.9979 -0.4431  0.3267
  572SOL    HW2 1716   0.369   2.365   1.282 -0.0092 -1.1680 -0.1780
  573SOL     OW 1717   1.171   1.037   2.612  0.6320 -0.0423  0.1085
  573SOL    HW1 1718   1.129   1.127   2.598  1.7390  0.9538  0.4560
  573SOL    HW2 1719   1.100   0.960   2.630 -2.6246 -5.0837  1.2008
  574SOL     OW 1720   2.370   2.433   2.186  0.5358 -0.1287 -0.4128
  574SOL    HW1 1721   2.453   2.392   2.145 -1.5026 -0.0858  1.1773
  574SOL    HW2 1722   2.331   2.513   2.132  3.1818  1.8684 -1.0754
  575SOL     OW 1723   1.281   2.778   0.744 -0.6888 -0.3122 -0.2983
  575SOL    HW1 1724   1.285   2.858   0.673 -3.3962  1.0306 -3.3936
  575SOL    HW2 1725   1.367   2.776   0.800  1.0299 -0.0183  1.7790
  576SOL     OW 1726   1.423   0.431   0.940 -0.2434 -0.1620  0.3261
  576SOL    HW1 1727   1.481   0.442   1.021  0.2724  3.0892  0.5633
  576SOL    HW2 1728   1.488   0.409   0.862  1.2426  0.3838 -0.5533
  577SOL     OW 1729   2.209   2.064   0.187 -0.1317  0.0702  0.2911
  577SOL    HW1 1730   2.234   2.072   0.087  1.7778 -1.2929  0.2960
  577SOL    HW2 1731   2.159   1.979   0.207  0.2664 -1.3655  1.2998
  578SOL     OW 1732   2.129   0.571   1.381  0.0851  0.1066  0.3433
  578SOL    HW1 1733   2.231   0.569   1.369  1.4738  3.0926  0.7329
  578SOL    HW2 1734   2.093   0.654   1.436  0.9632 -0.3425  2.6006
  579SOL     OW 1735   1.586   1.105   2.464 -0.0304  0.1764  0.3212
  579SOL    HW1 1736   1.506   1.087   2.403 -0.6274 -2.8948  0.1188
  579SOL    HW2 1737   1.665   1.157   2.425  0.6775 -2.2189 -0.1081
  580SOL     OW 1738   1.269   1.119   1.778 -0.2621 -0.6447 -0.2686
  580SOL    HW1 1739   1.321   1.096   1.693  0.8967 -1.8366 -1.1399
  580SOL    HW2 1740   1.218   1.033   1.806 -0.9108 -2.7431 -1.4862
  581SOL     OW 1741   0.067   1.170   0.778 -0.6743 -0.0694 -0.2791
  581SOL    HW1 1742   3.046   1.113   0.762 -0.7214 -1.2108  2.5260
  581SOL    HW2 1743   0.057   1.219   0.864  0.0281  0.7933  0.0592
  582SOL     OW 1744   2.946   0.570   1.837 -0.2795  0.2948  0.1188
  582SOL    HW1 1745   2.912   0.589   1.931 -0.8658 -0.3889 -0.3083
  582SOL    HW2 1746   3.041   0.608   1.825  3.4956 -0.2921 -1.1231
  583SOL     OW 1747   2.792   0.889   2.444 -0.6937 -0.3303 -0.7212
  583SOL    HW1 1748   2.800   0.969   2.381  0.9281  0.7593  0.5169
  583SOL    HW2 1749   2.716   0.892   2.515 -0.5956  1.4920  1.4719
  584SOL     OW 1750   1.988   2.445   0.599  0.4255 -0.0648  0.5900
  584SOL    HW1 1751   2.060   2.415   0.664 -2.3931 -0.9659  0.6327
  584SOL    HW2 1752   2.022   2.455   0.502 -2.4213  1.6668  0.9853
  585SOL     OW 1753   0.144   2.262   0.047  0.9728  0.3612  0.6462
  585SOL    HW1 1754   0.210   2.186   0.027  0.2643  1.9835  0.7175
  585SOL    HW2 1755   0.087   2.241   0.128  1.0203 -2.1801 -0.3390
  586SOL     OW 1756   1.936   1.960   2.390 -0.2186  0.6962  0.0803
  586SOL    HW1 1757   1.923   1.915   2.299  0.5631 -0.9892  1.7616
  586SOL    HW2 1758   2.031   2.003   2.400  3.6926  4.6865 -1.9462
  587SOL     OW 1759   2.249   1.584   2.811 -0.0906 -0.3191 -0.1059
  587SOL    HW1 1760   2.347   1.566   2.783 -1.9291 -0.9245 -0.0852
  587SOL    HW2 1761   2.203   1.491   2.798  2.3405 -0.8961 -2.9678
  588SOL     OW 1762   2.580   0.015   1.310  0.1180  0.1084  0.0191
  588SOL    HW1 1763   2.515   3.022   1.360  0.8993  2.2045 -2.2403
  588SOL    HW2 1764   2.673   3.048   1.334 -0.2390 -0.5141 -0.9980
  589SOL     OW 1765   0.623   0.218   0.690  0.0786  0.0196  0.4908
  589SOL    HW1 1766   0.576   0.169   0.615 -3.0441 -0.7071 -1.2287
  589SOL    HW2 1767   0.581   0.308   0.705 -0.6480  0.3779 -2.6612
  590SOL     OW 1768   2.375   2.170   0.987  0.4491  0.5711  0.7678
  590SOL    HW1 1769   2.302   2.239   1.004  0.4455 -0.2864  1.7949
  590SOL    HW2 1770   2.440   2.204   0.917  0.5613 -0.9653  1.7950
  591SOL     OW 1771   1.153   2.126   0.860 -0.0111 -0.4552  0.3168
  591SOL    HW1 1772   1.246   2.110   0.894  0.7948 -0.5705  1.3313
  591SOL    HW2 1773   1.120   2.226   0.868  1.8727  3.7854 -1.5869
  592SOL     OW 1774   1.064   1.007   1.278 -0.3997  0.6232  0.4198
  592SOL    HW1 1775   1.107   0.915   1.261 -1.0264 -0.7752 -0.1528
  592SOL    HW2 1776   1.104   1.048   1.364  1.0300 -0.8091 -0.0222
  593SOL     OW 1777   0.949   2.515   1.504  0.1620 -0.2507 -0.2423
  593SOL    HW1 1778   1.024   2.466   1.547 -3.6161  1.0695 -0.4162
  593SOL    HW2 1779   0.944   2.491   1.409  2.7883 -0.4425  0.7355
  594SOL     OW 1780   0.826   1.364   2.924  0.1951 -0.4345 -0.1878
  594SOL    HW1 1781   0.826   1.379   2.825 -1.3391 -3.3016 -0.4811
  594SOL    HW2 1782   0.832   1.452   2.977 -1.9898  0.0033 -0.7275
  595SOL     OW 1783   1.382   1.370   1.405 -0.2226 -0.1145  0.1712
  595SOL    HW1 1784   1.402   1.418   1.496 -1.1145  4.1436  0.8445
  595SOL    HW2 1785   1.369   1.428   1.324 -1.0901 -0.1857 -0.4068
  596SOL     OW 1786   2.860   1.363   2.085  0.0144  0.5570  0.4774
  596SOL    HW1 1787   2.791   1.421   2.046 -1.1463  0.3368 -0.4860
  596SOL    HW2 1788   2.947   1.401   2.059 -4.0820 -0.2674 -1.3874
  597SOL     OW 1789   1.571   2.432   1.846 -0.2466 -0.4385 -0.5968
  597SOL    HW1 1790   1.482   2.476   1.818  1.9008 -1.7295 -0.2589
  597SOL    HW2 1791   1.622   2.378   1.776 -0.8834  0.2263 -2.6884
  598SOL     OW 1792   2.413   1.338   1.325 -0.4233 -0.0603  0.5564
  598SOL    HW1 1793   2.390   1.302   1.416 -0.6829  0.2003 -1.4028
  598SOL    HW2 1794   2.335   1.329   1.258 -2.2033  2.1660 -0.9285
  599SOL     OW 1795   0.890   2.504   2.799  0.2317  0.3660  0.4340
  599SOL    HW1 1796   0.977   2.505   2.850 -1.1047 -1.0914  0.6005
  599SOL    HW2 1797   0.811   2.465   2.859  0.5065  0.1132 -2.1894
  600SOL     OW 1798   3.029   2.180   0.232 -0.1734 -0.2224  0.7226
  600SOL    HW1 1799   3.005   2.080   0.237 -0.1710 -1.3066  1.2274
  600SOL    HW2 1800   3.060   2.207   0.324 -1.8826  0.3433  1.4603
  601SOL     OW 1801   0.487   0.803   1.340 -0.3326 -0.2222 -0.1389
  601SOL    HW1 1802   0.513   0.844   1.427 -1.7473  1.8863 -2.5397
  601SOL    HW2 1803   0.445   0.712   1.350  0.4483 -2.0660  0.6237
  602SOL     OW 1804   0.643   0.118   1.291  0.4435  0.6757 -0.3138
  602SOL    HW1 1805   0.564   0.105   1.357 -0.8742  0.4254  1.9860
  602SOL    HW2 1806   0.626   0.191   1.223  2.7452 -0.6486  0.6357
  603SOL     OW 1807   0.226   2.907   2.698  0.4201  0.0841 -0.7058
  603SOL    HW1 1808   0.264   2.814   2.673 -1.7967 -0.4529 -0.8851
  603SOL    HW2 1809   0.139   2.907   2.755  0.4346  0.4592  2.4232
  604SOL     OW 1810   1.446   0.025   1.922 -0.0574  0.2141 -0.6755
  604SOL    HW1 1811   1.417   0.057   1.829 -0.2679  0.2630 -1.4839
  604SOL    HW2 1812   1.395   3.006   1.955  0.6858  1.0981  1.9112
  605SOL     OW 1813   1.359   1.488   1.672  0.6346 -0.6278 -0.4196
  605SOL    HW1 1814   1.459   1.486   1.688 -1.4786  0.4528  0.3162
  605SOL    HW2 1815   1.310   1.459   1.755  0.7470  0.3263 -1.1760
  606SOL     OW 1816   2.031   2.904   0.080  0.1207  0.2720  0.1397
  606SOL    HW1 1817   2.087   2.978   0.117  0.8388  1.3668  0.2485
  606SOL    HW2 1818   2.022   2.906   3.038 -1.0466  2.4660 -1.7388
  607SOL     OW 1819   0.483   0.166   2.339  0.3913  0.3651  0.3700
  607SOL    HW1 1820   0.401   0.160   2.400  3.7555  0.4159  0.1024
  607SOL    HW2 1821   0.572   0.157   2.388  0.2746  1.8565  0.5747
  608SOL     OW 1822   0.052   2.399   2.140 -0.1921  0.5666  0.2440
  608SOL    HW1 1823   0.084   2.411   2.238  2.8553 -1.0503 -1.0772
  608SOL    HW2 1824   0.008   2.308   2.133 -0.3155  1.6893  2.0898
  609SOL     OW 1825   0.637   1.177   2.893 -0.0523 -0.1854  0.4343
  609SOL    HW1 1826   0.695   1.257   2.918  0.9024  0.9625  0.8040
  609SOL    HW2 1827   0.687   1.092   2.878 -0.6048  0.6883  0.3242
  610SOL     OW 1828   0.428   2.775   1.044  0.1849 -0.0097  0.5479
  610SOL    HW1 1829   0.458   2.841   0.972  0.1380 -1.2347  0.7163
  610SOL    HW2 1830   0.504   2.703   1.057  1.7640 -0.3140  0.9594
  611SOL     OW 1831   0.939   1.340   0.620 -0.1206  0.4359  0.5452
  611SOL    HW1 1832   0.951   1.285   0.704 -0.4564  1.1781 -0.4661
  611SOL    HW2 1833   0.921   1.289   0.536 -0.6344  2.8962 -1.4878
  612SOL     OW 1834   2.147   2.059   0.643  0.1600  0.0705  0.0639
  612SOL    HW1 1835   2.060   2.024   0.604  0.2333  3.4232  2.9779
  612SOL    HW2 1836   2.197   1.991   0.699 -1.3311  0.7896 -1.5850
  613SOL     OW 1837   1.715   1.699   0.396 -0.2168  0.2251  0.0375
  613SOL    HW1 1838   1.736   1.796   0.369 -0.2402 -1.1197  0.8213
  613SOL    HW2 1839   1.625   1.678   0.358 -0.9717 -0.5609  0.9702
  614SOL     OW 1840   2.751   0.393   2.545 -0.2472  0.7453  0.4754
  614SOL    HW1 1841   2.835   0.374   2.599  0.0905 -0.4494 -0.5804
  614SOL    HW2 1842   2.760   0.339   2.460  0.1349  0.6911  0.2701
  615SOL     OW 1843   0.594   1.131   0.485  0.7822 -0.7811 -0.2014
  615SOL    HW1 1844   0.663   1.200   0.464 -0.2219 -2.1899 -0.0650
  615SOL    HW2 1845   0.640   1.068   0.547  0.6593  0.6607 -3.9933
  616SOL     OW 1846   1.466   1.113   2.706  0.0892 -0.2913  0.2465
  616SOL    HW1 1847   1.381   1.060   2.689  0.3328  0.7164  1.0519
  616SOL    HW2 1848   1.524   1.139   2.622  2.1807  1.4528 -2.6270
  617SOL     OW 1849   1.367   0.724   0.214 -0.0875 -0.4781 -0.2383
  617SOL    HW1 1850   1.269   0.704   0.209 -0.0895 -0.8977 -3.1962
  617SOL    HW2 1851   1.423   0.647   0.252 -0.3664  0.4062 -1.6778
  618SOL     OW 1852   3.057   1.943   1.934 -0.2632 -0.4603 -0.1188
  618SOL    HW1 1853   0.096   1.949   1.922  0.7417  2.1425 -0.3202
  618SOL    HW2 1854   3.034   1.870   2.004 -0.7966 -0.7441 -2.2047
  619SOL     OW 1855   2.594   1.989   0.730  0.0712 -0.2306  0.2176
  619SOL    HW1 1856   2.690   1.964   0.705 -0.9480 -0.4328 -0.5385
  619SOL    HW2 1857   2.583   2.094   0.726  1.1657  0.1556 -1.4786
  620SOL     OW 1858   2.766   0.054   1.099 -0.0002 -0.2749  0.0817
  620SOL    HW1 1859   2.773   0.141   1.044 -2.2309  0.2664 -0.8124
  620SOL    HW2 1860   2.669   0.046   1.139 -0.3523 -3.0488 -0.5525
  621SOL     OW 1861   0.242   1.721   0.650  0.0931 -0.5003  0.0224
  621SOL    HW1 1862   0.208   1.643   0.701  0.1764  2.4853  0.8712
  621SOL    HW2 1863   0.331   1.689   0.606 -1.3690 -0.6120  0.1179
  622SOL     OW 1864   0.593   1.797   1.663 -0.2079 -0.4186  0.1000
  622SOL    HW1 1865   0.520   1.820   1.597 -1.7435 -0.6206 -0.1360
  622SOL    HW2 1866   0.618   1.879   1.724 -2.5806 -0.6117 -0.7400
  623SOL     OW 1867   2.318   2.896   2.095  0.1879  0.5959 -0.2470
  623SOL    HW1 1868   2.393   2.859   2.034  2.1380 -0.2466 -2.5628
  623SOL    HW2 1869   2.361   2.970   2.157  1.1242  1.3088  1.4839
  624SOL     OW 1870   0.672   1.849   0.137 -0.4458  0.5895 -0.0133
  624SOL    HW1 1871   0.614   1.884   0.058  0.7291  3.6516  2.8225
  624SOL    HW2 1872   0.756   1.795   0.112  1.4554  0.7810  1.4295
  625SOL     OW 1873   0.734   1.849   2.164  0.0318  0.7503  0.2818
  625SOL    HW1 1874   0.803   1.862   2.090  0.5260  2.0532 -2.9431
  625SOL    HW2 1875   0.707   1.749   2.170 -0.0943 -1.4189  3.0787
  626SOL     OW 1876   3.043   2.657   3.028  0.1875  0.2604 -0.1641
  626SOL    HW1 1877   0.080   2.642   3.041  1.8583 -1.4024 -2.1872
  626SOL    HW2 1878   3.031   2.716   2.950 -1.1101 -2.6191 -2.6662
  627SOL     OW 1879   1.609   1.681   2.439  0.0447  0.3944 -0.3520
  627SOL    HW1 1880   1.704   1.674   2.473 -2.3682  1.4758  1.0750
  627SOL    HW2 1881   1.587   1.613   2.368 -2.1665  3.3387  1.4632
  628SOL     OW 1882   1.247   2.086   0.294  0.0457  0.0910 -0.4154
  628SOL    HW1 1883   1.151   2.117   0.306 -2.6654  0.0284 -1.8215
  628SOL    HW2 1884   1.300   2.076   0.384 -0.0165 -2.1862  2.2655
  629SOL     OW 1885   0.876   0.949   2.199 -0.0504  0.0513  0.1671
  629SOL    HW1 1886   0.817   1.023   2.239 -1.7349  0.3830  2.4669
  629SOL    HW2 1887   0.911   0.975   2.108  3.0929  2.4478 -1.9949
  630SOL     OW 1888   2.875   2.683   1.660  0.1092 -0.0019  0.6373
  630SOL    HW1 1889   2.816   2.676   1.578 -1.0771  2.3140 -1.6687
  630SOL    HW2 1890   2.970   2.643   1.639  1.7281 -1.4702  0.0031
  631SOL     OW 1891   1.325   0.892   0.884 -0.0410 -0.3207 -0.1020
  631SOL    HW1 1892   1.287   0.826   0.818  0.1223 -0.3200  0.1199
  631SOL    HW2 1893   1.253   0.956   0.919  0.5690 -1.1890 -1.0072
  632SOL     OW 1894   2.185   0.510   2.233 -0.2979 -0.2117 -0.4535
  632SOL    HW1 1895   2.191   0.443   2.311 -1.8314 -0.7292 -0.3615
  632SOL    HW2 1896   2.084   0.515   2.194 -0.0890  0.8523 -0.9551
  633SOL     OW 1897   1.773   1.329   0.283  0.1963 -0.0110 -0.1465
  633SOL    HW1 1898   1.693   1.323   0.353 -1.8297 -0.6613  2.2592
  633SOL    HW2 1899   1.776   1.257   0.211  1.2734 -1.7368 -0.4767
  634SOL     OW 1900   0.341   1.905   0.218  0.1627  0.5015 -0.3771
  634SOL    HW1 1901   0.347   1.811   0.181 -1.2240 -0.4249 -1.1350
  634SOL    HW2 1902   0.336   1.979   0.148 -0.6740  2.8121  2.1657
  635SOL     OW 1903   2.799   1.785   2.285  0.5425  0.5282 -0.1948
  635SOL    HW1 1904   2.800   1.756   2.386  1.3090 -1.2721  2.0210
  635SOL    HW2 1905   2.730   1.739   2.230  2.2737  0.1551 -2.5178
  636SOL     OW 1906   0.234   1.555   2.480 -0.0683 -0.7791  0.1905
  636SOL    HW1 1907   0.158   1.598   2.530  2.4868 -1.8833 -1.9588
  636SOL    HW2 1908   0.318   1.612   2.474 -0.8286 -1.3198 -0.5624
  637SOL     OW 1909   0.508   1.990   0.415  0.2595  0.2093 -0.2645
  637SOL    HW1 1910   0.443   1.946   0.354  0.8030 -0.7971  1.5497
  637SOL    HW2 1911   0.513   2.093   0.406  1.4378  2.2304 -1.6116
  638SOL     OW 1912   2.396   2.464   0.705 -0.6144  0.0229  0.2876
  638SOL    HW1 1913   2.430   2.492   0.612 -0.7931  0.0091  0.1015
  638SOL    HW2 1914   2.304   2.414   0.714  1.4140 -2.8105  0.6020
  639SOL     OW 1915   1.069   0.664   0.159 -0.0688  0.4561  0.0416
  639SOL    HW1 1916   0.965   0.653   0.163 -1.9601  0.3783  0.6829
  639SOL    HW2 1917   1.096   0.679   0.064  1.4355  0.6374  0.9149
  640SOL     OW 1918   2.363   2.175   1.844 -0.2466 -0.1164 -0.1326
  640SOL    HW1 1919   2.414   2.249   1.886 -0.1373 -2.1283  2.5315
  640SOL    HW2 1920   2.402   2.157   1.755 -0.3485  3.3440  1.2253
  641SOL     OW 1921   2.704   2.786   1.221  0.0202  1.0810 -0.3654
  641SOL    HW1 1922   2.717   2.875   1.264 -0.7619 -0.9731  0.7879
  641SOL    HW2 1923   2.718   2.792   1.120 -1.6769  1.1059  2.2797
  642SOL     OW 1924   0.809   1.001   1.513 -0.7667 -0.5114 -0.0591
  642SOL    HW1 1925   0.860   0.980   1.426  0.5834 -0.9059 -2.5111
  642SOL    HW2 1926   0.826   1.095   1.551 -0.4712  0.8478  0.2762
  643SOL     OW 1927   0.530   1.345   2.191 -0.2339 -0.1087 -0.7047
  643SOL    HW1 1928   0.499   1.307   2.279  1.6472  1.5163  0.5891
  643SOL    HW2 1929   0.452   1.378   2.136 -1.1214 -1.0694  1.2142
  644SOL     OW 1930   0.904   0.217   2.266 -0.4154 -0.4155  0.5348
  644SOL    HW1 1931   0.898   0.317   2.248 -0.2813 -1.1060 -0.8988
  644SOL    HW2 1932   0.874   0.178   2.175 -0.1575 -0.5129  0.0876
  645SOL     OW 1933   2.001   1.158   1.412 -0.2788  0.5200  0.3544
  645SOL    HW1 1934   2.080   1.090   1.417 -0.8478 -2.1818 -1.6278
  645SOL    HW2 1935   1.975   1.174   1.314 -1.3032  0.2032 -1.5835
  646SOL     OW 1936   1.535   2.721   0.362  0.1944 -0.2238 -0.3420
  646SOL    HW1 1937   1.616   2.713   0.299  0.6373  0.9334  0.6691
  646SOL    HW2 1938   1.462   2.655   0.335 -0.0147  0.9104  1.9006
  647SOL     OW 1939   1.597   2.655   0.849  0.2973  0.5262 -0.3478
  647SOL    HW1 1940   1.694   2.633   0.870  2.4614  0.2187  0.0346
  647SOL    HW2 1941   1.564   2.613   0.763  2.1751  1.0959 -0.9737
  648SOL     OW 1942   0.228   2.604   1.124  0.1368  0.1540  0.2653
  648SOL    HW1 1943   0.236   2.525   1.065  0.7532  2.8419  0.1016
  648SOL    HW2 1944   0.296   2.675   1.097  2.8660  1.4308 -0.9212
  649SOL     OW 1945   1.118   2.101   2.943  1.0151 -0.5363 -0.0955
  649SOL    HW1 1946   1.110   2.010   2.906  0.6013  1.6396  2.0335
  649SOL    HW2 1947   1.034   2.104   3.004  1.0725  2.1423  4.0790
  650SOL     OW 1948   2.330   1.308   0.105  0.3317  0.2650 -0.4503
  650SOL    HW1 1949   2.381   1.273   0.021  1.5345 -0.5176 -1.3804
  650SOL    HW2 1950   2.307   1.240   0.178  2.0072 -0.4467  1.0908
  651SOL     OW 1951   2.526   2.171   2.304 -0.1668  0.4026  0.2726
  651SOL    HW1 1952   2.562   2.264   2.278 -0.8015 -0.8820  3.9818
  651SOL    HW2 1953   2.537   2.161   2.405 -0.5321 -0.5104 -3.1437
  652SOL     OW 1954   2.788   2.262   0.517  0.0598 -0.7089 -0.1990
  652SOL    HW1 1955   2.770   2.337   0.585 -1.8592  2.7033  0.7953
  652SOL    HW2 1956   2.880   2.260   0.480  0.6409 -1.0557  0.5314
  653SOL     OW 1957   2.592   1.785   1.459  0.1529 -0.1929 -0.3166
  653SOL    HW1 1958   2.506   1.818   1.502 -0.8418  0.6105  0.7190
  653SOL    HW2 1959   2.605   1.686   1.483  1.0322 -2.0044  0.3206
  654SOL     OW 1960   1.072   1.050   0.126  0.1602 -0.8021 -0.4230
  654SOL    HW1 1961   0.990   0.991   0.145 -0.2670 -0.8825  0.7736
  654SOL    HW2 1962   1.073   1.080   0.029 -2.0718 -0.2956  2.5059
  655SOL     OW 1963   1.228   1.383   0.681  0.2702  0.1798  0.2832
  655SOL    HW1 1964   1.127   1.382   0.678  0.5001  1.6374  0.5141
  655SOL    HW2 1965   1.259   1.398   0.586  0.8451 -0.2846 -0.0608
  656SOL     OW 1966   1.507   2.401   2.637 -0.4795 -0.5032 -0.2907
  656SOL    HW1 1967   1.449   2.390   2.717  1.1491  2.0687 -2.3213
  656SOL    HW2 1968   1.505   2.497   2.598 -0.5500 -0.0510  1.2671
  657SOL     OW 1969   2.099   1.568   0.580 -0.4045 -0.6219 -0.2479
  657SOL    HW1 1970   2.031   1.494   0.607  0.6060  1.0875 -1.0362
  657SOL    HW2 1971   2.193   1.536   0.553 -1.4366 -2.8275  0.3850
  658SOL     OW 1972   2.257   3.000   1.790  0.0478  0.2010  0.3573
  658SOL    HW1 1973   2.156   3.003   1.821 -0.8292  3.1931  0.0285
  658SOL    HW2 1974   2.273   2.920   1.726 -2.8380 -1.4985 -1.7023
  659SOL     OW 1975   2.804   1.582   0.313  0.2407  0.2621 -0.5800
  659SOL    HW1 1976   2.862   1.609   0.394  1.7608 -0.0880  1.1176
  659SOL    HW2 1977   2.708   1.615   0.317  1.2935 -0.8912 -0.0319
  660SOL     OW 1978   1.289   0.700   0.681 -0.5714  0.3698 -0.3268
  660SOL    HW1 1979   1.226   0.689   0.758 -1.9768 -0.3512 -0.2495
  660SOL    HW2 1980   1.234   0.699   0.598  1.5607 -0.8214  0.0240
  661SOL     OW 1981   1.846   0.516   0.119  0.1266 -0.1110 -0.2682
  661SOL    HW1 1982   1.919   0.471   0.171 -0.6896  0.6213  0.5026
  661SOL    HW2 1983   1.830   0.612   0.141 -1.6900  0.3346  1.4868
  662SOL     OW 1984   0.492   0.231   0.219 -0.2980  0.4839 -0.1948
  662SOL    HW1 1985   0.483   0.230   0.118  2.0638 -0.4497 -1.7852
  662SOL    HW2 1986   0.591   0.233   0.250  0.3423 -1.6856  1.5567
  663SOL     OW 1987   1.164   2.385   2.892  0.3003  0.5663 -0.2012
  663SOL    HW1 1988   1.122   2.293   2.900  1.0118 -1.8634  0.0255
  663SOL    HW2 1989   1.175   2.425   2.799  1.7733  0.4349  0.2830
  664SOL     OW 1990   0.727   2.828   1.242 -0.1503 -0.5528 -0.6862
  664SOL    HW1 1991   0.641   2.863   1.288 -0.9897  0.0178 -1.9375
  664SOL    HW2 1992   0.784   2.792   1.319  0.1548 -1.8122  0.4155
  665SOL     OW 1993   1.643   2.912   0.775  0.4198  0.2776  0.4175
  665SOL    HW1 1994   1.618   2.820   0.805 -0.2677  2.3594 -0.1556
  665SOL    HW2 1995   1.588   2.982   0.825  3.1595  0.1039 -0.3792
  666SOL     OW 1996   0.982   2.301   2.636  0.3020 -0.2279  0.0689
  666SOL    HW1 1997   0.923   2.219   2.670 -0.1444 -1.1284 -0.9124
  666SOL    HW2 1998   0.955   2.389   2.680  1.4672 -1.5558 -1.5607
  667SOL     OW 1999   2.791   0.378   1.435 -0.3382  0.0247  0.0868
  667SOL    HW1 2000   2.869   0.436   1.458  1.8517 -0.9983  0.5122
  667SOL    HW2 2001   2.784   0.367   1.334  0.4724 -0.2511 -2.1179
  668SOL     OW 2002   0.364   0.310   1.650 -0.1973 -0.4651 -0.7983
  668SOL    HW1 2003   0.405   0.402   1.666 -2.6562 -1.9281  0.4944
  668SOL    HW2 2004   0.376   0.260   1.738  2.9068  2.1379  0.2579
  669SOL     OW 2005   1.414   2.847   1.219  0.0279  0.3452  0.2470
  669SOL    HW1 2006   1.314   2.858   1.218 -0.5650  2.3768 -1.1413
  669SOL    HW2 2007   1.444   2.784   1.141 -1.7298  0.6058 -1.1261
  670SOL     OW 2008   1.704   2.534   2.945 -0.1867  0.3887  0.0003
  670SOL    HW1 2009   1.633   2.477   2.897  1.8919  0.2480 -0.8140
  670SOL    HW2 2010   1.803   2.511   2.921  1.3819  1.3334  1.9761
  671SOL     OW 2011   0.368   1.217   2.799  0.2512 -0.4911 -0.8343
  671SOL    HW1 2012   0.293   1.249   2.736 -1.3159  1.9780 -0.4175
  671SOL    HW2 2013   0.415   1.139   2.761 -1.2128  2.9763  0.2337
  672SOL     OW 2014   2.005   0.517   2.486  0.1337 -0.7262  0.4331
  672SOL    HW1 2015   2.084   0.526   2.547 -2.0380 -1.3417 -0.8586
  672SOL    HW2 2016   1.980   0.609   2.452  0.6840  2.5354  0.7220
  673SOL     OW 2017   0.046   1.905   1.026 -0.4584  0.0940  0.1018
  673SOL    HW1 2018   0.004   1.973   1.090 -0.3336  1.6272  1.2532
  673SOL    HW2 2019   0.039   1.809   1.056  1.0794 -0.5029  0.2039
  674SOL     OW 2020   1.798   2.099   1.790  0.1999 -0.2792  0.2962
  674SOL    HW1 2021   1.735   2.149   1.856 -0.1447  1.1565 -0.8826
  674SOL    HW2 2022   1.865   2.168   1.756  1.9083  1.0163  1.3945
  675SOL     OW 2023   1.136   1.374   1.124 -0.0762 -0.4874 -0.5345
  675SOL    HW1 2024   1.088   1.439   1.058 -3.1208  1.0572 -1.1493
  675SOL    HW2 2025   1.150   1.281   1.087 -0.3170 -1.6105  0.6735
  676SOL     OW 2026   2.166   0.740   0.947  0.0963  0.4685  0.3495
  676SOL    HW1 2027   2.117   0.676   0.880  0.2227 -0.8652 -2.5425
  676SOL    HW2 2028   2.267   0.739   0.916 -0.7419 -1.2094 -1.6963
  677SOL     OW 2029   2.454   0.136   0.347  0.5895  0.5155  0.8241
  677SOL    HW1 2030   2.505   0.129   0.435  2.2698 -0.0788  3.2547
  677SOL    HW2 2031   2.458   0.232   0.303  0.0099  2.7960 -1.9646
  678SOL     OW 2032   2.331   1.111   0.934 -0.4715 -0.1068 -0.5567
  678SOL    HW1 2033   2.306   1.178   1.008 -0.6596  0.8594  0.7521
  678SOL    HW2 2034   2.386   1.035   0.975 -1.1876  1.3790  0.6565
  679SOL     OW 2035   2.488   0.378   0.223  0.0388  1.1484 -0.7383
  679SOL    HW1 2036   2.439   0.471   0.228  1.7707  0.2716 -0.6113
  679SOL    HW2 2037   2.528   0.367   0.130 -0.3198 -0.4537  0.6561
  680SOL     OW 2038   0.577   1.611   2.243  0.1709 -0.2424 -0.1584
  680SOL    HW1 2039   0.539   1.568   2.158 -1.3762  2.1976 -1.2805
  680SOL    HW2 2040   0.516   1.672   2.294 -1.0918 -0.7399 -1.6099
  681SOL     OW 2041   2.477   2.105   1.580  0.0606  0.6332 -0.1681
  681SOL    HW1 2042   2.549   2.086   1.650 -1.7686  1.7306 -3.5599
  681SOL    HW2 2043   2.411   2.030   1.560 -2.1489  2.6865  1.7674
  682SOL     OW 2044   0.439   1.779   2.438  0.2922  0.5253 -0.1036
  682SOL    HW1 2045   0.462   1.871   2.406  0.9927 -0.6825 -0.2279
  682SOL    HW2 2046   0.459   1.773   2.538 -0.7334  2.2367 -0.5549
  683SOL     OW 2047   2.763   1.999   1.392  0.4404  0.2844  0.4439
  683SOL    HW1 2048   2.704   1.922   1.430  1.0595 -1.9442  0.2846
  683SOL    HW2 2049   2.715   2.088   1.390  3.4890 -2.8311 -0.5099
  684SOL     OW 2050   2.868   1.825   1.769 -0.7613  0.6642 -0.3765
  684SOL    HW1 2051   2.946   1.868   1.817 -2.2497  0.8811 -2.7434
  684SOL    HW2 2052   2.904   1.779   1.684 -1.2613  1.5042 -0.2698
  685SOL     OW 2053   0.702   0.852   0.931  0.2145 -0.0126 -0.5449
  685SOL    HW1 2054   0.631   0.810   0.996 -2.1774 -1.0707  1.0277
  685SOL    HW2 2055   0.690   0.831   0.832  0.7381 -2.6902 -2.4422
  686SOL     OW 2056   0.300   0.024   2.517 -0.4696 -0.1568 -0.0065
  686SOL    HW1 2057   0.355   0.103   2.556  1.9890  3.4222  1.5097
  686SOL    HW2 2058   0.291   3.005   2.582 -1.5347  0.3485  2.8598
  687SOL     OW 2059   0.726   2.012   1.901 -0.1709 -0.0004  0.1589
  687SOL    HW1 2060   0.746   2.089   1.837  0.1802  1.4766  0.8525
  687SOL    HW2 2061   0.815   1.976   1.937  1.0626  0.2295 -0.8665
  688SOL     OW 2062   2.285   0.328   1.822  0.0114 -0.3399  0.1066
  688SOL    HW1 2063   2.307   0.252   1.758  0.2639  2.6917 -1.8674
  688SOL    HW2 2064   2.291   0.415   1.766  4.0007 -0.1058  1.9268
  689SOL     OW 2065   1.954   1.090   0.755 -0.0052  0.1656 -0.6105
  689SOL    HW1 2066   1.949   1.038   0.671  1.3860  0.3940  0.1235
  689SOL    HW2 2067   2.049   1.133   0.757  3.4478  1.8589 -3.3549
  690SOL     OW 2068   2.625   0.728   1.110 -0.0874  0.7841 -0.0471
  690SOL    HW1 2069   2.716   0.737   1.055  1.8255 -0.0897 -2.4454
  690SOL    HW2 2070   2.632   0.652   1.180 -1.1246  2.5093  2.6807
  691SOL     OW 2071   0.374   1.138   1.793  0.8996 -0.2283  0.0740
  691SOL    HW1 2072   0.327   1.219   1.757  0.3110  0.8142 -1.4383
  691SOL    HW2 2073   0.475   1.148   1.798  0.0790 -1.3379 -3.8211
  692SOL     OW 2074   0.667   1.422   1.888 -0.4092 -0.0931 -0.1999
  692SOL    HW1 2075   0.766   1.421   1.905 -0.8893 -1.3827 -0.0876
  692SOL    HW2 2076   0.632   1.325   1.883  0.1558  1.5300  0.2341
  693SOL     OW 2077   0.538   0.826   1.883  0.1579  0.3172  0.0404
  693SOL    HW1 2078   0.580   0.838   1.972 -0.4799 -0.8031 -3.5848
  693SOL    HW2 2079   0.443   0.864   1.881 -1.9169 -1.1347 -1.3312
  694SOL     OW 2080   1.389   2.026   0.947  0.3354 -0.1094  0.5760
  694SOL    HW1 2081   1.481   2.008   0.903  0.0685  1.4443  1.4701
  694SOL    HW2 2082   1.350   1.939   0.985  1.0874  0.3642 -0.2091
  695SOL     OW 2083   2.940   0.664   1.084  0.2879  0.6736  0.0975
  695SOL    HW1 2084   2.910   0.661   0.983 -2.0011  0.8107  0.1333
  695SOL    HW2 2085   3.035   0.697   1.098 -1.2499  1.9857 -0.9240
  696SOL     OW 2086   0.682   2.240   0.469  0.1599 -0.0771 -0.9229
  696SOL    HW1 2087   0.682   2.343   0.484 -1.1029  0.7315 -0.0052
  696SOL    HW2 2088   0.681   2.187   0.562 -1.0500  1.2807  0.2983
  697SOL     OW 2089   1.621   1.013   1.702  0.0615  0.0451 -0.2109
  697SOL    HW1 2090   1.696   1.039   1.637 -0.3424 -0.6509  0.6447
  697SOL    HW2 2091   1.643   1.049   1.799 -0.5666  1.2306  1.6637
  698SOL     OW 2092   1.767   1.539   1.385 -0.3314 -0.3570  0.4348
  698SOL    HW1 2093   1.728   1.607   1.451  0.1717 -0.2861 -1.2919
  698SOL    HW2 2094   1.793   1.579   1.297  3.0415 -2.4649 -0.5305
  699SOL     OW 2095   0.099   0.633   2.477 -0.2063  0.4391  0.6152
  699SOL    HW1 2096   0.008   0.642   2.523 -1.4379  1.0938  1.0373
  699SOL    HW2 2097   0.168   0.697   2.516  1.3322 -0.2318  1.0086
  700SOL     OW 2098   1.569   2.292   0.700  0.4232  0.4768  0.1178
  700SOL    HW1 2099   1.611   2.334   0.785  1.9193  1.7303  2.8255
  700SOL    HW2 2100   1.469   2.305   0.706  0.8985 -0.6948  0.8305
  701SOL     OW 2101   3.056   1.516   1.973  0.9645  0.4035  0.2183
  701SOL    HW1 2102   0.020   1.615   1.974 -1.6308  0.6252 -1.0818
  701SOL    HW2 2103   3.029   1.494   1.878  0.5770  0.7436  1.7571
  702SOL     OW 2104   0.606   0.035   2.744 -0.4110  0.0751  0.0309
  702SOL    HW1 2105   0.695   3.050   2.777  3.6144 -2.9883  2.1942
  702SOL    HW2 2106   0.622   0.134   2.733 -2.8719 -3.1037  0.1411
  703SOL     OW 2107   1.779   0.618   2.725  0.3124 -0.0073  0.1677
  703SOL    HW1 2108   1.813   0.555   2.802  1.2420 -1.3907  0.8620
  703SOL    HW2 2109   1.695   0.575   2.682 -1.2129 -1.0367 -1.9377
  704SOL     OW 2110   2.874   1.178   1.208  0.2707  0.0590 -0.0560
  704SOL    HW1 2111   2.805   1.209   1.140  1.7911  2.5544  0.8430
  704SOL    HW2 2112   2.849   1.189   1.307 -0.3856 -0.1812  0.1774
  705SOL     OW 2113   2.444   1.850   1.832  0.1005 -0.2366  0.4407
  705SOL    HW1 2114   2.404   1.920   1.891  0.5293  0.4933  1.6553
  705SOL    HW2 2115   2.378   1.774   1.803 -2.5840 -1.8536 -0.8700
  706SOL     OW 2116   0.143   2.362   0.721  0.2329 -0.6381 -0.5233
  706SOL    HW1 2117   0.137   2.444   0.661  0.8337  2.8116  0.6605
  706SOL    HW2 2118   0.065   2.343   0.775  2.1532  0.0379 -1.8275
  707SOL     OW 2119   1.019   2.795   3.053 -0.1439 -0.3169  0.0574
  707SOL    HW1 2120   0.926   2.780   0.015  2.0012  0.6425  0.1421
  707SOL    HW2 2121   1.077   2.788   0.075  1.5487  1.6160 -0.9991
  708SOL     OW 2122   0.867   2.112   1.427 -0.1485 -0.4017  0.1571
  708SOL    HW1 2123   0.915   2.157   1.350 -0.6611  3.4206 -3.8799
  708SOL    HW2 2124   0.848   2.015   1.406  1.4223 -0.1244  2.3051
  709SOL     OW 2125   2.231   0.042   2.513 -0.0741 -0.1384 -0.4252
  709SOL    HW1 2126   2.141   3.061   2.539  0.8005 -2.8929  0.3327
  709SOL    HW2 2127   2.293   0.043   2.591  0.0331 -0.4442  1.2151
  710SOL     OW 2128   1.223   2.539   2.656 -1.0457  0.5583  0.1226
  710SOL    HW1 2129   1.180   2.516   2.565 -0.4607 -1.0380  5.3255
  710SOL    HW2 2130   1.311   2.587   2.651  0.1522 -2.0893 -0.7548
  711SOL     OW 2131   1.174   2.099   2.522 -0.0937 -0.7424  0.4847
  711SOL    HW1 2132   1.274   2.097   2.505  3.4200 -0.7361 -1.0988
  711SOL    HW2 2133   1.152   2.182   2.574  0.5992 -1.3234 -2.6657
  712SOL     OW 2134   1.044   1.824   2.857  0.2761 -0.0858 -0.2796
  712SOL    HW1 2135   1.044   1.842   2.759 -2.3956 -0.7915 -0.2188
  712SOL    HW2 2136   1.084   1.733   2.875  0.5382  2.1874 -0.4715
  713SOL     OW 2137   0.833   0.925   1.780 -0.4819  0.1785  0.2495
  713SOL    HW1 2138   0.845   0.941   1.680 -1.0986 -1.0351  0.3248
  713SOL    HW2 2139   0.794   0.829   1.791  2.9914 -1.5140  0.3857
  714SOL     OW 2140   1.784   2.024   1.324 -0.0989  0.5281  0.6188
  714SOL    HW1 2141   1.747   2.008   1.230 -1.6752  1.7754 -1.1983
  714SOL    HW2 2142   1.713   2.072   1.382 -0.3966  0.8138  1.5574
  715SOL     OW 2143   0.097   0.333   0.564 -0.2849 -0.0850 -0.0473
  715SOL    HW1 2144   0.119   0.254   0.631  0.4107 -0.5065 -0.6384
  715SOL    HW2 2145   0.155   0.324   0.481 -1.3342  1.9144  1.4490
  716SOL     OW 2146   0.870   2.591   0.293  0.3364 -0.3047 -0.1308
  716SOL    HW1 2147   0.926   2.527   0.240  1.3403 -1.0354  0.4501
  716SOL    HW2 2148   0.820   2.656   0.230 -3.1689  1.4944  1.1662
  717SOL     OW 2149   0.247   0.307   0.328  0.0112 -0.4578 -0.4074
  717SOL    HW1 2150   0.344   0.295   0.297 -2.7969  0.7165 -0.9661
  717SOL    HW2 2151   0.181   0.253   0.272 -1.3324  0.0195 -0.5641
  718SOL     OW 2152   1.702   2.513   1.108 -0.4246  0.1126 -0.6446
  718SOL    HW1 2153   1.633   2.477   1.172 -0.3025 -1.7108 -3.0445
  718SOL    HW2 2154   1.762   2.586   1.148 -0.4479  1.9994 -1.1474
  719SOL     OW 2155   2.988   2.134   0.761  0.0305  0.1755  0.2479
  719SOL    HW1 2156   3.057   2.063   0.782  1.9463  2.0483 -2.4729
  719SOL    HW2 2157   2.905   2.145   0.821  1.7466  1.5278  1.8765
  720SOL     OW 2158   0.995   1.188   0.862  0.1738 -0.8604  0.0771
  720SOL    HW1 2159   0.931   1.248   0.909  1.8518  1.4702  0.0300
  720SOL    HW2 2160   1.080   1.177   0.920  1.6092  0.0199  1.4878
  721SOL     OW 2161   0.916   0.495   0.874  0.2063  0.2281  0.4607
  721SOL    HW1 2162   0.820   0.497   0.909 -2.8598  1.2855 -1.0378
  721SOL    HW2 2163   0.963   0.411   0.907 -2.1638 -1.4860 -0.4083
  722SOL     OW 2164   1.221   1.142   1.460 -0.1681 -0.2286 -0.1839
  722SOL    HW1 2165   1.269   1.227   1.430  2.0791  1.4196  0.2138
  722SOL    HW2 2166   1.294   1.076   1.496  0.3645 -0.0618  0.4332
  723SOL     OW 2167   0.694   0.312   1.838  0.3385 -0.8530 -0.0499
  723SOL    HW1 2168   0.706   0.348   1.742 -0.1187 -1.0049 -0.6816
  723SOL    HW2 2169   0.638   0.373   1.896 -0.2332 -3.2834 -1.8535
  724SOL     OW 2170   1.989   1.926   1.873  0.1975 -0.2033  0.4562
  724SOL    HW1 2171   2.008   1.836   1.826  3.2978 -2.1948  1.0061
  724SOL    HW2 2172   1.906   1.980   1.841  0.8741  1.3367  0.0158
  725SOL     OW 2173   0.910   2.792   1.458 -0.7113 -0.5293  0.1987
  725SOL    HW1 2174   0.930   2.696   1.486 -1.7078 -2.1147  1.4755
  725SOL    HW2 2175   0.892   2.855   1.537  1.8944  1.8572  0.2600
  726SOL     OW 2176   1.501   0.481   0.288 -0.3236  0.1422 -0.1329
  726SOL    HW1 2177   1.562   0.438   0.359  1.2829 -1.2555  1.9176
  726SOL    HW2 2178   1.547   0.486   0.195 -0.0581 -1.7996 -0.9781
  727SOL     OW 2179   1.525   2.228   1.056  0.0669 -0.0870 -0.0141
  727SOL    HW1 2180   1.585   2.247   0.974  0.4894 -0.2251 -2.9659
  727SOL    HW2 2181   1.472   2.146   1.030  2.5329 -0.4226  0.0484
  728SOL     OW 2182   1.546   0.103   2.343 -0.0591  0.1939 -0.2197
  728SOL    HW1 2183   1.608   0.055   2.276  0.8705 -1.0849 -0.0243
  728SOL    HW2 2184   1.456   0.057   2.361 -0.6472  0.9969  2.0547
  729SOL     OW 2185   2.155   1.434   0.891  0.4373 -0.2848  0.3254
  729SOL    HW1 2186   2.169   1.358   0.824 -1.0175  0.4945 -0.0005
  729SOL    HW2 2187   2.227   1.507   0.880  0.5673 -0.9644 -1.4998
  730SOL     OW 2188   1.879   1.107   2.687  0.2905 -0.3853  0.4682
  730SOL    HW1 2189   1.859   1.140   2.595  1.7980 -1.0947  1.1130
  730SOL    HW2 2190   1.799   1.119   2.751 -2.5898  0.5684  3.3723
  731SOL     OW 2191   0.250   0.012   1.335 -0.1033 -0.5224 -0.0373
  731SOL    HW1 2192   0.177   0.077   1.333  1.0377  0.4709 -0.2595
  731SOL    HW2 2193   0.286   3.053   1.241  0.4767  2.1860 -0.0810
  732SOL     OW 2194   1.699   0.646   1.517  0.7251  0.0635 -0.2480
  732SOL    HW1 2195   1.768   0.580   1.548 -2.3020  0.9221 -0.5530
  732SOL    HW2 2196   1.718   0.712   1.442 -1.0278  1.3092 -0.1307
  733SOL     OW 2197   0.972   1.417   1.890  0.5678  0.0185  0.2976
  733SOL    HW1 2198   1.013   1.373   1.811 -2.5646  2.8143 -0.8681
  733SOL    HW2 2199   0.989   1.368   1.974 -1.0416  2.9913 -1.4490
  734SOL     OW 2200   2.564   1.705   0.307 -0.2074  0.2415 -0.0561
  734SOL    HW1 2201   2.480   1.671   0.260  0.3753  0.7066 -1.4855
  734SOL    HW2 2202   2.585   1.798   0.275 -1.9627  0.2792 -0.0278
  735SOL     OW 2203   0.582   0.751   0.256  0.4053 -0.7606  0.2157
  735SOL    HW1 2204   0.497   0.690   0.257 -0.2627  0.0221  2.9223
  735SOL    HW2 2205   0.614   0.769   0.350 -0.9057  1.4847 -2.1368
  736SOL     OW 2206   1.703   2.571   0.189  0.1271 -0.1677  0.2868
  736SOL    HW1 2207   1.801   2.599   0.219  2.0597  0.3124 -0.1454
  736SOL    HW2 2208   1.693   2.593   0.088  0.1710 -0.1023 -3.3343
  737SOL     OW 2209   1.208   2.169   1.221 -0.0988  0.0218  0.0936
  737SOL    HW1 2210   1.243   2.151   1.317 -0.7933  1.3569  0.9211
  737SOL    HW2 2211   1.274   2.145   1.148 -0.6583  1.5447 -0.9313
  738SOL     OW 2212   1.967   2.963   2.624  0.2298 -0.0109 -0.0534
  738SOL    HW1 2213   1.911   3.041   2.596  1.8830 -2.8574  0.0161
  738SOL    HW2 2214   1.985   2.897   2.547  3.3282  1.0787 -0.5077
  739SOL     OW 2215   1.827   2.287   2.648 -0.3186  0.5461 -1.0188
  739SOL    HW1 2216   1.922   2.262   2.657 -1.3368 -2.9931  0.6516
  739SOL    HW2 2217   1.816   2.388   2.640  1.7613 -0.7926 -1.1293
  740SOL     OW 2218   1.925   2.154   2.085 -0.6043 -0.1590  0.4236
  740SOL    HW1 2219   1.933   2.052   2.068  0.8852 -2.1622  1.7876
  740SOL    HW2 2220   2.003   2.184   2.144 -0.0377 -0.8737  1.2430
  741SOL     OW 2221   2.490   2.123   2.608  0.1803 -0.1439  0.1873
  741SOL    HW1 2222   2.456   2.218   2.617 -0.9476  2.4591 -0.3839
  741SOL    HW2 2223   2.471   2.076   2.697 -1.7577  1.0178  1.4895
  742SOL     OW 2224   1.141   1.344   2.740 -0.3250 -0.1535 -0.1547
  742SOL    HW1 2225   1.240   1.341   2.752 -2.2263 -1.5370 -0.0681
  742SOL    HW2 2226   1.124   1.315   2.646 -0.2358 -2.6292  0.7404
  743SOL     OW 2227   1.400   1.338   2.796 -0.1791  0.4227  0.0863
  743SOL    HW1 2228   1.437   1.246   2.775 -1.0813 -0.6676 -1.0168
  743SOL    HW2 2229   1.444   1.385   2.873 -1.2098  2.0282  1.8093
  744SOL     OW 2230   2.211   3.036   1.244 -0.3526 -0.5406 -0.3249
  744SOL    HW1 2231   2.294   2.990   1.280 -2.6108 -0.4173  0.5648
  744SOL    HW2 2232   2.192   2.993   1.154  0.1229  1.4723  2.2964
  745SOL     OW 2233   2.582   0.908   0.752  0.2560  1.0526 -0.5459
  745SOL    HW1 2234   2.556   0.946   0.660 -2.5702 -1.5963 -0.8400
  745SOL    HW2 2235   2.586   0.976   0.830 -0.7001  1.4202  2.2608
  746SOL     OW 2236   2.609   1.767   1.187  0.3968  0.5156 -0.4825
  746SOL    HW1 2237   2.619   1.776   1.289  2.3884 -1.6900  0.7149
  746SOL    HW2 2238   2.574   1.856   1.152  1.8066  2.4157  1.5688
  747SOL     OW 2239   1.598   0.119   0.177 -0.1444  0.2064 -0.1876
  747SOL    HW1 2240   1.652   0.036   0.181  1.9755  2.5082 -2.1788
  747SOL    HW2 2241   1.508   0.095   0.136 -1.0524 -1.7748 -4.0886
  748SOL     OW 2242   0.501   1.210   0.076 -0.0540 -0.3064 -0.1118
  748SOL    HW1 2243   0.518   1.305   0.101  1.7378 -0.2671 -1.9799
  748SOL    HW2 2244   0.490   1.202   3.038  0.1946  1.8271  1.3356
  749SOL     OW 2245   2.650   0.665   2.282 -0.1891  0.2674 -0.3400
  749SOL    HW1 2246   2.599   0.597   2.340  2.6746  1.0254 -1.9928
  749SOL    HW2 2247   2.725   0.713   2.329 -0.1421  1.1224 -1.8981
  750SOL     OW 2248   0.785   0.644   1.779  0.2913  0.1083 -0.1798
  750SOL    HW1 2249   0.755   0.598   1.866 -1.5453 -1.2885  0.2132
  750SOL    HW2 2250   0.773   0.579   1.703 -0.3751  2.2133  0.8582
  751SOL     OW 2251   2.391   2.594   1.783 -0.3198  0.5232  0.2112
  751SOL    HW1 2252   2.316   2.526   1.798 -0.0488 -0.3111 -1.9426
  751SOL    HW2 2253   2.410   2.657   1.861  1.8165 -0.8905  1.6051
  752SOL     OW 2254   1.955   1.629   0.935 -0.2822  0.2859  0.4858
  752SOL    HW1 2255   1.991   1.533   0.947  0.2438  1.3046  0.5816
  752SOL    HW2 2256   1.969   1.668   0.839  0.1574  2.1903 -0.5645
  753SOL     OW 2257   0.998   1.028   1.967  0.0330  0.1156 -0.3364
  753SOL    HW1 2258   0.929   0.983   1.912 -2.3398 -0.7166  0.3894
  753SOL    HW2 2259   1.088   0.982   1.957 -1.6592 -1.2295  0.7835
  754SOL     OW 2260   0.698   2.500   0.505  0.5876  0.2237  0.2907
  754SOL    HW1 2261   0.782   2.558   0.482  1.5005  1.0330  0.9764
  754SOL    HW2 2262   0.671   2.502   0.600 -1.0548 -2.1199 -2.9200
  755SOL     OW 2263   2.589   2.881   0.750 -0.3271 -0.2749  0.1962
  755SOL    HW1 2264   2.504   2.832   0.778  0.9799  0.1792 -0.2228
  755SOL    HW2 2265   2.652   2.875   0.827 -0.5378  1.1531  0.1218
  756SOL     OW 2266   2.407   1.880   2.459 -0.5868  0.1350  1.3722
  756SOL    HW1 2267   2.405   1.958   2.522  0.5040 -1.7901 -1.5666
  756SOL    HW2 2268   2.413   1.903   2.360 -0.6332  2.2301  1.4901
  757SOL     OW 2269   3.062   2.918   1.587 -0.2065  0.4592 -0.2935
  757SOL    HW1 2270   3.000   2.856   1.643 -1.4293 -0.7678  1.0732
  757SOL    HW2 2271   3.048   3.014   1.620 -0.0925  1.0820 -1.3634
  758SOL     OW 2272   0.488   2.735   0.362 -0.4042  0.1072  0.2355
  758SOL    HW1 2273   0.567   2.758   0.427  1.0600  1.7124 -1.8916
  758SOL    HW2 2274   0.504   2.656   0.304 -1.2967 -2.4917  1.0703
  759SOL     OW 2275   1.969   1.204   1.152 -0.4200  0.6350 -0.1900
  759SOL    HW1 2276   1.898   1.269   1.118 -1.2400 -3.8587 -0.9223
  759SOL    HW2 2277   1.965   1.120   1.098  2.8651 -0.3060  0.7192
  760SOL     OW 2278   1.395   0.991   1.583 -0.1116  0.5868 -0.5286
  760SOL    HW1 2279   1.398   0.891   1.550 -0.9480 -3.7204 -2.1344
  760SOL    HW2 2280   1.485   1.012   1.630  0.2315  0.5027 -1.9816
  761SOL     OW 2281   2.011   0.330   1.260 -0.0205 -0.0974  0.2557
  761SOL    HW1 2282   2.023   0.427   1.271  1.9152 -1.0402 -3.4189
  761SOL    HW2 2283   2.051   0.301   1.175  1.3688  1.4864  1.4869
  762SOL     OW 2284   1.666   0.317   0.445  0.3284  0.0970 -0.3563
  762SOL    HW1 2285   1.714   0.232   0.412 -0.4790 -0.3518 -0.9425
  762SOL    HW2 2286   1.631   0.306   0.546 -1.1661 -2.9608  3.1382
  763SOL     OW 2287   0.749   0.417   1.595  0.8884 -0.2389  0.0988
  763SOL    HW1 2288   0.681   0.444   1.527  1.1433  0.0296  3.0492
  763SOL    HW2 2289   0.841   0.424   1.557 -4.6908 -0.7058  0.0087
  764SOL     OW 2290   2.179   2.215   2.206 -0.2675 -0.2117 -0.1143
  764SOL    HW1 2291   2.216   2.150   2.134 -0.1957  1.5585 -1.9025
  764SOL    HW2 2292   2.240   2.302   2.202  2.7302  1.0831  2.9829
  765SOL     OW 2293   3.006   1.231   2.684 -0.1283 -0.9287 -0.0833
  765SOL    HW1 2294   2.933   1.301   2.702  2.8549 -2.7463  1.8854
  765SOL    HW2 2295   2.984   1.152   2.748  0.5776  0.8256  0.4161
  766SOL     OW 2296   2.815   0.556   2.844 -0.3886  0.0282 -0.2253
  766SOL    HW1 2297   2.859   0.473   2.882 -1.5858 -0.2636 -0.6555
  766SOL    HW2 2298   2.718   0.527   2.827 -1.2443 -1.0315  1.1568
  767SOL     OW 2299   0.447   2.542   1.740 -0.9308 -0.2998  0.3207
  767SOL    HW1 2300   0.372   2.579   1.680 -1.1920  0.5817 -2.4823
  767SOL    HW2 2301   0.405   2.502   1.824  2.2836  0.5504 -0.1663
  768SOL     OW 2302   0.820   0.921   0.075 -0.0906  0.1180 -0.6372
  768SOL    HW1 2303   0.819   0.820   0.095 -0.5274  0.9992 -2.1810
  768SOL    HW2 2304   0.811   0.937   3.038  0.7725  3.6711  2.5092
  769SOL     OW 2305   1.214   2.403   0.444  0.0964  0.0320 -0.5914
  769SOL    HW1 2306   1.118   2.410   0.477  3.4432  0.8489 -0.2604
  769SOL    HW2 2307   1.277   2.382   0.525 -0.8493 -0.5147 -0.1069
  770SOL     OW 2308   1.039   0.059   1.897 -0.0481 -0.5651  0.4274
  770SOL    HW1 2309   0.938   0.076   1.913 -0.2614 -0.1379 -0.8386
  770SOL    HW2 2310   1.080   0.007   1.971 -1.7984  1.4917 -1.4981
  771SOL     OW 2311   0.800   2.757   0.801  0.5003 -0.1775  0.1631
  771SOL    HW1 2312   0.891   2.726   0.768  1.8421 -2.4454 -0.2852
  771SOL    HW2 2313   0.802   2.825   0.875 -0.0745  0.3427  1.9135
  772SOL     OW 2314   2.370   0.622   0.269  0.3235 -0.1523  0.5763
  772SOL    HW1 2315   2.394   0.630   0.368  2.2513 -2.3777  1.2958
  772SOL    HW2 2316   2.272   0.650   0.246 -3.3069 -0.7086  3.5983
  773SOL     OW 2317   2.145   0.665   1.805  0.2315 -0.3006  0.1515
  773SOL    HW1 2318   2.226   0.629   1.754 -0.3953  0.6952  3.8024
  773SOL    HW2 2319   2.063   0.603   1.805  0.6384 -1.4870  2.8278
  774SOL     OW 2320   0.356   0.749   0.629 -0.4776 -0.0238  0.1152
  774SOL    HW1 2321   0.454   0.761   0.593  1.8460 -1.6323  1.5927
  774SOL    HW2 2322   0.320   0.841   0.661  0.0471 -0.2875 -0.5149
  775SOL     OW 2323   1.670   0.221   0.981  0.3274  0.1402 -0.1573
  775SOL    HW1 2324   1.690   0.306   1.031 -0.5174  1.0732 -0.9122
  775SOL    HW2 2325   1.751   0.209   0.921  0.5771  0.0433 -0.2366
  776SOL     OW 2326   2.068   2.930   2.182 -0.3689  0.1643  1.2074
  776SOL    HW1 2327   2.164   2.906   2.157 -1.5014 -1.1012 -1.2395
  776SOL    HW2 2328   2.050   3.031   2.178  0.2723  0.1952  2.9155
  777SOL     OW 2329   1.308   1.473   0.397 -0.3567 -0.3884 -0.5689
  777SOL    HW1 2330   1.350   1.564   0.389 -1.8566  0.8745  1.1751
  777SOL    HW2 2331   1.253   1.446   0.316 -1.9124 -3.3607 -1.7425
  778SOL     OW 2332   0.481   2.526   0.032 -0.5281  0.7807 -0.3407
  778SOL    HW1 2333   0.505   2.493   0.124  1.1794  1.1895 -1.2009
  778SOL    HW2 2334   0.518   2.621   0.014  0.0363 -0.9063 -2.2528
  779SOL     OW 2335   0.140   1.514   0.320  0.0496  0.0333 -0.4524
  779SOL    HW1 2336   0.051   1.465   0.312  0.3445  0.2286  1.1410
  779SOL    HW2 2337   0.129   1.598   0.376 -2.0401 -0.2793 -0.7629
  780SOL     OW 2338   1.479   0.245   2.069 -0.2533 -0.1992  0.5561
  780SOL    HW1 2339   1.534   0.212   2.150  1.3327  0.3033  1.0731
  780SOL    HW2 2340   1.458   0.172   1.999  0.5689 -0.1611  0.3006
  781SOL     OW 2341   1.727   1.953   1.064  0.1693 -0.0300  0.6674
  781SOL    HW1 2342   1.681   1.985   0.981 -1.2674  1.1404 -0.8100
  781SOL    HW2 2343   1.821   1.924   1.047 -1.5081  2.4452 -0.3009
  782SOL     OW 2344   2.217   2.646   2.072 -0.5167  0.3562 -0.1761
  782SOL    HW1 2345   2.122   2.631   2.104  0.2784 -0.3304 -0.2160
  782SOL    HW2 2346   2.244   2.744   2.078 -0.8981 -4.4040  1.6722
  783SOL     OW 2347   1.412   0.558   1.654  0.4104  0.2312  0.0019
  783SOL    HW1 2348   1.351   0.510   1.720  1.8275  3.5709  0.1579
  783SOL    HW2 2349   1.468   0.623   1.701  0.1944 -2.8524 -1.1242
  784SOL     OW 2350   1.455   0.777   1.792 -0.4296  0.3366  0.2061
  784SOL    HW1 2351   1.515   0.855   1.764  1.5098 -0.0683  1.3832
  784SOL    HW2 2352   1.369   0.812   1.838  0.0485 -0.8298  0.0628
  785SOL     OW 2353   1.771   0.792   0.488 -0.1434 -0.0008 -0.4625
  785SOL    HW1 2354   1.700   0.826   0.426  1.8503  1.1592  0.8774
  785SOL    HW2 2355   1.737   0.740   0.569  1.3302 -1.5513  2.1753
  786SOL     OW 2356   2.747   1.180   0.475  0.4388 -0.0754  0.1743
  786SOL    HW1 2357   2.737   1.128   0.385  0.3783 -2.0352 -4.0972
  786SOL    HW2 2358   2.827   1.245   0.465  0.4634  1.3072 -0.7248
  787SOL     OW 2359   1.453   1.797   0.067  0.0040  0.0241  0.5061
  787SOL    HW1 2360   1.439   1.736   3.045  0.2602  2.7737 -1.6411
  787SOL    HW2 2361   1.412   1.888   0.052  2.2894  2.9821  1.6802
  788SOL     OW 2362   1.991   0.954   1.002 -0.0780  0.1584  0.0439
  788SOL    HW1 2363   2.040   0.873   0.962  2.8903  0.7080 -1.6666
  788SOL    HW2 2364   1.987   1.018   0.928 -1.8466 -0.5832  1.9257
  789SOL     OW 2365   3.042   1.760   2.136  0.1712  0.0723 -0.1893
  789SOL    HW1 2366   0.023   1.691   2.197  0.6716  2.3244 -1.5234
  789SOL    HW2 2367   2.947   1.777   2.171 -2.3800 -2.6623  0.2939
  790SOL     OW 2368   0.933   3.034   2.573 -0.5309 -0.3633  0.5758
  790SOL    HW1 2369   0.923   2.932   2.582  0.0655 -0.1732 -0.4356
  790SOL    HW2 2370   1.021   0.008   2.611 -1.1421  0.8749  3.5782
  791SOL     OW 2371   0.256   2.445   2.697  0.0888  0.1287 -0.7946
  791SOL    HW1 2372   0.233   2.485   2.788 -1.2413 -0.4424 -0.8936
  791SOL    HW2 2373   0.176   2.388   2.670  1.9086 -1.8640  0.5998
  792SOL     OW 2374   1.250   0.460   2.082  0.4763  0.1049 -0.1091
  792SOL    HW1 2375   1.310   0.379   2.111  1.1901 -1.2751 -0.5887
  792SOL    HW2 2376   1.259   0.459   1.979  2.8760 -1.5204  1.9374
  793SOL     OW 2377   2.660   3.028   2.401 -0.0195 -0.2393 -0.4380
  793SOL    HW1 2378   2.669   2.935   2.354  1.1746 -0.0507 -3.0109
  793SOL    HW2 2379   2.730   0.030   2.365 -0.1423  0.9496 -0.3136
  794SOL     OW 2380   0.124   0.175   1.863 -0.4985 -0.0106 -0.0799
  794SOL    HW1 2381   0.114   0.188   1.962 -0.3973 -0.4992 -1.1266
  794SOL    HW2 2382   0.212   0.123   1.838  0.9469 -0.1168  1.2184
  795SOL     OW 2383   2.642   1.269   0.193 -0.0877  0.3499 -0.4443
  795SOL    HW1 2384   2.735   1.244   0.166  0.0724 -1.8305  2.2605
  795SOL    HW2 2385   2.637   1.352   0.255 -0.5611  2.4354  2.0897
  796SOL     OW 2386   2.744   1.993   2.663 -0.0126  0.9815  0.1202
  796SOL    HW1 2387   2.805   2.034   2.590  1.2930 -0.3977 -0.8032
  796SOL    HW2 2388   2.646   2.001   2.621 -0.5375 -0.2440 -1.0691
  797SOL     OW 2389   3.000   1.911   0.237 -0.0984 -0.2323  0.0489
  797SOL    HW1 2390   3.032   1.827   0.195  0.4857 -3.9344 -0.4774
  797SOL    HW2 2391   2.907   1.891   0.281 -2.1788  0.2392  1.5837
  798SOL     OW 2392   0.463   0.542   1.757  0.8810  0.7079 -0.2549
  798SOL    HW1 2393   0.503   0.608   1.819  0.1217 -0.5307 -0.8555
  798SOL    HW2 2394   0.372   0.519   1.799  0.2304 -0.2844  0.2440
  799SOL     OW 2395   2.706   1.302   2.372  0.4215  0.1650 -0.4756
  799SOL    HW1 2396   2.749   1.236   2.312  0.1186  0.8792  2.8786
  799SOL    HW2 2397   2.640   1.358   2.319  2.7570  1.1338 -1.5092
  800SOL     OW 2398   3.060   2.204   0.511 -0.4198  0.1713 -0.1200
  800SOL    HW1 2399   3.002   2.176   0.595 -1.7844  0.8031  0.0256
  800SOL    HW2 2400   0.083   2.231   0.554 -1.7814  1.1045  0.7399
  801SOL     OW 2401   1.074   0.698   0.836 -0.3638  0.2268  0.6731
  801SOL    HW1 2402   1.038   0.791   0.816  1.1149 -1.6134  0.0370
  801SOL    HW2 2403   0.996   0.635   0.849  0.1755 -1.4215 -0.8458
  802SOL     OW 2404   1.925   2.165   0.861 -0.4367 -0.4695  0.1124
  802SOL    HW1 2405   1.982   2.086   0.883  1.3834 -0.7246 -5.3090
  802SOL    HW2 2406   1.895   2.155   0.763 -0.4886 -0.5922 -1.1804
  803SOL     OW 2407   2.981   1.338   0.481 -0.2795  0.1589 -0.5026
  803SOL    HW1 2408   0.014   1.298   0.492 -0.2498 -0.2260 -1.4446
  803SOL    HW2 2409   2.967   1.435   0.511 -0.1928  1.6420  0.4034
  804SOL     OW 2410   1.324   2.402   0.684 -0.4998  0.2797  0.0409
  804SOL    HW1 2411   1.250   2.423   0.750  0.7630 -1.9385 -2.5057
  804SOL    HW2 2412   1.387   2.477   0.657  0.8321 -2.4088 -0.2837
  805SOL     OW 2413   1.740   2.160   2.374  0.0018 -0.0258 -0.2801
  805SOL    HW1 2414   1.764   2.229   2.446 -2.8010 -2.0615  2.2048
  805SOL    HW2 2415   1.805   2.080   2.374  0.4762 -0.8340  1.3509
  806SOL     OW 2416   1.448   3.027   1.450  0.3601  0.0404 -0.4444
  806SOL    HW1 2417   1.496   0.046   1.412 -0.4081  2.3857  2.4788
  806SOL    HW2 2418   1.433   2.951   1.386 -0.7736 -1.9738 -3.4623
  807SOL     OW 2419   1.871   0.081   0.348  0.0346 -0.3840 -0.9180
  807SOL    HW1 2420   1.881   0.057   0.445 -0.3898 -0.6008 -0.7901
  807SOL    HW2 2421   1.811   0.015   0.304 -1.1626 -0.5176 -0.5218
  808SOL     OW 2422   0.416   1.499   2.771  0.4428  1.1181  0.9881
  808SOL    HW1 2423   0.315   1.511   2.783 -0.4960 -0.9230 -0.1124
  808SOL    HW2 2424   0.434   1.398   2.774 -0.8239 -0.3921 -0.1980
  809SOL     OW 2425   2.966   1.015   2.821  0.4736  0.5586 -0.4509
  809SOL    HW1 2426   3.053   1.027   2.863 -2.2997 -0.6000  0.2806
  809SOL    HW2 2427   2.922   0.933   2.868 -1.2283 -3.4735 -1.2714
  810SOL     OW 2428   2.578   0.448   2.789 -0.3260  0.3431  0.1001
  810SOL    HW1 2429   2.480   0.434   2.804  2.2652  0.3021 -1.1494
  810SOL    HW2 2430   2.607   0.406   2.698  1.3873 -0.7742 -1.3700
  811SOL     OW 2431   2.130   2.505   1.828  0.1696  0.1506 -0.0568
  811SOL    HW1 2432   2.048   2.527   1.777  3.9262  1.5061 -1.0326
  811SOL    HW2 2433   2.137   2.554   1.918  2.8803  1.3567 -0.3153
  812SOL     OW 2434   1.158   0.251   0.567  0.1080 -0.1688  0.3628
  812SOL    HW1 2435   1.252   0.252   0.602  0.6943  1.6006 -3.0187
  812SOL    HW2 2436   1.162   0.239   0.462  1.7894 -0.2875 -0.5774
  813SOL     OW 2437   1.877   0.446   1.845  0.3769  0.6055 -0.0810
  813SOL    HW1 2438   1.865   0.544   1.812  1.6070 -1.8806 -2.2582
  813SOL    HW2 2439   1.789   0.401   1.874 -0.1309  1.5521  2.6856
  814SOL     OW 2440   1.802   0.816   1.144 -0.0754 -0.4418 -0.4229
  814SOL    HW1 2441   1.845   0.728   1.175 -0.8836 -0.8170 -1.4010
  814SOL    HW2 2442   1.871   0.870   1.093  0.2224 -2.3136  0.5009
  815SOL     OW 2443   0.598   0.761   0.524 -0.5592  0.5186 -0.3139
  815SOL    HW1 2444   0.618   0.843   0.577 -1.9108 -0.9725  0.9594
  815SOL    HW2 2445   0.678   0.697   0.526 -0.6505 -3.5000  0.1342
  816SOL     OW 2446   2.355   2.435   0.404  0.6487  0.5137  0.0285
  816SOL    HW1 2447   2.357   2.338   0.434  1.2455 -0.2619 -2.6698
  816SOL    HW2 2448   2.257   2.466   0.376 -1.0175  1.4854 -2.9252
  817SOL     OW 2449   2.780   2.342   0.904 -0.0531 -0.2438  0.0146
  817SOL    HW1 2450   2.761   2.254   0.955  0.5573 -1.4235 -0.6650
  817SOL    HW2 2451   2.860   2.386   0.957  0.3915 -1.0763 -0.9302
  818SOL     OW 2452   1.762   0.772   0.133 -0.2121  0.5804 -0.0889
  818SOL    HW1 2453   1.842   0.822   0.109 -2.7980 -1.5338  0.3690
  818SOL    HW2 2454   1.703   0.821   0.194 -1.0280 -2.3346 -1.8224
  819SOL     OW 2455   0.535   0.484   0.685  0.3249  0.3425  0.0873
  819SOL    HW1 2456   0.456   0.533   0.655 -1.4370  2.7233  1.4246
  819SOL    HW2 2457   0.603   0.485   0.611 -0.0398 -2.4271  1.0403
  820SOL     OW 2458   1.998   0.777   1.505 -0.3373  0.4921 -0.2960
  820SOL    HW1 2459   2.067   0.854   1.496  1.0490  2.6678  2.0829
  820SOL    HW2 2460   1.951   0.787   1.598 -0.7391  2.0894  2.0273
  821SOL     OW 2461   2.835   0.256   0.923  0.1778  0.4008 -0.0290
  821SOL    HW1 2462   2.782   0.253   0.834 -0.2575 -2.8214  0.4787
  821SOL    HW2 2463   2.935   0.259   0.904  0.6164 -0.5305 -0.8810
  822SOL     OW 2464   0.953   2.304   2.151  0.5796 -0.0388  0.1761
  822SOL    HW1 2465   1.001   2.393   2.178  1.1864  0.1385 -0.7546
  822SOL    HW2 2466   0.873   2.293   2.214  1.2668  0.4097  2.3416
  823SOL     OW 2467   2.833   1.191   1.624 -0.0241 -0.9152 -0.8431
  823SOL    HW1 2468   2.915   1.138   1.651 -1.1580 -0.4390 -0.0847
  823SOL    HW2 2469   2.760   1.183   1.694 -0.6277 -2.4369  0.4187
  824SOL     OW 2470   0.648   2.498   2.363 -0.6443 -0.5471  0.1348
  824SOL    HW1 2471   0.587   2.440   2.420 -1.5694  1.8615  1.8614
  824SOL    HW2 2472   0.747   2.492   2.392 -1.8032 -0.7280  1.5421
  825SOL     OW 2473   1.543   1.631   2.918 -0.4857  0.6160 -0.6793
  825SOL    HW1 2474   1.525   1.672   2.826 -2.4829 -0.5072  5.0640
  825SOL    HW2 2475   1.643   1.630   2.933  0.7464 -1.3228  0.2194
  826SOL     OW 2476   0.928   2.029   0.046  0.1031 -0.0889 -0.1706
  826SOL    HW1 2477   0.917   2.073   0.136  1.6359 -1.1262  1.2502
  826SOL    HW2 2478   0.948   1.930   0.059 -0.1540  0.9243  0.0710
  827SOL     OW 2479   0.273   1.437   1.852  0.1812 -0.4002 -0.7203
  827SOL    HW1 2480   0.248   1.533   1.835  1.7157 -0.2443 -0.3247
  827SOL    HW2 2481   0.237   1.377   1.772 -1.0102 -1.2481 -1.5745
  828SOL     OW 2482   0.338   1.793   1.550 -0.5890  0.3231 -0.3547
  828SOL    HW1 2483   0.278   1.874   1.562  1.2062  0.9283  1.0453
  828SOL    HW2 2484   0.335   1.754   1.454 -3.5488 -0.7469 -2.3777
  829SOL     OW 2485   3.023   2.205   2.871 -0.0056  0.2188  0.2480
  829SOL    HW1 2486   3.056   2.243   2.957  2.5343 -3.2403 -1.2196
  829SOL    HW2 2487   2.982   2.114   2.886  1.5757  4.4663 -1.4667
  830SOL     OW 2488   1.092   0.677   0.464 -0.2465  0.6368  0.0902
  830SOL    HW1 2489   1.061   0.594   0.516  1.0051 -1.3784 -1.8083
  830SOL    HW2 2490   1.062   0.670   0.372 -2.6342 -2.8006  0.1516
  831SOL     OW 2491   2.690   2.153   3.022  0.2563 -0.3196 -0.7347
  831SOL    HW1 2492   2.721   2.090   2.953 -2.5048  0.8325  2.0194
  831SOL    HW2 2493   2.622   2.215   2.977 -0.8521  3.5492  0.1131
  832SOL     OW 2494   1.732   2.471   0.502  0.1155 -0.7563  0.1061
  832SOL    HW1 2495   1.721   2.486   0.402  1.6816 -2.1605  0.9303
  832SOL    HW2 2496   1.828   2.473   0.529 -4.5703 -0.9977 -3.1539
  833SOL     OW 2497   0.267   1.105   2.245  0.3333 -0.1618 -0.5071
  833SOL    HW1 2498   0.253   1.181   2.175 -0.3001  1.9781 -2.2927
  833SOL    HW2 2499   0.328   1.138   2.318 -0.5753 -3.4804 -1.7598
  834SOL     OW 2500   2.217   0.298   0.738  0.1630  0.0784 -0.1322
  834SOL    HW1 2501   2.241   0.395   0.718 -2.3808  2.1503  0.0358
  834SOL    HW2 2502   2.155   0.258   0.668  0.2063 -1.2406  0.5898
  835SOL     OW 2503   2.288   0.716   2.039  0.5247 -0.0792  0.4795
  835SOL    HW1 2504   2.233   0.711   1.953 -0.4575 -0.8285 -0.7127
  835SOL    HW2 2505   2.246   0.647   2.102 -2.0729 -0.7376  1.8417
  836SOL     OW 2506   1.023   1.594   0.931 -0.1593  0.4375  0.0674
  836SOL    HW1 2507   1.074   1.633   0.849  2.3183  1.3927  0.3459
  836SOL    HW2 2508   1.025   1.648   1.019 -0.7140  0.7155  1.3400
  837SOL     OW 2509   2.382   1.140   1.944 -0.1306  0.0833 -0.0512
  837SOL    HW1 2510   2.315   1.205   1.909 -0.3975  3.4985 -1.4504
  837SOL    HW2 2511   2.397   1.148   2.046  0.3927 -1.8699  0.0254
  838SOL     OW 2512   3.053   0.952   2.534 -0.0911 -0.1319  0.5431
  838SOL    HW1 2513   2.962   0.918   2.498 -0.9814 -0.9473 -1.9965
  838SOL    HW2 2514   3.039   1.042   2.575 -1.8272 -0.4429 -3.4486
  839SOL     OW 2515   3.025   0.025   3.038 -0.2248  0.1319  0.0194
  839SOL    HW1 2516   2.977   0.066   2.961  2.4624 -1.2909 -0.5024
  839SOL    HW2 2517   2.959   3.054   0.046  0.8551 -0.5862  0.8948
  840SOL     OW 2518   2.821   1.399   2.754 -0.5079 -0.1246 -0.3853
  840SOL    HW1 2519   2.744   1.359   2.707 -0.2053  0.0698  0.8301
  840SOL    HW2 2520   2.791   1.471   2.819 -1.6400 -0.1315  1.7325
  841SOL     OW 2521   0.607   2.136   2.583 -0.1209  0.4852  0.2300
  841SOL    HW1 2522   0.600   2.105   2.485  3.7713 -1.0496 -1.0181
  841SOL    HW2 2523   0.701   2.118   2.613 -0.4787 -2.5684 -1.4924
  842SOL     OW 2524   0.653   0.076   0.916  0.1060 -0.3607  0.1825
  842SOL    HW1 2525   0.585   0.110   0.987 -1.3156  1.6700  0.1824
  842SOL    HW2 2526   0.651   0.133   0.829  3.5977  0.3983  0.0062
  843SOL     OW 2527   3.004   1.466   1.712 -0.3637 -0.3474 -0.0293
  843SOL    HW1 2528   3.006   1.553   1.653  0.1529  0.4265 -3.0980
  843SOL    HW2 2529   2.920   1.414   1.708  1.5657 -0.3794 -2.4115
  844SOL     OW 2530   2.182   2.081   2.434  0.2512  0.7281  0.4706
  844SOL    HW1 2531   2.163   2.134   2.518 -1.3872  0.1873 -0.9984
  844SOL    HW2 2532   2.184   2.140   2.352 -1.0826  0.6852  1.3532
  845SOL     OW 2533   1.807   2.580   2.372  0.3344  0.4643  0.6914
  845SOL    HW1 2534   1.714   2.561   2.344  2.7411  0.6526  1.2411
  845SOL    HW2 2535   1.823   2.576   2.473  1.9551  0.7499  1.5536
  846SOL     OW 2536   2.354   1.565   0.208  0.0443 -0.3561 -0.4336
  846SOL    HW1 2537   2.282   1.625   0.159  1.1798  0.6921 -2.0577
  846SOL    HW2 2538   2.365   1.477   0.158  0.5051  0.1093  0.0247
  847SOL     OW 2539   2.351   0.042   2.762  0.2294  0.0493 -0.4095
  847SOL    HW1 2540   2.397   3.021   2.798  3.0446 -1.6873  1.2849
  847SOL    HW2 2541   2.408   0.126   2.761 -0.2099 -0.4555  1.6728
  848SOL     OW 2542   1.841   0.517   0.415 -0.2470 -0.8691  0.3701
  848SOL    HW1 2543   1.777   0.441   0.446 -3.6063 -0.3527  2.2680
  848SOL    HW2 2544   1.792   0.606   0.429  1.6080  0.2959  1.3391
  849SOL     OW 2545   1.033   0.327   2.699 -0.4845  0.9807  0.0205
  849SOL    HW1 2546   1.068   0.300   2.605  0.2757 -0.2435 -2.6098
  849SOL    HW2 2547   1.014   0.425   2.711 -0.6923  0.4307 -1.4561
  850SOL     OW 2548   0.073   0.450   3.061 -0.3630 -0.5104 -0.2414
  850SOL    HW1 2549   0.163   0.462   0.043 -1.5302  0.4663  2.2353
  850SOL    HW2 2550   0.055   0.529   2.996  0.6180 -0.7651 -1.4960
  851SOL     OW 2551   0.181   1.408   1.455  0.5185  0.0412  0.1173
  851SOL    HW1 2552   0.182   1.341   1.526  0.8034 -1.2393 -1.1520
  851SOL    HW2 2553   0.269   1.458   1.451  1.9822  2.0520  0.9408
  852SOL     OW 2554   1.202   0.853   1.900 -0.1036  0.5615  0.1116
  852SOL    HW1 2555   1.166   0.790   1.832 -0.4901  1.5977 -1.0312
  852SOL    HW2 2556   1.211   0.804   1.992  3.0593 -0.1517 -2.2002
  853SOL     OW 2557   2.118   1.332   2.824  0.4006  0.0508  0.1064
  853SOL    HW1 2558   2.109   1.284   2.911 -0.2096  0.6148 -2.4194
  853SOL    HW2 2559   2.026   1.327   2.785  0.8861 -0.6317  1.7616
  854SOL     OW 2560   1.070   1.289   1.678  0.4973 -0.4181  0.6056
  854SOL    HW1 2561   1.089   1.299   1.580 -0.0053  1.4360  2.8495
  854SOL    HW2 2562   1.143   1.238   1.722  1.9165  0.5383 -1.1072
  855SOL     OW 2563   0.380   2.182   1.796 -0.1987 -0.6119 -0.2969
  855SOL    HW1 2564   0.307   2.242   1.770  2.3869 -2.2551 -0.9532
  855SOL    HW2 2565   0.428   2.152   1.712  0.3858 -1.4439 -1.6436
  856SOL     OW 2566   1.086   1.264   2.497  0.2542  0.3982 -0.8411
  856SOL    HW1 2567   1.097   1.191   2.424  0.3559 -0.7292 -0.0751
  856SOL    HW2 2568   1.042   1.345   2.456 -0.7406  0.4284  4.2355
  857SOL     OW 2569   0.915   0.858   2.624  0.1883  0.0025 -0.7175
  857SOL    HW1 2570   0.822   0.854   2.582  0.0237  0.3264  0.5154
  857SOL    HW2 2571   0.949   0.765   2.632 -5.2097  2.7091 -0.3922
  858SOL     OW 2572   0.229   2.863   1.480 -0.6293 -0.3071 -0.2738
  858SOL    HW1 2573   0.247   2.948   1.430  0.2046 -0.1120  2.9482
  858SOL    HW2 2574   0.146   2.870   1.537  0.3223 -1.5747 -1.4390
  859SOL     OW 2575   2.456   0.198   0.777 -0.4242 -0.2541  0.0094
  859SOL    HW1 2576   2.367   0.231   0.736  0.8701  3.0680  1.2925
  859SOL    HW2 2577   2.464   0.236   0.871  0.5148  0.0011  0.1025
  860SOL     OW 2578   0.551   0.916   1.591 -0.2422 -0.1570 -0.2376
  860SOL    HW1 2579   0.559   0.886   1.687 -0.0747 -1.5953  1.2245
  860SOL    HW2 2580   0.636   0.958   1.557 -0.4695  0.7361  1.7251
  861SOL     OW 2581   1.417   0.774   1.435  0.2324 -0.2358 -0.0182
  861SOL    HW1 2582   1.476   0.710   1.485 -0.7566  1.6442 -0.2777
  861SOL    HW2 2583   1.481   0.828   1.377 -0.7729 -1.6286  1.0376
  862SOL     OW 2584   0.684   2.951   2.228  0.4924 -0.6163  0.1966
  862SOL    HW1 2585   0.643   3.019   2.163 -2.0694 -0.6433 -1.4229
  862SOL    HW2 2586   0.639   2.939   2.318  1.4408 -0.0365  2.0639
  863SOL     OW 2587   2.444   0.257   1.291  0.0534 -0.1392  0.2011
  863SOL    HW1 2588   2.492   0.182   1.343 -2.0830 -2.5831  3.6949
  863SOL    HW2 2589   2.344   0.259   1.330 -0.3650  2.0524  2.4625
  864SOL     OW 2590   2.717   2.761   2.587  0.1908 -0.1330  0.3461
  864SOL    HW1 2591   2.636   2.752   2.650  1.5823 -1.4616  0.9060
  864SOL    HW2 2592   2.688   2.780   2.489  0.0718  1.4661  1.3680
  865SOL     OW 2593   1.342   1.254   2.207 -0.3394 -0.3177 -1.1154
  865SOL    HW1 2594   1.350   1.170   2.263 -0.0975  0.0603  0.0533
  865SOL    HW2 2595   1.252   1.264   2.164 -0.7248 -2.2080 -1.0091
  866SOL     OW 2596   2.400   2.648   0.895  0.1865  0.0040  0.2613
  866SOL    HW1 2597   2.460   2.638   0.974 -1.2078 -0.3941 -0.0114
  866SOL    HW2 2598   2.392   2.565   0.835 -1.9890  0.6164 -0.2755
  867SOL     OW 2599   2.529   2.596   1.123  0.0391  0.0742  1.3197
  867SOL    HW1 2600   2.559   2.678   1.176  0.0263 -1.2376  0.7134
  867SOL    HW2 2601   2.569   2.513   1.164 -0.3723 -0.3856  1.6077
  868SOL     OW 2602   2.597   1.511   1.486 -0.1974  0.2782 -0.2552
  868SOL    HW1 2603   2.567   1.475   1.579 -1.3464 -0.2573  4.4885
  868SOL    HW2 2604   2.570   1.448   1.418 -0.8483  1.9967 -1.1687
  869SOL     OW 2605   2.102   1.486   2.053 -0.0845 -0.4135 -0.2757
  869SOL    HW1 2606   2.074   1.572   2.108  0.4577  0.5343  3.1348
  869SOL    HW2 2607   2.044   1.404   2.076  0.6620 -3.1495  0.0626
  870SOL     OW 2608   1.407   1.289   0.856 -0.3580 -0.1557 -0.1996
  870SOL    HW1 2609   1.456   1.205   0.832 -2.5993  0.9976  2.3375
  870SOL    HW2 2610   1.318   1.290   0.807 -1.7784 -0.8457  1.2558
  871SOL     OW 2611   2.218   1.317   1.844 -0.2295 -0.4132  0.3279
  871SOL    HW1 2612   2.137   1.287   1.786 -1.5453 -0.9552 -0.2978
  871SOL    HW2 2613   2.196   1.380   1.917 -1.2821 -0.3059  0.7050
  872SOL     OW 2614   1.525   1.439   2.329  0.1454  0.0572 -0.9065
  872SOL    HW1 2615   1.545   1.418   2.428 -0.9066  0.1089  0.5914
  872SOL    HW2 2616   1.453   1.386   2.286 -0.0692  0.6614 -0.9284
  873SOL     OW 2617   1.346   1.550   1.201 -0.5319  0.4077  0.7732
  873SOL    HW1 2618   1.255   1.508   1.166 -1.0170  1.0105 -2.4933
  873SOL    HW2 2619   1.416   1.533   1.124  4.4395 -0.6557  0.8782
  874SOL     OW 2620   1.521   1.474   1.015 -0.0969 -0.6412 -0.6411
  874SOL    HW1 2621   1.584   1.553   0.986 -0.5697  1.7633  1.5076
  874SOL    HW2 2622   1.489   1.414   0.943 -1.1069  0.9177  0.0261
  875SOL     OW 2623   2.323   0.335   2.714 -0.1890  0.7966 -0.3239
  875SOL    HW1 2624   2.266   0.411   2.673 -0.0047 -0.9801  0.1042
  875SOL    HW2 2625   2.394   0.288   2.656 -1.3984 -1.5090  1.1134
  876SOL     OW 2626   1.079   0.949   0.494 -0.6726 -0.2176 -0.0379
  876SOL    HW1 2627   1.088   0.846   0.484 -0.2743 -0.4489  0.9599
  876SOL    HW2 2628   1.165   1.004   0.473 -0.3837  0.3034 -0.6963
  877SOL     OW 2629   1.880   0.165   0.826 -0.1844 -0.2533 -0.5720
  877SOL    HW1 2630   1.930   0.148   0.742 -0.7276  0.2628 -0.2828
  877SOL    HW2 2631   1.875   0.073   0.875  0.9326 -3.7883  3.8355
  878SOL     OW 2632   2.776   1.922   0.410  0.5997 -0.3174  0.1650
  878SOL    HW1 2633   2.813   1.913   0.502 -1.0501 -3.2803 -0.7301
  878SOL    HW2 2634   2.703   1.992   0.405 -1.0375  0.4607  0.3039
  879SOL     OW 2635   2.749   2.232   1.880 -0.0579 -0.1018 -0.5070
  879SOL    HW1 2636   2.819   2.222   1.954 -1.7065  0.7686  1.1263
  879SOL    HW2 2637   2.729   2.145   1.829 -2.1078  0.7738  0.0880
  880SOL     OW 2638   0.539   1.395   0.803  0.1001  0.0948 -0.3497
  880SOL    HW1 2639   0.635   1.434   0.802 -0.0878 -1.3871 -0.3155
  880SOL    HW2 2640   0.506   1.402   0.902 -1.4814 -1.3718 -0.3969
  881SOL     OW 2641   1.565   0.456   2.654  0.0003  0.3223 -0.1818
  881SOL    HW1 2642   1.520   0.410   2.736  0.8289 -0.8237  2.2410
  881SOL    HW2 2643   1.524   0.421   2.564 -0.3002 -0.6919  0.6169
  882SOL     OW 2644   2.473   0.680   0.513  0.6569  0.0857 -0.2996
  882SOL    HW1 2645   2.489   0.780   0.525 -1.5616  0.3704 -4.1628
  882SOL    HW2 2646   2.546   0.617   0.548 -1.3268  0.3659  0.2269
  883SOL     OW 2647   1.702   0.846   2.538  0.3558 -0.1817 -0.2724
  883SOL    HW1 2648   1.637   0.799   2.597  1.5367  0.9269 -0.6450
  883SOL    HW2 2649   1.659   0.929   2.499 -0.2950 -1.6482  0.7986
  884SOL     OW 2650   0.350   2.918   1.790  0.0381  0.1388 -0.3226
  884SOL    HW1 2651   0.309   2.827   1.810  1.8945  0.0364 -0.6559
  884SOL    HW2 2652   0.352   2.931   1.692 -1.2517 -1.4677  3.4267
  885SOL     OW 2653   1.857   0.807   2.143  0.2273 -0.0461  0.0840
  885SOL    HW1 2654   1.910   0.726   2.120 -1.7861  2.3404  1.6381
  885SOL    HW2 2655   1.765   0.794   2.116  1.0586 -0.9278 -0.2410
  886SOL     OW 2656   1.709   0.026   2.825  0.1909  0.1305 -0.3219
  886SOL    HW1 2657   1.742   0.050   2.728 -1.3978  3.1064 -2.5069
  886SOL    HW2 2658   1.773   0.066   2.895 -1.3443  1.6132  0.0211
  887SOL     OW 2659   0.978   0.324   1.466 -0.3843 -0.0878 -0.0301
  887SOL    HW1 2660   1.031   0.392   1.413  1.0437 -0.0672 -1.0489
  887SOL    HW2 2661   0.937   0.251   1.408  0.1112  1.6215 -0.9427
  888SOL     OW 2662   2.331   0.560   1.670 -0.4168 -0.5407  0.0585
  888SOL    HW1 2663   2.417   0.530   1.718  0.2969  1.7998 -1.5161
  888SOL    HW2 2664   2.346   0.600   1.576 -0.2010  1.8383 -2.4695
  889SOL     OW 2665   1.407   0.147   0.678  0.1414  0.8747 -0.7455
  889SOL    HW1 2666   1.472   0.222   0.684  1.0941  0.5982 -1.1207
  889SOL    HW2 2667   1.416   0.099   0.771  4.2866  2.5211  0.5626
  890SOL     OW 2668   1.151   2.612   1.022  0.2463 -0.0414  0.4887
  890SOL    HW1 2669   1.253   2.618   1.035  2.3652  0.7609  0.6339
  890SOL    HW2 2670   1.104   2.701   0.996  0.9513  0.7761 -0.2993
  891SOL     OW 2671   3.036   1.282   0.113 -0.1883 -0.4467 -0.0630
  891SOL    HW1 2672   2.965   1.207   0.090  0.1255 -1.4253 -0.8593
  891SOL    HW2 2673   0.066   1.242   0.134 -1.7954 -2.1740 -0.1835
  892SOL     OW 2674   1.919   1.481   2.419  0.3361 -0.2686  0.4711
  892SOL    HW1 2675   1.954   1.519   2.327 -3.6030 -2.7067 -2.0851
  892SOL    HW2 2676   1.886   1.561   2.478 -0.7839 -1.2081 -0.4889
  893SOL     OW 2677   2.270   2.577   1.202  0.1153  0.5039  0.1798
  893SOL    HW1 2678   2.196   2.602   1.134 -0.2408  0.0503 -0.6658
  893SOL    HW2 2679   2.365   2.599   1.168 -0.5121  0.9923  1.5847
  894SOL     OW 2680   0.294   0.801   0.955 -0.1682 -0.0773 -0.0163
  894SOL    HW1 2681   0.281   0.708   0.915 -0.8337 -0.9241 -0.5008
  894SOL    HW2 2682   0.272   0.873   0.883 -2.8606  0.8854 -1.6522
  895SOL     OW 2683   2.935   2.088   2.453  0.1093  0.4975  0.0715
  895SOL    HW1 2684   2.880   2.066   2.368 -0.1736 -1.2284 -0.3956
  895SOL    HW2 2685   3.001   2.009   2.478  0.9361 -1.2577 -1.6824
  896SOL     OW 2686   1.319   3.059   2.471  0.0658 -0.6482 -0.1908
  896SOL    HW1 2687   1.287   0.016   2.566 -0.3689 -0.5138 -0.4909
  896SOL    HW2 2688   1.252   0.046   2.408  0.8469  2.5250  0.4713
  897SOL     OW 2689   0.451   2.088   1.564  0.6295 -0.3297  0.1467
  897SOL    HW1 2690   0.492   2.029   1.490 -0.7645 -0.9129 -1.3327
  897SOL    HW2 2691   0.424   2.177   1.524  2.7540  1.1886 -0.5400
  898SOL     OW 2692   0.783   2.190   1.677 -0.3468  0.1658  0.5533
  898SOL    HW1 2693   0.787   2.112   1.610 -0.0687 -0.9873  0.7997
  898SOL    HW2 2694   0.739   2.269   1.632 -0.0755 -0.8872  3.2785
  899SOL     OW 2695   1.721   3.061   1.869 -0.4590 -0.3948 -0.1891
  899SOL    HW1 2696   1.621   0.002   1.887  0.6121  1.3773 -1.4960
  899SOL    HW2 2697   1.742   3.058   1.768  1.3772  1.1849 -2.3010
  900SOL     OW 2698   1.567   1.081   0.462  0.4831  0.2182  0.1545
  900SOL    HW1 2699   1.594   1.174   0.432  1.6852 -0.1393 -0.9327
  900SOL    HW2 2700   1.560   1.071   0.565 -0.1958  0.1660  0.5328
  901SOL     OW 2701   1.339   1.028   2.371  0.1623 -0.0316  0.7207
  901SOL    HW1 2702   1.309   1.018   2.468 -0.9753  1.3866  2.2909
  901SOL    HW2 2703   1.362   0.939   2.333 -1.0895  2.5609  0.5505
  902SOL     OW 2704   0.056   1.902   0.759  0.1177  0.2499  0.3207
  902SOL    HW1 2705   0.132   1.842   0.720  1.6505  0.1321  2.5823
  902SOL    HW2 2706   0.039   1.882   0.855  1.1556 -0.8263 -1.8781
  903SOL     OW 2707   2.416   1.154   2.221  0.1442  0.7705 -0.0957
  903SOL    HW1 2708   2.389   1.249   2.244  2.5576 -0.8018  0.1035
  903SOL    HW2 2709   2.439   1.100   2.303 -0.8039  3.0521  1.5927
  904SOL     OW 2710   1.339   2.044   0.038 -0.2209  0.1025 -0.3845
  904SOL    HW1 2711   1.270   2.062   3.029  0.1296  2.3858  1.9164
  904SOL    HW2 2712   1.296   2.072   0.125  0.7786 -3.9701 -2.3859
  905SOL     OW 2713   1.989   3.045   1.854  0.0958  0.5038  0.6369
  905SOL    HW1 2714   1.888   3.032   1.871 -0.5556  0.9663  0.8405
  905SOL    HW2 2715   2.017   0.078   1.877  0.2053  0.7407 -1.4256
  906SOL     OW 2716   1.085   2.431   0.207 -0.1296  0.9943  0.4614
  906SOL    HW1 2717   1.128   2.466   0.125 -2.3200 -1.4318  2.2947
  906SOL    HW2 2718   1.160   2.415   0.272  2.5406 -0.8593 -1.1307
  907SOL     OW 2719   0.177   2.662   0.766 -0.1177 -0.1741  0.0689
  907SOL    HW1 2720   0.235   2.618   0.839  0.7641 -2.6813  0.5012
  907SOL    HW2 2721   0.232   2.679   0.682 -0.4689  0.5939 -0.4053
  908SOL     OW 2722   1.127   2.649   1.776  0.3446 -0.0510 -0.4313
  908SOL    HW1 2723   1.025   2.636   1.781  0.2216 -0.9609  0.0716
  908SOL    HW2 2724   1.136   2.740   1.729 -3.0688  0.8339 -3.0215
  909SOL     OW 2725   1.659   0.883   1.350  0.7148 -0.0341 -0.5678
  909SOL    HW1 2726   1.720   0.868   1.267  0.9565  0.3296  1.1216
  909SOL    HW2 2727   1.707   0.940   1.421 -0.8680 -0.5735 -0.7953
  910SOL     OW 2728   0.951   0.309   0.102 -0.4262  0.0155  0.3801
  910SOL    HW1 2729   0.982   0.403   0.063 -0.5147  1.2571 -2.1034
  910SOL    HW2 2730   0.944   0.235   0.031  0.0625 -0.0600 -0.4570
  911SOL     OW 2731   0.376   0.256   3.017  0.0240  0.3478 -0.1749
  911SOL    HW1 2732   0.343   0.169   3.057  0.5195  0.0472  1.6956
  911SOL    HW2 2733   0.314   0.303   2.951  0.5602 -1.5771  0.6855
  912SOL     OW 2734   0.237   1.890   2.753 -0.5337  0.4313 -0.2177
  912SOL    HW1 2735   0.204   1.918   2.660  2.8808 -0.2068 -1.6501
  912SOL    HW2 2736   0.167   1.892   2.830 -3.5135  2.9280  1.1341
  913SOL     OW 2737   2.491   0.020   0.098 -0.3481 -0.6643 -0.0183
  913SOL    HW1 2738   2.395   0.024   0.059 -0.5084  0.3933 -2.1102
  913SOL    HW2 2739   2.481   0.051   0.197 -1.7205  1.3012 -1.4145
  914SOL     OW 2740   1.289   1.500   1.943 -0.2326  0.1095 -0.6498
  914SOL    HW1 2741   1.249   1.594   1.923  2.5774 -0.3974  0.1564
  914SOL    HW2 2742   1.261   1.478   2.038 -0.4207  0.5352  2.3952
  915SOL     OW 2743   2.679   2.377   2.242 -0.1435  0.6795 -0.1110
  915SOL    HW1 2744   2.714   2.408   2.155 -2.1365 -1.1970  0.6149
  915SOL    HW2 2745   2.756   2.364   2.310  1.8550  0.1039 -1.8970
  916SOL     OW 2746   2.833   1.120   2.203 -0.6036  0.0400  0.4152
  916SOL    HW1 2747   2.918   1.071   2.175 -1.3016 -0.5126 -1.5651
  916SOL    HW2 2748   2.837   1.207   2.150  0.2374  1.0717 -0.1469
  917SOL     OW 2749   1.384   0.256   0.338  0.6573  0.6360 -0.2960
  917SOL    HW1 2750   1.416   0.349   0.321  2.8232 -0.4275  1.1480
  917SOL    HW2 2751   1.463   0.201   0.310  0.0789  2.7162 -0.6306
  918SOL     OW 2752   1.684   2.879   2.245 -0.0473  0.3658 -0.1216
  918SOL    HW1 2753   1.717   2.796   2.192  0.3236 -4.5611  1.3126
  918SOL    HW2 2754   1.717   2.968   2.210 -1.8685 -0.0093 -1.8229
  919SOL     OW 2755   1.806   2.370   2.000 -0.1136 -0.5885 -0.2293
  919SOL    HW1 2756   1.701   2.374   1.985 -1.0016 -3.3926 -1.4695
  919SOL    HW2 2757   1.838   2.273   2.007 -0.3736 -1.7296 -0.0674
  920SOL     OW 2758   0.252   0.955   0.094  0.3477  0.0295 -0.1002
  920SOL    HW1 2759   0.201   0.976   0.180  0.7452  0.8422 -0.0363
  920SOL    HW2 2760   0.347   0.988   0.104 -2.2648  0.1918  1.3842
  921SOL     OW 2761   2.158   0.872   2.477 -0.1846  0.2744 -0.4407
  921SOL    HW1 2762   2.069   0.822   2.455  1.3239  1.2294 -1.2210
  921SOL    HW2 2763   2.210   0.915   2.395  2.9419  2.3503  0.0902
  922SOL     OW 2764   1.224   1.658   2.621 -0.4480  0.1082 -0.2080
  922SOL    HW1 2765   1.169   1.733   2.580  0.8443 -0.6658  1.3061
  922SOL    HW2 2766   1.219   1.651   2.720  1.6058 -0.1324 -3.2213
  923SOL     OW 2767   0.803   1.354   2.179  0.5450 -0.4500 -0.3582
  923SOL    HW1 2768   0.705   1.388   2.172 -1.1539  2.7722 -0.2777
  923SOL    HW2 2769   0.863   1.429   2.209 -2.9160 -1.9459  3.5506
  924SOL     OW 2770   0.280   2.050   3.011 -0.3613  0.1538 -0.4240
  924SOL    HW1 2771   0.310   2.073   2.916 -1.6958  0.0565  1.3698
  924SOL    HW2 2772   0.198   1.988   3.004 -0.3360 -0.7577  0.9278
  925SOL     OW 2773   1.706   1.630   0.866  0.2709 -0.1064  0.2380
  925SOL    HW1 2774   1.798   1.633   0.910 -0.6998 -0.6745  2.4258
  925SOL    HW2 2775   1.695   1.699   0.792  2.0605 -0.6870 -3.3950
  926SOL     OW 2776   1.748   0.086   2.552  0.0618  0.3733 -0.0734
  926SOL    HW1 2777   1.674   0.058   2.485 -0.6354  0.4512 -0.8622
  926SOL    HW2 2778   1.783   0.181   2.533  0.1561  0.9710  0.0096
  927SOL     OW 2779   2.522   2.737   1.582 -0.3345  0.5672  0.1425
  927SOL    HW1 2780   2.565   2.799   1.644  0.4031 -1.4492  0.6186
  927SOL    HW2 2781   2.452   2.680   1.625  1.3254 -1.2292 -3.4528
  928SOL     OW 2782   0.457   0.980   2.710 -0.3478  0.2103  0.1709
  928SOL    HW1 2783   0.413   0.891   2.731  1.5994  1.7967  1.3292
  928SOL    HW2 2784   0.531   0.964   2.644 -1.4674  0.2287  3.3337
  929SOL     OW 2785   0.038   0.242   0.859  0.2133  0.2001 -0.3491
  929SOL    HW1 2786   0.077   0.188   0.778 -0.5726 -2.0446 -0.6107
  929SOL    HW2 2787   0.096   0.321   0.893  1.6445  2.6942  3.4109
  930SOL     OW 2788   2.739   0.093   1.857 -1.0583 -0.1771  0.7560
  930SOL    HW1 2789   2.638   0.089   1.888 -2.5668 -1.3827 -0.8318
  930SOL    HW2 2790   2.769   0.169   1.793  2.2533  1.8665 -1.3977
  931SOL     OW 2791   2.098   1.252   0.016  0.2537 -0.5864  0.0909
  931SOL    HW1 2792   2.184   1.292   0.066  3.4894  1.2285  2.6594
  931SOL    HW2 2793   2.124   1.158   3.049  2.0587 -0.2149  2.3370
  932SOL     OW 2794   2.659   1.128   0.915  0.0005 -0.3912 -0.1287
  932SOL    HW1 2795   2.624   1.181   1.001 -2.0599 -1.2787  0.0918
  932SOL    HW2 2796   2.645   1.175   0.826 -0.3886 -2.8923  3.0089
  933SOL     OW 2797   2.781   2.358   1.628  0.5821 -0.6837  0.2347
  933SOL    HW1 2798   2.771   2.329   1.723  0.3220  0.7349  0.7051
  933SOL    HW2 2799   2.709   2.422   1.599  0.2538  1.0886  1.9218
  934SOL     OW 2800   0.809   2.920   1.011  0.3717 -0.4430 -0.2503
  934SOL    HW1 2801   0.779   2.912   1.110  0.4052 -0.7987 -2.4976
  934SOL    HW2 2802   0.761   3.002   0.971 -1.4250  1.8610 -2.5103
  935SOL     OW 2803   2.775   0.290   2.271  0.3810  0.4400 -0.3308
  935SOL    HW1 2804   2.816   0.377   2.240 -3.6610  1.8978  0.0392
  935SOL    HW2 2805   2.824   0.209   2.231 -0.2090 -0.4366 -0.2507
  936SOL     OW 2806   2.987   0.547   1.536  0.4044  0.8971  0.7549
  936SOL    HW1 2807   2.982   0.564   1.637 -1.2204  1.5725 -2.0959
  936SOL    HW2 2808   3.049   0.468   1.518 -2.9701 -0.7849  0.8712
  937SOL     OW 2809   1.909   1.491   1.795  0.7053  0.0796 -0.1644
  937SOL    HW1 2810   1.955   1.446   1.714  0.1390 -0.0636 -0.8307
  937SOL    HW2 2811   1.964   1.473   1.879 -0.8352  0.9291  2.3345
  938SOL     OW 2812   0.722   2.134   2.989  0.0703  0.0504 -0.4177
  938SOL    HW1 2813   0.650   2.066   2.994  1.5572  0.9254 -0.0038
  938SOL    HW2 2814   0.807   2.102   3.036 -2.0799  0.1475  1.4868
  939SOL     OW 2815   1.785   0.330   2.815  0.3977  0.7533  0.4715
  939SOL    HW1 2816   1.722   0.343   2.896 -1.3515  2.9914  1.1885
  939SOL    HW2 2817   1.862   0.265   2.836 -1.3869 -0.9198  1.6761
  940SOL     OW 2818   1.415   2.615   1.038 -0.0458  0.0610 -0.2123
  940SOL    HW1 2819   1.439   2.543   1.107 -1.4372  0.0267  0.8496
  940SOL    HW2 2820   1.503   2.622   0.982  1.0757  1.3844  0.2068
  941SOL     OW 2821   1.354   1.941   1.744  0.0811 -0.1753 -0.0553
  941SOL    HW1 2822   1.443   1.984   1.716  1.3488  0.5105  0.7995
  941SOL    HW2 2823   1.280   2.005   1.773  0.9323 -0.6373  2.1423
  942SOL     OW 2824   2.892   1.967   2.883  0.3220 -0.3962  0.0578
  942SOL    HW1 2825   2.858   1.884   2.936 -0.7411 -2.3662 -0.9383
  942SOL    HW2 2826   2.836   1.974   2.797 -0.6873 -0.9561  0.8639
  943SOL     OW 2827   2.661   2.913   1.715  0.1683 -0.7429 -0.0887
  943SOL    HW1 2828   2.692   3.009   1.734 -0.2198 -0.6794  1.1719
  943SOL    HW2 2829   2.748   2.856   1.707  2.6552  1.8212 -1.6419
  944SOL     OW 2830   1.695   2.148   2.856  0.3652 -0.2616  0.0330
  944SOL    HW1 2831   1.696   2.050   2.827  0.1266 -0.3354 -1.4325
  944SOL    HW2 2832   1.729   2.212   2.782  1.4907  2.9098  1.1535
  945SOL     OW 2833   2.964   2.067   1.187 -0.2540  0.6837 -0.9204
  945SOL    HW1 2834   2.894   1.999   1.224  1.1340 -2.1285  2.5308
  945SOL    HW2 2835   2.986   2.133   1.262  0.7807 -0.5447  0.6442
  946SOL     OW 2836   1.488   1.186   0.071 -0.3429  0.2004  0.4376
  946SOL    HW1 2837   1.590   1.175   0.100 -0.6221 -2.2994 -1.4392
  946SOL    HW2 2838   1.427   1.105   0.080  0.4213 -2.5809 -0.2083
  947SOL     OW 2839   0.020   0.999   2.163 -0.1870 -0.2892  0.5329
  947SOL    HW1 2840   0.101   1.054   2.196  0.7772 -0.1448  1.2084
  947SOL    HW2 2841   0.047   0.906   2.174 -1.1653  1.6320  1.6245
  948SOL     OW 2842   0.173   1.006   0.355 -0.1534 -0.0161 -0.0717
  948SOL    HW1 2843   0.137   1.083   0.406  0.0293 -1.0449 -1.1976
  948SOL    HW2 2844   0.276   1.007   0.360  2.0728 -0.7616  2.0687
  949SOL     OW 2845   0.608   0.328   2.649 -0.1250  1.2395  0.2797
  949SOL    HW1 2846   0.641   0.424   2.657 -0.1193  1.3831 -0.8905
  949SOL    HW2 2847   0.675   0.279   2.589  1.0982  0.1781  0.5109
  950SOL     OW 2848   0.100   0.452   1.191  0.0998  0.0639  0.8778
  950SOL    HW1 2849   0.020   0.413   1.242  0.1549 -1.2458 -2.3561
  950SOL    HW2 2850   0.121   0.540   1.222 -1.9976  0.2096 -0.1261
  951SOL     OW 2851   0.152   0.832   2.727  0.1184 -1.1057  0.4292
  951SOL    HW1 2852   0.102   0.886   2.649 -0.4559  0.1901  0.2535
  951SOL    HW2 2853   0.130   0.884   2.809 -2.8812 -0.4644 -1.4664
  952SOL     OW 2854   2.078   2.199   1.684 -0.5934  0.7471  0.2356
  952SOL    HW1 2855   2.066   2.109   1.634 -0.7358 -2.4761  0.3344
  952SOL    HW2 2856   2.149   2.188   1.755 -0.8482 -0.7299 -0.7466
  953SOL     OW 2857   0.223   2.518   3.006  0.3557  0.4046 -0.1693
  953SOL    HW1 2858   0.320   2.531   3.039 -2.9161  1.8859  0.0123
  953SOL    HW2 2859   0.179   2.439   3.050 -0.3685  1.2614 -1.0371
  954SOL     OW 2860   2.440   0.697   0.882 -0.0195  0.3088  0.1026
  954SOL    HW1 2861   2.512   0.648   0.935 -0.6091 -1.4723  1.9069
  954SOL    HW2 2862   2.483   0.754   0.810 -0.6134 -1.8715 -0.0309
  955SOL     OW 2863   1.259   1.247   0.245 -0.7807 -0.0029  0.1608
  955SOL    HW1 2864   1.326   1.288   0.174 -0.9545  0.6681 -3.4801
  955SOL    HW2 2865   1.208   1.171   0.202  0.6473  0.3318  2.5965
  956SOL     OW 2866   0.988   0.704   2.263  0.2796 -0.0233  0.1324
  956SOL    HW1 2867   0.936   0.787   2.251 -2.5275 -2.3718 -2.2540
  956SOL    HW2 2868   1.011   0.695   2.363 -1.3558 -0.3738  1.4341
  957SOL     OW 2869   0.455   0.426   2.175  0.6967  0.0334 -0.5982
  957SOL    HW1 2870   0.502   0.354   2.222 -0.0765  1.9930 -1.3252
  957SOL    HW2 2871   0.383   0.469   2.233 -0.1670  3.1090  0.5831
  958SOL     OW 2872   0.726   2.095   0.688  0.2144  0.0614 -0.3205
  958SOL    HW1 2873   0.732   1.993   0.675  1.3019  2.7175  0.7789
  958SOL    HW2 2874   0.673   2.124   0.773 -2.4276 -0.9478  0.5714
  959SOL     OW 2875   2.617   0.751   2.029  0.2311 -0.0896  0.3455
  959SOL    HW1 2876   2.523   0.754   1.989 -0.1313  0.6752  1.4855
  959SOL    HW2 2877   2.613   0.733   2.131 -1.2288  0.1304  3.5349
  960SOL     OW 2878   0.179   1.342   2.646  0.2996  0.1640  0.0980
  960SOL    HW1 2879   0.173   1.435   2.601  1.9675  0.6469  0.2196
  960SOL    HW2 2880   0.087   1.304   2.659  1.4979  0.1015 -2.1965
  961SOL     OW 2881   0.653   1.734   0.691  0.1806  0.3985 -0.2064
  961SOL    HW1 2882   0.698   1.756   0.601 -0.5764  0.7533  0.4233
  961SOL    HW2 2883   0.718   1.678   0.751  3.7265 -1.2571  0.7456
  962SOL     OW 2884   0.398   1.456   1.043  0.0069  0.3182 -0.2811
  962SOL    HW1 2885   0.338   1.390   1.095 -3.9818 -0.1313 -0.5491
  962SOL    HW2 2886   0.375   1.551   1.072  3.5421 -0.8301 -0.3869
  963SOL     OW 2887   1.375   2.506   3.057 -0.4716  0.1758 -0.3087
  963SOL    HW1 2888   1.453   2.439   3.038 -0.9276 -2.1743 -0.6119
  963SOL    HW2 2889   1.295   2.460   3.017 -0.3758 -1.4429  0.4770
  964SOL     OW 2890   0.370   2.692   2.618  0.3335  0.0883 -0.0838
  964SOL    HW1 2891   0.469   2.712   2.648  1.8733  0.3466  0.3519
  964SOL    HW2 2892   0.340   2.599   2.643 -0.6715 -2.2532 -1.5324
  965SOL     OW 2893   2.560   1.737   2.908 -0.4590  0.7354 -0.0918
  965SOL    HW1 2894   2.539   1.658   2.847 -0.4487  0.6669  1.1942
  965SOL    HW2 2895   2.481   1.790   2.939  0.6240 -2.7416 -0.2859
  966SOL     OW 2896   2.603   1.289   2.636 -0.1970 -0.4934 -0.1464
  966SOL    HW1 2897   2.637   1.292   2.537  2.3726 -1.0061 -2.3358
  966SOL    HW2 2898   2.524   1.228   2.652  1.5641  1.4953  1.0791
  967SOL     OW 2899   1.621   0.382   0.709 -1.0005  0.0236  0.7886
  967SOL    HW1 2900   1.714   0.358   0.749  3.9742  0.5467 -0.3859
  967SOL    HW2 2901   1.608   0.478   0.679 -0.9327 -1.6709  1.6190
  968SOL     OW 2902   2.638   2.955   0.442 -0.5350 -0.4104  0.4180
  968SOL    HW1 2903   2.737   2.938   0.460 -0.1493  0.8116 -0.6935
  968SOL    HW2 2904   2.614   3.039   0.496  1.1802 -2.4962 -1.4949
  969SOL     OW 2905   0.334   0.814   2.102  0.2816  0.2891 -0.7832
  969SOL    HW1 2906   0.404   0.750   2.128 -1.2006  0.2542 -1.1470
  969SOL    HW2 2907   0.247   0.779   2.139  0.5441 -0.4905  1.1825
  970SOL     OW 2908   2.028   1.717   2.777 -0.0689  0.2205 -0.0606
  970SOL    HW1 2909   2.055   1.807   2.809  0.2030 -1.6320  0.8600
  970SOL    HW2 2910   2.102   1.648   2.795 -1.4680 -0.2270  1.8074
  971SOL     OW 2911   2.847   2.943   1.982  0.3909  0.1141  0.3429
  971SOL    HW1 2912   2.809   3.028   1.941  1.7621  5.1090  0.2546
  971SOL    HW2 2913   2.778   2.867   1.965 -0.3110  1.6653  1.8437
  972SOL     OW 2914   0.117   0.589   0.619  0.0858  0.3795  0.2639
  972SOL    HW1 2915   0.124   0.489   0.582 -0.5765 -2.0725 -3.1120
  972SOL    HW2 2916   0.208   0.635   0.611  3.3630  1.6081 -0.9564
  973SOL     OW 2917   3.000   2.951   2.358  0.0461  0.1319 -0.1701
  973SOL    HW1 2918   3.000   2.849   2.349 -1.2176 -0.3211 -1.1721
  973SOL    HW2 2919   2.951   3.003   2.280  1.8888 -1.7501 -4.1193
  974SOL     OW 2920   2.773   0.705   1.462  0.6356 -0.1194  0.4564
  974SOL    HW1 2921   2.780   0.782   1.400 -1.0054  0.0037  0.5910
  974SOL    HW2 2922   2.868   0.666   1.475  1.6400  0.6151  1.4077
  975SOL     OW 2923   1.512   2.823   2.453  0.4471  0.2999 -0.4168
  975SOL    HW1 2924   1.447   2.902   2.441 -0.7363 -1.6240  0.7166
  975SOL    HW2 2925   1.599   2.822   2.393  1.9379 -1.2236 -3.5269
  976SOL     OW 2926   1.995   1.431   1.489  0.2796 -0.3840  0.2859
  976SOL    HW1 2927   2.003   1.327   1.483 -0.2073 -2.9937  0.2719
  976SOL    HW2 2928   1.914   1.467   1.440  0.9585  0.8842 -0.0690
  977SOL     OW 2929   2.711   2.799   0.195 -0.5367  0.1838  0.4612
  977SOL    HW1 2930   2.719   2.692   0.190 -0.5373 -2.5864 -1.3774
  977SOL    HW2 2931   2.656   2.825   0.275 -1.3176  0.7356  0.8492
  978SOL     OW 2932   1.971   1.036   2.259 -0.0823 -0.1606  0.0109
  978SOL    HW1 2933   2.066   1.016   2.231 -1.5258 -1.2501  0.4913
  978SOL    HW2 2934   1.912   0.957   2.237 -1.1909 -0.6664  1.4371
  979SOL     OW 2935   0.693   1.140   2.310  0.3286 -0.8916 -0.3827
  979SOL    HW1 2936   0.718   1.225   2.257  1.6862  3.1045 -2.1394
  979SOL    HW2 2937   0.703   1.161   2.412 -0.9290  1.1531  0.3297
  980SOL     OW 2938   1.714   1.890   2.794  0.1092  0.6623 -0.3381
  980SOL    HW1 2939   1.625   1.856   2.751 -0.7318  1.7145 -0.6013
  980SOL    HW2 2940   1.791   1.821   2.786  0.7485 -0.0936 -0.2072
  981SOL     OW 2941   1.054   0.672   1.764  0.0700 -0.2044 -0.0812
  981SOL    HW1 2942   1.081   0.683   1.664  2.6218  1.5223  1.9745
  981SOL    HW2 2943   0.953   0.668   1.780  0.8089 -0.8356  0.5505
  982SOL     OW 2944   1.014   0.159   2.945  0.1349  0.0260  0.4267
  982SOL    HW1 2945   1.026   0.214   2.862 -1.6982  0.8160  2.7036
  982SOL    HW2 2946   1.023   0.063   2.920  0.9653  0.6092  2.1611
  983SOL     OW 2947   2.209   0.917   0.139  0.0897 -0.4252 -0.8359
  983SOL    HW1 2948   2.290   0.907   0.077 -1.0483  1.5489  0.4085
  983SOL    HW2 2949   2.227   0.994   0.201  0.1947 -1.7012 -0.8500
  984SOL     OW 2950   1.372   0.427   3.039  0.4668  0.0041  0.4310
  984SOL    HW1 2951   1.473   0.417   3.058  1.8127  0.4447  2.6395
  984SOL    HW2 2952   1.321   0.338   0.005 -0.8721 -0.9987 -0.4451
  985SOL     OW 2953   1.407   2.851   2.147  0.4595  0.1211  0.4249
  985SOL    HW1 2954   1.502   2.863   2.180 -3.3187 -1.0264 -0.0143
  985SOL    HW2 2955   1.412   2.828   2.046 -1.7189 -0.7513 -0.4165
  986SOL     OW 2956   2.483   0.059   1.945 -0.3145 -0.8922 -0.6543
  986SOL    HW1 2957   2.443   0.113   2.022 -1.7694  2.2107 -1.6170
  986SOL    HW2 2958   2.407   0.022   1.890  0.3941  0.8486 -1.7911
  987SOL     OW 2959   2.223   1.305   1.126 -0.5318 -0.2642  0.4613
  987SOL    HW1 2960   2.204   1.354   1.037 -0.9923 -2.3223  0.0643
  987SOL    HW2 2961   2.143   1.255   1.166  1.3175  1.3969  0.6870
  988SOL     OW 2962   2.352   0.993   1.701  0.4279  0.2643 -0.3215
  988SOL    HW1 2963   2.433   0.938   1.670  1.5415  0.6979  2.6627
  988SOL    HW2 2964   2.363   1.015   1.800 -0.0200 -2.7042  0.8696
  989SOL     OW 2965   2.052   2.285   0.137 -0.0098  0.1273  0.2438
  989SOL    HW1 2966   1.967   2.261   0.092  2.8043  1.1710  1.9786
  989SOL    HW2 2967   2.097   2.200   0.180  1.8041  0.9510 -2.6214
  990SOL     OW 2968   1.246   0.718   2.140 -0.1216  0.6062 -0.2468
  990SOL    HW1 2969   1.153   0.734   2.166  2.8226 -2.1175 -2.6266
  990SOL    HW2 2970   1.256   0.618   2.118  1.3627  2.1970  0.9310
  991SOL     OW 2971   1.313   1.074   0.426  1.0685 -0.2169 -0.2633
  991SOL    HW1 2972   1.411   1.079   0.452 -3.0280  0.4675 -1.2163
  991SOL    HW2 2973   1.286   1.152   0.365 -0.3578  2.7956  1.3813
  992SOL     OW 2974   0.049   0.968   1.429  0.0121  0.4604  0.2181
  992SOL    HW1 2975   0.110   1.047   1.405  1.1724  1.8899 -3.3459
  992SOL    HW2 2976   3.035   0.956   1.368  0.4511 -2.4376  0.3458
  993SOL     OW 2977   2.505   0.304   2.298  0.0164  0.1706 -0.2400
  993SOL    HW1 2978   2.439   0.312   2.223  0.9068 -1.9530  2.1305
  993SOL    HW2 2979   2.604   0.310   2.264  0.0058  0.3222 -1.9202
  994SOL     OW 2980   1.610   1.960   1.632  0.6053 -0.1653  0.4095
  994SOL    HW1 2981   1.617   1.863   1.603 -1.3576 -2.7858 -0.0564
  994SOL    HW2 2982   1.687   1.999   1.686  2.1360 -1.5506 -1.9033
  995SOL     OW 2983   2.371   1.899   3.057 -0.0072 -0.5909  0.0515
  995SOL    HW1 2984   2.443   1.926   0.058 -2.3679 -0.3049  0.1443
  995SOL    HW2 2985   2.300   1.847   0.044  2.4936 -1.8855 -1.1142
  996SOL     OW 2986   2.184   1.665   0.024  0.3263 -0.5853 -0.2969
  996SOL    HW1 2987   2.124   1.588   0.059 -0.9865  0.4140  0.6343
  996SOL    HW2 2988   2.209   1.663   2.986  0.0777  0.6081 -0.6890
  997SOL     OW 2989   1.515   0.561   2.236  0.1687  0.0759  0.0271
  997SOL    HW1 2990   1.467   0.542   2.146 -0.1941  1.8980 -2.2365
  997SOL    HW2 2991   1.454   0.623   2.294  4.9585  1.5411  0.0594
  998SOL     OW 2992   2.630   0.478   0.641 -0.4668  0.7273 -0.1792
  998SOL    HW1 2993   2.637   0.411   0.565  2.9480 -1.8030 -0.9369
  998SOL    HW2 2994   2.647   0.428   0.725 -0.4808  2.5713  0.3105
  999SOL     OW 2995   2.652   1.295   0.699  0.0643 -0.0487 -0.3476
  999SOL    HW1 2996   2.677   1.391   0.724 -0.7713  1.4197 -0.1394
  999SOL    HW2 2997   2.704   1.265   0.616  0.7315 -2.0353 -1.9770
 1000SOL     OW 2998   0.467   1.572   1.982  0.2830  0.4305  0.0665
 1000SOL    HW1 2999   0.540   1.505   1.948 -0.2549  1.0447  2.7824
 1000SOL    HW2 3000   0.380   1.553   1.933  1.6056 -0.5527 -1.9694
   3.06249   3.06249   3.06249
