1000 SPC/Fw water molecules t= 149.00000 step= 149000
 3000
    1SOL     OW    1   2.325   2.791   0.630  0.1284 -0.3054 -0.4613
    1SOL    HW1    2   2.424   2.805   0.650  1.7840  3.8871 -0.2662
    1SOL    HW2    3   2.286   2.712   0.684  1.1682 -0.7397 -0.4295
    2SOL     OW    4   1.474   1.951   2.276 -0.2888 -0.1737  0.2225
    2SOL    HW1    5   1.430   2.044   2.254  0.3485  0.1109  1.2377
    2SOL    HW2    6   1.576   1.964   2.274  1.6231  2.5001 -2.1074
    3SOL     OW    7   1.716   2.572   2.197  0.0158 -0.2835 -0.3116
    3SOL    HW1    8   1.819   2.574   2.198 -2.0320  1.9116 -0.8902
    3SOL    HW2    9   1.689   2.583   2.099 -0.4170 -1.0626  0.6901
    4SOL     OW   10   1.676   2.607   1.927  0.5131  0.1677 -0.2931
    4SOL    HW1   11   1.703   2.511   1.895 -1.9411 -4.0129  1.8374
    4SOL    HW2   12   1.742   2.676   1.901 -2.3563 -2.7918 -1.2792
    5SOL     OW   13   0.613   0.506   1.475 -0.4543 -0.7794  0.0195
    5SOL    HW1   14   0.616   0.507   1.375  0.0434  0.8003 -1.8360
    5SOL    HW2   15   0.576   0.415   1.503  0.0841  0.9094 -0.8028
    6SOL     OW   16   2.385   0.993   2.950  0.0521  0.3663  0.1762
    6SOL    HW1   17   2.370   0.958   3.046  0.8849  2.3976  3.1116
    6SOL    HW2   18   2.353   0.929   2.876  1.3571 -0.4131 -0.7228
    7SOL     OW   19   0.660   0.508   1.215 -0.1187 -0.2777  0.0155
    7SOL    HW1   20   0.720   0.437   1.173  0.3775 -1.6907 -0.1317
    7SOL    HW2   21   0.674   0.602   1.178 -0.5529  1.4487  1.1596
    8SOL     OW   22   1.283   2.445   1.610  0.2254  0.2674  0.3947
    8SOL    HW1   23   1.214   2.406   1.674 -3.6078 -1.7355  0.7966
    8SOL    HW2   24   1.335   2.366   1.572 -3.6051 -3.0230  1.3190
    9SOL     OW   25   0.711   1.159   0.133  0.0496  0.4271 -0.6444
    9SOL    HW1   26   0.714   1.087   0.060  0.5158  0.2419 -2.0924
    9SOL    HW2   27   0.624   1.168   0.181  0.3693  1.9175 -1.5509
   10SOL     OW   28   0.451   2.665   2.837 -0.0379 -0.6147 -0.8020
   10SOL    HW1   29   0.424   2.569   2.849 -0.0337 -0.6767  1.2683
   10SOL    HW2   30   0.523   2.674   2.764 -0.9373 -1.7836  0.5122
   11SOL     OW   31   0.115   1.603   3.056  0.2014  0.0212  0.3674
   11SOL    HW1   32   0.042   1.654   0.018 -0.1199 -1.6169  1.6756
   11SOL    HW2   33   0.147   1.637   2.964  1.1583 -1.0233 -1.0114
   12SOL     OW   34   0.592   2.961   1.519 -0.1159  0.4107 -0.5643
   12SOL    HW1   35   0.497   2.980   1.487 -0.9329  4.0597  1.0848
   12SOL    HW2   36   0.653   2.956   1.438 -1.1286 -2.5332 -1.5585
   13SOL     OW   37   0.710   2.645   0.519  0.4952 -0.0266  0.2643
   13SOL    HW1   38   0.724   2.542   0.534  3.7825 -3.5625  0.1252
   13SOL    HW2   39   0.655   2.667   0.439  1.1488  0.0788 -1.2794
   14SOL     OW   40   1.430   1.916   0.980  0.6897 -0.2540  0.0832
   14SOL    HW1   41   1.383   1.987   0.920 -0.7759  2.5785  0.6139
   14SOL    HW2   42   1.431   1.948   1.073 -0.4806 -0.1047 -1.2778
   15SOL     OW   43   2.484   0.800   2.350  0.0401 -0.1513 -0.0021
   15SOL    HW1   44   2.551   0.804   2.431  2.0188 -1.7703  3.8281
   15SOL    HW2   45   2.392   0.832   2.380 -1.2029  2.1242 -2.9939
   16SOL     OW   46   1.490   3.053   3.049 -0.2598  0.5311 -0.1401
   16SOL    HW1   47   1.489   0.038   0.036 -2.0198  0.3833  3.4289
   16SOL    HW2   48   1.568   3.071   2.983  2.8281 -0.5780 -2.6769
   17SOL     OW   49   0.738   2.553   1.901  0.3075 -0.2565 -0.3850
   17SOL    HW1   50   0.690   2.551   1.989 -0.2022  0.1802 -0.4502
   17SOL    HW2   51   0.788   2.638   1.889  0.4874  0.1136 -1.2613
   18SOL     OW   52   1.768   0.937   3.077  0.0711 -0.3123  0.1445
   18SOL    HW1   53   1.716   0.945   2.991  1.0419  2.5962 -0.9434
   18SOL    HW2   54   1.864   0.924   3.057 -1.6545  1.1556  1.2557
   19SOL     OW   55   2.358   2.086   2.735  0.0836 -0.5886 -0.0252
   19SOL    HW1   56   2.339   2.052   2.830  1.2021 -0.5900  1.4271
   19SOL    HW2   57   2.457   2.068   2.707  2.6982 -0.5313 -2.0171
   20SOL     OW   58   1.798   1.649   2.173 -0.5987  0.4407  0.0251
   20SOL    HW1   59   1.858   1.601   2.236 -3.2803  3.0634 -1.9004
   20SOL    HW2   60   1.717   1.594   2.152  2.0339  1.5086  0.3001
   21SOL     OW   61   0.341   1.975   0.028  0.3162 -0.3509 -0.3395
   21SOL    HW1   62   0.357   1.898   0.093 -1.1794  2.1647 -1.4910
   21SOL    HW2   63   0.328   1.932   3.020  2.3893 -0.6610 -2.5286
   22SOL     OW   64   2.297   2.924   1.400  0.6459  0.1331  0.0930
   22SOL    HW1   65   2.351   2.898   1.485  1.8867  0.2355  0.1510
   22SOL    HW2   66   2.358   2.931   1.323 -1.0201 -2.5654 -2.0743
   23SOL     OW   67   3.053   1.466   1.747 -0.1100 -0.1159 -0.5931
   23SOL    HW1   68   0.039   1.391   1.751  1.2128 -0.7132  1.7344
   23SOL    HW2   69   0.004   1.551   1.783  0.4204  0.0229 -0.0354
   24SOL     OW   70   2.361   1.909   1.699 -0.1458  0.3867 -0.1645
   24SOL    HW1   71   2.440   1.854   1.669 -2.7564  2.0697 -1.3292
   24SOL    HW2   72   2.285   1.904   1.629 -2.5731 -0.3814 -3.4032
   25SOL     OW   73   2.081   2.869   2.672  0.1291  0.5406  0.1242
   25SOL    HW1   74   2.091   2.946   2.609 -0.2453 -0.5119 -0.4128
   25SOL    HW2   75   2.019   2.801   2.628 -1.1470 -0.4706 -1.1995
   26SOL     OW   76   1.288   2.943   0.489  0.2797 -0.0650  0.0394
   26SOL    HW1   77   1.251   2.925   0.395 -0.6009 -1.0066  2.2808
   26SOL    HW2   78   1.277   3.042   0.512 -0.4053 -0.0780  0.5265
   27SOL     OW   79   0.916   2.110   3.051  0.2463  0.2110 -0.0750
   27SOL    HW1   80   0.946   2.157   0.051 -0.6986 -1.2248  1.3156
   27SOL    HW2   81   0.815   2.102   3.045  0.1429 -0.1337  1.7803
   28SOL     OW   82   2.880   1.587   1.300 -0.7138 -0.1103  0.5165
   28SOL    HW1   83   2.913   1.502   1.252 -0.1437  0.5410  0.3922
   28SOL    HW2   84   2.863   1.670   1.232 -0.8912  3.1046 -3.8895
   29SOL     OW   85   2.553   2.317   2.139 -0.0818 -0.1535 -0.3699
   29SOL    HW1   86   2.486   2.384   2.104 -1.1694 -1.0607 -0.0599
   29SOL    HW2   87   2.608   2.348   2.220  0.3962  0.8107  0.4345
   30SOL     OW   88   0.998   2.664   1.266 -0.6723 -0.3080  0.7422
   30SOL    HW1   89   1.061   2.744   1.289  1.7276  1.1020  1.2678
   30SOL    HW2   90   0.979   2.658   1.166  2.1704 -2.0587  0.2201
   31SOL     OW   91   2.847   2.193   2.170 -0.4721 -0.0097 -0.3437
   31SOL    HW1   92   2.832   2.167   2.072  1.6663  0.8305 -0.9764
   31SOL    HW2   93   2.945   2.168   2.201  1.9992  1.5920 -0.4923
   32SOL     OW   94   1.228   1.049   2.210 -0.0607 -0.4545  0.1125
   32SOL    HW1   95   1.186   1.102   2.135  1.2038 -3.7964  3.4967
   32SOL    HW2   96   1.312   1.104   2.240  1.8265  0.8292 -0.8851
   33SOL     OW   97   0.546   3.004   2.691 -0.4217 -0.0273  0.0264
   33SOL    HW1   98   0.466   3.067   2.684  0.8226  0.0009  0.0744
   33SOL    HW2   99   0.532   2.933   2.766  3.1612 -4.1714  1.4226
   34SOL     OW  100   1.580   0.101   1.300  0.0185 -0.3398  0.0901
   34SOL    HW1  101   1.506   0.030   1.301  1.2541  0.1152  1.0403
   34SOL    HW2  102   1.641   0.094   1.214  3.0556  0.3322 -3.0415
   35SOL     OW  103   2.079   0.484   0.978  0.2041  0.1877 -0.3755
   35SOL    HW1  104   2.089   0.398   0.922  1.0733  0.6161  1.0335
   35SOL    HW2  105   2.152   0.490   1.047 -0.5648  0.8202 -1.4095
   36SOL     OW  106   2.113   2.839   2.261  0.1213  0.5781  0.3241
   36SOL    HW1  107   2.201   2.868   2.299 -2.3559  0.6004  0.5521
   36SOL    HW2  108   2.105   2.868   2.167  0.1099 -2.0544 -1.7220
   37SOL     OW  109   1.328   2.383   2.422  0.0988 -0.1967  0.0163
   37SOL    HW1  110   1.273   2.370   2.509  0.6486 -0.3900 -2.0526
   37SOL    HW2  111   1.321   2.308   2.354  0.3360  1.4144  1.2635
   38SOL     OW  112   2.329   0.290   2.804  0.5199 -0.2621  0.0728
   38SOL    HW1  113   2.385   0.255   2.880 -1.5771  1.6491 -2.0270
   38SOL    HW2  114   2.363   0.380   2.774 -1.2532 -1.0433  0.1337
   39SOL     OW  115   1.776   2.109   2.416  0.4944 -1.0886  0.0345
   39SOL    HW1  116   1.795   2.043   2.494 -1.2898 -0.7990  0.1881
   39SOL    HW2  117   1.815   2.072   2.330  0.8310 -0.1414  0.6457
   40SOL     OW  118   0.257   0.010   2.902  0.0093 -0.3136  0.3883
   40SOL    HW1  119   0.286   0.069   2.824  0.5461 -3.6261  0.2157
   40SOL    HW2  120   0.231   3.001   2.866 -1.9675  1.4326 -2.8971
   41SOL     OW  121   1.678   0.916   1.526  0.2352  0.0688 -0.2568
   41SOL    HW1  122   1.625   0.942   1.442 -0.1610 -0.4084 -2.0737
   41SOL    HW2  123   1.621   0.932   1.614 -1.7847 -1.8182  1.6944
   42SOL     OW  124   0.502   0.256   1.555 -0.1330  0.1722  0.1924
   42SOL    HW1  125   0.449   0.187   1.608  1.3017 -0.8394 -1.5579
   42SOL    HW2  126   0.600   0.235   1.567  1.3581  2.3291  1.3662
   43SOL     OW  127   1.529   0.777   1.984  0.2237 -0.0890 -0.5439
   43SOL    HW1  128   1.502   0.757   2.079 -1.5697  3.0178  0.5286
   43SOL    HW2  129   1.597   0.708   1.951 -0.1656 -0.4166  0.0886
   44SOL     OW  130   0.114   2.606   2.511  0.1758  0.5486  0.1126
   44SOL    HW1  131   0.168   2.672   2.569  1.2030  1.7732 -2.0190
   44SOL    HW2  132   0.050   2.659   2.455  2.0731  0.0894  0.2802
   45SOL     OW  133   0.206   2.401   1.328 -0.0886 -0.2401  0.0953
   45SOL    HW1  134   0.131   2.415   1.399 -1.7196 -1.2659  1.2773
   45SOL    HW2  135   0.294   2.385   1.377 -0.6660 -0.0848  1.6588
   46SOL     OW  136   2.249   2.235   1.904 -0.1330 -0.4274  0.0498
   46SOL    HW1  137   2.239   2.318   1.963 -1.6325  1.1786 -0.0028
   46SOL    HW2  138   2.257   2.153   1.963  3.1671  0.2037 -0.7760
   47SOL     OW  139   1.875   2.027   1.573  0.3755  0.0580  0.0784
   47SOL    HW1  140   1.841   2.058   1.660  2.1757 -1.6171 -1.4860
   47SOL    HW2  141   1.824   1.937   1.550 -0.6110 -0.3415  1.2316
   48SOL     OW  142   0.442   1.898   0.494 -0.0999  0.1579 -0.0389
   48SOL    HW1  143   0.412   1.818   0.551  1.1026  2.1411 -2.4159
   48SOL    HW2  144   0.515   1.948   0.541  1.4062  0.6309  0.0741
   49SOL     OW  145   2.585   0.669   2.135 -0.3742 -0.0285 -0.0632
   49SOL    HW1  146   2.541   0.728   2.206  1.8710 -3.3466  0.1458
   49SOL    HW2  147   2.586   0.725   2.051 -2.3819 -0.8261  0.1359
   50SOL     OW  148   2.168   0.721   0.913 -0.2192  0.5384 -0.4245
   50SOL    HW1  149   2.127   0.630   0.936 -0.8936 -0.4711 -1.3193
   50SOL    HW2  150   2.252   0.735   0.963 -0.4142 -1.8937  0.8368
   51SOL     OW  151   1.243   0.562   0.928 -0.2397 -0.7240 -0.0152
   51SOL    HW1  152   1.169   0.636   0.927 -1.1832  0.3237  0.6387
   51SOL    HW2  153   1.292   0.563   1.014  0.0910 -1.3189 -1.8221
   52SOL     OW  154   1.381   1.178   0.192  0.4319  0.2246 -0.0086
   52SOL    HW1  155   1.400   1.151   0.094 -0.7679  0.3592 -1.2187
   52SOL    HW2  156   1.297   1.129   0.230 -0.4277  2.1006  0.7850
   53SOL     OW  157   1.242   2.106   2.704  0.2134  0.4761  0.9406
   53SOL    HW1  158   1.177   2.058   2.767  0.3502  1.0607 -0.1282
   53SOL    HW2  159   1.229   2.205   2.713  0.7838 -2.4433 -0.9219
   54SOL     OW  160   1.928   0.871   1.652 -0.2703  0.0703 -0.0700
   54SOL    HW1  161   2.001   0.897   1.581  0.6507 -0.8196 -1.1655
   54SOL    HW2  162   1.838   0.858   1.603  0.3211 -0.5024 -0.9625
   55SOL     OW  163   1.944   2.929   0.689 -0.1474 -0.3222 -0.0436
   55SOL    HW1  164   1.951   2.887   0.598 -0.4016 -0.2832  1.0431
   55SOL    HW2  165   1.847   2.923   0.717 -0.6099 -0.3844  0.6403
   56SOL     OW  166   0.831   2.509   1.425 -0.1061 -0.1590 -0.0669
   56SOL    HW1  167   0.892   2.555   1.360 -0.3232 -0.2714  1.3828
   56SOL    HW2  168   0.789   2.580   1.488  2.3878  0.4147  2.4569
   57SOL     OW  169   2.066   0.881   0.135  0.2038  0.1198  0.0314
   57SOL    HW1  170   2.083   0.861   0.232 -0.6284  2.2404  0.2078
   57SOL    HW2  171   2.045   0.978   0.118 -2.5675 -0.6798 -0.8800
   58SOL     OW  172   0.147   1.218   2.125  0.4974  0.4555  0.1243
   58SOL    HW1  173   0.199   1.221   2.216  1.2804 -1.1714  2.8707
   58SOL    HW2  174   0.056   1.265   2.128  0.5386 -0.0991 -0.7517
   59SOL     OW  175   0.927   2.402   2.430 -0.0356 -0.0975 -0.0988
   59SOL    HW1  176   0.978   2.468   2.483 -0.3229 -2.0168 -0.8217
   59SOL    HW2  177   0.837   2.445   2.398 -1.2347 -1.4736 -1.7952
   60SOL     OW  178   2.523   2.859   0.944  0.6737 -0.4694 -0.4842
   60SOL    HW1  179   2.449   2.791   0.933 -0.2667 -1.6227  0.3432
   60SOL    HW2  180   2.584   2.869   0.862 -0.7240 -1.2983 -1.8453
   61SOL     OW  181   1.379   1.958   0.557  0.4749 -0.3852  0.6318
   61SOL    HW1  182   1.314   1.883   0.581 -1.1751 -0.9926 -1.7674
   61SOL    HW2  183   1.452   1.974   0.621 -2.0907 -0.7290  0.2430
   62SOL     OW  184   2.218   2.620   2.916 -0.6632  0.3384 -0.2369
   62SOL    HW1  185   2.317   2.646   2.901  0.4119  1.1718 -1.6270
   62SOL    HW2  186   2.179   2.692   2.974  0.3303 -2.6089  0.3542
   63SOL     OW  187   1.894   0.298   0.358  0.2766 -0.3312 -0.6524
   63SOL    HW1  188   1.935   0.345   0.437 -0.4431  1.3232  1.1295
   63SOL    HW2  189   1.842   0.359   0.300  2.2951 -2.0681  2.0115
   64SOL     OW  190   0.802   1.164   2.555  0.0235 -0.6102 -0.6905
   64SOL    HW1  191   0.811   1.134   2.459  1.0024  0.9252  2.2343
   64SOL    HW2  192   0.816   1.089   2.620 -1.1126 -0.4191 -0.9899
   65SOL     OW  193   1.272   2.305   0.681 -0.2574 -0.3576 -0.2735
   65SOL    HW1  194   1.338   2.286   0.605 -2.4401 -0.2441 -2.9638
   65SOL    HW2  195   1.284   2.240   0.757 -1.1856  1.1175 -2.3775
   66SOL     OW  196   0.625   1.304   1.730  0.6573  0.2705  0.4237
   66SOL    HW1  197   0.690   1.333   1.805  0.7017  2.0537  1.7921
   66SOL    HW2  198   0.539   1.366   1.733  0.6679  0.4127  0.7545
   67SOL     OW  199   2.305   0.153   2.411  0.7425  0.5685 -0.1594
   67SOL    HW1  200   2.367   0.167   2.332 -1.4280 -1.3913 -1.6130
   67SOL    HW2  201   2.362   0.156   2.499 -0.2077  1.5998  1.3409
   68SOL     OW  202   1.041   0.707   1.526  0.1057 -0.4489  0.0044
   68SOL    HW1  203   1.107   0.631   1.519 -0.6982 -0.7857  0.8532
   68SOL    HW2  204   1.085   0.789   1.562  0.2866  0.9259  0.7579
   69SOL     OW  205   1.666   2.775   0.294 -0.3596 -0.2029 -0.2570
   69SOL    HW1  206   1.682   2.875   0.286 -0.4235 -3.7356 -0.4759
   69SOL    HW2  207   1.680   2.752   0.390  1.3239  1.5147 -2.8463
   70SOL     OW  208   2.868   0.877   2.343  0.3404  0.2023  0.2185
   70SOL    HW1  209   2.845   0.774   2.342 -0.2760 -1.6913 -2.3125
   70SOL    HW2  210   2.854   0.908   2.249 -2.8319 -2.0812 -0.0055
   71SOL     OW  211   2.783   1.610   3.050 -0.2094  0.2807  0.9427
   71SOL    HW1  212   2.708   1.558   3.005  0.8782 -1.6227 -1.4475
   71SOL    HW2  213   2.842   1.652   2.977 -1.9327  1.2918  1.1632
   72SOL     OW  214   0.018   1.663   0.412 -0.1318  0.0718  0.3375
   72SOL    HW1  215   0.002   1.611   0.499  0.5470  0.8054  1.4703
   72SOL    HW2  216   0.031   1.765   0.436  0.9214 -0.0710  0.3037
   73SOL     OW  217   0.984   1.546   0.628  0.2145  0.2446  0.3309
   73SOL    HW1  218   0.992   1.450   0.667  1.0353  1.3391  1.1528
   73SOL    HW2  219   1.011   1.545   0.532 -1.2468  1.4900 -0.9910
   74SOL     OW  220   0.395   1.882   2.032  0.3748 -0.3655 -0.2567
   74SOL    HW1  221   0.307   1.870   2.077 -0.2351 -0.8027 -2.7559
   74SOL    HW2  222   0.390   1.841   1.939  1.1564  0.5607  0.7680
   75SOL     OW  223   1.630   1.455   1.655 -0.1374  0.1279 -0.0617
   75SOL    HW1  224   1.576   1.369   1.650 -1.0951  0.4759 -0.8947
   75SOL    HW2  225   1.702   1.456   1.727 -1.4267  0.7244 -1.3280
   76SOL     OW  226   2.173   2.646   1.351 -0.4010  0.0921 -0.4698
   76SOL    HW1  227   2.113   2.581   1.402 -1.2092 -2.6023 -0.1503
   76SOL    HW2  228   2.146   2.742   1.379 -1.2816 -0.1528  0.6956
   77SOL     OW  229   2.692   1.340   1.361  0.7355  0.3881  0.4328
   77SOL    HW1  230   2.765   1.398   1.406  2.8804  2.5957  1.8361
   77SOL    HW2  231   2.677   1.253   1.412  1.9843 -0.4262 -2.9032
   78SOL     OW  232   1.642   0.945   0.501 -0.0254 -0.3127 -0.4620
   78SOL    HW1  233   1.622   1.016   0.435 -1.2117  0.1738 -1.3175
   78SOL    HW2  234   1.556   0.889   0.519  1.5929 -0.9276 -1.1781
   79SOL     OW  235   2.475   1.485   1.386  0.6064 -0.7997  0.0529
   79SOL    HW1  236   2.414   1.486   1.308  2.1022  1.7122 -2.4822
   79SOL    HW2  237   2.565   1.446   1.361  1.6390 -0.7724 -0.3733
   80SOL     OW  238   0.875   0.448   1.558  0.2713 -0.6195 -0.2210
   80SOL    HW1  239   0.786   0.489   1.520 -2.1400  1.6288 -1.0806
   80SOL    HW2  240   0.924   0.426   1.474 -2.7679  0.1784  1.6748
   81SOL     OW  241   1.066   2.796   0.798 -0.2758 -0.7470  0.2232
   81SOL    HW1  242   1.158   2.779   0.763 -0.0295  0.0852  0.5540
   81SOL    HW2  243   1.063   2.865   0.868  0.1677 -3.8046 -2.2891
   82SOL     OW  244   1.349   2.958   1.649 -0.0831 -0.1586 -0.1001
   82SOL    HW1  245   1.434   2.914   1.614  2.0300  2.9052  1.9136
   82SOL    HW2  246   1.286   2.879   1.664  0.4982  0.4383  1.0950
   83SOL     OW  247   1.266   2.089   0.871 -0.1124 -0.2033 -0.0745
   83SOL    HW1  248   1.224   2.123   0.960 -0.6995  0.7769 -0.3467
   83SOL    HW2  249   1.200   2.039   0.815  0.5274  2.6142 -0.3386
   84SOL     OW  250   0.240   1.660   2.800  0.0787 -0.5417  0.0135
   84SOL    HW1  251   0.196   1.586   2.747  1.1709 -0.3861  0.7431
   84SOL    HW2  252   0.340   1.663   2.790 -1.7663  0.3421 -0.3078
   85SOL     OW  253   0.127   2.088   1.191 -0.1651 -0.0625  0.1604
   85SOL    HW1  254   0.030   2.075   1.212  4.0337  0.1047  1.8986
   85SOL    HW2  255   0.149   2.190   1.207  1.1873  1.5798 -1.2221
   86SOL     OW  256   2.451   2.632   1.324  0.4398  0.3773  0.1157
   86SOL    HW1  257   2.467   2.594   1.418 -1.0542 -0.6690  1.0964
   86SOL    HW2  258   2.353   2.645   1.316 -0.1497  0.3218  0.8757
   87SOL     OW  259   0.194   1.952   0.666  0.5137  0.4071  0.0066
   87SOL    HW1  260   0.244   1.865   0.652 -0.3773  1.5798 -0.5412
   87SOL    HW2  261   0.254   2.030   0.688  0.8158  1.1779 -1.8336
   88SOL     OW  262   0.748   1.044   1.334 -0.5362 -0.0719 -0.1964
   88SOL    HW1  263   0.771   1.138   1.313  0.1751 -1.8059  1.0004
   88SOL    HW2  264   0.822   0.978   1.308 -1.6761  2.3795 -1.1568
   89SOL     OW  265   0.928   2.874   2.162 -0.2997  0.5181 -0.3007
   89SOL    HW1  266   0.893   2.899   2.070  0.7191 -3.7243  2.2251
   89SOL    HW2  267   0.895   2.936   2.236 -1.2052  1.0016 -0.7907
   90SOL     OW  268   3.059   1.819   1.550  0.3797  0.7588 -0.2094
   90SOL    HW1  269   0.017   1.886   1.615 -0.5159  1.2987 -0.7249
   90SOL    HW2  270   2.964   1.797   1.576  0.6306  0.7301 -1.8281
   91SOL     OW  271   1.449   1.834   1.411 -0.5008 -0.3814 -0.5010
   91SOL    HW1  272   1.481   1.787   1.495 -1.9748 -0.5926 -1.8925
   91SOL    HW2  273   1.429   1.769   1.338 -0.8412  0.8963  0.4923
   92SOL     OW  274   2.473   2.838   1.647  0.2888 -0.0134  0.5114
   92SOL    HW1  275   2.456   2.762   1.715 -0.5708  0.0195  1.7790
   92SOL    HW2  276   2.570   2.870   1.653  0.0700 -3.6468 -2.0714
   93SOL     OW  277   2.817   1.380   2.721 -0.6776  0.1471  0.5034
   93SOL    HW1  278   2.859   1.284   2.727  0.2595 -0.9641 -1.8295
   93SOL    HW2  279   2.756   1.403   2.799  2.0342 -0.3995  0.3561
   94SOL     OW  280   2.648   2.897   2.078  0.5089 -0.4102 -0.0975
   94SOL    HW1  281   2.694   2.989   2.100  2.1565  0.8852  0.9210
   94SOL    HW2  282   2.683   2.854   1.992  0.3078  1.3574 -1.2002
   95SOL     OW  283   1.352   0.620   1.786  0.5846 -0.0323  0.1367
   95SOL    HW1  284   1.315   0.600   1.879 -0.9786  0.9914  0.8749
   95SOL    HW2  285   1.367   0.719   1.775 -3.7257  0.1742  1.7954
   96SOL     OW  286   2.743   0.650   1.531  0.2744  0.2206 -0.5187
   96SOL    HW1  287   2.767   0.647   1.433 -0.7848 -0.2253  1.9374
   96SOL    HW2  288   2.663   0.587   1.551 -1.4418 -1.8878  1.2056
   97SOL     OW  289   2.050   0.574   1.488 -0.1530  0.0193  0.1137
   97SOL    HW1  290   2.066   0.488   1.435  0.0614 -0.6577 -0.4235
   97SOL    HW2  291   2.143   0.615   1.506  1.3736 -2.3860  2.3847
   98SOL     OW  292   1.652   2.838   1.291 -0.2257  0.8452  0.1718
   98SOL    HW1  293   1.612   2.860   1.381  2.5450  0.7961  0.0824
   98SOL    HW2  294   1.744   2.890   1.274  1.2891  1.2039 -0.5345
   99SOL     OW  295   2.761   0.275   1.640  0.5417 -0.2005  0.2532
   99SOL    HW1  296   2.710   0.342   1.698 -1.3610  0.1400  2.1307
   99SOL    HW2  297   2.795   0.326   1.556  1.5088  1.6450 -2.1452
  100SOL     OW  298   2.685   1.475   1.891  0.5813 -0.3359 -0.0483
  100SOL    HW1  299   2.705   1.475   1.994  1.8559 -1.1675  4.3669
  100SOL    HW2  300   2.746   1.412   1.843 -1.7703  1.4343  0.2270
  101SOL     OW  301   1.388   0.490   0.710 -0.1923  0.3245 -0.7575
  101SOL    HW1  302   1.473   0.443   0.733 -0.2855 -2.8389 -1.8466
  101SOL    HW2  303   1.335   0.535   0.785  1.4878  0.0976  1.5506
  102SOL     OW  304   0.435   0.921   1.351  0.4117  0.2465  1.0271
  102SOL    HW1  305   0.395   1.007   1.381  0.5568  0.1243  1.2219
  102SOL    HW2  306   0.476   0.877   1.431 -3.2256  0.4493  0.1123
  103SOL     OW  307   2.616   0.606   2.975 -0.4329  0.2621 -0.3541
  103SOL    HW1  308   2.694   0.674   2.949 -1.6032  0.4940 -0.8146
  103SOL    HW2  309   2.607   0.592   3.077 -0.0152 -1.8681  3.1400
  104SOL     OW  310   2.938   0.085   1.755  0.4196  0.0029  0.1087
  104SOL    HW1  311   3.037   0.082   1.725 -0.0317 -0.4364 -1.3085
  104SOL    HW2  312   2.884   0.160   1.711 -1.9067  0.7645 -3.0264
  105SOL     OW  313   1.882   0.833   1.915  0.0336  0.3328 -0.2322
  105SOL    HW1  314   1.892   0.830   1.813 -1.1844  0.5721  1.8746
  105SOL    HW2  315   1.804   0.768   1.937 -3.4976 -2.4176  0.7098
  106SOL     OW  316   1.680   0.139   0.806 -0.3095  0.4677  0.2050
  106SOL    HW1  317   1.748   0.097   0.744 -1.1181 -1.7350 -0.9229
  106SOL    HW2  318   1.586   0.122   0.779  1.9586 -1.0108  4.9730
  107SOL     OW  319   0.410   1.061   0.719 -0.1224 -0.0007  0.1081
  107SOL    HW1  320   0.396   0.967   0.684  1.8632  0.3658  0.8378
  107SOL    HW2  321   0.393   1.054   0.821  2.3022  1.2358  1.5918
  108SOL     OW  322   2.641   0.468   1.948 -0.0017 -0.4815 -0.3355
  108SOL    HW1  323   2.657   0.526   2.030 -2.9818  1.6148  0.8101
  108SOL    HW2  324   2.700   0.385   1.954  0.5735 -0.1132 -0.2717
  109SOL     OW  325   2.295   0.614   0.246 -0.0183 -0.3773 -0.4114
  109SOL    HW1  326   2.338   0.674   0.314  2.0092  0.6952 -0.1251
  109SOL    HW2  327   2.201   0.601   0.279 -0.8445  0.4699 -1.1849
  110SOL     OW  328   0.262   2.395   2.643 -0.3377  0.2111 -0.2227
  110SOL    HW1  329   0.235   2.296   2.648 -0.4771  0.4878  0.7936
  110SOL    HW2  330   0.201   2.452   2.586 -0.7301  1.9674 -0.0601
  111SOL     OW  331   1.935   0.059   2.065 -0.1099  0.0472  0.4397
  111SOL    HW1  332   2.010   0.122   2.056 -3.9850 -1.0819  0.9131
  111SOL    HW2  333   1.844   0.111   2.067  1.0373 -0.1265 -0.4993
  112SOL     OW  334   2.362   2.585   0.211 -0.2904 -0.9393  0.2999
  112SOL    HW1  335   2.323   2.509   0.156 -0.2950  1.4898  2.0465
  112SOL    HW2  336   2.404   2.651   0.147 -0.2294 -0.7342  0.4022
  113SOL     OW  337   2.318   2.153   1.390  0.0741  0.2657 -0.0128
  113SOL    HW1  338   2.405   2.211   1.375 -0.1237  1.0238  1.0837
  113SOL    HW2  339   2.290   2.156   1.491 -1.7932  3.7175 -0.9794
  114SOL     OW  340   2.703   1.010   0.903 -0.9923  0.4170  0.4161
  114SOL    HW1  341   2.616   1.032   0.854 -3.1854  1.2908  1.6710
  114SOL    HW2  342   2.726   0.911   0.894 -0.9561  1.3700 -0.1647
  115SOL     OW  343   2.985   1.705   0.144  1.1022 -0.7044  0.1035
  115SOL    HW1  344   2.997   1.681   0.244  1.8473  2.3451  1.0682
  115SOL    HW2  345   2.906   1.669   0.094  1.0349 -0.9904 -4.2636
  116SOL     OW  346   0.080   1.525   2.036 -0.3309  0.1889 -0.1302
  116SOL    HW1  347   0.016   1.448   2.018 -1.7060  0.7139 -1.0946
  116SOL    HW2  348   0.126   1.521   2.130  0.0394  0.1994 -2.8954
  117SOL     OW  349   2.455   0.022   0.442  0.4016 -0.3157 -0.6445
  117SOL    HW1  350   2.445   0.036   0.542 -1.2275 -0.9241 -0.7229
  117SOL    HW2  351   2.439   3.009   0.420 -1.1058 -0.5883  0.2337
  118SOL     OW  352   0.263   2.077   1.568  0.2222  0.5099 -0.0626
  118SOL    HW1  353   0.199   2.044   1.645  2.8747 -3.5232  2.0381
  118SOL    HW2  354   0.252   2.179   1.565  0.9619 -0.6170  0.1487
  119SOL     OW  355   1.759   1.922   0.934  0.1206  0.1416 -0.2069
  119SOL    HW1  356   1.831   1.894   0.871 -1.9655 -1.7681 -0.8314
  119SOL    HW2  357   1.720   1.839   0.981 -2.1558 -1.2002  1.6494
  120SOL     OW  358   0.047   1.820   2.488  0.6654 -0.1958 -0.3687
  120SOL    HW1  359   0.115   1.814   2.414 -2.4843 -1.3412  2.4981
  120SOL    HW2  360   3.059   1.883   2.458  0.6452 -0.1374  3.1300
  121SOL     OW  361   2.607   1.955   1.236  0.3665  0.3447 -0.0651
  121SOL    HW1  362   2.577   2.038   1.183  0.1889 -1.2982 -1.8644
  121SOL    HW2  363   2.522   1.906   1.265 -1.7578 -0.5569 -2.7190
  122SOL     OW  364   2.182   1.346   2.427 -0.2561  0.3397  0.6729
  122SOL    HW1  365   2.239   1.362   2.345 -0.9478  1.6502  0.6820
  122SOL    HW2  366   2.221   1.272   2.487  2.3319  2.3277 -0.6371
  123SOL     OW  367   0.053   2.865   0.712  0.2563  0.0542  0.1473
  123SOL    HW1  368   0.011   2.870   0.805 -3.1980  0.2840  0.5116
  123SOL    HW2  369   0.145   2.827   0.722  1.0299  1.3308  2.0371
  124SOL     OW  370   1.632   0.816   2.634  0.3357  0.4320  0.2716
  124SOL    HW1  371   1.714   0.874   2.609 -1.5350  0.5904  0.3535
  124SOL    HW2  372   1.550   0.825   2.574 -0.6630  0.0270  0.7530
  125SOL     OW  373   0.504   1.634   2.862  0.1231 -0.1829 -0.2640
  125SOL    HW1  374   0.548   1.698   2.926  0.5785 -0.6731 -2.8206
  125SOL    HW2  375   0.473   1.551   2.910  1.7683 -1.7146  0.9310
  126SOL     OW  376   2.715   1.913   0.038 -0.5114 -0.1154 -0.0027
  126SOL    HW1  377   2.693   1.976   3.046  2.1309  0.4299 -0.0790
  126SOL    HW2  378   2.787   1.957   0.093  0.0004 -1.4816  2.8722
  127SOL     OW  379   0.749   1.547   1.116 -0.3942  0.0910 -0.2070
  127SOL    HW1  380   0.833   1.596   1.088 -1.0508 -1.2265  0.3397
  127SOL    HW2  381   0.703   1.494   1.042 -0.1719  2.2304  0.7223
  128SOL     OW  382   1.196   0.779   0.400 -0.2387  0.2707 -0.1626
  128SOL    HW1  383   1.228   0.873   0.372  1.3689  0.9299 -0.5505
  128SOL    HW2  384   1.276   0.712   0.400  0.9193 -1.3353  0.5604
  129SOL     OW  385   2.413   1.651   1.056 -0.0673 -0.7735  0.1773
  129SOL    HW1  386   2.398   1.730   0.993 -1.2112  1.0995 -1.4674
  129SOL    HW2  387   2.486   1.586   1.028 -1.4763  0.6464  0.7614
  130SOL     OW  388   2.106   1.643   0.833 -0.1703 -0.0964 -0.8427
  130SOL    HW1  389   2.182   1.606   0.889  1.4087 -1.5405 -1.6542
  130SOL    HW2  390   2.027   1.587   0.841  2.3925  0.3120  0.1173
  131SOL     OW  391   2.833   1.107   2.744 -0.0573 -0.1059 -0.3301
  131SOL    HW1  392   2.761   1.070   2.806 -0.0373 -1.2626 -0.1229
  131SOL    HW2  393   2.928   1.081   2.774 -1.8154  0.7089 -1.3212
  132SOL     OW  394   2.527   1.825   2.010 -0.6577  0.0019 -0.0175
  132SOL    HW1  395   2.556   1.920   2.004  0.5752  0.0470 -0.1445
  132SOL    HW2  396   2.539   1.780   1.917 -0.7926  0.5050  3.0730
  133SOL     OW  397   2.992   0.934   3.078 -0.0506 -0.7090  0.1421
  133SOL    HW1  398   3.014   0.975   0.084  2.0741 -2.6137 -0.8655
  133SOL    HW2  399   3.008   1.013   3.012  0.7091  1.2153  0.4687
  134SOL     OW  400   0.266   1.261   0.081 -0.0171 -0.0819 -0.3011
  134SOL    HW1  401   0.290   1.160   0.101 -0.3980 -2.4484  2.7280
  134SOL    HW2  402   0.167   1.272   0.063  0.5985 -0.8674  0.2065
  135SOL     OW  403   2.091   1.595   0.558  0.6544  0.5005  0.4513
  135SOL    HW1  404   2.113   1.620   0.650  0.5651 -0.4360 -3.2859
  135SOL    HW2  405   2.169   1.547   0.508  3.4527 -3.0529 -2.7803
  136SOL     OW  406   2.024   1.415   1.333  0.3401  0.0103 -0.0764
  136SOL    HW1  407   1.980   1.330   1.295  0.1267 -1.3807 -2.3595
  136SOL    HW2  408   2.085   1.458   1.266 -0.5786 -1.9236  0.3225
  137SOL     OW  409   2.633   1.973   0.728 -0.6516  0.0015 -0.2682
  137SOL    HW1  410   2.558   2.023   0.780  2.1801  1.4186 -3.6904
  137SOL    HW2  411   2.610   1.972   0.629  1.5351 -0.5127 -1.2300
  138SOL     OW  412   1.181   0.166   1.219 -0.0825  0.1349  0.2446
  138SOL    HW1  413   1.203   0.184   1.120  2.3986  1.1018  0.2412
  138SOL    HW2  414   1.232   0.085   1.253 -3.3799 -1.6930  1.4711
  139SOL     OW  415   2.323   3.083   3.074  0.4200  0.2809  0.2671
  139SOL    HW1  416   2.276   3.059   2.986 -0.1321 -0.8692  1.5719
  139SOL    HW2  417   2.401   0.062   3.063 -0.0170 -0.0425  0.6672
  140SOL     OW  418   1.528   2.082   2.786 -0.4890 -0.1069 -0.6191
  140SOL    HW1  419   1.473   2.015   2.737 -1.9654 -0.6245  2.0337
  140SOL    HW2  420   1.614   2.039   2.827  1.7167 -2.6310  0.1290
  141SOL     OW  421   0.667   0.955   1.741 -0.1692  0.1875 -0.3108
  141SOL    HW1  422   0.587   1.007   1.708  1.7024 -3.6114 -0.2037
  141SOL    HW2  423   0.757   0.992   1.709  2.0289 -0.7557  2.1664
  142SOL     OW  424   2.511   0.173   2.981  0.6054  0.3195 -0.0207
  142SOL    HW1  425   2.550   0.214   3.069 -2.7383 -1.6062 -1.4853
  142SOL    HW2  426   2.591   0.137   2.922  1.6712 -1.3284 -0.8829
  143SOL     OW  427   0.668   2.347   2.931  0.1400 -0.8318 -0.2205
  143SOL    HW1  428   0.738   2.424   2.910  2.1770 -1.7430 -3.0937
  143SOL    HW2  429   0.575   2.374   2.898  1.5361 -1.1915 -1.1752
  144SOL     OW  430   1.226   2.748   2.948  0.2737 -0.3370 -0.5458
  144SOL    HW1  431   1.315   2.716   2.978 -0.6804  0.1720 -0.4674
  144SOL    HW2  432   1.161   2.681   2.992  0.4089  1.3693  2.1823
  145SOL     OW  433   2.363   1.594   0.040 -0.2058 -0.3103 -0.2412
  145SOL    HW1  434   2.434   1.664   0.020 -0.4542 -0.8537  4.1461
  145SOL    HW2  435   2.271   1.642   0.040  2.7264  1.0838 -1.2987
  146SOL     OW  436   2.771   2.689   3.004  0.6037  0.5008 -0.6575
  146SOL    HW1  437   2.804   2.763   3.063 -2.7273 -0.4550 -0.0187
  146SOL    HW2  438   2.807   2.597   3.032 -2.1151  0.7935  3.3088
  147SOL     OW  439   2.528   2.292   1.324  0.2764 -0.0832  0.1574
  147SOL    HW1  440   2.564   2.365   1.390 -1.0775  0.7417 -0.3208
  147SOL    HW2  441   2.529   2.332   1.230  1.3892  0.7621  1.2964
  148SOL     OW  442   1.749   0.462   0.206 -0.9066 -0.2125 -0.3986
  148SOL    HW1  443   1.828   0.508   0.159  2.9428 -0.8405 -0.3038
  148SOL    HW2  444   1.667   0.452   0.148 -1.2543  1.8318  0.2470
  149SOL     OW  445   1.110   1.499   2.742  0.3074  0.5516 -0.0795
  149SOL    HW1  446   1.061   1.441   2.813 -1.1461 -2.4046  2.4546
  149SOL    HW2  447   1.045   1.537   2.669 -1.5757  1.1242  0.8563
  150SOL     OW  448   0.765   2.397   0.618 -0.1282  0.2486  0.2785
  150SOL    HW1  449   0.780   2.324   0.555 -0.7582 -0.0052  1.9209
  150SOL    HW2  450   0.836   2.405   0.692 -1.9900  1.0626  0.9782
  151SOL     OW  451   0.592   1.787   3.063 -0.1640 -0.0400  0.3029
  151SOL    HW1  452   0.693   1.802   3.053 -0.0491  0.7167  1.7586
  151SOL    HW2  453   0.565   1.776   0.075  0.4693 -0.6684  0.3521
  152SOL     OW  454   3.033   1.280   0.481  0.1116  0.0997 -0.3759
  152SOL    HW1  455   2.939   1.301   0.517 -1.9177 -0.0993 -1.3090
  152SOL    HW2  456   3.064   1.194   0.526  1.0905  0.7671  1.0068
  153SOL     OW  457   2.368   2.422   0.443  0.2907 -0.1819 -0.0687
  153SOL    HW1  458   2.400   2.454   0.536 -0.2682  1.5818  0.6196
  153SOL    HW2  459   2.391   2.495   0.378 -1.0129 -4.0926  0.2622
  154SOL     OW  460   0.734   3.040   0.937 -0.2346  0.0161 -0.1493
  154SOL    HW1  461   0.699   0.008   1.010 -0.1768 -0.7215  1.1182
  154SOL    HW2  462   0.737   0.005   0.849  1.3425 -4.0053 -0.5046
  155SOL     OW  463   0.264   1.975   0.982  0.1769  0.2944  0.1186
  155SOL    HW1  464   0.263   2.054   0.914 -0.4382 -2.3979  3.5390
  155SOL    HW2  465   0.217   1.996   1.071  2.0563 -0.4794  3.0965
  156SOL     OW  466   2.672   2.279   0.013 -1.1205 -0.0879 -0.1841
  156SOL    HW1  467   2.699   2.212   3.020  2.2321 -1.6253 -1.9323
  156SOL    HW2  468   2.749   2.284   0.081  0.4808  0.5945  0.4056
  157SOL     OW  469   1.148   2.090   1.441 -0.2368  1.1597  0.3750
  157SOL    HW1  470   1.079   2.159   1.467  2.2379 -0.9923 -3.1370
  157SOL    HW2  471   1.119   2.022   1.365  0.5107 -1.5043 -0.9003
  158SOL     OW  472   1.714   0.616   3.020  0.1006  0.4680  0.5894
  158SOL    HW1  473   1.693   0.525   2.981 -0.6215 -0.7058  0.1465
  158SOL    HW2  474   1.812   0.620   3.046 -2.4375 -0.5250  1.1848
  159SOL     OW  475   1.126   0.582   2.680 -0.1554 -0.0179 -0.1716
  159SOL    HW1  476   1.036   0.551   2.715 -0.7958 -0.1532 -0.9570
  159SOL    HW2  477   1.166   0.522   2.605  1.2745  0.0627  0.5607
  160SOL     OW  478   1.295   1.584   0.337  0.2186  0.2764  0.2013
  160SOL    HW1  479   1.218   1.656   0.336 -0.6143  0.3645 -0.4074
  160SOL    HW2  480   1.266   1.500   0.391 -0.7278 -4.3814  3.1033
  161SOL     OW  481   0.066   2.340   3.000 -0.6624 -0.0345  0.1170
  161SOL    HW1  482   0.070   2.356   2.899  0.4867 -2.3645 -3.0564
  161SOL    HW2  483   0.151   2.288   3.026 -1.9603 -1.1328 -0.0739
  162SOL     OW  484   0.654   2.742   0.972  0.0832 -0.1423  0.2402
  162SOL    HW1  485   0.748   2.705   0.980 -2.1325 -0.9705 -0.4307
  162SOL    HW2  486   0.652   2.845   0.993  0.9291  0.7194  1.2719
  163SOL     OW  487   2.668   0.967   2.939  0.6658 -0.3338 -0.4261
  163SOL    HW1  488   2.566   0.972   2.927 -0.2068  2.0707 -0.0460
  163SOL    HW2  489   2.704   0.880   2.924 -0.3651  4.5469 -1.6962
  164SOL     OW  490   0.222   2.827   2.856 -0.0599  0.1939 -0.1881
  164SOL    HW1  491   0.287   2.762   2.893 -2.0076 -0.1022 -2.8883
  164SOL    HW2  492   0.130   2.782   2.845  1.3546 -1.8370  1.2361
  165SOL     OW  493   2.308   0.337   1.208 -0.1225 -0.3768 -0.4686
  165SOL    HW1  494   2.281   0.436   1.229 -1.3716  0.5987 -1.0467
  165SOL    HW2  495   2.236   0.284   1.161  1.7535 -0.0915  3.1826
  166SOL     OW  496   1.990   0.299   1.317  0.3426 -0.0467  0.3907
  166SOL    HW1  497   2.024   0.242   1.238 -0.5987 -0.4247  0.8757
  166SOL    HW2  498   1.927   0.247   1.384  1.1133 -2.8122  1.1291
  167SOL     OW  499   1.008   0.513   1.963  0.2867 -0.1251 -0.2022
  167SOL    HW1  500   1.007   0.581   1.889  1.4179 -0.6777  1.0841
  167SOL    HW2  501   0.918   0.460   1.969 -1.5962 -2.9575 -0.2000
  168SOL     OW  502   2.427   0.502   1.799  0.0093 -0.0897  0.4908
  168SOL    HW1  503   2.506   0.488   1.860 -0.9700  0.3701 -1.1423
  168SOL    HW2  504   2.336   0.500   1.848 -2.6720  0.0296  0.4722
  169SOL     OW  505   0.288   1.353   0.388  0.0427  0.4668  0.7450
  169SOL    HW1  506   0.269   1.417   0.315  0.2804 -0.2055  0.3863
  169SOL    HW2  507   0.249   1.257   0.381  0.9152 -1.3486 -1.1648
  170SOL     OW  508   0.140   1.257   1.737  0.8412 -0.3502 -0.6923
  170SOL    HW1  509   0.146   1.155   1.736  0.7292 -0.2493  2.1239
  170SOL    HW2  510   0.212   1.302   1.793  1.0599  0.2381 -0.3104
  171SOL     OW  511   1.159   1.966   2.029  0.0710  0.2492  0.1511
  171SOL    HW1  512   1.197   2.054   1.985  1.3675  2.1255 -1.7900
  171SOL    HW2  513   1.119   1.906   1.954  0.0053 -1.3828 -2.4398
  172SOL     OW  514   0.430   2.338   1.467 -0.6726  0.0804 -0.2841
  172SOL    HW1  515   0.450   2.383   1.557 -2.4184 -2.9777  0.1081
  172SOL    HW2  516   0.491   2.375   1.394 -0.2498 -0.6145 -0.0025
  173SOL     OW  517   1.346   2.759   0.710  0.1977  0.3628  0.3625
  173SOL    HW1  518   1.366   2.815   0.627  1.1445 -0.9337  0.1816
  173SOL    HW2  519   1.394   2.670   0.699  0.1685 -0.7329 -0.3556
  174SOL     OW  520   1.150   2.861   0.230 -0.4644 -0.1423  0.4141
  174SOL    HW1  521   1.237   2.845   0.193 -1.4477  1.4415  3.1776
  174SOL    HW2  522   1.100   2.779   0.260  0.9967  0.3953  1.7184
  175SOL     OW  523   0.923   1.052   2.923 -0.0485 -0.1121 -0.1675
  175SOL    HW1  524   0.930   1.153   2.937  1.2143  0.4281 -0.1574
  175SOL    HW2  525   0.905   1.030   2.822 -1.4938 -0.1641 -0.1686
  176SOL     OW  526   1.802   0.877   0.280 -0.1348  0.3695 -0.1815
  176SOL    HW1  527   1.790   0.907   0.182  0.2758 -1.0291 -0.3374
  176SOL    HW2  528   1.737   0.925   0.347 -1.0207 -0.4823  0.2653
  177SOL     OW  529   1.275   0.954   0.826 -0.1909 -0.1037 -0.1318
  177SOL    HW1  530   1.182   0.966   0.871 -1.8092 -0.3975  3.5287
  177SOL    HW2  531   1.357   0.978   0.892  3.1588  1.5275  2.5150
  178SOL     OW  532   2.619   1.558   2.644  0.1269  0.2544 -0.0743
  178SOL    HW1  533   2.704   1.510   2.669 -1.1337 -0.9188  0.6795
  178SOL    HW2  534   2.615   1.568   2.541 -0.4281  0.4178 -2.2042
  179SOL     OW  535   0.712   2.614   0.100 -0.0172  0.2003  0.3072
  179SOL    HW1  536   0.730   2.603   0.000  3.5213 -3.1089  0.3986
  179SOL    HW2  537   0.688   2.524   0.141 -0.2347  0.3061  2.3807
  180SOL     OW  538   1.815   1.572   1.406 -0.0876 -0.1695 -0.8901
  180SOL    HW1  539   1.907   1.530   1.386 -1.2371  1.6865 -2.2253
  180SOL    HW2  540   1.763   1.513   1.467  0.5744 -3.4263  2.2136
  181SOL     OW  541   1.005   1.286   2.292  0.7608  0.5608 -0.4106
  181SOL    HW1  542   0.944   1.205   2.288 -0.8456 -2.4968  0.2172
  181SOL    HW2  543   1.072   1.273   2.366 -1.6567 -1.7415 -2.5735
  182SOL     OW  544   3.072   0.850   2.544  0.3922 -0.1765 -0.0342
  182SOL    HW1  545   0.042   0.927   2.574  2.3926 -0.3106 -0.5802
  182SOL    HW2  546   3.026   0.878   2.459  1.9857 -0.8552  2.1173
  183SOL     OW  547   1.363   0.201   2.515 -0.2263  0.1112  0.2808
  183SOL    HW1  548   1.398   0.278   2.577 -1.7552 -0.7956 -0.7686
  183SOL    HW2  549   1.407   0.110   2.537 -0.6908 -1.0035  0.3920
  184SOL     OW  550   0.104   0.631   1.315  0.1964 -0.0168  0.1871
  184SOL    HW1  551   0.123   0.611   1.410 -0.0903 -1.7076 -1.7520
  184SOL    HW2  552   0.040   0.711   1.301 -1.7035  0.7055 -2.5860
  185SOL     OW  553   2.587   1.530   0.887 -0.1423  0.1308  0.0781
  185SOL    HW1  554   2.651   1.606   0.857  1.4909 -1.0864  1.0514
  185SOL    HW2  555   2.635   1.465   0.952  1.0969 -1.0150 -3.5293
  186SOL     OW  556   0.213   2.132   2.679 -0.2282  0.1825 -0.6690
  186SOL    HW1  557   0.257   2.109   2.590  1.7213 -1.6997  0.3401
  186SOL    HW2  558   0.111   2.134   2.665  1.5081 -1.4594 -1.7134
  187SOL     OW  559   2.520   1.790   2.998 -0.1977 -0.0683 -0.1013
  187SOL    HW1  560   2.616   1.797   3.031  1.2105  0.6111  2.5546
  187SOL    HW2  561   2.479   1.881   3.001 -1.1131 -1.6226  2.2857
  188SOL     OW  562   0.780   2.191   0.432  0.2315 -0.2822 -0.7286
  188SOL    HW1  563   0.816   2.131   0.504  2.4921 -2.5428  2.8884
  188SOL    HW2  564   0.717   2.140   0.368 -0.7681 -1.3668 -0.5227
  189SOL     OW  565   2.597   0.914   0.202  0.0866 -0.4128  0.1223
  189SOL    HW1  566   2.680   0.959   0.162 -0.0136 -2.3636 -0.6042
  189SOL    HW2  567   2.606   0.812   0.201 -1.5449  1.8030  0.6939
  190SOL     OW  568   0.721   1.655   1.980 -0.1285 -0.1710 -0.9456
  190SOL    HW1  569   0.688   1.709   2.064 -0.7016  0.4614  0.1052
  190SOL    HW2  570   0.824   1.651   1.977 -1.9819  1.0550  2.0014
  191SOL     OW  571   2.490   0.497   1.546  0.4817 -0.0457 -0.3855
  191SOL    HW1  572   2.442   0.498   1.635  0.0128  0.3680 -2.2287
  191SOL    HW2  573   2.508   0.402   1.514 -2.6280  0.0246 -1.1786
  192SOL     OW  574   2.139   0.189   1.684  0.2869  0.2725  0.0737
  192SOL    HW1  575   2.088   0.272   1.719  0.6035  1.5665  1.8351
  192SOL    HW2  576   2.066   0.135   1.633 -2.3258 -1.4346  1.2679
  193SOL     OW  577   0.171   0.708   0.823  0.2671  0.2666  0.2440
  193SOL    HW1  578   0.118   0.767   0.889  1.0653 -1.2030  1.2525
  193SOL    HW2  579   0.117   0.619   0.812 -3.4771 -2.2666  0.4637
  194SOL     OW  580   1.519   2.587   1.577 -0.4217 -0.3291 -0.1367
  194SOL    HW1  581   1.599   2.530   1.549 -1.2998 -0.4248  0.8443
  194SOL    HW2  582   1.438   2.529   1.583  0.4716 -1.5876  1.5477
  195SOL     OW  583   2.447   0.543   0.908  0.5145  0.2952  0.3779
  195SOL    HW1  584   2.516   0.486   0.862 -0.0379 -1.9735 -0.4643
  195SOL    HW2  585   2.470   0.645   0.895  1.2577 -0.5499 -0.1912
  196SOL     OW  586   1.561   2.273   1.962  0.4533 -0.0131 -0.5652
  196SOL    HW1  587   1.593   2.273   2.058  1.5196  0.5932  0.8209
  196SOL    HW2  588   1.461   2.305   1.964 -1.8083  1.9357 -1.8274
  197SOL     OW  589   0.365   2.998   0.037 -0.9675 -0.0371  0.3774
  197SOL    HW1  590   0.333   3.015   3.024  0.3657 -0.7443 -2.3626
  197SOL    HW2  591   0.289   2.989   0.107  0.0094  2.2286 -1.1517
  198SOL     OW  592   1.069   1.286   0.753 -0.0778 -0.3930  0.1559
  198SOL    HW1  593   1.156   1.281   0.699  3.6986 -0.0362 -2.5042
  198SOL    HW2  594   1.006   1.211   0.722 -1.2134  1.1695 -0.4098
  199SOL     OW  595   2.447   0.901   1.653 -0.5913 -0.1969  0.3144
  199SOL    HW1  596   2.550   0.892   1.644 -2.7291 -0.8205  0.8041
  199SOL    HW2  597   2.421   1.002   1.660 -0.2873  1.4080  0.2860
  200SOL     OW  598   2.396   2.635   2.348  0.1831 -0.3477 -0.1083
  200SOL    HW1  599   2.351   2.724   2.367 -1.5388  0.1224  1.7146
  200SOL    HW2  600   2.399   2.575   2.432 -0.6588 -1.6393  3.3223
  201SOL     OW  601   2.721   0.160   1.300 -0.1249  0.1432 -0.5005
  201SOL    HW1  602   2.739   0.064   1.327 -2.4831  1.2331  1.4892
  201SOL    HW2  603   2.668   0.169   1.213 -1.2955 -0.4427  1.6937
  202SOL     OW  604   1.938   0.061   0.204  0.0089 -0.5248  0.2702
  202SOL    HW1  605   2.008   3.071   0.220  1.4000 -1.6003 -1.0966
  202SOL    HW2  606   1.930   0.128   0.280  0.6043 -2.7193 -2.3198
  203SOL     OW  607   1.417   1.860   2.014  0.2038  0.6310  0.1695
  203SOL    HW1  608   1.325   1.901   2.006  2.7438 -1.9147  0.2585
  203SOL    HW2  609   1.451   1.884   2.109 -0.9900 -0.2630  1.3409
  204SOL     OW  610   0.921   1.623   2.534  0.0770  1.0656 -0.5935
  204SOL    HW1  611   0.861   1.538   2.557 -3.6050 -0.4397  1.8700
  204SOL    HW2  612   0.944   1.624   2.435  0.5246 -1.1639  0.4981
  205SOL     OW  613   1.034   1.684   1.398 -0.0756  0.3932 -0.1673
  205SOL    HW1  614   1.042   1.615   1.323  0.9292  0.9907 -0.3563
  205SOL    HW2  615   0.947   1.672   1.449  0.0384 -0.6189  0.9418
  206SOL     OW  616   2.953   0.539   2.911  0.1591  0.1689 -0.0932
  206SOL    HW1  617   2.974   0.572   2.815  0.0420  2.7023 -0.7458
  206SOL    HW2  618   2.885   0.461   2.914  1.1855 -0.9602 -2.8879
  207SOL     OW  619   1.720   2.741   2.406  0.2352  0.1612 -0.3513
  207SOL    HW1  620   1.774   2.823   2.378  3.4032 -2.9885  1.7023
  207SOL    HW2  621   1.701   2.679   2.330 -0.2227  2.5552 -0.2118
  208SOL     OW  622   0.611   2.401   1.279  0.6666 -0.2514  0.4424
  208SOL    HW1  623   0.698   2.442   1.310 -0.0219  0.5440 -1.2715
  208SOL    HW2  624   0.559   2.461   1.214 -0.1324 -0.5882  1.1475
  209SOL     OW  625   1.453   1.192   2.196  0.0293 -0.3157  0.4522
  209SOL    HW1  626   1.455   1.213   2.095 -3.0622  0.3864 -0.8915
  209SOL    HW2  627   1.439   1.281   2.246  1.5449  1.4879 -0.5765
  210SOL     OW  628   1.817   0.937   1.162 -0.6466  0.3103 -0.5688
  210SOL    HW1  629   1.858   0.931   1.067 -2.4840 -1.3670 -0.9269
  210SOL    HW2  630   1.737   0.871   1.169 -1.3168 -1.2336  1.1229
  211SOL     OW  631   0.872   2.837   0.612 -0.1426  0.6604  0.6903
  211SOL    HW1  632   0.804   2.761   0.583 -2.3567 -2.6654  1.6633
  211SOL    HW2  633   0.929   2.814   0.699  0.2337 -0.3006  2.4052
  212SOL     OW  634   1.743   1.734   0.243 -0.3415  0.3058 -0.0374
  212SOL    HW1  635   1.661   1.783   0.280 -0.2134 -1.4202  1.8090
  212SOL    HW2  636   1.815   1.723   0.317 -3.1477 -0.5395  1.4098
  213SOL     OW  637   1.459   0.360   2.724 -0.0987  0.6807 -0.0914
  213SOL    HW1  638   1.398   0.340   2.805  1.3540 -0.9684 -1.7513
  213SOL    HW2  639   1.505   0.449   2.742 -2.2686  0.2051  1.9704
  214SOL     OW  640   1.124   1.449   2.111 -0.1036  0.1408  0.1988
  214SOL    HW1  641   1.081   1.384   2.176 -0.2401 -0.5985  0.7978
  214SOL    HW2  642   1.215   1.481   2.145  0.0106 -2.6425  0.0672
  215SOL     OW  643   0.834   1.757   0.316  0.5021  0.6755  0.0911
  215SOL    HW1  644   0.779   1.837   0.279 -0.6502 -2.3643 -2.2285
  215SOL    HW2  645   0.816   1.748   0.413  0.9532  1.6587 -2.1169
  216SOL     OW  646   0.231   2.905   2.158 -0.0510 -0.2209  0.6051
  216SOL    HW1  647   0.311   2.971   2.164  1.1170  0.3016 -1.6101
  216SOL    HW2  648   0.269   2.810   2.180  1.9299  1.6583  1.0829
  217SOL     OW  649   2.451   1.066   0.828  0.6910 -0.3439  0.2923
  217SOL    HW1  650   2.471   1.131   0.904  2.9615  0.4556 -2.4806
  217SOL    HW2  651   2.360   1.080   0.789  1.2571 -0.5843 -1.0547
  218SOL     OW  652   1.804   1.638   1.787  0.1996  0.4916 -0.2373
  218SOL    HW1  653   1.746   1.690   1.854  1.2501  2.1554 -3.6314
  218SOL    HW2  654   1.898   1.636   1.830  0.4310 -0.4147  1.4870
  219SOL     OW  655   1.908   1.545   0.135 -0.2175  0.2194 -0.2016
  219SOL    HW1  656   1.886   1.496   0.053  0.4186  0.9673 -0.1714
  219SOL    HW2  657   1.835   1.612   0.152  1.5149 -0.5265  0.7309
  220SOL     OW  658   1.359   1.296   0.910 -0.5077  0.0848  0.8141
  220SOL    HW1  659   1.343   1.362   0.833 -2.7249 -1.6965  0.8503
  220SOL    HW2  660   1.412   1.214   0.878 -0.4410 -0.6294 -0.5787
  221SOL     OW  661   0.896   0.552   2.826  0.2731  0.3863  0.8015
  221SOL    HW1  662   0.837   0.533   2.745  1.4384  2.0536  0.9629
  221SOL    HW2  663   0.842   0.565   2.913 -0.6952  1.0958 -0.9969
  222SOL     OW  664   1.091   1.370   0.424 -0.2655  0.0620  0.1434
  222SOL    HW1  665   1.149   1.300   0.479  0.4030 -1.0114  0.7903
  222SOL    HW2  666   1.027   1.328   0.362  2.0425  1.0691  5.2179
  223SOL     OW  667   1.007   2.949   2.824  0.2329  0.3791  0.0277
  223SOL    HW1  668   1.097   2.995   2.837  0.2691  1.5901  1.6932
  223SOL    HW2  669   0.979   2.909   2.912 -0.0355 -0.5657 -0.2685
  224SOL     OW  670   2.481   0.253   1.415 -0.2552  0.4117  0.5923
  224SOL    HW1  671   2.410   0.258   1.347 -0.3185  1.0135  0.8025
  224SOL    HW2  672   2.573   0.245   1.371  2.2531 -0.0392  1.1795
  225SOL     OW  673   0.675   0.091   1.163  0.2821 -0.1157 -0.2953
  225SOL    HW1  674   0.582   0.135   1.162 -0.4617 -0.5648 -1.3972
  225SOL    HW2  675   0.738   0.175   1.168  3.3137 -0.0548  0.9291
  226SOL     OW  676   1.434   1.678   2.986  0.1927 -0.1230 -0.4355
  226SOL    HW1  677   1.411   1.665   2.892  2.2239  0.5289  2.6328
  226SOL    HW2  678   1.426   1.600   3.049  1.0272  0.0085  0.5516
  227SOL     OW  679   1.032   1.501   1.199  0.4771 -0.2109  0.2046
  227SOL    HW1  680   1.000   1.449   1.116 -1.2717  1.5033  0.0036
  227SOL    HW2  681   1.109   1.455   1.250 -1.2634  0.4139  2.0874
  228SOL     OW  682   0.592   1.683   0.776  0.4246  0.3372 -0.3105
  228SOL    HW1  683   0.599   1.606   0.844  0.2861  1.4568  0.9540
  228SOL    HW2  684   0.563   1.770   0.818  0.9856 -1.1339  2.0790
  229SOL     OW  685   1.262   0.596   0.073 -0.6847  0.0652  0.4484
  229SOL    HW1  686   1.193   0.640   0.019 -0.2840 -0.6232  2.4494
  229SOL    HW2  687   1.349   0.650   0.057 -0.0199 -0.8730 -2.7498
  230SOL     OW  688   1.231   0.536   2.094  0.4818  0.6187 -0.2063
  230SOL    HW1  689   1.143   0.527   2.042  0.2126 -0.2517  0.0932
  230SOL    HW2  690   1.260   0.462   2.152 -0.5910  4.2711  0.4767
  231SOL     OW  691   1.349   1.694   2.305 -0.9067 -0.2644  0.1125
  231SOL    HW1  692   1.404   1.783   2.318  1.8537  1.5766  0.7474
  231SOL    HW2  693   1.251   1.706   2.295  1.6075 -0.2458  1.1759
  232SOL     OW  694   2.437   2.070   0.895  0.0883  0.2453 -0.0249
  232SOL    HW1  695   2.503   2.108   0.967  3.2007 -0.5642 -0.3888
  232SOL    HW2  696   2.420   1.971   0.904 -0.3326  0.7088 -1.9489
  233SOL     OW  697   2.654   2.784   0.187  0.3271 -0.0453 -0.5099
  233SOL    HW1  698   2.744   2.822   0.155  2.2903 -0.1251  2.4822
  233SOL    HW2  699   2.577   2.786   0.123  0.2265  0.5708  0.3119
  234SOL     OW  700   0.976   0.168   2.838 -0.0349  0.0076 -0.2134
  234SOL    HW1  701   1.045   0.185   2.913  1.6703  0.6165  2.0748
  234SOL    HW2  702   0.971   0.071   2.814  5.3116  0.9009 -0.4054
  235SOL     OW  703   2.531   0.175   2.628 -0.4860 -0.4039 -0.2065
  235SOL    HW1  704   2.450   0.207   2.680  2.9286  1.4853 -2.0492
  235SOL    HW2  705   2.559   0.250   2.564 -1.8113  1.0339  1.3862
  236SOL     OW  706   2.116   2.500   2.043  0.2556  0.2566  0.4241
  236SOL    HW1  707   2.057   2.540   2.116  1.0409 -1.9666  0.0888
  236SOL    HW2  708   2.064   2.427   1.998  1.5548 -0.2406  2.1718
  237SOL     OW  709   0.764   1.423   2.275 -0.7217 -0.4000 -0.1588
  237SOL    HW1  710   0.786   1.522   2.253  1.3760  3.3252  0.0050
  237SOL    HW2  711   0.843   1.361   2.258 -0.9632 -1.1927  0.5056
  238SOL     OW  712   1.668   0.022   2.337 -0.1328 -0.1106 -0.1846
  238SOL    HW1  713   1.583   0.006   2.392  0.1887 -1.3112 -2.1297
  238SOL    HW2  714   1.735   3.035   2.352 -0.4177  2.5733  1.0978
  239SOL     OW  715   0.094   1.955   1.760  0.3831  0.4618 -0.5491
  239SOL    HW1  716   0.119   2.032   1.826 -0.3799 -0.5481  4.2641
  239SOL    HW2  717   0.061   1.877   1.817 -1.3185 -0.9712 -0.7498
  240SOL     OW  718   3.016   2.565   0.799  0.0497  0.6644 -0.0562
  240SOL    HW1  719   2.956   2.514   0.869  0.6322 -2.0986  1.8166
  240SOL    HW2  720   2.961   2.578   0.710  0.9626  0.6754 -1.4466
  241SOL     OW  721   2.221   1.324   0.956 -0.1121 -0.9837 -0.2029
  241SOL    HW1  722   2.265   1.358   0.868  1.3756  1.7181 -1.9905
  241SOL    HW2  723   2.139   1.262   0.941 -1.5435 -0.7942  0.9483
  242SOL     OW  724   1.836   1.986   2.661 -0.1865 -0.6873 -0.6751
  242SOL    HW1  725   1.933   2.008   2.671 -1.8151 -0.4489 -2.0908
  242SOL    HW2  726   1.796   1.965   2.753  0.5283 -1.8624  1.0480
  243SOL     OW  727   0.681   2.402   1.688  0.0336 -0.2579 -0.1188
  243SOL    HW1  728   0.682   2.463   1.768 -1.8262 -2.1092 -1.1228
  243SOL    HW2  729   0.733   2.439   1.615 -2.1890  0.7701  3.0256
  244SOL     OW  730   2.215   3.045   2.821 -0.0551 -0.6444  0.3961
  244SOL    HW1  731   2.176   0.046   2.773 -1.4153 -0.4204 -2.7107
  244SOL    HW2  732   2.152   2.970   2.799 -0.0547 -2.1412 -0.8482
  245SOL     OW  733   1.457   2.927   0.886 -0.0218 -0.2426  0.0966
  245SOL    HW1  734   1.451   2.895   0.983  0.6150 -0.3826  0.0349
  245SOL    HW2  735   1.403   2.864   0.830  2.0240  1.2928  1.0103
  246SOL     OW  736   1.556   2.532   0.228 -0.6098 -0.4505 -0.0480
  246SOL    HW1  737   1.598   2.623   0.250  2.2121 -0.3360 -1.4653
  246SOL    HW2  738   1.621   2.479   0.168  0.1363  0.4977  0.1607
  247SOL     OW  739   0.730   0.427   2.267  0.0496 -0.2251 -0.0888
  247SOL    HW1  740   0.670   0.402   2.191  5.1701 -1.0267  2.3360
  247SOL    HW2  741   0.713   0.361   2.348 -0.8670  1.1718  2.8775
  248SOL     OW  742   0.435   1.793   1.775  0.0988  0.2181  0.3735
  248SOL    HW1  743   0.527   1.764   1.740 -1.1698  2.4411  1.3603
  248SOL    HW2  744   0.367   1.759   1.709 -0.2268 -2.3394 -2.4968
  249SOL     OW  745   2.289   0.438   0.503  0.1452  0.2863  0.2888
  249SOL    HW1  746   2.308   0.371   0.427 -0.0089 -0.6826  3.4308
  249SOL    HW2  747   2.200   0.484   0.490  0.0741  3.5296  2.3427
  250SOL     OW  748   0.281   0.503   0.484 -0.0633 -0.3688 -0.0501
  250SOL    HW1  749   0.373   0.487   0.521 -2.4637  0.2288 -1.9469
  250SOL    HW2  750   0.254   0.417   0.429 -2.6267 -3.7820 -1.6508
  251SOL     OW  751   1.793   0.327   2.940  0.5678  0.2236  0.0319
  251SOL    HW1  752   1.824   0.353   2.847 -1.6967 -0.5896  1.3856
  251SOL    HW2  753   1.843   0.240   2.973 -0.2034 -1.0751 -0.7355
  252SOL     OW  754   1.697   1.824   1.960  0.6816 -0.0967  0.3053
  252SOL    HW1  755   1.736   1.750   2.020  1.5487 -1.5959  2.0776
  252SOL    HW2  756   1.597   1.827   1.970  1.4856  0.3406  0.9607
  253SOL     OW  757   2.567   2.387   1.803  0.2390  0.5613 -0.0577
  253SOL    HW1  758   2.666   2.396   1.822  4.6759 -1.0477  0.8752
  253SOL    HW2  759   2.548   2.292   1.772  1.0257 -0.6628  0.4017
  254SOL     OW  760   3.050   1.403   1.199  0.1322  0.0689  0.1260
  254SOL    HW1  761   3.047   1.299   1.205 -1.0379  1.2194  1.9112
  254SOL    HW2  762   0.058   1.436   1.203 -0.6551 -0.4824  0.8770
  255SOL     OW  763   1.117   0.535   1.242 -0.4988 -0.1423 -0.0767
  255SOL    HW1  764   1.058   0.469   1.291  1.2390  1.8733 -1.8921
  255SOL    HW2  765   1.201   0.552   1.300  2.1992 -2.2085 -0.8454
  256SOL     OW  766   2.121   2.429   1.633  0.1348  0.0114  0.1194
  256SOL    HW1  767   2.146   2.527   1.636 -0.5254 -0.0387 -1.9303
  256SOL    HW2  768   2.035   2.408   1.584 -1.3680  1.7393 -2.6915
  257SOL     OW  769   0.619   2.652   2.645 -0.1497 -0.0016 -0.0052
  257SOL    HW1  770   0.705   2.707   2.648  0.5909  0.6048 -0.9274
  257SOL    HW2  771   0.635   2.555   2.627 -0.5592  0.2652 -0.7537
  258SOL     OW  772   0.693   2.331   0.152  0.1934  0.5709  0.1230
  258SOL    HW1  773   0.795   2.303   0.156  0.9461  1.0868 -2.7970
  258SOL    HW2  774   0.648   2.265   0.088  0.3496 -0.8165  1.1298
  259SOL     OW  775   0.841   0.098   2.045  0.4851  0.3361 -0.2319
  259SOL    HW1  776   0.938   0.099   2.013  1.5221 -1.6958  1.4301
  259SOL    HW2  777   0.785   0.037   1.985  1.1003  0.3057 -2.0181
  260SOL     OW  778   1.813   0.562   0.964 -0.7613  0.3482 -0.1642
  260SOL    HW1  779   1.778   0.655   0.938 -0.1122  0.7337 -1.7816
  260SOL    HW2  780   1.915   0.557   0.968 -0.0418  0.3474  0.0122
  261SOL     OW  781   0.475   0.266   2.533  0.0683 -1.0317  0.1087
  261SOL    HW1  782   0.467   0.313   2.626  0.4687  1.4292  1.0192
  261SOL    HW2  783   0.571   0.245   2.517 -0.5920  0.6644  1.4756
  262SOL     OW  784   0.194   2.125   1.935 -0.2911  0.5502 -0.1645
  262SOL    HW1  785   0.157   2.213   1.971  0.0453  2.0069  2.1215
  262SOL    HW2  786   0.295   2.130   1.945 -0.8766  0.0695 -1.4008
  263SOL     OW  787   2.882   1.748   2.243  0.7061 -0.1394 -0.3084
  263SOL    HW1  788   2.830   1.839   2.251 -4.3601  2.4369  0.3670
  263SOL    HW2  789   2.979   1.764   2.233 -1.7139  1.0569 -0.9259
  264SOL     OW  790   0.549   0.989   1.113  0.1314  0.4803  0.0903
  264SOL    HW1  791   0.528   0.971   1.212  0.0423 -3.0479  0.9732
  264SOL    HW2  792   0.467   0.975   1.054  1.3211 -1.4750  1.1474
  265SOL     OW  793   0.995   2.373   1.040  0.2160  0.1262 -0.2792
  265SOL    HW1  794   0.910   2.327   1.077 -0.4078 -0.2287 -0.2723
  265SOL    HW2  795   1.078   2.317   1.071  2.2885 -3.1953  2.7751
  266SOL     OW  796   1.518   1.038   0.925 -0.4321  0.0911  0.0909
  266SOL    HW1  797   1.560   1.056   1.015  0.6632 -1.0432  1.0596
  266SOL    HW2  798   1.589   1.043   0.854  0.9185  0.4090 -0.3793
  267SOL     OW  799   2.660   1.173   0.002  0.3771 -0.0578 -0.1384
  267SOL    HW1  800   2.727   1.176   0.076  0.9992 -0.2896 -1.1887
  267SOL    HW2  801   2.671   1.087   3.026 -1.5772 -0.7571 -2.1439
  268SOL     OW  802   1.228   0.450   0.284 -0.5293  0.1658 -0.1252
  268SOL    HW1  803   1.294   0.481   0.356 -0.9010  0.7195 -4.7068
  268SOL    HW2  804   1.244   0.503   0.198  1.0346 -0.1501  1.7354
  269SOL     OW  805   2.222   0.566   2.605 -0.3510 -0.3655 -0.4354
  269SOL    HW1  806   2.320   0.535   2.630  0.7610  0.1624 -1.0952
  269SOL    HW2  807   2.175   0.606   2.687  0.0166  1.1763 -1.4416
  270SOL     OW  808   0.125   0.784   3.075 -0.4265  0.2537  0.1475
  270SOL    HW1  809   0.120   0.708   0.053  2.5047  0.3549 -2.4080
  270SOL    HW2  810   0.032   0.827   3.058  1.8938  2.0004 -0.5033
  271SOL     OW  811   2.812   1.181   0.222 -0.5470  0.2420 -0.7241
  271SOL    HW1  812   2.812   1.161   0.321  0.3282  1.8900  0.4261
  271SOL    HW2  813   2.792   1.280   0.210 -0.0709  0.1083  3.6677
  272SOL     OW  814   3.040   2.656   2.842  0.3696  0.1451 -0.1377
  272SOL    HW1  815   3.044   2.575   2.789  1.0988  2.1990  0.4063
  272SOL    HW2  816   3.014   2.629   2.935  2.0065 -1.3144  5.4647
  273SOL     OW  817   2.854   2.913   0.071 -0.1717  0.7074 -0.7815
  273SOL    HW1  818   2.912   2.978   0.130 -0.3020  0.3572 -1.4105
  273SOL    HW2  819   2.825   2.958   3.070  1.1441  1.3268  0.0825
  274SOL     OW  820   0.510   2.508   1.042  0.1127 -0.5294  0.2416
  274SOL    HW1  821   0.541   2.601   1.015  2.3083  1.5936 -0.3462
  274SOL    HW2  822   0.553   2.439   0.982  0.4667 -2.8067 -1.6290
  275SOL     OW  823   2.775   1.444   0.160 -0.3483  0.5213  0.1530
  275SOL    HW1  824   2.774   1.502   0.074  2.3072  0.1296 -2.5405
  275SOL    HW2  825   2.868   1.437   0.200 -2.4629 -1.1944 -0.6669
  276SOL     OW  826   2.905   1.233   1.818  0.1482 -0.4842 -0.0956
  276SOL    HW1  827   2.908   1.130   1.819 -2.9849 -2.8033  2.8364
  276SOL    HW2  828   2.911   1.277   1.727  2.4338 -0.0028 -0.7278
  277SOL     OW  829   2.097   0.149   1.113  0.0447  0.1751 -0.2964
  277SOL    HW1  830   2.096   0.045   1.121 -0.0030 -2.0155 -0.4967
  277SOL    HW2  831   2.067   0.177   1.021 -0.1889  0.8820  0.2066
  278SOL     OW  832   1.377   2.201   2.199 -0.6737  0.1586 -0.0882
  278SOL    HW1  833   1.473   2.240   2.187  1.5055  0.2514  2.0896
  278SOL    HW2  834   1.314   2.258   2.144  1.7093 -2.2733  0.4724
  279SOL     OW  835   1.703   1.767   0.627 -0.2753  0.2869  0.0854
  279SOL    HW1  836   1.785   1.758   0.560  1.1443  1.1846 -2.4942
  279SOL    HW2  837   1.665   1.863   0.620 -0.5246 -1.7399 -1.4167
  280SOL     OW  838   0.210   1.251   0.979  1.0513  0.0924 -0.1242
  280SOL    HW1  839   0.282   1.312   0.934  0.5340  1.9800 -1.3793
  280SOL    HW2  840   0.206   1.261   1.079  0.5443 -3.4735 -1.0797
  281SOL     OW  841   0.191   1.514   2.280 -0.5512  0.3253  0.0097
  281SOL    HW1  842   0.273   1.458   2.266  0.7766  0.1543 -0.9564
  281SOL    HW2  843   0.163   1.518   2.380 -0.2125  1.0961 -0.6835
  282SOL     OW  844   0.477   1.592   0.173 -0.6160 -0.3395 -0.3480
  282SOL    HW1  845   0.390   1.541   0.154  1.4684  1.4601  0.7535
  282SOL    HW2  846   0.560   1.552   0.133 -0.8587 -0.6989 -0.7156
  283SOL     OW  847   2.417   2.295   3.001  0.1668 -0.0614  0.0378
  283SOL    HW1  848   2.349   2.311   3.072  0.4639 -3.8185  3.0162
  283SOL    HW2  849   2.513   2.299   3.036  1.0190 -1.5128 -0.4206
  284SOL     OW  850   0.957   3.082   0.576  0.4053 -0.4944 -0.3987
  284SOL    HW1  851   0.904   2.999   0.592  1.3823  2.7224 -3.4029
  284SOL    HW2  852   0.998   0.006   0.486 -1.9142  0.9284  2.7533
  285SOL     OW  853   2.256   1.235   2.853  0.6762 -0.3458 -0.9415
  285SOL    HW1  854   2.293   1.158   2.900 -1.0232  0.5368 -0.5651
  285SOL    HW2  855   2.320   1.312   2.869  3.5410 -1.7383  0.6032
  286SOL     OW  856   1.822   2.394   1.023  0.7518 -0.5547 -0.0267
  286SOL    HW1  857   1.782   2.447   1.103 -0.5874 -0.8782  0.6593
  286SOL    HW2  858   1.765   2.310   1.002  0.1150 -0.5740  0.9354
  287SOL     OW  859   1.122   0.365   0.704 -0.4918 -0.1950  0.7914
  287SOL    HW1  860   1.101   0.335   0.609 -0.3666 -0.7779  2.0583
  287SOL    HW2  861   1.211   0.416   0.707  1.7679  2.6370  2.1611
  288SOL     OW  862   1.186   2.389   2.672  0.0880 -0.0933  0.8936
  288SOL    HW1  863   1.123   2.369   2.747 -0.3292  0.6593 -2.6295
  288SOL    HW2  864   1.221   2.483   2.679  1.4082 -0.9421  0.9123
  289SOL     OW  865   0.232   1.433   1.234  0.2828  0.1224  0.0364
  289SOL    HW1  866   0.253   1.517   1.288  2.1687  0.0174 -2.8479
  289SOL    HW2  867   0.313   1.373   1.230 -0.7961  0.7286 -1.0060
  290SOL     OW  868   1.632   2.173   1.010 -0.0731  0.2171 -0.2208
  290SOL    HW1  869   1.573   2.183   1.092  0.1401 -0.4675  0.7658
  290SOL    HW2  870   1.663   2.080   0.989 -0.0114 -1.0239  1.0818
  291SOL     OW  871   1.805   2.836   0.011  0.3425 -0.2782 -0.1173
  291SOL    HW1  872   1.766   2.830   3.006 -3.2000 -0.4425  2.5487
  291SOL    HW2  873   1.759   2.912   0.065  3.6484 -0.2016 -0.5361
  292SOL     OW  874   0.750   0.254   1.681  0.2117 -0.2718 -0.0154
  292SOL    HW1  875   0.794   0.342   1.649 -1.0545 -0.5905 -0.5191
  292SOL    HW2  876   0.749   0.255   1.784  0.6795 -1.8020  0.7600
  293SOL     OW  877   2.482   2.426   1.065  0.0892  0.6386 -0.4554
  293SOL    HW1  878   2.497   2.512   1.119  1.1120 -1.3510 -0.4078
  293SOL    HW2  879   2.383   2.416   1.033  2.0214  2.4400 -0.5644
  294SOL     OW  880   0.603   0.646   2.366 -0.0357 -0.5542  0.6857
  294SOL    HW1  881   0.660   0.568   2.337 -0.9908  0.3195  3.1828
  294SOL    HW2  882   0.556   0.624   2.455  0.6632 -1.4427  0.1882
  295SOL     OW  883   1.401   1.673   1.197 -0.3519  0.0118 -0.3355
  295SOL    HW1  884   1.386   1.753   1.134  0.3500 -0.2507 -2.3071
  295SOL    HW2  885   1.488   1.625   1.171  1.6367 -0.8371  1.5786
  296SOL     OW  886   2.574   1.828   0.235  0.0912 -0.5361 -0.3109
  296SOL    HW1  887   2.629   1.841   0.149  1.6090  1.0765 -0.5994
  296SOL    HW2  888   2.494   1.892   0.229 -0.4752  0.3949  0.3689
  297SOL     OW  889   2.159   2.979   0.210  0.2959 -0.1735 -0.1249
  297SOL    HW1  890   2.239   3.012   0.161 -2.3618  0.3261 -2.5056
  297SOL    HW2  891   2.179   2.917   0.293  0.3800  0.0671  0.5689
  298SOL     OW  892   0.870   2.740   2.701  0.1804  0.2342  0.1709
  298SOL    HW1  893   0.916   2.686   2.627  0.2569  1.7585  2.7724
  298SOL    HW2  894   0.927   2.822   2.730 -1.0682 -3.1349 -1.2972
  299SOL     OW  895   0.992   2.029   2.240 -0.2857 -0.8470  0.1947
  299SOL    HW1  896   1.043   2.001   2.161 -1.7832 -0.0737 -0.0914
  299SOL    HW2  897   1.053   2.046   2.322 -1.7178  0.1206 -0.4143
  300SOL     OW  898   2.819   0.124   2.633 -0.5290  0.6988 -0.2325
  300SOL    HW1  899   2.840   0.027   2.652  2.1128 -0.6572  1.1959
  300SOL    HW2  900   2.728   0.140   2.589  0.4327 -1.6944 -0.9232
  301SOL     OW  901   0.852   1.052   1.987 -0.0358  0.4393 -0.6907
  301SOL    HW1  902   0.757   1.043   1.956  2.2500  1.7456  3.3561
  301SOL    HW2  903   0.911   0.980   1.942  1.2882 -3.5724 -1.7798
  302SOL     OW  904   2.962   2.296   0.470  0.2391 -0.3126 -0.7535
  302SOL    HW1  905   3.054   2.297   0.426 -1.7404  2.5317 -0.4454
  302SOL    HW2  906   2.924   2.202   0.488 -1.1981  2.1671  0.2329
  303SOL     OW  907   2.487   2.639   1.857 -0.4013  0.1584 -0.2492
  303SOL    HW1  908   2.491   2.548   1.809  0.3926 -0.3234 -1.5147
  303SOL    HW2  909   2.446   2.629   1.951 -0.0363  1.2167 -2.6721
  304SOL     OW  910   2.937   0.973   1.811  0.1247 -0.1265 -0.3710
  304SOL    HW1  911   2.949   0.933   1.908 -0.5534  2.9528  3.8133
  304SOL    HW2  912   3.024   0.969   1.758  1.8588  0.5230  1.4226
  305SOL     OW  913   0.836   1.305   1.263 -0.0021 -0.3214 -0.1304
  305SOL    HW1  914   0.882   1.394   1.244  1.2688  1.0760 -0.1175
  305SOL    HW2  915   0.783   1.264   1.185 -0.0018  0.6238 -1.2274
  306SOL     OW  916   0.310   1.335   1.951 -0.3380 -0.0400  0.5308
  306SOL    HW1  917   0.239   1.288   2.004 -0.3352 -2.6480 -2.4809
  306SOL    HW2  918   0.373   1.385   2.014  0.2349  1.1026  1.5938
  307SOL     OW  919   0.823   0.655   1.775 -0.0424  0.1357  0.2252
  307SOL    HW1  920   0.875   0.615   1.699 -3.4377  0.6070 -0.5945
  307SOL    HW2  921   0.852   0.748   1.796 -2.0493 -0.2081  0.8329
  308SOL     OW  922   2.911   1.154   1.313  0.5778 -0.2167 -0.1090
  308SOL    HW1  923   2.854   1.225   1.360 -1.8846  1.7276 -0.3887
  308SOL    HW2  924   2.845   1.094   1.266  0.9739  1.1272  2.0852
  309SOL     OW  925   2.696   1.383   1.101 -0.3197 -0.2114 -0.4546
  309SOL    HW1  926   2.683   1.346   1.199  0.6669 -0.5455 -1.7930
  309SOL    HW2  927   2.778   1.338   1.062 -2.8796  2.8898  3.6133
  310SOL     OW  928   3.029   2.143   2.679 -0.9074 -0.1153 -0.1671
  310SOL    HW1  929   2.983   2.113   2.764 -1.6425  0.9424 -3.9110
  310SOL    HW2  930   2.990   2.094   2.601  1.3388  1.7264  0.5023
  311SOL     OW  931   2.873   2.534   2.490  0.0420 -0.4561 -0.0032
  311SOL    HW1  932   2.942   2.577   2.427  1.9847  2.3626  0.5763
  311SOL    HW2  933   2.789   2.589   2.507 -1.2362 -2.2218  0.2538
  312SOL     OW  934   2.146   1.967   0.066 -0.5420  0.3182 -0.1081
  312SOL    HW1  935   2.067   2.010   0.105  2.6324  1.1300  0.1301
  312SOL    HW2  936   2.140   1.863   0.071  0.1163 -1.0324 -0.5432
  313SOL     OW  937   2.576   2.832   0.661 -0.2057  0.4988 -0.0356
  313SOL    HW1  938   2.651   2.892   0.694 -0.0041 -1.9457  0.9414
  313SOL    HW2  939   2.603   2.779   0.579 -0.8286  0.1063 -1.3190
  314SOL     OW  940   2.004   1.124   0.086 -0.2861  0.1590 -0.1220
  314SOL    HW1  941   1.961   1.160   0.169  1.3252  0.6268  0.0545
  314SOL    HW2  942   1.981   1.183   0.002  0.0863 -0.6556 -2.0067
  315SOL     OW  943   1.395   2.893   2.057  0.1791 -0.2050  0.5988
  315SOL    HW1  944   1.429   2.927   2.145 -2.4293 -0.2082 -1.3010
  315SOL    HW2  945   1.371   2.976   2.001 -1.6085  0.3206  1.4461
  316SOL     OW  946   2.832   0.762   2.950  0.1294  0.2125 -0.2701
  316SOL    HW1  947   2.886   0.825   3.006  0.5157 -2.8930 -0.2291
  316SOL    HW2  948   2.891   0.679   2.935 -2.1263  1.1618 -1.5445
  317SOL     OW  949   0.585   2.778   0.273  0.4408 -0.0441  0.2485
  317SOL    HW1  950   0.628   2.867   0.282 -1.4434 -0.1059  1.5906
  317SOL    HW2  951   0.614   2.741   0.183 -0.5895 -1.0180 -0.4161
  318SOL     OW  952   2.419   2.476   0.707  0.3663 -0.2381  0.1489
  318SOL    HW1  953   2.387   2.395   0.759  1.1404 -0.7161  0.9223
  318SOL    HW2  954   2.516   2.486   0.719 -2.9022  0.3173 -0.2998
  319SOL     OW  955   1.079   1.953   2.871  0.0385 -0.3279  0.1678
  319SOL    HW1  956   1.030   1.977   2.954 -2.1154 -1.7063 -0.3873
  319SOL    HW2  957   1.022   1.892   2.803 -0.6253 -0.5706 -0.7625
  320SOL     OW  958   0.465   2.075   1.756  0.2103 -0.3302  0.2832
  320SOL    HW1  959   0.453   1.982   1.791 -1.6249  3.6885  0.8168
  320SOL    HW2  960   0.425   2.086   1.663  1.7496 -1.6356 -0.2596
  321SOL     OW  961   1.474   2.763   2.530 -0.2857 -0.3676 -0.3567
  321SOL    HW1  962   1.402   2.727   2.469 -1.9482 -2.0981  1.2306
  321SOL    HW2  963   1.558   2.733   2.487 -1.7484 -2.2352  1.3075
  322SOL     OW  964   2.793   1.506   2.139 -0.3235  0.0603 -0.0083
  322SOL    HW1  965   2.826   1.586   2.190  1.1647 -1.9023 -1.2711
  322SOL    HW2  966   2.728   1.447   2.193 -1.3594 -1.5929 -1.8228
  323SOL     OW  967   2.420   0.815   0.982  0.8502 -0.0021  0.5259
  323SOL    HW1  968   2.450   0.892   0.917  1.3996  2.6989 -1.6983
  323SOL    HW2  969   2.460   0.831   1.078 -0.6834  0.5075  2.9505
  324SOL     OW  970   2.722   0.048   2.173 -0.1919  0.1809  0.4244
  324SOL    HW1  971   2.790   0.068   2.244  0.8109 -0.1331 -1.8546
  324SOL    HW2  972   2.627   0.094   2.196 -2.7247  1.5570  0.0911
  325SOL     OW  973   1.067   0.817   2.576 -0.6625 -0.3977 -0.7730
  325SOL    HW1  974   1.085   0.722   2.616  1.4909 -0.8676  2.1546
  325SOL    HW2  975   1.038   0.825   2.482  0.7236  1.0050  2.8729
  326SOL     OW  976   1.766   2.997   1.796  0.9991  0.0381  0.5103
  326SOL    HW1  977   1.703   3.069   1.828  1.8819 -1.4092 -0.2993
  326SOL    HW2  978   1.807   2.936   1.867  1.9635 -0.1783  2.6761
  327SOL     OW  979   2.207   0.253   3.034  0.2183  0.1430 -0.1952
  327SOL    HW1  980   2.211   0.181   0.017 -1.0294 -1.2586 -3.2766
  327SOL    HW2  981   2.232   0.225   2.941 -1.1708  0.2280  0.0118
  328SOL     OW  982   0.121   1.552   2.538 -0.0586 -0.3386 -0.1776
  328SOL    HW1  983   0.069   1.504   2.609  1.7778  2.1991  1.3177
  328SOL    HW2  984   0.107   1.653   2.543 -0.4157  0.0171  1.5910
  329SOL     OW  985   1.960   3.076   1.615 -0.2466 -0.4615  0.3445
  329SOL    HW1  986   1.884   3.053   1.677 -1.2869 -0.4870 -1.3026
  329SOL    HW2  987   1.999   2.997   1.561 -1.3997  0.1088  1.9702
  330SOL     OW  988   0.311   1.008   0.989 -0.0368  0.2153  0.2205
  330SOL    HW1  989   0.250   0.929   1.014  1.8650 -0.5503  1.1343
  330SOL    HW2  990   0.270   1.101   0.979  1.4926  0.5417  0.2081
  331SOL     OW  991   0.235   1.772   2.266 -0.4341  0.1903 -0.3276
  331SOL    HW1  992   0.231   1.669   2.259 -0.4716  0.4837 -1.5892
  331SOL    HW2  993   0.320   1.797   2.322  1.4285 -0.6638  1.0437
  332SOL     OW  994   0.059   2.767   1.487 -0.0487  0.3092  0.2661
  332SOL    HW1  995   0.055   2.809   1.576 -3.0364 -3.1182 -7.6049
  332SOL    HW2  996   0.020   2.830   1.414  0.6046 -0.2002  3.4111
  333SOL     OW  997   2.422   0.085   0.709 -0.1473  0.2969  0.7501
  333SOL    HW1  998   2.371   0.016   0.765  1.7806 -0.0996 -3.0922
  333SOL    HW2  999   2.392   0.179   0.739 -2.0022  2.4322  0.7069
  334SOL     OW 1000   0.591   2.054   0.650 -0.0845 -0.2856  0.0176
  334SOL    HW1 1001   0.690   2.068   0.674  3.8505 -0.2331  1.4958
  334SOL    HW2 1002   0.550   2.145   0.619  2.3324  0.1677 -3.1048
  335SOL     OW 1003   0.139   2.479   0.163  0.1425  0.5107 -0.1688
  335SOL    HW1 1004   0.116   2.404   0.229  0.1312 -1.8696 -0.0277
  335SOL    HW2 1005   0.125   2.455   0.065  2.3207  0.0251  3.9325
  336SOL     OW 1006   0.076   0.019   2.233  0.5379 -0.0347  0.6092
  336SOL    HW1 1007   0.081   0.097   2.167 -1.8691 -1.6356 -0.4735
  336SOL    HW2 1008   0.112   3.021   2.198 -3.0033  3.6050  4.9558
  337SOL     OW 1009   2.227   2.217   2.477 -0.1920  0.0617  0.3993
  337SOL    HW1 1010   2.269   2.218   2.572  0.4703 -2.6319 -0.2032
  337SOL    HW2 1011   2.245   2.129   2.436  0.6704  0.7219  0.6734
  338SOL     OW 1012   0.529   0.432   0.533  0.2135  0.7627 -0.2283
  338SOL    HW1 1013   0.563   0.510   0.476 -1.1017  0.9579  0.5630
  338SOL    HW2 1014   0.587   0.420   0.615 -0.1937  2.3595 -0.8150
  339SOL     OW 1015   0.172   0.677   2.097  0.5324 -0.5083 -0.1843
  339SOL    HW1 1016   0.166   0.663   2.198 -0.6180 -0.5000  2.1631
  339SOL    HW2 1017   0.129   0.766   2.083  0.6900 -2.0472  0.9896
  340SOL     OW 1018   1.692   3.029   0.253 -0.0222  0.1850 -0.3800
  340SOL    HW1 1019   1.780   3.065   0.221 -2.8102  0.2235  1.9677
  340SOL    HW2 1020   1.629   0.016   0.226  1.3134 -2.4922  0.2616
  341SOL     OW 1021   1.960   0.904   0.909 -0.0996  0.2137 -0.0053
  341SOL    HW1 1022   1.951   0.950   0.817  2.0226 -0.2936 -0.5414
  341SOL    HW2 1023   2.043   0.842   0.915 -1.7295 -0.5336  0.5827
  342SOL     OW 1024   2.420   2.794   0.018 -0.3498 -0.1542  0.3033
  342SOL    HW1 1025   2.393   2.892   0.006 -2.0150 -0.2724  2.2145
  342SOL    HW2 1026   2.439   2.741   3.017 -0.0851  0.0451  0.8946
  343SOL     OW 1027   1.502   2.060   1.663 -0.1642  0.4682  0.0194
  343SOL    HW1 1028   1.588   2.042   1.717  1.6901  0.6105 -0.1176
  343SOL    HW2 1029   1.430   1.985   1.666  1.3602 -0.1022 -0.2164
  344SOL     OW 1030   2.323   2.665   0.896 -0.0069 -0.2059 -0.0738
  344SOL    HW1 1031   2.278   2.615   0.973 -1.7417  2.4871 -0.0159
  344SOL    HW2 1032   2.375   2.598   0.840  0.7626  3.0995 -0.6145
  345SOL     OW 1033   2.855   2.303   0.218 -0.4511 -0.2722 -0.3778
  345SOL    HW1 1034   2.880   2.341   0.312 -0.0320  1.3080  0.6295
  345SOL    HW2 1035   2.896   2.214   0.201  1.8386  1.2283 -1.2088
  346SOL     OW 1036   2.720   1.737   0.814 -0.8018 -0.8043  0.0491
  346SOL    HW1 1037   2.668   1.823   0.797  0.4098  3.3823  0.6996
  346SOL    HW2 1038   2.808   1.771   0.854 -4.6847 -1.2176 -1.5890
  347SOL     OW 1039   1.726   2.074   1.833  0.2316 -0.0579  0.0083
  347SOL    HW1 1040   1.671   2.153   1.871  2.4826  1.5977  0.6015
  347SOL    HW2 1041   1.704   1.982   1.870  0.3056 -0.8174 -0.7967
  348SOL     OW 1042   0.542   1.620   2.579 -0.0091 -0.4694  0.4417
  348SOL    HW1 1043   0.643   1.604   2.564  0.9107  1.3887 -2.1242
  348SOL    HW2 1044   0.524   1.628   2.677 -2.4597  0.4175 -3.0421
  349SOL     OW 1045   2.468   1.232   1.038 -0.1698  0.5509 -0.2174
  349SOL    HW1 1046   2.387   1.287   1.021  1.1980 -0.0943  1.4573
  349SOL    HW2 1047   2.549   1.290   1.061 -2.3184  0.3168  0.7801
  350SOL     OW 1048   2.906   2.376   1.267 -0.2272  0.6178  0.3148
  350SOL    HW1 1049   2.975   2.407   1.336 -1.4293  0.6084 -1.1690
  350SOL    HW2 1050   2.887   2.276   1.283 -0.7834 -2.9975 -0.1411
  351SOL     OW 1051   0.453   3.070   2.208  0.7683 -0.3342 -0.6365
  351SOL    HW1 1052   0.429   0.078   2.240 -0.1097  0.0698 -3.0775
  351SOL    HW2 1053   0.516   3.025   2.278  3.1727 -2.5687 -2.3251
  352SOL     OW 1054   0.959   1.619   0.880 -0.2932 -0.5669 -0.1245
  352SOL    HW1 1055   0.967   1.520   0.914  0.8304  2.6359  1.8771
  352SOL    HW2 1056   0.966   1.616   0.781 -0.2764 -1.1769  3.2870
  353SOL     OW 1057   1.363   1.418   2.342 -0.1482  0.1055  0.0431
  353SOL    HW1 1058   1.370   1.511   2.384 -0.0805  3.1496 -2.8739
  353SOL    HW2 1059   1.291   1.362   2.388  0.0245 -2.3801 -3.2843
  354SOL     OW 1060   1.412   0.094   0.799 -0.6089  0.3945  0.9369
  354SOL    HW1 1061   1.402   3.085   0.838  0.1497 -0.2547  1.8809
  354SOL    HW2 1062   1.362   0.159   0.860 -1.1850 -2.6630 -0.2303
  355SOL     OW 1063   2.790   1.314   0.632 -0.1278 -0.3863  0.3805
  355SOL    HW1 1064   2.702   1.258   0.629 -3.1991  1.1294  0.0486
  355SOL    HW2 1065   2.770   1.419   0.638 -1.5788  1.3894 -0.8793
  356SOL     OW 1066   2.398   1.726   2.212  0.1118  0.4575  0.1535
  356SOL    HW1 1067   2.372   1.801   2.279 -1.8030  0.4372  0.0829
  356SOL    HW2 1068   2.455   1.766   2.136 -1.9772  1.6449  1.7112
  357SOL     OW 1069   0.482   2.611   1.612 -0.0433 -0.3477 -0.1189
  357SOL    HW1 1070   0.436   2.658   1.533 -1.0943  0.0756 -0.6430
  357SOL    HW2 1071   0.564   2.665   1.633 -2.2397  2.6986  1.4830
  358SOL     OW 1072   2.359   0.713   1.436  0.3085 -0.3655 -0.5482
  358SOL    HW1 1073   2.410   0.633   1.475 -0.1511 -0.9329 -0.0420
  358SOL    HW2 1074   2.376   0.796   1.500  1.9939  1.7662 -0.7324
  359SOL     OW 1075   2.126   2.510   2.658  0.0775 -0.6526 -0.2472
  359SOL    HW1 1076   2.087   2.572   2.588 -0.0409 -1.3460  1.4625
  359SOL    HW2 1077   2.134   2.565   2.744  0.9379  0.2522  3.8441
  360SOL     OW 1078   0.952   0.401   0.925  0.1824  0.3964 -0.5175
  360SOL    HW1 1079   0.980   0.493   0.961 -0.4119  2.9811  1.5446
  360SOL    HW2 1080   1.007   0.376   0.842  1.7777  0.4473 -1.2072
  361SOL     OW 1081   1.877   2.968   1.233  0.7382  0.0442 -0.0159
  361SOL    HW1 1082   1.850   3.049   1.181  0.7262 -2.1957  0.4067
  361SOL    HW2 1083   1.935   2.911   1.173  1.4212 -0.2760  1.2704
  362SOL     OW 1084   1.252   1.167   0.573  0.7055 -0.1059 -0.1055
  362SOL    HW1 1085   1.344   1.207   0.581 -1.3281 -2.4516 -0.3621
  362SOL    HW2 1086   1.224   1.093   0.640 -1.6185 -2.0031  2.6740
  363SOL     OW 1087   2.096   1.596   2.513  0.0044 -0.3274  0.4108
  363SOL    HW1 1088   2.142   1.629   2.599 -0.5600 -0.1290  0.9516
  363SOL    HW2 1089   2.131   1.506   2.485 -2.2307  2.1059  1.8642
  364SOL     OW 1090   0.450   0.256   1.153  0.2735  0.1714  0.3077
  364SOL    HW1 1091   0.463   0.304   1.065  3.8623 -2.2976 -1.2985
  364SOL    HW2 1092   0.395   0.316   1.219 -1.9571  2.1913  0.6269
  365SOL     OW 1093   0.144   2.698   0.321  0.3533  0.2077  0.3562
  365SOL    HW1 1094   0.123   2.614   0.265 -0.8545 -1.7733  1.2023
  365SOL    HW2 1095   0.063   2.733   0.376 -0.2287  0.9205  0.3961
  366SOL     OW 1096   2.358   2.028   2.992 -0.0223 -0.1433  0.2953
  366SOL    HW1 1097   2.288   1.993   3.058  2.1828 -2.4798 -0.4470
  366SOL    HW2 1098   2.379   2.129   3.007  0.7750  3.4257  2.6149
  367SOL     OW 1099   2.548   2.311   2.744  0.0060  0.1110 -0.0226
  367SOL    HW1 1100   2.631   2.267   2.773 -1.7010  0.0135 -2.0016
  367SOL    HW2 1101   2.478   2.308   2.818  3.1869 -0.0383 -0.4658
  368SOL     OW 1102   0.271   1.689   1.017  0.5069  0.1265  0.5020
  368SOL    HW1 1103   0.329   1.690   1.101 -1.2181  0.7144  1.7213
  368SOL    HW2 1104   0.244   1.787   0.987 -0.1102 -1.6729  1.4444
  369SOL     OW 1105   0.817   2.580   2.933  0.4931  0.2131 -0.6434
  369SOL    HW1 1106   0.825   2.645   2.854 -0.2913 -1.7709 -1.6598
  369SOL    HW2 1107   0.902   2.576   2.991 -0.3858 -3.0087 -0.3587
  370SOL     OW 1108   0.146   0.797   0.584 -0.7048 -0.3388  0.0352
  370SOL    HW1 1109   0.085   0.880   0.579  0.5723  0.5021  3.0375
  370SOL    HW2 1110   0.147   0.756   0.676 -0.7422  0.9333 -0.2662
  371SOL     OW 1111   1.989   2.560   0.885 -0.5132  0.3959  0.2384
  371SOL    HW1 1112   1.977   2.597   0.790  1.1077  0.9181 -0.7177
  371SOL    HW2 1113   1.901   2.522   0.925  1.5248  2.3103  0.0234
  372SOL     OW 1114   0.165   1.008   2.663  0.3035  0.4999  0.0765
  372SOL    HW1 1115   0.218   1.092   2.644 -0.4760 -1.7106 -1.8649
  372SOL    HW2 1116   0.217   0.944   2.719  2.1959 -1.0526  0.3485
  373SOL     OW 1117   3.009   1.984   0.725  0.2041 -0.2475 -0.0422
  373SOL    HW1 1118   2.973   1.924   0.800 -3.5583  1.9290  2.0069
  373SOL    HW2 1119   0.024   1.965   0.717  0.9207 -2.1869  0.6856
  374SOL     OW 1120   0.114   2.284   0.343  0.1173  0.1108  0.0969
  374SOL    HW1 1121   0.170   2.203   0.318 -0.0584  1.3494  0.0423
  374SOL    HW2 1122   0.160   2.329   0.424  0.7121  1.9926  1.3457
  375SOL     OW 1123   0.478   0.551   0.187 -0.2015  0.5393 -0.1602
  375SOL    HW1 1124   0.518   0.607   0.260 -0.7369  1.9363 -0.1076
  375SOL    HW2 1125   0.486   0.453   0.214 -1.4220  0.0747 -1.2542
  376SOL     OW 1126   0.432   2.280   2.013  0.5403 -0.1849  0.4817
  376SOL    HW1 1127   0.515   2.226   1.980 -1.1303 -3.1201  0.0096
  376SOL    HW2 1128   0.430   2.375   1.977  1.9753  0.2184 -1.5513
  377SOL     OW 1129   1.785   2.485   2.887 -0.2746  0.5786 -0.4203
  377SOL    HW1 1130   1.704   2.474   2.947 -2.4827  2.6485  0.4492
  377SOL    HW2 1131   1.769   2.437   2.800  2.6741  0.6517  0.9323
  378SOL     OW 1132   0.828   0.833   0.359  0.1202  0.2423  0.2002
  378SOL    HW1 1133   0.893   0.797   0.288  0.4760 -0.1347 -1.2532
  378SOL    HW2 1134   0.853   0.804   0.453  1.4454  1.8136  0.1237
  379SOL     OW 1135   0.767   1.709   0.575 -0.3271  0.0784 -0.2482
  379SOL    HW1 1136   0.687   1.688   0.634 -0.6982  1.3855  0.8782
  379SOL    HW2 1137   0.851   1.660   0.609 -3.2497 -0.9556  0.5184
  380SOL     OW 1138   0.305   1.943   1.341  0.0167  0.5619  0.1513
  380SOL    HW1 1139   0.239   1.972   1.268 -1.0725 -0.7928  0.4817
  380SOL    HW2 1140   0.277   1.977   1.438 -1.4645 -0.6711  0.6840
  381SOL     OW 1141   0.414   1.106   1.704 -0.5117  0.3973 -0.0650
  381SOL    HW1 1142   0.456   1.196   1.722 -0.9623 -0.3526  1.6420
  381SOL    HW2 1143   0.374   1.060   1.784  0.4342  1.4114 -1.7266
  382SOL     OW 1144   2.306   1.976   0.498  0.0075  0.3536  0.0643
  382SOL    HW1 1145   2.350   2.057   0.541 -0.7816 -0.8348 -0.7167
  382SOL    HW2 1146   2.320   1.983   0.395  2.3567 -2.0454 -0.3543
  383SOL     OW 1147   2.730   1.962   2.282 -0.3426  0.0882  0.2203
  383SOL    HW1 1148   2.725   2.047   2.225 -0.6930  0.5613 -0.2570
  383SOL    HW2 1149   2.644   1.950   2.332 -0.8307 -0.4556  3.3032
  384SOL     OW 1150   0.036   2.138   2.215 -0.6891 -0.3150 -0.3501
  384SOL    HW1 1151   0.138   2.150   2.222  1.6179  1.3526 -0.0287
  384SOL    HW2 1152   0.023   2.042   2.179 -0.3626  0.0701 -2.2342
  385SOL     OW 1153   2.805   2.130   0.888  0.1691 -1.1535  0.5694
  385SOL    HW1 1154   2.895   2.118   0.840  0.0243 -1.2197  0.6506
  385SOL    HW2 1155   2.739   2.065   0.855  0.7146  0.7527 -1.4289
  386SOL     OW 1156   1.712   0.801   0.887  0.6801 -0.0465 -0.5455
  386SOL    HW1 1157   1.796   0.855   0.899 -3.2922 -2.1372  0.2437
  386SOL    HW2 1158   1.694   0.767   0.792  0.8942 -1.6560  0.6814
  387SOL     OW 1159   0.380   0.581   1.960 -0.0229  0.2662  0.3060
  387SOL    HW1 1160   0.311   0.606   2.027  1.6580  0.3149 -2.0500
  387SOL    HW2 1161   0.439   0.659   1.933  1.1010  1.3179 -1.0279
  388SOL     OW 1162   2.269   0.931   2.444 -0.1026  0.5388 -0.1370
  388SOL    HW1 1163   2.302   1.019   2.487  0.4953 -0.3033  0.2996
  388SOL    HW2 1164   2.190   0.948   2.381 -0.7756  1.5794  3.0772
  389SOL     OW 1165   1.927   1.219   1.892 -0.4148 -0.1040  0.6239
  389SOL    HW1 1166   1.984   1.275   1.826  0.0598  0.9243 -1.4842
  389SOL    HW2 1167   1.997   1.176   1.956  3.2564 -1.1050  0.7881
  390SOL     OW 1168   1.935   2.417   0.339 -0.3171  0.0989 -0.0621
  390SOL    HW1 1169   1.887   2.486   0.281 -1.2679 -1.5412 -1.4431
  390SOL    HW2 1170   1.866   2.343   0.362 -1.0794  1.5908 -1.1481
  391SOL     OW 1171   2.101   2.219   1.195  0.0308  0.0453  0.6956
  391SOL    HW1 1172   2.084   2.129   1.142 -0.6306  0.5696 -2.1936
  391SOL    HW2 1173   2.188   2.216   1.243 -0.8555  0.3017  1.3293
  392SOL     OW 1174   2.914   2.708   1.178  0.1601 -0.0025  0.1934
  392SOL    HW1 1175   2.808   2.720   1.178 -1.7624 -0.4072 -1.4265
  392SOL    HW2 1176   2.926   2.607   1.177 -0.4643 -0.6582  1.8740
  393SOL     OW 1177   2.118   1.704   0.029  0.2709  0.2996 -0.4102
  393SOL    HW1 1178   2.040   1.648   0.069 -0.3463 -3.5670 -0.8381
  393SOL    HW2 1179   2.096   1.739   3.021  0.4966 -1.1214  0.2162
  394SOL     OW 1180   3.026   0.255   2.791  0.0480  0.7521  0.1390
  394SOL    HW1 1181   3.050   0.277   2.892 -0.6787  0.9461 -0.9383
  394SOL    HW2 1182   2.929   0.217   2.781 -2.0297 -1.6691 -1.6676
  395SOL     OW 1183   0.990   0.969   0.963 -0.3350 -0.3696  0.4921
  395SOL    HW1 1184   0.944   1.038   1.017 -0.2659  0.8959 -2.2934
  395SOL    HW2 1185   0.921   0.925   0.901 -4.6715 -2.3051  2.0276
  396SOL     OW 1186   1.289   0.740   2.853 -0.3693  0.4175 -0.2629
  396SOL    HW1 1187   1.242   0.680   2.787  0.4358 -0.2782  3.0654
  396SOL    HW2 1188   1.381   0.703   2.872  0.2332  1.5481 -0.1288
  397SOL     OW 1189   0.174   0.480   2.561  0.2164 -0.0126 -0.4543
  397SOL    HW1 1190   0.155   0.541   2.482 -0.3519 -2.0485  1.0034
  397SOL    HW2 1191   0.136   0.388   2.546  0.7971  3.6267 -3.1299
  398SOL     OW 1192   0.736   3.031   0.233 -0.0581  0.4676  0.0507
  398SOL    HW1 1193   0.702   0.038   0.216 -1.9868 -0.9682  0.9093
  398SOL    HW2 1194   0.795   2.992   0.156  2.1973  0.7021  0.8838
  399SOL     OW 1195   2.234   2.947   1.757  0.0133 -0.9618  0.2034
  399SOL    HW1 1196   2.326   2.929   1.722 -0.4092 -0.5851 -1.0973
  399SOL    HW2 1197   2.194   3.027   1.708  0.4171  0.3958 -0.4181
  400SOL     OW 1198   0.470   1.798   2.391 -0.4203  0.2522 -0.7959
  400SOL    HW1 1199   0.488   1.725   2.459  0.5829 -0.2146  1.0401
  400SOL    HW2 1200   0.537   1.794   2.314  0.6830 -1.3275 -1.2607
  401SOL     OW 1201   0.951   0.314   2.612  0.4745 -0.4346  0.5081
  401SOL    HW1 1202   0.970   0.256   2.697 -1.8598 -3.1614 -1.3760
  401SOL    HW2 1203   0.928   0.412   2.627  1.9821  1.2329  0.4844
  402SOL     OW 1204   2.960   2.286   1.763 -0.4987  0.1918  0.2610
  402SOL    HW1 1205   2.922   2.206   1.817  0.3909 -0.3203 -1.0717
  402SOL    HW2 1206   2.919   2.378   1.795 -1.8342  0.4860  0.2515
  403SOL     OW 1207   0.567   1.103   2.027 -0.8639  0.5002  0.0395
  403SOL    HW1 1208   0.560   1.092   2.129 -0.0752  0.3077 -0.5339
  403SOL    HW2 1209   0.494   1.051   1.984 -0.5620 -1.1111  1.5958
  404SOL     OW 1210   3.083   2.489   1.480  0.3090  0.0729 -0.3558
  404SOL    HW1 1211   0.029   2.588   1.468  1.4266  1.2695  1.3391
  404SOL    HW2 1212   2.986   2.484   1.508  1.4704  0.8817 -1.2214
  405SOL     OW 1213   0.297   0.401   1.768 -0.4062 -0.7826 -0.6503
  405SOL    HW1 1214   0.329   0.464   1.841 -0.0077  1.2637  0.8124
  405SOL    HW2 1215   0.377   0.346   1.735  1.3549  0.9838 -0.2384
  406SOL     OW 1216   1.847   2.176   3.039 -0.6909 -0.4957 -0.8040
  406SOL    HW1 1217   1.896   2.162   0.043 -1.3081  2.3159  1.4029
  406SOL    HW2 1218   1.903   2.221   2.963  2.4272 -0.9812 -1.6778
  407SOL     OW 1219   1.685   1.137   1.838 -0.0356  0.2373  0.3391
  407SOL    HW1 1220   1.629   1.223   1.849  1.3273  1.8493 -0.5939
  407SOL    HW2 1221   1.778   1.152   1.875 -1.4332 -2.0278  0.9139
  408SOL     OW 1222   0.678   0.154   2.813  0.3237 -0.3712  0.1221
  408SOL    HW1 1223   0.658   0.060   2.779  0.0240 -0.1958 -1.0555
  408SOL    HW2 1224   0.778   0.165   2.826 -2.1242  0.8443 -0.3980
  409SOL     OW 1225   0.060   1.931   0.420 -0.3593 -0.1564  0.6000
  409SOL    HW1 1226   3.049   1.968   0.432 -0.9579 -2.6452  0.1160
  409SOL    HW2 1227   0.122   1.964   0.497  3.4052 -1.5542  2.8605
  410SOL     OW 1228   2.574   1.558   0.346 -0.0811 -0.6361 -0.4709
  410SOL    HW1 1229   2.572   1.659   0.317  1.9876  2.9082 -0.1262
  410SOL    HW2 1230   2.619   1.505   0.266  0.0475 -0.5766  1.3167
  411SOL     OW 1231   0.063   0.306   1.154 -0.1743 -0.0385  0.1093
  411SOL    HW1 1232   0.146   0.343   1.207 -1.0263  0.4352  0.5189
  411SOL    HW2 1233   0.040   0.213   1.189  1.2042 -0.0806 -0.6570
  412SOL     OW 1234   1.472   0.771   1.020  0.2794  0.1681 -0.0627
  412SOL    HW1 1235   1.398   0.843   1.018  2.0327  1.8540 -1.0897
  412SOL    HW2 1236   1.541   0.782   0.945 -0.2399 -0.2528 -1.4494
  413SOL     OW 1237   0.747   2.946   1.296  0.2490  0.2075  0.0705
  413SOL    HW1 1238   0.840   2.932   1.267 -0.3388  0.6483  1.7456
  413SOL    HW2 1239   0.700   3.030   1.254 -2.0754  0.1724 -2.2007
  414SOL     OW 1240   2.948   1.750   2.836  0.0629 -0.1908 -0.0727
  414SOL    HW1 1241   2.898   1.795   2.757  1.7052 -0.9880  0.0341
  414SOL    HW2 1242   2.999   1.817   2.897  0.4034  1.1030 -0.8609
  415SOL     OW 1243   0.395   2.399   2.873  0.3190 -0.4799  0.1259
  415SOL    HW1 1244   0.338   2.364   2.947  2.5729 -0.1335 -1.1091
  415SOL    HW2 1245   0.343   2.407   2.782 -1.7589  2.6496 -3.3596
  416SOL     OW 1246   1.402   0.579   0.457 -0.4878  0.2419  0.6288
  416SOL    HW1 1247   1.486   0.619   0.417 -0.6612 -1.8158  1.3125
  416SOL    HW2 1248   1.407   0.556   0.556 -0.3758 -0.3648 -0.3556
  417SOL     OW 1249   0.195   1.089   0.387 -0.1799 -1.2289  0.7668
  417SOL    HW1 1250   0.257   1.009   0.368 -1.4404 -1.3280 -1.0593
  417SOL    HW2 1251   0.178   1.108   0.486 -1.2192  1.8329 -0.8097
  418SOL     OW 1252   2.599   1.367   2.275  0.0544  0.3834 -0.5964
  418SOL    HW1 1253   2.503   1.394   2.257 -0.3975  1.0986  1.6099
  418SOL    HW2 1254   2.595   1.301   2.354  0.2212  0.4615  0.4282
  419SOL     OW 1255   0.253   0.496   2.822  0.6264  0.0195  0.0741
  419SOL    HW1 1256   0.192   0.448   2.887 -0.7819  1.5558  1.2560
  419SOL    HW2 1257   0.220   0.479   2.729 -1.2881  2.5327  0.3708
  420SOL     OW 1258   0.620   1.428   0.908  0.1457  0.6150  0.3463
  420SOL    HW1 1259   0.516   1.422   0.902 -1.6606  2.8295 -0.4774
  420SOL    HW2 1260   0.662   1.349   0.865 -2.3304 -0.9213 -0.7903
  421SOL     OW 1261   0.650   2.341   0.887 -0.0170 -0.3936 -0.1700
  421SOL    HW1 1262   0.698   2.267   0.939 -0.2981  1.3359  0.7830
  421SOL    HW2 1263   0.683   2.347   0.786 -0.7609  1.5807 -0.5620
  422SOL     OW 1264   0.104   0.952   1.674  0.6348 -0.2625  0.1664
  422SOL    HW1 1265   0.080   0.996   1.586  2.5008 -1.8783  0.3834
  422SOL    HW2 1266   0.191   0.902   1.671 -1.5875 -0.5927 -2.1068
  423SOL     OW 1267   1.262   1.456   1.338 -0.1064 -0.0502 -0.0373
  423SOL    HW1 1268   1.275   1.471   1.436 -1.9813  0.1675 -1.1113
  423SOL    HW2 1269   1.305   1.533   1.275  2.9472 -0.0254 -1.6984
  424SOL     OW 1270   2.034   0.934   2.945 -0.0451 -0.1547 -0.2035
  424SOL    HW1 1271   2.069   0.920   3.040  2.5289 -0.6024  0.7067
  424SOL    HW2 1272   2.028   1.034   2.928  0.8180 -1.0490 -0.2286
  425SOL     OW 1273   2.989   0.578   1.941 -0.7132  0.4724  0.0624
  425SOL    HW1 1274   0.009   0.592   1.931  1.3750  2.6276 -0.0961
  425SOL    HW2 1275   2.954   0.556   1.846 -2.0974 -0.6721  0.8601
  426SOL     OW 1276   2.670   2.682   2.587  0.0467 -0.3619  0.0592
  426SOL    HW1 1277   2.600   2.613   2.607 -1.1908 -1.0503 -0.5092
  426SOL    HW2 1278   2.635   2.759   2.531  5.6867  4.5607 -2.8262
  427SOL     OW 1279   1.021   0.868   2.294 -0.2346  0.1926 -0.0213
  427SOL    HW1 1280   1.108   0.919   2.273  1.7884  0.1163  0.3830
  427SOL    HW2 1281   0.950   0.944   2.296  1.5260  0.6236  2.8296
  428SOL     OW 1282   2.094   1.012   2.010 -0.5547  0.1398  0.3953
  428SOL    HW1 1283   2.183   0.963   2.008 -0.3985  1.0286  0.7677
  428SOL    HW2 1284   2.021   0.960   1.958 -2.5651 -0.8723  2.1084
  429SOL     OW 1285   3.019   2.775   0.484 -0.0695  0.2697  0.1830
  429SOL    HW1 1286   3.058   2.805   0.575  2.2544 -3.4902 -0.7457
  429SOL    HW2 1287   2.962   2.848   0.442 -1.1827 -0.6442 -1.5466
  430SOL     OW 1288   1.964   1.453   2.284 -0.4288 -0.0024 -0.4336
  430SOL    HW1 1289   2.047   1.429   2.332 -1.5492 -1.0729 -0.3065
  430SOL    HW2 1290   1.930   1.382   2.226  2.6205 -0.4864  2.8385
  431SOL     OW 1291   0.337   1.667   1.329 -0.3914  0.2838 -0.1817
  431SOL    HW1 1292   0.313   1.764   1.302 -1.0665  0.0462  1.4361
  431SOL    HW2 1293   0.436   1.646   1.348 -0.2193  0.3781 -0.4898
  432SOL     OW 1294   1.704   0.187   2.120 -0.3409  0.2360 -0.0355
  432SOL    HW1 1295   1.692   0.115   2.197  0.4120 -2.3207 -0.0472
  432SOL    HW2 1296   1.670   0.279   2.148  1.9022  0.9700 -1.4282
  433SOL     OW 1297   1.361   0.001   1.884 -0.0041  0.5930  0.1318
  433SOL    HW1 1298   1.335   3.035   1.800  3.4673 -0.1348  1.9092
  433SOL    HW2 1299   1.444   0.054   1.856  2.5868 -0.3890  0.6963
  434SOL     OW 1300   0.334   2.656   2.244  0.1138  0.5103 -0.2757
  434SOL    HW1 1301   0.391   2.691   2.321 -1.2181  1.0132  0.7370
  434SOL    HW2 1302   0.278   2.573   2.264  1.9297  0.7273  0.0070
  435SOL     OW 1303   0.306   2.103   0.358 -0.0403  0.4130 -0.3846
  435SOL    HW1 1304   0.358   2.179   0.318  1.7337 -0.9747  0.1870
  435SOL    HW2 1305   0.361   2.037   0.412  0.1263 -1.6673  0.1387
  436SOL     OW 1306   0.582   0.763   1.908 -0.0106  0.5461  0.3762
  436SOL    HW1 1307   0.655   0.692   1.886  1.5821  1.4960 -0.0741
  436SOL    HW2 1308   0.602   0.852   1.854  2.3232  1.7090 -3.2192
  437SOL     OW 1309   0.505   2.755   2.439  0.1848  0.1789 -0.1123
  437SOL    HW1 1310   0.559   2.832   2.405 -2.1847 -1.6107  0.0857
  437SOL    HW2 1311   0.550   2.707   2.512 -1.5979 -0.6096  1.7930
  438SOL     OW 1312   0.805   1.596   1.513 -0.5357  0.1588 -0.5119
  438SOL    HW1 1313   0.783   1.651   1.594 -2.3592 -1.1261 -1.5567
  438SOL    HW2 1314   0.836   1.503   1.538 -1.4753 -0.1713 -0.8269
  439SOL     OW 1315   2.161   0.689   2.830 -0.5111  0.5216 -0.2066
  439SOL    HW1 1316   2.099   0.767   2.846 -2.6538  1.0965  1.5118
  439SOL    HW2 1317   2.171   0.631   2.911 -1.9130 -0.0495  1.7532
  440SOL     OW 1318   0.768   0.268   0.294 -0.2021  0.2222  0.2836
  440SOL    HW1 1319   0.666   0.278   0.273 -0.9021 -2.9307  0.2367
  440SOL    HW2 1320   0.811   0.356   0.305 -1.0085 -1.2377  2.8752
  441SOL     OW 1321   0.952   2.277   1.492  0.1999 -0.2704 -0.1540
  441SOL    HW1 1322   0.921   2.370   1.469 -0.4838 -0.4496  2.6634
  441SOL    HW2 1323   0.864   2.226   1.485 -1.5683 -3.9051  0.3842
  442SOL     OW 1324   3.027   1.576   0.667  0.0851  0.1969 -0.2650
  442SOL    HW1 1325   2.926   1.579   0.645 -1.2962 -1.0105  0.2430
  442SOL    HW2 1326   3.045   1.552   0.769 -1.4682  1.1641  0.4736
  443SOL     OW 1327   2.591   1.988   2.657 -0.2104  0.1014 -0.1430
  443SOL    HW1 1328   2.565   2.016   2.558 -0.4840 -0.4652  1.0574
  443SOL    HW2 1329   2.554   1.894   2.687  0.7009  0.6854 -1.8427
  444SOL     OW 1330   1.613   1.018   2.853  0.2836 -0.0104  0.8106
  444SOL    HW1 1331   1.670   1.087   2.803 -0.2599  1.3892  0.6703
  444SOL    HW2 1332   1.595   0.948   2.779 -1.1173 -0.4178 -2.5265
  445SOL     OW 1333   2.712   2.757   1.871  0.4243  0.0447 -0.2060
  445SOL    HW1 1334   2.748   2.820   1.795  0.8075  2.3736 -2.5968
  445SOL    HW2 1335   2.619   2.717   1.844 -2.0561 -0.2670 -3.7442
  446SOL     OW 1336   3.081   1.098   0.872 -0.0628  0.2800 -0.0165
  446SOL    HW1 1337   0.074   1.145   0.917  1.1079  2.7803 -1.2245
  446SOL    HW2 1338   2.997   1.162   0.876  0.2645  0.0490  1.3022
  447SOL     OW 1339   1.051   1.939   1.251 -1.1447  0.0097  0.7133
  447SOL    HW1 1340   1.032   1.869   1.324  2.2232  0.6909 -2.4806
  447SOL    HW2 1341   1.018   1.905   1.160  1.4095 -2.6556  1.8284
  448SOL     OW 1342   1.247   1.399   1.647  0.3927 -0.0966 -0.3062
  448SOL    HW1 1343   1.325   1.342   1.647 -3.8749  1.3380  0.8008
  448SOL    HW2 1344   1.173   1.358   1.705 -0.3964  0.2817  1.5335
  449SOL     OW 1345   2.716   2.303   2.374 -0.0185  0.1398 -0.2145
  449SOL    HW1 1346   2.765   2.365   2.437 -0.7705  0.8334  1.2303
  449SOL    HW2 1347   2.778   2.250   2.314  0.6717  2.5799  0.0051
  450SOL     OW 1348   0.017   1.749   1.906  0.3150  0.5722 -0.0352
  450SOL    HW1 1349   3.001   1.743   1.886 -4.1513 -0.7642  2.4576
  450SOL    HW2 1350   0.051   1.662   1.956  0.9893 -3.3337  0.2463
  451SOL     OW 1351   2.214   0.595   1.242  0.1607  0.0407  0.7410
  451SOL    HW1 1352   2.280   0.631   1.313  3.2889 -1.6325 -0.2651
  451SOL    HW2 1353   2.152   0.669   1.213  0.7235 -0.5401  1.8277
  452SOL     OW 1354   0.650   1.170   0.781 -0.0793 -0.0248  0.0885
  452SOL    HW1 1355   0.563   1.146   0.728 -2.8197 -1.5756 -1.3578
  452SOL    HW2 1356   0.731   1.132   0.727 -1.3840  0.1968 -2.6953
  453SOL     OW 1357   1.637   2.017   0.683 -0.2900  0.1646  0.0342
  453SOL    HW1 1358   1.657   1.981   0.776 -0.4877 -0.2279  2.6765
  453SOL    HW2 1359   1.684   2.105   0.678 -0.1960  1.1499 -1.0430
  454SOL     OW 1360   0.444   1.853   0.238 -0.0681  0.0796  0.4040
  454SOL    HW1 1361   0.449   1.750   0.232  1.0412 -0.9477  3.2243
  454SOL    HW2 1362   0.425   1.874   0.334 -1.3257  0.9352  1.0262
  455SOL     OW 1363   1.189   1.045   0.334 -0.9585 -0.2858 -0.5913
  455SOL    HW1 1364   1.088   1.041   0.318  0.1306 -0.2135 -0.6444
  455SOL    HW2 1365   1.207   1.087   0.422  1.7851 -0.0611 -2.4137
  456SOL     OW 1366   2.219   2.424   1.007 -0.1801 -0.4220 -0.3203
  456SOL    HW1 1367   2.173   2.363   1.075  0.2395  2.2502  1.0588
  456SOL    HW2 1368   2.155   2.447   0.931 -1.4047  1.1674  1.2089
  457SOL     OW 1369   1.716   3.059   2.856 -0.5107 -0.6483  0.5215
  457SOL    HW1 1370   1.794   0.012   2.908  0.1232  2.4663  0.1970
  457SOL    HW2 1371   1.728   2.960   2.840 -2.0495  2.1312  2.0943
  458SOL     OW 1372   2.757   1.017   0.451 -0.1651 -0.5615 -0.0322
  458SOL    HW1 1373   2.699   0.984   0.371  1.1326 -1.1016  0.3275
  458SOL    HW2 1374   2.704   1.021   0.540 -0.1131  1.2324 -0.0262
  459SOL     OW 1375   2.567   0.381   2.453 -0.5132  0.5407  0.3811
  459SOL    HW1 1376   2.626   0.458   2.486  0.0626  0.6194  2.0439
  459SOL    HW2 1377   2.534   0.396   2.357  0.5529 -0.9329 -1.5224
  460SOL     OW 1378   2.601   0.835   2.589 -0.0440  0.2381  0.7468
  460SOL    HW1 1379   2.531   0.817   2.660  0.0362 -0.2651  3.1854
  460SOL    HW2 1380   2.665   0.905   2.620 -1.0486 -1.7221 -0.5285
  461SOL     OW 1381   2.860   2.415   0.954 -0.3735 -0.6288 -0.1812
  461SOL    HW1 1382   2.885   2.433   1.051  3.2525 -2.0294  1.3405
  461SOL    HW2 1383   2.843   2.316   0.941 -1.8034 -1.5713 -1.4118
  462SOL     OW 1384   0.033   2.896   1.719 -0.0273 -0.6967 -0.8852
  462SOL    HW1 1385   0.073   2.990   1.733 -0.1744  0.1366 -0.1541
  462SOL    HW2 1386   0.064   2.826   1.788 -1.9547 -2.6229 -0.4611
  463SOL     OW 1387   2.063   1.842   2.399 -0.3260 -0.0515  0.4569
  463SOL    HW1 1388   2.056   1.745   2.434 -0.0683 -1.3408  1.6982
  463SOL    HW2 1389   1.979   1.872   2.348 -0.1987  1.9376 -0.8114
  464SOL     OW 1390   0.731   2.714   1.601 -0.2218 -0.1744  0.3874
  464SOL    HW1 1391   0.805   2.719   1.675  0.7629  0.5287 -0.8005
  464SOL    HW2 1392   0.699   2.805   1.566  0.9585 -1.6423  2.1361
  465SOL     OW 1393   0.792   3.066   1.642  0.2065  0.4256 -0.1997
  465SOL    HW1 1394   0.709   3.015   1.601 -1.4055  0.0279 -0.9645
  465SOL    HW2 1395   0.782   0.083   1.637  2.1287 -1.7347 -0.6597
  466SOL     OW 1396   1.412   2.682   1.883 -0.2698  0.0445  0.4097
  466SOL    HW1 1397   1.514   2.657   1.885  1.1784  0.7899 -0.5102
  466SOL    HW2 1398   1.393   2.759   1.949 -0.3768  0.7466 -2.2104
  467SOL     OW 1399   0.567   1.944   1.300 -0.2486  0.1252  0.0722
  467SOL    HW1 1400   0.598   1.847   1.322  1.3148 -1.9855  1.0760
  467SOL    HW2 1401   0.471   1.962   1.337  1.6766  2.3862  1.2417
  468SOL     OW 1402   2.637   1.643   2.371  0.2177  0.2990  0.3469
  468SOL    HW1 1403   2.727   1.686   2.357 -2.4673 -2.8856 -1.1909
  468SOL    HW2 1404   2.567   1.663   2.305 -1.7029 -0.6738  2.6985
  469SOL     OW 1405   1.072   1.928   0.757 -0.3642 -0.4037 -0.1133
  469SOL    HW1 1406   1.111   1.848   0.713  0.5384  3.6813  1.1407
  469SOL    HW2 1407   1.034   1.909   0.853 -1.5414  1.5608 -0.2803
  470SOL     OW 1408   2.179   1.205   1.451  0.8125  0.0074 -0.0176
  470SOL    HW1 1409   2.149   1.290   1.399 -3.4168  1.3089 -0.3004
  470SOL    HW2 1410   2.167   1.214   1.551 -2.0949  0.4651  3.6898
  471SOL     OW 1411   0.292   2.253   0.021  0.2754 -0.2390  0.4163
  471SOL    HW1 1412   0.318   2.151   0.030 -0.7233 -0.2040 -0.2938
  471SOL    HW2 1413   0.323   2.306   0.104  0.0187  1.9408  1.2270
  472SOL     OW 1414   2.834   2.063   1.888 -0.2666 -0.4795 -0.0426
  472SOL    HW1 1415   2.835   1.965   1.864 -0.0016  0.1035 -2.8452
  472SOL    HW2 1416   2.738   2.084   1.910 -3.5368 -0.5747 -0.9750
  473SOL     OW 1417   1.009   3.076   0.320 -0.2990  0.4890  0.3832
  473SOL    HW1 1418   1.043   2.986   0.289  0.6959  1.5542  0.5251
  473SOL    HW2 1419   0.912   0.002   0.296  2.2846  0.5617 -0.1891
  474SOL     OW 1420   2.693   2.473   0.743 -0.2327 -0.1863  0.3177
  474SOL    HW1 1421   2.764   2.497   0.671  1.9972 -1.4041 -0.4851
  474SOL    HW2 1422   2.735   2.451   0.831 -0.5079 -1.5697 -0.2292
  475SOL     OW 1423   2.104   2.714   1.646 -0.1648  0.1484 -0.6576
  475SOL    HW1 1424   2.052   2.754   1.565 -0.1117  1.7433  0.0919
  475SOL    HW2 1425   2.158   2.790   1.695  0.2235  0.2187  3.3057
  476SOL     OW 1426   0.853   0.877   0.734 -0.0401 -0.0294  0.3042
  476SOL    HW1 1427   0.904   0.797   0.691 -1.3032 -1.3148 -0.9446
  476SOL    HW2 1428   0.760   0.850   0.766  1.0453 -0.5097 -2.1402
  477SOL     OW 1429   0.495   1.925   0.872  0.7248 -0.6584 -0.8811
  477SOL    HW1 1430   0.404   1.933   0.914 -2.7798 -1.9288 -0.6931
  477SOL    HW2 1431   0.493   1.947   0.774  0.0889  0.2350 -0.2732
  478SOL     OW 1432   0.018   2.556   2.090  0.3026 -0.0732 -0.0595
  478SOL    HW1 1433   3.006   2.545   2.115 -1.1765 -2.3241 -0.8970
  478SOL    HW2 1434   0.033   2.570   1.992 -1.4399  0.9846 -0.4843
  479SOL     OW 1435   0.169   0.576   1.592  0.6474  0.2544  0.0239
  479SOL    HW1 1436   0.068   0.589   1.609  2.3305  0.0319 -2.7227
  479SOL    HW2 1437   0.193   0.486   1.634  2.3815  3.0145 -2.1921
  480SOL     OW 1438   2.905   2.466   3.085 -0.7194  0.3583  0.2102
  480SOL    HW1 1439   2.992   2.419   3.060 -1.0443  1.9139 -3.3164
  480SOL    HW2 1440   2.871   2.451   0.094 -0.5887 -0.6524 -0.1608
  481SOL     OW 1441   1.845   1.925   2.220 -0.2050 -0.4523 -0.4400
  481SOL    HW1 1442   1.827   1.828   2.210 -4.1502 -1.9333  1.2476
  481SOL    HW2 1443   1.872   1.974   2.135  1.1450  0.9938 -2.4076
  482SOL     OW 1444   1.626   2.382   0.012 -0.5385  0.2709 -1.1496
  482SOL    HW1 1445   1.547   2.333   3.052  1.6072 -1.0843  1.6452
  482SOL    HW2 1446   1.706   2.318   0.026 -0.7546  0.2774  1.5567
  483SOL     OW 1447   0.647   1.842   2.157 -0.0351 -0.2704  0.1953
  483SOL    HW1 1448   0.686   1.896   2.234  2.3824  5.1866 -0.0516
  483SOL    HW2 1449   0.562   1.890   2.120  2.1511 -0.5055  1.5162
  484SOL     OW 1450   2.937   0.653   1.049 -0.3862  0.2870  0.3734
  484SOL    HW1 1451   2.995   0.575   1.021  1.6542 -0.5349 -1.7137
  484SOL    HW2 1452   2.996   0.734   1.078  2.0831  3.0025 -0.8274
  485SOL     OW 1453   2.233   1.095   0.666  0.0115 -0.4446 -0.9304
  485SOL    HW1 1454   2.236   0.991   0.668 -0.5226  0.8900  3.3533
  485SOL    HW2 1455   2.204   1.128   0.577 -0.7093 -2.6048 -0.8225
  486SOL     OW 1456   1.387   0.275   2.236  0.1146  0.2314 -0.1159
  486SOL    HW1 1457   1.471   0.324   2.216 -0.2079  0.2263 -0.4545
  486SOL    HW2 1458   1.363   0.282   2.332  1.0045 -1.4517 -3.2029
  487SOL     OW 1459   0.953   1.361   0.974  0.2940  0.1044  0.5607
  487SOL    HW1 1460   0.881   1.298   1.023  0.1141 -0.7541  0.4206
  487SOL    HW2 1461   1.002   1.312   0.899 -0.5816 -1.5629 -0.0990
  488SOL     OW 1462   2.390   1.476   2.881 -0.1580 -0.2510 -0.5655
  488SOL    HW1 1463   2.329   1.526   2.814  0.3452  0.6325  0.4125
  488SOL    HW2 1464   2.383   1.521   2.972  1.2453  0.5381  1.5126
  489SOL     OW 1465   2.352   0.247   0.335  0.3368  0.3591 -0.2112
  489SOL    HW1 1466   2.387   0.282   0.245  0.3267  0.1944 -1.5357
  489SOL    HW2 1467   2.390   0.149   0.351  0.9273 -5.0740 -0.7594
  490SOL     OW 1468   1.448   2.385   0.410  0.2580 -0.0037  0.3060
  490SOL    HW1 1469   1.480   2.302   0.359 -1.6813  0.2482 -1.6157
  490SOL    HW2 1470   1.464   2.460   0.347  1.7798  0.8176  0.6287
  491SOL     OW 1471   0.916   1.107   0.626  0.3151 -0.0313 -0.0582
  491SOL    HW1 1472   0.905   1.016   0.676 -0.1299  0.4618  0.0969
  491SOL    HW2 1473   0.929   1.096   0.526  1.5140  1.2250  1.5978
  492SOL     OW 1474   1.559   0.374   0.019  0.4993 -0.1374  0.2370
  492SOL    HW1 1475   1.621   0.325   3.041 -0.9552  0.7655 -1.4730
  492SOL    HW2 1476   1.471   0.387   3.058  0.8475 -1.3102  0.3929
  493SOL     OW 1477   1.954   2.110   0.195  0.3257 -0.1275 -0.0077
  493SOL    HW1 1478   2.032   2.160   0.235  1.5944 -1.7528  0.1685
  493SOL    HW2 1479   1.878   2.101   0.262 -0.4472 -0.4561  0.3053
  494SOL     OW 1480   0.430   0.953   0.356  0.0953  0.3347  0.4422
  494SOL    HW1 1481   0.498   1.029   0.353  1.1823 -0.2608 -1.4119
  494SOL    HW2 1482   0.391   0.940   0.263  2.5372 -1.3297 -3.0523
  495SOL     OW 1483   2.972   2.808   0.925 -0.7791 -0.2905  0.1619
  495SOL    HW1 1484   2.969   2.787   1.026 -2.3456  0.0344  0.6295
  495SOL    HW2 1485   3.000   2.727   0.865  0.2367 -0.5231  0.1174
  496SOL     OW 1486   2.399   0.141   1.659 -0.7988  0.1063 -0.0744
  496SOL    HW1 1487   2.446   0.175   1.578  0.3029 -0.2293  1.5591
  496SOL    HW2 1488   2.302   0.175   1.659 -1.0513  1.5503  0.8907
  497SOL     OW 1489   1.876   1.605   2.707 -0.2970 -0.2379 -0.0252
  497SOL    HW1 1490   1.944   1.608   2.631  1.8881 -0.8259 -0.3665
  497SOL    HW2 1491   1.789   1.639   2.667  0.0774  1.6559 -0.3663
  498SOL     OW 1492   0.955   1.841   1.024 -0.4501  0.0417  0.2185
  498SOL    HW1 1493   0.866   1.886   1.047  0.4831  0.8315  2.5138
  498SOL    HW2 1494   0.941   1.748   0.982  0.0869  0.9773 -0.2955
  499SOL     OW 1495   0.721   2.120   1.473  0.5187  0.4793 -0.5807
  499SOL    HW1 1496   0.679   2.068   1.399 -0.9245 -0.4637 -0.4501
  499SOL    HW2 1497   0.652   2.178   1.523 -0.6650  0.7608  1.5807
  500SOL     OW 1498   0.936   2.215   0.212  0.7361 -0.0544  0.1750
  500SOL    HW1 1499   0.889   2.204   0.304  2.7649  3.0625  0.0991
  500SOL    HW2 1500   1.034   2.247   0.224 -0.7659 -1.0672  0.2192
  501SOL     OW 1501   2.711   2.989   1.400 -0.3850  0.0985 -0.0243
  501SOL    HW1 1502   2.641   2.944   1.341  1.4149 -0.6785  0.8989
  501SOL    HW2 1503   2.672   3.031   1.486  0.9568  2.1658  2.1859
  502SOL     OW 1504   0.322   0.765   1.690 -0.2200  0.4363 -0.3379
  502SOL    HW1 1505   0.278   0.667   1.669 -1.0709 -2.9823 -1.9635
  502SOL    HW2 1506   0.395   0.784   1.615 -0.5767 -1.5253 -0.1444
  503SOL     OW 1507   2.124   0.919   1.447 -0.0780  0.5709 -0.1605
  503SOL    HW1 1508   2.172   1.005   1.454 -2.5307 -0.6415  1.5867
  503SOL    HW2 1509   2.118   0.887   1.352 -1.9240  2.6866  2.3011
  504SOL     OW 1510   1.163   0.794   2.056  0.1189 -0.4971  0.1707
  504SOL    HW1 1511   1.185   0.699   2.082 -0.5336 -1.8007  0.0855
  504SOL    HW2 1512   1.206   0.859   2.118  0.3916  0.5523 -0.6198
  505SOL     OW 1513   0.613   2.987   2.421 -0.2074 -0.5512  0.3179
  505SOL    HW1 1514   0.688   3.050   2.406 -2.3284  1.0674  0.1452
  505SOL    HW2 1515   0.580   3.000   2.518 -1.4198  1.2793  4.4064
  506SOL     OW 1516   0.281   0.406   1.297 -0.3429  0.2949 -0.1769
  506SOL    HW1 1517   0.347   0.419   1.369  1.8756  0.7843  0.2761
  506SOL    HW2 1518   0.216   0.481   1.284  0.0507 -0.6206 -1.1905
  507SOL     OW 1519   1.194   0.132   3.013  0.1366  0.1708 -0.5120
  507SOL    HW1 1520   1.206   0.134   0.031  0.9713 -0.1828  1.4678
  507SOL    HW2 1521   1.226   0.053   2.964 -0.0984  2.7753  0.2349
  508SOL     OW 1522   1.896   0.173   2.502 -0.3486  0.2427  0.4122
  508SOL    HW1 1523   1.862   0.171   2.406 -0.8027  0.1926  0.6008
  508SOL    HW2 1524   1.820   0.181   2.571 -0.0545 -1.7445 -0.5854
  509SOL     OW 1525   0.771   1.365   1.922 -0.5433  0.0121 -0.4237
  509SOL    HW1 1526   0.732   1.291   1.981  1.8433  0.1816 -1.1732
  509SOL    HW2 1527   0.759   1.456   1.974  1.7572  1.5511  1.7873
  510SOL     OW 1528   3.055   1.025   0.601  0.2590 -0.0384 -0.3173
  510SOL    HW1 1529   3.058   1.040   0.701  0.3730  1.5265 -2.8846
  510SOL    HW2 1530   2.969   0.980   0.573  1.8460 -0.7276 -1.5920
  511SOL     OW 1531   1.984   1.905   0.789  0.1631  0.3553  0.1548
  511SOL    HW1 1532   2.028   1.928   0.703  1.6842 -1.6183  2.6527
  511SOL    HW2 1533   2.020   1.809   0.812  2.3546 -1.4135  3.9122
  512SOL     OW 1534   0.535   1.224   0.388 -0.1936  0.8307  0.0632
  512SOL    HW1 1535   0.445   1.278   0.396  0.0971  4.2710 -1.2810
  512SOL    HW2 1536   0.607   1.253   0.451 -0.5503  0.0709  1.0224
  513SOL     OW 1537   0.488   2.292   0.608  0.0004  0.4132  0.2510
  513SOL    HW1 1538   0.405   2.327   0.561  0.4741 -1.5497  0.4943
  513SOL    HW2 1539   0.564   2.359   0.599 -0.1827  0.8131 -1.6195
  514SOL     OW 1540   2.533   2.107   2.409  0.1389 -0.0352 -0.0854
  514SOL    HW1 1541   2.435   2.105   2.373 -1.5866 -0.7738  0.1322
  514SOL    HW2 1542   2.567   2.202   2.410 -0.4707 -0.8697  0.9828
  515SOL     OW 1543   2.367   0.857   0.093 -0.1693 -0.4822  0.3737
  515SOL    HW1 1544   2.296   0.819   0.156  1.6779 -1.6187  3.1518
  515SOL    HW2 1545   2.454   0.881   0.140  1.7664  1.2534  2.0920
  516SOL     OW 1546   1.907   0.115   0.662  0.4113 -0.5459 -0.2497
  516SOL    HW1 1547   1.949   0.027   0.675  2.3049  4.8380 -1.3287
  516SOL    HW2 1548   1.872   0.130   0.568 -0.7625 -2.1473  0.2675
  517SOL     OW 1549   1.453   2.153   3.056 -0.4079  0.4307 -0.1737
  517SOL    HW1 1550   1.482   2.148   2.956  1.6001  0.6566 -1.4452
  517SOL    HW2 1551   1.419   2.060   0.001 -1.6442 -0.8340  0.0808
  518SOL     OW 1552   1.008   0.876   1.864 -0.0909  0.2541 -0.1917
  518SOL    HW1 1553   1.050   0.841   1.951  0.4914  1.3520 -0.5387
  518SOL    HW2 1554   1.080   0.909   1.796  1.2405  2.5887  0.3205
  519SOL     OW 1555   0.035   1.322   3.063 -0.0540 -0.3912  0.2813
  519SOL    HW1 1556   0.078   1.413   3.050  1.2030  1.5575 -0.4452
  519SOL    HW2 1557   3.052   1.321   0.054 -0.1557  1.4652  0.1005
  520SOL     OW 1558   1.984   2.298   1.888 -0.2854 -0.3396  0.3406
  520SOL    HW1 1559   2.054   2.296   1.815 -3.1642  1.6552  0.6598
  520SOL    HW2 1560   1.976   2.208   1.931 -0.9191 -1.3946  1.2688
  521SOL     OW 1561   1.030   2.650   2.495 -0.4254  0.1505 -0.4605
  521SOL    HW1 1562   0.993   2.645   2.399 -0.0894  2.0424 -0.6409
  521SOL    HW2 1563   1.129   2.660   2.490  0.4346 -0.6187  0.6682
  522SOL     OW 1564   2.153   0.279   2.048 -0.1986 -0.4786 -0.0157
  522SOL    HW1 1565   2.168   0.369   1.998  1.7553  2.7663 -0.6033
  522SOL    HW2 1566   2.140   0.295   2.150 -0.2481  1.2991 -0.8808
  523SOL     OW 1567   1.813   1.971   1.315 -0.1750 -0.0272  0.0786
  523SOL    HW1 1568   1.735   2.036   1.323  0.9027  2.5967 -1.8553
  523SOL    HW2 1569   1.873   1.988   1.393  2.3978  1.9358  0.0170
  524SOL     OW 1570   1.211   2.304   0.235  0.0793  0.5496  0.1271
  524SOL    HW1 1571   1.183   2.359   0.321 -1.9331  0.7041 -0.7847
  524SOL    HW2 1572   1.278   2.349   0.171 -0.9061 -0.9798  0.3022
  525SOL     OW 1573   0.066   0.397   3.042 -0.1723  0.2389 -0.2804
  525SOL    HW1 1574   0.000   0.459   2.992 -1.7178  2.8307  0.9803
  525SOL    HW2 1575   0.112   0.443   0.033 -0.6570 -1.4614  1.6848
  526SOL     OW 1576   1.117   2.712   0.503 -0.3755  0.0319  0.3576
  526SOL    HW1 1577   1.032   2.753   0.527  0.3480 -1.3888 -0.3447
  526SOL    HW2 1578   1.188   2.786   0.498  0.2778 -2.3083  0.1430
  527SOL     OW 1579   2.753   1.570   0.606  0.3845 -0.2680  0.6131
  527SOL    HW1 1580   2.716   1.648   0.663 -0.8412  1.0919 -0.5948
  527SOL    HW2 1581   2.714   1.575   0.512  1.2774  1.4544  0.0373
  528SOL     OW 1582   0.286   0.950   2.246  0.2076  0.3305  0.0760
  528SOL    HW1 1583   0.214   0.963   2.180  0.3025  0.1611  1.2381
  528SOL    HW2 1584   0.364   0.898   2.208 -1.0447  0.7559 -0.4448
  529SOL     OW 1585   1.340   1.606   2.739  0.5115  0.0869 -0.1460
  529SOL    HW1 1586   1.409   1.534   2.732 -1.8777  3.5348  0.7005
  529SOL    HW2 1587   1.245   1.562   2.731 -0.8363 -1.1113 -0.5444
  530SOL     OW 1588   1.785   1.154   2.338 -0.5536  0.2095  0.1038
  530SOL    HW1 1589   1.705   1.091   2.333  0.7271 -0.9317  0.3908
  530SOL    HW2 1590   1.789   1.214   2.259  1.3799 -0.0436  2.1692
  531SOL     OW 1591   0.502   2.161   2.675 -0.3972  0.2828  0.4455
  531SOL    HW1 1592   0.446   2.117   2.603  0.0242  1.0870  0.5367
  531SOL    HW2 1593   0.439   2.206   2.743  1.0562 -0.3222 -0.1220
  532SOL     OW 1594   2.546   1.180   0.591 -1.0895  0.3497 -0.3477
  532SOL    HW1 1595   2.511   1.146   0.501 -0.6949 -3.4315 -2.8168
  532SOL    HW2 1596   2.483   1.159   0.664  0.3459  1.7243 -0.4481
  533SOL     OW 1597   0.114   0.098   1.677  0.4941  0.0389  0.3681
  533SOL    HW1 1598   0.212   0.111   1.690 -0.6673  0.1130  0.8531
  533SOL    HW2 1599   0.084   0.159   1.603  1.2676 -2.3311  1.4406
  534SOL     OW 1600   0.589   0.145   0.049  0.4374 -0.4908  0.7495
  534SOL    HW1 1601   0.610   0.171   3.036 -0.2707 -0.6188 -1.5339
  534SOL    HW2 1602   0.527   0.070   0.053  0.5352  3.1246 -1.1222
  535SOL     OW 1603   0.235   0.229   0.304 -0.4029 -0.4442 -0.0403
  535SOL    HW1 1604   0.176   0.201   0.221  0.3482 -1.3641 -0.6469
  535SOL    HW2 1605   0.250   0.151   0.362 -0.4715 -1.5752  0.1329
  536SOL     OW 1606   0.616   1.639   1.329  0.1157 -0.1156  0.1538
  536SOL    HW1 1607   0.693   1.631   1.397  1.0646  1.8425  0.3904
  536SOL    HW2 1608   0.649   1.611   1.237  2.3875  0.7195 -0.5344
  537SOL     OW 1609   1.145   2.667   1.829 -0.0705 -0.2220  0.1638
  537SOL    HW1 1610   1.247   2.663   1.834  0.3949  1.0472  1.1191
  537SOL    HW2 1611   1.102   2.585   1.872  1.8350 -0.9210  1.9108
  538SOL     OW 1612   3.083   1.919   2.986  0.8841  0.2202  0.4991
  538SOL    HW1 1613   0.017   1.900   3.084 -0.0389 -1.3772 -0.4484
  538SOL    HW2 1614   0.079   1.930   2.937 -1.1329 -5.0440 -1.2301
  539SOL     OW 1615   2.758   1.065   2.476 -0.1792 -0.2420  0.4915
  539SOL    HW1 1616   2.801   1.067   2.569  0.6423  1.1808  1.4706
  539SOL    HW2 1617   2.797   0.997   2.409  1.5925  2.3491 -2.1292
  540SOL     OW 1618   1.631   0.432   2.213  0.3070 -0.0139  0.5976
  540SOL    HW1 1619   1.598   0.527   2.237 -1.6163  0.6285  1.4851
  540SOL    HW2 1620   1.729   0.447   2.192 -1.3575 -1.1399  0.5640
  541SOL     OW 1621   0.533   0.378   2.094 -0.4277 -0.2320  0.0760
  541SOL    HW1 1622   0.462   0.323   2.140  1.2572 -0.3015 -1.6686
  541SOL    HW2 1623   0.490   0.458   2.048  0.5857 -2.2796 -0.2944
  542SOL     OW 1624   2.086   2.807   3.081  0.1850 -0.8463 -0.3814
  542SOL    HW1 1625   1.982   2.800   0.002  0.4522 -1.6841 -0.8811
  542SOL    HW2 1626   2.118   2.869   0.071 -1.7492  2.5182  1.5545
  543SOL     OW 1627   1.241   0.171   0.187 -0.4200  0.0174 -0.2830
  543SOL    HW1 1628   1.247   0.269   0.218  0.9087  1.6401  0.1169
  543SOL    HW2 1629   1.172   0.116   0.239 -2.0829 -1.3944 -0.4872
  544SOL     OW 1630   2.575   1.684   1.776 -0.5730 -0.3477  0.1316
  544SOL    HW1 1631   2.592   1.593   1.826 -1.1004 -2.2406  3.9311
  544SOL    HW2 1632   2.551   1.674   1.678 -1.5524  1.2429  0.4761
  545SOL     OW 1633   2.157   1.943   1.312 -0.3393 -0.1207  0.4273
  545SOL    HW1 1634   2.107   1.935   1.222 -3.4633  0.2799 -0.2076
  545SOL    HW2 1635   2.208   2.032   1.320  2.0029  0.9221  1.0626
  546SOL     OW 1636   0.146   3.047   2.491  0.5375  0.1053  0.0873
  546SOL    HW1 1637   0.119   3.057   2.390 -0.9024  0.9819 -1.2438
  546SOL    HW2 1638   0.201   2.963   2.505 -0.3948 -1.3482  0.8129
  547SOL     OW 1639   1.408   0.865   0.604  0.1175  0.0287  0.5673
  547SOL    HW1 1640   1.378   0.896   0.696 -1.1476  1.0986 -2.3063
  547SOL    HW2 1641   1.340   0.804   0.568  1.4159  3.3222 -1.3094
  548SOL     OW 1642   1.543   2.363   2.597 -0.3097  0.2144 -0.4788
  548SOL    HW1 1643   1.515   2.389   2.501 -2.6192  2.3647  0.0706
  548SOL    HW2 1644   1.523   2.263   2.627 -1.1718 -2.1071  1.4727
  549SOL     OW 1645   2.062   0.626   0.441  0.6597  0.6193  0.1698
  549SOL    HW1 1646   2.029   0.722   0.438  1.5885  0.5428 -1.6131
  549SOL    HW2 1647   2.005   0.567   0.501 -1.2649  0.9983  1.8920
  550SOL     OW 1648   2.888   2.040   0.489 -0.3641  0.8089  0.1102
  550SOL    HW1 1649   2.788   2.018   0.474 -3.0040  1.0033 -2.1598
  550SOL    HW2 1650   2.917   2.006   0.582 -1.5840  0.4762 -1.9332
  551SOL     OW 1651   1.284   2.655   2.373  0.2126  0.3980  0.1423
  551SOL    HW1 1652   1.239   2.676   2.281 -0.4220  3.0851 -1.2700
  551SOL    HW2 1653   1.322   2.560   2.370 -0.5434 -1.5040  0.1882
  552SOL     OW 1654   3.045   2.420   2.672 -0.3604 -0.0382 -0.2853
  552SOL    HW1 1655   3.038   2.317   2.681  0.7038 -1.9708 -0.3665
  552SOL    HW2 1656   2.988   2.457   2.593  1.0341  0.4403  0.7201
  553SOL     OW 1657   0.103   0.089   0.697 -0.0915  0.0775 -0.2671
  553SOL    HW1 1658   0.185   0.118   0.753 -0.4758 -1.8171 -1.3769
  553SOL    HW2 1659   0.082   3.073   0.709 -0.6950  1.6601 -2.1331
  554SOL     OW 1660   2.262   2.197   1.638  0.3759  0.1306 -0.3361
  554SOL    HW1 1661   2.209   2.278   1.616  0.0154 -3.7149  3.7026
  554SOL    HW2 1662   2.295   2.203   1.735  0.1466 -2.1232 -0.0060
  555SOL     OW 1663   1.650   2.298   2.219 -0.3444 -0.0843 -0.0638
  555SOL    HW1 1664   1.682   2.255   2.307  1.6605  2.7530 -3.7020
  555SOL    HW2 1665   1.684   2.397   2.206 -0.2697  1.1474  0.4958
  556SOL     OW 1666   1.296   1.236   1.163  0.6608 -0.0611  0.3467
  556SOL    HW1 1667   1.318   1.271   1.066  0.4735  1.2615  0.2233
  556SOL    HW2 1668   1.292   1.316   1.226 -0.2340  1.1286  0.9529
  557SOL     OW 1669   1.977   2.540   2.286 -0.1822 -0.3534  0.3605
  557SOL    HW1 1670   1.995   2.454   2.343  1.6345  0.6551  0.3560
  557SOL    HW2 1671   2.039   2.619   2.316 -1.0688  1.2920 -2.4601
  558SOL     OW 1672   0.157   2.731   1.894  0.3116  0.4682 -0.1130
  558SOL    HW1 1673   0.217   2.656   1.866  0.3927  0.1363  2.1397
  558SOL    HW2 1674   0.201   2.779   1.973 -1.1182  1.2471  1.0647
  559SOL     OW 1675   2.230   2.996   0.762  0.1096 -0.1454 -0.1259
  559SOL    HW1 1676   2.285   2.934   0.703  2.2788 -2.1533  1.2583
  559SOL    HW2 1677   2.137   2.968   0.745  2.6299  0.6238 -1.6315
  560SOL     OW 1678   1.702   2.708   0.545  0.3123  0.4169 -0.5217
  560SOL    HW1 1679   1.633   2.635   0.564 -0.3932  1.5236  0.5177
  560SOL    HW2 1680   1.682   2.786   0.606 -2.3798 -3.7138  0.9844
  561SOL     OW 1681   1.085   0.091   0.814 -0.4350  0.2399  0.5662
  561SOL    HW1 1682   1.030   0.057   0.734  0.0017 -0.2797  0.8984
  561SOL    HW2 1683   1.138   0.173   0.788 -1.2356 -1.8155  0.9203
  562SOL     OW 1684   0.428   0.980   2.524 -0.3359 -0.5693  0.0870
  562SOL    HW1 1685   0.359   0.934   2.473  4.2340 -0.1137 -0.8638
  562SOL    HW2 1686   0.405   1.073   2.553 -1.0385  0.6854 -1.7616
  563SOL     OW 1687   1.680   1.779   2.587 -0.0320 -0.6522 -0.4407
  563SOL    HW1 1688   1.746   1.856   2.600 -0.6713  0.2069  0.1871
  563SOL    HW2 1689   1.584   1.813   2.589  1.0214  0.4062  0.8524
  564SOL     OW 1690   2.749   0.978   1.193  0.2359 -0.3180 -0.7432
  564SOL    HW1 1691   2.683   0.916   1.242  1.6607  0.4981  2.7595
  564SOL    HW2 1692   2.763   0.962   1.096 -0.0283 -0.3904  1.4854
  565SOL     OW 1693   1.065   0.690   2.996 -0.2979 -0.0802 -0.4900
  565SOL    HW1 1694   1.150   0.713   2.942 -0.5413  0.0972 -0.0196
  565SOL    HW2 1695   0.996   0.651   2.931  1.5698 -2.7182  0.3517
  566SOL     OW 1696   2.061   0.166   2.741  0.5260  0.2594  0.1484
  566SOL    HW1 1697   2.001   0.189   2.662 -1.9439 -0.3193  0.9266
  566SOL    HW2 1698   2.083   0.247   2.791 -1.2660  0.9464 -2.1498
  567SOL     OW 1699   2.128   1.186   0.458 -0.0161  0.0167  0.3541
  567SOL    HW1 1700   2.074   1.241   0.528  0.0334  0.1552 -1.5838
  567SOL    HW2 1701   2.158   1.246   0.387 -4.2020  0.5589  3.3391
  568SOL     OW 1702   1.709   1.758   3.053 -0.2368 -0.5602 -0.2672
  568SOL    HW1 1703   1.619   1.721   3.021  0.8180  0.1887  0.2971
  568SOL    HW2 1704   1.724   1.750   0.067  1.8970  0.7067 -2.0321
  569SOL     OW 1705   1.998   1.239   2.931  0.0634 -0.7235  0.7232
  569SOL    HW1 1706   1.946   1.326   2.949 -2.9210  0.1885 -0.3869
  569SOL    HW2 1707   2.084   1.264   2.880 -2.5469 -0.8571  0.3072
  570SOL     OW 1708   0.684   2.210   1.891  0.0395  0.6974  0.4355
  570SOL    HW1 1709   0.695   2.285   1.819 -2.7999  1.3604 -0.0875
  570SOL    HW2 1710   0.608   2.152   1.854 -0.8469 -1.4693  0.0815
  571SOL     OW 1711   0.325   0.948   1.910  0.3319 -0.2851 -0.4665
  571SOL    HW1 1712   0.335   0.876   1.840 -0.0464  2.5120  0.5328
  571SOL    HW2 1713   0.232   0.952   1.945 -0.6832  0.6821  2.4804
  572SOL     OW 1714   1.236   1.741   0.608 -0.0967  0.1351  0.1406
  572SOL    HW1 1715   1.254   1.648   0.651 -2.6295 -0.7636 -0.9662
  572SOL    HW2 1716   1.188   1.743   0.518 -0.8177  2.2895 -1.2783
  573SOL     OW 1717   1.771   2.220   0.413  0.0500 -0.2504 -0.2814
  573SOL    HW1 1718   1.689   2.197   0.356 -2.2117 -2.2085 -3.4789
  573SOL    HW2 1719   1.749   2.228   0.511  1.0000 -1.7230 -1.0763
  574SOL     OW 1720   0.985   3.003   1.014  0.1687  0.1637  0.0940
  574SOL    HW1 1721   0.886   3.003   0.997  1.5533  0.7704  1.9651
  574SOL    HW2 1722   1.023   3.077   0.950 -0.0771  4.1854 -2.0395
  575SOL     OW 1723   0.303   1.154   1.462 -0.3157  0.1620 -0.1468
  575SOL    HW1 1724   0.310   1.124   1.559 -0.4465  1.2214 -1.3897
  575SOL    HW2 1725   0.344   1.250   1.458 -2.6146  1.0653  1.4288
  576SOL     OW 1726   2.398   3.021   1.126 -0.3897 -0.3087  0.0613
  576SOL    HW1 1727   2.305   3.023   1.096  2.0847  0.7559 -0.7298
  576SOL    HW2 1728   2.452   2.955   1.071  1.4523 -1.2381 -1.0001
  577SOL     OW 1729   0.839   1.063   2.265  0.2823 -0.1752  0.2744
  577SOL    HW1 1730   0.844   1.055   2.163 -0.6695 -2.4948  0.5173
  577SOL    HW2 1731   0.742   1.043   2.296  2.3802 -1.5974  1.0906
  578SOL     OW 1732   1.849   0.982   2.559 -0.0752 -0.1502 -0.5026
  578SOL    HW1 1733   1.835   1.036   2.473 -1.0460 -1.5054  1.7468
  578SOL    HW2 1734   1.895   1.042   2.630  1.5224  1.5148  2.7822
  579SOL     OW 1735   1.748   2.447   1.545  0.1496 -0.1732 -0.1295
  579SOL    HW1 1736   1.732   2.430   1.645  1.2330 -0.3286  0.7846
  579SOL    HW2 1737   1.807   2.377   1.503 -1.8521  1.2108  2.3801
  580SOL     OW 1738   1.618   1.570   2.416 -0.7608  0.0766  0.1970
  580SOL    HW1 1739   1.654   1.645   2.476 -1.8395 -0.7101  0.0427
  580SOL    HW2 1740   1.547   1.611   2.358 -0.6327  0.8170  2.4746
  581SOL     OW 1741   1.184   1.294   2.495  0.2464  0.4536  0.2131
  581SOL    HW1 1742   1.210   1.202   2.527 -1.8167 -0.6584  2.6184
  581SOL    HW2 1743   1.191   1.354   2.573 -1.1001 -0.8856  1.3806
  582SOL     OW 1744   0.908   1.059   1.596  0.0483 -0.0225  0.6174
  582SOL    HW1 1745   0.911   1.159   1.573  1.6547 -0.0640 -0.5485
  582SOL    HW2 1746   0.868   1.006   1.517 -0.5553  1.3777 -2.7561
  583SOL     OW 1747   1.104   1.172   1.971 -0.4865  1.0615  0.1637
  583SOL    HW1 1748   1.015   1.129   1.997  0.9575  1.0866 -0.3650
  583SOL    HW2 1749   1.085   1.245   1.901  0.1126  0.5549  2.0811
  584SOL     OW 1750   2.223   2.782   0.381  0.6716  0.6502 -0.3220
  584SOL    HW1 1751   2.266   2.704   0.328 -0.0471 -0.7161  2.6582
  584SOL    HW2 1752   2.263   2.781   0.477  0.6927 -2.3643 -0.3194
  585SOL     OW 1753   1.909   0.103   3.018  0.4311 -0.2473  0.0260
  585SOL    HW1 1754   1.996   0.115   2.968  1.6811 -0.0313 -0.1474
  585SOL    HW2 1755   1.929   0.062   0.022  1.9637  0.9310 -0.1669
  586SOL     OW 1756   2.843   1.837   1.165 -0.4772 -0.1093  0.1945
  586SOL    HW1 1757   2.751   1.868   1.193 -1.5202 -0.0832  2.3990
  586SOL    HW2 1758   2.921   1.897   1.203  0.4805 -0.8320  2.4836
  587SOL     OW 1759   1.368   1.895   0.064  0.6128  0.4589  0.3706
  587SOL    HW1 1760   1.269   1.912   0.087 -2.0362  2.6345 -0.5188
  587SOL    HW2 1761   1.393   1.820   3.082  0.4861 -2.4584 -1.6861
  588SOL     OW 1762   0.450   0.367   0.897 -0.5331  0.3129  0.3536
  588SOL    HW1 1763   0.541   0.369   0.859 -0.6484 -0.4638  2.2200
  588SOL    HW2 1764   0.422   0.464   0.897 -0.2556 -2.3433  1.6882
  589SOL     OW 1765   1.356   0.131   0.541 -0.3292 -0.2822  0.3903
  589SOL    HW1 1766   1.290   0.206   0.531  3.5612  0.6112  4.2217
  589SOL    HW2 1767   1.395   0.124   0.632 -1.2609 -1.7000  0.7832
  590SOL     OW 1768   1.202   1.031   2.876  0.3164 -0.0104 -0.0202
  590SOL    HW1 1769   1.238   0.936   2.872  1.3390 -0.0359  0.4892
  590SOL    HW2 1770   1.110   1.032   2.919  0.6212  0.3259 -0.6486
  591SOL     OW 1771   2.822   2.503   2.138  0.2559  0.3555 -1.2249
  591SOL    HW1 1772   2.767   2.581   2.175 -1.2502 -1.3231  2.2539
  591SOL    HW2 1773   2.757   2.422   2.152 -0.4273  0.3078  2.4284
  592SOL     OW 1774   2.369   1.457   1.657  0.3278 -0.7346  0.1673
  592SOL    HW1 1775   2.290   1.519   1.639  1.5786 -3.0030  1.3879
  592SOL    HW2 1776   2.431   1.464   1.575 -3.2000  2.7184 -1.5285
  593SOL     OW 1777   1.148   0.946   1.615  0.4077  0.1666  0.2812
  593SOL    HW1 1778   1.180   0.934   1.516  0.7587 -1.6837 -0.1294
  593SOL    HW2 1779   1.054   0.985   1.623 -2.9413  0.8051 -0.8157
  594SOL     OW 1780   2.570   1.247   2.522 -0.5437  0.0563 -0.3473
  594SOL    HW1 1781   2.601   1.321   2.584 -0.9377  0.4369 -0.9007
  594SOL    HW2 1782   2.644   1.174   2.505 -1.7100 -0.4712 -0.3817
  595SOL     OW 1783   3.026   0.278   0.597  0.1651  0.4896 -0.3272
  595SOL    HW1 1784   0.009   0.209   0.632  1.8152  1.2082  0.9756
  595SOL    HW2 1785   2.938   0.226   0.571 -2.2152 -1.8841 -0.9145
  596SOL     OW 1786   0.016   1.562   0.963  0.5751  0.5846 -0.4137
  596SOL    HW1 1787   3.052   1.512   1.040 -0.7543  1.7428  0.0579
  596SOL    HW2 1788   0.115   1.564   0.996  0.1919  0.2861  0.6949
  597SOL     OW 1789   1.518   1.563   0.511  0.4709 -0.1670  0.2241
  597SOL    HW1 1790   1.574   1.642   0.539 -0.1653 -1.8365 -0.3639
  597SOL    HW2 1791   1.446   1.597   0.449  0.4051  0.6051 -0.3915
  598SOL     OW 1792   0.329   2.537   1.822 -0.5189  0.1383 -0.1732
  598SOL    HW1 1793   0.371   2.569   1.731 -1.9747  2.5857 -0.4513
  598SOL    HW2 1794   0.273   2.453   1.806  1.7567  2.0807 -0.0063
  599SOL     OW 1795   3.057   1.496   2.752 -0.0030  0.0531  0.4972
  599SOL    HW1 1796   2.965   1.450   2.739 -1.2092 -0.0617 -0.0965
  599SOL    HW2 1797   3.046   1.597   2.758 -1.2576 -1.7059  1.3640
  600SOL     OW 1798   0.448   0.964   2.963 -0.1227 -0.3364 -0.0337
  600SOL    HW1 1799   0.542   0.925   2.969  0.5965  0.1737 -1.5087
  600SOL    HW2 1800   0.382   0.896   2.925  0.4372 -0.0245  0.6353
  601SOL     OW 1801   0.741   0.770   1.108 -0.0265 -0.1743 -0.0838
  601SOL    HW1 1802   0.671   0.840   1.079 -0.6275  1.2109 -1.0818
  601SOL    HW2 1803   0.791   0.812   1.188 -0.5265  0.3750  0.0481
  602SOL     OW 1804   1.160   2.447   0.461 -0.5060  0.1588 -0.0280
  602SOL    HW1 1805   1.147   2.548   0.485 -0.0030 -1.1295 -0.8867
  602SOL    HW2 1806   1.220   2.394   0.526  0.9396  2.2224 -2.0931
  603SOL     OW 1807   1.358   2.454   2.032 -0.0754 -0.4882 -0.0024
  603SOL    HW1 1808   1.376   2.533   1.964  0.2931  1.2253 -2.0263
  603SOL    HW2 1809   1.286   2.481   2.100  1.2987  0.9934 -3.4760
  604SOL     OW 1810   0.526   0.365   2.766 -0.2115 -0.2708 -0.4182
  604SOL    HW1 1811   0.502   0.409   2.854  1.2863  0.3720 -0.3294
  604SOL    HW2 1812   0.596   0.296   2.782 -1.8381  0.7267  1.2240
  605SOL     OW 1813   2.632   1.115   1.496 -0.2792 -0.2250  0.0354
  605SOL    HW1 1814   2.534   1.099   1.472  3.9978 -0.8926  0.0453
  605SOL    HW2 1815   2.680   1.032   1.532  2.0990  1.3360 -0.3097
  606SOL     OW 1816   0.880   1.783   2.745 -0.2240  0.4078  0.2778
  606SOL    HW1 1817   0.816   1.858   2.730 -2.6220  0.9255  0.8716
  606SOL    HW2 1818   0.891   1.719   2.666 -0.0427 -0.1896 -2.7547
  607SOL     OW 1819   0.764   0.121   0.703 -0.6064  0.0367 -0.1512
  607SOL    HW1 1820   0.684   0.097   0.649  1.4730 -0.3936 -0.0262
  607SOL    HW2 1821   0.854   0.102   0.655  3.6294  0.3041 -1.6234
  608SOL     OW 1822   2.289   2.016   2.060  0.2115 -0.1553 -0.6588
  608SOL    HW1 1823   2.382   1.981   2.044 -2.0763 -0.6139 -0.9533
  608SOL    HW2 1824   2.224   1.945   2.031  1.2855  1.7396  0.0807
  609SOL     OW 1825   2.818   0.070   0.597  0.1961 -0.2222 -0.2206
  609SOL    HW1 1826   2.862   0.011   0.528  2.4579  0.6587  1.1450
  609SOL    HW2 1827   2.805   0.013   0.683  2.4451 -0.0048  0.3932
  610SOL     OW 1828   0.254   2.476   1.090  0.0764 -0.3243 -0.3955
  610SOL    HW1 1829   0.238   2.443   1.189  0.6631 -1.2459  3.6938
  610SOL    HW2 1830   0.359   2.485   1.075  0.1343 -0.3031  1.8493
  611SOL     OW 1831   1.365   1.465   0.095  0.0411 -0.2630 -0.2450
  611SOL    HW1 1832   1.362   1.366   0.119 -0.8048 -2.7488  3.1213
  611SOL    HW2 1833   1.345   1.515   0.184  1.0608 -0.2777  0.2975
  612SOL     OW 1834   0.468   2.705   2.001  0.1387 -0.0958 -0.6128
  612SOL    HW1 1835   0.425   2.662   2.081  0.7702 -1.0227 -3.5979
  612SOL    HW2 1836   0.450   2.643   1.923 -1.7668  2.5788 -0.8534
  613SOL     OW 1837   0.551   2.764   0.715  0.2934  0.7289  0.2570
  613SOL    HW1 1838   0.617   2.717   0.647  2.5395  0.0180 -1.8896
  613SOL    HW2 1839   0.595   2.768   0.810  1.6966 -2.3158  2.0617
  614SOL     OW 1840   2.352   0.105   1.954 -0.2516 -0.0484  0.4085
  614SOL    HW1 1841   2.268   0.157   1.974 -0.0613 -3.2966 -1.1018
  614SOL    HW2 1842   2.360   0.091   1.853  0.8401  1.2145 -0.3521
  615SOL     OW 1843   1.626   1.151   0.330 -0.5374 -0.5051 -0.7609
  615SOL    HW1 1844   1.554   1.184   0.270  3.2953 -0.5634  1.9825
  615SOL    HW2 1845   1.724   1.180   0.308 -1.2931 -0.6046  0.1724
  616SOL     OW 1846   1.882   1.279   0.305  0.0577  0.1105 -0.1356
  616SOL    HW1 1847   1.892   1.377   0.270  0.7182  0.4776 -2.3392
  616SOL    HW2 1848   1.912   1.266   0.404  1.4884  0.1439  3.4263
  617SOL     OW 1849   1.222   1.037   2.599  0.2794 -0.0760  0.2890
  617SOL    HW1 1850   1.150   0.962   2.595 -1.2037 -0.4209  1.5355
  617SOL    HW2 1851   1.239   1.062   2.696  2.6347 -1.4022  0.5235
  618SOL     OW 1852   0.469   2.976   1.939  0.2317 -0.3029 -0.3989
  618SOL    HW1 1853   0.466   2.874   1.957  0.6432 -2.0400  0.2143
  618SOL    HW2 1854   0.461   3.029   2.027  1.7410 -2.2903 -0.1264
  619SOL     OW 1855   2.799   1.712   1.559 -0.2629 -0.1367 -0.4773
  619SOL    HW1 1856   2.841   1.665   1.480 -2.6553  4.0771  0.8625
  619SOL    HW2 1857   2.698   1.723   1.541 -1.2514  0.2548 -0.5532
  620SOL     OW 1858   2.704   0.582   2.617  0.0787 -0.1527  0.0598
  620SOL    HW1 1859   2.672   0.676   2.592 -0.8244 -2.1271 -2.2845
  620SOL    HW2 1860   2.802   0.583   2.637  1.0880  0.7613 -1.4277
  621SOL     OW 1861   2.288   1.983   2.349 -0.7189  0.0750 -0.2853
  621SOL    HW1 1862   2.277   2.005   2.253 -0.1630  1.1988  1.1694
  621SOL    HW2 1863   2.216   1.922   2.388  0.7740  0.9798 -0.8638
  622SOL     OW 1864   0.972   0.575   2.289  0.1814  0.0328  0.4578
  622SOL    HW1 1865   0.897   0.520   2.252 -1.1682  1.8506 -2.0079
  622SOL    HW2 1866   0.996   0.663   2.236  1.3756  2.8324 -0.6531
  623SOL     OW 1867   0.591   1.027   2.315 -0.1715  0.2159 -0.5126
  623SOL    HW1 1868   0.527   1.020   2.396  0.0567  1.2641  0.8326
  623SOL    HW2 1869   0.566   0.956   2.250 -2.1987 -2.2107  1.9654
  624SOL     OW 1870   2.757   0.560   0.376  0.2883  0.3560 -0.4341
  624SOL    HW1 1871   2.698   0.526   0.458 -0.1686 -0.5463 -0.1554
  624SOL    HW2 1872   2.859   0.558   0.400  2.3897  0.0178 -0.3367
  625SOL     OW 1873   0.689   1.926   1.070 -0.0643 -0.2527 -0.2850
  625SOL    HW1 1874   0.628   1.930   0.992 -0.4469 -0.2894 -3.2476
  625SOL    HW2 1875   0.640   1.932   1.155  1.5413 -4.6364 -1.3534
  626SOL     OW 1876   1.913   0.669   2.593 -0.0323  0.4684 -0.5874
  626SOL    HW1 1877   2.011   0.657   2.575  1.7604  1.3012 -0.3591
  626SOL    HW2 1878   1.880   0.762   2.581 -0.2389 -1.4256  1.5826
  627SOL     OW 1879   1.636   2.792   2.879  0.3391 -0.4105 -0.4553
  627SOL    HW1 1880   1.540   2.783   2.914  2.6124  3.9926  0.7734
  627SOL    HW2 1881   1.677   2.704   2.842 -1.9565 -2.4384 -2.9106
  628SOL     OW 1882   2.335   2.905   2.381 -0.0598 -0.4693 -0.0476
  628SOL    HW1 1883   2.268   2.958   2.440 -0.4288  1.3682  0.8263
  628SOL    HW2 1884   2.359   2.968   2.306 -0.5691 -0.7602  3.5965
  629SOL     OW 1885   0.828   0.045   2.311  0.3274  0.2989 -0.1675
  629SOL    HW1 1886   0.831   0.074   2.213  0.5243  1.2157  1.2746
  629SOL    HW2 1887   0.921   0.013   2.334 -0.0556  1.7015  1.8625
  630SOL     OW 1888   0.730   0.232   2.471  0.5449 -0.2171 -0.0781
  630SOL    HW1 1889   0.805   0.276   2.527 -0.9450 -1.6890 -1.2455
  630SOL    HW2 1890   0.768   0.155   2.414  0.4782 -4.2882  1.4447
  631SOL     OW 1891   1.969   1.355   0.639 -0.3185  0.0775 -0.1369
  631SOL    HW1 1892   1.939   1.333   0.736 -0.1093 -1.2412  0.8663
  631SOL    HW2 1893   1.988   1.456   0.629  0.3127  1.2022 -0.9939
  632SOL     OW 1894   2.186   0.747   1.785 -0.1655  0.0037 -0.3510
  632SOL    HW1 1895   2.109   0.800   1.742  0.7121  0.3013  1.2650
  632SOL    HW2 1896   2.270   0.801   1.765 -1.2877  0.5482 -0.4147
  633SOL     OW 1897   1.109   1.765   0.352  0.1746  0.0058  0.1953
  633SOL    HW1 1898   1.008   1.772   0.329 -3.6354  2.0004 -0.9018
  633SOL    HW2 1899   1.156   1.850   0.322 -0.3744 -0.2233  0.1616
  634SOL     OW 1900   2.661   0.024   1.644 -0.0951  0.1525 -0.2670
  634SOL    HW1 1901   2.561   0.051   1.645 -1.8622 -1.9712 -0.3547
  634SOL    HW2 1902   2.715   0.115   1.652 -1.6201  3.3536 -1.0262
  635SOL     OW 1903   1.649   0.391   0.788  0.5115 -0.0296 -0.3667
  635SOL    HW1 1904   1.707   0.453   0.847 -0.7482  1.4328  1.8890
  635SOL    HW2 1905   1.670   0.291   0.799  0.8620 -0.6680  2.5236
  636SOL     OW 1906   0.706   0.878   3.001 -0.0097 -0.0857 -0.4401
  636SOL    HW1 1907   0.788   0.934   2.967  0.6772  1.3870 -1.2571
  636SOL    HW2 1908   0.726   0.778   3.015 -1.2675 -2.2732  1.1165
  637SOL     OW 1909   2.949   2.151   2.942  0.1216  0.8689 -0.0770
  637SOL    HW1 1910   2.963   2.047   2.956  0.1638 -1.5791 -1.2221
  637SOL    HW2 1911   3.024   2.207   2.978  0.7182  0.6236 -2.1578
  638SOL     OW 1912   1.492   2.485   2.829  0.1223 -0.1140  0.7236
  638SOL    HW1 1913   1.433   2.557   2.788 -1.6167 -0.5915  1.2475
  638SOL    HW2 1914   1.524   2.435   2.746  3.6662 -2.2569  0.1226
  639SOL     OW 1915   1.609   1.662   0.874  0.1238 -0.0901  0.5827
  639SOL    HW1 1916   1.526   1.717   0.890  2.9155 -2.0357  1.3880
  639SOL    HW2 1917   1.645   1.666   0.777 -0.9495  0.0542 -0.0446
  640SOL     OW 1918   1.959   2.857   0.402  0.3755  0.2919 -0.1149
  640SOL    HW1 1919   2.051   2.818   0.409 -1.3780  0.4308  1.8622
  640SOL    HW2 1920   1.924   2.844   0.305 -0.6620  6.0061 -2.1795
  641SOL     OW 1921   2.755   0.377   2.861 -0.1417 -0.3422  0.2593
  641SOL    HW1 1922   2.723   0.301   2.798  2.3187 -1.4248 -1.3560
  641SOL    HW2 1923   2.682   0.447   2.861 -0.9347 -2.2423  2.4968
  642SOL     OW 1924   3.030   0.867   1.250 -0.0062  0.0524  0.4370
  642SOL    HW1 1925   2.930   0.871   1.238  0.6922 -1.6562 -0.1126
  642SOL    HW2 1926   3.062   0.944   1.311  1.9813 -3.5229 -1.5832
  643SOL     OW 1927   0.524   1.454   2.091 -0.2027  0.1493 -0.3130
  643SOL    HW1 1928   0.525   1.460   2.192 -0.7381 -2.8625 -0.0811
  643SOL    HW2 1929   0.580   1.533   2.050 -0.6104 -1.4513 -0.6729
  644SOL     OW 1930   2.083   2.317   0.656  0.4361 -0.2542 -0.4885
  644SOL    HW1 1931   2.053   2.413   0.634 -2.5371 -0.4667 -0.8392
  644SOL    HW2 1932   2.031   2.279   0.735  0.8711 -0.2857 -1.1415
  645SOL     OW 1933   1.999   1.984   1.095  0.2469 -0.2061  0.0887
  645SOL    HW1 1934   1.964   1.920   1.024 -0.1047 -0.2044 -0.4740
  645SOL    HW2 1935   1.930   1.984   1.173 -0.1146 -2.0178  0.9420
  646SOL     OW 1936   1.043   2.283   2.875 -0.0548  0.2039  0.8901
  646SOL    HW1 1937   0.976   2.225   2.924 -0.8503  2.9221  2.3611
  646SOL    HW2 1938   1.126   2.309   2.929  0.6097  0.5718  0.1897
  647SOL     OW 1939   0.882   2.763   1.802  0.0362 -0.4635 -0.0816
  647SOL    HW1 1940   0.980   2.746   1.812 -0.2196  1.9814 -0.5722
  647SOL    HW2 1941   0.858   2.860   1.827 -0.5786  1.9995 -2.8176
  648SOL     OW 1942   1.632   0.520   1.380 -0.4191 -0.0091 -0.2030
  648SOL    HW1 1943   1.731   0.506   1.356  0.5239  1.8866  1.0994
  648SOL    HW2 1944   1.574   0.436   1.371  1.3885 -1.3534  0.7778
  649SOL     OW 1945   1.548   2.172   0.245 -0.0161 -0.1449 -0.3401
  649SOL    HW1 1946   1.536   2.194   0.148  1.0018  1.0567  2.6123
  649SOL    HW2 1947   1.539   2.070   0.260 -2.1781 -2.7504 -0.1484
  650SOL     OW 1948   2.147   1.606   1.586  0.3576 -0.6347 -0.3177
  650SOL    HW1 1949   2.152   1.592   1.484 -0.9113  0.7597 -1.0476
  650SOL    HW2 1950   2.134   1.704   1.605  1.1529 -0.7004  2.5496
  651SOL     OW 1951   1.873   2.580   0.141  0.0126 -0.9163 -0.2599
  651SOL    HW1 1952   1.848   2.676   0.103 -0.3078  1.7188 -1.8814
  651SOL    HW2 1953   1.937   2.534   0.077  0.7744  2.1348 -0.5465
  652SOL     OW 1954   0.694   1.980   0.218  0.2059 -0.3002  0.0094
  652SOL    HW1 1955   0.595   1.949   0.214 -2.2645 -0.0818 -0.9945
  652SOL    HW2 1956   0.726   2.010   0.126 -0.3790 -1.9492 -1.0009
  653SOL     OW 1957   2.635   2.751   1.179  0.2446 -0.4280  0.5078
  653SOL    HW1 1958   2.573   2.717   1.252  1.1970  0.4893  1.7645
  653SOL    HW2 1959   2.589   2.800   1.102 -0.7585  1.2503  3.7162
  654SOL     OW 1960   2.836   2.890   1.661 -0.5785 -0.2322 -0.2822
  654SOL    HW1 1961   2.939   2.896   1.679  2.5193  0.5213  4.3592
  654SOL    HW2 1962   2.800   2.982   1.653  2.3789 -0.7550  0.0193
  655SOL     OW 1963   2.969   1.809   0.949  0.3730  0.4710  0.0416
  655SOL    HW1 1964   3.038   1.734   0.960  0.2883 -0.2338  0.1346
  655SOL    HW2 1965   2.919   1.810   1.040  0.5952  1.2285 -0.9895
  656SOL     OW 1966   2.918   0.129   2.330  0.2578  0.0469 -0.0541
  656SOL    HW1 1967   2.902   0.118   2.431 -0.1264  0.0753  5.6827
  656SOL    HW2 1968   3.001   0.077   2.306  0.1955 -0.5394 -0.3000
  657SOL     OW 1969   2.631   1.400   2.922  0.1306 -0.8479  0.1959
  657SOL    HW1 1970   2.637   1.317   2.974  1.6934 -1.1684 -1.9343
  657SOL    HW2 1971   2.537   1.416   2.893  2.2611 -2.0436 -0.2539
  658SOL     OW 1972   2.372   1.808   0.843 -0.1860 -0.0976 -0.4305
  658SOL    HW1 1973   2.276   1.816   0.821  0.6379 -0.7265 -1.3485
  658SOL    HW2 1974   2.417   1.759   0.759  1.7823 -1.7237 -0.6530
  659SOL     OW 1975   1.464   0.337   1.118  0.0002  0.5054 -0.0716
  659SOL    HW1 1976   1.566   0.329   1.127 -2.3804 -2.6355  0.4405
  659SOL    HW2 1977   1.421   0.330   1.210  1.8294  3.9878  1.2419
  660SOL     OW 1978   1.604   1.358   3.036  0.1668  0.2547 -0.0063
  660SOL    HW1 1979   1.589   1.259   3.029 -2.6619 -1.5225 -1.1581
  660SOL    HW2 1980   1.519   1.409   3.061  0.5902  0.0401  2.2508
  661SOL     OW 1981   0.284   2.175   0.800  0.0097 -0.1409 -0.8922
  661SOL    HW1 1982   0.260   2.273   0.795  0.4103 -0.7479  1.1236
  661SOL    HW2 1983   0.384   2.173   0.770  0.9214  0.2929 -0.2206
  662SOL     OW 1984   0.078   0.645   2.364  0.3927 -0.2289  0.0565
  662SOL    HW1 1985   0.058   0.722   2.433 -2.1066 -0.8018  2.1224
  662SOL    HW2 1986   0.001   0.580   2.359 -0.6420 -0.0352  1.5811
  663SOL     OW 1987   1.852   1.275   0.880  0.0377  0.0630 -0.0969
  663SOL    HW1 1988   1.785   1.215   0.834 -0.4733  1.4439  0.7121
  663SOL    HW2 1989   1.898   1.234   0.964  1.2173 -1.2233 -1.0658
  664SOL     OW 1990   0.943   0.837   1.297  0.0569 -0.3924  0.0081
  664SOL    HW1 1991   0.933   0.800   1.389 -1.7286  1.4685 -2.1053
  664SOL    HW2 1992   1.043   0.849   1.268  0.7125  2.0582  3.0130
  665SOL     OW 1993   1.296   2.652   2.706 -0.4360 -0.4888 -0.9543
  665SOL    HW1 1994   1.249   2.714   2.774  1.3222  0.5009  2.6442
  665SOL    HW2 1995   1.365   2.703   2.644  2.6759 -0.8368  0.3649
  666SOL     OW 1996   2.856   2.935   2.450  0.0461 -0.1651  0.3511
  666SOL    HW1 1997   2.893   2.939   2.548  0.4344 -3.7250  1.5948
  666SOL    HW2 1998   2.758   2.908   2.447 -0.2625  0.9405 -0.8328
  667SOL     OW 1999   2.238   1.412   1.954 -0.2738  0.3027 -0.1055
  667SOL    HW1 2000   2.304   1.443   1.889 -0.4771  1.1017  2.4095
  667SOL    HW2 2001   2.253   1.310   1.962  1.7250 -3.2304 -2.1973
  668SOL     OW 2002   0.316   1.229   2.604 -0.4027  0.1755 -0.5176
  668SOL    HW1 2003   0.279   1.304   2.667 -1.6229  0.1650 -0.6064
  668SOL    HW2 2004   0.304   1.252   2.506  0.1627 -0.8097  1.8621
  669SOL     OW 2005   1.969   2.306   2.449  0.0421  0.0183  0.2540
  669SOL    HW1 2006   1.919   2.221   2.421 -0.0263  0.4108  1.3563
  669SOL    HW2 2007   2.069   2.284   2.477  1.9560  1.4812  1.5437
  670SOL     OW 2008   2.357   1.159   1.976 -0.1479 -0.2911 -0.0682
  670SOL    HW1 2009   2.453   1.200   1.988  3.1753  2.5709 -0.7120
  670SOL    HW2 2010   2.354   1.072   2.028  1.0627 -2.5371  0.4339
  671SOL     OW 2011   2.418   1.344   0.134 -0.7139 -0.2143 -0.0952
  671SOL    HW1 2012   2.501   1.314   0.081  0.2075  1.2835  0.9468
  671SOL    HW2 2013   2.392   1.442   0.115 -2.9459 -1.3035 -0.4049
  672SOL     OW 2014   2.616   1.217   2.041  0.2487 -0.4518 -0.0735
  672SOL    HW1 2015   2.679   1.247   1.967 -1.1118  0.1450 -0.8068
  672SOL    HW2 2016   2.620   1.285   2.123  2.4904 -0.1136  0.5361
  673SOL     OW 2017   2.744   0.899   1.605  0.1686 -0.2147  0.4586
  673SOL    HW1 2018   2.816   0.928   1.666 -0.8919  0.1806 -2.9922
  673SOL    HW2 2019   2.752   0.798   1.574  1.5186  0.8251 -1.9158
  674SOL     OW 2020   2.120   1.874   1.573 -0.0265 -0.1740 -0.1954
  674SOL    HW1 2021   2.020   1.909   1.589 -2.8390  0.0966 -0.5735
  674SOL    HW2 2022   2.148   1.892   1.476  1.0608  1.0125  0.1662
  675SOL     OW 2023   0.404   0.623   0.927  0.4731  0.0683 -0.4713
  675SOL    HW1 2024   0.400   0.653   1.023  0.9082 -1.3221 -0.2458
  675SOL    HW2 2025   0.319   0.650   0.880 -1.2619 -0.5323 -0.3434
  676SOL     OW 2026   1.627   1.207   1.169  0.0809 -0.1493 -0.7311
  676SOL    HW1 2027   1.618   1.305   1.143 -3.0881  4.1400 -2.5019
  676SOL    HW2 2028   1.724   1.196   1.202  2.2632 -0.5467 -0.9365
  677SOL     OW 2029   2.329   1.454   2.217  0.2141 -0.2265 -0.1773
  677SOL    HW1 2030   2.285   1.453   2.128  1.8231  0.7170  3.6091
  677SOL    HW2 2031   2.355   1.554   2.235  0.4228  0.0393  1.0700
  678SOL     OW 2032   0.225   1.476   0.623  1.0137  0.0211 -0.0023
  678SOL    HW1 2033   0.251   1.445   0.531  0.1793  0.0490 -1.5538
  678SOL    HW2 2034   0.122   1.485   0.630  1.3235 -0.7226  0.3096
  679SOL     OW 2035   2.636   2.664   0.457  0.0462  0.1785  0.7326
  679SOL    HW1 2036   2.638   2.697   0.360  1.5163 -1.9421 -3.1565
  679SOL    HW2 2037   2.712   2.609   0.492  1.7880  0.9700  0.2931
  680SOL     OW 2038   2.925   2.223   1.505  0.0720 -0.0940 -0.6257
  680SOL    HW1 2039   2.833   2.190   1.500 -0.5070 -2.7931  2.8891
  680SOL    HW2 2040   2.940   2.263   1.598  0.4739  0.5502  1.0356
  681SOL     OW 2041   0.448   1.281   1.201 -0.1652 -0.1659 -0.1996
  681SOL    HW1 2042   0.469   1.184   1.186 -0.1874  3.1852  1.4676
  681SOL    HW2 2043   0.488   1.313   1.288  1.6231  1.2228  0.7880
  682SOL     OW 2044   1.494   2.395   0.864 -0.3156  0.2895  0.4756
  682SOL    HW1 2045   1.422   2.438   0.920 -0.4793 -1.3722 -0.7101
  682SOL    HW2 2046   1.552   2.323   0.914  2.6343 -3.5322  2.8187
  683SOL     OW 2047   2.356   1.454   0.772  0.5472  0.2109 -0.0731
  683SOL    HW1 2048   2.437   1.494   0.809 -1.9914 -2.5614 -0.7961
  683SOL    HW2 2049   2.357   1.454   0.671  2.3138  0.7286 -1.7203
  684SOL     OW 2050   0.756   2.176   2.162 -0.1298  0.0697 -0.6831
  684SOL    HW1 2051   0.836   2.115   2.181  1.2545 -0.9155  0.9319
  684SOL    HW2 2052   0.739   2.191   2.064  1.2537  0.0761 -0.1415
  685SOL     OW 2053   2.189   1.369   0.294  0.3879  0.0733  0.3769
  685SOL    HW1 2054   2.272   1.363   0.230  1.4292 -0.0580  1.9792
  685SOL    HW2 2055   2.117   1.428   0.260  1.0510 -0.7754 -0.2520
  686SOL     OW 2056   0.120   0.450   0.711  0.3567  0.5292  0.0229
  686SOL    HW1 2057   0.053   0.386   0.674 -0.2631 -1.9487  2.9766
  686SOL    HW2 2058   0.189   0.469   0.634 -0.9413 -0.3190 -1.8746
  687SOL     OW 2059   1.440   2.655   3.067 -0.2025  0.5480 -0.1751
  687SOL    HW1 2060   1.432   2.696   0.075  1.0126 -1.3548  0.7550
  687SOL    HW2 2061   1.499   2.571   3.068  3.3112 -1.5536  3.3486
  688SOL     OW 2062   1.948   2.030   1.990  0.2395  0.3659  0.1788
  688SOL    HW1 2063   2.011   1.962   1.951 -0.6106 -0.3614  1.3306
  688SOL    HW2 2064   1.858   2.038   1.941 -0.8549  0.7464 -3.7972
  689SOL     OW 2065   2.367   0.897   2.089 -0.4531  0.0860 -0.0814
  689SOL    HW1 2066   2.425   0.825   2.047  0.8593 -0.4007  0.0428
  689SOL    HW2 2067   2.357   0.880   2.190  1.5088  1.4432 -1.7023
  690SOL     OW 2068   2.003   0.770   1.249  0.4125  0.3263  0.8369
  690SOL    HW1 2069   1.922   0.834   1.236 -1.5414  2.2147  0.7511
  690SOL    HW2 2070   1.996   0.716   1.331 -0.2353  1.4328 -0.1842
  691SOL     OW 2071   1.167   1.854   1.593 -0.1370  0.3844 -0.2224
  691SOL    HW1 2072   1.145   1.783   1.523  1.2562 -0.4229 -1.0268
  691SOL    HW2 2073   1.195   1.941   1.549  1.6316 -0.7047 -0.0486
  692SOL     OW 2074   1.735   0.300   1.697  0.0410  0.2008 -0.4853
  692SOL    HW1 2075   1.674   0.381   1.692  2.2975 -0.5271  1.0624
  692SOL    HW2 2076   1.731   0.255   1.604  1.2550  0.4998 -0.9209
  693SOL     OW 2077   0.502   1.232   2.840 -0.0238  0.0510  0.3368
  693SOL    HW1 2078   0.498   1.142   2.889 -3.4067  2.1622 -1.7135
  693SOL    HW2 2079   0.454   1.212   2.752  1.0912 -1.9052 -0.2225
  694SOL     OW 2080   2.003   2.771   1.096  0.5277 -0.1984  0.5403
  694SOL    HW1 2081   1.982   2.730   1.006 -1.9383  0.1589 -1.3117
  694SOL    HW2 2082   2.068   2.707   1.141  1.3138 -1.9509 -1.3760
  695SOL     OW 2083   1.569   1.523   2.118 -0.7101  0.6413  0.8301
  695SOL    HW1 2084   1.521   1.549   2.030  1.0635  1.2302 -2.5533
  695SOL    HW2 2085   1.506   1.497   2.192  0.1105  1.5723  0.1488
  696SOL     OW 2086   1.754   0.384   1.174 -0.1456  0.0801  0.4923
  696SOL    HW1 2087   1.843   0.361   1.211  1.4216 -0.8101 -0.0428
  696SOL    HW2 2088   1.759   0.458   1.102 -2.6662 -4.7019  0.3109
  697SOL     OW 2089   1.454   0.328   1.378 -0.1837  0.6085  0.2935
  697SOL    HW1 2090   1.395   0.329   1.462 -0.1857 -3.7406 -0.2346
  697SOL    HW2 2091   1.499   0.237   1.370  1.0665  2.2941 -0.4355
  698SOL     OW 2092   1.781   1.321   2.101  0.1669 -0.0801 -0.2444
  698SOL    HW1 2093   1.814   1.279   2.019 -0.1883 -0.7803  0.6699
  698SOL    HW2 2094   1.691   1.367   2.078  0.4789 -0.7168 -3.0984
  699SOL     OW 2095   1.504   1.072   1.381 -0.5550  0.5259 -0.0357
  699SOL    HW1 2096   1.529   1.132   1.303 -0.5900  0.1057  2.2068
  699SOL    HW2 2097   1.419   1.022   1.361  1.6722  0.2261 -0.0950
  700SOL     OW 2098   1.536   0.159   0.199  0.0170  0.0339  0.5063
  700SOL    HW1 2099   1.587   0.246   0.181  3.1032 -1.4640  0.0996
  700SOL    HW2 2100   1.440   0.185   0.212 -3.7188  1.3788  1.8588
  701SOL     OW 2101   0.388   0.059   1.699  0.1483  0.2884  0.5094
  701SOL    HW1 2102   0.427   0.016   1.779 -3.8918  2.4086  0.1229
  701SOL    HW2 2103   0.362   3.074   1.627 -0.8988  2.5556 -1.1388
  702SOL     OW 2104   1.432   2.859   0.170  0.7054 -0.0847  0.0497
  702SOL    HW1 2105   1.513   2.832   0.226 -3.5040 -1.2406  0.7098
  702SOL    HW2 2106   1.453   2.918   0.088 -0.3083 -1.4903 -1.1481
  703SOL     OW 2107   2.506   0.232   2.164 -0.2718 -0.1867  0.0144
  703SOL    HW1 2108   2.477   0.329   2.164  1.6646 -2.5418  0.1822
  703SOL    HW2 2109   2.452   0.181   2.094 -0.7377 -2.2625  0.2325
  704SOL     OW 2110   1.189   2.141   1.118 -0.1467 -0.3612  0.3657
  704SOL    HW1 2111   1.285   2.119   1.143 -0.3830 -1.9082 -2.7764
  704SOL    HW2 2112   1.129   2.073   1.162  0.1137 -1.3695  0.0388
  705SOL     OW 2113   2.982   1.330   2.062  0.3060 -0.5574 -0.6782
  705SOL    HW1 2114   2.926   1.403   2.106 -1.0196 -0.8751 -1.7861
  705SOL    HW2 2115   2.958   1.302   1.966  2.5740  0.7028  1.0404
  706SOL     OW 2116   1.618   0.014   0.515 -0.6166 -0.2603  0.2413
  706SOL    HW1 2117   1.530   0.055   0.496  2.2538  2.1725 -0.2513
  706SOL    HW2 2118   1.654   3.044   0.439  1.3771  1.4418 -0.3862
  707SOL     OW 2119   1.109   2.068   2.463  0.0973 -0.0750  0.4466
  707SOL    HW1 2120   1.032   2.131   2.489  0.0385 -3.5589 -1.8989
  707SOL    HW2 2121   1.175   2.068   2.540  1.9801 -1.5204 -2.3052
  708SOL     OW 2122   3.000   2.014   1.354  0.1831  0.0994  0.0808
  708SOL    HW1 2123   3.040   1.941   1.410  0.4028  0.5635  2.0226
  708SOL    HW2 2124   2.975   2.091   1.411 -0.6978 -2.1440 -2.5354
  709SOL     OW 2125   1.740   0.610   1.918  1.0097 -0.0262 -0.0744
  709SOL    HW1 2126   1.718   0.564   1.831  0.6688 -0.7516  2.3003
  709SOL    HW2 2127   1.794   0.548   1.970  1.1182 -1.5398 -1.7316
  710SOL     OW 2128   2.860   0.364   1.413  0.0453  0.5723  0.3090
  710SOL    HW1 2129   2.817   0.288   1.356 -1.8343 -1.9842 -0.8440
  710SOL    HW2 2130   2.867   0.448   1.363 -0.7593 -2.0732  0.6157
  711SOL     OW 2131   0.200   2.512   0.818 -0.1492 -0.8147  0.0290
  711SOL    HW1 2132   0.200   2.492   0.915 -0.2406 -2.8954 -1.6623
  711SOL    HW2 2133   0.116   2.552   0.789  1.9722 -3.1738  1.2823
  712SOL     OW 2134   0.358   2.055   2.458  0.2097 -0.3660 -0.2288
  712SOL    HW1 2135   0.387   1.961   2.434  1.3633  3.1740  2.3660
  712SOL    HW2 2136   0.360   2.113   2.372  0.1927 -0.9598  0.9242
  713SOL     OW 2137   1.508   0.725   0.089 -0.1177  0.4644  0.0593
  713SOL    HW1 2138   1.537   0.811   0.133 -0.1930 -1.6116 -2.1021
  713SOL    HW2 2139   1.582   0.676   0.031  1.6146  1.3874 -1.5393
  714SOL     OW 2140   1.522   1.894   0.302 -0.0262 -0.5083  0.4640
  714SOL    HW1 2141   1.461   1.872   0.229  0.1500  0.6921  1.5281
  714SOL    HW2 2142   1.482   1.914   0.393 -1.1686  0.5345  0.0617
  715SOL     OW 2143   2.681   0.158   0.363  0.2059 -0.1902 -0.4911
  715SOL    HW1 2144   2.592   0.126   0.406 -0.4278  1.5830  2.9374
  715SOL    HW2 2145   2.753   0.143   0.433  0.6262  1.9849  0.3664
  716SOL     OW 2146   0.390   0.228   2.286  0.3310  0.0422  0.3655
  716SOL    HW1 2147   0.432   0.267   2.370 -1.1089 -0.8956 -0.4569
  716SOL    HW2 2148   0.291   0.257   2.269 -1.7116  1.6263 -0.1887
  717SOL     OW 2149   0.037   0.229   2.540 -0.1654  0.0274  0.2576
  717SOL    HW1 2150   0.093   0.144   2.529 -2.3458  0.6235  0.1458
  717SOL    HW2 2151   3.081   0.229   2.634  0.8774 -1.5074 -0.8282
  718SOL     OW 2152   0.986   0.703   0.563 -0.5235  0.1709 -0.3952
  718SOL    HW1 2153   0.979   0.600   0.572  0.4382 -2.9006  2.9425
  718SOL    HW2 2154   1.070   0.724   0.510 -4.0515 -0.2235 -2.6067
  719SOL     OW 2155   2.696   2.096   2.890 -0.5995 -0.2212 -0.0514
  719SOL    HW1 2156   2.665   2.061   2.796 -1.1830 -0.7473 -0.1550
  719SOL    HW2 2157   2.802   2.111   2.894  1.8064 -4.7527 -0.0849
  720SOL     OW 2158   1.613   0.757   1.242 -0.2667 -0.1609  0.1441
  720SOL    HW1 2159   1.553   0.739   1.164  0.2872 -1.7331  1.2869
  720SOL    HW2 2160   1.615   0.674   1.298 -0.5568  3.8911  0.4547
  721SOL     OW 2161   2.733   0.743   0.886  0.4845 -0.3543 -0.4578
  721SOL    HW1 2162   2.744   0.726   0.784  0.3140 -1.2335 -3.7835
  721SOL    HW2 2163   2.814   0.701   0.935  0.7108 -0.2523  1.6501
  722SOL     OW 2164   1.422   1.865   2.633  0.3859 -0.2309 -0.3540
  722SOL    HW1 2165   1.369   1.945   2.610  1.1508 -1.7585  1.4769
  722SOL    HW2 2166   1.368   1.784   2.658 -0.5430 -3.4350  0.0256
  723SOL     OW 2167   0.609   0.676   0.397  0.5879  0.1593  0.4561
  723SOL    HW1 2168   0.680   0.747   0.388 -3.8343 -0.0213  0.0598
  723SOL    HW2 2169   0.537   0.721   0.456 -0.9375  2.0471  1.8689
  724SOL     OW 2170   1.023   1.852   1.833  0.3104 -0.2450 -0.0138
  724SOL    HW1 2171   1.090   1.857   1.752  1.3456  1.6595  0.2489
  724SOL    HW2 2172   0.933   1.896   1.803 -0.1037  1.4271 -0.9790
  725SOL     OW 2173   0.059   1.051   1.413  0.4476 -0.4205 -0.4201
  725SOL    HW1 2174   3.063   1.109   1.412  1.9529 -1.1495  0.7005
  725SOL    HW2 2175   0.148   1.099   1.414  3.4932 -0.8101  3.0509
  726SOL     OW 2176   1.739   0.599   0.619 -0.1251  0.3021 -0.4043
  726SOL    HW1 2177   1.665   0.540   0.649  2.0980  0.1855  0.5970
  726SOL    HW2 2178   1.731   0.635   0.526  0.3247  1.0831  1.5853
  727SOL     OW 2179   1.553   1.002   2.349  0.0919 -0.2519  0.7899
  727SOL    HW1 2180   1.504   1.053   2.277  2.1439 -0.6655  2.5729
  727SOL    HW2 2181   1.485   0.964   2.415  1.9195  1.2141 -0.6221
  728SOL     OW 2182   1.722   2.530   1.265 -0.6818  0.1532  0.0196
  728SOL    HW1 2183   1.709   2.624   1.237  0.3068 -0.7066  0.5394
  728SOL    HW2 2184   1.760   2.521   1.357 -0.2814 -0.2189  0.4550
  729SOL     OW 2185   1.326   0.591   1.417  0.6631 -0.0574  0.3428
  729SOL    HW1 2186   1.423   0.581   1.389 -1.9420 -0.4113  0.9645
  729SOL    HW2 2187   1.307   0.517   1.487 -2.1925  0.3509  2.2828
  730SOL     OW 2188   0.809   2.016   1.715  0.0012  0.0601 -0.4659
  730SOL    HW1 2189   0.779   2.094   1.777  0.2236  2.4470  1.5737
  730SOL    HW2 2190   0.796   2.045   1.622 -1.0484  0.1484 -0.2029
  731SOL     OW 2191   0.499   0.278   0.247 -0.0961  0.2892 -0.5457
  731SOL    HW1 2192   0.400   0.266   0.261  2.3582 -1.0904 -2.1669
  731SOL    HW2 2193   0.529   0.221   0.165 -2.7410  1.1036  0.7167
  732SOL     OW 2194   0.765   0.582   3.063  0.7370  0.4117 -0.1078
  732SOL    HW1 2195   0.766   0.557   0.078  1.6618 -0.1666 -3.1156
  732SOL    HW2 2196   0.671   0.560   3.023 -2.5785 -2.2507 -1.8150
  733SOL     OW 2197   1.401   1.624   1.611  0.0394  0.6572 -0.3752
  733SOL    HW1 2198   1.491   1.578   1.610  1.8109  0.3954 -1.6108
  733SOL    HW2 2199   1.322   1.553   1.612  2.6072  0.6871 -0.4673
  734SOL     OW 2200   3.030   2.736   2.361 -0.5768  0.1202  0.1168
  734SOL    HW1 2201   2.969   2.813   2.389  0.6790  0.8533  0.2505
  734SOL    HW2 2202   3.056   2.742   2.266 -1.4633 -1.0774 -1.3977
  735SOL     OW 2203   0.934   2.641   0.991  0.2894  0.8738  0.2827
  735SOL    HW1 2204   0.981   2.685   0.912 -0.0536 -3.5602  2.0773
  735SOL    HW2 2205   0.972   2.547   1.004  4.9896 -0.9711 -0.1061
  736SOL     OW 2206   1.391   0.855   2.505 -0.6942  0.5894 -0.4497
  736SOL    HW1 2207   1.359   0.759   2.476 -3.1582  0.6198 -1.3070
  736SOL    HW2 2208   1.312   0.907   2.545  2.1355 -0.9259 -0.7003
  737SOL     OW 2209   0.093   0.791   0.322 -0.4237  0.1577 -0.2496
  737SOL    HW1 2210   0.120   0.796   0.418 -1.0508  1.6687  1.6012
  737SOL    HW2 2211   0.027   0.865   0.303  2.1488  1.8451  0.7354
  738SOL     OW 2212   0.338   2.754   1.440  0.0496  0.0431  0.4076
  738SOL    HW1 2213   0.239   2.758   1.458  2.3370 -0.4236 -1.9932
  738SOL    HW2 2214   0.349   2.729   1.341  0.3247  2.2296 -0.7318
  739SOL     OW 2215   1.685   2.921   0.733 -0.0785  0.3280  0.1729
  739SOL    HW1 2216   1.618   2.924   0.809 -3.1605 -0.4905 -2.8014
  739SOL    HW2 2217   1.654   2.986   0.663 -1.6361 -0.8845  0.6996
  740SOL     OW 2218   1.410   2.845   1.143  0.1935  0.4877 -0.0829
  740SOL    HW1 2219   1.491   2.842   1.205 -1.1059 -0.0281 -5.1590
  740SOL    HW2 2220   1.326   2.810   1.193 -3.1386  1.6590  2.2085
  741SOL     OW 2221   1.953   0.451   0.608 -0.2452  0.2258  0.0867
  741SOL    HW1 2222   1.877   0.514   0.635  0.7539 -1.6459 -2.2555
  741SOL    HW2 2223   1.944   0.367   0.669 -3.3243  0.3284  2.4242
  742SOL     OW 2224   1.276   2.156   1.884 -0.1801 -0.0004  0.2963
  742SOL    HW1 2225   1.209   2.223   1.846  2.2128  1.1545 -2.1928
  742SOL    HW2 2226   1.344   2.133   1.814 -0.4528 -2.1748  0.5564
  743SOL     OW 2227   1.990   0.743   2.197  0.1812 -0.5443  0.4264
  743SOL    HW1 2228   1.998   0.845   2.198 -2.0707 -0.8222 -1.9735
  743SOL    HW2 2229   1.981   0.715   2.098 -2.2083 -1.5468 -4.5123
  744SOL     OW 2230   2.316   0.338   0.741  0.0741  0.6229 -0.2174
  744SOL    HW1 2231   2.314   0.376   0.649 -0.4499 -0.1664  0.8592
  744SOL    HW2 2232   2.344   0.412   0.806  2.1632 -0.2632 -1.7135
  745SOL     OW 2233   2.137   1.828   1.914 -1.0805 -0.1820 -0.4369
  745SOL    HW1 2234   2.181   1.822   1.826 -0.5338 -0.6351  0.2199
  745SOL    HW2 2235   2.096   1.741   1.949  1.6556  1.0116  0.1321
  746SOL     OW 2236   1.245   1.630   0.946 -0.4446 -0.1060  0.0342
  746SOL    HW1 2237   1.149   1.654   0.923  2.7938 -0.3171  1.1551
  746SOL    HW2 2238   1.267   1.642   1.043  1.9706 -0.7784 -0.6456
  747SOL     OW 2239   2.015   1.130   1.042 -0.3072  0.3463 -0.8062
  747SOL    HW1 2240   2.005   1.123   1.142 -0.6882  0.1309 -0.4203
  747SOL    HW2 2241   2.013   1.038   0.993  0.1603 -3.9118 -0.2077
  748SOL     OW 2242   0.201   2.951   0.254 -0.2826  0.1058  0.1986
  748SOL    HW1 2243   0.256   3.005   0.321 -1.9415  0.0994  0.2695
  748SOL    HW2 2244   0.192   2.857   0.285  2.2612  0.3378  1.3298
  749SOL     OW 2245   0.135   0.303   2.236 -0.6374  0.6020 -0.2784
  749SOL    HW1 2246   0.082   0.325   2.154  1.0576  1.3297  0.9718
  749SOL    HW2 2247   0.083   0.334   2.315  1.8711 -1.5276  1.3079
  750SOL     OW 2248   1.574   2.847   1.574 -0.1097  0.3014  0.1264
  750SOL    HW1 2249   1.637   2.874   1.650 -1.2849  2.6531 -0.1005
  750SOL    HW2 2250   1.552   2.745   1.581 -1.1104  1.6096  0.5428
  751SOL     OW 2251   2.897   0.528   0.770  0.7510  0.3274 -0.4966
  751SOL    HW1 2252   2.909   0.503   0.670  0.7714 -1.9854 -1.5302
  751SOL    HW2 2253   2.970   0.494   0.831 -0.6682  1.0567  0.9868
  752SOL     OW 2254   0.316   2.984   0.964  0.1041 -0.6001  0.1794
  752SOL    HW1 2255   0.325   3.074   0.907  0.5021 -0.0143 -0.3849
  752SOL    HW2 2256   0.317   2.911   0.891  2.5923 -1.6890 -2.7924
  753SOL     OW 2257   1.030   0.322   1.368  0.1549  0.1156  0.3083
  753SOL    HW1 2258   1.067   0.249   1.306  0.9751 -0.4606  0.1401
  753SOL    HW2 2259   1.036   0.293   1.463  0.6272  0.3278 -2.7203
  754SOL     OW 2260   0.864   2.625   2.253  0.6421 -0.2838 -0.3404
  754SOL    HW1 2261   0.777   2.568   2.233 -2.9631 -1.4627  1.7392
  754SOL    HW2 2262   0.865   2.713   2.198 -1.5759  0.7193 -1.2050
  755SOL     OW 2263   2.369   1.482   0.494 -0.3950  0.2619 -0.6293
  755SOL    HW1 2264   2.461   1.507   0.456 -0.0728  1.3937  0.2497
  755SOL    HW2 2265   2.318   1.429   0.420  0.5845 -0.8410 -2.4269
  756SOL     OW 2266   2.091   2.050   2.689  0.5523 -0.0330  0.3121
  756SOL    HW1 2267   2.061   2.133   2.747  1.6066  1.1130  1.1693
  756SOL    HW2 2268   2.188   2.060   2.664  0.8429  1.9641  1.3801
  757SOL     OW 2269   1.767   0.104   1.074  0.4746 -0.5169  0.0878
  757SOL    HW1 2270   1.767   0.197   1.104  2.4525 -1.5841  1.5565
  757SOL    HW2 2271   1.716   0.102   0.984 -1.4391  0.6860 -1.0150
  758SOL     OW 2272   1.498   2.543   0.649  0.0865  0.5915 -0.3829
  758SOL    HW1 2273   1.504   2.482   0.732  0.6472 -1.0805  1.0635
  758SOL    HW2 2274   1.462   2.493   0.565  2.2286  0.9274  1.2170
  759SOL     OW 2275   2.536   0.522   1.186 -0.1854  0.3951  0.4406
  759SOL    HW1 2276   2.513   0.552   1.090 -1.6886 -1.2465 -0.3465
  759SOL    HW2 2277   2.471   0.450   1.215  1.4004 -2.3184  2.6427
  760SOL     OW 2278   2.420   1.144   1.300 -0.3706  0.2995  0.2671
  760SOL    HW1 2279   2.342   1.194   1.344  0.2336  1.8583 -0.7699
  760SOL    HW2 2280   2.436   1.181   1.203  1.0609  3.6092 -1.9107
  761SOL     OW 2281   0.577   0.788   0.779 -0.0940 -0.0449 -0.0344
  761SOL    HW1 2282   0.541   0.759   0.690  0.7815 -1.5033  0.9706
  761SOL    HW2 2283   0.547   0.719   0.847  0.6012 -1.2124 -1.1919
  762SOL     OW 2284   1.693   1.748   1.193  0.1443  0.1569 -0.1267
  762SOL    HW1 2285   1.719   1.680   1.264 -2.2708 -1.3977  1.2220
  762SOL    HW2 2286   1.728   1.836   1.228  0.2159  2.3394  1.8599
  763SOL     OW 2287   1.017   1.339   1.783 -0.4775  0.6084  0.2828
  763SOL    HW1 2288   0.941   1.312   1.721 -1.1191  0.7589 -0.6061
  763SOL    HW2 2289   0.978   1.388   1.862 -0.6038 -0.1501  0.1904
  764SOL     OW 2290   0.036   1.872   2.141  0.2525  0.1751 -0.1258
  764SOL    HW1 2291   0.034   1.856   2.039 -0.9195  0.5037  0.7293
  764SOL    HW2 2292   0.105   1.815   2.187 -0.7827 -1.4183  0.8969
  765SOL     OW 2293   1.566   2.251   1.283  0.1879  0.1968 -0.2677
  765SOL    HW1 2294   1.486   2.266   1.351 -2.3181 -0.0829  0.6008
  765SOL    HW2 2295   1.637   2.326   1.280 -0.4031  0.3428  0.7882
  766SOL     OW 2296   0.159   2.453   2.292  0.4712 -0.6787  0.1438
  766SOL    HW1 2297   0.137   2.519   2.367  1.8117  1.7046 -3.1853
  766SOL    HW2 2298   0.087   2.462   2.219  0.3093  0.0950  2.5511
  767SOL     OW 2299   1.291   0.640   2.373  0.2620 -0.1336  0.0968
  767SOL    HW1 2300   1.272   0.548   2.417  1.4911  4.5226 -1.5932
  767SOL    HW2 2301   1.215   0.652   2.307 -0.6575  0.9412  0.4427
  768SOL     OW 2302   1.272   2.370   2.989 -0.1286  0.2100  0.2049
  768SOL    HW1 2303   1.328   2.432   2.930 -0.7355  0.7836  0.9782
  768SOL    HW2 2304   1.312   2.277   3.003  0.0794 -1.4177  1.8513
  769SOL     OW 2305   0.292   2.758   1.171 -0.1587  0.0626  0.2257
  769SOL    HW1 2306   0.283   2.843   1.116 -0.6980 -0.0433 -0.4752
  769SOL    HW2 2307   0.257   2.674   1.126  5.1444 -2.1920 -0.0665
  770SOL     OW 2308   1.547   0.642   2.816  0.4938 -0.3211 -0.3742
  770SOL    HW1 2309   1.596   0.690   2.738 -0.2406 -0.1809 -1.7499
  770SOL    HW2 2310   1.606   0.658   2.898  0.6802  0.6013  0.3448
  771SOL     OW 2311   0.316   0.086   2.657  0.2148  0.2807  0.1525
  771SOL    HW1 2312   0.366   0.167   2.633 -1.3758 -1.5164 -0.2803
  771SOL    HW2 2313   0.254   0.047   2.586  0.2410 -1.7061 -1.3630
  772SOL     OW 2314   2.097   2.946   2.005 -0.6097 -0.3317  0.1761
  772SOL    HW1 2315   2.054   3.039   2.011  1.3191 -1.1751 -0.3669
  772SOL    HW2 2316   2.159   2.935   1.920 -0.4024  1.3163  3.1828
  773SOL     OW 2317   0.997   2.460   1.929  0.1223  0.1880 -0.1776
  773SOL    HW1 2318   1.034   2.463   2.027  0.5191  0.8459 -2.4253
  773SOL    HW2 2319   0.899   2.493   1.918  2.5330  1.1831 -0.3437
  774SOL     OW 2320   1.058   0.210   1.917  0.4634 -0.3661 -0.0053
  774SOL    HW1 2321   1.115   0.166   1.988 -2.6640  2.4717  0.0435
  774SOL    HW2 2322   1.076   0.309   1.924  3.0915 -1.8207 -0.4011
  775SOL     OW 2323   2.245   2.336   0.101 -0.1139  0.6181  0.1394
  775SOL    HW1 2324   2.238   2.309   0.200 -0.8718 -1.0586 -0.8975
  775SOL    HW2 2325   2.149   2.353   0.059 -0.6028  1.2311 -3.3945
  776SOL     OW 2326   2.184   0.594   2.312 -0.0101  0.0585  0.1005
  776SOL    HW1 2327   2.198   0.608   2.411  1.9793  0.0657 -0.1949
  776SOL    HW2 2328   2.113   0.654   2.266  0.2070 -1.0858  1.0156
  777SOL     OW 2329   2.332   1.148   2.585  0.3203 -0.1951 -0.0141
  777SOL    HW1 2330   2.288   1.186   2.670 -0.4695  1.1252  1.4364
  777SOL    HW2 2331   2.424   1.187   2.573  2.3167  0.9084  1.5129
  778SOL     OW 2332   2.041   0.995   2.273 -0.3986  0.0155 -0.2077
  778SOL    HW1 2333   1.964   1.057   2.308  1.1522 -0.0826 -0.8060
  778SOL    HW2 2334   2.053   1.020   2.173 -1.5037  1.8640 -0.1900
  779SOL     OW 2335   0.122   0.144   0.004  0.0362  0.5495 -0.3437
  779SOL    HW1 2336   0.172   0.088   3.018  2.6315 -0.9864 -0.2104
  779SOL    HW2 2337   0.107   0.241   3.057  0.8021 -1.5152 -2.8465
  780SOL     OW 2338   2.455   0.528   2.753  0.4469 -0.3293  0.1828
  780SOL    HW1 2339   2.531   0.536   2.686 -0.8301 -1.8010  1.0720
  780SOL    HW2 2340   2.483   0.567   2.845 -0.9888  0.6003  0.6464
  781SOL     OW 2341   0.351   3.033   1.463 -0.1247 -0.0614 -0.1566
  781SOL    HW1 2342   0.335   0.000   1.378 -1.9549 -0.5457 -0.7284
  781SOL    HW2 2343   0.334   2.932   1.457 -0.9139  1.1211  3.0363
  782SOL     OW 2344   1.935   2.557   0.579  0.3565 -0.3518  0.0404
  782SOL    HW1 2345   1.849   2.613   0.579  0.3838  0.0393  0.0099
  782SOL    HW2 2346   1.945   2.504   0.492 -0.0571 -3.4278  0.7613
  783SOL     OW 2347   0.838   1.325   1.547  0.4563 -0.1319  0.0393
  783SOL    HW1 2348   0.819   1.313   1.447 -0.5411 -2.3681  0.1382
  783SOL    HW2 2349   0.757   1.295   1.603  3.0009  0.1527  1.0659
  784SOL     OW 2350   1.198   0.413   2.478  0.3662 -0.4186 -0.4292
  784SOL    HW1 2351   1.243   0.323   2.491 -3.3893  1.4958 -1.7822
  784SOL    HW2 2352   1.099   0.398   2.460 -0.5116  2.0798 -1.3973
  785SOL     OW 2353   2.508   0.170   1.109  0.2478 -0.5918 -0.3826
  785SOL    HW1 2354   2.435   0.241   1.125 -0.0493  0.8639  1.9444
  785SOL    HW2 2355   2.475   0.072   1.113 -1.5723  2.4554 -1.5178
  786SOL     OW 2356   1.317   2.717   1.404 -0.0630  0.6086  0.3458
  786SOL    HW1 2357   1.403   2.697   1.448  0.1256 -1.1970 -2.4076
  786SOL    HW2 2358   1.273   2.630   1.373 -0.2937 -0.7157 -1.6815
  787SOL     OW 2359   1.782   0.149   1.454 -0.8647  0.2238  0.1263
  787SOL    HW1 2360   1.706   0.123   1.389  1.4686  1.6136  0.2619
  787SOL    HW2 2361   1.832   0.066   1.490 -0.7482 -0.9428  1.2087
  788SOL     OW 2362   3.065   1.056   0.209  0.0912 -0.2474  0.4724
  788SOL    HW1 2363   0.060   1.086   0.266 -0.3775  2.1683  0.7603
  788SOL    HW2 2364   2.996   1.132   0.208  1.1007  1.6739  0.8174
  789SOL     OW 2365   0.752   1.740   1.729 -0.2366 -0.7019  0.2486
  789SOL    HW1 2366   0.761   1.843   1.733  0.0172  2.2391 -0.5772
  789SOL    HW2 2367   0.715   1.695   1.810  1.2976  1.3455 -1.9143
  790SOL     OW 2368   0.481   0.573   2.595 -0.7518 -0.1623 -0.1545
  790SOL    HW1 2369   0.495   0.519   2.681  0.6578  0.0730  1.8623
  790SOL    HW2 2370   0.395   0.541   2.550 -0.7357  0.7538  0.4294
  791SOL     OW 2371   2.225   0.807   0.664 -0.6105 -0.7020  0.2016
  791SOL    HW1 2372   2.156   0.768   0.599 -0.3749 -0.5670  1.0995
  791SOL    HW2 2373   2.215   0.765   0.758  0.4186 -2.9353  1.4528
  792SOL     OW 2374   1.115   2.779   1.583 -0.4573  0.4341 -0.4510
  792SOL    HW1 2375   1.117   2.738   1.681 -2.2077 -1.2364 -0.6478
  792SOL    HW2 2376   1.196   2.745   1.529  1.6817  1.6860  1.0444
  793SOL     OW 2377   0.328   0.129   0.834 -1.0059 -0.1912 -1.0523
  793SOL    HW1 2378   0.346   0.226   0.865 -0.3399  1.5594  3.5943
  793SOL    HW2 2379   0.394   0.119   0.753  3.0074  1.0458  0.4920
  794SOL     OW 2380   0.088   0.957   2.074 -0.5318 -0.4477 -0.0299
  794SOL    HW1 2381   0.102   1.054   2.092 -2.5372 -0.1164  0.7741
  794SOL    HW2 2382   3.075   0.928   2.068  1.5312  1.1424 -0.0817
  795SOL     OW 2383   0.645   2.414   2.533 -0.6376  0.3287  0.5736
  795SOL    HW1 2384   0.554   2.384   2.567 -1.7079 -1.5361  1.6232
  795SOL    HW2 2385   0.706   2.335   2.545 -0.1559  2.6641  0.6621
  796SOL     OW 2386   2.112   0.325   2.314  0.6637  0.1039 -0.0203
  796SOL    HW1 2387   2.148   0.417   2.342 -0.3626 -0.6899  1.5696
  796SOL    HW2 2388   2.160   0.248   2.367  1.6056 -0.3265  1.6934
  797SOL     OW 2389   2.419   2.510   2.612  0.0956 -0.5743  0.2826
  797SOL    HW1 2390   2.467   2.420   2.616 -2.5159 -0.8434  0.3684
  797SOL    HW2 2391   2.317   2.509   2.623  0.3332  1.5417 -0.6709
  798SOL     OW 2392   2.996   0.351   2.086  0.1888 -0.2062 -0.0759
  798SOL    HW1 2393   2.994   0.442   2.038  1.8823 -0.1400 -0.9961
  798SOL    HW2 2394   2.924   0.288   2.054  1.3375 -0.5710  2.5225
  799SOL     OW 2395   0.668   2.430   2.202  0.1157  0.1812  0.3305
  799SOL    HW1 2396   0.694   2.334   2.185 -0.5107  1.1521  0.9968
  799SOL    HW2 2397   0.604   2.430   2.279 -3.0292 -2.2926  2.6072
  800SOL     OW 2398   0.095   1.953   0.159 -0.0559  0.0941 -0.7303
  800SOL    HW1 2399   0.182   1.980   0.110 -0.0400  1.8279 -2.8035
  800SOL    HW2 2400   0.109   1.959   0.265  2.5899 -0.4228 -0.0505
  801SOL     OW 2401   1.572   1.449   1.044  0.5191  0.3586  0.3753
  801SOL    HW1 2402   1.498   1.391   1.004  0.2798  2.0787  0.3606
  801SOL    HW2 2403   1.599   1.527   0.986 -0.2326 -1.6108 -0.0484
  802SOL     OW 2404   2.998   0.545   0.510 -0.6249 -0.3349  0.3458
  802SOL    HW1 2405   3.083   0.592   0.522 -3.7905 -0.0276 -2.5048
  802SOL    HW2 2406   3.011   0.441   0.517  3.1201 -1.8481  2.1716
  803SOL     OW 2407   1.490   1.315   1.917  0.5896  0.0049  0.2610
  803SOL    HW1 2408   1.446   1.405   1.902  1.9219 -1.6422  1.5236
  803SOL    HW2 2409   1.443   1.241   1.867 -1.9665  0.8938 -0.7984
  804SOL     OW 2410   1.890   1.535   0.966  0.6257  0.4051  0.2095
  804SOL    HW1 2411   1.802   1.583   0.985  2.9566  1.6878  2.6240
  804SOL    HW2 2412   1.871   1.441   0.927  0.0140  0.1713  1.2500
  805SOL     OW 2413   2.827   1.870   2.644 -0.0205  0.0167 -0.3344
  805SOL    HW1 2414   2.864   1.912   2.563 -0.9657 -0.5356  1.2200
  805SOL    HW2 2415   2.729   1.893   2.660  0.8391 -1.3045  1.0552
  806SOL     OW 2416   0.443   2.332   0.246  0.0956  0.5299 -0.2164
  806SOL    HW1 2417   0.546   2.325   0.228 -0.1784 -1.8062  1.3746
  806SOL    HW2 2418   0.413   2.429   0.272  0.6847  3.3733  2.9654
  807SOL     OW 2419   2.229   1.656   2.745  0.2096 -0.2031 -0.4802
  807SOL    HW1 2420   2.320   1.701   2.732 -0.5921 -0.3985 -0.7160
  807SOL    HW2 2421   2.157   1.728   2.771 -3.9448  2.4064 -3.1893
  808SOL     OW 2422   1.432   2.028   1.229  0.0245 -0.7151 -0.3354
  808SOL    HW1 2423   1.445   1.955   1.299 -0.1288 -1.8348  1.1085
  808SOL    HW2 2424   1.481   2.113   1.265  0.0275  3.1089  2.0044
  809SOL     OW 2425   0.156   0.578   0.168 -0.1393 -0.5103  0.3767
  809SOL    HW1 2426   0.121   0.641   0.236 -4.3547  0.2630 -1.9352
  809SOL    HW2 2427   0.254   0.570   0.182 -2.0603 -2.2731  1.4546
  810SOL     OW 2428   1.050   1.507   0.055  0.6032  0.2807  0.0561
  810SOL    HW1 2429   1.009   1.452   0.133 -2.7337 -0.4608  2.3223
  810SOL    HW2 2430   1.152   1.516   0.061 -3.4439 -0.0680 -0.4218
  811SOL     OW 2431   1.950   2.175   0.838  0.3199  0.0734 -0.2127
  811SOL    HW1 2432   1.956   2.076   0.821 -2.4409  4.4137  0.9985
  811SOL    HW2 2433   1.971   2.198   0.935 -1.9709  0.8612  0.5600
  812SOL     OW 2434   1.334   3.050   1.362 -0.2302  0.0583 -0.1915
  812SOL    HW1 2435   1.327   3.055   1.465 -1.6018 -0.4512 -0.9795
  812SOL    HW2 2436   1.280   2.972   1.327  2.6286 -0.9797  2.3483
  813SOL     OW 2437   0.743   2.974   1.904 -0.0183 -0.0372  0.1624
  813SOL    HW1 2438   0.760   3.002   1.806 -0.1381 -0.9461 -0.0021
  813SOL    HW2 2439   0.644   2.976   1.928  1.1761  2.0608  0.6002
  814SOL     OW 2440   1.093   2.443   2.196 -0.2901 -0.2156  0.6601
  814SOL    HW1 2441   1.081   2.369   2.264 -1.4054  1.0186  0.3140
  814SOL    HW2 2442   1.023   2.516   2.209  1.6705 -0.3982  2.7866
  815SOL     OW 2443   0.560   2.838   3.009  0.2380  0.5309  0.1460
  815SOL    HW1 2444   0.528   2.749   2.966  1.4281  1.3351 -0.9786
  815SOL    HW2 2445   0.485   2.878   3.067 -0.9176 -0.4416 -0.9223
  816SOL     OW 2446   2.187   0.523   3.068 -0.4237 -0.0016  0.6717
  816SOL    HW1 2447   2.200   0.425   3.072  0.5142  2.5453  0.2394
  816SOL    HW2 2448   2.248   0.581   0.038  0.8466 -1.7726 -0.6276
  817SOL     OW 2449   2.665   2.692   2.251  0.1293  0.0800  0.2755
  817SOL    HW1 2450   2.661   2.781   2.203  1.3006 -1.2783 -1.6158
  817SOL    HW2 2451   2.572   2.664   2.274 -0.3466  0.1029  0.6659
  818SOL     OW 2452   0.927   1.081   0.328  0.0863 -0.3348  0.0527
  818SOL    HW1 2453   0.861   1.002   0.343 -1.5252  0.9749  0.0052
  818SOL    HW2 2454   0.900   1.132   0.244 -2.1308  1.9547  0.2750
  819SOL     OW 2455   1.760   1.204   2.759 -0.1498 -0.0903 -0.3434
  819SOL    HW1 2456   1.745   1.262   2.679 -0.4497  0.0818 -2.6436
  819SOL    HW2 2457   1.843   1.232   2.811 -0.0669  1.7218 -0.7146
  820SOL     OW 2458   0.206   1.370   2.798  0.1061  0.0668  0.0597
  820SOL    HW1 2459   0.102   1.381   2.810 -4.7974  0.6699 -1.5887
  820SOL    HW2 2460   0.256   1.402   2.881  0.1251 -0.5323  1.9989
  821SOL     OW 2461   0.487   0.149   0.605  0.2386 -0.0961  0.4000
  821SOL    HW1 2462   0.530   0.229   0.553  1.5818 -0.9012  0.3991
  821SOL    HW2 2463   0.521   0.056   0.567  1.2966 -2.3091 -1.5825
  822SOL     OW 2464   2.489   2.675   2.881 -0.0435  0.1258  0.4508
  822SOL    HW1 2465   2.502   2.642   2.785 -0.7115 -1.8229  1.0545
  822SOL    HW2 2466   2.576   2.671   2.935  0.3682 -3.4894 -1.0372
  823SOL     OW 2467   1.670   0.170   2.654  0.4419  0.2475  0.1219
  823SOL    HW1 2468   1.689   0.098   2.725  1.9247 -0.4923  1.0895
  823SOL    HW2 2469   1.608   0.241   2.688  1.7537  1.2632  0.4450
  824SOL     OW 2470   2.817   2.491   1.876 -0.4969  0.3315 -0.3424
  824SOL    HW1 2471   2.785   2.585   1.851  0.9341 -2.8556  3.4793
  824SOL    HW2 2472   2.832   2.489   1.978 -2.9796  0.6989  2.4886
  825SOL     OW 2473   2.947   2.029   2.423 -0.3272  0.1659 -0.0817
  825SOL    HW1 2474   2.999   2.085   2.361 -2.2469 -3.4476 -3.3851
  825SOL    HW2 2475   2.874   1.988   2.365 -1.9630 -2.7790  0.2869
  826SOL     OW 2476   1.957   0.626   0.075 -0.2552 -0.0187  0.3400
  826SOL    HW1 2477   1.984   0.724   0.086 -1.9687 -0.0684  4.4136
  826SOL    HW2 2478   2.032   0.570   0.034 -2.1465  2.2403 -2.0955
  827SOL     OW 2479   2.857   1.764   1.821  0.0356 -0.0763  0.5866
  827SOL    HW1 2480   2.854   1.739   1.722  0.0701  1.3844  2.2228
  827SOL    HW2 2481   2.781   1.716   1.864 -0.5037  0.8578 -0.2320
  828SOL     OW 2482   0.059   0.052   1.283  0.2404 -0.3106 -0.1214
  828SOL    HW1 2483   0.146   0.029   1.236  1.0306  0.5550  1.7758
  828SOL    HW2 2484   0.002   3.056   1.303 -2.4755  1.2550  0.4830
  829SOL     OW 2485   0.743   2.005   2.673  0.2913 -0.6324 -0.1381
  829SOL    HW1 2486   0.811   2.080   2.651 -1.2948  2.5952 -0.3373
  829SOL    HW2 2487   0.653   2.044   2.679  0.1267 -1.4524  2.3209
  830SOL     OW 2488   0.548   0.789   1.546  0.3009  0.3487 -0.7855
  830SOL    HW1 2489   0.577   0.816   1.641  0.6204  0.9865 -1.1261
  830SOL    HW2 2490   0.583   0.695   1.524 -0.8302 -1.3713  2.2945
  831SOL     OW 2491   2.483   1.759   2.731  0.1220  0.1785  0.3474
  831SOL    HW1 2492   2.538   1.678   2.692  0.9077 -1.4079 -3.1270
  831SOL    HW2 2493   2.488   1.771   2.833 -2.6452  0.3755  2.1731
  832SOL     OW 2494   2.021   2.442   3.014  0.2887  0.3444  0.2600
  832SOL    HW1 2495   1.930   2.461   2.962  1.6481  2.8992  0.4688
  832SOL    HW2 2496   2.102   2.493   2.982 -3.5686 -3.2350 -2.1591
  833SOL     OW 2497   0.765   0.352   1.950  0.2817  0.0829 -1.0306
  833SOL    HW1 2498   0.795   0.262   1.990 -0.2180  0.1247  1.2548
  833SOL    HW2 2499   0.672   0.376   1.990 -1.2456  1.3338 -4.3982
  834SOL     OW 2500   0.024   0.247   1.477  0.3241 -0.2551 -0.2772
  834SOL    HW1 2501   0.041   0.165   1.414 -0.6475  0.2337 -1.6971
  834SOL    HW2 2502   3.026   0.301   1.440 -0.5928  2.4733 -2.9339
  835SOL     OW 2503   2.541   0.516   0.533 -0.3726  0.5261  0.6144
  835SOL    HW1 2504   2.440   0.504   0.520  1.1012  1.7922 -0.6260
  835SOL    HW2 2505   2.562   0.501   0.632 -1.6827  2.2359  0.2451
  836SOL     OW 2506   1.223   2.020   0.324 -0.2532  0.3053 -0.0126
  836SOL    HW1 2507   1.287   2.032   0.410  2.5409  2.8556  3.2533
  836SOL    HW2 2508   1.184   2.108   0.296  0.5511 -2.2497 -2.1706
  837SOL     OW 2509   1.910   1.753   0.461  0.7634  0.0366  0.9088
  837SOL    HW1 2510   1.989   1.699   0.496 -0.8965 -0.8717 -1.9426
  837SOL    HW2 2511   1.941   1.848   0.441  1.3255  0.2308  1.7819
  838SOL     OW 2512   1.530   0.708   2.236  0.1291 -0.4209 -0.2332
  838SOL    HW1 2513   1.448   0.683   2.294 -0.1866  1.0230  0.0138
  838SOL    HW2 2514   1.573   0.797   2.258  1.3833  0.2212  2.2269
  839SOL     OW 2515   0.527   1.379   2.396 -0.4422 -0.0828 -0.1910
  839SOL    HW1 2516   0.542   1.429   2.487  0.1463  0.8521  0.5353
  839SOL    HW2 2517   0.618   1.377   2.353 -0.2054 -3.2654  0.7756
  840SOL     OW 2518   0.881   1.325   0.183 -0.4884 -0.3410 -0.0095
  840SOL    HW1 2519   0.841   1.419   0.171 -0.3913 -0.4044 -2.3127
  840SOL    HW2 2520   0.803   1.263   0.175  1.2110  1.6950  2.3656
  841SOL     OW 2521   1.756   2.270   0.672  0.1929 -0.3479  0.0139
  841SOL    HW1 2522   1.714   2.361   0.694 -2.1653 -0.8298 -3.3166
  841SOL    HW2 2523   1.835   2.251   0.736  1.9818  2.0466 -1.3756
  842SOL     OW 2524   0.494   0.569   3.009  0.3580 -0.0070 -0.2368
  842SOL    HW1 2525   0.404   0.555   2.965  1.0757  1.6502  0.8572
  842SOL    HW2 2526   0.491   0.577   0.026  0.4711  0.3360 -1.5577
  843SOL     OW 2527   0.708   0.382   0.768 -0.5205  0.0355  0.1158
  843SOL    HW1 2528   0.783   0.407   0.833 -0.7634  0.0686 -0.4301
  843SOL    HW2 2529   0.719   0.287   0.727 -0.0884 -2.5832 -1.2156
  844SOL     OW 2530   1.859   2.941   2.262 -0.3509 -0.4066 -0.1753
  844SOL    HW1 2531   1.961   2.922   2.278 -0.6892  0.8775  0.0347
  844SOL    HW2 2532   1.849   3.020   2.197  2.5059 -0.6340 -1.8216
  845SOL     OW 2533   0.124   2.396   1.709 -0.5587  0.1936  0.5221
  845SOL    HW1 2534   0.046   2.355   1.758  0.0011  0.1997  0.5231
  845SOL    HW2 2535   0.096   2.441   1.620  1.4014 -0.2190 -0.9481
  846SOL     OW 2536   1.690   1.336   2.510 -0.0023  0.4604  0.5673
  846SOL    HW1 2537   1.676   1.429   2.476  1.1194  1.0686  0.5944
  846SOL    HW2 2538   1.723   1.271   2.437 -0.8916 -1.8412  3.4927
  847SOL     OW 2539   0.486   0.786   2.155 -0.1561 -0.2347  0.6342
  847SOL    HW1 2540   0.519   0.777   2.057 -0.8784  0.6377 -1.9589
  847SOL    HW2 2541   0.538   0.728   2.221 -0.7948  4.1970 -1.4040
  848SOL     OW 2542   2.487   2.951   2.790  0.1970  0.2612  0.4880
  848SOL    HW1 2543   2.488   2.862   2.835 -0.3087  1.2097 -1.6121
  848SOL    HW2 2544   2.391   2.984   2.777 -2.6530  1.2263  2.2526
  849SOL     OW 2545   0.391   2.586   0.356 -0.4232  0.4353  0.6605
  849SOL    HW1 2546   0.311   2.637   0.319  0.4603  1.1573  1.2761
  849SOL    HW2 2547   0.477   2.638   0.337  0.0979  0.4418 -0.3017
  850SOL     OW 2548   1.012   2.364   0.738 -0.2919  0.3187  0.1798
  850SOL    HW1 2549   1.015   2.362   0.840 -2.0790  2.6475 -0.4468
  850SOL    HW2 2550   1.110   2.365   0.702  1.9503  0.5228 -0.0041
  851SOL     OW 2551   1.872   0.414   2.694  0.2868 -0.2451  0.0395
  851SOL    HW1 2552   1.878   0.367   2.606  2.9881 -0.4767  2.5688
  851SOL    HW2 2553   1.866   0.514   2.685  2.7618 -0.2570  1.1378
  852SOL     OW 2554   1.478   3.033   2.552  1.0221 -0.0947 -0.2926
  852SOL    HW1 2555   1.476   2.931   2.541 -1.6315 -0.9918 -1.9904
  852SOL    HW2 2556   1.563   3.068   2.603  0.6523  0.2859  1.9376
  853SOL     OW 2557   2.872   2.547   0.553  0.1045  0.0616  0.1253
  853SOL    HW1 2558   2.911   2.456   0.542 -0.5561  1.7299  1.4782
  853SOL    HW2 2559   2.923   2.619   0.500  2.3244 -0.0729  0.8933
  854SOL     OW 2560   1.888   0.483   2.140 -0.5607  0.2932 -0.4074
  854SOL    HW1 2561   1.928   0.402   2.187  0.1927 -0.5054 -1.0528
  854SOL    HW2 2562   1.897   0.567   2.198  1.9170  1.9526  0.7934
  855SOL     OW 2563   0.252   2.429   0.523  0.2724  0.7804 -0.6127
  855SOL    HW1 2564   0.236   2.455   0.619 -2.6821  3.2875 -1.5498
  855SOL    HW2 2565   0.311   2.494   0.475  0.5186 -1.8805  0.9594
  856SOL     OW 2566   0.290   2.813   2.583 -0.4028 -0.6285  0.4246
  856SOL    HW1 2567   0.379   2.815   2.533 -0.4400  2.2743 -0.6392
  856SOL    HW2 2568   0.299   2.798   2.685 -1.4635 -0.1230  3.7283
  857SOL     OW 2569   1.019   3.005   1.490  0.5181 -0.0406  0.0056
  857SOL    HW1 2570   1.074   2.925   1.530 -0.2193 -2.1988 -0.9403
  857SOL    HW2 2571   0.927   3.017   1.533  2.0889  0.5336  1.0547
  858SOL     OW 2572   2.550   2.119   1.724 -0.2688  0.4286  0.0708
  858SOL    HW1 2573   2.589   2.123   1.629 -0.4911  0.6308 -0.0932
  858SOL    HW2 2574   2.462   2.066   1.717 -0.9705 -0.4864 -2.9868
  859SOL     OW 2575   1.741   2.378   1.806 -0.0054 -0.1143 -0.0637
  859SOL    HW1 2576   1.661   2.342   1.864 -0.7229  1.6768  1.7222
  859SOL    HW2 2577   1.831   2.336   1.824 -0.6872 -0.2243  0.3485
  860SOL     OW 2578   1.675   0.647   0.372 -0.0248 -0.1898  0.0555
  860SOL    HW1 2579   1.698   0.738   0.333 -1.7807 -0.7272  3.1110
  860SOL    HW2 2580   1.691   0.570   0.303  2.1234  1.1216 -0.4818
  861SOL     OW 2581   2.657   0.402   0.784  0.2139 -0.1714  0.1042
  861SOL    HW1 2582   2.740   0.458   0.804  0.1255 -1.5261 -4.6341
  861SOL    HW2 2583   2.675   0.305   0.796  1.5816  0.0566 -1.8190
  862SOL     OW 2584   1.087   3.078   2.377  0.2650  0.5438 -0.3270
  862SOL    HW1 2585   1.155   0.026   2.308  0.9906 -1.8437 -0.4243
  862SOL    HW2 2586   1.136   3.043   2.463  2.1055 -1.8901  0.2112
  863SOL     OW 2587   0.336   0.730   1.189  0.3249 -0.0731 -0.3109
  863SOL    HW1 2588   0.245   0.698   1.218 -0.5363  0.3962 -0.1511
  863SOL    HW2 2589   0.368   0.809   1.248  0.6075 -0.1704 -0.6778
  864SOL     OW 2590   2.796   0.231   1.960  0.5092  0.1271  0.6975
  864SOL    HW1 2591   2.845   0.181   1.888 -1.1176  1.7062  1.1419
  864SOL    HW2 2592   2.769   0.168   2.034  0.4752  0.2943 -1.3524
  865SOL     OW 2593   0.709   1.414   2.888 -0.2229 -0.2244 -0.1461
  865SOL    HW1 2594   0.661   1.472   2.956  0.4823  2.2998 -1.4844
  865SOL    HW2 2595   0.658   1.329   2.861  1.7872 -0.9864 -2.0345
  866SOL     OW 2596   3.059   3.070   0.182  0.0890 -0.1031 -0.6410
  866SOL    HW1 2597   3.076   0.046   0.104  1.1983 -0.5581  2.4120
  866SOL    HW2 2598   0.063   3.031   0.219  1.4448  1.0828  1.9482
  867SOL     OW 2599   2.876   2.837   2.726  0.1408 -0.1153  0.4760
  867SOL    HW1 2600   2.808   2.780   2.676  1.7979  0.4563  1.2091
  867SOL    HW2 2601   2.932   2.777   2.787 -2.2758  0.9801 -1.9736
  868SOL     OW 2602   1.446   1.127   3.030  0.0142 -0.2831 -0.7331
  868SOL    HW1 2603   1.535   1.098   2.988 -2.1681 -0.1192  2.8270
  868SOL    HW2 2604   1.367   1.075   2.991  1.5955  1.7640  0.5868
  869SOL     OW 2605   0.335   1.711   0.674 -0.2188 -0.4145  0.1998
  869SOL    HW1 2606   0.428   1.679   0.696  1.3839 -0.3088 -0.5988
  869SOL    HW2 2607   0.270   1.635   0.672 -0.9120  0.7532 -0.2480
  870SOL     OW 2608   2.466   1.749   0.602 -0.0138  0.1464  0.0516
  870SOL    HW1 2609   2.420   1.822   0.550 -1.9254 -0.5802  0.1865
  870SOL    HW2 2610   2.471   1.660   0.552  0.3160  1.4867 -1.4213
  871SOL     OW 2611   0.747   1.169   1.059 -0.3381  0.5099  0.3957
  871SOL    HW1 2612   0.697   1.180   0.968 -1.6318  0.5992 -2.3301
  871SOL    HW2 2613   0.679   1.119   1.119  0.8952  2.2995 -0.4535
  872SOL     OW 2614   1.373   1.601   1.926 -0.0057 -0.2187 -0.3266
  872SOL    HW1 2615   1.373   1.620   1.824  0.4742  3.5386 -0.6364
  872SOL    HW2 2616   1.393   1.688   1.975 -3.7265 -0.9816 -0.6506
  873SOL     OW 2617   0.786   1.916   2.390 -0.1534  0.1108 -0.9797
  873SOL    HW1 2618   0.774   1.943   2.486 -0.2474  0.5030 -1.8827
  873SOL    HW2 2619   0.860   1.970   2.347 -0.2446  1.8166  2.4865
  874SOL     OW 2620   0.751   2.226   1.128 -0.2809  0.2595  0.3127
  874SOL    HW1 2621   0.683   2.292   1.160 -0.7039  0.3040 -1.4064
  874SOL    HW2 2622   0.708   2.133   1.137 -1.0085  0.4081 -1.7243
  875SOL     OW 2623   2.650   0.120   0.863  0.0487  0.2335  0.3158
  875SOL    HW1 2624   2.567   0.101   0.808 -2.1131  0.9366  0.6910
  875SOL    HW2 2625   2.627   0.148   0.959 -0.0282 -1.1461 -2.1711
  876SOL     OW 2626   0.831   0.537   0.249  0.2957  0.2728  0.1370
  876SOL    HW1 2627   0.760   0.590   0.299 -1.6140  0.7368 -1.0504
  876SOL    HW2 2628   0.903   0.598   0.212  1.6312 -1.2267  0.2741
  877SOL     OW 2629   2.789   0.599   1.281  0.0165  0.1815  0.3931
  877SOL    HW1 2630   2.693   0.563   1.256 -1.2541 -0.8689  1.9340
  877SOL    HW2 2631   2.846   0.619   1.194  0.3037 -1.2607 -4.0461
  878SOL     OW 2632   2.330   2.198   0.684 -0.0861 -0.3286 -0.4256
  878SOL    HW1 2633   2.236   2.239   0.675 -1.5264  0.3529  2.9248
  878SOL    HW2 2634   2.346   2.159   0.777 -0.9169  1.4290  0.4961
  879SOL     OW 2635   2.530   1.730   1.505 -0.1104 -0.3185 -0.6891
  879SOL    HW1 2636   2.495   1.800   1.444  0.7493 -2.4360  1.1338
  879SOL    HW2 2637   2.507   1.639   1.468  0.8261  1.5093  1.9057
  880SOL     OW 2638   1.309   2.528   1.025 -0.4648  0.0402  0.3891
  880SOL    HW1 2639   1.315   2.624   1.042  1.0205 -0.2087  0.6206
  880SOL    HW2 2640   1.305   2.477   1.114  0.2173  0.1151 -0.6083
  881SOL     OW 2641   0.982   2.600   0.220 -0.4798  0.0160 -0.3856
  881SOL    HW1 2642   1.014   2.610   0.318 -1.0096 -1.4038  0.6671
  881SOL    HW2 2643   0.883   2.600   0.209 -0.7371 -2.7846  0.9115
  882SOL     OW 2644   1.833   1.179   1.563 -0.3703 -0.3331  0.2355
  882SOL    HW1 2645   1.862   1.226   1.648  0.2527  0.8974 -2.1487
  882SOL    HW2 2646   1.778   1.098   1.580 -0.3185 -1.2867 -0.5789
  883SOL     OW 2647   1.208   0.096   2.130 -0.0221 -0.6485  0.2422
  883SOL    HW1 2648   1.253   0.184   2.158 -1.4259 -0.8862  1.2153
  883SOL    HW2 2649   1.248   0.049   2.054 -0.4676 -0.3762  4.3905
  884SOL     OW 2650   2.583   0.575   0.156 -0.0926  0.5300  0.7972
  884SOL    HW1 2651   2.663   0.544   0.210 -2.0131  0.2870 -2.0413
  884SOL    HW2 2652   2.496   0.569   0.209  0.5443  2.3210 -1.7962
  885SOL     OW 2653   0.933   1.311   2.954 -0.0593 -0.1679 -0.4272
  885SOL    HW1 2654   0.980   1.349   3.038  2.2854 -2.2123  1.9706
  885SOL    HW2 2655   0.842   1.359   2.928 -0.2841  3.0646 -1.1584
  886SOL     OW 2656   1.487   1.379   2.718 -0.1684  0.3244 -0.3987
  886SOL    HW1 2657   1.500   1.310   2.797 -0.7279 -0.3538  0.9429
  886SOL    HW2 2658   1.561   1.367   2.652 -1.2439  1.1225 -1.1124
  887SOL     OW 2659   1.269   0.370   1.607 -0.0673 -0.1169  0.0680
  887SOL    HW1 2660   1.188   0.307   1.620 -1.0126 -2.0381  1.1645
  887SOL    HW2 2661   1.287   0.419   1.695  0.5794  1.9691  1.3557
  888SOL     OW 2662   2.559   0.768   1.902  0.1875 -0.1953  0.2311
  888SOL    HW1 2663   2.536   0.689   1.843 -0.3717  2.7633  1.0291
  888SOL    HW2 2664   2.535   0.856   1.860  2.2331 -2.2973  0.0847
  889SOL     OW 2665   0.291   2.761   0.759  0.3136  0.2215 -0.2386
  889SOL    HW1 2666   0.263   2.664   0.783  1.4324  0.5695 -0.8669
  889SOL    HW2 2667   0.387   2.775   0.741 -3.6459  2.3945 -0.4984
  890SOL     OW 2668   2.914   2.042   0.186  0.1739 -0.2037  0.1675
  890SOL    HW1 2669   2.912   2.028   0.292 -0.3534  1.4853 -0.8027
  890SOL    HW2 2670   2.990   1.990   0.143 -4.1281  0.4180  2.2025
  891SOL     OW 2671   0.885   1.707   3.009 -0.6646  0.1928 -0.2851
  891SOL    HW1 2672   0.892   1.725   2.907 -0.3587 -0.6996  1.1391
  891SOL    HW2 2673   0.955   1.648   3.050 -4.3553  1.4141  1.8529
  892SOL     OW 2674   2.766   2.965   0.805 -0.1255 -0.6552  0.2451
  892SOL    HW1 2675   2.731   3.053   0.842  1.7018 -1.9951  1.0255
  892SOL    HW2 2676   2.850   2.926   0.848 -2.0774 -1.6569  1.6492
  893SOL     OW 2677   1.106   2.934   1.244  0.0079  1.0238  0.4499
  893SOL    HW1 2678   1.087   2.996   1.324  0.2665 -0.4983  0.3409
  893SOL    HW2 2679   1.044   2.957   1.165 -1.6051  1.5220  0.2745
  894SOL     OW 2680   2.823   0.786   0.606 -0.4983 -0.3740 -0.0748
  894SOL    HW1 2681   2.866   0.700   0.572 -0.8428 -3.1431 -1.7821
  894SOL    HW2 2682   2.821   0.857   0.534  0.4488 -0.3717 -0.2737
  895SOL     OW 2683   2.389   2.532   2.099  0.4000 -0.1081 -0.2056
  895SOL    HW1 2684   2.289   2.536   2.081  0.7890 -1.6797 -0.1846
  895SOL    HW2 2685   2.398   2.575   2.191 -0.4949 -0.8354  0.1833
  896SOL     OW 2686   1.078   0.173   1.614 -0.4308  0.1414 -0.0529
  896SOL    HW1 2687   1.089   0.081   1.574  0.2057  2.2701  0.6103
  896SOL    HW2 2688   1.061   0.167   1.713  2.0453 -2.5727  0.7506
  897SOL     OW 2689   0.983   1.650   2.011 -0.1161  0.6085  0.4965
  897SOL    HW1 2690   1.056   1.577   2.030 -2.0081  2.0697  3.1137
  897SOL    HW2 2691   1.008   1.714   1.939 -1.5254 -3.2046 -0.5440
  898SOL     OW 2692   1.931   2.775   1.872  0.1315  0.2492  0.1046
  898SOL    HW1 2693   1.991   2.725   1.811 -1.7908  1.5955  0.6271
  898SOL    HW2 2694   1.984   2.832   1.938 -1.6170 -1.4174  2.4875
  899SOL     OW 2695   0.972   0.653   1.026  0.0661  0.5526  0.3653
  899SOL    HW1 2696   1.013   0.615   1.110 -0.9838  0.8927  1.4471
  899SOL    HW2 2697   0.892   0.714   1.050  1.5804  2.6219 -1.8298
  900SOL     OW 2698   1.801   2.391   2.640  0.1859 -0.4414  0.4334
  900SOL    HW1 2699   1.706   2.379   2.604  3.6427 -1.3537 -1.6203
  900SOL    HW2 2700   1.860   2.386   2.560 -2.6564 -0.9264  1.2388
  901SOL     OW 2701   0.932   2.215   2.632 -0.4228  0.1396 -0.0708
  901SOL    HW1 2702   0.974   2.248   2.725  0.5239  0.8570 -0.1441
  901SOL    HW2 2703   0.945   2.287   2.559  1.9115  0.4610  1.4088
  902SOL     OW 2704   2.472   1.145   0.331 -0.2063  0.0825 -0.1331
  902SOL    HW1 2705   2.480   1.222   0.265 -0.3575 -0.1059 -1.2556
  902SOL    HW2 2706   2.487   1.054   0.295 -0.8085 -1.9557 -0.8322
  903SOL     OW 2707   2.028   0.901   0.423 -0.4539  0.0979  0.6042
  903SOL    HW1 2708   1.940   0.894   0.373  1.8158  0.7566  0.2506
  903SOL    HW2 2709   2.078   0.985   0.393 -0.3142  2.4076  0.4414
  904SOL     OW 2710   0.863   0.927   2.703 -0.4971  0.0065  0.3694
  904SOL    HW1 2711   0.789   0.856   2.693  0.5460  1.5765  0.3741
  904SOL    HW2 2712   0.950   0.907   2.655  0.8946 -1.7269  0.4208
  905SOL     OW 2713   2.077   0.254   0.834  0.2376 -0.0867 -0.4120
  905SOL    HW1 2714   2.019   0.199   0.770 -0.4491  0.0502  0.5550
  905SOL    HW2 2715   2.172   0.269   0.802 -0.0242 -0.8268  1.1194
  906SOL     OW 2716   2.610   2.486   1.524  0.3226 -0.1864 -0.0974
  906SOL    HW1 2717   2.588   2.454   1.617  1.4261 -1.3602  0.4032
  906SOL    HW2 2718   2.683   2.561   1.522  1.9538  3.4205 -0.5038
  907SOL     OW 2719   0.999   0.708   0.173 -0.1216 -0.2514 -0.3203
  907SOL    HW1 2720   1.083   0.707   0.234 -1.1155  0.0442  0.3814
  907SOL    HW2 2721   1.023   0.716   0.074 -0.4298  2.3638 -0.4850
  908SOL     OW 2722   2.039   2.873   1.424  0.1901 -0.3563 -0.0526
  908SOL    HW1 2723   2.129   2.921   1.414 -0.4761  0.1065  0.8462
  908SOL    HW2 2724   1.964   2.915   1.364 -1.1645  0.3877 -1.0877
  909SOL     OW 2725   2.498   0.862   1.251 -0.0674  0.1093 -0.2662
  909SOL    HW1 2726   2.465   0.800   1.320  0.0036  1.2469  1.1025
  909SOL    HW2 2727   2.451   0.953   1.255  0.2040  1.1698 -0.5530
  910SOL     OW 2728   1.166   2.742   2.145  0.0680  0.4379 -0.2120
  910SOL    HW1 2729   1.206   2.803   2.071 -0.8716 -0.1308 -2.2713
  910SOL    HW2 2730   1.076   2.783   2.177 -2.7707  1.2998 -1.2554
  911SOL     OW 2731   2.429   0.481   2.212  0.5263  0.1115 -0.1987
  911SOL    HW1 2732   2.484   0.548   2.165 -2.5003 -0.0195 -0.6530
  911SOL    HW2 2733   2.340   0.521   2.240  0.7344 -1.3679 -0.7909
  912SOL     OW 2734   2.930   1.401   1.529  0.0833 -0.3705  0.1878
  912SOL    HW1 2735   2.971   1.466   1.457  0.0458  3.1595 -3.6592
  912SOL    HW2 2736   2.970   1.424   1.623  1.0531 -0.1709 -0.6898
  913SOL     OW 2737   2.642   2.108   1.478  0.8713  0.2952  0.2154
  913SOL    HW1 2738   2.602   2.177   1.420  2.9798 -2.7096 -0.9562
  913SOL    HW2 2739   2.668   2.028   1.417  0.8361  1.1752 -0.5717
  914SOL     OW 2740   1.895   1.147   1.309  0.3190  0.1579  0.0944
  914SOL    HW1 2741   1.862   1.069   1.251  2.3160 -1.3712  0.5366
  914SOL    HW2 2742   1.863   1.141   1.407  2.8450  0.8697 -0.6447
  915SOL     OW 2743   1.270   0.870   1.343  0.7279  0.0811  0.3857
  915SOL    HW1 2744   1.310   0.775   1.357 -1.0751 -2.2734  0.6578
  915SOL    HW2 2745   1.259   0.893   1.250  1.5907 -2.2233 -0.1473
  916SOL     OW 2746   2.803   2.663   1.522 -0.4833 -0.1555 -0.2630
  916SOL    HW1 2747   2.799   2.702   1.426 -3.7089  1.5085 -1.6050
  916SOL    HW2 2748   2.833   2.735   1.589  0.6471  1.1565 -1.3828
  917SOL     OW 2749   2.356   1.992   0.224  0.5819  1.1106 -0.2611
  917SOL    HW1 2750   2.283   1.987   0.154 -0.8337  2.1359  0.0046
  917SOL    HW2 2751   2.397   2.080   0.228 -2.6194 -4.2772  2.5238
  918SOL     OW 2752   1.911   2.660   2.570  0.2266 -0.2382 -0.2777
  918SOL    HW1 2753   1.849   2.683   2.492  0.9324 -1.1532 -0.7040
  918SOL    HW2 2754   1.881   2.585   2.637 -1.0390 -0.3174  2.1750
  919SOL     OW 2755   1.379   2.235   1.474 -0.3449  0.0979  0.4406
  919SOL    HW1 2756   1.427   2.168   1.535 -0.8567  0.8917 -0.7434
  919SOL    HW2 2757   1.299   2.186   1.435  0.5802  0.9408  1.2055
  920SOL     OW 2758   2.937   0.429   2.356 -0.1394 -0.1353  0.1292
  920SOL    HW1 2759   2.929   0.381   2.444 -0.0740 -1.5608 -1.3458
  920SOL    HW2 2760   2.946   0.365   2.273  0.7216 -0.6381  0.2596
  921SOL     OW 2761   2.933   0.829   2.045  0.0171  0.6007  0.0060
  921SOL    HW1 2762   2.948   0.733   2.008  1.5432 -1.3700  2.2961
  921SOL    HW2 2763   2.832   0.859   2.047 -1.1472  2.8421 -1.4328
  922SOL     OW 2764   1.982   2.020   0.484 -0.4002 -0.2595 -0.1841
  922SOL    HW1 2765   1.933   2.111   0.487  0.2884  0.2023  1.3802
  922SOL    HW2 2766   2.078   2.039   0.510 -1.1406 -1.6154  1.0600
  923SOL     OW 2767   0.641   2.124   3.077 -0.2682 -0.4724  0.2045
  923SOL    HW1 2768   0.547   2.096   3.061  0.8409 -0.0189  0.8976
  923SOL    HW2 2769   0.658   2.203   3.017  2.3932 -2.0966 -0.2313
  924SOL     OW 2770   1.049   0.290   0.422  0.4366  0.2686  0.3556
  924SOL    HW1 2771   0.958   0.259   0.388 -2.1227  1.9913  0.3245
  924SOL    HW2 2772   1.095   0.351   0.357  0.1933  0.2318 -0.5016
  925SOL     OW 2773   2.398   0.780   0.457  0.1940 -0.1672 -0.2171
  925SOL    HW1 2774   2.344   0.798   0.541 -1.2290 -0.4633 -3.7460
  925SOL    HW2 2775   2.475   0.717   0.471 -3.1867  2.4315 -1.5817
  926SOL     OW 2776   0.035   0.877   0.996  0.1814  0.1671 -0.1263
  926SOL    HW1 2777   0.007   0.963   0.938  2.2202  0.1848 -2.3366
  926SOL    HW2 2778   0.020   0.902   1.094  0.3737 -1.7682  0.1117
  927SOL     OW 2779   3.067   1.104   2.894 -0.0170 -0.2468 -0.5231
  927SOL    HW1 2780   0.055   1.076   2.830  0.1946 -1.4790  0.7249
  927SOL    HW2 2781   0.007   1.189   2.948  1.6936  1.2252 -2.2939
  928SOL     OW 2782   2.770   0.629   2.331  0.1538  0.6766  0.1946
  928SOL    HW1 2783   2.707   0.629   2.251 -1.6115 -2.4412  0.5974
  928SOL    HW2 2784   2.822   0.536   2.328  1.4403  0.6238 -0.3891
  929SOL     OW 2785   2.983   2.923   1.322  0.0507 -0.0474 -0.3431
  929SOL    HW1 2786   2.900   2.961   1.367  0.1852 -0.5774 -0.8126
  929SOL    HW2 2787   2.961   2.849   1.254  1.4651  0.9964  0.6944
  930SOL     OW 2788   1.989   1.378   1.678 -0.2623  0.7585  0.0638
  930SOL    HW1 2789   1.964   1.343   1.581  0.7475 -1.5146  0.9821
  930SOL    HW2 2790   2.044   1.463   1.670  1.2246  0.0300 -0.5944
  931SOL     OW 2791   1.492   1.290   0.550 -0.3868 -0.3344 -0.5210
  931SOL    HW1 2792   1.515   1.244   0.463 -3.5829 -0.2987  2.6865
  931SOL    HW2 2793   1.478   1.390   0.533  0.9089 -0.7922 -1.3448
  932SOL     OW 2794   2.858   1.224   0.898  0.8066  0.1490 -0.8164
  932SOL    HW1 2795   2.848   1.276   0.810 -0.4917 -0.0216 -0.8765
  932SOL    HW2 2796   2.797   1.139   0.901 -0.4016  0.6067 -2.3315
  933SOL     OW 2797   2.391   1.807   1.289 -0.2063  0.1024 -0.4769
  933SOL    HW1 2798   2.403   1.765   1.199 -4.9620  2.2333  0.4331
  933SOL    HW2 2799   2.293   1.840   1.292  0.0188 -1.5532 -0.8244
  934SOL     OW 2800   1.604   0.132   1.873  0.4079 -0.1232 -0.4541
  934SOL    HW1 2801   1.641   0.142   1.969  0.0938 -0.5230  1.4040
  934SOL    HW2 2802   1.648   0.192   1.806 -1.0041  1.9589  1.2965
  935SOL     OW 2803   0.357   1.462   0.882  0.4382 -0.5955 -0.3191
  935SOL    HW1 2804   0.310   1.454   0.794  2.2385  0.7011  2.6366
  935SOL    HW2 2805   0.316   1.545   0.931 -0.2131  0.3799 -0.7156
  936SOL     OW 2806   0.416   0.786   0.561  0.3182  0.1372  0.5536
  936SOL    HW1 2807   0.325   0.751   0.584  0.2649 -2.2870 -0.9047
  936SOL    HW2 2808   0.407   0.861   0.494 -1.5140 -1.7541 -1.4397
  937SOL     OW 2809   2.156   2.989   1.032 -0.3367 -0.2053 -0.3277
  937SOL    HW1 2810   2.088   2.913   1.042 -1.3050 -0.1961 -1.9583
  937SOL    HW2 2811   2.176   2.999   0.932  2.6995 -0.8581  2.0560
  938SOL     OW 2812   2.630   1.998   0.432  0.8729 -0.7284  0.2071
  938SOL    HW1 2813   2.607   1.917   0.373  0.2539 -0.7231  1.2931
  938SOL    HW2 2814   2.610   2.080   0.369 -1.5986  1.8747 -0.9776
  939SOL     OW 2815   0.865   2.117   0.686 -0.0639 -0.0891  0.0046
  939SOL    HW1 2816   0.928   2.039   0.712  0.0217 -1.9267 -3.8985
  939SOL    HW2 2817   0.914   2.204   0.691 -1.3362 -1.4230 -1.1422
  940SOL     OW 2818   2.734   3.011   2.912 -0.3376 -0.2398 -0.1982
  940SOL    HW1 2819   2.795   2.970   2.839 -4.0061  1.8016  0.6412
  940SOL    HW2 2820   2.632   3.011   2.888 -3.1551  1.0987  0.1967
  941SOL     OW 2821   1.314   0.372   2.988  0.3263 -0.1350  0.2974
  941SOL    HW1 2822   1.267   0.291   3.023 -1.1717  2.4178 -1.7499
  941SOL    HW2 2823   1.271   0.455   3.027 -0.0580 -1.6500  0.2090
  942SOL     OW 2824   1.222   0.975   1.113 -0.6359  0.1156  0.3035
  942SOL    HW1 2825   1.231   1.075   1.141  0.1067 -1.6647 -1.4286
  942SOL    HW2 2826   1.141   0.958   1.057  1.0290 -2.1393  0.7651
  943SOL     OW 2827   1.461   1.240   1.611 -0.2208 -0.0367  0.2874
  943SOL    HW1 2828   1.397   1.200   1.681  0.8947 -0.6864  1.5220
  943SOL    HW2 2829   1.482   1.175   1.533 -1.5788 -2.4791  1.6575
  944SOL     OW 2830   1.504   0.957   1.790 -0.8637  0.4318  0.3481
  944SOL    HW1 2831   1.577   1.032   1.804 -1.0290  0.6052 -0.0561
  944SOL    HW2 2832   1.514   0.893   1.866  1.6111 -0.3948 -0.7031
  945SOL     OW 2833   2.889   3.007   0.367  0.1268  0.4926  0.2437
  945SOL    HW1 2834   2.800   2.996   0.321 -1.0251  0.4502 -0.0972
  945SOL    HW2 2835   2.965   3.035   0.310  0.1578  1.2048  2.7095
  946SOL     OW 2836   2.989   0.550   1.641  0.6899  0.1428  0.4571
  946SOL    HW1 2837   2.993   0.462   1.586  1.3571 -3.2209  0.5029
  946SOL    HW2 2838   2.903   0.597   1.623  2.6476 -2.3021  1.2430
  947SOL     OW 2839   0.610   3.004   0.571  0.0551  0.0545 -0.4017
  947SOL    HW1 2840   0.610   2.926   0.635 -1.2843  1.1889 -1.2483
  947SOL    HW2 2841   0.687   2.998   0.503  2.7264  0.2490  1.5384
  948SOL     OW 2842   2.378   1.166   1.701  0.3554  0.2573  0.0402
  948SOL    HW1 2843   2.356   1.181   1.798 -0.1406 -1.2705 -2.0966
  948SOL    HW2 2844   2.403   1.256   1.660  0.1390 -0.4563  2.4653
  949SOL     OW 2845   0.639   0.802   2.625 -0.1010  0.1488 -0.2692
  949SOL    HW1 2846   0.597   0.887   2.584 -0.3610 -1.8624  1.0042
  949SOL    HW2 2847   0.573   0.726   2.619  1.6582  0.1163  0.3846
  950SOL     OW 2848   0.826   0.318   1.153 -0.0286 -0.5480 -0.1722
  950SOL    HW1 2849   0.883   0.300   1.238  1.5918  0.1193 -0.5967
  950SOL    HW2 2850   0.884   0.333   1.072  0.8042 -1.1635  0.6741
  951SOL     OW 2851   0.934   1.677   2.283  0.3768 -0.1647  1.0698
  951SOL    HW1 2852   0.890   1.768   2.317 -0.5518  3.0674  0.8648
  951SOL    HW2 2853   0.968   1.699   2.184 -1.1881 -2.5633 -2.4323
  952SOL     OW 2854   0.749   1.553   0.132 -0.0582 -0.8228  0.7043
  952SOL    HW1 2855   0.777   1.598   0.043  0.4122 -0.0085 -0.8950
  952SOL    HW2 2856   0.781   1.607   0.213 -0.4025  1.7048 -0.2251
  953SOL     OW 2857   2.123   3.063   2.487  0.0008 -0.3117 -0.1246
  953SOL    HW1 2858   2.031   0.021   2.486 -1.0843 -0.5533 -0.5418
  953SOL    HW2 2859   2.192   0.049   2.464  0.4443 -0.7029 -1.1989
  954SOL     OW 2860   1.678   1.118   0.721  0.2930 -0.2322  0.4269
  954SOL    HW1 2861   1.735   1.060   0.656 -3.8301  1.8571 -1.5257
  954SOL    HW2 2862   1.602   1.165   0.671  1.3506  0.0639 -1.2908
  955SOL     OW 2863   0.315   2.215   2.245 -0.0882  0.3756  0.6281
  955SOL    HW1 2864   0.359   2.234   2.152 -1.2340 -0.8685 -0.2452
  955SOL    HW2 2865   0.269   2.297   2.282  1.2855 -0.7181 -1.6772
  956SOL     OW 2866   1.579   0.522   1.656 -0.4031 -0.2664 -0.0813
  956SOL    HW1 2867   1.500   0.567   1.701 -1.5651  0.9092 -1.4460
  956SOL    HW2 2868   1.595   0.555   1.563 -0.5441 -0.0213  1.1755
  957SOL     OW 2869   1.740   1.975   2.905  0.2701  0.3697  0.3435
  957SOL    HW1 2870   1.720   1.892   2.966  0.8217 -1.4585  0.2161
  957SOL    HW2 2871   1.776   2.052   2.958 -0.1708 -0.9872 -0.9672
  958SOL     OW 2872   1.093   2.299   1.736 -0.0118 -0.5082 -0.2851
  958SOL    HW1 2873   1.032   2.351   1.805 -3.7455  0.9165 -0.4270
  958SOL    HW2 2874   1.042   2.287   1.644  0.0495  1.0611 -3.1133
  959SOL     OW 2875   1.988   2.268   2.786  0.1139  0.1547  0.2109
  959SOL    HW1 2876   1.924   2.288   2.711  1.2201 -4.1047  1.2809
  959SOL    HW2 2877   2.058   2.343   2.802  1.0256  1.2497  0.2982
  960SOL     OW 2878   3.012   0.611   2.671  0.1941  0.2122 -0.0751
  960SOL    HW1 2879   3.027   0.708   2.650  0.9801  1.1533 -0.2636
  960SOL    HW2 2880   0.009   0.553   2.642  1.0530  0.3013  2.0379
  961SOL     OW 2881   0.830   0.587   2.535  0.5248 -0.5947  0.2332
  961SOL    HW1 2882   0.741   0.638   2.560 -1.2615 -0.0627 -1.0625
  961SOL    HW2 2883   0.846   0.593   2.437  1.5137  0.5839 -1.3525
  962SOL     OW 2884   0.747   1.425   2.614  0.2915  0.0359 -0.1524
  962SOL    HW1 2885   0.733   1.436   2.715  1.0112 -1.3552  3.0939
  962SOL    HW2 2886   0.765   1.326   2.595 -2.0931  1.0581 -1.0346
  963SOL     OW 2887   2.526   2.223   0.313  0.1984 -0.1600 -0.1388
  963SOL    HW1 2888   2.587   2.274   0.251 -1.9226 -1.3379 -0.4668
  963SOL    HW2 2889   2.473   2.293   0.370  0.2635  2.4637  2.7273
  964SOL     OW 2890   1.217   2.483   1.290  0.1815  0.0009 -0.3615
  964SOL    HW1 2891   1.205   2.397   1.343  0.5631 -1.4676  0.5548
  964SOL    HW2 2892   1.126   2.529   1.279 -0.0765 -2.6820 -0.3864
  965SOL     OW 2893   1.327   1.487   0.721 -0.0085 -0.3841  0.0618
  965SOL    HW1 2894   1.416   1.520   0.676 -0.5119 -1.1940 -0.3501
  965SOL    HW2 2895   1.295   1.557   0.786  1.0596  0.8266 -0.4087
  966SOL     OW 2896   0.198   1.550   0.226  0.0791 -0.3236  0.5122
  966SOL    HW1 2897   0.168   1.609   0.300 -1.9058 -0.4690  0.9433
  966SOL    HW2 2898   0.175   1.588   0.136 -1.3356 -1.0933  0.2402
  967SOL     OW 2899   1.993   0.413   1.709  0.1690  0.7678  0.3256
  967SOL    HW1 2900   1.908   0.359   1.713 -0.1507  0.1878 -1.4812
  967SOL    HW2 2901   2.006   0.471   1.624  0.3899  1.5138 -0.0976
  968SOL     OW 2902   1.959   1.015   0.665 -0.5045  0.2873 -0.0200
  968SOL    HW1 2903   2.036   1.077   0.692  1.8357  2.1009 -0.2825
  968SOL    HW2 2904   1.975   0.986   0.571  0.2252  1.1661  3.1430
  969SOL     OW 2905   0.331   1.244   2.302  0.0256  0.1476  0.6961
  969SOL    HW1 2906   0.344   1.151   2.263 -0.4581  3.2012  1.7032
  969SOL    HW2 2907   0.420   1.279   2.337  1.4672 -0.9133 -1.0873
  970SOL     OW 2908   2.267   1.459   1.188  0.0282  0.1062 -0.6277
  970SOL    HW1 2909   2.250   1.408   1.103 -1.2112  1.0104  0.8822
  970SOL    HW2 2910   2.305   1.546   1.166 -1.9703 -2.5573  2.1487
  971SOL     OW 2911   0.325   0.035   1.210 -0.6323  0.0519 -0.5557
  971SOL    HW1 2912   0.379   0.121   1.207 -1.2615  0.2264 -2.4240
  971SOL    HW2 2913   0.325   3.066   1.124 -0.6167 -0.3748 -1.8597
  972SOL     OW 2914   0.240   0.801   2.834 -0.0927 -0.3157  0.3335
  972SOL    HW1 2915   0.269   0.709   2.800  1.9434 -1.1015  2.3585
  972SOL    HW2 2916   0.195   0.783   2.923 -1.4008 -2.9654  0.7362
  973SOL     OW 2917   3.084   0.450   0.946 -0.3949 -0.4643 -0.2485
  973SOL    HW1 2918   0.044   0.422   0.857  2.7064  1.7630 -1.8299
  973SOL    HW2 2919   0.023   0.384   1.022  0.8053 -1.8782  3.7309
  974SOL     OW 2920   2.168   0.506   1.912  0.3023 -0.3434  0.3003
  974SOL    HW1 2921   2.181   0.601   1.882 -0.2800 -0.0887  0.9547
  974SOL    HW2 2922   2.098   0.463   1.852  1.2901 -0.6736  0.0237
  975SOL     OW 2923   2.580   0.270   0.141 -0.6033 -0.4510 -0.6721
  975SOL    HW1 2924   2.629   0.220   0.222  3.5171 -1.2352 -0.0388
  975SOL    HW2 2925   2.590   0.370   0.157 -0.0438  2.4249  2.1348
  976SOL     OW 2926   0.516   1.409   1.442 -0.1557  0.6124 -0.2729
  976SOL    HW1 2927   0.588   1.471   1.408 -3.0058  0.4199  2.5013
  976SOL    HW2 2928   0.506   1.427   1.539 -0.7497  0.5999 -0.1726
  977SOL     OW 2929   1.071   2.556   3.055  0.1984 -0.5711 -0.3055
  977SOL    HW1 2930   1.132   2.476   3.037  1.6414  0.9415 -1.9332
  977SOL    HW2 2931   1.048   2.567   0.067  1.2933  1.2582  0.0819
  978SOL     OW 2932   0.407   1.416   2.997  0.1374  0.3364 -0.4500
  978SOL    HW1 2933   0.343   1.363   3.059  0.8894 -1.4912 -0.7345
  978SOL    HW2 2934   0.469   1.353   2.946  0.2386  2.6344  1.4234
  979SOL     OW 2935   1.771   1.789   1.570  0.2901 -0.0464 -0.5475
  979SOL    HW1 2936   1.786   1.726   1.652  0.5109  1.0677 -0.9987
  979SOL    HW2 2937   1.759   1.734   1.485  0.0672 -0.7583  0.8446
  980SOL     OW 2938   0.412   1.467   1.722 -0.5884  0.1588  0.8330
  980SOL    HW1 2939   0.359   1.548   1.692 -0.9015  0.8964  1.3047
  980SOL    HW2 2940   0.363   1.430   1.805 -0.6446 -0.1009 -0.1892
  981SOL     OW 2941   3.035   1.382   0.223 -0.0686 -0.1897 -0.2466
  981SOL    HW1 2942   0.010   1.464   0.231 -0.8298 -0.9249  1.1602
  981SOL    HW2 2943   3.036   1.341   0.320 -1.5198 -1.9281 -1.3631
  982SOL     OW 2944   2.410   3.029   2.166  0.2759 -0.7450  0.0158
  982SOL    HW1 2945   2.382   0.001   2.084 -1.3199  2.8979  2.3114
  982SOL    HW2 2946   2.498   2.982   2.143  2.3358  1.8091  0.5904
  983SOL     OW 2947   1.251   0.283   0.965  0.2432  0.5900  0.3114
  983SOL    HW1 2948   1.345   0.291   1.001  1.4126  0.4146  0.5272
  983SOL    HW2 2949   1.214   0.373   0.940 -0.7340  1.5548  2.2186
  984SOL     OW 2950   1.267   2.997   2.865 -0.6184  0.0097  0.4982
  984SOL    HW1 2951   1.365   3.012   2.859 -2.6657  2.0730  1.7954
  984SOL    HW2 2952   1.250   2.912   2.912  0.8202  3.0485  1.8389
  985SOL     OW 2953   1.957   2.284   1.448  0.0829 -0.1352  0.1726
  985SOL    HW1 2954   1.956   2.201   1.504  2.0072 -0.2037 -0.2540
  985SOL    HW2 2955   2.006   2.266   1.359  0.5904 -0.5376 -0.0693
  986SOL     OW 2956   2.582   2.928   2.507  0.3136  0.4493  0.0715
  986SOL    HW1 2957   2.507   2.931   2.441 -0.5514 -0.4197 -1.3124
  986SOL    HW2 2958   2.554   2.963   2.596  2.7688  0.2948  0.6304
  987SOL     OW 2959   2.703   0.980   2.142 -0.5369 -0.0976 -0.3750
  987SOL    HW1 2960   2.664   0.977   2.236 -1.2380 -1.1198  1.1876
  987SOL    HW2 2961   2.665   1.056   2.087  3.0058 -1.5716  1.5251
  988SOL     OW 2962   2.362   0.819   2.712 -0.0289  0.2492 -0.2557
  988SOL    HW1 2963   2.319   0.739   2.763  0.7085  1.9951 -0.9962
  988SOL    HW2 2964   2.305   0.836   2.630  0.1714 -3.0564  0.8088
  989SOL     OW 2965   2.044   1.601   1.980 -0.4470 -0.4205 -0.0221
  989SOL    HW1 2966   2.102   1.521   1.975 -1.9275 -0.2235  1.9133
  989SOL    HW2 2967   1.990   1.596   2.068  1.3352  1.1178 -0.0021
  990SOL     OW 2968   0.289   0.985   0.095 -0.2844  0.2187 -0.1128
  990SOL    HW1 2969   0.361   0.965   0.027 -2.5110  0.8110  1.0477
  990SOL    HW2 2970   0.212   0.919   0.080 -1.6398  0.6035  2.9587
  991SOL     OW 2971   0.246   1.928   2.850 -0.2179 -0.1313  0.9189
  991SOL    HW1 2972   0.244   1.834   2.808 -0.2322 -3.2588 -2.2098
  991SOL    HW2 2973   0.234   1.994   2.774 -1.8798 -1.2227  0.1451
  992SOL     OW 2974   2.578   2.088   1.995 -0.0875  0.2660  0.5316
  992SOL    HW1 2975   2.570   2.103   1.895  1.2927  1.3961 -0.7300
  992SOL    HW2 2976   2.544   2.176   2.045 -0.3482 -1.8168  0.6148
  993SOL     OW 2977   0.283   0.009   0.474 -0.3771 -0.1480 -0.0145
  993SOL    HW1 2978   0.358   0.023   0.540 -0.0765 -2.1354 -0.6560
  993SOL    HW2 2979   0.192   0.020   0.519  3.1263  0.1934 -0.1678
  994SOL     OW 2980   0.247   1.680   1.593  0.2409  0.0836  0.4313
  994SOL    HW1 2981   0.156   1.721   1.578  1.8162 -0.8667 -2.4165
  994SOL    HW2 2982   0.290   1.665   1.502  1.3153  0.5203 -1.2630
  995SOL     OW 2983   2.018   1.799   2.885  0.0910 -0.1480 -0.5672
  995SOL    HW1 2984   1.955   1.722   2.859  0.3143 -4.8254  1.2185
  995SOL    HW2 2985   2.038   1.868   2.808  0.3235  1.0772  0.2487
  996SOL     OW 2986   1.831   1.465   2.949 -0.1074  0.1888 -0.0735
  996SOL    HW1 2987   1.736   1.442   2.976 -3.9427  0.2133 -1.6429
  996SOL    HW2 2988   1.837   1.512   2.857  2.7776 -1.7654 -1.4638
  997SOL     OW 2989   1.316   1.137   1.810  0.4042 -0.4491 -0.9113
  997SOL    HW1 2990   1.237   1.138   1.873  1.1389  0.3492 -1.5453
  997SOL    HW2 2991   1.357   1.046   1.797 -0.2139  4.1008 -3.2602
  998SOL     OW 2992   2.604   2.185   1.062 -0.2519 -0.2777 -0.3648
  998SOL    HW1 2993   2.548   2.270   1.045 -0.8148  0.6355  0.1322
  998SOL    HW2 2994   2.689   2.179   1.001 -0.2986  1.2393  0.0079
  999SOL     OW 2995   2.160   2.259   0.359 -0.4291 -0.3223 -0.6674
  999SOL    HW1 2996   2.067   2.295   0.374  1.9874 -1.2177  2.5054
  999SOL    HW2 2997   2.231   2.300   0.423  0.4378  0.5172 -1.1501
 1000SOL     OW 2998   0.811   2.876   3.085  0.0999 -0.3571 -0.1881
 1000SOL    HW1 2999   0.818   2.783   0.035  1.0668 -2.1422 -3.2957
 1000SOL    HW2 3000   0.729   2.883   3.028  1.3501 -0.6090  0.1204
   3.08549   3.08549   3.08549
