1000 SPC/Fw water molecules t=  18.00000 step= 18000
 3000
    1SOL     OW    1   1.853   2.624   0.186  0.3350  0.8895 -0.0857
    1SOL    HW1    2   1.893   2.649   0.278  0.8200 -0.7526 -0.5104
    1SOL    HW2    3   1.751   2.614   0.192 -2.6372 -1.6778 -1.3550
    2SOL     OW    4   1.121   0.786   2.116 -0.0330 -0.1486 -0.1417
    2SOL    HW1    5   1.211   0.786   2.161  0.0015 -2.0948 -0.8464
    2SOL    HW2    6   1.044   0.753   2.173  1.9706 -2.5325  1.3667
    3SOL     OW    7   0.738   0.054   2.764  0.4803 -0.3182 -0.0022
    3SOL    HW1    8   0.733   0.128   2.690  0.7792  0.6111 -0.3248
    3SOL    HW2    9   0.643   0.019   2.789  0.3636 -1.5573  1.7575
    4SOL     OW   10   1.594   1.657   2.937 -0.2648  0.0539 -0.4049
    4SOL    HW1   11   1.531   1.576   2.920 -3.2168 -0.2197 -2.3452
    4SOL    HW2   12   1.544   1.743   2.934  0.1434 -2.7650  1.1947
    5SOL     OW   13   0.752   0.887   2.242 -0.0131 -0.1561  0.4505
    5SOL    HW1   14   0.835   0.821   2.249  2.6460 -1.2672 -0.0477
    5SOL    HW2   15   0.734   0.949   2.320  1.2043  0.1813 -0.9838
    6SOL     OW   16   1.993   0.850   2.611  0.8017 -0.4600  0.2406
    6SOL    HW1   17   1.977   0.760   2.571  0.4175  0.6442  1.1788
    6SOL    HW2   18   2.078   0.897   2.578  0.1639 -0.0969  0.0937
    7SOL     OW   19   0.557   0.893   1.216  0.4696  0.5632  0.7864
    7SOL    HW1   20   0.554   0.838   1.128 -2.0987 -3.5590 -2.5427
    7SOL    HW2   21   0.482   0.967   1.214  0.3618  2.5577  1.5121
    8SOL     OW   22   1.991   2.803   1.936 -0.0591 -0.1240  0.1962
    8SOL    HW1   23   1.896   2.785   1.892 -1.0814  0.9937  2.0822
    8SOL    HW2   24   2.003   2.904   1.941  0.2069 -0.5100  0.2034
    9SOL     OW   25   0.097   2.486   0.676  0.4078  0.2789  0.1088
    9SOL    HW1   26   0.074   2.422   0.599  0.0670 -2.8662  0.2590
    9SOL    HW2   27   0.087   2.586   0.652  1.7706 -0.3600  1.7502
   10SOL     OW   28   3.049   2.384   2.407 -0.1746  0.3323  0.0465
   10SOL    HW1   29   3.007   2.429   2.326  1.0418 -0.8555  0.5364
   10SOL    HW2   30   3.052   2.279   2.398  0.5741 -1.1706  0.0584
   11SOL     OW   31   0.460   1.526   0.021  0.7315  0.2241 -0.4454
   11SOL    HW1   32   0.479   1.469   0.106  1.1545 -3.3228  1.5195
   11SOL    HW2   33   0.498   1.618   0.019  0.1984 -3.7887 -1.6275
   12SOL     OW   34   2.151   2.735   1.007 -0.3404  0.3887  0.9501
   12SOL    HW1   35   2.147   2.738   1.110 -0.3353 -1.8571  0.4280
   12SOL    HW2   36   2.084   2.676   0.958 -2.6651  1.5017 -1.0642
   13SOL     OW   37   0.072   0.397   2.693 -0.2637 -0.5921 -0.1903
   13SOL    HW1   38   0.121   0.415   2.780 -1.0330 -0.9208 -2.0472
   13SOL    HW2   39   0.087   0.470   2.624 -1.5825 -0.5599 -2.0583
   14SOL     OW   40   1.248   1.130   1.746  0.2710 -0.2491  0.0455
   14SOL    HW1   41   1.212   1.049   1.798 -1.8502  1.7816 -1.4485
   14SOL    HW2   42   1.203   1.218   1.782 -0.4863  2.7451  0.4469
   15SOL     OW   43   0.587   1.478   1.981 -0.7247  0.1280 -0.5173
   15SOL    HW1   44   0.543   1.508   1.896  0.6170 -1.7342 -0.4439
   15SOL    HW2   45   0.552   1.400   2.029  0.5573  4.2038  4.4839
   16SOL     OW   46   1.581   1.053   2.755  0.2165  0.0748  0.0539
   16SOL    HW1   47   1.635   1.117   2.699 -3.4383 -3.2383 -0.9397
   16SOL    HW2   48   1.644   0.987   2.797 -1.0265  0.1490 -1.5836
   17SOL     OW   49   2.974   2.518   2.179  0.0110  0.3335 -0.1878
   17SOL    HW1   50   2.986   2.610   2.143  1.3077 -3.1346  0.5529
   17SOL    HW2   51   3.002   2.445   2.117 -1.3439 -1.6218 -1.0211
   18SOL     OW   52   1.507   1.284   0.737  0.1915 -0.2129 -0.2006
   18SOL    HW1   53   1.533   1.187   0.755 -0.0176 -1.3017 -0.4566
   18SOL    HW2   54   1.409   1.298   0.748 -0.3606  1.4721 -0.6949
   19SOL     OW   55   0.318   1.275   1.899 -0.7386  0.5176 -0.0232
   19SOL    HW1   56   0.365   1.265   1.991  0.2353 -0.7229 -1.5255
   19SOL    HW2   57   0.319   1.182   1.863  0.1170 -1.2371  0.6133
   20SOL     OW   58   1.951   2.289   2.903 -0.4121  0.0332  0.2910
   20SOL    HW1   59   1.959   2.319   2.998  1.9998  0.2833 -1.4671
   20SOL    HW2   60   2.002   2.354   2.843  0.4615  1.0927 -1.3404
   21SOL     OW   61   1.853   1.826   1.035 -0.5484 -0.0722  0.1776
   21SOL    HW1   62   1.860   1.823   1.135 -1.9252 -1.2931 -0.5045
   21SOL    HW2   63   1.927   1.765   0.989 -0.2865 -2.7274 -1.6934
   22SOL     OW   64   1.958   2.154   1.368  0.7271 -0.1629  0.4711
   22SOL    HW1   65   1.891   2.079   1.390 -1.5635 -3.0220  1.1687
   22SOL    HW2   66   1.914   2.232   1.310  1.7095  1.1841  0.3113
   23SOL     OW   67   0.033   1.045   1.647  0.3961 -0.5389  0.1311
   23SOL    HW1   68   3.085   0.978   1.578 -1.9387  0.9949  1.7875
   23SOL    HW2   69   3.042   1.111   1.666 -2.6212 -1.0745 -1.2349
   24SOL     OW   70   1.643   1.262   1.958 -0.1550  0.7648 -0.7450
   24SOL    HW1   71   1.610   1.205   1.884  1.4524  6.1299  1.6753
   24SOL    HW2   72   1.737   1.291   1.923  4.3293  0.0948 -2.6343
   25SOL     OW   73   1.885   0.075   2.313  0.1652 -0.2376  0.5557
   25SOL    HW1   74   1.970   0.026   2.317 -2.3137  2.0938 -0.8197
   25SOL    HW2   75   1.874   0.168   2.359  0.5979  2.0594 -2.3057
   26SOL     OW   76   0.632   2.863   0.723 -0.0125  0.1533  0.0753
   26SOL    HW1   77   0.681   2.911   0.797 -1.8437 -3.4117  0.2986
   26SOL    HW2   78   0.675   2.774   0.701 -0.7016  0.0531 -1.9870
   27SOL     OW   79   1.503   1.180   1.110 -0.4708  0.1884 -0.3420
   27SOL    HW1   80   1.602   1.178   1.089 -0.8490  0.0792  0.2278
   27SOL    HW2   81   1.467   1.275   1.089 -2.7455 -0.0227  2.0035
   28SOL     OW   82   2.184   2.328   0.990 -0.0263 -0.1480  0.4050
   28SOL    HW1   83   2.204   2.347   0.890  1.3771 -1.3487 -2.6078
   28SOL    HW2   84   2.246   2.387   1.052  1.8933  1.1902  1.1336
   29SOL     OW   85   2.118   3.010   2.310 -0.1938 -0.2080 -0.6323
   29SOL    HW1   86   2.080   2.914   2.302  0.0235  0.0531 -0.8695
   29SOL    HW2   87   2.215   3.011   2.349  4.4518 -2.0660  0.1635
   30SOL     OW   88   0.101   2.753   1.913  0.4751 -0.4331 -0.1717
   30SOL    HW1   89   0.075   2.797   1.825 -0.8648  0.2545  0.5599
   30SOL    HW2   90   0.193   2.781   1.939 -0.5858  1.5178  0.1605
   31SOL     OW   91   2.972   1.798   1.914 -0.1849  0.9368 -0.5213
   31SOL    HW1   92   3.041   1.727   1.929 -0.0486  0.6899  1.5367
   31SOL    HW2   93   2.949   1.818   1.818 -0.8428 -1.1077  0.6526
   32SOL     OW   94   1.117   2.121   2.155 -0.4584 -0.4238  0.1040
   32SOL    HW1   95   1.136   2.089   2.062 -0.8088 -0.1454  1.7883
   32SOL    HW2   96   1.208   2.131   2.202 -2.5528  1.1674 -0.6915
   33SOL     OW   97   0.162   0.390   2.967 -0.8016 -0.3846 -0.1554
   33SOL    HW1   98   0.248   0.331   2.974  1.5517 -0.2803  2.6217
   33SOL    HW2   99   0.192   0.487   2.999  2.1269  1.3782 -0.9322
   34SOL     OW  100   2.751   0.092   0.149 -0.1776  0.0034  0.0741
   34SOL    HW1  101   2.844   0.055   0.164 -0.9557  0.6807  1.7364
   34SOL    HW2  102   2.740   0.152   0.063 -0.9585 -0.2131  1.0689
   35SOL     OW  103   2.843   2.689   1.643  0.4190 -0.9577 -0.2932
   35SOL    HW1  104   2.763   2.653   1.700 -3.1363 -3.3326 -1.1320
   35SOL    HW2  105   2.814   2.743   1.558 -1.5442  1.9783 -1.7188
   36SOL     OW  106   2.378   2.966   2.402 -0.0529  0.1347 -0.0281
   36SOL    HW1  107   2.382   2.915   2.492  3.0626  0.1074  3.1799
   36SOL    HW2  108   2.419   3.056   2.414  0.3358 -1.1773 -2.2781
   37SOL     OW  109   1.595   2.937   2.912 -0.8466 -0.1165  0.2476
   37SOL    HW1  110   1.664   2.879   2.855  2.7707 -5.0482 -2.8432
   37SOL    HW2  111   1.496   2.919   2.882 -0.0966 -0.8708 -0.0080
   38SOL     OW  112   0.470   0.575   0.472 -1.1931  0.1899 -0.1124
   38SOL    HW1  113   0.435   0.489   0.507 -0.8966  4.4282 -1.5535
   38SOL    HW2  114   0.454   0.654   0.538  0.0196  2.1955  3.1476
   39SOL     OW  115   0.963   1.845   1.931 -0.3398  0.4105  0.2938
   39SOL    HW1  116   0.996   1.763   1.986  0.4199 -2.9962 -1.0355
   39SOL    HW2  117   1.040   1.905   1.917 -1.7554 -0.3355  1.6548
   40SOL     OW  118   3.023   0.676   2.843  0.2180 -0.2895 -0.7018
   40SOL    HW1  119   2.991   0.581   2.824 -0.6942  1.1212 -1.3783
   40SOL    HW2  120   3.008   0.699   2.942  0.4375  0.1193 -0.7642
   41SOL     OW  121   1.221   0.562   1.813 -0.6622  0.4060  0.1946
   41SOL    HW1  122   1.291   0.621   1.774 -0.2810  1.0958 -1.3920
   41SOL    HW2  123   1.247   0.532   1.910 -0.3382  0.4342  5.0075
   42SOL     OW  124   2.458   0.153   1.133  0.3138 -0.4906 -0.4113
   42SOL    HW1  125   2.420   0.207   1.056  2.5231 -2.0208  3.0976
   42SOL    HW2  126   2.466   0.207   1.221 -0.9459  1.5709  0.7350
   43SOL     OW  127   1.446   0.684   1.726 -0.1641  0.3831  0.4204
   43SOL    HW1  128   1.510   0.761   1.720  0.3329  0.4757  0.5843
   43SOL    HW2  129   1.490   0.596   1.705 -2.6588  4.3355  2.0296
   44SOL     OW  130   0.216   0.644   3.079 -0.7878  0.4153  0.4576
   44SOL    HW1  131   0.250   0.613   0.081 -1.4958  0.7292 -2.7699
   44SOL    HW2  132   0.162   0.730   0.009  0.0003  0.8389 -0.4442
   45SOL     OW  133   0.301   1.713   1.710  0.2320 -0.1650 -0.1671
   45SOL    HW1  134   0.349   1.755   1.633 -0.3413  0.5576 -0.0451
   45SOL    HW2  135   0.353   1.625   1.730  0.3271 -4.8466  0.0683
   46SOL     OW  136   2.268   2.816   1.910  0.0929  0.6179  0.0287
   46SOL    HW1  137   2.300   2.897   1.965 -0.1448 -2.2767  1.7653
   46SOL    HW2  138   2.168   2.794   1.936 -1.6302 -1.6952 -0.1625
   47SOL     OW  139   0.067   1.832   1.350 -0.0341  0.5519  0.6019
   47SOL    HW1  140   0.101   1.736   1.379 -0.2342 -1.8270 -0.4935
   47SOL    HW2  141   0.099   1.892   1.422 -1.9120 -1.3167 -2.9420
   48SOL     OW  142   1.034   2.549   2.776 -0.0895  0.0782 -0.2479
   48SOL    HW1  143   0.988   2.475   2.727  0.6996 -1.9525  1.3615
   48SOL    HW2  144   1.015   2.552   2.877  1.1033  1.9469 -2.3621
   49SOL     OW  145   2.484   1.421   1.731  0.2526 -0.3344  0.3361
   49SOL    HW1  146   2.561   1.486   1.709  2.8263  0.9793 -0.5339
   49SOL    HW2  147   2.496   1.387   1.821 -0.3577  2.8001 -2.4230
   50SOL     OW  148   1.091   2.921   0.525  0.0574 -0.3837  0.4702
   50SOL    HW1  149   1.190   2.936   0.516 -1.7414  2.7246 -1.6404
   50SOL    HW2  150   1.043   3.005   0.558 -1.0963 -0.1939  0.1124
   51SOL     OW  151   1.275   0.258   1.130  0.2304  0.6981 -0.1484
   51SOL    HW1  152   1.180   0.224   1.155 -3.2399  0.8535 -0.3214
   51SOL    HW2  153   1.346   0.222   1.197 -1.1413 -1.1030 -0.2968
   52SOL     OW  154   0.620   1.023   0.390 -0.2914 -0.1381  0.2491
   52SOL    HW1  155   0.656   0.982   0.306 -1.2916 -0.7221  1.9051
   52SOL    HW2  156   0.660   1.109   0.418 -3.9902 -4.4460  0.7233
   53SOL     OW  157   1.140   0.026   2.690  0.2081  0.0170 -0.6440
   53SOL    HW1  158   1.072   3.078   2.760 -2.2412  3.4517 -0.1111
   53SOL    HW2  159   1.092   0.069   2.609  0.2075  1.0583  0.6723
   54SOL     OW  160   2.232   0.362   2.194 -0.2160 -0.9218 -0.0912
   54SOL    HW1  161   2.264   0.401   2.284 -1.1240  0.0009 -0.3555
   54SOL    HW2  162   2.152   0.412   2.163  0.3439  2.2633  0.3755
   55SOL     OW  163   2.956   2.440   0.153 -0.1089  0.2019 -0.4944
   55SOL    HW1  164   3.050   2.426   0.119  1.9747  1.9547  1.6056
   55SOL    HW2  165   2.955   2.529   0.204  2.3677 -1.5347  0.2953
   56SOL     OW  166   0.792   0.186   1.859  0.3778 -0.1995 -0.0347
   56SOL    HW1  167   0.733   0.123   1.914 -3.6945 -0.5274  1.5979
   56SOL    HW2  168   0.859   0.235   1.920 -0.9005  0.8022 -0.3561
   57SOL     OW  169   1.700   0.939   2.398 -0.4925  0.0361 -0.2229
   57SOL    HW1  170   1.677   1.008   2.469  0.1900  2.2596 -1.4389
   57SOL    HW2  171   1.710   0.977   2.303  0.1908 -1.5609 -1.0865
   58SOL     OW  172   2.844   0.988   2.255 -0.5362 -0.6473 -0.0588
   58SOL    HW1  173   2.923   0.998   2.187 -0.4602 -2.8285  0.8465
   58SOL    HW2  174   2.831   0.890   2.268  0.9405 -1.1375  2.9620
   59SOL     OW  175   0.633   2.599   1.607  0.9522 -0.1389  0.3581
   59SOL    HW1  176   0.691   2.656   1.669  0.2925  2.8391 -3.0716
   59SOL    HW2  177   0.618   2.645   1.518  2.0707 -0.7044  1.0192
   60SOL     OW  178   1.991   2.711   0.406 -0.2437  0.1547  0.2650
   60SOL    HW1  179   2.001   2.654   0.488  1.0017 -2.5742  1.1956
   60SOL    HW2  180   2.081   2.758   0.388  0.6743 -1.4238  1.3140
   61SOL     OW  181   1.534   2.471   0.392  0.6204  0.2911 -0.6281
   61SOL    HW1  182   1.601   2.411   0.438 -1.5578 -3.0591  1.6443
   61SOL    HW2  183   1.545   2.464   0.290 -1.7798 -0.9514 -1.5880
   62SOL     OW  184   1.798   2.806   2.759 -0.4454  0.4257  0.2037
   62SOL    HW1  185   1.852   2.803   2.674  0.3236 -0.6246 -1.9495
   62SOL    HW2  186   1.807   2.718   2.806 -1.5094 -2.1109 -3.2754
   63SOL     OW  187   2.221   0.652   0.304  0.0801  0.9602  0.4364
   63SOL    HW1  188   2.225   0.746   0.263 -0.3674 -1.1908 -1.0285
   63SOL    HW2  189   2.132   0.639   0.353 -1.3555  2.4781 -0.6517
   64SOL     OW  190   1.485   1.096   3.041  0.0403 -0.0105  0.4735
   64SOL    HW1  191   1.452   1.005   3.013  1.4813  1.3507  1.7924
   64SOL    HW2  192   1.411   1.155   3.081  0.3819 -1.8548  0.7652
   65SOL     OW  193   0.412   2.413   1.446 -0.0180  0.4378  0.1181
   65SOL    HW1  194   0.378   2.349   1.372 -0.1744  1.3086 -0.8495
   65SOL    HW2  195   0.486   2.476   1.410 -1.4479  2.1899  0.3678
   66SOL     OW  196   1.002   1.336   1.515  0.0867  0.3474  0.3589
   66SOL    HW1  197   1.063   1.252   1.512 -1.0526 -0.7400  1.4200
   66SOL    HW2  198   0.970   1.358   1.612  0.9347 -1.3995  1.9546
   67SOL     OW  199   2.308   1.987   1.698  0.5566 -0.3064 -0.4114
   67SOL    HW1  200   2.327   2.008   1.602  1.3925 -1.2319  5.4301
   67SOL    HW2  201   2.327   1.890   1.714 -1.8599 -2.9024 -1.9064
   68SOL     OW  202   0.867   1.624   1.680 -0.0996  0.4189  0.0225
   68SOL    HW1  203   0.808   1.544   1.656  0.5418  1.7306 -0.7419
   68SOL    HW2  204   0.807   1.673   1.745  1.3792 -1.3609 -0.2399
   69SOL     OW  205   0.082   2.842   0.089 -0.1646  0.6099 -0.6553
   69SOL    HW1  206   0.089   2.743   0.118 -0.7824 -1.6634  0.2868
   69SOL    HW2  207   0.106   2.904   0.165 -0.8012  0.1249  3.2743
   70SOL     OW  208   2.194   1.065   2.538 -0.5572 -0.2947 -0.1709
   70SOL    HW1  209   2.118   1.119   2.505  3.5931 -0.8759 -1.1929
   70SOL    HW2  210   2.277   1.093   2.487  0.2534 -0.3290 -1.3382
   71SOL     OW  211   0.827   1.942   1.166 -0.2255 -0.1758  0.2911
   71SOL    HW1  212   0.755   1.983   1.229  0.5609  1.9592  1.0839
   71SOL    HW2  213   0.810   1.975   1.073 -1.5263  1.6221 -0.7695
   72SOL     OW  214   2.620   2.076   0.429  0.2138 -0.1769 -0.3390
   72SOL    HW1  215   2.587   2.136   0.354  0.6335 -1.9657  1.3578
   72SOL    HW2  216   2.624   2.122   0.525 -0.2666 -0.7518 -0.7342
   73SOL     OW  217   1.717   0.649   0.749  0.4352  0.3688 -0.3049
   73SOL    HW1  218   1.742   0.713   0.826  0.1694 -1.4114 -3.6095
   73SOL    HW2  219   1.676   0.563   0.780 -0.9721 -0.9266 -1.2295
   74SOL     OW  220   2.618   2.119   2.040  0.3163 -0.2686  0.0324
   74SOL    HW1  221   2.678   2.192   2.004  1.0996  0.4041  0.0252
   74SOL    HW2  222   2.612   2.135   2.146 -0.7691  1.3494  3.4290
   75SOL     OW  223   1.595   1.907   1.863  0.1570 -0.5429  0.0259
   75SOL    HW1  224   1.513   1.854   1.829 -0.7528 -0.4576  1.3113
   75SOL    HW2  225   1.678   1.849   1.856 -0.6131  0.6740  2.8918
   76SOL     OW  226   1.474   1.342   1.428  0.3585  0.0060 -0.5974
   76SOL    HW1  227   1.442   1.250   1.390 -0.2776  0.1638 -2.4036
   76SOL    HW2  228   1.546   1.386   1.368 -0.2049 -0.8107 -1.8795
   77SOL     OW  229   2.458   1.123   1.676  0.7383 -0.3674  0.8338
   77SOL    HW1  230   2.441   1.221   1.657  0.0829 -1.7047 -0.2619
   77SOL    HW2  231   2.430   1.065   1.595  2.7116  0.0438 -1.5252
   78SOL     OW  232   1.552   0.870   0.364 -0.2451  0.2226 -0.0961
   78SOL    HW1  233   1.521   0.843   0.271  0.6105 -0.8912  1.1958
   78SOL    HW2  234   1.521   0.805   0.438  2.8586  0.7703  0.5856
   79SOL     OW  235   1.176   1.402   2.137  0.1095 -0.0751 -0.2460
   79SOL    HW1  236   1.276   1.428   2.112  1.7933 -0.0506  0.8128
   79SOL    HW2  237   1.160   1.302   2.128  0.1421  0.6712 -0.3217
   80SOL     OW  238   1.115   0.146   1.552  0.6421  0.1253 -0.7915
   80SOL    HW1  239   1.098   0.248   1.569  0.3731  1.8814  0.4290
   80SOL    HW2  240   1.149   0.103   1.639 -0.6151 -0.9818 -1.8464
   81SOL     OW  241   0.452   2.388   0.153 -0.0724  1.0245  0.0926
   81SOL    HW1  242   0.418   2.471   0.107  0.0908 -0.3335 -1.5406
   81SOL    HW2  243   0.521   2.349   0.084 -0.8319  0.1745 -2.2169
   82SOL     OW  244   1.218   0.041   1.785  0.2521 -0.2278  0.3570
   82SOL    HW1  245   1.149   0.023   1.853 -0.4074 -0.1337 -2.4178
   82SOL    HW2  246   1.276   3.041   1.771  2.3972 -0.2158  0.7190
   83SOL     OW  247   0.343   2.109   0.971 -0.1214 -0.2874 -0.2530
   83SOL    HW1  248   0.241   2.111   0.987 -1.2112  2.2480  0.8923
   83SOL    HW2  249   0.363   2.103   0.872 -0.4754  0.3114  1.7234
   84SOL     OW  250   2.898   1.537   0.877  0.6494 -0.1691  0.3056
   84SOL    HW1  251   2.888   1.435   0.868 -0.8392 -2.0984 -0.1678
   84SOL    HW2  252   2.990   1.566   0.848  2.8215  0.8648  0.2820
   85SOL     OW  253   2.160   1.989   1.286 -0.4273  0.1641  0.2245
   85SOL    HW1  254   2.092   2.056   1.324 -0.4902  0.8347 -1.0024
   85SOL    HW2  255   2.139   1.888   1.307 -1.9612 -0.1311 -1.2370
   86SOL     OW  256   1.451   2.260   1.989  0.0808 -0.4107  0.5940
   86SOL    HW1  257   1.410   2.340   2.030 -0.8970 -2.6592 -0.9116
   86SOL    HW2  258   1.481   2.194   2.062 -3.0633 -2.4448 -0.3244
   87SOL     OW  259   2.234   1.694   0.728 -0.6085 -0.2085 -0.7261
   87SOL    HW1  260   2.238   1.637   0.643  0.4495  2.8767  1.3363
   87SOL    HW2  261   2.266   1.788   0.708 -0.4942 -2.1268  0.7114
   88SOL     OW  262   0.327   3.012   0.920 -0.0223 -0.6371 -0.1682
   88SOL    HW1  263   0.310   2.926   0.872 -0.1941 -0.4491 -0.7537
   88SOL    HW2  264   0.418   3.051   0.899  0.0900 -1.3242  0.5979
   89SOL     OW  265   0.343   0.742   1.987  0.4492  0.0175 -1.0777
   89SOL    HW1  266   0.365   0.825   2.048 -2.2314 -0.5730  0.5205
   89SOL    HW2  267   0.427   0.730   1.932 -1.2073 -1.8874 -0.7346
   90SOL     OW  268   2.936   1.977   0.263 -0.0804 -0.3388  0.9214
   90SOL    HW1  269   2.934   2.068   0.311  2.1007 -2.9175  0.7740
   90SOL    HW2  270   2.917   1.898   0.320 -0.4587  0.5772 -4.1350
   91SOL     OW  271   1.133   1.576   1.069 -0.1542 -0.0233  0.1343
   91SOL    HW1  272   1.091   1.577   1.164 -1.0042  0.4556  3.0951
   91SOL    HW2  273   1.224   1.526   1.074 -0.7053 -0.0671  0.9007
   92SOL     OW  274   2.226   3.081   1.691 -0.2944 -0.0252 -0.2309
   92SOL    HW1  275   2.306   3.078   1.759  0.2658  0.8476 -0.2825
   92SOL    HW2  276   2.162   3.004   1.711 -0.3824 -1.8691 -0.5169
   93SOL     OW  277   0.463   1.422   2.853  0.0268 -0.1309 -0.3140
   93SOL    HW1  278   0.453   1.456   2.945  0.3225  0.9011 -3.3163
   93SOL    HW2  279   0.557   1.426   2.826 -2.2442  0.0805  1.8075
   94SOL     OW  280   2.445   0.108   1.839  0.3484 -0.1008 -0.4303
   94SOL    HW1  281   2.468   0.194   1.890 -1.7779  0.4047  0.5948
   94SOL    HW2  282   2.518   0.042   1.863  1.5528 -1.0423 -3.6925
   95SOL     OW  283   1.871   0.331   1.958 -0.8756 -0.6523 -0.0136
   95SOL    HW1  284   1.837   0.260   2.027 -2.0423 -2.1450  2.6264
   95SOL    HW2  285   1.868   0.295   1.858 -1.1163 -1.5802  0.4051
   96SOL     OW  286   0.334   0.405   1.702 -0.1769  0.5621 -0.0834
   96SOL    HW1  287   0.271   0.357   1.636 -3.9660 -2.0201 -1.1968
   96SOL    HW2  288   0.356   0.498   1.685  0.2022 -1.0269  4.6956
   97SOL     OW  289   1.873   0.236   1.709  0.0759 -0.0484 -0.0177
   97SOL    HW1  290   1.886   0.249   1.608  1.3626 -0.8631 -3.0065
   97SOL    HW2  291   1.792   0.177   1.730 -2.6979 -1.0760  0.6492
   98SOL     OW  292   1.943   2.335   1.780  0.5607  0.1199 -0.4215
   98SOL    HW1  293   2.037   2.310   1.750  0.8006 -0.4099 -1.7918
   98SOL    HW2  294   1.937   2.319   1.881  0.3220  0.0049 -2.5413
   99SOL     OW  295   0.654   1.036   0.849  0.2183  0.5488  0.2696
   99SOL    HW1  296   0.675   1.040   0.748 -0.1555 -2.1461  2.9372
   99SOL    HW2  297   0.562   0.984   0.866 -1.3682  0.9946 -0.1470
  100SOL     OW  298   2.723   1.801   2.004 -0.2773 -0.3288 -0.3850
  100SOL    HW1  299   2.707   1.886   2.059 -0.0257 -0.9113 -0.1413
  100SOL    HW2  300   2.822   1.785   1.983 -0.2282 -2.0068 -1.7155
  101SOL     OW  301   1.650   0.003   0.038 -0.2350  0.3239 -0.3451
  101SOL    HW1  302   1.735   0.038   0.001  0.5772  0.7197 -0.5059
  101SOL    HW2  303   1.592   3.040   3.058  1.1167 -0.5390  0.4908
  102SOL     OW  304   0.000   0.070   1.132 -0.6878 -0.0348  0.2325
  102SOL    HW1  305   0.034   0.087   1.040 -0.5903  0.4509  0.7977
  102SOL    HW2  306   0.056   3.085   1.178 -1.8195  0.5828 -0.9047
  103SOL     OW  307   0.256   2.924   2.277  0.5410  0.3402  0.0301
  103SOL    HW1  308   0.159   2.913   2.302 -0.9820  2.0306  0.2534
  103SOL    HW2  309   0.296   2.837   2.295  0.1632 -2.7064 -2.0233
  104SOL     OW  310   0.167   2.054   1.484 -0.3773  0.6309  0.4132
  104SOL    HW1  311   0.079   2.107   1.492 -0.0169  2.4303  0.3092
  104SOL    HW2  312   0.223   2.090   1.404  1.1276  1.3858  0.3860
  105SOL     OW  313   0.497   1.909   1.928  0.2459  0.1742  0.1406
  105SOL    HW1  314   0.561   1.991   1.938  0.8000 -2.8142  0.0383
  105SOL    HW2  315   0.408   1.929   1.966  1.4223 -2.8919  2.0902
  106SOL     OW  316   2.374   3.014   0.549 -0.1195 -0.1746  0.6484
  106SOL    HW1  317   2.381   3.068   0.636 -0.7985  0.1729  0.2334
  106SOL    HW2  318   2.466   2.989   0.525 -3.9315  1.8395  1.5653
  107SOL     OW  319   0.541   1.248   1.043 -0.3011  0.0230 -0.5296
  107SOL    HW1  320   0.478   1.187   1.097 -0.2971  1.3726 -0.7152
  107SOL    HW2  321   0.603   1.194   0.984  2.6349 -0.5602  5.0504
  108SOL     OW  322   2.842   1.136   1.988 -0.0541 -0.3705 -0.2945
  108SOL    HW1  323   2.760   1.080   1.963  0.8826 -0.7040 -3.6397
  108SOL    HW2  324   2.828   1.237   1.968 -0.5453 -1.1775 -1.2699
  109SOL     OW  325   1.954   2.959   2.956 -0.4990  0.3263 -0.0018
  109SOL    HW1  326   1.930   3.057   2.958 -0.1299 -0.5318  1.5316
  109SOL    HW2  327   1.908   2.913   2.875  0.5743  1.4163  0.2102
  110SOL     OW  328   0.185   2.024   2.841  0.2517  0.1926 -0.0481
  110SOL    HW1  329   0.085   2.052   2.856 -1.1231  0.5622  1.2124
  110SOL    HW2  330   0.200   1.929   2.861  0.2607  1.5653 -0.4524
  111SOL     OW  331   2.646   0.981   2.465 -0.7502  0.3099 -0.3340
  111SOL    HW1  332   2.737   0.975   2.424 -1.3321  0.5728  2.0217
  111SOL    HW2  333   2.653   1.035   2.549  0.9116 -0.1544 -0.1970
  112SOL     OW  334   2.228   2.743   1.506 -0.7709  0.2971  0.1304
  112SOL    HW1  335   2.155   2.795   1.553  4.1790 -2.2444 -0.7159
  112SOL    HW2  336   2.313   2.734   1.565  1.9007 -1.0816 -0.6486
  113SOL     OW  337   2.035   2.114   2.688  0.4004 -0.2733  0.1588
  113SOL    HW1  338   2.131   2.124   2.671 -0.4476  0.9814 -1.9953
  113SOL    HW2  339   2.009   2.172   2.767  0.4943 -0.4716 -0.7191
  114SOL     OW  340   0.639   0.140   0.509 -0.0010 -0.5274 -0.2165
  114SOL    HW1  341   0.678   0.146   0.415 -2.3317 -0.6815  2.0927
  114SOL    HW2  342   0.715   0.150   0.578  1.3037  0.8442  0.8025
  115SOL     OW  343   0.071   1.702   0.001 -0.7544 -0.1334  0.0672
  115SOL    HW1  344   0.094   1.610   0.042 -1.6680  2.3462  0.1624
  115SOL    HW2  345   0.156   1.745   3.044  2.6893 -0.7519  0.1388
  116SOL     OW  346   2.934   1.245   1.705  0.1867  0.4578 -0.1283
  116SOL    HW1  347   2.890   1.331   1.733 -0.4383  2.0419 -2.2209
  116SOL    HW2  348   2.857   1.177   1.682  0.1909  0.1012  0.7583
  117SOL     OW  349   1.953   0.280   1.445 -0.3751  0.3227 -0.4617
  117SOL    HW1  350   2.048   0.308   1.416 -1.5022 -0.6901 -1.0906
  117SOL    HW2  351   1.875   0.325   1.392 -1.3740  0.2164 -1.7060
  118SOL     OW  352   2.740   2.791   1.978  0.1770 -0.1499  0.3693
  118SOL    HW1  353   2.737   2.713   1.915  0.2912 -0.0987 -0.7943
  118SOL    HW2  354   2.830   2.799   2.015 -2.0379 -0.1471  2.1306
  119SOL     OW  355   0.400   1.485   1.408  0.2268 -0.3534 -0.0316
  119SOL    HW1  356   0.476   1.422   1.408 -2.2049  2.7662 -1.5588
  119SOL    HW2  357   0.429   1.582   1.439  2.2359  0.6278 -1.6054
  120SOL     OW  358   0.440   1.478   1.731 -0.1675 -0.2425 -0.0062
  120SOL    HW1  359   0.523   1.441   1.676  0.3147 -1.3819  0.6748
  120SOL    HW2  360   0.381   1.401   1.769  0.1263  0.0001  1.8079
  121SOL     OW  361   1.572   1.026   0.779 -0.5522 -0.2628 -0.2440
  121SOL    HW1  362   1.626   0.994   0.697  2.3350 -0.8216  0.6503
  121SOL    HW2  363   1.593   0.968   0.863 -1.0197 -5.2529  2.2543
  122SOL     OW  364   2.379   2.471   2.700 -0.0344 -0.2844 -0.1661
  122SOL    HW1  365   2.317   2.547   2.735 -1.3909  1.6670 -0.0460
  122SOL    HW2  366   2.339   2.431   2.616  1.0426  2.2866  1.3132
  123SOL     OW  367   0.159   3.009   0.281 -0.5045 -0.1641 -0.0537
  123SOL    HW1  368   0.154   3.029   0.382  2.4878 -0.9493  2.0963
  123SOL    HW2  369   0.257   3.019   0.244  1.0640  2.5758 -1.6982
  124SOL     OW  370   1.695   1.396   0.119 -0.1072  0.3251  0.0648
  124SOL    HW1  371   1.597   1.411   0.113  0.8869  1.3587 -1.0021
  124SOL    HW2  372   1.739   1.474   0.168 -1.0575 -0.8613  1.4564
  125SOL     OW  373   0.213   1.066   2.212 -0.7189  0.6746 -0.2354
  125SOL    HW1  374   0.200   0.994   2.286  0.3933  0.2896 -0.0631
  125SOL    HW2  375   0.289   1.037   2.153 -0.9317 -0.8496 -0.9394
  126SOL     OW  376   0.095   2.780   2.907  0.2344  0.3703  0.2613
  126SOL    HW1  377   0.000   2.764   2.870  0.0252  1.5819  1.0915
  126SOL    HW2  378   0.092   2.828   2.992  1.7680 -2.4291 -2.2399
  127SOL     OW  379   2.869   2.030   0.001 -0.1988  0.1119  0.0307
  127SOL    HW1  380   2.881   2.016   0.100 -0.5276 -1.1643 -0.6517
  127SOL    HW2  381   2.795   2.097   3.073  1.2985 -0.2658  1.4573
  128SOL     OW  382   1.164   0.770   0.936  0.0714 -0.0188  0.0533
  128SOL    HW1  383   1.192   0.779   1.036 -1.5643 -0.6885 -0.5134
  128SOL    HW2  384   1.080   0.822   0.919  0.5878 -0.9287  1.5716
  129SOL     OW  385   2.319   2.092   1.090  0.0487  0.1150  0.0743
  129SOL    HW1  386   2.270   2.029   1.156  0.4782  0.7993  0.8735
  129SOL    HW2  387   2.265   2.177   1.072 -0.1612  0.6515 -0.4225
  130SOL     OW  388   1.935   0.886   0.240  0.7581 -0.0956 -0.0471
  130SOL    HW1  389   2.035   0.893   0.258  3.7126  1.8786  0.3092
  130SOL    HW2  390   1.902   0.963   0.181  0.6964 -0.3792  0.0411
  131SOL     OW  391   2.911   1.464   2.628  0.0361  0.0127 -0.0644
  131SOL    HW1  392   2.936   1.508   2.540  0.3798 -0.7339 -1.3809
  131SOL    HW2  393   2.969   1.494   2.707 -1.2499 -0.6484 -1.4240
  132SOL     OW  394   1.051   1.123   2.116  0.9103  0.1111  0.2604
  132SOL    HW1  395   0.960   1.166   2.136 -1.7571  0.0791  2.9596
  132SOL    HW2  396   1.055   1.055   2.045  1.6231  2.1054  1.0771
  133SOL     OW  397   0.501   1.301   0.637 -0.2069 -0.2068 -0.1228
  133SOL    HW1  398   0.582   1.291   0.575  1.0163 -1.4172 -0.9289
  133SOL    HW2  399   0.483   1.397   0.669  0.5813  2.4143  2.5813
  134SOL     OW  400   2.911   1.413   3.041 -0.3135  0.0682 -0.0089
  134SOL    HW1  401   2.924   1.315   3.035 -2.2920  2.5394  2.1573
  134SOL    HW2  402   2.814   1.438   3.044  1.4821  0.6889  0.1034
  135SOL     OW  403   1.511   0.784   0.125 -0.3472 -0.2655 -0.1805
  135SOL    HW1  404   1.439   0.799   0.053 -0.9184  2.5973  0.3626
  135SOL    HW2  405   1.607   0.812   0.097  0.3170 -0.1707  1.2939
  136SOL     OW  406   2.150   1.716   1.321 -0.1849 -0.9646  0.2117
  136SOL    HW1  407   2.212   1.674   1.251  2.5872 -0.6945 -2.8359
  136SOL    HW2  408   2.050   1.712   1.302  0.5870 -2.0690 -1.1475
  137SOL     OW  409   2.363   2.659   0.723 -0.4389  0.0215  0.0785
  137SOL    HW1  410   2.387   2.739   0.778 -1.5878 -0.6803 -0.8130
  137SOL    HW2  411   2.267   2.666   0.682  2.3306 -0.9337  1.3352
  138SOL     OW  412   2.282   0.515   1.919 -0.2556  0.0883  0.3279
  138SOL    HW1  413   2.292   0.556   2.013  0.2085  0.7044  0.0692
  138SOL    HW2  414   2.214   0.440   1.916 -1.6357 -0.4001  2.6504
  139SOL     OW  415   2.653   2.654   2.854 -0.6708 -0.2010  0.3045
  139SOL    HW1  416   2.559   2.690   2.875 -3.0801  0.1136  3.0008
  139SOL    HW2  417   2.667   2.604   2.763  0.2023  1.6348 -0.3086
  140SOL     OW  418   1.594   1.945   2.238 -0.2779  0.2025 -0.1459
  140SOL    HW1  419   1.678   1.978   2.189 -1.1339 -1.0999 -1.9839
  140SOL    HW2  420   1.551   1.859   2.204  0.1562  0.7499  2.5718
  141SOL     OW  421   0.998   1.145   2.523  0.2526 -0.2164 -0.2999
  141SOL    HW1  422   1.020   1.235   2.472  1.5011 -0.7904 -0.6398
  141SOL    HW2  423   1.066   1.122   2.594  0.8655 -1.1259 -0.5129
  142SOL     OW  424   2.139   2.544   1.941  0.1248  0.0020  0.5552
  142SOL    HW1  425   2.195   2.612   1.887  0.0454  0.9658  0.7007
  142SOL    HW2  426   2.051   2.590   1.969  1.5946 -0.8118  0.3500
  143SOL     OW  427   1.268   2.368   0.406 -0.2881 -0.0012  0.0005
  143SOL    HW1  428   1.337   2.427   0.356  0.0010 -0.3813  2.3640
  143SOL    HW2  429   1.305   2.340   0.496 -1.8783 -3.4130 -1.2026
  144SOL     OW  430   1.014   2.651   0.559 -0.0029 -0.2898  0.0491
  144SOL    HW1  431   1.059   2.743   0.563  2.2805 -1.5339  1.0032
  144SOL    HW2  432   1.038   2.605   0.469  0.8833 -1.4302  1.6158
  145SOL     OW  433   1.665   2.657   2.489  0.1502  0.0009 -0.2950
  145SOL    HW1  434   1.569   2.632   2.469  1.9859  0.3206 -0.3027
  145SOL    HW2  435   1.696   2.750   2.465  1.5997 -2.5522  2.5449
  146SOL     OW  436   1.999   2.822   0.090 -0.1139  0.0677  0.3439
  146SOL    HW1  437   1.963   2.879   0.009 -2.3101  0.1027 -0.2101
  146SOL    HW2  438   1.939   2.740   0.105 -1.1007 -0.0989  0.7794
  147SOL     OW  439   0.135   1.579   1.382  0.6011 -0.3419  0.3114
  147SOL    HW1  440   0.226   1.544   1.395 -2.8558  0.2860 -0.4307
  147SOL    HW2  441   0.079   1.503   1.338 -0.7252  0.8247 -1.8827
  148SOL     OW  442   1.636   2.848   0.222 -0.2168  0.3748  0.5631
  148SOL    HW1  443   1.696   2.898   0.285 -2.0293  0.7733  0.6979
  148SOL    HW2  444   1.694   2.806   0.150  0.4397 -0.9086  0.2780
  149SOL     OW  445   0.618   1.946   2.919 -0.2742  0.1982 -0.1553
  149SOL    HW1  446   0.715   1.980   2.910  1.8651  2.5923  0.4076
  149SOL    HW2  447   0.557   2.020   2.956 -1.4213 -1.3149 -1.7407
  150SOL     OW  448   0.091   2.594   1.149 -0.4511 -0.2286 -0.4196
  150SOL    HW1  449   0.152   2.671   1.168 -2.7775 -1.2634 -0.5090
  150SOL    HW2  450   3.079   2.620   1.167 -1.1636  0.6521 -1.4694
  151SOL     OW  451   0.449   1.117   2.989 -0.2967  0.1113 -0.5589
  151SOL    HW1  452   0.362   1.167   2.996  2.2652  3.1325  1.8027
  151SOL    HW2  453   0.514   1.169   3.050 -0.2431  2.3964  0.7367
  152SOL     OW  454   2.978   2.187   0.854 -0.1746  0.4716 -0.5711
  152SOL    HW1  455   2.893   2.134   0.868  0.8107 -0.5030  1.1611
  152SOL    HW2  456   2.959   2.291   0.843 -1.1004  0.2568  0.8377
  153SOL     OW  457   1.694   2.310   0.540 -0.4397  0.1833  0.2269
  153SOL    HW1  458   1.772   2.257   0.502 -1.1545 -1.1818  2.3055
  153SOL    HW2  459   1.638   2.244   0.598 -0.9492 -0.3271 -0.2578
  154SOL     OW  460   0.677   3.035   1.603  0.1696  0.3914 -0.3031
  154SOL    HW1  461   0.586   3.044   1.560 -0.1967 -0.1920 -0.4072
  154SOL    HW2  462   0.729   0.037   1.599 -1.7247 -0.1376 -1.1990
  155SOL     OW  463   2.870   2.232   0.309  0.2337 -0.3091 -0.1167
  155SOL    HW1  464   2.826   2.284   0.382 -1.0445  2.0204 -0.5666
  155SOL    HW2  465   2.898   2.300   0.231 -1.4953  1.0683 -2.0383
  156SOL     OW  466   2.639   1.975   0.177  0.3092  0.4068 -0.6447
  156SOL    HW1  467   2.627   2.063   0.127  1.8591 -0.1006  1.3483
  156SOL    HW2  468   2.658   1.995   0.275 -0.7865 -0.9588  0.2511
  157SOL     OW  469   0.697   2.924   1.988 -0.1261 -0.1077  0.7679
  157SOL    HW1  470   0.662   3.020   1.989  0.2894  1.4085  0.9537
  157SOL    HW2  471   0.633   2.853   2.028 -0.1384 -0.5540 -0.0775
  158SOL     OW  472   1.328   0.757   1.191  0.2453 -0.1987  0.0149
  158SOL    HW1  473   1.396   0.807   1.135 -2.2231 -2.3269  1.4655
  158SOL    HW2  474   1.329   0.782   1.292  0.9369 -1.9243  3.7126
  159SOL     OW  475   1.831   1.087   0.050 -0.3772  0.1518  0.2883
  159SOL    HW1  476   1.775   1.149   3.080 -0.9119  0.3228 -1.6542
  159SOL    HW2  477   1.813   0.988   0.017  0.0339 -2.3944  1.4018
  160SOL     OW  478   1.158   1.991   0.450  0.2379  0.0330  0.3130
  160SOL    HW1  479   1.234   2.014   0.391  0.2470 -3.6654  3.4322
  160SOL    HW2  480   1.138   2.075   0.502  1.9807  1.3164 -1.2798
  161SOL     OW  481   2.311   2.047   2.609  1.0500  0.0264  0.2781
  161SOL    HW1  482   2.388   1.989   2.629 -1.6405  0.6448 -1.6587
  161SOL    HW2  483   2.226   1.986   2.625 -0.8321 -0.1087 -1.1718
  162SOL     OW  484   0.115   2.336   1.545  0.4557 -0.4935  0.3326
  162SOL    HW1  485   0.031   2.277   1.551 -0.4619 -0.5261 -3.5445
  162SOL    HW2  486   0.132   2.351   1.447 -2.6578  0.6843 -1.0828
  163SOL     OW  487   0.152   0.658   2.619  0.3862 -0.5452 -0.3414
  163SOL    HW1  488   0.222   0.671   2.692 -2.5277  0.7528 -2.6465
  163SOL    HW2  489   0.087   0.729   2.643  1.7770  1.5163 -0.9999
  164SOL     OW  490   0.215   2.659   2.684  0.1873  0.5669  0.0461
  164SOL    HW1  491   0.177   2.566   2.706  1.6169 -0.2344 -1.7236
  164SOL    HW2  492   0.182   2.720   2.758 -0.0754 -2.0494 -1.9994
  165SOL     OW  493   2.538   0.750   1.667 -0.7006 -0.0356 -0.3186
  165SOL    HW1  494   2.494   0.787   1.584 -2.1892  1.6817  0.3664
  165SOL    HW2  495   2.641   0.761   1.668 -1.8374 -0.8714  0.2597
  166SOL     OW  496   2.132   1.420   1.252 -0.4229 -0.7003 -0.7665
  166SOL    HW1  497   2.143   1.328   1.284 -1.2365  2.1450 -2.5305
  166SOL    HW2  498   2.051   1.460   1.300 -0.1497 -2.7444  0.9680
  167SOL     OW  499   0.181   0.866   2.387 -0.1541 -0.4763  0.1584
  167SOL    HW1  500   0.145   0.771   2.399 -0.4211  1.1947  0.1700
  167SOL    HW2  501   0.135   0.929   2.457 -0.1383 -0.2638  2.1983
  168SOL     OW  502   2.287   0.312   2.513 -0.3872 -0.7854  0.4473
  168SOL    HW1  503   2.196   0.299   2.559 -0.5296  1.5506 -0.2106
  168SOL    HW2  504   2.293   0.410   2.483  1.2834  0.1830  0.1475
  169SOL     OW  505   0.563   0.878   0.018 -0.0943 -0.5595  0.4309
  169SOL    HW1  506   0.514   0.792   0.048  0.4472 -2.1176  0.0246
  169SOL    HW2  507   0.500   0.948   3.082 -1.2181 -2.9367  0.4640
  170SOL     OW  508   0.965   1.327   1.783  0.1495  0.3386 -0.0722
  170SOL    HW1  509   0.906   1.319   1.862  0.0501  0.9324 -1.3780
  170SOL    HW2  510   1.053   1.368   1.819  0.2346 -1.6240 -0.3315
  171SOL     OW  511   1.287   2.526   1.223 -0.4240  0.2837 -0.0773
  171SOL    HW1  512   1.251   2.609   1.275 -1.0444  0.1067  0.5953
  171SOL    HW2  513   1.386   2.519   1.253 -0.2761  0.6650  2.5466
  172SOL     OW  514   0.987   2.886   1.698  0.4948  0.1821 -0.1061
  172SOL    HW1  515   0.891   2.902   1.668  1.6542  2.6214 -1.0522
  172SOL    HW2  516   1.016   2.789   1.685 -0.1748  0.8441  2.8687
  173SOL     OW  517   0.757   2.621   0.685  0.3896  0.0960  0.2869
  173SOL    HW1  518   0.849   2.621   0.640 -0.9080  0.4851  1.9254
  173SOL    HW2  519   0.765   2.591   0.782 -1.6900 -1.8307  1.1641
  174SOL     OW  520   2.054   0.208   0.361  0.4320 -0.5565 -0.1170
  174SOL    HW1  521   1.985   0.178   0.426  1.3010  0.8182  1.4652
  174SOL    HW2  522   2.043   0.158   0.270  1.2749  1.2020 -0.7041
  175SOL     OW  523   1.338   1.411   1.011  0.5561 -0.2155 -0.3553
  175SOL    HW1  524   1.365   1.487   0.944 -2.0338  1.8327 -0.1284
  175SOL    HW2  525   1.302   1.330   0.966 -0.1646  2.5336  1.3733
  176SOL     OW  526   1.200   1.806   0.914 -0.1719 -0.2099  0.1358
  176SOL    HW1  527   1.142   1.886   0.894  0.3391  1.3804  0.0601
  176SOL    HW2  528   1.150   1.756   0.986 -2.0776 -0.8274 -0.1989
  177SOL     OW  529   1.769   1.181   0.986 -0.1607  0.4787 -0.1818
  177SOL    HW1  530   1.818   1.106   0.937 -1.2865  1.4345  0.0616
  177SOL    HW2  531   1.776   1.265   0.931  1.3184  0.2501 -0.0041
  178SOL     OW  532   2.275   1.539   0.504 -0.0956 -0.4340 -0.8669
  178SOL    HW1  533   2.370   1.549   0.466 -3.0462 -1.2290 -0.7002
  178SOL    HW2  534   2.213   1.479   0.452 -0.4569 -1.1272  0.4235
  179SOL     OW  535   1.264   3.054   3.060  0.0128 -0.5852 -0.1717
  179SOL    HW1  536   1.332   3.030   0.043  0.2213 -0.4851 -0.7078
  179SOL    HW2  537   1.297   0.049   3.005  1.8771 -0.8652  1.8061
  180SOL     OW  538   1.885   1.148   1.479  0.1978  0.7105 -0.0280
  180SOL    HW1  539   1.859   1.229   1.531  1.5737 -0.5152 -3.0977
  180SOL    HW2  540   1.907   1.174   1.380  0.6446 -1.6248 -1.1934
  181SOL     OW  541   0.741   0.937   1.815 -0.4344  0.1296 -0.3737
  181SOL    HW1  542   0.836   0.914   1.787  0.4468  0.1654  1.0189
  181SOL    HW2  543   0.693   0.846   1.840  1.5733 -1.3501  0.4874
  182SOL     OW  544   0.034   1.012   2.568  0.0658 -0.1686 -0.1199
  182SOL    HW1  545   3.039   0.968   2.532 -2.0680  0.1806  1.5616
  182SOL    HW2  546   0.031   1.112   2.546 -0.3391 -4.6463  0.9753
  183SOL     OW  547   1.498   0.317   2.231 -0.3296 -0.5702  0.3420
  183SOL    HW1  548   1.586   0.372   2.235  6.0390  0.4932  2.0607
  183SOL    HW2  549   1.454   0.292   2.320 -0.5874  0.0750 -1.7259
  184SOL     OW  550   0.744   0.532   1.147  0.0000  0.0279  0.1403
  184SOL    HW1  551   0.841   0.518   1.107  0.0218  0.4120  2.5485
  184SOL    HW2  552   0.701   0.450   1.183  3.2278  0.2870  1.5405
  185SOL     OW  553   2.238   1.164   0.438 -0.0632  0.1218 -0.3828
  185SOL    HW1  554   2.336   1.185   0.423 -1.7474 -0.5462  1.3465
  185SOL    HW2  555   2.172   1.232   0.389 -1.4246 -0.1234 -0.1351
  186SOL     OW  556   0.333   2.036   0.185 -0.0134  0.3711  0.6772
  186SOL    HW1  557   0.236   2.008   0.190 -2.5733 -1.4100  1.4006
  186SOL    HW2  558   0.372   2.033   0.091  2.0978  2.1951  2.6769
  187SOL     OW  559   1.778   2.102   2.952 -0.6716 -0.4269  0.3833
  187SOL    HW1  560   1.833   2.015   2.953  1.5623 -1.0363 -2.1657
  187SOL    HW2  561   1.839   2.189   2.939  1.2693  1.9302  1.4594
  188SOL     OW  562   1.241   2.281   1.438 -0.3425 -0.1703 -0.5648
  188SOL    HW1  563   1.328   2.309   1.483  0.5379 -1.7841  0.4486
  188SOL    HW2  564   1.268   2.251   1.350 -0.3672 -2.3177 -0.2720
  189SOL     OW  565   2.501   1.309   2.625  0.3940  0.4258  0.0822
  189SOL    HW1  566   2.414   1.357   2.642 -1.4762  1.5333 -0.6422
  189SOL    HW2  567   2.537   1.336   2.535 -3.3495  2.8586  1.0339
  190SOL     OW  568   0.779   2.661   2.248 -0.1363  0.8727  0.2335
  190SOL    HW1  569   0.739   2.619   2.162 -0.0656 -2.0037 -1.0098
  190SOL    HW2  570   0.722   2.737   2.277  0.2605 -1.6922 -1.1405
  191SOL     OW  571   2.623   1.082   1.243 -0.1732  0.1261  0.6654
  191SOL    HW1  572   2.713   1.110   1.290  0.8945  2.6012  0.4044
  191SOL    HW2  573   2.571   1.166   1.224  1.7794 -1.8476 -1.2237
  192SOL     OW  574   2.040   0.457   1.126 -0.3061 -0.2777  0.3683
  192SOL    HW1  575   2.096   0.461   1.213  1.2983 -2.7226 -3.0820
  192SOL    HW2  576   2.042   0.365   1.081  0.5347 -0.1975 -0.8235
  193SOL     OW  577   0.915   0.245   0.317  0.1544 -0.3169 -0.4120
  193SOL    HW1  578   1.000   0.245   0.261 -0.0009 -3.8699  0.9150
  193SOL    HW2  579   0.828   0.229   0.264 -1.8829 -1.1913  0.2054
  194SOL     OW  580   1.511   2.327   0.892 -0.1373  0.3009  0.8221
  194SOL    HW1  581   1.576   2.390   0.839  1.1705  0.6300 -1.6232
  194SOL    HW2  582   1.558   2.268   0.962  0.9511  0.9322  0.9824
  195SOL     OW  583   2.676   0.991   0.477  0.0373  0.5947 -0.4243
  195SOL    HW1  584   2.682   0.997   0.578 -1.1489  0.4715  1.2700
  195SOL    HW2  585   2.669   0.893   0.440 -1.1266 -1.6680 -2.6955
  196SOL     OW  586   0.422   2.183   1.648  0.0225  0.3097 -0.2976
  196SOL    HW1  587   0.367   2.117   1.697  2.0681  3.8950 -1.9392
  196SOL    HW2  588   0.363   2.235   1.583 -0.3088  1.3935  0.6162
  197SOL     OW  589   3.080   0.381   2.388 -0.2703 -0.0786 -0.0217
  197SOL    HW1  590   0.029   0.326   2.308  2.5739  3.9309  0.2704
  197SOL    HW2  591   2.984   0.355   2.400  2.0428  1.6557 -0.8638
  198SOL     OW  592   2.104   1.372   0.343 -0.5936  0.4153 -0.2253
  198SOL    HW1  593   2.075   1.364   0.242  0.1513 -1.0313  0.3171
  198SOL    HW2  594   2.028   1.424   0.395 -1.9685  2.8501  0.8223
  199SOL     OW  595   2.527   0.368   1.939 -0.3386 -0.3874 -0.1698
  199SOL    HW1  596   2.431   0.403   1.927 -0.7615  2.3097  0.0259
  199SOL    HW2  597   2.584   0.395   1.856  1.0109 -1.5014 -2.0389
  200SOL     OW  598   1.890   0.136   3.026 -0.1022 -0.4547 -0.0072
  200SOL    HW1  599   1.974   0.192   3.041 -0.0802  0.0168  0.8306
  200SOL    HW2  600   1.828   0.175   2.956 -1.4950 -1.9862  2.7624
  201SOL     OW  601   2.696   0.222   1.007 -0.2247 -0.3670 -0.2736
  201SOL    HW1  602   2.606   0.231   1.043  1.2872 -1.2899 -0.2418
  201SOL    HW2  603   2.756   0.309   1.001  3.1270  3.4537 -2.0987
  202SOL     OW  604   2.993   2.667   0.301 -0.0723  0.9614 -0.4192
  202SOL    HW1  605   3.075   2.701   0.347 -1.0143  1.6851 -0.4359
  202SOL    HW2  606   2.915   2.668   0.365 -2.3202  0.7255 -2.5301
  203SOL     OW  607   1.888   1.731   0.614 -0.1619  0.2614  0.2738
  203SOL    HW1  608   1.820   1.789   0.669 -1.7615 -1.0397  0.2900
  203SOL    HW2  609   1.942   1.799   0.560  1.2750 -3.3364 -0.3848
  204SOL     OW  610   0.094   1.629   1.929 -0.0949 -0.1627  0.9165
  204SOL    HW1  611   0.145   1.639   1.838  2.0245  0.4463 -4.1710
  204SOL    HW2  612   0.066   1.534   1.928  1.4690  2.4498  0.4877
  205SOL     OW  613   0.804   0.420   0.815  0.8243 -0.2004 -0.4620
  205SOL    HW1  614   0.826   0.515   0.768  0.1465  1.3667 -1.2248
  205SOL    HW2  615   0.839   0.427   0.914  0.8841  1.0425  2.7022
  206SOL     OW  616   0.321   0.716   2.830  0.0322  0.6274 -0.5741
  206SOL    HW1  617   0.270   0.695   2.916 -1.1031  1.4426  0.9277
  206SOL    HW2  618   0.311   0.814   2.802 -2.5852  2.2006 -0.5769
  207SOL     OW  619   0.938   2.440   1.863 -0.5286  0.3047  0.2038
  207SOL    HW1  620   0.933   2.389   1.952 -1.5870 -3.3296  0.2830
  207SOL    HW2  621   0.918   2.389   1.782 -0.0789 -0.0514  1.5214
  208SOL     OW  622   2.539   0.197   1.593  0.2519  0.2149 -0.2154
  208SOL    HW1  623   2.635   0.194   1.627  1.2438  2.2663 -1.4225
  208SOL    HW2  624   2.470   0.202   1.668 -1.7831 -0.7486 -0.9552
  209SOL     OW  625   1.980   0.667   0.693  0.4535 -0.2931  0.2459
  209SOL    HW1  626   2.036   0.670   0.778  0.2569 -0.1923  1.9523
  209SOL    HW2  627   1.877   0.672   0.701  0.1659  0.4135 -1.2227
  210SOL     OW  628   2.514   1.215   0.405  0.4366  0.0026  0.0693
  210SOL    HW1  629   2.539   1.122   0.439  0.2887 -0.1982  0.3958
  210SOL    HW2  630   2.550   1.288   0.467  0.9869 -1.0483 -0.6041
  211SOL     OW  631   1.001   0.030   0.026 -0.3226 -0.2046 -0.3451
  211SOL    HW1  632   1.013   0.115   0.084  1.9438  1.8593  0.0659
  211SOL    HW2  633   1.094   3.081   0.016  2.2392  1.7470 -0.5348
  212SOL     OW  634   2.003   1.921   0.451 -0.2843 -0.2079 -0.2788
  212SOL    HW1  635   2.026   1.964   0.540 -1.7597  1.3909  1.9185
  212SOL    HW2  636   2.085   1.875   0.417 -2.6725  1.0797 -0.5061
  213SOL     OW  637   2.287   0.001   0.097 -0.2008  0.1970 -0.2735
  213SOL    HW1  638   2.285   3.053   0.004  2.1590  1.3747  2.8945
  213SOL    HW2  639   2.344   0.089   0.106  2.2697  2.3022  0.3228
  214SOL     OW  640   0.892   2.297   2.094 -0.2834  0.1109 -0.3039
  214SOL    HW1  641   0.843   2.285   2.182  1.1724  2.9799  2.8881
  214SOL    HW2  642   0.960   2.223   2.093  3.5049 -1.6103  1.0779
  215SOL     OW  643   0.310   1.139   0.746  0.3694 -0.1834 -0.2997
  215SOL    HW1  644   0.225   1.197   0.764  1.2575  0.1404  1.0883
  215SOL    HW2  645   0.388   1.187   0.704 -3.8681 -2.0788 -1.1401
  216SOL     OW  646   0.437   2.728   2.570 -0.2394 -0.4248  0.1331
  216SOL    HW1  647   0.518   2.704   2.624  0.8742  0.4959 -0.0528
  216SOL    HW2  648   0.343   2.700   2.613  0.9771 -0.1678  0.1494
  217SOL     OW  649   2.855   1.185   1.385 -0.1393 -0.0719 -0.2615
  217SOL    HW1  650   2.888   1.281   1.383 -1.6286 -2.6863 -1.3254
  217SOL    HW2  651   2.810   1.158   1.473 -0.3594  3.0668 -2.4802
  218SOL     OW  652   0.852   2.294   1.603  0.2879 -0.0006  0.9295
  218SOL    HW1  653   0.751   2.310   1.622 -1.7095 -2.6133 -1.1030
  218SOL    HW2  654   0.873   2.200   1.638  0.7382  2.2988 -0.0407
  219SOL     OW  655   1.858   1.618   0.164 -0.0857 -0.7282  0.4526
  219SOL    HW1  656   1.906   1.707   0.139  0.8228 -0.2733 -0.9743
  219SOL    HW2  657   1.903   1.578   0.244  1.0097  0.9391  1.8255
  220SOL     OW  658   2.113   0.291   3.020 -0.1118  0.4709  0.3397
  220SOL    HW1  659   2.149   0.310   0.026  0.1674 -2.8914  1.6142
  220SOL    HW2  660   2.168   0.338   2.953  1.2513 -2.5773  0.9616
  221SOL     OW  661   2.979   0.846   0.276 -0.3067 -0.0424 -0.5265
  221SOL    HW1  662   3.009   0.772   0.344  2.7818 -0.4298  1.3815
  221SOL    HW2  663   3.051   0.865   0.206  1.4871 -0.3981  1.2401
  222SOL     OW  664   1.685   1.445   0.902  0.2102  0.2135  0.4877
  222SOL    HW1  665   1.636   1.391   0.830 -0.3100  0.3835 -2.4321
  222SOL    HW2  666   1.766   1.499   0.864 -0.9352  0.3150 -3.2179
  223SOL     OW  667   1.076   0.341   2.894 -0.0569  0.3490 -0.0916
  223SOL    HW1  668   1.132   0.254   2.884  3.0828 -1.1004 -1.5768
  223SOL    HW2  669   0.986   0.319   2.934 -1.6280  1.0989  1.2616
  224SOL     OW  670   0.882   2.767   1.088 -0.3467 -0.4321  0.3086
  224SOL    HW1  671   0.888   2.854   1.147  0.8357  2.1312  4.1262
  224SOL    HW2  672   0.980   2.731   1.073  0.5838 -2.9192  0.3059
  225SOL     OW  673   0.907   2.987   2.165  0.8341 -0.1332  0.1226
  225SOL    HW1  674   0.841   2.945   2.099  0.8047 -1.3984  0.0722
  225SOL    HW2  675   0.856   3.013   2.251 -0.4717  0.4564  2.4215
  226SOL     OW  676   1.529   1.650   0.631 -0.0576 -0.6853 -0.0040
  226SOL    HW1  677   1.605   1.720   0.632 -0.0569  0.7803  0.4449
  226SOL    HW2  678   1.482   1.640   0.722  2.5802  0.8609  1.3429
  227SOL     OW  679   0.415   1.883   1.222  0.6333  0.2525 -0.2151
  227SOL    HW1  680   0.322   1.874   1.176 -1.3467  0.9865 -1.9427
  227SOL    HW2  681   0.491   1.826   1.173  4.4071 -2.2045  0.2501
  228SOL     OW  682   0.095   1.795   0.568  0.1184  0.0142 -0.0306
  228SOL    HW1  683   0.145   1.761   0.488 -1.6137  1.6996 -0.5687
  228SOL    HW2  684   0.116   1.894   0.585  0.6659 -0.9715  1.6825
  229SOL     OW  685   2.794   0.205   2.998  0.9698  0.4688 -0.0433
  229SOL    HW1  686   2.727   0.173   2.927 -0.8960 -2.2436 -0.1230
  229SOL    HW2  687   2.884   0.178   2.975 -3.4113  1.7503 -1.3857
  230SOL     OW  688   2.394   0.657   0.490 -0.2859  0.3660  0.2551
  230SOL    HW1  689   2.347   0.651   0.581  2.1335 -0.3073 -0.2629
  230SOL    HW2  690   2.326   0.654   0.412  1.2151  0.6371  1.3372
  231SOL     OW  691   1.941   1.525   3.005 -0.2004  0.2183 -0.1993
  231SOL    HW1  692   1.905   1.551   2.913  0.8147  0.0957 -0.3754
  231SOL    HW2  693   1.909   1.591   3.077 -0.5731  1.1297  0.7226
  232SOL     OW  694   1.858   2.059   0.910 -0.1836 -0.0228 -0.0939
  232SOL    HW1  695   1.884   1.968   0.956  1.9933  1.0126 -0.5482
  232SOL    HW2  696   1.798   2.036   0.831  2.7393  0.5792  1.4150
  233SOL     OW  697   0.245   2.813   1.591 -0.0613  0.8804 -0.8448
  233SOL    HW1  698   0.280   2.736   1.652  2.6893 -0.2213  0.1495
  233SOL    HW2  699   0.144   2.831   1.606 -2.5223  0.1026  0.2095
  234SOL     OW  700   0.717   0.223   2.534 -0.0294 -0.5680 -0.0285
  234SOL    HW1  701   0.814   0.228   2.497  1.5083  0.2280  1.0208
  234SOL    HW2  702   0.671   0.318   2.542  1.5700  0.1574  2.5761
  235SOL     OW  703   2.581   1.054   1.946 -0.1331 -0.0500  0.2976
  235SOL    HW1  704   2.581   0.953   1.967 -0.4157  0.8568  1.4990
  235SOL    HW2  705   2.536   1.074   1.858  0.6991 -0.5767  0.4184
  236SOL     OW  706   1.312   2.643   1.704 -0.4344 -0.1051  0.3930
  236SOL    HW1  707   1.216   2.648   1.667 -0.1121  1.2291  1.4607
  236SOL    HW2  708   1.369   2.574   1.658 -1.3909 -0.2617  0.4460
  237SOL     OW  709   0.693   1.532   2.744 -0.6867  0.0516  0.1616
  237SOL    HW1  710   0.676   1.478   2.660  1.2109  1.0544  2.3087
  237SOL    HW2  711   0.670   1.629   2.727  0.1658 -1.3629  0.8370
  238SOL     OW  712   0.925   0.708   2.304  0.1854 -0.6098  0.5599
  238SOL    HW1  713   0.973   0.749   2.386  0.4949  2.7373  0.9796
  238SOL    HW2  714   0.905   0.610   2.323 -1.3539  0.6286  0.4013
  239SOL     OW  715   0.507   1.830   2.221  0.7692 -0.0097  0.6141
  239SOL    HW1  716   0.427   1.810   2.166  3.1159  2.3955 -0.6583
  239SOL    HW2  717   0.526   1.926   2.193 -0.6076 -0.4861 -2.3665
  240SOL     OW  718   2.212   2.864   0.372 -0.0215 -0.0880  0.2859
  240SOL    HW1  719   2.163   2.933   0.317 -0.4156 -0.4597  1.6036
  240SOL    HW2  720   2.268   2.911   0.448  2.3581  3.8946  1.2286
  241SOL     OW  721   0.237   1.071   0.173  0.1321  0.5551 -0.1748
  241SOL    HW1  722   0.245   1.105   0.269 -1.0267  0.2470 -0.0461
  241SOL    HW2  723   0.232   1.144   0.100 -3.2359 -2.3579  0.8114
  242SOL     OW  724   1.442   2.446   1.532  0.2274  0.0202  0.1563
  242SOL    HW1  725   1.510   2.375   1.564  0.1536  1.6364  2.3863
  242SOL    HW2  726   1.470   2.483   1.441 -1.5462  1.0993  0.6144
  243SOL     OW  727   0.610   2.352   1.743 -0.1851  0.2902  0.3107
  243SOL    HW1  728   0.609   2.442   1.699 -1.8010 -2.3829 -1.2341
  243SOL    HW2  729   0.526   2.300   1.723  0.7361  2.6717  0.6004
  244SOL     OW  730   2.432   0.669   2.610  0.0416 -0.7555 -0.3714
  244SOL    HW1  731   2.350   0.623   2.651  1.6769 -1.8585 -0.1862
  244SOL    HW2  732   2.448   0.760   2.657  1.8730  1.0988  0.1514
  245SOL     OW  733   1.546   2.540   1.277  0.1227  0.3050 -0.3402
  245SOL    HW1  734   1.643   2.510   1.289  1.7050  0.7226 -1.7404
  245SOL    HW2  735   1.551   2.640   1.245  1.7858 -0.9209 -0.8805
  246SOL     OW  736   1.407   0.059   0.422 -0.0749  0.1802 -0.6808
  246SOL    HW1  737   1.409   3.050   0.463 -2.3422  1.0798  2.5160
  246SOL    HW2  738   1.354   0.120   0.485 -0.9651 -1.7605 -0.1516
  247SOL     OW  739   1.727   0.543   1.880  0.1549 -0.2060 -0.4548
  247SOL    HW1  740   1.676   0.503   1.802 -1.0603 -0.4687  0.8244
  247SOL    HW2  741   1.787   0.470   1.920  1.2426 -2.1882 -1.1566
  248SOL     OW  742   0.025   2.063   1.927 -0.5596 -0.6121 -0.0954
  248SOL    HW1  743   0.089   2.048   1.848  0.2362  0.1287  1.2678
  248SOL    HW2  744   3.056   1.979   1.944 -0.0080 -0.0669 -0.7685
  249SOL     OW  745   0.219   0.288   0.218  0.2828  0.0323 -0.0789
  249SOL    HW1  746   0.125   0.299   0.172 -1.2315 -0.0113 -0.1136
  249SOL    HW2  747   0.214   0.259   0.310  0.7694  0.2010 -0.2805
  250SOL     OW  748   2.704   0.137   2.538  0.5878  0.7509 -0.4728
  250SOL    HW1  749   2.682   0.147   2.638 -0.5952  1.7151  1.8127
  250SOL    HW2  750   2.619   0.136   2.482  1.1693  0.7196  0.1703
  251SOL     OW  751   1.444   0.526   0.161  0.7141 -0.0678  0.2130
  251SOL    HW1  752   1.371   0.504   0.090 -0.7482 -2.7108 -1.1666
  251SOL    HW2  753   1.478   0.624   0.147  1.5730 -0.5178 -2.2369
  252SOL     OW  754   1.056   2.630   2.292 -0.2308 -0.0906 -0.0932
  252SOL    HW1  755   0.957   2.622   2.302  3.5355 -1.0950 -1.9166
  252SOL    HW2  756   1.093   2.566   2.225  0.6997 -0.6532 -1.6837
  253SOL     OW  757   2.517   2.474   0.656  0.5462  0.1960 -0.1707
  253SOL    HW1  758   2.457   2.552   0.674  0.6176  0.8182  1.5557
  253SOL    HW2  759   2.566   2.486   0.565  0.7252 -2.0603 -2.0766
  254SOL     OW  760   2.224   1.070   1.123  0.0803  0.5142 -0.1110
  254SOL    HW1  761   2.250   1.093   1.221 -0.0395  2.6611  1.3721
  254SOL    HW2  762   2.247   1.150   1.069 -1.8122 -1.1968  2.1283
  255SOL     OW  763   0.545   2.665   1.335  0.4438  0.1270  0.0051
  255SOL    HW1  764   0.585   2.757   1.324 -2.9949 -1.4939  0.8001
  255SOL    HW2  765   0.517   2.627   1.247 -0.5510 -0.1028  2.6093
  256SOL     OW  766   2.026   1.674   1.591 -0.2588  0.2527  0.0464
  256SOL    HW1  767   2.072   1.700   1.508 -0.7808  1.4908 -0.4694
  256SOL    HW2  768   2.085   1.607   1.644  0.1633 -1.2392 -1.9612
  257SOL     OW  769   0.343   2.301   2.552  0.6517 -0.6050  0.0223
  257SOL    HW1  770   0.411   2.368   2.586 -2.7172 -1.0004 -0.9119
  257SOL    HW2  771   0.351   2.218   2.611  0.5662  0.0962  0.4695
  258SOL     OW  772   0.759   2.572   0.972 -0.6170  0.1812  0.2769
  258SOL    HW1  773   0.801   2.657   1.012 -0.8822  1.6876  2.2554
  258SOL    HW2  774   0.673   2.547   1.014  2.6543 -1.5467 -0.9300
  259SOL     OW  775   1.367   0.580   2.719  0.0327 -0.0067  0.2843
  259SOL    HW1  776   1.436   0.655   2.708  1.5698  0.7251  1.0495
  259SOL    HW2  777   1.280   0.611   2.764 -0.1293  0.7066 -1.0507
  260SOL     OW  778   0.123   0.405   1.046 -0.1178  0.7473  0.1832
  260SOL    HW1  779   0.091   0.446   0.959  1.9611  0.5320 -1.4001
  260SOL    HW2  780   0.156   0.308   1.025  0.7718 -1.2980  1.0763
  261SOL     OW  781   0.710   0.039   2.328  0.1020 -0.4885 -0.2446
  261SOL    HW1  782   0.646   3.048   2.346  3.0107  1.5770  0.1453
  261SOL    HW2  783   0.716   0.093   2.417 -1.2741  1.3244  4.3954
  262SOL     OW  784   1.044   2.638   1.645 -0.3138  0.3296 -0.1015
  262SOL    HW1  785   1.001   2.621   1.556  2.1716 -0.4546  3.7286
  262SOL    HW2  786   1.006   2.577   1.716  2.7637 -0.7020 -1.4455
  263SOL     OW  787   0.890   2.038   2.945 -0.8908  0.0606 -0.4242
  263SOL    HW1  788   0.949   2.087   2.874 -0.4612 -2.1750 -2.2028
  263SOL    HW2  789   0.915   2.061   3.043  0.4873  0.2584  1.8547
  264SOL     OW  790   1.635   1.485   1.200  0.6230 -0.4727  0.4199
  264SOL    HW1  791   1.639   1.445   1.106  0.2426 -3.3198 -1.3638
  264SOL    HW2  792   1.584   1.574   1.205  0.5412 -0.5775  1.1187
  265SOL     OW  793   0.856   2.309   0.315  0.0774  0.3361  0.2301
  265SOL    HW1  794   0.887   2.286   0.412  1.2519  2.4027  3.3262
  265SOL    HW2  795   0.892   2.397   0.283 -3.2532 -3.7978  1.2063
  266SOL     OW  796   2.791   0.779   0.822  0.0408 -0.0001 -0.0354
  266SOL    HW1  797   2.811   0.710   0.749  0.5860 -0.2792 -2.5387
  266SOL    HW2  798   2.859   0.771   0.898  0.4874  0.6166  2.3447
  267SOL     OW  799   0.194   1.480   0.109 -0.2869  0.2610  0.0314
  267SOL    HW1  800   0.170   1.493   0.209  0.5313 -0.0660 -0.8791
  267SOL    HW2  801   0.293   1.500   0.090  0.1464 -0.2554  0.2269
  268SOL     OW  802   1.392   0.438   0.438  0.4373 -0.0416 -0.2954
  268SOL    HW1  803   1.429   0.488   0.357 -0.5978 -1.8186  3.3659
  268SOL    HW2  804   1.409   0.335   0.439 -0.6300  0.3108  0.0112
  269SOL     OW  805   2.873   0.691   2.206  0.0766 -0.3405  0.3405
  269SOL    HW1  806   2.841   0.674   2.110  0.7614 -0.4087  1.6052
  269SOL    HW2  807   2.970   0.668   2.226  0.5620 -0.1294 -0.8285
  270SOL     OW  808   2.930   1.148   0.428 -0.5589 -0.0708  0.1003
  270SOL    HW1  809   2.870   1.071   0.466 -0.9404 -3.0900 -0.0093
  270SOL    HW2  810   2.922   1.157   0.323  0.1957  2.9954  1.0927
  271SOL     OW  811   2.740   1.467   2.037  0.0081 -0.0835 -0.6212
  271SOL    HW1  812   2.732   1.555   2.088  0.9465 -0.5395  0.1401
  271SOL    HW2  813   2.811   1.483   1.962  2.3278 -2.8048  0.0039
  272SOL     OW  814   2.434   2.385   1.877 -0.0384 -0.4578 -0.1220
  272SOL    HW1  815   2.509   2.321   1.860  0.5729 -0.2325  2.1976
  272SOL    HW2  816   2.425   2.397   1.976  0.8996  0.7293 -2.6077
  273SOL     OW  817   0.187   2.560   0.168  0.5109 -0.2136  0.7451
  273SOL    HW1  818   0.259   2.590   0.107  0.4306 -2.1807  2.4655
  273SOL    HW2  819   0.191   2.460   0.182  0.8310  0.5706 -2.1665
  274SOL     OW  820   0.829   2.315   0.630 -0.0983  0.2010  0.5516
  274SOL    HW1  821   0.745   2.263   0.594 -2.0343 -2.3728  0.6775
  274SOL    HW2  822   0.825   2.339   0.726 -0.2555 -1.1631 -2.6090
  275SOL     OW  823   1.591   2.008   2.763 -0.0157  0.1549  0.0759
  275SOL    HW1  824   1.677   2.042   2.798 -3.8131 -0.0879 -1.9060
  275SOL    HW2  825   1.602   1.989   2.663 -1.5045 -0.2434 -0.1590
  276SOL     OW  826   2.400   1.467   2.167 -0.3781 -0.3345 -0.4944
  276SOL    HW1  827   2.446   1.404   2.105 -0.4737  0.2473  1.9323
  276SOL    HW2  828   2.434   1.564   2.151 -0.4374  1.7802  0.3466
  277SOL     OW  829   2.170   0.294   0.783 -0.4256  0.2897  0.3743
  277SOL    HW1  830   2.170   0.282   0.679 -0.8712  2.0330 -0.6629
  277SOL    HW2  831   2.098   0.243   0.834  0.7965  1.6064 -0.0857
  278SOL     OW  832   1.514   0.612   2.427  0.1741 -0.1078  0.1944
  278SOL    HW1  833   1.433   0.578   2.486 -3.4627 -2.8208  1.1544
  278SOL    HW2  834   1.479   0.659   2.345 -0.7606 -1.9081 -0.7571
  279SOL     OW  835   1.138   2.658   1.052  0.0991  0.2819  0.3438
  279SOL    HW1  836   1.194   2.612   1.126 -2.4496  1.9746  0.0863
  279SOL    HW2  837   1.155   2.622   0.958 -1.7537  0.7201 -0.1465
  280SOL     OW  838   1.230   1.196   0.867  0.0600 -0.8301  0.2057
  280SOL    HW1  839   1.211   1.171   0.769  0.5049  1.4955  0.0836
  280SOL    HW2  840   1.144   1.194   0.929  0.9017  0.9653  0.5221
  281SOL     OW  841   2.216   1.790   0.349 -0.0608 -0.0949  0.3407
  281SOL    HW1  842   2.254   1.815   0.252  2.2762  0.6278  0.0775
  281SOL    HW2  843   2.238   1.692   0.369 -4.3864  0.4144 -2.2232
  282SOL     OW  844   2.894   1.389   0.554 -0.2146 -0.6605 -0.3204
  282SOL    HW1  845   2.912   1.300   0.506  1.7929  1.6955  2.2799
  282SOL    HW2  846   2.913   1.469   0.497  3.1926 -0.4768  0.9234
  283SOL     OW  847   1.531   2.950   2.575 -0.1357  0.2097 -0.2241
  283SOL    HW1  848   1.623   2.921   2.546 -0.1112  2.2461 -0.3637
  283SOL    HW2  849   1.459   2.950   2.506  0.2592  0.8384  2.5651
  284SOL     OW  850   0.427   0.193   2.738 -0.1442  0.3548  0.0798
  284SOL    HW1  851   0.488   0.275   2.736  1.3351  3.7126 -1.6004
  284SOL    HW2  852   0.389   0.180   2.829  1.8454 -1.4070 -3.4313
  285SOL     OW  853   1.822   1.832   2.951  0.3914  0.2003  0.3413
  285SOL    HW1  854   1.735   1.778   2.959 -0.0158 -0.9673 -1.9387
  285SOL    HW2  855   1.850   1.814   2.855 -0.4530  0.6975 -2.1265
  286SOL     OW  856   1.769   1.970   1.457  0.4355 -0.4468  0.3394
  286SOL    HW1  857   1.712   1.888   1.476 -0.2554 -2.1096  0.5953
  286SOL    HW2  858   1.792   2.014   1.547 -0.1572 -1.0020  0.0834
  287SOL     OW  859   1.657   0.132   1.821  0.1632  0.0613 -0.1394
  287SOL    HW1  860   1.695   0.096   1.907 -1.6618 -2.3205  1.2422
  287SOL    HW2  861   1.565   0.174   1.832 -0.7565 -1.6630 -2.2976
  288SOL     OW  862   0.529   2.749   2.132 -0.3928 -0.0180  0.1349
  288SOL    HW1  863   0.518   2.666   2.077 -0.3282  0.6929 -1.8844
  288SOL    HW2  864   0.487   2.733   2.220 -1.5081 -0.1398 -1.0294
  289SOL     OW  865   0.378   1.791   0.747 -0.1098  0.6068  0.2367
  289SOL    HW1  866   0.318   1.762   0.829 -1.7247 -2.7152  1.8187
  289SOL    HW2  867   0.398   1.888   0.738 -1.3574 -0.1493 -0.1081
  290SOL     OW  868   0.948   2.062   1.722 -0.0415 -0.5138  0.1517
  290SOL    HW1  869   0.919   1.984   1.775 -2.2850  1.0837 -2.0943
  290SOL    HW2  870   1.038   2.032   1.680  1.2847  1.9402  1.0560
  291SOL     OW  871   1.620   0.163   0.271  0.2810  0.2226  0.4528
  291SOL    HW1  872   1.532   0.150   0.326  1.7823  0.1596  1.0962
  291SOL    HW2  873   1.633   0.082   0.211 -3.7553  1.5267  0.1184
  292SOL     OW  874   0.414   0.351   1.282 -0.0726  0.1431 -0.2220
  292SOL    HW1  875   0.341   0.427   1.289 -1.3922  2.1015 -2.8667
  292SOL    HW2  876   0.468   0.339   1.195  1.0522 -3.3765  1.1961
  293SOL     OW  877   2.588   1.507   1.046 -0.2131  0.2549 -0.4092
  293SOL    HW1  878   2.688   1.521   1.055 -1.3794 -0.3450  0.7389
  293SOL    HW2  879   2.562   1.522   0.949  0.5606  0.3782 -0.5515
  294SOL     OW  880   0.323   0.095   2.307  0.2957 -0.1254  0.0771
  294SOL    HW1  881   0.289   3.085   2.290  0.2520 -2.6982 -1.3430
  294SOL    HW2  882   0.360   0.096   2.396 -1.1564 -1.7572 -2.0545
  295SOL     OW  883   0.872   1.512   0.477  0.0935  0.3198 -0.2683
  295SOL    HW1  884   0.941   1.528   0.546 -1.1445 -2.0324  0.3648
  295SOL    HW2  885   0.901   1.484   0.382  3.2906 -0.7659 -0.8393
  296SOL     OW  886   2.314   1.250   0.935 -0.1373  0.0600  0.2876
  296SOL    HW1  887   2.252   1.228   0.853 -2.0940 -0.6236  0.4182
  296SOL    HW2  888   2.392   1.318   0.917  0.2064  1.3778  1.4120
  297SOL     OW  889   1.692   0.696   2.623  0.5214  0.1980  0.1648
  297SOL    HW1  890   1.765   0.755   2.580  0.6124  2.9960  3.7164
  297SOL    HW2  891   1.618   0.670   2.565  1.4645 -0.7662  2.3856
  298SOL     OW  892   1.029   0.373   2.620  0.2063  0.1491 -0.5613
  298SOL    HW1  893   1.048   0.353   2.719  1.4394 -1.0616 -0.6830
  298SOL    HW2  894   1.051   0.467   2.598 -2.4015 -3.9825  1.2756
  299SOL     OW  895   0.945   0.577   1.886 -0.4284 -0.2180 -0.1581
  299SOL    HW1  896   1.040   0.585   1.843  0.1599 -1.9902 -1.0101
  299SOL    HW2  897   0.875   0.543   1.818 -0.4771 -0.7907 -0.5012
  300SOL     OW  898   2.811   0.206   1.696  0.0273  0.6016 -0.5142
  300SOL    HW1  899   2.834   0.214   1.597  2.0649  1.2043  0.1777
  300SOL    HW2  900   2.884   0.169   1.757  0.8172 -2.8188  1.3699
  301SOL     OW  901   1.840   0.792   1.744  0.3315 -0.6512  0.0966
  301SOL    HW1  902   1.768   0.865   1.727 -0.2330 -0.9160 -0.6518
  301SOL    HW2  903   1.803   0.712   1.791 -1.2813 -0.4329  1.7356
  302SOL     OW  904   0.713   2.800   2.885 -0.5641  0.2885  0.2146
  302SOL    HW1  905   0.806   2.836   2.914  0.0137 -1.1223  5.2410
  302SOL    HW2  906   0.644   2.874   2.873  0.1801  1.4997  0.1701
  303SOL     OW  907   1.907   1.865   1.806  0.4260  0.2879  0.8993
  303SOL    HW1  908   1.887   1.963   1.786  1.7516 -0.0654 -1.7132
  303SOL    HW2  909   1.978   1.825   1.744  1.2903  0.4226  0.0728
  304SOL     OW  910   0.487   3.003   0.558 -0.0749  0.0762  0.0473
  304SOL    HW1  911   0.540   3.084   0.530 -1.3965 -1.7348  1.6137
  304SOL    HW2  912   0.534   2.950   0.632  0.7236 -0.4517 -1.1376
  305SOL     OW  913   1.195   0.830   0.475  0.0526 -0.1906  0.0801
  305SOL    HW1  914   1.218   0.925   0.448 -0.0828  0.2373  0.2350
  305SOL    HW2  915   1.251   0.806   0.556 -2.5126 -4.9303 -0.8760
  306SOL     OW  916   0.605   1.222   0.109 -0.1655 -0.0460 -0.4090
  306SOL    HW1  917   0.703   1.194   0.093 -1.7095 -0.2604  1.2832
  306SOL    HW2  918   0.605   1.311   0.159  1.4198 -0.9127 -0.5310
  307SOL     OW  919   0.631   0.686   1.872  0.0181 -0.6819 -0.2986
  307SOL    HW1  920   0.644   0.659   1.966 -1.6756  0.7236 -1.8239
  307SOL    HW2  921   0.628   0.603   1.817 -0.3599  3.3754  1.8427
  308SOL     OW  922   0.544   0.295   1.038  0.5355  0.1893  0.1407
  308SOL    HW1  923   0.521   0.372   0.975  0.4069  0.0903  2.5196
  308SOL    HW2  924   0.581   0.215   0.995 -0.2972  1.8650  2.3916
  309SOL     OW  925   2.305   1.047   0.006  0.0190  0.4095 -0.3019
  309SOL    HW1  926   2.399   1.010   0.034  3.7266 -1.9846  2.8848
  309SOL    HW2  927   2.323   1.126   3.033  0.9793 -0.4242 -0.4698
  310SOL     OW  928   1.213   1.514   3.065  0.1746 -0.1993  0.1638
  310SOL    HW1  929   1.232   1.592   3.001 -0.7299 -0.3700 -0.4399
  310SOL    HW2  930   1.223   1.543   0.077  1.0606 -2.2531  0.0973
  311SOL     OW  931   1.920   2.526   2.158  0.0366  0.4458 -0.0058
  311SOL    HW1  932   1.957   2.450   2.093  0.0764  1.6206  1.1010
  311SOL    HW2  933   1.819   2.526   2.151 -1.5772  1.1119 -0.1593
  312SOL     OW  934   2.227   2.958   2.938 -0.5594 -0.0327  0.5857
  312SOL    HW1  935   2.248   3.014   2.855 -0.7074  0.4092 -2.9846
  312SOL    HW2  936   2.123   2.940   2.940 -4.6188 -0.5933 -1.0654
  313SOL     OW  937   0.724   0.682   0.318  0.2157  0.3953  0.2654
  313SOL    HW1  938   0.642   0.684   0.375 -0.9857 -2.1231  0.8116
  313SOL    HW2  939   0.798   0.637   0.376 -0.7342 -0.1529 -0.9568
  314SOL     OW  940   2.655   1.561   2.990  0.2663 -0.5488  0.3881
  314SOL    HW1  941   2.646   1.538   2.890 -1.1365  0.0639 -2.6127
  314SOL    HW2  942   2.731   1.625   3.013 -0.1173 -0.7366  0.1345
  315SOL     OW  943   1.622   0.728   2.045  0.5174  0.5628  0.1791
  315SOL    HW1  944   1.678   0.665   1.987 -1.2856  2.0125  1.5132
  315SOL    HW2  945   1.681   0.795   2.092 -0.6328 -1.5008  0.4534
  316SOL     OW  946   0.175   0.799   0.600 -0.0628  0.9033 -0.4089
  316SOL    HW1  947   0.258   0.779   0.542  0.5742  1.4883 -1.0297
  316SOL    HW2  948   0.151   0.897   0.582  0.2781  2.2776 -1.5685
  317SOL     OW  949   0.675   0.196   0.186  0.5320 -0.0632 -0.0664
  317SOL    HW1  950   0.667   0.296   0.172 -2.3417  0.6440 -0.1173
  317SOL    HW2  951   0.581   0.158   0.166  1.7760  0.5944 -1.7862
  318SOL     OW  952   2.336   2.445   1.188 -0.0560 -0.3350  0.0235
  318SOL    HW1  953   2.425   2.483   1.219  1.4443  0.6246  0.6480
  318SOL    HW2  954   2.257   2.474   1.243 -1.2785 -0.8274 -3.5111
  319SOL     OW  955   1.073   1.594   0.661  0.0407  0.2108 -0.5132
  319SOL    HW1  956   1.105   1.550   0.573 -0.8747  0.7787 -0.1286
  319SOL    HW2  957   1.127   1.563   0.741 -0.8835 -2.0023  1.5282
  320SOL     OW  958   0.524   2.225   1.123  0.0010  0.3229  0.6310
  320SOL    HW1  959   0.459   2.164   1.064 -4.4495 -1.5053 -1.2429
  320SOL    HW2  960   0.599   2.163   1.157 -0.0082 -1.7661  4.1195
  321SOL     OW  961   2.313   2.455   2.117  0.2521  0.2226 -0.3908
  321SOL    HW1  962   2.267   2.379   2.164  2.6917  2.6971  0.8307
  321SOL    HW2  963   2.256   2.489   2.033 -1.1960  1.3287 -1.7668
  322SOL     OW  964   2.797   2.272   2.604  0.6800  1.4081 -0.4411
  322SOL    HW1  965   2.870   2.283   2.538  0.0868  0.2218 -0.7512
  322SOL    HW2  966   2.726   2.340   2.595  0.8403  1.3101  1.3141
  323SOL     OW  967   2.810   0.604   0.608 -0.1271 -0.1803  0.4701
  323SOL    HW1  968   2.756   0.647   0.530  0.8390 -1.5198 -0.9694
  323SOL    HW2  969   2.775   0.512   0.638 -1.9944  3.0129  0.4168
  324SOL     OW  970   2.338   2.187   2.386 -0.2448  0.2502 -0.1752
  324SOL    HW1  971   2.303   2.283   2.401 -1.4155 -1.5568  0.0487
  324SOL    HW2  972   2.317   2.137   2.469 -1.1177 -0.7419  1.4640
  325SOL     OW  973   1.167   0.596   2.516  0.3528  0.0223  0.3802
  325SOL    HW1  974   1.159   0.698   2.496  2.3765 -1.3693 -1.1369
  325SOL    HW2  975   1.223   0.588   2.597 -1.2319  1.3100 -1.6240
  326SOL     OW  976   2.862   2.406   0.553  0.2127 -0.1265  0.1335
  326SOL    HW1  977   2.863   2.433   0.651  1.0770 -0.0664 -0.0521
  326SOL    HW2  978   2.954   2.372   0.525 -1.6086 -1.3352 -1.9134
  327SOL     OW  979   2.632   3.022   2.971 -0.1433  0.5168  0.7702
  327SOL    HW1  980   2.580   2.938   2.947  0.5954  0.3106  0.4860
  327SOL    HW2  981   2.712   2.997   3.033  1.6470  2.0248  1.5366
  328SOL     OW  982   1.117   0.533   0.819 -0.7396  0.5509  0.0489
  328SOL    HW1  983   1.134   0.529   0.721 -1.8322  3.4884  2.3575
  328SOL    HW2  984   1.136   0.625   0.853 -0.6969 -2.4890 -0.0521
  329SOL     OW  985   2.145   0.671   1.485  0.4300 -0.4280  0.2739
  329SOL    HW1  986   2.182   0.728   1.409 -0.8112 -1.2916 -0.6472
  329SOL    HW2  987   2.203   0.686   1.568 -2.1305  2.3089 -1.6575
  330SOL     OW  988   1.153   0.269   0.872 -0.4345 -0.1036  0.2905
  330SOL    HW1  989   1.120   0.364   0.847  0.2516 -0.2921  2.4069
  330SOL    HW2  990   1.206   0.273   0.964  2.2092 -0.1169  0.0987
  331SOL     OW  991   0.620   1.992   1.602 -0.0296 -0.0569 -0.4180
  331SOL    HW1  992   0.660   1.961   1.691 -2.9848 -0.0706 -1.5806
  331SOL    HW2  993   0.574   2.080   1.624  2.7094  0.1610 -0.4728
  332SOL     OW  994   2.192   2.229   1.745  0.3586 -0.1064 -0.4943
  332SOL    HW1  995   2.268   2.273   1.798  2.6018  0.1979  0.7962
  332SOL    HW2  996   2.218   2.129   1.746 -0.9955 -2.0043  0.7641
  333SOL     OW  997   2.980   0.013   0.799  0.3518  0.5597  0.2064
  333SOL    HW1  998   2.933   3.078   0.893 -0.3309 -1.1227 -0.5049
  333SOL    HW2  999   2.915   3.063   0.731 -0.2420 -0.6776  3.2257
  334SOL     OW 1000   0.043   1.646   0.797 -0.1386  0.3456 -0.9079
  334SOL    HW1 1001   0.133   1.670   0.845  1.1980 -0.1201  1.9948
  334SOL    HW2 1002   0.042   1.705   0.717  1.9214 -0.3754  3.3319
  335SOL     OW 1003   0.626   2.603   2.705  0.5582 -0.2338  0.6490
  335SOL    HW1 1004   0.573   2.537   2.760  0.4154  2.2761 -1.2845
  335SOL    HW2 1005   0.676   2.675   2.760 -0.2836  0.5814 -1.1278
  336SOL     OW 1006   0.017   2.499   1.802  0.1209 -0.1750  0.2763
  336SOL    HW1 1007   0.060   2.469   1.716 -1.1758  0.8588  1.8870
  336SOL    HW2 1008   0.053   2.589   1.834  0.3140  0.0046  1.0594
  337SOL     OW 1009   0.888   1.986   2.170 -0.3025 -0.3762  0.0193
  337SOL    HW1 1010   0.905   1.909   2.109  0.2510 -1.6308 -1.9853
  337SOL    HW2 1011   0.974   2.042   2.176  1.0862  0.0389  1.3621
  338SOL     OW 1012   1.032   0.128   2.482  1.1322  0.5055 -0.2048
  338SOL    HW1 1013   1.070   0.096   2.395 -2.1076 -1.1095  1.1077
  338SOL    HW2 1014   1.052   0.226   2.502  0.8929  0.4551  1.7777
  339SOL     OW 1015   0.112   1.310   2.786 -0.2974  0.0962  0.2214
  339SOL    HW1 1016   0.031   1.326   2.723 -0.7260 -0.0440  1.3919
  339SOL    HW2 1017   0.158   1.396   2.797 -1.1155 -2.1837  4.0007
  340SOL     OW 1018   2.195   0.434   1.354  0.3661  0.2484  0.5279
  340SOL    HW1 1019   2.191   0.512   1.421  1.6052  1.6240  3.6875
  340SOL    HW2 1020   2.286   0.393   1.359 -0.7385 -3.0106 -0.6421
  341SOL     OW 1021   1.900   0.997   0.797  0.5434  0.4992 -0.5887
  341SOL    HW1 1022   1.879   0.930   0.727 -0.8105  2.3800  2.4356
  341SOL    HW2 1023   1.912   1.085   0.753 -1.2221 -2.8651  0.0666
  342SOL     OW 1024   2.190   2.701   2.746 -0.3086  0.4292 -0.5646
  342SOL    HW1 1025   2.154   2.693   2.842 -1.0478 -0.0782 -0.9191
  342SOL    HW2 1026   2.133   2.757   2.684  0.8296 -1.7258  2.3467
  343SOL     OW 1027   2.803   2.615   0.963 -0.2917 -0.1253  0.1408
  343SOL    HW1 1028   2.827   2.620   1.061  0.6063 -0.5781  0.8526
  343SOL    HW2 1029   2.706   2.577   0.959 -0.4986 -1.4367 -0.0252
  344SOL     OW 1030   2.374   2.872   0.885 -0.2518 -0.6185 -0.4101
  344SOL    HW1 1031   2.362   2.971   0.867 -3.5735  0.5698 -1.6316
  344SOL    HW2 1032   2.291   2.839   0.940 -1.3255 -2.0977 -1.2038
  345SOL     OW 1033   2.519   2.247   0.257  0.1974 -0.0322  0.3526
  345SOL    HW1 1034   2.501   2.262   0.159 -0.7602 -0.4609  0.0998
  345SOL    HW2 1035   2.539   2.339   0.309  3.0730  1.6438  3.3453
  346SOL     OW 1036   1.219   2.082   1.663 -0.0767 -0.3115  0.0220
  346SOL    HW1 1037   1.233   2.160   1.601 -3.2211  1.1169 -0.5327
  346SOL    HW2 1038   1.247   1.995   1.610  2.3977 -1.9455  1.0983
  347SOL     OW 1039   1.194   1.989   1.914 -0.8017 -0.2519  0.1488
  347SOL    HW1 1040   1.268   1.919   1.917  0.7161 -0.9789 -1.0349
  347SOL    HW2 1041   1.215   2.053   1.834  2.3215  3.0103 -0.1680
  348SOL     OW 1042   0.802   1.689   1.304  0.1680  0.2678  0.1992
  348SOL    HW1 1043   0.786   1.748   1.223 -0.6774 -0.8777 -0.2283
  348SOL    HW2 1044   0.809   1.743   1.390 -0.1417 -1.8491  0.2233
  349SOL     OW 1045   1.806   1.367   1.617 -0.3128  0.3426  0.2543
  349SOL    HW1 1046   1.828   1.370   1.720 -3.5901  3.1765  0.8037
  349SOL    HW2 1047   1.732   1.427   1.601  0.9517 -0.8894  2.0174
  350SOL     OW 1048   2.272   2.325   0.750  0.2262 -0.3399 -0.0549
  350SOL    HW1 1049   2.194   2.329   0.678 -2.2197  1.7844 -1.2183
  350SOL    HW2 1050   2.357   2.367   0.707 -0.9196  0.8989  0.3194
  351SOL     OW 1051   0.378   0.012   1.853  0.4748 -0.1793  0.3008
  351SOL    HW1 1052   0.385   0.005   1.751 -0.7366  2.0482 -0.2424
  351SOL    HW2 1053   0.341   3.017   1.898  0.9233  2.6422 -0.2375
  352SOL     OW 1054   0.775   0.915   0.185 -0.2062 -0.7073 -0.3043
  352SOL    HW1 1055   0.774   0.828   0.244  1.9547 -2.2220 -0.7755
  352SOL    HW2 1056   0.709   0.899   0.107 -0.3980  2.5585  1.5964
  353SOL     OW 1057   0.910   1.500   2.906 -0.1752 -0.2735 -0.2610
  353SOL    HW1 1058   0.958   1.593   2.906 -0.2511  2.0172 -0.0507
  353SOL    HW2 1059   0.826   1.510   2.845 -0.8438  0.1684  0.7283
  354SOL     OW 1060   1.784   2.559   1.703  0.2015 -0.0688 -0.4734
  354SOL    HW1 1061   1.752   2.532   1.606 -0.5565  1.6718 -1.1910
  354SOL    HW2 1062   1.849   2.488   1.747  3.0184 -3.6001  0.9728
  355SOL     OW 1063   2.130   0.898   2.907 -0.1622  0.4885  0.4999
  355SOL    HW1 1064   2.092   0.977   2.853  0.2986 -0.1382 -1.9644
  355SOL    HW2 1065   2.195   0.937   2.984 -0.2090 -0.5574  2.0448
  356SOL     OW 1066   0.289   2.235   1.291  0.5291 -0.2398  0.2361
  356SOL    HW1 1067   0.350   2.231   1.211 -0.4947  2.2354 -0.1240
  356SOL    HW2 1068   0.204   2.290   1.273 -1.8106  3.4466  2.0697
  357SOL     OW 1069   3.073   2.836   1.670 -0.2393  0.3974  0.3684
  357SOL    HW1 1070   3.003   2.763   1.676  1.8994 -1.0558 -1.8594
  357SOL    HW2 1071   3.034   2.914   1.622 -0.3836 -0.9543  1.8905
  358SOL     OW 1072   2.398   1.814   1.421 -0.3350  0.6399 -0.1243
  358SOL    HW1 1073   2.361   1.902   1.383  2.4227 -1.3527 -0.5099
  358SOL    HW2 1074   2.335   1.737   1.412  1.9941 -1.0613  2.4215
  359SOL     OW 1075   1.976   2.387   2.407  0.5300 -0.2605 -0.2653
  359SOL    HW1 1076   1.938   2.447   2.332 -0.7552  2.4436 -0.2954
  359SOL    HW2 1077   1.963   2.428   2.502 -1.8375  0.0046 -2.1698
  360SOL     OW 1078   1.350   2.646   0.776 -0.3519  0.1482  0.2182
  360SOL    HW1 1079   1.261   2.601   0.784  0.0448 -0.1970  1.9099
  360SOL    HW2 1080   1.348   2.749   0.775  0.2307  3.1580  1.1889
  361SOL     OW 1081   1.821   0.152   0.496  0.1151  0.0805  0.3253
  361SOL    HW1 1082   1.735   0.177   0.436 -2.7066  0.2834 -1.7223
  361SOL    HW2 1083   1.791   0.101   0.579  0.2272 -0.1399 -1.2847
  362SOL     OW 1084   1.604   0.901   1.677  0.0349 -0.3417  0.2729
  362SOL    HW1 1085   1.611   0.902   1.572 -1.5485 -1.7260 -4.4251
  362SOL    HW2 1086   1.554   0.987   1.711 -0.5271 -1.1695  1.0127
  363SOL     OW 1087   1.856   1.531   2.112 -0.1952 -0.4181  0.4498
  363SOL    HW1 1088   1.796   1.478   2.176  2.6956 -0.7386  0.4367
  363SOL    HW2 1089   1.953   1.520   2.129 -2.7627  0.6269  0.0302
  364SOL     OW 1090   0.834   0.716   1.365 -0.0234  0.3566 -0.0615
  364SOL    HW1 1091   0.805   0.673   1.276 -1.6398 -0.7208  0.2513
  364SOL    HW2 1092   0.783   0.803   1.371  0.2965 -0.9855 -1.2425
  365SOL     OW 1093   0.352   0.501   2.458 -0.1033 -0.8970  0.6920
  365SOL    HW1 1094   0.256   0.520   2.472  0.8051 -0.1209 -0.7435
  365SOL    HW2 1095   0.383   0.556   2.375 -0.1528  1.5859  0.5105
  366SOL     OW 1096   2.153   1.648   2.847 -0.2317 -0.2905  0.2511
  366SOL    HW1 1097   2.239   1.669   2.899  1.6393  0.4624  1.3842
  366SOL    HW2 1098   2.084   1.602   2.907  0.2610  1.5702  1.5772
  367SOL     OW 1099   2.932   2.608   2.893  0.0736 -0.1228  0.3012
  367SOL    HW1 1100   2.896   2.602   2.991 -1.9324 -0.5873 -0.8253
  367SOL    HW2 1101   2.869   2.650   2.821 -1.4519  0.7786 -2.4480
  368SOL     OW 1102   0.099   1.128   1.157 -0.0883 -0.0874  0.5239
  368SOL    HW1 1103   0.060   1.077   1.240 -1.5494 -1.8067  2.3649
  368SOL    HW2 1104   0.061   1.219   1.152  2.3578  1.0590  0.8229
  369SOL     OW 1105   0.624   2.828   2.423 -0.2348 -0.4341  0.2019
  369SOL    HW1 1106   0.689   2.895   2.455 -3.1608 -1.9092  3.2546
  369SOL    HW2 1107   0.545   2.818   2.486 -0.4274  0.0665 -1.4578
  370SOL     OW 1108   3.029   0.368   0.493  0.3549  0.2144 -0.3408
  370SOL    HW1 1109   2.939   0.338   0.446 -1.5316  1.3912 -1.7696
  370SOL    HW2 1110   3.047   0.466   0.477  1.5480  2.3241  1.4941
  371SOL     OW 1111   1.005   2.388   1.425  0.2039 -0.3454  0.3406
  371SOL    HW1 1112   1.100   2.343   1.423  2.2317  0.4670  1.5832
  371SOL    HW2 1113   0.952   2.353   1.506  0.7232 -3.2643 -1.3589
  372SOL     OW 1114   2.813   0.349   2.415  0.0642  0.2321  0.6447
  372SOL    HW1 1115   2.762   0.266   2.453 -2.0975 -0.7261  0.1208
  372SOL    HW2 1116   2.771   0.379   2.329 -0.3151  0.7498  2.4592
  373SOL     OW 1117   0.104   2.123   0.668  0.6446  0.4060 -0.5143
  373SOL    HW1 1118   0.196   2.164   0.674 -1.1645 -2.9280  0.3252
  373SOL    HW2 1119   0.049   2.138   0.750 -1.1316 -1.3595 -0.9231
  374SOL     OW 1120   0.104   3.010   2.574  0.5140 -0.7419 -0.0781
  374SOL    HW1 1121   0.141   0.020   2.566  0.4580  2.7041  1.5703
  374SOL    HW2 1122   0.076   2.976   2.483  0.5464 -0.2743  1.7966
  375SOL     OW 1123   0.577   0.447   2.597  0.1640  0.6958 -0.2119
  375SOL    HW1 1124   0.487   0.460   2.545  1.7921  1.2513  0.2993
  375SOL    HW2 1125   0.577   0.526   2.661 -0.9193  3.2762 -3.1952
  376SOL     OW 1126   2.787   2.315   1.954  0.0807 -0.2795  0.1358
  376SOL    HW1 1127   2.748   2.400   1.996  1.0749  0.6803  3.0773
  376SOL    HW2 1128   2.887   2.315   1.968  0.4233 -0.2874 -0.5399
  377SOL     OW 1129   1.297   0.145   2.863  0.2600 -0.8899  0.0624
  377SOL    HW1 1130   1.250   0.098   2.786  1.4878  0.6515 -0.0121
  377SOL    HW2 1131   1.364   0.213   2.829 -0.7646 -2.9383 -0.9016
  378SOL     OW 1132   2.930   0.847   2.636  0.1672  0.0244 -0.3892
  378SOL    HW1 1133   2.856   0.789   2.597  1.3680 -0.0262 -1.5321
  378SOL    HW2 1134   2.955   0.806   2.729 -0.7865 -0.4815  3.6395
  379SOL     OW 1135   1.124   0.740   0.015 -0.4393 -0.8933  0.2539
  379SOL    HW1 1136   1.059   0.790   3.041  1.3691 -2.1552  0.1808
  379SOL    HW2 1137   1.094   0.735   0.112  0.8942 -0.2887 -1.6052
  380SOL     OW 1138   3.035   1.606   1.651 -0.2419 -0.2578 -0.2321
  380SOL    HW1 1139   2.990   1.696   1.632 -0.9691  0.2974  1.2586
  380SOL    HW2 1140   0.010   1.575   1.577  0.7669  0.1841  1.8391
  381SOL     OW 1141   0.020   1.279   2.501 -0.5003 -0.3109  0.1225
  381SOL    HW1 1142   0.110   1.308   2.459  0.8291 -1.1760  0.5583
  381SOL    HW2 1143   3.030   1.320   2.453  1.6019  0.5288  1.4122
  382SOL     OW 1144   2.310   2.130   0.452  0.2495 -0.0774  0.1173
  382SOL    HW1 1145   2.398   2.172   0.419 -2.4973  0.1738  4.3027
  382SOL    HW2 1146   2.334   2.033   0.480 -2.7584 -2.5286 -1.2138
  383SOL     OW 1147   0.700   1.793   0.261  0.3949 -0.3207 -0.2527
  383SOL    HW1 1148   0.801   1.820   0.262  1.0078  1.1608 -0.1710
  383SOL    HW2 1149   0.689   1.711   0.318 -0.9911 -0.0799  2.1640
  384SOL     OW 1150   0.818   2.016   2.465  0.4377 -0.2365 -0.3028
  384SOL    HW1 1151   0.905   1.998   2.513 -0.4562  0.0921 -1.3685
  384SOL    HW2 1152   0.822   1.982   2.368 -1.2431 -1.7662  1.1151
  385SOL     OW 1153   2.378   1.903   0.607  0.6465 -0.7536  0.3977
  385SOL    HW1 1154   2.473   1.874   0.579 -1.2681 -1.1790  0.2208
  385SOL    HW2 1155   2.379   1.955   0.693 -3.2883 -0.6707 -3.6418
  386SOL     OW 1156   2.234   0.808   1.265 -0.1950 -0.1360 -0.5794
  386SOL    HW1 1157   2.277   0.735   1.212  1.2721  3.0903  2.3091
  386SOL    HW2 1158   2.219   0.889   1.203 -2.2074  0.9869 -0.7608
  387SOL     OW 1159   0.030   1.062   2.023  0.1108 -0.2724 -0.1368
  387SOL    HW1 1160   0.085   1.065   2.106 -2.7801 -0.3593 -1.0903
  387SOL    HW2 1161   3.037   1.120   2.027  0.5152 -1.1528 -2.2297
  388SOL     OW 1162   0.670   1.612   2.208  0.0272 -0.3017  0.6934
  388SOL    HW1 1163   0.614   1.688   2.250 -1.7089  0.6609  1.7597
  388SOL    HW2 1164   0.626   1.578   2.122  0.9912 -0.7588 -0.7519
  389SOL     OW 1165   0.705   1.085   2.041  0.1497  0.2784  0.7307
  389SOL    HW1 1166   0.720   1.021   2.116 -1.2414 -0.8593 -1.5805
  389SOL    HW2 1167   0.706   1.039   1.950 -0.9352 -0.5439 -3.1622
  390SOL     OW 1168   2.761   2.978   0.687  0.4613  0.0684 -0.6409
  390SOL    HW1 1169   2.716   3.061   0.728 -1.5366  0.6434 -3.2183
  390SOL    HW2 1170   2.715   2.951   0.595 -2.6417 -0.4993 -1.7388
  391SOL     OW 1171   1.845   1.500   1.361  0.0413  0.1465 -0.2364
  391SOL    HW1 1172   1.817   1.452   1.445 -2.4369 -0.2021  0.4112
  391SOL    HW2 1173   1.772   1.497   1.286 -1.4167  0.1438 -0.5192
  392SOL     OW 1174   2.823   2.721   0.060 -0.1392 -0.4427 -0.5185
  392SOL    HW1 1175   2.805   2.807   0.006 -1.9453  2.3640 -2.0737
  392SOL    HW2 1176   2.924   2.707   0.073 -1.3598 -0.0091  1.3859
  393SOL     OW 1177   1.710   2.428   2.636  0.0595  0.3145 -0.2628
  393SOL    HW1 1178   1.800   2.401   2.666 -0.1074 -1.3467 -0.7044
  393SOL    HW2 1179   1.709   2.518   2.592 -1.7813 -1.9499  3.2850
  394SOL     OW 1180   0.134   2.406   2.680 -0.1266 -0.3499 -0.3733
  394SOL    HW1 1181   0.199   2.357   2.618  1.6089  0.1039  0.9036
  394SOL    HW2 1182   0.041   2.363   2.691  0.1418 -0.1250 -0.6946
  395SOL     OW 1183   0.165   0.212   0.493 -0.3211 -0.1656 -0.0342
  395SOL    HW1 1184   0.076   0.264   0.493 -0.5397 -1.6409 -1.6920
  395SOL    HW2 1185   0.154   0.116   0.528 -2.5628  0.3045 -0.8861
  396SOL     OW 1186   2.164   0.407   0.520 -0.1336  0.1684  0.0971
  396SOL    HW1 1187   2.106   0.488   0.501  1.7905 -1.5469 -2.0482
  396SOL    HW2 1188   2.131   0.327   0.465  0.3120 -0.6696 -2.4025
  397SOL     OW 1189   0.046   0.616   2.286 -0.4582  0.1036 -0.3888
  397SOL    HW1 1190   0.125   0.603   2.220  2.3818  1.8821 -3.2172
  397SOL    HW2 1191   0.019   0.534   2.338  1.4620  0.0249 -2.0002
  398SOL     OW 1192   0.750   3.024   0.072 -0.1196 -0.2206  0.5853
  398SOL    HW1 1193   0.825   3.081   0.036 -1.6098 -0.4479  4.5486
  398SOL    HW2 1194   0.692   3.082   0.130  1.4630 -0.9484 -0.3710
  399SOL     OW 1195   2.031   0.522   2.083 -0.1533  0.1897  0.4304
  399SOL    HW1 1196   1.998   0.617   2.105  0.0439  0.9367 -0.5018
  399SOL    HW2 1197   1.960   0.467   2.030 -3.1367 -0.1004 -3.7398
  400SOL     OW 1198   1.044   1.948   2.603 -0.0125 -0.1300  0.2440
  400SOL    HW1 1199   1.139   1.941   2.572 -0.6706 -1.1313 -0.0259
  400SOL    HW2 1200   1.028   2.038   2.650  1.9175 -1.0685 -1.9289
  401SOL     OW 1201   0.333   1.268   2.611 -0.1911 -0.4669  0.1249
  401SOL    HW1 1202   0.374   1.274   2.703  0.8476 -1.2257 -0.5903
  401SOL    HW2 1203   0.233   1.253   2.620  0.4530  2.9724 -0.0745
  402SOL     OW 1204   0.409   2.786   0.438  0.1843 -0.4389 -0.1828
  402SOL    HW1 1205   0.473   2.710   0.468 -2.6334 -0.4800  2.7585
  402SOL    HW2 1206   0.438   2.877   0.486  2.2273  2.6658 -0.2779
  403SOL     OW 1207   0.682   1.139   1.636  0.2922 -0.5182  0.3197
  403SOL    HW1 1208   0.732   1.070   1.696  0.3502  2.5546 -0.8203
  403SOL    HW2 1209   0.579   1.123   1.642 -2.9229 -2.9236 -0.5068
  404SOL     OW 1210   2.561   2.467   2.230 -0.2194 -0.1703  0.2045
  404SOL    HW1 1211   2.608   2.552   2.247  0.6201 -0.0106  0.2965
  404SOL    HW2 1212   2.465   2.476   2.199 -0.5054 -1.0131  0.9047
  405SOL     OW 1213   0.025   0.145   1.715 -0.0787 -0.0353  0.1391
  405SOL    HW1 1214   0.056   0.107   1.805 -2.4842 -2.5614  2.7278
  405SOL    HW2 1215   0.083   0.212   1.672 -0.8389  0.9555 -0.4786
  406SOL     OW 1216   1.197   1.565   2.687  0.3210 -0.1987  0.1648
  406SOL    HW1 1217   1.100   1.583   2.666  0.6544  1.0650  1.3570
  406SOL    HW2 1218   1.226   1.624   2.763  2.3783 -2.4584 -0.0361
  407SOL     OW 1219   1.836   0.951   2.798  0.6132 -1.0881 -0.1765
  407SOL    HW1 1220   1.900   0.909   2.731 -2.3911 -1.5448  0.2897
  407SOL    HW2 1221   1.855   1.048   2.818  1.8236 -2.3005 -1.6240
  408SOL     OW 1222   0.343   2.666   2.318  0.2041  0.5137  0.0671
  408SOL    HW1 1223   0.387   2.676   2.412 -0.2495 -1.8972 -1.6124
  408SOL    HW2 1224   0.300   2.575   2.297  1.7336 -0.4981 -0.2563
  409SOL     OW 1225   0.070   2.337   1.222 -0.3012 -0.4819 -0.1831
  409SOL    HW1 1226   3.063   2.341   1.262  0.8428  1.2786  0.0913
  409SOL    HW2 1227   0.095   2.431   1.196 -2.7450  2.2941 -0.7001
  410SOL     OW 1228   2.909   1.764   0.460  0.0515 -0.3241  0.0718
  410SOL    HW1 1229   2.995   1.793   0.509  3.7499  2.8368 -0.0956
  410SOL    HW2 1230   2.930   1.685   0.394 -1.0186  2.7540 -2.6989
  411SOL     OW 1231   2.822   3.049   1.039 -0.2486  0.0471  0.2679
  411SOL    HW1 1232   2.738   2.992   1.036  1.4179  0.0826 -3.7860
  411SOL    HW2 1233   2.801   0.064   1.021  1.3139 -0.9802  0.0548
  412SOL     OW 1234   2.153   0.269   1.826 -0.0100  0.1349  0.2194
  412SOL    HW1 1235   2.169   0.175   1.790 -1.8041 -0.1837 -1.8833
  412SOL    HW2 1236   2.058   0.296   1.806  1.5268 -1.3483 -1.4735
  413SOL     OW 1237   0.082   0.426   1.999 -0.4784  0.8746 -0.3707
  413SOL    HW1 1238   0.063   0.397   2.096 -4.8343 -0.0419  4.4261
  413SOL    HW2 1239   0.175   0.399   1.965 -0.4517 -1.4642  1.2077
  414SOL     OW 1240   2.943   1.143   2.990  0.1375 -0.0557 -0.5573
  414SOL    HW1 1241   2.917   1.123   3.085 -1.2028  3.2653 -3.1499
  414SOL    HW2 1242   2.868   1.114   2.927  1.5713 -0.1915  3.8341
  415SOL     OW 1243   0.962   2.581   3.022  0.2910  0.0485  0.4178
  415SOL    HW1 1244   0.996   2.510   3.086 -1.4855 -0.9166 -1.7555
  415SOL    HW2 1245   0.946   2.668   3.067 -0.8531 -0.6057 -3.7868
  416SOL     OW 1246   1.332   2.937   2.387 -0.0377  0.7107 -0.1435
  416SOL    HW1 1247   1.279   2.864   2.428 -1.2190  2.4241 -2.2692
  416SOL    HW2 1248   1.392   2.905   2.312 -2.9709  3.1777  3.5576
  417SOL     OW 1249   0.255   0.736   1.047 -0.0956 -0.3693  0.1965
  417SOL    HW1 1250   0.357   0.721   1.051  2.1951 -1.7226 -0.6502
  417SOL    HW2 1251   0.216   0.666   0.976 -0.5446 -2.6464 -0.0272
  418SOL     OW 1252   2.631   0.118   0.764  0.6576  0.2787  0.6460
  418SOL    HW1 1253   2.676   0.149   0.848  0.4973 -2.0614 -1.9142
  418SOL    HW2 1254   2.648   0.174   0.681  0.1788 -3.9559  0.9227
  419SOL     OW 1255   0.436   2.930   0.222  0.1389  0.2293 -0.3135
  419SOL    HW1 1256   0.495   2.882   0.156  0.2588 -3.4212 -2.4944
  419SOL    HW2 1257   0.429   2.874   0.310  2.1629 -1.1807  0.1706
  420SOL     OW 1258   0.443   1.004   1.676  0.0878  0.2211 -0.0376
  420SOL    HW1 1259   0.435   0.942   1.595  1.1598  1.4145  3.7409
  420SOL    HW2 1260   0.370   0.995   1.745  0.8675 -0.4644 -1.4938
  421SOL     OW 1261   1.894   2.573   0.816 -0.7740  0.2970 -0.2751
  421SOL    HW1 1262   1.903   2.514   0.898  2.3168  3.7528  2.0180
  421SOL    HW2 1263   1.801   2.559   0.780  1.0855  3.0403  2.8288
  422SOL     OW 1264   0.223   0.510   1.285  0.6766 -0.0397 -0.1120
  422SOL    HW1 1265   0.182   0.482   1.199  0.8238  0.0127 -1.4460
  422SOL    HW2 1266   0.213   0.610   1.297 -0.5184  0.0989 -1.0183
  423SOL     OW 1267   0.842   1.335   2.059  0.3713  0.1576  0.0351
  423SOL    HW1 1268   0.767   1.267   2.068 -0.3441  2.4603 -0.8225
  423SOL    HW2 1269   0.802   1.427   2.073  1.5689  0.1647  1.0348
  424SOL     OW 1270   1.885   2.176   0.419 -0.1496 -0.4701 -0.2568
  424SOL    HW1 1271   1.871   2.187   0.317 -0.9058  1.5661 -1.3796
  424SOL    HW2 1272   1.926   2.084   0.444  0.5120 -1.3389 -0.1428
  425SOL     OW 1273   2.629   2.998   1.845  0.9596 -0.2567  0.2255
  425SOL    HW1 1274   2.706   3.064   1.839 -0.4934  0.5407 -0.4736
  425SOL    HW2 1275   2.649   2.929   1.921 -1.4668 -1.2620 -0.2603
  426SOL     OW 1276   3.074   2.647   2.510 -0.2269  0.1705  0.5469
  426SOL    HW1 1277   0.087   2.664   2.542  3.3138 -0.3434  1.1533
  426SOL    HW2 1278   3.067   2.554   2.472  1.8378 -0.6865  2.5979
  427SOL     OW 1279   1.021   0.102   0.520  0.6183 -0.2145  0.1741
  427SOL    HW1 1280   1.002   0.136   0.426 -0.6030  0.8749  2.3429
  427SOL    HW2 1281   0.954   0.142   0.579  0.4010 -1.8295  0.6894
  428SOL     OW 1282   2.736   0.475   1.493 -0.0946 -0.1021 -0.2115
  428SOL    HW1 1283   2.772   0.385   1.465 -0.5885  1.0039  2.2772
  428SOL    HW2 1284   2.669   0.521   1.430  0.3666  0.9727 -0.2788
  429SOL     OW 1285   1.880   2.876   1.085 -0.0003  0.0318  0.2209
  429SOL    HW1 1286   1.879   2.876   0.982 -1.0481 -0.8406 -0.1574
  429SOL    HW2 1287   1.975   2.890   1.115 -0.7666 -2.4664  0.0223
  430SOL     OW 1288   0.883   1.563   2.344 -0.6153 -0.0293  0.2133
  430SOL    HW1 1289   0.889   1.626   2.426  3.0604  0.8639 -0.6255
  430SOL    HW2 1290   0.792   1.590   2.297 -1.5962 -0.7394 -1.8166
  431SOL     OW 1291   0.160   1.863   1.094  0.1784  0.3640  0.0664
  431SOL    HW1 1292   0.127   1.876   1.190 -0.4179  1.0487  1.8501
  431SOL    HW2 1293   0.151   1.950   1.040  0.8154 -0.9474  2.0282
  432SOL     OW 1294   1.395   2.589   2.391  0.6121 -0.1387  0.0230
  432SOL    HW1 1295   1.386   2.629   2.296  1.0370  0.6542 -0.8037
  432SOL    HW2 1296   1.320   2.623   2.453  1.7034 -1.6131 -0.2533
  433SOL     OW 1297   1.245   0.347   2.377 -0.1214  0.1349 -0.6551
  433SOL    HW1 1298   1.193   0.319   2.293  1.7130  0.4981  2.2387
  433SOL    HW2 1299   1.213   0.429   2.425  1.8174 -1.4407  0.4762
  434SOL     OW 1300   0.721   2.584   1.988 -0.2025  0.5076  0.0352
  434SOL    HW1 1301   0.808   2.556   1.937  1.8597  1.0640 -2.8757
  434SOL    HW2 1302   0.646   2.516   1.959  0.3947 -2.5814  0.4240
  435SOL     OW 1303   0.432   0.099   0.144 -0.3442  0.2012 -0.7098
  435SOL    HW1 1304   0.432   0.007   0.187 -0.2000 -3.0275  3.1352
  435SOL    HW2 1305   0.372   0.168   0.189  0.9423  0.5265 -0.8971
  436SOL     OW 1306   0.494   1.228   2.364  0.0945 -0.3255  0.2463
  436SOL    HW1 1307   0.456   1.259   2.453  0.8417  0.3388  2.9917
  436SOL    HW2 1308   0.550   1.141   2.379 -0.7915  0.7403 -0.5531
  437SOL     OW 1309   0.866   2.346   2.632 -0.1517  0.3741  0.2645
  437SOL    HW1 1310   0.816   2.420   2.580  3.5246 -0.8810 -0.2231
  437SOL    HW2 1311   0.807   2.265   2.654 -0.5065 -3.1669  0.6732
  438SOL     OW 1312   0.942   1.085   0.659 -0.7836  0.5447  0.2495
  438SOL    HW1 1313   0.937   1.043   0.754  1.7728  1.8560 -0.6789
  438SOL    HW2 1314   1.041   1.098   0.633  0.4259  0.6416 -1.2733
  439SOL     OW 1315   2.741   1.267   2.252 -0.4266  0.0181  0.4967
  439SOL    HW1 1316   2.763   1.165   2.259 -0.6368 -2.8006  0.4017
  439SOL    HW2 1317   2.810   1.320   2.195 -1.6962 -2.1116  0.5349
  440SOL     OW 1318   2.719   0.778   2.986 -0.1094 -0.1165  0.2016
  440SOL    HW1 1319   2.711   0.687   2.939 -1.9212 -2.7599  1.3566
  440SOL    HW2 1320   2.723   0.858   2.922  0.7842 -3.0485  1.8217
  441SOL     OW 1321   0.854   1.829   1.520  0.7420 -0.1420  0.3591
  441SOL    HW1 1322   0.778   1.899   1.540 -0.4927  1.8522  1.2011
  441SOL    HW2 1323   0.865   1.771   1.601  0.7746 -1.6314 -0.5161
  442SOL     OW 1324   1.918   1.272   0.736  0.2270  0.4423  0.0961
  442SOL    HW1 1325   1.864   1.281   0.648 -1.2305 -1.2250  0.2046
  442SOL    HW2 1326   1.938   1.367   0.768  0.2829  1.8081 -0.6308
  443SOL     OW 1327   2.273   2.202   2.948  0.0733  0.1879 -0.5746
  443SOL    HW1 1328   2.361   2.221   2.901 -0.1656 -1.2188 -0.0144
  443SOL    HW2 1329   2.232   2.289   2.987  2.2000  1.8174  0.5362
  444SOL     OW 1330   1.881   1.555   2.723 -0.0922  0.2157 -0.5062
  444SOL    HW1 1331   1.953   1.511   2.667  1.4692 -1.5220 -3.2364
  444SOL    HW2 1332   1.875   1.655   2.710  1.8267  0.6766 -0.2229
  445SOL     OW 1333   0.314   2.191   2.290 -0.0482 -0.2560  0.3689
  445SOL    HW1 1334   0.331   2.230   2.383 -0.5407  0.9698 -0.7430
  445SOL    HW2 1335   0.406   2.159   2.256 -1.5196  0.0699  1.6945
  446SOL     OW 1336   0.975   0.817   1.659  0.4085 -0.6401 -0.2663
  446SOL    HW1 1337   0.906   0.746   1.641 -0.0033  0.8734 -3.0444
  446SOL    HW2 1338   1.017   0.848   1.574  0.0451  1.7127  1.4304
  447SOL     OW 1339   1.191   1.174   0.587 -0.0658  0.4699 -0.2174
  447SOL    HW1 1340   1.168   1.258   0.535  1.2214 -2.0796 -0.6243
  447SOL    HW2 1341   1.266   1.123   0.542  0.4122  1.6138  0.2928
  448SOL     OW 1342   1.077   1.372   2.390 -0.2750 -0.0487 -0.1546
  448SOL    HW1 1343   0.998   1.439   2.384  0.8097 -1.2471 -2.5028
  448SOL    HW2 1344   1.129   1.377   2.304  0.8293 -2.4972 -0.5510
  449SOL     OW 1345   0.190   1.664   2.478 -0.3960 -0.0358 -0.2011
  449SOL    HW1 1346   0.222   1.648   2.380 -0.1527 -1.4023  0.7825
  449SOL    HW2 1347   0.112   1.724   2.475 -0.5374 -2.3915 -2.1991
  450SOL     OW 1348   2.126   1.482   2.197 -0.2035  0.1210  0.3371
  450SOL    HW1 1349   2.112   1.562   2.253 -2.3231 -0.4020  0.2994
  450SOL    HW2 1350   2.224   1.454   2.185  0.9574 -0.3477  0.9416
  451SOL     OW 1351   2.507   1.326   1.211 -0.0356 -0.1542 -0.0801
  451SOL    HW1 1352   2.552   1.378   1.134 -0.8338 -1.4357 -0.9250
  451SOL    HW2 1353   2.480   1.389   1.290  1.1597  1.2881  2.1344
  452SOL     OW 1354   0.874   1.247   1.293 -0.2307 -0.4476  0.0157
  452SOL    HW1 1355   0.834   1.151   1.290 -0.2226 -2.8697  0.2809
  452SOL    HW2 1356   0.910   1.271   1.384  1.3008 -1.0076 -2.7824
  453SOL     OW 1357   0.694   1.955   0.920 -0.1840  0.1625  0.1320
  453SOL    HW1 1358   0.621   2.020   0.888 -1.1544  1.2387 -1.6226
  453SOL    HW2 1359   0.744   1.915   0.841  0.8913  0.1358  1.7724
  454SOL     OW 1360   1.280   1.671   0.209 -0.0078  0.3282 -0.0964
  454SOL    HW1 1361   1.374   1.664   0.169 -2.0841  0.6730 -0.5231
  454SOL    HW2 1362   1.284   1.695   0.307 -0.9096 -0.4190 -0.1955
  455SOL     OW 1363   1.744   0.501   1.063 -0.4640  0.3862  0.1473
  455SOL    HW1 1364   1.843   0.491   1.044  2.4401 -2.7619  1.0121
  455SOL    HW2 1365   1.686   0.485   0.981  0.3732  1.4984  0.4099
  456SOL     OW 1366   1.752   2.860   0.601  0.3588 -0.0196  0.1254
  456SOL    HW1 1367   1.664   2.812   0.579 -2.4484 -0.4068 -0.2269
  456SOL    HW2 1368   1.800   2.877   0.513  0.4348  1.1888  1.4481
  457SOL     OW 1369   2.005   0.601   2.512  0.2466 -0.0551  0.6159
  457SOL    HW1 1370   1.963   0.554   2.432 -0.6282 -1.4407  1.7601
  457SOL    HW2 1371   1.984   0.550   2.602  1.4432 -0.5699  0.2749
  458SOL     OW 1372   2.661   0.576   2.796  0.0350 -0.0709 -0.0544
  458SOL    HW1 1373   2.605   0.615   2.719  1.2592 -0.5746 -1.0048
  458SOL    HW2 1374   2.733   0.514   2.760 -0.0477 -1.0530  0.1146
  459SOL     OW 1375   2.554   1.388   2.378  0.2079  0.5610  0.4655
  459SOL    HW1 1376   2.492   1.442   2.317 -1.2941  0.1408 -1.7925
  459SOL    HW2 1377   2.626   1.341   2.325  0.3688  1.5704  1.1507
  460SOL     OW 1378   0.728   0.923   2.896  0.0624 -0.2605 -0.2132
  460SOL    HW1 1379   0.658   0.914   2.969 -1.4195  2.6853 -0.6959
  460SOL    HW2 1380   0.702   0.977   2.810  1.0811  1.7858  0.3765
  461SOL     OW 1381   0.397   2.115   2.994  0.1675  0.0217  0.3665
  461SOL    HW1 1382   0.408   2.215   2.968 -0.4829  0.9971 -3.1092
  461SOL    HW2 1383   0.312   2.078   2.953  0.0863 -0.1109  2.4281
  462SOL     OW 1384   1.148   0.008   2.251 -0.3654 -0.0477 -0.3385
  462SOL    HW1 1385   1.217   3.031   2.294 -0.8500 -1.4581  0.4510
  462SOL    HW2 1386   1.068   3.047   2.221  1.2807  1.8062 -0.0550
  463SOL     OW 1387   1.954   2.265   2.030 -0.5110 -0.5978  0.5660
  463SOL    HW1 1388   1.873   2.210   2.049  2.6588 -2.8470  0.4959
  463SOL    HW2 1389   2.034   2.219   2.073  1.2886  1.8152 -2.7042
  464SOL     OW 1390   2.547   2.486   0.963 -0.2508 -0.1955 -0.6750
  464SOL    HW1 1391   2.455   2.476   1.001  1.7625  1.3711 -0.0087
  464SOL    HW2 1392   2.544   2.520   0.870  2.7728 -1.8788  1.4296
  465SOL     OW 1393   0.009   0.280   1.313  0.2706 -0.2405 -0.1545
  465SOL    HW1 1394   3.076   0.220   1.231 -0.9814 -3.5574  2.9934
  465SOL    HW2 1395   0.065   0.355   1.279 -1.9837 -1.4073 -1.8220
  466SOL     OW 1396   1.199   2.711   2.498 -0.5409 -0.4423 -0.2677
  466SOL    HW1 1397   1.151   2.752   2.578 -0.2310 -1.1625  3.3226
  466SOL    HW2 1398   1.136   2.686   2.421 -0.7604  0.3583  0.9640
  467SOL     OW 1399   0.160   2.285   0.212 -0.0514 -0.3879  0.3547
  467SOL    HW1 1400   0.252   2.236   0.232 -0.4881 -1.6819  2.4688
  467SOL    HW2 1401   0.134   2.278   0.114  2.4409 -1.9607 -0.1572
  468SOL     OW 1402   2.130   1.979   2.973  0.0173 -0.2639  0.1954
  468SOL    HW1 1403   2.104   1.955   2.882  2.4362  0.7670  3.0701
  468SOL    HW2 1404   2.165   2.076   2.978 -1.6464 -0.2772  0.3915
  469SOL     OW 1405   1.074   2.189   0.622 -0.5370  0.2807  0.2417
  469SOL    HW1 1406   1.168   2.234   0.638  3.1861  0.3926  0.5507
  469SOL    HW2 1407   1.001   2.257   0.646  1.0248 -0.4928  0.8704
  470SOL     OW 1408   2.080   0.651   0.944  0.5179  0.5276 -0.2906
  470SOL    HW1 1409   2.074   0.582   1.020 -1.5754 -0.5744  0.1724
  470SOL    HW2 1410   2.103   0.746   0.973 -0.1982  0.2531 -0.5695
  471SOL     OW 1411   0.552   2.015   0.335 -0.7446  0.3228 -0.0880
  471SOL    HW1 1412   0.617   1.942   0.298  1.4965 -3.1451 -0.8166
  471SOL    HW2 1413   0.461   2.016   0.288  0.7646 -0.5777  0.5031
  472SOL     OW 1414   2.615   1.643   2.493 -0.5515  0.4930  0.0507
  472SOL    HW1 1415   2.658   1.614   2.581  0.0786  2.7363 -0.6740
  472SOL    HW2 1416   2.599   1.561   2.433  0.1981  1.0083 -0.2233
  473SOL     OW 1417   1.689   1.893   0.733 -0.0352  0.0788 -0.2558
  473SOL    HW1 1418   1.639   1.971   0.690 -0.2298 -3.4549 -1.2435
  473SOL    HW2 1419   1.654   1.876   0.828  0.2458  1.1547  1.5769
  474SOL     OW 1420   2.788   0.477   1.037  0.0282  0.2350  0.3112
  474SOL    HW1 1421   2.713   0.502   0.972 -0.3515 -1.3530  0.6068
  474SOL    HW2 1422   2.866   0.542   1.019 -2.3727 -0.8837 -1.0614
  475SOL     OW 1423   2.523   2.838   1.291  0.4526 -0.0185  0.4558
  475SOL    HW1 1424   2.466   2.893   1.355  1.6181 -0.4912 -0.7052
  475SOL    HW2 1425   2.542   2.889   1.202  0.6839 -3.9151  0.4711
  476SOL     OW 1426   0.505   0.493   0.850 -0.2196  0.4157 -0.2456
  476SOL    HW1 1427   0.426   0.519   0.794  0.2677 -1.9473  0.2822
  476SOL    HW2 1428   0.586   0.484   0.792  0.4748 -0.0702 -0.4755
  477SOL     OW 1429   1.244   2.301   1.095 -0.1014 -0.3016  0.2942
  477SOL    HW1 1430   1.332   2.289   1.036  3.5271  1.0991 -3.1700
  477SOL    HW2 1431   1.259   2.383   1.155  1.4699 -1.3977 -2.4925
  478SOL     OW 1432   1.300   2.603   2.826 -0.0642 -0.4252  0.0426
  478SOL    HW1 1433   1.199   2.577   2.799 -2.5132 -0.9743  1.7240
  478SOL    HW2 1434   1.324   2.691   2.776 -0.3696 -0.4845 -0.3870
  479SOL     OW 1435   2.570   0.786   1.953  0.2040 -0.2556  0.2882
  479SOL    HW1 1436   2.643   0.729   1.987 -1.3098  3.8619  0.4563
  479SOL    HW2 1437   2.542   0.751   1.863  0.1682  1.5662 -0.3304
  480SOL     OW 1438   2.716   1.985   2.620  0.3583 -0.1548  0.1414
  480SOL    HW1 1439   2.747   2.065   2.563  0.8907 -0.6144 -0.9354
  480SOL    HW2 1440   2.798   1.928   2.645  1.9501 -1.5051  1.3294
  481SOL     OW 1441   1.740   0.115   2.092  0.0707  0.5899 -0.4038
  481SOL    HW1 1442   1.798   0.098   2.172  2.2145  2.0146 -0.0127
  481SOL    HW2 1443   1.644   0.101   2.111 -1.4138 -2.0351 -1.8964
  482SOL     OW 1444   1.515   2.343   2.363 -0.3342 -0.0252  0.6014
  482SOL    HW1 1445   1.458   2.426   2.388 -1.0102 -0.5043 -0.6663
  482SOL    HW2 1446   1.609   2.355   2.403 -0.3344 -0.6743 -0.3382
  483SOL     OW 1447   1.035   2.808   2.706  0.5117  0.8212 -0.3458
  483SOL    HW1 1448   0.995   2.718   2.732 -1.3691 -1.2830 -0.0841
  483SOL    HW2 1449   1.001   2.893   2.763 -0.2872  0.6610  1.0532
  484SOL     OW 1450   2.389   3.078   1.453  0.2241 -0.0105 -0.0648
  484SOL    HW1 1451   2.352   3.059   1.546  0.1173  0.4721 -0.7296
  484SOL    HW2 1452   2.472   0.050   1.458  0.9241 -1.2426 -0.6418
  485SOL     OW 1453   1.971   0.601   0.418  0.0067  0.3920 -0.2155
  485SOL    HW1 1454   1.979   0.663   0.503 -1.2964  2.2154 -0.1516
  485SOL    HW2 1455   1.878   0.606   0.381 -0.2584  0.3291  0.6717
  486SOL     OW 1456   2.289   2.659   2.336 -0.1586  0.4120  0.5848
  486SOL    HW1 1457   2.301   2.758   2.356  1.0148 -2.1556 -0.4479
  486SOL    HW2 1458   2.326   2.631   2.248 -0.5606 -0.1945 -0.1599
  487SOL     OW 1459   1.502   0.686   0.549  0.0395  0.2359 -0.3796
  487SOL    HW1 1460   1.443   0.734   0.619  1.0167  1.0270  0.2466
  487SOL    HW2 1461   1.546   0.604   0.588 -0.5906  0.6652 -1.7673
  488SOL     OW 1462   2.626   2.734   2.472 -0.0427 -0.1470 -0.9588
  488SOL    HW1 1463   2.590   2.737   2.374  0.0261 -0.5604  2.6034
  488SOL    HW2 1464   2.567   2.786   2.531  1.2899  1.6272 -1.1851
  489SOL     OW 1465   1.384   2.923   0.192 -0.7777  0.5048 -0.2214
  489SOL    HW1 1466   1.362   3.002   0.251 -1.6000  1.4321 -1.2264
  489SOL    HW2 1467   1.483   2.900   0.206  3.4017 -0.5096  3.6736
  490SOL     OW 1468   1.622   0.436   3.003 -0.3510 -0.2599 -0.1062
  490SOL    HW1 1469   1.708   0.425   3.055 -3.0196  1.2002  0.7992
  490SOL    HW2 1470   1.572   0.509   3.049  5.8738 -0.5015 -1.4760
  491SOL     OW 1471   0.712   2.906   1.348  0.3741 -0.0599 -0.1983
  491SOL    HW1 1472   0.733   2.952   1.439 -0.6189  0.9903  1.3011
  491SOL    HW2 1473   0.787   2.942   1.284  1.5573 -0.4228  0.8109
  492SOL     OW 1474   1.558   2.732   0.479  0.1321 -0.4095 -0.1242
  492SOL    HW1 1475   1.541   2.629   0.483  1.5131 -2.3568  0.7073
  492SOL    HW2 1476   1.579   2.756   0.386  2.7593 -0.2476  0.9000
  493SOL     OW 1477   1.272   2.290   2.987  0.9849  0.1527  0.0019
  493SOL    HW1 1478   1.344   2.353   2.955  1.2440  1.0179 -0.3766
  493SOL    HW2 1479   1.219   2.333   3.062  0.1460 -0.8487  0.1316
  494SOL     OW 1480   1.042   0.696   0.277  0.3489  0.1835  0.2323
  494SOL    HW1 1481   0.977   0.628   0.318 -2.6889  1.1168  1.3477
  494SOL    HW2 1482   1.084   0.752   0.349 -1.9630 -1.6488 -0.8057
  495SOL     OW 1483   2.732   0.463   1.776  0.3625 -0.1233  0.2732
  495SOL    HW1 1484   2.759   0.366   1.789 -1.1047  1.0517 -3.4714
  495SOL    HW2 1485   2.727   0.483   1.674  0.1075  0.0047  2.0237
  496SOL     OW 1486   2.227   2.424   2.458  0.1235 -0.3179  0.4621
  496SOL    HW1 1487   2.247   2.510   2.407 -0.2725  1.7966 -0.3154
  496SOL    HW2 1488   2.128   2.405   2.445  3.1686  0.6744 -0.4716
  497SOL     OW 1489   1.654   1.465   2.603 -0.2873 -0.5557 -0.4450
  497SOL    HW1 1490   1.735   1.512   2.652  0.1379  0.8880  2.8363
  497SOL    HW2 1491   1.576   1.461   2.668 -0.1364 -1.1483 -0.7123
  498SOL     OW 1492   0.898   2.348   0.892 -0.0400 -0.0026  0.1167
  498SOL    HW1 1493   0.842   2.408   0.954  1.5167  2.4524 -1.6977
  498SOL    HW2 1494   0.934   2.266   0.935  0.0190 -3.4860 -0.0177
  499SOL     OW 1495   0.083   2.131   1.029 -0.1254 -0.1659  0.1459
  499SOL    HW1 1496   0.009   2.162   0.962 -0.3048  2.2633 -1.1760
  499SOL    HW2 1497   0.088   2.195   1.107 -2.3534  1.6114  0.0696
  500SOL     OW 1498   0.943   2.804   0.066  0.2662  0.1292  0.4137
  500SOL    HW1 1499   0.861   2.864   0.067  1.6803  1.2173 -1.6742
  500SOL    HW2 1500   1.020   2.847   0.109  1.3964 -2.1696  1.2339
  501SOL     OW 1501   1.855   2.960   0.344  0.1672  0.3892 -0.3135
  501SOL    HW1 1502   1.929   2.885   0.335  0.3802 -3.4462  0.7958
  501SOL    HW2 1503   1.895   3.041   0.293  1.6363  0.6616 -2.2661
  502SOL     OW 1504   0.085   0.401   0.742  0.0287  0.2452 -0.7406
  502SOL    HW1 1505   0.048   0.397   0.647  0.3081  1.3809 -0.2485
  502SOL    HW2 1506   0.120   0.311   0.770  0.6645 -0.2799 -0.0250
  503SOL     OW 1507   2.093   3.054   2.023  0.2028  0.7720 -0.3202
  503SOL    HW1 1508   2.105   3.038   2.124  2.8697  1.3532 -1.6820
  503SOL    HW2 1509   2.114   0.061   1.995 -0.6288 -2.2513 -0.7701
  504SOL     OW 1510   2.113   1.052   2.012 -0.1956 -0.1157 -0.5171
  504SOL    HW1 1511   2.101   0.987   1.934 -0.4440  1.9341  0.5967
  504SOL    HW2 1512   2.211   1.052   2.036 -2.8335 -0.6193  0.5603
  505SOL     OW 1513   1.754   2.915   2.389  0.0204  0.6963 -0.4342
  505SOL    HW1 1514   1.792   3.004   2.387 -1.1047 -3.4807 -1.6972
  505SOL    HW2 1515   1.692   2.906   2.307  0.3855 -1.5975 -1.4326
  506SOL     OW 1516   0.092   0.692   1.904  0.2364  0.1369 -0.0311
  506SOL    HW1 1517   0.073   0.604   1.957 -1.3097 -0.7213  2.1401
  506SOL    HW2 1518   0.185   0.735   1.929  1.6756 -2.0496 -0.6215
  507SOL     OW 1519   1.719   0.457   0.245  0.1010 -0.1918 -0.0343
  507SOL    HW1 1520   1.619   0.476   0.254  0.3831 -0.0646 -1.2271
  507SOL    HW2 1521   1.737   0.358   0.222 -1.1131 -0.1018  1.8162
  508SOL     OW 1522   2.122   0.852   2.195  0.2963  0.0330 -0.2734
  508SOL    HW1 1523   2.119   0.935   2.136 -1.4121 -0.7910  1.1456
  508SOL    HW2 1524   2.191   0.791   2.165  1.7786 -0.1036 -2.4323
  509SOL     OW 1525   0.624   1.794   2.698 -0.5429 -0.2863 -0.3013
  509SOL    HW1 1526   0.620   1.843   2.790 -0.8414 -0.2073  1.4867
  509SOL    HW2 1527   0.549   1.824   2.636 -0.7919 -0.3918  1.6546
  510SOL     OW 1528   0.048   0.907   0.994 -0.4498 -0.1123  0.6202
  510SOL    HW1 1529   0.133   0.848   1.011 -0.4973 -3.0887  0.3255
  510SOL    HW2 1530   0.039   0.981   1.064 -1.9073 -3.0163 -0.4394
  511SOL     OW 1531   1.521   1.156   1.712  0.8310  0.1889 -0.5221
  511SOL    HW1 1532   1.420   1.146   1.729 -3.0358  0.6599 -0.6588
  511SOL    HW2 1533   1.537   1.223   1.636  0.7119 -0.2543 -1.0966
  512SOL     OW 1534   0.453   2.079   0.727 -0.1362  0.5624 -0.0145
  512SOL    HW1 1535   0.541   2.047   0.680  0.0148 -0.5212  1.3854
  512SOL    HW2 1536   0.415   2.165   0.682  3.3521  1.2044 -3.1748
  513SOL     OW 1537   0.300   2.615   0.994  0.1684 -0.1298 -0.3652
  513SOL    HW1 1538   0.304   2.679   0.916  2.2674 -4.6266  0.3175
  513SOL    HW2 1539   0.207   2.573   1.001 -2.0693  0.0939 -0.5252
  514SOL     OW 1540   0.690   2.019   0.585 -0.3132  0.4092  0.1750
  514SOL    HW1 1541   0.762   1.952   0.607 -0.3423  0.3723 -0.0754
  514SOL    HW2 1542   0.644   1.991   0.495 -2.8295  2.0684  0.4617
  515SOL     OW 1543   0.323   0.159   2.981 -0.3562  0.3212  0.5899
  515SOL    HW1 1544   0.265   0.079   2.946 -3.2469  1.6175 -1.1609
  515SOL    HW2 1545   0.375   0.137   3.068 -0.3410 -2.6903 -0.1956
  516SOL     OW 1546   2.030   0.004   1.435 -0.0850 -0.5590 -0.1106
  516SOL    HW1 1547   1.990   0.092   1.465  0.4759 -2.2396  0.2638
  516SOL    HW2 1548   2.107   0.019   1.371  0.0983 -1.6252  1.3870
  517SOL     OW 1549   1.920   1.528   0.796  0.5539 -0.1078  0.7783
  517SOL    HW1 1550   1.903   1.588   0.711 -1.4942  0.9752 -1.2202
  517SOL    HW2 1551   1.997   1.574   0.851 -1.1321  1.2253 -0.0080
  518SOL     OW 1552   1.888   2.841   0.821  0.0030 -0.3567 -0.1241
  518SOL    HW1 1553   1.926   2.752   0.808  1.0596 -0.1704 -1.3280
  518SOL    HW2 1554   1.835   2.864   0.737  1.5040 -1.5969  1.6688
  519SOL     OW 1555   0.084   2.384   3.041 -0.5465  0.1895  0.8449
  519SOL    HW1 1556   0.008   2.358   2.980 -2.2790  0.9216 -0.7492
  519SOL    HW2 1557   0.173   2.410   2.991  0.3425 -0.0063  0.0251
  520SOL     OW 1558   2.024   1.880   2.305  0.0826 -0.1096 -0.1848
  520SOL    HW1 1559   1.982   1.965   2.348 -2.6863  2.2923  1.0632
  520SOL    HW2 1560   1.967   1.843   2.228  2.4150 -0.2408  1.4354
  521SOL     OW 1561   1.308   2.908   2.001  0.4304  0.6309 -0.2785
  521SOL    HW1 1562   1.364   2.903   1.926 -2.1200 -2.1645  2.5081
  521SOL    HW2 1563   1.217   2.946   1.972 -0.6050 -1.9106 -0.0059
  522SOL     OW 1564   0.415   2.535   1.982  0.0552  0.4532 -0.3279
  522SOL    HW1 1565   0.357   2.555   1.901  1.2314  2.2017 -1.0714
  522SOL    HW2 1566   0.370   2.467   2.044 -0.8503 -3.9491  0.5018
  523SOL     OW 1567   0.674   2.151   1.920 -0.4479  0.2227 -0.0859
  523SOL    HW1 1568   0.651   2.225   1.857  0.4560  1.4485 -0.1529
  523SOL    HW2 1569   0.765   2.163   1.964 -2.7571 -2.1803 -1.8248
  524SOL     OW 1570   2.206   2.158   0.198  0.4935  0.4528  0.2766
  524SOL    HW1 1571   2.246   2.161   0.295  0.9815  0.9549 -2.5666
  524SOL    HW2 1572   2.238   2.071   0.155  1.0662 -1.9047  0.6387
  525SOL     OW 1573   2.740   1.025   2.860 -0.1027 -0.2993  0.0353
  525SOL    HW1 1574   2.651   1.081   2.855 -0.0003  0.2114 -2.4641
  525SOL    HW2 1575   2.781   1.017   2.766  0.1194 -3.2173  0.2234
  526SOL     OW 1576   0.290   2.783   0.782 -0.3706 -0.0302 -0.0528
  526SOL    HW1 1577   0.362   2.738   0.726 -0.9273  0.8097 -3.3292
  526SOL    HW2 1578   0.195   2.769   0.737  1.9001 -1.3071  1.3849
  527SOL     OW 1579   0.001   1.062   0.753  0.0936  0.3911  0.4153
  527SOL    HW1 1580   3.074   0.987   0.825  0.2345 -1.4962  0.6022
  527SOL    HW2 1581   3.016   1.131   0.753 -1.0630 -1.1144  0.0796
  528SOL     OW 1582   0.739   1.071   2.433  0.3025 -0.2073 -0.4244
  528SOL    HW1 1583   0.699   1.039   2.522 -1.2331 -2.2533 -0.0386
  528SOL    HW2 1584   0.839   1.088   2.441 -3.3440 -1.4875 -1.6938
  529SOL     OW 1585   0.949   1.404   0.239 -0.4450  0.2008  0.4823
  529SOL    HW1 1586   0.930   1.313   0.199 -0.4360 -0.1548  1.6283
  529SOL    HW2 1587   0.921   1.480   0.170 -0.1021  1.8108  1.1559
  530SOL     OW 1588   1.129   0.908   1.864  0.4302  0.0819 -0.2913
  530SOL    HW1 1589   1.069   0.873   1.788 -2.0391 -1.8581 -0.5863
  530SOL    HW2 1590   1.126   0.843   1.945  0.8098 -1.6388  0.7828
  531SOL     OW 1591   1.196   2.435   0.117  0.1577  0.0398  0.0151
  531SOL    HW1 1592   1.145   2.458   0.202  1.2340  0.1044  1.1494
  531SOL    HW2 1593   1.268   2.502   0.092 -0.8778 -0.5671  2.7629
  532SOL     OW 1594   2.511   0.745   2.368  0.2563  0.5627 -0.0956
  532SOL    HW1 1595   2.572   0.819   2.390 -2.8258 -2.7128 -2.1568
  532SOL    HW2 1596   2.479   0.702   2.455 -0.2707 -0.3883  0.8040
  533SOL     OW 1597   0.050   0.046   1.969 -0.4844  0.5027 -0.0877
  533SOL    HW1 1598   3.041   0.050   2.011 -1.3313  1.3557  2.5018
  533SOL    HW2 1599   0.077   3.033   1.972  0.4227 -4.7231 -0.5750
  534SOL     OW 1600   2.519   3.004   0.230 -0.6810 -0.0225  0.6392
  534SOL    HW1 1601   2.594   3.060   0.189  1.5557  1.7825 -1.4078
  534SOL    HW2 1602   2.432   3.037   0.189  0.3130  1.6685 -0.4714
  535SOL     OW 1603   0.614   0.465   0.136  1.0700 -0.6786  0.5254
  535SOL    HW1 1604   0.667   0.537   0.180 -1.1111 -0.3953 -0.8198
  535SOL    HW2 1605   0.520   0.478   0.173 -0.5049  0.2459 -2.9425
  536SOL     OW 1606   1.293   2.078   1.224  0.4813 -0.0110  0.1104
  536SOL    HW1 1607   1.205   2.041   1.265 -0.6840 -1.3675 -1.6793
  536SOL    HW2 1608   1.280   2.161   1.165  2.2517 -2.6841 -1.2291
  537SOL     OW 1609   2.850   2.409   1.584 -0.4550 -0.0765  0.3777
  537SOL    HW1 1610   2.884   2.506   1.612 -0.3014  2.0557  2.7909
  537SOL    HW2 1611   2.758   2.395   1.614  4.3313 -0.0641 -1.4183
  538SOL     OW 1612   0.685   2.225   0.097  0.0461 -0.2581 -0.2861
  538SOL    HW1 1613   0.716   2.257   0.185 -0.3257 -2.7820 -2.7251
  538SOL    HW2 1614   0.731   2.136   0.084 -0.6025  1.0014  0.3375
  539SOL     OW 1615   1.939   1.182   2.467 -0.0355 -0.4799  0.0543
  539SOL    HW1 1616   1.840   1.187   2.492 -0.6359  1.5919 -1.7133
  539SOL    HW2 1617   1.940   1.169   2.364 -0.4518  2.0514 -4.7107
  540SOL     OW 1618   1.737   0.841   3.030 -0.1063 -0.1565 -0.3625
  540SOL    HW1 1619   1.754   0.740   3.048  1.0968 -2.1760 -1.5834
  540SOL    HW2 1620   1.771   0.864   2.935  1.1490  2.5728 -2.3923
  541SOL     OW 1621   0.455   0.821   2.376  0.0598  0.3009  0.4228
  541SOL    HW1 1622   0.477   0.730   2.343  3.3286  1.8334  0.7122
  541SOL    HW2 1623   0.355   0.836   2.382  0.6167  0.9362  2.6030
  542SOL     OW 1624   1.226   2.507   1.928 -0.7434 -0.3249 -0.1304
  542SOL    HW1 1625   1.131   2.474   1.902 -2.9720  1.3019  2.7156
  542SOL    HW2 1626   1.268   2.557   1.848 -1.3588 -2.7412 -0.7847
  543SOL     OW 1627   0.711   2.679   0.299  0.2108 -0.3947 -0.1619
  543SOL    HW1 1628   0.672   2.703   0.208 -0.0748  0.0867 -0.8639
  543SOL    HW2 1629   0.645   2.640   0.368  0.4793  1.1770  0.2391
  544SOL     OW 1630   2.799   2.050   2.298 -0.3373 -0.7512 -0.1681
  544SOL    HW1 1631   2.723   2.127   2.309 -2.9075  5.4112 -0.9681
  544SOL    HW2 1632   2.894   2.091   2.316  4.1583 -0.7119  0.3872
  545SOL     OW 1633   1.360   1.771   1.827 -0.3046  0.3528 -0.4453
  545SOL    HW1 1634   1.348   1.744   1.930  0.4467 -0.5588  0.2217
  545SOL    HW2 1635   1.284   1.727   1.767  1.5482  2.0737 -1.2918
  546SOL     OW 1636   2.888   0.430   2.762 -0.0153 -0.3975  0.1951
  546SOL    HW1 1637   2.875   0.369   2.846  0.6043 -0.5129  2.7339
  546SOL    HW2 1638   2.973   0.413   2.708  1.2528 -1.7202 -2.3631
  547SOL     OW 1639   1.421   2.979   1.219  0.1355 -0.0702  0.7698
  547SOL    HW1 1640   1.404   3.007   1.314  1.3524 -0.3283 -1.4928
  547SOL    HW2 1641   1.492   2.906   1.210 -0.5614 -1.0365  2.5538
  548SOL     OW 1642   1.330   2.079   0.049 -0.0496  0.3379  0.3475
  548SOL    HW1 1643   1.418   2.079   0.097  0.2114 -2.1751  1.5030
  548SOL    HW2 1644   1.313   2.165   3.083 -1.2709  0.1602 -0.7895
  549SOL     OW 1645   1.982   0.642   2.957 -0.4205 -0.2611  0.0651
  549SOL    HW1 1646   1.948   0.640   3.051 -0.8990  1.8879 -2.9077
  549SOL    HW2 1647   2.032   0.729   2.934 -1.2143 -1.9214 -1.0020
  550SOL     OW 1648   2.736   2.023   0.867 -0.1374  0.0724 -0.3055
  550SOL    HW1 1649   2.681   2.079   0.798  1.6657  0.7811 -2.5306
  550SOL    HW2 1650   2.766   1.937   0.825 -1.2106 -0.4968  1.9231
  551SOL     OW 1651   1.002   0.225   1.211 -0.6075 -0.2544  0.4720
  551SOL    HW1 1652   0.983   0.295   1.141 -1.3426 -1.9536  1.6551
  551SOL    HW2 1653   0.986   0.269   1.304  2.3302  2.6755  0.1116
  552SOL     OW 1654   3.036   1.555   2.852  0.3283 -0.1028  0.3839
  552SOL    HW1 1655   0.039   1.591   2.874 -4.4292  1.4249 -2.5129
  552SOL    HW2 1656   2.988   1.519   2.934  0.7553 -0.1538  0.5915
  553SOL     OW 1657   2.574   2.494   0.385 -0.1593 -0.0953  0.5022
  553SOL    HW1 1658   2.645   2.551   0.344  0.1060 -4.3192 -1.0810
  553SOL    HW2 1659   2.500   2.554   0.417  1.3616  0.0089 -2.8207
  554SOL     OW 1660   2.132   1.081   1.589  0.6094 -0.2113  0.2186
  554SOL    HW1 1661   2.039   1.086   1.540 -2.2526 -0.4188 -0.4367
  554SOL    HW2 1662   2.130   0.999   1.647 -1.4631 -1.7023  0.8216
  555SOL     OW 1663   0.707   2.268   2.331  0.2385  0.3170 -0.5462
  555SOL    HW1 1664   0.708   2.355   2.383  0.0467  1.9746 -1.0628
  555SOL    HW2 1665   0.740   2.187   2.380 -1.0339  1.5110  0.9574
  556SOL     OW 1666   1.223   1.404   1.814 -0.0024 -0.9180  0.0009
  556SOL    HW1 1667   1.298   1.412   1.886 -1.4163  0.2442 -2.8306
  556SOL    HW2 1668   1.202   1.491   1.766 -4.3770 -3.1454  1.7108
  557SOL     OW 1669   1.406   0.063   1.489 -0.1724 -0.1088  0.3752
  557SOL    HW1 1670   1.431   0.122   1.406  0.4816  2.2918 -3.4747
  557SOL    HW2 1671   1.312   0.081   1.528 -0.5118 -1.3117  1.6586
  558SOL     OW 1672   0.311   0.573   2.176  0.4977 -0.8409 -0.1468
  558SOL    HW1 1673   0.347   0.481   2.169  1.2891  3.2782  1.7398
  558SOL    HW2 1674   0.327   0.631   2.091  2.3826  3.6763 -3.9433
  559SOL     OW 1675   1.149   2.802   0.268  0.3012 -0.1274  0.0875
  559SOL    HW1 1676   1.126   2.863   0.344 -0.1326 -0.4253 -0.2796
  559SOL    HW2 1677   1.238   2.822   0.224  2.5253  0.0318  0.0869
  560SOL     OW 1678   1.591   2.080   0.149 -0.0905 -0.1167 -0.2303
  560SOL    HW1 1679   1.654   2.001   0.165 -1.5850 -0.8679 -0.0158
  560SOL    HW2 1680   1.650   2.158   0.129 -1.3468 -0.7148 -1.2155
  561SOL     OW 1681   1.352   2.905   0.810 -0.0326 -0.1603  0.0140
  561SOL    HW1 1682   1.435   2.954   0.843 -1.6151 -0.2183  0.0711
  561SOL    HW2 1683   1.273   2.943   0.857 -0.5168 -0.3850  0.6834
  562SOL     OW 1684   0.453   0.947   2.139  0.1858  0.2215 -0.0623
  562SOL    HW1 1685   0.539   0.982   2.103 -1.9760  1.3097 -0.0109
  562SOL    HW2 1686   0.459   0.910   2.232 -0.9150 -0.9486  1.5166
  563SOL     OW 1687   1.349   2.158   2.724  0.3503  0.2777  0.2932
  563SOL    HW1 1688   1.370   2.253   2.748  1.8646  0.9603 -1.9263
  563SOL    HW2 1689   1.436   2.108   2.711  0.1892  0.6244  1.2579
  564SOL     OW 1690   2.659   0.829   1.200 -0.0450  0.1770  0.0653
  564SOL    HW1 1691   2.646   0.934   1.221  1.1998 -2.2105  0.5624
  564SOL    HW2 1692   2.618   0.822   1.109  1.0678  0.4580  0.9411
  565SOL     OW 1693   1.382   1.281   0.284  0.2079 -0.5119  0.0123
  565SOL    HW1 1694   1.338   1.267   0.195  0.4860  0.7731  0.9553
  565SOL    HW2 1695   1.433   1.373   0.286  0.2186  1.7331 -1.2904
  566SOL     OW 1696   2.109   2.650   3.013  0.0971  0.1106  0.7696
  566SOL    HW1 1697   2.175   2.584   3.049 -0.8024  3.4906 -0.2505
  566SOL    HW2 1698   2.102   2.736   3.066 -1.9682  1.2540 -0.5403
  567SOL     OW 1699   1.772   0.846   0.970  0.2635 -0.0497  0.2192
  567SOL    HW1 1700   1.830   0.910   0.922 -4.5145 -0.3748 -1.0974
  567SOL    HW2 1701   1.808   0.822   1.061 -2.1831  0.9793 -1.3901
  568SOL     OW 1702   1.361   1.745   2.435 -0.0923 -0.3610  0.0825
  568SOL    HW1 1703   1.335   1.659   2.483  0.5625 -0.1027 -0.6611
  568SOL    HW2 1704   1.331   1.829   2.480 -0.4308 -1.0957 -0.6088
  569SOL     OW 1705   2.101   1.678   0.961 -0.3205 -0.0047 -0.1079
  569SOL    HW1 1706   2.136   1.687   0.863 -2.9043 -1.2696  1.8343
  569SOL    HW2 1707   2.173   1.649   1.024 -1.7472  3.0601  1.0246
  570SOL     OW 1708   2.595   2.214   2.290  0.0205  0.5575 -0.1300
  570SOL    HW1 1709   2.591   2.311   2.257  0.7844  0.5934 -2.8115
  570SOL    HW2 1710   2.508   2.194   2.340 -2.6140 -0.1914  0.2595
  571SOL     OW 1711   2.643   1.879   1.744  0.3821  0.0062 -0.4818
  571SOL    HW1 1712   2.665   1.866   1.844 -0.8523  0.0175 -2.6136
  571SOL    HW2 1713   2.597   1.971   1.722 -0.8747 -1.3351  1.5723
  572SOL     OW 1714   1.475   2.398   2.780  0.1277  0.6541  0.5844
  572SOL    HW1 1715   1.411   2.479   2.766  0.6594 -2.5257  1.1458
  572SOL    HW2 1716   1.545   2.400   2.706  0.9435  1.9140 -0.6126
  573SOL     OW 1717   1.653   2.168   1.059  0.0759 -0.1843 -0.1983
  573SOL    HW1 1718   1.616   2.091   1.113  1.0807 -0.1383 -2.1284
  573SOL    HW2 1719   1.737   2.133   1.012 -1.8330  1.8760  0.2068
  574SOL     OW 1720   1.193   2.750   1.349 -0.0362  1.1437 -0.0317
  574SOL    HW1 1721   1.100   2.710   1.357 -0.9929  0.2442 -1.0399
  574SOL    HW2 1722   1.190   2.843   1.389  1.7580  1.0894 -2.7772
  575SOL     OW 1723   0.985   0.476   1.052 -0.1478  0.4863  0.9312
  575SOL    HW1 1724   1.036   0.501   0.970  1.2117  0.3671  1.0964
  575SOL    HW2 1725   1.035   0.490   1.143  0.1512  0.6952  0.7103
  576SOL     OW 1726   2.484   0.344   1.344 -0.2714  0.1128  0.1748
  576SOL    HW1 1727   2.559   0.408   1.319  1.5196 -0.8836 -0.5693
  576SOL    HW2 1728   2.514   0.287   1.421 -2.5866 -2.8753  0.9572
  577SOL     OW 1729   2.383   0.285   2.769  0.0477 -0.3614 -0.2228
  577SOL    HW1 1730   2.371   0.364   2.831  1.5186 -2.0810  1.9984
  577SOL    HW2 1731   2.346   0.311   2.675 -2.5848  1.5999 -1.7201
  578SOL     OW 1732   1.917   1.805   2.080  0.6903 -0.7128  0.2633
  578SOL    HW1 1733   1.887   1.706   2.092 -1.5735  0.1347 -1.1372
  578SOL    HW2 1734   1.937   1.814   1.982 -0.0932 -0.7934  3.0444
  579SOL     OW 1735   0.627   1.742   1.078 -0.0257 -0.4368 -0.4262
  579SOL    HW1 1736   0.666   1.809   1.014 -1.0679 -2.1114  0.6123
  579SOL    HW2 1737   0.641   1.648   1.050 -1.8073  0.9491  0.4553
  580SOL     OW 1738   1.353   2.902   2.757 -0.0962 -0.2741 -0.8827
  580SOL    HW1 1739   1.267   2.953   2.776 -0.7331  1.4314  0.8953
  580SOL    HW2 1740   1.415   2.941   2.683  0.5768  0.3815 -0.4573
  581SOL     OW 1741   0.641   0.639   2.134  0.0209 -0.5577  0.0821
  581SOL    HW1 1742   0.658   0.566   2.204 -1.0914  0.7813 -4.0751
  581SOL    HW2 1743   0.680   0.730   2.160 -1.0503 -0.9452 -1.4581
  582SOL     OW 1744   0.493   0.732   0.703  0.2310 -0.6390 -0.3923
  582SOL    HW1 1745   0.417   0.778   0.758 -3.1987  3.2805  0.8915
  582SOL    HW2 1746   0.576   0.792   0.696  0.0631  0.8137 -0.1290
  583SOL     OW 1747   0.731   1.796   1.825 -0.1911 -0.5891 -0.2759
  583SOL    HW1 1748   0.654   1.778   1.887  0.7748  1.3940  0.6884
  583SOL    HW2 1749   0.815   1.822   1.878 -0.8793 -1.7799  0.3730
  584SOL     OW 1750   2.355   2.618   0.423  0.3109 -0.1655 -0.0496
  584SOL    HW1 1751   2.363   2.655   0.523  2.1192  1.7298  3.6832
  584SOL    HW2 1752   2.285   2.671   0.372 -2.1440  2.0422  1.2221
  585SOL     OW 1753   2.212   0.574   2.758  0.3060 -0.3973  0.2970
  585SOL    HW1 1754   2.115   0.595   2.764 -0.3680  2.6089 -0.0217
  585SOL    HW2 1755   2.263   0.610   2.837  0.9918 -1.3152 -3.5708
  586SOL     OW 1756   0.478   1.434   0.280  0.6503 -0.2251  0.8174
  586SOL    HW1 1757   0.543   1.475   0.346  0.6345  0.6929 -1.5054
  586SOL    HW2 1758   0.415   1.361   0.317  0.1410 -1.7503 -1.5725
  587SOL     OW 1759   1.584   1.802   0.963  0.1487 -0.1746 -0.0403
  587SOL    HW1 1760   1.685   1.801   0.979 -2.1357 -2.4744  1.2548
  587SOL    HW2 1761   1.531   1.851   1.037 -0.1364  1.1313  0.2261
  588SOL     OW 1762   0.547   0.698   1.033 -0.3855 -0.4293  0.1146
  588SOL    HW1 1763   0.619   0.647   1.086 -0.7918 -1.4009 -0.0518
  588SOL    HW2 1764   0.531   0.652   0.945 -0.4788  0.9507  1.2558
  589SOL     OW 1765   1.608   2.802   1.230  0.1158 -0.0393  0.4061
  589SOL    HW1 1766   1.665   2.809   1.147 -1.2241  0.3961  0.7822
  589SOL    HW2 1767   1.660   2.842   1.309 -1.1925 -0.9110  0.2937
  590SOL     OW 1768   1.370   1.043   0.443 -1.0320 -0.0045 -0.1032
  590SOL    HW1 1769   1.461   1.003   0.426 -1.5299 -2.0008  0.6738
  590SOL    HW2 1770   1.355   1.126   0.381 -0.4124  0.5272 -1.9950
  591SOL     OW 1771   2.203   2.193   2.146 -0.2331 -0.1224  0.1812
  591SOL    HW1 1772   2.254   2.166   2.233  3.0884 -1.3637  0.2597
  591SOL    HW2 1773   2.246   2.150   2.068 -3.4717 -1.4775  1.7127
  592SOL     OW 1774   1.526   1.966   1.190 -0.1983  0.0542  0.1037
  592SOL    HW1 1775   1.561   1.897   1.256  0.3831  0.6524  0.3122
  592SOL    HW2 1776   1.430   1.994   1.203  2.3170  1.9256  0.7726
  593SOL     OW 1777   0.588   0.079   0.860 -0.6268  0.7053  0.5189
  593SOL    HW1 1778   0.649   0.004   0.897 -0.6171 -1.4295  0.8032
  593SOL    HW2 1779   0.623   0.113   0.773  0.1828 -1.6164 -0.3450
  594SOL     OW 1780   2.970   0.861   1.872 -0.0924  0.2220 -0.1892
  594SOL    HW1 1781   2.994   0.953   1.912  1.7005  2.9268  0.2861
  594SOL    HW2 1782   3.055   0.807   1.861 -0.0577  1.5238  0.0327
  595SOL     OW 1783   0.060   2.757   0.656  0.0347  0.1997  0.4933
  595SOL    HW1 1784   0.088   2.760   0.561 -3.2031  2.0082  1.6167
  595SOL    HW2 1785   3.045   2.759   0.668  1.3932  0.8808 -0.9072
  596SOL     OW 1786   0.177   0.273   1.535 -0.4115  0.5281 -0.2569
  596SOL    HW1 1787   0.102   0.286   1.467 -1.4023  0.7160  0.3770
  596SOL    HW2 1788   0.238   0.202   1.499 -1.6423  1.6359 -0.8550
  597SOL     OW 1789   2.210   0.939   0.241  0.3972  0.3200 -0.0796
  597SOL    HW1 1790   2.224   0.969   0.141  3.9352  0.8597 -2.8802
  597SOL    HW2 1791   2.238   1.017   0.299 -0.6406  1.0966 -0.2591
  598SOL     OW 1792   0.583   0.070   2.009  0.4009  0.3066 -1.1110
  598SOL    HW1 1793   0.504   0.066   1.946  0.3400 -0.7462 -0.2946
  598SOL    HW2 1794   0.558   0.112   2.099  0.4882  1.3709 -1.4451
  599SOL     OW 1795   2.715   1.720   0.188  0.5581  0.2390 -0.7073
  599SOL    HW1 1796   2.678   1.817   0.175 -1.7521 -1.5096  0.8981
  599SOL    HW2 1797   2.781   1.699   0.120  0.1907 -1.5391 -1.2511
  600SOL     OW 1798   0.879   1.175   0.086  0.1651 -0.0419 -0.2005
  600SOL    HW1 1799   0.908   1.195   3.077 -0.7688 -1.8307  1.7507
  600SOL    HW2 1800   0.898   1.079   0.122  1.9775 -0.0731  0.8876
  601SOL     OW 1801   1.282   1.253   0.046 -0.2522 -0.1387  0.2388
  601SOL    HW1 1802   1.265   1.340   3.080  2.4665 -0.2175 -3.6597
  601SOL    HW2 1803   1.207   1.188   0.028  2.5276  1.8586  0.4216
  602SOL     OW 1804   1.160   2.982   1.460  0.3339 -0.4156 -0.0898
  602SOL    HW1 1805   1.163   2.953   1.557  3.2034 -1.4297 -0.5686
  602SOL    HW2 1806   1.145   3.085   1.452 -0.2812  0.8469 -0.2841
  603SOL     OW 1807   0.870   2.941   2.527  0.0529 -0.1243  0.1195
  603SOL    HW1 1808   0.951   2.888   2.573  3.5298 -2.4910  0.6404
  603SOL    HW2 1809   0.884   3.040   2.518 -0.7521  0.0192  0.9911
  604SOL     OW 1810   2.898   0.107   2.066  0.2397 -0.0228  0.2100
  604SOL    HW1 1811   2.909   0.209   2.045  0.5202  1.4944  1.0152
  604SOL    HW2 1812   2.829   0.081   2.140  1.5527  0.0431 -1.4548
  605SOL     OW 1813   2.556   2.567   1.322  0.1110  0.7111  0.1917
  605SOL    HW1 1814   2.526   2.541   1.417 -1.3822  1.4326  0.0758
  605SOL    HW2 1815   2.532   2.668   1.298 -1.9094 -1.7493 -0.2737
  606SOL     OW 1816   2.947   1.832   2.756  0.0757  0.1529  0.0329
  606SOL    HW1 1817   2.978   1.916   2.802 -0.4895 -0.2074 -2.6175
  606SOL    HW2 1818   2.903   1.768   2.824  3.4295 -3.4267  0.4702
  607SOL     OW 1819   0.823   0.168   0.717 -0.6906  0.2446 -0.2794
  607SOL    HW1 1820   0.822   0.270   0.719  0.0112  0.2106  1.1658
  607SOL    HW2 1821   0.823   0.135   0.812 -0.9640 -0.2391  0.4209
  608SOL     OW 1822   1.539   1.644   2.252 -0.5917  0.0742 -0.4258
  608SOL    HW1 1823   1.488   1.674   2.334  0.1800 -1.6739  2.3882
  608SOL    HW2 1824   1.612   1.573   2.282  1.6852 -1.4820 -1.2805
  609SOL     OW 1825   2.963   0.686   1.003  0.1369  0.4206 -0.3063
  609SOL    HW1 1826   3.036   0.722   0.940  2.2042  0.6187 -0.4560
  609SOL    HW2 1827   2.983   0.699   1.101 -0.2213 -0.3890  1.4247
  610SOL     OW 1828   0.705   2.442   2.999  0.1390  0.1455  0.0438
  610SOL    HW1 1829   0.792   2.493   2.984  0.1973 -0.2761  2.3832
  610SOL    HW2 1830   0.713   2.361   3.054 -1.5622  1.9613 -0.4070
  611SOL     OW 1831   1.731   1.301   0.541 -0.2109 -0.2217  0.0449
  611SOL    HW1 1832   1.719   1.244   0.454 -1.8236  1.7603  2.1788
  611SOL    HW2 1833   1.638   1.337   0.574  1.8848  2.7239  0.4405
  612SOL     OW 1834   0.728   2.506   2.485  0.0368  0.1855  0.1876
  612SOL    HW1 1835   0.689   2.550   2.570 -0.0304 -1.0440  2.4234
  612SOL    HW2 1836   0.737   2.566   2.403  0.1765 -3.3569  2.8405
  613SOL     OW 1837   1.298   1.761   0.465 -0.1170 -0.1261  0.0843
  613SOL    HW1 1838   1.356   1.744   0.544 -2.7501 -0.6747  1.8090
  613SOL    HW2 1839   1.251   1.851   0.478 -0.0427 -1.7565  0.9251
  614SOL     OW 1840   2.646   2.249   1.706  0.6392 -0.5962  0.0963
  614SOL    HW1 1841   2.656   2.176   1.638  0.3907  0.0705  1.8663
  614SOL    HW2 1842   2.722   2.260   1.769  0.1442 -0.9282  0.4043
  615SOL     OW 1843   2.458   1.353   3.086  0.0877 -0.0810 -0.3191
  615SOL    HW1 1844   2.501   1.446   0.000  3.8784  1.8375 -1.2122
  615SOL    HW2 1845   2.374   1.359   3.030 -0.3447 -2.1074  0.7897
  616SOL     OW 1846   1.512   3.083   0.988  0.0721  0.3501 -0.2849
  616SOL    HW1 1847   1.482   3.050   1.076  1.3539  2.5989 -0.4227
  616SOL    HW2 1848   1.551   0.087   0.996 -1.5752 -1.4457 -0.9578
  617SOL     OW 1849   0.779   1.162   2.715 -0.4829  0.5673  0.1815
  617SOL    HW1 1850   0.853   1.178   2.650 -0.3681  0.8037  0.0102
  617SOL    HW2 1851   0.690   1.200   2.691  3.0673 -2.2834 -0.9453
  618SOL     OW 1852   0.430   0.665   1.660  0.0074 -0.2905  0.3440
  618SOL    HW1 1853   0.426   0.732   1.583  0.5770  1.3771 -2.5743
  618SOL    HW2 1854   0.502   0.695   1.730  0.3287 -0.6130  5.0188
  619SOL     OW 1855   2.799   0.846   1.666 -0.2748 -0.2249 -0.2120
  619SOL    HW1 1856   2.833   0.795   1.583 -0.0664  0.3201  1.7462
  619SOL    HW2 1857   2.872   0.843   1.741  1.7828 -0.3433 -0.0501
  620SOL     OW 1858   2.021   1.317   0.072 -0.4737 -0.6685 -0.2389
  620SOL    HW1 1859   1.952   1.243   0.078  2.4383 -0.2125  0.9435
  620SOL    HW2 1860   1.990   1.396   0.015  0.3034  3.7317  4.2603
  621SOL     OW 1861   2.222   0.013   1.248  0.4226  0.2487  0.3168
  621SOL    HW1 1862   2.270   0.056   1.173 -0.5275 -1.2976  1.1956
  621SOL    HW2 1863   2.285   0.002   1.327  0.0285  1.0950 -0.1604
  622SOL     OW 1864   1.388   0.692   2.182  0.2404  0.4479  0.0803
  622SOL    HW1 1865   1.479   0.709   2.133  0.4122  2.4434 -2.4600
  622SOL    HW2 1866   1.343   0.608   2.145 -0.5589  0.7051 -1.6171
  623SOL     OW 1867   0.995   0.890   2.902 -0.3679  0.1580 -0.2498
  623SOL    HW1 1868   0.893   0.896   2.905  0.5115  2.5138 -0.0290
  623SOL    HW2 1869   1.041   0.965   2.848  1.2089  0.9182 -0.1587
  624SOL     OW 1870   1.804   0.296   0.765 -0.4670  0.1593  0.4053
  624SOL    HW1 1871   1.842   0.326   0.678  0.9503  2.3265  3.2557
  624SOL    HW2 1872   1.701   0.301   0.767 -3.0283  1.7412 -2.1952
  625SOL     OW 1873   0.621   1.630   0.487 -0.1903 -0.1398  0.0536
  625SOL    HW1 1874   0.721   1.609   0.492 -1.0081  0.5031  1.3230
  625SOL    HW2 1875   0.579   1.610   0.580 -0.4582  0.0381  1.3441
  626SOL     OW 1876   1.662   1.204   2.509  0.3338 -0.0652  0.3707
  626SOL    HW1 1877   1.607   1.202   2.424  1.8618 -2.6861  1.7901
  626SOL    HW2 1878   1.655   1.298   2.551  0.1342  0.9346 -1.1221
  627SOL     OW 1879   0.626   0.426   1.802  0.2720  0.7129  0.2467
  627SOL    HW1 1880   0.660   0.331   1.822 -1.0414 -2.7260  0.3346
  627SOL    HW2 1881   0.532   0.419   1.762  0.8420 -0.4338  1.1042
  628SOL     OW 1882   2.271   0.561   2.384 -0.1918 -0.7094  0.1707
  628SOL    HW1 1883   2.183   0.601   2.411  0.1064  0.0771 -2.9462
  628SOL    HW2 1884   2.348   0.626   2.378 -1.7966 -1.9219  0.1649
  629SOL     OW 1885   0.894   1.590   0.085  0.2450 -0.2366  0.0966
  629SOL    HW1 1886   0.883   1.688   0.094  0.5436 -2.2784 -2.1220
  629SOL    HW2 1887   0.899   1.574   3.071 -1.3608  1.8249  0.0590
  630SOL     OW 1888   0.917   0.313   2.040 -0.2324  0.4561 -0.1209
  630SOL    HW1 1889   0.938   0.401   1.993 -1.8560  0.9229 -2.8186
  630SOL    HW2 1890   0.834   0.319   2.104 -0.6870 -0.4550  0.7490
  631SOL     OW 1891   2.553   1.104   0.952 -0.2976  0.9829  0.1694
  631SOL    HW1 1892   2.578   1.094   1.051  0.5166 -1.8696  2.3032
  631SOL    HW2 1893   2.461   1.138   0.938  1.0224 -1.3445 -0.7727
  632SOL     OW 1894   2.473   1.548   0.795 -0.6171 -0.3981  0.0624
  632SOL    HW1 1895   2.536   1.515   0.718  0.1456  0.2738  1.1485
  632SOL    HW2 1896   2.399   1.603   0.764  1.7504 -0.6569  1.6118
  633SOL     OW 1897   0.981   1.175   1.015 -0.1290 -0.5547 -0.3692
  633SOL    HW1 1898   0.967   1.210   1.111 -0.4937 -0.5522 -0.0184
  633SOL    HW2 1899   0.951   1.251   0.949 -2.5652  1.4807 -2.3439
  634SOL     OW 1900   1.639   0.000   0.727  0.1959 -0.7289 -0.6151
  634SOL    HW1 1901   1.628   3.084   0.827 -0.7270  1.0616 -1.3965
  634SOL    HW2 1902   1.672   3.005   0.673  0.6655  0.6296 -0.1632
  635SOL     OW 1903   1.850   0.666   1.495 -0.0958 -0.1839  0.2328
  635SOL    HW1 1904   1.952   0.663   1.492 -1.9757  0.4737 -1.2392
  635SOL    HW2 1905   1.826   0.723   1.577  1.4135 -1.1498  0.6753
  636SOL     OW 1906   1.346   0.829   0.697  0.1429  0.3153  0.6712
  636SOL    HW1 1907   1.292   0.821   0.783  0.2085 -2.0983 -0.8408
  636SOL    HW2 1908   1.410   0.913   0.695  0.6287  0.9914 -2.6064
  637SOL     OW 1909   1.665   2.365   2.972  0.0175  0.3495 -0.1974
  637SOL    HW1 1910   1.606   2.392   2.895  0.8364 -1.9882 -0.8392
  637SOL    HW2 1911   1.666   2.262   2.978 -1.4663 -1.4490  2.6277
  638SOL     OW 1912   0.951   3.008   2.858 -0.3321 -0.0630  0.0282
  638SOL    HW1 1913   0.961   3.016   2.960 -1.9271 -2.8203 -0.3528
  638SOL    HW2 1914   0.880   3.068   2.817 -2.2547  0.0242  1.0011
  639SOL     OW 1915   1.282   1.867   1.481 -0.3505 -0.2950 -0.6163
  639SOL    HW1 1916   1.298   1.767   1.489 -1.3069 -1.5389  0.9611
  639SOL    HW2 1917   1.222   1.891   1.405  0.9774  0.8122  0.8670
  640SOL     OW 1918   0.517   2.994   2.890  0.3619  0.1496 -0.0049
  640SOL    HW1 1919   0.417   2.994   2.860 -1.6324 -0.4651 -0.3018
  640SOL    HW2 1920   0.519   3.033   2.985  0.4383 -1.0019  0.3230
  641SOL     OW 1921   0.368   0.513   0.216  0.0517 -0.0562 -0.0890
  641SOL    HW1 1922   0.306   0.427   0.217  0.2534 -3.1243  0.9607
  641SOL    HW2 1923   0.408   0.528   0.308  0.0401 -2.8167 -1.9192
  642SOL     OW 1924   0.360   1.500   1.154 -0.1785 -0.4337  0.8886
  642SOL    HW1 1925   0.384   1.511   1.250 -1.3711  0.2922 -0.1373
  642SOL    HW2 1926   0.407   1.421   1.112 -0.2955  1.5830 -2.2156
  643SOL     OW 1927   0.432   1.857   2.492  0.9366  0.0807 -0.0535
  643SOL    HW1 1928   0.471   1.884   2.398  0.0078 -1.5552 -1.3071
  643SOL    HW2 1929   0.373   1.771   2.476 -1.6866 -0.3968 -1.7551
  644SOL     OW 1930   1.583   2.537   0.106 -0.1449 -0.5354 -0.0621
  644SOL    HW1 1931   1.634   2.482   0.036 -0.7400  1.4547 -0.5095
  644SOL    HW2 1932   1.502   2.586   0.063  1.3668 -1.4247  0.1052
  645SOL     OW 1933   1.789   2.119   1.707 -0.2760 -0.3107 -0.6752
  645SOL    HW1 1934   1.694   2.153   1.744 -2.4922  3.6436 -0.2220
  645SOL    HW2 1935   1.854   2.192   1.731  0.7974 -1.4027 -0.0581
  646SOL     OW 1936   0.965   2.569   0.267 -0.3093 -0.4869 -0.1716
  646SOL    HW1 1937   1.026   2.651   0.245 -2.4000 -1.2260  1.4558
  646SOL    HW2 1938   0.872   2.609   0.287  2.3483 -0.5147 -0.5620
  647SOL     OW 1939   0.325   2.880   2.004 -0.1818  0.5020  0.1812
  647SOL    HW1 1940   0.298   2.923   2.095  1.8557 -0.2880  0.6309
  647SOL    HW2 1941   0.408   2.824   2.023  1.9381  1.7521  0.4209
  648SOL     OW 1942   2.744   1.044   0.780 -0.2860 -0.2714 -0.5526
  648SOL    HW1 1943   2.778   0.951   0.800  1.0898  1.6228 -3.0234
  648SOL    HW2 1944   2.672   1.072   0.842  0.2818 -1.3819 -1.0649
  649SOL     OW 1945   2.010   2.832   2.573  0.3979 -0.0836 -0.6122
  649SOL    HW1 1946   2.019   2.801   2.477  1.2292 -2.0080 -0.7014
  649SOL    HW2 1947   1.998   2.937   2.585 -0.9553  3.4999  0.8887
  650SOL     OW 1948   2.190   1.486   1.705 -0.0319 -0.0052  0.5727
  650SOL    HW1 1949   2.141   1.398   1.711  0.1080  0.8063 -1.1850
  650SOL    HW2 1950   2.289   1.470   1.691  0.2395  3.1120 -1.5643
  651SOL     OW 1951   1.246   1.724   2.897 -0.1105  0.5626 -0.5068
  651SOL    HW1 1952   1.151   1.761   2.905  2.2645  2.6680  0.3999
  651SOL    HW2 1953   1.306   1.791   2.948 -0.9493  0.9963  1.0170
  652SOL     OW 1954   0.447   0.000   2.543  0.3640 -0.3988 -0.0211
  652SOL    HW1 1955   0.406   3.005   2.580 -2.0121  0.8154  0.5511
  652SOL    HW2 1956   0.471   0.062   2.623  1.2810  1.6462  1.3088
  653SOL     OW 1957   2.345   2.066   0.822 -0.3175 -0.2755  0.5319
  653SOL    HW1 1958   2.344   2.047   0.921  2.1376  2.4527  1.0065
  653SOL    HW2 1959   2.322   2.166   0.819 -1.2992 -0.7943 -3.0357
  654SOL     OW 1960   2.394   3.020   2.127 -0.3429 -0.1944 -0.0357
  654SOL    HW1 1961   2.404   2.992   2.227  2.1379 -1.5976 -2.3364
  654SOL    HW2 1962   2.405   0.034   2.119 -1.8123 -1.7301  0.2046
  655SOL     OW 1963   2.557   2.147   1.225  0.3312 -0.0311 -0.1315
  655SOL    HW1 1964   2.617   2.228   1.201  1.2710  1.1499  1.0347
  655SOL    HW2 1965   2.489   2.132   1.149  1.0940 -0.9489  0.8101
  656SOL     OW 1966   2.509   1.833   2.697 -0.0237 -0.0555  0.2914
  656SOL    HW1 1967   2.598   1.877   2.676  1.2636  0.1577 -1.4543
  656SOL    HW2 1968   2.473   1.770   2.625 -3.5505  1.5135  2.4057
  657SOL     OW 1969   0.093   1.067   0.501  0.0384 -0.0721  0.1080
  657SOL    HW1 1970   0.000   1.079   0.456  0.6852 -2.0106 -0.2235
  657SOL    HW2 1971   0.084   1.072   0.600  0.6462 -0.2572  1.5342
  658SOL     OW 1972   1.565   1.523   1.647 -0.3752  0.6354  0.0070
  658SOL    HW1 1973   1.495   1.478   1.591 -1.1190 -0.2593  1.5098
  658SOL    HW2 1974   1.524   1.540   1.740  0.9083  0.9442 -1.2414
  659SOL     OW 1975   0.941   3.003   1.229 -0.6952  0.0702 -0.1274
  659SOL    HW1 1976   0.948   3.087   1.165 -0.2256  1.6711  0.5833
  659SOL    HW2 1977   1.031   2.993   1.281  1.3903  0.8436  1.6528
  660SOL     OW 1978   2.353   0.620   1.117 -0.0805 -0.1384  0.4757
  660SOL    HW1 1979   2.405   0.670   1.048 -0.9626  0.3487 -0.5724
  660SOL    HW2 1980   2.383   0.525   1.114 -0.6228  1.3785  0.5029
  661SOL     OW 1981   0.565   1.768   0.020 -0.4248  0.0779 -0.4114
  661SOL    HW1 1982   0.603   1.780   0.113  0.7888  2.5400  0.7722
  661SOL    HW2 1983   0.594   1.837   3.041  2.4891 -1.8002  0.7931
  662SOL     OW 1984   2.365   0.725   2.125 -0.5017  0.2690  0.1239
  662SOL    HW1 1985   2.399   0.735   2.221  0.9077  0.4659  0.3100
  662SOL    HW2 1986   2.446   0.737   2.067  0.7430 -0.9486  0.8584
  663SOL     OW 1987   1.933   1.156   1.192  0.1617 -0.2672  0.0779
  663SOL    HW1 1988   1.866   1.183   1.114  1.3024 -0.4343 -1.3267
  663SOL    HW2 1989   2.024   1.133   1.149 -1.1404  2.6841  0.7738
  664SOL     OW 1990   0.206   2.978   1.168 -0.3415 -0.7548 -0.5964
  664SOL    HW1 1991   0.257   2.994   1.079 -2.1391  0.9719  0.0049
  664SOL    HW2 1992   0.246   2.910   1.234 -3.0806  0.4909  0.8778
  665SOL     OW 1993   1.462   0.349   2.806  0.5159 -0.0439  0.2156
  665SOL    HW1 1994   1.535   0.366   2.878  1.8591 -0.8351  0.2813
  665SOL    HW2 1995   1.428   0.440   2.768 -0.7649 -0.2532  0.9247
  666SOL     OW 1996   0.429   0.296   2.158 -0.4016  0.0542  0.1180
  666SOL    HW1 1997   0.373   0.246   2.228  2.9941 -0.1397 -0.7898
  666SOL    HW2 1998   0.385   0.284   2.065 -0.3280 -2.4890 -0.6988
  667SOL     OW 1999   1.750   1.721   1.578 -0.6827  0.3523 -0.4432
  667SOL    HW1 2000   1.849   1.711   1.601  0.1512 -0.0054 -1.2104
  667SOL    HW2 2001   1.693   1.641   1.610 -1.9247  1.8513  0.7962
  668SOL     OW 2002   3.056   1.422   2.187 -0.0269 -1.0228  0.1971
  668SOL    HW1 2003   0.055   1.385   2.222  0.7744  2.5806 -1.5091
  668SOL    HW2 2004   3.055   1.435   2.089  0.5248 -0.2641  1.9893
  669SOL     OW 2005   2.405   2.567   0.110  0.1339 -0.5043 -0.2148
  669SOL    HW1 2006   2.502   2.563   0.073 -1.8288  0.4913  1.0005
  669SOL    HW2 2007   2.409   2.612   0.201  2.1901  0.0066  1.9639
  670SOL     OW 2008   2.534   1.314   1.993 -0.0842  0.7709 -0.3375
  670SOL    HW1 2009   2.535   1.213   1.995 -0.1429 -1.6563  1.4117
  670SOL    HW2 2010   2.621   1.360   2.025 -1.3803 -0.6838 -1.9371
  671SOL     OW 2011   2.619   1.812   0.502 -0.0513 -0.4136 -0.2235
  671SOL    HW1 2012   2.715   1.788   0.519 -1.1795  0.2600 -1.3089
  671SOL    HW2 2013   2.607   1.906   0.456  0.5465 -0.3244 -2.5076
  672SOL     OW 2014   1.310   1.068   2.194 -0.2890 -0.4447 -0.2372
  672SOL    HW1 2015   1.352   1.034   2.109 -0.8384  0.5977  1.9506
  672SOL    HW2 2016   1.214   1.092   2.177  3.5437 -1.5689  2.1106
  673SOL     OW 2017   2.664   2.057   1.521 -0.0170  0.7675  0.2410
  673SOL    HW1 2018   2.573   2.070   1.468 -3.1551 -0.7892 -3.1971
  673SOL    HW2 2019   2.737   2.007   1.467  3.5594 -2.6787 -1.1327
  674SOL     OW 2020   1.169   1.624   1.667 -0.6533  0.2615 -0.0542
  674SOL    HW1 2021   1.225   1.599   1.582  0.9997  0.5196 -1.6826
  674SOL    HW2 2022   1.071   1.625   1.643  2.5498 -0.0371  0.9748
  675SOL     OW 2023   0.174   0.798   1.307 -0.3190  0.1513 -0.0851
  675SOL    HW1 2024   0.210   0.803   1.212 -2.7357 -0.0774  1.2305
  675SOL    HW2 2025   0.096   0.858   1.312 -1.7472  1.4532  1.5049
  676SOL     OW 2026   3.045   0.988   1.354  0.5387  0.1429  0.1551
  676SOL    HW1 2027   2.991   0.908   1.320  2.2901 -1.0910  0.3682
  676SOL    HW2 2028   2.989   1.075   1.368  1.3787  1.4554  0.4723
  677SOL     OW 2029   2.048   1.412   2.556  0.1064 -0.2806  0.3274
  677SOL    HW1 2030   2.023   1.325   2.511 -1.7999 -0.7041  0.3521
  677SOL    HW2 2031   2.033   1.498   2.496  1.8421  2.0260 -3.5524
  678SOL     OW 2032   2.842   1.632   1.119 -0.3201  0.1363 -0.1475
  678SOL    HW1 2033   2.895   1.605   1.035 -0.0587 -0.3505  1.2823
  678SOL    HW2 2034   2.819   1.724   1.115  1.6613 -3.0629 -2.4787
  679SOL     OW 2035   0.566   2.567   0.504  0.1346  0.0160 -0.0594
  679SOL    HW1 2036   0.647   2.568   0.555 -2.9161  0.0766 -2.2495
  679SOL    HW2 2037   0.536   2.471   0.487 -2.1020 -0.0257  1.5133
  680SOL     OW 2038   0.252   1.674   0.956 -0.1110  0.3272 -0.1378
  680SOL    HW1 2039   0.198   1.735   1.018  1.9482 -0.9998 -1.8665
  680SOL    HW2 2040   0.308   1.606   1.009  1.7163  0.7520  2.1982
  681SOL     OW 2041   1.010   0.031   0.957 -0.2707 -0.4299  0.1047
  681SOL    HW1 2042   1.048   0.119   0.916 -1.5711  1.0468  0.8807
  681SOL    HW2 2043   1.085   3.067   1.001  1.9620  1.7503 -1.5281
  682SOL     OW 2044   1.775   2.833   1.708 -0.0826  0.2445  0.2016
  682SOL    HW1 2045   1.776   2.734   1.681 -0.3904 -2.6085  1.7047
  682SOL    HW2 2046   1.692   2.882   1.682  2.1424 -2.3980 -1.0447
  683SOL     OW 2047   2.406   1.413   1.466  0.4777 -0.5379 -0.7668
  683SOL    HW1 2048   2.454   1.490   1.416  1.2917  1.5601 -2.0388
  683SOL    HW2 2049   2.420   1.407   1.564  2.0076  1.8309 -1.7675
  684SOL     OW 2050   2.831   1.484   1.770  0.2431 -0.2848  0.3739
  684SOL    HW1 2051   2.761   1.537   1.718  1.7197 -1.2792  0.9520
  684SOL    HW2 2052   2.923   1.519   1.752 -1.5461 -0.2819  1.4473
  685SOL     OW 2053   1.557   1.684   0.118  0.4129 -0.1565  0.4717
  685SOL    HW1 2054   1.610   1.758   0.167 -0.5081  0.7876 -0.3321
  685SOL    HW2 2055   1.566   1.680   0.017 -1.9217  2.3962 -1.4383
  686SOL     OW 2056   2.958   0.649   1.506  0.2705  0.2394 -0.4089
  686SOL    HW1 2057   3.039   0.610   1.564 -0.1665 -4.1711  1.3611
  686SOL    HW2 2058   2.873   0.591   1.513 -2.4460 -1.5488 -0.7357
  687SOL     OW 2059   1.754   0.061   2.783 -0.4031  0.1352  0.9741
  687SOL    HW1 2060   1.684   3.074   2.802 -2.7170  0.5115  1.6462
  687SOL    HW2 2061   1.709   0.130   2.725  1.3677 -2.4644 -0.7922
  688SOL     OW 2062   1.302   2.011   2.507  0.4990 -0.0136 -0.1076
  688SOL    HW1 2063   1.299   2.070   2.592 -1.7614 -0.0504 -0.4831
  688SOL    HW2 2064   1.318   2.061   2.421  2.5014 -0.1877  0.7986
  689SOL     OW 2065   2.092   1.244   1.805 -0.1278 -0.2708 -0.3335
  689SOL    HW1 2066   2.094   1.192   1.891  3.2142  0.0242  1.2111
  689SOL    HW2 2067   2.127   1.194   1.724  2.3778  2.2059  4.1331
  690SOL     OW 2068   2.175   2.265   1.481 -0.1593  0.6078 -0.2987
  690SOL    HW1 2069   2.171   2.260   1.584 -0.3501  2.4370  4.3626
  690SOL    HW2 2070   2.093   2.220   1.437  0.2384  0.5649 -0.5107
  691SOL     OW 2071   0.346   1.694   0.488  0.0608 -0.0279 -0.3124
  691SOL    HW1 2072   0.332   1.718   0.583  1.7149 -3.1403 -2.0065
  691SOL    HW2 2073   0.445   1.698   0.464  1.1877  2.4035 -2.5343
  692SOL     OW 2074   2.857   2.790   2.605  0.2522 -0.4903  0.2279
  692SOL    HW1 2075   2.787   2.769   2.531  0.8486 -0.0126 -2.2549
  692SOL    HW2 2076   2.933   2.727   2.589 -0.7235  0.8801 -1.8678
  693SOL     OW 2077   0.003   1.376   1.924 -0.3188 -0.0458  0.1016
  693SOL    HW1 2078   3.007   1.344   1.873 -0.6508  0.0312  2.2207
  693SOL    HW2 2079   0.082   1.311   1.913 -1.4718 -1.2053 -0.7729
  694SOL     OW 2080   2.427   0.201   2.141 -0.5783 -0.0501 -0.5013
  694SOL    HW1 2081   2.505   0.254   2.095  1.9688  1.6510  0.7231
  694SOL    HW2 2082   2.344   0.262   2.147  1.3681 -0.2224  0.4765
  695SOL     OW 2083   1.075   0.861   2.469 -0.2662  0.8792  0.5415
  695SOL    HW1 2084   1.172   0.879   2.457 -0.6514 -1.5652 -0.2254
  695SOL    HW2 2085   1.026   0.947   2.491 -1.9677 -2.6265 -1.4132
  696SOL     OW 2086   2.025   2.888   1.614 -0.0128 -0.1652  0.2063
  696SOL    HW1 2087   1.941   2.889   1.672  1.0007 -2.5671  0.8736
  696SOL    HW2 2088   2.033   2.969   1.552  1.3801  0.1497 -3.0773
  697SOL     OW 2089   1.162   0.245   2.115 -0.5987  0.1076  0.0197
  697SOL    HW1 2090   1.163   0.150   2.155  1.1211 -1.1819  2.2698
  697SOL    HW2 2091   1.068   0.268   2.082 -0.3560  0.7752  1.1425
  698SOL     OW 2092   2.350   1.758   2.451  0.0495  0.0176 -0.4913
  698SOL    HW1 2093   2.320   1.827   2.382  1.7945 -2.2903 -1.5336
  698SOL    HW2 2094   2.448   1.732   2.439  1.3343  0.1210 -1.0336
  699SOL     OW 2095   1.845   0.656   0.129 -0.0143  0.4970  0.2592
  699SOL    HW1 2096   1.865   0.743   0.181 -0.3300  0.1574  0.9716
  699SOL    HW2 2097   1.809   0.579   0.183 -4.7617 -1.4723 -1.8935
  700SOL     OW 2098   1.209   2.933   1.061  0.1732  0.2049 -0.9888
  700SOL    HW1 2099   1.293   2.959   1.114  0.2814  0.3333  0.2673
  700SOL    HW2 2100   1.185   2.833   1.080 -0.0520 -1.7556 -2.0252
  701SOL     OW 2101   3.044   0.643   0.466  0.3733  0.0869  0.0591
  701SOL    HW1 2102   2.971   0.617   0.535 -0.0212 -1.1986  0.1951
  701SOL    HW2 2103   0.008   0.724   0.507 -1.7210 -2.3132  1.7556
  702SOL     OW 2104   1.604   3.030   1.622  0.0260 -0.0875  0.1665
  702SOL    HW1 2105   1.529   3.078   1.575  1.3441  0.2050 -1.9967
  702SOL    HW2 2106   1.641   0.010   1.691 -0.5974 -0.9297 -2.4389
  703SOL     OW 2107   2.927   0.778   1.263  0.1070 -0.3015 -1.2141
  703SOL    HW1 2108   2.827   0.785   1.247 -0.5561  0.3870 -1.3969
  703SOL    HW2 2109   2.949   0.717   1.344 -0.1908  1.3762  2.3709
  704SOL     OW 2110   0.944   2.647   1.375 -0.4662  0.2003 -0.5396
  704SOL    HW1 2111   0.961   2.547   1.391 -0.5541  1.2337  1.7680
  704SOL    HW2 2112   0.864   2.663   1.321  1.0398  2.5906  1.4453
  705SOL     OW 2113   0.277   1.781   2.923 -0.2935  0.2122 -0.5147
  705SOL    HW1 2114   0.273   1.713   2.848  1.0593 -1.2536  2.0510
  705SOL    HW2 2115   0.360   1.770   2.982  0.8144 -0.1035 -0.2958
  706SOL     OW 2116   3.012   0.043   0.170 -0.4005  0.3158 -0.4063
  706SOL    HW1 2117   3.028   0.143   0.150 -0.0118 -0.3861 -0.3447
  706SOL    HW2 2118   0.007   3.081   0.203 -0.2501 -1.8241 -1.1005
  707SOL     OW 2119   1.549   2.907   2.219  0.7194  0.7421 -0.5221
  707SOL    HW1 2120   1.533   3.001   2.193 -1.1315 -0.2455 -0.5130
  707SOL    HW2 2121   1.593   2.849   2.146  1.2424 -1.2354  1.3797
  708SOL     OW 2122   0.375   3.050   1.577 -0.2544  0.0788 -0.3906
  708SOL    HW1 2123   0.366   0.021   1.491 -1.6538  0.6538 -1.0731
  708SOL    HW2 2124   0.335   2.958   1.570  1.0747  0.1337 -3.1267
  709SOL     OW 2125   0.065   0.605   1.661  0.1035 -0.1372  0.2446
  709SOL    HW1 2126   0.154   0.560   1.638  3.2643  1.0091  0.7581
  709SOL    HW2 2127   0.075   0.650   1.750 -0.0643 -0.4680  0.1448
  710SOL     OW 2128   0.406   0.938   0.888  0.2322 -0.6759 -0.0557
  710SOL    HW1 2129   0.363   1.023   0.841 -2.5715  0.5072 -1.3066
  710SOL    HW2 2130   0.329   0.916   0.954 -0.7455 -0.1680  2.2926
  711SOL     OW 2131   2.455   2.800   1.717 -0.4488  0.5173 -0.5718
  711SOL    HW1 2132   2.367   2.795   1.771  2.5681 -0.8489 -1.2949
  711SOL    HW2 2133   2.506   2.882   1.737  0.8920 -1.4891 -0.3996
  712SOL     OW 2134   0.211   2.453   2.254  0.1966  0.1123 -0.5822
  712SOL    HW1 2135   0.126   2.433   2.310 -0.9567 -0.4809 -0.6324
  712SOL    HW2 2136   0.257   2.367   2.246 -0.7663  3.0231  0.9814
  713SOL     OW 2137   2.657   0.351   0.582  0.4161 -0.3674 -0.2193
  713SOL    HW1 2138   2.556   0.341   0.570  0.0218  1.3955 -1.3284
  713SOL    HW2 2139   2.705   0.336   0.495  0.5880 -0.6418 -0.6171
  714SOL     OW 2140   1.689   1.967   2.504 -0.5862  0.1554 -0.1610
  714SOL    HW1 2141   1.640   1.936   2.420 -2.8886  2.4432 -0.9893
  714SOL    HW2 2142   1.768   2.031   2.479 -0.6188  1.6925 -0.1245
  715SOL     OW 2143   0.098   0.660   0.814 -0.3617 -0.1470 -0.1139
  715SOL    HW1 2144   0.097   0.560   0.796  1.2831  1.0951  3.0356
  715SOL    HW2 2145   0.123   0.711   0.730  1.4275 -4.0235  0.6315
  716SOL     OW 2146   0.823   0.582   1.599 -0.2749 -0.0288  0.3817
  716SOL    HW1 2147   0.828   0.615   1.501 -0.9247 -1.6182 -0.5209
  716SOL    HW2 2148   0.759   0.509   1.609 -1.4338  3.5779  1.6608
  717SOL     OW 2149   0.709   0.496   2.364 -0.7497  0.0186  0.5788
  717SOL    HW1 2150   0.708   0.407   2.318  0.8261  1.5067  2.1612
  717SOL    HW2 2151   0.680   0.487   2.462  0.3354  0.6717  4.3873
  718SOL     OW 2152   1.254   0.183   0.637 -0.0785  0.2244 -0.0515
  718SOL    HW1 2153   1.229   0.209   0.731 -0.5764  0.5544 -2.1294
  718SOL    HW2 2154   1.169   0.138   0.599 -2.1239 -0.1621  1.5080
  719SOL     OW 2155   2.980   2.342   2.799  0.9239 -0.0086  0.0193
  719SOL    HW1 2156   2.907   2.313   2.733  1.0561 -0.2910 -1.1785
  719SOL    HW2 2157   2.955   2.434   2.836 -1.4912 -0.9771 -0.0799
  720SOL     OW 2158   1.082   0.437   1.594  0.4147 -0.5041  0.0226
  720SOL    HW1 2159   1.149   0.480   1.660 -0.9368 -0.2399 -0.4966
  720SOL    HW2 2160   0.995   0.489   1.584 -0.2092  2.7672  2.6643
  721SOL     OW 2161   2.884   2.760   0.755  0.2643  0.2116 -0.4319
  721SOL    HW1 2162   2.859   2.732   0.846  1.3929  3.4067 -0.3960
  721SOL    HW2 2163   2.840   2.852   0.736 -3.4918 -0.8489  0.0509
  722SOL     OW 2164   0.953   1.233   2.922 -0.3346 -0.1860 -1.0173
  722SOL    HW1 2165   0.931   1.334   2.934 -0.1944 -0.2759 -0.4381
  722SOL    HW2 2166   0.899   1.188   2.850  2.9809  1.2020 -1.4321
  723SOL     OW 2167   2.456   0.943   1.426 -0.0459  0.3534 -0.6365
  723SOL    HW1 2168   2.523   0.990   1.363 -0.3032 -2.3404  1.1634
  723SOL    HW2 2169   2.380   0.894   1.375  0.6155  1.4548  1.7648
  724SOL     OW 2170   0.968   1.821   0.277 -0.3793  0.2091 -0.4112
  724SOL    HW1 2171   1.025   1.763   0.215 -1.2847  0.4157 -0.7382
  724SOL    HW2 2172   1.039   1.858   0.349  4.4817 -0.6994  0.9342
  725SOL     OW 2173   0.400   0.840   1.465  0.0365 -0.2840 -0.2365
  725SOL    HW1 2174   0.461   0.837   1.383 -2.7315  0.4490 -3.5525
  725SOL    HW2 2175   0.306   0.828   1.434  1.0629  0.9533 -1.9428
  726SOL     OW 2176   2.492   1.180   2.866 -0.3555  0.3375 -0.2069
  726SOL    HW1 2177   2.464   1.241   2.941  0.2503  0.0496 -1.2100
  726SOL    HW2 2178   2.484   1.234   2.780 -3.6858  0.4856  1.8035
  727SOL     OW 2179   1.861   1.247   2.766 -0.1348 -0.4058  0.4049
  727SOL    HW1 2180   1.824   1.274   2.857  3.1949 -1.0165 -0.4298
  727SOL    HW2 2181   1.856   1.322   2.707  1.8894 -2.6947  1.7393
  728SOL     OW 2182   1.833   2.353   1.248  0.0236  0.5797 -0.1125
  728SOL    HW1 2183   1.839   2.452   1.241 -2.3118  2.3355  1.0084
  728SOL    HW2 2184   1.795   2.312   1.162 -3.6490  0.1275 -1.3069
  729SOL     OW 2185   1.886   0.751   2.265  0.0395 -0.1460 -0.0882
  729SOL    HW1 2186   1.977   0.791   2.243 -2.8491 -2.5525 -1.9916
  729SOL    HW2 2187   1.834   0.816   2.327  0.5039  0.3772  0.7732
  730SOL     OW 2188   1.377   0.490   1.038 -0.1811 -0.1687  0.0196
  730SOL    HW1 2189   1.339   0.577   1.069 -0.2175  1.1922  1.7099
  730SOL    HW2 2190   1.328   0.413   1.073  0.4860  0.4348  2.2589
  731SOL     OW 2191   0.591   0.645   2.781  0.3651  0.2352  0.2364
  731SOL    HW1 2192   0.665   0.709   2.799 -0.6508 -0.4775 -1.5931
  731SOL    HW2 2193   0.499   0.684   2.784 -0.9617 -1.1780  1.8487
  732SOL     OW 2194   0.730   0.896   0.613  0.0818  0.1603  0.4516
  732SOL    HW1 2195   0.826   0.927   0.608 -1.4697 -0.1617 -1.0229
  732SOL    HW2 2196   0.681   0.936   0.529 -0.0342  0.6311 -2.1314
  733SOL     OW 2197   1.293   1.728   2.083  0.1155  0.0282  0.3063
  733SOL    HW1 2198   1.199   1.713   2.122 -1.6438 -0.0768  3.2102
  733SOL    HW2 2199   1.361   1.729   2.155 -3.1354  1.8353 -0.9450
  734SOL     OW 2200   0.302   2.418   2.886 -0.0038 -0.1928  0.6164
  734SOL    HW1 2201   0.243   2.416   2.805 -1.0507 -0.0609  3.2464
  734SOL    HW2 2202   0.397   2.398   2.859  0.3644  0.1908  0.1111
  735SOL     OW 2203   2.607   0.491   0.813 -0.2186 -0.0256  0.0938
  735SOL    HW1 2204   2.531   0.557   0.805  1.7640 -3.3378  0.7381
  735SOL    HW2 2205   2.615   0.440   0.724 -2.2716 -0.3449 -0.7255
  736SOL     OW 2206   2.100   1.633   2.416  0.2708  0.3429 -0.4682
  736SOL    HW1 2207   2.195   1.656   2.433 -3.6040 -2.8399  0.4176
  736SOL    HW2 2208   2.046   1.724   2.429 -2.2889  1.6298 -0.8922
  737SOL     OW 2209   2.956   0.496   0.213 -0.3466  0.2005  1.0652
  737SOL    HW1 2210   2.872   0.548   0.186  0.6007 -0.5961  0.1296
  737SOL    HW2 2211   2.991   0.535   0.296 -0.9251  0.1559 -1.0244
  738SOL     OW 2212   0.635   2.020   1.336 -0.4015  0.1788 -0.3708
  738SOL    HW1 2213   0.639   2.000   1.435 -2.6226  1.7645  1.3144
  738SOL    HW2 2214   0.539   1.997   1.301 -3.3929 -0.2043 -2.7351
  739SOL     OW 2215   1.360   2.646   2.120 -0.1653 -0.7497  0.4767
  739SOL    HW1 2216   1.306   2.586   2.052 -0.3851 -0.0437 -1.5445
  739SOL    HW2 2217   1.341   2.745   2.105 -2.6515 -0.2410  0.2913
  740SOL     OW 2218   2.135   2.536   1.362  0.0780 -0.0139 -0.0145
  740SOL    HW1 2219   2.157   2.444   1.400 -1.0425 -0.6685 -1.0354
  740SOL    HW2 2220   2.162   2.618   1.418 -2.1718 -0.8393 -1.1530
  741SOL     OW 2221   2.208   0.361   0.200  0.0363  0.1858 -0.0425
  741SOL    HW1 2222   2.180   0.456   0.220 -0.2805 -2.1246  1.1300
  741SOL    HW2 2223   2.164   0.294   0.261  2.9451  0.4005  0.4059
  742SOL     OW 2224   1.380   2.668   0.001 -0.0347 -0.3597  0.6862
  742SOL    HW1 2225   1.376   2.765   0.012 -0.5817 -1.9730  1.9640
  742SOL    HW2 2226   1.368   2.645   2.990 -0.6428 -2.8215 -1.1375
  743SOL     OW 2227   2.351   1.062   2.113 -0.0104  0.4999 -0.2745
  743SOL    HW1 2228   2.443   1.053   2.078 -1.5983  0.1904 -1.7074
  743SOL    HW2 2229   2.351   1.074   2.214  1.3757  1.2328 -1.5349
  744SOL     OW 2230   2.805   0.295   0.357  0.1893 -0.5442 -0.3459
  744SOL    HW1 2231   2.751   0.229   0.300 -1.3040 -0.8554  0.9059
  744SOL    HW2 2232   2.831   0.376   0.301  0.4342 -0.1169  2.0919
  745SOL     OW 2233   2.244   1.214   1.364  0.1797 -0.1828 -0.0683
  745SOL    HW1 2234   2.217   1.171   1.456  1.5054 -0.5472 -1.7338
  745SOL    HW2 2235   2.303   1.298   1.381  1.7203  0.0402  0.7530
  746SOL     OW 2236   0.930   1.471   0.923 -0.0242  0.1488  0.1093
  746SOL    HW1 2237   1.012   1.511   0.971 -0.7506 -0.4948 -2.1345
  746SOL    HW2 2238   0.927   1.488   0.825  0.4807  0.0501  1.8805
  747SOL     OW 2239   1.049   1.548   1.317 -0.2703 -0.1688  0.1606
  747SOL    HW1 2240   0.962   1.596   1.327 -0.2907  0.7006 -0.1364
  747SOL    HW2 2241   1.054   1.451   1.357 -0.2527 -4.5849  0.4779
  748SOL     OW 2242   0.252   3.011   2.826 -0.4093  0.4875  0.0399
  748SOL    HW1 2243   0.203   3.025   2.740 -0.1010 -0.5908  4.5198
  748SOL    HW2 2244   0.198   2.954   2.891  0.0785  1.2962  0.8906
  749SOL     OW 2245   0.051   0.964   2.879  0.4362  0.2899  0.1319
  749SOL    HW1 2246   3.062   1.027   2.912 -2.7151  1.4960  0.5038
  749SOL    HW2 2247   0.036   0.948   2.777 -1.4345 -0.3612 -1.3238
  750SOL     OW 2248   1.423   0.929   1.979  0.4357 -0.1372 -0.1722
  750SOL    HW1 2249   1.333   0.909   1.932 -0.4308  1.1822 -1.5955
  750SOL    HW2 2250   1.488   0.848   1.978 -0.1670  0.0110  0.4681
  751SOL     OW 2251   2.677   0.715   0.408 -0.2455  0.2210 -0.4270
  751SOL    HW1 2252   2.694   0.662   0.324 -0.6230  1.8687  0.5684
  751SOL    HW2 2253   2.581   0.714   0.428  3.5098 -0.7633 -1.8254
  752SOL     OW 2254   2.569   2.970   1.067  0.1420 -0.5465  0.3009
  752SOL    HW1 2255   2.548   3.055   1.106 -0.2783 -1.4789 -2.3883
  752SOL    HW2 2256   2.511   2.939   0.983  0.9470 -4.2761 -3.9787
  753SOL     OW 2257   0.855   2.223   1.265 -0.5601  0.1115  0.2300
  753SOL    HW1 2258   0.913   2.292   1.316  0.3498  3.9487  0.9934
  753SOL    HW2 2259   0.778   2.182   1.316 -1.4275 -0.7862 -1.0879
  754SOL     OW 2260   3.003   2.781   2.104  0.1156  0.3660  0.2738
  754SOL    HW1 2261   3.035   2.841   2.179 -1.2681  0.8183 -0.8827
  754SOL    HW2 2262   3.073   2.751   2.032  0.4916 -0.9029  2.0569
  755SOL     OW 2263   2.438   0.639   0.074 -0.1431 -0.2641 -0.1146
  755SOL    HW1 2264   2.481   0.727   0.053 -0.6673 -1.0834 -0.0936
  755SOL    HW2 2265   2.383   0.633   0.160  0.2496 -0.0596  0.5463
  756SOL     OW 2266   1.956   2.405   0.047 -0.1941  0.2047 -0.1286
  756SOL    HW1 2267   1.905   2.483   0.088  1.3494 -0.5756  0.8389
  756SOL    HW2 2268   2.058   2.409   0.074 -0.1796  1.4277  2.8228
  757SOL     OW 2269   2.406   0.311   0.544 -1.0879  0.6194 -0.4611
  757SOL    HW1 2270   2.318   0.362   0.548  1.9228 -2.6867  0.3351
  757SOL    HW2 2271   2.384   0.212   0.516 -1.3308  1.1915 -0.3916
  758SOL     OW 2272   2.095   0.883   1.774  1.0511 -0.2453 -0.1179
  758SOL    HW1 2273   1.999   0.843   1.778 -2.9211 -0.8263  1.1259
  758SOL    HW2 2274   2.162   0.812   1.743  1.5847 -0.9495 -0.1928
  759SOL     OW 2275   2.647   0.556   1.256 -0.4633 -0.4749  0.0035
  759SOL    HW1 2276   2.641   0.660   1.241 -1.0115  0.1494  1.3189
  759SOL    HW2 2277   2.699   0.507   1.183  2.1336 -0.4532 -0.3559
  760SOL     OW 2278   0.335   1.184   1.460 -0.4432  0.5032  0.1665
  760SOL    HW1 2279   0.344   1.113   1.535  1.2156 -0.7264 -2.7290
  760SOL    HW2 2280   0.240   1.222   1.461  0.9931 -1.1151 -5.2382
  761SOL     OW 2281   1.204   0.492   0.006 -0.2063  0.7089  0.0211
  761SOL    HW1 2282   1.184   0.431   3.010  0.0031 -1.5850 -0.5972
  761SOL    HW2 2283   1.173   0.592   3.085  0.2147 -0.9759 -2.2217
  762SOL     OW 2284   1.064   1.897   1.305  0.0646 -0.0277  0.3372
  762SOL    HW1 2285   1.004   1.909   1.220 -0.6419 -0.1773 -0.5877
  762SOL    HW2 2286   1.000   1.879   1.383 -0.7279 -1.2190 -2.8736
  763SOL     OW 2287   1.315   0.672   1.473 -0.2703 -0.0028 -0.0348
  763SOL    HW1 2288   1.359   0.670   1.566  0.8709  0.9852 -1.3421
  763SOL    HW2 2289   1.241   0.743   1.462  0.7623 -0.8900 -0.4593
  764SOL     OW 2290   0.339   2.661   3.056  0.5151 -0.5629 -0.1902
  764SOL    HW1 2291   0.362   2.602   2.975  2.0187 -1.4699  0.2610
  764SOL    HW2 2292   0.249   2.707   3.046  0.2811  0.8771  0.5942
  765SOL     OW 2293   0.714   2.807   1.753 -0.8275  0.0463  0.0755
  765SOL    HW1 2294   0.715   2.833   1.852  0.8399  0.2794  0.1954
  765SOL    HW2 2295   0.699   2.884   1.690  2.3555  1.2117 -1.3833
  766SOL     OW 2296   2.498   1.706   2.137 -0.0303 -0.3826 -0.1151
  766SOL    HW1 2297   2.412   1.761   2.152  0.9956 -0.5229  0.3562
  766SOL    HW2 2298   2.565   1.747   2.071  0.3498  2.2117  1.4631
  767SOL     OW 2299   1.468   1.265   2.334  0.4041  0.6332  0.4679
  767SOL    HW1 2300   1.418   1.338   2.384 -0.0725 -0.0817 -1.3807
  767SOL    HW2 2301   1.402   1.199   2.285 -0.8542  2.4789 -0.9545
  768SOL     OW 2302   1.734   1.889   0.260 -0.2172  0.1711 -0.1002
  768SOL    HW1 2303   1.765   1.906   0.353  0.3359  0.6964 -1.8418
  768SOL    HW2 2304   1.821   1.874   0.206  2.3393  1.2362  0.9048
  769SOL     OW 2305   0.519   1.572   0.740  0.5136  0.0277 -0.1221
  769SOL    HW1 2306   0.474   1.666   0.758 -0.7459  1.3287  1.9579
  769SOL    HW2 2307   0.597   1.555   0.803 -1.1565  2.9536 -0.2885
  770SOL     OW 2308   1.335   0.875   2.410  0.1459 -0.2968 -0.5475
  770SOL    HW1 2309   1.339   0.797   2.342  1.0237 -2.2019 -2.0686
  770SOL    HW2 2310   1.383   0.951   2.364 -1.5730 -0.1786 -0.7606
  771SOL     OW 2311   2.892   0.043   2.376 -0.2074  0.2271  0.1887
  771SOL    HW1 2312   2.829   0.073   2.450  1.5579 -1.2816  0.3976
  771SOL    HW2 2313   2.958   0.122   2.349  4.3340  2.9065 -0.7401
  772SOL     OW 2314   2.287   1.876   2.222  0.2709  0.0270  0.0669
  772SOL    HW1 2315   2.185   1.890   2.235 -3.7376  0.4156  0.8429
  772SOL    HW2 2316   2.323   1.963   2.180  0.9554  1.9986 -2.8746
  773SOL     OW 2317   0.663   1.400   1.610  0.3191  0.0503 -0.1694
  773SOL    HW1 2318   0.681   1.301   1.639 -0.2928 -0.0748  3.3616
  773SOL    HW2 2319   0.677   1.420   1.507 -1.3273  0.6536 -2.2945
  774SOL     OW 2320   1.356   0.845   3.011 -0.1181 -0.1262  0.0216
  774SOL    HW1 2321   1.346   0.865   2.912  0.5490  0.5710 -0.7484
  774SOL    HW2 2322   1.262   0.809   3.041  0.9856  0.0004 -0.5650
  775SOL     OW 2323   1.849   2.598   2.900  0.2077 -0.0232  0.0164
  775SOL    HW1 2324   1.933   2.603   2.957 -0.5100  0.2111  0.7050
  775SOL    HW2 2325   1.811   2.502   2.909 -0.8509 -2.7401 -0.7561
  776SOL     OW 2326   0.212   1.011   1.830 -0.2082  0.2331  0.6492
  776SOL    HW1 2327   0.167   1.023   1.919 -0.4446  0.6134 -0.6113
  776SOL    HW2 2328   0.137   1.010   1.758  2.3065 -1.7304 -0.9161
  777SOL     OW 2329   2.369   2.077   1.971  0.0286  0.7703  0.0437
  777SOL    HW1 2330   2.471   2.090   1.990  2.4662 -0.5673  0.0361
  777SOL    HW2 2331   2.352   2.034   1.881  0.0416  1.6746  0.6764
  778SOL     OW 2332   1.745   1.080   2.167 -0.2647  0.3799  0.2007
  778SOL    HW1 2333   1.694   1.134   2.097  1.4761 -1.8129 -0.4089
  778SOL    HW2 2334   1.844   1.117   2.156  0.0115  0.6212 -2.2149
  779SOL     OW 2335   2.885   1.098   0.163 -0.7108 -0.0396  0.2916
  779SOL    HW1 2336   2.896   1.008   0.201  1.5845  1.8779 -0.3283
  779SOL    HW2 2337   2.801   1.148   0.189  0.8937  1.3910 -0.2202
  780SOL     OW 2338   2.319   0.022   2.708 -0.2133  0.0127 -0.3034
  780SOL    HW1 2339   2.261   0.052   2.631  3.7033  1.0805 -1.3159
  780SOL    HW2 2340   2.363   0.102   2.757  2.2935 -0.1660 -1.1979
  781SOL     OW 2341   2.942   1.430   1.285  0.0534 -0.1188 -0.3305
  781SOL    HW1 2342   3.014   1.410   1.214 -1.0421 -2.0697 -2.3390
  781SOL    HW2 2343   2.890   1.510   1.250 -2.2743  1.3859 -1.6145
  782SOL     OW 2344   2.667   2.213   3.084  0.0760  0.2873 -0.2054
  782SOL    HW1 2345   2.703   2.307   0.023  3.2738  0.9115  1.3817
  782SOL    HW2 2346   2.604   2.225   3.004  0.0815  1.1320  0.0363
  783SOL     OW 2347   0.666   1.477   0.988 -0.0483 -0.3257  0.1790
  783SOL    HW1 2348   0.602   1.408   1.017  0.0219 -0.0495  1.7118
  783SOL    HW2 2349   0.764   1.457   0.998  1.3046  2.3261 -0.2239
  784SOL     OW 2350   2.643   1.229   0.172  0.4006 -0.2031  0.0308
  784SOL    HW1 2351   2.581   1.272   0.105 -0.9720 -0.5683  1.9863
  784SOL    HW2 2352   2.608   1.234   0.265  2.4957  0.5067 -0.7353
  785SOL     OW 2353   2.076   2.562   0.626 -0.9027 -0.1087 -0.2104
  785SOL    HW1 2354   2.008   2.570   0.700 -2.5826  2.5361 -1.7832
  785SOL    HW2 2355   2.085   2.468   0.590  0.2568 -0.3163 -0.7831
  786SOL     OW 2356   0.673   2.136   2.676 -0.3025  0.0380 -0.5066
  786SOL    HW1 2357   0.732   2.071   2.621  2.1239 -1.7938  2.3132
  786SOL    HW2 2358   0.571   2.118   2.667 -2.3196  0.2340  0.4999
  787SOL     OW 2359   1.454   0.520   1.305  0.2727 -1.0170  0.2916
  787SOL    HW1 2360   1.401   0.585   1.367  3.1381 -0.5123 -1.6540
  787SOL    HW2 2361   1.448   0.553   1.209 -0.0211 -1.7004 -1.5890
  788SOL     OW 2362   0.379   0.879   0.322  0.2851 -0.2913  0.5303
  788SOL    HW1 2363   0.475   0.915   0.336 -0.0161 -1.2385  0.8546
  788SOL    HW2 2364   0.321   0.946   0.274 -0.7918 -0.8311  2.2234
  789SOL     OW 2365   2.896   1.924   1.376  0.7119 -0.2160 -0.3466
  789SOL    HW1 2366   2.989   1.883   1.359  1.2066 -0.0505 -0.3067
  789SOL    HW2 2367   2.857   1.947   1.286  0.9797 -1.8856  0.6103
  790SOL     OW 2368   1.321   0.440   2.053 -0.6382  0.0293  0.3515
  790SOL    HW1 2369   1.407   0.418   2.108  0.7656  2.6413 -1.1593
  790SOL    HW2 2370   1.251   0.366   2.075  0.1121 -0.5046 -0.5280
  791SOL     OW 2371   1.156   0.567   0.539 -0.3878  0.3615 -0.5188
  791SOL    HW1 2372   1.233   0.503   0.512  1.0684 -0.6350 -0.0545
  791SOL    HW2 2373   1.162   0.655   0.489 -2.1680  1.8271 -1.6191
  792SOL     OW 2374   1.387   2.918   1.730 -0.3418 -0.3390 -0.2571
  792SOL    HW1 2375   1.349   2.825   1.710 -0.9130 -1.4474  0.0420
  792SOL    HW2 2376   1.471   2.944   1.677  1.0882 -2.3453 -0.6910
  793SOL     OW 2377   0.781   2.983   0.934  1.1492  0.1095 -0.3085
  793SOL    HW1 2378   0.869   3.035   0.940  0.6766 -0.4931 -1.0950
  793SOL    HW2 2379   0.787   2.902   0.993 -0.1196  0.6758  0.4607
  794SOL     OW 2380   0.502   1.262   2.095  0.5696  0.2070  0.0293
  794SOL    HW1 2381   0.576   1.204   2.051  0.9408  1.6172 -1.7577
  794SOL    HW2 2382   0.496   1.260   2.198 -1.3269  0.5036  2.0343
  795SOL     OW 2383   2.931   1.554   2.385 -0.0021  0.1041  0.0199
  795SOL    HW1 2384   2.882   1.639   2.356 -1.5434  0.3466  0.7714
  795SOL    HW2 2385   2.973   1.504   2.306 -2.8900 -1.5425  1.3386
  796SOL     OW 2386   1.987   1.203   2.200  0.2119  0.1401 -0.3181
  796SOL    HW1 2387   2.040   1.155   2.125  0.1776  0.7673 -1.5094
  796SOL    HW2 2388   2.020   1.297   2.222  0.7268  1.9026  1.5850
  797SOL     OW 2389   2.954   3.024   2.741  0.3640  0.0060  0.0532
  797SOL    HW1 2390   3.037   3.020   2.679  1.7985 -1.0703 -0.8117
  797SOL    HW2 2391   2.879   2.954   2.716 -3.9881 -0.2951 -0.1719
  798SOL     OW 2392   0.111   2.062   2.186 -0.2476  0.5406 -0.5641
  798SOL    HW1 2393   0.084   2.076   2.090 -0.8725  1.3220 -0.2970
  798SOL    HW2 2394   0.195   2.113   2.214  1.1207 -0.0827 -0.0487
  799SOL     OW 2395   2.653   2.488   0.000  0.3108 -0.0147  0.1520
  799SOL    HW1 2396   2.714   2.537   0.062 -0.4119 -0.1549 -1.0481
  799SOL    HW2 2397   2.647   2.533   2.996 -0.4387 -2.0725  1.7113
  800SOL     OW 2398   1.401   1.638   0.864  0.2303 -0.0448 -0.2980
  800SOL    HW1 2399   1.318   1.699   0.867 -0.4139  1.2580 -2.1252
  800SOL    HW2 2400   1.474   1.679   0.916 -0.1321  0.3607  0.9272
  801SOL     OW 2401   2.296   0.611   0.774 -0.3917 -0.0615 -0.7265
  801SOL    HW1 2402   2.246   0.532   0.746  0.1866 -0.2351  0.6253
  801SOL    HW2 2403   2.254   0.653   0.855  2.9261 -0.7571 -3.8022
  802SOL     OW 2404   2.523   1.585   0.377  0.6349 -0.0406 -0.3334
  802SOL    HW1 2405   2.574   1.599   0.291  0.1631  0.7641 -1.4449
  802SOL    HW2 2406   2.554   1.667   0.433  1.6895  0.3715  1.6387
  803SOL     OW 2407   1.451   1.892   2.961  0.1893  0.1935 -0.1767
  803SOL    HW1 2408   1.502   1.942   2.888  0.7524 -0.6915 -1.0805
  803SOL    HW2 2409   1.415   1.965   3.025  2.7013  2.6300  0.0383
  804SOL     OW 2410   1.984   1.844   0.110  0.0135 -0.1854  0.1063
  804SOL    HW1 2411   2.063   1.890   0.149 -0.5537 -2.7127  0.7953
  804SOL    HW2 2412   1.976   1.853   0.008  0.3758 -2.9569  1.9892
  805SOL     OW 2413   2.390   1.727   2.951 -0.1955 -0.1115 -0.2040
  805SOL    HW1 2414   2.417   1.800   2.882  0.3348  2.3092 -1.6264
  805SOL    HW2 2415   2.471   1.659   2.961  2.2094  0.1507 -3.1434
  806SOL     OW 2416   0.838   0.647   0.679  0.0907 -0.5527 -0.0208
  806SOL    HW1 2417   0.851   0.599   0.594 -0.7514  1.1345  2.0553
  806SOL    HW2 2418   0.806   0.744   0.667  0.3259 -1.9203  1.2885
  807SOL     OW 2419   2.276   1.433   2.689  0.3808  0.3468  0.2628
  807SOL    HW1 2420   2.251   1.504   2.760 -0.0170  0.0887  0.1435
  807SOL    HW2 2421   2.192   1.404   2.638 -0.9476 -0.7418 -0.4962
  808SOL     OW 2422   0.140   1.513   0.376 -0.1942 -0.0125  0.0588
  808SOL    HW1 2423   0.173   1.416   0.390 -0.0311  0.1766 -3.2272
  808SOL    HW2 2424   0.211   1.583   0.412  2.7107  4.0827  1.7115
  809SOL     OW 2425   2.381   0.942   2.705 -0.7000  0.2722  0.2075
  809SOL    HW1 2426   2.388   1.005   2.784  3.3844 -1.8536 -2.0902
  809SOL    HW2 2427   2.300   0.950   2.649  2.6052  0.5838  0.0819
  810SOL     OW 2428   1.178   1.415   0.452  0.2387 -0.4658  0.5141
  810SOL    HW1 2429   1.274   1.399   0.426  1.4966  0.0493  1.2968
  810SOL    HW2 2430   1.129   1.433   0.370  1.4065  0.4166  0.6108
  811SOL     OW 2431   1.642   2.540   0.720  0.2456  0.7992 -0.1451
  811SOL    HW1 2432   1.556   2.595   0.730 -0.0884 -0.1139  2.4939
  811SOL    HW2 2433   1.637   2.466   0.645 -1.7184 -3.6341 -1.4583
  812SOL     OW 2434   0.362   2.559   1.697 -0.0703 -0.3346  0.1922
  812SOL    HW1 2435   0.313   2.496   1.634 -2.0992 -3.9079  0.3325
  812SOL    HW2 2436   0.453   2.580   1.663  0.7651  2.2179  1.9358
  813SOL     OW 2437   1.066   3.003   1.942  0.0297  0.0247 -0.2848
  813SOL    HW1 2438   1.033   2.960   1.856 -0.5876 -2.1944  2.5099
  813SOL    HW2 2439   0.992   2.996   2.011 -1.2999 -1.0669 -1.4781
  814SOL     OW 2440   1.407   0.131   2.445 -0.6041  0.0548 -0.3837
  814SOL    HW1 2441   1.376   0.048   2.394 -2.4600  0.2283 -3.3603
  814SOL    HW2 2442   1.328   0.191   2.467 -0.3028 -0.2923 -1.4397
  815SOL     OW 2443   0.329   0.260   1.914  0.4538 -0.0041 -0.1327
  815SOL    HW1 2444   0.334   0.160   1.897 -1.3745  2.7886  0.4165
  815SOL    HW2 2445   0.335   0.313   1.828 -0.1922  1.3533  0.5411
  816SOL     OW 2446   2.433   0.265   0.051  0.1251  0.7451  0.3256
  816SOL    HW1 2447   2.427   0.319   3.052 -0.9000 -1.8862  3.2308
  816SOL    HW2 2448   2.367   0.306   0.121  1.0846 -2.9842  0.1762
  817SOL     OW 2449   2.043   0.292   2.646  0.0806 -0.1941 -0.2666
  817SOL    HW1 2450   1.963   0.318   2.587  2.2523 -0.0367 -1.2359
  817SOL    HW2 2451   2.021   0.313   2.743 -0.3152 -1.0515 -0.3880
  818SOL     OW 2452   2.025   0.036   0.169 -0.1074 -0.3578  0.1908
  818SOL    HW1 2453   1.965   0.046   0.088 -1.5440  0.5369 -2.3023
  818SOL    HW2 2454   2.119   0.008   0.141 -1.3778 -1.5548 -0.0716
  819SOL     OW 2455   2.289   1.865   0.087  0.1928 -0.2954  0.4591
  819SOL    HW1 2456   2.373   1.823   0.053  0.6013  1.8787 -2.3705
  819SOL    HW2 2457   2.257   1.931   0.015 -0.1912  2.2706 -1.7572
  820SOL     OW 2458   0.090   1.898   0.199 -0.3171  0.2441  0.0091
  820SOL    HW1 2459   0.068   1.828   0.127  1.4983 -3.0242  0.1392
  820SOL    HW2 2460   0.005   1.940   0.234  1.2195 -1.1909 -0.5861
  821SOL     OW 2461   2.918   2.648   1.228  0.8189 -0.7833  0.3439
  821SOL    HW1 2462   2.893   2.566   1.285 -1.2828  0.0372  1.2571
  821SOL    HW2 2463   2.878   2.738   1.262  1.9704  0.8064  1.7310
  822SOL     OW 2464   2.636   2.506   2.605  0.7296 -0.2284  0.0176
  822SOL    HW1 2465   2.539   2.491   2.643 -0.6889  0.0606  2.0972
  822SOL    HW2 2466   2.648   2.596   2.558 -2.0536 -1.8836 -0.6004
  823SOL     OW 2467   1.595   0.220   2.608 -0.2937  0.2319  0.2038
  823SOL    HW1 2468   1.543   0.257   2.686  1.2679  1.2844  0.3861
  823SOL    HW2 2469   1.533   0.171   2.540  0.3411  1.7034  0.0233
  824SOL     OW 2470   2.577   1.607   1.348  0.1359  0.0524 -0.4426
  824SOL    HW1 2471   2.511   1.676   1.318  1.2376 -3.6632 -0.9718
  824SOL    HW2 2472   2.660   1.620   1.288  0.9329 -0.7293  0.9142
  825SOL     OW 2473   2.799   1.793   2.340 -0.3516 -0.2433  0.4269
  825SOL    HW1 2474   2.724   1.747   2.391  2.0050 -0.9990 -1.6409
  825SOL    HW2 2475   2.779   1.894   2.321 -1.0041  1.5197  1.5901
  826SOL     OW 2476   2.394   1.132   2.386 -0.5340  0.2571 -0.3961
  826SOL    HW1 2477   2.477   1.069   2.398  1.3847 -1.3817 -1.0719
  826SOL    HW2 2478   2.419   1.224   2.394 -1.2299 -5.4308  0.1398
  827SOL     OW 2479   2.504   2.480   1.574 -0.1495  0.6024 -0.3227
  827SOL    HW1 2480   2.530   2.395   1.628 -0.3288  0.3117 -0.1417
  827SOL    HW2 2481   2.410   2.508   1.598 -0.2395 -1.6833  0.0012
  828SOL     OW 2482   2.787   2.824   1.417 -1.0972 -0.1246  0.8764
  828SOL    HW1 2483   2.843   2.906   1.396  0.8878 -2.2376  0.7044
  828SOL    HW2 2484   2.697   2.824   1.366  1.3603  0.8291 -0.7001
  829SOL     OW 2485   1.384   2.118   2.259 -0.3468  0.0522 -0.2389
  829SOL    HW1 2486   1.415   2.210   2.296 -2.7610  0.6925 -1.4743
  829SOL    HW2 2487   1.460   2.056   2.244 -0.5491 -0.3800 -0.9239
  830SOL     OW 2488   1.524   0.233   0.671 -0.4541 -0.3777  0.5156
  830SOL    HW1 2489   1.425   0.239   0.663  0.6765  0.5332 -1.7962
  830SOL    HW2 2490   1.558   0.140   0.688  1.2098  0.3823 -1.0984
  831SOL     OW 2491   2.630   1.431   0.586 -0.6766 -0.6161 -0.5451
  831SOL    HW1 2492   2.726   1.457   0.611  1.3971 -0.3059  1.3203
  831SOL    HW2 2493   2.595   1.479   0.503  0.1752 -1.0964  1.5457
  832SOL     OW 2494   1.597   2.483   1.862 -0.4627 -0.4238 -0.7233
  832SOL    HW1 2495   1.543   2.397   1.846 -0.4917 -1.5154 -1.1621
  832SOL    HW2 2496   1.653   2.519   1.780  0.3330  4.3050 -3.1232
  833SOL     OW 2497   3.069   2.918   2.338  0.4203 -0.1653  0.1242
  833SOL    HW1 2498   3.053   2.837   2.392 -1.4726  1.6379 -0.2332
  833SOL    HW2 2499   2.995   2.981   2.365 -0.8049 -1.4274 -0.2651
  834SOL     OW 2500   1.109   0.861   1.426 -0.4128  0.7863  0.5803
  834SOL    HW1 2501   1.036   0.850   1.357 -1.8090  2.5965 -0.9714
  834SOL    HW2 2502   1.131   0.961   1.437 -0.7073  0.6096  1.1150
  835SOL     OW 2503   2.806   0.630   2.503  0.6715 -0.2934  0.1225
  835SOL    HW1 2504   2.778   0.640   2.407  0.0192 -0.9560 -0.4904
  835SOL    HW2 2505   2.826   0.532   2.523 -0.9273  2.2938  3.1288
  836SOL     OW 2506   1.011   2.170   1.053  0.1672  0.4211  0.5574
  836SOL    HW1 2507   0.965   2.192   1.144  1.6445  1.8093 -0.5648
  836SOL    HW2 2508   1.107   2.206   1.053 -1.0774 -0.3602  0.6211
  837SOL     OW 2509   2.231   0.894   0.894  0.0262  0.6184 -0.3213
  837SOL    HW1 2510   2.207   0.944   0.812 -1.9403  3.1393  3.5576
  837SOL    HW2 2511   2.233   0.954   0.974 -0.5631 -0.6680  1.4173
  838SOL     OW 2512   1.307   1.458   2.461 -0.1350  0.4558 -0.7811
  838SOL    HW1 2513   1.222   1.404   2.439 -2.0634 -1.4527  2.0820
  838SOL    HW2 2514   1.323   1.469   2.564 -0.0654 -0.1422  3.1975
  839SOL     OW 2515   0.536   2.337   2.807  0.2667  0.0527  0.4950
  839SOL    HW1 2516   0.585   2.269   2.756  0.0709 -0.6988  1.0272
  839SOL    HW2 2517   0.600   2.376   2.874 -0.6757  1.4160 -1.0758
  840SOL     OW 2518   0.598   2.759   0.056  0.1537  0.1413 -0.2004
  840SOL    HW1 2519   0.508   2.714   0.033 -0.4704  3.0728  0.2882
  840SOL    HW2 2520   0.642   2.801   3.060  2.2389 -0.6454  0.6920
  841SOL     OW 2521   1.843   2.183   0.156  0.7264  0.4105  0.0452
  841SOL    HW1 2522   1.868   2.104   0.095 -1.0254  1.0904 -1.8163
  841SOL    HW2 2523   1.894   2.268   0.128 -1.3430  1.3186 -1.5883
  842SOL     OW 2524   1.180   1.074   2.713 -0.1413  0.3487 -0.0963
  842SOL    HW1 2525   1.209   1.172   2.740  3.1280  0.0453 -1.0624
  842SOL    HW2 2526   1.258   1.006   2.723 -0.5839 -0.5258 -0.5774
  843SOL     OW 2527   1.365   2.918   0.531  0.4281  0.4893 -0.2033
  843SOL    HW1 2528   1.416   2.832   0.511  2.4760 -1.2005 -0.1008
  843SOL    HW2 2529   1.373   2.928   0.632 -0.0067 -1.0777 -2.8868
  844SOL     OW 2530   2.399   2.847   2.646  0.0198 -0.0507  0.3879
  844SOL    HW1 2531   2.419   2.939   2.688 -2.0464  0.4738  0.7889
  844SOL    HW2 2532   2.333   2.788   2.695  0.9471 -0.0036  0.7580
  845SOL     OW 2533   2.687   2.384   1.175  0.7178 -0.3034  0.1959
  845SOL    HW1 2534   2.647   2.457   1.235  0.1839 -2.5921 -0.1810
  845SOL    HW2 2535   2.655   2.390   1.080  1.7544  0.1543  0.7695
  846SOL     OW 2536   3.035   2.108   2.414 -0.2024 -0.3877  0.0085
  846SOL    HW1 2537   3.078   2.078   2.326 -0.0227  0.9422  0.2346
  846SOL    HW2 2538   3.041   2.038   2.484 -0.8167  0.9636  0.4261
  847SOL     OW 2539   1.567   0.443   1.672  0.4856 -0.1205  0.5446
  847SOL    HW1 2540   1.612   0.403   1.591 -1.0819  3.2599  2.9517
  847SOL    HW2 2541   1.516   0.374   1.730  1.0350  0.7133  3.1927
  848SOL     OW 2542   3.076   0.286   0.097  0.8363 -0.0831  0.1655
  848SOL    HW1 2543   0.027   0.301   0.002  0.9124 -0.9046  1.3312
  848SOL    HW2 2544   3.030   0.374   0.130  1.9631 -0.1041 -0.4440
  849SOL     OW 2545   0.565   0.413   2.919 -0.0648  0.3823 -0.1078
  849SOL    HW1 2546   0.577   0.507   2.876  0.5593  2.1182 -0.1200
  849SOL    HW2 2547   0.576   0.414   3.022 -1.6789  1.3418  2.3271
  850SOL     OW 2548   0.532   2.510   1.110 -0.1040  0.5549  0.4300
  850SOL    HW1 2549   0.536   2.410   1.112 -1.0723  2.8640  1.8747
  850SOL    HW2 2550   0.441   2.537   1.061 -1.1945  0.4752  0.6320
  851SOL     OW 2551   2.452   0.139   2.404 -0.6952 -0.6368  0.0270
  851SOL    HW1 2552   2.446   0.158   2.306  0.4919  0.2102 -1.5096
  851SOL    HW2 2553   2.389   0.203   2.454  0.8840  1.4294  1.3163
  852SOL     OW 2554   1.695   1.436   2.339  0.4491 -0.3139  0.2103
  852SOL    HW1 2555   1.675   1.459   2.435  2.2511  2.2237  0.1991
  852SOL    HW2 2556   1.643   1.352   2.308 -0.3357 -0.6281 -1.5048
  853SOL     OW 2557   2.787   2.657   0.520 -0.1290  0.1909  0.4564
  853SOL    HW1 2558   2.805   2.701   0.608  0.3779  0.4467 -0.2843
  853SOL    HW2 2559   2.808   2.554   0.526  0.0617 -4.3311  0.7517
  854SOL     OW 2560   2.392   0.355   0.939  0.9810  0.1935 -0.1851
  854SOL    HW1 2561   2.318   0.342   0.872  1.4990  2.2948 -0.7095
  854SOL    HW2 2562   2.466   0.411   0.909 -2.9265 -0.3362  3.2276
  855SOL     OW 2563   1.541   2.097   0.633 -0.4549  0.1742  0.0745
  855SOL    HW1 2564   1.501   2.087   0.540  2.1327  0.5003  0.4819
  855SOL    HW2 2565   1.475   2.110   0.705  4.3115 -0.4150 -1.5211
  856SOL     OW 2566   2.675   0.384   0.085  0.7223 -0.5766 -0.5958
  856SOL    HW1 2567   2.723   0.325   0.013  0.1880 -1.8103  1.8045
  856SOL    HW2 2568   2.578   0.347   0.099 -3.5085 -0.7323  1.4083
  857SOL     OW 2569   1.666   2.824   1.974 -0.6219  0.1992 -0.2959
  857SOL    HW1 2570   1.700   2.851   1.884 -2.0708 -0.5976  0.4470
  857SOL    HW2 2571   1.640   2.725   1.971 -0.3466 -0.7648 -2.7787
  858SOL     OW 2572   2.401   2.129   1.446  0.1957  0.0554  0.1781
  858SOL    HW1 2573   2.435   2.151   1.354 -1.2814  1.6343  1.2903
  858SOL    HW2 2574   2.319   2.190   1.462 -0.9466 -1.4293  3.3600
  859SOL     OW 2575   1.311   2.337   0.706 -0.0654 -0.4216  0.1576
  859SOL    HW1 2576   1.245   2.415   0.713  1.5005 -1.2067  0.3748
  859SOL    HW2 2577   1.371   2.340   0.785 -0.5558  0.7289  0.7808
  860SOL     OW 2578   2.215   2.384   0.071  0.0569  0.0287 -0.0445
  860SOL    HW1 2579   2.297   2.440   0.091 -0.0776 -0.2106 -2.0203
  860SOL    HW2 2580   2.218   2.300   0.129  1.3622 -1.5137  1.9445
  861SOL     OW 2581   1.891   2.609   1.271  0.4274  0.1838  0.3229
  861SOL    HW1 2582   1.978   2.578   1.308 -2.4933 -0.3759 -0.1755
  861SOL    HW2 2583   1.895   2.708   1.240  0.8362  3.2536 -1.7317
  862SOL     OW 2584   1.990   0.026   2.652 -0.1189 -0.1425 -0.2495
  862SOL    HW1 2585   2.027   0.123   2.631 -0.6957  0.7072 -0.3136
  862SOL    HW2 2586   1.898   0.035   2.685  0.7107  0.1413 -1.9273
  863SOL     OW 2587   0.420   0.317   0.515  0.0996 -0.6677 -0.6810
  863SOL    HW1 2588   0.492   0.249   0.523 -0.2242 -0.0218 -2.2513
  863SOL    HW2 2589   0.330   0.277   0.513 -0.8029  1.0966 -0.1864
  864SOL     OW 2590   2.634   2.597   1.808  0.1257  0.0732 -0.4073
  864SOL    HW1 2591   2.596   2.523   1.864  0.5612 -2.0876 -1.7387
  864SOL    HW2 2592   2.560   2.657   1.771 -0.5622  0.2507 -3.4580
  865SOL     OW 2593   3.010   2.063   2.881  0.1635  0.4089 -0.0414
  865SOL    HW1 2594   2.968   2.042   2.973 -1.9226  0.9853  0.9217
  865SOL    HW2 2595   2.981   2.154   2.849 -0.1209  0.0631  2.2111
  866SOL     OW 2596   2.436   0.488   2.939 -0.1952  0.1088 -0.8842
  866SOL    HW1 2597   2.511   0.505   2.871  1.0728 -0.7486 -0.2853
  866SOL    HW2 2598   2.443   0.543   3.024  3.5242 -0.6159  1.4620
  867SOL     OW 2599   0.184   0.168   2.580 -0.5150  0.1251 -0.5036
  867SOL    HW1 2600   0.125   0.249   2.592  2.0760 -2.1478 -1.8919
  867SOL    HW2 2601   0.281   0.190   2.609 -0.5370  0.3247  1.4552
  868SOL     OW 2602   1.107   2.506   0.784  0.0554 -0.3813 -0.5564
  868SOL    HW1 2603   1.039   2.440   0.824  0.3937  1.0695  1.4167
  868SOL    HW2 2604   1.060   2.561   0.708  1.1039  0.0473 -0.7163
  869SOL     OW 2605   1.429   1.081   1.353  0.6684  0.3829  0.4055
  869SOL    HW1 2606   1.433   1.109   1.256  1.7068  0.0091  3.2106
  869SOL    HW2 2607   1.508   1.022   1.379 -0.7926 -0.9359  0.1690
  870SOL     OW 2608   1.873   1.763   1.309 -0.3460 -0.4883 -1.3881
  870SOL    HW1 2609   1.846   1.827   1.383 -1.7196  0.9077  2.1813
  870SOL    HW2 2610   1.873   1.669   1.346 -0.7197  1.5671 -2.2832
  871SOL     OW 2611   1.298   1.583   1.423  0.6910 -0.2448  0.1450
  871SOL    HW1 2612   1.207   1.573   1.376 -0.2871 -2.3240  1.5519
  871SOL    HW2 2613   1.340   1.494   1.434 -0.0081  3.0539 -0.9330
  872SOL     OW 2614   1.522   0.903   1.069  0.0803  0.3492 -0.1794
  872SOL    HW1 2615   1.622   0.883   1.048  0.2737  0.6262  1.0901
  872SOL    HW2 2616   1.510   1.003   1.092 -0.4159 -1.9713 -1.1846
  873SOL     OW 2617   1.387   0.869   2.694 -0.0778 -0.3782 -0.4460
  873SOL    HW1 2618   1.467   0.934   2.712  1.4388  0.4886  1.3817
  873SOL    HW2 2619   1.370   0.860   2.594  1.8013 -0.1105 -1.6426
  874SOL     OW 2620   0.387   1.106   1.211  0.1720  0.3803  0.2140
  874SOL    HW1 2621   0.387   1.144   1.305 -2.8686 -1.5237 -0.3526
  874SOL    HW2 2622   0.290   1.117   1.176 -1.0675  0.2987  0.4114
  875SOL     OW 2623   2.600   2.748   0.218  0.2453  0.2192 -0.4394
  875SOL    HW1 2624   2.551   2.838   0.218  0.3858  0.0389  0.6202
  875SOL    HW2 2625   2.686   2.756   0.165  1.2852  4.2121  0.8795
  876SOL     OW 2626   1.122   0.640   2.821  0.5377  0.9734  0.1747
  876SOL    HW1 2627   1.080   0.565   2.877  0.3985  0.8425 -0.4592
  876SOL    HW2 2628   1.073   0.728   2.828 -1.6628  0.2962 -2.2173
  877SOL     OW 2629   2.917   3.038   1.349 -0.3129 -0.0183  0.2386
  877SOL    HW1 2630   3.003   3.063   1.402  1.9935 -0.3316  1.4717
  877SOL    HW2 2631   2.937   3.058   1.250 -0.9764  0.3979 -0.2325
  878SOL     OW 2632   1.983   2.525   2.646  0.4936  0.2314 -0.1447
  878SOL    HW1 2633   1.939   2.556   2.730  1.0866 -0.4961 -0.3776
  878SOL    HW2 2634   2.070   2.575   2.632 -1.6069  0.5377  0.5331
  879SOL     OW 2635   2.348   1.720   1.749  0.3561  0.2099  0.0050
  879SOL    HW1 2636   2.442   1.687   1.731  0.0746  0.2859 -0.3055
  879SOL    HW2 2637   2.277   1.646   1.760  0.9063  0.0045 -1.3306
  880SOL     OW 2638   0.950   0.942   0.913  0.0543 -0.1465  0.2154
  880SOL    HW1 2639   0.962   1.036   0.963  0.8697  3.6435  1.7563
  880SOL    HW2 2640   0.873   0.896   0.956  0.6065 -2.4396 -1.5982
  881SOL     OW 2641   1.171   1.862   0.067  0.1896  0.1120  0.4279
  881SOL    HW1 2642   1.232   1.946   0.064  1.8839  1.4768  1.4592
  881SOL    HW2 2643   1.224   1.782   0.110 -1.7128 -1.4848  0.7195
  882SOL     OW 2644   1.675   0.209   1.076  0.0601 -0.2383 -0.2896
  882SOL    HW1 2645   1.678   0.301   1.119 -1.0770 -1.1069 -1.5182
  882SOL    HW2 2646   1.738   0.147   1.123 -3.1492  3.2607 -1.3654
  883SOL     OW 2647   1.749   0.515   2.333 -0.3019  0.3757  0.3806
  883SOL    HW1 2648   1.658   0.549   2.366  0.0258 -2.0417 -2.1026
  883SOL    HW2 2649   1.798   0.592   2.295  2.0018 -0.3076  1.1010
  884SOL     OW 2650   2.748   0.652   0.131  0.2335  0.6822  0.8812
  884SOL    HW1 2651   2.741   0.726   0.061  0.2326  2.4421 -0.1770
  884SOL    HW2 2652   2.691   0.567   0.106  1.9101  0.3233 -0.3181
  885SOL     OW 2653   1.027   2.010   0.833  0.0478  0.0929 -0.0714
  885SOL    HW1 2654   1.050   2.072   0.755  1.7073  0.7353  0.1834
  885SOL    HW2 2655   1.017   2.066   0.920 -0.0945 -1.8558 -2.7597
  886SOL     OW 2656   1.489   1.400   2.833 -0.4749 -0.4431  0.1199
  886SOL    HW1 2657   1.565   1.339   2.859 -0.0361 -2.0133 -2.2952
  886SOL    HW2 2658   1.398   1.362   2.845  0.7302 -1.5343 -0.3221
  887SOL     OW 2659   1.395   0.258   1.840 -0.2335  0.2783 -0.0170
  887SOL    HW1 2660   1.328   0.180   1.820 -1.1636 -1.3400 -0.2361
  887SOL    HW2 2661   1.358   0.330   1.900  1.1040 -0.2102  1.1293
  888SOL     OW 2662   2.616   1.645   1.634  0.1223  0.1890  0.0290
  888SOL    HW1 2663   2.626   1.740   1.668  0.9656 -3.7480  0.0581
  888SOL    HW2 2664   2.594   1.648   1.532  0.5479 -1.7835 -0.6991
  889SOL     OW 2665   2.945   2.463   0.793  0.5569 -0.2047  0.6562
  889SOL    HW1 2666   3.038   2.487   0.762 -1.9109  0.8151  1.0171
  889SOL    HW2 2667   2.920   2.535   0.861  2.1628 -1.3285  1.1319
  890SOL     OW 2668   0.227   1.767   2.136 -0.1788 -0.1474 -0.1097
  890SOL    HW1 2669   0.168   1.714   2.067 -1.7403 -0.6826 -0.4736
  890SOL    HW2 2670   0.187   1.851   2.167 -0.6678 -0.6995  1.0581
  891SOL     OW 2671   0.889   1.829   0.702  0.5052  0.5090  0.6977
  891SOL    HW1 2672   0.948   1.760   0.661  1.5206  2.1686  0.0400
  891SOL    HW2 2673   0.942   1.898   0.752 -0.4202 -0.4148  1.7696
  892SOL     OW 2674   2.979   2.167   1.536 -0.5243  0.0016  0.3206
  892SOL    HW1 2675   2.908   2.238   1.548  0.9239  0.9982 -1.1808
  892SOL    HW2 2676   2.949   2.099   1.467  0.0895  0.0083 -1.4974
  893SOL     OW 2677   0.047   3.057   1.493  0.5862 -0.6665  0.3612
  893SOL    HW1 2678   0.027   0.036   1.572  1.3932 -0.2116  1.9407
  893SOL    HW2 2679   0.141   3.068   1.454 -0.1440 -2.1339 -3.5334
  894SOL     OW 2680   2.832   1.788   0.722  0.1913 -0.6028 -0.5751
  894SOL    HW1 2681   2.852   1.772   0.628 -1.5949  0.7042  1.6333
  894SOL    HW2 2682   2.835   1.704   0.785  0.6149 -3.3669  2.0709
  895SOL     OW 2683   1.737   2.358   1.518  0.6552 -0.3942  0.3625
  895SOL    HW1 2684   1.752   2.270   1.567 -0.7161  2.6821 -1.0861
  895SOL    HW2 2685   1.789   2.358   1.429  3.6684  1.7399 -4.2758
  896SOL     OW 2686   0.284   0.112   1.336  0.5327  0.2588  0.0544
  896SOL    HW1 2687   0.248   0.062   1.255 -0.2632 -1.7553  2.5854
  896SOL    HW2 2688   0.327   0.206   1.319 -0.3255  0.5443  1.0373
  897SOL     OW 2689   1.188   1.101   1.476  0.2451 -0.5933  0.3971
  897SOL    HW1 2690   1.275   1.085   1.421 -1.4096  0.6700  1.9642
  897SOL    HW2 2691   1.212   1.116   1.575 -2.2545  1.3174 -1.8225
  898SOL     OW 2692   0.847   0.180   1.602  0.6493 -0.3615 -0.1227
  898SOL    HW1 2693   0.839   0.179   1.706 -1.1111  1.2443  0.5183
  898SOL    HW2 2694   0.941   0.151   1.572 -0.8708  1.0719 -0.0049
  899SOL     OW 2695   1.443   0.225   0.053  0.3495 -0.7829  0.6762
  899SOL    HW1 2696   1.508   0.158   0.095 -2.0531  1.8078  0.5626
  899SOL    HW2 2697   1.493   0.307   0.015  0.2603 -0.2091 -0.3120
  900SOL     OW 2698   0.692   0.286   2.205  0.2386 -0.7073  0.2990
  900SOL    HW1 2699   0.711   0.185   2.229  0.2341 -1.4269  0.3945
  900SOL    HW2 2700   0.601   0.298   2.160  0.8716 -1.2583 -0.2096
  901SOL     OW 2701   0.918   2.054   0.139 -0.0147 -0.2452 -0.0422
  901SOL    HW1 2702   0.958   1.978   0.193 -2.0816  1.1989  0.6646
  901SOL    HW2 2703   0.930   2.145   0.183 -0.5154 -0.0370 -1.5361
  902SOL     OW 2704   1.965   0.158   0.944 -0.6694 -0.1631 -0.1528
  902SOL    HW1 2705   1.890   0.188   0.885 -1.5415  1.4182  2.3498
  902SOL    HW2 2706   1.938   0.134   1.038  0.7258  0.2475 -1.2738
  903SOL     OW 2707   2.798   1.221   2.518 -0.4645 -0.0640  0.2478
  903SOL    HW1 2708   2.823   1.305   2.569 -1.2214 -2.0909 -1.1243
  903SOL    HW2 2709   2.774   1.239   2.423  0.9099 -1.8272  0.3239
  904SOL     OW 2710   1.522   1.507   0.375  0.3372 -0.0152 -0.1036
  904SOL    HW1 2711   1.573   1.576   0.315  0.1178 -1.3612 -0.4245
  904SOL    HW2 2712   1.520   1.533   0.471  0.7950  1.5002 -0.0167
  905SOL     OW 2713   1.750   2.901   1.424 -0.2804 -0.1716  0.2863
  905SOL    HW1 2714   1.701   2.969   1.481 -1.1994 -0.6647 -0.8090
  905SOL    HW2 2715   1.847   2.895   1.451  0.7299  1.7613 -2.1540
  906SOL     OW 2716   2.133   2.829   1.253  0.4449  0.7699 -0.5480
  906SOL    HW1 2717   2.143   2.795   1.349 -0.8733 -1.2392  2.1953
  906SOL    HW2 2718   2.142   2.931   1.251  2.9156  1.2831 -1.8132
  907SOL     OW 2719   1.704   1.083   0.349  0.3006  0.4073  0.0373
  907SOL    HW1 2720   1.646   0.998   0.364  0.4213  0.6148 -0.3429
  907SOL    HW2 2721   1.761   1.085   0.270 -0.8576 -1.9236  2.0038
  908SOL     OW 2722   1.698   0.435   1.386 -0.5328  0.4446  0.1898
  908SOL    HW1 2723   1.606   0.467   1.341  1.8955 -1.8193 -0.9687
  908SOL    HW2 2724   1.744   0.516   1.426 -2.9699  0.5570 -0.9763
  909SOL     OW 2725   2.359   0.082   0.766  0.2477 -0.1415 -0.5318
  909SOL    HW1 2726   2.455   0.105   0.787 -3.0942 -1.7684 -1.5912
  909SOL    HW2 2727   2.292   0.157   0.782  0.0702 -0.4997 -4.4248
  910SOL     OW 2728   2.683   0.484   2.177  0.3299  0.3102 -0.3861
  910SOL    HW1 2729   2.623   0.453   2.099 -2.3795  1.5037  2.6251
  910SOL    HW2 2730   2.681   0.583   2.202  1.1190  0.6260 -0.8378
  911SOL     OW 2731   2.635   0.137   2.807  0.1670 -0.3678 -0.4922
  911SOL    HW1 2732   2.554   0.199   2.817 -2.8939  2.3354  1.9521
  911SOL    HW2 2733   2.642   0.054   2.873  3.2117 -1.4909  0.4306
  912SOL     OW 2734   0.762   0.993   1.373  0.3155 -0.3015 -0.0617
  912SOL    HW1 2735   0.736   1.052   1.454  1.2403 -2.0942  0.4538
  912SOL    HW2 2736   0.685   0.983   1.309  1.4193 -0.1857  0.0622
  913SOL     OW 2737   2.922   2.370   1.304  0.0723 -0.3609  0.2725
  913SOL    HW1 2738   2.889   2.378   1.398 -1.0360 -0.7479 -2.8667
  913SOL    HW2 2739   2.849   2.354   1.236 -0.8617 -0.8247 -1.0892
  914SOL     OW 2740   1.771   0.747   1.225  0.2525  0.0393 -0.4565
  914SOL    HW1 2741   1.821   0.727   1.307 -0.1712  2.0278 -3.5572
  914SOL    HW2 2742   1.737   0.662   1.182  0.6612  1.5442  0.0957
  915SOL     OW 2743   0.073   1.404   1.107  0.0219 -0.0722  0.0050
  915SOL    HW1 2744   0.169   1.443   1.112 -0.7874  2.4283  1.8206
  915SOL    HW2 2745   0.046   1.401   1.011 -1.4784  1.4396  0.4651
  916SOL     OW 2746   1.925   2.329   0.955  0.8106  0.1015  0.1221
  916SOL    HW1 2747   2.020   2.329   0.990  1.2706 -1.6756 -0.4869
  916SOL    HW2 2748   1.906   2.236   0.918  0.1998  0.1641 -0.8877
  917SOL     OW 2749   1.644   2.550   2.113  0.5062 -0.0838 -0.4514
  917SOL    HW1 2750   1.568   2.592   2.168  0.0090 -1.6255  3.9036
  917SOL    HW2 2751   1.603   2.517   2.022 -5.5288 -2.6539 -2.7036
  918SOL     OW 2752   1.903   2.086   2.430  0.2963  0.1729  0.6869
  918SOL    HW1 2753   1.909   2.173   2.378 -0.0729 -0.1025 -0.3406
  918SOL    HW2 2754   1.939   2.100   2.523  0.0434  0.2586 -1.5681
  919SOL     OW 2755   0.737   0.359   1.399 -0.3360 -0.2493 -0.4175
  919SOL    HW1 2756   0.639   0.352   1.378 -1.0004 -0.8199  1.6416
  919SOL    HW2 2757   0.774   0.296   1.475  4.0510 -1.7080 -3.3926
  920SOL     OW 2758   2.909   0.373   2.019 -0.6713  0.1675  0.0622
  920SOL    HW1 2759   2.855   0.450   2.055  2.4292  1.5510  1.5272
  920SOL    HW2 2760   3.000   0.399   1.987 -2.5214  1.1289 -0.8655
  921SOL     OW 2761   2.740   1.102   1.638  0.7037 -0.0391  0.2621
  921SOL    HW1 2762   2.760   1.002   1.666  0.1273 -1.4675  1.4705
  921SOL    HW2 2763   2.637   1.109   1.635 -1.8837 -0.1926  0.3619
  922SOL     OW 2764   2.669   2.231   0.635  0.0170  0.0007  0.0771
  922SOL    HW1 2765   2.611   2.313   0.644  1.7132  2.1210 -0.5902
  922SOL    HW2 2766   2.763   2.260   0.615  0.6396  0.4300 -1.4075
  923SOL     OW 2767   0.462   2.285   0.394  0.0931  0.0503  0.5472
  923SOL    HW1 2768   0.455   2.333   0.306  2.0819 -1.1112  3.2354
  923SOL    HW2 2769   0.515   2.195   0.387  1.2907 -1.1731  1.0099
  924SOL     OW 2770   1.220   1.326   2.819 -0.1699 -0.0608  1.1562
  924SOL    HW1 2771   1.147   1.306   2.886  1.3727  0.5935 -0.6470
  924SOL    HW2 2772   1.212   1.413   2.772  1.1426  1.8653 -0.9011
  925SOL     OW 2773   2.882   1.283   0.793 -0.3760  0.3609  0.0470
  925SOL    HW1 2774   2.826   1.199   0.808  1.7354 -0.6462 -1.5253
  925SOL    HW2 2775   2.876   1.315   0.696 -0.6336 -0.1302 -1.3548
  926SOL     OW 2776   0.136   0.154   0.839  0.4150 -0.5127  0.7369
  926SOL    HW1 2777   0.214   0.086   0.844 -1.7569 -0.1642  0.5142
  926SOL    HW2 2778   0.048   0.119   0.803 -0.5597  1.3320 -0.0926
  927SOL     OW 2779   0.406   2.060   2.673  0.2914  0.1004  0.4136
  927SOL    HW1 2780   0.341   2.036   2.747 -1.4618  3.0040  1.0722
  927SOL    HW2 2781   0.409   1.991   2.596 -1.7133  0.4870 -1.5328
  928SOL     OW 2782   0.102   0.221   2.202 -0.0599 -0.0238  0.2388
  928SOL    HW1 2783   0.092   0.151   2.127  0.4339 -0.1459  0.6905
  928SOL    HW2 2784   0.164   0.184   2.278  1.9333  0.2593  1.1424
  929SOL     OW 2785   2.767   1.925   1.131 -0.2364  0.2671 -0.0660
  929SOL    HW1 2786   2.673   1.935   1.167 -1.1708 -1.5028 -3.2462
  929SOL    HW2 2787   2.775   1.975   1.045  0.9760 -0.8428  2.9890
  930SOL     OW 2788   1.830   0.296   2.487 -0.1392  0.0813 -0.5080
  930SOL    HW1 2789   1.742   0.279   2.535  1.5463  1.4479  1.0033
  930SOL    HW2 2790   1.827   0.385   2.439  0.9110 -1.6208 -0.7510
  931SOL     OW 2791   2.209   1.295   2.971 -0.0989  0.1255  0.5270
  931SOL    HW1 2792   2.159   1.282   3.062 -0.8760 -3.3513  1.6843
  931SOL    HW2 2793   2.152   1.267   2.891 -2.6187  1.5241  0.1370
  932SOL     OW 2794   1.745   0.897   0.603 -0.1603  0.5982 -0.5669
  932SOL    HW1 2795   1.697   0.805   0.626 -1.9668 -0.9186 -0.8166
  932SOL    HW2 2796   1.732   0.919   0.502 -3.4624  0.6588 -0.6839
  933SOL     OW 2797   2.180   1.202   0.732 -0.5965  0.8186  0.3728
  933SOL    HW1 2798   2.205   1.185   0.631  0.8011  0.9007 -0.3088
  933SOL    HW2 2799   2.079   1.208   0.741  1.6286 -0.0641  3.9715
  934SOL     OW 2800   2.095   1.143   2.769 -0.3184 -0.2578  0.7020
  934SOL    HW1 2801   2.003   1.186   2.758  1.8057  0.4573  1.3099
  934SOL    HW2 2802   2.142   1.121   2.677  1.1279 -0.1971 -3.4076
  935SOL     OW 2803   0.073   1.383   0.715 -0.6642  0.6060 -0.2055
  935SOL    HW1 2804   0.084   1.485   0.722 -2.4127 -1.4095  0.6243
  935SOL    HW2 2805   3.067   1.348   0.721  3.4764 -0.2448 -2.3519
  936SOL     OW 2806   0.158   2.692   0.399 -0.1408  0.4065 -0.3512
  936SOL    HW1 2807   0.251   2.732   0.409  1.2102 -0.8968  0.0256
  936SOL    HW2 2808   0.152   2.639   0.314  2.9632 -0.3728  1.8659
  937SOL     OW 2809   3.043   2.327   1.995  0.3028 -0.4667  0.0447
  937SOL    HW1 2810   3.072   2.403   1.934 -0.1780  0.6762 -4.3489
  937SOL    HW2 2811   3.083   2.241   1.960  0.0714  2.0421 -1.4501
  938SOL     OW 2812   2.520   2.283   2.854 -0.5899 -0.1675  0.6697
  938SOL    HW1 2813   2.477   2.361   2.806  1.4402  1.1524 -1.3061
  938SOL    HW2 2814   2.573   2.227   2.787  0.7393  2.1674  0.4286
  939SOL     OW 2815   1.107   0.536   1.287  0.3737  0.0456  0.0441
  939SOL    HW1 2816   1.169   0.617   1.287  3.2938 -3.2323 -1.0506
  939SOL    HW2 2817   1.104   0.496   1.380  0.5435 -0.0142 -2.1020
  940SOL     OW 2818   2.428   2.776   2.974  0.4390  0.2784  0.0527
  940SOL    HW1 2819   2.358   2.842   2.942 -1.5319  2.7728  0.1032
  940SOL    HW2 2820   2.405   2.738   3.067 -0.8554 -1.6168 -1.5813
  941SOL     OW 2821   2.585   2.765   2.213 -0.1882  0.1145  0.5253
  941SOL    HW1 2822   2.670   2.758   2.157  2.3455 -2.1218  1.0396
  941SOL    HW2 2823   2.547   2.851   2.170  2.8069  2.6520 -0.0552
  942SOL     OW 2824   1.484   0.235   1.304 -0.2671  0.3324  0.4796
  942SOL    HW1 2825   1.554   0.192   1.242 -0.2306 -2.1989  0.6005
  942SOL    HW2 2826   1.484   0.336   1.310  1.8482 -0.4282  2.0312
  943SOL     OW 2827   0.674   1.423   2.480 -0.3581  0.0267  0.0701
  943SOL    HW1 2828   0.750   1.440   2.417  0.0863  1.3324 -0.9472
  943SOL    HW2 2829   0.610   1.355   2.438 -2.4580 -3.0760  0.7807
  944SOL     OW 2830   2.521   0.770   0.922 -0.0168  0.5403 -0.5683
  944SOL    HW1 2831   2.608   0.774   0.869  1.1736  0.4159 -0.1088
  944SOL    HW2 2832   2.445   0.820   0.871 -0.3235  2.8053 -0.7455
  945SOL     OW 2833   3.054   0.168   2.896 -0.1480  0.0851  0.3621
  945SOL    HW1 2834   3.036   0.144   2.800  2.0210  1.1487  0.9964
  945SOL    HW2 2835   0.043   0.234   2.923 -1.2701 -1.3419 -0.1514
  946SOL     OW 2836   0.081   1.301   1.500 -0.3472  0.3624  0.2142
  946SOL    HW1 2837   0.001   1.360   1.495  0.3646 -0.1935  1.9164
  946SOL    HW2 2838   0.064   1.236   1.578  0.6222 -1.0889  0.7871
  947SOL     OW 2839   0.827   0.264   2.931  0.9235  0.1505  0.3466
  947SOL    HW1 2840   0.741   0.312   2.898  0.4633  0.1606  2.4044
  947SOL    HW2 2841   0.811   0.168   2.951 -2.1856  0.5612  1.8665
  948SOL     OW 2842   2.337   1.571   1.177  0.1689  0.6461 -0.3088
  948SOL    HW1 2843   2.268   1.501   1.203 -1.7491 -1.5587  0.0613
  948SOL    HW2 2844   2.419   1.533   1.131 -0.2354 -0.3454  0.5464
  949SOL     OW 2845   0.328   0.983   2.777 -0.2571 -0.3504 -0.6264
  949SOL    HW1 2846   0.372   1.026   2.861 -0.3854  1.2319  0.7230
  949SOL    HW2 2847   0.229   1.005   2.775 -0.5956 -4.1462  0.0324
  950SOL     OW 2848   0.278   2.777   1.320 -0.0214 -0.5141 -0.2613
  950SOL    HW1 2849   0.270   2.774   1.424 -1.8232 -0.7279  0.5759
  950SOL    HW2 2850   0.364   2.733   1.288  1.5166 -3.1829 -0.9201
  951SOL     OW 2851   0.899   1.730   2.574 -0.4724  0.1916 -0.4969
  951SOL    HW1 2852   0.809   1.741   2.622  3.6390  0.4063 -0.0574
  951SOL    HW2 2853   0.965   1.806   2.593  0.3615 -0.7976 -1.1469
  952SOL     OW 2854   0.744   1.238   0.511 -0.5836  0.4054  0.2068
  952SOL    HW1 2855   0.807   1.170   0.552  3.3816 -0.8315  1.5900
  952SOL    HW2 2856   0.785   1.334   0.516  0.6276  2.0444  0.3615
  953SOL     OW 2857   2.143   1.830   2.646 -0.8190  0.0265  0.1071
  953SOL    HW1 2858   2.220   1.812   2.578  2.7722  1.5028 -2.7343
  953SOL    HW2 2859   2.144   1.758   2.717  0.3883  1.4870  0.3267
  954SOL     OW 2860   1.565   0.452   0.841 -0.0013  0.1778 -0.0207
  954SOL    HW1 2861   1.532   0.385   0.767  0.3493  0.7195 -0.7717
  954SOL    HW2 2862   1.496   0.483   0.905  4.4819 -1.6428 -1.2789
  955SOL     OW 2863   0.998   1.800   2.964  0.2473 -0.2237  0.2772
  955SOL    HW1 2864   0.951   1.882   2.939  0.5461 -3.4850  0.7016
  955SOL    HW2 2865   1.055   1.825   3.047  3.5166 -0.5733  3.8983
  956SOL     OW 2866   2.799   0.652   1.943 -0.7378 -0.1591  0.2466
  956SOL    HW1 2867   2.853   0.727   1.902  0.4607  0.2648 -0.2387
  956SOL    HW2 2868   2.771   0.578   1.875  0.4825 -2.6209  2.2175
  957SOL     OW 2869   1.780   2.062   2.049 -0.2307  0.0571 -0.4906
  957SOL    HW1 2870   1.843   1.984   2.033  1.6623  1.2418 -1.0507
  957SOL    HW2 2871   1.696   2.067   1.992 -0.7674 -1.9736  0.8841
  958SOL     OW 2872   1.670   0.931   1.401 -0.0185  0.6806 -0.0325
  958SOL    HW1 2873   1.723   1.017   1.413 -2.3461 -1.6062 -1.7679
  958SOL    HW2 2874   1.714   0.878   1.321  1.6718 -2.5957 -2.6677
  959SOL     OW 2875   1.523   2.165   1.747 -0.2168  0.7615 -0.0068
  959SOL    HW1 2876   1.530   2.061   1.738  1.1131 -1.5606  0.2522
  959SOL    HW2 2877   1.493   2.191   1.842  0.4701 -1.0456  2.3813
  960SOL     OW 2878   0.551   0.974   2.620  0.4239  0.1068 -0.5977
  960SOL    HW1 2879   0.466   1.000   2.673 -1.0121 -0.0269 -0.0510
  960SOL    HW2 2880   0.526   0.904   2.551  0.7942 -1.0834 -1.8063
  961SOL     OW 2881   0.205   1.244   3.028 -0.3271  0.1742 -0.0977
  961SOL    HW1 2882   0.146   1.259   2.944  0.0731  0.8560 -0.6814
  961SOL    HW2 2883   0.192   1.325   0.003  0.4631  0.1666  0.9596
  962SOL     OW 2884   1.030   2.181   2.754  0.0603 -0.3482 -0.4779
  962SOL    HW1 2885   0.985   2.262   2.710 -0.8882 -0.2365  1.7591
  962SOL    HW2 2886   1.124   2.206   2.789 -3.7400  0.4133  3.2560
  963SOL     OW 2887   2.866   1.757   3.038  0.8443 -0.1528 -0.3629
  963SOL    HW1 2888   2.968   1.735   3.041 -0.0706 -0.2837 -0.7596
  963SOL    HW2 2889   2.851   1.858   3.047  0.0950 -0.1826  1.7412
  964SOL     OW 2890   0.554   2.136   2.164  0.2616  0.1377  0.3568
  964SOL    HW1 2891   0.604   2.135   2.075  0.4264 -1.6056 -0.3817
  964SOL    HW2 2892   0.610   2.180   2.240 -2.5233 -2.0288 -1.0937
  965SOL     OW 2893   1.543   1.718   1.330  0.1477  0.0854 -0.5825
  965SOL    HW1 2894   1.444   1.712   1.365  1.4622  2.9637  0.0232
  965SOL    HW2 2895   1.610   1.695   1.403 -1.0063 -2.0690 -0.6480
  966SOL     OW 2896   2.947   1.548   0.329  0.3879  0.4600  0.0958
  966SOL    HW1 2897   3.049   1.547   0.313  3.7496 -0.9903 -1.0486
  966SOL    HW2 2898   2.905   1.475   0.275  1.1661 -0.4708  0.6772
  967SOL     OW 2899   1.987   2.780   2.308  0.4956  0.0231 -0.0938
  967SOL    HW1 2900   1.887   2.803   2.317  0.9752 -1.3010  1.9083
  967SOL    HW2 2901   2.007   2.688   2.266  1.6102 -0.7077 -0.1040
  968SOL     OW 2902   1.691   1.257   2.970 -0.2957  0.3781 -0.1723
  968SOL    HW1 2903   1.711   1.311   3.057  0.5861  0.9073  2.0692
  968SOL    HW2 2904   1.615   1.195   2.997  0.7886 -1.5738 -1.0301
  969SOL     OW 2905   0.218   1.332   2.308 -0.3184 -0.4201  0.3528
  969SOL    HW1 2906   0.200   1.236   2.283  1.0741  1.0659  2.6036
  969SOL    HW2 2907   0.318   1.344   2.311  0.5337  0.2731 -0.4596
  970SOL     OW 2908   2.619   2.904   0.476 -0.0975 -0.2228 -0.1769
  970SOL    HW1 2909   2.658   2.816   0.469 -2.1085  3.2915  1.2273
  970SOL    HW2 2910   2.600   2.956   0.393  1.1051  3.8400  2.3785
  971SOL     OW 2911   2.065   2.038   0.681 -0.1062 -0.1846 -0.5660
  971SOL    HW1 2912   2.160   2.044   0.714  0.3981 -0.0184 -1.7270
  971SOL    HW2 2913   2.000   2.103   0.729  0.2759  2.9041 -1.7376
  972SOL     OW 2914   0.246   1.562   2.746 -0.0470  0.6981 -0.1961
  972SOL    HW1 2915   0.236   1.574   2.643  1.1865 -3.8184 -2.0806
  972SOL    HW2 2916   0.328   1.506   2.769  1.1183  0.9621 -3.0205
  973SOL     OW 2917   0.906   0.504   0.446  0.4326 -0.3456 -0.1479
  973SOL    HW1 2918   0.897   0.416   0.390 -0.0977  0.5035 -0.5020
  973SOL    HW2 2919   0.997   0.517   0.491 -2.0087 -0.7691  1.9367
  974SOL     OW 2920   2.273   0.679   1.712 -0.4358  0.2660  0.1661
  974SOL    HW1 2921   2.253   0.626   1.798  2.4794 -1.1149 -3.5743
  974SOL    HW2 2922   2.370   0.717   1.707  1.8937  0.0770  1.5522
  975SOL     OW 2923   0.182   3.033   0.578  0.1390  0.1353 -0.2636
  975SOL    HW1 2924   0.278   3.003   0.582 -2.1184 -3.4329 -0.3739
  975SOL    HW2 2925   0.121   2.968   0.625  0.6114  1.9724 -2.8006
  976SOL     OW 2926   0.674   1.451   1.325  0.5605  0.2554 -0.1442
  976SOL    HW1 2927   0.742   1.378   1.294  0.5083 -0.3360 -1.9674
  976SOL    HW2 2928   0.717   1.542   1.319  2.6954 -0.2336 -2.1179
  977SOL     OW 2929   1.399   2.117   0.360  0.1170  0.5452 -0.5378
  977SOL    HW1 2930   1.481   2.098   0.305  2.1926  2.6413  1.4876
  977SOL    HW2 2931   1.358   2.203   0.336  1.3148 -0.7566  0.7374
  978SOL     OW 2932   0.110   0.879   0.043  0.2882  0.4674 -0.1300
  978SOL    HW1 2933   0.094   0.924   3.037  0.8045  0.4479 -1.6626
  978SOL    HW2 2934   0.149   0.946   0.106 -1.8926 -4.0245 -1.5587
  979SOL     OW 2935   1.890   1.503   0.449  0.3259 -0.1971  0.1889
  979SOL    HW1 2936   1.825   1.428   0.470 -0.5892 -2.4524  1.5793
  979SOL    HW2 2937   1.879   1.592   0.505  1.2130  3.2775 -0.1842
  980SOL     OW 2938   0.443   1.792   1.493 -0.1871  0.2161  0.1223
  980SOL    HW1 2939   0.522   1.836   1.539  1.6622 -1.5073 -0.3441
  980SOL    HW2 2940   0.434   1.817   1.395  0.5536 -0.0832  2.9660
  981SOL     OW 2941   2.682   1.497   2.725  0.0660 -0.6318 -0.5179
  981SOL    HW1 2942   2.778   1.480   2.693 -3.7075 -0.9821 -1.3293
  981SOL    HW2 2943   2.620   1.419   2.700  0.6657 -0.2811 -1.3557
  982SOL     OW 2944   0.227   1.982   1.722  0.0880  0.0716  0.3101
  982SOL    HW1 2945   0.223   1.999   1.620  0.6359  0.3525 -2.5147
  982SOL    HW2 2946   0.250   1.884   1.748  0.5343  0.1374  0.7645
  983SOL     OW 2947   1.449   0.063   2.123  0.0076  0.2793 -0.2357
  983SOL    HW1 2948   1.352   0.041   2.099 -0.4106 -1.3109  1.3165
  983SOL    HW2 2949   1.459   0.149   2.178 -2.8191 -1.4158 -0.9831
  984SOL     OW 2950   2.898   2.979   3.047  0.2761  0.3643 -0.3711
  984SOL    HW1 2951   2.959   3.015   0.034  0.5476 -0.2329  1.9405
  984SOL    HW2 2952   2.915   3.016   2.953 -2.0154 -1.7271 -0.4923
  985SOL     OW 2953   1.445   1.440   2.030 -0.4935  0.6233 -0.3241
  985SOL    HW1 2954   1.468   1.486   2.118 -0.6195 -0.9384 -1.2937
  985SOL    HW2 2955   1.519   1.376   2.002  0.4624 -0.0729  0.7720
  986SOL     OW 2956   1.888   0.505   2.746 -0.2403 -0.4138  0.0558
  986SOL    HW1 2957   1.923   0.549   2.834  1.2599  1.1920 -1.0628
  986SOL    HW2 2958   1.818   0.569   2.707  0.0686 -0.3346  0.4169
  987SOL     OW 2959   3.042   1.820   2.491  0.5415  0.3313  0.0211
  987SOL    HW1 2960   3.019   1.807   2.590  0.0926 -0.7786 -1.9417
  987SOL    HW2 2961   2.966   1.796   2.429 -0.5912  2.1580  0.6732
  988SOL     OW 2962   2.846   0.232   1.405  0.0731  0.4300  0.1869
  988SOL    HW1 2963   2.941   0.262   1.384  0.7156 -0.4287 -0.2535
  988SOL    HW2 2964   2.832   0.136   1.376  0.3805  2.6531  2.2540
  989SOL     OW 2965   1.872   0.046   1.190 -0.5275  0.5746 -0.1529
  989SOL    HW1 2966   1.830   3.042   1.164 -2.4380 -0.1246  0.0333
  989SOL    HW2 2967   1.923   0.044   1.278 -1.6141 -0.8629 -0.8846
  990SOL     OW 2968   2.551   0.961   0.049 -0.0571 -0.0742 -0.0763
  990SOL    HW1 2969   2.593   0.896   3.073 -1.0946 -3.5117 -0.5218
  990SOL    HW2 2970   2.611   1.041   0.074  1.1157  1.7673 -0.7591
  991SOL     OW 2971   0.284   1.247   0.419  0.7035 -0.0311 -0.3343
  991SOL    HW1 2972   0.219   1.180   0.463  0.6774  2.8617  0.3749
  991SOL    HW2 2973   0.365   1.262   0.478 -2.9118 -1.3475 -0.4597
  992SOL     OW 2974   1.883   1.372   1.875  0.5194  0.3283 -0.1312
  992SOL    HW1 2975   1.886   1.437   1.957 -0.9100 -1.1022  3.4151
  992SOL    HW2 2976   1.974   1.331   1.850 -0.0673  3.1983 -1.5772
  993SOL     OW 2977   0.309   2.287   0.621 -0.8455  1.1295  0.2454
  993SOL    HW1 2978   0.265   2.374   0.644  1.6674 -0.5671 -1.3136
  993SOL    HW2 2979   0.356   2.277   0.532 -2.8663 -1.0104  0.2624
  994SOL     OW 2980   2.910   1.860   1.655  0.1637 -0.0034 -0.1182
  994SOL    HW1 2981   2.810   1.872   1.682 -1.8231 -1.1643 -0.4814
  994SOL    HW2 2982   2.926   1.893   1.556  1.8118  3.6137 -3.9432
  995SOL     OW 2983   1.868   1.820   2.677  0.2355 -0.4633 -0.0027
  995SOL    HW1 2984   1.808   1.859   2.605  0.3763  1.0537 -1.8071
  995SOL    HW2 2985   1.963   1.861   2.671  2.9481  0.2807  0.1974
  996SOL     OW 2986   2.128   2.301   0.524  0.7655 -0.7886 -0.3330
  996SOL    HW1 2987   2.042   2.283   0.473 -3.9066 -2.7602 -0.7085
  996SOL    HW2 2988   2.198   2.232   0.492 -0.9763  0.6868 -0.0981
  997SOL     OW 2989   1.007   1.617   2.088 -0.1967  0.3073  0.0226
  997SOL    HW1 2990   0.951   1.631   2.171 -1.8344 -0.9046  0.9521
  997SOL    HW2 2991   1.064   1.534   2.093  3.3356  0.3769  0.2275
  998SOL     OW 2992   0.017   2.317   0.481  0.0366 -0.2057  0.2836
  998SOL    HW1 2993   0.054   2.322   0.384  2.4007  0.7447 -0.4883
  998SOL    HW2 2994   0.050   2.237   0.539 -0.6048 -1.1703  0.4826
  999SOL     OW 2995   0.793   2.917   0.450 -0.5769  0.5555  0.0638
  999SOL    HW1 2996   0.767   2.846   0.381  2.2387 -0.0030 -0.3300
  999SOL    HW2 2997   0.868   2.875   0.502 -1.5432  0.4969  1.9557
 1000SOL     OW 2998   1.125   0.261   0.134 -0.3459 -0.1295  0.1778
 1000SOL    HW1 2999   1.196   0.192   0.104  2.1601 -2.8155 -0.2847
 1000SOL    HW2 3000   1.171   0.348   0.119  0.9197 -2.3008  2.1626
   3.08684   3.08684   3.08684
